/*--------------------------------*- C++ -*----------------------------------*\
| =========                 |                                                 |
| \\      /  F ield         | OpenFOAM: The Open Source CFD Toolbox           |
|  \\    /   O peration     | Version:  2206                                  |
|   \\  /    A nd           | Website:  www.openfoam.com                      |
|    \\/     M anipulation  |                                                 |
\*---------------------------------------------------------------------------*/
FoamFile
{
    version     2.0;
    format      ascii;
    arch        "LSB;label=32;scalar=64";
    class       volScalarField;
    location    "10";
    object      p;
}
// * * * * * * * * * * * * * * * * * * * * * * * * * * * * * * * * * * * * * //

dimensions      [0 2 -2 0 0 0 0];

internalField   nonuniform List<scalar> 
67442
(
-0.0199249
-0.0199248
-0.0199249
-0.0198996
-0.0198994
-0.0199249
-0.0199249
-0.0198996
-0.0199248
-0.0199249
-0.0199248
-0.0198995
-0.0199248
-0.0199008
-0.0199009
-0.0199008
-0.0199008
-0.0199009
-0.0199248
-0.0199249
-0.0199248
-0.019902
-0.0199248
-0.0199024
-0.0199008
-0.0199248
-0.0199019
-0.0199026
-0.019901
-0.019901
-0.0199008
-0.0199008
-0.0199009
-0.0199009
-0.0199008
-0.019901
-0.0199019
-0.0199249
-0.0199024
-0.019902
-0.0199249
-0.0199025
-0.019901
-0.019901
-0.0199008
-0.0199018
-0.0199248
-0.0199023
-0.0199008
-0.0199009
-0.0199249
-0.0199018
-0.0199023
-0.0199009
-0.019901
-0.0199248
-0.019902
-0.0199024
-0.0199009
-0.019901
-0.0199009
-0.0199009
-0.0199008
-0.0199248
-0.019902
-0.0199026
-0.0199008
-0.019901
-0.0199008
-0.019901
-0.0199008
-0.0199008
-0.0199488
-0.019949
-0.0199008
-0.0199489
-0.019901
-0.0199488
-0.0199487
-0.0199009
-0.0199009
-0.0199489
-0.0199487
-0.0199009
-0.0199491
-0.020002
-0.020002
-0.020002
-0.020002
-0.0199487
-0.0199489
-0.0199008
-0.0199489
-0.019901
-0.020002
-0.0200018
-0.0200019
-0.0199488
-0.0199487
-0.0199009
-0.0199009
-0.0199487
-0.0199488
-0.0199009
-0.019949
-0.0200018
-0.0199487
-0.0199005
-0.0199489
-0.0199012
-0.0199493
-0.0199487
-0.0199011
-0.0199487
-0.0199004
-0.0199488
-0.0199012
-0.0199494
-0.0199487
-0.0199011
-0.0199492
-0.0199009
-0.0199009
-0.019949
-0.019949
-0.0199007
-0.019949
-0.019949
-0.0200017
-0.0199486
-0.0199003
-0.0199488
-0.0199012
-0.0199486
-0.0199493
-0.019901
-0.0199486
-0.0199002
-0.0199488
-0.0199012
-0.0199486
-0.0199493
-0.019901
-0.0199491
-0.019901
-0.019901
-0.0199489
-0.0199489
-0.0199007
-0.0199488
-0.019949
-0.0199008
-0.0199489
-0.0199009
-0.0199488
-0.0199487
-0.0199009
-0.019901
-0.0199489
-0.0199487
-0.0199009
-0.0199488
-0.0199005
-0.0199489
-0.0199012
-0.0199488
-0.0199494
-0.0199011
-0.0199487
-0.0199004
-0.0199489
-0.0199012
-0.0199494
-0.0199487
-0.0199011
-0.0199493
-0.019901
-0.0199009
-0.019949
-0.0199491
-0.0199007
-0.0199491
-0.020002
-0.020002
-0.020002
-0.020002
-0.0199487
-0.0199489
-0.0199008
-0.0199489
-0.019901
-0.020002
-0.0200018
-0.0200019
-0.0199488
-0.0199487
-0.0199009
-0.0199009
-0.0199488
-0.0199487
-0.0199009
-0.0199489
-0.019949
-0.0199008
-0.019949
-0.019901
-0.0199489
-0.0199488
-0.019901
-0.0199009
-0.0199488
-0.0199489
-0.019901
-0.0199489
-0.019949
-0.0199008
-0.019949
-0.019901
-0.0199488
-0.0199488
-0.0199009
-0.019901
-0.0199489
-0.0199488
-0.019901
-0.0199487
-0.0199003
-0.0199488
-0.0199012
-0.0199486
-0.0199493
-0.019901
-0.0199486
-0.0199003
-0.0199488
-0.0199011
-0.0199494
-0.0199486
-0.0199011
-0.0199491
-0.0199009
-0.0199009
-0.0199489
-0.0199489
-0.0199007
-0.019949
-0.0199487
-0.019949
-0.0199008
-0.0199489
-0.019901
-0.0199488
-0.0199487
-0.019901
-0.0199009
-0.0199487
-0.0199489
-0.0199009
-0.0199488
-0.019949
-0.0199008
-0.0199489
-0.019901
-0.0199488
-0.0199487
-0.019901
-0.0199009
-0.0199487
-0.0199489
-0.0199009
-0.0199491
-0.0199491
-0.0199249
-0.019925
-0.0199249
-0.0199467
-0.0199009
-0.0199009
-0.01995
-0.0199487
-0.0199487
-0.0199031
-0.0199466
-0.0199008
-0.0199007
-0.0199501
-0.0199486
-0.0199487
-0.019903
-0.0199467
-0.0199011
-0.0199009
-0.0199501
-0.0199488
-0.0199486
-0.0199031
-0.0199466
-0.0199008
-0.0199008
-0.0199502
-0.0199487
-0.0199487
-0.019903
-0.0199249
-0.0199248
-0.0199249
-0.019925
-0.0199249
-0.0199249
-0.0199248
-0.0199248
-0.0199249
-0.0199503
-0.0198992
-0.0199479
-0.0199022
-0.0199505
-0.0199475
-0.0198993
-0.0199503
-0.0199472
-0.0199024
-0.0198992
-0.0199473
-0.0199503
-0.0198992
-0.0199502
-0.0198992
-0.0199478
-0.0199023
-0.0199505
-0.0199474
-0.0198994
-0.0199502
-0.0199471
-0.0198995
-0.0199025
-0.0199501
-0.0199472
-0.0198995
-0.0199502
-0.0198992
-0.0199478
-0.0199021
-0.0199474
-0.0199505
-0.0198994
-0.0199501
-0.0199471
-0.0199024
-0.0198995
-0.0199472
-0.0199501
-0.0198995
-0.0199503
-0.0198993
-0.0199479
-0.0199023
-0.0199475
-0.0199505
-0.0198996
-0.0199502
-0.0199471
-0.0199025
-0.0198996
-0.0199473
-0.0199502
-0.0198996
-0.0199502
-0.0198991
-0.0199478
-0.0199021
-0.0199474
-0.0199504
-0.0198992
-0.0199503
-0.0199472
-0.0199023
-0.019899
-0.0199473
-0.0199503
-0.0198992
-0.0199502
-0.0198991
-0.0199478
-0.0199021
-0.0199474
-0.0199504
-0.0198993
-0.0199502
-0.0199472
-0.0198991
-0.0199022
-0.0199503
-0.0199472
-0.0198992
-0.0199503
-0.0198992
-0.0199479
-0.0199023
-0.0199505
-0.0199475
-0.0198994
-0.0199503
-0.0199472
-0.0198992
-0.0199024
-0.0199503
-0.0199473
-0.0198993
-0.0199502
-0.0198993
-0.0199478
-0.0199023
-0.0199505
-0.0199474
-0.0198994
-0.0199502
-0.0199471
-0.0198995
-0.0199025
-0.0199502
-0.0199473
-0.0198995
-0.0199009
-0.0199009
-0.0199009
-0.0199009
-0.019901
-0.0199008
-0.0199008
-0.0199009
-0.0199009
-0.0199009
-0.019901
-0.019901
-0.019901
-0.019901
-0.0199011
-0.0199009
-0.0199009
-0.0199009
-0.0199009
-0.0199009
-0.0199008
-0.0199008
-0.0199008
-0.0199008
-0.0199008
-0.0199009
-0.0199009
-0.0199009
-0.0199009
-0.0199009
-0.0199009
-0.0199009
-0.0199009
-0.0199009
-0.0199009
-0.0199008
-0.0199008
-0.0199008
-0.0199008
-0.0199008
-0.019901
-0.0199009
-0.0199009
-0.0199009
-0.019901
-0.0199011
-0.0199011
-0.0199011
-0.0199012
-0.0199012
-0.0199011
-0.0199011
-0.0199011
-0.0199011
-0.0199011
-0.0199008
-0.0199008
-0.0199008
-0.0199009
-0.0199009
-0.0199009
-0.0199008
-0.0199008
-0.0199009
-0.0199009
-0.0199009
-0.0199009
-0.0199009
-0.0199009
-0.019901
-0.0199008
-0.0199008
-0.0199008
-0.0199008
-0.0199009
-0.0199008
-0.0199009
-0.0199009
-0.0199009
-0.0199009
-0.0199488
-0.0199489
-0.0199489
-0.0199488
-0.0199488
-0.0199489
-0.0199489
-0.0199489
-0.0199489
-0.0199489
-0.0199491
-0.0199491
-0.0199491
-0.0199491
-0.019949
-0.0200019
-0.0200019
-0.0200019
-0.0200019
-0.0200019
-0.0200018
-0.0200018
-0.0200018
-0.0200018
-0.0200019
-0.0199489
-0.0199489
-0.0199489
-0.0199489
-0.0199488
-0.0199489
-0.0199489
-0.0199489
-0.0199489
-0.0199488
-0.0200019
-0.0200019
-0.0200019
-0.0200019
-0.0200019
-0.019949
-0.019949
-0.019949
-0.019949
-0.0199489
-0.0200018
-0.0200018
-0.0200018
-0.0200018
-0.0200019
-0.019901
-0.019901
-0.0199011
-0.0199011
-0.0199011
-0.0199489
-0.0199489
-0.0199489
-0.0199489
-0.0199489
-0.019901
-0.0199009
-0.0199009
-0.0199009
-0.019901
-0.019949
-0.0199491
-0.0199491
-0.019949
-0.019949
-0.0199008
-0.0199008
-0.0199008
-0.0199008
-0.0199009
-0.0199009
-0.0199009
-0.0199009
-0.019901
-0.019901
-0.0199491
-0.0199491
-0.0199491
-0.0199491
-0.0199491
-0.019949
-0.019949
-0.019949
-0.019949
-0.019949
-0.019949
-0.019949
-0.019949
-0.019949
-0.019949
-0.019949
-0.019949
-0.019949
-0.019949
-0.019949
-0.0200018
-0.0200018
-0.0200018
-0.0200018
-0.0200018
-0.0199489
-0.0199489
-0.0199489
-0.0199489
-0.0199489
-0.0199011
-0.0199011
-0.0199012
-0.0199012
-0.0199012
-0.019949
-0.019949
-0.0199489
-0.0199489
-0.0199489
-0.0199009
-0.0199008
-0.0199008
-0.0199008
-0.0199009
-0.0199492
-0.0199492
-0.0199492
-0.0199492
-0.0199492
-0.0199492
-0.0199492
-0.0199492
-0.0199492
-0.0199492
-0.0200018
-0.0200018
-0.0200018
-0.0200018
-0.0200018
-0.0200019
-0.0200018
-0.0200018
-0.0200018
-0.0200019
-0.0199488
-0.0199488
-0.0199488
-0.0199488
-0.0199487
-0.0199489
-0.0199489
-0.0199489
-0.0199489
-0.0199488
-0.0200019
-0.0200019
-0.0200019
-0.0200019
-0.0200019
-0.0199489
-0.0199489
-0.0199489
-0.0199489
-0.0199489
-0.019949
-0.019949
-0.019949
-0.019949
-0.019949
-0.0199489
-0.0199489
-0.0199489
-0.0199489
-0.0199489
-0.0199009
-0.0199008
-0.0199008
-0.0199009
-0.0199009
-0.0199489
-0.0199489
-0.0199489
-0.0199489
-0.0199489
-0.0199009
-0.0199009
-0.0199009
-0.0199009
-0.0199009
-0.019949
-0.019949
-0.019949
-0.0199489
-0.0199489
-0.0199488
-0.0199488
-0.0199488
-0.0199488
-0.0199488
-0.019949
-0.019949
-0.019949
-0.019949
-0.0199489
-0.0199489
-0.0199489
-0.0199489
-0.0199489
-0.0199489
-0.019949
-0.019949
-0.019949
-0.019949
-0.0199489
-0.0199492
-0.0199492
-0.0199492
-0.0199492
-0.0199491
-0.0199491
-0.0199491
-0.0199491
-0.0199491
-0.019949
-0.0199489
-0.019949
-0.019949
-0.0199489
-0.0199489
-0.019949
-0.019949
-0.0199491
-0.019949
-0.019949
-0.0199489
-0.019949
-0.019949
-0.019949
-0.0199489
-0.0199008
-0.0199008
-0.0199008
-0.0199009
-0.0199009
-0.0199489
-0.0199489
-0.0199489
-0.0199489
-0.0199489
-0.0199008
-0.0199008
-0.0199008
-0.0199008
-0.0199008
-0.0199009
-0.0199009
-0.0199009
-0.0199009
-0.019901
-0.019901
-0.0199009
-0.0199009
-0.0199009
-0.019901
-0.0199491
-0.0199491
-0.0199491
-0.0199491
-0.0199491
-0.019901
-0.019901
-0.019901
-0.019901
-0.0199011
-0.0199491
-0.0199491
-0.019949
-0.019949
-0.019949
-0.019901
-0.0199009
-0.0199009
-0.019901
-0.019901
-0.0199489
-0.0199489
-0.0199489
-0.0199489
-0.0199489
-0.0199009
-0.0199009
-0.0199009
-0.0199009
-0.0199009
-0.0199489
-0.0199489
-0.0199489
-0.0199489
-0.0199489
-0.0199009
-0.0199009
-0.0199009
-0.0199009
-0.019901
-0.0200019
-0.0200019
-0.0200019
-0.0200019
-0.0200019
-0.019901
-0.019901
-0.019901
-0.019901
-0.0199011
-0.0199489
-0.0199489
-0.0199489
-0.0199489
-0.0199489
-0.0199009
-0.0199009
-0.0199009
-0.0199009
-0.0199009
-0.019949
-0.019949
-0.019949
-0.019949
-0.0199489
-0.019901
-0.019901
-0.019901
-0.019901
-0.0199011
-0.0199489
-0.0199489
-0.0199489
-0.0199489
-0.0199489
-0.0199009
-0.0199009
-0.0199009
-0.0199009
-0.019901
-0.019949
-0.0199491
-0.0199491
-0.019949
-0.019949
-0.019901
-0.019901
-0.019901
-0.019901
-0.0199011
-0.0199489
-0.019949
-0.0199489
-0.0199489
-0.0199489
-0.019901
-0.019901
-0.0199009
-0.019901
-0.019901
-0.019949
-0.019949
-0.019949
-0.019949
-0.019949
-0.0199488
-0.0199489
-0.0199489
-0.0199488
-0.0199488
-0.0199007
-0.0199007
-0.0199007
-0.0199007
-0.0199007
-0.019949
-0.019949
-0.019949
-0.019949
-0.019949
-0.0199008
-0.0199008
-0.0199008
-0.0199008
-0.0199009
-0.0199008
-0.0199008
-0.0199008
-0.0199008
-0.0199008
-0.0199489
-0.0199489
-0.0199489
-0.0199489
-0.0199489
-0.0199009
-0.0199009
-0.0199009
-0.0199009
-0.0199009
-0.0199489
-0.0199489
-0.0199489
-0.0199489
-0.0199489
-0.0199009
-0.0199009
-0.0199009
-0.0199009
-0.0199009
-0.0199009
-0.0199009
-0.0199009
-0.0199009
-0.019901
-0.0200019
-0.0200019
-0.0200019
-0.0200019
-0.0200019
-0.0199009
-0.0199009
-0.0199009
-0.0199009
-0.0199009
-0.019949
-0.019949
-0.019949
-0.019949
-0.019949
-0.0199009
-0.0199009
-0.0199009
-0.0199009
-0.0199009
-0.019949
-0.019949
-0.019949
-0.019949
-0.019949
-0.0199009
-0.0199009
-0.0199009
-0.019901
-0.019901
-0.0199489
-0.019949
-0.0199489
-0.0199489
-0.0199489
-0.0199009
-0.0199009
-0.0199008
-0.0199009
-0.0199009
-0.019949
-0.019949
-0.019949
-0.019949
-0.019949
-0.0199009
-0.0199009
-0.0199009
-0.019901
-0.019901
-0.0199008
-0.0199008
-0.0199008
-0.0199009
-0.0199009
-0.0199489
-0.0199489
-0.0199489
-0.0199489
-0.0199489
-0.0199009
-0.0199009
-0.0199009
-0.0199009
-0.0199009
-0.019949
-0.019949
-0.019949
-0.019949
-0.0199489
-0.0199008
-0.0199008
-0.0199008
-0.0199008
-0.0199008
-0.0199489
-0.0199489
-0.0199489
-0.0199489
-0.0199489
-0.0199008
-0.0199007
-0.0199007
-0.0199008
-0.0199008
-0.0199009
-0.0199009
-0.0199009
-0.0199009
-0.0199009
-0.0199489
-0.019949
-0.019949
-0.0199489
-0.0199489
-0.0199008
-0.0199008
-0.0199008
-0.0199008
-0.0199008
-0.019949
-0.019949
-0.019949
-0.019949
-0.019949
-0.0199008
-0.0199008
-0.0199008
-0.0199008
-0.0199009
-0.0198232
-0.0198486
-0.0198233
-0.0198231
-0.0198475
-0.0198231
-0.0198459
-0.0198476
-0.0198475
-0.0198231
-0.0198464
-0.0198459
-0.0198476
-0.0198474
-0.0197994
-0.0197994
-0.0198475
-0.0198475
-0.0197994
-0.0197993
-0.0198475
-0.0197995
-0.0197992
-0.0198476
-0.0197993
-0.0198474
-0.0197994
-0.0197994
-0.0198475
-0.0198475
-0.0197994
-0.0197994
-0.0198475
-0.0197992
-0.0197995
-0.0198479
-0.0197993
-0.0198472
-0.0197989
-0.0197994
-0.0198472
-0.0197996
-0.0198479
-0.0197989
-0.0198472
-0.019799
-0.0198475
-0.0197992
-0.0198477
-0.0198016
-0.0197981
-0.0198472
-0.0198473
-0.0197994
-0.0197994
-0.0198452
-0.0198232
-0.0198231
-0.0198231
-0.0198232
-0.0198232
-0.0197977
-0.0198009
-0.0198459
-0.0198489
-0.0198008
-0.0197976
-0.0198488
-0.0197978
-0.019849
-0.0198003
-0.0198461
-0.0198007
-0.0197976
-0.0198488
-0.0197977
-0.0198009
-0.0198489
-0.019846
-0.0197976
-0.0198008
-0.0198488
-0.019798
-0.0198491
-0.0197978
-0.0198488
-0.0198486
-0.0198232
-0.0198231
-0.0198231
-0.0198476
-0.0198476
-0.0198474
-0.0198474
-0.0198476
-0.0198474
-0.0198464
-0.0198232
-0.0198458
-0.0198476
-0.0198464
-0.0197991
-0.019799
-0.0197994
-0.0198479
-0.0197993
-0.0198472
-0.0197995
-0.0197988
-0.0198471
-0.0197994
-0.0198479
-0.0197993
-0.0198472
-0.0197994
-0.0197987
-0.0198472
-0.0197989
-0.0198475
-0.0198475
-0.0197991
-0.0197991
-0.0198476
-0.0197995
-0.0197992
-0.0198476
-0.0197993
-0.0198474
-0.0197994
-0.0197995
-0.0198475
-0.0198474
-0.0197994
-0.0197995
-0.0198475
-0.0197995
-0.0197992
-0.0198476
-0.0197992
-0.0198475
-0.0198014
-0.0197979
-0.0198471
-0.0198472
-0.0197993
-0.0197992
-0.0198451
-0.0198232
-0.0197979
-0.019849
-0.0198004
-0.019846
-0.0197977
-0.0198007
-0.0198487
-0.019798
-0.019801
-0.0198459
-0.0198487
-0.019801
-0.019798
-0.0198487
-0.0197977
-0.019849
-0.0198003
-0.019846
-0.0197976
-0.0198007
-0.0198488
-0.0198475
-0.0198476
-0.0198476
-0.0198476
-0.0198475
-0.0198476
-0.0198476
-0.0198476
-0.0198476
-0.0198476
-0.0197994
-0.0197994
-0.0197994
-0.0197994
-0.0197994
-0.0197992
-0.0197992
-0.0197992
-0.0197993
-0.0197993
-0.0197992
-0.0197992
-0.0197992
-0.0197992
-0.0197992
-0.0197993
-0.0197993
-0.0197993
-0.0197993
-0.0197994
-0.0198476
-0.0198477
-0.0198477
-0.0198476
-0.0198476
-0.0197992
-0.0197992
-0.0197992
-0.0197992
-0.0197992
-0.0198476
-0.0198476
-0.0198476
-0.0198476
-0.0198476
-0.0197993
-0.0197992
-0.0197992
-0.0197992
-0.0197992
-0.0198476
-0.0198476
-0.0198476
-0.0198476
-0.0198475
-0.0197993
-0.0197993
-0.0197993
-0.0197993
-0.0197993
-0.0198476
-0.0198477
-0.0198477
-0.0198476
-0.0198476
-0.0198475
-0.0198475
-0.0198475
-0.0198475
-0.0198475
-0.0198475
-0.0198476
-0.0198476
-0.0198475
-0.0198475
-0.0197992
-0.0197992
-0.0197992
-0.0197992
-0.0197993
-0.0198475
-0.0198475
-0.0198475
-0.0198475
-0.0198475
-0.0197992
-0.0197992
-0.0197992
-0.0197992
-0.0197992
-0.0198476
-0.0198476
-0.0198476
-0.0198476
-0.0198476
-0.0198476
-0.0198476
-0.0198476
-0.0198476
-0.0198476
-0.0198475
-0.0198475
-0.0198475
-0.0198475
-0.0198475
-0.0198475
-0.0198475
-0.0198475
-0.0198475
-0.0198475
-0.019799
-0.019799
-0.019799
-0.0197991
-0.0197991
-0.019799
-0.019799
-0.0197991
-0.0197991
-0.0197991
-0.0197993
-0.0197993
-0.0197993
-0.0197993
-0.0197994
-0.0197993
-0.0197993
-0.0197993
-0.0197993
-0.0197993
-0.0197992
-0.0197993
-0.0197993
-0.0197993
-0.0197993
-0.0198476
-0.0198476
-0.0198476
-0.0198476
-0.0198475
-0.0198475
-0.0198475
-0.0198475
-0.0198475
-0.0198475
-0.0197993
-0.0197993
-0.0197993
-0.0197993
-0.0197993
-0.0198476
-0.0198476
-0.0198476
-0.0198476
-0.0198475
-0.0198475
-0.0198475
-0.0198475
-0.0198475
-0.0198474
-0.0197992
-0.0197992
-0.0197992
-0.0197992
-0.0197993
-0.0198474
-0.0198475
-0.0198475
-0.0198475
-0.0198474
-0.0197991
-0.0197991
-0.0197991
-0.0197991
-0.0197992
-0.019799
-0.019799
-0.0197991
-0.0197991
-0.0197991
-0.019799
-0.019799
-0.019799
-0.019799
-0.0197991
-0.0197993
-0.0197992
-0.0197992
-0.0197992
-0.0197993
-0.0198475
-0.0198475
-0.0198475
-0.0198475
-0.0198475
-0.0197993
-0.0197993
-0.0197993
-0.0197993
-0.0197993
-0.0198476
-0.0198477
-0.0198477
-0.0198477
-0.0198476
-0.0198476
-0.0198476
-0.0198476
-0.0198475
-0.0198475
-0.0263438
-0.0267761
-0.026776
-0.026776
-0.0267511
-0.0267
-0.0267511
-0.0267763
-0.0267764
-0.026751
-0.026776
-0.0267759
-0.0267759
-0.026751
-0.0267761
-0.026345
-0.0263451
-0.0264963
-0.026495
-0.026495
-0.0269025
-0.0267524
-0.0267526
-0.0267524
-0.0269024
-0.0267523
-0.0267523
-0.0267761
-0.026776
-0.0267761
-0.0267534
-0.0267759
-0.0268781
-0.0267539
-0.0267523
-0.0267761
-0.0267535
-0.026754
-0.0267525
-0.0267525
-0.0263448
-0.0264952
-0.0263448
-0.0264952
-0.0265474
-0.0266987
-0.0266987
-0.0265488
-0.0265488
-0.0266989
-0.0265487
-0.026699
-0.0265486
-0.0267524
-0.0267523
-0.0267525
-0.0267525
-0.0269026
-0.0267524
-0.0269024
-0.0267526
-0.026901
-0.0267536
-0.0267763
-0.0268786
-0.0267541
-0.026901
-0.0267536
-0.0267763
-0.0268782
-0.0269015
-0.0268785
-0.0267541
-0.0267526
-0.0267525
-0.0269032
-0.0269022
-0.0267523
-0.0267534
-0.0267759
-0.0267538
-0.0267523
-0.0267524
-0.0267759
-0.0267534
-0.0267539
-0.0267523
-0.0267524
-0.0267759
-0.0267535
-0.0267539
-0.0267523
-0.0267524
-0.0267524
-0.0267525
-0.0267522
-0.0267761
-0.0267535
-0.026754
-0.0267523
-0.0267524
-0.0267523
-0.0267525
-0.0267523
-0.0267523
-0.0264466
-0.0264952
-0.0264952
-0.0264469
-0.0264469
-0.0264954
-0.026393
-0.0263446
-0.0263452
-0.0263931
-0.0263929
-0.0263452
-0.0263936
-0.026393
-0.0263445
-0.0263453
-0.0263931
-0.0263929
-0.0263452
-0.0263937
-0.0263935
-0.026345
-0.026345
-0.0263933
-0.0263933
-0.0263447
-0.026447
-0.0264949
-0.0264469
-0.0264955
-0.0264471
-0.0264949
-0.0264464
-0.026447
-0.0264949
-0.0264469
-0.0264956
-0.0264471
-0.0264949
-0.0264463
-0.0268542
-0.0269023
-0.0269025
-0.0268546
-0.0268542
-0.0268546
-0.0269023
-0.0268006
-0.0268007
-0.0267524
-0.0268008
-0.0267525
-0.0268543
-0.0268541
-0.0268542
-0.0268006
-0.0268008
-0.0267524
-0.0267526
-0.0268006
-0.0268008
-0.0267524
-0.0268008
-0.026854
-0.0268003
-0.0268005
-0.0267523
-0.0268004
-0.0267524
-0.0268003
-0.0268002
-0.0267524
-0.0267523
-0.0268002
-0.0268003
-0.0267523
-0.0268007
-0.0268002
-0.0267519
-0.0267527
-0.0268004
-0.0267527
-0.0268007
-0.0268003
-0.0268002
-0.0267519
-0.0267527
-0.0268004
-0.0267526
-0.0268008
-0.0268003
-0.0268008
-0.0267525
-0.0267525
-0.0267523
-0.0268006
-0.0268006
-0.0263934
-0.0264467
-0.0263934
-0.0264466
-0.0265972
-0.0265488
-0.0265488
-0.0265485
-0.0265971
-0.0265971
-0.0266508
-0.0266992
-0.0266986
-0.0266506
-0.0266986
-0.0266509
-0.0266501
-0.0266508
-0.0266993
-0.0266986
-0.0266507
-0.0266986
-0.0266509
-0.02665
-0.0266504
-0.0266989
-0.0266989
-0.0266991
-0.0266507
-0.0266507
-0.0265967
-0.026549
-0.0265483
-0.0265969
-0.026549
-0.0265968
-0.0265973
-0.0265967
-0.0265491
-0.0265482
-0.0265969
-0.026549
-0.0265968
-0.0265974
-0.0266505
-0.0265971
-0.0266505
-0.0265971
-0.0268008
-0.026854
-0.0268006
-0.0268003
-0.026752
-0.0268005
-0.0267527
-0.0268003
-0.026801
-0.0267527
-0.0268003
-0.0267519
-0.0268003
-0.0267527
-0.0268003
-0.0268008
-0.0267526
-0.0268543
-0.0268538
-0.0268008
-0.0267525
-0.0267525
-0.0268007
-0.0268006
-0.0267522
-0.0268543
-0.0269023
-0.0269025
-0.0268546
-0.0268542
-0.0268546
-0.0269023
-0.0268006
-0.0268008
-0.0267524
-0.0268008
-0.0267526
-0.0268544
-0.0269025
-0.0268541
-0.0268543
-0.0269023
-0.0268006
-0.0268008
-0.0267524
-0.0267526
-0.0268006
-0.0268008
-0.0267524
-0.0268539
-0.0269022
-0.0268542
-0.0268541
-0.0268004
-0.026752
-0.0268005
-0.0267528
-0.0268004
-0.026801
-0.0267527
-0.0268002
-0.0267519
-0.0268004
-0.0267527
-0.0268008
-0.0268002
-0.0267527
-0.0268544
-0.0269019
-0.0268544
-0.0269027
-0.0268546
-0.0268537
-0.0269019
-0.0268543
-0.0268541
-0.0268535
-0.0268543
-0.0268008
-0.0267525
-0.0267525
-0.0268007
-0.0268006
-0.0267523
-0.0268007
-0.026854
-0.0268003
-0.0268005
-0.0267523
-0.0268004
-0.0267524
-0.0268003
-0.0268001
-0.0267523
-0.0267524
-0.0268003
-0.0268002
-0.0267523
-0.0268542
-0.0268542
-0.0268542
-0.0268541
-0.0268004
-0.0268006
-0.0267523
-0.0268005
-0.0267525
-0.0268543
-0.026854
-0.0268541
-0.0268005
-0.0268003
-0.0267524
-0.0267524
-0.0268003
-0.0268004
-0.0267524
-0.0268541
-0.0268542
-0.0268541
-0.0268542
-0.0268004
-0.0268006
-0.0267523
-0.0268005
-0.0267525
-0.0268542
-0.026854
-0.026854
-0.0268004
-0.0268003
-0.0267524
-0.0267524
-0.0268004
-0.0268003
-0.0267524
-0.0268002
-0.0267519
-0.0268003
-0.0267527
-0.0268002
-0.0268007
-0.0267526
-0.0268002
-0.0267519
-0.0268004
-0.0267527
-0.0268008
-0.0268003
-0.0267526
-0.0268007
-0.0267524
-0.0267524
-0.0268006
-0.0268006
-0.0267522
-0.0268007
-0.0268004
-0.0268006
-0.0267523
-0.0268005
-0.0267525
-0.0268005
-0.0268003
-0.0267525
-0.0267523
-0.0268003
-0.0268005
-0.0267524
-0.0268004
-0.0268006
-0.0267523
-0.0268005
-0.0267524
-0.0268004
-0.0268003
-0.0267525
-0.0267523
-0.0268003
-0.0268005
-0.0267524
-0.0268006
-0.0268539
-0.0268007
-0.026391
-0.0263451
-0.0263452
-0.0263945
-0.0263473
-0.0263931
-0.0263931
-0.0267761
-0.0267761
-0.0267761
-0.0267981
-0.0267524
-0.0267524
-0.0268013
-0.0267546
-0.0268
-0.0268
-0.0266527
-0.0266493
-0.0266986
-0.0266985
-0.0266965
-0.0266506
-0.0266506
-0.0267982
-0.0267525
-0.0267524
-0.0268014
-0.0268002
-0.0268001
-0.0267546
-0.0267983
-0.0267525
-0.0267523
-0.0268015
-0.0268002
-0.0268002
-0.0267546
-0.0267981
-0.0267524
-0.0267524
-0.0268012
-0.0268
-0.0267999
-0.0267545
-0.026449
-0.0264458
-0.0264949
-0.0264949
-0.0264929
-0.026447
-0.026447
-0.0267761
-0.0267761
-0.0267761
-0.026776
-0.0267761
-0.026776
-0.026776
-0.0267761
-0.026776
-0.0268016
-0.0267507
-0.0267994
-0.0267537
-0.0268018
-0.0267989
-0.0267508
-0.0268524
-0.0268551
-0.0268523
-0.0268554
-0.0268016
-0.0267986
-0.0267539
-0.0267507
-0.0267987
-0.0268015
-0.0267507
-0.0268017
-0.0267507
-0.0267993
-0.0267537
-0.0268019
-0.0267989
-0.0267508
-0.0268016
-0.0267986
-0.026751
-0.0267539
-0.0268015
-0.0267987
-0.0267509
-0.0265946
-0.026598
-0.0265487
-0.0265488
-0.026551
-0.0265966
-0.0265966
-0.0268535
-0.026901
-0.0269042
-0.0268562
-0.0268561
-0.0268536
-0.0269041
-0.0268018
-0.0267509
-0.0267995
-0.0267539
-0.0267992
-0.0268021
-0.0267512
-0.0268533
-0.0268555
-0.0268558
-0.0268528
-0.0268019
-0.0267992
-0.0267541
-0.0267512
-0.0267992
-0.026802
-0.0267513
-0.0268535
-0.026901
-0.0269042
-0.0268562
-0.0268561
-0.0268536
-0.026904
-0.0268019
-0.0267509
-0.0267995
-0.0267539
-0.0267992
-0.0268021
-0.0267512
-0.0268533
-0.0269012
-0.0268555
-0.026904
-0.0268559
-0.0269039
-0.0268528
-0.0268018
-0.0267992
-0.0267541
-0.0267512
-0.0267992
-0.0268019
-0.0267512
-0.0268563
-0.0268528
-0.0269019
-0.0269019
-0.0268541
-0.0268542
-0.0268999
-0.0268016
-0.0267507
-0.0267992
-0.0267537
-0.0267988
-0.0268018
-0.0267508
-0.0268016
-0.0267985
-0.0267539
-0.0267507
-0.0267986
-0.0268015
-0.0267507
-0.0268015
-0.0267507
-0.0267992
-0.0267537
-0.0267988
-0.0268017
-0.0267508
-0.0268015
-0.0267985
-0.0267507
-0.0267538
-0.0268015
-0.0267986
-0.0267507
-0.0268016
-0.0267507
-0.0267993
-0.0267537
-0.0268018
-0.0267989
-0.0267508
-0.0268015
-0.0267986
-0.0267507
-0.0267539
-0.0268015
-0.0267987
-0.0267507
-0.0268017
-0.0267508
-0.0267993
-0.0267537
-0.0268019
-0.0267989
-0.0267509
-0.0268016
-0.0267986
-0.026751
-0.0267539
-0.0268015
-0.0267987
-0.0267509
-0.0203288
-0.020329
-0.0203289
-0.0203038
-0.0207326
-0.0207327
-0.0207327
-0.0207075
-0.0211364
-0.0211364
-0.0211365
-0.0211112
-0.0215399
-0.0215399
-0.02154
-0.0215148
-0.0219421
-0.0219422
-0.0219423
-0.0219172
-0.0223427
-0.0223428
-0.0223428
-0.0223178
-0.0227418
-0.0227418
-0.0227418
-0.0227168
-0.02314
-0.02314
-0.0231399
-0.0231149
-0.0235388
-0.0235387
-0.0235388
-0.0235136
-0.0239387
-0.0239387
-0.0239388
-0.0239137
-0.0243403
-0.0243403
-0.0243404
-0.0243152
-0.0247434
-0.0247434
-0.0247435
-0.0247183
-0.0251485
-0.0251485
-0.0251485
-0.0251233
-0.0255551
-0.0255551
-0.0255551
-0.0255298
-0.025962
-0.0259619
-0.025962
-0.0259366
-0.0263692
-0.0263691
-0.0263692
-0.020253
-0.0202278
-0.020228
-0.0202531
-0.0202278
-0.0202278
-0.020228
-0.020228
-0.020253
-0.0202279
-0.020228
-0.0202531
-0.0203037
-0.020657
-0.0203289
-0.020329
-0.0206319
-0.0206318
-0.0203038
-0.0206569
-0.0203289
-0.0203289
-0.0206319
-0.0206318
-0.0203289
-0.0206318
-0.0206317
-0.0203037
-0.0206569
-0.020329
-0.0206319
-0.0206318
-0.0206569
-0.0207075
-0.0210607
-0.0207328
-0.0207327
-0.0210356
-0.0210355
-0.0207075
-0.0210606
-0.0207328
-0.0207327
-0.0210356
-0.0210355
-0.0207327
-0.0210354
-0.0210354
-0.0207075
-0.0210607
-0.0207327
-0.0210355
-0.0210355
-0.0210606
-0.0211113
-0.0214644
-0.0211366
-0.0211365
-0.0214392
-0.0214391
-0.0211112
-0.0214643
-0.0211366
-0.0211365
-0.0214392
-0.0214392
-0.0211364
-0.0214391
-0.0214391
-0.0211113
-0.0214644
-0.0211365
-0.0214393
-0.0214391
-0.0214643
-0.0215148
-0.0218669
-0.02154
-0.02154
-0.0218418
-0.0218418
-0.0215147
-0.0218669
-0.02154
-0.0215401
-0.0218418
-0.0218418
-0.0215399
-0.0218418
-0.0218417
-0.0215149
-0.0218669
-0.02154
-0.0218419
-0.0218418
-0.0218669
-0.0219171
-0.022268
-0.0219422
-0.0219422
-0.0222429
-0.0222429
-0.0219171
-0.0222679
-0.0219422
-0.0219423
-0.0222429
-0.0222429
-0.0219422
-0.0222429
-0.0222428
-0.0219172
-0.022268
-0.0219423
-0.0222429
-0.0222429
-0.022268
-0.0223178
-0.0226672
-0.0223429
-0.0223429
-0.0226422
-0.0226422
-0.0223178
-0.0226672
-0.0223428
-0.0223428
-0.0226422
-0.0226421
-0.0223428
-0.0226422
-0.0226421
-0.0223178
-0.0226671
-0.0223429
-0.0226422
-0.0226421
-0.0226671
-0.0227168
-0.0230653
-0.0227419
-0.0227419
-0.0230404
-0.0230405
-0.0227168
-0.0230654
-0.0227418
-0.0227418
-0.0230404
-0.0230403
-0.0227418
-0.0230405
-0.0230404
-0.0227168
-0.0230652
-0.0227418
-0.0230404
-0.0230404
-0.0230653
-0.0231149
-0.0234639
-0.02314
-0.02314
-0.023439
-0.0234391
-0.0231149
-0.0234639
-0.0231399
-0.0231399
-0.023439
-0.0234389
-0.0231399
-0.023439
-0.0234389
-0.0231148
-0.0234639
-0.02314
-0.023439
-0.023439
-0.0234639
-0.0235137
-0.0238636
-0.0235388
-0.0235388
-0.0238386
-0.0238386
-0.0235137
-0.0238636
-0.0235387
-0.0235388
-0.0238386
-0.0238386
-0.0235387
-0.0238386
-0.0238386
-0.0235137
-0.0238636
-0.0235388
-0.0238387
-0.0238386
-0.0238637
-0.0239136
-0.0242648
-0.0239388
-0.0239387
-0.0242397
-0.0242397
-0.0239136
-0.0242648
-0.0239388
-0.0239388
-0.0242397
-0.0242397
-0.0239388
-0.0242398
-0.0242398
-0.0239137
-0.0242649
-0.0239388
-0.0242399
-0.0242398
-0.0242649
-0.0243151
-0.0246674
-0.0243403
-0.0243403
-0.0246424
-0.0246424
-0.0243151
-0.0246675
-0.0243403
-0.0243404
-0.0246424
-0.0246424
-0.0243404
-0.0246425
-0.0246425
-0.0243152
-0.0246675
-0.0243405
-0.0246425
-0.0246425
-0.0246676
-0.0247181
-0.0250722
-0.0247434
-0.0247435
-0.0250471
-0.0250471
-0.0247182
-0.0250723
-0.0247434
-0.0247435
-0.0250471
-0.025047
-0.0247435
-0.0250472
-0.0250471
-0.0247182
-0.0250722
-0.0247436
-0.0250471
-0.0250471
-0.0250723
-0.0251232
-0.0254787
-0.0251485
-0.0251486
-0.0254534
-0.0254534
-0.0251233
-0.0254786
-0.0251485
-0.0251485
-0.0254534
-0.0254533
-0.0251486
-0.0254534
-0.0254533
-0.0251232
-0.0254786
-0.0251486
-0.0254534
-0.0254533
-0.0254786
-0.0255298
-0.0258855
-0.0255552
-0.0255551
-0.0258603
-0.0258603
-0.0255297
-0.0258855
-0.0255552
-0.0255551
-0.0258603
-0.0258603
-0.0255551
-0.0258603
-0.0258602
-0.0255298
-0.0258855
-0.0255551
-0.0258603
-0.0258603
-0.0258855
-0.0259366
-0.0262928
-0.025962
-0.025962
-0.0262676
-0.0262675
-0.0259366
-0.0262927
-0.025962
-0.025962
-0.0262676
-0.0262676
-0.025962
-0.0262676
-0.0262675
-0.0259366
-0.0262928
-0.025962
-0.0262676
-0.0262676
-0.0262928
-0.0263438
-0.0267
-0.0263692
-0.0263692
-0.0266747
-0.0266747
-0.0263438
-0.0266999
-0.0263691
-0.0263692
-0.0266747
-0.0266747
-0.0263691
-0.0266748
-0.0266747
-0.0263438
-0.0266999
-0.0263692
-0.0266747
-0.0266747
-0.0200498
-0.0200499
-0.02005
-0.0200498
-0.0200498
-0.0202277
-0.0202278
-0.0202277
-0.0202279
-0.0200484
-0.020026
-0.0200489
-0.0200259
-0.0200499
-0.0200483
-0.0200261
-0.020026
-0.0200488
-0.0200511
-0.0200499
-0.0200498
-0.0204539
-0.0203049
-0.0203051
-0.0204541
-0.0203049
-0.0204542
-0.0204539
-0.0203049
-0.0203051
-0.0204541
-0.0203289
-0.0203289
-0.0203289
-0.0206318
-0.0206317
-0.0206317
-0.0206316
-0.0204523
-0.0203061
-0.0203289
-0.0204299
-0.0203066
-0.0204529
-0.0204298
-0.0203049
-0.0204542
-0.0204522
-0.0203289
-0.0203061
-0.02043
-0.0203067
-0.0204299
-0.0204528
-0.0203051
-0.0203051
-0.0204551
-0.0204539
-0.0204538
-0.0208574
-0.0207089
-0.0207091
-0.0208576
-0.0207088
-0.0208576
-0.0208575
-0.0207089
-0.0207091
-0.0208576
-0.0207326
-0.0207326
-0.0207326
-0.0210355
-0.0210353
-0.0210354
-0.0210353
-0.0208558
-0.0207099
-0.0207326
-0.0208335
-0.0207103
-0.0208563
-0.0208335
-0.0207089
-0.0208577
-0.0208557
-0.0207326
-0.0207099
-0.0208336
-0.0207105
-0.0208335
-0.0208563
-0.0207089
-0.0207089
-0.0208586
-0.0208573
-0.0208573
-0.0212613
-0.0211127
-0.0211128
-0.0212616
-0.0211125
-0.0212615
-0.0212615
-0.0211127
-0.0211129
-0.0212617
-0.0211364
-0.0211365
-0.0211364
-0.0214391
-0.021439
-0.0214391
-0.021439
-0.0212596
-0.0211136
-0.0211363
-0.0212373
-0.0211141
-0.0212601
-0.0212372
-0.0211127
-0.0212617
-0.0212597
-0.0211364
-0.0211138
-0.0212375
-0.0211143
-0.0212374
-0.0212603
-0.0211126
-0.0211127
-0.0212624
-0.0212612
-0.0212612
-0.0216643
-0.0215161
-0.0215162
-0.0216646
-0.0215159
-0.0216647
-0.0216645
-0.0215162
-0.0215163
-0.0216647
-0.0215399
-0.02154
-0.0215399
-0.0218417
-0.0218416
-0.0218417
-0.0218416
-0.0216628
-0.0215171
-0.0215398
-0.0216406
-0.0215176
-0.0216634
-0.0216405
-0.0215162
-0.0216648
-0.0216628
-0.02154
-0.0215173
-0.0216407
-0.0215179
-0.0216406
-0.0216635
-0.0215161
-0.0215162
-0.0216658
-0.0216644
-0.0216645
-0.0220663
-0.0219186
-0.0219188
-0.0220665
-0.0219185
-0.0220665
-0.0220664
-0.0219186
-0.0219189
-0.0220665
-0.0219421
-0.0219422
-0.0219422
-0.0222428
-0.0222427
-0.0222427
-0.0222427
-0.0220647
-0.0219196
-0.0219421
-0.0220425
-0.0219201
-0.0220652
-0.0220424
-0.0219186
-0.0220666
-0.0220647
-0.0219422
-0.0219197
-0.0220426
-0.0219203
-0.0220425