/*--------------------------------*- C++ -*----------------------------------*\
| =========                 |                                                 |
| \\      /  F ield         | OpenFOAM: The Open Source CFD Toolbox           |
|  \\    /   O peration     | Version:  2206                                  |
|   \\  /    A nd           | Website:  www.openfoam.com                      |
|    \\/     M anipulation  |                                                 |
\*---------------------------------------------------------------------------*/
FoamFile
{
    version     2.0;
    format      ascii;
    arch        "LSB;label=32;scalar=64";
    class       surfaceScalarField;
    location    "10";
    object      phi;
}
// * * * * * * * * * * * * * * * * * * * * * * * * * * * * * * * * * * * * * //

dimensions      [0 3 -1 0 0 0 0];

oriented        oriented;

internalField   nonuniform List<scalar> 
198714
(
2.62043e-13
1.69628e-13
3.33413e-13
-2.96239e-13
-9.9793e-08
9.97925e-08
-4.68395e-11
-9.59375e-13
-1.12635e-13
2.25106e-11
4.84173e-11
-1.92104e-11
-3.89109e-11
4.18762e-11
-4.47969e-11
3.97884e-11
9.71074e-08
-5.10322e-11
-2.07296e-12
5.78138e-13
1.17692e-11
5.13947e-11
-1.24096e-11
1.16934e-11
1.41296e-11
-1.43891e-11
-1.03769e-11
-9.78974e-08
9.78982e-08
3.84908e-11
5.11611e-11
2.56043e-11
1.26972e-11
2.34737e-08
4.44587e-11
4.65282e-11
1.84334e-11
1.96979e-11
2.34626e-08
-2.35917e-08
1.30893e-12
7.55512e-12
4.52548e-11
-8.36935e-12
3.20976e-11
1.31817e-11
-1.39689e-11
-3.16013e-11
-9.88065e-08
9.88058e-08
-4.41714e-11
5.55035e-13
1.114e-13
8.35282e-12
4.5224e-11
-1.24598e-11
3.19621e-11
1.28202e-11
-1.15021e-11
-3.15969e-11
9.8833e-08
1.79186e-11
1.97105e-11
2.34634e-08
-1.12642e-12
2.2615e-11
4.83352e-11
-2.23014e-11
-3.89246e-11
4.18283e-11
-4.25813e-11
3.98443e-11
-9.71164e-08
9.71154e-08
-3.84423e-11
-1.28497e-13
-1.2982e-12
1.94931e-11
4.04217e-11
-1.95858e-11
-2.17507e-11
4.0641e-11
-4.15939e-11
2.20172e-11
-9.80203e-08
9.80206e-08
-4.38142e-13
-6.1081e-13
1.92555e-11
4.03829e-11
-1.92628e-11
-2.20765e-11
4.08807e-11
-4.16806e-11
2.22558e-11
9.8023e-08
2.49055e-11
1.34118e-11
2.34688e-08
-2.35967e-08
-3.61486e-13
4.46643e-15
1.17452e-11
5.19825e-11
-1.25585e-11
1.16128e-11
1.40851e-11
-1.45892e-11
-1.05213e-11
9.79276e-08
-6.84008e-13
6.95201e-13
1.98149e-08
-2.13584e-12
-5.46179e-12
-1.98073e-08
1.13717e-13
-6.03182e-12
2.25081e-08
-1.00193e-12
1.47116e-12
-2.25027e-08
9.02531e-13
1.07604e-12
1.1068e-08
-8.13254e-12
2.5544e-13
-8.31752e-12
1.94625e-08
-3.10654e-12
-5.46399e-12
-1.94458e-08
-3.89997e-11
9.42205e-14
2.19943e-08
3.84921e-12
1.11113e-11
-2.19703e-08
-1.04518e-12
7.74133e-13
9.97925e-08
-7.77943e-13
4.92194e-13
-1.00049e-07
1.00047e-07
-2.07074e-13
-1.23606e-12
1.00069e-07
5.40555e-12
7.69957e-12
-1.5233e-11
2.27066e-08
-1.20079e-11
7.17343e-13
-8.16643e-13
-7.11926e-11
9.78365e-11
-9.73372e-11
7.09448e-11
9.84714e-08
3.83943e-11
1.86114e-13
2.25551e-08
8.83008e-12
-6.62514e-11
-4.97391e-13
-2.9394e-12
1.08713e-08
-7.61099e-12
-1.08603e-08
8.95176e-13
-1.21496e-12
1.12147e-11
-1.46438e-11
1.57302e-11
-1.10973e-11
9.78727e-08
1.97149e-14
-1.24692e-12
3.13769e-12
2.29895e-08
-4.40679e-12
2.24852e-13
5.59737e-12
2.29884e-08
-2.74048e-12
3.58292e-12
-5.47369e-12
2.25771e-12
-1.76974e-11
2.7127e-08
1.23006e-12
-7.20799e-13
-3.08978e-13
-9.48125e-12
2.72032e-08
-4.95416e-13
2.05691e-13
1.10681e-08
-7.73519e-12
-1.10612e-08
-3.02316e-12
1.08727e-08
-7.84168e-12
-1.08616e-08
-1.17329e-12
-1.00178e-11
2.74027e-08
2.13717e-13
-2.73916e-08
-5.43121e-12
-1.82845e-11
2.693e-08
1.82111e-12
-2.69112e-08
1.14895e-12
1.98179e-08
-2.08055e-12
-5.43932e-12
-5.61186e-12
2.25115e-08
-1.27186e-12
1.59993e-12
2.86007e-12
2.29809e-08
-4.80132e-12
-2.29795e-08
1.31673e-12
-1.37013e-13
3.04476e-11
-1.54675e-11
1.59422e-11
-2.98027e-11
-9.99705e-08
9.99695e-08
3.36418e-13
2.29892e-08
3.70137e-12
-2.79912e-12
-2.29965e-08
9.74773e-13
3.24523e-12
2.29749e-08
-4.83095e-12
3.839e-13
3.0377e-11
-1.54973e-11
1.59693e-11
-2.98806e-11
9.99855e-08
2.29923e-08
3.74144e-12
-2.31381e-12
-9.75818e-12
2.72651e-08
4.34013e-14
2.22285e-12
-1.81488e-11
2.70697e-08
1.09311e-12
9.75557e-14
1.08742e-08
-8.70407e-12
-1.53068e-11
2.26957e-08
-1.1649e-11
-2.26825e-08
8.13723e-13
-3.50934e-13
-7.13095e-11
9.82851e-11
-9.72855e-11
7.1427e-11
-9.84658e-08
9.84631e-08
2.15074e-13
2.25542e-08
8.95245e-12
-6.66669e-11
-2.25356e-08
-8.50381e-12
1.94567e-08
-3.27271e-12
-5.49657e-12
-1.944e-08
-3.90103e-11
2.19905e-08
1.11578e-11
3.90771e-12
-2.19665e-08
-6.64031e-13
-5.55855e-11
9.7652e-11
-9.70454e-11
5.641e-11
-9.9522e-08
9.95207e-08
5.65931e-12
-1.53699e-11
2.26808e-08
-1.17992e-11
-2.26678e-08
2.25515e-08
-6.67469e-11
8.95915e-12
-2.25325e-08
1.94635e-08
-3.41327e-12
-5.30493e-12
1.17284e-14
2.19947e-08
3.90696e-12
1.0752e-11
-9.32602e-13
-5.55775e-11
9.74809e-11
-9.71227e-11
5.62093e-11
9.95244e-08
7.91649e-12
-1.48137e-11
2.26912e-08
-1.18084e-11
3.83576e-11
2.25522e-08
-6.62684e-11
8.84172e-12
1.25766e-13
1.9458e-08
-3.58514e-12
-5.32619e-12
2.19908e-08
1.07087e-11
3.919e-12
-1.80887e-11
2.6988e-08
1.42277e-12
-2.69687e-08
-2.87135e-13
-1.04787e-11
2.73403e-08
-2.28391e-13
1.12978e-12
1.10669e-08
-7.63898e-12
1.83797e-13
1.08409e-11
-1.467e-11
1.51582e-11
-1.13351e-11
9.78806e-08
-8.4578e-13
3.43273e-12
2.29841e-08
-4.87975e-12
5.57194e-12
2.29915e-08
-2.69228e-12
3.67835e-12
1.98133e-08
-1.64958e-12
-6.0548e-12
1.26656e-13
2.25076e-08
1.31801e-12
-1.44296e-12
-8.11662e-13
1.98189e-08
-2.26575e-12
-5.73988e-12
2.25114e-08
1.5492e-12
-1.73157e-12
1.08715e-08
-8.56114e-12
1.10682e-08
-7.78906e-12
-6.61653e-12
-9.39454e-09
9.93481e-14
9.46911e-12
9.39159e-09
2.18727e-12
4.64319e-13
-5.68699e-13
5.51819e-12
1.98073e-08
2.68222e-08
-5.93968e-12
-2.43408e-12
-1.81952e-12
-2.68141e-08
2.54396e-12
1.63746e-12
2.68135e-08
-2.62931e-13
-9.05361e-12
-9.39117e-09
3.97194e-13
-2.11376e-12
-1.57367e-08
5.15034e-12
1.57333e-08
1.14741e-12
-1.49185e-12
1.165e-13
5.86638e-12
2.25025e-08
1.86152e-08
4.46264e-13
-3.3032e-14
-5.24879e-12
-1.86114e-08
2.20798e-08
-1.88552e-12
-4.42122e-12
-2.20744e-08
2.20666e-14
5.32853e-12
1.86114e-08
4.11247e-12
2.20746e-08
-5.07395e-12
-1.57333e-08
-6.83203e-13
-6.3521e-13
7.75512e-12
1.10616e-08
-8.92431e-12
-1.24735e-12
1.31577e-12
-1.53146e-08
-4.84632e-12
1.53283e-08
3.9306e-12
1.1511e-11
-2.19702e-08
7.9213e-15
2.19936e-08
-3.88565e-11
5.9089e-12
-2.15839e-08
2.16046e-08
-3.16752e-11
-1.81052e-08
-1.31344e-13
-5.23565e-12
1.81207e-08
-1.93444e-12
-9.14523e-09
9.13615e-09
1.31901e-12
9.68991e-12
3.40743e-12
1.94455e-08
-5.71407e-13
8.25772e-12
5.9016e-12
2.62995e-08
-1.20371e-12
-5.76328e-12
-1.98677e-11
-2.62758e-08
2.62754e-08
5.9885e-12
1.95116e-11
-1.233e-12
-9.49466e-12
-9.13572e-09
1.08341e-12
-9.23342e-12
9.14557e-09
-3.41357e-12
4.60405e-13
-5.26501e-12
1.94621e-08
-8.47157e-12
2.6299e-08
-2.00614e-11
8.20604e-12
1.08156e-12
-1.5328e-08
5.43788e-12
-3.90549e-12
-1.07698e-11
2.32682e-14
3.87026e-11
2.16053e-08
8.40278e-12
-3.16861e-11
-2.15839e-08
1.81207e-08
1.05814e-12
9.13638e-14
-5.31586e-12
-1.81054e-08
3.16445e-11
-1.17771e-14
5.8002e-12
-5.08189e-12
-1.53147e-08
1.08601e-08
4.79662e-13
2.54687e-12
8.1306e-12
-5.09802e-13
-7.84783e-12
1.08712e-08
-2.80076e-12
1.87598e-11
-5.50691e-12
-2.20083e-08
-1.04062e-11
1.12522e-11
2.19942e-08
2.33809e-08
1.81687e-11
-3.10257e-11
-2.96313e-11
1.84067e-11
-1.88338e-12
-2.45709e-12
5.74762e-12
2.71071e-08
1.88989e-08
-5.06545e-12
-8.01515e-13
-5.17864e-12
3.14648e-11
2.98757e-11
2.33567e-08
3.74901e-13
5.02247e-12
1.8886e-08
1.02711e-11
-1.09197e-11
1.71945e-11
-2.05576e-12
-2.10772e-08
-1.18891e-11
5.0731e-12
2.10688e-08
2.27765e-08
1.59333e-11
-1.88958e-11
-2.18155e-11
9.67755e-12
-5.88467e-13
4.87678e-13
1.1681e-12
2.71924e-08
1.87574e-08
-2.07261e-12
-1.01556e-12
-5.58437e-12
1.86337e-11
2.29833e-11
2.27617e-08
1.13866e-13
5.34594e-12
1.87492e-08
1.11005e-11
-5.35274e-12
-1.84857e-12
-1.00641e-12
-2.08807e-08
2.08612e-08
9.15083e-09
-1.11989e-12
-8.51477e-12
9.20399e-09
-1.02256e-12
-7.94664e-12
7.94544e-12
9.14133e-09
7.60904e-12
9.19542e-09
-5.76579e-13
7.88252e-12
1.10612e-08
1.08615e-08
2.40233e-12
8.16231e-12
-7.66138e-12
1.08726e-08
-3.01381e-12
-1.90444e-12
1.57174e-11
-2.20813e-08
-1.00166e-11
7.7354e-12
2.20698e-08
2.35497e-08
1.50746e-11
-2.05924e-11
-2.09162e-11
-2.35333e-08
-3.87004e-13
9.70277e-12
1.47616e-12
2.73913e-08
1.90488e-08
-2.20126e-12
-1.02643e-12
-5.30198e-12
-1.90401e-08
8.672e-13
5.57117e-12
1.904e-08
1.98313e-11
2.19725e-11
2.35332e-08
9.61338e-12
-8.53717e-12
-2.20696e-08
-5.31158e-12
2.01611e-11
-2.10104e-08
-1.16102e-11
7.43933e-12
2.09997e-08
2.26235e-08
2.03093e-11
-2.88749e-11
-2.98949e-11
-2.26033e-08
-1.80522e-12
1.79646e-11
5.47522e-12
2.69107e-08
1.86124e-08
-5.39224e-12
-3.34875e-13
-5.31214e-12
-1.85995e-08
2.72046e-13
5.53468e-12
1.85993e-08
2.83947e-11
3.00073e-11
2.26031e-08
1.18092e-11
-7.72072e-12
-2.09996e-08
-6.02289e-13
-1.6514e-12
-2.08836e-08
2.08641e-08
9.19819e-09
-9.7431e-13
-8.0443e-12
-9.19023e-09
9.15655e-09
-1.45324e-12
-8.33562e-12
-9.14716e-09
8.0324e-12
9.19028e-09
8.06665e-12
9.147e-09
-2.08648e-08
-6.09477e-12
-9.40032e-09
7.16147e-14
9.38137e-12
9.39697e-09
1.67972e-12
-2.88384e-13
5.30713e-12
1.98104e-08
2.68332e-08
-6.96467e-12
-2.50073e-12
-1.6248e-12
2.43637e-12
2.28951e-12
2.6824e-08
-1.15479e-14
-1.01837e-11
6.55903e-13
-1.52436e-12
-1.57445e-08
4.88113e-12
1.57406e-08
9.29986e-13
-1.42919e-12
6.03931e-12
2.2506e-08
1.86185e-08
6.4818e-13
-5.93449e-12
2.20877e-08
-1.84005e-12
-4.10538e-12
5.44926e-12
1.86146e-08
4.3204e-12
2.20829e-08
-5.21328e-12
2.81617e-11
6.08131e-11
-2.11107e-08
-1.31272e-10
-1.23714e-10
2.12767e-08
2.31419e-08
1.22119e-11
-2.16698e-11
-2.12887e-11
-1.13364e-11
4.84256e-12
1.22722e-12
2.72696e-08
1.87462e-08
-4.43337e-12
-3.56827e-12
-5.65208e-12
-3.01569e-11
5.22884e-12
1.87879e-08
-1.07572e-11
2.56965e-11
2.31925e-08
-5.41508e-12
-2.40698e-11
-2.51357e-11
-3.51857e-11
-2.19906e-08
1.17694e-10
1.3174e-10
2.18015e-08
2.30294e-08
2.20606e-11
-2.76259e-11
-3.02672e-11
2.3845e-11
8.93399e-12
-2.24485e-12
5.70011e-12
2.70334e-08
1.89121e-08
-3.35759e-12
1.614e-12
-5.10402e-12
5.93569e-11
2.71635e-11
2.29416e-08
3.15001e-11
4.98068e-12
1.88493e-08
2.7922e-11
6.60895e-12
2.92758e-11
-3.11407e-11
-2.08877e-08
2.08759e-08
9.204e-09
-3.59599e-12
-7.69847e-12
9.15188e-09
1.09197e-12
-8.77058e-12
7.43659e-12
9.19563e-09
7.89756e-12
9.14423e-09
5.46752e-13
8.32485e-12
1.0863e-08
-1.06416e-12
-8.85469e-12
1.2881e-12
-1.53064e-08
-5.09667e-12
1.53202e-08
1.13058e-11
3.97757e-12
-2.19664e-08
2.19899e-08
-3.88443e-11
-1.81011e-08
-5.32462e-12
1.81165e-08
6.0037e-12
-2.15745e-08
2.15956e-08
-3.19757e-11
-1.68338e-12
-9.13969e-09
9.13049e-09
1.39216e-12
9.4945e-12
3.48053e-12
1.94394e-08
8.44497e-12
5.74183e-12
2.62866e-08
-1.05712e-12
-5.92975e-12
-2.00171e-11
-2.62629e-08
2.62629e-08
5.9535e-12
1.95519e-11
-1.40207e-12
-9.23528e-12
-9.13011e-09
1.18773e-12
-9.21475e-12
9.13978e-09
-3.24346e-12
-5.42204e-12
1.9456e-08
-8.41985e-12
2.62869e-08
-2.011e-11
1.09798e-12
8.14718e-12
-1.53197e-08
5.40171e-12
-1.08422e-11
-3.85291e-12
3.87998e-11
1.81166e-08
1.11682e-12
-5.2968e-12
-1.81011e-08
2.15959e-08
8.41981e-12
-3.1877e-11
-2.15744e-08
5.64838e-12
3.1533e-11
-5.20129e-12
-1.53064e-08
-1.88508e-12
-9.1454e-09
1.24619e-12
9.75288e-12
9.13629e-09
3.50646e-12
8.43582e-12
5.29331e-12
1.94468e-08
2.63008e-08
-2.3195e-12
-5.68781e-12
-1.91786e-11
5.92345e-12
1.94525e-11
2.6277e-08
-9.54383e-13
-1.03946e-11
8.51802e-12
1.20078e-12
-1.5329e-08
5.04379e-12
1.53154e-08
-3.85464e-12
-1.12307e-11
-4.92945e-14
3.89706e-11
2.19709e-08
2.16057e-08
7.902e-12
-3.10708e-11
1.81216e-08
1.08485e-12
1.25534e-14
-5.70441e-12
3.16503e-11
2.15846e-08
1.56891e-14
5.46408e-12
1.81061e-08
-5.44852e-12
-1.59614e-12
-9.13965e-09
1.27106e-12
9.66008e-12
9.13031e-09
3.44168e-12
-4.16506e-13
8.67826e-12
5.29674e-12
1.9441e-08
2.62891e-08
-2.07931e-12
-5.80441e-12
-1.92666e-11
5.93109e-12
2.00158e-11
2.6265e-08
-1.03926e-12
-1.03266e-11
1.21965e-12
8.78822e-12
-1.5321e-08
4.95391e-12
1.53073e-08
-1.12155e-11
-4.02696e-12
3.90728e-11
2.1967e-08
1.81176e-08
1.1341e-12
-5.84612e-12
2.1597e-08
8.3325e-12
-3.1423e-11
5.61606e-12
1.81021e-08
3.20001e-11
2.15757e-08
-5.2474e-12
-5.43164e-12
1.97517e-11
-2.10089e-08
-1.22715e-11
7.64356e-12
2.09992e-08
2.29726e-08
1.91255e-11
-3.00145e-11
-2.96626e-11
-2.29502e-08
-2.0924e-12
1.8258e-11
5.82269e-12
2.69684e-08
1.85958e-08
-5.06221e-12
-7.91999e-13
-5.44625e-12
-1.85831e-08
9.74741e-14
5.44538e-12
1.85826e-08
3.03035e-11
3.00886e-11
2.29501e-08
1.15441e-11
-7.63695e-12
-2.09989e-08
1.62005e-11
-2.22519e-12
-2.20893e-08
-9.46631e-12
8.04011e-12
2.20768e-08
2.31907e-08
1.60325e-11
-2.01122e-11
-2.16661e-11
-2.31755e-08
1.03056e-11
-5.80075e-13
5.63639e-13
9.87232e-13
2.7329e-08
1.90645e-08
-2.40631e-12
-8.51799e-13
-5.65269e-12
1.93188e-11
2.24845e-11
2.31753e-08
5.94297e-13
5.38993e-12
1.90556e-08
9.62383e-12
-8.67199e-12
-2.20768e-08
-1.44532e-12
-1.22595e-12
-2.08842e-08
2.08651e-08
9.15602e-09
-1.72243e-12
-8.2083e-12
-9.14695e-09
9.19893e-09
-5.12062e-13
-8.00769e-12
7.75828e-12
9.1468e-09
7.61353e-12
9.1906e-09
-2.08655e-08
-1.64928e-13
7.3364e-12
1.10602e-08
-6.47855e-12
-9.39329e-09
3.75861e-13
9.25249e-12
9.39014e-09
2.46594e-12
-7.07805e-13
5.60817e-12
1.98057e-08
2.68204e-08
-5.93741e-12
-2.2202e-12
-1.93306e-12
2.85375e-12
1.80544e-12
2.68117e-08
-1.64275e-13
-9.2275e-12
-1.67967e-12
7.26263e-13
-1.57358e-08
5.21529e-12
1.57319e-08
-1.77516e-12
1.16491e-12
1.42499e-13
5.82314e-12
2.25022e-08
2.20785e-08
-2.34026e-12
-3.65674e-12
1.86145e-08
3.87919e-13
6.05729e-14
-5.57857e-12
4.30604e-12
2.20736e-08
1.91014e-13
5.25261e-12
1.86109e-08
-5.80153e-12
-6.02967e-12
-9.39935e-09
2.55559e-13
9.26285e-12
9.39586e-09
1.99835e-12
5.93675e-13
-3.06431e-13
5.51386e-12
1.98111e-08
2.68325e-08
-6.05002e-12
-2.5669e-12
-1.94111e-12
2.47928e-12
1.88376e-12
2.6824e-08
-2.21559e-13
-9.41699e-12
-1.51154e-12
4.87523e-13
-1.57436e-08
5.10807e-12
1.57397e-08
-1.40374e-12
1.182e-12
6.04368e-12
2.25057e-08
2.20873e-08
-2.25675e-12
-3.69046e-12
1.8618e-08
5.9193e-13
-5.71372e-12
4.43373e-12
2.20824e-08
5.37306e-12
1.86145e-08
-5.51572e-12
8.31236e-12
1.08603e-08
7.63581e-12
1.10615e-08
-9.53188e-13
6.24019e-13
-1.03492e-07
1.03492e-07
3.08489e-13
-2.55244e-13
-1.01441e-07
1.0144e-07
1.84036e-12
1.35767e-13
-1.09359e-07
1.09357e-07
4.53726e-12
8.10586e-12
-2.21955e-08
2.21992e-08
2.33308e-08
4.98342e-12
2.23805e-08
7.93587e-12
-2.49291e-11
-1.12461e-11
2.36022e-08
2.33226e-08
2.23834e-08
3.38217e-12
9.03308e-12
-2.21874e-08
2.21901e-08
2.33994e-08
3.75698e-12
-2.33978e-08
2.23087e-08
1.01964e-11
-2.23055e-08
-1.65362e-11
-1.85031e-11
2.35912e-08
2.33977e-08
2.23053e-08
-2.21898e-08
-3.12346e-11
4.40402e-11
-2.21923e-08
2.21874e-08
2.33565e-08
1.36637e-12
2.23518e-08
1.14161e-11
-2.42742e-11
-1.16021e-11
2.35929e-08
2.23364e-08
2.33656e-08
6.27967e-12
6.1231e-12
-2.21794e-08
2.21826e-08
2.3276e-08
6.76829e-12
-2.32684e-08
2.24138e-08
6.66948e-12
-2.24155e-08
-1.16096e-11
-2.43598e-11
2.35966e-08
2.24153e-08
2.32684e-08
-2.21824e-08
1.80043e-13
1.03497e-07
-1.42671e-12
3.26767e-13
1.0145e-07
3.44655e-13
1.09363e-07
5.56574e-13
-1.04576e-07
1.04573e-07
-9.75495e-13
1.66288e-12
-9.96197e-08
9.96182e-08
1.72074e-12
-1.09479e-07
1.09477e-07
-1.48163e-12
1.04585e-07
-2.69657e-13
9.9624e-08
1.09482e-07
-3.35221e-11
-2.9204e-11
-2.31694e-08
-2.36395e-11
2.32168e-08
2.30658e-08
-3.3812e-11
1.61904e-11
1.17739e-11
2.26928e-08
2.29022e-08
-2.97104e-11
-1.1718e-11
2.30308e-08
1.18693e-11
2.28924e-08
2.32688e-11
-4.9905e-11
1.46511e-11
-2.26975e-08
2.26379e-08
-8.6278e-12
6.63495e-11
1.53459e-14
2.25364e-08
2.22837e-08
-4.93307e-11
2.324e-08
1.50369e-11
6.38691e-12
2.22687e-08
-5.92745e-12
2.32296e-08
-2.1288e-11
5.35424e-12
-2.34231e-08
-4.6055e-11
2.34968e-08
2.32822e-08
-2.05196e-11
-2.32662e-08
-2.73296e-12
4.99155e-12
2.29874e-08
2.3256e-08
4.26429e-12
-3.51806e-12
2.32662e-08
4.32648e-12
2.32637e-08
4.68325e-11
-2.34967e-08
4.9914e-12
1.05178e-12
-2.29443e-08
2.29034e-08
2.42314e-12
-3.80544e-12
2.22831e-13
2.29954e-08
2.35751e-08
4.82611e-12
5.85751e-13
2.26491e-08
1.52265e-12
1.10003e-13
2.3598e-08
2.26549e-08
5.7812e-12
-2.40883e-11
-2.34073e-08
8.02732e-12
2.34497e-08
2.32952e-08
-2.35108e-11
-2.32766e-08
4.73961e-12
-2.28397e-12
2.29793e-08
2.32562e-08
5.37531e-12
-6.79148e-12
-2.32614e-08
6.90876e-12
2.32614e-08
2.32768e-08
-7.71004e-12
-2.34494e-08
2.5866e-12
8.0876e-12
-2.2954e-08
2.29818e-08
-3.67883e-12
2.15782e-12
1.48009e-13
2.29964e-08
2.2651e-08
1.7645e-12
-2.26603e-08
2.35769e-08
8.15393e-12
6.57126e-13
-2.3604e-08
2.26609e-08
2.84362e-15
2.3603e-08
-2.29817e-08
5.53954e-12
-2.41871e-11
-2.34087e-08
8.17236e-12
2.34511e-08
2.32483e-08
-2.3784e-11
4.51592e-12
-2.289e-12
2.29735e-08
2.32612e-08
5.4637e-12
-6.96703e-12
6.80263e-12
2.32667e-08
2.32359e-08
-7.97581e-12
2.09286e-12
7.89089e-12
-2.29574e-08
2.29859e-08
-3.47037e-12
2.19637e-12
2.29996e-08
2.26567e-08
1.94988e-12
2.35797e-08
8.14521e-12
2.26663e-08
2.36057e-08
-2.9028e-11
-3.29851e-11
-2.31663e-08
-2.38496e-11
2.32132e-08
2.30177e-08
-3.32519e-11
-2.29878e-08
1.14589e-11
1.58159e-11
2.2682e-08
2.29e-08
-2.98633e-11
-1.17231e-11
-2.28899e-08
1.19404e-11
2.289e-08
2.29879e-08
2.3509e-11
-2.32131e-08
-5.01297e-11
1.46216e-11
-2.26974e-08
2.26377e-08
-8.66231e-12
6.62062e-11
1.17085e-15
2.25353e-08
2.22825e-08
-4.98201e-11
-2.22672e-08
2.32401e-08
1.52569e-11
6.42383e-12
-2.32301e-08
2.22673e-08
-6.00736e-12
2.32296e-08
-2.2637e-08
-2.85438e-11
-3.59837e-11
-2.31437e-08
2.44001e-11
2.3162e-08
2.30225e-08
-3.61978e-11
-2.29908e-08
1.14941e-11
1.58849e-11
2.26676e-08
2.28901e-08
-2.90083e-11
-1.47837e-11
-2.28781e-08
1.44843e-11
2.28781e-08
2.29909e-08
-2.50005e-11
-2.31619e-08
1.74482e-11
-4.90146e-11
-2.26984e-08
2.26988e-08
6.63412e-11
-8.70998e-12
2.25326e-08
2.32383e-08
1.81127e-11
-2.32191e-08
2.22753e-08
-4.95704e-11
-2.22634e-08
2.3219e-08
2.22636e-08
-2.26984e-08
-3.59244e-11
-2.8632e-11
-2.31467e-08
2.44641e-11
2.31647e-08
2.30706e-08
-3.64869e-11
1.58499e-11
1.15668e-11
2.26781e-08
2.28916e-08
-2.84066e-11
-1.4752e-11
2.30387e-08
1.44832e-11
2.288e-08
-2.4955e-11
1.74185e-11
-4.89865e-11
-2.26983e-08
2.26987e-08
6.65618e-11
-8.70651e-12
2.25334e-08
2.32384e-08
1.78994e-11
2.22758e-08
-4.89019e-11
2.32193e-08
2.22646e-08
-2.09656e-11
5.12458e-12
-2.34266e-08
-4.64862e-11
2.35005e-08
2.3237e-08
-2.04875e-11
-2.81078e-12
4.78484e-12
2.29829e-08
2.32621e-08
4.23815e-12
-3.77543e-12
2.32216e-08
3.9926e-12
2.32699e-08
4.66942e-11
4.73131e-12
7.76146e-13
-2.29494e-08
2.29083e-08
2.71105e-12
-3.44663e-12
2.29985e-08
2.35788e-08
4.96602e-12
2.2655e-08
1.55059e-12
2.36014e-08
2.26607e-08
-3.26512e-12
-9.04018e-14
4.57978e-09
-1.33523e-13
-4.58176e-09
-1.77589e-12
-1.18943e-13
2.72758e-09
-2.87492e-14
-2.72894e-09
-7.6676e-13
-8.69993e-14
1.39465e-09
-1.06226e-14
-1.3956e-09
-1.71249e-13
-5.12766e-14
5.82489e-10
-1.45258e-14
-5.83068e-10
-1.23974e-14
1.3985e-10
2.22105e-16
-1.40056e-10
-4.81035e-12
-2.05916e-14
8.51632e-09
-4.03606e-14
-2.48936e-12
9.48149e-15
5.03538e-09
-3.25718e-14
-1.01366e-12
-1.96342e-14
2.57405e-09
-1.22579e-14
-1.75733e-13
-4.23976e-14
1.07744e-09
-1.85204e-15
4.02795e-16
2.59569e-10
2.08095e-15
-3.23923e-12
-1.32492e-13
4.58431e-09
-1.16496e-13
-4.5863e-09
-1.7461e-12
-1.30279e-13
2.72967e-09
-2.43663e-14
-2.73102e-09
-7.65674e-13
-7.58784e-14
1.39561e-09
3.21854e-15
-1.39652e-09
-2.22117e-13
-2.06945e-14
5.82828e-10
7.23282e-15
-5.83362e-10
-1.56126e-14
1.39905e-10
6.83137e-16
-1.40111e-10
-4.57181e-12
4.57599e-14
8.519e-09
-3.42449e-14
-8.52217e-09
-2.40623e-12
7.19588e-14
5.03664e-09
-2.30101e-14
-5.03893e-09
-1.01083e-12
4.86928e-14
2.57473e-09
2.16856e-15
-2.57627e-09
-2.52069e-13
2.15837e-14
1.07779e-09
2.14061e-14
-1.07868e-09
7.48328e-15
2.59647e-10
2.39152e-16
-2.59986e-10
-4.7392e-12
8.51599e-09
7.66163e-14
-8.51916e-09
-2.57423e-12
5.03529e-09
6.90291e-14
-5.03762e-09
-1.16054e-12
2.57393e-09
6.83458e-14
-2.57547e-09
-3.57277e-13
1.07743e-09
6.27528e-14
-1.07831e-09
2.59656e-10
9.4604e-15
-2.59992e-10
-4.80421e-12
8.51994e-09
-2.82213e-14
-8.52316e-09
-2.60462e-12
5.03715e-09
-2.29717e-14
-5.03953e-09
-1.11455e-12
2.57492e-09
-6.18459e-15
-2.57658e-09
-2.41802e-13
1.07774e-09
7.94248e-15
-1.07876e-09
2.59625e-10
9.51665e-16
-2.59979e-10
-3.17023e-12
4.58074e-09
-3.15378e-13
-1.67723e-12
2.72821e-09
-1.38913e-13
-7.46476e-13
1.39508e-09
-4.6543e-14
-2.41136e-13
5.82643e-10
7.42271e-15
1.39862e-10
-1.12144e-14
-5.49859e-12
1.67525e-13
2.02101e-14
8.52009e-09
-3.13042e-12
1.42892e-13
-1.19122e-15
5.03731e-09
-1.42246e-12
5.61722e-14
-2.92667e-14
2.57499e-09
-2.46555e-13
-2.56179e-14
-5.30298e-14
1.07778e-09
2.01791e-14
8.13746e-15
2.59718e-10
-3.31764e-12
4.58359e-09
-1.27303e-13
-4.58565e-09
-1.83113e-12
2.72943e-09
-2.60626e-14
-2.73087e-09
-8.14769e-13
1.39541e-09
-1.42271e-14
-1.39641e-09
-1.89461e-13
5.8278e-10
-3.17825e-14
-5.83409e-10
1.39874e-10
5.12194e-15
-1.40081e-10
-2.83402e-12
4.58449e-09
-2.79502e-13
-1.34001e-12
2.72993e-09
-1.0722e-13
-5.27909e-13
1.39583e-09
-6.07909e-15
-2.26748e-13
5.83021e-10
4.80906e-14
1.39943e-10
-8.63037e-15
-2.86066e-12
-8.1005e-14
4.58322e-09
-3.0003e-13
-1.34175e-12
-8.50545e-14
2.729e-09
-1.30463e-13
-5.22118e-13
-2.54906e-14
1.39528e-09
-3.07367e-14
-2.11758e-13
3.61852e-14
5.82821e-10
2.6529e-14
-1.50321e-14
1.39912e-10
-1.04473e-14
-4.4055e-12
1.04071e-13
-1.01006e-13
8.5156e-09
-2.24454e-12
1.38831e-13
-5.38347e-14
5.03494e-09
-9.38291e-13
1.12283e-13
-5.58338e-15
2.57405e-09
-2.81298e-13
7.71153e-14
2.76463e-14
1.0775e-09
1.17826e-14
-2.99844e-15
2.59601e-10
-3.64827e-12
4.57888e-09
-3.35645e-14
-1.99222e-12
2.72726e-09
3.49789e-14
-8.85372e-13
1.39455e-09
1.56624e-14
-1.97909e-13
5.82411e-10
-1.92238e-14
1.39822e-10
7.15956e-15
-3.31381e-12
-1.05221e-14
4.58036e-09
-2.06828e-13
-1.74361e-12
-6.2924e-14
2.72807e-09
-8.62727e-14
-7.37355e-13
-5.95041e-14
1.39489e-09
-5.34383e-14
-1.43263e-13
-4.60055e-14
5.82613e-10
-4.70902e-14
-6.89888e-15
1.39848e-10
-3.06338e-15
-5.31595e-12
3.58619e-15
8.51828e-09
-2.98738e-12
-1.04758e-14
5.03571e-09
-1.34766e-12
-2.9518e-14
2.57413e-09
-2.40547e-13
-4.74228e-14
1.07748e-09
4.64361e-15
2.59597e-10
-4.41782e-12
-2.2535e-14
8.51614e-09
-2.20758e-12
6.35391e-15
5.03544e-09
-8.98927e-13
3.15802e-14
2.57404e-09
-2.37596e-13
4.35692e-14
1.07752e-09
3.65075e-15
2.59551e-10
5.6868e-12
-2.6568e-13
3.6802e-13
-8.53881e-09
8.54244e-09
3.00701e-12
-9.9706e-14
1.93619e-13
-5.04212e-09
5.04468e-09
1.31151e-12
-3.09162e-14
9.63009e-14
-2.57526e-09
2.57686e-09
3.44119e-13
-1.28543e-14
4.49627e-14
-1.0774e-09
1.07831e-09
2.78722e-15
1.01969e-14
-2.59448e-10
2.59754e-10
3.2512e-12
-7.29208e-14
4.58183e-09
1.71764e-12
1.37461e-14
2.729e-09
7.44031e-13
3.69711e-14
1.39557e-09
1.81714e-13
3.12886e-14
5.83015e-10
9.3357e-15
1.40022e-10
4.56909e-12
2.00326e-14
-1.61911e-13
8.51961e-09
2.31854e-12
-3.53787e-14
-8.81349e-14
5.0378e-09
9.48648e-13
-3.31403e-14
-2.8719e-14
2.57558e-09
2.00565e-13
-9.29618e-15
3.51628e-15
1.07831e-09
-1.21691e-14
-2.57684e-15
2.59849e-10
-2.96157e-12
-3.30393e-13
-5.31021e-09
3.93732e-13
5.30821e-09
-1.613e-12
-2.16905e-13
-3.14895e-09
2.4559e-13
3.14756e-09
-7.10041e-13
-1.20481e-13
-1.60929e-09
1.38355e-13
1.60836e-09
-1.9032e-13
-4.9967e-14
-6.72665e-10
6.23854e-14
6.7213e-10
-1.47672e-14
-1.61735e-10
1.72987e-14
1.61541e-10
-3.17502e-12
-9.05107e-14
-5.75828e-09
5.75594e-09
-1.75044e-12
-6.7457e-14
-3.41983e-09
3.41823e-09
-7.71543e-13
-4.38819e-14
-1.75021e-09
1.74912e-09
-1.8793e-13
-2.98044e-14
-7.3255e-10
7.31915e-10
-2.65331e-15
-1.76408e-10
1.76192e-10
5.75266e-12
-2.39502e-13
-8.54682e-09
4.4745e-13
8.55044e-09
3.04483e-12
-8.30927e-14
-5.04646e-09
2.47128e-13
5.04897e-09
1.33069e-12
-2.08073e-14
-2.57749e-09
1.26709e-13
2.57907e-09
3.39796e-13
1.84248e-15
-1.07823e-09
5.6807e-14
1.07914e-09
-1.59627e-16
-2.59648e-10
1.43549e-14
2.59952e-10
3.42251e-12
4.58656e-09
-9.97138e-14
1.78748e-12
2.73119e-09
-1.21965e-14
7.71798e-13
1.39654e-09
1.54471e-14
1.99612e-13
5.8333e-10
1.90537e-14
1.4008e-10
5.65822e-15
-3.12933e-12
-6.45025e-14
-1.98715e-13
4.58467e-09
-1.70601e-12
-7.40315e-14
-8.28156e-14
2.72993e-09
-7.73234e-13
-5.2201e-14
-2.74964e-14
1.3957e-09
-2.27262e-13
-3.24753e-14
2.50468e-16
5.82849e-10
-7.00406e-15
-3.24936e-15
1.39901e-10
4.70889e-12
8.52243e-09
-7.48016e-15
-1.38455e-13
2.3791e-12
5.03906e-09
-6.07697e-14
-9.82227e-14
1.00046e-12
2.57617e-09
-6.80775e-14
-5.63059e-14
2.82126e-13
1.07854e-09
-6.2064e-14
-2.52241e-14
2.59936e-10
-8.27863e-15
-6.66349e-15
-4.7148e-12
3.17214e-14
8.51932e-09
-7.36685e-14
-2.51996e-12
5.39756e-14
5.03684e-09
-2.93039e-14
-1.11342e-12
3.21694e-14
2.57474e-09
5.75232e-15
-3.47759e-13
1.76074e-14
1.07776e-09
1.4123e-14
1.67105e-15
2.5963e-10
6.53523e-15
-2.89156e-12
4.54256e-09
-1.77945e-13
-1.42254e-12
2.70405e-09
-1.08508e-13
-5.67568e-13
1.38266e-09
-5.19624e-14
-1.87539e-13
5.775e-10
-6.71384e-16
1.38642e-10
-1.49785e-14
2.84035e-12
8.67745e-14
1.68239e-13
4.54445e-09
1.43049e-12
2.98522e-14
1.1927e-13
2.70526e-09
6.02733e-13
-4.43584e-15
5.67643e-14
1.38338e-09
2.12674e-13
-3.0557e-14
4.15001e-15
5.77862e-10
6.69803e-15
1.35116e-14
1.38806e-10
-3.33225e-12
4.54152e-09
-1.77915e-13
-1.82584e-12
2.70358e-09
-9.22746e-14
-8.11491e-13
1.38237e-09
-6.62096e-14
-1.60811e-13
5.77351e-10
-5.78326e-14
1.38627e-10
-2.88797e-15
3.26212e-12
-7.84766e-14
1.83386e-13
4.54345e-09
1.81118e-12
-6.51117e-14
1.13584e-13
2.70493e-09
8.2671e-13
-3.33075e-14
7.08472e-14
1.38325e-09
2.05446e-13
-8.14979e-15
4.64995e-14
5.77864e-10
-5.66336e-15
4.81445e-15
1.38795e-10
-5.25326e-12
7.20349e-14
8.18461e-09
-2.87444e-12
2.4686e-14
4.83126e-09
-1.28579e-12
-1.09021e-14
2.46661e-09
-2.54923e-13
-2.8296e-14
1.03148e-09
5.2091e-16
2.4827e-10
-4.55523e-12
8.18311e-09
-2.25912e-12
4.83034e-09
-9.32911e-13
2.46642e-09
-2.80216e-13
1.03142e-09
2.48231e-10
5.09728e-12
4.91895e-14
8.18746e-09
2.83685e-12
3.21266e-14
4.83347e-09
1.26358e-12
2.85448e-14
2.4681e-09
2.76838e-13
2.74417e-14
1.03237e-09
5.1299e-16
2.48547e-10
4.66122e-12
8.18598e-09
2.41116e-12
4.83251e-09
1.00897e-12
2.46777e-09
2.69903e-13
1.03214e-09
2.48511e-10
4.68408e-12
-9.85873e-14
8.51913e-09
2.4777e-12
-5.80611e-14
5.03749e-09
1.08608e-12
-2.25686e-14
2.57529e-09
2.6942e-13
5.0708e-15
1.07819e-09
-6.59303e-15
2.59919e-10
4.85517e-12
8.52317e-09
-1.13777e-13
2.54006e-12
5.03948e-09
-8.03123e-14
1.09337e-12
2.57637e-09
-3.75989e-14
2.73297e-13
1.07855e-09
-3.00479e-15
2.59902e-10
-6.96837e-15
-4.67159e-12
8.52013e-09
-3.1385e-14
-2.53139e-12
5.03728e-09
-1.9245e-15
-1.13778e-12
2.57492e-09
1.95491e-14
-3.50815e-13
1.07775e-09
2.02779e-14
2.59598e-10
6.94509e-15
3.03953e-12
1.86318e-13
4.58276e-09
1.53912e-12
4.29547e-14
2.72955e-09
6.42884e-13
-3.13219e-14
1.39588e-09
1.97402e-13
-5.93958e-14
5.83052e-10
-3.18266e-15
1.40026e-10
-2.78779e-12
4.54334e-09
-2.51888e-13
-1.31276e-12
2.70446e-09
-1.62835e-13
-4.82149e-13
1.38285e-09
-7.46264e-14
-1.80876e-13
5.7765e-10
8.55887e-15
1.3867e-10
-2.39541e-14
2.7325e-12
1.24379e-13
1.51983e-13
4.54528e-09
1.32605e-12
5.37806e-14
1.14914e-13
2.70567e-09
5.29912e-13
1.4801e-14
5.09715e-14
1.38355e-09
1.93906e-13
-1.58647e-14
-9.46718e-15
5.77992e-10
1.07342e-14
1.57653e-14
1.38832e-10
-5.56332e-12
8.18595e-09
5.67889e-14
-3.1461e-12
4.83165e-09
1.93663e-14
-1.45081e-12
2.46715e-09
-1.42468e-14
-2.97782e-13
1.03163e-09
-2.88534e-14
2.4832e-10
8.67925e-16
4.96701e-12
4.54548e-14
8.18889e-09
2.78409e-12
1.99673e-14
4.83375e-09
1.27486e-12
1.69093e-14
2.46852e-09
2.85531e-13
2.03715e-14
1.03245e-09
-1.49586e-15
2.48573e-10
5.26144e-12
-1.24208e-14
8.52328e-09
2.91474e-12
-5.16941e-14
5.03978e-09
1.3065e-12
-2.89043e-14
2.57664e-09
2.55309e-13
8.7257e-15
1.07878e-09
-1.47623e-14
2.60004e-10
-3.12217e-12
-1.74277e-13
-5.30777e-09
3.71539e-13
5.30557e-09
-1.70123e-12
-9.7798e-14
-3.14747e-09
2.13793e-13
3.14593e-09
-7.46998e-13
-4.66032e-14
-1.60846e-09
1.10769e-13
1.60744e-09
-1.95405e-13
-1.38057e-14
-6.72373e-10
4.28899e-14
6.718e-10
-6.73831e-15
-1.61664e-10
1.59892e-14
1.6146e-10
-3.24386e-12
-5.75716e-09
5.75479e-09
-1.76689e-12
-3.41914e-09
3.41749e-09
-7.79957e-13
-1.74983e-09
1.74875e-09
-2.14222e-13
-7.32385e-10
7.31777e-10
-1.76373e-10
1.76153e-10
5.6925e-12
-1.67112e-13
4.8233e-13
-8.5424e-09
8.54582e-09
3.00717e-12
-4.30244e-14
2.81935e-13
-5.04407e-09
5.04649e-09
1.31118e-12
4.58669e-15
1.44109e-13
-2.57609e-09
2.57762e-09
3.53663e-13
1.7547e-14
5.23506e-14
-1.07776e-09
1.07862e-09
3.95809e-15
1.98655e-14
-2.59481e-10
2.59792e-10
3.35153e-12
4.58573e-09
1.76951e-12
2.73087e-09
7.59075e-13
1.39632e-09
1.70541e-13
5.83301e-10
1.4005e-10
-3.2181e-12
-1.9448e-13
4.58377e-09
-1.75663e-12
-7.09927e-14
2.72957e-09
-7.91652e-13
-2.83452e-14
1.39547e-09
-2.23538e-13
-1.12658e-14
5.82816e-10
-2.67462e-15
1.3987e-10
2.99371e-12
2.5157e-13
4.58648e-09
1.48456e-12
9.85789e-14
2.73123e-09
6.22018e-13
1.11861e-14
1.39658e-09
2.19361e-13
-3.51231e-14
5.83392e-10
4.38768e-15
1.40111e-10
6.15529e-12
-2.64471e-13
3.87793e-13
-8.54247e-09
8.54583e-09
3.40351e-12
-1.07468e-13
2.2888e-13
-5.04373e-09
5.04637e-09
1.48035e-12
-1.09301e-14
1.33023e-13
-2.57594e-09
2.57777e-09
2.89835e-13
4.38059e-14
7.43361e-14
-1.07763e-09
1.07874e-09
-5.30612e-15
1.23864e-14
-2.59541e-10
2.59863e-10
2.94294e-12
3.80393e-14
4.5852e-09
1.44446e-12
6.37029e-14
2.73027e-09
5.9485e-13
3.4288e-14
1.39602e-09
2.22352e-13
-5.90671e-15
5.83173e-10
1.53291e-14
1.40081e-10
-3.33788e-12
4.54127e-09
-4.81125e-14
-1.80108e-12
2.70345e-09
-1.86715e-14
-7.84098e-13
1.38235e-09
-1.44316e-14
-1.78087e-13
5.77366e-10
-9.36171e-15
1.38672e-10
-1.59351e-15
3.22202e-12
1.90101e-13
-2.72241e-14
4.54324e-09
1.73877e-12
1.28192e-13
-3.69326e-14
2.70481e-09
7.54035e-13
8.50032e-14
-1.6139e-14
1.38324e-09
1.76539e-13
5.31798e-14
1.15847e-15
5.77879e-10
9.12797e-15
-2.33747e-15
1.38842e-10
-4.8212e-12
1.22034e-13
8.18527e-09
-2.54861e-12
9.28666e-14
4.8316e-09
-1.09426e-12
7.04636e-14
2.46696e-09
-2.83654e-13
5.22017e-14
1.03156e-09
5.68166e-15
2.48331e-10
4.21853e-12
2.36143e-13
8.51863e-09
2.10923e-12
1.02937e-13
5.03706e-09