/*--------------------------------*- C++ -*----------------------------------*\
| =========                 |                                                 |
| \\      /  F ield         | OpenFOAM: The Open Source CFD Toolbox           |
|  \\    /   O peration     | Version:  2206                                  |
|   \\  /    A nd           | Website:  www.openfoam.com                      |
|    \\/     M anipulation  |                                                 |
\*---------------------------------------------------------------------------*/
FoamFile
{
    version     2.0;
    format      ascii;
    arch        "LSB;label=32;scalar=64";
    class       volVectorField;
    location    "10";
    object      U;
}
// * * * * * * * * * * * * * * * * * * * * * * * * * * * * * * * * * * * * * //

dimensions      [0 1 -1 0 0 0 0];

internalField   nonuniform List<vector> 
67442
(
(2.16568e-08 -1.00832e-06 0.115676)
(4.16232e-07 1.01379e-06 0.114014)
(2.86402e-06 7.51106e-07 0.114041)
(-0.00031138 -0.000315352 0.1107)
(0.00031242 0.000315163 0.1107)
(2.67561e-06 5.90254e-07 0.114046)
(-1.91159e-06 1.65822e-06 0.114043)
(-0.000311541 0.000316032 0.1107)
(-5.68901e-07 -3.08198e-07 0.114016)
(-1.0919e-07 5.50905e-07 0.114022)
(-2.45061e-07 -3.06783e-07 0.114026)
(0.000313009 -0.000314604 0.110698)
(-2.40013e-06 -1.09103e-06 0.114038)
(1.29764e-05 6.06842e-05 0.10463)
(9.28271e-07 8.07752e-05 0.108043)
(-1.55079e-05 2.97601e-05 0.099984)
(6.09534e-05 1.46547e-05 0.104553)
(8.15044e-05 9.64466e-07 0.10801)
(1.48434e-06 -1.10851e-07 0.11567)
(-2.39718e-07 2.7011e-06 0.115672)
(1.04569e-06 1.33318e-06 0.115674)
(-6.12017e-05 4.3501e-05 0.108245)
(1.98772e-06 -5.54267e-07 0.114712)
(-7.76136e-05 1.32795e-06 0.108756)
(2.72479e-05 -1.58957e-05 0.0998962)
(-2.62272e-07 1.13905e-06 0.114752)
(4.51552e-05 -5.95714e-05 0.10826)
(1.67847e-06 -7.79654e-05 0.108752)
(-3.06095e-05 -3.93058e-05 0.107256)
(-3.91088e-05 -2.79231e-05 0.107291)
(1.57298e-05 2.77558e-05 0.0999852)
(2.73106e-05 1.65472e-05 0.0998963)
(3.71541e-05 2.73597e-05 0.10729)
(2.77576e-05 3.74644e-05 0.10725)
(-1.26136e-05 6.25723e-05 0.104629)
(-2.50096e-07 8.30123e-05 0.108042)
(4.32045e-05 5.81697e-05 0.108261)
(6.54014e-07 5.59296e-07 0.114764)
(2.04833e-06 7.71428e-05 0.108753)
(-4.21079e-05 5.93325e-05 0.108259)
(1.4329e-06 1.03626e-06 0.114764)
(-7.58465e-07 7.83394e-05 0.108752)
(-3.80609e-05 2.94085e-05 0.107283)
(-2.9394e-05 3.93958e-05 0.107255)
(-2.95652e-05 1.85247e-05 0.0999014)
(5.94866e-05 4.35309e-05 0.108243)
(-2.57372e-06 -1.20287e-06 0.114709)
(7.53971e-05 8.76959e-07 0.108756)
(6.02758e-05 -1.34824e-05 0.104552)
(8.13967e-05 -3.92595e-07 0.10801)
(-2.53971e-06 1.91447e-06 0.114719)
(5.89555e-05 -4.31559e-05 0.108242)
(7.53489e-05 -7.01501e-07 0.108756)
(-6.18953e-05 1.43124e-05 0.104555)
(-8.35768e-05 5.82719e-07 0.108007)
(1.73807e-06 1.19137e-06 0.114721)
(-6.20018e-05 -4.36213e-05 0.108242)
(-7.76524e-05 -1.08786e-06 0.108755)
(-6.1476e-05 -1.34968e-05 0.104556)
(-8.39321e-05 -5.24699e-07 0.108008)
(2.86668e-05 -3.86238e-05 0.107251)
(4.04093e-05 -2.68744e-05 0.107291)
(1.67688e-05 -2.7686e-05 0.099983)
(1.50364e-06 -4.74223e-07 0.114749)
(-4.31929e-05 -5.97988e-05 0.108264)
(-8.2436e-07 -7.83262e-05 0.108753)
(1.45232e-05 -6.37445e-05 0.104623)
(1.17421e-06 -8.2867e-05 0.108044)
(-1.25635e-05 -6.1882e-05 0.104635)
(-1.75231e-07 -8.299e-05 0.108042)
(-3.01073e-05 -1.77713e-05 0.0998903)
(-1.536e-05 -2.81635e-05 0.0999875)
(-9.91712e-07 -3.31535e-05 0.0990152)
(-1.27154e-05 -6.09352e-05 0.104664)
(8.24948e-06 6.71403e-05 0.107119)
(-7.83146e-06 -6.78768e-05 0.107128)
(1.18495e-06 3.06027e-05 0.0989502)
(-1.48319e-07 -3.4535e-05 0.103231)
(-5.90638e-07 -8.19968e-05 0.108044)
(-6.59529e-07 3.38901e-05 0.104056)
(4.3455e-06 7.91184e-05 0.107894)
(4.03836e-07 -3.36172e-05 0.104087)
(-4.20608e-06 -8.02299e-05 0.107898)
(-4.59386e-07 3.38314e-05 0.103195)
(1.41229e-05 -2.8525e-05 0.100029)
(3.19327e-05 -4.04432e-07 0.103042)
(8.15288e-05 6.37861e-07 0.108008)
(7.9975e-05 4.64736e-06 0.107848)
(3.2264e-05 -1.48146e-06 0.103912)
(-3.40384e-05 -6.35643e-07 0.0988773)
(-6.2107e-05 -1.34795e-05 0.10458)
(6.76264e-05 9.48828e-06 0.107043)
(-6.90121e-05 -8.08428e-06 0.107044)
(3.19099e-05 2.61068e-06 0.09882)
(3.12906e-05 2.02836e-06 0.0988255)
(5.93986e-05 1.27588e-05 0.104552)
(6.65977e-05 8.40523e-06 0.107041)
(-3.55602e-05 3.42431e-07 0.103071)
(-8.36242e-05 -7.35733e-07 0.108003)
(8.05983e-05 4.9322e-06 0.107849)
(3.46872e-05 -1.48507e-08 0.103913)
(-8.17204e-05 -4.49548e-06 0.107845)
(-3.56591e-05 2.01264e-07 0.103937)
(3.48588e-05 -2.25576e-07 0.103043)
(-2.89861e-05 1.57914e-05 0.0999383)
(2.78192e-05 -1.59144e-05 0.0998952)
(9.53374e-05 3.21884e-05 0.107964)
(-9.70252e-05 -3.22675e-05 0.108685)
(2.89809e-05 3.67415e-05 0.107257)
(-3.44157e-05 -2.58586e-05 0.104291)
(9.37865e-05 2.92264e-05 0.108678)
(3.28024e-05 2.33751e-05 0.104315)
(-9.68974e-05 -3.32556e-05 0.107968)
(2.41549e-05 9.79267e-05 0.107972)
(-2.99931e-05 -9.75092e-05 0.108681)
(3.57234e-05 2.75093e-05 0.107297)
(-2.64473e-05 -3.36526e-05 0.104293)
(2.39177e-05 9.69166e-05 0.108679)
(2.22234e-05 3.40243e-05 0.104321)
(-2.83747e-05 -9.72755e-05 0.107973)
(3.10483e-05 3.29162e-05 0.106095)
(-2.02007e-05 -2.69418e-05 0.0994617)
(-2.71015e-05 -1.73169e-05 0.0994823)
(1.74865e-05 2.5667e-05 0.0995061)
(2.30943e-05 1.79076e-05 0.0995213)
(-3.43775e-05 -3.31549e-05 0.106091)
(-1.40545e-05 -2.90053e-05 0.100032)
(-2.97366e-05 -1.48707e-05 0.0999405)
(2.73263e-05 1.64595e-05 0.0998961)
(-2.97002e-05 -9.83293e-05 0.107976)
(3.02256e-05 9.49967e-05 0.108686)
(-3.62392e-05 -2.85746e-05 0.107293)
(2.38044e-05 3.37985e-05 0.104324)
(-2.39021e-05 -3.48212e-05 0.104355)
(-2.61007e-05 -9.64782e-05 0.108683)
(3.10951e-05 9.65518e-05 0.107977)
(-9.67787e-05 -2.8795e-05 0.107967)
(9.58012e-05 2.883e-05 0.108683)
(-2.9337e-05 -3.77473e-05 0.107249)
(3.40159e-05 2.45925e-05 0.104261)
(-3.42082e-05 -2.47761e-05 0.104289)
(-9.67023e-05 -2.84113e-05 0.108674)
(9.65031e-05 2.74786e-05 0.107971)
(-3.1841e-05 -3.37852e-05 0.106101)
(2.572e-05 1.78541e-05 0.0994855)
(1.88741e-05 2.63793e-05 0.0994543)
(-2.38382e-05 -1.98329e-05 0.0995329)
(-1.86717e-05 -2.56617e-05 0.0995011)
(3.3894e-05 3.29813e-05 0.106096)
(1.84851e-06 -3.17736e-05 0.0990141)
(1.27846e-05 -5.94089e-05 0.104658)
(-7.38515e-06 6.92998e-05 0.107115)
(8.49374e-06 -6.64254e-05 0.107127)
(-2.17388e-06 3.45765e-05 0.0989548)
(-7.15639e-07 -3.26769e-05 0.103226)
(1.37185e-06 -8.12016e-05 0.108044)
(6.95724e-07 3.61854e-05 0.104051)
(-4.11626e-06 8.06271e-05 0.107893)
(-6.71002e-07 -3.45834e-05 0.104082)
(4.51816e-06 -7.97237e-05 0.107896)
(1.07442e-06 3.429e-05 0.103198)
(2.56689e-05 -9.72099e-05 0.107974)
(-3.1002e-05 9.81983e-05 0.10868)
(3.57908e-05 -2.73109e-05 0.107297)
(-2.58053e-05 3.41962e-05 0.104285)
(2.17606e-05 -3.31123e-05 0.104326)
(2.50736e-05 -9.59977e-05 0.108682)
(-3.02857e-05 9.68936e-05 0.107969)
(9.59353e-05 -3.06893e-05 0.107964)
(-9.59526e-05 3.0888e-05 0.108689)
(2.91703e-05 -3.73099e-05 0.107251)
(-3.46645e-05 2.64648e-05 0.104294)
(9.43029e-05 -2.8342e-05 0.108677)
(3.23336e-05 -2.33435e-05 0.104311)
(-9.74126e-05 3.17314e-05 0.107971)
(3.12939e-05 -3.32755e-05 0.106094)
(-2.61086e-05 1.68174e-05 0.0994843)
(-1.9917e-05 2.7542e-05 0.099462)
(2.27788e-05 -1.77436e-05 0.0995247)
(1.78017e-05 -2.59348e-05 0.099509)
(-3.46686e-05 3.30147e-05 0.106093)
(2.9322e-05 -1.5369e-05 0.0999477)
(3.31685e-05 2.4752e-07 0.103044)
(8.16533e-05 -6.1482e-07 0.108007)
(3.36235e-05 1.14585e-08 0.103911)
(7.89348e-05 -4.10225e-06 0.107849)
(-3.29806e-05 6.65648e-07 0.098875)
(-6.06874e-05 1.32392e-05 0.104579)
(6.67872e-05 -8.78976e-06 0.107043)
(-6.89736e-05 8.11511e-06 0.107043)
(3.11462e-05 -1.60147e-06 0.0988225)
(3.18145e-05 -2.00859e-06 0.0988243)
(5.98753e-05 -1.33731e-05 0.104547)
(6.60575e-05 -8.5373e-06 0.107044)
(-3.55837e-05 -7.80354e-07 0.103069)
(-8.32297e-05 1.01917e-06 0.108003)
(3.45109e-05 7.37503e-07 0.103911)
(7.98294e-05 -4.62524e-06 0.10785)
(-3.53455e-05 -1.99969e-07 0.10394)
(-8.204e-05 4.70661e-06 0.107844)
(3.51417e-05 6.10126e-07 0.103042)
(3.30759e-05 -1.30966e-06 0.098873)
(5.93715e-05 -1.27737e-05 0.10458)
(-6.95619e-05 8.87002e-06 0.107042)
(6.82727e-05 -7.96434e-06 0.107048)
(-3.49195e-05 2.82602e-06 0.0988229)
(3.29873e-05 5.61935e-07 0.103072)
(8.193e-05 -1.16037e-06 0.108001)
(-8.20078e-05 5.04475e-06 0.107846)
(-3.59887e-05 -5.43311e-07 0.103914)
(8.01179e-05 -4.55673e-06 0.107843)
(3.38225e-05 6.81954e-07 0.103942)
(-3.59805e-05 4.17107e-07 0.10305)
(3.30807e-05 1.17614e-06 0.0988715)
(5.92702e-05 1.32091e-05 0.104582)
(-6.95315e-05 -8.12e-06 0.107047)
(6.75061e-05 8.19772e-06 0.107048)
(-3.51092e-05 -2.72988e-06 0.0988171)
(3.2887e-05 -6.72902e-07 0.103071)
(8.17786e-05 4.90426e-07 0.108001)
(-3.61566e-05 6.63516e-07 0.103914)
(-8.14892e-05 -4.98525e-06 0.107852)
(3.41494e-05 -5.41888e-07 0.103943)
(7.96643e-05 4.25622e-06 0.107846)
(-3.49728e-05 -2.94997e-07 0.103051)
(-9.56006e-05 2.85348e-05 0.107966)
(9.72245e-05 -3.1312e-05 0.108683)
(-2.94086e-05 3.68769e-05 0.107255)
(3.54875e-05 -2.64511e-05 0.104264)
(-3.43353e-05 2.38507e-05 0.104298)
(-9.5271e-05 2.83037e-05 0.108678)
(9.68226e-05 -3.07603e-05 0.107964)
(-2.87237e-05 9.79918e-05 0.107969)
(2.81321e-05 -9.49926e-05 0.108684)
(-3.63101e-05 2.71646e-05 0.10729)
(2.55915e-05 -3.44192e-05 0.10432)
(-2.59156e-05 9.65184e-05 0.108676)
(-2.33339e-05 3.47314e-05 0.104347)
(2.8406e-05 -9.67544e-05 0.107976)
(-3.30562e-05 3.02764e-05 0.106088)
(1.81884e-05 -2.6868e-05 0.0994564)
(2.47261e-05 -1.95821e-05 0.0994931)
(-1.95004e-05 2.3135e-05 0.0995005)
(-2.40533e-05 1.7636e-05 0.099533)
(3.20611e-05 -3.48314e-05 0.106086)
(-1.14634e-05 2.7696e-05 0.100023)
(-2.4896e-07 3.2129e-05 0.0990025)
(-1.09253e-05 6.12109e-05 0.104662)
(9.83174e-06 -6.78322e-05 0.107119)
(-6.93392e-06 6.83767e-05 0.107127)
(2.10391e-06 -3.09081e-05 0.0989488)
(1.73432e-06 3.3581e-05 0.103226)
(5.65923e-08 8.18296e-05 0.108047)
(5.24005e-06 -8.25588e-05 0.107895)
(1.52522e-08 -3.5532e-05 0.104056)
(-2.68537e-06 7.97316e-05 0.107898)
(1.69149e-06 3.39393e-05 0.104086)
(-5.12103e-07 -3.64544e-05 0.103195)
(8.85522e-07 3.1906e-05 0.0990074)
(1.27683e-05 6.05135e-05 0.104669)
(-7.56258e-06 -6.76731e-05 0.107121)
(8.58163e-06 6.81246e-05 0.107133)
(-1.1022e-06 -3.21655e-05 0.0989544)
(-6.88324e-07 3.27183e-05 0.103226)
(1.32107e-06 8.09933e-05 0.108046)
(-4.07796e-06 -8.21454e-05 0.107894)
(1.01718e-06 -3.55123e-05 0.104053)
(4.36114e-06 7.95528e-05 0.107898)
(8.85189e-08 3.31034e-05 0.104085)
(8.17973e-07 -3.61405e-05 0.103195)
(2.94965e-05 1.59345e-05 0.0999387)
(1.33685e-05 2.86674e-05 0.10003)
(7.87172e-07 -1.09721e-06 0.115938)
(8.73616e-07 1.09907e-07 0.115923)
(1.09542e-06 -1.57308e-07 0.116085)
(8.82065e-05 9.3971e-05 0.108757)
(-7.60615e-05 -0.000299439 0.109655)
(-0.000291725 -7.68712e-05 0.109652)
(0.000318756 0.000326726 0.110714)
(7.44039e-05 0.000300224 0.109649)
(0.000290015 7.85151e-05 0.10965)
(-8.91885e-05 -9.17448e-05 0.108756)
(-9.26218e-05 -9.26687e-05 0.10876)
(0.000297163 7.55517e-05 0.109647)
(7.37999e-05 0.000293141 0.109659)
(-0.000320398 -0.000326644 0.110709)
(-0.000295917 -7.96858e-05 0.109646)
(-7.62486e-05 -0.000295992 0.10965)
(9.00417e-05 8.73632e-05 0.108761)
(9.08202e-05 -9.10118e-05 0.108758)
(-0.000296613 7.79246e-05 0.109649)
(-7.49217e-05 0.000295606 0.109659)
(0.000319702 -0.000326528 0.110716)
(7.44878e-05 -0.000297199 0.109649)
(0.000294436 -7.80972e-05 0.109652)
(-9.19095e-05 8.92914e-05 0.108755)
(-8.92988e-05 9.4446e-05 0.10876)
(7.55998e-05 -0.00029775 0.109657)
(0.000292224 -7.4753e-05 0.10965)
(-0.000318869 0.000326167 0.110711)
(-0.000292751 7.90192e-05 0.109645)
(-7.46093e-05 0.000297622 0.109652)
(8.78916e-05 -9.03644e-05 0.108761)
(6.73337e-07 -3.29684e-07 0.115933)
(3.28701e-07 1.3423e-06 0.115923)
(2.39155e-06 6.89002e-07 0.116081)
(7.51312e-07 -7.6933e-07 0.115925)
(1.83951e-06 1.76251e-06 0.11593)
(1.32754e-06 4.77266e-08 0.116082)
(6.29763e-07 -7.54363e-07 0.115928)
(1.57257e-06 7.19009e-07 0.115932)
(2.14291e-06 -1.09813e-07 0.116079)
(0.000362694 -6.97657e-06 0.109677)
(-0.000339831 1.12571e-05 0.109428)
(5.77211e-05 -4.39369e-05 0.108241)
(-7.34321e-05 1.61906e-05 0.108581)
(0.000334655 -1.16465e-05 0.109411)
(7.2197e-05 -1.6372e-05 0.108574)
(-0.000357927 5.00378e-06 0.109692)
(0.000354023 -4.35396e-06 0.109798)
(7.48133e-05 -1.7263e-06 0.108742)
(-7.78173e-05 6.52732e-06 0.108712)
(-0.000351831 6.16897e-07 0.109871)
(7.56625e-05 -5.97445e-06 0.108702)
(0.000352624 -5.0968e-07 0.10983)
(-0.000357771 3.46075e-06 0.10982)
(1.74313e-06 0.000365797 0.109681)
(7.93475e-06 -0.00034013 0.109418)
(-4.22775e-05 5.70546e-05 0.108264)
(1.75123e-05 -7.2281e-05 0.108587)
(-4.30394e-06 0.00033864 0.109414)
(-1.43327e-05 7.19893e-05 0.108587)
(1.87419e-06 -0.000357531 0.109677)
(3.70872e-06 0.000355475 0.109809)
(-8.52424e-07 7.72171e-05 0.108753)
(-6.42885e-08 -0.000351308 0.109837)
(7.07757e-06 -7.88059e-05 0.108712)
(1.59637e-06 0.000354508 0.109846)
(-4.30652e-06 7.67592e-05 0.108713)
(-1.1277e-06 -0.00035784 0.109793)
(5.4637e-07 -0.000358428 0.109683)
(8.24073e-06 0.000335864 0.109418)
(-4.26788e-05 -5.68727e-05 0.108264)
(1.6245e-05 7.22895e-05 0.108588)
(-1.60041e-05 -7.24032e-05 0.108588)
(-4.57764e-06 -0.00033167 0.109418)
(1.33719e-06 0.000354962 0.109671)
(2.90021e-06 -0.00035515 0.109811)
(-1.00448e-06 -7.70311e-05 0.108753)
(5.9014e-06 7.69622e-05 0.108714)
(-2.9639e-07 0.000348405 0.109836)
(-5.75668e-06 -7.76609e-05 0.108715)
(1.7624e-06 -0.000351831 0.109845)
(-2.02873e-06 0.00035064 0.109796)
(-6.95264e-07 -0.000357824 0.109684)
(-7.04231e-06 0.000337696 0.109415)
(4.26413e-05 -5.57917e-05 0.108265)
(-1.49296e-05 7.32411e-05 0.108586)
(1.64791e-05 -7.11302e-05 0.108588)
(4.45363e-06 -0.000333026 0.109414)
(-1.32008e-07 0.000354951 0.109667)
(-2.32673e-06 -0.000354193 0.10981)
(2.43931e-06 -7.64527e-05 0.108754)
(-6.0007e-06 7.78385e-05 0.108713)
(1.5275e-06 0.000348842 0.109837)
(6.26851e-06 -7.68264e-05 0.108714)
(7.64672e-08 -0.000352141 0.109846)
(1.993e-06 0.000351292 0.109791)
(-0.000362927 -6.7875e-06 0.109676)
(0.000338607 1.12626e-05 0.109428)
(-5.91271e-05 -4.39825e-05 0.108239)
(7.23465e-05 1.67768e-05 0.108581)
(-7.31371e-05 -1.60837e-05 0.108573)
(-0.000333624 -1.14121e-05 0.109411)
(0.000357333 5.48041e-06 0.109696)
(-0.000353513 -4.14903e-06 0.109799)
(-7.55886e-05 -1.62643e-06 0.108741)
(7.68514e-05 5.9816e-06 0.108714)
(0.000350539 -3.82005e-07 0.109872)
(-7.62769e-05 -5.97071e-06 0.108701)
(-0.000352941 -5.42177e-07 0.109831)
(0.000356448 2.57651e-06 0.109825)
(-0.000358829 6.84221e-06 0.109674)
(0.000337882 -1.13286e-05 0.109424)
(-5.90791e-05 4.35431e-05 0.108239)
(7.22924e-05 -1.53357e-05 0.108581)
(-7.30422e-05 1.69561e-05 0.108572)
(-0.00033261 1.10184e-05 0.109409)
(0.000356189 -4.92218e-06 0.109688)
(-0.000355254 4.61596e-06 0.109798)
(-7.52715e-05 1.82581e-06 0.108741)
(0.000349586 1.3206e-06 0.109871)
(7.6286e-05 -5.32571e-06 0.108714)
(-0.000351665 7.11643e-07 0.109829)
(-7.66374e-05 6.48757e-06 0.108702)
(0.000351735 -1.5152e-06 0.109824)
(0.000357976 6.74259e-06 0.109673)
(-0.000339564 -1.14482e-05 0.10942)
(5.79637e-05 4.38722e-05 0.108239)
(-7.46686e-05 -1.51561e-05 0.108578)
(0.000334619 1.20349e-05 0.109407)
(7.12826e-05 1.66309e-05 0.108572)
(-0.000357011 -4.59098e-06 0.109682)
(0.0003547 4.38358e-06 0.109797)
(7.42988e-05 1.68551e-06 0.10874)
(-0.000350997 7.03511e-07 0.109869)
(-7.80456e-05 -5.92679e-06 0.108712)
(0.000350921 6.13478e-07 0.109828)
(7.55234e-05 6.43901e-06 0.1087)
(-0.000353359 -2.45975e-06 0.109818)
(-5.51486e-07 0.000364045 0.109686)
(-7.5669e-06 -0.000339399 0.109419)
(4.30277e-05 5.66563e-05 0.108268)
(-1.57305e-05 -7.21731e-05 0.108589)
(4.27798e-06 0.000337312 0.109419)
(1.56787e-05 7.20551e-05 0.108591)
(-4.72851e-07 -0.000356739 0.109679)
(-2.48811e-06 0.000353676 0.109814)
(2.74399e-06 7.65295e-05 0.108755)
(1.86226e-06 -0.00035089 0.10984)
(-6.36852e-06 -7.90295e-05 0.108713)
(1.13569e-07 0.00035295 0.10985)
(5.64906e-06 7.62394e-05 0.108715)
(2.0175e-06 -0.00035726 0.109796)
(8.0277e-06 1.94916e-05 0.0823561)
(5.98402e-06 1.05532e-05 0.0615908)
(3.75571e-06 4.79821e-06 0.0398986)
(1.71419e-06 1.1993e-06 0.0212495)
(6.2528e-07 3.39529e-07 0.00653713)
(-1.02321e-05 1.48494e-05 0.0846506)
(-6.42762e-06 7.56378e-06 0.0634235)
(-3.47385e-06 3.19807e-06 0.0413494)
(-1.12377e-06 8.50676e-07 0.0221801)
(-4.26829e-07 -1.72078e-08 0.00687263)
(1.92606e-05 8.16428e-06 0.0824155)
(1.03787e-05 5.73663e-06 0.0616217)
(4.84109e-06 3.44023e-06 0.0399153)
(1.79832e-06 1.53962e-06 0.0212575)
(1.51256e-07 5.28275e-07 0.00653922)
(1.41238e-05 -9.10935e-06 0.0846875)
(7.77324e-06 -5.00051e-06 0.0634484)
(3.85754e-06 -2.20861e-06 0.0413654)
(1.46977e-06 -3.84769e-07 0.0221885)
(3.02147e-07 -1.4009e-07 0.00687519)
(9.40405e-06 1.44791e-05 0.0846523)
(5.35043e-06 8.31008e-06 0.0634269)
(2.48507e-06 4.25628e-06 0.0413518)
(6.52233e-07 1.82999e-06 0.022182)
(2.13961e-07 4.23314e-07 0.00687399)
(1.44277e-05 1.02502e-05 0.0846874)
(7.92729e-06 6.25257e-06 0.0634463)
(3.73741e-06 3.34878e-06 0.0413621)
(1.07894e-06 9.90538e-07 0.0221858)
(2.71425e-07 5.13282e-07 0.00687412)
(-5.5743e-06 2.00877e-05 0.0823581)
(-3.18845e-06 1.08907e-05 0.0615944)
(-1.28358e-06 5.41506e-06 0.0399021)
(-2.51781e-07 2.34169e-06 0.0212515)
(5.53984e-08 5.38726e-07 0.00653749)
(-1.62454e-05 1.19667e-05 0.084685)
(-9.35945e-06 7.51928e-06 0.0634392)
(-4.64396e-06 4.07146e-06 0.0413546)
(-9.93728e-07 1.12933e-06 0.0221818)
(-6.3325e-07 6.1902e-07 0.00687315)
(1.98423e-05 -7.74828e-06 0.0824233)
(1.09389e-05 -5.47047e-06 0.0616274)
(5.40983e-06 -3.20905e-06 0.0399178)
(1.62827e-06 -9.37652e-07 0.0212577)
(4.5122e-07 -5.8003e-07 0.0065387)
(-1.81929e-05 6.6726e-06 0.0824317)
(-8.52611e-06 4.35755e-06 0.0616389)
(-3.3187e-06 2.61261e-06 0.0399309)
(-1.54542e-06 1.49587e-06 0.0212674)
(9.31142e-09 4.24953e-07 0.00654225)
(-1.86938e-05 -6.07602e-06 0.0824189)
(-8.9293e-06 -3.53989e-06 0.0616283)
(-3.61001e-06 -1.73079e-06 0.0399249)
(-2.01656e-06 -8.90906e-07 0.0212655)
(2.49604e-07 -7.51073e-08 0.00654193)
(1.00864e-05 -1.3194e-05 0.0846535)
(5.866e-06 -6.70103e-06 0.0634298)
(3.07445e-06 -2.93252e-06 0.0413558)
(1.34684e-06 -1.126e-06 0.0221843)
(3.44654e-07 -1.32378e-07 0.00687405)
(9.55397e-06 -2.17081e-05 0.0823355)
(7.09018e-06 -1.17988e-05 0.061576)
(4.39743e-06 -5.35833e-06 0.0398885)
(1.99176e-06 -1.49848e-06 0.0212439)
(6.67559e-07 -3.08231e-07 0.00653511)
(-7.33276e-06 -2.10073e-05 0.0823484)
(-4.74845e-06 -1.10016e-05 0.0615839)
(-2.52529e-06 -5.00538e-06 0.0398939)
(-7.77697e-07 -1.31768e-06 0.0212467)
(-3.46742e-07 -4.39116e-07 0.00653553)
(-1.58692e-05 -1.1153e-05 0.0846704)
(-8.94561e-06 -6.99686e-06 0.0634261)
(-4.35806e-06 -3.89811e-06 0.0413468)
(-9.92633e-07 -1.22411e-06 0.0221779)
(-4.43776e-07 -6.29072e-07 0.00687157)
(-9.03745e-06 -1.43538e-05 0.0846525)
(-4.84423e-06 -7.40077e-06 0.0634259)
(-2.29736e-06 -3.2455e-06 0.0413513)
(-8.46023e-07 -1.19323e-06 0.0221814)
(-1.92414e-07 -1.30065e-07 0.00687252)
(7.04552e-08 -2.22836e-05 0.0849213)
(5.80735e-07 -1.22724e-05 0.0636211)
(8.46887e-07 -5.90746e-06 0.0414749)
(8.534e-07 -2.39463e-06 0.0222452)
(2.75933e-07 -3.6946e-07 0.00689124)
(-5.89653e-06 -2.05605e-05 0.0824411)
(-3.95578e-06 -1.10598e-05 0.0616762)
(-2.4823e-06 -4.94647e-06 0.0399584)
(-1.27617e-06 -1.55524e-06 0.021281)
(-4.93418e-07 -2.61386e-07 0.00654599)
(7.98091e-06 -1.50582e-05 0.0847293)
(4.546e-06 -8.07938e-06 0.0635012)
(2.58055e-06 -3.30522e-06 0.0414034)
(1.28901e-06 -8.10753e-07 0.022208)
(4.51458e-07 3.32346e-08 0.0068807)
(1.7884e-05 -1.89716e-06 0.0836301)
(1.0327e-05 -2.3648e-06 0.0624972)
(5.04569e-06 -2.20612e-06 0.0405656)
(1.99656e-06 -1.43508e-06 0.0216603)
(3.92179e-07 -5.86791e-07 0.00668036)
(1.74563e-05 -2.71869e-06 0.0835707)
(1.00081e-05 -2.66538e-06 0.0626701)
(4.82752e-06 -2.05708e-06 0.0407923)
(1.69607e-06 -1.30139e-06 0.0218333)
(3.92172e-07 -3.71541e-07 0.00674904)
(-2.27034e-05 2.41605e-07 0.0849623)
(-1.24463e-05 6.18068e-07 0.0636442)
(-5.98108e-06 7.54394e-07 0.0414881)
(-2.20667e-06 6.22466e-07 0.0222516)
(-5.40676e-07 2.73522e-07 0.00689319)
(-2.18924e-05 -6.89566e-06 0.0825055)
(-1.15064e-05 -4.55459e-06 0.061708)
(-5.11143e-06 -2.71901e-06 0.0399742)
(-1.64858e-06 -1.46236e-06 0.0212877)
(-2.58899e-07 -3.84142e-07 0.00654756)
(1.89588e-05 6.6016e-06 0.082423)
(1.06743e-05 4.51932e-06 0.0616266)
(5.02405e-06 2.7052e-06 0.0399159)
(1.81611e-06 1.53402e-06 0.0212562)
(3.0292e-07 3.15987e-07 0.006538)
(-1.53385e-05 9.20143e-06 0.0847629)
(-8.10163e-06 4.82179e-06 0.0635204)
(-3.65829e-06 2.32152e-06 0.0414145)
(-1.17973e-06 1.16405e-06 0.0222137)
(-3.09536e-07 1.42512e-07 0.00688249)
(1.41667e-05 -1.02809e-05 0.0846918)
(7.8377e-06 -6.07341e-06 0.0634511)
(3.76946e-06 -2.86697e-06 0.0413644)
(1.61498e-06 -1.08091e-06 0.0221862)
(3.00535e-07 -7.83841e-08 0.00687414)
(-1.70045e-05 -1.2072e-05 0.0825769)
(-8.37897e-06 -6.1713e-06 0.0617364)
(-3.45407e-06 -2.77431e-06 0.0399991)
(-1.42756e-06 -1.34649e-06 0.0213086)
(3.56696e-08 -3.21078e-08 0.00655649)
(1.78426e-05 1.00783e-05 0.0826518)
(9.65845e-06 4.43941e-06 0.061806)
(4.56179e-06 1.299e-06 0.040043)
(2.3681e-06 3.6851e-07 0.0213287)
(2.16311e-07 -2.35774e-07 0.00656218)
(-1.37642e-05 -1.88447e-05 0.0825506)
(-7.43831e-06 -1.03297e-05 0.0617132)
(-3.46891e-06 -5.04843e-06 0.0399799)
(-8.92819e-07 -1.43342e-06 0.0212967)
(-2.60003e-07 -5.85394e-07 0.00655276)
(1.04582e-05 1.99132e-05 0.0826352)
(5.32151e-06 1.16851e-05 0.0618032)
(2.08438e-06 6.06445e-06 0.0400461)
(1.82257e-07 2.32553e-06 0.0213323)
(1.17051e-07 7.48167e-07 0.00656355)
(-1.30669e-05 -1.5858e-05 0.0848464)
(-6.89944e-06 -9.50085e-06 0.0633794)
(-2.81012e-06 -5.37187e-06 0.0412308)
(-2.51727e-07 -2.13295e-06 0.0220797)
(-7.93625e-08 -8.95389e-07 0.00683099)
(-1.54719e-05 -1.09617e-05 0.0848339)
(-8.35937e-06 -5.15068e-06 0.0633758)
(-4.29745e-06 -1.81687e-06 0.0412331)
(-2.11962e-06 -3.63592e-07 0.0220819)
(-4.43944e-07 8.95998e-08 0.00683181)
(1.19753e-05 1.58007e-05 0.0849284)
(6.56391e-06 9.73857e-06 0.0634669)
(2.73824e-06 5.28035e-06 0.0412968)
(5.35689e-07 2.00854e-06 0.0221157)
(4.0532e-08 7.52894e-07 0.00684195)
(1.34307e-05 1.23526e-05 0.084905)
(7.576e-06 6.70984e-06 0.0634472)
(3.63019e-06 2.81601e-06 0.0412822)
(1.4116e-06 9.32274e-07 0.022107)
(3.28831e-07 6.00691e-08 0.00683923)
(-8.60153e-06 -1.50741e-05 0.0847302)
(-4.89634e-06 -8.25643e-06 0.0635016)
(-2.53708e-06 -3.78508e-06 0.0414045)
(-1.26084e-06 -1.22461e-06 0.0222102)
(-1.76057e-07 -2.65806e-07 0.00688184)
(-1.61793e-05 -7.8859e-06 0.0847631)
(-9.20855e-06 -3.72857e-06 0.0635217)
(-4.3939e-06 -1.55131e-06 0.0414153)
(-1.5018e-06 -6.78548e-07 0.0222137)
(-3.7959e-07 -4.68902e-08 0.00688215)
(1.37096e-05 1.0389e-05 0.0846886)
(7.71071e-06 6.17825e-06 0.0634474)
(3.75281e-06 3.11187e-06 0.0413607)
(1.48796e-06 1.30424e-06 0.0221837)
(3.13297e-07 2.29341e-07 0.00687273)
(6.67787e-06 -1.90845e-05 0.0824371)
(4.45249e-06 -9.75045e-06 0.0616707)
(2.8545e-06 -4.14434e-06 0.0399535)
(1.79204e-06 -1.3128e-06 0.0212774)
(4.44103e-07 -2.13285e-07 0.00654476)
(-1.628e-05 1.20536e-05 0.0825863)
(-7.63738e-06 6.16382e-06 0.0617473)
(-2.87285e-06 2.71143e-06 0.0400084)
(-1.31248e-06 1.24054e-06 0.0213142)
(1.46675e-07 8.83494e-08 0.00655836)
(1.72449e-05 -1.03377e-05 0.0826589)
(8.97779e-06 -4.49507e-06 0.061812)
(3.93819e-06 -1.38881e-06 0.0400468)
(1.92775e-06 -6.7117e-07 0.0213308)
(9.90983e-08 2.38272e-07 0.00656252)
(-1.34541e-05 1.68482e-05 0.0848508)
(-7.18788e-06 1.05178e-05 0.0633869)
(-2.98126e-06 6.21693e-06 0.041237)
(-3.58853e-07 2.37319e-06 0.0220825)
(8.59612e-09 1.16843e-06 0.00683218)
(1.16513e-05 -1.56227e-05 0.0849342)
(6.35953e-06 -9.36806e-06 0.0634743)
(2.81774e-06 -5.2078e-06 0.0413029)
(5.49826e-07 -2.06702e-06 0.0221186)
(6.74527e-08 -8.1597e-07 0.00684299)
(1.666e-05 -9.03482e-06 0.0847723)
(9.9932e-06 -4.93993e-06 0.0635328)
(5.05002e-06 -2.29178e-06 0.0414262)
(1.49715e-06 -6.07091e-07 0.022222)
(5.39988e-07 -1.84414e-07 0.00688531)
(1.8838e-05 1.1536e-06 0.0836263)
(1.06701e-05 1.38587e-06 0.0624935)
(5.21214e-06 1.18858e-06 0.040563)
(1.8481e-06 6.8205e-07 0.021659)
(5.22624e-07 3.90241e-07 0.00667988)
(1.75175e-05 -1.30592e-08 0.0835721)
(9.96688e-06 1.63496e-07 0.0626699)
(4.76797e-06 1.24825e-07 0.0407921)
(1.75649e-06 -1.22941e-07 0.0218335)
(3.79863e-07 1.16537e-07 0.00674902)
(-2.23828e-05 -5.42692e-07 0.0849627)
(-1.24686e-05 -1.27393e-06 0.0636446)
(-6.06181e-06 -1.22557e-06 0.0414874)
(-2.31839e-06 -6.32668e-07 0.0222504)
(-4.27994e-07 -4.28093e-07 0.00689246)
(-2.08933e-05 7.81584e-06 0.0825137)
(-1.09592e-05 5.45886e-06 0.0617168)
(-4.74005e-06 3.6062e-06 0.0399813)
(-1.06349e-06 2.23104e-06 0.0212911)
(-2.7626e-07 5.57572e-07 0.00654861)
(1.97339e-05 -6.72678e-06 0.0824274)
(1.09532e-05 -4.55871e-06 0.0616298)
(5.29173e-06 -2.55811e-06 0.039918)
(1.8978e-06 -1.15301e-06 0.0212568)
(4.28299e-07 -2.68446e-07 0.00653802)
(1.88766e-05 -6.46446e-06 0.0825022)
(9.62516e-06 -4.40724e-06 0.0617025)
(3.92342e-06 -2.7531e-06 0.0399697)
(1.55181e-06 -1.71528e-06 0.0212857)
(4.33328e-08 -4.79427e-07 0.00654704)
(2.34902e-05 -4.57816e-07 0.0849631)
(1.41065e-05 -1.27047e-06 0.06365)
(7.06432e-06 -1.42263e-06 0.0414957)
(1.93071e-06 -1.0191e-06 0.0222581)
(9.27713e-07 -4.64508e-07 0.00689563)
(1.8683e-05 6.58929e-06 0.0824958)
(9.33854e-06 4.40044e-06 0.0616973)
(3.77368e-06 2.75572e-06 0.0399669)
(1.46039e-06 1.81143e-06 0.0212848)
(5.46894e-08 4.47692e-07 0.00654712)
(1.37918e-05 -1.91051e-05 0.0825439)
(7.55497e-06 -1.0196e-05 0.0617147)
(3.50688e-06 -4.81365e-06 0.0399835)
(8.48136e-07 -1.72132e-06 0.0212999)
(3.34153e-07 -3.39958e-07 0.00655462)
(-1.09632e-05 1.97575e-05 0.0826281)
(-5.49611e-06 1.11992e-05 0.0618009)
(-2.1282e-06 5.46153e-06 0.0400458)
(-3.47708e-07 2.00799e-06 0.0213331)
(-6.37851e-08 5.04785e-07 0.00656431)
(1.3181e-05 -1.33583e-05 0.0848531)
(6.88795e-06 -7.68087e-06 0.0633924)
(3.08507e-06 -3.76703e-06 0.0412431)
(9.19958e-07 -1.5607e-06 0.0220872)
(2.08843e-07 -2.24769e-07 0.006834)
(-5.77641e-06 1.5153e-05 0.0847223)
(-2.1082e-06 8.41286e-06 0.063495)
(-2.69549e-07 4.12582e-06 0.0413999)
(2.48791e-07 1.7366e-06 0.0222072)
(2.39357e-07 3.74894e-07 0.00688045)
(6.28823e-08 2.17064e-05 0.0849103)
(5.60946e-07 1.19433e-05 0.0636118)
(7.37728e-07 5.60781e-06 0.0414693)
(4.91619e-07 2.26098e-06 0.0222428)
(2.77482e-07 2.88802e-07 0.00689051)
(-5.17641e-06 2.1487e-05 0.0824311)
(-3.29297e-06 1.18836e-05 0.061673)
(-1.86009e-06 5.49048e-06 0.0399587)
(-7.92936e-07 1.73787e-06 0.0212816)
(-2.92285e-07 2.83919e-07 0.00654609)
(-2.47774e-07 2.19353e-05 0.0849119)
(-6.10373e-07 1.26876e-05 0.0636143)
(-6.38177e-07 6.14833e-06 0.0414722)
(-3.76314e-07 2.23571e-06 0.0222444)
(-2.18917e-07 4.50342e-07 0.006891)
(6.56001e-06 2.02744e-05 0.0824354)
(4.61742e-06 1.13085e-05 0.0616728)
(2.90462e-06 5.15081e-06 0.0399575)
(1.57195e-06 1.55794e-06 0.0212806)
(4.85298e-07 3.16728e-07 0.00654556)
(1.64521e-05 9.30601e-06 0.0847597)
(9.56517e-06 5.09374e-06 0.0635185)
(4.64014e-06 2.40682e-06 0.0414157)
(1.44008e-06 6.92309e-07 0.0222157)
(3.91411e-07 2.79719e-07 0.00688304)
(7.30175e-06 1.51898e-05 0.0847241)
(3.70142e-06 8.47695e-06 0.0634959)
(1.68463e-06 3.89257e-06 0.0413993)
(5.76089e-07 1.33991e-06 0.0222061)
(2.47055e-07 2.52839e-07 0.00687981)
(1.22055e-06 -2.22385e-05 0.0849201)
(6.73719e-07 -1.26753e-05 0.0636225)
(3.50614e-07 -5.99427e-06 0.0414784)
(3.89631e-08 -1.46899e-06 0.0222478)
(6.53792e-08 -5.53138e-07 0.00689255)
(2.36798e-05 -4.36187e-08 0.0849612)
(1.42151e-05 8.40887e-07 0.0636492)
(7.1299e-06 1.22392e-06 0.041495)
(2.25478e-06 9.83918e-07 0.0222567)
(7.71414e-07 5.10637e-07 0.00689498)
(6.0386e-07 -1.88401e-05 0.0836207)
(6.83256e-07 -1.07482e-05 0.0625249)
(6.94973e-07 -5.34136e-06 0.0405946)
(8.09643e-07 -1.75982e-06 0.0216776)
(8.88479e-08 -5.83206e-07 0.00668565)
(-2.2756e-06 1.7389e-05 0.0834876)
(-2.51942e-06 9.7836e-06 0.0626311)
(-2.13641e-06 4.81028e-06 0.0407758)
(-1.1961e-06 2.5774e-06 0.0218271)
(-5.9027e-07 3.34549e-08 0.0067481)
(7.83668e-07 -1.75538e-05 0.0835533)
(9.36013e-07 -9.41294e-06 0.0626928)
(8.30655e-07 -4.3129e-06 0.0408167)
(5.91269e-07 -1.80302e-06 0.0218474)
(1.93235e-07 -2.12261e-07 0.00675305)
(-1.54393e-06 1.87623e-05 0.0835487)
(-1.80141e-06 1.11399e-05 0.0624495)
(-1.51874e-06 5.75673e-06 0.0405385)
(-9.35691e-07 1.77761e-06 0.0216463)
(-4.12935e-07 7.30275e-07 0.00667662)
(2.77014e-07 2.14543e-05 0.0848311)
(-5.20743e-07 1.24953e-05 0.0635336)
(-1.01881e-06 6.41354e-06 0.0414138)
(-8.68071e-07 2.72777e-06 0.0222124)
(-5.49767e-07 5.34981e-07 0.00688212)
(-1.34668e-05 1.95965e-05 0.082557)
(-6.95761e-06 1.09982e-05 0.0617227)
(-2.97474e-06 5.7405e-06 0.0399877)
(-5.96718e-07 1.9475e-06 0.0213016)
(-1.12465e-07 8.78805e-07 0.00655481)
(9.99382e-06 -1.95879e-05 0.082639)
(4.77183e-06 -1.14145e-05 0.0618045)
(1.83959e-06 -5.92286e-06 0.0400473)
(4.12938e-07 -2.31256e-06 0.0213337)
(-1.74443e-08 -7.52917e-07 0.00656424)
(-1.44604e-05 1.09837e-05 0.0848402)
(-7.60439e-06 5.29861e-06 0.0633833)
(-3.72575e-06 1.98878e-06 0.0412395)
(-1.67707e-06 6.65387e-07 0.0220862)
(-3.76973e-07 -1.08174e-07 0.00683397)
(1.29866e-05 -1.18145e-05 0.0849144)
(6.91841e-06 -6.1793e-06 0.0634559)
(3.16808e-06 -2.53429e-06 0.0412877)
(1.24965e-06 -9.67955e-07 0.0221104)
(2.68927e-07 3.39367e-08 0.00684079)
(2.22129e-05 1.62866e-06 0.0848735)
(1.29065e-05 5.28875e-07 0.0635585)
(6.50115e-06 -2.78395e-07 0.0414271)
(2.41228e-06 -6.02853e-07 0.0222183)
(6.34189e-07 -2.70175e-07 0.00688374)
(-2.0152e-05 1.95379e-06 0.0836988)
(-1.0988e-05 2.27358e-06 0.0625669)
(-5.339e-06 1.87498e-06 0.0406162)
(-2.08272e-06 1.13949e-06 0.0216874)
(-3.95959e-07 4.62633e-07 0.0066887)
(1.77477e-05 -5.95767e-07 0.0835645)
(1.06958e-05 -7.33841e-07 0.0626651)
(5.58664e-06 -7.22142e-07 0.0407899)
(1.917e-06 -6.66106e-07 0.0218322)
(6.39196e-07 -1.06165e-07 0.0067495)
(-1.94041e-05 -4.40714e-07 0.0836413)
(-1.06029e-05 -6.41642e-07 0.0627401)
(-5.02832e-06 -6.46466e-07 0.0408442)
(-1.76244e-06 -5.3261e-07 0.021862)