/*--------------------------------*- C++ -*----------------------------------*\
| =========                 |                                                 |
| \\      /  F ield         | OpenFOAM: The Open Source CFD Toolbox           |
|  \\    /   O peration     | Version:  2206                                  |
|   \\  /    A nd           | Website:  www.openfoam.com                      |
|    \\/     M anipulation  |                                                 |
\*---------------------------------------------------------------------------*/
FoamFile
{
    version     2.0;
    format      ascii;
    arch        "LSB;label=32;scalar=64";
    class       volScalarField;
    location    "0.4";
    object      k;
}
// * * * * * * * * * * * * * * * * * * * * * * * * * * * * * * * * * * * * * //

dimensions      [0 2 -2 0 0 0 0];

internalField   nonuniform List<scalar> 
66701
(
1.38382e-05
1.26277e-05
2.11175e-05
2.89731e-05
1.68135e-05
4.31976e-05
4.07056e-05
1.83481e-05
1.26152e-05
2.10932e-05
2.89395e-05
1.68038e-05
4.31898e-05
1.83431e-05
4.06824e-05
1.3822e-05
4.16884e-06
1.01465e-06
1.88395e-07
6.75376e-08
3.82808e-07
4.11537e-06
1.00191e-06
1.86116e-07
6.68328e-08
3.78946e-07
4.21005e-06
1.0154e-06
1.86791e-07
6.35208e-08
3.52518e-07
4.20525e-06
1.01425e-06
1.86594e-07
6.3493e-08
3.52497e-07
4.16406e-06
1.01354e-06
1.88216e-07
6.75291e-08
3.82854e-07
4.11105e-06
1.00082e-06
1.85927e-07
6.68042e-08
3.78916e-07
4.03731e-06
9.76297e-07
1.80631e-07
6.47053e-08
3.66493e-07
4.14377e-06
1.00362e-06
1.85742e-07
6.59696e-08
3.72542e-07
4.03522e-06
9.75767e-07
1.80543e-07
6.46982e-08
3.66503e-07
4.14267e-06
1.00335e-06
1.85695e-07
6.59636e-08
3.72532e-07
1.4025e-05
1.38409e-05
3.17544e-05
2.91914e-05
2.87756e-05
2.15295e-05
2.76848e-05
4.21261e-05
4.31968e-05
2.11248e-05
4.29604e-05
2.79901e-05
4.18234e-05
2.3476e-05
4.31898e-05
2.11013e-05
4.2952e-05
2.79711e-05
2.34812e-05
4.17823e-05
1.38256e-05
3.1716e-05
2.87574e-05
1.38191e-05
2.15435e-05
1.20397e-05
1.19563e-05
2.15832e-05
1.2026e-05
1.19399e-05
3.93617e-05
2.09157e-05
4.26877e-05
2.92201e-05
3.93924e-05
2.08916e-05
4.27011e-05
3.88155e-05
2.04826e-05
4.24405e-05
2.87376e-05
3.88548e-05
2.04519e-05
4.24408e-05
1.67805e-05
4.07073e-05
1.83534e-05
4.31716e-05
1.68168e-05
4.0672e-05
1.8313e-05
1.26108e-05
2.89757e-05
2.10896e-05
1.2634e-05
2.89367e-05
1.67709e-05
1.83484e-05
4.06856e-05
4.31642e-05
1.68074e-05
1.83079e-05
4.06496e-05
1.25986e-05
2.89424e-05
2.10656e-05
1.26218e-05
2.89032e-05
1.38034e-05
2.15766e-05
1.19458e-05
1.20607e-05
3.87894e-05
4.24808e-05
2.87186e-05
4.24812e-05
2.04258e-05
3.9398e-05
2.92916e-05
2.09485e-05
4.26847e-05
1.41151e-05
2.06756e-05
1.90061e-05
1.90754e-05
1.834e-05
2.06673e-05
1.90037e-05
1.90726e-05
1.83356e-05
1.90668e-05
1.833e-05
1.90706e-05
1.83305e-05
4.21879e-05
3.17781e-05
3.82636e-05
3.82972e-05
4.218e-05
3.82939e-05
3.83387e-05
3.75799e-05
4.42328e-05
4.11139e-05
4.21584e-05
4.10907e-05
3.78335e-05
4.41984e-05
3.53466e-05
4.37967e-05
3.37263e-05
4.30022e-05
3.52858e-05
4.38222e-05
3.37972e-05
3.7829e-05
4.39985e-05
4.10884e-05
4.17978e-05
4.11244e-05
3.77911e-05
4.39957e-05
3.53348e-05
3.37243e-05
4.37738e-05
4.29939e-05
3.52745e-05
3.37952e-05
4.37989e-05
3.78097e-05
4.39613e-05
4.10542e-05
4.17559e-05
3.77716e-05
4.39581e-05
4.10898e-05
4.21504e-05
3.17544e-05
3.83616e-05
3.84024e-05
3.82661e-05
4.21525e-06
1.02627e-06
1.90454e-07
6.77817e-08
3.83141e-07
4.16958e-06
1.01482e-06
1.88424e-07
6.75404e-08
3.82806e-07
4.27475e-06
1.03098e-06
1.89517e-07
6.38292e-08
3.52874e-07
4.21163e-06
1.01579e-06
1.8686e-07
6.35292e-08
3.5253e-07
4.207e-06
1.01468e-06
1.86671e-07
6.35043e-08
3.52526e-07
4.16507e-06
1.01378e-06
1.88258e-07
6.7536e-08
3.82875e-07
4.16692e-06
1.0145e-06
1.88374e-07
6.74901e-08
3.8244e-07
4.03414e-06
9.75896e-07
1.80563e-07
6.46132e-08
3.65803e-07
4.1456e-06
1.00411e-06
1.85832e-07
6.59863e-08
3.72603e-07
4.03876e-06
9.76706e-07
1.80706e-07
6.47209e-08
3.66556e-07
4.1406e-06
1.00321e-06
1.85671e-07
6.58696e-08
3.71792e-07
4.20909e-06
1.01551e-06
1.86822e-07
6.3494e-08
3.52277e-07
4.03207e-06
9.75368e-07
1.80475e-07
6.46067e-08
3.65817e-07
4.14449e-06
1.00384e-06
1.85784e-07
6.59807e-08
3.72596e-07
4.0367e-06
9.76182e-07
1.80619e-07
6.47148e-08
3.66573e-07
4.13949e-06
1.00294e-06
1.85623e-07
6.58637e-08
3.71783e-07
4.20436e-06
1.01437e-06
1.86628e-07
6.34674e-08
3.52264e-07
4.1623e-06
1.01343e-06
1.88202e-07
6.74842e-08
3.82501e-07
4.25643e-06
1.02386e-06
1.88173e-07
6.40945e-08
3.55927e-07
4.22394e-06
1.02831e-06
1.90804e-07
6.77869e-08
3.82858e-07
3.80153e-06
9.26304e-07
1.7294e-07
6.58352e-08
3.8115e-07
4.2478e-06
1.0214e-06
1.87737e-07
6.40982e-08
3.56349e-07
4.246e-06
1.02132e-06
1.87738e-07
6.40716e-08
3.56132e-07
3.78073e-06
9.21166e-07
1.72027e-07
6.57182e-08
3.80987e-07
4.18871e-06
1.00764e-06
1.85358e-07
6.38095e-08
3.55933e-07
4.18632e-06
1.00738e-06
1.85318e-07
6.37516e-08
3.55498e-07
3.79955e-06
9.26045e-07
1.72898e-07
6.57886e-08
3.80809e-07
3.77878e-06
9.20982e-07
1.72e-07
6.56653e-08
3.80582e-07
4.11413e-06
1.00196e-06
1.86133e-07
6.67881e-08
3.78571e-07
4.1179e-06
1.00257e-06
1.86234e-07
6.68512e-08
3.79e-07
4.1099e-06
1.00089e-06
1.85947e-07
6.67609e-08
3.78549e-07
4.11372e-06
1.00152e-06
1.86052e-07
6.68247e-08
3.78982e-07
4.18203e-06
1.00643e-06
1.85165e-07
6.37504e-08
3.55561e-07
3.78133e-06
9.2159e-07
1.721e-07
6.56837e-08
3.80609e-07
3.81088e-06
9.28808e-07
1.73368e-07
6.5834e-08
3.80778e-07
2.74755e-05
3.17346e-05
2.07149e-05
2.79794e-05
2.76981e-05
3.17786e-05
2.06884e-05
2.8011e-05
2.77118e-05
3.18079e-05
2.06614e-05
2.80114e-05
2.77085e-05
3.17794e-05
2.06493e-05
2.80165e-05
2.771e-05
3.1785e-05
2.06504e-05
2.80207e-05
2.77138e-05
3.17827e-05
2.06628e-05
2.80443e-05
2.77309e-05
3.18029e-05
2.06655e-05
2.80553e-05
2.77395e-05
3.18252e-05
2.06471e-05
2.80356e-05
2.77239e-05
3.18066e-05
2.06387e-05
2.80218e-05
2.77178e-05
3.17915e-05
2.06354e-05
2.8005e-05
2.771e-05
3.17816e-05
2.06318e-05
2.79909e-05
2.77013e-05
3.17695e-05
2.06321e-05
2.79895e-05
2.77034e-05
3.17751e-05
2.06323e-05
2.79883e-05
2.77043e-05
3.17723e-05
2.06322e-05
2.79891e-05
2.77038e-05
3.17738e-05
2.06324e-05
2.79881e-05
2.77032e-05
3.17719e-05
2.06737e-05
2.77448e-05
2.75154e-05
3.15325e-05
3.1568e-05
3.17329e-05
2.76728e-05
2.77088e-05
2.77255e-05
3.18003e-05
3.17147e-05
3.18002e-05
2.76942e-05
2.7705e-05
2.77095e-05
2.77179e-05
3.17478e-05
3.18122e-05
2.79626e-05
2.79313e-05
2.80001e-05
2.79753e-05
2.79643e-05
2.80054e-05
2.79942e-05
3.17179e-05
3.18009e-05
2.77123e-05
2.77098e-05
2.77198e-05
3.18265e-05
3.17835e-05
3.17982e-05
2.7711e-05
2.77202e-05
2.77049e-05
2.77155e-05
3.17977e-05
3.18185e-05
2.80059e-05
2.79828e-05
2.80055e-05
2.79865e-05
2.7999e-05
2.80108e-05
2.79982e-05
3.17836e-05
3.17971e-05
2.77212e-05
2.77088e-05
2.77182e-05
3.18045e-05
3.17713e-05
3.18016e-05
2.77039e-05
2.77143e-05
2.77054e-05
2.77162e-05
3.17898e-05
3.18274e-05
2.80055e-05
2.79879e-05
2.80137e-05
2.79989e-05
2.79992e-05
2.8017e-05
2.80038e-05
3.1771e-05
3.18018e-05
2.77184e-05
2.77099e-05
2.77178e-05
3.1811e-05
3.17798e-05
3.18011e-05
2.77056e-05
2.77156e-05
2.77056e-05
2.77141e-05
3.18013e-05
3.18099e-05
2.80161e-05
2.80017e-05
2.80232e-05
2.80112e-05
2.80038e-05
2.80179e-05
2.80072e-05
3.17794e-05
3.18035e-05
2.77168e-05
2.77115e-05
2.77168e-05
3.18042e-05
3.17795e-05
3.18089e-05
2.77067e-05
2.7715e-05
2.77178e-05
2.77288e-05
3.17876e-05
3.18208e-05
2.80258e-05
2.80147e-05
2.80359e-05
2.80253e-05
2.80101e-05
2.80368e-05
2.80267e-05
3.17831e-05
3.18148e-05
2.77184e-05
2.77258e-05
2.77324e-05
3.18208e-05
3.17898e-05
3.18404e-05
2.77233e-05
2.77343e-05
2.77339e-05
2.77453e-05
3.18019e-05
3.18472e-05
2.8042e-05
2.80312e-05
2.80554e-05
2.80444e-05
2.8034e-05
2.80552e-05
2.80443e-05
3.17954e-05
3.18441e-05
2.77377e-05
2.77394e-05
2.77445e-05
3.18484e-05
3.1819e-05
3.18297e-05
2.77342e-05
2.77455e-05
2.77253e-05
2.77359e-05
3.18254e-05
3.18303e-05
2.80561e-05
2.80452e-05
2.80462e-05
2.80358e-05
2.80443e-05
2.80423e-05
2.80309e-05
3.18223e-05
3.1835e-05
2.77444e-05
2.7729e-05
2.77325e-05
3.18332e-05
3.18043e-05
3.18027e-05
2.77199e-05
2.77295e-05
2.77141e-05
2.77219e-05
3.1804e-05
3.18012e-05
2.80389e-05
2.80283e-05
2.80273e-05
2.80159e-05
2.80245e-05
2.80233e-05
2.80152e-05
3.18094e-05
3.18058e-05
2.77285e-05
2.77178e-05
2.77253e-05
3.18128e-05
3.17816e-05
3.18058e-05
2.77143e-05
2.77217e-05
2.7713e-05
2.77181e-05
3.178e-05
3.17946e-05
2.80269e-05
2.80153e-05
2.80207e-05
2.80073e-05
2.80143e-05
2.80101e-05
2.80036e-05
3.17846e-05
3.18053e-05
2.7726e-05
2.77138e-05
2.77234e-05
3.18096e-05
3.17794e-05
3.17774e-05
2.77094e-05
2.77137e-05
2.77007e-05
2.77056e-05
3.1768e-05
3.17697e-05
2.80148e-05
2.80015e-05
2.80029e-05
2.79895e-05
2.79986e-05
2.79926e-05
2.79896e-05
3.17784e-05
3.17786e-05
2.77207e-05
2.77022e-05
2.77165e-05
3.17917e-05
3.17556e-05
3.1782e-05
2.76992e-05
2.77036e-05
2.76989e-05
2.77014e-05
3.17473e-05
3.17678e-05
2.80021e-05
2.79886e-05
2.80036e-05
2.79903e-05
2.79889e-05
2.79893e-05
2.79897e-05
3.17568e-05
3.17839e-05
2.77164e-05
2.77021e-05
2.77173e-05
3.17969e-05
3.17616e-05
3.17873e-05
2.76995e-05
2.77007e-05
2.77005e-05
2.77008e-05
3.17456e-05
3.17674e-05
2.80055e-05
2.79924e-05
2.80071e-05
2.79948e-05
2.79907e-05
2.79885e-05
2.79899e-05
3.17637e-05
3.17909e-05
2.77181e-05
2.77045e-05
2.77174e-05
3.1797e-05
3.17646e-05
3.17801e-05
2.76998e-05
2.77007e-05
2.76994e-05
2.77009e-05
3.17463e-05
3.17674e-05
2.80059e-05
2.79939e-05
2.80052e-05
2.79933e-05
2.79889e-05
2.79889e-05
2.79896e-05
3.17682e-05
3.1784e-05
2.7717e-05
2.77036e-05
2.77173e-05
3.17961e-05
3.17602e-05
3.17852e-05
2.76995e-05
2.77004e-05
2.76997e-05
2.77006e-05
3.17458e-05
3.17667e-05
2.80059e-05
2.79937e-05
2.80061e-05
2.79939e-05
2.79897e-05
2.79885e-05
2.79895e-05
3.17637e-05
3.17878e-05
2.77174e-05
2.77037e-05
2.7717e-05
3.17956e-05
3.17624e-05
3.17832e-05
2.76992e-05
2.76999e-05
2.79553e-05
2.79627e-05
3.17453e-05
3.17669e-05
2.80057e-05
2.79929e-05
2.79177e-05
2.78826e-05
2.79887e-05
2.78937e-05
2.78784e-05
3.17648e-05
3.17326e-05
2.77165e-05
2.76333e-05
2.76476e-05
3.17409e-05
2.80214e-05
3.17445e-05
2.77751e-05
2.77114e-05
2.7707e-05
3.15245e-05
2.75308e-05
1.38635e-05
1.39748e-05
4.29552e-05
2.30327e-05
4.22786e-05
2.74772e-05
4.23197e-05
4.29492e-05
2.30325e-05
2.88178e-05
2.92017e-05
3.1783e-05
2.91782e-05
2.87842e-05
4.41206e-05
2.16597e-05
2.16709e-05
4.40779e-05
1.40762e-05
1.40893e-05
4.32571e-05
2.12313e-05
2.12152e-05
4.32065e-05
2.06493e-05
2.07091e-05
2.06422e-05
2.0696e-05
2.06448e-05
2.0693e-05
2.06428e-05
4.31275e-05
4.18926e-05
2.34745e-05
2.79871e-05
4.19437e-05
2.34755e-05
4.30374e-05
1.38993e-05
1.3894e-05
4.29293e-05
2.3064e-05
4.23113e-05
2.77002e-05
4.29057e-05
2.30631e-05
4.23824e-05
2.89e-05
2.92712e-05
3.18068e-05
2.88994e-05
2.92962e-05
4.42573e-05
2.16934e-05
4.42497e-05
2.16724e-05
1.41162e-05
1.4101e-05
4.32924e-05
2.12147e-05
4.33637e-05
2.11469e-05
2.06426e-05
2.06862e-05
2.06417e-05
2.06666e-05
2.06355e-05
2.06662e-05
2.06369e-05
4.32192e-05
4.20472e-05
2.34817e-05
2.8012e-05
4.31814e-05
4.19964e-05
2.3482e-05
1.38967e-05
1.38569e-05
4.29832e-05
2.30573e-05
4.24627e-05
2.77118e-05
4.29563e-05
2.30547e-05
4.24486e-05
2.8941e-05
2.9351e-05
3.18304e-05
2.88919e-05
2.93254e-05
4.42926e-05
2.16873e-05
4.42897e-05
2.16712e-05
1.41156e-05
1.41039e-05
4.32139e-05
2.11432e-05
4.3258e-05
2.11005e-05
2.06341e-05
2.06615e-05
2.0636e-05
2.06509e-05
2.06337e-05
2.06513e-05
2.06356e-05
4.31844e-05
4.2002e-05
2.34797e-05
2.80147e-05
4.31208e-05
4.19775e-05
2.3481e-05
1.38535e-05
1.38249e-05
4.30212e-05
2.3049e-05
4.2458e-05
2.77087e-05
4.29915e-05
2.30475e-05
4.2445e-05
2.89083e-05
2.93361e-05
3.18109e-05
2.88565e-05
2.93014e-05
4.43025e-05
2.168e-05
4.43159e-05
2.1662e-05
1.41089e-05
1.40919e-05
4.32098e-05
2.11232e-05
4.32323e-05
2.10912e-05
2.06338e-05
2.06498e-05
2.06357e-05
2.06491e-05
2.06374e-05
2.06499e-05
2.06392e-05
4.31397e-05
4.19676e-05
2.34839e-05
2.80157e-05
4.31131e-05
4.19253e-05
2.34843e-05
1.38363e-05
1.38144e-05
4.30162e-05
2.30425e-05
4.24531e-05
2.771e-05
4.29996e-05
2.30421e-05
4.24269e-05
2.88751e-05
2.9313e-05
3.18042e-05
2.88342e-05
2.92845e-05
4.43308e-05
2.16889e-05
4.43273e-05
2.16797e-05
1.41084e-05
1.41008e-05
4.324e-05
2.11263e-05
4.3258e-05
2.10983e-05
2.06419e-05
2.06516e-05
2.06436e-05
2.066e-05
2.06573e-05
2.06608e-05
2.06577e-05
4.31402e-05
4.1951e-05
2.34915e-05
2.80245e-05
4.30964e-05
4.19187e-05
2.34956e-05
1.38351e-05
1.38167e-05
4.30416e-05
2.30437e-05
4.24504e-05
2.77168e-05
4.30093e-05
2.30473e-05
4.24413e-05
2.88745e-05
2.93161e-05
3.18131e-05
2.88443e-05
2.92974e-05
4.43676e-05
2.17033e-05
4.43683e-05
2.1689e-05
1.41149e-05
1.41006e-05
4.32776e-05
2.11322e-05
4.32887e-05
2.11007e-05
2.06614e-05
2.06632e-05
2.06612e-05
2.06659e-05
2.06661e-05
2.06657e-05
2.06643e-05
4.31838e-05
4.19717e-05
2.35114e-05
2.80492e-05
4.31152e-05
4.19424e-05
2.35168e-05
1.38389e-05
1.38182e-05
4.30844e-05
2.30591e-05
4.24775e-05
2.77351e-05
4.30552e-05
2.30617e-05
4.24645e-05
2.88889e-05
2.93281e-05
3.18448e-05
2.88521e-05
2.93053e-05
4.4371e-05
2.17031e-05
4.43883e-05
2.16904e-05
1.411e-05
1.40978e-05
4.3282e-05
2.1126e-05
4.33151e-05
2.10896e-05
2.06658e-05
2.06652e-05
2.06638e-05
2.06522e-05
2.06538e-05
2.06515e-05
2.06503e-05
4.3173e-05
4.19726e-05
2.35211e-05
2.80542e-05
4.31542e-05
4.19222e-05
2.3519e-05
1.38337e-05
1.38096e-05
4.3087e-05
2.3063e-05
4.24773e-05
2.77385e-05
4.30697e-05
2.30612e-05
4.24518e-05
2.88777e-05
2.93234e-05
3.18487e-05
2.8832e-05
2.92968e-05
4.43701e-05
2.1702e-05
4.43876e-05
2.16845e-05
1.41059e-05
1.4089e-05
4.32547e-05
2.11099e-05
4.32916e-05
2.10716e-05
2.06489e-05
2.06465e-05
2.06459e-05
2.06393e-05
2.06412e-05
2.06388e-05
2.06397e-05
4.31334e-05
4.1928e-05
2.35017e-05
2.80288e-05
4.31231e-05
4.18823e-05
2.34967e-05
1.38218e-05
1.37968e-05
4.30688e-05
2.30471e-05
4.24672e-05
2.772e-05
4.30482e-05
2.30451e-05
4.24425e-05
2.88547e-05
2.93154e-05
3.18228e-05
2.88088e-05
2.92896e-05
4.43753e-05
2.1692e-05
4.43922e-05
2.16727e-05
1.40953e-05
1.40813e-05
4.32301e-05
2.10916e-05
4.32667e-05
2.10532e-05
2.06403e-05
2.0638e-05
2.0639e-05
2.06367e-05
2.06372e-05
2.06355e-05
2.06366e-05
4.31293e-05
4.18976e-05
2.34919e-05
2.80194e-05
4.30876e-05
4.1851e-05
2.34913e-05
1.38088e-05
1.37843e-05
4.30958e-05
2.30455e-05
4.24602e-05
2.77177e-05
4.30679e-05
2.30464e-05
4.24301e-05
2.88321e-05
2.93055e-05
3.18248e-05
2.87864e-05
2.92745e-05
4.43585e-05
2.16825e-05
4.43781e-05
2.16677e-05
1.40893e-05
1.40745e-05
4.31905e-05
2.10766e-05
4.32299e-05
2.10447e-05
2.0636e-05
2.06342e-05
2.06355e-05
2.06322e-05
2.06323e-05
2.06312e-05
2.06333e-05
4.30718e-05
4.18539e-05
2.3481e-05
2.79992e-05
4.30551e-05
4.18128e-05
2.34775e-05
1.37996e-05
1.37792e-05
4.30737e-05
2.30457e-05
4.24291e-05
2.77065e-05
4.30577e-05
2.30449e-05
4.24058e-05
2.88133e-05
2.92916e-05
3.1798e-05
2.87762e-05
2.92678e-05
4.43548e-05
2.16805e-05
4.43734e-05
2.16644e-05
1.40863e-05
1.40753e-05
4.3203e-05
2.10776e-05
4.32189e-05
2.10487e-05
2.06315e-05
2.06308e-05
2.06331e-05
2.06317e-05
2.06304e-05
2.06309e-05
2.06332e-05
4.30706e-05
4.18451e-05
2.34713e-05
2.799e-05
4.30323e-05
4.18094e-05
2.3471e-05
1.38017e-05
1.37831e-05
4.30738e-05
2.30428e-05
4.24237e-05
2.7701e-05
4.3052e-05
2.30427e-05
4.24054e-05
2.88146e-05
2.92937e-05
3.17991e-05
2.87806e-05
2.92716e-05
4.43561e-05
2.16784e-05
4.43739e-05
2.16653e-05
1.40867e-05
1.40738e-05
4.32121e-05
2.108e-05
4.32361e-05
2.10488e-05
2.06304e-05
2.06315e-05
2.06334e-05
2.06323e-05
2.063e-05
2.06321e-05
2.06333e-05
4.30813e-05
4.18498e-05
2.34711e-05
2.79889e-05
4.3037e-05
4.18076e-05
2.34715e-05
1.38031e-05
1.37827e-05
4.3082e-05
2.30434e-05
4.243e-05
2.77043e-05
4.30542e-05
2.3044e-05
4.24059e-05
2.88141e-05
2.92919e-05
3.1806e-05
2.87769e-05
2.92677e-05
4.43495e-05
2.16771e-05
4.43681e-05
2.16654e-05
1.40867e-05
1.40771e-05
4.32066e-05
2.1079e-05
4.32311e-05
2.10491e-05
2.06301e-05
2.06321e-05
2.06333e-05
2.0632e-05
2.063e-05
2.0632e-05
2.06332e-05
4.30681e-05
4.18483e-05
2.34704e-05
2.79884e-05
4.30349e-05
4.18104e-05
2.34703e-05
1.38028e-05
1.37834e-05
4.30784e-05
2.30439e-05
4.24293e-05
2.77037e-05
4.30512e-05
2.30439e-05
4.2405e-05
2.88125e-05
2.92914e-05
3.17984e-05
2.87784e-05
2.92701e-05
4.4347e-05
2.16782e-05
4.43654e-05
2.16668e-05
1.40878e-05
1.4076e-05
4.32102e-05
2.10801e-05
4.32362e-05
2.10495e-05
2.06301e-05
2.06321e-05
2.06333e-05
2.06321e-05
2.06299e-05
2.0632e-05
2.06332e-05
4.30811e-05
4.18508e-05
2.34708e-05
2.79888e-05
4.30408e-05
4.18075e-05
2.34713e-05
1.38027e-05
1.3783e-05
4.3078e-05
2.30436e-05
4.24278e-05
2.7704e-05
4.30521e-05
2.30438e-05
4.24054e-05
2.88127e-05
2.92922e-05
3.18032e-05
2.8778e-05
2.92663e-05
4.42859e-05
2.16789e-05
4.43637e-05
2.17003e-05
1.40862e-05
1.4103e-05
4.32093e-05
2.10789e-05
4.32333e-05
2.10496e-05
2.06301e-05
2.0632e-05
2.06332e-05
2.06778e-05
2.0675e-05
2.05664e-05
2.05675e-05
4.30737e-05
4.185e-05
2.34702e-05
2.79889e-05
4.3034e-05
4.18111e-05
2.34709e-05
1.38023e-05
1.3784e-05
4.30814e-05
2.30435e-05
4.24281e-05
2.77034e-05
4.30551e-05
2.30435e-05
4.24069e-05
2.8812e-05
2.92888e-05
3.18e-05
2.87796e-05
2.92678e-05
1.4001e-05
2.12817e-05
4.32792e-05
2.06711e-05
2.04836e-05
2.04843e-05
4.18984e-05
2.32028e-05
4.28683e-05
1.38819e-05
2.2995e-05
4.245e-05
4.30535e-05
2.8987e-05
2.9421e-05
2.88706e-05
2.93138e-05
3.13256e-05
2.93908e-05
2.90879e-05
1.41246e-05
1.41389e-05
1.3868e-05
1.39371e-05
3.1451e-05
2.87705e-05
2.92558e-05
2.93767e-05
2.8977e-05
1.41075e-05
1.41385e-05
4.2957e-05
2.30628e-05
4.22921e-05
2.7698e-05
4.22885e-05
4.29495e-05
2.30653e-05
4.40364e-05
2.17812e-05
2.17476e-05
4.40262e-05
4.40368e-05
2.16717e-05
2.16284e-05
4.40255e-05
4.29313e-05
2.75159e-05
2.30597e-05
4.22645e-05
4.23344e-05
4.29226e-05
2.30041e-05
4.29334e-05
2.77134e-05
2.30659e-05
4.23124e-05
4.23063e-05
4.29257e-05
2.30633e-05
4.40503e-05
2.16617e-05
2.17482e-05
4.4057e-05
4.40515e-05
2.16349e-05
2.16414e-05
4.40585e-05
1.3824e-05
1.38176e-05
1.40948e-05
1.40678e-05
3.17661e-05
2.88396e-05
2.9212e-05
2.92032e-05
2.88337e-05
1.38486e-05
1.38467e-05
1.40877e-05
1.40781e-05
1.40957e-05
1.41068e-05
1.39067e-05
1.39007e-05
2.92472e-05
2.88295e-05
3.17665e-05
2.92861e-05
2.88548e-05
1.41131e-05
1.41219e-05
1.38896e-05
1.39211e-05
3.17521e-05
2.93212e-05
2.88727e-05
2.93317e-05
2.89089e-05
4.41135e-05
2.16195e-05
2.16353e-05
4.40713e-05
4.29004e-05
4.22399e-05
2.30365e-05
2.77005e-05
4.22874e-05
2.30331e-05
4.28908e-05
4.28971e-05
4.22624e-05
2.30299e-05
2.77087e-05
4.23015e-05
2.30273e-05
4.28874e-05
4.41735e-05
2.16799e-05
2.16933e-05
4.42227e-05
4.41673e-05
2.16609e-05
2.16639e-05
4.42165e-05
4.28931e-05
2.77058e-05
4.23626e-05
2.30283e-05
4.23372e-05
2.30304e-05
4.29619e-05
4.28901e-05
2.77135e-05
4.23939e-05
2.3024e-05
4.23558e-05
2.30254e-05
4.29602e-05
2.92027e-05
2.88894e-05
3.17771e-05
2.92332e-05
2.89154e-05
1.38774e-05
1.38797e-05
1.4105e-05
1.41083e-05
3.17596e-05
2.92864e-05
2.89486e-05
2.92839e-05
2.89721e-05
1.38849e-05
1.39032e-05
4.29867e-05
4.17759e-05
2.35229e-05
2.79758e-05
4.18241e-05
2.35207e-05
4.28538e-05
4.32471e-05
2.1213e-05
2.12006e-05
4.31946e-05
4.29764e-05
2.35227e-05
4.17432e-05
2.79467e-05
2.3523e-05
4.17937e-05
4.28418e-05
4.33219e-05
2.11902e-05
2.12449e-05
4.33366e-05
4.29729e-05
2.79895e-05
4.19021e-05
2.35147e-05
4.18859e-05
2.35177e-05
4.30894e-05
4.33132e-05
2.11778e-05
2.12309e-05
4.33305e-05
4.29628e-05
2.79629e-05
2.35161e-05
4.18738e-05
2.35199e-05
4.18566e-05
4.30809e-05
4.33414e-05
2.11533e-05
2.11514e-05
4.32921e-05
4.31242e-05
2.348e-05
4.18863e-05
2.79739e-05
2.34822e-05
4.19305e-05
4.30347e-05
4.33399e-05
2.11529e-05
2.11478e-05
4.32903e-05
4.31094e-05
2.79966e-05
4.20168e-05
2.34798e-05
4.20048e-05
2.3477e-05
4.32057e-05
4.34008e-05
2.1158e-05
2.11879e-05
4.34069e-05
4.31061e-05
2.7985e-05
2.34848e-05
4.19922e-05
2.34834e-05
4.19866e-05
4.32029e-05
4.33997e-05
2.11523e-05
2.11834e-05
4.34062e-05
2.88312e-05
2.93257e-05
3.17686e-05
2.88566e-05
2.93673e-05
1.41381e-05
1.41467e-05
1.38822e-05
1.39143e-05
3.17539e-05
2.88705e-05
2.93878e-05
2.89095e-05
2.94082e-05
1.41474e-05
1.41593e-05
4.29325e-05
2.30688e-05
4.23521e-05
2.77128e-05
4.29089e-05
2.30672e-05
4.24047e-05
4.41384e-05
2.16969e-05
4.40936e-05
2.1705e-05
4.41381e-05
2.16644e-05
4.4094e-05
2.16694e-05
4.29217e-05
2.7704e-05
2.30599e-05
4.24436e-05
2.30616e-05
4.24287e-05
4.29658e-05
4.29251e-05
2.77155e-05
2.30631e-05
4.24563e-05
2.30655e-05
4.24448e-05
4.29699e-05
4.41709e-05
2.17037e-05
2.1724e-05
4.41892e-05
4.41707e-05
2.16786e-05
2.16904e-05
4.41891e-05
1.38766e-05
1.38687e-05
1.41117e-05
1.41185e-05
3.17868e-05
2.89076e-05
2.93251e-05
2.89434e-05
2.93364e-05
1.38679e-05
1.38899e-05
1.41275e-05
1.41338e-05
1.41241e-05
1.41109e-05
1.39041e-05
1.3865e-05
2.93459e-05
2.89034e-05
3.18148e-05
2.93156e-05
2.88314e-05
1.41079e-05
1.41211e-05
1.38476e-05
1.388e-05
3.17893e-05
2.93083e-05
2.88016e-05
2.93384e-05
2.88611e-05
4.42472e-05
2.16783e-05
4.42425e-05
2.16589e-05
4.2998e-05
4.23843e-05
2.30261e-05
2.77106e-05
4.29565e-05
4.23773e-05
2.30235e-05
4.29963e-05
4.24195e-05
2.30227e-05
2.7721e-05
4.29549e-05
4.24156e-05
2.30207e-05
4.42726e-05
2.1671e-05
2.16874e-05
4.42737e-05
4.42614e-05
2.16641e-05
2.16746e-05
4.42628e-05
4.29866e-05
2.77079e-05
4.23749e-05
2.30181e-05
4.23916e-05
2.30207e-05
4.29981e-05
4.29845e-05
2.77189e-05
4.24089e-05
2.30158e-05
4.24298e-05
2.30183e-05
4.29925e-05
2.9314e-05
2.89829e-05
3.18361e-05
2.92864e-05
2.89316e-05
1.39037e-05
1.38815e-05
1.41041e-05
1.41133e-05
3.18126e-05
2.92773e-05
2.89121e-05
2.9308e-05
2.89635e-05
1.38701e-05
1.38981e-05
4.31158e-05
4.19335e-05
2.35106e-05
2.80071e-05
4.30666e-05
4.1878e-05
2.3506e-05
4.32894e-05
2.12023e-05
4.33587e-05
2.11345e-05
4.31092e-05
2.35116e-05
4.19055e-05
2.79856e-05
4.30583e-05
2.35065e-05
4.18508e-05
4.33075e-05
2.11162e-05
2.11717e-05
4.32394e-05
4.30699e-05
2.80066e-05
4.18395e-05
2.34971e-05
4.18937e-05
2.35008e-05
4.30634e-05
4.33044e-05
2.11038e-05
2.11593e-05
4.3236e-05
4.30643e-05
2.7986e-05
2.34973e-05
4.18113e-05
2.35013e-05
4.18665e-05
4.30575e-05
4.33719e-05
2.11868e-05
4.34326e-05
2.11468e-05
4.32167e-05
2.34861e-05
4.20211e-05
2.79996e-05
4.31787e-05
2.3486e-05
4.1966e-05
4.33706e-05
2.11813e-05
4.3432e-05
2.11403e-05
4.31634e-05
2.80116e-05
4.19746e-05
2.34795e-05
4.20144e-05
2.34807e-05
4.3159e-05
4.33906e-05
2.11369e-05
2.1175e-05
4.33501e-05
4.31609e-05
2.79987e-05
2.34822e-05
4.19435e-05
2.34838e-05
4.19842e-05
4.3156e-05
4.33891e-05
2.113e-05
2.11687e-05
4.33479e-05
2.89012e-05
2.94094e-05
3.18128e-05
2.8828e-05
2.93751e-05
1.4157e-05
1.41418e-05
1.3837e-05
1.38715e-05
3.17867e-05
2.87926e-05
2.93589e-05
2.88575e-05
2.93966e-05
1.41346e-05
1.4151e-05
4.29872e-05
2.30603e-05
4.24761e-05
2.77208e-05
4.29605e-05
2.30573e-05
4.24668e-05
4.42241e-05
2.17171e-05
4.42112e-05
2.16966e-05
4.42235e-05
2.16946e-05
4.4211e-05
2.16821e-05
4.29696e-05
2.77101e-05
2.30504e-05
4.24427e-05
2.30521e-05
4.24613e-05
4.30008e-05
4.29733e-05
2.7719e-05
2.30527e-05
4.24714e-05
2.30548e-05
4.24826e-05
4.30041e-05
4.42457e-05
2.16911e-05
2.1711e-05
4.42536e-05
4.42449e-05
2.168e-05
2.16993e-05
4.42526e-05
1.38864e-05
1.38606e-05
1.41392e-05
1.41282e-05
3.18005e-05
2.88753e-05
2.9314e-05
2.89246e-05
2.93473e-05
1.38524e-05
1.38786e-05
1.41242e-05
1.41386e-05
1.41182e-05
1.41042e-05
1.38647e-05
1.38379e-05
2.93312e-05
2.88346e-05
3.17929e-05
2.93016e-05
2.87908e-05
1.40993e-05
1.41138e-05
1.3832e-05
1.38562e-05
3.17719e-05
2.92901e-05
2.87826e-05
2.93239e-05
2.88249e-05
4.42858e-05
2.16824e-05
4.42802e-05
2.16679e-05
4.30135e-05
4.23922e-05
2.30161e-05
2.77039e-05
4.29799e-05
4.23897e-05
2.30145e-05
4.30112e-05
4.24268e-05
2.30139e-05
2.77146e-05
4.29744e-05
4.24302e-05
2.30125e-05
4.43073e-05
2.16654e-05
2.16856e-05
4.43046e-05
4.43015e-05
2.16591e-05
2.16828e-05
4.42986e-05
4.30041e-05
2.77046e-05
4.2396e-05
2.30114e-05
4.24084e-05
2.30129e-05
4.30321e-05
4.30022e-05
2.77159e-05
4.24325e-05
2.30101e-05
4.24497e-05
2.30113e-05
4.3032e-05
2.93025e-05
2.89449e-05
3.18141e-05
2.92809e-05
2.88912e-05
1.38874e-05
1.3859e-05
1.40992e-05
1.41142e-05
3.17964e-05
2.92689e-05
2.88712e-05
2.93043e-05
2.89232e-05
1.385e-05
1.38762e-05
4.3051e-05
4.18605e-05
2.34946e-05
2.80069e-05
4.30201e-05
4.18405e-05
2.34936e-05
4.32108e-05
2.11308e-05
4.32545e-05
2.10873e-05
4.30444e-05
2.34949e-05
4.1832e-05
2.79914e-05
4.3014e-05
2.34937e-05
4.18087e-05
4.32357e-05
2.10938e-05
2.11293e-05
4.32062e-05
4.30201e-05
2.80106e-05
4.18632e-05
2.3492e-05
4.18753e-05
2.34926e-05
4.30618e-05
4.32327e-05
2.1077e-05
2.11158e-05
4.32041e-05
4.30137e-05
2.79954e-05
2.34921e-05
4.18299e-05
2.34927e-05
4.18428e-05
4.30566e-05
4.33312e-05
2.11653e-05
4.33735e-05
2.11246e-05
4.31792e-05
2.34821e-05
4.19704e-05
2.80022e-05
4.31172e-05
2.34831e-05
4.1946e-05
4.33296e-05
2.11587e-05
4.33711e-05
2.11181e-05
4.31554e-05
2.80169e-05
4.19481e-05
2.34836e-05
4.19983e-05
2.3483e-05
4.31603e-05
4.33507e-05
2.11107e-05
2.11524e-05
4.33021e-05
4.31505e-05
2.80037e-05
2.34853e-05
4.19198e-05
2.34847e-05
4.19678e-05
4.31573e-05
4.33493e-05
2.11048e-05
2.11462e-05
4.33016e-05
2.88246e-05
2.93804e-05
3.17946e-05
2.87743e-05
2.93439e-05
1.41436e-05
1.41272e-05
1.38175e-05
1.38428e-05
3.17732e-05
2.87636e-05
2.93297e-05
2.8808e-05
2.93655e-05
1.41209e-05
1.41364e-05
4.30249e-05
2.30511e-05
4.2488e-05
2.77187e-05
4.29951e-05
2.30492e-05
4.24677e-05
4.42633e-05
2.17055e-05
4.42686e-05
2.16844e-05
4.4262e-05
2.16942e-05
4.42676e-05
2.16722e-05
4.30077e-05
2.77093e-05
2.30438e-05
4.24431e-05
2.30456e-05
4.24609e-05
4.30173e-05
4.30112e-05
2.77186e-05
2.30447e-05
4.24489e-05
2.3047e-05
4.24783e-05
4.30191e-05
4.42727e-05
2.16758e-05
2.16982e-05
4.42559e-05
4.42713e-05
2.16646e-05
2.16861e-05
4.42528e-05
1.38701e-05
1.38428e-05
1.4134e-05
1.41187e-05
3.17905e-05
2.88412e-05
2.92906e-05
2.8889e-05
2.93231e-05
1.38354e-05
1.38606e-05
1.41149e-05
1.41286e-05
1.41093e-05
1.4097e-05
1.3851e-05
1.38294e-05
2.9312e-05
2.88167e-05
3.18028e-05
2.928e-05
2.87772e-05
1.41001e-05
1.41082e-05
1.38308e-05
1.38495e-05
3.17788e-05
2.92781e-05
2.87795e-05
2.93028e-05
2.88123e-05
4.42908e-05
2.1673e-05
4.43093e-05
2.16525e-05
4.30328e-05
4.24085e-05
2.30104e-05
2.77055e-05
4.3018e-05
4.23803e-05
2.30099e-05
4.30302e-05
4.24409e-05
2.30093e-05
2.77149e-05
4.30185e-05
4.24068e-05
2.30088e-05
4.43126e-05
2.167e-05
2.16779e-05
4.43119e-05
4.42992e-05
2.16614e-05
2.16695e-05
4.42953e-05
4.3017e-05
2.77053e-05
4.23792e-05
2.301e-05
4.23924e-05
2.30098e-05
4.30298e-05
4.30124e-05
2.7714e-05
4.23957e-05
2.30089e-05
4.24175e-05
2.30087e-05
4.30227e-05
2.92898e-05
2.89048e-05
3.18122e-05
2.92542e-05
2.88596e-05
1.38685e-05
1.38492e-05
1.40963e-05
1.41046e-05
3.17869e-05
2.92467e-05
2.88542e-05
2.92763e-05
2.88953e-05
1.38447e-05
1.38671e-05
4.30711e-05
4.18896e-05
2.3492e-05
2.80181e-05
4.30297e-05
4.18574e-05
2.34923e-05
4.32073e-05
2.11057e-05
4.32303e-05
2.10717e-05
4.30665e-05
2.34922e-05
4.18554e-05
2.80043e-05
4.3025e-05
2.34925e-05
4.18208e-05
4.3238e-05
2.10948e-05
2.11222e-05
4.32279e-05
4.30362e-05
2.80204e-05
4.18783e-05
2.34934e-05
4.18847e-05
2.34926e-05
4.30715e-05
4.32346e-05
2.10729e-05
2.11022e-05
4.32232e-05
4.30312e-05
2.80075e-05
2.34936e-05
4.1841e-05
2.34929e-05
4.1848e-05
4.30649e-05
4.32855e-05
2.11389e-05
4.33227e-05
2.11034e-05
4.31377e-05
2.34856e-05
4.19397e-05
2.8004e-05
4.31107e-05
2.3486e-05
4.18987e-05
4.32848e-05
2.11333e-05
4.33222e-05
2.10975e-05
4.3108e-05
2.80163e-05
4.19251e-05
2.3488e-05
4.19493e-05
2.34855e-05
4.31349e-05
4.33083e-05
2.11021e-05
2.11331e-05
4.32787e-05
4.31055e-05
2.8005e-05
2.34894e-05
4.18947e-05
2.34871e-05
4.19221e-05
4.31315e-05
4.33075e-05
2.10965e-05
2.11274e-05
4.32778e-05
2.87979e-05
2.93516e-05
3.18015e-05
2.87589e-05
2.93204e-05
1.41307e-05
1.41181e-05
1.38147e-05
1.38343e-05
3.17775e-05
2.87609e-05
2.9318e-05
2.87945e-05
2.93433e-05
1.41201e-05
1.41292e-05
4.30149e-05
2.30431e-05
4.2461e-05
2.77163e-05
4.30007e-05
2.30422e-05
4.24415e-05
4.42585e-05
2.16896e-05
4.42656e-05
2.16707e-05
4.42538e-05
2.16796e-05
4.42616e-05
2.16634e-05
4.30031e-05
2.77103e-05
2.30424e-05
4.24337e-05
2.3042e-05
4.24418e-05
4.30227e-05
4.30017e-05
2.77163e-05
2.30424e-05
4.24425e-05
2.30422e-05
4.24564e-05
4.30231e-05
4.42712e-05
2.16782e-05
2.16872e-05
4.42761e-05
4.42682e-05
2.16739e-05
2.16815e-05
4.42731e-05
1.38542e-05
1.38321e-05
1.41256e-05
1.41147e-05
3.17804e-05
2.88359e-05
2.92885e-05
2.88688e-05
2.93082e-05
1.38335e-05
1.38519e-05
1.4119e-05
1.41266e-05
1.41123e-05
1.41045e-05
1.38513e-05
1.3833e-05
2.93049e-05
2.88168e-05
3.18074e-05
2.92877e-05
2.87852e-05
1.4107e-05
1.41166e-05
1.38345e-05
1.38535e-05
3.17843e-05
2.92955e-05
2.87926e-05
2.93146e-05
2.8823e-05
4.43154e-05
2.168e-05
4.4312e-05
2.16708e-05
4.30424e-05
4.23969e-05
2.3011e-05
2.77092e-05
4.30153e-05
4.23945e-05
2.30141e-05
4.30351e-05
4.24118e-05
2.301e-05
2.77178e-05
4.30084e-05
4.24068e-05
2.30134e-05
4.43484e-05
2.16855e-05
2.16973e-05
4.4353e-05
4.43324e-05
2.1678e-05
2.16887e-05
4.43365e-05
4.30317e-05
2.77129e-05
4.24102e-05
2.30232e-05
4.24141e-05
2.30186e-05
4.30628e-05
4.30243e-05
2.77227e-05
4.24224e-05
2.30232e-05
4.24267e-05
2.30182e-05
4.30549e-05
2.92719e-05
2.88886e-05
3.18133e-05
2.92543e-05
2.88523e-05
1.38641e-05
1.38441e-05
1.4104e-05
1.41127e-05
3.17911e-05
2.92628e-05
2.88583e-05
2.92813e-05
2.88893e-05
1.38444e-05
1.3864e-05
4.31039e-05
4.19098e-05
2.3495e-05
2.80281e-05
4.30441e-05
4.18874e-05
2.34978e-05
4.32362e-05
2.1104e-05
4.32533e-05
2.10756e-05
4.30976e-05
2.34954e-05
4.18722e-05
2.80175e-05
4.30373e-05
2.34981e-05
4.18475e-05
4.32665e-05
2.11015e-05
2.11298e-05
4.32558e-05
4.30696e-05
2.80311e-05
4.19043e-05
2.35032e-05
4.19146e-05
2.35001e-05
4.30911e-05
4.32628e-05
2.1079e-05
2.11071e-05
4.32502e-05
4.30637e-05
2.80207e-05
2.35034e-05
4.1864e-05
2.35005e-05
4.18744e-05
4.30848e-05
4.32907e-05
2.11324e-05
4.3306e-05
2.11025e-05
4.31362e-05
2.34928e-05
4.19214e-05
2.80141e-05
4.30934e-05
2.34968e-05
4.18974e-05
4.32883e-05
2.11273e-05
4.3305e-05
2.10979e-05
4.31109e-05
2.80301e-05
4.19423e-05
2.35056e-05
4.1948e-05
2.35003e-05
4.31473e-05
4.33182e-05
2.11025e-05
2.11332e-05
4.33012e-05
4.31063e-05