/*--------------------------------*- C++ -*----------------------------------*\
| =========                 |                                                 |
| \\      /  F ield         | OpenFOAM: The Open Source CFD Toolbox           |
|  \\    /   O peration     | Version:  2206                                  |
|   \\  /    A nd           | Website:  www.openfoam.com                      |
|    \\/     M anipulation  |                                                 |
\*---------------------------------------------------------------------------*/
FoamFile
{
    version     2.0;
    format      ascii;
    arch        "LSB;label=32;scalar=64";
    class       volVectorField;
    location    "0.4";
    object      U;
}
// * * * * * * * * * * * * * * * * * * * * * * * * * * * * * * * * * * * * * //

dimensions      [0 1 -1 0 0 0 0];

internalField   nonuniform List<vector> 
66701
(
(6.55376e-06 5.55847e-06 0.0683375)
(8.58479e-06 -1.24519e-06 0.065907)
(1.958e-05 2.92243e-06 0.0791659)
(2.38981e-05 1.44122e-06 0.090669)
(8.60234e-06 -1.58e-06 0.0738298)
(3.05767e-05 8.83907e-08 0.104237)
(3.08006e-05 1.50928e-07 0.100994)
(8.03892e-06 -3.35587e-07 0.0764598)
(8.9484e-06 2.45148e-06 0.0659083)
(2.04029e-05 -1.9424e-06 0.0791647)
(2.46353e-05 -2.23177e-07 0.0906686)
(8.60793e-06 2.55773e-06 0.07383)
(3.06558e-05 7.62477e-07 0.104238)
(8.08872e-06 1.08471e-06 0.0764596)
(3.06424e-05 9.19308e-07 0.100996)
(7.42671e-06 -4.66592e-06 0.0683342)
(1.94872e-06 3.32301e-06 0.0489584)
(3.58917e-07 2.38699e-06 0.0335626)
(-1.92331e-07 1.67922e-06 0.0210823)
(-2.92734e-07 9.81623e-07 0.0111797)
(-1.31353e-07 3.35208e-07 0.0034141)
(4.33207e-06 -1.52101e-06 0.0486144)
(2.13737e-06 -1.174e-06 0.0333494)
(1.00712e-06 -8.24077e-07 0.0209589)
(3.90727e-07 -4.98971e-07 0.0111187)
(9.70125e-08 -1.73388e-07 0.00339677)
(5.03811e-06 6.70639e-07 0.04741)
(2.19069e-06 4.73908e-07 0.0323907)
(8.95971e-07 3.53939e-07 0.0202969)
(2.61482e-07 2.03888e-07 0.0107437)
(3.63194e-08 7.12669e-08 0.00327508)
(5.59647e-06 3.79375e-07 0.0474105)
(2.61549e-06 4.92361e-07 0.0323916)
(1.19741e-06 3.90698e-07 0.0202975)
(4.3872e-07 2.47748e-07 0.0107438)
(9.4368e-08 8.08723e-08 0.00327499)
(2.7203e-06 -2.27889e-06 0.0489566)
(1.03518e-06 -1.37769e-06 0.0335619)
(3.10708e-07 -8.60308e-07 0.0210823)
(6.76158e-09 -4.62126e-07 0.0111802)
(-3.06503e-08 -1.5342e-07 0.00341431)
(4.69985e-06 2.72007e-06 0.0486157)
(2.45925e-06 2.22886e-06 0.0333503)
(1.24053e-06 1.61891e-06 0.0209596)
(5.26748e-07 9.76222e-07 0.011119)
(1.41409e-07 3.33082e-07 0.00339663)
(2.50724e-06 -8.78315e-07 0.0481742)
(1.14467e-06 -4.10487e-07 0.0329561)
(5.20123e-07 -1.89695e-07 0.0206706)
(1.82509e-07 -9.44049e-08 0.0109493)
(4.20889e-08 -3.09176e-08 0.0033401)
(2.17876e-06 -7.72396e-08 0.0484778)
(9.71515e-07 3.97557e-08 0.0331848)
(4.39013e-07 5.99045e-08 0.0208243)
(1.49271e-07 3.67193e-08 0.0110351)
(3.2923e-08 1.05209e-08 0.00336772)
(2.61706e-06 1.87866e-06 0.0481748)
(1.26282e-06 1.31137e-06 0.0329563)
(6.1354e-07 8.69608e-07 0.0206707)
(2.39604e-07 5.00236e-07 0.0109495)
(6.1387e-08 1.65694e-07 0.00334015)
(2.23612e-06 9.43458e-07 0.0484776)
(1.02027e-06 7.71375e-07 0.0331846)
(4.75505e-07 5.62874e-07 0.0208241)
(1.70739e-07 3.37728e-07 0.0110349)
(3.99178e-08 1.1433e-07 0.00336767)
(7.47722e-06 1.0545e-05 0.0683975)
(5.55476e-06 4.5271e-06 0.0683367)
(0.000203614 0.000199544 0.127829)
(1.76247e-05 1.63759e-05 0.0926688)
(1.34534e-05 1.41551e-05 0.0925012)
(3.95632e-06 2.18223e-05 0.0792762)
(8.77355e-06 6.09707e-06 0.130306)
(1.51976e-05 4.95716e-05 0.106073)
(2.98728e-05 -1.32664e-07 0.104238)
(1.84099e-05 1.88414e-06 0.079166)
(6.11854e-05 -9.76092e-07 0.119795)
(1.56861e-06 -7.27762e-07 0.130162)
(4.81824e-05 1.23959e-05 0.106001)
(-2.13495e-06 -2.00774e-06 0.131808)
(2.98289e-05 7.14696e-07 0.104239)
(1.88713e-05 -1.25869e-06 0.0791653)
(6.12361e-05 1.5767e-06 0.119796)
(4.73675e-06 -1.05578e-06 0.130163)
(-2.18011e-07 4.6065e-06 0.131801)
(4.87744e-05 -1.19774e-05 0.106002)
(5.90061e-06 -4.02759e-06 0.068334)
(0.000202291 -0.000199295 0.12784)
(1.37662e-05 -1.40478e-05 0.0925053)
(-7.66144e-06 -4.51635e-06 0.0682012)
(-1.14242e-05 -1.04001e-05 0.0846261)
(6.61983e-06 5.23024e-06 0.0671306)
(5.14122e-06 3.47436e-06 0.0670835)
(1.27504e-05 1.15025e-05 0.0849041)
(-3.54875e-06 -3.8943e-06 0.067013)
(-5.33199e-06 -4.34768e-06 0.0669469)
(-1.78457e-05 -3.84779e-05 0.102559)
(9.10009e-06 1.07688e-05 0.0785872)
(3.48444e-05 6.02722e-05 0.113576)
(-1.22389e-05 -1.1584e-05 0.0926074)
(2.1931e-05 4.08114e-05 0.102903)
(-3.89783e-06 -9.45173e-06 0.078442)
(-2.73103e-05 -5.44744e-05 0.113332)
(-3.96715e-05 -1.84542e-05 0.102324)
(1.03264e-05 4.38296e-06 0.0783629)
(5.83731e-05 2.86924e-05 0.113384)
(-1.42814e-05 -1.45479e-05 0.0921839)
(4.20712e-05 1.57492e-05 0.102724)
(-1.02636e-05 -6.54754e-06 0.0781521)
(-5.72245e-05 -3.05496e-05 0.112954)
(-8.69186e-06 2.56385e-06 0.0736011)
(2.99576e-05 -1.54082e-07 0.100994)
(7.20884e-06 -6.35572e-07 0.0764596)
(-3.06488e-05 2.89273e-07 0.103729)
(7.84489e-06 -2.50783e-06 0.0738277)
(-3.06747e-05 -1.22483e-08 0.100523)
(-8.29884e-06 8.40755e-07 0.0762079)
(-8.55249e-06 2.78655e-06 0.065764)
(2.23843e-05 1.3639e-06 0.0906705)
(-2.01565e-05 -3.56459e-06 0.0789643)
(7.00158e-06 -1.60513e-06 0.0659089)
(-2.49902e-05 -1.01978e-06 0.0903468)
(-8.7271e-06 -1.70219e-06 0.0736014)
(7.20487e-06 1.25497e-06 0.0764594)
(2.9539e-05 1.05812e-06 0.100996)
(-3.05467e-05 4.44517e-07 0.10373)
(7.75814e-06 3.33356e-06 0.073828)
(-8.24621e-06 -1.81073e-07 0.0762077)
(-3.09184e-05 9.54594e-07 0.100524)
(-8.24143e-06 -1.68834e-06 0.0657655)
(2.28846e-05 -3.3112e-07 0.0906704)
(-1.93015e-05 4.40235e-06 0.0789629)
(7.26612e-06 2.6042e-06 0.0659105)
(-2.43818e-05 2.18895e-06 0.0903464)
(-7.05487e-06 5.17042e-06 0.0681981)
(-1.17315e-05 1.13051e-05 0.084637)
(-5.18937e-06 5.00282e-06 0.0669471)
(-5.30916e-06 5.34372e-06 0.067023)
(-4.03099e-05 1.87514e-05 0.102318)
(5.75622e-05 -3.03226e-05 0.113408)
(-1.35674e-05 1.4679e-05 0.0921872)
(-5.65719e-05 3.06787e-05 0.11298)
(-9.65328e-06 6.76964e-06 0.0781433)
(-1.76194e-05 4.13385e-05 0.102576)
(-1.56187e-05 1.27282e-05 0.0926375)
(-6.77979e-06 1.0383e-05 0.078464)
(-2.6627e-05 5.53118e-05 0.113304)
(-4.79192e-06 6.97387e-06 0.0684559)
(5.08785e-07 -2.63491e-06 0.132924)
(4.74656e-07 -3.21701e-06 0.133649)
(1.99287e-06 7.24553e-07 0.133597)
(6.5459e-07 1.77464e-06 0.134014)
(5.64071e-07 -5.36267e-07 0.132923)
(-5.43847e-07 -2.41275e-06 0.13365)
(-1.20227e-06 1.42014e-06 0.133597)
(7.11374e-07 1.8644e-06 0.134015)
(3.11542e-06 2.9839e-06 0.133602)
(1.72619e-06 1.95894e-06 0.134016)
(-2.55017e-06 2.4209e-06 0.133602)
(-7.44141e-07 2.21505e-06 0.134015)
(-5.48933e-05 -5.5613e-05 0.115355)
(-0.000201236 -0.000207718 0.127734)
(0.000219317 5.1806e-05 0.122913)
(5.27418e-05 0.000212009 0.122778)
(5.79005e-05 5.09722e-05 0.115678)
(-0.000212274 -5.07788e-05 0.122705)
(-4.96198e-05 -0.00021552 0.122504)
(6.49742e-06 -0.000249957 0.124103)
(2.67624e-06 5.98231e-05 0.113568)
(1.25703e-05 0.000244738 0.119823)
(-1.21116e-05 -4.38331e-05 0.106216)
(-5.55822e-06 -0.000231432 0.119848)
(-1.87334e-07 0.000250589 0.123927)
(-2.91179e-06 -5.48764e-05 0.113697)
(-0.000251724 -3.453e-06 0.12572)
(6.22075e-05 -1.28501e-06 0.117875)
(0.000241337 -4.54301e-07 0.127022)
(-6.04348e-05 4.97121e-07 0.119298)
(0.000252096 -4.37878e-07 0.125997)
(-6.15282e-05 -2.06989e-07 0.117398)
(-0.00024488 -1.28896e-09 0.126726)
(-0.000260031 -5.42848e-06 0.123642)
(5.83674e-05 1.1753e-06 0.11351)
(0.000247889 1.22393e-05 0.119745)
(-4.65124e-05 -1.61077e-05 0.105623)
(-0.00023893 -1.59344e-05 0.119402)
(0.000258494 2.92784e-07 0.123912)
(-5.93757e-05 -4.13848e-06 0.113076)
(-0.000252796 4.23529e-06 0.125713)
(0.000241523 1.94664e-06 0.12702)
(6.1719e-05 2.24173e-06 0.117879)
(-6.03292e-05 4.198e-07 0.119298)
(0.000249449 1.46811e-06 0.125997)
(-0.000243199 1.28837e-06 0.126722)
(-6.22402e-05 1.29406e-06 0.117399)
(-0.000255948 6.35085e-06 0.123631)
(5.93891e-05 -1.27945e-07 0.113512)
(0.000247795 -1.25806e-05 0.119745)
(-4.57206e-05 1.67099e-05 0.105622)
(0.000258853 1.49701e-07 0.123907)
(-5.93686e-05 5.5188e-06 0.113075)
(-0.000236049 1.72765e-05 0.119401)
(-5.27802e-05 5.72627e-05 0.115364)
(-0.000202365 0.000209369 0.127735)
(5.19696e-05 -0.000219818 0.122831)
(-5.05106e-05 0.000214525 0.122563)
(-0.000206168 5.22864e-05 0.12264)
(4.20047e-06 4.66134e-06 0.0489681)
(2.09153e-06 1.71349e-06 0.0335753)
(9.28478e-07 5.08757e-07 0.0210915)
(3.51234e-07 9.6465e-08 0.0111846)
(8.17081e-08 2.23779e-09 0.00341553)
(1.89663e-06 2.33227e-06 0.0489565)
(8.2167e-07 1.53926e-06 0.0335615)
(2.33869e-07 1.03236e-06 0.0210819)
(-4.70354e-08 5.91587e-07 0.0111796)
(-5.69755e-08 2.04232e-07 0.00341409)
(2.63576e-06 7.48184e-06 0.0474268)
(1.91105e-06 2.87319e-06 0.0324084)
(1.26585e-06 7.95382e-07 0.0203085)
(7.28774e-07 7.92891e-08 0.0107494)
(2.52171e-07 -4.49708e-08 0.00327666)
(4.81869e-06 -2.9702e-08 0.0474079)
(2.50787e-06 -1.51165e-07 0.0323897)
(1.22028e-06 -1.85898e-07 0.0202966)
(4.52394e-07 -1.54034e-07 0.0107438)
(9.3288e-08 -5.84553e-08 0.00327514)
(5.19044e-06 6.59007e-07 0.0474087)
(2.79391e-06 7.31552e-07 0.0323909)
(1.42347e-06 6.48087e-07 0.0202976)
(5.70689e-07 4.46286e-07 0.010744)
(1.32612e-07 1.60536e-07 0.00327512)
(2.16833e-06 -1.79094e-06 0.048955)
(1.10496e-06 -1.03382e-06 0.0335613)
(4.76089e-07 -6.10375e-07 0.0210823)
(1.11026e-07 -3.13602e-07 0.0111803)
(-7.92465e-10 -1.03959e-07 0.00341441)
(-2.72787e-06 -1.9872e-06 0.0489061)
(-1.10327e-06 -8.77789e-07 0.0335387)
(-4.78309e-07 -3.37359e-07 0.0210704)
(-1.68882e-07 -8.64428e-08 0.011174)
(-4.13151e-08 -1.09239e-08 0.00341243)
(-2.16893e-06 2.7093e-06 0.0480902)
(-1.01712e-06 2.396e-06 0.0329138)
(-5.63722e-07 1.84706e-06 0.0206482)
(-2.73279e-07 1.1509e-06 0.0109384)
(-9.07786e-08 4.02908e-07 0.00333691)
(2.00308e-06 -2.68178e-07 0.0484773)
(1.23677e-06 -8.7472e-08 0.0331854)
(6.28256e-07 -1.35252e-08 0.0208252)
(2.20575e-07 2.67907e-09 0.0110358)
(4.01492e-08 1.72601e-09 0.00336799)
(2.49328e-06 -1.54061e-06 0.0481731)
(1.43548e-06 -8.32543e-07 0.0329566)
(7.15806e-07 -4.05492e-07 0.0206715)
(2.56491e-07 -1.76666e-07 0.01095)
(5.04475e-08 -4.55516e-08 0.00334039)
(-1.40521e-06 1.00911e-06 0.0483895)
(-5.06082e-07 9.02537e-07 0.0331398)
(-2.39633e-07 6.8085e-07 0.0208004)
(-9.67492e-08 4.11172e-07 0.0110234)
(-3.46168e-08 1.38569e-07 0.00336429)
(-4.83363e-06 -8.33846e-07 0.0473627)
(-2.03486e-06 -3.4519e-07 0.0323717)
(-8.75535e-07 -1.07993e-07 0.0202882)
(-3.00105e-07 3.26309e-09 0.0107398)
(-6.32865e-08 1.12531e-08 0.00327394)
(-2.10699e-06 -1.90688e-06 0.048091)
(-9.30164e-07 -1.67266e-06 0.032914)
(-4.87033e-07 -1.28993e-06 0.0206484)
(-2.23749e-07 -8.11666e-07 0.0109386)
(-7.3455e-08 -2.883e-07 0.00333698)
(2.02138e-06 7.85896e-07 0.0484772)
(1.25543e-06 5.53938e-07 0.0331852)
(6.4578e-07 3.82968e-07 0.0208251)
(2.32555e-07 2.2842e-07 0.0110357)
(4.45772e-08 7.82797e-08 0.00336796)
(2.51526e-06 2.22332e-06 0.048174)
(1.48779e-06 1.42143e-06 0.0329569)
(7.68665e-07 8.55673e-07 0.0206717)
(2.93354e-07 4.52535e-07 0.0109503)
(6.41059e-08 1.3968e-07 0.00334047)
(-1.35813e-06 -3.36801e-07 0.0483893)
(-4.68372e-07 -2.64375e-07 0.0331396)
(-2.1154e-07 -1.74744e-07 0.0208002)
(-8.00841e-08 -9.82795e-08 0.0110233)
(-2.90147e-08 -3.16972e-08 0.00336424)
(-4.32796e-06 1.69469e-06 0.0473632)
(-1.6434e-06 1.13513e-06 0.0323726)
(-5.95689e-07 7.28138e-07 0.0202889)
(-1.35953e-07 3.82089e-07 0.0107399)
(-9.35839e-09 1.21054e-07 0.00327388)
(-2.26253e-06 2.73384e-06 0.0489046)
(-6.6584e-07 1.60615e-06 0.0335384)
(-1.30524e-07 9.42531e-07 0.0210707)
(4.82665e-08 4.77962e-07 0.0111747)
(3.4193e-08 1.50026e-07 0.00341271)
(-2.00541e-06 2.8107e-06 0.047613)
(-8.7751e-07 1.11405e-06 0.0325399)
(-3.7793e-07 4.47519e-07 0.0203928)
(-1.31106e-07 1.43815e-07 0.010795)
(-3.07225e-08 3.23049e-08 0.00329092)
(-2.48757e-06 2.12759e-06 0.0489351)
(-1.41723e-06 6.44463e-07 0.0335556)
(-8.33926e-07 1.3678e-07 0.0210802)
(-4.3276e-07 -3.86835e-08 0.0111794)
(-1.41619e-07 -2.89972e-08 0.00341426)
(2.6252e-06 2.83605e-06 0.0489043)
(8.7764e-07 1.56609e-06 0.0335139)
(3.94781e-08 8.85121e-07 0.0210463)
(-2.04186e-07 4.58122e-07 0.0111585)
(-1.14142e-07 1.50339e-07 0.00340685)
(2.35379e-06 3.60866e-06 0.0476672)
(6.81056e-07 1.7407e-06 0.0325685)
(-1.91355e-08 8.47769e-07 0.020408)
(-1.86276e-07 3.82767e-07 0.0108025)
(-9.39498e-08 1.14252e-07 0.00329289)
(-1.54454e-06 -1.38701e-06 0.0476233)
(-1.44139e-06 -4.69522e-07 0.0325501)
(-1.07693e-06 -2.71238e-08 0.0203995)
(-6.09443e-07 1.38452e-07 0.0107988)
(-1.97727e-07 7.45774e-08 0.00329187)
(1.84669e-06 1.80233e-06 0.0489012)
(4.81e-07 1.44155e-06 0.0335102)
(-1.34549e-07 1.07277e-06 0.0210438)
(-2.87358e-07 6.43098e-07 0.0111568)
(-1.4171e-07 2.25588e-07 0.00340614)
(2.34877e-06 9.99267e-07 0.0476451)
(1.15539e-06 7.61006e-07 0.0325514)
(4.49254e-07 5.47666e-07 0.0203976)
(7.52072e-08 3.10729e-07 0.0107966)
(-1.59789e-08 1.06447e-07 0.00329102)
(-2.8835e-06 -1.63994e-06 0.0475862)
(-1.34177e-06 -4.06068e-07 0.0325237)
(-7.30039e-07 7.14956e-08 0.0203834)
(-3.54527e-07 1.83682e-07 0.0107896)
(-1.11563e-07 8.78856e-08 0.00328898)
(-2.40179e-06 -4.89518e-07 0.0488556)
(-2.17663e-06 6.3613e-07 0.0334912)
(-1.71217e-06 8.92048e-07 0.0210349)
(-1.05516e-06 7.02557e-07 0.0111531)
(-3.71236e-07 2.70636e-07 0.0034053)
(-2.8189e-06 -1.09802e-06 0.0488461)
(-1.75729e-06 9.22588e-08 0.0334845)
(-1.11489e-06 4.62e-07 0.0210307)
(-5.95766e-07 4.14929e-07 0.0111505)
(-1.92145e-07 1.61484e-07 0.0034043)
(-4.59157e-06 2.50379e-06 0.0485577)
(-2.31804e-06 2.01439e-06 0.033324)
(-1.15655e-06 1.52695e-06 0.0209464)
(-4.99565e-07 9.63335e-07 0.0111128)
(-1.398e-07 3.4123e-07 0.00339506)
(3.48542e-06 -2.19383e-06 0.048615)
(1.99211e-06 -1.85029e-06 0.0333501)
(1.07946e-06 -1.35275e-06 0.0209597)
(4.71341e-07 -8.1862e-07 0.0111193)
(1.2782e-07 -2.80699e-07 0.00339702)
(-4.27473e-06 -1.45811e-06 0.0485592)
(-2.04329e-06 -1.09802e-06 0.0333251)
(-9.55114e-07 -8.26298e-07 0.0209472)
(-3.80434e-07 -5.35077e-07 0.0111132)
(-9.98899e-08 -1.95211e-07 0.00339496)
(3.71449e-06 3.06705e-06 0.0486166)
(2.19532e-06 2.57306e-06 0.0333513)
(1.23166e-06 1.89473e-06 0.0209606)
(5.63174e-07 1.14923e-06 0.0111198)
(1.58774e-07 3.93645e-07 0.00339693)
(-2.29308e-06 2.15933e-06 0.0475855)
(-7.763e-07 1.09055e-06 0.0325238)
(-2.49795e-07 5.52753e-07 0.0203837)
(-4.3636e-08 2.36431e-07 0.0107902)
(-2.42091e-09 6.49794e-08 0.00328928)
(-2.32351e-06 2.03633e-06 0.0488461)
(-1.02296e-06 8.8348e-07 0.0334843)
(-4.51025e-07 3.38649e-07 0.0210302)
(-1.66279e-07 8.63273e-08 0.0111502)
(-4.35861e-08 9.47315e-09 0.00340443)
(-2.23452e-06 2.53109e-06 0.0488572)
(-9.95001e-07 1.09601e-06 0.0334908)
(-4.19449e-07 4.43699e-07 0.021034)
(-1.40666e-07 1.36656e-07 0.0111525)
(-3.19303e-08 2.59142e-08 0.00340516)
(1.61488e-06 -5.26856e-07 0.130417)
(-0.000201751 -0.00019572 0.12783)
(1.02085e-06 3.74355e-06 0.132922)
(-1.88065e-07 1.75486e-06 0.130162)
(3.22543e-06 -7.50435e-06 0.130299)
(-0.000199255 -0.000198786 0.127832)
(-3.23433e-06 -1.34858e-06 0.132923)
(6.59433e-07 3.04754e-07 0.130158)
(1.37718e-06 -5.39595e-07 0.1303)
(-0.00019966 -0.000198828 0.127827)
(-1.88662e-06 -2.207e-07 0.132923)
(3.43248e-07 5.18704e-07 0.130159)
(2.00188e-06 -1.28618e-06 0.130302)
(-0.000199776 -0.00019909 0.127827)
(-1.59026e-06 -4.62703e-07 0.132923)
(8.61781e-07 1.23741e-09 0.130157)
(1.86596e-06 -3.86776e-08 0.130302)
(-0.000199289 -0.000198487 0.127826)
(-1.15077e-06 -4.66999e-07 0.132921)
(9.07756e-07 -3.35695e-07 0.130156)
(1.87222e-06 4.58184e-07 0.130301)
(-0.000198934 -0.000198216 0.127825)
(-2.75948e-07 -8.75483e-08 0.13292)
(4.57123e-07 -1.6691e-07 0.130153)
(2.81268e-06 4.65158e-07 0.1303)
(-0.000199222 -0.00019826 0.127823)
(1.20405e-07 2.04231e-07 0.13292)
(2.86139e-07 4.72996e-07 0.130153)
(3.62971e-06 -2.52256e-07 0.1303)
(-0.000199583 -0.000198981 0.127822)
(-5.72117e-07 4.18001e-07 0.132922)
(8.19376e-07 8.14926e-07 0.130154)
(3.08675e-06 -1.29779e-06 0.130302)
(-0.000199244 -0.00019973 0.127824)
(-1.28106e-06 2.57337e-07 0.132923)
(1.24365e-06 5.12612e-07 0.130156)
(2.12306e-06 -1.33759e-06 0.130302)
(-0.000198949 -0.000199635 0.127825)
(-1.60658e-06 8.25625e-09 0.132922)
(1.16483e-06 2.69217e-07 0.130157)
(1.94486e-06 -1.13456e-06 0.130302)
(-0.000199216 -0.000199372 0.127825)
(-1.16527e-06 1.2499e-07 0.132921)
(1.0309e-06 3.06925e-07 0.130158)
(2.43334e-06 -1.21572e-06 0.130302)
(-0.000199367 -0.000199406 0.127825)
(-1.15418e-06 1.5106e-07 0.132921)
(1.1063e-06 3.9395e-07 0.130157)
(2.55252e-06 -1.06515e-06 0.130301)
(-0.000199321 -0.000199286 0.127825)
(-1.20889e-06 1.64377e-07 0.132921)
(1.3454e-06 4.76625e-07 0.130156)
(2.52672e-06 -7.3337e-07 0.1303)
(-0.000199405 -0.000199198 0.127824)
(-1.11269e-06 4.05138e-07 0.132921)
(1.86301e-06 4.27409e-07 0.130153)
(2.42433e-06 -3.508e-07 0.130299)
(-0.000199286 -0.000199047 0.127823)
(-9.90558e-07 9.60042e-07 0.132921)
(3.64242e-06 2.9204e-07 0.13015)
(9.24144e-07 1.71956e-06 0.130295)
(-0.000198905 -0.000198959 0.127817)
(-3.31457e-06 3.06495e-06 0.132924)
(1.56733e-06 2.80062e-06 0.130308)
(-2.90661e-06 7.07459e-07 0.130418)
(-0.000196492 -0.000199264 0.127969)
(0.000196177 -0.000193256 0.127845)
(-0.000202249 0.000203179 0.127749)
(-5.30927e-06 -2.41896e-06 0.130309)
(3.6748e-06 -7.58372e-06 0.1303)
(-4.14958e-06 -1.84876e-06 0.130306)
(0.000205715 0.000209811 0.127735)
(0.000201881 0.000205204 0.127845)
(-0.000207193 -0.00020849 0.127736)
(4.90245e-06 8.77246e-06 0.130303)
(-4.777e-06 4.13582e-06 0.13031)
(2.06408e-06 1.8337e-06 0.1303)
(-3.13929e-06 2.64015e-06 0.130308)
(-0.000198501 0.000200811 0.127833)
(0.000204441 -0.000208797 0.127733)
(6.85731e-06 5.39351e-06 0.130164)
(8.03618e-06 -6.09698e-06 0.130167)
(-7.97863e-07 1.70128e-06 0.130161)
(9.44761e-07 -2.15468e-06 0.130162)
(-2.51843e-06 -2.59384e-06 0.130165)
(1.38001e-07 7.70979e-07 0.130159)
(-1.62962e-06 -1.73699e-06 0.130159)
(0.000202095 -0.000203702 0.127844)
(-0.000207313 0.000208984 0.127734)
(-2.70133e-06 -2.61499e-06 0.130306)
(1.44024e-06 -1.29935e-06 0.130299)
(-2.63672e-06 -8.98018e-07 0.130307)
(0.000205063 0.000210222 0.12773)
(0.000197451 0.000200428 0.127831)
(-0.000206435 -0.000208179 0.127733)
(1.63208e-06 1.4045e-06 0.130301)
(-3.78929e-06 2.53047e-06 0.130308)
(2.23395e-06 2.68399e-06 0.130302)
(-3.04745e-06 2.71838e-06 0.130307)
(-0.000197537 0.000199937 0.127829)
(0.000204845 -0.000209714 0.127732)
(-1.3239e-06 1.27672e-06 0.130162)
(1.42792e-07 -1.68545e-06 0.130163)
(-4.24558e-07 1.5463e-06 0.130162)
(4.22857e-07 -2.00046e-06 0.130163)
(-1.08235e-06 -1.13581e-06 0.130159)
(2.96139e-07 5.29696e-07 0.130159)
(-8.57809e-07 -1.12349e-06 0.130159)
(0.00019829 -0.000199462 0.12783)
(-0.000206336 0.000208843 0.12773)
(-2.69229e-06 -5.2114e-07 0.130307)
(1.90448e-06 -1.26491e-06 0.130302)
(-2.81264e-06 -6.3756e-07 0.130308)
(0.000204876 0.000209974 0.12773)
(0.000198118 0.00020059 0.127828)
(-0.000206383 -0.000208991 0.127731)
(2.38654e-06 2.69653e-06 0.130302)
(-3.55689e-06 2.94851e-06 0.130307)
(2.27946e-06 1.94353e-06 0.130302)
(-2.80037e-06 2.1545e-06 0.130307)
(-0.000198674 0.000199989 0.127828)
(0.000204723 -0.000209095 0.127731)
(-3.96859e-07 1.49214e-06 0.130162)
(4.51186e-07 -1.93263e-06 0.130163)
(-6.46252e-07 8.00964e-07 0.130162)
(2.40448e-07 -1.13596e-06 0.130162)
(-8.63467e-07 -1.11118e-06 0.130158)
(5.25994e-07 2.84435e-07 0.130158)
(-5.01309e-07 -6.16241e-07 0.130158)
(0.000199173 -0.000199573 0.127827)
(-0.000206263 0.000209647 0.127729)
(-2.8296e-06 -8.05271e-07 0.130308)
(1.95604e-06 -3.62475e-07 0.130302)
(-2.51872e-06 -5.80111e-08 0.130308)
(0.000205249 0.000210428 0.127729)
(0.00019804 0.00019962 0.127827)
(-0.000206279 -0.000209695 0.12773)
(2.23095e-06 1.57453e-06 0.130301)
(-3.64856e-06 2.08593e-06 0.130306)
(2.25394e-06 9.76546e-07 0.1303)
(-2.28068e-06 1.18227e-06 0.130305)
(-0.000197154 0.000199472 0.127827)
(0.000205385 -0.00021072 0.12773)
(-7.16037e-07 5.83926e-07 0.130162)
(2.43258e-07 -9.5065e-07 0.130161)
(-5.93101e-07 9.26113e-08 0.13016)
(3.45338e-07 -5.66267e-07 0.13016)
(-3.88866e-07 -4.58951e-07 0.130157)
(8.7497e-07 -2.32085e-07 0.130156)
(-2.94472e-07 -2.57724e-07 0.130156)
(0.000199078 -0.000198602 0.127825)
(-0.000206272 0.000210172 0.127728)
(-2.37282e-06 1.39978e-07 0.130308)
(1.79108e-06 4.23303e-07 0.130301)
(-2.0423e-06 7.12158e-07 0.130307)
(0.000205667 0.000210759 0.127728)
(0.00019823 0.000199053 0.127825)
(-0.000205494 -0.000209775 0.127728)
(2.38401e-06 8.84887e-07 0.1303)
(-2.74137e-06 1.19507e-06 0.130304)
(2.95539e-06 9.10845e-07 0.130299)
(-2.41598e-06 1.04863e-06 0.130303)
(-0.000198064 0.000198907 0.127826)
(0.000204824 -0.000209718 0.127729)
(-4.45622e-07 5.9682e-08 0.130159)
(5.03389e-07 -5.44618e-07 0.130159)
(3.66014e-07 3.86538e-08 0.130158)
(1.37835e-06 -4.65059e-07 0.130157)
(-3.51089e-07 -2.36479e-07 0.130155)
(3.34106e-07 -1.70319e-07 0.130154)
(-7.00105e-07 -2.39759e-07 0.130153)
(0.00019914 -0.000198171 0.127824)
(-0.000205462 0.00021032 0.127726)
(-2.01908e-06 6.42003e-07 0.130307)
(2.56019e-06 4.82029e-07 0.1303)
(-2.13335e-06 7.24627e-07 0.130306)
(0.000205496 0.000210806 0.127727)
(0.000199169 0.000199117 0.127824)
(-0.000204862 -0.000209253 0.127727)
(3.18997e-06 9.31312e-07 0.130298)
(-3.43376e-06 1.43396e-06 0.130303)
(3.83368e-06 1.59501e-06 0.130298)
(-2.67508e-06 1.94286e-06 0.130303)
(-0.000197221 0.000199074 0.127824)
(0.00020496 -0.000209956 0.127728)
(6.20102e-07 9.50322e-08 0.130157)
(1.67924e-06 -5.06205e-07 0.130157)
(1.18107e-06 4.74425e-07 0.130156)
(2.19143e-06 -8.37227e-07 0.130156)
(-7.82358e-07 -2.49334e-07 0.130153)
(1.07488e-07 3.97366e-07 0.130153)
(-9.35746e-07 -6.03421e-07 0.130152)
(0.00020012 -0.00019813 0.127822)
(-0.000204657 0.000209887 0.127725)
(-2.19129e-06 6.23428e-07 0.130306)
(3.53516e-06 -5.91619e-09 0.1303)
(-2.41974e-06 8.29106e-08 0.130306)
(0.000205169 0.000210251 0.127726)
(0.000199795 0.000199825 0.127823)
(-0.000205318 -0.000208469 0.127728)
(3.9099e-06 1.80917e-06 0.130299)
(-3.17512e-06 2.28353e-06 0.130303)
(3.56953e-06 2.6563e-06 0.1303)
(-2.55314e-06 2.9174e-06 0.130304)
(-0.000198653 0.00019989 0.127824)
(0.000204926 -0.000208253 0.127729)
(1.15012e-06 6.23848e-07 0.130156)
(2.14292e-06 -9.76941e-07 0.130156)
(6.00115e-07 9.21741e-07 0.130157)
(1.55138e-06 -1.24502e-06 0.130156)
(-8.29162e-07 -7.11763e-07 0.130152)
(3.98262e-07 8.84763e-07 0.130154)
(-4.03701e-07 -1.0737e-06 0.130153)
(0.000200897 -0.000198738 0.127822)
(-0.000205101 0.000209163 0.127726)
(-2.47641e-06 -1.82801e-07 0.130307)
(3.34417e-06 -1.11994e-06 0.130302)
(-2.40377e-06 -1.1479e-06 0.130308)
(0.000205474 0.000209493 0.127727)
(0.000199238 0.000200582 0.127824)
(-0.00020625 -0.000208578 0.127728)
(3.36402e-06 2.82217e-06 0.1303)
(-3.48109e-06 3.39699e-06 0.130305)
(2.66057e-06 2.92549e-06 0.1303)
(-2.282e-06 3.15849e-06 0.130305)
(-0.0001972 0.000200666 0.127824)
(0.000205677 -0.000209417 0.12773)
(2.99835e-07 9.74802e-07 0.130158)
(1.23e-06 -1.27766e-06 0.130157)
(-4.64716e-07 7.63775e-07 0.130159)
(3.57498e-07 -1.10622e-06 0.130158)
(-2.2143e-07 -1.13118e-06 0.130154)
(1.01798e-06 6.74318e-07 0.130156)
(9.03991e-08 -1.0681e-06 0.130155)
(0.000200333 -0.000199445 0.127822)
(-0.000206101 0.000209135 0.127727)
(-2.34845e-06 -1.37718e-06 0.130308)
(2.34253e-06 -1.42238e-06 0.130302)
(-2.22946e-06 -1.49036e-06 0.130308)
(0.000205821 0.000209462 0.127728)
(0.000198329 0.000200353 0.127825)
(-0.000206509 -0.000208795 0.127729)
(2.49277e-06 2.77311e-06 0.130299)
(-2.77644e-06 3.10625e-06 0.130304)
(2.18013e-06 2.55618e-06 0.1303)
(-2.4505e-06 2.4803e-06 0.130305)
(-0.000198023 0.000200318 0.127826)
(0.000205121 -0.00020884 0.127732)
(-7.40847e-07 6.8641e-07 0.130159)
(7.87836e-08 -1.01705e-06 0.130158)
(-1.00432e-06 5.28326e-07 0.13016)
(-1.89821e-07 -8.96363e-07 0.130159)
(1.90452e-07 -9.77038e-07 0.130155)
(9.16929e-07 3.62829e-07 0.130157)
(7.30357e-08 -8.27564e-07 0.130156)
(0.000199374 -0.000199365 0.127823)
(-0.000206338 0.000209311 0.127728)
(-2.24261e-06 -1.37508e-06 0.130308)
(1.90677e-06 -1.16222e-06 0.130302)
(-2.43419e-06 -1.05086e-06 0.130308)
(0.000205624 0.000209795 0.127729)
(0.000198229 0.000200234 0.127826)
(-0.00020611 -0.000208858 0.127731)
(2.30484e-06 2.4434e-06 0.130299)
(-3.55071e-06 2.68237e-06 0.130304)
(2.63888e-06 2.52178e-06 0.130301)
(-2.59477e-06 2.55676e-06 0.130305)
(-0.000197159 0.000200071 0.127827)
(0.000205362 -0.000209871 0.127733)
(-1.04922e-06 5.92194e-07 0.13016)
(-2.56385e-07 -9.39371e-07 0.130159)
(-6.00004e-07 5.24151e-07 0.130161)
(1.99481e-07 -1.00159e-06 0.130161)
(1.11471e-07 -8.05875e-07 0.130156)
(7.78905e-07 2.99475e-07 0.130159)
(-2.10684e-07 -8.90274e-07 0.130157)
(0.000199296 -0.00019929 0.127825)
(-0.000206006 0.000209292 0.127729)
(-2.5259e-06 -9.92571e-07 0.130307)
(2.33197e-06 -1.26347e-06 0.130303)
(-2.66824e-06 -1.08574e-06 0.130308)
(0.000205432 0.00020977 0.127729)
(0.000198633 0.00020014 0.127827)
(-0.000205981 -0.000208905 0.127731)
(2.87271e-06 2.36459e-06 0.130299)
(-3.19197e-06 2.56068e-06 0.130303)
(2.79313e-06 2.61899e-06 0.130302)
(-2.64509e-06 2.64163e-06 0.130307)
(-0.000198393 0.000199977 0.127828)
(0.000204923 -0.000208795 0.127734)
(-6.81926e-07 5.86732e-07 0.13016)
(5.58907e-08 -9.98771e-07 0.13016)
(-3.73271e-07 4.47432e-07 0.130162)
(4.74555e-07 -9.69095e-07 0.130162)
(-1.73865e-08 -8.75631e-07 0.130156)
(4.9166e-07 3.98248e-07 0.130159)
(-3.82622e-07 -8.82515e-07 0.130158)
(0.000199648 -0.000199304 0.127826)
(-0.000205849 0.000209378 0.127729)
(-2.6896e-06 -1.06488e-06 0.130307)
(2.62467e-06 -1.32301e-06 0.130303)
(-2.67147e-06 -1.22418e-06 0.130307)
(0.000205433 0.000209818 0.127729)
(0.000198611 0.000199998 0.127826)
(-0.000205913 -0.0002088 0.127732)
(2.92594e-06 2.24808e-06 0.130298)
(-3.78049e-06 2.62727e-06 0.130303)
(2.77843e-06 2.85609e-06 0.130303)
(-2.65408e-06 3.05283e-06 0.130308)
(-0.00019728 0.000200061 0.127828)
(0.000205196 -0.000209613 0.127735)
(-8.1766e-07 5.23853e-07 0.13016)
(-8.6884e-08 -8.24469e-07 0.130159)
(-2.06607e-07 4.50764e-07 0.130163)
(7.40591e-07 -9.15073e-07 0.130163)
(1.26795e-07 -7.15857e-07 0.130155)
(3.35284e-07 4.7018e-07 0.130161)
(-7.3582e-07 -8.54431e-07 0.130159)
(0.000199703 -0.00019914 0.127825)
(-0.000205749 0.000209479 0.127729)
(-2.63233e-06 -9.78345e-07 0.130306)
(2.71716e-06 -1.36959e-06 0.130303)
(-2.78327e-06 -1.30005e-06 0.130308)
(0.000205298 0.000209856 0.127729)
(0.000198547 0.000199947 0.127825)
(-0.000205701 -0.000208666 0.127737)
(2.93809e-06 1.98614e-06 0.130296)
(-3.24478e-06 2.29591e-06 0.130301)
(3.01757e-06 3.20192e-06 0.130306)
(-2.82058e-06 3.35731e-06 0.130311)
(-0.000198311 0.000199942 0.127827)
(0.000204683 -0.000208468 0.127739)
(-1.11095e-06 5.54173e-07 0.130159)
(-4.36021e-07 -5.78593e-07 0.130158)
(1.44683e-07 3.64747e-07 0.130166)
(1.26604e-06 -9.8213e-07 0.130165)
(3.66227e-07 -5.41568e-07 0.130154)
(-9.6465e-08 4.17341e-07 0.130163)
(-1.22184e-06 -1.0921e-06 0.130161)
(0.000199745 -0.000199001 0.127825)
(-0.000205613 0.000209536 0.127731)
(-2.66294e-06 -7.07281e-07 0.130305)
(2.8563e-06 -1.51084e-06 0.130304)
(-2.78676e-06 -1.48852e-06 0.130309)
(0.000205228 0.000209838 0.127731)
(0.000198374 0.000199748 0.127821)
(-0.000206376 -0.000207982 0.12775)
(2.69763e-06 1.55502e-06 0.130294)
(-3.57129e-06 1.92092e-06 0.130299)
(2.61612e-06 4.60717e-06 0.130309)
(-2.38443e-06 4.86012e-06 0.130314)
(-0.000197072 0.000199841 0.127822)
(0.000205745 -0.000208697 0.127752)
(-1.60624e-06 5.81913e-07 0.130156)
(-1.04579e-06 -2.2613e-07 0.130155)
(1.20293e-06 1.19987e-06 0.13017)
(2.61371e-06 -1.83762e-06 0.13017)
(9.91187e-07 -6.42563e-08 0.130151)
(-1.02243e-06 1.27457e-06 0.130167)
(-2.50524e-06 -1.68555e-06 0.130166)
(0.000199637 -0.000198828 0.127824)
(-0.000205763 0.000209505 0.127735)
(-2.61469e-06 -3.317e-07 0.130304)
(3.2302e-06 -2.51191e-06 0.130307)
(-3.25184e-06 -2.37497e-06 0.130312)
(0.000205397 0.000209831 0.127736)
(0.000198014 0.000200218 0.127805)
(-0.000211663 -0.000205829 0.127756)
(5.48011e-07 2.49109e-07 0.130289)
(-7.29431e-07 4.20696e-07 0.130294)
(-1.16117e-06 5.15099e-06 0.130144)
(1.20262e-06 5.71664e-06 0.130147)
(-0.000197893 0.000200168 0.127806)
(0.00021127 -0.000205523 0.127757)
(-3.28447e-06 4.2803e-07 0.130152)
(-3.44122e-06 7.39781e-07 0.130151)
(2.48896e-06 3.4288e-06 0.130175)
(2.54291e-06 -3.87967e-06 0.130176)
(3.44062e-06 6.45882e-07 0.130146)
(-2.42231e-06 3.4566e-06 0.130173)
(-1.68934e-06 -3.41091e-06 0.130173)
(0.000199311 -0.000198987 0.127819)
(-0.000212116 0.000213309 0.127747)
(-1.00007e-06 1.76877e-06 0.1303)
(7.60527e-07 -1.4558e-06 0.130311)
(-2.64565e-07 -3.56534e-07 0.130315)
(0.000211195 0.000212937 0.127753)
(-2.35988e-06 6.11659e-06 0.13015)
(-0.000195864 0.000203557 0.127802)
(-1.92079e-06 2.95562e-06 0.130309)
(-2.09671e-06 -1.06144e-06 0.130329)
(2.7838e-06 2.90611e-07 0.130324)
(0.000197199 -0.000200567 0.127977)
(3.11255e-06 1.79566e-06 0.130422)
(1.03551e-05 -6.56292e-06 0.0683738)
(-6.21251e-06 5.60108e-06 0.0683963)
(-1.72965e-07 5.71238e-05 0.12019)
(1.53623e-06 -2.12055e-06 0.132014)
(1.85287e-05 -4.64396e-05 0.106506)
(3.80095e-06 -2.62725e-06 0.130415)
(-1.75514e-05 4.22963e-05 0.106502)
(-3.38774e-06 -6.23846e-05 0.120275)
(1.93647e-08 -3.91719e-06 0.131992)
(-1.38762e-05 -1.53139e-05 0.0925348)
(-1.6999e-05 -1.49028e-05 0.092773)
(0.000208807 0.00020854 0.127735)
(2.06318e-05 1.12255e-05 0.0925867)
(1.50682e-05 1.11826e-05 0.0922212)
(-8.57957e-07 -2.99928e-05 0.104705)
(4.30779e-07 2.17587e-05 0.079508)
(-5.53892e-06 -1.86669e-05 0.0794449)
(-5.94912e-08 3.47179e-05 0.10487)
(-5.38026e-06 7.84318e-06 0.0684887)
(4.50187e-06 -6.64956e-06 0.0684326)
(-3.00508e-05 5.11439e-08 0.103728)
(1.78695e-05 -7.33445e-07 0.0791735)
(-2.04901e-05 -5.07542e-06 0.0789712)
(3.10494e-05 -3.91282e-07 0.104243)
(-9.26305e-07 1.08709e-06 0.132926)
(-4.43763e-07 -3.69257e-06 0.132922)
(-8.44201e-08 -5.5529e-07 0.132926)
(-3.00926e-06 -1.21608e-06 0.132921)
(1.23777e-06 4.62115e-07 0.132924)
(-2.89672e-06 1.25187e-06 0.13292)
(9.76427e-07 -2.05521e-07 0.132924)
(5.89639e-05 1.39811e-07 0.119298)
(-4.74539e-05 1.33947e-05 0.106013)