/*--------------------------------*- C++ -*----------------------------------*\
| =========                 |                                                 |
| \\      /  F ield         | OpenFOAM: The Open Source CFD Toolbox           |
|  \\    /   O peration     | Version:  2206                                  |
|   \\  /    A nd           | Website:  www.openfoam.com                      |
|    \\/     M anipulation  |                                                 |
\*---------------------------------------------------------------------------*/
FoamFile
{
    version     2.0;
    format      ascii;
    arch        "LSB;label=32;scalar=64";
    class       volScalarField;
    location    "120";
    object      nut;
}
// * * * * * * * * * * * * * * * * * * * * * * * * * * * * * * * * * * * * * //

dimensions      [0 2 -1 0 0 0 0];

internalField   nonuniform List<scalar> 
66928
(
1.69611e-06
1.68979e-06
1.67119e-06
1.6646e-06
1.68217e-06
1.64738e-06
1.73258e-06
1.69164e-06
2.24843e-06
2.13637e-06
5.00211e-08
4.95514e-08
2.46411e-07
2.41254e-07
1.05329e-07
4.73781e-07
1.03316e-07
4.3208e-07
4.65396e-07
1.85917e-06
9.13082e-07
1.0515e-07
4.3171e-07
1.86365e-06
4.74022e-07
9.11521e-07
5.02403e-08
2.44918e-07
2.46462e-07
5.00684e-08
4.74992e-07
1.05349e-07
5.0154e-08
5.00556e-08
4.97229e-08
4.98941e-08
2.48891e-07
2.43604e-07
1.70733e-06
2.48185e-07
2.43923e-07
5.04509e-08
5.03175e-08
5.03189e-08
5.01598e-08
1.74267e-06
2.50631e-07
2.46116e-07
2.50835e-07
2.46333e-07
5.00432e-08
4.05504e-07
6.83996e-07
2.477e-07
1.01781e-07
1.0202e-07
6.84281e-07
4.08823e-07
4.06708e-07
6.74158e-07
2.43478e-07
1.00174e-07
1.00002e-07
6.7483e-07
4.08148e-07
1.55145e-07
4.4754e-08
4.45617e-08
4.47657e-08
4.46275e-08
1.5493e-07
1.04678e-07
2.254e-07
2.25844e-07
4.39622e-08
2.16794e-07
4.35915e-08
3.64906e-07
8.63842e-08
7.38684e-08
2.18653e-07
4.40511e-08
8.63301e-08
3.67157e-07
7.36923e-08
4.11956e-07
6.80936e-07
2.45541e-07
1.01632e-07
6.82245e-07
1.01395e-07
4.12929e-07
4.12096e-07
6.82172e-07
2.46672e-07
1.02724e-07
1.02755e-07
6.85376e-07
4.13057e-07
1.57562e-07
4.5296e-08
4.53821e-08
4.53418e-08
4.54499e-08
1.56916e-07
4.9927e-08
1.05425e-07
2.26481e-07
2.26745e-07
4.46856e-08
5.01038e-08
5.01555e-08
4.97023e-08
4.99104e-08
1.55407e-07
4.49297e-08
4.46875e-08
4.49409e-08
4.47301e-08
1.55228e-07
4.0854e-07
6.86686e-07
1.02347e-07
2.48415e-07
4.07545e-07
1.02272e-07
6.87293e-07
4.09291e-07
6.80006e-07
1.0047e-07
2.43838e-07
4.07483e-07
1.00112e-07
6.8008e-07
1.54914e-07
4.49041e-08
4.4649e-08
1.5524e-07
4.48558e-08
4.46031e-08
4.09799e-07
1.02535e-07
2.49232e-07
6.8973e-07
1.02572e-07
4.09756e-07
6.89461e-07
4.08067e-07
1.00793e-07
2.45596e-07
6.81632e-07
1.00896e-07
4.09415e-07
6.82136e-07
5.04563e-08
5.03751e-08
5.03542e-08
5.01521e-08
1.55541e-07
4.51128e-08
4.4851e-08
1.56268e-07
4.49754e-08
4.48396e-08
4.11203e-07
6.93354e-07
2.50254e-07
1.03244e-07
1.02518e-07
6.89498e-07
4.1411e-07
4.09676e-07
6.85912e-07
2.47938e-07
1.01362e-07
1.01349e-07
6.85653e-07
4.11157e-07
4.10932e-07
1.02913e-07
6.86817e-07
2.51314e-07
4.10836e-07
1.02696e-07
6.89659e-07
4.08673e-07
1.01077e-07
6.81132e-07
2.46589e-07
4.08732e-07
1.00793e-07
6.80315e-07
1.56359e-07
4.50638e-08
4.50179e-08
4.51002e-08
4.50216e-08
1.56179e-07
7.77951e-07
1.74244e-06
1.05194e-06
1.05046e-06
1.06702e-06
1.0671e-06
7.81691e-07
7.86687e-07
1.73935e-06
1.05011e-06
1.05537e-06
1.06601e-06
1.06821e-06
7.84001e-07
7.81081e-07
1.06164e-06
1.06305e-06
1.70653e-06
7.82778e-07
1.05791e-06
1.04846e-06
7.87065e-07
1.7549e-06
1.06135e-06
1.05111e-06
1.07473e-06
1.0754e-06
7.86671e-07
2.49313e-06
2.43238e-06
1.24008e-06
9.22711e-07
4.71806e-07
6.76895e-07
9.31698e-07
6.72828e-07
1.22969e-06
1.22749e-06
9.13976e-07
4.63209e-07
6.59716e-07
9.16634e-07
6.62373e-07
1.20803e-06
1.28298e-06
9.09624e-07
8.35024e-07
1.35463e-06
8.32382e-07
1.38876e-06
1.25962e-06
1.2366e-06
9.22936e-07
4.71776e-07
6.72326e-07
6.71752e-07
9.31588e-07
1.21239e-06
1.28377e-06
9.08667e-07
1.35408e-06
8.33067e-07
1.38612e-06
8.34889e-07
1.25962e-06
1.2409e-06
9.22647e-07
4.72602e-07
6.77693e-07
9.27971e-07
6.82021e-07
1.22973e-06
7.79859e-07
1.73774e-06
1.05293e-06
1.05319e-06
7.78188e-07
1.07259e-06
1.0709e-06
7.79702e-07
1.69162e-06
1.07039e-06
1.06503e-06
7.81994e-07
1.05984e-06
1.05675e-06
2.2559e-06
1.6857e-06
1.6544e-06
1.71232e-06
2.28518e-06
1.71092e-06
1.70543e-06
1.73681e-06
2.29841e-06
1.7156e-06
1.70601e-06
1.74053e-06
2.33168e-06
1.71865e-06
1.73714e-06
1.74079e-06
2.35497e-06
1.72995e-06
1.72684e-06
1.74776e-06
2.37817e-06
1.71495e-06
1.74716e-06
1.74162e-06
2.35199e-06
1.73273e-06
1.72434e-06
1.73186e-06
2.33826e-06
1.74765e-06
1.75389e-06
1.74855e-06
2.36245e-06
1.72718e-06
1.75539e-06
1.75231e-06
2.37009e-06
1.73415e-06
1.75614e-06
1.74734e-06
2.33061e-06
1.70394e-06
1.74853e-06
1.74302e-06
2.34162e-06
1.72632e-06
1.74909e-06
1.72615e-06
2.3601e-06
1.71706e-06
1.73572e-06
1.74501e-06
2.35023e-06
1.71012e-06
1.7405e-06
1.73762e-06
2.36571e-06
1.73034e-06
1.74328e-06
1.72392e-06
2.33893e-06
1.71172e-06
1.71356e-06
1.72e-06
2.34336e-06
1.72132e-06
1.7389e-06
1.73748e-06
1.66999e-06
1.69257e-06
1.68865e-06
1.71161e-06
1.73869e-06
1.70981e-06
1.67205e-06
1.68667e-06
1.69957e-06
1.67794e-06
1.66767e-06
1.70645e-06
1.68198e-06
1.74195e-06
1.71542e-06
1.62537e-06
1.68719e-06
1.6586e-06
1.69023e-06
1.75235e-06
1.71193e-06
1.69975e-06
1.71589e-06
1.70921e-06
1.71998e-06
1.75107e-06
1.71201e-06
1.70034e-06
1.67391e-06
1.69446e-06
1.69313e-06
1.70518e-06
1.71442e-06
1.71393e-06
1.75132e-06
1.71279e-06
1.66627e-06
1.72147e-06
1.70008e-06
1.70192e-06
1.74773e-06
1.70737e-06
1.72062e-06
1.70397e-06
1.72352e-06
1.70838e-06
1.75348e-06
1.72723e-06
1.7173e-06
1.71705e-06
1.71866e-06
1.71876e-06
1.7121e-06
1.72648e-06
1.70152e-06
1.74821e-06
1.71836e-06
1.70409e-06
1.73618e-06
1.70995e-06
1.71091e-06
1.76605e-06
1.70827e-06
1.72721e-06
1.7204e-06
1.7314e-06
1.72364e-06
1.77184e-06
1.72469e-06
1.72036e-06
1.71158e-06
1.71843e-06
1.70483e-06
1.72221e-06
1.72632e-06
1.70291e-06
1.76582e-06
1.72059e-06
1.71858e-06
1.73272e-06
1.70754e-06
1.69707e-06
1.75591e-06
1.71299e-06
1.73007e-06
1.71967e-06
1.724e-06
1.73105e-06
1.77492e-06
1.72344e-06
1.71958e-06
1.70476e-06
1.6947e-06
1.7228e-06
1.70674e-06
1.73472e-06
1.72612e-06
1.76597e-06
1.72799e-06
1.70125e-06
1.72801e-06
1.7153e-06
1.6995e-06
1.75097e-06
1.68953e-06
1.73057e-06
1.71921e-06
1.72562e-06
1.71274e-06
1.77043e-06
1.72459e-06
1.71822e-06
1.73029e-06
1.69721e-06
1.71637e-06
1.7263e-06
1.73279e-06
1.71721e-06
1.77435e-06
1.72805e-06
1.70149e-06
1.7338e-06
1.72414e-06
1.71147e-06
1.75264e-06
1.67738e-06
1.72549e-06
1.72446e-06
1.71827e-06
1.72503e-06
1.77135e-06
1.71073e-06
1.71884e-06
1.73501e-06
1.71375e-06
1.72042e-06
1.71102e-06
1.74645e-06
1.72004e-06
1.7664e-06
1.7345e-06
1.72182e-06
1.73298e-06
1.71658e-06
1.70207e-06
1.74314e-06
1.68408e-06
1.71404e-06
1.72121e-06
1.71202e-06
1.73224e-06
1.77282e-06
1.7032e-06
1.71337e-06
1.72016e-06
1.70831e-06
1.73167e-06
1.69771e-06
1.74795e-06
1.71823e-06
1.76827e-06
1.72611e-06
1.71899e-06
1.7561e-06
1.7299e-06
1.7124e-06
1.74154e-06
1.70134e-06
1.72027e-06
1.73388e-06
1.72672e-06
1.73554e-06
1.76693e-06
1.72416e-06
1.71392e-06
1.73839e-06
1.71862e-06
1.73557e-06
1.69808e-06
1.71718e-06
1.71428e-06
1.77436e-06
1.72977e-06
1.72312e-06
1.75621e-06
1.72804e-06
1.69238e-06
1.74926e-06
1.69595e-06
1.72206e-06
1.73806e-06
1.72202e-06
1.7332e-06
1.76528e-06
1.71209e-06
1.70104e-06
1.71966e-06
1.71149e-06
1.7297e-06
1.71232e-06
1.7226e-06
1.70276e-06
1.76443e-06
1.71182e-06
1.72977e-06
1.76076e-06
1.73263e-06
1.70114e-06
1.74466e-06
1.68401e-06
1.70291e-06
1.72645e-06
1.70215e-06
1.72626e-06
1.75007e-06
1.70928e-06
1.70565e-06
1.73726e-06
1.70534e-06
1.73386e-06
1.69503e-06
1.72572e-06
1.72401e-06
1.76258e-06
1.72399e-06
1.72823e-06
1.73071e-06
1.72573e-06
1.6905e-06
1.72325e-06
1.70339e-06
1.71404e-06
1.72524e-06
1.71654e-06
1.70774e-06
1.74555e-06
1.71602e-06
1.70831e-06
1.73748e-06
1.70546e-06
1.73453e-06
1.72652e-06
1.73398e-06
1.71523e-06
1.77456e-06
1.70708e-06
1.72983e-06
1.7374e-06
1.72334e-06
1.70021e-06
1.73532e-06
1.70472e-06
1.7185e-06
1.72524e-06
1.72309e-06
1.73598e-06
1.76121e-06
1.72029e-06
1.70731e-06
1.71957e-06
1.70637e-06
1.73078e-06
1.71528e-06
1.72424e-06
1.72988e-06
1.77122e-06
1.71101e-06
1.70007e-06
1.73823e-06
1.72542e-06
1.68255e-06
1.73915e-06
1.68854e-06
1.70938e-06
1.73876e-06
1.71813e-06
1.72498e-06
1.76198e-06
1.72091e-06
1.69389e-06
1.73059e-06
1.72192e-06
1.71421e-06
1.72909e-06
1.73511e-06
1.72985e-06
1.75628e-06
1.70899e-06
1.71e-06
1.72397e-06
1.6998e-06
1.69254e-06
1.75152e-06
1.70898e-06
1.72504e-06
1.72473e-06
1.71656e-06
1.71272e-06
1.77204e-06
1.71286e-06
1.72135e-06
1.71332e-06
1.71964e-06
1.72924e-06
1.71027e-06
1.71943e-06
1.71441e-06
1.74709e-06
1.69579e-06
1.70243e-06
1.73174e-06
1.71435e-06
1.69228e-06
1.74403e-06
1.70457e-06
1.70966e-06
1.72985e-06
1.70136e-06
1.72244e-06
1.75762e-06
1.72271e-06
1.71172e-06
1.73716e-06
1.72349e-06
1.71735e-06
1.7197e-06
1.71542e-06
1.71112e-06
1.75994e-06
1.72941e-06
1.70088e-06
1.73892e-06
1.72028e-06
1.69201e-06
1.73092e-06
1.71518e-06
1.74135e-06
1.76615e-06
1.72199e-06
1.72712e-06
1.69549e-06
1.71588e-06
1.77249e-06
1.72572e-06
1.71065e-06
1.69637e-06
4.36621e-07
1.05293e-07
4.37311e-07
1.05321e-07
5.04058e-08
5.0537e-08
4.31798e-07
1.03778e-07
4.3023e-07
1.0403e-07
2.24757e-06
2.16196e-06
2.14982e-06
2.27385e-06
2.2459e-06
2.19538e-06
2.22007e-06
9.21595e-07
4.68603e-07
1.88637e-06
1.68981e-06
4.70508e-07
1.89175e-06
9.21008e-07
5.03774e-08
5.04748e-08
9.34753e-07
1.82647e-06
4.73224e-07
1.67046e-06
1.83301e-06
4.77624e-07
9.37524e-07
2.43324e-07
2.45578e-07
1.6772e-06
2.44002e-07
2.46523e-07
4.40094e-07
1.06353e-07
4.37873e-07
1.06603e-07
5.09978e-08
5.11451e-08
4.34706e-07
1.05358e-07
4.30945e-07
1.05371e-07
2.26131e-06
2.20016e-06
2.23655e-06
2.30679e-06
2.30777e-06
2.26495e-06
2.29542e-06
9.21914e-07
4.71605e-07
1.92277e-06
1.71371e-06
9.16925e-07
4.73306e-07
1.93448e-06
5.10261e-08
5.11142e-08
9.40251e-07
1.86272e-06
4.78513e-07
1.71454e-06
9.38936e-07
1.8688e-06
4.79495e-07
2.43835e-07
2.46685e-07
1.70085e-06
2.44712e-07
2.47377e-07
4.40251e-07
1.06814e-07
4.41074e-07
1.06616e-07
5.1521e-08
5.13083e-08
4.33994e-07
1.05137e-07
4.30163e-07
1.05115e-07
2.32236e-06
2.27324e-06
2.29029e-06
2.3291e-06
2.30431e-06
2.32005e-06
2.31725e-06
9.18042e-07
4.72868e-07
1.94361e-06
1.71876e-06
9.16728e-07
4.75686e-07
1.93912e-06
5.14623e-08
5.14654e-08
9.37869e-07
1.92567e-06
4.8197e-07
1.72422e-06
9.34337e-07
1.93444e-06
4.82e-07
2.44101e-07
2.46201e-07
1.70834e-06
2.4431e-07
2.46488e-07
4.43858e-07
1.06109e-07
4.41814e-07
1.06507e-07
5.13128e-08
5.13429e-08
4.37818e-07
1.05724e-07
4.34253e-07
1.05879e-07
2.33539e-06
2.33042e-06
2.30213e-06
2.35829e-06
2.34332e-06
2.34038e-06
2.32501e-06
9.24879e-07
4.7203e-07
1.9292e-06
1.72678e-06
9.22801e-07
4.74635e-07
1.94118e-06
5.17006e-08
5.16311e-08
9.35496e-07
1.95003e-06
4.78405e-07
1.73648e-06
9.39015e-07
1.95121e-06
4.80647e-07
2.43699e-07
2.46654e-07
1.68661e-06
2.43583e-07
2.4618e-07
4.44735e-07
1.05626e-07
4.43635e-07
1.04925e-07
5.11913e-08
5.0962e-08
4.36244e-07
1.05927e-07
4.32774e-07
1.05823e-07
2.34719e-06
2.31882e-06
2.32949e-06
2.34308e-06
2.33291e-06
2.33729e-06
2.33194e-06
9.25042e-07
4.72994e-07
1.94554e-06
1.7363e-06
9.2351e-07
4.75687e-07
1.93773e-06
5.17951e-08
5.16594e-08
9.38855e-07
1.95908e-06
4.79706e-07
1.72791e-06
9.38998e-07
1.95669e-06
4.77664e-07
2.43183e-07
2.45445e-07
1.69251e-06
2.43002e-07
2.45362e-07
4.45065e-07
1.0482e-07
4.42363e-07
1.04793e-07
5.06154e-08
5.05063e-08
4.35932e-07
1.05463e-07
4.32244e-07
1.05372e-07
2.33976e-06
2.35482e-06
2.32986e-06
2.38394e-06
2.35426e-06
2.36856e-06
2.35122e-06
9.25263e-07
4.73629e-07
1.92849e-06
1.73017e-06
9.18487e-07
4.71992e-07
1.94704e-06
5.17527e-08
5.16551e-08
9.34791e-07
1.93293e-06
4.79122e-07
1.73585e-06
9.30717e-07
1.94186e-06
4.79721e-07
2.42379e-07
2.44217e-07
1.70652e-06
2.43664e-07
2.44392e-07
4.43901e-07
1.04774e-07
4.41874e-07
1.04986e-07
5.0737e-08
5.04548e-08
4.36074e-07
1.05399e-07
4.3004e-07
1.05258e-07
2.36185e-06
2.3733e-06
2.32585e-06
2.34859e-06
2.37711e-06
2.37005e-06
2.3199e-06
9.27449e-07
4.72663e-07
1.94445e-06
1.72363e-06
9.2653e-07
4.76409e-07
1.95455e-06
5.14872e-08
5.10463e-08
9.30785e-07
1.95546e-06
4.7943e-07
1.74559e-06
9.37421e-07
1.93623e-06
4.80075e-07
2.42832e-07
2.44022e-07
1.6883e-06
2.43465e-07
2.44679e-07
4.44238e-07
1.04189e-07
4.43027e-07
1.04586e-07
5.08547e-08
5.06647e-08
4.36192e-07
1.0444e-07
4.3233e-07
1.04735e-07
2.37828e-06
2.36467e-06
2.35041e-06
2.37281e-06
2.38705e-06
2.36954e-06
2.36596e-06
9.19958e-07
4.73033e-07
1.95595e-06
1.746e-06
9.17402e-07
4.72473e-07
1.95691e-06
5.07709e-08
5.05446e-08
9.38e-07
1.96682e-06
4.76155e-07
1.75532e-06
9.30026e-07
1.96293e-06
4.79357e-07
2.42239e-07
2.43603e-07
1.7086e-06
2.42597e-07
2.4397e-07
4.43155e-07
1.046e-07
4.43051e-07
1.04141e-07
5.11025e-08
5.06654e-08
4.35199e-07
1.04769e-07
4.32832e-07
1.04639e-07
2.37485e-06
2.40356e-06
2.32662e-06
2.36786e-06
2.34649e-06
2.38445e-06
2.36465e-06
9.21113e-07
4.7098e-07
1.95843e-06
1.7456e-06
9.20657e-07
4.73318e-07
1.96548e-06
5.06028e-08
5.03984e-08
9.31172e-07
1.97461e-06
4.78494e-07
1.74284e-06
9.38034e-07
1.9662e-06
4.77289e-07
2.43905e-07
2.44095e-07
1.70437e-06
2.43692e-07
2.43077e-07
4.40521e-07
1.0483e-07
4.40467e-07
1.04661e-07
5.10171e-08
5.10622e-08
4.37595e-07
1.04685e-07
4.33458e-07
1.03696e-07
2.38689e-06
2.34853e-06
2.36749e-06
2.35706e-06
2.37241e-06
2.37592e-06
2.33604e-06
9.15369e-07
4.68299e-07
1.94214e-06
1.72879e-06
9.18945e-07
4.66948e-07
1.93187e-06
5.04414e-08
5.04096e-08
9.37037e-07
1.96554e-06
4.74002e-07
1.75977e-06
9.34881e-07
1.96718e-06
4.74905e-07
2.4289e-07
2.4346e-07
1.70475e-06
2.42632e-07
2.43791e-07
4.42541e-07
1.04443e-07
4.41467e-07
1.04727e-07
5.10404e-08
5.09914e-08
4.34724e-07
1.04507e-07
4.33152e-07
1.04463e-07
2.37585e-06
2.3845e-06
2.36931e-06
2.3466e-06
2.34646e-06
2.36185e-06
2.37197e-06
9.25399e-07
4.66277e-07
1.94756e-06
1.71549e-06
9.29207e-07
4.697e-07
1.94651e-06
5.07712e-08
5.08478e-08
9.35106e-07
1.96918e-06
4.76566e-07
1.7249e-06
9.39407e-07
1.97195e-06
4.76535e-07
2.42588e-07
2.42996e-07
1.70046e-06
2.42678e-07
2.4409e-07
4.45482e-07
1.04409e-07
4.4284e-07
1.03728e-07
5.10351e-08
5.0778e-08
4.36676e-07
1.04329e-07
4.336e-07
1.04474e-07
2.33095e-06
2.3521e-06
2.36694e-06
2.35725e-06
2.37347e-06
2.33369e-06
2.34497e-06
9.23093e-07
4.6473e-07
1.9477e-06
1.71105e-06
9.26613e-07
4.66554e-07
1.9721e-06
5.10727e-08
5.08374e-08
9.37116e-07
1.96839e-06
4.73791e-07
1.73101e-06
9.41605e-07
1.96126e-06
4.74713e-07
2.42401e-07
2.44043e-07
1.70246e-06
2.42261e-07
2.41721e-07
4.4477e-07
1.05187e-07
4.42017e-07
1.04651e-07
5.10191e-08
5.09989e-08
4.35228e-07
1.04968e-07
4.32542e-07
1.04797e-07
2.37393e-06
2.32087e-06
2.36745e-06
2.35611e-06
2.37633e-06
2.34144e-06
2.38076e-06
9.25635e-07
4.63559e-07
1.96539e-06
1.73589e-06
9.29099e-07
4.68178e-07
1.96033e-06
5.08575e-08
5.06624e-08
9.25608e-07
1.95764e-06
4.75414e-07
1.72997e-06
9.33526e-07
1.96043e-06
4.77819e-07
2.41724e-07
2.43744e-07
1.6846e-06
2.42206e-07
2.43911e-07
4.42472e-07
1.0553e-07
4.42681e-07
1.05192e-07
5.10767e-08
5.10925e-08
4.36518e-07
1.04449e-07
4.32688e-07
1.04944e-07
2.37195e-06
2.38234e-06
2.38389e-06
2.36172e-06
2.37996e-06
2.36878e-06
2.33278e-06
9.17689e-07
4.67008e-07
1.94618e-06
1.71362e-06
9.2583e-07
4.67907e-07
1.96107e-06
5.06614e-08
5.05847e-08
9.29002e-07
1.96508e-06
4.76837e-07
1.74214e-06
9.33125e-07
1.96546e-06
4.7629e-07
2.42776e-07
2.43753e-07
1.67805e-06
2.42369e-07
2.44017e-07
4.43117e-07
1.05369e-07
4.4189e-07
1.05557e-07
5.10561e-08
5.09607e-08
4.3901e-07
1.04714e-07
4.34225e-07
1.04975e-07
2.38065e-06
2.3506e-06
2.36368e-06
2.35584e-06
2.38326e-06
2.34998e-06
2.32018e-06
9.2058e-07
4.66138e-07
1.95921e-06
1.7186e-06
9.25292e-07
4.71527e-07
1.96016e-06
5.07253e-08
5.0715e-08
9.37471e-07
1.96151e-06
4.72705e-07
1.74123e-06
9.36886e-07
1.92424e-06
4.73422e-07
2.40794e-07
2.44115e-07
1.69401e-06
2.40882e-07
2.44265e-07
4.46227e-07
1.04696e-07
4.43919e-07
1.04858e-07
5.08336e-08
5.08219e-08
4.36619e-07
1.05405e-07
4.34798e-07
1.05382e-07
2.36279e-06
2.37441e-06
2.29607e-06
2.35505e-06
2.36625e-06
2.38466e-06
2.35038e-06
9.2003e-07
4.67737e-07
1.9274e-06
1.71217e-06
9.23243e-07
4.71241e-07
1.95826e-06
5.10123e-08
5.08469e-08
9.33031e-07
1.94312e-06
4.73572e-07
1.73548e-06
9.40579e-07
1.94417e-06
4.72435e-07
2.40743e-07
2.44238e-07
1.69784e-06
2.40909e-07
2.44919e-07
4.45321e-07
1.05436e-07
4.46347e-07
1.05383e-07
5.09815e-08
5.08135e-08
4.38645e-07
1.04877e-07
4.34528e-07
1.05254e-07
2.37007e-06
2.36139e-06
2.3167e-06
2.35401e-06
9.23442e-07
4.69743e-07
1.9206e-06
1.72202e-06
9.27612e-07
4.71176e-07
1.9448e-06
5.07921e-08
5.06469e-08
9.31247e-07
1.94459e-06
4.76151e-07
1.73977e-06
9.39315e-07
1.94474e-06
4.75952e-07
2.39949e-07
2.44332e-07
1.6882e-06
2.39717e-07
2.43254e-07
4.39632e-07
1.05357e-07
1.06231e-07
4.36682e-07
9.15436e-07
4.70834e-07
1.85213e-06
1.68836e-06
1.87894e-06
9.16482e-07
4.75883e-07
9.16079e-07
4.75679e-07
1.88583e-06
1.69696e-06
4.76462e-07
1.89268e-06
9.17993e-07
4.37729e-07
1.05259e-07
4.40156e-07
1.058e-07
4.39994e-07
1.07067e-07
1.06266e-07
4.37967e-07
9.26558e-07
1.68749e-06
4.77385e-07
1.89571e-06
1.89081e-06
9.23716e-07
4.76707e-07
9.25365e-07
1.70701e-06
4.81875e-07
1.90417e-06
4.79376e-07
1.9058e-06
9.24517e-07
2.47777e-07
2.43917e-07
1.68563e-06
2.49244e-07
2.44831e-07
5.00562e-08
5.01982e-08
5.09068e-08
5.05418e-08
1.74558e-06
2.50466e-07
2.45593e-07
2.50816e-07
2.47778e-07
5.04536e-08
5.03819e-08
9.1314e-07
4.65745e-07
1.8507e-06
1.67922e-06
1.88297e-06
9.16163e-07
4.69074e-07
4.31699e-07
1.05394e-07
1.05446e-07
4.28755e-07
9.08971e-07
1.86605e-06
4.71434e-07
1.66634e-06
1.87888e-06
4.7273e-07
9.06715e-07
4.31594e-07
1.04323e-07
4.34144e-07
1.0478e-07
9.11546e-07
1.67897e-06
4.73741e-07
1.86621e-06
1.88363e-06
9.08926e-07
4.68543e-07
4.30937e-07
1.0619e-07
1.05857e-07
4.33359e-07
9.10316e-07
1.67587e-06
1.86169e-06
4.75228e-07
1.87858e-06
4.73524e-07
9.11592e-07
4.39714e-07
1.05209e-07
1.05233e-07
4.36715e-07
9.22258e-07
1.86759e-06
4.68839e-07
1.67235e-06
1.87762e-06
4.71773e-07
9.2173e-07
4.38266e-07
1.04987e-07
1.04939e-07
4.35356e-07
9.23833e-07
1.7007e-06
4.74445e-07
1.90019e-06
4.70547e-07
1.92393e-06
9.21058e-07
4.39817e-07
1.05765e-07
1.05826e-07
4.43832e-07
9.26229e-07
1.68501e-06
1.91422e-06
4.74389e-07
1.8821e-06
4.70947e-07
9.19568e-07
4.3918e-07
1.05657e-07
1.05388e-07
4.43387e-07
2.47221e-07
2.48285e-07
1.70398e-06
2.46648e-07
2.48992e-07
5.0153e-08
5.00016e-08
5.08598e-08
5.06675e-08
1.75054e-06
2.48453e-07
2.48876e-07
2.48529e-07
2.50792e-07
5.05804e-08
5.03204e-08
9.39894e-07
1.81788e-06
4.75563e-07
1.6362e-06
1.82179e-06
4.7657e-07
9.41324e-07
4.49921e-07
1.05616e-07
1.05088e-07
4.46063e-07
4.51536e-07
1.05273e-07
1.05812e-07
4.50711e-07
9.44678e-07
1.67961e-06
1.85278e-06
4.7974e-07
1.8437e-06
4.75402e-07
9.42574e-07
9.4204e-07
1.63731e-06
1.84704e-06
4.78884e-07
1.8316e-06
4.76858e-07
9.42382e-07
4.48264e-07
1.06562e-07
1.06162e-07
4.51319e-07
4.49906e-07
1.0645e-07
1.06296e-07
4.5398e-07
5.01039e-08
5.0055e-08
4.9929e-08
4.99976e-08
1.73954e-06
2.45991e-07
2.47753e-07
2.463e-07
2.49199e-07
5.02999e-08
5.02297e-08
5.01494e-08
5.02105e-08
5.04621e-08
5.05953e-08
5.05423e-08
5.06259e-08
2.51744e-07
2.49063e-07
1.70411e-06
2.50635e-07
2.47043e-07
5.10321e-08
5.0937e-08
5.07318e-08
5.0756e-08
1.74858e-06
2.5168e-07
2.47459e-07
2.53608e-07
2.48571e-07
4.41156e-07
1.06699e-07
4.3815e-07
1.07021e-07
9.1672e-07
4.80312e-07
1.90091e-06
1.71073e-06
9.25826e-07
4.82533e-07
1.9047e-06
9.25329e-07
4.79222e-07
1.89088e-06
1.7174e-06
9.25702e-07
4.81735e-07
1.91958e-06
4.37999e-07
1.06727e-07
1.06875e-07
4.3996e-07
4.38688e-07
1.06897e-07
1.07375e-07
4.40462e-07
9.25655e-07
1.71459e-06
4.82578e-07
1.9026e-06
4.79939e-07
1.91022e-06
9.21889e-07
9.21003e-07
1.72159e-06
4.82917e-07
1.91633e-06
4.78442e-07
1.91491e-06
9.2321e-07
2.51888e-07
2.47284e-07
1.7071e-06
2.51592e-07
2.46735e-07
5.0582e-08
5.06439e-08
5.14083e-08
5.13311e-08
1.75675e-06
2.52637e-07
2.47656e-07
2.5451e-07
2.48156e-07
5.08693e-08
5.07987e-08
9.04542e-07
4.71615e-07
1.89933e-06
1.70826e-06
9.12122e-07
4.7258e-07
1.89067e-06
4.33487e-07
1.06545e-07
4.32299e-07
1.06619e-07
9.12922e-07
1.89397e-06
4.748e-07
1.69838e-06
9.12101e-07
1.89673e-06
4.78174e-07
4.32127e-07
1.0567e-07
1.05735e-07
4.32377e-07
9.14068e-07
1.70648e-06
4.71888e-07
1.90097e-06
4.73539e-07
1.89769e-06
9.09477e-07
4.32611e-07
1.07023e-07
1.0688e-07
4.36369e-07
9.14654e-07
1.70168e-06
1.89247e-06
4.79268e-07
1.89769e-06
4.75998e-07
9.09266e-07
4.43477e-07
1.05867e-07
4.41326e-07
1.0602e-07
9.07996e-07
1.89533e-06
4.71301e-07
1.69123e-06
9.22765e-07
1.91815e-06
4.72598e-07
4.44193e-07
1.06056e-07
4.41113e-07
1.05959e-07
9.16862e-07
1.71062e-06
4.76249e-07
1.91532e-06
4.74231e-07
1.9326e-06
9.18443e-07
4.39656e-07
1.0645e-07
1.0646e-07
4.44044e-07
9.17725e-07
1.7075e-06
1.92917e-06
4.75394e-07
1.92855e-06
4.69455e-07
9.21402e-07
4.41838e-07
1.06397e-07
1.06231e-07
4.44375e-07
2.51177e-07
2.51505e-07
1.72577e-06
2.49651e-07
2.51353e-07
5.0784e-08
5.082e-08
5.13177e-08
5.12775e-08
1.77189e-06
2.50255e-07
2.51815e-07
2.5209e-07
2.53459e-07
5.11692e-08
5.11971e-08
9.40469e-07
1.8842e-06
4.7592e-07
1.67814e-06
9.43825e-07
1.89184e-06
4.79701e-07
4.51348e-07
1.06919e-07
4.50809e-07
1.06488e-07
4.52574e-07
1.06604e-07
4.51072e-07
1.06764e-07
9.41234e-07
1.71498e-06
1.91127e-06
4.83284e-07
1.90586e-06
4.81966e-07
9.41719e-07
9.38108e-07
1.67719e-06
1.89619e-06
4.78547e-07
1.89744e-06
4.76675e-07
9.43151e-07
4.50769e-07
1.07146e-07
1.07413e-07
4.50306e-07
4.52495e-07
1.06709e-07
1.06935e-07
4.54035e-07
5.034e-08
5.03662e-08
5.04185e-08
5.04234e-08
1.73338e-06
2.4531e-07
2.46451e-07
2.46493e-07
2.46893e-07
5.04446e-08
5.04784e-08
5.02417e-08
5.04486e-08
5.11098e-08
5.11014e-08
5.08074e-08
5.07385e-08
2.53692e-07
2.49101e-07
1.71623e-06
2.52317e-07
2.47395e-07
5.11317e-08
5.1162e-08
5.07127e-08
5.08527e-08
1.76183e-06
2.5268e-07
2.4672e-07
2.53722e-07
2.49253e-07
4.42399e-07
1.07511e-07
4.4208e-07
1.07818e-07
9.26577e-07
4.81024e-07
1.90712e-06
1.71873e-06
9.23937e-07
4.81138e-07
1.91742e-06
9.14341e-07
4.80668e-07
1.92506e-06
1.72751e-06
9.26204e-07
4.82428e-07
1.92195e-06
4.41868e-07
1.06176e-07
1.06545e-07
4.42931e-07
4.42183e-07
1.07809e-07
1.07523e-07
4.44841e-07
9.30191e-07
1.72328e-06
4.82639e-07
1.90862e-06
4.81202e-07
1.91748e-06
9.22109e-07
9.24123e-07
1.72422e-06
4.82315e-07
1.9076e-06
4.84438e-07
1.90799e-06
9.21376e-07
2.54244e-07
2.49086e-07
1.72265e-06
2.52294e-07
2.48219e-07
5.09996e-08
5.10145e-08
5.11919e-08
5.11453e-08
1.77065e-06
2.51457e-07
2.48247e-07
2.54228e-07
2.50589e-07
5.09598e-08
5.10967e-08
9.05516e-07
4.72323e-07
1.90181e-06
1.71964e-06
9.10114e-07
4.71107e-07
1.8943e-06
4.3821e-07
1.07361e-07
4.34267e-07
1.07309e-07
9.10183e-07
1.88875e-06
4.77814e-07
1.7178e-06
9.12131e-07
1.91856e-06
4.7996e-07
4.33391e-07
1.05262e-07
1.05838e-07
4.3711e-07
9.08189e-07
1.7233e-06
4.73972e-07
1.93017e-06
4.72979e-07
1.92425e-06
9.13344e-07
4.35291e-07
1.07791e-07
1.0769e-07
4.38466e-07
9.1341e-07
1.7025e-06
1.906e-06
4.80257e-07
1.91547e-06
4.78772e-07
9.10167e-07
4.42011e-07
1.06715e-07
4.40382e-07
1.06678e-07
9.18269e-07
1.93593e-06
4.71561e-07
1.70225e-06
9.18174e-07
1.90879e-06
4.74403e-07
4.4549e-07
1.05943e-07
4.42133e-07
1.05919e-07
9.20813e-07
1.71894e-06
4.76523e-07
1.94191e-06
4.73765e-07
1.94463e-06
9.24085e-07
4.40132e-07
1.06193e-07
1.06084e-07
4.43516e-07
9.28999e-07
1.70624e-06
1.9418e-06
4.76005e-07
1.93297e-06
4.72695e-07
9.23915e-07
4.42665e-07
1.06716e-07
1.06691e-07
4.45367e-07
2.52828e-07
2.53396e-07
1.72451e-06
2.50547e-07
2.52379e-07
5.12393e-08
5.11724e-08
5.15894e-08
5.16055e-08
1.74716e-06
2.51075e-07
2.51325e-07
2.51941e-07
2.54901e-07
5.10845e-08
5.12076e-08
9.45018e-07
1.93165e-06
4.80145e-07
1.71067e-06
9.4089e-07
1.92968e-06
4.79691e-07
4.51089e-07
1.0735e-07
4.46392e-07
1.06707e-07
4.51169e-07
1.07167e-07
4.52772e-07
1.06949e-07
9.42806e-07
1.73329e-06
1.94527e-06
4.81909e-07
1.92472e-06
4.81307e-07
9.38897e-07
9.44806e-07
1.70101e-06
1.92375e-06
4.80249e-07
1.93122e-06
4.77308e-07
9.44854e-07
4.49646e-07
1.06548e-07
1.06654e-07
4.51135e-07
4.51775e-07
1.06963e-07
1.06528e-07
4.53417e-07
5.04614e-08
5.0303e-08
5.02472e-08
5.02729e-08
1.73695e-06
2.44174e-07
2.46747e-07
2.45857e-07
2.48206e-07
5.03559e-08
5.03895e-08
5.03361e-08
5.04045e-08
5.11715e-08
5.09445e-08
5.08019e-08
5.07597e-08
2.53302e-07
2.48712e-07
1.72108e-06
2.49843e-07
2.47386e-07
5.05262e-08
5.07996e-08
5.07415e-08
5.08923e-08
1.76872e-06
2.50038e-07
2.47817e-07
2.5362e-07
2.4946e-07
4.44485e-07
1.07996e-07
4.41395e-07
1.0795e-07
9.2512e-07
4.81727e-07
1.90063e-06
1.72878e-06
9.26139e-07
4.81835e-07
1.93203e-06
9.32661e-07
4.80507e-07
1.91352e-06
1.72786e-06
9.26374e-07
4.82411e-07
1.91035e-06
4.43331e-07
1.05929e-07
1.06335e-07
4.45226e-07
4.45528e-07
1.06678e-07
1.07337e-07
4.47582e-07
9.29445e-07
1.72968e-06
4.78783e-07
1.92863e-06
4.79646e-07
1.92637e-06
9.34244e-07
9.36149e-07
1.72336e-06
4.81728e-07
1.94507e-06
4.81421e-07
1.9412e-06
9.34804e-07
2.54104e-07
2.503e-07
1.72818e-06
2.52349e-07
2.47572e-07
5.10093e-08
5.0878e-08
5.11252e-08
5.14064e-08
1.76717e-06
2.51578e-07
2.47331e-07
2.54243e-07
2.50053e-07
5.08961e-08
5.09835e-08
9.09731e-07
4.71945e-07
1.92394e-06
1.70351e-06
9.15296e-07
4.76485e-07
1.92674e-06
4.40711e-07
1.07992e-07
4.37952e-07
1.07914e-07
9.17394e-07
1.89958e-06
4.76633e-07
1.69916e-06
9.20477e-07
1.92866e-06
4.81258e-07
4.33213e-07
1.06038e-07
1.06196e-07
4.37231e-07
9.11408e-07
1.71756e-06
4.76998e-07
1.91555e-06
4.74801e-07
1.91968e-06
9.11155e-07
4.38168e-07
1.08234e-07
1.08296e-07
4.41038e-07
9.20262e-07
1.7002e-06
1.93967e-06
4.81098e-07
1.92955e-06
4.77191e-07
9.18472e-07
4.44996e-07
1.05864e-07
4.41934e-07
1.06132e-07
9.24204e-07
1.92933e-06
4.73132e-07
1.70168e-06
9.23454e-07
1.93342e-06
4.74658e-07
4.46692e-07
1.06686e-07
4.43043e-07
1.05517e-07
9.22555e-07
1.7335e-06
4.762e-07
1.94852e-06
4.74031e-07
1.95181e-06
9.24743e-07
4.42265e-07
1.06575e-07
1.06475e-07
4.42793e-07
9.29208e-07
1.71592e-06
1.91239e-06
4.721e-07
1.91977e-06
4.71757e-07
9.28735e-07
4.42726e-07
1.05535e-07
1.06478e-07
4.45938e-07
2.5271e-07
2.53736e-07
1.70347e-06
2.51047e-07
2.5226e-07
5.11343e-08
5.1139e-08
5.1681e-08
5.17369e-08
1.76859e-06
2.50929e-07
2.5151e-07
2.53395e-07
2.5336e-07
5.08318e-08
5.11934e-08
9.42832e-07
1.9264e-06
4.7826e-07
1.70105e-06
9.42224e-07
1.92932e-06
4.74351e-07
4.51101e-07
1.07231e-07
4.4894e-07
1.0708e-07
4.52569e-07
1.06333e-07
4.50903e-07
1.06726e-07
9.43589e-07
1.73504e-06
1.93089e-06
4.79039e-07
1.94045e-06
4.80494e-07
9.35337e-07
9.40405e-07
1.71788e-06
1.94998e-06
4.75604e-07
1.9312e-06
4.75833e-07
9.41143e-07
4.5043e-07
1.0709e-07
1.07247e-07
4.51234e-07
4.50313e-07
1.06431e-07
1.06598e-07
4.50629e-07
5.04151e-08
5.0207e-08
5.04596e-08
5.03714e-08
1.7512e-06
2.43726e-07
2.45734e-07
2.45165e-07
2.46087e-07
5.02169e-08
5.02917e-08
5.01775e-08
5.01863e-08
5.07687e-08
5.06115e-08
5.0835e-08
5.0688e-08
2.51167e-07
2.48966e-07
1.70454e-06
2.49413e-07
2.46502e-07
5.05788e-08
5.06491e-08
5.03745e-08
5.0777e-08
1.75086e-06
2.49593e-07
2.44611e-07
2.51075e-07
2.4817e-07
4.46006e-07
1.07485e-07
4.46448e-07
1.07182e-07
9.32652e-07
4.76538e-07
1.90083e-06
1.73006e-06
9.31451e-07
4.77625e-07
1.92474e-06
9.33827e-07
4.80652e-07
1.94516e-06
1.71488e-06
9.37907e-07
4.79417e-07
1.94629e-06
4.41126e-07
1.0557e-07
1.05065e-07
4.42238e-07
4.43523e-07
1.06716e-07
1.0665e-07
4.4533e-07
9.33932e-07
1.71042e-06
4.7627e-07
1.93869e-06
4.75956e-07
1.9349e-06
9.3041e-07
9.36236e-07
1.73564e-06
4.81234e-07
1.94945e-06
4.77218e-07
1.94745e-06
9.3545e-07
2.52754e-07
2.48415e-07
1.72255e-06
2.48657e-07
2.47533e-07
5.09535e-08
5.08511e-08
5.0719e-08
5.08536e-08
1.75437e-06
2.49405e-07
2.47123e-07
2.5007e-07
2.48768e-07
5.08272e-08
5.09387e-08
9.15389e-07
4.75187e-07
1.94274e-06
1.72078e-06
9.16464e-07
4.71925e-07
1.94716e-06
4.41008e-07
1.08333e-07
4.3811e-07
1.07775e-07
9.20506e-07
1.94486e-06
4.78613e-07
1.72683e-06
9.1779e-07
1.92836e-06
4.79826e-07
4.33847e-07
1.05602e-07
1.06118e-07
4.37583e-07
9.13219e-07
1.71362e-06
4.74488e-07
1.93218e-06
4.73583e-07
1.93604e-06
9.13028e-07
4.38134e-07
1.07906e-07
1.08041e-07
4.41258e-07
9.20987e-07
1.70956e-06
1.94979e-06
4.81767e-07
1.95473e-06
4.80329e-07
9.14926e-07
4.44021e-07
1.06737e-07
4.40436e-07
1.06273e-07
9.25036e-07
1.94382e-06
4.68869e-07
1.70426e-06
9.31773e-07
1.91886e-06
4.71235e-07
4.46487e-07
1.0608e-07
4.43814e-07
1.0535e-07
9.26406e-07
1.73179e-06
4.76314e-07
1.95892e-06
4.73591e-07
1.92986e-06
9.19713e-07
4.41496e-07
1.06109e-07
1.06623e-07
4.44379e-07
9.29146e-07
1.72628e-06
1.94944e-06
4.71005e-07
1.94099e-06
4.67716e-07
9.22978e-07
4.43711e-07
1.05314e-07
1.05517e-07
4.43637e-07
2.53357e-07
2.53019e-07
1.71765e-06
2.50544e-07
2.51359e-07
5.10199e-08
5.0959e-08
5.16728e-08
5.1757e-08
1.74912e-06
2.51109e-07
2.50707e-07
2.53193e-07
2.5225e-07
5.08846e-08
5.08926e-08
9.43403e-07
1.92442e-06
4.73904e-07
1.72115e-06
9.38437e-07
1.95176e-06
4.77065e-07
4.50997e-07
1.06957e-07
4.48493e-07
1.05866e-07
4.51907e-07
1.05781e-07
4.5165e-07
1.05949e-07
9.41027e-07
1.73171e-06
1.95673e-06
4.8141e-07
1.93043e-06
4.79827e-07
9.34856e-07
9.40511e-07
1.71377e-06
1.93568e-06
4.76883e-07
1.91559e-06
4.72879e-07
9.38701e-07
4.50202e-07
1.06615e-07
1.06643e-07
4.49787e-07
4.50778e-07
1.05824e-07
1.05846e-07
4.49562e-07
5.02773e-08
5.01053e-08
4.99627e-08
5.0024e-08
1.75485e-06
2.42197e-07
2.45726e-07
2.44406e-07
2.47262e-07
5.00421e-08
5.01592e-08
5.0096e-08
5.02354e-08
5.05909e-08
5.02033e-08
5.04284e-08
5.03427e-08
2.50352e-07
2.47115e-07
1.72153e-06
2.48807e-07
2.45564e-07
5.0265e-08
5.01298e-08
5.03545e-08
5.04651e-08
1.76915e-06
2.47978e-07
2.45558e-07
2.49658e-07
2.47215e-07
4.45641e-07
1.06639e-07
4.42777e-07
1.07068e-07
9.24952e-07
4.77626e-07
1.94206e-06
1.71744e-06
9.27465e-07
4.74782e-07
1.93942e-06
9.34219e-07
4.79526e-07
1.94765e-06
1.71101e-06
9.38639e-07
4.81374e-07
1.92168e-06
4.43415e-07
1.05328e-07
1.05179e-07
4.43621e-07