/*--------------------------------*- C++ -*----------------------------------*\
| =========                 |                                                 |
| \\      /  F ield         | OpenFOAM: The Open Source CFD Toolbox           |
|  \\    /   O peration     | Version:  2206                                  |
|   \\  /    A nd           | Website:  www.openfoam.com                      |
|    \\/     M anipulation  |                                                 |
\*---------------------------------------------------------------------------*/
FoamFile
{
    version     2.0;
    format      ascii;
    arch        "LSB;label=32;scalar=64";
    class       volScalarField;
    location    "120";
    object      omega;
}
// * * * * * * * * * * * * * * * * * * * * * * * * * * * * * * * * * * * * * //

dimensions      [0 0 -1 0 0 0 0];

internalField   nonuniform List<scalar> 
66928
(
37.1552
33.2884
34.4803
34.349
37.4111
33.2593
35.3633
37.943
20.6523
21.1851
396.976
398.639
201.364
203.367
294.992
145.759
297.062
158.26
150.172
25.063
77.3351
297.05
160.317
25.696
149.911
78.1262
398.649
203.101
201.132
397.092
147.118
295.141
397.085
396.927
398.747
398.495
200.66
202.95
37.2051
201.125
203.047
396.912
396.978
398.474
398.604
36.0046
200.994
202.912
199.905
202.352
397.007
166.796
110.272
201.137
304.845
304.874
109.746
168.898
167.582
111.12
202.304
306.137
306.185
110.269
168.237
245.652
401.514
402.42
401.713
402.62
245.513
294.967
209.541
209.438
414.568
212.353
417.092
174.466
308.375
328.332
212.412
417.174
308.397
175.169
328.368
167.592
111.107
202.86
306.06
110.124
306.143
168.218
166.884
109.793
200.823
304.823
304.898
108.72
169.08
245.173
402.439
401.577
402.613
401.759
245.637
397.269
295.229
209.284
209.082
414.695
396.91
397.002
398.477
398.614
245.929
401.449
402.34
401.643
402.552
245.467
170.096
107.07
304.907
200.822
167.985
304.78
108.176
168.756
108.66
306.211
202.39
167.939
305.986
107.791
245.894
401.719
402.629
245.936
401.545
402.418
169.048
304.75
200.685
109.438
304.878
168.02
108.071
166.561
305.939
202.172
111.228
306.07
165.915
107.61
396.962
396.804
398.552
398.364
245.764
401.574
402.49
245.3
401.411
402.319
170.151
110.326
200.459
304.605
304.684
106.928
168.36
169.743
111.241
201.786
305.927
305.988
108.356
167.293
169.867
304.744
104.501
199.721
167.979
304.602
108.287
168.014
306.008
109.871
201.92
168.319
305.821
108.699
245.554
401.407
402.337
401.563
402.504
245.64
94.9804
36.591
61.8115
63.2557
61.0696
62.4568
98.3611
95.1597
36.8657
62.7583
62.5395
61.8271
61.7238
98.5286
100.076
59.126
61.3636
36.2804
96.794
60.9082
60.6288
100.651
35.8369
63.2326
63.9257
60.2107
60.9804
96.7807
17.5156
17.4835
51.0266
76.4372
144.416
103.197
75.6959
101.826
51.7271
53.3815
77.7506
149.471
109.483
76.318
108.958
52.3978
44.4578
76.2939
83.1268
40.2298
84.834
39.6697
43.6319
53.156
77.7072
146.84
110.194
109.277
76.5987
54.0087
44.3218
76.51
40.4978
87.4105
40.0342
86.3313
43.8211
51.3183
76.0231
146.423
105.829
75.0169
104.826
51.9469
98.7379
36.4326
62.4683
63.3991
96.5012
61.5956
61.8433
99.8813
35.9526
58.2451
59.1866
99.8195
61.588
62.4584
21.3721
35.1646
33.5974
37.4137
21.8458
35.4307
34.4069
38.4321
21.9535
35.5248
34.6791
38.9881
21.9663
35.5582
34.7678
38.7706
21.9332
35.7326
35.0377
39.1373
21.8742
35.9646
34.8644
39.1505
21.8467
35.7149
34.7416
39.3712
21.8503
35.7177
34.7485
39.2958
21.8733
35.8914
34.8273
39.2314
21.9774
35.9122
34.9701
39.7395
21.8381
35.961
35.0359
39.7114
21.8512
35.7475
34.767
39.0095
21.9883
35.7917
35.038
39.5498
21.8684
36.1358
34.8788
39.2273
21.8754
35.7798
35.2622
39.7591
21.9914
35.8305
34.9174
39.6521
21.8983
35.8696
34.7959
39.3253
33.0086
34.2297
34.7664
34.5856
37.6512
38.1252
34.2001
33.8881
35.9931
35.4069
35.0855
33.8842
35.5082
35.1564
37.7342
34.3974
33.5778
34.4712
36.5911
37.1195
38.2198
33.6905
32.7494
34.8839
34.7387
37.0781
38.2148
35.4899
33.3183
36.1604
35.8604
34.9255
35.027
35.6315
36.6199
37.8406
33.7668
33.0978
34.6295
38.1669
37.4642
38.4117
32.789
33.4772
35.2115
35.1888
36.6365
38.511
34.8794
35.2493
36.104
35.9344
35.0712
35.0088
36.1723
36.3662
38.0395
33.5291
33.5378
34.9412
38.3498
37.4085
38.3078
33.3044
33.3075
35.5419
35.4668
37.2325
38.3491
34.3709
35.396
36.4455
35.9868
35.3284
34.7631
36.205
36.9942
38.3555
33.1001
33.6615
35.4798
38.6077
36.1037
38.4211
33.7076
34.7258
35.3443
35.1966
36.1379
38.3331
35.3392
34.6665
35.9966
36.0664
35.1619
34.5299
36.2049
37.4196
38.1422
34.7519
34.4113
35.17
37.5012
36.8813
38.7181
34.5405
34.4473
35.2952
35.3412
36.6632
38.636
33.7705
34.8351
36.2359
36.0589
34.4191
35.2357
36.3365
36.5211
38.3255
32.9143
34.2129
35.3087
38.8735
37.6968
38.5212
33.0203
34.7542
35.4065
35.4932
37.4796
38.7583
35.5019
34.7028
36.0065
35.996
34.3419
35.2167
36.1882
35.723
38.6665
34.7459
34.2258
35.4158
38.7519
37.1427
38.512
34.8021
34.1676
35.3666
35.2449
37.0449
38.7995
35.059
34.2025
35.9861
36.409
34.8732
35.4778
36.2281
37.2698
38.2991
34.0044
34.2815
35.0681
38.4959
37.2997
38.4585
33.5963
34.7542
35.5645
35.3991
38.028
38.4979
34.7864
35.3921
36.0425
36.327
35.0028
34.4955
36.5591
36.1289
38.6889
33.83
34.3629
35.24
38.246
36.3403
38.6514
34.4928
33.3824
35.1867
35.5708
37.2609
38.5242
34.4314
34.4935
36.5634
36.6054
35.1452
34.5628
36.2185
37.5236
38.6049
33.3461
33.6526
35.7453
38.2113
36.94
38.9026
33.0336
33.7486
35.4247
35.4956
36.3997
38.4765
35.5156
35.7908
36.3345
36.2138
34.8447
34.2333
36.098
37.3429
38.3829
35.0493
33.6136
35.2444
38.5208
36.5847
38.5157
33.5034
34.6063
35.7399
35.1735
36.0395
38.39
34.6013
34.8181
36.6223
36.1362
34.3217
34.6093
36.4808
37.3668
38.3855
33.3016
33.6346
34.9739
37.9584
36.2346
38.5414
34.3205
34.1277
35.3443
35.1375
36.5132
38.4738
35.0697
35.2146
36.1032
36.248
34.9698
34.6954
36.1325
37.5736
38.0751
33.4841
34.4251
34.773
38.6383
37.324
38.5391
34.1499
33.3253
35.2083
35.5131
37.4794
38.3658
33.7193
35.052
36.1517
36.2621
33.763
35.0178
36.3113
36.4513
38.6324
33.9119
34.8271
35.3026
38.2533
37.6265
38.6734
34.3365
34.7857
35.3586
35.4798
36.0768
38.2982
35.4277
34.0511
36.1766
36.3114
35.495
34.4304
36.2636
37.4176
38.3779
34.6904
34.47
35.1691
38.1542
37.5637
38.4646
34.8364
34.1228
35.318
35.2787
36.6685
38.6323
34.7405
35.5052
36.0387
36.2849
33.9153
34.4661
36.3616
36.1825
38.2502
32.9298
34.2626
35.293
38.8623
36.7682
32.9047
34.3018
37.7262
34.184
33.5869
35.6798
36.2299
35.8218
34.5752
35.2777
38.5918
157.797
294.929
157.529
294.807
397.138
396.939
161.805
297.059
160.418
296.892
21.2287
20.8897
21.5816
21.2376
21.4238
21.753
21.68
78.892
150.649
25.9435
33.9861
150.591
25.5646
78.3075
398.743
398.495
74.1007
25.1811
143.59
33.7846
24.7696
146.728
74.4636
203.6
201.397
37.6206
203.363
201.255
158.084
294.993
158.319
294.949
397.079
396.973
162.259
297.053
162.198
296.968
20.8857
21.1482
20.8684
21.3952
21.6149
21.944
21.8908
78.7505
151.819
26.1823
34.5995
79.2033
151.56
25.161
398.61
398.5
76.1686
25.2599
147.835
33.6823
75.942
25.0061
148.349
203.66
201.676
38.5911
203.386
201.744
158.476
295.119
158.6
295.012
397.088
396.979
162.54
297.211
162.412
297.091
21.3081
21.8431
21.0596
21.8566
21.8473
21.9906
22.0518
79.9681
151.989
26.5247
34.1385
79.8881
151.867
25.2667
398.636
398.508
75.6444
25.5103
149.439
34.1999
76.0292
25.196
149.13
203.576
201.82
38.9126
203.576
201.908
158.388
295.108
158.318
295.081
397.071
396.991
162.245
297.167
162.624
297.056
21.0404
21.6311
21.7824
21.3483
22.0582
21.8595
22.0973
79.3961
151.784
26.6051
34.54
80.2158
151.662
25.3554
398.677
398.549
76.1472
25.8097
149.338
32.7888
75.7925
24.518
149.117
203.76
201.927
38.8172
203.585
202.007
158.612
295.256
158.482
295.143
397.101
396.973
162.625
297.138
162.587
297.024
21.4447
21.5257
21.304
21.7102
21.9061
21.8827
21.973
79.3649
151.845
26.684
33.8853
79.8411
151.9
25.3838
398.671
398.543
76.3495
25.8025
149.839
34.0239
76.7063
25.4062
149.378
203.855
202.011
39.1567
203.735
201.995
158.255
295.17
158.167
295.055
397.154
397.046
162.392
297.192
162.35
297.077
21.2519
21.65
21.1642
21.6895
21.8709
21.8657
22.0039
79.4502
151.766
26.6988
34.5565
79.528
151.836
25.6032
398.698
398.575
76.4581
25.8221
149.099
33.4413
76.6967
25.5221
148.932
203.741
202.186
39.1175
203.518
202.101
158.415
295.173
158.581
295.167
397.135
397.005
161.99
297.286
162.787
297.201
21.4913
20.9968
21.3342
21.3689
22.0345
21.9744
22.0382
79.2493
151.797
26.9829
34.2045
79.3393
151.693
26.5398
398.718
398.591
76.18
25.6746
149.059
33.4933
76.8636
25.2585
149.287
203.805
202.125
39.1729
203.765
202.144
158.426
295.238
158.435
295.162
397.139
397.021
162.667
297.232
162.438
297.135
21.5076
21.0105
21.3852
21.9077
21.8984
22.0372
22.1682
79.9256
151.651
26.6806
34.3704
79.7615
151.864
25.3579
398.794
398.655
76.2386
25.6772
149.792
33.4671
76.8896
25.2429
149.423
203.795
202.172
39.1658
203.719
202.202
158.877
295.223
158.826
295.114
397.129
397.012
162.543
297.247
162.375
297.147
21.5994
21.4537
21.1356
21.4691
21.9944
22.0837
22.1195
79.7558
151.789
26.7081
33.526
80.2701
151.846
26.238
398.788
398.617
76.3199
25.8139
150.05
33.9245
77.2815
25.2557
149.498
203.507
202.169
39.2164
203.546
202.054
158.54
295.205
158.977
295.067
397.149
396.991
162.375
297.218
162.862
297.108
21.1704
21.1783
21.3054
21.6778
22.0508
21.8973
21.9959
79.5543
152.038
26.4929
33.6734
79.6286
152.018
25.9968
398.813
398.64
76.1595
25.9295
149.958
32.7761
77.0145
25.2835
149.47
203.737
202.328
39.2178
203.748
202.201
158.455
295.202
158.608
295.155
397.16
397.033
162.379
297.235
162.485
297.09
21.0909
21.7261
21.3274
21.6569
22.0482
22.0521
21.9869
79.673
152.493
26.579
35.1551
79.0492
151.901
25.9971
398.787
398.567
75.9406
25.6483
149.671
34.245
76.7061
24.7083
149.556
203.765
202.227
39.1286
203.712
202.062
158.507
295.344
157.925
295.166
397.208
397.099
162.171
297.156
162.482
297.023
21.0694
21.46
21.2895
21.6779
22.0588
22.0434
21.8743
79.8498
152.228
26.6656
35.1587
79.0638
151.886
25.4747
398.707
398.525
76.8174
25.9205
149.645
33.0508
76.6734
25.0948
149.349
203.687
202.13
38.8745
203.724
202.129
158.746
295.21
158.9
295.096
397.154
397.033
162.414
297.248
162.324
297.156
21.7344
21.7612
21.4727
21.2517
21.9599
22.107
22.0671
79.2939
152.523
26.774
33.9854
79.5944
152.044
25.6526
398.706
398.588
76.6275
25.6485
149.368
34.0204
77.4882
25.0974
149.166
203.812
202.095
39.0567
203.722
202.037
158.749
295.203
158.885
295.091
397.171
397.08
162.553
297.256
162.792
297.086
21.4383
21.7093
21.5382
21.2371
21.9171
22.1135
21.9249
80.3085
152.352
26.6382
35.3236
80.1322
152.055
25.7382
398.788
398.619
75.9877
25.7177
148.972
33.5449
76.6985
24.485
148.931
203.552
202.109
39.2511
203.526
202.02
158.635
295.164
159.062
295.071
397.202
397.06
162.478
297.223
162.485
297.073
21.6621
21.7432
21.4715
21.8079
21.9288
22.0978
22.0027
80.4378
151.435
26.5234
33.5546
80.1348
151.707
25.9714
398.762
398.622
76.008
25.7445
149.64
34.0102
76.7745
24.6757
149.147
203.87
201.958
39.2996
203.832
201.891
158.568
295.184
158.649
295.071
397.2
397.096
162.406
297.23
162.398
297.063
21.5758
21.2322
21.1764
21.7611
22.0204
22.0072
22.2469
79.2358
151.668
26.6029
33.5727
79.6082
151.742
25.3243
398.766
398.591
77.0781
25.7711
149.811
33.4963
76.9907
25.2077
149.443
203.81
202.064
39.1377
203.798
201.971
158.465
295.195
158.487
295.088
397.155
397.036
162.49
297.224
162.368
297.186
21.5015
21.5511
21.8304
22.0498
80.2758
152.354
26.6716
33.6374
80.0391
151.882
26.1467
398.74
398.596
76.7978
25.6951
149.632
33.9347
76.9997
24.6538
149.425
203.888
202.171
39.0686
203.709
202.124
157.873
295.189
294.919
158.289
75.5093
142.388
25.269
32.872
24.2541
75.7459
147.241
74.8764
147.737
25.1162
32.3621
147.889
24.1568
75.762
156.051
294.934
156.403
294.923
155.988
294.895
294.936
157.856
73.1235
34.3054
147.456
25.5015
25.2444
75.8012
145.924
72.9144
34.0821
147.777
25.3558
145.734
25.1827
76.0135
201.516
203.132
37.7247
201.353
202.944
398.603
398.435
396.965
397.038
35.476
201.314
203.211
200.873
201.366
398.482
398.6
78.2265
145.819
26.0702
34.5245
25.3619
72.4839
150.037
161.403
297.051
296.89
160.59
78.0103
25.6219
147.208
34.6666
25.8239
149.838
74.3603
159.995
296.986
161.918
296.922
76.1986
34.5361
150.275
26.5458
26.1986
78.5941
146.009
159.312
296.92
296.885
161.607
74.2869
34.7651
26.6417
149.52
25.8352
147.176
79.3849
161.007
297.056
296.887
160.874
78.4175
26.0648
151
34.3167
25.6658
151.211
77.9326
160.899
297.127
297.037
161.206
76.7942
33.9126
149.878
25.1889
149.146
25.3087
76.6359
159.236
296.996
296.982
161.374
73.9289
33.8762
26.3585
151.13
25.4418
147.794
79.1273
157.505
297.042
297.106
161.428
202.225
200.18
37.3106
202.824
201.009
397.226
396.946
398.491
398.613
36.0554
202.882
201.159
202.204
200.322
396.911
397.072
74.2416
25.412
146.921
33.2601
24.3137
147.242
74.0768
156.472
295.131
294.8
156.421
156.281
295.003
294.858
156.143
71.1538
33.2038
24.5811
146.945
24.5536
145.159
72.9713
70.4715
32.9144
25.429
147.402
25.2171
144.612
74.9361
154.14
294.844
294.877
157.022
154.06
294.883
294.804
156.746
398.724
398.526
397.196
396.958
36.8978
202.977
201.518
202.37
199.966
398.485
398.709
396.959
397.077
396.985
396.919
398.567
398.48
200.31
201.591
37.9488
201.087
203.245
396.961
396.985
398.576
398.648
37.0832
201.224
203.332
199.878
202.779
157.692
294.971
155.752
294.944
74.9902
144.563
24.9269
34.2708
72.6355
147.827
24.7184
75.291
146.389
24.2544
34.4263
73.9512
147.772
25.2179
156.373
295.028
294.978
158.277
155.013
294.918
294.823
158.329
72.1134
34.3547
147.869
25.6653
145.552
25.416
75.2621
73.1073
34.1075
148.054
25.7247
143.807
24.9589
75.7068
200.788
202.691
37.8635
201.274
203.148
398.675
398.504
396.984
397.001
35.91
201.446
203.286
199.732
202.743
398.517
398.694
78.8938
146.495
25.8157
34.5395
76.2875
150.641
26.2083
161.775
296.912
160.628
296.899
78.8961
26.2922
147.695
34.9393
77.7242
25.7701
150.528
161.041
297.091
297.009
161.884
77.791
35.7538
151.019
26.5801
146.891
26.3485
79.4234
158.627
296.968
297.048
162.135
76.0287
34.3075
26.5174
150.329
25.922
148.734
79.2734
161.084
297.092
158.955
297.032
78.3747
25.9975
149.565
34.1549
77.3153
26.2702
150.556
161.413
297.076
160.192
297.013
75.5809
34.9259
151.294
25.7167
149.545
26.1499
77.4591
158.996
297.136
297.121
161.717
76.7485
34.5663
26.5617
151.07
26.3883
147.083
78.5279
160.13
297.048
297.065
161.449
201.573
200.424
37.9318
203.046
201.186
397.046
396.953
398.532
398.601
35.8349
203.137
201.372
201.766
200.348
396.974
397.094
75.1938
24.6158
144.417
34.177
72.3558
24.2359
147.679
157.332
294.836
154.594
294.88
157.11
294.896
154.798
294.855
73.7743
33.2578
24.8094
147.383
24.821
145.927
75.2166
71.5305
34.1381
25.5295
147.777
25.3168
145.087
75.5902
154.457
294.974
294.888
157.653
154.863
294.926
294.883
157.3
398.683
398.5
397.096
397.015
36.1616
203.323
201.293
202.854
201.351
398.501
398.701
397.019
397.162
397.039
396.951
398.695
398.53
200.155
202.478
38.5538
201.314
203.425
396.984
397.047
398.547
398.629
37.6412
201.456
203.291
200.671
202.268
157.841
294.935
156.643
294.955
76.1065
146.145
24.4507
34.3627
73.4618
148.264
25.3493
76.0875
144.783
25.3479
32.8448
74.1266
147.916
25.564
157.242
295.048
295.066
157.676
155.929
294.984
294.915
157.824
72.1995
33.7487
147.946
25.8022
146.143
25.0184
76.1407
72.4984
34.7222
148.038
25.7772
145.582
25.6252
75.7116
200.807
202.785
38.311
201.439
203.295
398.698
398.539
397.003
397.055
35.5619
201.479
203.523
200.456
202.029
398.537
398.714
79.8451
149.756
25.3864
35.4154
77.4198
150.86
26.4337
161.959
297.051
158.46
296.982
79.37
25.4767
147.952
34.5589
77.1851
26.4788
150.248
158.993
297.077
297.057
162.506
77.8935
35.5401
150.527
26.7802
148.46
25.9364
79.3175
158.37
296.922
296.926
161.98
76.988
34.3493
26.9838
150.522
26.1744
148.473
79.21
161.972
297.209
158.148
297.036
79.2109
25.9396
149.523
34.6739
74.188
25.6616
150.763
161.705
297.088
159.73
297.024
75.6127
34.7954
151.422
25.8106
150.405
26.2373
79.7749
160.614
297.079
297.221
161.678
76.9935
34.5985
26.4929
150.945
25.8177
149.475
78.8855
160.481
297.053
297.084
161.382
201.746
200.782
38.0695
203.205
201.381
397.129
397.003
398.521
398.634
36.8337
203.117
201.563
202.669
199.872
396.987
397.111
75.0181
24.3666
146.1
33.3014
72.6142
25.2845
148.271
157.644
295.052
155.469
295.012
157.267
294.95
155.212
294.968
71.9849
33.6025
25.6287
148.966
25.4499
145.778
73.9804
71.9414
34.0959
25.8093
148.171
25.0211
145.536
75.3636
155.66
295.081
295.019
158.186
154.484
295.007
294.99
157.566
398.68
398.534
397.178
397.042
36.3357
203.604
201.602
202.592
201.125
398.55
398.745
397.05
397.187
397.07
396.991
398.665
398.536
200.952
202.296
38.1781
201.411
203.274
397.015
397.039
398.564
398.658
36.6882
201.583
203.293
199.814
202.316
158.166
294.933
154.835
294.94
75.8479
145.695
25.4066
34.8355
74.0082
148.075
24.968
76.0462
146.165
24.6062
34.8823
71.198
148.173
25.544
156.548
295.148
295.016
157.851
156.509
295.006
294.984
158.394
73.5087
34.1779
148.847
25.6644
145.499
24.9717
75.8445
73.9184
34.0707
148.397
25.8916
146.423
25.1227
75.66
200.065
202.29
38.1901
201.523
203.566
398.711
398.578
397.002
397.038
36.8637
201.557
203.465
200.143
202.195
398.545
398.729
79.2114
148.1
25.7016
35.8988
74.8205
150.598
26.6363
161.831
297.076
158.97
296.93
79.1173
26.4096
149.214
35.5584
76.3993
26.547
150.461
159.826
297.057
297.009
162.049
76.0007
35.1264
150.538
26.8101
147.777
25.9656
79.2611
159.678
296.923
296.948
161.863
76.2442
35.6501
26.752
150.829
26.5182
146.615
79.3609
162.138
297.079
160.939
297.051
78.7167
25.4268
149.999
35.6841
76.3307
26.3897
151.391
161.728
297.122
158.287
297.089
77.0165
34.3071
151.156
25.8633
147.945
26.3073
79.2418
159.954
297.11
297.118
161.796
74.3517
35.834
26.7902
150.945
26.0013
149.03
79.5109
158.347
297.069
297.158
161.836
202.237
200.264
38.0127
203.066
201.412
397.125
397.017
398.556
398.635
35.3377
203.2
201.541
201.683
200.867
397.017
397.162
75.3459
25.4093
146.479
34.6381
72.0969
25.6254
148.582
157.739
295.066
155.743
295.049
157.454
295.043
155.248
294.999
73.7419
34.3496
25.0292
147.934
25.4264
147.726
75.9848
71.4554
34.036
25.8575
148.644
25.7091
146.974
75.6491
154.676
295.083
295.093
157.767
155.343
295.101
295.124
157.742
398.727
398.537
397.19
397.091
36.5472
203.728
201.765
202.719
201.329
398.569
398.737
397.069
397.238
397.112
397.013
398.683
398.554
201.102
202.737
38.2426
201.635
203.506
397.033
397.096
398.594
398.676
36.7216
201.504
203.42
200.965
202.781
157.867
294.978
157.23
294.924
76.0058
147.729
24.7506
35.1538
71.564
148.951
25.6487
75.376
147.303
25.5462
33.8712
72.7272
148.206
25.1991
157.198
295.086
295.189
157.612
156.709
294.951
294.971
158.213
72.5494
33.9372
148.206
26.041
147.11
25.3281
76.3873
73.4492
34.3875
148.05
25.8918
146.153
25.1139
76.2589
200.954
203.01
38.3144
201.521
203.475
398.753
398.606
397.034
397.067
36.7739
201.649
203.639
200.978
202.878
398.59
398.804
79.3669
148.127
26.2116
35.6024
76.0227
150.658
26.4659
162.265
297.06
160.49
296.874
79.6005
25.8557
149.147
35.22
76.7971
25.3667
150.695
161.506
297.101
297.121
161.86
76.6201
35.5097
150.684
26.8289
148.435
26.5384
79.3921
160.983
296.93
296.996
162.231
77.4011
35.4241
26.7468
150.74
26.5309
148.785
79.9706
161.735
297.16
159.732
297.08
79.3992
26.2931
148.39
34.737
74.6369
26.5121
150.704
161.946
297.1
158.43
297.091
75.9382
35.501
149.671
25.8855
150.534
26.3418
76.9909
160.189
297.032
297.134
161.6
77.5989
34.6556
26.6989
150.738
26.4722
148.453
79.0691
160.706
297.07
297.112
161.557
201.839
200.676
38.2244
203.196
201.406
397.15
397.02
398.572
398.646
36.6141
203.281
201.416
201.882
200.569
397.001
397.139
75.7701
25.2328
147.458
34.8859
71.8221
24.954
148.728
157.93
295.117
155.693
295.055
157.848
295.14
155.843
295.107
74.0311
34.3099
25.0213
148.375
25.1269
146.569
75.7933
73.0031
34.9153
25.7053
148.621
25.125
147.052
75.774
154.495
295.097
295.072
158.598
156.292
295.126
295.1
158.206
398.759
398.587
397.197
397.086
38.261
203.597
202.039
202.652
201.268
398.552
398.766
397.116
397.237
397.092
396.954
398.709
398.564
200.765
202.527
38.2566
201.433
203.322
396.998
397.027
398.616
398.69
35.5694
201.626
203.401
200.315
202.513
157.895
295.041
155.891
295.026
75.9228
146.782
25.4916
33.7152
74.2784
148.133
25.5948
75.4632
146.366
25.1764
33.9859
73.2576
148.423
24.546
156.758
295.073
295.061
158.066
156.203
295.045
295.031
158.1
71.9737
34.8627
148.21
25.806
146.897
25.5771
76.4407
73.5708
33.8471
148.466
25.7915
147.033
25.603
76.0519
201.136
203.098
38.3785
201.688
203.439
398.769
398.562
397.035
397.113
37.2864
201.545
203.383
201.016
202.782
398.53
398.726
79.6332
148.314
26.0915
35.3783
77.1898
150.651
26.4422
162.029
297.073
161.105
296.996
79.9757
26.0139
149.261
35.409
78.7385
25.7837
150.63
159.655
297.169
297.064
162.661
77.3296
34.773
151.27
26.751
148.585
26.4588
79.5825
161.159
296.959
296.937
162.199
78.8804
35.4878
26.9377
150.837
26.8285
146.658
80.104
161.508
297.093
158.242
297.07
79.6878
26.014
148.316
35.9532
74.7692
25.8166
150.806
161.798
297.092
158.401
297.008
76.8271
33.8861
151.113
26.2023
148.022
26.544
79.0025
160.11
297.092
297.119
161.632
77.3994
34.9143
26.7906
150.698
26.4425
148.151
79.361
158.308
297.057
297.053
161.769
201.928
200.542
38.1143
203.271
201.54
397.142
397.003
398.582
398.717
36.7147
203.214
201.779
202.759
200.735
397.078
397.144
75.4983
25.3698
146.322
34.5786
72.875
25.0494
148.323
158.272
295.102
157.262
295.072
158.239
295.125
156.858
295.097
72.1683
33.9747
25.2501
147.256
25.1147
145.48
76.1218
71.5276
33.834
25.7571
148.446
25.1487
145.824
75.9278
155.993
295.052
295.025
158.151
156.933
295.063
295.074
158.145
398.734
398.537
397.246
397.094
37.5219
203.133
201.771
202.778
201.032
398.526
398.722
397.066
397.228
397.082
396.975
398.732
398.567
201.021
202.575
38.4035
201.519
203.356
397.014
397.069
398.586
398.679
37.2112
201.554
203.33
200.534
202.447
158.111
294.972
154.788
294.905
75.409
146.682
24.754
34.585
73.1561
148.732
25.6489
75.4588
145.415
25.0006
33.693
72.594
147.892
25.3716
156.664
295.217
295.093
157.852
155.354
294.989
294.982
158.245
71.6376
33.966
149.115
25.7006
146.195
25.3211
75.9159
73.5377
35.2979
147.801
25.7945
145.849
25.4944
76.0226
200.914
202.444
38.3669
201.684
203.268
398.695
398.563
397.018
397.093
36.2631
201.642
203.355
201.337
202.454
398.537
398.732
79.1452
149.333
26.1128
34.6311
77.0756
151.625
25.7785
161.726
297.101
160.06
296.962
79.1471
25.838
149.321
35.2852
78.4473
25.3897
150.707
160.265
297.123
297.11
160.723
77.815
35.3624
150.919
26.9293
148.76
26.8066
79.8389
160.115
297.117
297.165
162.282
74.723
35.4047
26.8321
151.086
26.5976
149.868
79.9953
161.381
297.127
159.437
297.125
79.1667
26.3244
149.112
35.891
75.4209
26.0728
151.036
161.693
297.103
158.29
297.081
74.8379
33.8719
150.923
26.2758
148.771
26.0516
78.899
159.274
297.102
297.128
161.504
75.5161
34.6692
26.8559
151.349
26.0312
147.026
79.6541
158.467
297.117
297.109
162.121
202.165
200.51
38.5634
203.179
201.799
397.215
397.094
398.634
398.732
36.3578
203.346
201.587
202.534
201.061
397.031
397.214
76.2458
25.3653
146.667
34.95
71.4739
25.6547
148.727
157.834
295.111
156.157
295.076
157.959
295.092
156.961
295.028
73.7094
34.0012
25.2029
149.465
25.0249
146.116
74.1548
74.9535
35.1009
25.9098
148.681
25.7543
146.771
76.7389
155.624
295.139
295.13
157.891
156.42
295.076
295.122
158.305
398.741
398.548
397.21
397.101
38.1623
203.523
201.795
202.96
201.128
398.569
398.742
397.076
397.239
397.08
396.977
398.692
398.545
200.367
202.478
38.5138
201.59
203.317
397.021
397.086
398.564
398.664
37.0533
201.666
203.381
200.773
202.495
158.031
294.914
156.044
294.992
76.1268
145.536
25.0572
34.1284
72.2004
149.143
25.3886
76.0796
145.999
25.3224
33.7996
73.9765
148.217
25.5426
157.23
295.168
295.23
156.916
154.667
294.966
294.928
158.581
73.2268
33.9151
148.828
25.8151
147.584
25.5061
75.9371
74.948
33.688
147.972
25.8492
145.66
25.6821
75.983
201.184
202.791
38.5613
201.55
203.502
398.719
398.577
397.016
397.093
37.1234
201.442
203.516
200.849
202.239
398.547
398.738
80.2856
148.476
25.5734
34.3613
75.3978
151.256
26.5484
162.054
297.115
161.345
297.073
79.2637
25.9698
149.348
35.8278
78.2466
25.4664
151.191
159.814
297.152
297.23
160.582
78.3775
35.4448
150.879
27.0375
148.528
26.2672
79.4259
160.32
297.157
297.175
161.88
77.732
34.9645
26.803
151.134
26.597
149.26
79.3539
162.113
297.125
160.393
297.095
79.2757
26.5181
149.976
33.8755
77.2485
25.8855
150.954
161.946
297.179
161.044
297.066
77.4939
35.0308
149.729
25.8894
150.535
26.3314
77.9209
159.109
297.09
297.196
161.661
75.935
35.7776
26.7461
150.824
26.5307
149.506
79.1367
160.392
297.045
297.119
161.6
202.902
200.092
38.3776
203.6
201.693
397.15
397.053
398.659
398.789
36.6764
203.555
201.699
203.123
201.335
397.051
397.194
76.3469
24.7406
146.925
34.4627
75.4406
25.6896
148.783
158.19
295.149
156.032
295.029
158.434
295.083
156.332
295.083
72.0582
34.0215
25.5706
148.152
25.513
147.957
76.8894
74.3574
34.5066
25.8516
148.501
25.6291
147.29
76.436
155.362
295.117
295.213
158.351
157.024
295.059
295.054
158.572
398.752
398.57
397.227
397.107
37.068
203.363
202.025
202.952
201.473
398.482
398.725
397.099
397.242
397.1
397.009
398.688
398.545
200.929
202.521
38.5761
201.728
203.466
396.987
397.042
398.579
398.661
36.0565
201.59
203.445
200.051
202.49
158.544
294.988
157.343
294.998
75.992
146.461
24.7059
35.0832
72.735
148.172
25.5582
76.4183
145.602
25.197
33.8539
71.2758
148.071
25.5033
156.606
295.117
295.074
157.454
156.58
294.971
294.933
158.527
73.5996
34.2551
148.454
25.934
144.216
25.1829
76.5783
74.8689
34.907
148.518
25.8454
144.409
25.6721
76.5371
200.803
202.149
38.5103
201.735
203.502
398.717
398.566
397.049
397.082
37.2469
201.623
203.536
201.062
203.07
398.55
398.747
79.6919
148.536
25.8937
35.33
77.7121
151.082
26.79
161.679
297.138
159.947
297.134
79.6244
26.0606
148.804
35.7283
78.138
26.3801
151.228
159.166
297.129
297.119
162.74
78.458
35.4481
151.15
26.8565
149.034
26.0551
80.2321
158.833
297.072
297.109
161.766
76.6904
35.7699
26.7602
151.323
26.5527
149.218
79.3841
161.663
297.152
159.657
297.076
79.0395
25.3364
149.537
34.5257
75.835
26.3789
150.771
161.416
297.094
159.256
297.029
78.0129
35.1567
151.327
25.7851
150.478
25.8607
78.9125
160.116
297.176
297.152
161.98
77.0603
36.2876
26.5896
151.098
26.6261
147.448
79.5436
159.183
297.071
297.106
161.519
202.36
200.821
38.7503
203.445
201.702
397.189
397.022
398.695
398.768
36.1461
203.874
201.637
202.756
200.674
397.003
397.14
75.6694
25.2687
146.908
32.9861
73.5442
25.5432
148.49
158.155
295.171
156.652
295.117
157.926
295.096
157.197
295.057
74.1174
33.6179
25.7622
148.032
25.0706
146.898
74.4343
72.9046
34.8371
25.8694
148.45
25.6889
146.166
75.6371
156.524
295.121
295.069
158.255
156.274
295.058
295.016
157.751
398.626
398.51
397.227
397.059
38.2113
203.592
201.628
203.157
201.105
398.544
398.713
397.08
397.193
397.066
396.955
398.717
398.554
200.988
202.873
38.8276
201.384
203.598
397.004
397.007
398.614
398.714
37.4058
201.657
203.664
199.975
203.112
158.214
295.067
154.53
294.922
76.1232
147.076
25.4512
34.7931
71.4891
148.273
25.6511
75.9993
146.712
25.2801
34.9825
74.1856
147.974
25.0047
157.022
295.127
295.17
157.943
154.961
295.006
294.897
158.234
73.983
34.7045
148.767
25.8541
146.966
25.7057
75.6671
71.0465
34.1667
148.194
25.746
143.801
25.0649
75.8704
200.944
202.194
38.5657
201.441
203.545
398.721
398.531
397.055
397.071
37.444
201.737
203.466
200.272
203.003
398.513
398.692
79.731
148.584
26.2577
35.9863
77.9437
151.356
26.5334
161.946
297.189
160.459
297.085
79.1814
25.545
149.507
36.0619
75.9004
26.5785
151.111
160.093
297.116
297.139
160.711
75.7267
35.2008
151.297
26.7717
147.166
26.4921
79.6073
160.812
297.183
297.092
162.04
77.1824
35.2231
27.0049
151.819
26.2099
149.657
79.6818
161.647
297.266
160.315
297.143
79.3463
25.9334
147.351
35.6922
77.3157
25.7928
151.355
161.446
297.099
159.345
297.019
77.4648
35.2637
152.201
26.2876
148.879
26.2273
78.3124
159.371
297.195
297.187
161.739
76.6273
35.6985
27.0219
150.984
26.9276
150.035
79.1505
159.215
297.051
297.099
161.842
202.689
200.993
38.2867
203.674
201.6
397.154
397.013
398.648
398.737
35.9659
203.634
201.72
202.32
200.949
397.027
397.149
75.8201
25.3234
146.666
34.9106
73.6386
25.079
148.494
158.057
295.169
156.633
295.118
158.399
295.06
156.228
294.994
73.4935
34.3345
25.0109
148.987
25.0206
147.328
74.0712
71.3744
34.4016
25.8412
148.801
25.0426
147.145
76.0469
155.94
295.126
295.089
158.4
156.423
295.092
295.167
158.311
398.73
398.572
397.229
397.085
37.9569
203.525
201.56
203.271
201.215
398.535
398.762
397.064
397.231
397.098
396.994
398.717
398.542
200.989
202.677
38.4325
201.485
203.323
397.035
397.08
398.541
398.661
37.2124
201.599
203.429
200.504
202.607
158.132
294.971
157.116
294.961
75.6894
145.936
25.2296
34.5868
72.9484
148.763
24.8996
76.2385
146.888
25.4727
35.1568
71.8825
148.064
25.1046
155.904
295.264
295.229
157.127
156.427
295.078
295.008
158.011
73.0767
34.0024
149.228
25.787
147.333
25.485
75.4075
74.0576
34.1554
148.806
25.8113
144.936
25.4323
75.9621
201.134
202.989
38.7598
201.575
203.52
398.713
398.586
397.093
397.084
37.7787
201.758
203.688
200.244
203.165
398.563
398.793
79.7571
149.677
25.9898
35.8203
77.7592
151.168
26.3955
161.848
297.214
160.332
297.074
79.4215
26.4321
150.557
35.8858
77.5196
26.6084
151.06
160.647
297.074
297.166
162.371
77.6336
35.8306
150.973
26.7153
149.162
26.4208
79.5874
158.371
297.016
297.011
162.173
77.2866
35.9208
26.8308
150.675
26.6084
147.991
79.1064
161.498
297.239
159.217
297.11
79.1175
26.287
148.635
35.444
76.0379
26.0367
151.349
161.572
297.089
159.438
297.04
77.8891
34.4733
150.31
26.3386
149.024
25.8191
77.6982
159.359
297.11
297.171
161.577
76.2439
35.5307
26.8374
150.99
26.0013
148.847
79.079
159.32
297.066
297.117
161.624
203.056
201.084
38.2339
203.3
201.6
397.163
397.018
398.559
398.647
35.4598
203.32
201.768
201.959
200.995
397.035
397.151
75.5609
25.4424
145.759
34.1355
73.8719
25.6097
148.293
158.25
295.118
156.564
295.099
158.126
295.125
154.477
294.982
72.7802
33.6286
25.1858
149.249
25.5902
148.495
74.071
71.6223
33.8262
25.8364
148.295
25.6147
146.376
75.4407