/*--------------------------------*- C++ -*----------------------------------*\
| =========                 |                                                 |
| \\      /  F ield         | OpenFOAM: The Open Source CFD Toolbox           |
|  \\    /   O peration     | Version:  2206                                  |
|   \\  /    A nd           | Website:  www.openfoam.com                      |
|    \\/     M anipulation  |                                                 |
\*---------------------------------------------------------------------------*/
FoamFile
{
    version     2.0;
    format      ascii;
    arch        "LSB;label=32;scalar=64";
    class       volScalarField;
    location    "120";
    object      p;
}
// * * * * * * * * * * * * * * * * * * * * * * * * * * * * * * * * * * * * * //

dimensions      [0 2 -2 0 0 0 0];

internalField   nonuniform List<scalar> 
66928
(
-0.00670984
-0.00669882
-0.0066983
-0.00669816
-0.00670958
-0.0066983
-0.00673189
-0.00688894
-0.00669839
-0.00669797
-0.00670979
-0.0067099
-0.00670977
-0.00670988
-0.00670972
-0.00670946
-0.00670992
-0.00670999
-0.00670956
-0.00669813
-0.0067095
-0.00670978
-0.00670997
-0.00669811
-0.00670949
-0.00670953
-0.00670977
-0.00670975
-0.00670959
-0.00670962
-0.00670916
-0.00670958
-0.00673236
-0.00679942
-0.00673221
-0.00679954
-0.00673231
-0.00673213
-0.00679944
-0.00679941
-0.00679954
-0.00688883
-0.00682199
-0.00688897
-0.00682179
-0.00682159
-0.00688883
-0.00688898
-0.00682196
-0.00682177
-0.00668755
-0.0066873
-0.00671007
-0.00668757
-0.00670972
-0.00668757
-0.0066872
-0.00670987
-0.00668719
-0.00671017
-0.00668729
-0.00670977
-0.00668745
-0.00668678
-0.00670993
-0.00668726
-0.00670983
-0.00670983
-0.00668749
-0.00668742
-0.00670998
-0.00668751
-0.00670975
-0.00668741
-0.0067096
-0.00670993
-0.0067098
-0.00671001
-0.00670983
-0.00670985
-0.00670984
-0.00670974
-0.0067098
-0.00670996
-0.00670978
-0.00668703
-0.00671002
-0.00668715
-0.00670967
-0.00668666
-0.00668731
-0.0067098
-0.00668714
-0.00670987
-0.00668731
-0.00670957
-0.00668741
-0.00668689
-0.00670973
-0.00668712
-0.00670971
-0.00670967
-0.00668727
-0.00668732
-0.00670985
-0.00668734
-0.00668737
-0.00670957
-0.00668738
-0.00670951
-0.00675463
-0.00677717
-0.00675477
-0.00677701
-0.00677693
-0.00679945
-0.00679947
-0.00677714
-0.00677709
-0.00679962
-0.00675477
-0.00673185
-0.00673243
-0.00675464
-0.00673214
-0.00675458
-0.00675495
-0.00675484
-0.00673157
-0.0067323
-0.00675479
-0.00673203
-0.00675464
-0.00675514
-0.00675483
-0.00673234
-0.00673227
-0.00673214
-0.00675466
-0.00675469
-0.00677696
-0.00679936
-0.0067771
-0.00679969
-0.00677722
-0.00679956
-0.00677659
-0.00677686
-0.00679943
-0.00677693
-0.00679985
-0.00677711
-0.00679962
-0.00677639
-0.00686663
-0.00684417
-0.00686647
-0.00684427
-0.00684434
-0.0068219
-0.00682185
-0.00682168
-0.00684418
-0.00684421
-0.0068664
-0.00688917
-0.00686658
-0.00688877
-0.00686669
-0.00686609
-0.00688901
-0.0068663
-0.00688938
-0.0068664
-0.00688885
-0.00686657
-0.00686588
-0.00688908
-0.00684426
-0.00682202
-0.00682153
-0.00684417
-0.00682173
-0.00684411
-0.00684445
-0.00684432
-0.00682189
-0.00682124
-0.00684429
-0.00682164
-0.00684415
-0.00684468
-0.0068664
-0.00688885
-0.00688889
-0.0068666
-0.00686656
-0.00688905
-0.0066879
-0.00668717
-0.0067096
-0.00670972
-0.00668733
-0.00668706
-0.00670898
-0.00668779
-0.00668686
-0.00670955
-0.00670946
-0.00668697
-0.00668713
-0.00670885
-0.00675397
-0.00673204
-0.00673195
-0.0067546
-0.00673282
-0.00675448
-0.00675468
-0.00686707
-0.00686623
-0.00688876
-0.0068889
-0.00686633
-0.00686621
-0.00688822
-0.00669805
-0.00669799
-0.00668756
-0.00671037
-0.00668797
-0.00670939
-0.00668717
-0.00668786
-0.00671031
-0.00668628
-0.00671046
-0.00668746
-0.00670946
-0.00668631
-0.00668737
-0.00671029
-0.0066861
-0.00668717
-0.00670944
-0.00671057
-0.00668724
-0.00668602
-0.0067104
-0.00668624
-0.0067104
-0.00668736
-0.00670945
-0.00668735
-0.00668626
-0.00671026
-0.00668606
-0.00668722
-0.00671055
-0.00670947
-0.00668601
-0.00668726
-0.00671039
-0.00668697
-0.00671008
-0.00668772
-0.00670897
-0.00668677
-0.00668786
-0.00670974
-0.00677764
-0.00677664
-0.00679926
-0.0067994
-0.00679874
-0.00677679
-0.00677668
-0.00684341
-0.00684424
-0.00682176
-0.00682156
-0.0068224
-0.00684406
-0.00684419
-0.00674325
-0.00674337
-0.00674327
-0.00673189
-0.00692216
-0.00692225
-0.00692232
-0.00691094
-0.00710124
-0.00710121
-0.00710134
-0.00708983
-0.00728028
-0.00728031
-0.00728034
-0.007269
-0.00745945
-0.00745944
-0.00745945
-0.00744806
-0.00763862
-0.00763867
-0.00763856
-0.00762735
-0.00781801
-0.0078179
-0.00781785
-0.00780641
-0.00799732
-0.00799726
-0.00799728
-0.00798578
-0.00817683
-0.00817682
-0.00817685
-0.00816535
-0.0083564
-0.00835633
-0.00835643
-0.00834492
-0.00853574
-0.00853565
-0.00853572
-0.00852431
-0.00871482
-0.00871487
-0.00871482
-0.00870347
-0.00889372
-0.00889366
-0.00889364
-0.00888222
-0.00907252
-0.00907246
-0.00907269
-0.00906115
-0.00925141
-0.00925137
-0.00925139
-0.00923999
-0.00943042
-0.00943037
-0.00943036
-0.00941891
-0.00960979
-0.00960963
-0.00960968
-0.00959822
-0.00674331
-0.00674339
-0.00687761
-0.0068776
-0.00673203
-0.00688895
-0.00674324
-0.00674322
-0.00687761
-0.0068776
-0.00674335
-0.00687753
-0.0068775
-0.0067318
-0.00688895
-0.00674332
-0.0068776
-0.00687751
-0.0068889
-0.00691099
-0.00706797
-0.00692232
-0.00692224
-0.00705655
-0.00705654
-0.00691095
-0.00706791
-0.00692231
-0.00692236
-0.00705663
-0.00705668
-0.00692226
-0.00705652
-0.00705652
-0.00691105
-0.00706804
-0.00692224
-0.00705662
-0.00705651
-0.00706787
-0.00708997
-0.00724698
-0.00710129
-0.00710121
-0.00723561
-0.00723563
-0.00708992
-0.00724691
-0.0071013
-0.00710134
-0.00723562
-0.00723561
-0.00710121
-0.00723556
-0.00723557
-0.00709006
-0.00724688
-0.0071012
-0.00723563
-0.00723562
-0.00724698
-0.00726897
-0.00742602
-0.00728031
-0.00728028
-0.00741474
-0.00741469
-0.0072689
-0.00742599
-0.00728035
-0.00728033
-0.0074147
-0.00741464
-0.00728028
-0.00741463
-0.00741465
-0.0072689
-0.00742606
-0.00728033
-0.00741469
-0.00741464
-0.00742596
-0.007448
-0.00760526
-0.00745944
-0.00745943
-0.0075939
-0.00759394
-0.00744811
-0.00760526
-0.00745938
-0.00745942
-0.00759391
-0.00759377
-0.00745941
-0.00759388
-0.0075939
-0.00744814
-0.00760513
-0.00745941
-0.00759383
-0.00759391
-0.00760523
-0.00762727
-0.00778455
-0.00763861
-0.00763867
-0.00777322
-0.00777309
-0.00762727
-0.0077844
-0.00763863
-0.00763852
-0.00777321
-0.00777309
-0.00763868
-0.00777306
-0.00777307
-0.00762715
-0.00778442
-0.00763868
-0.00777307
-0.0077731
-0.00778434
-0.00780657
-0.00796386
-0.00781796
-0.00781784
-0.00795254
-0.00795246
-0.00780644
-0.00796381
-0.00781798
-0.00781786
-0.0079525
-0.00795252
-0.00781786
-0.00795245
-0.00795238
-0.00780647
-0.00796396
-0.00781788
-0.00795251
-0.00795246
-0.00796369
-0.00798592
-0.00814327
-0.00799732
-0.00799724
-0.00813197
-0.00813192
-0.00798587
-0.00814329
-0.00799727
-0.00799733
-0.00813194
-0.008132
-0.00799724
-0.008132
-0.00813195
-0.00798596
-0.00814337
-0.00799731
-0.00813204
-0.00813195
-0.00814326
-0.00816537
-0.00832287
-0.00817678
-0.00817674
-0.00831154
-0.00831158
-0.00816533
-0.00832293
-0.00817676
-0.00817678
-0.00831154
-0.00831145
-0.00817681
-0.00831155
-0.00831155
-0.00816541
-0.00832284
-0.00817676
-0.00831154
-0.00831153
-0.00832289
-0.00834486
-0.00850224
-0.00835631
-0.00835631
-0.00849095
-0.00849089
-0.00834495
-0.00850211
-0.00835632
-0.00835632
-0.00849094
-0.00849089
-0.00835634
-0.0084909
-0.00849092
-0.00834491
-0.0085022
-0.00835639
-0.00849092
-0.00849097
-0.00850227
-0.00852426
-0.00868144
-0.00853567
-0.00853564
-0.00867011
-0.00867008
-0.00852416
-0.00868148
-0.00853567
-0.00853566
-0.00867013
-0.00867011
-0.00853562
-0.00867009
-0.00867007
-0.00852424
-0.00868144
-0.00853568
-0.00867011
-0.00867008
-0.00868142
-0.00870341
-0.00886037
-0.00871475
-0.00871479
-0.00884909
-0.00884899
-0.00870349
-0.00886031
-0.00871475
-0.00871479
-0.00884905
-0.00884892
-0.00871481
-0.00884902
-0.00884899
-0.00870343
-0.00886022
-0.00871478
-0.00884892
-0.00884897
-0.00886022
-0.00888239
-0.00903917
-0.00889371
-0.00889365
-0.00902785
-0.00902781
-0.00888226
-0.0090391
-0.0088937
-0.00889367
-0.00902789
-0.00902791
-0.00889365
-0.00902775
-0.00902791
-0.00888225
-0.00903924
-0.00889362
-0.00902795
-0.00902789
-0.00903918
-0.00906117
-0.00921803
-0.0090725
-0.00907244
-0.00920665
-0.00920673
-0.00906112
-0.00921803
-0.00907252
-0.0090726
-0.00920669
-0.00920669
-0.00907257
-0.00920667
-0.00920668
-0.00906128
-0.00921805
-0.00907257
-0.00920668
-0.00920671
-0.00921799
-0.00923998
-0.00939704
-0.00925134
-0.00925134
-0.0093857
-0.00938567
-0.00924
-0.00939699
-0.00925136
-0.00925136
-0.00938568
-0.00938556
-0.00925135
-0.00938565
-0.00938561
-0.00924001
-0.00939688
-0.00925134
-0.00938562
-0.00938559
-0.00939689
-0.00941906
-0.00957618
-0.00943038
-0.0094304
-0.0095649
-0.00956492
-0.00941905
-0.00957622
-0.00943035
-0.00943032
-0.00956493
-0.00956493
-0.00943033
-0.00956491
-0.0095648
-0.00941898
-0.00957617
-0.00943032
-0.00956489
-0.00956486
-0.00957613
-0.00959821
-0.00960965
-0.00960961
-0.00959827
-0.00960965
-0.00960959
-0.00960956
-0.0097442
-0.00959817
-0.00960962
-0.00974426
-0.0097556
-0.00679932
-0.00673232
-0.00673247
-0.00679939
-0.00673236
-0.00679936
-0.00679977
-0.00673216
-0.00673175
-0.00679956
-0.00674325
-0.00674322
-0.00674318
-0.00687758
-0.00687746
-0.00687743
-0.00687731
-0.00679931
-0.00673235
-0.00674332
-0.00678815
-0.00679927
-0.00678807
-0.00673219
-0.00673209
-0.00679951
-0.00679869
-0.00674324
-0.00673249
-0.00678807
-0.00678805
-0.00679894
-0.00673276
-0.0067321
-0.00673226
-0.00679948
-0.00679952
-0.00679935
-0.00697814
-0.00691134
-0.00691135
-0.00697817
-0.00691132
-0.00697823
-0.00697871
-0.00691115
-0.00691091
-0.00697844
-0.006922
-0.006922
-0.00692194
-0.00705661
-0.00705652
-0.00705646
-0.00705647
-0.00697827
-0.00691131
-0.00692216
-0.00696696
-0.00691112
-0.00697813
-0.00696691
-0.00691124
-0.00697845
-0.00697767
-0.00692217
-0.00691167
-0.00696705
-0.00691192
-0.00696688
-0.0069779
-0.00691107
-0.00691133
-0.00697844
-0.00697836
-0.00697825
-0.00715716
-0.00709026
-0.00709032
-0.00715715
-0.00709025
-0.00715711
-0.00715767
-0.00709007
-0.00708982
-0.0071574
-0.00710107
-0.00710107
-0.00710111
-0.00723569
-0.00723557
-0.00723567
-0.00723555
-0.00715718
-0.00709022
-0.00710112
-0.00714598
-0.00709013
-0.00715712
-0.00714592
-0.00709014
-0.00715736
-0.00715654
-0.00710119
-0.00709056
-0.00714605
-0.00709088
-0.00714593
-0.00715683
-0.00708993
-0.00709019
-0.00715733
-0.0071573
-0.00715711
-0.00733622
-0.00726927
-0.00726932
-0.00733619
-0.00726925
-0.00733622
-0.00733667
-0.00726906
-0.00726887
-0.0073364
-0.00728017
-0.00728026
-0.00728017
-0.00741475
-0.00741476
-0.00741465
-0.00741469
-0.0073363
-0.00726916
-0.00728033
-0.00732509
-0.00726904
-0.00733616
-0.00732501
-0.00726909
-0.00733638
-0.00733566
-0.00728032
-0.00726954
-0.00732512
-0.00726985
-0.00732508
-0.00733581
-0.00726897
-0.00726917
-0.00733637
-0.0073363
-0.00733614
-0.00751531
-0.00744826
-0.00744828
-0.00751527
-0.0074483
-0.00751524
-0.00751574
-0.00744812
-0.00744797
-0.00751547
-0.00745935
-0.00745929
-0.00745932
-0.00759392
-0.00759393
-0.00759389
-0.00759394
-0.00751542
-0.00744835
-0.0074594
-0.00750429
-0.00744828
-0.00751537
-0.00750425
-0.00744821
-0.00751547
-0.00751476
-0.00745937
-0.00744867
-0.00750423
-0.00744892
-0.00750417
-0.00751498
-0.00744811
-0.00744828
-0.00751561
-0.00751552
-0.00751533
-0.00769452
-0.00762751
-0.00762757
-0.00769453
-0.00762751
-0.00769457
-0.00769494
-0.00762726
-0.00762704
-0.00769474
-0.00763858
-0.00763853
-0.00763855
-0.00777331
-0.00777324
-0.00777313
-0.00777316
-0.00769464
-0.00762752
-0.00763861
-0.00768347
-0.0076274
-0.00769448
-0.0076834
-0.00762732
-0.00769466
-0.00769393
-0.00763855
-0.00762779
-0.00768339
-0.00762816
-0.00768338
-0.00769415
-0.00762738
-0.00762749
-0.00769484
-0.00769474
-0.0076946
-0.00787388
-0.00780683
-0.00780686
-0.00787384
-0.00780679
-0.00787384
-0.00787431
-0.00780661
-0.00780639
-0.00787402
-0.00781784
-0.00781779
-0.00781779
-0.00795257
-0.00795248
-0.00795244
-0.00795252
-0.00787399
-0.00780682
-0.00781781
-0.00786278
-0.00780672
-0.00787389
-0.00786264
-0.00780657
-0.00787394
-0.00787324
-0.00781784
-0.00780703
-0.00786268
-0.00780733
-0.00786262
-0.00787347
-0.00780659
-0.00780672
-0.00787405
-0.00787399
-0.0078738
-0.00805328
-0.00798618
-0.00798618
-0.00805321
-0.00798618
-0.00805332
-0.00805373
-0.00798596
-0.00798573
-0.00805344
-0.00799721
-0.00799711
-0.00799719
-0.00813208
-0.00813201
-0.00813203
-0.00813203
-0.00805332
-0.00798612
-0.00799723
-0.00804218
-0.00798609
-0.00805326
-0.00804217
-0.00798595
-0.00805341
-0.00805272
-0.0079972
-0.00798648
-0.00804215
-0.00798681
-0.00804212
-0.00805294
-0.00798596
-0.00798613
-0.00805358
-0.00805346
-0.00805328
-0.00823282
-0.00816567
-0.00816568
-0.00823284
-0.00816566
-0.00823275
-0.00823323
-0.00816543
-0.00816528
-0.00823301
-0.00817677
-0.00817679
-0.00817679
-0.00831164
-0.00831155
-0.00831161
-0.00831158
-0.00823294
-0.0081657
-0.00817679
-0.00822177
-0.00816567
-0.00823281
-0.00822172
-0.00816554
-0.00823299
-0.00823222
-0.00817679
-0.00816603
-0.00822176
-0.00816633
-0.00822171
-0.00823246
-0.00816547
-0.00816565
-0.00823313
-0.00823297
-0.00823284
-0.0084123
-0.00834523
-0.00834528
-0.00841231
-0.00834524
-0.00841232
-0.00841275
-0.008345
-0.00834481
-0.00841245
-0.00835626
-0.00835627
-0.00835633
-0.00849103
-0.00849097
-0.00849098
-0.00849092
-0.00841237
-0.00834522
-0.00835628
-0.00840117
-0.00834516
-0.00841222
-0.00840114
-0.00834509
-0.00841251
-0.00841183
-0.00835633
-0.00834556
-0.00840124
-0.00834578
-0.00840117
-0.00841203
-0.00834503
-0.00834519
-0.00841255
-0.00841252
-0.00841237
-0.00859159
-0.00852459
-0.00852466
-0.00859157
-0.00852454
-0.00859157
-0.00859208
-0.0085244
-0.00852415
-0.00859186
-0.00853562
-0.00853564
-0.00853558
-0.00867022
-0.00867006
-0.00867005
-0.00867009
-0.00859164
-0.00852454
-0.00853563
-0.00858045
-0.00852449
-0.00859163
-0.00858045
-0.00852446
-0.00859178
-0.008591
-0.00853569
-0.00852488
-0.00858047
-0.00852517
-0.00858047
-0.00859124
-0.00852434
-0.00852454
-0.00859182
-0.0085918
-0.00859164
-0.0087706
-0.00870377
-0.00870379
-0.00877067
-0.00870375
-0.0087707
-0.00877111
-0.00870356
-0.00870332
-0.00877085
-0.00871467
-0.00871474
-0.00871468
-0.00884915
-0.00884908
-0.00884908
-0.00884905
-0.0087708
-0.00870371
-0.00871475
-0.00875957
-0.00870363
-0.00877066
-0.00875949
-0.00870354
-0.00877075
-0.00876996
-0.00871478
-0.00870398
-0.00875949
-0.00870425
-0.00875948
-0.00877022
-0.00870356
-0.00870367
-0.00877087
-0.00877082
-0.00877057
-0.00894944
-0.00888259
-0.00888263
-0.00894947
-0.0088826
-0.00894944
-0.00894996
-0.00888242
-0.00888218
-0.00894968
-0.00889359
-0.00889361
-0.00889359
-0.00902795
-0.0090279
-0.00902798
-0.00902795
-0.00894951
-0.0088826
-0.00889366
-0.00893834
-0.00888248
-0.00894948
-0.0089383
-0.00888249
-0.00894965
-0.00894898
-0.00889362
-0.00888293
-0.00893837
-0.00888318
-0.0089383
-0.00894918
-0.00888235
-0.00888251
-0.00894978
-0.00894959
-0.00894946
-0.00912825
-0.00906146
-0.00906149
-0.00912829
-0.00906139
-0.0091283
-0.00912877
-0.00906126
-0.00906104
-0.00912853
-0.00907242
-0.00907252
-0.00907254
-0.00920678
-0.00920677
-0.00920669
-0.0092068
-0.00912841
-0.00906145
-0.00907247
-0.00911717
-0.00906132
-0.00912832
-0.00911718
-0.00906128
-0.0091285
-0.00912783
-0.00907259
-0.00906174
-0.0091173
-0.00906202
-0.00911722
-0.00912804
-0.00906121
-0.00906141
-0.0091286
-0.00912851
-0.00912838
-0.00930712
-0.00924028
-0.00924031
-0.00930713
-0.00924028
-0.00930712
-0.00930765
-0.00924008
-0.0092399
-0.00930736
-0.00925132
-0.00925133
-0.0092513
-0.00938576
-0.00938575
-0.00938571
-0.00938573
-0.00930725
-0.00924027
-0.00925133
-0.00929618
-0.00924023
-0.00930716
-0.00929613
-0.00924015
-0.0093074
-0.00930668
-0.00925134
-0.00924064
-0.00929615
-0.00924091
-0.0092961
-0.00930684
-0.00924012
-0.0092403
-0.0093074
-0.00930739
-0.00930723
-0.0094863
-0.00941931
-0.00941936
-0.00948633
-0.0094193
-0.00948634
-0.0094867
-0.0094191
-0.00941887
-0.0094865
-0.00943034
-0.00943032
-0.00943033
-0.00956505
-0.00956491
-0.00956496
-0.00956493
-0.00948637
-0.00941933
-0.00943035
-0.00947514
-0.00941917
-0.00948627
-0.00947516
-0.00941915
-0.00948638
-0.00948566
-0.00943033
-0.00941958
-0.00947512
-0.00941984
-0.00947514
-0.00948589
-0.00941904
-0.00941922
-0.0094865
-0.00948644
-0.00948625
-0.00966551
-0.00959853
-0.00959862
-0.00966556
-0.00959851
-0.0096655
-0.00966607
-0.0095983
-0.00959809
-0.00966578
-0.00960954
-0.00960971
-0.00960955
-0.0097441
-0.00966567
-0.00959847
-0.00960957
-0.00965445
-0.00959844
-0.00966561
-0.00965443
-0.0095983
-0.00966572
-0.00966498
-0.00960967
-0.00959872
-0.00965448
-0.00959909
-0.00965451
-0.00966526
-0.00959835
-0.00959846
-0.00966576
-0.00966582
-0.0096656
-0.00679932
-0.00673234
-0.00679935
-0.00673247
-0.00679867
-0.00673263
-0.00674345
-0.006788
-0.00678799
-0.00673311
-0.00679899
-0.00679868
-0.00673271
-0.00674342
-0.00678803
-0.00679894
-0.00678799
-0.00673314
-0.00682192
-0.00688881
-0.00688872
-0.00682201
-0.00682191
-0.00688876
-0.00682195
-0.00688869
-0.0068224
-0.00683283
-0.00688844
-0.00687754
-0.0068328
-0.00688809
-0.00682234
-0.00682242
-0.00683286
-0.00688844
-0.00687757
-0.00682225
-0.00683287
-0.00688806
-0.00673238
-0.00673212
-0.00679948
-0.00679925
-0.00679959
-0.00673219
-0.00679952
-0.00688881
-0.00682193
-0.00682156
-0.00688885
-0.00688889
-0.00682189
-0.00682169
-0.00688891
-0.00682172
-0.00679929
-0.00673225
-0.00674318
-0.00678803
-0.00678788
-0.00673207
-0.00679926
-0.0067998
-0.00673203
-0.00679955
-0.00673172
-0.00679932
-0.00674321
-0.00673219
-0.00678797
-0.00678793
-0.00679925
-0.00673207
-0.00682141
-0.006889
-0.00688926
-0.00682174
-0.00682172
-0.00683287
-0.00688876
-0.00687757
-0.0068328
-0.00688885
-0.00682192
-0.00682147
-0.00688903
-0.00682176
-0.0068892
-0.00682174
-0.00683277
-0.0068776
-0.00688881
-0.00683281
-0.00682193
-0.00688878
-0.00679976
-0.00673215
-0.00679952
-0.00673187
-0.00679926
-0.00674327
-0.00673232
-0.00678818
-0.0067881
-0.00679929
-0.00673223
-0.00679974
-0.00673211
-0.00679953
-0.00673189
-0.00682172
-0.00683286
-0.00688871
-0.00687746
-0.00682185
-0.00683279
-0.00688873
-0.00682138
-0.00688897
-0.00682169
-0.00688915
-0.00682165
-0.00683283
-0.00687741
-0.00688876
-0.00683284
-0.00682195
-0.00688876
-0.0068214
-0.00688899
-0.00682174
-0.00688917
-0.00673202
-0.00673219
-0.00679932
-0.0067995
-0.00679933
-0.00673225
-0.00679935
-0.00688902
-0.0068218
-0.00682143
-0.00688905
-0.00688885
-0.00682176
-0.00682188
-0.00688887
-0.00682191
-0.00679873
-0.00674329
-0.00673258
-0.00678818
-0.00678805
-0.00679894
-0.00673275
-0.00679932
-0.00673226
-0.00679933
-0.00673226
-0.00679932
-0.00673229
-0.00679932
-0.00673224
-0.00682244
-0.00683281
-0.00687742
-0.00688844
-0.00683276
-0.00682226
-0.00688818
-0.00682248
-0.00683286
-0.00687743
-0.00688846
-0.00683277
-0.00682226
-0.00688811
-0.00682192
-0.00688884
-0.00682195
-0.00688877
-0.00682194
-0.00688879
-0.00682192
-0.00688873
-0.00673213
-0.0067995
-0.00673228
-0.00679935
-0.00682151
-0.00688897
-0.00688882
-0.00682175
-0.0068219
-0.00688894
-0.00682178
-0.0068888
-0.00682191
-0.00691131
-0.00697821
-0.0069112
-0.00697838
-0.00691129
-0.00691115
-0.00697838
-0.00697821
-0.00697838
-0.0070677
-0.00700075
-0.00706784
-0.00700062
-0.00700047
-0.00706773
-0.00706788
-0.00700072
-0.00700059
-0.00697819
-0.00691132
-0.00691135
-0.00697819
-0.00697751
-0.00691164
-0.00692222
-0.006967
-0.00691188
-0.0069778
-0.00696696
-0.00697759
-0.00691163
-0.00692213
-0.00696699
-0.00691188
-0.00697782
-0.00696694
-0.00700075
-0.00706767
-0.00700077
-0.00706766
-0.00700078
-0.00706768
-0.0070008
-0.00706762
-0.00700125
-0.00701182
-0.00706738
-0.00705655
-0.0070011
-0.00701181
-0.00706706
-0.00700127
-0.00701181
-0.00706739
-0.00705655
-0.00700114
-0.00701186
-0.00706708
-0.00691131
-0.00691108
-0.00697831
-0.00697822
-0.00697839
-0.00691115
-0.00697837
-0.00706772
-0.00700078
-0.00700044
-0.00706776
-0.00706782
-0.00700077
-0.0070006
-0.00706782
-0.00700062
-0.0069783
-0.00691138
-0.00692218
-0.00696702
-0.00691129
-0.00697815
-0.00696691
-0.00697872
-0.00691117
-0.00691094
-0.00697848
-0.00697833
-0.00692219
-0.00691139
-0.00696705
-0.00691128
-0.00696693
-0.00697822
-0.00700034
-0.00706789
-0.00700061
-0.00706815
-0.0070007
-0.00701184
-0.00706771
-0.0070566
-0.00700081
-0.00701185
-0.00706774
-0.00700033
-0.00706797
-0.00700067
-0.00706814
-0.0070007
-0.00701191
-0.00705656
-0.00706773
-0.00701184
-0.00700089
-0.00706778
-0.00697865
-0.00691113
-0.00691086
-0.0069784
-0.00697827
-0.00692213
-0.00691131
-0.00696702
-0.00691118
-0.00696696
-0.00697811
-0.00697865
-0.00691111
-0.00691089
-0.0069784
-0.00700064
-0.00701179
-0.0070676
-0.00705646
-0.00700076
-0.00701176
-0.0070677
-0.00700026
-0.00706783
-0.00700058
-0.00706809
-0.00700064
-0.00701181
-0.00705647
-0.00706759
-0.00701179
-0.00700079
-0.00706768
-0.00700032
-0.00706782
-0.00700058
-0.00706809
-0.00691118
-0.00691137
-0.00697845
-0.00697846
-0.00697828
-0.0069114
-0.00697829
-0.00706792
-0.0070007
-0.00700056
-0.00706795
-0.00706775
-0.00700068
-0.00700079
-0.00706772
-0.0070008
-0.00697765
-0.00692208
-0.00691171
-0.00696701
-0.00691199
-0.0069669
-0.00697793
-0.00697821
-0.00691143
-0.00691138
-0.00697826
-0.0069782
-0.00691136
-0.00691142
-0.00697825
-0.00700143
-0.00701192
-0.00705653
-0.00706737
-0.00701177
-0.00700113
-0.0070671
-0.00700139
-0.00701184
-0.00705654
-0.00706733
-0.00701182
-0.0070012
-0.00706707
-0.00700083
-0.00706769
-0.00700083
-0.00706763
-0.00700086
-0.00706767
-0.00700083
-0.00706764
-0.00691113
-0.00697835
-0.00691134
-0.00697825
-0.00700052
-0.00706781
-0.00706767
-0.00700057
-0.00700078
-0.00706778
-0.0070006
-0.00706767
-0.00700077
-0.00709024
-0.00715718
-0.00709008
-0.00715734
-0.00709024
-0.00709006
-0.00715736
-0.00715719
-0.00715734
-0.00724668
-0.00717973
-0.00724682
-0.00717959
-0.00717947
-0.0072467
-0.00724686
-0.00717971
-0.00717957
-0.00715714
-0.00709027
-0.00709031
-0.00715714
-0.00715657
-0.00709058
-0.0071012
-0.00714604
-0.00709091
-0.00715679
-0.00714592
-0.00715656
-0.00709059
-0.00710116
-0.00714593
-0.00709092
-0.00715678
-0.00714592
-0.00717979
-0.00724667
-0.00717976
-0.00724665
-0.00717979
-0.00724667
-0.00717976
-0.00724668
-0.00718031
-0.00719082
-0.00724636
-0.00723561
-0.00718007
-0.0071908
-0.00724608
-0.00718031
-0.00719084
-0.00724635
-0.00723559
-0.0071801
-0.00719081
-0.00724606
-0.00709027
-0.00709002
-0.00715729
-0.00715705
-0.00715743
-0.00709006
-0.00715733
-0.0072467
-0.00717969
-0.00717939
-0.00724675
-0.00724677
-0.00717968
-0.00717954
-0.00724675
-0.00717954
-0.00715721
-0.00709034
-0.00710121
-0.00714605
-0.00709019
-0.00715715
-0.00714594
-0.00715768
-0.00709011
-0.00708985
-0.0071574
-0.00715721
-0.00710121
-0.00709029
-0.00714608
-0.0070902
-0.007146
-0.00715712
-0.00717934
-0.00724688
-0.00717959
-0.00724716
-0.00717963
-0.00719081
-0.00724665
-0.00723564
-0.00717981
-0.00719082
-0.00724675
-0.00717937
-0.00724688
-0.00717958
-0.00724718
-0.00717961
-0.00719088
-0.00723563
-0.00724668
-0.00719093
-0.00717978
-0.0072468
-0.0071576
-0.00709
-0.00708982
-0.00715734
-0.00715724
-0.00710116
-0.00709015
-0.00714597
-0.00709015
-0.00714595
-0.00715706
-0.00715762
-0.00708995
-0.0070898
-0.00715732
-0.00717959
-0.00719078
-0.00724656
-0.00723559
-0.0071797
-0.00719078
-0.00724667
-0.00717926
-0.00724681
-0.0071795
-0.00724707
-0.00717961
-0.00719081
-0.00723554
-0.00724662
-0.00719076
-0.00717975
-0.00724668
-0.00717927
-0.00724683
-0.00717953
-0.00724709
-0.00709007
-0.00709024
-0.00715735
-0.00715737
-0.0071572
-0.00709025
-0.00715718
-0.00724684
-0.00717961
-0.00717946
-0.00724689
-0.0072467
-0.00717958
-0.00717973
-0.00724668
-0.00717973
-0.0071565
-0.00710117
-0.00709056
-0.00714602
-0.00709091
-0.00714595
-0.00715673
-0.00715715
-0.00709026
-0.00709025
-0.00715715
-0.0071571
-0.00709025
-0.00709032
-0.00715708
-0.00718032
-0.00719083
-0.00723558
-0.00724634
-0.00719076
-0.00718011
-0.00724599
-0.00718031
-0.00719086
-0.00723558
-0.00724634
-0.00719081
-0.00718003
-0.007246
-0.00717978
-0.00724667
-0.00717976
-0.00724666
-0.00717975
-0.00724661
-0.00717971
-0.00724664
-0.00708997
-0.00715726
-0.0070902
-0.00715712
-0.00717945
-0.0072468
-0.00724663
-0.00717949
-0.00717966
-0.00724677
-0.00717953
-0.00724662
-0.00717967
-0.00726923
-0.00733621
-0.00726908
-0.00733638
-0.00726922
-0.00726906
-0.00733644
-0.00733624
-0.0073364
-0.00742569
-0.00735877
-0.00742589
-0.00735865
-0.00735857
-0.00742574
-0.00742592
-0.00735878
-0.00735866
-0.0073362
-0.00726928
-0.00726939
-0.00733618
-0.00733559
-0.00726963
-0.00728021
-0.00732503
-0.00726995
-0.0073359
-0.007325
-0.00733564
-0.00726956
-0.0072802
-0.00732509
-0.00726995
-0.0073359
-0.00732502
-0.00735883
-0.00742567
-0.00735877
-0.00742569
-0.00735881
-0.00742572
-0.00735877
-0.00742569
-0.00735936
-0.00736997
-0.00742538
-0.00741473
-0.00735917
-0.00736994
-0.0074251
-0.00735942
-0.00736994
-0.00742541
-0.00741471
-0.00735914
-0.00736996
-0.00742512
-0.00726922
-0.00726897
-0.00733641
-0.00733623
-0.00733635
-0.00726901
-0.00733633
-0.00742573
-0.00735877
-0.00735853
-0.00742579
-0.00742592
-0.00735876
-0.0073586
-0.0074259
-0.00735862
-0.00733634
-0.00726924
-0.00728025
-0.00732507
-0.00726921
-0.00733615
-0.00732499
-0.0073367
-0.00726908
-0.00726889
-0.00733642
-0.00733632
-0.00728026
-0.00726927
-0.00732511
-0.00726924
-0.00732503
-0.00733617
-0.00735836
-0.00742595
-0.00735861
-0.00742626
-0.00735878
-0.00736995
-0.00742578
-0.00741463
-0.00735887
-0.00736987
-0.00742585
-0.00735839
-0.00742599
-0.00735863
-0.00742624
-0.00735877
-0.00736991
-0.00741462
-0.00742581
-0.00736985
-0.00735888
-0.00742584
-0.00733664
-0.00726896
-0.00726878
-0.00733637
-0.00733625
-0.00728025
-0.00726926
-0.00732507
-0.00726911
-0.00732506
-0.00733611
-0.00733664
-0.00726899
-0.00726883
-0.00733631
-0.00735869
-0.0073699
-0.00742574
-0.00741465
-0.00735882
-0.00736987
-0.00742585
-0.00735828
-0.00742595
-0.00735859
-0.00742617
-0.00735869
-0.00736989
-0.00741464
-0.00742573
-0.00736989
-0.00735878
-0.00742582
-0.00735831
-0.00742591
-0.00735853
-0.00742619
-0.00726907
-0.00726921
-0.00733647
-0.00733641
-0.0073362
-0.00726922
-0.00733619
-0.00742595
-0.00735866
-0.00735859
-0.00742599
-0.00742577
-0.00735864
-0.00735877
-0.00742573
-0.00735875
-0.00733567
-0.00728022
-0.00726959
-0.00732509
-0.00726988
-0.00732504
-0.0073358
-0.00733613
-0.00726923
-0.00726933
-0.00733617
-0.00733615
-0.00726922
-0.00726933
-0.00733613
-0.00735935
-0.00736997
-0.00741463
-0.00742542
-0.00736994
-0.00735911
-0.00742513
-0.00735939
-0.00736989
-0.00741463
-0.0074254
-0.0073699
-0.00735912
-0.00742511
-0.00735876
-0.00742573
-0.00735878
-0.00742569
-0.0073588
-0.0074257
-0.00735875
-0.00742567
-0.007269
-0.00733627
-0.00726917
-0.00733614
-0.0073585
-0.00742592
-0.00742573
-0.00735854
-0.00735871
-0.00742587
-0.00735856
-0.00742572
-0.0073587
-0.00744825
-0.00751528
-0.00744813
-0.00751543
-0.00744824
-0.00744811
-0.00751548
-0.00751528
-0.00751545
-0.00760493
-0.00753787
-0.00760501
-0.00753771
-0.0075376
-0.00760496
-0.00760507
-0.00753786
-0.00753771
-0.00751533
-0.00744832
-0.00744835
-0.00751528
-0.00751477
-0.00744862
-0.0074594
-0.00750418
-0.00744892
-0.00751493
-0.00750413
-0.00751477
-0.00744866
-0.00745938
-0.00750425
-0.00744891
-0.00751493
-0.00750414
-0.00753793
-0.00760491
-0.00753789
-0.00760487
-0.00753795
-0.00760493
-0.00753796
-0.00760492
-0.00753851
-0.00754904
-0.00760459
-0.0075939
-0.00753826
-0.00754909
-0.0076043
-0.00753853
-0.00754915
-0.00760467
-0.00759392
-0.00753834
-0.00754913
-0.00760433
-0.00744829
-0.00744813
-0.00751562
-0.00751521
-0.00751564
-0.00744816
-0.00751555
-0.00760496
-0.00753789
-0.00753776
-0.00760502
-0.00760508
-0.00753792
-0.00753778
-0.00760509
-0.00753779
-0.00751541
-0.00744838
-0.00745936
-0.00750413
-0.00744839
-0.00751525
-0.00750412
-0.00751575
-0.00744817
-0.00744797
-0.0075155
-0.00751542
-0.00745933
-0.00744837
-0.0075042
-0.00744835
-0.00750416
-0.00751533
-0.00753743
-0.00760505
-0.00753768
-0.0076053
-0.00753781
-0.00754903
-0.00760486
-0.00759389
-0.00753789
-0.00754905
-0.00760496
-0.0075374
-0.0076051
-0.0075377
-0.00760532
-0.00753777
-0.00754901
-0.00759383
-0.0076049
-0.00754912
-0.00753796
-0.00760495
-0.00751582
-0.00744812
-0.00744792
-0.00751557
-0.0075154
-0.00745939
-0.00744838
-0.00750423
-0.00744829
-0.00750424
-0.00751531
-0.00751581
-0.00744811
-0.00744792
-0.00751551
-0.00753784
-0.00754913
-0.00760493
-0.00759384
-0.00753798
-0.00754908
-0.00760496
-0.00753749
-0.00760515
-0.00753777
-0.00760537
-0.00753782
-0.00754914
-0.00759395
-0.00760494
-0.00754917
-0.00753798
-0.00760499
-0.00753751
-0.00760514
-0.00753776
-0.00760534
-0.00744818
-0.00744832
-0.00751559
-0.00751552
-0.00751534
-0.00744831
-0.00751533
-0.00760505
-0.00753774
-0.00753769
-0.00760508
-0.00760493
-0.00753774
-0.0075379
-0.00760491
-0.00753789
-0.00751477
-0.00745938
-0.00744866
-0.00750423
-0.00744895
-0.00750423
-0.00751498
-0.00751527
-0.00744833
-0.00744839
-0.0075153
-0.00751528
-0.00744831
-0.00744838
-0.00751529
-0.00753851
-0.00754907
-0.00759387
-0.00760454
-0.00754907
-0.0075383
-0.00760431
-0.00753853
-0.00754913
-0.00759388
-0.00760464
-0.00754913
-0.00753828
-0.00760434
-0.00753791
-0.00760488
-0.00753795
-0.0076049
-0.00753794
-0.00760494
-0.00753791
-0.00760487
-0.00744812
-0.00751549
-0.00744826
-0.00751533
-0.00753773
-0.00760515
-0.00760497
-0.00753775
-0.0075379
-0.00760511
-0.00753777
-0.00760495
-0.0075379
-0.00762749
-0.00769454
-0.0076273
-0.00769471
-0.00762747
-0.00762731
-0.00769483
-0.00769457
-0.00769473
-0.00778422
-0.00771715
-0.00778437
-0.00771702
-0.00771698
-0.00778423
-0.00778441
-0.00771716
-0.00771701
-0.00769453
-0.00762754
-0.00762761
-0.00769454
-0.007694
-0.00762788
-0.00763861
-0.00768345
-0.00762818
-0.0076942
-0.00768346
-0.00769399
-0.00762787
-0.0076386
-0.00768347
-0.00762817
-0.00769423
-0.00768345