/*--------------------------------*- C++ -*----------------------------------*\
| =========                 |                                                 |
| \\      /  F ield         | OpenFOAM: The Open Source CFD Toolbox           |
|  \\    /   O peration     | Version:  2206                                  |
|   \\  /    A nd           | Website:  www.openfoam.com                      |
|    \\/     M anipulation  |                                                 |
\*---------------------------------------------------------------------------*/
FoamFile
{
    version     2.0;
    format      ascii;
    arch        "LSB;label=32;scalar=64";
    class       volScalarField;
    location    "40";
    object      nut;
}
// * * * * * * * * * * * * * * * * * * * * * * * * * * * * * * * * * * * * * //

dimensions      [0 2 -1 0 0 0 0];

internalField   nonuniform List<scalar> 
66621
(
3.08694e-08
1.28523e-07
2.90079e-08
4.47531e-07
1.47419e-07
1.20354e-06
1.35269e-08
4.76522e-07
9.74938e-07
1.21223e-06
1.49628e-07
9.5259e-07
6.94936e-08
7.09738e-08
1.36616e-08
1.30564e-08
9.36699e-07
7.19637e-08
6.78479e-08
9.57724e-07
1.50207e-07
7.07912e-08
1.35925e-08
4.45292e-07
9.5538e-07
1.45026e-07
1.20002e-06
1.30699e-07
3.0209e-08
4.4534e-07
9.64903e-07
1.20853e-06
1.4921e-07
1.31071e-07
3.00171e-08
4.45382e-07
9.62378e-07
1.20731e-06
1.45543e-07
1.3009e-07
2.94852e-08
9.50568e-07
7.03724e-08
7.01235e-08
1.3318e-08
4.76403e-07
9.76774e-07
1.21285e-06
1.51553e-07
1.37683e-07
2.96713e-08
1.37452e-07
3.01048e-08
1.32663e-08
1.34649e-08
6.57721e-08
1.19261e-08
1.88443e-08
1.04927e-07
2.17818e-08
1.28818e-07
1.046e-07
2.22038e-08
1.88774e-08
1.14148e-08
6.30628e-08
2.95712e-08
6.30314e-08
1.14721e-08
1.3547e-08
3.98432e-08
1.14089e-08
1.14118e-08
1.14055e-08
1.13952e-08
3.93013e-08
1.16166e-07
2.72474e-08
6.96667e-08
2.54952e-07
2.54629e-07
2.74012e-08
1.1603e-07
1.16826e-07
2.71464e-08
7.07146e-08
2.59674e-07
2.5916e-07
2.71515e-08
1.16833e-07
1.30661e-08
3.95645e-08
1.13555e-08
1.114e-08
1.13267e-08
1.11317e-08
3.8456e-08
1.16117e-07
2.76183e-08
2.59396e-07
2.76925e-08
1.16306e-07
1.14619e-07
2.64106e-08
6.82061e-08
2.5097e-07
2.66108e-08
1.14986e-07
2.5095e-07
1.15689e-08
3.95607e-08
2.78317e-08
2.5904e-07
1.17683e-07
1.91236e-08
2.19916e-08
1.0722e-07
1.31046e-07
2.21194e-08
1.06789e-07
1.9195e-08
1.1824e-08
6.5365e-08
3.07163e-08
6.53956e-08
1.18391e-08
1.07556e-07
2.21456e-08
1.89513e-08
6.47872e-08
1.1738e-08
2.19556e-08
1.05131e-07
1.86444e-08
6.34986e-08
1.1458e-08
3.97891e-08
1.14564e-08
1.14548e-08
1.14526e-08
1.14579e-08
3.90945e-08
1.17075e-07
2.73127e-08
7.05777e-08
2.56068e-07
2.75485e-08
2.55e-07
1.16705e-07
1.15827e-07
2.74597e-08
7.07023e-08
2.58506e-07
2.57252e-07
2.75949e-08
1.16756e-07
1.32947e-08
1.94902e-08
1.10924e-07
2.28606e-08
1.3735e-07
1.10718e-07
2.30867e-08
1.93822e-08
1.17379e-08
6.57578e-08
2.98301e-08
6.54193e-08
1.1721e-08
1.93785e-08
1.10081e-07
2.27052e-08
1.36815e-07
1.10599e-07
2.27184e-08
1.92556e-08
1.17131e-08
6.56059e-08
3.06037e-08
6.585e-08
1.17362e-08
1.34394e-08
1.24491e-06
1.20571e-06
1.20924e-06
1.08955e-06
1.25725e-06
1.21858e-06
1.2196e-06
1.10123e-06
1.25645e-06
1.21619e-06
1.20773e-06
1.09614e-06
1.25865e-06
1.21821e-06
1.21164e-06
1.10186e-06
7.42426e-07
3.78872e-07
8.10751e-07
4.4742e-07
3.79673e-07
8.11092e-07
7.43493e-07
2.57462e-07
4.33697e-07
6.59716e-07
7.57881e-07
8.31752e-07
3.99826e-07
4.76291e-07
8.32149e-07
3.97548e-07
7.60379e-07
6.71553e-07
2.65506e-07
1.49561e-07
4.39159e-07
4.36485e-07
2.62764e-07
6.76769e-07
3.18485e-07
9.4492e-07
5.49478e-07
5.56999e-07
5.49241e-07
5.56153e-07
3.20724e-07
3.16569e-07
9.36439e-07
5.45667e-07
5.4553e-07
3.15174e-07
5.49529e-07
5.46781e-07
2.62855e-07
4.36143e-07
6.62348e-07
7.35683e-07
3.72674e-07
8.0749e-07
4.4551e-07
3.72449e-07
8.07097e-07
7.36832e-07
6.47766e-07
2.53574e-07
1.45026e-07
4.25325e-07
2.52708e-07
4.2381e-07
6.50316e-07
7.40413e-07
8.09271e-07
3.78286e-07
4.45349e-07
8.09048e-07
3.79119e-07
7.41444e-07
6.57347e-07
2.57787e-07
1.48691e-07
4.34287e-07
2.57688e-07
6.59772e-07
4.31888e-07
7.38666e-07
8.09521e-07
3.75621e-07
4.442e-07
8.09594e-07
3.76063e-07
7.39859e-07
6.52318e-07
2.55405e-07
1.4553e-07
4.30915e-07
4.286e-07
2.54852e-07
6.55572e-07
3.18744e-07
9.43337e-07
5.4813e-07
5.56293e-07
5.55897e-07
5.47352e-07
3.19846e-07
7.58682e-07
8.31341e-07
3.99234e-07
4.76381e-07
8.32e-07
3.98813e-07
7.6102e-07
6.73317e-07
2.67618e-07
1.51254e-07
4.42878e-07
4.40064e-07
2.66708e-07
6.78528e-07
2.19821e-09
2.44148e-10
1.8214e-11
3.7706e-12
3.58297e-12
2.12472e-09
2.35503e-10
1.76666e-11
3.75908e-12
3.58591e-12
2.25811e-09
2.53497e-10
1.93743e-11
4.23812e-12
4.05755e-12
2.25292e-09
2.53231e-10
1.93597e-11
4.23581e-12
4.05556e-12
2.18042e-09
2.44912e-10
1.88258e-11
4.22078e-12
4.05414e-12
2.25579e-09
2.53263e-10
1.93565e-11
4.23935e-12
4.05947e-12
2.20687e-09
2.44515e-10
1.82327e-11
3.77487e-12
3.58722e-12
2.17362e-09
2.41283e-10
1.80345e-11
3.7705e-12
3.58791e-12
2.12643e-09
2.36089e-10
1.77098e-11
3.76115e-12
3.5868e-12
2.19658e-09
2.46614e-10
1.89237e-11
4.2204e-12
4.05135e-12
2.12705e-09
2.35715e-10
1.76672e-11
3.75202e-12
3.57854e-12
2.15069e-09
2.38319e-10
1.78339e-11
3.75728e-12
3.57959e-12
2.20076e-09
2.47247e-10
1.89779e-11
4.22692e-12
4.05669e-12
2.21453e-09
2.48705e-10
1.90632e-11
4.22318e-12
4.05012e-12
1.9208e-09
2.1396e-10
1.65334e-11
3.89128e-12
3.75941e-12
1.96776e-09
2.20613e-10
1.70973e-11
4.02896e-12
3.89424e-12
1.96199e-09
2.19894e-10
1.70453e-11
4.01617e-12
3.88167e-12
1.93178e-09
2.15133e-10
1.66084e-11
3.90469e-12
3.77221e-12
2.11374e-09
2.3433e-10
1.75887e-11
3.74214e-12
3.56919e-12
2.25146e-09
2.52826e-10
1.93288e-11
4.22409e-12
4.04321e-12
2.12323e-09
2.35442e-10
1.77046e-11
3.79727e-12
3.62614e-12
2.11739e-09
2.34772e-10
1.76552e-11
3.78367e-12
3.6127e-12
2.11736e-09
2.34701e-10
1.76522e-11
3.79406e-12
3.62445e-12
2.10591e-09
2.33678e-10
1.75828e-11
3.77636e-12
3.60661e-12
2.17341e-09
2.44171e-10
1.87733e-11
4.20635e-12
4.03981e-12
2.02767e-09
2.26922e-10
1.76643e-11
4.19289e-12
4.05592e-12
2.15681e-09
2.39148e-10
1.79292e-11
3.80468e-12
3.62818e-12
1.95261e-09
2.17438e-10
1.67532e-11
3.89846e-12
3.76111e-12
1.98392e-09
2.22234e-10
1.71955e-11
4.03158e-12
3.89443e-12
1.97681e-09
2.21429e-10
1.71391e-11
4.01903e-12
3.88223e-12
1.9604e-09
2.18307e-10
1.68126e-11
3.91148e-12
3.7738e-12
2.19894e-09
2.43755e-10
1.81809e-11
3.75901e-12
3.5711e-12
1.9745e-09
2.21296e-10
1.71298e-11
4.02781e-12
3.89243e-12
1.94942e-09
2.17227e-10
1.67412e-11
3.90769e-12
3.7718e-12
1.96157e-09
2.19959e-10
1.70472e-11
4.02512e-12
3.89192e-12
1.91442e-09
2.13178e-10
1.64767e-11
3.89946e-12
3.77044e-12
2.01782e-09
2.25806e-10
1.75955e-11
4.19007e-12
4.05444e-12
2.12968e-09
2.35971e-10
1.77285e-11
3.79731e-12
3.62586e-12
2.12426e-09
2.35505e-10
1.76915e-11
3.78132e-12
3.60914e-12
2.18947e-09
2.45982e-10
1.88796e-11
4.20397e-12
4.03427e-12
1.93645e-09
2.15645e-10
1.66241e-11
3.88561e-12
3.75118e-12
1.99393e-09
2.23283e-10
1.72462e-11
4.02563e-12
3.88722e-12
1.98596e-09
2.22632e-10
1.72033e-11
4.01132e-12
3.87236e-12
1.94332e-09
2.16407e-10
1.66774e-11
3.90055e-12
3.7662e-12
2.1209e-09
2.35059e-10
1.76166e-11
3.73393e-12
3.55994e-12
1.92362e-09
2.14253e-10
1.65357e-11
3.8827e-12
3.7504e-12
1.9852e-09
2.22472e-10
1.72022e-11
4.02442e-12
3.88688e-12
1.97635e-09
2.2178e-10
1.71548e-11
4.01032e-12
3.87266e-12
1.92964e-09
2.14915e-10
1.65839e-11
3.89795e-12
3.7661e-12
2.14509e-09
2.37629e-10
1.77802e-11
3.73851e-12
3.56013e-12
2.2024e-09
2.47641e-10
1.89911e-11
4.20656e-12
4.03379e-12
2.01515e-09
2.25531e-10
1.75797e-11
4.19e-12
4.05486e-12
2.00899e-09
2.24817e-10
1.75309e-11
4.18617e-12
4.0521e-12
2.24981e-09
2.51754e-10
1.92697e-11
4.24971e-12
4.07302e-12
2.16066e-09
2.41711e-10
1.86174e-11
4.2186e-12
4.05718e-12
2.17116e-09
2.42856e-10
1.86965e-11
4.23598e-12
4.07412e-12
2.02466e-09
2.26512e-10
1.76413e-11
4.1903e-12
4.05337e-12
2.14828e-09
2.38215e-10
1.78821e-11
3.80403e-12
3.62846e-12
2.14331e-09
2.3763e-10
1.78385e-11
3.78924e-12
3.61343e-12
2.0062e-09
2.24747e-10
1.75247e-11
4.17411e-12
4.03875e-12
1.99893e-09
2.23929e-10
1.74701e-11
4.17194e-12
4.03817e-12
1.99475e-09
2.23055e-10
1.74119e-11
4.18135e-12
4.05053e-12
2.14394e-09
2.3748e-10
1.78197e-11
3.79834e-12
3.62431e-12
2.12979e-09
2.36182e-10
1.77402e-11
3.78288e-12
3.6096e-12
1.96619e-09
2.1992e-10
1.72146e-11
4.1767e-12
4.05077e-12
2.0749e-09
2.29948e-10
1.73522e-11
3.7875e-12
3.62581e-12
2.06645e-09
2.29046e-10
1.72899e-11
3.77166e-12
3.60981e-12
1.98406e-09
2.22163e-10
1.73524e-11
4.16654e-12
4.03558e-12
1.95649e-09
2.19042e-10
1.71548e-11
4.16311e-12
4.03773e-12
2.24085e-09
2.5055e-10
1.91778e-11
4.23463e-12
4.05886e-12
2.24798e-09
2.51363e-10
1.92348e-11
4.25088e-12
4.0753e-12
2.22451e-09
2.48689e-10
1.90701e-11
4.24755e-12
4.07622e-12
2.16887e-09
2.42957e-10
1.86976e-11
4.23656e-12
4.07506e-12
2.01783e-09
2.25796e-10
1.75915e-11
4.17667e-12
4.03967e-12
2.00981e-09
2.2508e-10
1.75434e-11
4.17442e-12
4.03866e-12
2.17627e-09
2.43393e-10
1.87082e-11
4.21105e-12
4.04652e-12
2.1846e-09
2.44327e-10
1.87768e-11
4.2316e-12
4.06753e-12
2.17555e-09
2.4334e-10
1.8708e-11
4.21183e-12
4.04743e-12
2.1854e-09
2.44432e-10
1.87865e-11
4.23194e-12
4.06749e-12
1.36568e-08
1.31455e-08
9.25939e-07
7.1385e-08
6.82997e-08
1.29069e-07
2.91393e-08
4.45619e-07
9.37832e-07
1.44409e-07
1.16731e-06
1.30259e-07
3.07522e-08
4.45508e-07
9.35475e-07
1.16548e-06
1.48684e-07
9.34392e-07
1.44901e-07
2.93666e-08
1.35792e-08
9.12659e-07
7.07142e-08
7.04471e-08
1.33577e-08
4.74942e-07
9.5791e-07
1.19941e-06
1.48734e-07
4.75579e-07
9.59524e-07
1.20077e-06
1.50947e-07
1.36512e-07
3.00655e-08
1.36171e-07
3.01699e-08
9.15218e-07
6.97928e-08
7.08844e-08
1.3199e-08
1.35612e-08
1.14017e-08
1.11643e-08
3.80932e-08
2.76916e-08
2.57533e-07
1.15048e-07
2.64429e-08
2.49932e-07
1.14444e-07
1.87519e-08
1.04646e-07
2.19749e-08
1.30624e-07
1.8631e-08
1.0647e-07
2.24337e-08
1.14938e-08
6.26649e-08
2.93002e-08
1.14322e-08
6.35525e-08
1.90639e-08
2.24145e-08
1.06687e-07
1.32127e-07
1.89426e-08
2.23332e-08
1.08266e-07
1.18807e-08
6.52588e-08
3.03486e-08
1.18088e-08
6.58578e-08
1.14947e-08
6.32152e-08
2.98905e-08
1.14522e-08
6.40689e-08
1.36561e-08
3.89676e-08
1.15266e-08
1.14812e-08
3.88233e-08
1.15703e-08
1.15828e-08
1.17065e-07
2.74814e-08
2.55518e-07
7.12874e-08
2.57894e-07
1.16016e-07
2.76003e-08
1.17822e-07
2.75068e-08
2.58375e-07
7.1596e-08
1.16083e-07
2.7848e-08
2.60562e-07
1.34666e-08
1.93465e-08
1.10609e-07
2.31515e-08
1.37735e-07
1.93702e-08
1.1189e-07
2.28703e-08
1.1723e-08
6.55133e-08
3.03353e-08
1.17179e-08
6.59536e-08
1.91895e-08
1.10248e-07
2.2875e-08
1.37369e-07
1.92243e-08
1.11061e-07
2.28986e-08
1.17628e-08
6.57307e-08
3.02046e-08
1.17275e-08
6.62955e-08
3.93043e-08
1.14729e-08
1.14701e-08
3.94694e-08
1.15762e-08
1.15499e-08
1.17339e-07
2.73818e-08
2.54552e-07
6.97371e-08
1.16751e-07
2.57079e-07
2.74604e-08
1.18168e-07
2.73762e-08
2.59162e-07
7.16412e-08
1.17458e-07
2.61243e-07
2.75731e-08
1.33295e-08
1.35836e-08
1.24579e-06
1.21839e-06
1.19314e-06
1.09811e-06
1.2619e-06
1.22807e-06
1.20792e-06
1.10814e-06
1.25009e-06
1.18996e-06
1.20842e-06
1.10565e-06
1.25853e-06
1.20772e-06
1.21379e-06
1.11219e-06
5.47627e-07
5.40082e-07
3.1581e-07
7.26518e-07
3.72359e-07
7.89205e-07
4.48369e-07
7.19579e-07
3.7694e-07
7.95685e-07
6.46953e-07
2.52568e-07
4.19318e-07
1.46819e-07
4.26357e-07
6.37878e-07
2.55681e-07
7.30396e-07
7.90401e-07
3.77976e-07
4.5026e-07
7.23744e-07
7.98048e-07
3.82062e-07
6.54492e-07
2.57433e-07
4.27047e-07
1.4979e-07
6.45654e-07
2.60939e-07
4.33353e-07
6.50493e-07
2.54859e-07
4.23832e-07
1.47734e-07
6.41614e-07
2.57057e-07
4.30572e-07
3.20496e-07
9.31128e-07
5.41529e-07
5.51321e-07
5.45807e-07
3.19268e-07
5.55105e-07
7.5931e-07
8.3001e-07
3.98847e-07
4.76274e-07
7.55103e-07
8.27972e-07
4.00566e-07
6.72399e-07
2.64582e-07
4.32852e-07
1.51112e-07
6.62899e-07
4.39802e-07
2.6694e-07
7.59536e-07
8.28988e-07
3.98071e-07
4.75924e-07
7.55732e-07
8.27236e-07
3.99355e-07
6.74224e-07
2.66057e-07
4.36138e-07
1.52123e-07
6.64923e-07
2.68336e-07
4.41893e-07
3.21018e-07
9.3319e-07
5.42835e-07
5.51953e-07
3.20409e-07
5.47199e-07
5.5598e-07
1.25085e-06
9.46654e-07
1.25125e-06
9.43938e-07
9.68852e-07
9.30905e-07
9.36057e-07
9.30072e-07
9.60784e-07
9.62386e-07
9.65352e-07
9.68067e-07
9.39786e-07
9.34464e-07
9.42e-07
9.45605e-07
9.53892e-07
9.58425e-07
9.39688e-07
9.59691e-07
9.52682e-07
9.30235e-07
9.59338e-07
9.61881e-07
9.35482e-07
9.38564e-07
9.42719e-07
9.36451e-07
9.41171e-07
9.61851e-07
1.39735e-07
3.0171e-08
3.03714e-08
1.39381e-07
1.36989e-08
1.36491e-08
1.30212e-07
2.88318e-08
2.88079e-08
1.30436e-07
1.26253e-06
1.26441e-06
1.25867e-06
1.2475e-06
1.26176e-06
1.25974e-06
1.26021e-06
4.47162e-07
1.48298e-07
1.1768e-06
9.57811e-07
1.49185e-07
1.1959e-06
4.47085e-07
1.39735e-07
3.02284e-08
1.38655e-07
3.02761e-08
1.35767e-08
1.36213e-08
1.2974e-07
2.8744e-08
1.29673e-07
2.87479e-08
1.25946e-06
1.26114e-06
1.25767e-06
4.44893e-07
1.48504e-07
1.17187e-06
9.60824e-07
4.46765e-07
1.49027e-07
1.19944e-06
1.35827e-08
1.36176e-08
4.75345e-07
1.21242e-06
1.54954e-07
9.75749e-07
1.21081e-06
1.54808e-07
4.78589e-07
6.67834e-08
6.8914e-08
9.35385e-07
6.68374e-08
6.91986e-08
1.35534e-08
1.35594e-08
1.32182e-08
1.32001e-08
6.94842e-08
6.77646e-08
9.28957e-07
6.92689e-08
6.78243e-08
1.35833e-08
1.36447e-08
1.32041e-08
1.32726e-08
9.33699e-07
7.03863e-08
6.72305e-08
7.14813e-08
6.98604e-08
1.40318e-07
3.06662e-08
3.05793e-08
1.40062e-07
4.81897e-07
1.52701e-07
1.21297e-06
9.65322e-07
1.53046e-07
1.21258e-06
4.83398e-07
4.82605e-07
1.54163e-07
1.21356e-06
9.67445e-07
1.54107e-07
1.21569e-06
4.83421e-07
1.40071e-07
3.04451e-08
3.08067e-08
1.39986e-07
1.39459e-07
3.05049e-08
3.13815e-08
1.39528e-07
4.83082e-07
9.60744e-07
1.53273e-07
1.21355e-06
1.52869e-07
1.21437e-06
4.81597e-07
4.82446e-07
9.62285e-07
1.53371e-07
1.21592e-06
1.53176e-07
1.21506e-06
4.81937e-07
6.99026e-08
6.9242e-08
9.31902e-07
6.99289e-08
6.89851e-08
1.35199e-08
1.34868e-08
1.36202e-08
1.36738e-08
9.37012e-07
6.97945e-08
6.92144e-08
7.09659e-08
7.11732e-08
1.34904e-08
1.35547e-08
4.46111e-07
1.46249e-07
1.17157e-06
9.52481e-07
1.4582e-07
1.18955e-06
4.46545e-07
1.29906e-07
2.97171e-08
1.30262e-07
2.97224e-08
4.45367e-07
1.17535e-06
1.49504e-07
9.56928e-07
1.1941e-06
4.4636e-07
1.49835e-07
1.29397e-07
2.88069e-08
2.90973e-08
1.30328e-07
4.45936e-07
9.40178e-07
1.46225e-07
1.19251e-06
1.46071e-07
1.17126e-06
4.45754e-07
1.30651e-07
2.97979e-08
1.30178e-07
3.05662e-08
4.46805e-07
9.44268e-07
1.19681e-06
1.5054e-07
1.17306e-06
4.45475e-07
1.4999e-07
1.30745e-07
2.93743e-08
2.93725e-08
1.30706e-07
4.44865e-07
1.17554e-06
1.46511e-07
9.50735e-07
1.19412e-06
4.47623e-07
1.4666e-07
1.30516e-07
2.84001e-08
1.30375e-07
2.8565e-08
4.47671e-07
9.45488e-07
1.48512e-07
1.19823e-06
1.48617e-07
1.17556e-06
4.47316e-07
1.3043e-07
2.93445e-08
2.9661e-08
1.30845e-07
4.47059e-07
9.38177e-07
1.19693e-06
1.44434e-07
1.17323e-06
4.45304e-07
1.4531e-07
1.30311e-07
2.86408e-08
1.29677e-07
2.90587e-08
1.36334e-08
1.35745e-08
1.32008e-08
1.31363e-08
7.18288e-08
6.838e-08
9.3344e-07
7.04148e-08
6.75768e-08
1.39007e-07
3.09256e-08
1.38907e-07
3.06204e-08
4.82961e-07
1.52589e-07
1.21582e-06
9.6588e-07
4.82048e-07
1.52597e-07
1.21309e-06
4.82646e-07
1.52948e-07
1.21626e-06
9.68485e-07
4.81399e-07
1.52634e-07
1.21602e-06
7.1483e-08
7.07918e-08
9.39667e-07
7.03339e-08
7.0206e-08
1.35447e-08
1.35337e-08
4.46034e-07
1.45844e-07
1.1669e-06
9.55827e-07
4.4616e-07
1.46503e-07
1.19537e-06
1.30778e-07
3.01774e-08
1.3029e-07
3.00436e-08
4.46298e-07
1.17096e-06
1.50211e-07
9.607e-07
4.46997e-07
1.2005e-06
1.50296e-07
1.3053e-07
2.97724e-08
1.30171e-07
2.95791e-08
4.45139e-07
1.17085e-06
1.45077e-07
9.5459e-07
4.45416e-07
1.19912e-06
1.45331e-07
1.29661e-07
2.91788e-08
1.28987e-07
2.87008e-08
6.95244e-08
7.11023e-08
9.46206e-07
6.93408e-08
7.08068e-08
1.37751e-08
1.36953e-08
7.22125e-08
1.36553e-08
4.78125e-07
1.20775e-06
1.51702e-07
9.68143e-07
1.20749e-06
1.52422e-07
4.7739e-07
1.36233e-07
3.07061e-08
3.04361e-08
1.37801e-07
1.37083e-07
2.9922e-08
2.99386e-08
1.37359e-07
4.72334e-07
1.52874e-07
4.75239e-07
1.51176e-07
1.34328e-07
3.07443e-08
1.35045e-07
3.0451e-08
1.30498e-08
1.30152e-08
1.34221e-08
1.34526e-08
7.12433e-08
1.34656e-08
1.95324e-08
2.30092e-08
1.13569e-07
1.40137e-07
2.33767e-08
1.13301e-07
1.97608e-08
1.19511e-08
3.10975e-08
6.64307e-08
6.72648e-08
1.19616e-08
1.19716e-08
6.68085e-08
3.05192e-08
6.71627e-08
1.19884e-08
1.9582e-08
1.4088e-07
2.30719e-08
1.13632e-07
2.33247e-08
1.14233e-07
1.97336e-08
1.37722e-08
1.37357e-08
1.86115e-08
1.06199e-07
2.18099e-08
1.29693e-07
1.06066e-07
2.19629e-08
1.87908e-08
1.14909e-08
2.9202e-08
6.26687e-08
6.4075e-08
1.15251e-08
1.1539e-08
6.2659e-08
2.9321e-08
6.35051e-08
1.15169e-08
1.86374e-08
1.31159e-07
1.06362e-07
2.18295e-08
1.06857e-07
2.20963e-08
1.86835e-08
1.95587e-08
1.39655e-07
2.30623e-08
1.13265e-07
2.31943e-08
1.13425e-07
1.97146e-08
1.2012e-08
6.70897e-08
3.08956e-08
1.19912e-08
6.77425e-08
1.9748e-08
1.40254e-07
2.28786e-08
1.12991e-07
1.96755e-08
2.34363e-08
1.13719e-07
1.19972e-08
6.70864e-08
3.03937e-08
6.73999e-08
1.19891e-08
1.36478e-08
1.36437e-08
1.84839e-08
1.29301e-07
1.06347e-07
2.16581e-08
1.0613e-07
2.19299e-08
1.85738e-08
1.1391e-08
6.21322e-08
2.92027e-08
1.14125e-08
6.29873e-08
1.8491e-08
1.30209e-07
1.05628e-07
2.15427e-08
1.85893e-08
1.06373e-07
2.17343e-08
1.14275e-08
6.26383e-08
2.92387e-08
6.32132e-08
1.14115e-08
1.36297e-08
1.36748e-08
3.81909e-08
1.13521e-08
1.13274e-08
1.13773e-08
1.13662e-08
3.85992e-08
1.16033e-07
2.53628e-07
6.90532e-08
2.6823e-08
2.54295e-07
2.73917e-08
1.15291e-07
1.16009e-07
2.58649e-07
7.02295e-08
2.6707e-08
2.57861e-07
2.70844e-08
1.16274e-07
1.15329e-07
2.69388e-08
6.919e-08
2.54109e-07
2.54113e-07
2.70336e-08
1.14963e-07
1.1647e-07
2.68002e-08
7.11765e-08
2.57986e-07
2.58812e-07
2.72371e-08
1.16571e-07
3.91917e-08
1.13506e-08
1.13182e-08
1.14069e-08
1.13588e-08
3.87672e-08
1.36104e-08
1.36118e-08
1.32734e-08
1.32568e-08
3.71251e-08
1.12191e-08
1.11242e-08
1.12343e-08
1.11403e-08
3.84555e-08
1.14192e-07
2.58403e-07
7.19179e-08
2.69388e-08
2.72714e-08
2.57177e-07
1.142e-07
1.14682e-07
2.53294e-07
7.00652e-08
2.64641e-08
2.66744e-08
2.53558e-07
1.14267e-07
1.1493e-07
2.70737e-08
7.00849e-08
2.57093e-07
2.74324e-08
1.15283e-07
2.58417e-07
1.14165e-07
2.64725e-08
6.83797e-08
2.53251e-07
2.68087e-08
1.14511e-07
2.53529e-07
3.81537e-08
1.12008e-08
1.11152e-08
1.12132e-08
1.11516e-08
3.76623e-08
1.36367e-08
1.36112e-08
1.31963e-08
1.32794e-08
3.72477e-08
1.12523e-08
1.11525e-08
3.75202e-08
1.1248e-08
1.1154e-08
1.14888e-07
2.58822e-07
7.11883e-08
2.71837e-08
2.75321e-08
2.58646e-07
1.14703e-07
1.13551e-07
2.52651e-07
6.94702e-08
2.65134e-08
2.68643e-08
2.52574e-07
1.14861e-07
1.1559e-07
2.72566e-08
2.58502e-07
7.18846e-08
1.15119e-07
2.74182e-08
2.59183e-07
1.14159e-07
2.69487e-08
2.53014e-07
6.98538e-08
1.13374e-07
2.66207e-08
2.53144e-07
3.80889e-08
1.1242e-08
1.1154e-08
1.12616e-08
1.1172e-08
3.82105e-08
1.96243e-08
2.31835e-08
1.13018e-07
1.40101e-07
2.32974e-08
1.13218e-07
1.9825e-08
1.20863e-08
3.10516e-08
6.71188e-08
6.8218e-08
1.20958e-08
1.20925e-08
6.71575e-08
3.11223e-08
6.77526e-08
1.20575e-08
1.9743e-08
1.40833e-07
2.29596e-08
1.13495e-07
2.35003e-08
1.14237e-07
1.97373e-08
1.95607e-08
2.32124e-08
1.12907e-07
1.40549e-07
1.9746e-08
2.34172e-08
1.14118e-07
1.19464e-08
3.04413e-08
6.76577e-08
1.20022e-08
6.73908e-08
1.19549e-08
6.7189e-08
3.09207e-08
1.19481e-08
6.75382e-08
1.97351e-08
1.40098e-07
2.29819e-08
1.14181e-07
1.9656e-08
2.30152e-08
1.13762e-07
1.95212e-08
2.34725e-08
1.13574e-07
1.40172e-07
1.97221e-08
2.32068e-08
1.1367e-07
1.19785e-08
3.09771e-08
6.77631e-08
6.77856e-08
1.20692e-08
1.20006e-08
6.77475e-08
3.08229e-08
1.19872e-08
6.7963e-08
1.96945e-08
1.38862e-07
2.29623e-08
1.13769e-07
2.30781e-08
1.13614e-07
1.96434e-08
3.78677e-08
1.13627e-08
1.14105e-08
1.13788e-08
1.14271e-08
3.90198e-08
1.17092e-07
2.60705e-07
7.14473e-08
2.71386e-08
2.74939e-08
2.61115e-07
1.16872e-07
1.15414e-07
2.56583e-07
7.0584e-08
2.732e-08
2.56835e-07
2.78692e-08
1.15815e-07
1.16789e-07
2.70314e-08
7.17001e-08
2.59764e-07
2.74752e-08
2.60686e-07
1.17354e-07
1.15804e-07
2.73823e-08
7.10328e-08
2.56499e-07
2.57147e-07
2.74499e-08
1.1636e-07
3.87011e-08
1.1362e-08
1.14083e-08
1.14012e-08
1.14494e-08
3.85538e-08
1.35317e-08
1.35492e-08
1.3678e-08
1.3694e-08
3.78463e-08
1.14076e-08
1.14608e-08
3.82468e-08
1.13923e-08
1.14458e-08
1.16996e-07
2.58368e-07
7.1744e-08
2.7061e-08
2.59751e-07
2.74947e-08
1.17403e-07
1.15302e-07
2.56528e-07
7.12048e-08
2.74946e-08
2.76552e-08
2.5706e-07
1.16131e-07
1.17406e-07
2.72371e-08
2.61019e-07
7.18822e-08
2.61454e-07
1.16899e-07
2.73633e-08
1.1647e-07
2.78355e-08
2.56917e-07
7.01586e-08
1.16047e-07
2.76766e-08
2.56703e-07
3.93212e-08
1.13844e-08
1.1429e-08
1.13616e-08
1.14525e-08
3.83448e-08
1.35365e-08
1.3516e-08
1.87417e-08
2.18601e-08
1.30128e-07
1.07288e-07
2.19705e-08
1.07121e-07
1.89169e-08
1.17062e-08
6.39043e-08
3.01055e-08
6.528e-08
1.1714e-08
1.87488e-08
1.29731e-07
2.1807e-08
1.07519e-07
2.21268e-08
1.07987e-07
1.88289e-08
1.17403e-08
6.45434e-08
3.02457e-08
6.50202e-08
1.17197e-08
1.84986e-08
1.05976e-07
2.21381e-08
1.3058e-07
1.87635e-08
1.06455e-07
2.18792e-08
1.14064e-08
2.8995e-08
6.27835e-08
1.14287e-08
6.32141e-08
1.14304e-08
6.35458e-08
2.91609e-08
1.14705e-08
6.34775e-08
1.88334e-08
1.2988e-07
1.06694e-07
2.16455e-08
1.86751e-08
1.06175e-07
2.17561e-08
1.86681e-08
2.22047e-08
1.30847e-07
1.07172e-07
1.88848e-08
2.20345e-08
1.07348e-07
1.16408e-08
6.42403e-08
3.03029e-08
6.47997e-08
1.16695e-08
1.89257e-08
1.30458e-07
2.17877e-08
1.06966e-07
2.20251e-08
1.06985e-07
1.87793e-08
1.16628e-08
6.48151e-08
3.00667e-08
1.16679e-08
6.52752e-08
1.88746e-08
1.07759e-07
2.18678e-08
1.30252e-07
1.07123e-07
2.21692e-08
1.90411e-08
1.1655e-08
2.97167e-08
6.3504e-08
6.49282e-08
1.16706e-08
1.1684e-08
6.38504e-08
2.98328e-08
6.45066e-08
1.1677e-08
1.89599e-08
1.31433e-07
1.07215e-07
2.19486e-08
1.08374e-07
2.22023e-08
1.89531e-08
1.8457e-08
2.18808e-08
1.30252e-07
1.05925e-07
2.20147e-08
1.0573e-07
1.867e-08
1.12673e-08
6.0913e-08
2.91105e-08
6.2387e-08
1.12978e-08
1.86102e-08
1.31074e-07
2.17385e-08
1.05439e-07
2.21006e-08
1.05503e-07
1.86425e-08
1.12886e-08
6.15522e-08
2.87321e-08
6.22928e-08
1.1257e-08
1.87551e-08
1.07505e-07
2.23015e-08
1.30167e-07
1.89654e-08
1.07945e-07
2.20292e-08
1.15907e-08
2.98508e-08
6.41753e-08
6.45744e-08
1.16319e-08
1.16016e-08
6.45312e-08
2.98528e-08
1.16269e-08
6.48267e-08
1.89171e-08
1.30431e-07
1.06956e-07
2.17847e-08
1.06582e-07
2.2065e-08
1.88031e-08
1.84998e-08
2.22782e-08
1.29664e-07
1.05931e-07
1.85807e-08
2.19132e-08
1.06267e-07
1.12961e-08
6.19753e-08
2.88207e-08
6.2624e-08
1.13192e-08
1.87899e-08
1.29855e-07
2.15808e-08
1.06155e-07
2.18898e-08
1.05948e-07
1.85307e-08
1.13094e-08
6.25431e-08
2.91534e-08
1.131e-08
6.24689e-08
1.36499e-08
1.36316e-08
1.32305e-08
1.31963e-08
3.70151e-08
1.12148e-08
1.11111e-08
1.12343e-08
1.1132e-08
3.74955e-08
1.1536e-07
2.59136e-07
2.75165e-08
7.16548e-08
1.15098e-07
2.73964e-08
2.59552e-07
1.14799e-07
2.52949e-07
2.67954e-08
6.79691e-08
1.1406e-07
2.65921e-08
2.53288e-07
3.72358e-08
1.12685e-08
1.11686e-08
3.81092e-08
1.12556e-08
1.11427e-08
1.15184e-07
2.71847e-08
7.16327e-08
2.5958e-07
2.75415e-08
1.14906e-07
2.59664e-07
1.14299e-07
2.64065e-08
6.83485e-08
2.53044e-07
2.65919e-08
1.13976e-07
2.52781e-07
1.95619e-08
1.39584e-07
2.30382e-08
1.12668e-07
2.32932e-08
1.1327e-07
1.97779e-08
1.20095e-08
6.7691e-08
3.08304e-08
1.20178e-08
6.76868e-08
1.9645e-08
1.39282e-07
2.34046e-08
1.12563e-07
2.30541e-08
1.97828e-08
1.13493e-07
1.20322e-08
6.74835e-08
3.08063e-08
6.77577e-08
1.20154e-08
3.74063e-08
1.13332e-08
1.13791e-08
1.13682e-08
1.13764e-08
3.81154e-08
1.16667e-07
2.59408e-07
2.72882e-08
6.9731e-08
2.74572e-08
1.16336e-07
2.58873e-07
1.15936e-07
2.56809e-07
2.78585e-08
7.13411e-08
2.56753e-07
1.15866e-07
2.76943e-08
3.74948e-08
1.13742e-08
1.14528e-08
1.13461e-08
3.79275e-08
1.14188e-08
1.1581e-07
2.71587e-08
7.16938e-08
2.59842e-07
2.754e-08
2.59599e-07
1.1574e-07
1.15299e-07
2.7512e-08
7.15693e-08
2.56002e-07
2.5719e-07
2.76277e-08
1.15858e-07
1.34939e-08
1.35624e-08
1.86343e-08
1.3028e-07
2.18943e-08
1.07445e-07
2.19818e-08
1.07182e-07
1.87357e-08
1.16637e-08
6.45023e-08
3.04179e-08
1.16989e-08
6.45151e-08
1.86163e-08
1.30516e-07
2.20896e-08
1.07135e-07
2.20515e-08
1.87099e-08
1.0697e-07
1.17042e-08
6.4616e-08
3.05841e-08
6.48199e-08
1.16611e-08
1.86109e-08
1.30227e-07
1.06872e-07
2.17878e-08
1.06589e-07
2.20528e-08
1.87546e-08
1.16128e-08
6.44696e-08
2.96631e-08
6.4528e-08
1.16141e-08
1.87307e-08
1.29887e-07
1.06723e-07
2.22687e-08
1.06486e-07
1.87738e-08
2.19801e-08
1.1595e-08
6.41741e-08
2.9722e-08
6.45586e-08
1.16138e-08
1.83045e-08
1.29113e-07
2.15419e-08
1.05429e-07
2.18076e-08
1.05106e-07
1.83544e-08
1.1313e-08
6.27598e-08
2.93915e-08
1.13331e-08
6.3011e-08
1.84866e-08
1.30359e-07
2.17002e-08
1.05622e-07
1.85857e-08
2.18114e-08
1.05987e-07
1.1331e-08
6.25725e-08
2.88118e-08
6.28705e-08
1.13274e-08
3.87944e-08
1.16035e-08
1.16734e-08
1.16378e-08
1.17037e-08
3.95298e-08
1.18917e-07
2.60199e-07
7.18149e-08
2.73426e-08
2.76954e-08
2.6066e-07
1.18682e-07
1.19736e-07
2.64293e-07
7.27983e-08
2.7719e-08
2.65557e-07
2.82911e-08
1.1948e-07
1.1767e-07
2.72793e-08
7.166e-08
2.60268e-07
2.76503e-08
2.59057e-07
1.18094e-07
1.1905e-07
2.7774e-08
7.15413e-08
2.64148e-07
2.6416e-07
2.78765e-08
1.19826e-07
3.99573e-08
1.16497e-08
1.17018e-08
1.16762e-08
1.17313e-08
3.99966e-08
1.38256e-08
1.37856e-08
1.17174e-08
2.80592e-08
1.92334e-08
1.10842e-07
2.24767e-08
1.37129e-07
1.1209e-07
2.28756e-08
1.93279e-08
1.19857e-08
3.10411e-08
6.72103e-08
6.80465e-08
1.20458e-08
1.19745e-08
6.63566e-08
3.10666e-08
6.73495e-08
1.19557e-08
1.9323e-08
1.38578e-07
1.12246e-07
2.24917e-08
1.13128e-07
2.28136e-08
1.95148e-08
1.91413e-08
1.11676e-07
2.26109e-08
1.37519e-07
1.1202e-07
2.27504e-08
1.92984e-08
1.17871e-08
3.06552e-08
6.57128e-08
6.63938e-08
1.17868e-08
1.18277e-08
6.59853e-08
3.00992e-08
6.64915e-08
1.18191e-08
1.9191e-08
1.37346e-07
1.11615e-07
2.24311e-08
1.12197e-07
2.28742e-08
1.92122e-08
1.09629e-07
2.2542e-08
1.91425e-08
6.65234e-08
1.1848e-08
1.10352e-07
2.26486e-08
1.91684e-08
6.62082e-08
1.17441e-08
1.3111e-08
1.30577e-08
1.34781e-08
1.34686e-08
1.13819e-08
2.72301e-08
1.21699e-06
1.21498e-06
1.24567e-06
1.20965e-06
1.21097e-06
1.11213e-06
1.10881e-06
1.21683e-06
1.21226e-06
1.25268e-06
1.21019e-06
1.20863e-06
1.108e-06
1.09695e-06
3.1704e-07
5.44366e-07
5.53796e-07
9.22023e-07
5.39012e-07
5.50132e-07
3.19107e-07
3.15031e-07
5.51451e-07
5.4709e-07
9.21905e-07
5.45958e-07
5.40856e-07
3.16302e-07
3.14832e-07
9.41695e-07
5.45885e-07
5.42886e-07
5.50429e-07
5.48684e-07
3.15504e-07
3.17993e-07
5.52649e-07
5.52798e-07
9.2515e-07
5.4582e-07
5.46556e-07
3.18828e-07
3.18691e-07
9.4632e-07
5.48218e-07
5.4996e-07
5.52844e-07
5.55552e-07
3.19315e-07
3.14902e-07
5.49063e-07
5.44722e-07
9.21306e-07
3.15959e-07
5.45935e-07
5.40384e-07
3.19061e-07
5.5241e-07
5.50924e-07
9.26391e-07
5.46316e-07
3.19101e-07
5.48327e-07
3.23135e-07
5.50916e-07
5.63711e-07
9.32941e-07
5.59323e-07
5.45887e-07
3.25147e-07
1.21716e-06
1.22116e-06
1.26094e-06
1.21728e-06
1.20638e-06
1.11423e-06
1.11896e-06
1.21608e-06
1.21854e-06
1.25643e-06
1.21545e-06
1.21024e-06
1.11505e-06
1.10502e-06
1.22344e-06
1.22074e-06
1.25829e-06
1.2087e-06
1.21552e-06
1.12789e-06
1.11554e-06
1.24866e-06
1.21323e-06
1.20347e-06
1.20516e-06
1.21098e-06
1.1067e-06
1.10809e-06
1.26064e-06
1.21928e-06
1.22117e-06
1.21232e-06
1.2183e-06
1.10515e-06
1.11483e-06
1.2586e-06
1.2135e-06
1.22142e-06
1.20607e-06
1.20811e-06
1.10929e-06
1.10689e-06
1.25791e-06
1.22589e-06
1.21802e-06
1.21858e-06
1.215e-06
1.11897e-06
1.12096e-06
7.43698e-07
3.80099e-07
8.00704e-07
4.47596e-07
3.80503e-07
8.13069e-07
7.34451e-07
6.47124e-07
4.31977e-07
1.49423e-07
2.5757e-07
4.29113e-07
2.58513e-07
6.54801e-07
6.58278e-07
2.58946e-07
1.48089e-07
4.31048e-07
4.33251e-07
2.58409e-07
6.51631e-07
7.25311e-07
4.47533e-07
3.79447e-07
8.02562e-07
3.79365e-07
7.90334e-07
7.35036e-07
1.21513e-06
1.21628e-06
1.26286e-06
1.21513e-06
1.21374e-06
1.11228e-06
1.10697e-06
1.21255e-06
1.21396e-06
1.2591e-06
1.21611e-06
1.21407e-06
1.10565e-06
1.09567e-06
1.21421e-06
1.21627e-06
1.25743e-06
1.21525e-06
1.21551e-06
1.11327e-06
1.11138e-06
7.42692e-07
4.45307e-07
3.78266e-07
8.0578e-07
3.78137e-07
8.11183e-07
7.39104e-07
6.47067e-07
4.28777e-07
2.5702e-07
1.49257e-07
6.50319e-07
4.28446e-07
2.58468e-07
7.24e-07
4.45132e-07
3.79146e-07
7.94529e-07
7.29232e-07
3.79164e-07
7.87664e-07
6.57265e-07
2.5757e-07
1.48129e-07
4.32062e-07
4.32723e-07
2.57815e-07
6.55319e-07
7.66988e-07
8.36725e-07
3.98822e-07
4.76466e-07
8.38562e-07
3.99712e-07
7.66774e-07
6.79117e-07
4.46633e-07
1.55669e-07
2.71376e-07
4.47501e-07
2.72131e-07
6.78857e-07
6.79413e-07
2.71637e-07
1.54075e-07
4.45186e-07
4.459e-07
2.70267e-07
6.81371e-07
7.62294e-07
4.7952e-07
8.3307e-07
4.03655e-07
8.31328e-07
4.01568e-07
7.62889e-07
3.17572e-07
9.4342e-07
5.4448e-07
5.50178e-07
5.47277e-07
5.53793e-07
3.17728e-07
3.16316e-07
9.43396e-07
5.46253e-07
5.43338e-07
3.15355e-07
5.50968e-07
5.49951e-07
3.1485e-07
9.21448e-07
5.50788e-07
5.46982e-07
3.15408e-07
5.4523e-07
5.4081e-07
7.6786e-07
4.05503e-07
8.37633e-07
4.83379e-07
4.06726e-07
8.3972e-07
7.66387e-07
6.78692e-07
4.43054e-07
1.53594e-07
2.70707e-07
2.69853e-07
4.42321e-07
6.80391e-07
6.81068e-07
2.70275e-07
1.52663e-07
4.42712e-07
2.70484e-07
4.43535e-07
6.79661e-07
7.63456e-07
4.83726e-07
4.06402e-07
8.36264e-07
4.06758e-07
8.34135e-07
7.64916e-07
7.69028e-07
4.06143e-07
8.37874e-07
4.81455e-07
4.06467e-07
8.40168e-07
7.67404e-07
6.80432e-07
4.44484e-07
1.55007e-07
2.72e-07
2.73892e-07
4.44494e-07
6.81512e-07
6.81922e-07
2.72201e-07
1.53204e-07
4.44685e-07
2.72521e-07
6.8083e-07
4.456e-07
7.64643e-07
4.82174e-07
4.07541e-07
8.37121e-07
4.07631e-07
8.34868e-07
7.66527e-07
7.63595e-07
4.07324e-07
8.35975e-07
4.83689e-07
7.64933e-07
4.07382e-07
8.34397e-07
6.80019e-07
4.42993e-07
1.53127e-07
2.71454e-07
4.41832e-07
2.7049e-07
6.80136e-07
6.79089e-07
2.70586e-07
4.42884e-07
1.5302e-07