/*--------------------------------*- C++ -*----------------------------------*\
| =========                 |                                                 |
| \\      /  F ield         | OpenFOAM: The Open Source CFD Toolbox           |
|  \\    /   O peration     | Version:  2206                                  |
|   \\  /    A nd           | Website:  www.openfoam.com                      |
|    \\/     M anipulation  |                                                 |
\*---------------------------------------------------------------------------*/
FoamFile
{
    version     2.0;
    format      ascii;
    arch        "LSB;label=32;scalar=64";
    class       volVectorField;
    location    "40";
    object      U;
}
// * * * * * * * * * * * * * * * * * * * * * * * * * * * * * * * * * * * * * //

dimensions      [0 1 -1 0 0 0 0];

internalField   nonuniform List<vector> 
66621
(
(-1.46412e-05 -4.5999e-05 0.0864226)
(-6.32817e-05 -8.21077e-07 0.107648)
(-4.96533e-05 -1.00676e-05 0.0862025)
(5.58414e-05 -8.4087e-07 0.116637)
(4.48807e-05 -3.59458e-05 0.109389)
(2.35799e-06 -5.35948e-07 0.127229)
(-2.48915e-05 1.19087e-05 0.0743781)
(5.3738e-07 5.41112e-05 0.116821)
(2.08137e-06 -2.60476e-06 0.125868)
(-2.68231e-06 -1.96487e-06 0.127479)
(-3.55264e-05 4.25767e-05 0.109695)
(0.00020304 0.000207765 0.122543)
(2.28138e-05 2.80433e-05 0.0993569)
(3.00776e-05 2.01225e-05 0.0996113)
(-1.63132e-05 -2.38519e-05 0.0744555)
(-2.54434e-05 -1.26879e-05 0.0743616)
(-0.000204448 -0.000210121 0.122511)
(-2.75329e-05 -1.80987e-05 0.0995172)
(-2.1484e-05 -2.93518e-05 0.0993164)
(3.99169e-06 1.70012e-06 0.12597)
(-3.31035e-05 -4.0125e-05 0.10948)
(2.12871e-05 -2.84789e-05 0.09935)
(2.34508e-05 -1.21441e-05 0.074381)
(-5.53664e-05 -7.88983e-07 0.116636)
(2.2289e-07 1.68896e-06 0.125791)
(-4.55296e-05 -3.5634e-05 0.109386)
(-2.63608e-06 -1.22848e-06 0.127238)
(-6.30418e-05 -3.4651e-07 0.107644)
(-4.89987e-05 9.29227e-06 0.0862164)
(-5.53569e-05 -8.76385e-08 0.116633)
(2.24636e-06 -3.10213e-06 0.125771)
(-1.87952e-06 8.04975e-07 0.127247)
(-4.56146e-05 3.39347e-05 0.109377)
(6.31608e-05 -6.77149e-07 0.107648)
(4.82457e-05 -9.42967e-06 0.0862181)
(5.62859e-05 -2.03518e-07 0.116638)
(-1.81301e-06 -3.48048e-06 0.125776)
(1.89784e-06 5.33278e-07 0.127249)
(4.56198e-05 3.40489e-05 0.109385)
(6.32076e-05 -7.08123e-07 0.107647)
(4.88175e-05 8.73127e-06 0.0862038)
(-0.000203002 0.00020819 0.122541)
(-2.20371e-05 2.76228e-05 0.0993358)
(-3.02853e-05 2.06596e-05 0.0996252)
(-1.30408e-05 2.45316e-05 0.074531)
(1.88703e-07 5.41178e-05 0.116821)
(-2.4141e-06 -2.85887e-06 0.125869)
(2.01191e-06 -1.82207e-06 0.127479)
(3.5351e-05 4.28802e-05 0.109695)
(2.91631e-07 6.2122e-05 0.108146)
(-1.05763e-05 4.81814e-05 0.0865847)
(4.59986e-07 6.19583e-05 0.108147)
(1.15661e-05 4.84136e-05 0.0865959)
(2.54487e-05 1.15031e-05 0.0743649)
(1.36507e-05 2.44769e-05 0.074541)
(-3.56592e-06 -5.04191e-05 0.0980377)
(-4.10809e-06 -3.1349e-05 0.072433)
(2.44779e-05 -6.04643e-07 0.0796735)
(-6.2983e-05 -2.1004e-06 0.105446)
(-2.50736e-05 -1.3269e-06 0.0828829)
(6.45855e-05 -7.73499e-07 0.107603)
(6.42124e-05 1.98382e-06 0.105379)
(2.37963e-05 -1.20446e-06 0.0827714)
(-2.59524e-05 -5.08408e-07 0.0798087)
(2.22452e-05 7.15903e-07 0.0721775)
(-5.39386e-05 -5.54732e-06 0.0977615)
(4.86481e-05 7.94415e-06 0.0860419)
(5.12861e-05 5.11718e-06 0.09765)
(-2.72688e-05 -2.54494e-08 0.0723347)
(2.17872e-05 -1.09489e-05 0.0742383)
(-2.43346e-05 -2.22746e-05 0.0918823)
(1.35158e-05 2.134e-05 0.0733999)
(2.31981e-05 1.12048e-05 0.073443)
(-1.24682e-05 -1.95801e-05 0.0732611)
(-2.03807e-05 -1.00953e-05 0.0733021)
(2.40643e-05 2.21733e-05 0.091988)
(-7.64403e-05 -2.25436e-05 0.106801)
(2.42118e-05 2.13388e-05 0.085412)
(-2.29534e-05 -2.90944e-05 0.0992608)
(7.238e-05 2.13321e-05 0.114042)
(-7.5099e-05 -2.20903e-05 0.113998)
(-2.35552e-05 -1.94782e-05 0.0852526)
(7.55215e-05 2.37977e-05 0.106905)
(-2.08322e-05 -7.50194e-05 0.106828)
(2.39507e-05 2.24765e-05 0.0854591)
(-3.06746e-05 -2.07626e-05 0.0994878)
(1.90425e-05 7.25551e-05 0.114124)
(-2.2656e-05 -7.37978e-05 0.114063)
(-2.08875e-05 -2.23132e-05 0.0852787)
(2.09161e-05 7.47405e-05 0.106939)
(2.02345e-05 1.03954e-05 0.0742217)
(2.38792e-05 1.99246e-05 0.0919236)
(-2.14723e-05 -1.03587e-05 0.0734303)
(-9.51071e-06 -2.18482e-05 0.0733647)
(2.25089e-05 7.88605e-06 0.073311)
(1.02937e-05 1.62681e-05 0.0732562)
(-1.99634e-05 -2.18934e-05 0.0919233)
(2.72398e-05 7.30037e-05 0.106934)
(-2.14061e-05 -2.00899e-05 0.0855191)
(-1.78244e-05 -7.03703e-05 0.114068)
(2.30678e-05 1.94219e-05 0.0854174)
(-2.17181e-05 -7.39033e-05 0.10692)
(7.66371e-05 1.91789e-05 0.106792)
(-2.20056e-05 -2.29415e-05 0.0852907)
(2.20286e-05 2.82239e-05 0.0992199)
(-7.11496e-05 -2.25266e-05 0.114013)
(2.29605e-05 1.76974e-05 0.0851396)
(-7.31686e-05 -2.328e-05 0.10681)
(7.58074e-05 2.0585e-05 0.113982)
(1.01494e-05 -2.13485e-05 0.0733951)
(1.94612e-05 -2.15222e-05 0.0919392)
(2.27248e-05 -2.19297e-05 0.0854062)
(7.23426e-05 -2.33592e-05 0.114023)
(7.55961e-05 -2.60126e-05 0.106876)
(2.37374e-05 -8.73573e-07 0.0796903)
(-2.49765e-05 -3.00246e-07 0.0828882)
(-6.36998e-05 1.39295e-06 0.105446)
(6.44815e-05 -1.30287e-06 0.107599)
(2.3706e-05 -1.15426e-06 0.082777)
(6.24792e-05 -3.00659e-06 0.105378)
(-2.60706e-05 -4.007e-07 0.0798232)
(2.24973e-05 -1.23677e-06 0.0721982)
(-5.31884e-05 5.20544e-06 0.0977663)
(4.81815e-05 -8.62399e-06 0.0860579)
(5.11411e-05 -5.65936e-06 0.0976551)
(-2.71037e-05 7.99951e-08 0.0723524)
(6.18446e-05 -1.66985e-06 0.10545)
(2.30521e-05 -5.55058e-07 0.0828869)
(2.41721e-05 1.1019e-07 0.0798187)
(5.27345e-05 -5.20787e-06 0.0977723)
(2.64462e-05 -6.23657e-07 0.0723493)
(2.34669e-05 -1.22429e-06 0.0828811)
(6.30881e-05 1.13259e-06 0.105447)
(2.46809e-05 -9.73193e-07 0.0798044)
(5.27119e-05 5.30265e-06 0.0977613)
(2.6542e-05 7.88348e-07 0.0723334)
(2.40052e-05 -2.32139e-05 0.0918851)
(-1.41598e-05 1.9378e-05 0.0733824)
(-2.47335e-05 1.10138e-05 0.0734591)
(1.15852e-05 -1.97227e-05 0.0732624)
(2.01612e-05 -1.10478e-05 0.0732991)
(-2.5735e-05 2.07486e-05 0.0919936)
(7.73137e-05 -2.14632e-05 0.106746)
(-2.43917e-05 2.08702e-05 0.0853003)
(2.31773e-05 -2.89685e-05 0.0992264)
(-7.17497e-05 1.92003e-05 0.11403)
(2.37512e-05 -2.01414e-05 0.0851551)
(7.68305e-05 -2.22773e-05 0.113978)
(-7.53768e-05 2.04851e-05 0.106869)
(2.24666e-05 -7.41214e-05 0.106881)
(-2.39788e-05 2.29646e-05 0.0855683)
(3.14399e-05 -1.99873e-05 0.0995136)
(-2.04765e-05 7.37293e-05 0.114131)
(2.30013e-05 -7.20825e-05 0.114077)
(2.05338e-05 -2.20873e-05 0.0853746)
(-2.35785e-05 7.5474e-05 0.106978)
(1.34914e-05 -1.94108e-05 0.0743695)
(-3.75895e-07 -2.34057e-05 0.0801253)
(-4.66234e-07 6.13904e-05 0.105997)
(-2.83357e-07 2.30355e-05 0.0834126)
(-1.95145e-07 -6.39617e-05 0.108127)
(2.28994e-06 -6.35795e-05 0.105919)
(-1.12152e-07 -2.22625e-05 0.0833123)
(-1.99618e-07 2.39595e-05 0.0802739)
(1.76154e-06 -2.21471e-05 0.0723663)
(-5.69914e-06 5.28377e-05 0.0983142)
(1.07864e-05 -4.81199e-05 0.086386)
(7.02735e-06 -5.09404e-05 0.0981522)
(-5.9842e-07 2.6188e-05 0.0725607)
(1.0067e-06 -2.33632e-05 0.0801248)
(1.55517e-06 6.16382e-05 0.105997)
(1.49656e-06 2.2987e-05 0.0834128)
(9.35076e-07 -6.40129e-05 0.10813)
(-1.51908e-06 -6.35605e-05 0.105925)
(1.36246e-06 -2.21048e-05 0.0833113)
(1.04449e-06 2.41861e-05 0.0802706)
(-9.09772e-07 -2.14378e-05 0.0723743)
(6.51751e-06 5.26492e-05 0.0983182)
(-9.4814e-06 -4.79735e-05 0.086401)
(-6.1111e-06 -5.05904e-05 0.0981643)
(1.17275e-06 2.59796e-05 0.0725617)
(-1.21313e-05 -2.00461e-05 0.074378)
(-3.57521e-06 5.2863e-07 0.129568)
(-1.21002e-06 -2.55335e-07 0.13081)
(-6.48277e-06 1.18273e-06 0.130562)
(-4.50348e-06 2.93903e-06 0.131777)
(2.86129e-06 1.18833e-06 0.129558)
(1.90607e-07 -7.17902e-07 0.130809)
(6.65508e-06 1.51807e-06 0.130558)
(3.94758e-06 3.39767e-06 0.13178)
(-3.67814e-06 1.19962e-06 0.129479)
(-4.9826e-06 -2.80238e-07 0.13055)
(-2.22693e-06 -1.58924e-06 0.130698)
(-2.65472e-06 3.29489e-07 0.131695)
(3.27472e-06 6.59934e-07 0.129479)
(4.69947e-06 -3.18826e-07 0.130548)
(2.07993e-06 -1.96251e-06 0.130695)
(2.8322e-06 8.18474e-07 0.13169)
(-0.000238216 9.60031e-07 0.120562)
(5.77755e-05 -2.50647e-06 0.115871)
(0.000230262 1.07625e-08 0.121)
(-5.89168e-05 -6.61878e-07 0.116613)
(-6.09842e-05 2.10996e-06 0.11583)
(-0.000228339 -8.70286e-07 0.120948)
(0.000235451 -3.4315e-06 0.120629)
(5.51534e-05 -1.06075e-05 0.11382)
(0.000240941 -1.53458e-05 0.117778)
(0.000247708 -7.61545e-06 0.119698)
(-1.98031e-06 -0.000237301 0.120658)
(2.38408e-06 0.000228287 0.121076)
(6.22999e-07 5.63834e-05 0.116099)
(-4.57483e-07 -5.76697e-05 0.116822)
(-1.73725e-06 -0.000227755 0.121052)
(2.97618e-06 -5.98505e-05 0.116055)
(4.32676e-06 0.000232711 0.120725)
(2.12045e-06 -0.000239687 0.119717)
(-8.67011e-06 5.41553e-05 0.114094)
(3.58173e-05 -4.53771e-05 0.109547)
(-8.98224e-06 0.00023972 0.1179)
(1.15676e-05 -0.000242969 0.117813)
(1.07282e-05 -5.47724e-05 0.113985)
(1.34968e-08 0.000245867 0.119811)
(-6.75175e-05 -6.81657e-05 0.115154)
(-0.000196011 -0.00019626 0.12243)
(5.69679e-05 0.000207256 0.119395)
(0.000200486 5.84444e-05 0.119402)
(-5.86497e-05 -0.000205784 0.119314)
(-0.000201954 -5.73232e-05 0.119317)
(6.8319e-05 7.09072e-05 0.115253)
(7.14876e-05 6.58397e-05 0.115208)
(0.000200493 0.000196367 0.122463)
(-0.000204558 -5.80089e-05 0.119382)
(-5.41815e-05 -0.000207449 0.119351)
(-6.85716e-05 -7.05424e-05 0.115203)
(0.00021134 5.6116e-05 0.119372)
(5.81062e-05 0.000202807 0.119326)
(-8.62811e-06 -5.3526e-05 0.113841)
(-9.06692e-06 -0.000237056 0.117768)
(-1.97243e-06 -0.000244229 0.119649)
(0.000238881 1.31759e-07 0.120565)
(-5.80294e-05 -2.45611e-06 0.115874)
(-0.000229842 -1.17713e-07 0.121)
(5.92613e-05 -1.21844e-06 0.116613)
(6.13253e-05 1.49724e-06 0.115835)
(0.000228522 -1.29805e-06 0.120948)
(-0.000236004 -3.38099e-06 0.120634)
(0.000244303 2.77992e-06 0.119632)
(-5.59129e-05 -1.05516e-05 0.113821)
(4.75183e-05 3.2417e-05 0.109273)
(-0.000240878 -1.44854e-05 0.117784)
(5.69348e-05 8.34587e-06 0.113752)
(0.000246752 1.05906e-05 0.117721)
(-0.000248418 -7.29672e-06 0.119704)
(0.000234022 -1.39078e-06 0.120556)
(-0.000229085 -6.10969e-07 0.120998)
(-5.90888e-05 2.12814e-06 0.115866)
(5.90573e-05 -6.73489e-07 0.11661)
(0.000227648 5.71641e-07 0.120944)
(5.97289e-05 -2.67652e-06 0.115826)
(-0.000237953 2.1707e-06 0.120628)
(0.000242432 -4.27606e-06 0.119612)
(-5.60627e-05 1.05669e-05 0.11381)
(4.7655e-05 -3.32686e-05 0.109265)
(-0.000237883 1.20938e-05 0.117771)
(5.68882e-05 -8.72909e-06 0.113739)
(-0.000244636 5.59412e-06 0.119689)
(0.00024473 -1.20947e-05 0.117706)
(-0.00023456 -1.4409e-06 0.120561)
(0.000229818 -6.52821e-07 0.121001)
(5.97379e-05 1.8696e-06 0.115874)
(-5.86232e-05 -2.26537e-07 0.116614)
(-0.0002277 7.06421e-07 0.120947)
(-5.9853e-05 -2.57397e-06 0.115833)
(0.000238619 2.14478e-06 0.120633)
(-0.000242965 -4.26678e-06 0.119617)
(5.64438e-05 1.03051e-05 0.113818)
(-4.73078e-05 -3.39006e-05 0.109274)
(0.000238998 1.29541e-05 0.117777)
(-0.000244953 -1.23339e-05 0.117713)
(-5.69654e-05 -8.9487e-06 0.113747)
(0.000245504 5.87555e-06 0.119695)
(6.8326e-05 -6.75142e-05 0.115155)
(0.000196802 -0.000195721 0.122429)
(-5.61034e-05 0.000205657 0.119397)
(-0.000202178 5.96945e-05 0.119399)
(0.000202933 -5.63241e-05 0.119315)
(5.9701e-05 -0.000205022 0.119313)
(-6.83998e-05 7.07906e-05 0.115256)
(2.2181e-06 -0.000237417 0.12066)
(-2.11332e-06 0.000228269 0.121076)
(3.41264e-07 5.6351e-05 0.1161)
(9.1702e-07 -5.77644e-05 0.116823)
(1.85716e-06 -0.000227835 0.121052)
(-2.35905e-06 -5.98855e-05 0.116059)
(-4.096e-06 0.000232602 0.120725)
(-1.90719e-06 -0.000239512 0.119718)
(9.04217e-06 5.42786e-05 0.114092)
(-3.48333e-05 -4.54761e-05 0.109547)
(8.20236e-06 0.000238503 0.1179)
(-1.10535e-05 -0.000242796 0.117813)
(-1.02292e-05 -5.44963e-05 0.113986)
(-4.14334e-07 0.000245062 0.11981)
(-6.64779e-06 -1.87559e-05 0.0516301)
(-3.16411e-06 -8.28057e-06 0.0351608)
(-1.32825e-06 -3.09217e-06 0.0219482)
(-5.40821e-07 -1.09847e-06 0.0115776)
(-1.34381e-07 -3.52508e-08 0.0035176)
(-1.76916e-05 -5.61792e-06 0.0516446)
(-8.65508e-06 -3.39525e-06 0.0351767)
(-3.84895e-06 -1.85663e-06 0.0219594)
(-1.45796e-06 -8.47017e-07 0.0115833)
(-2.22115e-07 -2.68092e-07 0.00351929)
(-1.23176e-05 7.14766e-06 0.0534147)
(-5.79714e-06 3.76271e-06 0.0366431)
(-2.40207e-06 1.8518e-06 0.023037)
(-8.15858e-07 7.77797e-07 0.0122343)
(-1.1297e-07 2.32071e-07 0.00374483)
(-8.78852e-06 -1.33556e-05 0.0533912)
(-3.85153e-06 -6.53549e-06 0.0366261)
(-1.36226e-06 -2.88102e-06 0.0230265)
(-2.07724e-07 -9.90368e-07 0.0122295)
(-6.26266e-08 -2.60444e-07 0.00374374)
(-1.22644e-05 -7.53597e-06 0.0534016)
(-5.35821e-06 -3.92453e-06 0.036633)
(-1.88731e-06 -1.85512e-06 0.0230297)
(-4.00267e-07 -6.73894e-07 0.0122299)
(9.19601e-09 -2.47391e-07 0.00374336)
(1.19488e-05 -7.16801e-06 0.053418)
(5.75383e-06 -3.76227e-06 0.036646)
(2.3714e-06 -1.78363e-06 0.0230391)
(6.06554e-07 -5.59038e-07 0.0122357)
(1.18745e-07 -2.53531e-07 0.00374542)
(-1.72054e-05 5.23202e-06 0.0516592)
(-8.09982e-06 3.22679e-06 0.0351869)
(-3.26623e-06 1.81749e-06 0.0219656)
(-8.94684e-07 8.25102e-07 0.0115862)
(-1.30747e-07 3.16047e-07 0.00352)
(1.63629e-05 -5.21823e-06 0.0516547)
(7.70153e-06 -3.2666e-06 0.0351827)
(3.18773e-06 -1.83958e-06 0.0219628)
(1.11553e-06 -8.38526e-07 0.0115853)
(9.06515e-08 -3.50117e-07 0.00351984)
(1.62896e-05 4.73332e-06 0.0516434)
(7.756e-06 2.82602e-06 0.0351741)
(3.37489e-06 1.47281e-06 0.0219573)
(1.57663e-06 6.89938e-07 0.0115826)
(8.31016e-08 2.43941e-07 0.00351913)
(-7.91335e-06 1.22141e-05 0.0533663)
(-4.19119e-06 5.68374e-06 0.0366106)
(-1.94241e-06 2.28495e-06 0.0230171)
(-6.37826e-07 6.75548e-07 0.0122241)
(-2.39413e-07 9.48153e-08 0.00374196)
(-6.06736e-06 1.63764e-05 0.0515875)
(-3.69244e-06 7.70358e-06 0.0351387)
(-1.96674e-06 3.17344e-06 0.0219362)
(-8.38815e-07 1.06718e-06 0.0115714)
(-3.04239e-07 7.98011e-08 0.00351576)
(7.01578e-06 1.65528e-05 0.0515965)
(4.49765e-06 7.75085e-06 0.0351456)
(2.56394e-06 3.04023e-06 0.021941)
(1.11534e-06 5.97907e-07 0.0115739)
(4.21284e-07 9.81046e-08 0.00351642)
(1.28313e-05 6.71205e-06 0.0534052)
(6.22931e-06 3.32319e-06 0.0366372)
(2.58422e-06 1.36747e-06 0.0230337)
(5.89188e-07 2.42312e-07 0.0122326)
(1.74521e-07 1.29742e-07 0.00374442)
(8.59879e-06 1.17067e-05 0.0533736)
(4.81152e-06 5.30147e-06 0.0366146)
(2.43532e-06 2.14854e-06 0.0230189)
(1.03038e-06 9.35051e-07 0.0122247)
(3.72888e-07 4.36909e-08 0.00374176)
(1.31061e-05 -2.10015e-06 0.0521507)
(7.25204e-06 -2.20689e-06 0.0356473)
(3.57958e-06 -1.85215e-06 0.022323)
(1.42669e-06 -1.19456e-06 0.0118089)
(3.40628e-07 -4.77126e-07 0.00359893)
(-1.47906e-05 -6.18983e-07 0.0527327)
(-6.89645e-06 -2.23057e-07 0.0360936)
(-2.75979e-06 -2.35754e-08 0.0226388)
(-7.81673e-07 6.91022e-08 0.0119963)
(-1.96589e-07 1.71726e-08 0.00366349)
(1.09461e-05 -1.55498e-06 0.0526375)
(5.38305e-06 -1.39148e-06 0.0360284)
(2.42509e-06 -1.10134e-06 0.0226001)
(7.91231e-07 -7.4104e-07 0.0119771)
(2.37995e-07 -2.15938e-07 0.00365779)
(-1.41548e-05 1.19185e-06 0.0522559)
(-7.13566e-06 1.66692e-06 0.0357168)
(-3.28416e-06 1.55973e-06 0.0223639)
(-1.20928e-06 1.087e-06 0.0118293)
(-3.26339e-07 4.19766e-07 0.0036049)
(1.45678e-05 3.91359e-06 0.0515127)
(7.4828e-06 2.54237e-06 0.0350858)
(3.53427e-06 1.55049e-06 0.0219045)
(1.25396e-06 8.18017e-07 0.0115556)
(2.86912e-07 2.07447e-07 0.0035111)
(1.03415e-05 -6.0786e-06 0.0533023)
(5.263e-06 -3.16285e-06 0.0365683)
(2.39728e-06 -1.55187e-06 0.0229926)
(8.01755e-07 -6.92593e-07 0.0122121)
(2.32991e-07 -1.23509e-07 0.00373828)
(1.43881e-05 9.71357e-06 0.0518821)
(7.16696e-06 4.37094e-06 0.0353472)
(3.33927e-06 1.67364e-06 0.0220704)
(1.79692e-06 6.77159e-07 0.0116443)
(2.36369e-07 5.05536e-08 0.00353851)
(-1.14684e-05 -8.05309e-06 0.0517626)
(-5.7712e-06 -3.59164e-06 0.0352692)
(-2.72662e-06 -1.41061e-06 0.0220254)
(-1.36093e-06 -6.64074e-07 0.0116219)
(-2.75587e-07 3.35334e-08 0.00353221)
(1.22508e-05 1.34384e-05 0.0518621)
(6.2746e-06 6.25887e-06 0.0353357)
(2.74025e-06 2.35574e-06 0.0220641)
(6.64195e-07 3.68741e-07 0.0116411)
(2.87093e-07 9.78268e-08 0.00353781)
(-9.65954e-06 -1.13801e-05 0.0517239)
(-4.69676e-06 -5.47447e-06 0.0352408)
(-2.05291e-06 -2.22465e-06 0.022007)
(-6.30743e-07 -2.65102e-07 0.0116124)
(-4.81351e-08 -2.51865e-07 0.00352923)
(9.23483e-06 5.70528e-06 0.0532889)
(4.43724e-06 2.99408e-06 0.0365591)
(1.78492e-06 1.52671e-06 0.0229868)
(4.58461e-07 7.45781e-07 0.0122088)
(1.26444e-07 1.51627e-07 0.00373719)
(5.70547e-06 -1.20148e-05 0.0536492)
(2.41666e-06 -6.56559e-06 0.0367606)
(6.83531e-07 -3.29342e-06 0.0230801)
(-1.1155e-07 -1.19379e-06 0.0122411)
(-6.68847e-08 -4.66986e-07 0.00374171)
(1.18659e-05 -9.58472e-06 0.0518931)
(5.33103e-06 -4.62145e-06 0.0353526)
(2.04706e-06 -2.03234e-06 0.0220734)
(7.92179e-07 -7.47952e-07 0.0116461)
(-3.72197e-09 -2.65817e-07 0.00353923)
(1.24069e-05 7.93923e-07 0.052163)
(6.61205e-06 1.23291e-06 0.0356555)
(3.03742e-06 1.24165e-06 0.0223281)
(9.51994e-07 9.28016e-07 0.0118118)
(2.86728e-07 3.43871e-07 0.00359975)
(-1.47825e-05 -5.59471e-07 0.0527363)
(-7.01732e-06 -5.82268e-07 0.0360955)
(-2.94765e-06 -4.70945e-07 0.0226398)
(-1.09943e-06 -3.15408e-07 0.0119967)
(-1.70463e-07 -9.19112e-08 0.00366356)
(1.08681e-05 -2.92476e-07 0.0526421)
(5.35701e-06 4.53042e-08 0.0360316)
(2.45767e-06 2.16689e-07 0.022602)
(8.86973e-07 2.2404e-07 0.0119782)
(2.17004e-07 1.04317e-07 0.00365808)
(-1.43415e-05 -1.82166e-06 0.0522671)
(-7.14637e-06 -2.02468e-06 0.0357242)
(-3.1912e-06 -1.7057e-06 0.0223685)
(-1.06701e-06 -1.13147e-06 0.0118318)
(-3.07678e-07 -4.1832e-07 0.00360562)
(1.40728e-05 -4.22963e-06 0.0515306)
(6.86593e-06 -2.65896e-06 0.0350994)
(2.96447e-06 -1.52432e-06 0.0219135)
(8.5576e-07 -7.26441e-07 0.0115603)
(1.79742e-07 -2.1257e-07 0.00351238)
(1.28483e-05 -4.6586e-08 0.0527359)
(6.02179e-06 3.1406e-07 0.0360937)
(2.48299e-06 3.94346e-07 0.0226383)
(8.6995e-07 2.57939e-07 0.0119959)
(1.45534e-07 1.63457e-07 0.00366291)
(1.40894e-05 1.34104e-06 0.0522624)
(7.02289e-06 1.7689e-06 0.0357213)
(3.17899e-06 1.61993e-06 0.0223668)
(1.16847e-06 1.10822e-06 0.0118307)
(2.87372e-07 4.16525e-07 0.003605)
(1.325e-05 -1.31388e-06 0.0527322)
(6.45737e-06 -1.30311e-06 0.0360923)
(2.79136e-06 -1.05462e-06 0.0226375)
(8.39144e-07 -6.63969e-07 0.0119954)
(2.57509e-07 -2.56477e-07 0.00366288)
(1.41813e-05 -2.14549e-06 0.052252)
(6.95429e-06 -2.39688e-06 0.0357137)
(3.08029e-06 -2.02181e-06 0.0223615)
(1.24005e-06 -1.27202e-06 0.0118278)
(2.36033e-07 -5.03916e-07 0.00360421)
(-1.53065e-05 7.06628e-06 0.0536484)
(-8.54186e-06 2.44039e-06 0.0367553)
(-4.51447e-06 1.63242e-07 0.023075)
(-2.00608e-06 -5.55939e-07 0.0122383)
(-6.10365e-07 -3.14381e-07 0.0037408)
(-1.29762e-05 1.47435e-05 0.0518615)
(-6.57399e-06 6.9752e-06 0.0353338)
(-2.81674e-06 2.85157e-06 0.022063)
(-8.88783e-07 1.03752e-06 0.0116412)
(-2.21742e-07 1.30808e-07 0.00353805)
(9.61107e-06 -1.13059e-05 0.0517215)
(4.7024e-06 -5.6278e-06 0.0352404)
(2.073e-06 -2.57226e-06 0.0220076)
(8.0705e-07 -9.24457e-07 0.0116134)
(7.11032e-08 -3.01561e-07 0.00352989)
(8.38405e-06 -8.24661e-06 0.0532377)
(5.06722e-06 -3.72485e-06 0.0365237)
(2.95582e-06 -1.34986e-06 0.0229649)
(1.55025e-06 -1.35442e-07 0.0121977)
(3.83069e-07 -9.12487e-08 0.00373407)
(-1.7302e-06 -1.16665e-05 0.0521098)
(-2.03041e-06 -6.1882e-06 0.035617)
(-1.87467e-06 -2.8919e-06 0.0223036)
(-1.31097e-06 -1.12831e-06 0.0117986)
(-4.98764e-07 -2.59997e-07 0.00359563)
(-2.48262e-08 1.30011e-05 0.0526977)
(1.62708e-07 6.33441e-06 0.0360705)
(2.22795e-07 2.69595e-06 0.0226248)
(1.78632e-07 8.73597e-07 0.011989)
(8.31132e-08 2.26414e-07 0.00366115)
(-6.86436e-07 -9.62326e-06 0.0525974)
(-8.49494e-07 -4.79e-06 0.035997)
(-8.49369e-07 -2.22261e-06 0.022579)
(-6.69176e-07 -7.2086e-07 0.0119655)
(-2.05315e-07 -2.60214e-07 0.00365406)
(9.11811e-07 1.22808e-05 0.0522256)
(1.35265e-06 6.1167e-06 0.0356952)
(1.33249e-06 2.75361e-06 0.0223501)
(9.28996e-07 1.05721e-06 0.011822)
(4.13414e-07 2.34416e-07 0.00360255)
(5.99345e-06 -1.30671e-05 0.0514374)
(4.10457e-06 -6.08181e-06 0.0350373)
(2.57385e-06 -2.45242e-06 0.0218757)
(1.40152e-06 -6.38946e-07 0.0115411)
(3.93869e-07 -1.12184e-07 0.0035068)
(1.95905e-06 -1.20107e-05 0.0521072)
(2.0224e-06 -6.53232e-06 0.0356143)
(1.73409e-06 -3.0991e-06 0.0223017)
(1.18122e-06 -9.75528e-07 0.0117974)
(4.41091e-07 -3.40264e-07 0.00359514)
(8.40704e-07 1.26817e-05 0.052697)
(3.69876e-07 6.01507e-06 0.036069)
(4.35199e-08 2.49643e-06 0.0226237)
(-1.27693e-07 9.63873e-07 0.0119884)
(-1.29718e-08 1.45101e-07 0.00366085)
(1.57591e-06 -9.30259e-06 0.0525985)
(1.45109e-06 -4.51095e-06 0.0359987)
(1.18536e-06 -2.05323e-06 0.022581)
(7.81362e-07 -7.93839e-07 0.0119668)
(2.75542e-07 -2.15883e-07 0.00365439)
(-3.63937e-07 1.26825e-05 0.0522247)
(-9.99546e-07 6.47941e-06 0.0356958)
(-1.16448e-06 2.97664e-06 0.0223514)
(-9.30489e-07 9.85978e-07 0.0118228)
(-3.66681e-07 3.04989e-07 0.00360272)
(-5.25416e-06 -1.35165e-05 0.0514455)
(-3.55046e-06 -6.46299e-06 0.0350413)
(-2.21264e-06 -2.65912e-06 0.0218777)
(-1.13549e-06 -4.58781e-07 0.0115418)
(-3.07835e-07 -1.74409e-07 0.00350683)
(-7.17434e-06 -8.53425e-06 0.0532456)
(-4.09577e-06 -3.98662e-06 0.0365296)
(-2.21683e-06 -1.62315e-06 0.0229685)
(-1.10197e-06 -4.516e-07 0.0121992)
(-2.44525e-07 -1.27203e-07 0.00373433)
(8.63901e-06 1.20781e-05 0.0536502)
(3.94961e-06 6.25558e-06 0.0367595)
(1.26226e-06 2.89786e-06 0.0230786)
(-1.11003e-07 7.92677e-07 0.01224)
(-6.47365e-08 4.02459e-07 0.00374123)
(1.36264e-05 6.6268e-06 0.0536418)
(7.57357e-06 2.61048e-06 0.0367518)
(4.01568e-06 6.22584e-07 0.0230731)
(1.95233e-06 7.64511e-08 0.012237)
(5.53933e-07 -1.63111e-07 0.0037401)
(-2.02917e-06 -1.98079e-05 0.0534778)
(-1.68064e-07 -9.34064e-06 0.0366948)
(5.44363e-07 -3.95531e-06 0.0230717)
(5.87723e-07 -1.33255e-06 0.0122531)
(1.98833e-07 -3.10003e-07 0.00375062)
(1.47935e-05 -4.7325e-07 0.0533521)
(7.90814e-06 -9.56679e-07 0.0366128)
(3.58836e-06 -9.14784e-07 0.023023)
(1.27322e-06 -5.69656e-07 0.0122285)
(2.84703e-07 -2.64963e-07 0.00374333)
(-1.73433e-05 1.13474e-06 0.0534819)
(-8.84538e-06 1.7788e-06 0.0366984)
(-3.99853e-06 1.756e-06 0.0230734)
(-1.49867e-06 1.22551e-06 0.0122535)
(-3.29635e-07 4.66885e-07 0.00375077)
(-8.22049e-06 1.0176e-05 0.0536412)
(-4.10448e-06 5.16422e-06 0.0367529)
(-1.7281e-06 2.3956e-06 0.0230745)
(-6.04341e-07 9.35557e-07 0.0122381)
(-7.81388e-08 2.52011e-07 0.00374064)
(-1.29888e-05 9.12158e-06 0.0518827)
(-6.27056e-06 4.31688e-06 0.0353494)
(-2.61146e-06 1.80499e-06 0.0220726)
(-8.79774e-07 5.715e-07 0.0116458)
(-1.1308e-07 1.35945e-07 0.00353923)
(1.169e-05 -8.44162e-06 0.0517652)
(5.81072e-06 -3.8857e-06 0.035269)
(2.53213e-06 -1.52173e-06 0.022025)
(8.25341e-07 -4.66845e-07 0.0116222)
(2.44233e-07 -1.459e-09 0.00353232)
(-7.4968e-06 -1.14321e-05 0.0535332)
(-3.70746e-06 -6.25563e-06 0.0366793)
(-1.44262e-06 -3.01655e-06 0.0230302)
(-2.79272e-07 -1.01959e-06 0.0122157)
(2.27322e-08 -3.50375e-07 0.00373403)
(-1.18881e-05 -5.78725e-06 0.0535289)
(-6.52479e-06 -2.58014e-06 0.0366777)
(-3.35694e-06 -8.05667e-07 0.0230297)
(-1.58408e-06 -4.21493e-08 0.0122152)
(-3.51301e-07 1.51053e-08 0.00373393)
(-1.18106e-05 -7.26956e-06 0.0536291)
(-6.14206e-06 -3.61678e-06 0.0367457)
(-3.0152e-06 -1.48706e-06 0.0230707)
(-1.18526e-06 -3.96984e-07 0.0122359)
(-4.18129e-07 -1.04566e-07 0.0037398)
(-1.01658e-05 -1.32681e-05 0.0518553)
(-4.41707e-06 -6.06795e-06 0.0353294)
(-1.52993e-06 -2.34204e-06 0.0220596)
(-4.33805e-07 -9.25839e-07 0.0116389)
(-2.95464e-08 -6.68032e-08 0.0035372)
(1.08767e-05 7.86924e-06 0.0517385)
(6.03863e-06 2.86337e-06 0.0352513)
(3.1527e-06 6.44178e-07 0.0220144)
(1.54114e-06 -6.66301e-09 0.0116168)
(3.21549e-07 -8.39281e-08 0.00353076)
(-5.84181e-06 -1.2324e-05 0.0536293)
(-1.97369e-06 -6.57343e-06 0.0367435)
(-7.37898e-08 -3.33787e-06 0.023068)
(4.00429e-07 -1.42992e-06 0.0122341)
(3.02696e-07 -4.78069e-07 0.00373923)
(-1.38325e-05 -1.14861e-05 0.0518728)
(-6.67871e-06 -5.85632e-06 0.035343)
(-2.83602e-06 -2.70915e-06 0.0220691)
(-1.01492e-06 -9.76409e-07 0.0116438)
(-1.27449e-07 -2.81583e-07 0.00353849)
(1.27017e-05 7.40524e-06 0.051747)
(7.02507e-06 3.15315e-06 0.0352554)
(3.59038e-06 1.06616e-06 0.0220158)
(1.35316e-06 1.39924e-07 0.0116169)
(4.86214e-07 -8.52077e-08 0.00353053)
(1.43108e-05 4.28139e-06 0.0535231)
(8.86333e-06 1.44673e-06 0.0366699)
(5.0915e-06 -3.17977e-08 0.0230236)
(2.35473e-06 -6.1509e-07 0.0122117)
(7.61617e-07 -2.46211e-07 0.00373263)
(7.03059e-06 8.546e-06 0.0535317)
(3.95921e-06 3.98629e-06 0.0366783)
(1.90533e-06 1.56562e-06 0.0230304)
(8.11817e-07 5.29884e-07 0.0122158)
(1.89059e-07 5.95166e-08 0.00373395)
(1.49974e-05 2.21371e-07 0.0533696)
(8.14508e-06 9.3088e-07 0.0366247)
(3.85487e-06 1.07732e-06 0.0230304)
(1.47029e-06 8.0989e-07 0.0122322)
(3.31579e-07 3.18852e-07 0.00374424)
(-1.72866e-05 -1.06791e-06 0.0534972)
(-8.86882e-06 -1.64518e-06 0.036709)
(-4.05649e-06 -1.59716e-06 0.0230802)
(-1.53997e-06 -1.10415e-06 0.0122572)
(-3.39398e-07 -4.31613e-07 0.00375161)
(1.73614e-05 9.1042e-07 0.0534935)
(8.98145e-06 1.74492e-06 0.0367077)
(4.09575e-06 1.80431e-06 0.0230799)
(1.53165e-06 1.27244e-06 0.0122571)
(3.41538e-07 5.26708e-07 0.00375171)
(1.74139e-05 -6.89792e-07 0.0534816)
(9.02251e-06 -1.51492e-06 0.0366999)
(4.10552e-06 -1.54817e-06 0.0230752)
(1.42772e-06 -1.04343e-06 0.0122549)
(3.66368e-07 -4.8869e-07 0.00375122)
(6.75639e-06 -1.15043e-05 0.0535385)
(3.23895e-06 -6.33256e-06 0.0366822)
(1.21071e-06 -3.21504e-06 0.0230319)
(2.01082e-07 -1.39367e-06 0.0122166)
(4.4571e-08 -3.40384e-07 0.0037344)
(1.166e-05 -6.88633e-06 0.0535231)
(6.26698e-06 -3.37305e-06 0.0366734)
(3.08347e-06 -1.26108e-06 0.0230271)
(1.32418e-06 -2.60586e-07 0.0122145)
(3.1455e-07 -1.39328e-08 0.00373388)
(7.5179e-07 -1.48043e-05 0.0532776)
(-8.92001e-08 -8.0094e-06 0.0365613)
(-4.69175e-07 -3.73445e-06 0.0229908)
(-4.66971e-07 -1.28682e-06 0.0122117)
(-2.06869e-07 -3.61264e-07 0.00373822)
(1.82713e-08 1.6732e-05 0.0534352)
(8.11932e-07 8.6505e-06 0.0366673)
(1.13374e-06 3.98751e-06 0.0230548)
(9.35306e-07 1.51329e-06 0.0122443)
(3.68049e-07 3.29268e-07 0.003748)
(-1.37491e-08 -1.41851e-05 0.053285)
(6.57668e-07 -7.58411e-06 0.0365676)
(8.66055e-07 -3.53947e-06 0.0229952)
(6.80522e-07 -1.4122e-06 0.0122138)
(2.55869e-07 -2.99623e-07 0.00373882)
(3.60088e-07 1.64454e-05 0.0534368)
(-6.26023e-07 8.44361e-06 0.0366686)
(-1.10509e-06 3.87564e-06 0.0230556)
(-9.67027e-07 1.54716e-06 0.0122445)
(-3.77369e-07 3.0461e-07 0.00374792)
(1.13437e-05 1.63126e-05 0.074262)
(2.26033e-05 9.5759e-06 0.0742162)
(0.000201116 0.000200825 0.122449)
(3.55186e-05 1.95448e-05 0.0993527)
(2.11541e-05 2.70084e-05 0.0991849)
(6.35497e-05 -8.93006e-07 0.107564)
(4.73944e-05 6.54649e-06 0.086013)
(5.78785e-05 -1.1754e-06 0.116587)
(7.30483e-07 -1.88518e-06 0.126061)
(4.66331e-05 3.09486e-05 0.109234)
(3.95451e-08 -2.04741e-06 0.127635)
(6.3304e-05 -7.92399e-07 0.10756)
(4.72102e-05 -7.13546e-06 0.0860292)
(5.76423e-05 -4.95755e-07 0.116583)
(8.02304e-07 -1.11438e-06 0.126085)
(-9.74078e-08 1.09111e-06 0.127647)
(4.65624e-05 -3.16215e-05 0.109227)
(-5.40811e-07 -6.36311e-07 0.12609)
(-4.63481e-05 -3.27501e-05 0.109235)
(-4.69631e-05 -7.97816e-06 0.0860216)
(2.30581e-05 -9.85589e-06 0.0742314)
(0.000199961 -0.000200464 0.122392)
(2.20447e-05 -2.56947e-05 0.0991882)
(3.39625e-05 -1.76982e-05 0.0994942)
(1.38055e-05 -1.95083e-05 0.0743656)
(-4.45569e-07 -5.67464e-05 0.116823)
(3.21136e-06 2.38009e-07 0.126082)
(-7.07489e-07 -6.76339e-07 0.127549)
(3.62651e-05 -4.44147e-05 0.109522)
(7.89248e-07 -5.69648e-05 0.116824)
(-3.40045e-06 -6.87152e-07 0.126082)
(9.11795e-07 -8.90325e-07 0.127549)
(-3.48393e-05 -4.46348e-05 0.109521)
(-9.96778e-08 -6.34644e-05 0.10812)
(1.04336e-05 -4.69273e-05 0.086365)
(6.45073e-07 -6.33836e-05 0.108122)
(-9.12372e-06 -4.70677e-05 0.0863796)
(-0.000199174 -0.000201266 0.122394)
(-2.09313e-05 -2.82733e-05 0.0992274)
(-3.10052e-05 -1.91827e-05 0.0994608)
(-2.19883e-05 -1.1205e-05 0.0742188)
(-1.23343e-05 -2.07096e-05 0.0743751)
(1.98171e-05 7.8911e-06 0.0733032)
(1.27214e-05 1.64798e-05 0.0732503)
(2.42696e-05 1.87973e-05 0.0919149)
(2.08011e-05 1.99253e-05 0.0853278)
(2.88625e-05 7.21589e-05 0.113996)
(2.71718e-05 7.31424e-05 0.106872)
(2.29343e-05 1.66792e-05 0.0851125)
(7.53586e-05 1.86109e-05 0.113949)
(7.67257e-05 1.66582e-05 0.106767)
(-1.87957e-05 2.90617e-06 0.0798353)
(6.24231e-05 9.20622e-07 0.105338)
(2.20413e-05 -1.68331e-06 0.0827462)
(-6.2101e-05 -3.03438e-07 0.107683)
(2.28985e-05 -1.12443e-06 0.079662)
(-6.0292e-05 -1.31294e-06 0.105484)
(-1.81451e-05 4.87573e-07 0.0829092)
(-1.85429e-05 1.37751e-06 0.0723418)
(5.00434e-05 4.61318e-06 0.0976171)
(-4.38087e-05 -5.79547e-06 0.08623)
(2.41517e-05 7.20525e-07 0.072179)
(-4.93193e-05 -5.95367e-06 0.0977912)
(-1.87484e-05 -3.7311e-06 0.0798484)
(2.17376e-05 -5.25531e-07 0.0827515)
(6.11141e-05 -2.07783e-06 0.105337)
(-6.21541e-05 -3.70403e-07 0.10768)
(2.24077e-05 -1.66329e-07 0.0796761)
(-1.75127e-05 -1.82605e-06 0.0829137)
(-6.08402e-05 7.86611e-07 0.105484)
(-1.77933e-05 -1.21813e-06 0.0723583)
(5.00029e-05 -5.01689e-06 0.0976223)
(-4.27553e-05 5.13131e-06 0.0862433)
(2.40783e-05 -9.84663e-07 0.0721982)
(-4.81756e-05 6.05693e-06 0.0977955)
(1.92483e-05 -1.24169e-06 0.0723388)
(-5.03022e-05 -4.92979e-06 0.0976217)
(4.29391e-05 5.61323e-06 0.0862321)
(-2.47918e-05 -1.01948e-06 0.0721764)
(4.86728e-05 6.06341e-06 0.0977911)
(-1.69204e-05 6.75486e-06 0.0743861)
(-2.3202e-05 1.96937e-05 0.0920278)
(1.25837e-05 -2.12694e-05 0.0732773)
(1.80193e-05 -1.23496e-05 0.0732821)
(2.31446e-05 -2.12285e-05 0.0918669)
(-1.01328e-05 1.49365e-05 0.0733931)
(-1.7357e-05 6.93221e-06 0.0734547)
(-7.26078e-05 1.69723e-05 0.106881)
(2.34255e-05 -2.04183e-05 0.0851513)
(7.53013e-05 -1.90657e-05 0.11394)
(-1.99274e-05 2.67663e-05 0.0993523)
(-7.16114e-05 1.90225e-05 0.114048)
(7.61406e-05 -2.11544e-05 0.106694)
(-2.01793e-05 1.39983e-05 0.0853412)
(-2.45221e-05 7.79128e-05 0.107037)
(1.8818e-05 -2.07005e-05 0.0853346)
(2.47813e-05 -7.20745e-05 0.114059)
(-2.95491e-05 1.84602e-05 0.0996562)
(1.95316e-05 -7.39407e-05 0.106876)
(-1.96734e-05 2.14194e-05 0.0855757)