/*--------------------------------*- C++ -*----------------------------------*\
| =========                 |                                                 |
| \\      /  F ield         | OpenFOAM: The Open Source CFD Toolbox           |
|  \\    /   O peration     | Version:  2206                                  |
|   \\  /    A nd           | Website:  www.openfoam.com                      |
|    \\/     M anipulation  |                                                 |
\*---------------------------------------------------------------------------*/
FoamFile
{
    version     2.0;
    format      ascii;
    arch        "LSB;label=32;scalar=64";
    class       volScalarField;
    location    "80";
    object      nut;
}
// * * * * * * * * * * * * * * * * * * * * * * * * * * * * * * * * * * * * * //

dimensions      [0 2 -1 0 0 0 0];

internalField   nonuniform List<scalar> 
67442
(
1.37369e-06
8.67013e-07
8.73843e-07
8.29026e-07
8.34921e-07
8.50454e-07
8.64466e-07
8.36719e-07
8.5762e-07
8.51477e-07
8.58397e-07
8.35653e-07
8.70553e-07
4.7156e-08
2.13256e-07
2.17772e-08
4.67263e-08
2.0194e-07
1.40232e-06
1.37451e-06
1.39235e-06
2.16884e-07
1.01878e-06
4.41783e-07
2.20439e-08
1.02769e-06
2.20694e-07
4.46845e-07
1.15646e-07
1.1555e-07
2.14773e-08
2.17058e-08
1.17022e-07
1.16382e-07
4.80931e-08
2.13961e-07
2.18367e-07
1.02621e-06
4.57451e-07
2.20457e-07
1.04081e-06
4.55947e-07
1.17493e-07
1.17907e-07
2.1842e-08
2.15413e-07
1.0155e-06
4.37511e-07
4.75162e-08
2.04518e-07
1.02163e-06
2.16708e-07
4.37757e-07
4.75326e-08
2.06251e-07
1.02311e-06
2.1369e-07
4.42151e-07
4.7308e-08
2.06012e-07
1.17801e-07
1.18944e-07
2.17825e-08
1.03129e-06
2.16917e-07
4.45799e-07
4.73189e-08
2.12153e-07
4.73762e-08
2.13156e-07
2.16977e-08
2.14679e-08
1.96789e-08
4.7165e-08
1.06659e-07
1.08095e-07
1.95268e-08
3.35914e-08
2.14478e-07
3.94645e-08
1.75405e-07
3.98123e-08
1.7761e-07
3.32465e-08
2.18104e-08
3.29033e-08
2.04012e-07
1.69695e-07
3.90655e-08
1.9558e-08
4.72194e-08
1.04368e-07
1.06032e-07
1.9536e-08
1.95583e-08
4.73949e-08
1.05809e-07
3.27947e-08
2.05946e-07
1.69558e-07
3.88694e-08
1.69028e-07
3.85703e-08
3.28487e-08
2.19927e-08
2.20925e-08
1.83002e-07
3.12367e-07
1.17256e-07
4.52846e-08
3.1737e-07
4.51903e-08
1.83004e-07
1.83482e-07
3.09486e-07
1.1725e-07
4.44953e-08
3.13466e-07
4.44505e-08
1.8313e-07
7.12947e-08
1.91722e-08
1.90301e-08
1.91249e-08
1.90715e-08
7.16414e-08
2.16697e-08
2.185e-08
2.18832e-08
1.84513e-07
3.14881e-07
1.17036e-07
4.5226e-08
4.5104e-08
3.12773e-07
1.83742e-07
1.85465e-07
3.16258e-07
1.17693e-07
4.46366e-08
4.46108e-08
3.17601e-07
1.84534e-07
7.11773e-08
1.93536e-08
1.92956e-08
1.92013e-08
1.92071e-08
7.19371e-08
1.97184e-08
4.79865e-08
1.07616e-07
1.09193e-07
1.96176e-08
3.33827e-08
2.15115e-07
3.94523e-08
1.74488e-07
3.98144e-08
1.77393e-07
3.32999e-08
1.84956e-07
3.18959e-07
1.17858e-07
4.46352e-08
4.45811e-08
3.19409e-07
1.84203e-07
1.84367e-07
3.15597e-07
1.1886e-07
4.51117e-08
3.12594e-07
4.48922e-08
1.82716e-07
7.13885e-08
1.91487e-08
1.91695e-08
1.91943e-08
1.92747e-08
7.19639e-08
2.20192e-08
3.34046e-08
2.07204e-07
3.95605e-08
1.72937e-07
1.98367e-08
4.7704e-08
1.06574e-07
1.0649e-07
1.98238e-08
1.97138e-08
4.75087e-08
1.06918e-07
3.33893e-08
2.08456e-07
3.93179e-08
1.72358e-07
3.91533e-08
1.73697e-07
3.3408e-08
1.97076e-08
4.75631e-08
1.07172e-07
1.07763e-07
1.97169e-08
3.34021e-08
2.0521e-07
1.71775e-07
3.93962e-08
1.74077e-07
3.92407e-08
3.34669e-08
1.9334e-08
4.71936e-08
1.04824e-07
1.05399e-07
1.94244e-08
3.30366e-08
2.07247e-07
3.90107e-08
1.69081e-07
3.89213e-08
1.72639e-07
3.29559e-08
1.8531e-07
3.1389e-07
1.179e-07
4.50939e-08
4.49814e-08
3.16704e-07
1.86372e-07
1.8758e-07
3.21869e-07
1.18198e-07
4.62365e-08
3.22429e-07
4.6068e-08
1.8668e-07
7.26638e-08
1.94936e-08
1.95779e-08
1.95041e-08
1.96191e-08
7.30059e-08
2.18054e-08
1.95822e-08
4.76189e-08
1.08525e-07
1.08959e-07
1.96032e-08
3.30567e-08
2.13583e-07
1.76892e-07
3.93365e-08
1.76999e-07
3.93863e-08
3.33392e-08
1.95167e-08
4.76563e-08
1.08131e-07
1.08502e-07
1.95877e-08
3.31468e-08
2.13451e-07
1.76425e-07
3.91096e-08
1.77785e-07
3.9547e-08
3.33053e-08
2.17207e-08
2.1476e-08
1.27188e-06
1.29294e-06
9.64728e-07
3.61237e-07
5.11329e-07
5.16771e-07
7.96642e-07
5.01923e-07
5.06404e-07
3.60052e-07
3.64321e-07
5.03776e-07
5.13318e-07
8.08544e-07
5.02265e-07
4.98045e-07
3.6487e-07
3.61673e-07
5.1103e-07
5.1618e-07
8.15473e-07
5.03796e-07
5.0531e-07
3.62382e-07
3.61833e-07
5.10967e-07
5.12488e-07
8.17033e-07
5.13984e-07
5.00747e-07
3.62914e-07
1.27102e-06
1.2998e-06
9.66513e-07
1.30093e-06
1.27958e-06
9.65514e-07
1.29222e-06
1.27793e-06
9.61309e-07
5.84656e-07
4.41914e-07
2.18617e-07
3.17606e-07
4.36933e-07
3.18399e-07
5.85498e-07
6.33549e-07
4.43053e-07
4.05088e-07
6.99137e-07
4.03294e-07
6.80304e-07
6.45066e-07
5.95755e-07
4.46975e-07
2.21777e-07
3.22569e-07
4.45429e-07
3.22631e-07
5.97654e-07
6.46989e-07
4.51417e-07
7.01426e-07
4.1208e-07
6.92772e-07
4.11895e-07
6.51923e-07
5.94646e-07
4.49124e-07
2.19785e-07
3.19878e-07
3.16871e-07
4.39537e-07
5.93957e-07
6.43876e-07
4.56369e-07
4.13844e-07
7.05675e-07
4.13882e-07
7.02691e-07
6.50748e-07
5.89161e-07
4.52778e-07
2.20333e-07
3.1794e-07
3.17727e-07
4.49687e-07
5.94008e-07
6.49094e-07
4.54668e-07
4.11603e-07
7.09411e-07
4.08377e-07
7.05852e-07
6.45244e-07
5.76306e-07
4.44538e-07
2.19395e-07
3.09543e-07
3.14831e-07
4.33406e-07
5.79351e-07
6.25968e-07
4.3858e-07
3.97087e-07
6.90596e-07
3.97164e-07
6.74847e-07
6.37981e-07
5.80435e-07
4.48175e-07
2.20414e-07
3.12591e-07
3.18608e-07
4.44774e-07
5.9516e-07
6.33217e-07
4.36352e-07
6.96325e-07
4.01271e-07
6.7885e-07
4.01829e-07
6.45688e-07
5.84883e-07
4.46449e-07
2.16924e-07
3.11995e-07
4.42634e-07
3.13618e-07
5.88979e-07
6.3147e-07
4.42657e-07
6.91751e-07
3.99568e-07
6.83549e-07
3.98462e-07
6.44481e-07
5.95034e-07
4.43225e-07
2.16497e-07
3.14842e-07
4.4208e-07
3.1928e-07
5.99562e-07
6.48412e-07
4.53298e-07
7.08572e-07
4.065e-07
7.00179e-07
4.09665e-07
6.53772e-07
3.39652e-09
3.64012e-10
2.44147e-11
2.78276e-12
2.35304e-12
3.48043e-09
3.7757e-10
2.57785e-11
3.10097e-12
2.65964e-12
3.44034e-09
3.68685e-10
2.4692e-11
2.79451e-12
2.3588e-12
3.54495e-09
3.83107e-10
2.61019e-11
3.1147e-12
2.66589e-12
3.43701e-09
3.71955e-10
2.54216e-11
3.09227e-12
2.65994e-12
3.50276e-09
3.78542e-10
2.58091e-11
3.10454e-12
2.66336e-12
3.45232e-09
3.7041e-10
2.48064e-11
2.7934e-12
2.35413e-12
3.52962e-09
3.82631e-10
2.60815e-11
3.11539e-12
2.66747e-12
3.49227e-09
3.74119e-10
2.50405e-11
2.80457e-12
2.3599e-12
3.48183e-09
3.73799e-10
2.50247e-11
2.80561e-12
2.36159e-12
3.45696e-09
3.70812e-10
2.48411e-11
2.80105e-12
2.36148e-12
3.48668e-09
3.78168e-10
2.58032e-11
3.1035e-12
2.66215e-12
3.41392e-09
3.66753e-10
2.45831e-11
2.78847e-12
2.35501e-12
3.41444e-09
3.66832e-10
2.46026e-11
2.78838e-12
2.35413e-12
3.50368e-09
3.7944e-10
2.58824e-11
3.1087e-12
2.66567e-12
3.4236e-09
3.70999e-10
2.535e-11
3.0891e-12
2.65912e-12
3.52838e-09
3.79599e-10
2.58685e-11
3.10504e-12
2.66169e-12
3.39465e-09
3.6462e-10
2.4472e-11
2.79017e-12
2.35935e-12
3.4892e-09
3.78249e-10
2.58114e-11
3.10471e-12
2.66302e-12
3.34046e-09
3.58095e-10
2.41974e-11
2.84826e-12
2.4304e-12
3.48472e-09
3.75339e-10
2.53639e-11
2.93883e-12
2.49656e-12
3.57954e-09
3.85114e-10
2.61931e-11
3.11146e-12
2.66023e-12
3.455e-09
3.69527e-10
2.47328e-11
2.79515e-12
2.35844e-12
3.46422e-09
3.70733e-10
2.48123e-11
2.79846e-12
2.35991e-12
3.54166e-09
3.83413e-10
2.61334e-11
3.11469e-12
2.66476e-12
3.5524e-09
3.84208e-10
2.61872e-11
3.11827e-12
2.66721e-12
3.51816e-09
3.76961e-10
2.52256e-11
2.82812e-12
2.3808e-12
3.52104e-09
3.77324e-10
2.52527e-11
2.82825e-12
2.37987e-12
3.4387e-09
3.67984e-10
2.46509e-11
2.80949e-12
2.37678e-12
3.44375e-09
3.68575e-10
2.46883e-11
2.81252e-12
2.37896e-12
3.2456e-09
3.49125e-10
2.38936e-11
3.00994e-12
2.61451e-12
3.21796e-09
3.46362e-10
2.37184e-11
3.0043e-12
2.61341e-12
3.24469e-09
3.49116e-10
2.38935e-11
3.00879e-12
2.61293e-12
3.22008e-09
3.46378e-10
2.37129e-11
3.00389e-12
2.61295e-12
3.44243e-09
3.728e-10
2.54802e-11
3.09775e-12
2.66416e-12
3.50597e-09
3.79308e-10
2.58559e-11
3.10467e-12
2.66223e-12
3.51493e-09
3.79834e-10
2.58914e-11
3.10768e-12
2.66474e-12
3.45553e-09
3.70924e-10
2.48381e-11
2.79898e-12
2.35946e-12
3.50914e-09
3.76099e-10
2.51774e-11
2.8273e-12
2.38113e-12
3.50852e-09
3.76312e-10
2.51941e-11
2.82767e-12
2.38078e-12
3.2502e-09
3.501e-10
2.39618e-11
3.01192e-12
2.61474e-12
3.25646e-09
3.50276e-10
2.39589e-11
3.01098e-12
2.6137e-12
3.53484e-09
3.82713e-10
2.60743e-11
3.11348e-12
2.66542e-12
3.38733e-09
3.62679e-10
2.44603e-11
2.85585e-12
2.43181e-12
3.52634e-09
3.7952e-10
2.56173e-11
2.94583e-12
2.49715e-12
3.6322e-09
3.90179e-10
2.65125e-11
3.12081e-12
2.66119e-12
3.4984e-09
3.75271e-10
2.5109e-11
2.80604e-12
2.3596e-12
3.50223e-09
3.75643e-10
2.51401e-11
2.80816e-12
2.36101e-12
3.48491e-09
3.73612e-10
2.50021e-11
2.80399e-12
2.36032e-12
3.56426e-09
3.84219e-10
2.61633e-11
3.11171e-12
2.66072e-12
3.47148e-09
3.72287e-10
2.49213e-11
2.80176e-12
2.35997e-12
3.54952e-09
3.80231e-10
2.54347e-11
2.83343e-12
2.38023e-12
3.5546e-09
3.80562e-10
2.54547e-11
2.83735e-12
2.38394e-12
3.30334e-09
3.55375e-10
2.42819e-11
3.02063e-12
2.6151e-12
3.48568e-09
3.77824e-10
2.5782e-11
3.1062e-12
2.66556e-12
3.53874e-09
3.81502e-10
2.59891e-11
3.1083e-12
2.6622e-12
3.42394e-09
3.67402e-10
2.46124e-11
2.7938e-12
2.36018e-12
3.53591e-09
3.8166e-10
2.60138e-11
3.10891e-12
2.66192e-12
3.43632e-09
3.68719e-10
2.47055e-11
2.79547e-12
2.35921e-12
3.50074e-09
3.79056e-10
2.58496e-11
3.10598e-12
2.66347e-12
3.42387e-09
3.71295e-10
2.53767e-11
3.09287e-12
2.66228e-12
3.54958e-09
3.82256e-10
2.6025e-11
3.10917e-12
2.66228e-12
3.61127e-09
3.88838e-10
2.64361e-11
3.11901e-12
2.6615e-12
3.32133e-09
3.55504e-10
2.40053e-11
2.83938e-12
2.42676e-12
3.4396e-09
3.70606e-10
2.50672e-11
2.92202e-12
2.4863e-12
3.44966e-09
3.7174e-10
2.51351e-11
2.92846e-12
2.49163e-12
3.29764e-09
3.53734e-10
2.39104e-11
2.83178e-12
2.4208e-12
3.51295e-09
3.78156e-10
2.57721e-11
3.09511e-12
2.65356e-12
3.46626e-09
3.72012e-10
2.49295e-11
2.81905e-12
2.37891e-12
3.47691e-09
3.72813e-10
2.49697e-11
2.8215e-12
2.38049e-12
3.23315e-09
3.48036e-10
2.38322e-11
3.00917e-12
2.61518e-12
3.23545e-09
3.48074e-10
2.38356e-11
3.00873e-12
2.61421e-12
3.57074e-09
3.84054e-10
2.61246e-11
3.11036e-12
2.66111e-12
3.33386e-09
3.57396e-10
2.41479e-11
2.84308e-12
2.42605e-12
3.4859e-09
3.75206e-10
2.53526e-11
2.93762e-12
2.49561e-12
3.47128e-09
3.74245e-10
2.53005e-11
2.93273e-12
2.49136e-12
3.33159e-09
3.5687e-10
2.41107e-11
2.84504e-12
2.42946e-12
3.58417e-09
3.85561e-10
2.62159e-11
3.11364e-12
2.66223e-12
3.52782e-09
3.77484e-10
2.5257e-11
2.82964e-12
2.38131e-12
3.52678e-09
3.78083e-10
2.53035e-11
2.83026e-12
2.38058e-12
3.29685e-09
3.53745e-10
2.4173e-11
3.01788e-12
2.61514e-12
3.30769e-09
3.55604e-10
2.42911e-11
3.01965e-12
2.61372e-12
3.48636e-09
3.7294e-10
2.49715e-11
2.81907e-12
2.37767e-12
3.48015e-09
3.73077e-10
2.50009e-11
2.82326e-12
2.38111e-12
3.25133e-09
3.48836e-10
2.38564e-11
3.00577e-12
2.6112e-12
3.24861e-09
3.49405e-10
2.39133e-11
3.00844e-12
2.61215e-12
3.49254e-09
3.73776e-10
2.50234e-11
2.82123e-12
2.37878e-12
3.49671e-09
3.74886e-10
2.51082e-11
2.82375e-12
2.379e-12
3.26092e-09
3.49856e-10
2.39253e-11
3.00959e-12
2.6133e-12
3.26605e-09
3.51218e-10
2.40206e-11
3.01173e-12
2.61282e-12
3.30253e-09
3.54182e-10
2.39425e-11
2.83889e-12
2.42752e-12
3.43038e-09
3.70782e-10
2.5099e-11
2.92413e-12
2.48762e-12
3.4581e-09
3.73025e-10
2.52137e-11
2.93129e-12
2.49269e-12
3.29071e-09
3.53365e-10
2.38864e-11
2.83293e-12
2.42262e-12
3.53771e-09
3.81534e-10
2.59841e-11
3.10186e-12
2.6553e-12
3.38724e-09
3.62198e-10
2.44206e-11
2.85091e-12
2.42741e-12
3.51607e-09
3.78906e-10
2.55965e-11
2.94474e-12
2.49634e-12
3.51139e-09
3.7861e-10
2.55712e-11
2.94015e-12
2.49188e-12
3.38604e-09
3.62248e-10
2.44328e-11
2.85443e-12
2.43094e-12
3.62054e-09
3.89352e-10
2.6479e-11
3.1211e-12
2.66228e-12
3.61941e-09
3.89875e-10
2.65166e-11
3.12306e-12
2.66336e-12
3.60527e-09
3.88636e-10
2.64257e-11
3.12021e-12
2.66337e-12
3.38729e-09
3.63131e-10
2.44971e-11
2.85195e-12
2.42629e-12
3.50906e-09
3.78357e-10
2.55568e-11
2.94367e-12
2.4966e-12
3.51788e-09
3.79497e-10
2.56225e-11
2.94073e-12
2.49134e-12
3.38263e-09
3.62764e-10
2.44706e-11
2.85499e-12
2.43079e-12
3.35136e-09
3.5902e-10
2.42281e-11
2.84429e-12
2.42549e-12
3.47546e-09
3.74872e-10
2.5339e-11
2.93765e-12
2.49613e-12
3.47853e-09
3.75179e-10
2.53474e-11
2.93314e-12
2.49076e-12
3.33879e-09
3.58368e-10
2.42081e-11
2.84805e-12
2.43012e-12
3.56514e-09
3.84608e-10
2.61853e-11
3.11383e-12
2.66286e-12
3.30493e-09
3.55686e-10
2.43097e-11
3.02307e-12
2.61667e-12
3.53441e-09
3.81077e-10
2.59588e-11
3.1012e-12
2.65517e-12
3.28331e-09
3.52354e-10
2.38323e-11
2.83566e-12
2.42702e-12
3.40968e-09
3.67994e-10
2.4909e-11
2.91919e-12
2.48766e-12
3.42192e-09
3.69283e-10
2.49788e-11
2.92452e-12
2.49189e-12
3.28482e-09
3.52544e-10
2.38364e-11
2.83166e-12
2.42264e-12
3.53405e-09
3.81325e-10
2.59831e-11
3.10174e-12
2.65495e-12
3.28972e-09
3.53109e-10
2.38858e-11
2.83737e-12
2.42727e-12
3.41255e-09
3.68881e-10
2.49838e-11
2.92135e-12
2.48764e-12
3.43824e-09
3.71288e-10
2.51179e-11
2.92885e-12
2.49249e-12
3.28356e-09
3.52559e-10
2.38459e-11
2.83192e-12
2.42252e-12
8.5351e-07
8.14241e-07
8.63549e-07
1.37802e-06
2.04768e-07
1.01827e-06
4.37482e-07
4.78176e-08
2.07106e-07
1.01987e-06
2.20035e-07
4.35903e-07
2.19481e-08
1.1869e-07
3.26604e-08
2.02995e-07
1.71016e-07
3.86966e-08
1.69598e-07
3.87293e-08
3.27384e-08
1.95003e-08
4.73177e-08
1.07392e-07
1.06427e-07
1.96906e-08
3.33314e-08
2.03028e-07
3.9221e-08
1.73438e-07
3.92245e-08
1.71963e-07
3.33501e-08
2.18813e-08
1.83252e-07
3.17653e-07
1.17307e-07
4.52573e-08
3.11729e-07
4.51092e-08
1.8622e-07
1.86131e-07
3.21829e-07
3.20751e-07
1.8696e-07
7.29676e-08
1.92443e-08
1.92985e-08
7.30818e-08
3.55873e-07
8.36365e-07
5.05413e-07
5.11259e-07
5.06046e-07
5.19398e-07
3.5991e-07
1.30009e-06
9.64713e-07
1.30692e-06
1.28694e-06
9.60092e-07
6.36235e-07
4.38477e-07
3.95429e-07
6.64159e-07
3.94419e-07
6.89183e-07
6.24146e-07
5.86272e-07
4.43515e-07
2.1746e-07
3.15559e-07
3.15159e-07
4.46792e-07
5.85653e-07
6.36297e-07
4.3678e-07
6.71396e-07
4.01117e-07
6.97634e-07
3.96245e-07
6.31922e-07
5.93419e-07
4.40614e-07
4.51388e-07
5.97032e-07
8.02998e-07
8.5314e-07
8.61989e-07
1.37046e-06
2.16262e-08
2.16518e-08
1.17839e-07
1.17505e-07
4.74632e-08
2.13968e-07
2.19639e-07
1.02884e-06
4.56259e-07
4.70158e-08
2.18129e-07
2.14957e-08
2.15816e-08
1.84662e-07
3.11294e-07
1.15856e-07
4.54959e-08
4.5344e-08
3.15251e-07
1.85169e-07
1.81593e-07
3.12588e-07
1.16257e-07
4.46852e-08
4.47501e-08
3.13267e-07
1.84399e-07
7.26849e-08
1.92659e-08
1.9188e-08
1.92318e-08
1.91583e-08
7.27014e-08
1.94537e-08
4.72124e-08
1.08095e-07
1.06559e-07
1.95904e-08
3.31413e-08
2.12347e-07
3.9834e-08
1.77656e-07
3.92678e-08
1.75938e-07
3.32716e-08
1.92527e-08
4.69945e-08
1.06159e-07
1.04224e-07
1.93349e-08
3.62309e-07
8.34022e-07
5.00072e-07
4.95841e-07
5.13266e-07
5.05492e-07
3.63241e-07
1.2688e-06
5.93905e-07
4.40811e-07
2.18574e-07
3.16211e-07
4.48036e-07
3.19023e-07
5.97517e-07
6.54233e-07
4.57508e-07
4.07206e-07
6.97617e-07
4.09339e-07
7.08289e-07
6.50016e-07
5.88707e-07
4.39293e-07
2.14272e-07
3.13518e-07
4.37058e-07
3.11962e-07
5.76851e-07
3.49637e-09
3.7436e-10
2.50425e-11
2.80372e-12
2.35912e-12
3.53056e-09
3.82035e-10
2.60392e-11
3.11174e-12
2.66434e-12
3.58611e-09
3.8717e-10
2.63596e-11
3.11938e-12
2.66393e-12
3.46465e-09
3.72173e-10
2.49355e-11
2.80352e-12
2.36164e-12
3.53109e-09
3.8266e-10
2.60861e-11
3.11583e-12
2.66792e-12
3.31411e-09
3.55773e-10
2.4057e-11
2.84484e-12
2.43076e-12
3.46049e-09
3.73236e-10
2.52397e-11
2.93042e-12
2.49059e-12
3.44842e-09
3.72069e-10
2.51693e-11
2.93394e-12
2.49681e-12
3.31682e-09
3.55675e-10
2.40377e-11
2.83966e-12
2.42544e-12
3.38068e-09
3.62591e-10
2.44665e-11
2.85634e-12
2.43225e-12
3.49871e-09
3.77401e-10
2.55062e-11
2.93788e-12
2.49109e-12
3.49227e-09
3.76895e-10
2.54731e-11
2.9425e-12
2.49755e-12
3.3765e-09
3.61772e-10
2.44047e-11
2.8502e-12
2.42694e-12
3.6033e-09
3.87906e-10
2.63848e-11
3.11738e-12
2.66083e-12
3.52446e-09
3.76975e-10
2.52194e-11
2.82772e-12
2.38032e-12
3.51872e-09
3.77158e-10
2.52431e-11
2.83064e-12
2.38304e-12
3.26621e-09
3.51331e-10
2.40363e-11
3.01358e-12
2.61401e-12
3.26621e-09
3.51256e-10
2.40308e-11
3.01582e-12
2.61694e-12
3.44073e-09
3.72453e-10
2.54473e-11
3.0962e-12
2.66398e-12
3.4855e-09
3.7726e-10
2.57355e-11
3.10132e-12
2.66177e-12
3.39895e-09
3.64315e-10
2.44371e-11
2.78864e-12
2.35895e-12
3.44407e-09
3.68896e-10
2.47037e-11
2.79412e-12
2.35797e-12
3.43285e-09
3.72172e-10
2.5428e-11
3.09374e-12
2.66188e-12
3.4844e-09
3.77769e-10
2.5773e-11
3.10499e-12
2.66512e-12
3.49889e-09
3.77083e-10
2.57104e-11
3.09475e-12
2.65504e-12
3.3795e-09
3.62794e-10
2.43424e-11
2.78223e-12
2.3548e-12
3.42636e-09
3.67519e-10
2.46259e-11
2.79413e-12
2.36041e-12
3.24605e-09
3.48547e-10
2.3834e-11
3.00583e-12
2.61205e-12
3.25209e-09
3.4923e-10
2.38761e-11
3.00746e-12
2.61261e-12
3.5373e-09
3.81799e-10
2.60182e-11
3.10946e-12
2.66267e-12
3.54989e-09
3.82749e-10
2.60609e-11
3.10802e-12
2.65994e-12
3.49879e-09
3.73983e-10
2.50248e-11
2.82298e-12
2.38079e-12
3.47911e-09
3.7266e-10
2.49593e-11
2.81998e-12
2.37933e-12
3.49149e-09
3.73416e-10
2.49861e-11
2.81957e-12
2.37841e-12
3.47846e-09
3.72739e-10
2.49621e-11
2.8207e-12
2.38027e-12
3.24808e-09
3.49322e-10
2.38892e-11
3.00947e-12
2.61469e-12
3.23989e-09
3.47968e-10
2.38058e-11
3.00568e-12
2.61266e-12
3.26971e-09
3.50899e-10
2.37413e-11
2.82861e-12
2.42191e-12
3.44722e-09
3.71011e-10
2.50854e-11
2.92697e-12
2.49151e-12
3.41137e-09
3.68667e-10
2.49624e-11
2.92029e-12
2.48737e-12
3.28715e-09
3.52761e-10
2.38568e-11
2.8357e-12
2.42647e-12
3.51474e-09
3.78432e-10
2.5788e-11
3.10227e-12
2.66131e-12
8.24045e-07
1.38829e-06
8.55485e-07
8.5702e-07
7.96837e-07
8.21203e-07
8.17613e-07
8.70072e-07
8.6716e-07
8.16804e-07
8.49867e-07
8.58334e-07
8.46043e-07
8.18519e-07
8.62983e-07
1.15259e-07
1.1669e-07
8.20622e-07
1.13928e-07
1.15358e-07
1.98131e-07
4.71488e-08
2.09879e-07
2.18842e-08
2.12473e-08
4.54441e-08
2.01161e-07
1.40218e-06
1.39609e-06
1.38883e-06
2.1456e-07
1.00621e-06
8.72505e-07
4.41294e-07
2.1946e-08
1.03206e-06
2.16718e-07
4.54916e-07
1.14494e-07
1.15932e-07
2.14842e-08
2.1394e-08
2.16072e-08
2.16163e-08
8.17251e-07
1.149e-07
1.17467e-07
1.13918e-07
1.16358e-07
2.14118e-08
2.13015e-08
2.17972e-08
2.16135e-08
2.16665e-08
2.11651e-08
1.18074e-07
1.13312e-07
1.9871e-07
4.71985e-08
4.53751e-08
2.10429e-07
4.42899e-07
2.19524e-07
1.04335e-06
1.02197e-06
4.5448e-07
4.43402e-07
2.19283e-07
1.0425e-06
8.64816e-07
2.13131e-07
1.01634e-06
4.55365e-07
1.18286e-07
1.17508e-07
8.33472e-07
1.14729e-07
2.20221e-08
2.11267e-07
1.0043e-06
4.34978e-07
4.77585e-08
2.06701e-07
1.00751e-06
2.18872e-07
4.40983e-07
4.67822e-08
2.05227e-07
1.00305e-06
2.12497e-07
4.34153e-07
4.59653e-08
2.03452e-07
1.1683e-07
1.16388e-07
2.17444e-08
1.03197e-06
2.20229e-07
4.48434e-07
4.6982e-08
2.11568e-07
4.68846e-08
2.1042e-07
2.12169e-08
2.15246e-08
7.08806e-08
1.92246e-08
1.91171e-08
1.92012e-08
1.91573e-08
7.08104e-08
1.83672e-07
3.14725e-07
4.47648e-08
1.16043e-07
4.47773e-08
1.84225e-07
3.11762e-07
1.85161e-07
3.12036e-07
4.43536e-08
1.17364e-07
4.44396e-08
1.84387e-07
3.17723e-07
7.1167e-08
1.91962e-08
1.91523e-08
1.93488e-08
1.92708e-08
7.08961e-08
1.82549e-07
4.42041e-08
1.14403e-07
3.15375e-07
4.46683e-08
1.84643e-07
3.15076e-07
1.84194e-07
4.42304e-08
1.16164e-07
3.15212e-07
4.40484e-08
1.82557e-07
3.16591e-07
3.21789e-08
3.70398e-08
1.66177e-07
2.01574e-07
3.78318e-08
1.676e-07
3.14685e-08
1.92847e-08
4.72563e-08
1.07812e-07
1.05065e-07
1.95659e-08
1.90762e-08
4.65849e-08
1.04487e-07
3.28513e-08
2.04495e-07
3.86636e-08
1.74872e-07
3.84698e-08
1.71727e-07
3.3003e-08
2.1897e-08
2.16159e-08
1.93095e-08
4.50698e-08
1.04245e-07
1.03834e-07
1.92912e-08
3.24517e-08
2.02319e-07
1.68175e-07
3.80434e-08
1.69565e-07
3.81885e-08
3.23482e-08
2.19804e-08
1.82124e-07
3.15496e-07
4.44924e-08
1.1498e-07
1.84301e-07
3.15623e-07
4.45114e-08
1.84333e-07
3.14561e-07
4.41591e-08
1.16432e-07
1.84227e-07
3.14264e-07
4.41958e-08
7.14952e-08
1.92798e-08
1.92503e-08
7.18135e-08
1.92043e-08
1.92158e-08
2.15263e-08
2.14311e-08
2.14652e-08
2.15211e-08
7.12403e-08
1.91791e-08
1.91851e-08
7.18061e-08
1.92854e-08
1.92444e-08
1.85214e-07
3.15585e-07
4.46791e-08
1.13347e-07
1.86112e-07
4.46089e-08
3.15288e-07
1.8351e-07
3.16028e-07
4.43079e-08
1.17034e-07
1.819e-07
4.43017e-08
3.15609e-07
7.20298e-08
1.92535e-08
1.9121e-08
7.16073e-08
1.91182e-08
1.92114e-08
1.85613e-07
4.47117e-08
3.16335e-07
1.14495e-07
1.84742e-07
4.4332e-08
3.15216e-07
1.84583e-07
4.42453e-08
3.11263e-07
1.17226e-07
1.83455e-07
4.44099e-08
3.1633e-07
2.13452e-08
2.12614e-08
2.16181e-08
2.16234e-08
2.1658e-08
2.15752e-08
2.12073e-08
1.82966e-07
3.14018e-07
1.1841e-07
4.51464e-08
4.52033e-08
3.16582e-07
1.81169e-07
1.79645e-07
3.09598e-07
1.12351e-07
4.32821e-08
4.32727e-08
3.09769e-07
1.80992e-07
1.16717e-07
3.12905e-07
7.0763e-08
1.92941e-08
1.89707e-08
1.92779e-08
1.89801e-08
7.10861e-08
3.24448e-08
3.71234e-08
1.70716e-07
2.00419e-07
3.78627e-08
1.72621e-07
3.20394e-08
1.97161e-08
4.74977e-08
1.0854e-07
1.08013e-07
1.96909e-08
1.94288e-08
1.0371e-07
4.68758e-08
1.06071e-07
1.91451e-08
3.3089e-08
2.06285e-07
3.87792e-08
1.76661e-07
3.85686e-08
1.76253e-07
3.33098e-08
7.08868e-08
1.9436e-08
1.9416e-08
1.946e-08
1.86055e-07
3.1898e-07
1.18737e-07
4.44576e-08
4.47325e-08
3.19255e-07
1.86166e-07
1.87136e-07
3.14403e-07
1.18624e-07
4.52705e-08
3.18074e-07
4.52892e-08
1.84713e-07
1.85765e-07
4.42968e-08
1.16849e-07
3.16156e-07
4.49596e-08
3.1801e-07
1.85544e-07
1.86816e-07
1.17517e-07
3.16416e-07
4.52199e-08
7.19792e-08
1.947e-08
1.9474e-08
1.94175e-08
1.94366e-08
7.23332e-08
2.1983e-08
2.18608e-08
1.99849e-08
4.79427e-08
1.07417e-07
1.0841e-07
1.988e-08
3.3294e-08
2.0753e-07
3.88547e-08
1.73891e-07
3.85581e-08
1.72412e-07
3.33615e-08
3.27995e-08
2.05811e-07
1.71261e-07
3.86203e-08
1.95768e-08
4.7002e-08
1.05931e-07
1.06339e-07
1.96138e-08
1.95553e-08
4.69707e-08
1.0545e-07
3.28016e-08
2.05887e-07
1.71107e-07
3.86323e-08
1.69724e-07
3.84968e-08
3.28451e-08
3.24817e-08
2.03333e-07
3.82687e-08
1.68521e-07
1.93997e-08
4.60442e-08
1.03639e-07
1.04656e-07
1.92858e-08
1.92209e-08
4.60526e-08
1.04003e-07
3.25937e-08
2.04562e-07
3.85447e-08
1.68283e-07
3.85367e-08
1.67435e-07
3.24691e-08
1.85536e-07
3.18631e-07
1.17834e-07
4.46837e-08
4.47847e-08
3.19175e-07
1.85436e-07
1.84894e-07
3.14752e-07
1.17353e-07
4.50758e-08
3.12099e-07
4.47822e-08
1.85272e-07
7.23371e-08
1.95357e-08
1.956e-08
1.95068e-08
1.94765e-08
7.26126e-08
2.17089e-08
1.96495e-08
4.71325e-08
1.06625e-07
1.06514e-07
1.94135e-08
3.32812e-08
2.12272e-07
1.74935e-07
3.91345e-08
1.7606e-07
3.9247e-08
3.30553e-08
1.94625e-08
4.71017e-08
1.06691e-07
1.07533e-07
1.95716e-08
3.30267e-08
2.11089e-07
1.74518e-07
3.92234e-08
1.72721e-07
3.88787e-08
3.2936e-08
2.13707e-08
2.12575e-08
2.16679e-08
3.61199e-07
5.10199e-07
5.14961e-07
8.02389e-07
3.65431e-07
5.04654e-07
5.10733e-07
1.27922e-06
1.30719e-06
9.66971e-07
3.6177e-07
5.01995e-07
5.04211e-07
8.06694e-07
3.58255e-07
5.01078e-07
5.09864e-07
3.64177e-07
8.31602e-07
5.03334e-07
5.07492e-07
3.62256e-07
5.13388e-07
5.12278e-07
3.56188e-07
5.05936e-07
5.02101e-07
8.06819e-07
4.96278e-07
4.91264e-07
3.5696e-07
3.64168e-07
5.1229e-07
5.1302e-07
8.16095e-07
5.04663e-07
5.0199e-07
3.64107e-07
3.57721e-07
5.05346e-07
5.1148e-07
8.16443e-07
5.10953e-07
5.0779e-07
3.6325e-07
3.6675e-07
8.22029e-07
5.05902e-07
5.11903e-07
3.66755e-07
5.04945e-07
5.1703e-07
1.28472e-06
1.31054e-06
9.75086e-07
1.30375e-06
1.28518e-06
9.74153e-07
1.31193e-06
1.28393e-06
9.78953e-07
5.80486e-07
4.41545e-07
2.17049e-07
3.15121e-07
4.34617e-07
3.15666e-07
5.88811e-07
5.8648e-07
2.15833e-07
4.44565e-07
3.12404e-07
6.32455e-07
4.41162e-07
3.96415e-07
6.87978e-07
3.95528e-07
6.83115e-07
6.35823e-07
5.95301e-07
4.41925e-07
2.19308e-07
3.17466e-07
4.4438e-07
3.14582e-07
5.85678e-07
6.45602e-07
4.49519e-07
7.0186e-07
4.10249e-07
6.9051e-07
4.10728e-07
6.393e-07
3.64467e-07
8.05786e-07
5.09748e-07
5.13367e-07
3.67034e-07
5.05235e-07
5.01895e-07
6.4433e-07
4.00972e-07
6.92195e-07
4.47635e-07
4.04912e-07
7.02729e-07
6.35586e-07
6.00328e-07
4.40642e-07
2.19911e-07
3.20999e-07
3.20029e-07
4.47617e-07
5.90587e-07
5.91038e-07
2.18336e-07
3.17197e-07
4.46462e-07
6.43738e-07
4.51043e-07
4.11869e-07
7.03268e-07
4.08718e-07
6.98755e-07
6.44563e-07
6.49998e-07
4.01953e-07
6.92717e-07
4.48618e-07
4.04344e-07
7.02202e-07
6.36947e-07
6.05522e-07
4.47456e-07
2.20167e-07
3.1768e-07
3.18339e-07
4.49928e-07
6.03972e-07
5.93635e-07
3.09329e-07
2.16812e-07
4.39735e-07
3.16317e-07
5.85011e-07
4.41037e-07
6.50553e-07
4.52779e-07
4.14247e-07
7.03374e-07
4.11628e-07
7.03219e-07
6.47292e-07
3.64589e-07
8.36673e-07
5.0353e-07
5.16585e-07
5.1913e-07
5.05066e-07
3.58173e-07
5.68453e-07
4.27867e-07
2.10122e-07
3.10106e-07
3.11009e-07
4.33017e-07
5.73194e-07
6.25392e-07
4.3436e-07
3.90818e-07
6.75258e-07
3.96275e-07
6.71656e-07
6.27273e-07
5.78399e-07
4.39432e-07
2.2149e-07
3.18708e-07
3.19457e-07
4.4119e-07
5.89035e-07
6.26133e-07
4.4089e-07
6.8438e-07
3.99153e-07
6.77436e-07
4.00741e-07
6.22421e-07
5.78217e-07
4.34332e-07
2.12485e-07
3.04743e-07
4.35329e-07
3.08524e-07
5.75377e-07
6.27171e-07
4.32117e-07
6.89521e-07
3.96441e-07
6.81714e-07
3.92172e-07
6.33257e-07
5.95253e-07
4.44476e-07
2.17939e-07
3.14665e-07
4.42532e-07
3.177e-07
5.8586e-07
6.49155e-07
4.51143e-07
6.94736e-07
4.03917e-07
7.00703e-07
4.01852e-07
6.48974e-07
1.36997e-06
8.60517e-07
8.76381e-07
8.23389e-07
1.3894e-06
8.5947e-07
8.70562e-07
8.33008e-07
1.37672e-06
8.63803e-07
8.5754e-07
8.24615e-07
1.39037e-06
8.59778e-07
8.67007e-07
8.22642e-07
1.38153e-06
8.64064e-07
8.65119e-07
8.21764e-07
1.37964e-06
8.48681e-07
8.6309e-07
8.26443e-07
1.38832e-06
8.62551e-07
8.74277e-07
8.33471e-07
1.38096e-06
8.60227e-07
8.77024e-07
8.3168e-07
1.37176e-06
8.48142e-07
8.738e-07
8.3448e-07
1.38476e-06
8.5765e-07
8.76624e-07
8.37088e-07
1.38559e-06
8.64549e-07
8.73471e-07
8.25494e-07
1.37665e-06
8.62826e-07
8.5371e-07
8.3511e-07
1.38026e-06
8.6565e-07
8.60326e-07
8.23463e-07
1.38212e-06
8.64623e-07
8.64022e-07
8.2007e-07
1.38648e-06
8.56151e-07
8.61856e-07
8.13347e-07
1.39042e-06
8.46835e-07
8.50212e-07
8.17902e-07
8.55825e-07
8.76433e-07
8.17065e-07
8.62939e-07
8.61146e-07
8.52269e-07
8.57958e-07
8.15843e-07
8.75087e-07
8.74031e-07
8.03857e-07
8.39021e-07
8.09346e-07
8.68496e-07
8.74753e-07
8.58666e-07
8.73435e-07
8.36305e-07
8.06081e-07
8.63601e-07
8.61838e-07
8.63293e-07
8.53699e-07
8.61666e-07
8.68295e-07
8.61702e-07
8.33599e-07
8.0731e-07
8.75176e-07
8.71964e-07
8.75751e-07
8.13399e-07
8.30876e-07
8.07832e-07
8.71104e-07
8.66242e-07
8.6546e-07
8.74682e-07
8.38101e-07
8.2015e-07
8.64487e-07
8.66722e-07
8.45451e-07
8.70502e-07
8.64538e-07
8.54352e-07
8.65381e-07
8.37302e-07
8.18384e-07
8.65772e-07
8.68004e-07
8.69468e-07
8.05048e-07
8.25814e-07
7.96499e-07
8.60328e-07
8.63699e-07
8.59373e-07
8.6944e-07
8.42603e-07
8.1908e-07
8.53629e-07
8.71949e-07
8.59984e-07
8.72267e-07
8.66812e-07
8.68105e-07
8.46392e-07
8.35016e-07
8.1714e-07
8.64864e-07
8.70096e-07
8.60932e-07
8.04008e-07
8.30405e-07
8.04198e-07
8.66393e-07
8.66717e-07
8.69196e-07
8.76564e-07
8.41838e-07
8.11639e-07
8.57712e-07
8.72342e-07
8.60962e-07
8.69112e-07
8.58457e-07
8.52265e-07
8.5866e-07
8.33988e-07
8.14532e-07
8.6207e-07
8.57297e-07
8.67196e-07
8.11469e-07
8.27725e-07
8.1364e-07
8.61256e-07
8.65052e-07
8.63436e-07
8.65923e-07
8.371e-07
8.13564e-07
8.6231e-07
8.64465e-07
8.58788e-07
8.69506e-07
8.54117e-07
8.60015e-07
8.57377e-07
8.39851e-07
8.20581e-07
8.62994e-07
8.67556e-07
8.71282e-07
8.06331e-07
8.32457e-07
8.03443e-07
8.669e-07
8.63642e-07
8.67634e-07
8.71789e-07
8.38107e-07
8.11004e-07
8.59418e-07
8.70364e-07
8.52405e-07
8.6933e-07
8.45452e-07
8.62119e-07
8.56576e-07
8.43783e-07
8.09235e-07
8.72137e-07
8.6273e-07
8.67916e-07
8.00585e-07
8.15909e-07
8.05526e-07
8.67563e-07
8.64939e-07
8.54196e-07
8.64592e-07
8.2751e-07
8.16924e-07
8.59401e-07
8.60992e-07
8.56779e-07
8.69478e-07
8.57697e-07
8.59985e-07
8.472e-07
8.41081e-07
8.17366e-07
8.60637e-07
8.77398e-07
8.57042e-07
8.09114e-07
8.19149e-07
8.11391e-07
8.56124e-07
8.76281e-07
8.56265e-07
8.61784e-07
8.41812e-07
8.20383e-07
8.58738e-07
8.70095e-07
8.5045e-07
8.66068e-07
8.46785e-07
8.59023e-07
8.60081e-07
8.44991e-07
8.16249e-07
8.64706e-07
8.74579e-07
8.68765e-07
8.11921e-07
8.24528e-07
8.02358e-07
8.57266e-07
8.49738e-07
8.57718e-07
8.60527e-07
8.297e-07
8.18571e-07
8.59975e-07
8.52807e-07
8.53211e-07
8.68702e-07
8.51525e-07
8.6484e-07
8.63116e-07
8.37157e-07
8.21903e-07
8.61248e-07
8.77135e-07
8.70614e-07
8.1412e-07
8.28183e-07
8.12839e-07
8.69132e-07
8.73055e-07
8.56078e-07
8.75527e-07
8.27917e-07
8.18764e-07
8.62925e-07
8.659e-07
8.5612e-07
8.66119e-07
8.50351e-07
8.69218e-07
8.46318e-07
8.43261e-07
8.16265e-07
8.54997e-07
8.75248e-07
8.65092e-07
8.03311e-07
8.27581e-07
8.10662e-07
8.56283e-07
8.71944e-07
8.62012e-07
8.72843e-07
8.39944e-07
8.22466e-07
8.50008e-07
8.62795e-07
8.6269e-07
8.62191e-07
8.45732e-07
8.67099e-07
8.64242e-07
8.25362e-07
8.21775e-07
8.66621e-07
8.73887e-07
8.6092e-07
8.16373e-07
8.18578e-07
8.11588e-07
8.48158e-07
8.66587e-07
8.65012e-07
8.75214e-07
8.38934e-07
8.19054e-07
8.62767e-07
8.70375e-07
8.63353e-07
8.6466e-07
8.53824e-07
8.71156e-07
8.66295e-07
8.40621e-07
8.0456e-07
8.55123e-07
8.55566e-07
8.7063e-07
8.09321e-07
8.3387e-07
8.13836e-07
8.59512e-07
8.62381e-07
8.71669e-07
8.75021e-07
8.38297e-07
8.06926e-07
8.5201e-07
8.59257e-07
8.64888e-07
8.63801e-07
8.55142e-07
8.68927e-07
8.6798e-07
8.3438e-07
8.0367e-07
8.68295e-07
8.73977e-07
8.72692e-07
8.09919e-07
8.1789e-07
8.14022e-07
8.69757e-07
8.60027e-07
8.73155e-07
8.70628e-07
8.3553e-07
8.22164e-07
8.59423e-07
8.63938e-07
8.47567e-07
8.77556e-07
8.61563e-07
8.73244e-07
8.66555e-07
8.28307e-07
8.16673e-07
8.65847e-07
8.70108e-07
8.72251e-07
8.07147e-07
8.2049e-07
8.17905e-07
8.71235e-07
8.6212e-07
8.73726e-07
8.70325e-07
8.35212e-07
8.1261e-07
8.52054e-07
8.63105e-07
8.62944e-07
8.69602e-07
8.42946e-07
8.71499e-07
8.67103e-07
8.24964e-07
8.12193e-07