/*--------------------------------*- C++ -*----------------------------------*\
| =========                 |                                                 |
| \\      /  F ield         | OpenFOAM: The Open Source CFD Toolbox           |
|  \\    /   O peration     | Version:  2206                                  |
|   \\  /    A nd           | Website:  www.openfoam.com                      |
|    \\/     M anipulation  |                                                 |
\*---------------------------------------------------------------------------*/
FoamFile
{
    version     2.0;
    format      ascii;
    arch        "LSB;label=32;scalar=64";
    class       surfaceScalarField;
    location    "80";
    object      phi;
}
// * * * * * * * * * * * * * * * * * * * * * * * * * * * * * * * * * * * * * //

dimensions      [0 3 -1 0 0 0 0];

oriented        oriented;

internalField   nonuniform List<scalar> 
198714
(
2.32517e-12
3.95113e-12
-1.04414e-12
-9.93099e-13
-1.20356e-07
1.20352e-07
-3.72483e-11
-2.58481e-12
-1.73969e-12
3.27942e-11
3.9316e-11
-2.81237e-11
-5.77621e-11
5.70515e-11
-5.92593e-11
5.94898e-11
1.13612e-07
-4.21673e-11
-3.42324e-12
-4.87754e-13
2.03466e-11
4.39444e-11
-2.01082e-11
-2.02692e-12
2.8538e-11
-2.73875e-11
4.71999e-12
-1.1467e-07
1.14668e-07
2.65074e-11
4.29183e-11
4.88376e-11
3.36582e-11
2.73011e-08
3.36043e-11
3.64443e-11
4.1477e-11
4.04723e-11
2.72881e-08
-2.744e-08
2.03841e-13
1.56966e-11
3.5913e-11
-1.56786e-11
2.16024e-11
2.68157e-11
-2.64868e-11
-1.99407e-11
-1.15745e-07
1.15743e-07
-3.4096e-11
-4.39007e-13
-4.73437e-14
1.59697e-11
3.54987e-11
-2.05521e-11
2.09799e-11
2.62104e-11
-2.45796e-11
-2.05354e-11
1.15771e-07
4.09111e-11
4.05806e-11
2.72884e-08
-2.88107e-12
3.31019e-11
3.95371e-11
-3.14409e-11
-5.71469e-11
5.73742e-11
-5.61136e-11
6.00759e-11
-1.1363e-07
1.13628e-07
-2.61649e-11
-2.7928e-12
-1.87464e-12
2.97145e-11
2.92224e-11
-2.87868e-11
-3.76858e-11
5.64224e-11
-5.55992e-11
4.00035e-11
-1.14679e-07
1.14676e-07
-1.98406e-12
-1.12031e-12
2.9224e-11
2.90306e-11
-2.85569e-11
-3.84368e-11
5.63791e-11
-5.63729e-11
3.9617e-11
1.14683e-07
4.80393e-11
3.43877e-11
2.72923e-08
-2.74431e-08
-1.5725e-12
-1.16174e-12
2.00278e-11
4.45339e-11
-2.02357e-11
-2.15734e-12
2.81791e-11
-2.77546e-11
4.06813e-12
1.14721e-07
-2.43578e-13
-4.12153e-12
1.39301e-08
-1.30642e-12
-2.51291e-12
-1.39219e-08
-1.12602e-13
-1.49591e-11
2.08311e-08
2.37123e-12
1.87216e-12
-2.08203e-08
4.34038e-13
-1.80596e-12
6.95637e-09
-3.69273e-12
2.35597e-12
-1.22449e-11
1.36271e-08
-4.33882e-12
-1.61722e-12
-1.36112e-08
-4.84704e-11
-9.83577e-14
2.01879e-08
4.71924e-12
1.42981e-11
-2.01584e-08
-2.65189e-12
-9.71351e-13
1.20346e-07
-1.07531e-12
-9.93158e-13
-1.20657e-07
1.20653e-07
-3.74374e-13
-2.08261e-12
1.20682e-07
9.34252e-12
1.17668e-11
-2.86894e-11
2.14011e-08
-1.54102e-11
2.62698e-13
-2.92811e-12
-9.58604e-11
1.29811e-10
-1.27681e-10
9.67542e-11
1.17099e-07
4.86088e-11
-9.62008e-14
2.42786e-08
1.07798e-11
-9.27943e-11
-2.14171e-12
-4.68133e-12
6.82275e-09
-1.85153e-12
-6.81408e-09
1.11757e-12
-2.50727e-12
-2.82924e-12
1.40599e-13
1.3784e-12
3.28654e-12
1.16572e-07
2.64479e-12
4.0787e-12
-1.09902e-11
2.17695e-08
-6.07823e-12
1.34204e-13
1.46834e-11
2.48847e-08
-2.28703e-11
4.14217e-12
-9.23887e-12
4.3585e-12
-2.19381e-11
2.20262e-08
3.55027e-12
-2.71091e-12
2.36555e-12
-1.45159e-11
2.2153e-08
-4.11219e-14
-2.42056e-12
6.95461e-09
-3.17643e-12
-6.94925e-09
-4.46141e-12
6.8217e-09
-1.76916e-12
-6.81311e-09
-2.96871e-12
-1.4863e-11
2.23267e-08
-7.33833e-15
-2.23113e-08
-9.42702e-12
-2.20778e-11
2.18573e-08
4.1524e-12
-2.18345e-08
-3.90408e-12
1.39366e-08
-9.27374e-13
-2.79125e-12
-1.48102e-11
2.08341e-08
2.40113e-12
1.60101e-12
-1.0443e-11
2.17597e-08
-6.26825e-12
-2.17501e-08
2.62307e-12
-1.93274e-12
2.03845e-11
-2.3787e-13
2.5223e-12
-1.82874e-11
-1.19093e-07
1.19088e-07
1.1782e-13
2.48845e-08
4.33078e-12
-2.29263e-11
-2.4881e-08
2.59967e-12
-1.02342e-11
2.17525e-08
-5.94614e-12
-2.21071e-13
1.98486e-11
-8.75357e-13
1.92465e-12
-1.89412e-11
1.19104e-07
2.48876e-08
4.00598e-12
-2.24507e-11
-1.47201e-11
2.22088e-08
-2.62831e-13
4.15689e-12
-2.22397e-11
2.19805e-08
3.70922e-12
-1.95888e-12
6.82414e-09
-2.23381e-12
-2.86287e-11
2.13885e-08
-1.5369e-11
-2.13662e-08
2.8755e-13
-4.87728e-12
-9.50177e-11
1.30505e-10
-1.26931e-10
9.74675e-11
-1.17107e-07
1.17103e-07
-1.71353e-14
2.42785e-08
1.08404e-11
-9.2693e-11
-2.42451e-08
-1.24636e-11
1.36263e-08
-3.90895e-12
-1.60895e-12
-1.36104e-08
-4.86029e-11
2.01848e-08
1.4343e-11
4.45662e-12
-2.01551e-08
-5.0203e-12
-7.68904e-11
1.29809e-10
-1.26766e-10
8.01913e-11
-1.18361e-07
1.18358e-07
9.28961e-12
-2.88286e-11
2.13756e-08
-1.52005e-11
-2.13533e-08
2.42742e-08
-9.27916e-11
1.03422e-11
-2.42404e-08
1.36305e-08
-4.12236e-12
-1.98206e-12
-2.03806e-13
2.01907e-08
4.79974e-12
1.39227e-11
-3.39731e-12
-7.76815e-11
1.29371e-10
-1.27375e-10
7.95227e-11
1.18359e-07
1.21208e-11
-2.84913e-11
2.13851e-08
-1.50065e-11
4.86157e-11
2.42764e-08
-9.28481e-11
1.02004e-11
1.92958e-12
1.36236e-08
-3.81581e-12
-1.93942e-12
2.01869e-08
1.39391e-11
4.43085e-12
-2.21093e-11
2.19092e-08
3.66067e-12
-2.18862e-08
2.12921e-12
-1.55559e-11
2.22783e-08
7.58971e-13
3.51129e-13
6.95694e-09
-3.05787e-12
3.38863e-13
-3.12552e-12
-3.54431e-14
1.04161e-12
2.80065e-12
1.16589e-07
4.29001e-12
-1.05257e-11
2.17619e-08
-6.08563e-12
1.45552e-11
2.48877e-08
-2.2663e-11
4.10932e-12
1.39333e-08
-9.38378e-13
-2.6868e-12
1.80255e-13
2.08293e-08
1.49412e-12
2.01657e-12
-5.14872e-13
1.39334e-08
-8.09823e-13
-2.75896e-12
2.08335e-08
1.57977e-12
1.68718e-12
6.82158e-09
-2.21525e-12
6.95491e-09
-3.3215e-12
-2.57621e-12
-5.78495e-09
-4.60775e-14
4.78904e-12
5.78279e-09
1.02465e-12
1.22573e-13
3.73828e-12
2.71734e-12
1.39225e-08
2.14506e-08
-2.03236e-12
-2.62378e-12
-8.65895e-12
-2.14385e-08
2.0862e-12
7.72896e-12
2.14392e-08
-3.63106e-13
-4.27528e-12
-5.78235e-09
-9.02857e-15
6.0056e-13
-1.02776e-08
2.4504e-12
1.02745e-08
-1.46839e-12
-1.35137e-12
1.26694e-13
1.36784e-11
2.08201e-08
1.24932e-08
5.17682e-13
-1.37607e-13
-2.20292e-12
-1.2489e-08
1.97579e-08
1.34424e-12
-1.24421e-11
-1.97475e-08
4.53433e-14
2.66951e-12
1.2489e-08
1.13505e-11
1.97479e-08
-2.177e-12
-1.02739e-08
-4.33894e-14
2.18988e-12
2.79062e-12
6.95144e-09
-1.13721e-11
-1.16484e-12
1.74888e-12
-9.95707e-09
-8.52132e-13
9.9687e-09
4.59026e-12
1.42041e-11
-2.01582e-08
-1.62449e-13
2.01885e-08
-4.8918e-11
6.76285e-12
-1.91535e-08
1.918e-08
-4.00639e-11
-1.20875e-08
-1.30796e-13
-7.84897e-13
1.21015e-08
2.00841e-12
-5.62032e-09
5.61357e-09
1.8615e-12
2.87673e-12
3.6749e-12
1.36117e-08
-1.85128e-12
1.15611e-11
2.00551e-12
2.08982e-08
2.80885e-12
-6.95952e-12
-2.60444e-11
-2.08724e-08
2.08727e-08
6.48233e-12
2.47229e-11
-1.81181e-12
-2.37228e-12
-5.61332e-09
-3.10313e-12
-2.135e-12
5.62056e-09
-3.9929e-12
2.36655e-12
-1.44102e-12
1.36273e-08
-1.25264e-11
2.08983e-08
-2.59863e-11
1.08404e-11
1.14393e-12
-9.96822e-09
1.03093e-12
-4.30619e-12
-1.36087e-11
-7.22744e-14
4.7674e-11
1.91795e-08
1.13803e-11
-3.97064e-11
-1.91535e-08
1.21009e-08
1.21229e-12
-1.61039e-13
-7.66128e-13
-1.20868e-08
3.90937e-11
-1.39801e-13
1.01049e-12
-9.03531e-13
-9.95655e-09
6.81454e-09
2.03812e-12
3.69612e-12
2.4814e-12
-2.41496e-12
-1.48854e-12
6.82312e-09
-4.6788e-12
2.18583e-11
-8.28707e-12
-2.00638e-08
-1.29353e-11
1.8572e-11
2.00446e-08
2.37853e-08
2.25831e-11
-4.24741e-11
-3.36329e-11
2.1597e-11
-3.64592e-12
-4.23048e-12
8.79451e-12
2.20037e-08
1.31348e-08
-8.47559e-12
1.48407e-12
-1.86548e-12
4.18745e-11
3.28255e-11
2.3754e-08
-1.82131e-12
1.63739e-12
1.31231e-08
1.33056e-11
-1.91715e-11
1.76075e-11
-6.22892e-12
-1.92215e-08
-1.20763e-11
1.38011e-11
1.92084e-08
2.32056e-08
1.76728e-11
-2.99177e-11
-2.28708e-11
1.41131e-11
-1.56817e-13
-2.27245e-12
2.56103e-12
2.21388e-08
1.30411e-08
-6.39965e-12
5.61317e-14
-2.21736e-12
2.88066e-11
2.30407e-11
2.31855e-08
-2.58149e-13
2.01252e-12
1.30329e-08
1.22348e-11
-1.49114e-11
-3.28585e-12
-3.99247e-12
-1.55547e-08
1.5537e-08
5.64002e-09
-3.09081e-12
-2.24634e-12
5.67549e-09
-3.65494e-12
-2.41335e-12
1.53225e-12
5.63338e-09
1.74152e-12
5.66951e-09
1.61042e-12
3.39765e-12
6.94971e-09
6.81351e-09
3.76223e-12
2.57814e-12
-1.29372e-12
6.82206e-09
-4.8901e-12
-5.61325e-12
1.71147e-11
-2.01536e-08
-1.0837e-11
1.65595e-11
2.01364e-08
2.40064e-08
1.70096e-11
-3.23397e-11
-2.19294e-11
-2.3984e-08
-3.82781e-13
1.39158e-11
2.9006e-12
2.23119e-08
1.32601e-08
-6.59487e-12
-2.9743e-13
-2.06454e-12
-1.32511e-08
4.09083e-14
2.33877e-12
1.32517e-08
3.09412e-11
2.23255e-11
2.39842e-08
1.10695e-11
-1.83515e-11
-2.01359e-08
-7.7564e-12
2.24776e-11
-1.91377e-08
-1.29573e-11
1.46113e-11
1.91213e-08
2.29999e-08
2.40155e-11
-3.90972e-11
-3.40246e-11
-2.29728e-08
-3.10612e-12
2.11112e-11
8.08866e-12
2.1835e-08
1.29206e-08
-8.50838e-12
1.83531e-12
-1.62783e-12
-1.29082e-08
-1.22927e-12
2.13868e-12
1.29089e-08
3.78842e-11
3.24944e-11
2.29731e-08
1.42928e-11
-1.55676e-11
-1.91209e-08
-2.86103e-12
-2.88046e-12
-1.55571e-08
1.5539e-08
5.67147e-09
-3.62638e-12
-2.46643e-12
-5.66567e-09
5.64396e-09
-3.00045e-12
-2.09075e-12
-5.63704e-09
2.7231e-12
5.66591e-09
2.49938e-12
5.63736e-09
-1.55383e-08
-2.08341e-12
-5.78991e-09
1.95355e-13
4.13988e-12
5.78766e-09
8.83289e-13
4.09806e-12
2.45774e-12
1.39291e-08
2.14637e-08
-2.42419e-12
-2.52994e-12
-8.64941e-12
2.25722e-12
8.14727e-12
2.14521e-08
-1.7985e-13
-4.78935e-12
-4.46191e-14
1.02664e-12
-1.02837e-08
2.02905e-12
1.02809e-08
-1.78663e-12
-1.32499e-12
1.37264e-11
2.08236e-08
1.24967e-08
2.51041e-13
-2.40004e-12
1.97666e-08
1.27693e-12
-1.21964e-11
2.49552e-12
1.24924e-08
1.13789e-11
1.97572e-08
-2.47282e-12
1.83086e-11
5.99567e-11
-1.92534e-08
-1.11779e-10
-1.12355e-10
1.93993e-08
2.35825e-08
1.40803e-11
-3.32173e-11
-2.18415e-11
-8.16208e-12
9.57233e-12
2.831e-12
2.22067e-08
1.30348e-08
-8.09823e-12
-2.12178e-12
-2.2564e-12
-2.06815e-11
1.34953e-12
1.30643e-08
-2.15221e-12
2.62832e-11
2.36279e-08
-1.90146e-12
-3.29359e-11
-2.08897e-11
-3.21404e-11
-2.00508e-08
9.39184e-11
1.36626e-10
1.98733e-08
2.34228e-08
2.63033e-11
-3.83744e-11
-3.43809e-11
2.64165e-11
4.63173e-12
-3.97934e-12
8.47843e-12
2.19449e-08
1.3146e-08
-7.30452e-12
3.33402e-12
-1.87577e-12
7.0789e-11
2.93056e-11
2.33283e-08
1.92146e-11
2.3273e-12
1.3097e-08
2.82481e-11
-2.36289e-12
1.65727e-11
-2.32665e-11
-1.55617e-08
1.55506e-08
5.67555e-09
-5.54595e-12
-2.47562e-12
5.6413e-09
-1.22385e-12
-2.40513e-12
1.33749e-12
5.6701e-09
1.9905e-12
5.63527e-09
1.98596e-12
2.07019e-12
6.8161e-09
-8.37194e-13
-1.16989e-11
1.69839e-12
-9.95495e-09
-7.21555e-13
9.9665e-09
1.41354e-11
4.19101e-12
-2.01553e-08
2.01856e-08
-4.8804e-11
-1.20868e-08
-8.40333e-13
1.21008e-08
6.52686e-12
-1.91474e-08
1.91739e-08
-4.05337e-11
1.99411e-12
-5.61872e-09
5.61198e-09
1.8951e-12
2.8449e-12
4.04577e-12
1.36108e-08
1.14643e-11
1.99633e-12
2.08917e-08
2.87134e-12
-6.84759e-12
-2.60686e-11
-2.08656e-08
2.08662e-08
6.75941e-12
2.47824e-11
-1.83485e-12
-2.37741e-12
-5.61164e-09
-3.42221e-12
-1.91563e-12
5.61902e-09
-4.02267e-12
-1.42635e-12
1.36265e-08
-1.26753e-11
2.08915e-08
-2.62516e-11
1.38046e-12
1.07219e-11
-9.96624e-09
1.08532e-12
-1.36749e-11
-4.4982e-12
4.76939e-11
1.21002e-08
9.68779e-13
-7.38603e-13
-1.20862e-08
1.91732e-08
1.16983e-11
-4.02742e-11
-1.9147e-08
9.64605e-13
3.88469e-11
-7.93266e-13
-9.95462e-09
2.18628e-12
-5.62232e-09
1.86887e-12
2.4655e-12
5.6158e-09
3.59409e-12
1.1898e-11
1.74044e-12
1.36152e-08
2.09031e-08
2.05084e-12
-6.89171e-12
-2.5508e-11
6.52043e-12
2.48973e-11
2.08774e-08
-1.83289e-12
-2.85922e-12
1.08679e-11
9.89717e-13
-9.97185e-09
6.86899e-13
9.96118e-09
-4.2883e-12
-1.38167e-11
-1.28331e-13
4.79737e-11
2.0161e-08
1.91834e-08
1.0733e-11
-3.94173e-11
1.21042e-08
1.27722e-12
-6.83145e-14
-1.0511e-12
3.91957e-11
1.91573e-08
-1.15294e-13
8.30101e-13
1.20906e-08
-1.15015e-12
2.4524e-12
-5.61756e-09
2.03008e-12
2.2574e-12
5.61082e-09
4.01691e-12
-2.23319e-12
1.19806e-11
1.71961e-12
1.36081e-08
2.08889e-08
2.33597e-12
-6.76955e-12
-2.57042e-11
6.71697e-12
2.51766e-11
2.08635e-08
-1.71887e-12
-2.88755e-12
1.10198e-12
1.09565e-11
-9.9645e-09
6.65221e-13
9.9538e-09
-1.37377e-11
-4.46379e-12
4.78325e-11
2.01571e-08
1.21006e-08
1.0579e-12
-1.06775e-12
1.9173e-08
1.11455e-11
-4.00081e-11
8.78577e-13
1.2087e-08
3.92016e-11
1.9147e-08
-1.114e-12
-7.46527e-12
2.2524e-11
-1.91396e-08
-1.36082e-11
1.44868e-11
1.91236e-08
2.33626e-08
2.32189e-11
-4.10486e-11
-3.37384e-11
-2.33331e-08
-3.54236e-12
2.1348e-11
8.71081e-12
2.18864e-08
1.29108e-08
-8.48173e-12
1.56913e-12
-1.59435e-12
-1.28987e-08
-1.52802e-12
1.95454e-12
1.28994e-08
4.03713e-11
3.31255e-11
2.33329e-08
1.42675e-11
-1.51921e-11
-1.91239e-08
1.72855e-11
-6.22481e-12
-2.01652e-08
-1.02487e-11
1.72666e-11
2.01472e-08
2.36349e-08
1.7557e-11
-3.15821e-11
-2.27201e-11
-2.36137e-08
1.42416e-11
-2.83413e-13
-1.8796e-12
2.3974e-12
2.22638e-08
1.32769e-08
-6.93194e-12
1.7208e-13
-2.18966e-12
2.96097e-11
2.25897e-11
2.36142e-08
2.34342e-13
2.3228e-12
1.32678e-08
1.08648e-11
-1.87417e-11
-2.01467e-08
-2.34743e-12
-3.46781e-12
-1.55646e-08
1.55465e-08
5.64473e-09
-3.20946e-12
-2.19869e-12
-5.63775e-09
5.6747e-09
-3.4895e-12
-2.26439e-12
2.29573e-12
5.63856e-09
2.7592e-12
5.66871e-09
-1.55461e-08
-1.02861e-13
3.08897e-12
6.95207e-09
-2.35154e-12
-5.78574e-09
5.5151e-13
4.14265e-12
5.7834e-09
1.36473e-12
3.90509e-12
2.50602e-12
1.39254e-08
2.14519e-08
-2.07173e-12
-2.10419e-12
-8.93471e-12
2.64752e-12
7.883e-12
2.14404e-08
2.3482e-14
-4.59559e-12
1.25234e-12
3.19372e-13
-1.02769e-08
1.89811e-12
1.0274e-08
-1.62701e-12
-1.8655e-12
1.29889e-13
1.39263e-11
2.08187e-08
1.97558e-08
1.06823e-12
-1.19137e-11
1.24918e-08
8.99747e-14
1.44291e-13
-2.53218e-12
1.16742e-11
1.97464e-08
1.1331e-13
2.2555e-12
1.24879e-08
-2.48196e-12
-2.09148e-12
-5.78897e-09
4.88166e-13
4.07543e-12
5.7865e-09
1.37116e-12
1.12525e-13
4.02727e-12
2.526e-12
1.39254e-08
2.14592e-08
-1.97859e-12
-2.16881e-12
-8.84367e-12
2.60283e-12
7.8833e-12
2.1448e-08
-1.77681e-14
-4.67985e-12
1.32968e-12
5.89702e-14
-1.02823e-08
1.84247e-12
1.02796e-08
-1.46966e-12
-1.64753e-12
1.3851e-11
2.08229e-08
1.97639e-08
1.00068e-12
-1.18431e-11
1.24949e-08
2.57503e-13
-2.6194e-12
1.17531e-11
1.97546e-08
2.29978e-12
1.24911e-08
-2.56755e-12
1.84477e-12
6.81327e-09
2.89369e-12
6.94987e-09
-7.35686e-13
3.14621e-12
-1.26502e-07
1.26496e-07
-9.25409e-13
-1.14533e-13
-1.23864e-07
1.2386e-07
2.22553e-12
-4.5988e-13
-1.35291e-07
1.35287e-07
1.9251e-11
2.13348e-11
-2.30999e-08
2.30917e-08
2.59618e-08
2.08861e-11
2.49108e-08
2.22352e-11
-4.70174e-11
-3.13183e-11
2.7453e-08
2.59473e-08
2.49094e-08
1.69958e-11
2.37164e-11
-2.30899e-08
2.30804e-08
2.606e-08
1.78409e-11
-2.6053e-08
2.48091e-08
2.57763e-11
-2.48004e-08
-3.89492e-11
-3.83378e-11
2.74408e-08
2.60533e-08
2.48009e-08
-2.30802e-08
-1.97942e-11
6.07982e-11
-2.30987e-08
2.30819e-08
2.60104e-08
1.57061e-11
2.48596e-08
2.70771e-11
-4.47925e-11
-3.32271e-11
2.74412e-08
2.48377e-08
2.60153e-08
1.96067e-11
2.12203e-11
-2.30828e-08
2.30738e-08
2.58972e-08
2.28347e-11
-2.58834e-08
2.49471e-08
2.02796e-11
-2.49442e-08
-3.1661e-11
-4.64453e-11
2.74436e-08
2.49445e-08
2.58836e-08
-2.30737e-08
-5.42294e-13
1.26499e-07
-2.34127e-12
-4.22343e-13
1.2386e-07
-8.53956e-13
1.35293e-07
-1.42726e-12
-1.2771e-07
1.27705e-07
-8.29415e-13
2.23079e-12
-1.21743e-07
1.21738e-07
2.73564e-12
-1.35439e-07
1.35433e-07
-2.91872e-12
1.27715e-07
1.08521e-12
1.21745e-07
1.35445e-07
-3.7074e-11
-4.73134e-11
-2.60003e-08
-2.62002e-11
2.60531e-08
2.49205e-08
-3.85779e-11
2.8616e-11
1.41474e-11
2.13788e-08
2.32718e-08
-4.88589e-11
-1.4299e-11
2.48821e-08
1.34472e-11
2.32501e-08
2.48563e-11
-7.12449e-11
1.76433e-11
-2.59637e-08
2.58952e-08
-9.72128e-12
9.13207e-11
-1.85495e-13
2.42452e-08
2.35787e-08
-7.19459e-11
2.68206e-08
1.88817e-11
7.0572e-12
2.35503e-08
-6.98355e-12
2.68088e-08
-2.1328e-11
-1.14195e-11
-2.63695e-08
-5.43203e-11
2.64545e-08
2.52241e-08
-2.14223e-11
-2.52078e-08
1.02387e-11
5.86753e-12
2.17597e-08
2.37553e-08
-1.36621e-11
-4.10974e-12
2.52082e-08
4.29154e-12
2.37533e-08
5.40864e-11
-2.64539e-08
5.31877e-12
-1.66476e-11
-2.63379e-08
2.62921e-08
2.17846e-11
-3.91016e-12
8.78831e-15
2.48807e-08
2.73053e-08
5.68183e-12
4.09324e-13
2.41013e-08
-1.68857e-11
-1.79066e-14
2.73338e-08
2.40967e-08
-1.08593e-11
-2.48141e-11
-2.635e-08
7.78617e-12
2.63995e-08
2.52385e-08
-2.46153e-11
-2.52195e-08
5.76436e-12
1.02846e-11
2.17503e-08
2.37552e-08
-1.21422e-11
-7.70668e-12
-2.37503e-08
7.19266e-12
2.37506e-08
2.52198e-08
-7.81222e-12
-2.63989e-08
-1.46885e-11
8.96437e-12
-2.6347e-08
2.63809e-08
-3.96972e-12
2.09363e-11
4.04716e-14
2.48812e-08
2.41031e-08
-1.64934e-11
-2.41025e-08
2.73048e-08
9.11385e-12
6.2887e-13
-2.73377e-08
2.4103e-08
-1.92958e-13
2.73374e-08
-2.63805e-08
-1.09949e-11
-2.49722e-11
-2.635e-08
8.02283e-12
2.63989e-08
2.51848e-08
-2.4389e-11
5.57185e-12
1.06287e-11
2.17432e-08
2.37597e-08
-1.1826e-11
-7.52038e-12
7.25844e-12
2.37552e-08
2.51721e-08
-7.69549e-12
-1.49801e-11
9.22566e-12
-2.63508e-08
2.63844e-08
-4.13804e-12
2.1117e-11
2.48844e-08
2.41089e-08
-1.62402e-11
2.73079e-08
9.08368e-12
2.41085e-08
2.734e-08
-4.69957e-11
-3.66307e-11
-2.59974e-08
-2.65614e-11
2.60504e-08
2.48661e-08
-3.83204e-11
-2.4833e-08
1.38227e-11
2.78621e-11
2.13664e-08
2.327e-08
-4.91228e-11
-1.44838e-11
-2.32478e-08
1.33481e-11
2.32482e-08
2.48337e-08
2.47715e-11
-2.60495e-08
-7.12001e-11
1.74643e-11
-2.59645e-08
2.58966e-08
-9.69254e-12
9.10198e-11
-1.33576e-13
2.4245e-08
2.3579e-08
-7.22311e-11
-2.35501e-08
2.68213e-08
1.89625e-11
7.24357e-12
-2.68097e-08
2.35506e-08
-7.02863e-12
2.68099e-08
-2.58955e-08
-4.64218e-11
-4.03025e-11
-2.59681e-08
2.84673e-11
2.59886e-08
2.48702e-08
-4.13792e-11
-2.4835e-08
1.4081e-11
2.79849e-11
2.13537e-08
2.32586e-08
-4.82398e-11
-1.71047e-11
-2.32345e-08
1.64149e-11
2.32346e-08
2.48354e-08
-2.97572e-11
-2.59879e-08
2.09298e-11
-7.00188e-11
-2.59628e-08
2.59635e-08
9.11666e-11
-1.0079e-11
2.42407e-08
2.68182e-08
2.17803e-11
-2.67957e-08
2.35695e-08
-7.21558e-11
-2.35444e-08
2.67965e-08
2.35447e-08
-2.59628e-08
-4.00315e-11
-4.65057e-11
-2.59748e-08
2.83476e-11
2.59945e-08
2.49262e-08
-4.14746e-11
2.84223e-11
1.41232e-11
2.13633e-08
2.3261e-08
-4.75166e-11
-1.70145e-11
2.48911e-08
1.63849e-11
2.32374e-08
-2.95734e-11
2.10358e-11
-7.00305e-11
-2.59659e-08
2.59655e-08
9.12984e-11
-1.01452e-11
2.42429e-08
2.68189e-08
2.15925e-11
2.35719e-08
-7.15821e-11
2.67969e-08
2.35473e-08
-2.09637e-11
-1.15522e-11
-2.63747e-08
-5.45808e-11
2.64596e-08
2.51755e-08
-2.12456e-11
1.00504e-11
5.68699e-12
2.17527e-08
2.37616e-08
-1.33509e-11
-4.0868e-12
2.51599e-08
4.25165e-12
2.37593e-08
5.41377e-11
5.24916e-12
-1.68465e-11
-2.63437e-08
2.62976e-08
2.18073e-11
-3.89064e-12
2.48836e-08
2.73085e-08
5.62099e-12
2.4108e-08
-1.67769e-11
2.73366e-08
2.41032e-08
-1.33999e-12
-1.81636e-13
2.37981e-09
-1.39779e-14
-2.38078e-09
-6.15478e-13
-1.51423e-13
1.28138e-09
1.25513e-14
-1.28199e-09
-2.27471e-13
-9.69232e-14
6.2932e-10
1.47773e-14
-6.29653e-10
-5.04928e-14
-5.09282e-14
2.5995e-10
8.61868e-15
-2.60115e-10
-1.29179e-14
6.15835e-11
2.92216e-15
-6.16456e-11
-2.07102e-12
1.5562e-13
4.45297e-09
-2.97792e-13
-9.9864e-13
1.29287e-13
2.393e-09
-1.77495e-13
-3.96271e-13
7.8579e-14
1.17577e-09
-9.31521e-14
-1.03712e-13
3.74887e-14
4.86536e-10
-4.03695e-14
1.16312e-14
1.1568e-10
-9.44116e-15
-8.74206e-13
1.74548e-13
2.38242e-09
-2.73241e-13
-2.38307e-09
-4.05173e-13
6.54217e-14
1.28278e-09
-1.39655e-13
-1.28318e-09
-1.58243e-13
2.68619e-14
6.29991e-10
-6.80541e-14
-6.30202e-10
-4.25449e-14
9.61142e-15
2.602e-10
-2.97181e-14
-2.603e-10
7.95092e-16
6.16383e-11
-6.18711e-15
-6.16785e-11
-9.92904e-13
-1.10914e-13
4.45556e-09
6.48983e-14
-4.45638e-09
-4.46775e-13
-3.1562e-14
2.39434e-09
4.52638e-14
-2.39491e-09
-1.66265e-13
-1.13408e-14
1.17644e-09
3.05762e-14
-1.17675e-09
-4.01384e-14
-3.83255e-15
4.8684e-10
1.56069e-14
-4.86993e-10
-1.93705e-17
1.15763e-10
6.35085e-15
-1.15821e-10
-1.72807e-12
4.45149e-09
-2.69545e-13
-4.45283e-09
-8.25331e-13
2.39219e-09
-1.49397e-13
-2.39307e-09
-3.45633e-13
1.17533e-09
-7.17108e-14
-1.17579e-09
-1.13084e-13
4.86379e-10
-2.65517e-14
-4.86591e-10
1.15683e-10
-7.94885e-15
-1.15774e-10
-9.3918e-13
4.45472e-09
1.85775e-13
-4.45556e-09
-4.26128e-13
2.39386e-09
1.22655e-13
-2.39443e-09
-1.64659e-13
1.17619e-09
7.24735e-14
-1.1765e-09
-4.47891e-14
4.86694e-10
3.46079e-14
-4.86844e-10
1.1572e-10
1.04829e-14
-1.15779e-10
-1.55513e-12
2.38119e-09
-1.25964e-14
-7.52368e-13
1.28217e-09
2.04574e-14
-3.0056e-13
6.29729e-10
2.45395e-14
-8.30691e-14
2.60087e-10
1.7186e-14
6.16074e-11
2.82485e-15
-1.24356e-12
-1.12025e-13
1.20589e-13
4.45613e-09
-5.81358e-13
-2.92528e-14
7.66817e-14
2.3948e-09
-2.21702e-13
-8.40586e-15
4.45037e-14
1.17669e-09
-5.87994e-14
-1.98481e-15
2.07823e-14
4.86927e-10
1.21553e-15
7.99026e-15
1.15803e-10
-8.88617e-13
2.38259e-09
-2.17014e-13
-2.3832e-09
-4.2265e-13
1.28295e-09
-1.10073e-13
-1.28333e-09
-1.71513e-13
6.30044e-10
-5.17058e-14
-6.30247e-10
-4.93444e-14
2.6025e-10
-2.05623e-14
-2.60347e-10
6.1638e-11
-5.57187e-15
-6.16771e-11
-1.11282e-12
2.38306e-09
-2.77472e-13
-5.34047e-13
1.28324e-09
-1.37112e-13
-2.12444e-13
6.30248e-10
-6.19722e-14
-6.12471e-14
2.60335e-10
-2.32003e-14
6.16706e-11
-7.01734e-15
-1.08653e-12
8.75165e-14
2.38228e-09
-2.17226e-13
-5.23571e-13
1.58703e-14
1.28275e-09
-9.71636e-14
-2.12114e-13
1.0243e-15
6.29976e-10
-3.85637e-14
-6.54536e-14
-1.33303e-15
2.60234e-10
-1.16813e-14
-2.10892e-15
6.16534e-11
-4.66564e-15
-1.65332e-12
1.80606e-13
-8.97169e-14
4.45364e-09
-7.6758e-13
1.44233e-13
-3.77679e-14
2.39334e-09
-2.98789e-13
9.00906e-14
-1.57478e-14
1.176e-09
-8.50961e-14
4.49467e-14
-4.77531e-15
4.86632e-10
1.39196e-14
-1.73866e-15
1.15723e-10
-1.47409e-12
2.38069e-09
5.1463e-14
-7.11711e-13
1.28197e-09
7.06382e-14
-2.88775e-13
6.29626e-10
5.66898e-14
-8.29097e-14
2.60058e-10
3.27885e-14
6.1603e-11
7.76018e-15
-1.54791e-12
-2.1627e-13
2.38087e-09
5.9107e-14
-7.65884e-13
-1.6278e-13
1.2821e-09
7.06217e-14
-3.20624e-13
-9.60017e-14
6.29672e-10
5.53742e-14
-9.61643e-14
-4.55955e-14
2.60103e-10
3.28141e-14
-1.30995e-14
6.16053e-11
6.42648e-15
-1.23585e-12
8.74135e-14
4.45489e-09
-5.81198e-13
5.44053e-14
2.39403e-09
-2.30002e-13
3.45454e-14
1.17632e-09
-7.06452e-14
1.85832e-14
4.86803e-10
6.06057e-15
1.15753e-10
-1.82839e-12
-2.5042e-13
4.45216e-09
-8.54766e-13
-1.44983e-13
2.39272e-09
-3.30055e-13
-7.66031e-14
1.17562e-09
-8.85013e-14
-3.48197e-14
4.86494e-10
-6.68352e-15
1.15666e-10
2.68259e-12
4.09661e-14
9.276e-14
-4.44895e-09
4.45091e-09
1.30783e-12
5.73672e-14
4.4723e-14
-2.38881e-09
2.39006e-09
5.35222e-13
4.16615e-14
2.13391e-14
-1.17294e-09
1.17363e-09
1.55831e-13
2.1589e-14
8.17986e-15
-4.85169e-10
4.85494e-10
5.79732e-15
3.69214e-15
-1.15325e-10
1.15453e-10
1.44515e-12
1.53813e-13
2.38097e-09
6.73226e-13
1.38325e-13
1.28209e-09
2.58864e-13
9.12904e-14
6.29709e-10
6.92533e-14
4.84902e-14
2.60135e-10
1.23054e-14
6.1655e-11
1.47468e-12
-1.82884e-13
2.07081e-13
4.45426e-09
6.92839e-13
-1.67052e-13
1.34616e-13
2.39382e-09
2.80358e-13
-1.09914e-13
8.22409e-14
1.17621e-09
8.3734e-14
-5.59378e-14
3.97855e-14
4.86748e-10
-1.67897e-14
1.20429e-14
1.15767e-10
-4.43708e-13
-1.50328e-13
-2.72473e-09
2.25243e-13
2.72425e-09
-2.06986e-13
-8.92424e-14
-1.46674e-09
1.25193e-13
1.46646e-09
-8.16082e-14
-4.96739e-14
-7.207e-10
6.59261e-14
7.20547e-10
-2.25287e-14
-2.3474e-14
-2.97946e-10
2.93898e-14
2.9787e-10
-6.26248e-15
-7.07189e-11
8.19302e-15
7.06867e-11
-4.05569e-13
-3.57582e-14
-2.97481e-09
2.97431e-09
-1.93235e-13
-1.88807e-14
-1.60059e-09
1.60031e-09
-8.19447e-14
-8.05903e-15
-7.8674e-10
7.86594e-10
-2.77926e-14
-1.98545e-15
-3.25495e-10
3.25425e-10
-1.39623e-15
-7.73692e-11
7.73374e-11
1.62126e-12
-2.35374e-13
-4.45439e-09
3.34297e-13
4.45553e-09
7.83565e-13
-1.18327e-13
-2.3918e-09
1.94686e-13
2.39255e-09
3.18854e-13
-5.85092e-14
-1.17447e-09
1.05452e-13
1.17487e-09
9.97639e-14
-2.5883e-14
-4.85775e-10
4.7428e-14
4.85956e-10
-6.38384e-15
-1.15474e-10
1.39504e-14
1.15554e-10
1.08982e-12
2.3832e-09
-9.06482e-14
5.10458e-13
1.28326e-09
-1.35039e-14
1.96674e-13
6.30255e-10
3.63431e-15
5.26878e-14
2.60323e-10
6.49979e-15
6.1688e-11
1.21833e-15
-7.56338e-13
9.7723e-14
-1.94914e-13
2.38261e-09
-3.52589e-13
1.66504e-14
-8.40998e-14
1.28292e-09
-1.38794e-13
-9.79983e-16
-3.5895e-14
6.30068e-10
-3.61807e-14
-3.76915e-15
-1.48127e-14
2.60228e-10
-1.95471e-15
-3.00315e-15
6.16503e-11
1.32729e-12
4.45671e-09
1.26218e-13
-1.15088e-13
6.04828e-13
2.3951e-09
2.55989e-14
-5.44887e-14
2.30188e-13
1.17685e-09
7.4422e-16
-2.5897e-14
6.85569e-14
4.87022e-10
-3.7343e-15
-1.14132e-14
1.15839e-10
-2.34531e-15
-3.04462e-15
-7.81757e-13
-1.32307e-13
4.45597e-09
1.71711e-13
-3.67316e-13
-4.57001e-14
2.39462e-09
1.04148e-13
-1.52893e-13
-1.80892e-14
1.17659e-09
6.06973e-14
-4.76303e-14
-6.15844e-15
4.86895e-10
2.96554e-14
-5.72347e-16
1.15785e-10
8.03671e-15
-1.00087e-12
2.36596e-09
-6.86697e-14
-4.75613e-13
1.27369e-09
-2.391e-14
-1.84831e-13
6.25552e-10
-8.53238e-15
-5.18906e-14
2.58376e-10
-2.49735e-15
6.1214e-11
-6.20128e-16
8.09096e-13
-1.36711e-14
1.55082e-13
2.36666e-09
3.69444e-13
-2.11053e-14
8.62263e-14
1.27407e-09
1.42515e-13
-9.57514e-15
4.45235e-14
6.25752e-10
4.06558e-14
-2.36423e-15
1.96754e-14
2.58471e-10
2.21744e-17
5.89935e-15
6.12561e-11
-1.19444e-12
2.36451e-09
-3.73211e-13
-5.81052e-13
1.27297e-09
-1.89472e-13
-2.35793e-13
6.25191e-10
-9.38171e-14
-6.76488e-14
2.58233e-10
-3.97672e-14
6.11803e-11
-1.06655e-14
1.03672e-12
3.98247e-13
-2.35577e-13
2.36532e-09
5.05009e-13
2.24961e-13
-1.56637e-13
1.27342e-09
2.10975e-13
1.25442e-13
-9.19483e-14
6.25436e-10
6.12543e-14
5.96643e-14
-4.3877e-14
2.58353e-10
1.53465e-14
-1.08956e-14
6.12304e-11
-1.35186e-12
1.60376e-13
4.25153e-09
-6.65216e-13
8.7245e-14
2.28509e-09
-2.726e-13
4.39896e-14
1.12237e-09
-8.28612e-14
1.83769e-14
4.64228e-10
5.58455e-15
1.10294e-10
-1.40213e-12
4.25135e-09
-6.66152e-13
2.28489e-09
-2.64807e-13
1.12234e-09
-8.3917e-14
4.64186e-10
1.10283e-10
8.26838e-13
-2.25129e-13
4.25243e-09
3.88155e-13
-1.38631e-13
2.28563e-09
1.63375e-13
-7.87326e-14
1.12264e-09
5.62904e-14
-3.80585e-14
4.64353e-10
-8.74885e-15
1.10354e-10
9.34768e-13
4.25234e-09
4.3435e-13
2.28549e-09
1.79261e-13
1.12265e-09
5.85528e-14
4.64337e-10
1.1035e-10
1.81235e-12
1.15803e-13
4.45308e-09
8.416e-13
6.56285e-14
2.3932e-09
3.31906e-13
3.11574e-14
1.17586e-09
1.02439e-13
1.08821e-14
4.86614e-10
3.64864e-15
1.15786e-10
1.3846e-12
4.45588e-09
-6.78919e-14
6.34912e-13
2.39462e-09
-3.59314e-14
2.4428e-13
1.1766e-09
-2.20232e-14
7.55866e-14
4.86873e-10
-1.22454e-14
1.15797e-10
-3.59003e-15
-6.55307e-13
4.45513e-09
2.19856e-13
-2.9932e-13
2.39415e-09
1.37354e-13
-1.24858e-13
1.17635e-09
7.91214e-14
-4.04011e-14
4.86756e-10
3.76389e-14
1.15745e-10
1.08678e-14
1.30141e-12
-5.85451e-14
2.38221e-09
6.18947e-13
-7.93283e-14
1.28276e-09
2.47067e-13
-5.86344e-14
6.30052e-10
6.79007e-14
-3.02716e-14
2.60244e-10
-9.47513e-15
6.16712e-11
-1.05422e-12
2.36639e-09
3.37451e-14
-5.20192e-13
1.27383e-09
4.3838e-14
-2.11285e-13
6.25594e-10
3.00766e-14
-6.02344e-14
2.58417e-10
1.5374e-14
6.12231e-11
4.07065e-15
1.17647e-12
1.08523e-13
8.81135e-14
2.36734e-09
5.55917e-13
3.98759e-14
4.2833e-14
1.27437e-09
2.2046e-13
2.0262e-14
2.67462e-14
6.25877e-10
6.10035e-14
8.1281e-15
1.55456e-14
2.58549e-10
4.556e-15
4.02482e-15
6.1275e-11
-1.44741e-12
4.25246e-09
3.07134e-13
-7.0871e-13
2.28522e-09
1.79279e-13
-2.83319e-13
1.12255e-09
9.23557e-14
-7.76757e-14
4.64258e-10
3.87384e-14
1.10306e-10
1.06888e-14
1.1674e-12
-5.93512e-14
4.25346e-09
5.66157e-13
-3.16392e-14
2.2859e-09
2.29759e-13
-1.13406e-14
1.12292e-09
6.37343e-14
-2.49808e-15
4.64442e-10
3.51898e-16
1.10378e-10
1.07476e-12
7.52745e-14
4.45714e-09
4.83779e-13
6.9688e-15
2.39543e-09
1.87247e-13
-3.23348e-15
1.17703e-09
5.89327e-14
-2.43011e-15
4.87081e-10
-2.82017e-15
1.1587e-10
-3.66994e-13
-5.83335e-14
-2.72439e-09
1.91638e-13
2.7239e-09
-1.70626e-13
-3.69462e-14
-1.46652e-09
1.14254e-13
1.46624e-09
-7.07337e-14
-2.04258e-14
-7.20545e-10
6.47443e-14
7.20397e-10
-2.39421e-14
-8.66646e-15
-2.979e-10
3.11099e-14
2.97826e-10
-3.40468e-15
-7.07078e-11
8.44933e-15
7.0676e-11
-4.46039e-13
-2.97463e-09
2.97413e-09
-2.17487e-13
-1.60048e-09
1.60019e-09
-9.27869e-14
-7.86677e-10
7.86526e-10
-2.77905e-14
-3.25469e-10
3.25395e-10
-7.73616e-11
7.73297e-11
1.59031e-12
-2.63216e-13
3.48498e-13
-4.45343e-09
4.45459e-09
7.53902e-13
-1.23958e-13
1.98491e-13
-2.39135e-09
2.39212e-09
2.94118e-13
-5.60877e-14
1.0539e-13
-1.17415e-09
1.17457e-09
8.37358e-14
-2.24562e-14
4.67006e-14
-4.85687e-10
4.85879e-10
-5.79492e-15
1.34941e-14
-1.15434e-10
1.15513e-10
1.09463e-12
2.38335e-09
5.18421e-13
1.28342e-09
2.03463e-13
6.303e-10
5.72028e-14
2.60367e-10
6.16872e-11
-7.64226e-13
-2.14168e-13
2.38277e-09
-3.63481e-13
-1.03827e-13
1.28308e-09
-1.47488e-13
-4.85563e-14
6.30114e-10
-4.16159e-14
-2.00605e-14
2.60273e-10
-5.58934e-15
6.16489e-11
9.11594e-13
1.96278e-13
2.38376e-09
4.21596e-13
8.80099e-14
1.28365e-09
1.6496e-13
3.88357e-14
6.3046e-10
4.90474e-14
1.56231e-14
2.60433e-10
3.68451e-15
6.17156e-11
1.20215e-12
-2.77844e-13
3.46643e-13
-4.45271e-09
4.45369e-09
5.67766e-13
-1.36159e-13
2.0414e-13
-2.39094e-09
2.39152e-09
2.23557e-13
-6.37037e-14
1.12951e-13
-1.17401e-09
1.17433e-09
6.50697e-14
-2.62923e-14
5.30456e-14
-4.85613e-10
4.85761e-10
-6.48936e-15
1.39501e-14
-1.15441e-10
1.15509e-10
9.0305e-13
-1.36715e-13
2.38294e-09
4.20182e-13
-4.00889e-14
1.28313e-09
1.64569e-13
-1.07729e-14
6.30172e-10
4.72543e-14
-1.36205e-15
2.60324e-10
1.38513e-15
6.1696e-11
-1.17392e-12
2.36617e-09
-2.63128e-13
-5.68085e-13
1.27369e-09
-1.19106e-13
-2.27897e-13
6.25517e-10
-5.97602e-14
-6.09075e-14
2.58364e-10
-2.76242e-14
6.12292e-11
-8.03483e-15
1.2339e-12
-2.2437e-13
4.2058e-13
2.36706e-09
5.97359e-13
-1.32723e-13
2.40537e-13
1.27422e-09
2.39496e-13
-6.83228e-14
1.3158e-13
6.25815e-10
6.4187e-14
-2.9732e-14
6.15724e-14
2.5851e-10
-5.67754e-15
1.45605e-14
6.1287e-11
-1.29836e-12
-1.19447e-13
4.25322e-09
-6.29504e-13
-4.99616e-14
2.28568e-09
-2.58575e-13
-2.03608e-14
1.12265e-09
-7.87052e-14
-6.14458e-15
4.64285e-10
-3.4998e-15
1.1033e-10
1.66642e-12
-1.23993e-13
4.45496e-09
7.86312e-13
-1.0642e-13