/*--------------------------------*- C++ -*----------------------------------*\
| =========                 |                                                 |
| \\      /  F ield         | OpenFOAM: The Open Source CFD Toolbox           |
|  \\    /   O peration     | Version:  2206                                  |
|   \\  /    A nd           | Website:  www.openfoam.com                      |
|    \\/     M anipulation  |                                                 |
\*---------------------------------------------------------------------------*/
FoamFile
{
    version     2.0;
    format      ascii;
    arch        "LSB;label=32;scalar=64";
    class       volVectorField;
    location    "80";
    object      U;
}
// * * * * * * * * * * * * * * * * * * * * * * * * * * * * * * * * * * * * * //

dimensions      [0 1 -1 0 0 0 0];

internalField   nonuniform List<vector> 
67442
(
(-3.02332e-06 -2.18775e-06 0.1395)
(2.55079e-06 -9.98171e-07 0.133396)
(2.23642e-08 3.88693e-06 0.133572)
(-0.000182031 -0.000181218 0.128825)
(0.000182017 0.000181064 0.128821)
(2.3603e-07 -2.13224e-06 0.13359)
(-2.76666e-06 1.7753e-06 0.133592)
(-0.00018295 0.000182608 0.128821)
(-5.16559e-06 -3.10781e-06 0.133395)
(-3.67136e-06 1.73749e-06 0.133391)
(1.93048e-06 4.57968e-07 0.133405)
(0.00018242 -0.000180509 0.128807)
(-8.74111e-07 9.96849e-07 0.133594)
(8.08963e-06 3.31868e-05 0.0735679)
(-6.00066e-07 5.02604e-05 0.100038)
(-1.04968e-05 1.28025e-05 0.0628594)
(2.91063e-05 -7.33714e-07 0.073307)
(4.41855e-05 -1.63761e-06 0.0993975)
(1.71843e-06 -1.87909e-06 0.1395)
(-2.05141e-06 2.46848e-06 0.139489)
(1.83524e-06 1.42566e-06 0.139501)
(-3.06538e-05 2.15909e-05 0.102217)
(5.16499e-06 -2.3468e-06 0.136411)
(-4.7064e-05 -2.19171e-06 0.117341)
(9.09077e-06 -3.36977e-06 0.0627635)
(-1.13767e-06 2.49992e-06 0.136675)
(3.12949e-05 -3.07309e-05 0.102575)
(5.30376e-07 -4.90247e-05 0.117768)
(-9.65574e-06 -1.60858e-05 0.0872373)
(-2.52132e-05 -8.94351e-06 0.0874453)
(1.0326e-05 1.11514e-05 0.0628434)
(9.57854e-06 2.2211e-06 0.0627475)
(2.49482e-05 8.82001e-06 0.087486)
(8.86005e-06 1.43228e-05 0.0871953)
(-8.29962e-06 3.38868e-05 0.0735897)
(-7.78097e-07 5.11983e-05 0.100038)
(3.13074e-05 3.13038e-05 0.102566)
(1.02056e-06 -2.45535e-06 0.136706)
(8.69319e-07 4.80336e-05 0.117762)
(-3.11834e-05 3.20469e-05 0.102558)
(3.15692e-06 5.93664e-07 0.136712)
(-1.35292e-06 4.84925e-05 0.117761)
(-2.63354e-05 1.00406e-05 0.0874628)
(-9.06679e-06 1.54401e-05 0.0872389)
(-1.03005e-05 4.08821e-06 0.0627674)
(3.0108e-05 2.0444e-05 0.102203)
(-8.78997e-06 -2.44239e-06 0.136417)
(4.7185e-05 -2.13905e-06 0.117347)
(2.82963e-05 -6.54931e-07 0.0733242)
(4.34929e-05 4.82012e-07 0.0993983)
(-7.98481e-06 2.06123e-06 0.136427)
(2.91293e-05 -2.10065e-05 0.102207)
(4.68558e-05 2.17303e-07 0.117339)
(-3.02949e-05 7.40441e-07 0.0733228)
(-4.38797e-05 -2.15875e-06 0.0994057)
(5.38089e-06 1.58308e-06 0.13643)
(-3.05927e-05 -2.19201e-05 0.102207)
(-4.66246e-05 -2.90742e-07 0.117344)
(-2.9171e-05 -1.47556e-06 0.0733092)
(-4.41406e-05 3.33236e-07 0.0994063)
(8.7962e-06 -1.6711e-05 0.087218)
(2.31823e-05 -8.69978e-06 0.087495)
(9.56725e-06 -1.09765e-05 0.0628708)
(2.543e-06 4.93304e-07 0.13668)
(-3.10592e-05 -3.10844e-05 0.102566)
(-4.07199e-07 -5.04783e-05 0.117768)
(8.25527e-06 -3.31342e-05 0.0735893)
(8.86724e-07 -5.20069e-05 0.100032)
(-9.01675e-06 -3.32976e-05 0.0735765)
(3.02692e-07 -5.20566e-05 0.100033)
(-9.97387e-06 -4.09418e-06 0.0627528)
(-1.05406e-05 -1.13391e-05 0.0628483)
(-2.69986e-06 -1.6549e-05 0.0609716)
(-8.0583e-06 -3.38925e-05 0.073554)
(5.52361e-06 3.81043e-05 0.0856862)
(-7.83101e-06 -4.06413e-05 0.0856349)
(1.00036e-06 1.47429e-05 0.0609249)
(-1.77004e-06 -1.68229e-05 0.0674123)
(-8.41306e-07 -5.52106e-05 0.0999224)
(-9.63722e-07 1.4989e-05 0.0698369)
(1.4241e-06 4.86228e-05 0.0965869)
(-8.33906e-07 -1.67229e-05 0.0698434)
(-3.93877e-06 -5.25133e-05 0.0964865)
(-5.99563e-07 1.5603e-05 0.0673956)
(8.01507e-06 -1.04148e-05 0.0628422)
(6.30113e-06 -2.16876e-06 0.0671255)
(4.25687e-05 -1.40497e-06 0.0994015)
(4.20706e-05 -2.28436e-06 0.0959798)
(5.47768e-06 -1.25634e-06 0.0695188)
(-1.0716e-05 2.6233e-06 0.0606774)
(-3.0366e-05 -1.7543e-06 0.0731004)
(3.22329e-05 -1.51391e-06 0.0852155)
(-3.55834e-05 -8.12832e-07 0.0848747)
(8.4646e-06 -1.99158e-06 0.0608063)
(7.71083e-06 -1.42404e-06 0.0608111)
(2.6741e-05 -2.15203e-07 0.0733108)
(3.08269e-05 -4.56303e-07 0.085218)
(-8.09542e-06 3.09768e-06 0.0669007)
(-4.5823e-05 3.5198e-07 0.098834)
(4.33614e-05 -3.0956e-06 0.0959764)
(5.03365e-06 -1.42703e-06 0.069513)
(-4.42179e-05 1.14259e-06 0.0954619)
(-7.26621e-06 5.05592e-07 0.0692664)
(6.46499e-06 -2.34391e-06 0.0671211)
(-1.17296e-05 3.37267e-06 0.0626362)
(8.15336e-06 -1.88643e-06 0.0627691)
(6.16376e-05 1.41918e-05 0.0982081)
(-6.28525e-05 -1.36139e-05 0.110802)
(1.10591e-05 1.62884e-05 0.0869154)
(-1.05042e-05 -8.5428e-06 0.072567)
(6.31853e-05 1.4994e-05 0.110292)
(1.14601e-05 7.65469e-06 0.0723985)
(-6.1372e-05 -1.17212e-05 0.0986116)
(1.73566e-05 5.83254e-05 0.0982865)
(-2.14619e-05 -5.84001e-05 0.110889)
(2.42712e-05 9.61657e-06 0.0872855)
(-1.55368e-05 -8.99043e-06 0.0725568)
(1.9233e-05 6.13757e-05 0.110543)
(1.48783e-05 8.84593e-06 0.0724683)
(-1.62005e-05 -5.60478e-05 0.0986149)
(1.34589e-05 8.06904e-06 0.0788894)
(-3.45266e-06 -9.28202e-06 0.0613671)
(-1.41309e-05 -2.40088e-07 0.0613954)
(2.81791e-06 7.42712e-06 0.0612543)
(1.30754e-05 -1.09017e-06 0.0613069)
(-1.40076e-05 -8.27297e-06 0.0791552)
(-8.72205e-06 -1.31237e-05 0.0628275)
(-1.16734e-05 -4.1688e-06 0.0626188)
(7.3069e-06 2.04811e-06 0.0627533)
(-1.92875e-05 -6.03648e-05 0.098367)
(2.25923e-05 5.74906e-05 0.110952)
(-2.38818e-05 -1.15716e-05 0.0873268)
(1.60038e-05 8.90462e-06 0.0726658)
(-1.48377e-05 -1.21667e-05 0.0725817)
(-1.98408e-05 -6.19808e-05 0.11061)
(1.91649e-05 5.54219e-05 0.0986998)
(-6.38357e-05 -1.36715e-05 0.0981223)
(6.22741e-05 1.06165e-05 0.110729)
(-1.24207e-05 -1.85886e-05 0.0868729)
(1.0816e-05 6.90544e-06 0.0724638)
(-1.31845e-05 -1.03641e-05 0.0722926)
(-6.54719e-05 -1.51735e-05 0.110216)
(6.13789e-05 7.22378e-06 0.0985335)
(-1.54765e-05 -1.20505e-05 0.0788907)
(1.5022e-05 3.04133e-07 0.0613913)
(4.26064e-06 8.00835e-06 0.0613668)
(-1.35035e-05 -3.12638e-06 0.06131)
(-4.80509e-06 -1.02753e-05 0.0612546)
(1.51837e-05 7.73125e-06 0.0791625)
(1.79518e-06 -1.43373e-05 0.0609881)
(7.40779e-06 -3.24966e-05 0.073575)
(-5.84275e-06 3.86104e-05 0.0857028)
(7.35976e-06 -3.99064e-05 0.0856513)
(-1.39184e-06 1.62218e-05 0.0609418)
(1.287e-06 -1.51921e-05 0.067421)
(1.78258e-06 -5.50775e-05 0.09992)
(-8.02601e-07 1.5446e-05 0.0698423)
(-2.32551e-06 5.03616e-05 0.0965958)
(1.39532e-06 -1.60278e-05 0.0698473)
(3.35966e-06 -5.23242e-05 0.096491)
(-3.56995e-07 1.59414e-05 0.0673991)
(1.60627e-05 -5.92553e-05 0.0982987)
(-2.40082e-05 6.00778e-05 0.110906)
(2.36473e-05 -9.7442e-06 0.0873023)
(-1.7566e-05 8.70719e-06 0.072582)
(1.28399e-05 -8.70919e-06 0.0724544)
(1.91173e-05 -6.08387e-05 0.110569)
(-1.92996e-05 5.66722e-05 0.0986125)
(6.11102e-05 -1.5339e-05 0.0982264)
(-6.19713e-05 1.19163e-05 0.110782)
(1.08406e-05 -1.78188e-05 0.0869156)
(-1.04791e-05 7.6364e-06 0.0725625)
(6.55305e-05 -1.73065e-05 0.110269)
(1.14234e-05 -1.00547e-05 0.0724278)
(-6.06259e-05 9.22402e-06 0.0986277)
(1.09052e-05 -1.14137e-05 0.0789005)
(-1.56175e-05 -6.95896e-07 0.0614066)
(-5.03123e-06 8.48116e-06 0.0613664)
(1.00225e-05 -1.68588e-07 0.0612991)
(1.23115e-06 -1.06916e-05 0.0612719)
(-1.5621e-05 6.91223e-06 0.0791629)
(1.00724e-05 -3.43592e-06 0.0626362)
(5.45212e-06 8.65868e-07 0.0671478)
(4.29867e-05 -2.35057e-07 0.0994033)
(5.58633e-06 -3.04866e-07 0.0695312)
(4.00014e-05 6.70913e-07 0.0959923)
(-1.06339e-05 -2.80119e-06 0.0606964)
(-3.04337e-05 5.99918e-07 0.0731156)
(3.15635e-05 6.50204e-07 0.0852304)
(-3.55015e-05 -5.0827e-07 0.0848891)
(8.4197e-06 2.15322e-06 0.0608259)
(6.64112e-06 1.18396e-06 0.0608312)
(2.59826e-05 5.80757e-07 0.0733275)
(3.04266e-05 -3.33749e-08 0.0852338)
(-8.19175e-06 -3.76404e-06 0.0669218)
(-4.57678e-05 -9.84254e-07 0.098836)
(5.09877e-06 -2.33642e-07 0.0695262)
(4.1008e-05 2.32011e-06 0.0959862)
(-6.85463e-06 -1.96521e-06 0.0692779)
(-4.57098e-05 -2.2805e-06 0.0954716)
(5.81177e-06 1.84426e-06 0.0671449)
(9.35519e-06 2.66882e-06 0.0606994)
(2.85979e-05 -1.56965e-06 0.0731158)
(-3.32529e-05 -1.29978e-06 0.0852323)
(3.41333e-05 -7.82023e-07 0.0848943)
(-1.03877e-05 -2.9392e-06 0.0608262)
(6.38488e-06 2.56283e-06 0.0669277)
(4.48286e-05 -9.00975e-08 0.0988462)
(-4.39468e-05 -3.12967e-06 0.0959906)
(-6.9412e-06 -1.20563e-06 0.0695335)
(4.32132e-05 1.55657e-06 0.0954808)
(5.74628e-06 -1.57777e-07 0.0692838)
(-8.40529e-06 -3.09426e-06 0.0671418)
(8.69564e-06 -3.42603e-06 0.060682)
(2.89644e-05 1.34211e-07 0.0730995)
(-3.2585e-05 5.92752e-07 0.0852154)
(3.42517e-05 -1.63009e-07 0.0848753)
(-1.02976e-05 2.14969e-06 0.0608128)
(6.47065e-06 -3.11269e-06 0.0669115)
(4.55586e-05 -9.38154e-07 0.0988449)
(-6.74316e-06 3.64133e-07 0.069529)
(-4.27156e-05 1.92053e-06 0.0959826)
(5.75995e-06 -7.54834e-07 0.069278)
(4.41259e-05 -2.26949e-06 0.0954694)
(-7.59218e-06 1.93867e-06 0.0671287)
(-6.49654e-05 1.37417e-05 0.0981402)
(6.21022e-05 -1.31208e-05 0.110761)
(-1.27425e-05 1.65873e-05 0.086893)
(1.02403e-05 -7.83846e-06 0.0724888)
(-1.39454e-05 9.22314e-06 0.0722935)
(-6.42062e-05 1.23039e-05 0.11026)
(6.1277e-05 -8.50303e-06 0.0985417)
(-1.80188e-05 5.84706e-05 0.0983824)
(2.02861e-05 -5.63339e-05 0.110925)
(-2.4886e-05 1.07781e-05 0.0873366)
(1.40926e-05 -9.42115e-06 0.0726838)
(-2.12507e-05 6.33497e-05 0.110575)
(-1.55836e-05 1.12192e-05 0.0726232)
(1.82239e-05 -5.5717e-05 0.0987192)
(-1.84324e-05 8.50077e-06 0.0789192)
(3.82548e-06 -8.73186e-06 0.0613836)
(1.36023e-05 -5.75636e-07 0.0614185)
(-6.49245e-06 7.61372e-06 0.0612619)
(-1.56428e-05 1.16273e-06 0.0613482)
(1.37729e-05 -9.22079e-06 0.079188)
(-8.60798e-06 1.1465e-05 0.06285)
(1.72207e-07 1.47052e-05 0.0609831)
(-7.14271e-06 3.29404e-05 0.0735735)
(7.83063e-06 -3.81721e-05 0.0856987)
(-5.51029e-06 4.02414e-05 0.0856452)
(2.85652e-06 -1.53023e-05 0.0609383)
(8.75249e-07 1.42831e-05 0.0674125)
(-6.99033e-07 5.40959e-05 0.0999192)
(3.68527e-06 -5.09316e-05 0.0965838)
(1.1276e-06 -1.57758e-05 0.0698311)
(-1.62257e-06 5.11587e-05 0.0964825)
(-6.81069e-08 1.48629e-05 0.0698412)
(1.58248e-06 -1.64176e-05 0.0673919)
(2.36412e-07 1.45022e-05 0.060981)
(7.2154e-06 3.32014e-05 0.0735594)
(-7.6243e-06 -3.78772e-05 0.0856923)
(5.57562e-06 4.03161e-05 0.0856395)
(-2.69946e-06 -1.57279e-05 0.0609366)
(1.0048e-07 1.40746e-05 0.0674162)
(1.61351e-06 5.49351e-05 0.0999224)
(-3.55682e-06 -5.15201e-05 0.0965833)
(2.14702e-07 -1.65111e-05 0.0698335)
(2.15276e-06 5.10004e-05 0.0964836)
(1.34676e-06 1.48216e-05 0.0698437)
(-1.17858e-06 -1.66819e-05 0.0673922)
(9.66667e-06 2.47119e-06 0.0626213)
(8.63872e-06 1.08611e-05 0.0628284)
(1.69972e-06 -1.50573e-06 0.141699)
(-1.80801e-06 -1.23081e-07 0.141533)
(9.86521e-07 -1.79582e-07 0.143601)
(6.54123e-05 6.33024e-05 0.112983)
(-5.65694e-05 -0.000184342 0.122179)
(-0.000182938 -5.09885e-05 0.122176)
(0.000193351 0.000195795 0.128702)
(5.85821e-05 0.000188438 0.12183)
(0.000183578 5.55419e-05 0.121899)
(-6.16536e-05 -5.68451e-05 0.113331)
(-6.75545e-05 -6.21776e-05 0.112977)
(0.000186713 5.01268e-05 0.122238)
(5.48707e-05 0.000179483 0.122109)
(-0.000194737 -0.000195638 0.128702)
(-0.000187415 -5.61734e-05 0.121967)
(-5.99845e-05 -0.000186519 0.121757)
(6.30358e-05 5.32863e-05 0.113331)
(6.59218e-05 -6.25127e-05 0.112999)
(-0.000187447 5.21956e-05 0.122231)
(-5.51996e-05 0.000181311 0.122121)
(0.000193714 -0.000194084 0.1287)
(5.95181e-05 -0.000186585 0.12177)
(0.000185615 -5.56818e-05 0.121965)
(-6.39346e-05 5.53685e-05 0.113338)
(-6.40675e-05 6.36955e-05 0.112987)
(5.63191e-05 -0.000183147 0.122162)
(0.000182997 -4.87511e-05 0.122167)
(-0.000192479 0.00019554 0.128687)
(-0.000184772 5.6968e-05 0.121893)
(-5.7938e-05 0.000186057 0.121821)
(6.23508e-05 -5.46198e-05 0.113334)
(4.06041e-06 -9.1065e-07 0.141707)
(5.98967e-07 -7.10509e-07 0.141529)
(3.38284e-06 -1.48524e-07 0.143611)
(-2.67538e-06 -9.58391e-08 0.141559)
(5.42314e-07 1.84962e-06 0.141663)
(9.88375e-07 -3.78418e-07 0.143596)
(1.2623e-06 -5.96566e-07 0.141564)
(2.78743e-06 -1.15361e-06 0.141671)
(4.00557e-06 -1.5302e-06 0.143614)
(0.000230193 -6.58293e-06 0.122894)
(-0.000214984 7.19553e-06 0.118449)
(3.04213e-05 -2.59582e-05 0.101779)
(-4.22764e-05 5.0193e-06 0.110562)
(0.000213462 -1.30154e-05 0.117985)
(4.47253e-05 -9.49443e-06 0.110043)
(-0.000222476 6.12074e-07 0.123277)
(0.000223117 -2.57374e-06 0.125396)
(4.8845e-05 -1.50717e-06 0.116712)
(-4.86666e-05 -6.04465e-07 0.115286)
(-0.000215322 -2.63533e-06 0.127018)
(5.00672e-05 -2.68093e-06 0.1147)
(0.000220691 -2.37018e-07 0.126534)
(-0.000223306 -2.68851e-06 0.125827)
(-6.51127e-06 0.000224772 0.123444)
(1.35061e-05 -0.000205936 0.118654)
(-3.24436e-05 3.22888e-05 0.102425)
(1.43628e-05 -4.26469e-05 0.110964)
(-1.37221e-05 0.000209633 0.118438)
(-1.4204e-05 4.79074e-05 0.110826)
(5.89453e-06 -0.000211966 0.123514)
(-8.96527e-07 0.000213842 0.126023)
(-2.22256e-06 5.25863e-05 0.117625)
(-1.00329e-06 -0.000205753 0.127258)
(6.26673e-06 -5.13869e-05 0.115723)
(3.38615e-07 0.000210976 0.127193)
(-5.21808e-06 5.27008e-05 0.11559)
(3.98667e-07 -0.000213927 0.126069)
(-5.67081e-06 -0.000220363 0.123435)
(1.39979e-05 0.000206101 0.118654)
(-3.24603e-05 -3.23046e-05 0.102416)
(1.22697e-05 4.27582e-05 0.110964)
(-1.53298e-05 -4.68751e-05 0.110827)
(-1.31779e-05 -0.000206854 0.118444)
(6.04101e-06 0.000212659 0.123503)
(-2.51137e-07 -0.000217358 0.126019)
(-1.13913e-06 -5.37776e-05 0.117622)
(4.28558e-06 4.871e-05 0.115725)
(2.21816e-07 0.000202912 0.127244)
(-5.9064e-06 -5.37575e-05 0.115592)
(6.6289e-07 -0.000212 0.127182)
(5.3093e-07 0.000208319 0.126058)
(5.11998e-06 -0.000218622 0.123423)
(-1.48434e-05 0.000207314 0.118636)
(3.21031e-05 -3.137e-05 0.10241)
(-1.30437e-05 4.472e-05 0.11096)
(1.53087e-05 -4.65845e-05 0.110822)
(1.23268e-05 -0.000204212 0.118425)
(-7.32763e-06 0.000214011 0.123495)
(5.35778e-08 -0.000216412 0.126012)
(1.39042e-06 -5.35551e-05 0.117621)
(-5.65871e-06 4.98835e-05 0.115723)
(8.60913e-07 0.000204385 0.127244)
(5.18128e-06 -5.37063e-05 0.115588)
(-4.85424e-07 -0.000210296 0.127181)
(-1.21659e-06 0.000209662 0.126057)
(-0.000232169 -6.44333e-06 0.1229)
(0.000213011 5.862e-06 0.118436)
(-3.30653e-05 -2.67347e-05 0.101766)
(4.08715e-05 4.11302e-06 0.110564)
(-4.59935e-05 -9.74494e-06 0.110043)
(-0.000215146 -1.24844e-05 0.117975)
(0.000220947 -1.03516e-06 0.123281)
(-0.000225816 -2.90517e-06 0.125405)
(-4.93634e-05 -1.19135e-06 0.116715)
(4.8306e-05 -1.22904e-06 0.115297)
(0.000215745 -2.57426e-06 0.127023)
(-5.08996e-05 -3.18789e-06 0.114706)
(-0.000222924 -2.46822e-07 0.126539)
(0.000223347 -3.92787e-06 0.125833)
(-0.000228569 5.13562e-06 0.122875)
(0.000211421 -6.64949e-06 0.118425)
(-3.42763e-05 2.53734e-05 0.101771)
(4.15664e-05 -4.89859e-06 0.110557)
(-4.59538e-05 9.23488e-06 0.110035)
(-0.000212006 1.03529e-05 0.117968)
(0.000219436 -9.29892e-09 0.123257)
(-0.000228153 1.91973e-06 0.12539)
(-4.92453e-05 2.54194e-07 0.116708)
(0.000214858 2.11942e-06 0.127015)
(4.63973e-05 -4.62295e-07 0.115289)
(-0.000221565 -3.45341e-07 0.126532)
(-5.08627e-05 1.73032e-06 0.114698)
(0.00021788 2.44037e-06 0.125818)
(0.000227314 5.97351e-06 0.122886)
(-0.000213909 -7.55715e-06 0.118444)
(3.12284e-05 2.49723e-05 0.10177)
(-4.34215e-05 -5.68049e-06 0.110561)
(0.000211486 1.16586e-05 0.117982)
(4.40961e-05 9.18676e-06 0.110038)
(-0.000222244 -1.13051e-06 0.12327)
(0.000225666 1.89281e-06 0.125398)
(4.93608e-05 -1.49655e-07 0.116715)
(-0.000215206 1.34877e-06 0.127016)
(-4.76543e-05 -9.276e-07 0.115296)
(0.000219868 -7.94493e-07 0.126532)
(5.03556e-05 1.70267e-06 0.114704)
(-0.000219588 1.74059e-06 0.125832)
(7.17042e-06 0.000224107 0.123454)
(-1.31292e-05 -0.000206241 0.118657)
(3.34035e-05 3.26617e-05 0.102416)
(-1.44506e-05 -4.40971e-05 0.110967)
(1.38035e-05 0.000208402 0.118444)
(1.45543e-05 4.74857e-05 0.11083)
(-5.51956e-06 -0.000212763 0.123526)
(1.34712e-06 0.000213232 0.126027)
(2.44371e-06 5.18216e-05 0.117625)
(1.14243e-06 -0.000205928 0.127258)
(-6.1476e-06 -5.1716e-05 0.115728)
(5.90943e-07 0.000211677 0.127193)
(5.27526e-06 5.17943e-05 0.115593)
(1.43137e-07 -0.000214134 0.126074)
(4.4236e-06 8.09518e-06 0.0427947)
(3.11689e-06 3.34348e-06 0.0289361)
(2.06267e-06 1.1016e-06 0.0180046)
(1.16427e-06 9.63182e-08 0.00948273)
(3.80764e-07 -3.32083e-08 0.00287833)
(-6.84285e-06 5.23995e-06 0.0442731)
(-4.41421e-06 2.12422e-06 0.0301499)
(-2.65357e-06 5.56592e-07 0.0188922)
(-1.35171e-06 -6.27145e-08 0.0100171)
(-4.3291e-07 -9.59085e-08 0.00306314)
(6.28494e-06 -7.68548e-07 0.0428705)
(2.97615e-06 -4.42773e-07 0.0289824)
(1.38478e-06 -2.75937e-07 0.0180311)
(5.13679e-07 -1.80496e-07 0.00949564)
(9.50535e-08 -1.8168e-08 0.00288208)
(3.30525e-06 -1.36483e-06 0.0443302)
(1.61028e-06 -5.2243e-07 0.030185)
(7.68144e-07 -1.09852e-07 0.0189128)
(2.9433e-07 4.45244e-08 0.0100278)
(8.98949e-08 5.21745e-08 0.00306632)
(6.44586e-06 3.95243e-06 0.044259)
(4.135e-06 1.39197e-06 0.0301398)
(2.55259e-06 2.80619e-07 0.0188859)
(1.38397e-06 -5.67589e-08 0.0100145)
(4.30685e-07 -1.04858e-07 0.00306257)
(3.68108e-06 2.35784e-07 0.0443174)
(1.98805e-06 -3.71474e-07 0.0301758)
(1.07181e-06 -4.86723e-07 0.0189067)
(4.89863e-07 -3.74807e-07 0.0100243)
(1.48613e-07 -1.37227e-07 0.00306516)
(-4.6506e-06 9.41306e-06 0.0428124)
(-3.26383e-06 4.3377e-06 0.0289489)
(-2.09667e-06 1.66431e-06 0.0180123)
(-1.16794e-06 4.24917e-07 0.00948629)
(-3.50288e-07 9.39569e-10 0.00287935)
(-4.09186e-06 2.02169e-06 0.0443346)
(-2.06702e-06 9.65487e-07 0.0301895)
(-9.39956e-07 3.677e-07 0.0189162)
(-3.32371e-07 8.21545e-08 0.0100299)
(-9.13108e-08 -1.36027e-08 0.00306719)
(6.05033e-06 -3.18141e-08 0.0428842)
(2.85861e-06 -8.74259e-08 0.0289921)
(1.33835e-06 -6.80483e-08 0.0180372)
(5.04669e-07 -3.18795e-08 0.00949867)
(9.15994e-08 -2.21066e-09 0.00288284)
(-7.68794e-06 1.70146e-07 0.0428853)
(-3.7862e-06 1.92234e-07 0.0289946)
(-1.70458e-06 1.09396e-07 0.0180397)
(-6.10041e-07 5.40434e-08 0.00950054)
(-1.01581e-07 2.43359e-09 0.00288365)
(-7.3379e-06 -6.45005e-07 0.0428789)
(-3.57999e-06 -5.91187e-07 0.0289901)
(-1.56829e-06 -4.1713e-07 0.0180371)
(-5.45133e-07 -2.5737e-07 0.00949958)
(-9.45104e-08 -6.36934e-08 0.00288351)
(5.42936e-06 -4.32573e-06 0.0442829)
(3.17278e-06 -1.81767e-06 0.0301572)
(1.81448e-06 -5.47656e-07 0.018897)
(9.15597e-07 -5.374e-08 0.0100199)
(3.13388e-07 6.96644e-08 0.00306421)
(5.0233e-06 -8.66248e-06 0.0428142)
(3.77879e-06 -3.82596e-06 0.028951)
(2.61026e-06 -1.34363e-06 0.018014)
(1.54104e-06 -2.60953e-07 0.00948734)
(5.02024e-07 5.10895e-08 0.00287979)
(-5.40654e-06 -8.94897e-06 0.0428079)
(-3.96883e-06 -4.10296e-06 0.0289468)
(-2.65558e-06 -1.55306e-06 0.0180115)
(-1.53602e-06 -3.87045e-07 0.00948605)
(-4.549e-07 7.36985e-09 0.00287929)
(-4.12379e-06 -1.99477e-06 0.0443245)
(-2.12364e-06 -9.192e-07 0.0301827)
(-1.00078e-06 -3.0652e-07 0.0189122)
(-3.97971e-07 -2.43347e-08 0.0100278)
(-1.06434e-07 1.27625e-09 0.00306642)
(-6.76198e-06 -4.30624e-06 0.0442657)
(-4.29295e-06 -1.61374e-06 0.0301461)
(-2.57341e-06 -2.88756e-07 0.0188903)
(-1.35002e-06 1.69707e-07 0.0100163)
(-4.02753e-07 1.05185e-07 0.00306292)
(-1.66302e-06 -1.02757e-05 0.0442505)
(-8.79414e-07 -5.22766e-06 0.0301422)
(-3.44844e-07 -2.30208e-06 0.0188891)
(-1.03859e-07 -8.52333e-07 0.0100159)
(3.33579e-08 -1.50255e-07 0.00306294)
(-4.96096e-06 -8.80954e-06 0.042837)
(-3.58548e-06 -3.71698e-06 0.028971)
(-2.38294e-06 -1.21674e-06 0.0180269)
(-1.37627e-06 -1.88906e-07 0.00949431)
(-4.23064e-07 5.41405e-08 0.0028819)
(5.34315e-06 -3.52691e-06 0.0442878)
(3.70438e-06 -1.14215e-06 0.0301662)
(2.50573e-06 -4.02362e-08 0.0189032)
(1.45045e-06 2.72549e-07 0.0100229)
(5.3249e-07 1.65183e-07 0.00306489)
(3.07187e-06 -2.11274e-06 0.0429719)
(1.54643e-06 -1.71572e-06 0.0291488)
(7.51724e-07 -1.26425e-06 0.0181912)
(2.84559e-07 -7.79487e-07 0.00960746)
(1.11426e-07 -2.73914e-07 0.00292528)
(2.37074e-06 -1.0635e-06 0.0432391)
(1.11301e-06 -8.62644e-07 0.0293732)
(5.26428e-07 -6.26472e-07 0.0183632)
(2.19905e-07 -3.69562e-07 0.0097161)
(6.32742e-08 -1.45249e-07 0.00296468)
(-7.02062e-06 2.98999e-06 0.04423)
(-3.94809e-06 2.62712e-06 0.0301318)
(-1.99684e-06 2.07481e-06 0.0188835)
(-9.1436e-07 1.30529e-06 0.010013)
(-2.06859e-07 4.96725e-07 0.00306205)
(-7.48391e-06 -7.55022e-07 0.0428293)
(-3.53625e-06 -5.26267e-07 0.0289684)
(-1.52354e-06 -2.8453e-07 0.0180258)
(-5.05295e-07 -1.31786e-07 0.00949352)
(-8.16597e-08 -1.4564e-08 0.0028816)
(5.21785e-06 -8.48349e-08 0.0428754)
(2.35349e-06 2.81625e-07 0.0289866)
(1.01397e-06 3.03026e-07 0.018034)
(3.06109e-07 1.79524e-07 0.00949718)
(6.22254e-08 8.83524e-08 0.00288278)
(-4.75719e-06 1.76533e-06 0.044286)
(-2.23856e-06 9.47297e-07 0.0301669)
(-9.22017e-07 4.599e-07 0.0189046)
(-3.20221e-07 1.98841e-07 0.010024)
(-4.08032e-08 5.21419e-08 0.00306539)
(2.95357e-06 -4.285e-07 0.0443361)
(1.63414e-06 8.15958e-08 0.0301899)
(8.97469e-07 2.47993e-07 0.0189162)
(4.17486e-07 2.32566e-07 0.0100295)
(1.27774e-07 7.70652e-08 0.00306712)
(-6.43502e-06 -3.65386e-06 0.0430433)
(-3.35426e-06 -1.52559e-06 0.0290996)
(-1.53604e-06 -3.67092e-07 0.0181067)
(-6.17081e-07 6.48971e-08 0.00953741)
(-1.66496e-07 8.27785e-08 0.00289562)
(5.77313e-06 2.06995e-06 0.0430081)
(3.00348e-06 5.85127e-07 0.0290867)
(1.38693e-06 -2.28285e-08 0.0181009)
(5.73834e-07 -1.36721e-07 0.00953461)
(1.3131e-07 -9.34725e-08 0.0028947)
(-7.7938e-06 -5.22689e-06 0.0429975)
(-4.42132e-06 -2.26144e-06 0.0290713)
(-2.29924e-06 -6.53167e-07 0.01809)
(-1.04538e-06 -2.36942e-08 0.00952884)
(-2.84531e-07 2.0046e-08 0.0028931)
(7.20658e-06 4.03291e-06 0.0430015)
(4.47143e-06 1.43265e-06 0.029082)
(2.66993e-06 1.25487e-07 0.018098)
(1.41873e-06 -2.61279e-07 0.00953317)
(4.18821e-07 -1.50069e-07 0.0028943)
(-2.34699e-06 -5.2758e-06 0.0441122)
(-1.16518e-06 -2.97231e-06 0.0300033)
(-3.4403e-07 -1.51832e-06 0.0187768)
(1.58206e-08 -6.64067e-07 0.00994409)
(6.29836e-09 -1.92568e-07 0.00303686)
(-8.56458e-06 5.15147e-08 0.0441029)
(-5.14702e-06 6.55082e-07 0.0299976)
(-2.90814e-06 8.99538e-07 0.0187737)
(-1.4526e-06 6.81187e-07 0.00994233)
(-4.63385e-07 2.80946e-07 0.00303634)
(1.68256e-06 2.8176e-06 0.044072)
(9.99917e-07 1.27434e-06 0.0299869)
(4.77051e-07 5.78575e-07 0.0187691)
(2.04421e-07 2.53075e-07 0.0099404)
(1.89901e-08 8.24153e-08 0.00303568)
(7.35307e-06 -1.59445e-06 0.0440756)
(4.72165e-06 -1.71461e-06 0.0299884)
(3.0185e-06 -1.55454e-06 0.0187697)
(1.73232e-06 -1.05784e-06 0.00994055)
(5.28498e-07 -3.82704e-07 0.0030357)
(-5.341e-06 -5.13998e-06 0.0442765)
(-3.28163e-06 -2.09541e-06 0.0301585)
(-1.94041e-06 -6.18233e-07 0.0188989)
(-1.04114e-06 -8.78745e-08 0.0100214)
(-3.07485e-07 6.73773e-08 0.00306477)
(-4.78665e-06 -2.1726e-06 0.0442728)
(-2.32582e-06 -1.04727e-06 0.0301576)
(-1.02141e-06 -4.16182e-07 0.0188984)
(-4.06417e-07 -1.49166e-07 0.0100204)
(-6.65717e-08 1.27175e-08 0.00306421)
(2.41435e-06 4.22095e-07 0.0443235)
(1.32401e-06 -8.48764e-08 0.030181)
(7.4868e-07 -2.29436e-07 0.0189104)
(3.64714e-07 -1.99018e-07 0.0100261)
(1.20459e-07 -8.15174e-08 0.00306604)
(4.83917e-06 -7.52902e-06 0.0428509)
(3.84376e-06 -3.10052e-06 0.0289803)
(2.72472e-06 -9.65655e-07 0.0180321)
(1.58973e-06 -8.35018e-08 0.00949647)
(5.70934e-07 8.74831e-08 0.00288238)
(-7.20414e-06 3.19904e-06 0.0430416)
(-3.93074e-06 1.05008e-06 0.0290994)
(-1.96901e-06 3.75937e-08 0.018107)
(-8.65173e-07 -2.39419e-07 0.00953767)
(-2.46492e-07 -1.77031e-07 0.00289568)
(7.60865e-06 -4.82994e-06 0.0430194)
(3.77119e-06 -2.1657e-06 0.0290926)
(1.62511e-06 -7.21665e-07 0.0181043)
(6.33288e-07 -1.05583e-07 0.00953641)
(1.10947e-07 -1.41245e-08 0.00289525)
(-3.85749e-06 4.0837e-06 0.0441134)
(-2.34533e-06 1.86354e-06 0.0300047)
(-1.13568e-06 6.96354e-07 0.0187781)
(-4.25612e-07 1.89955e-07 0.00994465)
(-1.06259e-07 9.0796e-09 0.00303707)
(1.49572e-06 -5.46321e-06 0.044082)
(4.5141e-07 -3.02078e-06 0.0299922)
(-1.61322e-07 -1.76557e-06 0.0187721)
(-3.00731e-07 -9.19451e-07 0.0099417)
(-1.86526e-07 -3.24926e-07 0.00303611)
(3.8465e-06 -1.49345e-06 0.0442868)
(1.85818e-06 -6.30449e-07 0.0301682)
(8.73184e-07 -1.45234e-07 0.0189055)
(3.95548e-07 5.73666e-08 0.0100247)
(7.60959e-08 1.40857e-08 0.00306568)
(2.47912e-06 1.28844e-06 0.0429863)
(1.2212e-06 1.15614e-06 0.0291577)
(6.08127e-07 9.01733e-07 0.0181965)
(2.63405e-07 5.68492e-07 0.00961025)
(9.73087e-08 2.19739e-07 0.00292611)
(2.50893e-06 -4.68182e-08 0.0432463)
(1.19276e-06 4.48974e-08 0.0293774)
(5.59676e-07 7.70462e-08 0.0183656)
(2.04712e-07 6.7681e-08 0.00971728)
(6.60062e-08 2.79397e-08 0.00296499)
(-6.9885e-06 -3.04367e-06 0.0442444)
(-3.85756e-06 -2.57793e-06 0.0301412)
(-1.8945e-06 -1.97982e-06 0.0188892)
(-8.09822e-07 -1.22349e-06 0.0100158)
(-1.94942e-07 -4.65776e-07 0.00306277)
(-7.68569e-06 3.17125e-07 0.0428432)
(-3.65136e-06 3.55078e-07 0.0289784)
(-1.57686e-06 2.41957e-07 0.0180321)
(-5.40938e-07 1.31717e-07 0.0094966)
(-7.77078e-08 3.86215e-08 0.00288242)
(5.39912e-06 4.87362e-07 0.0428892)
(2.61941e-06 1.80103e-07 0.0289963)
(1.23579e-06 9.60594e-08 0.0180401)
(4.48931e-07 7.1707e-08 0.00950011)
(1.1636e-07 1.81848e-08 0.00288355)
(6.16918e-06 -6.5178e-07 0.0428409)
(2.81012e-06 -6.26255e-07 0.0289775)
(1.19071e-06 -4.37308e-07 0.0180318)
(4.11577e-07 -2.3376e-07 0.00949688)
(4.1682e-08 -1.00541e-07 0.00288259)
(5.67694e-06 -3.7666e-06 0.0442339)
(3.20061e-06 -3.1776e-06 0.0301345)
(1.68209e-06 -2.42025e-06 0.0188851)
(7.86576e-07 -1.51151e-06 0.010014)
(1.89835e-07 -5.31817e-07 0.00306234)
(6.4048e-06 -2.59765e-07 0.0428328)
(3.02353e-06 -1.10809e-08 0.028972)
(1.34085e-06 4.98348e-08 0.0180287)
(4.77993e-07 4.17522e-08 0.00949563)
(7.24953e-08 2.68052e-08 0.00288229)
(6.01178e-06 -6.23081e-06 0.04302)
(2.9545e-06 -3.10695e-06 0.0290851)
(1.31616e-06 -1.25311e-06 0.0180983)
(4.87859e-07 -3.64242e-07 0.0095335)
(1.44098e-07 -5.00058e-08 0.00289467)
(-8.05401e-06 5.34021e-06 0.0430377)
(-4.71546e-06 2.14816e-06 0.0291043)
(-2.5488e-06 5.11857e-07 0.0181113)
(-1.22287e-06 -8.34722e-08 0.00954032)
(-3.02063e-07 -6.72744e-08 0.0028967)
(7.38337e-06 -3.17653e-07 0.0441131)
(4.18023e-06 1.41254e-07 0.0300028)
(2.29945e-06 4.24039e-07 0.0187762)
(1.11904e-06 3.98081e-07 0.00994378)
(3.83688e-07 1.90823e-07 0.00303685)
(-5.45326e-06 4.28777e-06 0.0442963)
(-3.33832e-06 1.76085e-06 0.0301728)
(-1.91802e-06 5.28225e-07 0.0189078)
(-9.75553e-07 3.38237e-08 0.0100257)
(-2.65423e-07 -3.47948e-08 0.00306593)
(8.26672e-07 9.32006e-06 0.0442599)
(1.05998e-06 4.91779e-06 0.0301481)
(1.02162e-06 2.29566e-06 0.0188923)
(7.27152e-07 8.74974e-07 0.0100174)
(2.64499e-07 1.91803e-07 0.00306331)
(-3.95304e-06 8.16187e-06 0.0428516)
(-2.80461e-06 3.69096e-06 0.0289818)
(-1.81732e-06 1.4409e-06 0.0180336)
(-1.0049e-06 3.61555e-07 0.00949752)
(-3.25078e-07 1.67107e-08 0.00288275)
(-3.93646e-07 8.98922e-06 0.0442584)
(-5.99717e-07 4.62833e-06 0.0301476)
(-6.49329e-07 2.08469e-06 0.0188922)
(-5.14834e-07 7.53953e-07 0.0100172)
(-1.5489e-07 1.56188e-07 0.00306318)
(4.37865e-06 8.04847e-06 0.0428456)
(3.38266e-06 3.52555e-06 0.0289779)
(2.32356e-06 1.28668e-06 0.0180313)
(1.30896e-06 2.789e-07 0.00949622)
(4.88306e-07 -3.31068e-08 0.00288228)
(3.61155e-06 6.8657e-07 0.0442765)
(1.84136e-06 1.24587e-07 0.0301614)
(8.99334e-07 -6.16851e-08 0.0189015)
(4.05682e-07 -7.24561e-08 0.0100225)
(8.20007e-08 -4.02028e-08 0.00306485)
(5.69518e-06 3.61185e-06 0.0442795)
(3.87566e-06 1.12001e-06 0.0301612)
(2.52033e-06 4.19218e-08 0.0189004)
(1.39944e-06 -2.42642e-07 0.0100215)
(4.87936e-07 -1.62138e-07 0.00306446)
(1.04501e-06 -8.74996e-06 0.0442629)
(6.54124e-07 -4.41443e-06 0.0301502)
(3.24247e-07 -1.93515e-06 0.0188934)
(1.19195e-07 -6.9123e-07 0.0100176)
(2.66545e-08 -1.27229e-07 0.00306339)
(5.88075e-06 2.79703e-06 0.044246)
(3.28794e-06 2.32013e-06 0.0301425)
(1.69426e-06 1.7913e-06 0.01889)
(7.73258e-07 1.13306e-06 0.0100163)
(1.85606e-07 4.19868e-07 0.00306292)
(-3.18685e-07 -8.43413e-06 0.0429223)
(1.41101e-07 -4.22268e-06 0.0291248)
(3.0204e-07 -1.82032e-06 0.0181784)
(2.56228e-07 -6.165e-07 0.0096011)
(1.24134e-07 -1.2597e-07 0.00292315)
(-9.68662e-07 6.948e-06 0.0431421)
(-6.90607e-07 3.44562e-06 0.029313)
(-3.77048e-07 1.58426e-06 0.0183275)
(-1.56022e-07 6.63743e-07 0.0096976)
(-2.75936e-08 1.1746e-07 0.00295881)
(-1.79095e-07 -8.51661e-06 0.0431789)
(1.23912e-07 -4.24052e-06 0.0293429)
(2.16428e-07 -1.83189e-06 0.0183468)
(1.72399e-07 -6.26833e-07 0.00970781)
(7.07936e-08 -1.38156e-07 0.00296192)
(-1.46104e-06 7.58381e-06 0.042881)
(-1.41249e-06 3.83883e-06 0.029092)
(-1.09852e-06 1.70758e-06 0.0181575)
(-6.68197e-07 5.7959e-07 0.00959023)
(-2.62257e-07 1.46618e-07 0.00291978)
(-1.23593e-07 9.56869e-06 0.0441932)
(-5.93378e-07 4.96929e-06 0.0300981)
(-6.32869e-07 2.26529e-06 0.0188611)
(-4.15486e-07 8.46919e-07 0.0100012)
(-2.07288e-07 1.93752e-07 0.0030584)
(-8.78058e-06 4.44253e-06 0.0430131)
(-5.22278e-06 1.57534e-06 0.0290812)
(-2.87481e-06 1.3439e-07 0.0180962)
(-1.37995e-06 -2.91603e-07 0.00953244)
(-3.83633e-07 -1.45455e-07 0.00289425)
(4.91886e-06 -2.06708e-06 0.0430024)
(3.22336e-06 -4.46188e-07 0.0290844)
(2.10493e-06 2.6806e-07 0.0181002)
(1.18347e-06 3.95551e-07 0.00953473)
(4.3074e-07 1.83016e-07 0.00289494)
(-1.00688e-05 -1.20838e-06 0.0441083)
(-6.41895e-06 -1.56874e-06 0.0300003)
(-3.82534e-06 -1.5289e-06 0.0187752)
(-1.97257e-06 -1.06868e-06 0.00994349)
(-6.10912e-07 -3.96626e-07 0.0030369)
(5.08867e-06 1.50356e-06 0.0440712)
(3.29803e-06 1.26955e-06 0.0299867)
(2.02718e-06 9.93494e-07 0.0187693)
(1.0926e-06 6.23061e-07 0.00994081)
(3.56947e-07 2.10058e-07 0.00303606)
(5.88904e-06 -2.69339e-06 0.0442758)
(3.26182e-06 -2.34754e-06 0.0301495)
(1.63656e-06 -1.78495e-06 0.0188912)
(7.06973e-07 -1.09452e-06 0.0100164)
(1.93542e-07 -3.94538e-07 0.00306289)
(-3.84683e-06 3.10235e-06 0.0428955)
(-2.05975e-06 2.61723e-06 0.0291117)
(-1.01108e-06 1.9843e-06 0.0181718)
(-4.35261e-07 1.23842e-06 0.00959813)
(-1.13583e-07 4.33671e-07 0.00292247)
(2.34766e-06 -1.08434e-06 0.0432352)
(1.17646e-06 -8.41887e-07 0.0293703)