/*--------------------------------*- C++ -*----------------------------------*\
| =========                 |                                                 |
| \\      /  F ield         | OpenFOAM: The Open Source CFD Toolbox           |
|  \\    /   O peration     | Version:  2206                                  |
|   \\  /    A nd           | Website:  www.openfoam.com                      |
|    \\/     M anipulation  |                                                 |
\*---------------------------------------------------------------------------*/
FoamFile
{
    version     2.0;
    format      ascii;
    arch        "LSB;label=32;scalar=64";
    class       volVectorField;
    location    "80";
    object      wallShearStress;
}
// * * * * * * * * * * * * * * * * * * * * * * * * * * * * * * * * * * * * * //

dimensions      [0 2 -2 0 0 0 0];

internalField   uniform (0 0 0);

boundaryField
{
    topPatch
    {
        type            calculated;
        value           nonuniform List<vector> 0();
    }
    wall
    {
        type            calculated;
        value           nonuniform List<vector> 
7803
(
(-1.52507e-08 -4.11551e-10 -0.000109972)
(1.76544e-08 1.82562e-09 -0.000117098)
(-4.72077e-09 3.16044e-10 -0.000110125)
(-3.95542e-09 -1.74101e-09 -0.00011721)
(-1.7289e-08 2.64345e-09 -0.000117052)
(-6.29363e-09 4.97638e-09 -0.000117176)
(1.43902e-08 -2.45403e-09 -0.000110021)
(4.6148e-09 -4.22386e-11 -0.000117233)
(-4.69334e-09 5.26444e-10 -0.00011016)
(5.70506e-09 -7.70527e-10 -0.000110175)
(5.64203e-09 3.17815e-09 -0.000110166)
(-1.26443e-08 -1.57621e-09 -0.000117123)
(-2.01299e-08 2.5428e-10 -0.000110035)
(1.84867e-08 2.31047e-09 -0.000110019)
(5.43461e-09 6.92343e-10 -0.000117214)
(1.62451e-08 -2.61561e-09 -0.00011709)
(-5.6589e-10 8.23901e-09 -0.000117052)
(1.70005e-08 -1.29164e-10 -0.000110109)
(-2.10627e-08 -5.28401e-09 -0.000117165)
(-4.8167e-09 1.0448e-08 -0.000111752)
(-2.67829e-09 5.56656e-09 -0.000113245)
(9.40339e-09 -1.86525e-08 -0.000117021)
(4.79174e-09 1.16929e-09 -0.000110107)
(-3.29905e-09 -3.70319e-09 -0.000110152)
(2.65563e-09 -2.58341e-09 -0.000117174)
(-5.43498e-09 -2.67476e-09 -0.000117241)
(7.76127e-09 -2.21221e-09 -0.000110639)
(-5.53978e-09 3.22898e-09 -0.000110604)
(1.23093e-08 1.13158e-09 -0.000110543)
(-1.69156e-08 4.66953e-09 -0.000110589)
(1.21463e-09 8.51837e-09 -0.000116097)
(1.86996e-08 -9.65867e-09 -0.000116078)
(-1.04464e-09 -3.31285e-09 -0.000116051)
(-2.03675e-08 1.45669e-08 -0.000116054)
(1.25177e-08 -1.28866e-09 -0.000117136)
(3.61967e-09 7.99617e-11 -0.000117139)
(-4.89441e-09 2.99834e-09 -0.000117209)
(-2.26233e-08 -1.49857e-09 -0.000110137)
(1.09466e-08 5.73132e-09 -0.000110639)
(-5.87031e-09 1.69697e-09 -0.000110622)
(5.25448e-09 -1.24919e-09 -0.000116105)
(6.48062e-09 1.29522e-08 -0.000116068)
(-3.71945e-09 -1.22354e-10 -0.000117176)
(-4.09461e-09 -8.39481e-09 -0.000111782)
(-2.85026e-09 -1.0666e-09 -0.000113256)
(8.92536e-09 1.74732e-08 -0.000117054)
(4.72252e-09 -2.12126e-09 -0.000110144)
(-5.6009e-09 -2.86427e-10 -0.000110187)
(-2.85946e-09 4.29512e-09 -0.000110135)
(-7.97461e-09 2.01982e-08 -0.000117027)
(-3.94972e-09 -1.4122e-09 -0.000110119)
(-6.5879e-09 3.37693e-09 -0.000110586)
(1.27607e-08 1.01744e-09 -0.000110663)
(-1.55699e-08 -6.2936e-09 -0.00011609)
(1.08329e-08 2.11005e-10 -0.000117189)
(-9.64769e-09 -9.09094e-09 -0.000117067)
(1.31904e-08 -2.55437e-09 -0.000110148)
(5.47901e-09 -7.65057e-09 -0.000117064)
(-1.95536e-08 -8.64215e-10 -0.000110133)
(-3.62864e-09 1.26567e-09 -0.000117154)
(-1.92545e-08 5.33461e-09 -0.000117149)
(-1.60556e-09 6.83528e-09 -0.000117071)
(-8.28251e-09 -1.57987e-08 -0.000117054)
(-4.49655e-09 6.52938e-09 -0.000111678)
(9.87529e-10 -5.68731e-09 -0.00011303)
(-2.6138e-09 7.36506e-09 -0.000113149)
(9.87929e-09 -6.80966e-09 -0.000111549)
(7.36227e-09 -9.43561e-09 -0.000116879)
(1.57743e-08 4.1764e-09 -0.000110578)
(-1.67985e-08 -6.71593e-09 -0.000110604)
(2.43962e-08 1.40367e-08 -0.000116083)
(-1.35684e-08 -8.15854e-09 -0.000116051)
(-8.67256e-09 1.4781e-08 -0.000117053)
(5.01329e-09 -1.65585e-08 -0.000111645)
(-3.43851e-09 5.66732e-09 -0.000113223)
(2.13995e-09 -4.08464e-09 -0.000113117)
(-5.41662e-09 1.30609e-08 -0.000111732)
(-6.83589e-09 1.01032e-08 -0.000117076)
(-8.66257e-09 -4.92614e-09 -0.000110624)
(5.27673e-09 -1.26727e-10 -0.000110599)
(-1.67346e-09 5.41957e-09 -0.000116104)
(7.58921e-09 4.0177e-09 -0.00011606)
(-1.36065e-08 3.21571e-09 -0.000110543)
(8.48468e-09 9.49295e-10 -0.000110612)
(-2.22838e-08 1.17879e-08 -0.000116032)
(1.51307e-08 -7.25901e-09 -0.000116043)
(-1.20195e-08 8.97508e-09 -0.000110582)
(5.42642e-09 1.04076e-09 -0.00011058)
(-5.55842e-09 -5.26494e-10 -0.000116067)
(-1.73613e-09 7.74027e-09 -0.000116044)
(-8.58611e-10 5.95338e-09 -0.000111682)
(-8.1847e-09 -6.4754e-09 -0.000113045)
(-7.50328e-09 6.00246e-09 -0.000113152)
(-1.19919e-08 -9.85121e-09 -0.000111578)
(-6.2411e-09 -1.08691e-08 -0.000116927)
(5.49276e-09 1.68048e-08 -0.000111673)
(-2.3463e-09 -1.31953e-09 -0.000113239)
(2.6214e-09 6.34059e-09 -0.000113129)
(-4.85161e-09 -1.24213e-08 -0.000111763)
(-9.24374e-09 -1.61477e-08 -0.000117088)
(-7.71593e-09 -1.27327e-08 -0.000117112)
(1.06876e-08 1.77874e-08 -0.000117108)
(-3.06155e-09 -1.44303e-08 -0.000111675)
(4.32828e-09 6.58255e-09 -0.000113274)
(-2.14473e-09 -1.91538e-09 -0.000113144)
(6.22795e-09 1.52224e-08 -0.000111793)
(-4.0383e-09 1.47477e-08 -0.000111654)
(2.36201e-09 -4.85412e-09 -0.000113264)
(-2.06766e-09 2.00111e-09 -0.00011313)
(6.69635e-09 -1.19551e-08 -0.000111772)
(9.39633e-09 -1.43198e-08 -0.00011709)
(2.77275e-08 1.79692e-08 -0.000116116)
(-2.00154e-09 7.44665e-09 -0.000116922)
(-1.15837e-08 -7.70484e-09 -0.000111677)
(-2.0237e-09 6.54677e-09 -0.000113043)
(-2.01089e-09 -5.98187e-09 -0.000113143)
(1.49041e-09 8.15503e-09 -0.000111575)
(-1.8865e-10 8.78914e-09 -0.000116921)
(4.95473e-09 -5.28192e-09 -0.000111677)
(-6.73565e-09 7.73724e-09 -0.000113044)
(-4.57049e-09 -5.31415e-09 -0.000113147)
(-6.48223e-09 9.15222e-09 -0.000111577)
(3.5589e-09 -7.97097e-10 -0.00011014)
(3.11095e-09 3.74081e-09 -0.000117174)
(-9.0766e-09 -1.63819e-08 -0.00011714)
(-6.15755e-09 3.09838e-09 -0.000110215)
(-2.96537e-09 3.8693e-09 -0.00011727)
(-4.1075e-09 1.11095e-08 -0.000111775)
(1.36057e-09 -6.79217e-09 -0.000113107)
(-3.26839e-09 2.3768e-09 -0.000113267)
(4.25923e-09 -1.85845e-08 -0.00011164)
(-4.72327e-09 -7.88728e-09 -0.000111807)
(3.6515e-10 6.77857e-09 -0.000113117)
(-3.54636e-09 -1.18166e-09 -0.000113282)
(4.16909e-09 1.6119e-08 -0.000111669)
(6.78422e-09 1.47504e-08 -0.000117055)
(1.04429e-08 9.09387e-09 -0.000110601)
(-7.16276e-09 3.82056e-10 -0.000110677)
(1.19082e-08 1.05583e-08 -0.000116076)
(-3.28124e-09 2.91705e-09 -0.000116154)
(1.32774e-08 -1.41609e-09 -0.000117146)
(1.71023e-09 -4.64467e-10 -0.000117139)
(1.74369e-08 -4.27855e-10 -0.00011011)
(1.7333e-09 3.88058e-09 -0.000110105)
(-1.61233e-08 5.90226e-10 -0.000117106)
(-6.60559e-09 2.1846e-09 -0.000117231)
(3.1137e-09 -1.11242e-08 -0.00011692)
(-1.90638e-08 -1.16281e-09 -0.000110026)
(-7.27197e-09 3.94535e-10 -0.000110177)
(1.75062e-08 -9.4665e-09 -0.000116054)
(2.60512e-09 1.15363e-10 -0.00011605)
(-1.00751e-08 1.69531e-08 -0.000117101)
(6.72755e-09 -1.50939e-08 -0.000117024)
(8.8824e-09 -5.98359e-10 -0.000110614)
(-9.85929e-09 -8.99349e-10 -0.000110595)
(7.16835e-09 -4.62994e-09 -0.000110576)
(-1.32852e-08 6.35214e-09 -0.000110631)
(-2.04708e-09 -4.52194e-09 -0.000116111)
(-2.00363e-08 9.69337e-09 -0.000116074)
(8.35456e-09 -7.62597e-09 -0.000111583)
(6.36252e-09 5.16504e-09 -0.000113152)
(1.06451e-08 -8.25672e-09 -0.000113062)
(-3.30772e-09 5.39933e-09 -0.000111678)
(5.66013e-10 6.9234e-09 -0.000117054)
(-5.72559e-09 -6.03198e-09 -0.000109969)
(1.0848e-08 -2.36291e-09 -0.000117048)
(-3.04208e-08 -8.20154e-09 -0.000117273)
(-5.53322e-09 -1.25487e-08 -0.00011004)
(-4.62486e-09 6.40066e-09 -0.00011715)
(5.76197e-09 2.07311e-09 -0.000117153)
(-5.62534e-09 -9.25286e-10 -0.000117261)
(1.20275e-08 1.78673e-09 -0.00011706)
(-4.80385e-09 -4.99374e-09 -0.000117244)
(-7.6085e-09 -4.36122e-09 -0.000117282)
(6.36639e-09 9.92257e-10 -0.000117123)
(-6.87545e-09 -7.56245e-09 -0.000117266)
(1.09471e-08 1.73091e-09 -0.000117045)
(-9.24844e-09 -4.41662e-09 -0.000117055)
(-6.70626e-10 -1.37908e-08 -0.000117093)
(7.15929e-09 -7.64538e-09 -0.000109963)
(-2.36455e-08 1.3052e-09 -0.00011028)
(1.96053e-09 -1.02353e-08 -0.000117175)
(-6.71364e-09 8.00554e-09 -0.000110106)
(1.973e-09 -1.39602e-08 -0.000110111)
(7.09548e-09 3.75372e-09 -0.00011007)
(-1.50509e-08 2.77223e-10 -0.000117056)
(-1.70111e-08 4.00451e-09 -0.000109975)
(1.36773e-08 3.10244e-09 -0.000109973)
(5.99654e-09 4.27202e-09 -0.000117116)
(1.51578e-08 1.59041e-09 -0.000117039)
(9.69814e-09 -2.33248e-09 -0.000110589)
(-8.57109e-09 -4.37882e-10 -0.000110708)
(1.08846e-08 1.81897e-09 -0.000110515)
(-6.40472e-09 -4.34614e-09 -0.000110679)
(4.96287e-09 3.93132e-09 -0.000116047)
(2.07226e-08 -9.13116e-09 -0.000116032)
(-9.6589e-09 1.52347e-09 -0.000110719)
(7.71386e-09 -2.01606e-09 -0.000110589)
(-3.51485e-09 -8.12657e-09 -0.000110696)
(8.87815e-09 1.72755e-09 -0.000110516)
(2.09313e-08 -7.37382e-09 -0.00011163)
(-2.50559e-09 8.4441e-09 -0.000113324)
(4.76387e-09 -5.41485e-09 -0.000113109)
(5.7755e-09 6.47445e-09 -0.000111839)
(2.20206e-08 7.48514e-09 -0.000117156)
(3.76356e-08 -5.01893e-09 -0.000110215)
(2.57307e-08 -1.51985e-08 -0.000116963)
(2.59762e-09 -8.09221e-09 -0.000110034)
(-2.81886e-08 -8.53239e-09 -0.000117221)
(-1.25308e-08 -1.11792e-08 -0.000117082)
(1.25993e-08 -1.41049e-08 -0.000117136)
(9.64491e-09 3.7255e-09 -0.000110208)
(4.66451e-09 -7.24825e-09 -0.000117286)
(1.07075e-08 5.998e-10 -0.00011055)
(-1.2051e-08 -5.78792e-10 -0.000110724)
(1.17556e-08 3.1932e-09 -0.000110491)
(-6.82863e-09 -6.81892e-09 -0.000110702)
(-5.66642e-09 -1.88817e-09 -0.000117252)
(4.90935e-09 2.31507e-09 -0.00011715)
(-1.03987e-08 -2.79675e-09 -0.000117238)
(1.14836e-08 9.13228e-10 -0.000117064)
(-9.66671e-09 -3.22454e-10 -0.000110731)
(1.08249e-08 -1.73545e-09 -0.000110558)
(-3.67799e-09 -7.64288e-09 -0.000110709)
(9.18477e-09 2.83895e-09 -0.000110495)
(-1.8774e-09 -9.03773e-09 -0.000116181)
(-1.29518e-08 -1.46922e-10 -0.000116187)
(1.11496e-08 -3.06866e-09 -0.000110561)
(-7.68248e-09 -2.80903e-09 -0.000110718)
(8.34386e-09 3.89564e-09 -0.000110499)
(-3.35717e-09 -7.03455e-09 -0.000110694)
(6.22612e-09 2.3712e-09 -0.000117125)
(-5.38092e-09 -6.39272e-09 -0.000117267)
(1.1412e-08 3.09121e-09 -0.000117043)
(-6.35236e-09 -4.73386e-09 -0.000117246)
(2.58505e-08 -5.06288e-09 -0.000117243)
(6.802e-09 -1.14154e-08 -0.000117096)
(7.26136e-09 1.21404e-09 -0.000117234)
(-1.84356e-08 -9.13247e-09 -0.00011163)
(2.54257e-09 7.31591e-09 -0.000113328)
(-6.57009e-09 -4.2886e-09 -0.000113116)
(-9.59466e-10 8.73924e-09 -0.000111849)
(-3.32113e-08 -1.59248e-09 -0.000110204)
(2.28732e-09 -6.36118e-09 -0.000110024)
(5.19119e-09 -5.32095e-09 -0.00011059)
(-1.10862e-08 -1.02122e-09 -0.00011076)
(4.7557e-09 -4.95987e-09 -0.000110656)
(9.66579e-11 -1.21602e-08 -0.000116062)
(7.32944e-10 1.45071e-08 -0.000116193)
(-1.02032e-08 -9.08646e-10 -0.000117314)
(2.39349e-09 -1.25481e-08 -0.000117228)
(8.95511e-09 -5.74285e-09 -0.000110268)
(9.50749e-09 5.45186e-09 -0.000111731)
(8.32385e-09 4.3156e-09 -0.000113212)
(-8.29808e-09 2.24534e-09 -0.000110271)
(4.77932e-09 -1.25987e-08 -0.000110153)
(9.87417e-09 -1.06336e-08 -0.000111713)
(7.29113e-09 -4.8999e-09 -0.000113203)
(-1.27207e-08 7.45257e-09 -0.000117152)
(-8.47728e-09 -7.1355e-09 -0.000110231)
(9.72075e-09 1.81074e-09 -0.000110112)
(-1.2777e-08 2.60574e-09 -0.000110518)
(4.96121e-09 -8.72334e-09 -0.000110749)
(2.95193e-09 -7.77449e-09 -0.000117264)
(5.17507e-09 -9.49753e-09 -0.000110224)
(1.56422e-08 -1.58041e-08 -0.000117131)
(-5.86511e-09 -8.32927e-09 -0.000110213)
(-9.57581e-09 -1.24607e-11 -0.000117259)
(9.04726e-09 -5.44721e-11 -0.000117168)
(-6.10287e-09 -6.48513e-09 -0.00011725)
(1.4771e-08 1.01614e-09 -0.000110124)
(-1.24386e-08 -3.30703e-10 -0.000117167)
(4.16861e-09 2.97537e-09 -0.000110124)
(7.20159e-10 -5.5089e-09 -0.000117188)
(-2.3252e-08 6.16381e-11 -0.00011002)
(1.78038e-08 -3.75978e-10 -0.000110148)
(1.81895e-08 3.3973e-09 -0.00011712)
(-1.13938e-08 -7.91081e-10 -0.0001172)
(-4.87274e-09 -3.53088e-09 -0.000110165)
(3.78754e-09 2.3996e-09 -0.000110145)
(-3.27663e-09 1.47853e-09 -0.000117262)
(4.37046e-09 2.87711e-09 -0.000117209)
(-1.626e-08 -1.89953e-09 -0.000110022)
(2.4005e-08 -1.92015e-09 -0.000110155)
(2.07695e-08 4.80104e-09 -0.000117123)
(-8.12431e-09 1.47231e-09 -0.00011719)
(-4.20685e-09 -5.21323e-09 -0.000110166)
(5.69153e-09 -2.35e-09 -0.000110139)
(-3.17618e-09 3.2432e-09 -0.00011726)
(5.35547e-09 3.281e-09 -0.000117209)
(-1.64571e-08 -2.65965e-09 -0.000110029)
(1.96899e-08 6.85168e-10 -0.000110158)
(1.41436e-08 9.86405e-10 -0.000117125)
(-1.20755e-08 -1.88315e-09 -0.000117199)
(-3.22945e-09 -8.01316e-09 -0.000110172)
(4.95513e-09 1.83459e-10 -0.000110146)
(-2.07967e-09 4.71732e-09 -0.000117269)
(4.40977e-09 2.45282e-09 -0.000117218)
(-1.37605e-08 -2.70058e-09 -0.000110034)
(1.99436e-08 -5.19996e-10 -0.000110163)
(1.82401e-08 2.99088e-09 -0.000117128)
(-1.18683e-08 -5.83788e-10 -0.000117198)
(-5.57081e-09 2.19461e-09 -0.000110182)
(1.34003e-09 6.12894e-09 -0.000110152)
(-3.37582e-09 4.98922e-10 -0.000117285)
(3.963e-09 1.64254e-09 -0.000117233)
(-1.7724e-08 -2.76439e-09 -0.000110038)
(2.09995e-08 -1.04045e-10 -0.000110166)
(1.92291e-08 2.57258e-09 -0.00011713)
(-1.50222e-08 -2.74641e-09 -0.000117209)
(-4.75815e-09 -5.39102e-09 -0.000110184)
(6.12639e-09 -1.34956e-09 -0.000110157)
(-2.72847e-09 3.72525e-09 -0.000117288)
(3.18794e-09 1.26629e-09 -0.00011723)
(-1.51431e-08 -1.48009e-09 -0.000110046)
(2.12234e-08 -1.29097e-09 -0.000110175)
(1.48871e-08 1.28744e-09 -0.000117135)
(-9.92202e-09 1.09361e-09 -0.000117209)
(-3.35192e-09 -5.51893e-09 -0.000110194)
(2.78232e-09 4.98586e-09 -0.000110163)
(-4.43896e-09 6.54529e-10 -0.000117282)
(1.89405e-09 -2.92519e-09 -0.000117227)
(-1.89354e-08 -4.291e-10 -0.000110055)
(1.85925e-08 1.37563e-09 -0.000110179)
(1.88206e-08 4.18587e-09 -0.000117132)
(-1.28667e-08 -1.59866e-09 -0.000117197)
(-3.24215e-09 -5.04126e-09 -0.000110189)
(4.38377e-09 2.33971e-09 -0.000110153)
(-3.34487e-09 1.36554e-09 -0.000117283)
(6.18494e-09 5.30166e-09 -0.000117227)
(-2.10023e-08 9.63532e-10 -0.00011005)
(1.56801e-08 1.58836e-09 -0.000110177)
(1.44854e-08 2.53915e-09 -0.000117129)
(-1.05161e-08 -3.24458e-13 -0.0001172)
(-2.81959e-09 -5.18946e-09 -0.000110185)
(4.52353e-09 6.98662e-10 -0.000110148)
(-2.31812e-09 2.23924e-09 -0.00011728)
(2.59319e-09 -2.98358e-10 -0.000117226)
(-1.5691e-08 -1.78463e-09 -0.000110045)
(2.10771e-08 -1.73421e-10 -0.000110173)
(1.62524e-08 2.74021e-09 -0.000117132)
(-1.34694e-08 -2.77196e-09 -0.000117199)
(-4.20016e-09 -2.09821e-09 -0.000110174)
(5.89291e-09 9.61496e-10 -0.000110144)
(-4.57739e-09 -7.90885e-10 -0.000117272)
(5.1001e-09 4.26264e-09 -0.000117216)
(-1.73466e-08 1.5846e-11 -0.000110047)
(2.29735e-08 -2.0386e-09 -0.000110174)
(1.87246e-08 4.70834e-09 -0.000117133)
(-7.59915e-09 2.27584e-09 -0.000117194)
(-2.25139e-09 -4.22558e-09 -0.000110169)
(3.11132e-09 3.18906e-09 -0.000110138)
(-2.97673e-09 3.3694e-10 -0.000117273)
(3.48414e-09 -1.89707e-09 -0.000117224)
(-1.49752e-08 -2.26316e-09 -0.000110053)
(2.16109e-08 -1.23605e-09 -0.000110177)
(1.39951e-08 1.44474e-09 -0.000117125)
(-1.57354e-08 -3.25506e-09 -0.000117201)
(-4.89326e-09 -3.86131e-09 -0.000110166)
(2.67298e-09 6.72117e-09 -0.000110139)
(-4.39364e-09 9.6174e-10 -0.000117273)
(3.65805e-09 1.56253e-09 -0.000117223)
(-1.9642e-08 -6.00327e-10 -0.000110052)
(1.82286e-08 -4.83728e-10 -0.00011018)
(1.78621e-08 2.98842e-09 -0.000117127)
(-7.84316e-09 1.78737e-09 -0.000117198)
(-5.62963e-09 -1.23826e-10 -0.000110175)
(2.32915e-09 6.18333e-09 -0.000110149)
(-2.02143e-09 3.78522e-09 -0.000117272)
(4.58947e-09 1.31295e-09 -0.000117225)
(-2.04169e-08 2.46955e-10 -0.000110056)
(1.87207e-08 3.96037e-10 -0.000110195)
(1.47624e-08 2.16669e-09 -0.000117129)
(-1.56017e-08 -2.73336e-09 -0.00011721)
(-2.9352e-09 -3.40865e-09 -0.000110168)
(3.52044e-09 4.23003e-09 -0.000110151)
(-4.17278e-09 5.53053e-10 -0.000117263)
(3.20911e-09 -1.6016e-09 -0.000117227)
(-1.81634e-08 -7.52265e-10 -0.000110047)
(2.00252e-08 -5.78203e-10 -0.000110191)
(1.90224e-08 3.75009e-09 -0.00011712)
(-6.04294e-09 2.96692e-09 -0.000117212)
(-3.63783e-09 -3.69984e-09 -0.00011016)
(4.15113e-09 2.55307e-09 -0.000110161)
(-4.26261e-09 3.53999e-10 -0.000117263)
(3.45694e-09 -6.3155e-11 -0.000117236)
(-1.58293e-08 -2.36167e-09 -0.000110029)
(1.83678e-08 1.22679e-09 -0.000110201)
(1.93111e-08 3.67451e-09 -0.000117113)
(-1.45911e-08 -1.78826e-09 -0.000117234)
(-2.21544e-09 -7.69637e-09 -0.000110136)
(5.72358e-09 3.38773e-09 -0.000110177)
(-2.30835e-09 4.65885e-09 -0.000117234)
(4.94114e-09 -2.34032e-10 -0.000117255)
(-1.33109e-08 -3.12585e-09 -0.00011)
(1.82261e-08 3.11472e-09 -0.00011023)
(1.77764e-08 1.41963e-09 -0.000117079)
(-1.25517e-08 1.79271e-09 -0.000117257)
(-3.50318e-09 -9.90392e-09 -0.000110089)
(7.83122e-09 3.08038e-09 -0.000110211)
(-4.75397e-09 3.42716e-09 -0.000117189)
(4.96418e-09 -6.99743e-10 -0.00011729)
(9.88039e-09 4.32104e-10 -0.000117153)
(2.48944e-09 2.43823e-09 -0.000117156)
(7.25803e-09 3.23307e-09 -0.000117179)
(-2.1519e-08 5.63245e-09 -0.000117081)
(6.84284e-09 -4.33452e-09 -0.000117176)
(-4.00248e-09 1.24412e-09 -0.000117211)
(-2.17493e-08 -1.55094e-09 -0.000110144)
(9.23003e-09 5.07777e-09 -0.000110151)
(-2.11382e-08 6.82991e-10 -0.000110001)
(-1.61728e-08 1.06427e-09 -0.000110167)
(1.48272e-08 -1.55543e-09 -0.000110029)
(-8.97009e-11 4.33944e-09 -0.000117189)
(-1.35e-08 -1.02465e-09 -0.000117197)
(1.73627e-08 3.74149e-09 -0.000117109)
(-6.50019e-09 -4.24809e-09 -0.000117205)
(5.7943e-09 4.39692e-09 -0.000117231)
(4.04544e-09 -5.70804e-09 -0.000110157)
(6.3963e-09 -1.08734e-09 -0.000110139)
(-4.08432e-09 -2.20935e-09 -0.00011016)
(4.8498e-09 -2.30478e-09 -0.000110176)
(-3.81665e-09 -1.35198e-09 -0.000110194)
(-1.46333e-09 8.15835e-09 -0.00011015)
(-4.78385e-09 -8.7341e-11 -0.000110126)
(-6.66998e-09 -2.86236e-09 -0.000110167)
(4.77111e-09 -8.09736e-10 -0.000110178)
(-6.85931e-09 4.37323e-09 -0.000110147)
(2.36687e-09 6.50517e-09 -0.000110161)
(6.65071e-09 -1.77978e-09 -0.000117198)
(4.96053e-09 1.60171e-09 -0.000117218)
(-8.27854e-09 -1.01913e-08 -0.000117237)
(8.43227e-09 -2.29989e-09 -0.000117214)
(-2.77725e-08 -9.39666e-09 -0.000117135)
(1.47514e-08 -1.42271e-09 -0.000110157)
(-2.14084e-08 2.13636e-10 -0.000110139)
(1.44649e-08 -2.57252e-09 -0.000110175)
(-2.2525e-08 -1.62441e-09 -0.000110037)
(-1.42552e-08 -3.45632e-09 -0.000110161)
(1.55756e-08 1.91683e-09 -0.000110014)
(-5.7559e-09 4.33722e-09 -0.000117157)
(-1.40722e-08 2.68162e-09 -0.000117153)
(-7.00279e-09 5.37097e-09 -0.000117181)
(2.48411e-09 1.91733e-09 -0.000117213)
(-1.3318e-08 9.49583e-10 -0.000117179)
(1.68622e-08 -3.61755e-09 -0.000117084)
(-2.49426e-08 6.72092e-09 -0.000117102)
(8.23435e-09 3.80632e-10 -0.000117172)
(-3.70573e-09 -1.10813e-09 -0.000117222)
(5.00645e-09 -2.83729e-09 -0.00011718)
(1.33855e-08 -2.17564e-09 -0.000117176)
(-1.92772e-08 3.21912e-09 -0.000117091)
(6.79874e-09 -5.66055e-09 -0.00011718)
(-3.90745e-09 -2.67688e-09 -0.000117221)
(1.62156e-08 -1.7926e-09 -0.000110039)
(-1.59962e-08 8.29221e-10 -0.000110168)
(1.73167e-08 4.36911e-10 -0.000110152)
(-1.74279e-08 -2.12213e-09 -0.000110018)
(-1.46394e-08 1.54663e-09 -0.000110176)
(2.07213e-08 -7.14936e-10 -0.000110036)
(1.73595e-09 -3.3028e-09 -0.000117253)
(-6.87949e-09 -7.7131e-09 -0.000117206)
(-1.4372e-08 -2.14638e-09 -0.000117204)
(2.18677e-08 4.89984e-09 -0.000117119)
(-6.09461e-09 -4.98461e-09 -0.000117211)
(3.89501e-09 -1.47917e-09 -0.00011725)
(-5.12355e-09 2.44384e-10 -0.000110204)
(4.55961e-09 -3.16327e-10 -0.00011017)
(5.83595e-09 -3.89538e-09 -0.000110142)
(-5.78644e-09 -2.01818e-09 -0.000110167)
(4.38788e-09 -2.59856e-10 -0.000110178)
(-4.49258e-09 4.33089e-09 -0.000110197)
(2.17454e-09 -7.22269e-09 -0.000110196)
(-3.95065e-09 1.44246e-09 -0.000110169)
(2.24339e-09 7.2329e-09 -0.000110178)
(-4.72493e-09 1.79753e-09 -0.000110147)
(-5.9293e-09 -1.85696e-09 -0.000110175)
(5.02956e-09 -3.92907e-09 -0.000110194)
(-5.46256e-09 1.67341e-09 -0.000110149)
(3.53346e-09 6.43609e-09 -0.000110174)
(-1.89052e-08 -4.23191e-09 -0.000117139)
(8.04095e-09 -6.89734e-10 -0.000117212)
(4.15924e-09 1.79029e-09 -0.000117217)
(-6.09018e-09 -3.29781e-09 -0.000117247)
(1.63508e-08 2.11091e-09 -0.000117217)
(-2.45433e-08 -7.1449e-09 -0.00011714)
(-1.84163e-08 2.18225e-10 -0.000110048)
(1.59227e-08 -2.11055e-10 -0.000110172)
(2.13968e-08 -4.27932e-10 -0.000110027)
(-1.64267e-08 -3.83362e-10 -0.000110151)
(1.61097e-08 -2.10317e-09 -0.000110179)
(-2.04131e-08 3.39703e-10 -0.000110044)
(-1.47941e-08 -3.13389e-10 -0.000110156)
(1.74526e-08 1.70275e-09 -0.00011002)
(2.1928e-09 2.29166e-09 -0.000117228)
(-5.36389e-09 3.81869e-09 -0.000117181)
(1.94949e-08 -5.09873e-09 -0.000117101)
(-1.1503e-08 1.04922e-09 -0.000117174)
(-4.60193e-09 3.59279e-09 -0.000117182)
(3.86053e-09 4.24876e-10 -0.000117227)
(-1.24325e-08 5.46535e-10 -0.000117178)
(1.90906e-08 -2.83619e-09 -0.000117093)
(-1.58009e-08 2.59665e-09 -0.0001171)
(1.7633e-08 -3.91025e-09 -0.000117181)
(-2.04226e-09 -3.85081e-09 -0.000117223)
(7.22328e-09 -7.16176e-09 -0.000117173)
(1.82812e-08 -3.62463e-09 -0.000117193)
(-1.09093e-08 -8.11547e-11 -0.000117107)
(6.52167e-09 -4.27102e-09 -0.000117182)
(-1.23749e-09 -5.26927e-09 -0.00011722)
(1.89175e-08 -1.08019e-09 -0.00011004)
(-1.70556e-08 2.60978e-10 -0.000110162)
(1.74396e-08 3.0963e-11 -0.00011016)
(-1.19575e-08 -3.0788e-09 -0.00011003)
(-1.73862e-08 4.06206e-10 -0.000110177)
(1.5858e-08 -1.90529e-09 -0.000110037)
(4.2778e-09 8.3183e-10 -0.000117262)
(-2.92573e-10 2.95716e-09 -0.000117215)
(-1.83901e-08 -3.30754e-09 -0.000117205)
(1.93226e-08 4.17549e-09 -0.00011712)
(-5.99004e-09 -4.65466e-09 -0.000117218)
(5.3398e-09 2.43519e-09 -0.00011725)
(-5.67698e-09 1.83863e-09 -0.000110204)
(3.90667e-09 -6.2772e-10 -0.000110169)
(7.53791e-09 -4.72129e-09 -0.000110147)
(-3.18349e-09 -6.79655e-09 -0.000110164)
(5.6521e-09 2.05799e-09 -0.000110183)
(-3.98193e-09 3.85401e-09 -0.000110198)
(2.58657e-09 -4.96258e-09 -0.000110203)
(-2.73763e-09 4.97093e-09 -0.000110177)
(2.45848e-09 6.28251e-09 -0.000110178)
(-4.39596e-09 -3.76973e-10 -0.000110142)
(-5.04743e-09 -2.21493e-09 -0.000110182)
(5.3515e-09 -2.18287e-09 -0.000110196)
(-5.25779e-09 1.41984e-09 -0.000110145)
(4.61776e-09 3.38931e-09 -0.00011017)
(-1.39456e-08 -1.39573e-09 -0.00011714)
(1.09258e-08 5.68266e-10 -0.000117216)
(5.9089e-09 2.97762e-09 -0.000117222)
(-6.26924e-09 -3.04324e-09 -0.000117246)
(9.9097e-09 -3.37937e-11 -0.000117219)
(-2.30085e-08 -7.05864e-09 -0.000117145)
(-1.72838e-08 8.01513e-10 -0.000110048)
(1.78825e-08 7.0656e-10 -0.00011017)
(1.734e-08 8.44797e-10 -0.000110027)
(-1.71145e-08 8.81728e-11 -0.00011015)
(1.44837e-08 -1.17832e-09 -0.000110174)
(-1.80107e-08 6.75894e-10 -0.000110042)
(-1.81037e-08 -1.06473e-09 -0.000110158)
(1.7995e-08 8.49925e-10 -0.000110023)
(3.12203e-09 9.50579e-10 -0.000117229)
(-5.54357e-09 5.39369e-09 -0.000117176)
(1.92302e-08 -3.92314e-09 -0.000117098)
(-1.21219e-08 6.11804e-10 -0.000117176)
(-5.62952e-09 4.41688e-09 -0.000117177)
(3.60762e-09 -2.51905e-10 -0.000117225)
(-1.75959e-08 3.23146e-09 -0.000117181)
(1.54721e-08 -2.14908e-09 -0.000117099)
(-1.41799e-08 4.90365e-10 -0.000117114)
(1.38163e-08 -1.75667e-09 -0.000117192)
(-1.79606e-09 -4.0251e-09 -0.000117229)
(7.01345e-09 -7.47034e-09 -0.000117178)
(1.30909e-08 -1.84348e-09 -0.000117201)
(-1.65936e-08 3.99576e-09 -0.000117115)
(4.33635e-09 2.05599e-10 -0.000117189)
(-1.35944e-09 -4.44018e-09 -0.000117224)
(1.64978e-08 -1.53202e-09 -0.000110048)
(-1.85116e-08 -7.63975e-10 -0.000110172)
(1.90069e-08 3.82819e-10 -0.000110165)
(-1.68486e-08 -7.826e-10 -0.000110027)
(-1.60754e-08 1.03976e-09 -0.000110184)
(1.68225e-08 -1.15367e-09 -0.000110042)
(3.00422e-09 -2.76475e-09 -0.000117265)
(-4.72841e-09 -2.68587e-09 -0.00011722)
(-1.42693e-08 -1.97938e-09 -0.000117211)
(2.1305e-08 5.38335e-09 -0.00011712)
(-7.23819e-09 -5.54718e-09 -0.000117232)
(4.68786e-09 1.73311e-09 -0.000117267)
(-3.8631e-09 3.80572e-09 -0.000110214)
(2.89459e-09 -4.81936e-09 -0.000110183)
(4.88239e-09 2.61809e-09 -0.000110155)
(-3.78163e-09 -4.5565e-09 -0.000110171)
(5.26056e-09 -1.95773e-09 -0.000110201)
(-5.46759e-09 3.43763e-10 -0.000110208)
(3.34084e-09 -6.46046e-09 -0.000110207)
(-4.01867e-09 2.20919e-09 -0.000110181)
(4.14767e-09 5.68719e-09 -0.000110171)
(-3.73923e-09 -1.31874e-09 -0.000110146)
(-4.45967e-09 -5.14925e-10 -0.00011019)
(3.97023e-09 -3.19222e-09 -0.000110209)
(-5.17237e-09 -1.11325e-09 -0.000110161)
(5.16148e-09 2.02307e-09 -0.000110178)
(-1.8872e-08 -3.47421e-09 -0.000117144)
(1.19977e-08 8.55433e-10 -0.000117222)
(4.95409e-09 9.17825e-10 -0.000117236)
(-6.06922e-09 -2.59189e-09 -0.000117251)
(1.24157e-08 -3.27351e-10 -0.000117227)
(-2.1123e-08 -5.7362e-09 -0.00011715)
(-1.88896e-08 1.65357e-09 -0.000110044)
(1.84746e-08 -4.65432e-10 -0.000110175)
(1.6875e-08 1.32025e-09 -0.00011003)
(-1.6498e-08 -7.26824e-10 -0.000110155)
(1.1765e-08 -3.48076e-09 -0.000110179)
(-1.93915e-08 3.28624e-10 -0.000110046)
(-1.47417e-08 -2.39701e-09 -0.000110168)
(1.88635e-08 9.65567e-10 -0.000110026)
(1.58598e-09 5.19515e-09 -0.000117222)
(-7.54254e-09 7.64984e-09 -0.000117178)
(1.65079e-08 -3.14277e-09 -0.000117105)
(-9.29561e-09 -1.54775e-10 -0.00011718)
(-5.0767e-09 1.74561e-09 -0.000117189)
(3.15819e-09 1.87423e-09 -0.000117225)
(-1.40223e-08 1.83577e-09 -0.000117189)
(1.94223e-08 -4.60328e-09 -0.000117105)
(-1.46625e-08 1.34986e-09 -0.000117123)
(1.5473e-08 -2.34665e-09 -0.000117199)
(-5.31384e-09 3.27184e-09 -0.000117236)
(4.24658e-09 -1.40284e-09 -0.000117185)
(1.21915e-08 -1.44437e-09 -0.000117203)
(-1.69999e-08 3.42587e-09 -0.000117121)
(5.56698e-09 -4.03934e-09 -0.000117194)
(-4.27672e-09 -1.94673e-10 -0.000117231)
(1.44102e-08 -2.92878e-09 -0.00011005)
(-1.82844e-08 6.17121e-10 -0.000110175)
(1.58294e-08 9.75437e-10 -0.00011017)
(-1.57699e-08 -1.56906e-09 -0.000110033)
(-1.83623e-08 -6.68866e-10 -0.000110181)
(1.64861e-08 -5.04869e-10 -0.000110048)
(4.65816e-09 1.00573e-09 -0.000117277)
(-2.51885e-09 1.69538e-09 -0.000117232)
(-1.42219e-08 -2.01701e-09 -0.00011721)
(1.78143e-08 4.06822e-09 -0.000117129)
(-6.28657e-09 -5.13444e-09 -0.000117229)
(3.97798e-09 -4.49135e-11 -0.000117266)
(-4.49076e-09 -1.62964e-10 -0.000110231)
(2.04865e-09 -5.36757e-09 -0.000110195)
(5.00013e-09 -1.4103e-09 -0.000110159)
(-5.37432e-09 -1.07533e-09 -0.000110178)
(6.16323e-09 3.66527e-09 -0.000110206)
(-6.27313e-09 -2.16484e-09 -0.000110223)
(4.45415e-09 -2.43717e-09 -0.000110218)
(-2.66603e-09 6.45807e-09 -0.00011019)
(4.55081e-09 1.40311e-09 -0.000110188)
(-4.32451e-09 -1.47435e-09 -0.000110155)
(-5.43486e-09 -2.77592e-09 -0.000110191)
(5.55442e-09 1.35131e-10 -0.000110211)
(-5.5162e-09 1.21394e-09 -0.000110159)
(3.09672e-09 3.98478e-09 -0.000110184)
(-1.6327e-08 -2.72122e-09 -0.000117148)
(9.94774e-09 7.59161e-10 -0.000117218)
(4.62428e-09 2.06646e-09 -0.000117244)
(-8.51727e-09 -7.51115e-09 -0.000117269)
(1.42767e-08 1.94796e-09 -0.000117217)
(-2.22531e-08 -5.78653e-09 -0.000117143)
(-2.09668e-08 -6.51375e-10 -0.00011005)
(1.85156e-08 9.67826e-10 -0.000110171)
(1.95966e-08 6.33814e-12 -0.000110038)
(-1.61083e-08 -5.35107e-10 -0.000110162)
(1.71302e-08 -1.05148e-09 -0.000110172)
(-1.76228e-08 8.55605e-10 -0.000110039)
(-1.53401e-08 -1.83544e-09 -0.000110166)
(1.76982e-08 9.8481e-10 -0.00011003)
(4.1847e-09 -4.86154e-10 -0.000117237)
(-4.55125e-09 1.42154e-09 -0.000117186)
(1.73612e-08 -3.35489e-09 -0.000117113)
(-1.24762e-08 8.50213e-10 -0.000117185)
(-5.44993e-09 4.2413e-09 -0.000117187)
(4.04549e-09 -1.4391e-09 -0.000117233)
(-1.42238e-08 1.70002e-09 -0.00011719)
(1.84406e-08 -3.55416e-09 -0.000117105)
(-1.76821e-08 2.97924e-09 -0.000117125)
(1.37252e-08 -2.07488e-09 -0.000117196)
(-3.22838e-09 -2.89402e-09 -0.00011724)
(5.11328e-09 -3.79948e-09 -0.000117191)
(1.36504e-08 -5.90937e-10 -0.00011721)
(-1.82504e-08 3.84456e-09 -0.000117119)
(4.82539e-09 -5.59029e-10 -0.000117203)
(-2.56783e-09 -1.40675e-09 -0.000117241)
(1.47223e-08 -3.58101e-09 -0.000110049)
(-1.90422e-08 1.749e-10 -0.000110179)
(1.80277e-08 1.34894e-09 -0.000110176)
(-1.50909e-08 -1.61173e-09 -0.000110035)
(-1.75772e-08 7.51297e-10 -0.000110188)
(1.78512e-08 -5.3031e-10 -0.00011005)
(3.91826e-09 -2.33315e-09 -0.000117273)
(-7.13888e-09 -6.38519e-09 -0.00011723)
(-2.09689e-08 -5.18224e-09 -0.000117219)
(1.6446e-08 2.99341e-09 -0.000117132)
(-5.81904e-09 -3.25576e-09 -0.000117227)
(3.94741e-09 5.88907e-10 -0.00011727)
(-3.90933e-09 5.7927e-09 -0.000110233)
(4.46359e-09 -1.67026e-09 -0.000110199)
(6.35212e-09 -1.06429e-09 -0.000110168)
(-1.89341e-09 -7.53728e-09 -0.000110186)
(3.65946e-09 -2.81148e-09 -0.000110208)
(-3.39727e-09 4.29153e-09 -0.000110225)
(3.34472e-09 -7.44882e-09 -0.000110217)
(-5.91898e-09 -1.28836e-09 -0.000110189)
(5.40625e-09 3.33704e-09 -0.000110183)
(-3.84471e-09 -1.78738e-09 -0.00011015)
(-4.91411e-09 2.4316e-09 -0.000110192)
(3.99319e-09 -2.60357e-09 -0.000110212)
(-5.80557e-09 7.45779e-10 -0.000110163)
(4.82056e-09 1.84185e-09 -0.000110179)
(-1.4917e-08 -1.40429e-09 -0.000117141)
(8.43254e-09 -2.87498e-10 -0.000117216)
(4.73982e-09 1.89671e-09 -0.000117241)
(-6.12862e-09 -5.29622e-09 -0.00011727)
(1.1875e-08 -5.72643e-10 -0.000117216)
(-2.41259e-08 -6.95066e-09 -0.000117143)
(-1.77583e-08 1.51316e-09 -0.000110041)
(1.63257e-08 -5.7222e-10 -0.000110165)
(1.93054e-08 1.31584e-09 -0.000110036)
(-1.73637e-08 -5.53052e-13 -0.000110157)
(1.48603e-08 -2.3329e-09 -0.00011017)
(-1.94513e-08 8.7265e-10 -0.000110033)
(-1.654e-08 -1.58151e-09 -0.000110168)
(1.75678e-08 6.84355e-10 -0.000110028)
(2.75447e-09 3.94493e-09 -0.000117229)
(-7.04315e-09 7.27841e-09 -0.000117179)
(1.85299e-08 -3.26021e-09 -0.000117114)
(-1.03505e-08 5.66342e-10 -0.000117182)
(-5.02447e-09 2.25193e-09 -0.000117188)
(3.01014e-09 1.62612e-09 -0.000117226)
(-1.27188e-08 8.02711e-10 -0.000117191)
(1.81686e-08 -3.62113e-09 -0.000117106)
(-1.62846e-08 3.02689e-09 -0.000117132)