/*--------------------------------*- C++ -*----------------------------------*\
| =========                 |                                                 |
| \\      /  F ield         | OpenFOAM: The Open Source CFD Toolbox           |
|  \\    /   O peration     | Version:  2206                                  |
|   \\  /    A nd           | Website:  www.openfoam.com                      |
|    \\/     M anipulation  |                                                 |
\*---------------------------------------------------------------------------*/
FoamFile
{
    version     2.0;
    format      ascii;
    arch        "LSB;label=32;scalar=64";
    class       volScalarField;
    location    "20";
    object      nut;
}
// * * * * * * * * * * * * * * * * * * * * * * * * * * * * * * * * * * * * * //

dimensions      [0 2 -1 0 0 0 0];

internalField   nonuniform List<scalar> 
66940
(
1.44567e-06
1.41615e-06
1.41567e-06
1.286e-06
1.43613e-06
1.40243e-06
1.42387e-06
1.2738e-06
1.43578e-06
1.39846e-06
1.41543e-06
1.28054e-06
1.43981e-06
1.39967e-06
1.41788e-06
1.28369e-06
1.4556e-06
1.40524e-06
1.41299e-06
1.2881e-06
1.45212e-06
1.40336e-06
1.42055e-06
1.27782e-06
1.46214e-06
1.39957e-06
1.42053e-06
1.27352e-06
1.45534e-06
1.39732e-06
1.42202e-06
1.26878e-06
1.44393e-06
1.39959e-06
1.41932e-06
1.28527e-06
1.45188e-06
1.39345e-06
1.40971e-06
1.27885e-06
1.44627e-06
1.40927e-06
1.41248e-06
1.30016e-06
1.24596e-06
1.33612e-06
1.33383e-06
1.1288e-06
1.29158e-06
1.41177e-06
1.41481e-06
1.2991e-06
1.41039e-06
1.41569e-06
1.41374e-06
1.40532e-06
1.30642e-06
1.4181e-06
1.41577e-06
1.30029e-06
1.30739e-06
1.28786e-06
1.41204e-06
1.41807e-06
1.40833e-06
1.40783e-06
1.31807e-06
1.2931e-06
1.40761e-06
1.4156e-06
1.40067e-06
1.4028e-06
1.40982e-06
1.41163e-06
1.39264e-06
1.3146e-06
1.30161e-06
1.4262e-06
1.41823e-06
1.41516e-06
1.29179e-06
1.30091e-06
1.2875e-06
1.41564e-06
1.42411e-06
1.41143e-06
1.41563e-06
1.30475e-06
1.2953e-06
1.4073e-06
1.40869e-06
1.39548e-06
1.40874e-06
1.40131e-06
1.40655e-06
1.38116e-06
1.31358e-06
1.2948e-06
1.41033e-06
1.41758e-06
1.4081e-06
1.29366e-06
1.30132e-06
1.28129e-06
1.41605e-06
1.41619e-06
1.41124e-06
1.4147e-06
1.30423e-06
1.29689e-06
1.40189e-06
1.4118e-06
1.39105e-06
1.40527e-06
1.38782e-06
1.40749e-06
1.38569e-06
1.2998e-06
1.2996e-06
1.41796e-06
1.41438e-06
1.42344e-06
1.28914e-06
1.29711e-06
1.28413e-06
1.4238e-06
1.42147e-06
1.40875e-06
1.40881e-06
1.29809e-06
1.28977e-06
1.39761e-06
1.4165e-06
1.39782e-06
1.40273e-06
1.39654e-06
1.40952e-06
1.39089e-06
1.30557e-06
1.28831e-06
1.43255e-06
1.41721e-06
1.41275e-06
1.297e-06
1.30102e-06
1.28989e-06
1.41456e-06
1.4174e-06
1.4089e-06
1.40975e-06
1.30526e-06
1.29081e-06
1.40399e-06
1.40737e-06
1.40169e-06
1.40242e-06
1.39656e-06
1.41107e-06
1.39278e-06
1.29458e-06
1.29508e-06
1.419e-06
1.41405e-06
1.41128e-06
1.28936e-06
1.29352e-06
1.28482e-06
1.42163e-06
1.41987e-06
1.41031e-06
1.41551e-06
1.29649e-06
1.29638e-06
1.41037e-06
1.41355e-06
1.40313e-06
1.41266e-06
1.39851e-06
1.40332e-06
1.39436e-06
1.30223e-06
1.2965e-06
1.41429e-06
1.41708e-06
1.41574e-06
1.28935e-06
1.29145e-06
1.28115e-06
1.42671e-06
1.42389e-06
1.40758e-06
1.41001e-06
1.29601e-06
1.28829e-06
1.39751e-06
1.41901e-06
1.39586e-06
1.40509e-06
1.40769e-06
1.40059e-06
1.3946e-06
1.30588e-06
1.30086e-06
1.41143e-06
1.41721e-06
1.40538e-06
1.28013e-06
1.28726e-06
1.27934e-06
1.41686e-06
1.42028e-06
1.41448e-06
1.41756e-06
1.30599e-06
1.29016e-06
1.40547e-06
1.41357e-06
1.38938e-06
1.40319e-06
1.39864e-06
1.41407e-06
1.39e-06
1.30762e-06
1.29977e-06
1.4159e-06
1.41719e-06
1.40973e-06
1.27928e-06
1.29455e-06
1.27951e-06
1.4109e-06
1.43034e-06
1.40468e-06
1.42056e-06
1.2975e-06
1.28898e-06
1.403e-06
1.41442e-06
1.3979e-06
1.40781e-06
1.39934e-06
1.40165e-06
1.39679e-06
1.31501e-06
1.29839e-06
1.41596e-06
1.41053e-06
1.41244e-06
1.28371e-06
1.30504e-06
1.28043e-06
1.41779e-06
1.41619e-06
1.404e-06
1.41931e-06
1.30057e-06
1.30118e-06
1.40664e-06
1.41143e-06
1.40255e-06
1.42001e-06
1.40085e-06
1.40103e-06
1.40376e-06
1.30652e-06
1.296e-06
1.42498e-06
1.40757e-06
1.40684e-06
1.3006e-06
1.28809e-06
1.2291e-06
1.41182e-06
1.42931e-06
1.35516e-06
1.35708e-06
1.31319e-06
1.22456e-06
1.4118e-06
1.41915e-06
1.36073e-06
1.36687e-06
1.40054e-06
1.37643e-06
1.3603e-06
1.30247e-06
1.24798e-06
1.4146e-06
1.35843e-06
1.36209e-06
1.23486e-06
1.1259e-06
1.33466e-06
1.34026e-06
1.11971e-06
1.33522e-06
1.34883e-06
1.26889e-06
1.2354e-06
1.24675e-06
1.34295e-06
1.16356e-06
1.34082e-06
1.6476e-08
1.43427e-06
1.44106e-06
1.44786e-06
1.45975e-06
7.27252e-07
1.41529e-06
2.41674e-07
1.49855e-06
1.30022e-06
8.22046e-08
8.79605e-08
2.20606e-07
3.72516e-08
2.20315e-07
3.7327e-08
1.62009e-08
1.61023e-08
1.94878e-07
3.55692e-08
1.95953e-07
3.51593e-08
1.43842e-06
1.43495e-06
1.43851e-06
1.42772e-06
1.44295e-06
1.44795e-06
1.44973e-06
7.12345e-07
2.37629e-07
1.48803e-06
1.41769e-06
7.18068e-07
2.35132e-07
1.48999e-06
1.61777e-08
1.62187e-08
7.45486e-07
1.50245e-06
2.53871e-07
1.42016e-06
7.48328e-07
1.49624e-06
2.52217e-07
8.12344e-08
8.84982e-08
1.28154e-06
8.20242e-08
8.81837e-08
2.13212e-07
3.66953e-08
2.15507e-07
3.66571e-08
1.62032e-08
1.63092e-08
1.94351e-07
3.51827e-08
1.91023e-07
3.56952e-08
1.44301e-06
1.44443e-06
1.4358e-06
1.43259e-06
1.44144e-06
1.44612e-06
1.44832e-06
7.04075e-07
2.35933e-07
1.48591e-06
1.40631e-06
7.12892e-07
2.36239e-07
1.48472e-06
1.63012e-08
1.63684e-08
7.48866e-07
1.50523e-06
2.50457e-07
1.42175e-06
7.38995e-07
1.49673e-06
2.47872e-07
8.08206e-08
8.59631e-08
1.28297e-06
8.29521e-08
8.73615e-08
2.1022e-07
3.6137e-08
2.13062e-07
3.63823e-08
1.62647e-08
1.62025e-08
1.89621e-07
3.56766e-08
1.90483e-07
3.532e-08
1.44684e-06
1.43852e-06
1.43961e-06
1.436e-06
1.44507e-06
1.45473e-06
1.4546e-06
7.0466e-07
2.34501e-07
1.49731e-06
1.40478e-06
7.01598e-07
2.34923e-07
1.49096e-06
1.6516e-08
1.64935e-08
7.43629e-07
1.50152e-06
2.45835e-07
1.42225e-06
7.46187e-07
1.50509e-06
2.48338e-07
8.23045e-08
8.63494e-08
1.29149e-06
8.3012e-08
8.70244e-08
2.13623e-07
3.62509e-08
2.10338e-07
3.61404e-08
1.60024e-08
1.60942e-08
1.87902e-07
3.53944e-08
1.88428e-07
3.4718e-08
1.43426e-06
1.4436e-06
1.44956e-06
1.4413e-06
1.4535e-06
1.46041e-06
1.46352e-06
6.96168e-07
2.34177e-07
1.48659e-06
1.40335e-06
7.06314e-07
2.35269e-07
1.48441e-06
1.64043e-08
1.6473e-08
7.37005e-07
1.51143e-06
2.46265e-07
1.41709e-06
7.33963e-07
1.50397e-06
2.41575e-07
8.21101e-08
8.48653e-08
1.27693e-06
8.2651e-08
8.49024e-08
2.14363e-07
3.5884e-08
2.13788e-07
3.5753e-08
1.61081e-08
1.62429e-08
1.89818e-07
3.46959e-08
1.86058e-07
3.46151e-08
1.43317e-06
1.4535e-06
1.44434e-06
1.44373e-06
1.44728e-06
1.46217e-06
1.45707e-06
6.98439e-07
2.34617e-07
1.48863e-06
1.41845e-06
6.99882e-07
2.36439e-07
1.49597e-06
1.64806e-08
1.64449e-08
7.32493e-07
1.51114e-06
2.4278e-07
1.42144e-06
7.32236e-07
1.50426e-06
2.42801e-07
8.42702e-08
8.37808e-08
1.28267e-06
8.527e-08
8.49723e-08
2.12894e-07
3.59523e-08
2.12251e-07
3.65274e-08
1.62687e-08
1.61999e-08
1.88752e-07
3.47082e-08
1.90861e-07
3.45879e-08
1.45075e-06
1.45317e-06
1.45383e-06
1.44553e-06
1.45142e-06
1.4715e-06
1.45296e-06
7.04765e-07
2.36037e-07
1.49203e-06
1.4055e-06
6.99168e-07
2.36116e-07
1.49454e-06
1.63745e-08
1.64689e-08
7.30772e-07
1.51055e-06
2.38734e-07
1.42184e-06
7.39416e-07
1.50701e-06
2.41343e-07
8.15273e-08
8.32277e-08
1.27157e-06
8.17045e-08
8.38418e-08
2.15194e-07
3.64591e-08
2.18706e-07
3.67067e-08
1.62041e-08
1.61777e-08
1.88679e-07
3.45105e-08
1.89648e-07
3.47466e-08
1.44404e-06
1.44757e-06
1.45207e-06
1.44089e-06
1.45439e-06
1.46627e-06
1.45931e-06
6.96478e-07
2.34444e-07
1.49371e-06
1.41176e-06
6.9295e-07
2.35484e-07
1.49259e-06
1.62211e-08
1.62916e-08
7.44992e-07
1.50725e-06
2.4203e-07
1.4172e-06
7.34864e-07
1.51245e-06
2.45126e-07
8.10913e-08
8.50028e-08
1.28019e-06
8.20463e-08
8.5308e-08
2.17927e-07
3.59769e-08
2.15432e-07
3.62026e-08
1.63658e-08
1.6407e-08
1.96481e-07
3.44021e-08
1.90758e-07
3.46778e-08
1.44976e-06
1.46599e-06
1.45285e-06
1.44291e-06
1.45979e-06
1.46078e-06
1.45059e-06
6.94294e-07
2.33683e-07
1.49385e-06
1.41027e-06
7.0148e-07
2.33473e-07
1.49109e-06
1.6266e-08
1.6347e-08
7.35518e-07
1.50602e-06
2.45873e-07
1.41762e-06
7.36239e-07
1.50386e-06
2.49372e-07
8.14597e-08
8.39411e-08
1.27727e-06
8.30035e-08
8.47842e-08
2.1607e-07
3.6134e-08
2.131e-07
3.58892e-08
1.65423e-08
1.64473e-08
2.06016e-07
3.45378e-08
2.04098e-07
3.48768e-08
1.45008e-06
1.45376e-06
1.44375e-06
1.445e-06
1.45607e-06
1.47222e-06
1.45339e-06
6.94684e-07
2.34695e-07
1.49114e-06
1.41363e-06
6.85266e-07
2.34265e-07
1.48993e-06
1.62385e-08
1.64837e-08
7.34158e-07
1.5044e-06
2.43449e-07
1.42441e-06
7.24576e-07
1.50911e-06
2.39719e-07
8.27386e-08
8.54055e-08
1.28033e-06
8.35287e-08
8.61494e-08
2.17806e-07
3.56246e-08
2.16389e-07
3.63333e-08
1.64647e-08
1.6341e-08
2.09221e-07
3.46361e-08
2.0461e-07
3.46296e-08
1.43963e-06
1.45484e-06
1.44598e-06
1.46435e-06
1.45884e-06
1.46177e-06
1.45027e-06
6.92405e-07
2.35649e-07
1.49384e-06
1.40435e-06
6.86003e-07
2.38281e-07
1.48393e-06
1.63335e-08
1.64699e-08
7.34847e-07
1.50646e-06
2.40172e-07
1.41576e-06
7.27493e-07
1.49972e-06
2.38445e-07
8.22593e-08
8.54657e-08
1.29404e-06
8.19141e-08
8.64047e-08
1.9836e-07
3.67012e-08
2.02656e-07
3.63488e-08
1.6413e-08
1.64544e-08
1.94952e-07
3.46738e-08
2.02923e-07
3.52578e-08
1.45171e-06
1.43625e-06
1.43684e-06
1.46836e-06
1.47964e-06
1.46094e-06
1.476e-06
6.70488e-07
2.37449e-07
1.48488e-06
1.40054e-06
6.94329e-07
2.29028e-07
1.47946e-06
1.67068e-08
1.68926e-08
6.58328e-07
1.49413e-06
2.32749e-07
1.40428e-06
7.27991e-07
1.4763e-06
2.29584e-07
8.35751e-08
8.80016e-08
1.28267e-06
7.95679e-08
8.46958e-08
1.21345e-07
1.94589e-09
9.42067e-08
1.72517e-08
3.59978e-09
1.00591e-08
1.20667e-07
1.89325e-09
8.91586e-08
1.75595e-08
7.01363e-07
8.95485e-07
8.86413e-07
6.1895e-07
8.15561e-07
6.01326e-07
5.96597e-07
4.25541e-07
4.51654e-08
1.42103e-06
8.02935e-07
4.68894e-07
5.02347e-08
6.91379e-07
3.59172e-09
1.00534e-08
4.33403e-07
1.42364e-06
4.4585e-08
7.90416e-07
4.67011e-07
6.99176e-07
5.09434e-08
2.73961e-08
2.78e-08
8.98674e-07
2.28633e-08
2.31442e-08
1.66832e-08
1.65973e-08
1.61012e-08
1.609e-08
1.29345e-06
8.96986e-08
8.3701e-08
8.72122e-08
8.57904e-08
3.71715e-08
1.41623e-06
2.47335e-07
2.17416e-07
3.84485e-08
3.79368e-08
2.28132e-07
2.12556e-07
3.57237e-08
3.64595e-08
2.22118e-07
7.68112e-07
1.41596e-06
2.55142e-07
1.49998e-06
2.52805e-07
1.49024e-06
7.67322e-07
7.64964e-07
1.4256e-06
2.43612e-07
1.4952e-06
2.45428e-07
1.49878e-06
7.72161e-07
1.30442e-06
8.58313e-08
8.86969e-08
1.64421e-08
1.63354e-08
1.66954e-08
1.31354e-06
8.6024e-08
8.66082e-08
8.72609e-08
9.26629e-08
1.64463e-08
1.66188e-08
1.96028e-07
3.605e-08
3.56438e-08
1.97194e-07
6.98218e-07
1.4048e-06
2.35728e-07
1.48614e-06
2.41271e-07
1.48553e-06
7.08987e-07
1.96774e-07
3.68816e-08
3.74848e-08
1.96104e-07
7.07579e-07
1.43096e-06
1.50067e-06
2.39931e-07
1.48991e-06
2.39115e-07
7.08375e-07
2.07322e-07
3.58106e-08
7.28786e-07
1.40338e-06
1.4944e-06
2.33262e-07
2.03951e-07
3.49591e-08
7.47296e-07
1.41617e-06
2.47793e-07
1.48851e-06
2.53409e-07
1.48786e-06
7.27345e-07
2.11922e-07
3.64895e-08
3.72734e-08
2.07671e-07
7.42089e-07
1.40558e-06
1.48945e-06
2.32009e-07
1.48596e-06
2.4691e-07
7.1581e-07
2.11105e-07
3.51126e-08
3.58675e-08
2.06372e-07
1.64651e-08
1.63338e-08
1.30398e-06
8.52074e-08
9.05558e-08
8.38327e-08
8.93672e-08
1.69976e-08
1.71727e-08
7.32081e-07
1.42706e-06
1.4898e-06
2.60122e-07
1.48505e-06
2.51342e-07
7.60747e-07
7.28961e-07
1.42785e-06
1.49907e-06
2.50598e-07
1.49319e-06
2.47222e-07
7.49359e-07
2.03102e-07
3.80411e-08
3.7553e-08
2.16618e-07
2.07747e-07
3.63829e-08
3.732e-08
2.12148e-07
1.57541e-08
1.65444e-08
1.30345e-06
8.31076e-08
9.08788e-08
8.57078e-08
9.05147e-08
1.58112e-08
1.61214e-08
1.65067e-08
1.66543e-08
1.69035e-08
1.67478e-08
1.62591e-08
1.61668e-08
9.51133e-08
8.74718e-08
1.29115e-06
8.99363e-08
8.49606e-08
1.66824e-08
1.69532e-08
1.59999e-08
1.63516e-08
1.29622e-06
8.84509e-08
8.45909e-08
9.35959e-08
8.83849e-08
2.19524e-07
3.64926e-08
2.26271e-07
3.57586e-08
7.5778e-07
2.65742e-07
1.49571e-06
1.40851e-06
7.93589e-07
2.49677e-07
1.49675e-06
7.66303e-07
2.55741e-07
1.48762e-06
1.41304e-06
7.68208e-07
2.44021e-07
1.49171e-06
2.28543e-07
3.76528e-08
3.75954e-08
2.17571e-07
2.24376e-07
3.59787e-08
3.74195e-08
2.14549e-07
7.83382e-07
1.4126e-06
2.48253e-07
1.49853e-06
2.61829e-07
1.5036e-06
7.54505e-07
7.77252e-07
1.41097e-06
2.41358e-07
1.49551e-06
2.48999e-07
1.4985e-06
7.44059e-07
8.77062e-08
8.80331e-08
1.30492e-06
8.66356e-08
8.66676e-08
1.66883e-08
1.65197e-08
1.6318e-08
1.63481e-08
1.30505e-06
8.7624e-08
8.83244e-08
9.06317e-08
9.34285e-08
1.6694e-08
1.6829e-08
6.9306e-07
2.46138e-07
1.48318e-06
1.411e-06
7.11328e-07
2.3504e-07
1.48326e-06
1.93887e-07
3.81865e-08
2.02496e-07
3.62636e-08
6.99146e-07
1.4911e-06
2.51554e-07
1.40377e-06
7.2045e-07
1.49938e-06
2.43249e-07
1.95244e-07
3.53357e-08
3.55774e-08
1.98812e-07
6.97319e-07
1.40718e-06
2.40215e-07
1.48173e-06
2.41866e-07
1.48154e-06
6.90573e-07
2.02193e-07
3.59772e-08
3.64355e-08
1.90994e-07
7.11716e-07
1.40279e-06
1.48901e-06
2.36857e-07
1.4887e-06
2.46331e-07
6.90222e-07
2.09741e-07
3.70564e-08
2.09134e-07
3.57799e-08
7.08864e-07
1.4836e-06
2.37579e-07
1.39989e-06
7.37546e-07
1.48123e-06
2.29716e-07
2.02528e-07
3.54949e-08
2.12462e-07
3.49923e-08
7.3138e-07
1.41617e-06
2.42955e-07
1.4883e-06
2.41027e-07
1.49606e-06
7.06861e-07
2.18486e-07
3.60082e-08
3.70068e-08
2.01764e-07
7.17299e-07
1.39464e-06
1.48808e-06
2.2917e-07
1.4823e-06
2.39474e-07
7.04941e-07
2.10694e-07
3.46533e-08
3.61669e-08
2.0119e-07
8.7801e-08
9.22678e-08
1.29926e-06
8.48472e-08
9.05136e-08
1.72119e-08
1.68674e-08
1.65584e-08
1.63956e-08
1.30834e-06
8.71255e-08
9.02485e-08
8.76466e-08
9.37634e-08
1.70243e-08
1.71682e-08
7.47507e-07
1.49566e-06
2.65134e-07
1.41121e-06
7.79123e-07
1.49984e-06
2.51887e-07
2.16746e-07
3.96276e-08
2.24866e-07
3.7474e-08
2.13792e-07
3.69355e-08
2.17331e-07
3.65882e-08
7.62734e-07
1.42119e-06
1.49806e-06
2.60397e-07
1.4964e-06
2.68124e-07
7.43766e-07
7.6294e-07
1.41447e-06
1.5041e-06
2.495e-07
1.49415e-06
2.52829e-07
7.46527e-07
2.23817e-07
3.69391e-08
3.76866e-08
2.16159e-07
2.21115e-07
3.6571e-08
3.69703e-08
2.16835e-07
1.58485e-08
1.59484e-08
1.70364e-08
1.66064e-08
1.29377e-06
8.26332e-08
8.91863e-08
8.58525e-08
8.94824e-08
1.59204e-08
1.61744e-08
1.65755e-08
1.65629e-08
1.69767e-08
1.6749e-08
1.64358e-08
1.61711e-08
8.96819e-08
8.90457e-08
1.28899e-06
8.83568e-08
8.44299e-08
1.64253e-08
1.66287e-08
1.61454e-08
1.64019e-08
1.28743e-06
8.74238e-08
8.50381e-08
8.95428e-08
8.60259e-08
2.1333e-07
3.7902e-08
2.24982e-07
3.62923e-08
7.51796e-07
2.5443e-07
1.49414e-06
1.40767e-06
7.80656e-07
2.49495e-07
1.49621e-06
7.4372e-07
2.54037e-07
1.49273e-06
1.41412e-06
7.60437e-07
2.413e-07
1.49149e-06
2.16252e-07
3.74947e-08
3.79545e-08
2.13353e-07
2.19201e-07
3.62058e-08
3.77144e-08
2.16426e-07
7.52812e-07
1.40969e-06
2.46486e-07
1.49359e-06
2.58728e-07
1.49233e-06
7.484e-07
7.60692e-07
1.42468e-06
2.42994e-07
1.49768e-06
2.55345e-07
1.49079e-06
7.42912e-07
9.03449e-08
9.53259e-08
1.29432e-06
8.6374e-08
9.03008e-08
1.71443e-08
1.66912e-08
1.6388e-08
1.65701e-08
1.31139e-06
8.66551e-08
8.90017e-08
9.01876e-08
9.45915e-08
1.6624e-08
1.71475e-08
6.95181e-07
2.50734e-07
1.48038e-06
1.39701e-06
6.97158e-07
2.42131e-07
1.48429e-06
1.90935e-07
3.80144e-08
2.04818e-07
3.6513e-08
6.90873e-07
1.48558e-06
2.42732e-07
1.4146e-06
6.90514e-07
1.4877e-06
2.38743e-07
1.97127e-07
3.57229e-08
3.69713e-08
1.96568e-07
6.97745e-07
1.39674e-06
2.41022e-07
1.49184e-06
2.45142e-07
1.49054e-06
6.8665e-07
1.93927e-07
3.65113e-08
3.79906e-08
1.91125e-07
7.05871e-07
1.40424e-06
1.48758e-06
2.4184e-07
1.48621e-06
2.51936e-07
6.7734e-07
2.00806e-07
3.69519e-08
2.12689e-07
3.55175e-08
7.0406e-07
1.47832e-06
2.40473e-07
1.3835e-06
7.19488e-07
1.48084e-06
2.29714e-07
2.01099e-07
3.62174e-08
2.06845e-07
3.44962e-08
7.29377e-07
1.40469e-06
2.37226e-07
1.48765e-06
2.46789e-07
1.48342e-06
7.04817e-07
2.0621e-07
3.58624e-08
3.65774e-08
1.99525e-07
7.22115e-07
1.38323e-06
1.48253e-06
2.39293e-07
1.48846e-06
2.36593e-07
6.97083e-07
2.0315e-07
3.41564e-08
3.46754e-08
1.99715e-07
8.79244e-08
9.4641e-08
1.29839e-06
8.59378e-08
8.86427e-08
1.69375e-08
1.65738e-08
1.67447e-08
1.65664e-08
1.31298e-06
8.50195e-08
8.97325e-08
8.82885e-08
9.21053e-08
1.6668e-08
1.6909e-08
7.46079e-07
1.49553e-06
2.60929e-07
1.41057e-06
7.82392e-07
1.49637e-06
2.47753e-07
2.21651e-07
3.78405e-08
2.22529e-07
3.6955e-08
2.17196e-07
3.72148e-08
2.20842e-07
3.67314e-08
7.70063e-07
1.41769e-06
1.49823e-06
2.48534e-07
1.4983e-06
2.61694e-07
7.42938e-07
7.71513e-07
1.41687e-06
1.5096e-06
2.431e-07
1.49731e-06
2.59407e-07
7.3823e-07
2.28643e-07
3.69616e-08
3.81196e-08
2.15124e-07
2.18028e-07
3.63283e-08
3.68418e-08
2.11998e-07
1.57876e-08
1.57062e-08
1.63358e-08
1.63271e-08
1.29899e-06
8.35995e-08
8.58842e-08
8.55506e-08
9.20186e-08
1.60406e-08
1.60576e-08
1.65194e-08
1.65907e-08
1.6902e-08
1.6682e-08
1.63991e-08
1.61612e-08
9.08459e-08
8.69412e-08
1.2884e-06
8.84685e-08
8.46564e-08
1.67494e-08
1.70756e-08
1.60268e-08
1.61449e-08
1.30152e-06
9.0279e-08
8.44136e-08
9.22489e-08
8.62212e-08
2.15233e-07
3.70534e-08
2.21425e-07
3.63048e-08
7.34825e-07
2.55159e-07
1.49193e-06
1.40708e-06
7.48686e-07
2.44392e-07
1.49309e-06
7.39247e-07
2.56971e-07
1.50431e-06
1.42384e-06
7.44959e-07
2.44206e-07
1.49619e-06
2.13991e-07
3.72029e-08
3.78496e-08
2.12809e-07
2.18515e-07
3.61468e-08
3.69018e-08
2.15416e-07
7.45197e-07
1.41302e-06
2.45758e-07
1.49449e-06
2.56864e-07
1.49999e-06
7.39561e-07
7.4841e-07
1.41846e-06
2.48919e-07
1.49853e-06
2.48781e-07
1.49721e-06
7.45434e-07
8.91554e-08
9.15381e-08
1.30205e-06
8.55194e-08
8.97816e-08
1.71199e-08
1.66625e-08
1.62494e-08
1.64835e-08
1.30029e-06
8.5281e-08
8.66683e-08
8.70536e-08
9.13525e-08
1.64319e-08
1.67723e-08
6.83011e-07
2.43511e-07
1.49508e-06
1.40458e-06
6.9922e-07
2.35311e-07
1.48647e-06
1.89383e-07
3.73826e-08
1.99354e-07
3.65728e-08
6.84133e-07
1.49013e-06
2.50911e-07
1.42158e-06
6.82779e-07
1.48323e-06
2.52406e-07
1.92633e-07
3.53173e-08
3.58388e-08
1.92385e-07
6.97968e-07
1.40152e-06
2.39303e-07
1.48648e-06
2.4038e-07
1.48612e-06
6.90068e-07
1.9422e-07
3.64383e-08
3.69975e-08
1.88166e-07
7.04404e-07
1.4063e-06
1.48703e-06
2.45645e-07
1.49107e-06
2.4746e-07
6.72701e-07
1.98206e-07
3.5364e-08
2.02276e-07
3.51009e-08
6.97057e-07
1.48689e-06
2.32989e-07
1.38655e-06
7.13247e-07
1.48344e-06
2.29717e-07
1.98259e-07
3.55754e-08
2.05644e-07
3.44857e-08
7.1898e-07
1.41545e-06
2.35437e-07
1.4874e-06
2.44759e-07
1.49056e-06
7.12828e-07
2.0107e-07
3.54586e-08
3.59499e-08
1.97815e-07
7.15911e-07
1.38827e-06
1.4826e-06
2.33597e-07
1.48849e-06
2.47777e-07
6.99967e-07
2.05179e-07
3.46031e-08
3.49729e-08
2.00248e-07
8.75717e-08
9.31999e-08
1.29769e-06
8.69848e-08
8.78868e-08
1.68728e-08
1.64513e-08
1.64782e-08
1.67291e-08
1.30253e-06
8.75714e-08
8.60939e-08
8.98531e-08
9.15066e-08
1.63062e-08
1.67315e-08
7.39238e-07
1.50381e-06
2.56349e-07
1.43269e-06
7.51566e-07
1.50159e-06
2.45949e-07
2.12863e-07
3.78752e-08
2.2668e-07
3.6725e-08
2.1138e-07
3.74805e-08
2.15881e-07
3.66232e-08
7.6591e-07
1.41425e-06
1.5083e-06
2.54335e-07
1.50871e-06
2.54483e-07
7.3391e-07
7.67645e-07
1.42237e-06
1.50576e-06
2.40881e-07
1.5111e-06
2.48625e-07
7.42187e-07
2.20935e-07
3.62481e-08
3.73166e-08
2.17524e-07
2.18563e-07
3.59013e-08
3.71752e-08
2.12168e-07
1.57024e-08
1.58116e-08
1.64168e-08
1.60929e-08
1.30262e-06
8.40143e-08
8.74762e-08
8.36572e-08
8.96155e-08
1.58014e-08
1.62701e-08
1.60193e-08
1.61571e-08
1.68579e-08
1.66383e-08
1.65563e-08
1.62472e-08
9.33141e-08
8.82868e-08
1.28171e-06
9.12598e-08
8.59177e-08
1.64111e-08
1.67768e-08
1.60828e-08
1.62646e-08
1.30721e-06
8.79119e-08
8.43964e-08
9.32279e-08
8.69426e-08
2.13402e-07
3.67739e-08
2.22828e-07
3.61696e-08
7.56371e-07
2.53011e-07
1.4946e-06
1.40663e-06
7.58136e-07
2.50178e-07
1.49489e-06
7.4087e-07
2.5597e-07
1.49908e-06
1.41545e-06
7.52089e-07
2.45492e-07
1.49013e-06
2.25552e-07
3.65876e-08
3.76317e-08
2.18342e-07
2.19707e-07
3.6145e-08
3.70235e-08
2.14418e-07
7.67243e-07
1.41382e-06
2.4621e-07
1.49529e-06
2.52788e-07
1.49343e-06
7.48037e-07
7.66525e-07
1.42371e-06
2.4362e-07
1.50119e-06
2.56521e-07
1.49272e-06
7.4328e-07
8.58238e-08
9.11792e-08
1.29399e-06
8.50275e-08
8.62669e-08
1.67385e-08
1.62974e-08
1.63402e-08
1.63715e-08
1.29265e-06
8.5366e-08
8.5973e-08
9.01876e-08
8.84519e-08
1.6344e-08
1.65206e-08
6.80127e-07
2.47433e-07
1.48897e-06
1.39544e-06
6.87406e-07
2.31635e-07
1.49405e-06
1.8616e-07
3.73909e-08
1.90427e-07
3.65261e-08
6.70802e-07
1.4889e-06
2.47865e-07
1.40598e-06
6.81276e-07
1.49058e-06
2.44512e-07
1.92776e-07
3.5418e-08
3.6198e-08
1.86465e-07
6.7931e-07
1.40452e-06
2.34121e-07
1.48797e-06
2.43327e-07
1.49633e-06
6.71272e-07
1.88182e-07
3.66092e-08
3.75959e-08
1.88002e-07
6.90222e-07
1.40678e-06
1.48323e-06
2.38373e-07
1.48263e-06
2.40431e-07
6.68128e-07
1.98652e-07
3.65215e-08
2.03404e-07
3.53295e-08
7.06443e-07
1.48669e-06
2.35317e-07
1.4009e-06
7.19435e-07
1.48094e-06
2.31974e-07
1.97267e-07
3.52072e-08
2.07168e-07
3.48057e-08
7.06654e-07
1.40872e-06
2.36795e-07
1.48842e-06
2.3857e-07
1.49262e-06
7.0067e-07
2.06017e-07
3.55073e-08
3.69554e-08
2.03271e-07
7.16474e-07
1.3924e-06
1.49159e-06
2.31661e-07
1.4839e-06
2.34686e-07
7.069e-07
2.02377e-07
3.4652e-08
3.50103e-08
2.00587e-07
8.87642e-08
9.04574e-08
1.28858e-06
8.738e-08
8.60953e-08
1.64975e-08
1.63688e-08
1.65441e-08
1.70071e-08
1.29887e-06
8.6068e-08
8.61568e-08
8.91631e-08
8.97839e-08
1.64824e-08
1.65396e-08
7.41859e-07
1.50122e-06
2.52227e-07
1.42367e-06
7.58937e-07
1.50098e-06
2.395e-07
2.1251e-07
3.71377e-08
2.21264e-07
3.72106e-08
2.12404e-07
3.67423e-08
2.22307e-07
3.57308e-08
7.57031e-07
1.41741e-06
1.50297e-06
2.45483e-07
1.50317e-06
2.51355e-07
7.4846e-07
7.55917e-07
1.41495e-06
1.50736e-06
2.37416e-07
1.50404e-06
2.54841e-07
7.32936e-07
2.19913e-07
3.66864e-08
3.74579e-08
2.10995e-07
2.16556e-07
3.58832e-08
3.65647e-08
2.08419e-07
1.59395e-08
1.57745e-08
1.60756e-08
1.60917e-08
1.29551e-06
8.53346e-08
8.82082e-08
8.46123e-08
8.61343e-08
1.62242e-08
1.61851e-08
1.58685e-08
1.63486e-08
1.66649e-08
1.62997e-08
1.62761e-08
1.58844e-08
8.99043e-08
8.67944e-08
1.28641e-06
8.70087e-08
8.35215e-08
1.64244e-08
1.68037e-08
1.59695e-08
1.61174e-08
1.29329e-06
8.98693e-08
8.41861e-08
8.89697e-08
8.96574e-08
2.15088e-07
3.71751e-08
2.23402e-07
3.63737e-08
7.39186e-07
2.53529e-07
1.49924e-06
1.4189e-06
7.7283e-07
2.4334e-07
1.50427e-06
7.39149e-07
2.49256e-07
1.49168e-06
1.40934e-06
7.57867e-07
2.42548e-07
1.49373e-06
2.16937e-07
3.56763e-08
3.71562e-08
2.24027e-07
2.22502e-07
3.68883e-08
3.77131e-08
2.08351e-07
7.5226e-07
1.414e-06
2.45714e-07
1.49672e-06
2.54101e-07
1.49724e-06
7.37543e-07
7.41521e-07
1.42381e-06
2.46008e-07
1.49703e-06
2.47876e-07
1.50177e-06
7.3198e-07
8.6524e-08
8.99625e-08
1.28699e-06
8.5099e-08
8.56872e-08
1.67392e-08
1.6258e-08
1.65856e-08
1.66423e-08
1.30156e-06
8.6206e-08
8.74182e-08
8.90943e-08
8.76803e-08
1.64528e-08
1.65311e-08
6.76053e-07
2.43547e-07
1.49101e-06
1.40975e-06
6.87763e-07
2.32848e-07
1.49878e-06
1.87234e-07
3.80011e-08
1.89624e-07
3.70493e-08
6.75945e-07
1.48455e-06
2.50512e-07
1.40431e-06
6.80012e-07
1.48408e-06
2.37758e-07
1.95902e-07
3.58882e-08
3.48717e-08
1.88329e-07
7.01436e-07
1.40323e-06
2.32915e-07
1.49137e-06
2.36274e-07
1.49284e-06
6.71971e-07
1.92406e-07
3.65493e-08
3.74652e-08
1.88466e-07
6.93839e-07
1.404e-06
1.48742e-06
2.3953e-07
1.48427e-06
2.51819e-07
6.74238e-07
1.97701e-07
3.60179e-08
2.11587e-07
3.55011e-08
6.88234e-07
1.49388e-06
2.45231e-07
1.40273e-06
7.19027e-07
1.49325e-06
2.36506e-07
2.00508e-07
3.55606e-08
2.08018e-07
3.46408e-08
7.17541e-07
1.40995e-06
2.43751e-07
1.49323e-06
2.42387e-07
1.48942e-06
7.07045e-07
2.03308e-07
3.58382e-08
3.60512e-08
1.93797e-07
7.02285e-07
1.40505e-06
1.49359e-06
2.33828e-07
1.49321e-06
2.32303e-07
6.90495e-07
2.04415e-07
3.46722e-08
3.60139e-08
1.96335e-07
8.97372e-08
8.87742e-08
1.28787e-06
8.69815e-08
8.69903e-08
1.68614e-08
1.63487e-08
1.65098e-08
1.68148e-08
1.29573e-06
8.51884e-08
8.64954e-08
8.68624e-08
8.91735e-08
1.61979e-08
1.6582e-08
7.2536e-07
1.49863e-06
2.3854e-07
1.41247e-06
7.53752e-07
1.50263e-06
2.36606e-07
2.09336e-07
3.70176e-08
2.20792e-07
3.62168e-08
2.09733e-07
3.65196e-08
2.20231e-07
3.53598e-08
7.55844e-07
1.41224e-06
1.50522e-06
2.4952e-07
1.50301e-06
2.48307e-07
7.46827e-07
7.37844e-07
1.41991e-06
1.5012e-06
2.39055e-07
1.50047e-06
2.47628e-07
7.2705e-07
2.16034e-07
3.64115e-08
3.68446e-08
2.09946e-07
2.14976e-07
3.56273e-08
3.69757e-08
2.07574e-07
1.6358e-08
1.60392e-08
1.61283e-08
1.59165e-08
1.29089e-06
8.40919e-08
8.36242e-08
8.49764e-08
8.89705e-08
1.58507e-08
1.59676e-08
1.5996e-08
1.63152e-08
1.65541e-08
1.64232e-08
1.61207e-08
1.59141e-08
9.30768e-08
8.8092e-08
1.29511e-06
8.80814e-08
8.31991e-08
1.64926e-08
1.6653e-08
1.59947e-08
1.62183e-08
1.30479e-06
8.91865e-08
8.41263e-08
9.40871e-08
8.48744e-08
2.12562e-07
3.74907e-08
2.14273e-07
3.6092e-08
7.45583e-07
2.5257e-07
1.49955e-06
1.41393e-06
7.64678e-07
2.45797e-07
1.49618e-06
7.50081e-07
2.557e-07
1.49985e-06
1.41424e-06
7.44879e-07
2.4444e-07
1.4996e-06
2.25049e-07
3.74245e-08
3.75393e-08
2.21049e-07
2.26716e-07
3.6283e-08
3.68432e-08
2.16226e-07
7.64627e-07
1.41588e-06
2.49683e-07
1.50521e-06
2.57371e-07
1.49671e-06
7.61179e-07
7.6926e-07
1.4135e-06
2.48359e-07
1.50261e-06
2.51232e-07
1.49875e-06
7.58037e-07
8.89572e-08
8.89329e-08
1.29273e-06
8.59942e-08
8.61174e-08
1.6854e-08
1.66515e-08
1.65278e-08
1.65939e-08
1.31398e-06
8.65624e-08
8.51112e-08
9.07584e-08
8.89636e-08
1.64206e-08
1.69669e-08
6.87468e-07
2.43223e-07
1.49043e-06
1.39812e-06
6.88716e-07
2.32479e-07
1.48817e-06
1.90395e-07
3.76743e-08
1.97361e-07
3.61416e-08
6.78393e-07
1.48909e-06
2.46949e-07
1.41695e-06
6.92216e-07
1.49266e-06
2.39235e-07
1.9759e-07
3.50603e-08
3.52153e-08
1.90391e-07
6.95006e-07
1.40379e-06
2.31812e-07
1.48827e-06
2.35315e-07
1.49468e-06
6.74565e-07
1.94285e-07
3.62388e-08
3.67255e-08
1.88298e-07
6.98598e-07
1.4178e-06
1.50102e-06
2.39521e-07
1.49239e-06
2.47011e-07
6.70758e-07
1.95414e-07
3.69986e-08
2.04064e-07
3.62352e-08
6.95853e-07
1.49534e-06
2.34523e-07
1.4031e-06
7.08632e-07
1.48744e-06
2.33332e-07
1.9512e-07
3.54768e-08
2.06694e-07
3.50841e-08
7.21683e-07
1.40588e-06
2.36413e-07
1.49136e-06
2.41939e-07
1.49272e-06
7.13327e-07
1.99549e-07
3.62474e-08
3.73762e-08
1.96713e-07
7.13399e-07
1.39577e-06
1.4931e-06
2.30844e-07
1.49616e-06
2.43882e-07
6.99025e-07
1.9864e-07
3.43386e-08
3.46331e-08
2.01221e-07
9.05975e-08
8.85945e-08
1.30631e-06
8.62176e-08
8.66435e-08
1.64025e-08
1.62549e-08
1.64879e-08
1.64495e-08
1.31105e-06
8.66824e-08
8.71221e-08
8.58266e-08
8.81757e-08
1.63213e-08
1.68042e-08
7.33397e-07
1.50285e-06
2.42718e-07
1.41669e-06
7.36423e-07
1.50022e-06
2.37394e-07
2.11592e-07
3.7708e-08
2.18816e-07
3.63053e-08
2.07318e-07
3.60404e-08
2.10155e-07
3.59233e-08
7.55426e-07
1.4185e-06
1.50404e-06
2.44551e-07
1.51183e-06
2.55969e-07
7.38229e-07
7.54018e-07
1.4112e-06
1.50391e-06
2.37499e-07
1.50838e-06
2.44744e-07
7.30474e-07
2.20267e-07
3.61024e-08
3.70779e-08
2.14243e-07
2.13778e-07
3.51712e-08
3.65038e-08
2.09721e-07
1.60485e-08
1.58136e-08
1.64739e-08
1.59759e-08
1.28445e-06
8.49432e-08
8.72876e-08
8.28742e-08
8.56705e-08
1.5515e-08
1.582e-08
1.60497e-08
1.62413e-08
1.67736e-08
1.66077e-08
1.62786e-08
1.59628e-08
8.89853e-08
8.70617e-08
1.29101e-06
8.78601e-08
8.44282e-08
1.63737e-08
1.67321e-08
1.59013e-08
1.61136e-08
1.289e-06
8.81242e-08
8.31294e-08
8.84284e-08
8.59289e-08
2.13499e-07
3.80113e-08
2.28128e-07
3.63327e-08
7.52875e-07
2.54751e-07
1.50115e-06
1.41123e-06
7.59654e-07
2.4803e-07
1.50103e-06
7.44711e-07
2.49038e-07
1.50796e-06
1.41395e-06
7.41145e-07
2.45682e-07
1.50242e-06
2.19404e-07
3.67328e-08
3.78128e-08
2.23157e-07
2.17414e-07
3.66132e-08
3.82217e-08
2.16205e-07
7.58503e-07
1.4188e-06
2.43466e-07
1.50154e-06
2.52683e-07
1.50646e-06
7.4064e-07
7.44789e-07
1.41817e-06
2.46274e-07
1.51043e-06
2.49993e-07
1.50369e-06
7.43156e-07
8.83115e-08
8.70984e-08
1.28871e-06
8.58897e-08
8.74425e-08
1.65598e-08
1.64978e-08
1.64302e-08
1.68219e-08
1.29775e-06
8.66748e-08
8.62573e-08
8.61705e-08
8.86268e-08
1.6268e-08
1.65326e-08
6.75579e-07
2.34316e-07
1.4868e-06
1.41025e-06
6.85432e-07
2.28043e-07
1.48932e-06
1.9183e-07
3.78468e-08
1.90834e-07
3.63075e-08
6.71368e-07
1.49393e-06
2.44311e-07
1.41225e-06
6.75575e-07
1.4927e-06
2.41468e-07
1.98513e-07
3.50785e-08
3.5088e-08
1.93921e-07
7.05971e-07
1.39573e-06
2.30473e-07
1.49814e-06
2.31865e-07
1.48891e-06
6.91601e-07
1.94252e-07
3.66341e-08
3.81168e-08
1.89654e-07
6.80312e-07
1.41529e-06
1.49248e-06
2.37677e-07
1.49262e-06
2.50089e-07
6.92611e-07
1.96652e-07
3.7236e-08
2.01889e-07
3.57673e-08
7.03895e-07
1.49965e-06
2.37339e-07
1.40978e-06
7.20188e-07
1.49137e-06
2.324e-07
1.96719e-07
3.53223e-08
2.02249e-07
3.44501e-08
7.25338e-07
1.40268e-06
2.41883e-07
1.49623e-06
2.45384e-07
1.50215e-06
7.11926e-07
2.01862e-07
3.5794e-08
3.66887e-08
2.05981e-07
7.28259e-07
1.4104e-06
1.49447e-06
2.33363e-07
1.49536e-06
2.37093e-07
6.94063e-07
2.05495e-07
3.49885e-08
3.5423e-08
1.94908e-07
8.84976e-08
8.92015e-08
1.29408e-06
8.59479e-08
8.83793e-08
1.67068e-08
1.66937e-08
1.63443e-08
1.65599e-08
1.30507e-06
8.58975e-08
8.81985e-08
8.88928e-08
9.07537e-08
1.66679e-08
1.67354e-08
7.31913e-07
1.50128e-06
2.46676e-07
1.41648e-06
7.41828e-07
1.50238e-06
2.41151e-07
2.17441e-07
3.69634e-08
2.20649e-07
3.65505e-08
2.10785e-07
3.56751e-08
2.20057e-07
3.49839e-08
7.72657e-07
1.42872e-06
1.50467e-06
2.43043e-07
1.50409e-06
2.57264e-07
7.38268e-07
7.4437e-07
1.40862e-06
1.50861e-06
2.37614e-07
1.5023e-06
2.4505e-07
7.28988e-07
2.28302e-07
3.67172e-08
3.70926e-08
2.18824e-07
2.16032e-07
3.44445e-08
3.58467e-08
2.08212e-07
1.57921e-08
1.597e-08
1.62168e-08
1.59015e-08
1.28962e-06
8.36191e-08
8.45792e-08
8.35307e-08
8.76926e-08
1.59209e-08
1.57438e-08
1.59216e-08
1.62806e-08
1.65955e-08
1.64167e-08
1.58541e-08
1.56697e-08
9.06781e-08
8.6958e-08
1.28008e-06
8.74236e-08
8.2488e-08
1.64376e-08
1.66449e-08
1.58286e-08
1.59589e-08
1.29454e-06
8.7564e-08
8.37091e-08
9.07252e-08
8.45338e-08
2.12156e-07