/*--------------------------------*- C++ -*----------------------------------*\
| =========                 |                                                 |
| \\      /  F ield         | OpenFOAM: The Open Source CFD Toolbox           |
|  \\    /   O peration     | Version:  2206                                  |
|   \\  /    A nd           | Website:  www.openfoam.com                      |
|    \\/     M anipulation  |                                                 |
\*---------------------------------------------------------------------------*/
FoamFile
{
    version     2.0;
    format      ascii;
    arch        "LSB;label=32;scalar=64";
    class       volScalarField;
    location    "20";
    object      omega;
}
// * * * * * * * * * * * * * * * * * * * * * * * * * * * * * * * * * * * * * //

dimensions      [0 0 -1 0 0 0 0];

internalField   nonuniform List<scalar> 
66940
(
18.0849
20.8538
20.6713
22.6904
18.0468
20.8883
20.7049
22.8113
18.043
20.9214
20.7363
22.7151
18.0159
20.9244
20.6742
22.7707
17.9323
20.884
20.723
22.7031
17.9402
20.8917
20.7091
22.7956
17.9529
20.8926
20.681
22.8436
17.969
20.8957
20.5884
22.7801
17.9874
20.9286
20.7037
22.6778
17.9504
20.9247
20.7297
22.7224
17.998
20.8062
20.6084
22.5845
18.3908
21.5455
21.4365
24.6804
22.6164
20.7456
20.7419
22.5074
20.8796
20.7939
20.8014
20.8564
22.5017
20.6364
20.6952
22.495
22.5066
22.6851
20.72
20.7024
20.8018
20.783
22.3248
22.5149
20.8356
20.7543
20.9494
20.9245
20.8675
20.8891
21.054
22.4183
22.5283
20.6009
20.6515
20.7632
22.6306
22.4164
22.6744
20.6701
20.6555
20.8404
20.801
22.3136
22.6334
20.8789
20.8378
20.921
20.911
20.9519
20.8043
21.1007
22.3302
22.6327
20.7231
20.7026
20.7596
22.5219
22.4964
22.6731
20.6882
20.749
20.8088
20.8
22.4946
22.6062
20.8072
20.8406
20.9419
20.9098
20.9991
20.812
21.0172
22.5041
22.6041
20.6714
20.7487
20.7314
22.5734
22.4437
22.7093
20.6703
20.7209
20.7919
20.7881
22.5113
22.6241
20.8454
20.8032
20.9157
20.884
20.9033
20.8076
20.9937
22.3333
22.624
20.6184
20.699
20.7502
22.4991
22.3671
22.6398
20.7306
20.6653
20.7965
20.7926
22.3571
22.6806
20.8164
20.8056
20.887
20.8653
20.9149
20.8505
20.976
22.4915
22.6013
20.6318
20.6704
20.766
22.589
22.4386
22.6974
20.7149
20.7302
20.7627
20.7531
22.564
22.6452
20.7851
20.7474
20.8761
20.8445
20.8975
20.8056
20.9868
22.4535
22.5305
20.6804
20.6544
20.7406
22.6549
22.5668
22.6614
20.6562
20.6047
20.7904
20.7729
22.4751
22.6349
20.8498
20.7719
20.947
20.8744
20.9041
20.8548
20.9599
22.3509
22.5233
20.6882
20.671
20.7263
22.5857
22.5246
22.6782
20.7006
20.7196
20.772
20.7558
22.3411
22.6495
20.8499
20.7151
20.9462
20.8574
20.8993
20.8115
20.951
22.2513
22.5884
20.6384
20.6605
20.7168
22.6443
22.4094
22.7373
20.7225
20.6252
20.7977
20.7537
22.4695
22.6095
20.8914
20.7712
20.922
20.8242
20.7635
20.8133
20.9319
22.346
22.6002
20.6107
20.6978
20.7252
22.6441
22.4293
22.6038
20.7359
20.7112
20.7333
20.6879
22.417
22.6118
20.8209
20.7406
20.8329
20.6514
20.8768
20.8425
20.861
22.3082
22.5265
20.5625
20.6686
20.6611
22.5326
22.4646
23.1427
20.5938
20.5554
21.1283
21.15
22.3462
23.4365
20.7127
20.6448
21.1674
21.055
20.759
20.9237
21.1168
22.4181
23.2367
20.5195
21.1229
21.1251
23.0245
24.6434
21.4034
21.4369
24.8892
21.4464
21.3808
18.2811
18.2873
18.3026
21.4228
24.6169
21.4061
386.279
18.2142
18.0998
18.0467
18.0804
34.0708
20.7987
74.9978
19.3367
22.5894
139.218
136.366
80.3395
254.965
79.6193
255.047
389.8
390.272
85.0357
257.497
84.5005
258.175
18.2311
18.2316
18.2752
18.1708
18.1264
18.073
18.1291
34.4195
76.2627
19.3606
20.7803
34.1223
76.5884
19.3754
392.358
392.1
33.1977
19.2496
73.133
20.5989
33.3094
19.2562
73.6816
140.54
136.708
22.7199
139.593
137.143
80.803
255.574
80.7278
255.32
389.574
389.799
85.3101
258.225
85.633
257.351
18.2181
18.2069
18.2661
18.0915
18.0817
18.0399
18.0559
34.4746
76.3391
19.3798
20.8378
34.5459
76.1163
19.3984
392.228
392.117
33.0781
19.2058
73.6931
20.6547
33.1474
19.218
74.0256
141.413
138.212
22.7178
139.712
137.538
80.8212
255.8
81.2387
255.233
390.013
390.038
86.2134
258.168
86.1488
258.157
18.1384
18.1327
18.1151
18.0635
18.0433
17.9675
18.0153
34.7429
76.3593
19.372
20.8701
34.7464
76.5422
19.3837
391.865
391.988
33.1792
19.1908
73.7827
20.6191
33.5202
19.2239
74.125
140.047
138.188
22.6956
139.786
137.319
80.2053
255.91
80.7139
255.396
390.482
390.035
86.2166
258.081
86.6799
258.187
18.1404
18.0664
18.1108
18.0504
17.9942
17.9709
17.9876
34.799
76.3534
19.3696
20.8684
34.6142
76.3631
19.3747
391.681
391.805
33.2394
19.1704
74.3429
20.6935
33.4015
19.2032
74.5198
140.043
137.985
22.726
139.652
137.758
80.7059
256.145
80.6375
255.239
390.388
390.19
85.852
258.452
86.4565
258.236
18.1032
18.036
18.1045
18.0582
17.9633
17.9421
17.9095
34.8394
76.2548
19.3192
20.7284
34.8359
76.2186
19.294
391.517
391.531
33.3366
19.1526
74.0357
20.5805
33.3693
19.1562
74.4373
139.933
137.613
22.7
140.139
137.77
80.9045
256.428
81.0419
254.953
390.818
390.062
86.0642
258.786
86.7127
258.664
18.0496
17.9769
17.9504
18.0756
17.9106
17.8384
17.8961
35.1147
76.3436
19.2903
20.8093
35.0638
76.3588
19.2836
391.529
391.544
33.3072
19.1303
74.8555
20.6114
33.3433
19.1615
74.3159
140.74
138.124
22.8039
140.061
137.359
80.719
255.799
80.6516
255.468
390.414
390.295
85.7323
258.913
86.2975
258.525
17.9914
17.9864
17.9843
18.089
17.8753
17.8171
17.916
34.7574
76.088
19.2875
20.8198
34.8937
76.2167
19.2993
391.495
391.581
33.1423
19.1104
74.0608
20.6112
33.4936
19.1083
73.8958
140.366
137.906
22.7509
139.905
137.693
80.8009
256
80.945
255.437
390.108
390.056
83.943
258.352
85.0337
257.913
17.9739
17.8992
18.0004
18.0332
17.8899
17.8399
17.9178
35.0172
76.3456
19.3101
20.7432
34.9594
76.2458
19.3539
391.534
391.728
33.3457
19.0962
74.7193
20.6454
33.3493
19.137
74.4062
140.645
138.011
22.7164
139.76
137.597
80.4695
255.501
81.0957
255.368
389.57
389.551
83.6194
258.868
84.034
258.294
18.0061
17.9728
18.0109
17.9973
17.9139
17.8479
17.9109
35.0134
75.9932
19.3328
20.7421
35.2874
76.091
19.3415
392.375
392.047
33.4817
19.1207
74.9972
20.6059
33.7407
19.1553
75.3114
139.537
138.122
22.6573
139.519
137.365
80.6574
255.492
80.8121
254.034
389.293
389.81
83.3589
259.419
83.9446
258.017
18.1002
17.9488
17.9503
17.9577
17.8977
17.8759
17.8772
34.6951
76.3733
19.3222
20.7437
34.9427
76.6675
19.3394
391.631
391.67
33.4786
19.13
75.7215
20.6049
33.5749
19.1427
75.2682
140.93
137.96
22.6772
140.413
137.629
84.6195
256.684
83.4506
254.936
387.612
387.689
85.0474
259.041
84.1399
255.399
17.9472
18.0752
17.9838
18.376
18.2428
18.2591
18.3013
35.7772
76.1456
19.2454
20.681
34.9164
78.4177
19.3079
388.231
382.639
35.9726
19.1813
76.3155
20.5959
33.835
19.3472
78.1446
140.325
137.357
22.6566
141.808
139.31
134.987
1796.86
152.803
385.315
1662.2
590.005
134.663
1796.96
153.043
384.442
18.5301
17.9784
17.8099
19.2831
17.6695
18.7586
18.7131
53.3371
265.35
19.4799
21.0083
48.371
232.61
19.6731
1662.53
591.047
52.5613
19.4916
265.609
21.0138
47.6068
19.6637
229.507
326.2
330.559
23.8857
364.394
364.288
389.245
390.482
391.216
391.696
22.6315
135.403
138.967
136.895
138.558
252.076
20.7157
72.7993
80.2477
248.907
252.364
78.1401
81.1479
256.013
254.844
79.7167
32.5298
20.7389
73.2428
19.2227
72.8506
19.2848
32.6541
32.3111
20.6958
74.1677
19.2477
73.5968
19.2689
32.7392
22.4835
137.576
137.585
391.155
388.649
381.296
22.3246
136.671
137.943
135.069
130.046
391.299
388.766
85.0245
255.65
256.921
83.1388
34.5354
20.8214
76.006
19.3395
75.425
19.3447
34.4637
84.4596
256.871
257.289
84.4825
34.3636
20.6861
19.3154
75.6293
19.331
75.8983
34.4447
82.6574
256.347
33.9673
20.777
19.3043
76.1896
82.7514
257.246
33.256
20.6847
73.8258
19.3726
72.656
19.3689
33.8621
80.8075
256.514
250.775
83.2644
33.0992
20.8376
19.332
76.5067
19.3243
72.0031
34.0526
80.0062
258.07
253.021
82.9967
388.214
391.485
22.4755
138.169
136.035
139.106
136.788
389.253
385.024
33.754
20.6193
19.2861
72.4207
19.3266
73.3519
33.1077
33.8197
20.5916
19.2303
73.2899
19.2519
74.2614
33.2255
83.0527
252.441
253.409
80.9668
81.8793
255.348
248.274
81.2645
390.662
388.262
22.3813
140.115
132.762
133.556
132.638
391.05
384.008
389.288
389.097
386.172
389.854
388.124
391.573
129.576
133.193
22.6067
135.399
139.395
389.933
386.469
392.138
384.564
22.4927
137.24
138.592
130.942
132.673
80.1972
251.972
77.1679
255.153
32.8738
70.024
19.2321
20.7546
31.5826
74.1063
19.2637
32.8708
71.8371
19.3095
20.7372
32.475
73.9874
19.264
76.7222
250.823
251.608
79.9323
78.1077
255.296
245.12
80.6934
31.8891
20.7714
73.8807
19.2333
70.3595
19.2641
32.9355
31.9936
20.7503
74.5873
19.235
72.4099
19.2729
33.2489
134.569
135.8
22.4825
136.755
138.009
388.993
391.677
389.301
386.958
22.312
137.249
137.975
130.178
130.411
390.771
388.06
34.8501
72.8337
19.3744
20.8243
33.9685
76.6482
19.3699
85.3846
248.154
81.8345
257.428
35.0231
19.3615
71.9916
20.9069
33.73
19.3496
75.3279
83.8067
257.784
255.836
83.3013
34.4996
20.8822
75.3683
19.3722
75.1419
19.3796
34.838
81.86
257.675
254.908
86.0753
33.9704
20.901
19.3484
75.8803
19.3591
73.2753
35.3462
83.6549
250.907
81.7124
257.581
34.2985
19.388
74.9297
20.8948
33.3535
19.3936
76.6308
83.3728
255.449
80.0664
258.169
33.9507
20.7671
74.44
19.3828
75.0909
19.3772
34.41
79.7758
256.724
251.805
84.2065
33.959
21.034
19.3937
76.8323
19.4011
74.2318
34.5438
81.3473
259.091
249.999
84.0676
133.605
133.179
22.5321
138.585
135.265
385.849
389.867
387.853
388.715
22.4192
138.055
135.642
133.723
131.215
389.2
385.019
33.0942
19.268
69.4622
20.712
32.1697
19.2751
74.2297
81.0221
244.162
78.7892
253.972
80.7009
252.183
79.8256
254.562
32.7378
20.6023
19.2273
71.2377
19.2297
69.8296
32.9721
32.5162
20.6698
19.2303
73.63
19.2475
72.9989
33.0498
77.3723
254.972
252.055
80.6682
79.0173
254.449
251.912
80.1604
389.46
391.544
382.086
389.164
22.4629
141.131
134.294
133.598
134.672
391.462
385.265
385.535
387.481
382.343
390.081
384.614
391.376
134.81
131.63
22.6823
136.334
138.653
389.749
387.919
391.575
386.205
22.5695
136.446
138.116
134.846
136.351
81.2594
245.863
76.8349
255.52
33.1901
72.6676
19.2698
20.7877
31.8341
73.4215
19.2389
33.4274
70.8206
19.2414
20.7729
32.5464
74.6
19.2398
79.5726
250.398
247.215
80.5555
79.888
255.482
246.249
81.0117
32.8474
20.74
74.5855
19.2144
71.3745
19.2497
33.2578
32.5938
20.6941
74.2091
19.1991
70.5979
19.2378
33.6007
131.203
131.615
22.5166
137.499
137.068
386.465
390.708
389.173
384.837
22.3006
137.495
137.964
131.441
130.216
391.528
382.428
34.8789
71.6152
19.3868
20.8965
34.4757
75.8236
19.3718
86.0515
247.725
81.9152
257.988
35.2413
19.3646
73.9745
20.7816
34.9232
19.354
75.7516
83.8502
256.871
249.147
83.733
34.5586
20.8828
75.4602
19.3498
74.2055
19.3687
35.0412
84.5797
257.711
248.291
85.793
34.2292
20.9125
19.3442
75.8197
19.3572
71.7499
35.5348
84.3809
248.329
79.7291
257.689
34.4964
19.4246
74.5542
21.0901
33.9459
19.4157
76.7774
84.1085
250.325
82.764
257.288
33.5913
20.8375
75.63
19.3848
73.5696
19.3936
34.4155
82.8476
253.371
252.579
84.661
33.6131
21.0841
19.3963
75.3884
19.4134
74.5445
34.7226
83.0255
258.681
256.493
84.533
134.889
129.46
22.5636
138.414
136.659
385.612
389.927
386.993
389.261
22.4201
138.19
136.118
135.937
131.798
389.585
383.147
33.1236
19.2691
70.4706
20.7265
31.8388
19.2323
73.9892
80.3744
249.603
79.0618
254.744
80.4519
251.364
77.992
256.034
32.0785
20.6811
19.2112
73.1715
19.2199
70.0577
33.4661
32.0292
20.7385
19.1961
74.8971
19.2333
70.4197
33.3959
76.6972
253.823
247.369
81.0221
79.4058
255.54
252.699
80.9394
389.737
391.707
389.344
389.881
22.4054
139.012
137.696
137.401
131.72
387.842
387.621
386.281
387.452
382.778
389.472
387.02
391.423
133.678
136.398
22.6312
135.817
138.38
390.762
381.778
392.168
388.372
22.4994
136.731
139.164
130.375
136.241
80.4401
250.97
79.5521
254.392
33.2802
71.4214
19.2167
20.7911
32.9747
73.9895
19.2195
33.2212
70.3522
19.2074
20.6913
33.2148
74.3412
19.2228
79.4893
253.206
248.995
79.8827
79.175
254.493
250.207
80.1781
32.8381
20.7131
73.9544
19.1844
71.1799
19.2115
33.0519
32.7291
20.7701
73.7607
19.1882
72.973
19.2023
33.0879
134.739
134.672
22.5855
137.346
137.564
384.068
391.436
390.249
385.15
22.4825
137.603
138.547
134.712
135.481
391.296
389.043
35.2595
75.3582
19.3336
20.7628
34.5097
76.8827
19.3326
86.1648
253.476
83.1603
257.816
35.5148
19.3573
73.9702
20.7668
35.1741
19.3479
72.609
84.654
256.725
253.538
86.0572
34.5913
20.9087
76.6255
19.3226
75.9414
19.3346
35.1235
84.2822
257.513
254.839
86.4004
34.5701
20.8833
19.3236
75.0973
19.342
73.8647
35.6812
84.6314
257.212
83.0853
258.568
34.7204
19.4079
76.595
21.0077
33.9968
19.3955
77.3568
84.8399
250.84
82.5769
258.144
33.9101
20.8237
75.9957
19.3756
73.4949
19.3773
34.0495
83.4805
257.133
253.575
84.7503
33.873
20.991
19.3981
77.0507
19.3945
73.0818
34.633
80.9743
258.26
254.863
84.2246
135.039
131.937
22.5697
137.872
135.947
382.436
390.19
391.395
389.567
22.4806
137.724
137.501
133.056
131.121
389.917
386.852
33.297
19.2013
71.239
20.6173
32.9959
19.2189
74.5595
80.9917
248.432
76.8608
254.164
80.9336
248.083
79.3431
255.402
32.1107
20.7273
19.1974
71.9975
19.1952
71.3399
33.3321
32.3852
20.6757
19.1815
74.8673
19.1957
73.4058
33.1865
79.1805
254.814
250.756
80.4579
78.1828
254.931
249.647
80.9174
391.354
391.541
389.04
389.878
22.4028
139.031
136.443
137.498
131.247
391.875
383.036
389.091
387.287
388.064
390.113
384.813
391.651
130.751
136.576
22.7044
136.1
138.285
390.24
386.878
391.791
386.388
22.4312
136.352
138.849
130.909
134.983
80.5411
250.825
76.5586
254.81
32.8354
71.8069
19.195
20.7882
32.2252
74.418
19.1694
33.0442
70.7023
19.2144
20.6817
32.5864
73.9964
19.2232
77.4308
255.431
246.692
80.0127
77.9249
254.369
249.846
80.274
32.1068
20.7168
74.5112
19.1457
72.7282
19.176
32.9155
31.9976
20.6763
73.997
19.1872
71.5292
19.2132
33.0373
135.885
132.673
22.6412
136.835
137.898
383.753
391.029
385.257
387.439
22.5192
138.218
137.697
131.385
134.158
391.085
388.771
35.4995
73.3425
19.323
20.8761
35.0094
77.0196
19.3275
86.4343
250.714
85.0351
257.326
35.4457
19.3245
73.4463
20.8432
35.2689
19.3324
73.9817
84.1752
257.596
251.896
86.1576
35.1293
20.8856
76.5712
19.3166
73.1538
19.3271
35.4709
85.211
256.417
250.761
86.2789
34.5448
20.8497
19.3132
75.879
19.3325
75.1561
35.4704
84.4209
250.882
82.2957
257.543
34.5663
19.3996
75.3766
20.9469
33.725
19.373
76.7265
84.9527
254.829
80.9873
258.796
34.275
20.8108
75.8558
19.35
74.9209
19.3691
34.6689
81.377
257.51
246.939
84.5106
33.8036
20.966
19.3301
76.8288
19.36
75.673
34.6526
82.8454
258.078
255.141
84.6514
133.627
131.473
22.6312
138.58
136.807
386.744
389.11
391.358
384.843
22.4895
138.327
137.218
133.669
131.247
389.477
385.568
33.1822
19.2052
72.4673
20.7351
32.3586
19.1929
74.5722
80.8555
251.378
77.9006
254.359
80.9302
249.461
77.7063
255.75
32.3157
20.6891
19.1788
73.1919
19.1776
71.4119
32.6501
32.5546
20.7458
19.1724
75.5071
19.1875
71.276
33.3927
78.8805
254.49
250.169
81.061
79.0696
255.352
249.606
81.3964
389.839
392.112
387.137
387.127
22.4427
138.98
133.428
137.556
135.572
391.099
386.69
390.596
383.44
386.125
389.378
388.078
392.181
133.249
135.73
22.6503
136.047
138.793
390.054
381.391
391.504
388.836
22.5312
135.68
138.78
133.257
131.883
80.9749
249.185
78.3268
254.251
33.2766
72.2555
19.1617
20.6821
31.844
74.3735
19.1577
33.2102
72.3042
19.2088
20.7791
32.5449
74.4504
19.1926
79.6302
256.053
246.764
78.1494
77.7061
254.374
249.126
82.1408
33.0089
20.7605
73.6495
19.1536
71.6052
19.1586
33.4054
33.0683
20.6866
74.0756
19.1704
72.9401
19.1896
33.4914
136.388
133.477
22.6353
138.381
137.435
386.489
392.123
386.396
384.924
22.3694
137.262
138.465
134.915
134.287
391.1
388.274
35.2029
72.6643
19.3136
20.8504
35.0205
76.6278
19.3102
86.0618
247.739
84.9971
256.814
35.3517
19.312
72.1699
20.8346
34.8586
19.3047
76.4342
82.151
253.323
255.917
86.3955
34.0289
20.8468
76.2622
19.2872
75.4564
19.3006
35.4282
83.9365
257.554
254.429
85.6129
34.5195
20.8376
19.2789
75.784
19.2984
72.3209
35.2383
85.1593
254.44
80.6894
257.227
35.1321
19.3102
72.9671
20.8534
33.8597
19.3069
75.3316
84.8866
252.257
82.5178
257.465
33.8141
20.8483
74.1487
19.2776
74.8018
19.2865
34.3706
82.992
256.985
255.003
85.371
34.4046
20.9238
19.292
77.0206
19.3065
76.5517
35.0414
82.9883
258.715
248.327
85.0776
132.948
133.881
22.5691
138.272
136.918
382.911
389.629
391.423
384.197
22.4213
138.536
136.392
136.083
133.532
389.626
386.46
33.572
19.1807
74.7175
20.7596
32.5309
19.1724
75.1736
81.3415
251.024
77.2772
254.703
81.7572
251.177
78.0701
255.895
32.2856
20.6898
19.1459
72.7585
19.1582
72.9445
32.6031
32.9371
20.75
19.1482
74.7372
19.1779
72.8133
33.5069
79.8751
254.367
251.454
81.0506
78.6116
255.809
246.625
81.7237
383.945
391.525
383.964
389.837
22.54
137.244
137.729
138.106
131.936
388.94
389.786
389.865
381.53
387.416
389.836
388.339
392.4
130.671
132.596
22.6221
136.089
139.897
390.128
386.565
392.167
385.685
22.4844
136.676
139.342
129.806
137.288
80.9111
250.306
80.7396
255.067
33.2355
71.4068
19.1813
20.7337
32.1743
73.6571
19.1779
33.3233
72.1856
19.1987
20.7434
32.9189
74.1472
19.1732
76.7104
252.262
249.097
79.8307
77.3379
254.405
251.012
80.8922
32.6988
20.6715
73.5473
19.1409
71.2818
19.1671
32.7875
32.2258
20.7273
73.6217
19.1254
72.3054
19.1624
32.8979
133.221
134.162
22.6587
137.036
138.422
386.715
387.904
385.555
381.688
22.4344
136.692
138.775
131.591
134.454
391.946
382.994
35.3039
73.3761
19.2778
20.8347
34.9823
77.1187
19.2861
85.4562
248.057
83.1333
255.799
35.1388
19.2716
73.7862
20.7858
34.3504
19.2704
75.545
82.2971
256.216
255.13
85.7107
34.5459
20.769
76.6864
19.2817
75.7772
19.2851
35.3652
83.5453
257.919
254.652
86.2387
34.0977
20.7918
19.2607
75.4778
19.2725
73.1136
35.5078
85.3031
249.254
81.085
256.986
34.8555
19.2934
75.7017
20.8479
34.1218
19.2952
76.7627
85.2648
255.005
80.8529
254.384
33.8984
20.7857
75.5749
19.2938
74.6927
19.288
34.2479
83.5558
256.335
250.137
84.9334
33.9529
20.9398
19.2893
76.8125
19.2934
73.184
34.6702
83.5738
258.655
257.614
84.3491
132.281
132.891
22.5104
138.856
135.992
386.278
389.375
390.905
387.937
22.3113
138.583
135.556
137.076
133.802
389.74
381.136
33.4474
19.1497
73.5628
20.6416
32.9638
19.1732
74.8552
80.6193
248.785
77.6503
254.153
81.7131
252.75
80.313
255.198
32.1996
20.6287
19.1336
73.4157
19.1338
70.3066
33.4512
32.2572
20.7055
19.1355
74.7584
19.1453
72.6592
33.5396
77.2661
254.26
250.416
81.0251
80.0019
255.608
249.894
81.2999
385.31
391.315
382.486
390.809
22.6663
136.633
137.033
137.523
135.554
391.83
389.953
390.136
384.643
387.589
389.784
387.473
391.44
134.56
136.31
22.6444
136.357
139.504
390.03
383.068
388.19
387.336
22.5136
136.728
138.893
134.755
134.623
80.6846
245.927
76.838
255.36
33.1633
71.3282
19.1561
20.7817
32.9255
73.8718
19.1397
33.1575
72.4556
19.1435
20.7188
33.2394
74.0384
19.1234
79.2893
252.624
246.318
78.2609
79.2789
255.307
247.081
80.5956
32.5519
20.7636
74.3998
19.1218
72.6972
19.1486
33.2181
33.0923
20.6732
74.1094
19.1032
72.8688
19.1309
33.3757
133.963
135.796
22.6171
137.991
137.91
388.593
391.368
389.781
382.419
22.454
137.146
138.272
135.456
134.231
391.273
387.885
35.2529
75.7493
19.2962
20.7902
34.7797
77.4811
19.2988
85.2909
248.594
84.705
257.766
35.5984
19.266
73.8045
20.7411
35.3518
19.2771
75.1939
82.1601
257.209
255.984
84.6707
33.7533
20.9124
76.5429
19.2949
76.0127
19.3037
34.6659
83.1209
257.818
247.619
85.573
35.0613
20.8193
19.2668
76.0052
19.2788
72.9295
34.8276
84.2869
247.78
81.6802
257.505
34.5738
19.3043
75.0737
20.8639
33.6818
19.3105
76.1067
84.2762
255.271
82.8254
257.684
33.7939
20.8405
73.9965
19.3072
73.0043
19.3066
34.2102
82.3172
257.336
251.37
82.6321
33.1715
20.853
19.2895
75.9399
19.3038
74.4279
34.8511
80.6167
257.297
251.37
85.0907
133.172
132.933
22.5377
138.36
135.312
386.489
389.185
391.191
386.624
22.3333
137.816
135.612
133.66
131.812
389.604
385.834
33.4247
19.1545
72.288
20.7037
33.0249
19.1609
74.4616
80.0243
251.401
77.853
254.3
81.8145
250.183
77.1652
255.183
32.0125
20.5729
19.115
74.3124
19.119
70.2062
33.2742
32.9571
20.6973
19.1351
74.488
19.1632
72.268
33.5295
77.3317
254.527
252.027
79.9975
80.5208
256.138
247.158
81.6821
388.136
387.909
386.859
389.524
22.4186
137.299
137.067
137.159
133.963
391.686
390.744
389.927
381.256
385.906
390.075
391.201
392.783
130.775
133.521
22.6606
136.776
139.489
389.319
386.581
392.443
388.957
22.4421
136.385
138.773
134.122
136.424
80.4994
249.367
78.9484
254.735
33.3645
70.6255
19.1376
20.726
32.3515
74.4131
19.1346
33.3325
72.0028
19.118
20.6657
32.8326
73.541
19.1415
77.7756
254.171
246.158
78.6229
78.3627
253.882
248.156
80.4944
32.8246
20.7409
73.8383
19.1275
71.7243
19.1375
32.987
32.9063
20.6549
73.6999
19.1116
70.0014
19.119
33.2056
133.08
135.443
22.662
136.673
137.964
388.944
391.487
389.16
386.744
22.3396
136.185
137.281
133.069
133.676
390.58
387.788
34.652
75.0659
19.3127
20.8271
34.3787
76.7313
19.3073
84.1129
254.172
81.4737
257.039
34.7424
19.2721
72.9229
20.848
34.9057
19.2812
75.6943
80.6246
253.501
249.388
81.4182
34.1432
20.8311
76.2414
19.2918
75.0905
19.3062
34.4826
78.9042
257.835
255.088
83.4921
33.9616
20.756
19.2592
76.0383
19.273
72.7092
34.3986
85.6241
253.525
83.4984
257.714
34.9439
19.2974
73.1234
20.9194
34.4096
19.291
76.3131
85.0606
251.872
80.8579
257.3
34.1437
20.8678
75.3502
19.3467
72.0779
19.3412
35.2231
83.7163
256.914
253.627
85.5299
34.2616
20.9277
19.2843
76.1411
19.2898
73.3943
34.7248
83.2514
257.451
250.54
84.4903
133.768
133.994
22.541
137.445
135.992
386.667
389.422
388.18
389.359
22.4473
138.705
136.908
134.691
130.349
389.925
387.687
33.5544
19.1595
72.3362
20.6843
32.9675
19.1559
74.7103
80.9119
252.625
76.8074
255.066
81.9992
250.656
77.8848
255.656
33.0225
20.6464
19.126
72.5846
19.1184
71.9376
33.1081
32.6241
20.6898
19.1426
74.813
19.1592
73.0846
33.7585
77.7945
255.767
251.824
81.2344
80.3596
255.857
249.416
81.6236
384.732
390.713
386.96
390.619
22.3762
138.682
137.619
137.486
135.006
392.603
389.836
390.173
383.104
382.046
389.539
388.607
392.389
132.273
134.601
22.681
136.112
138.492
389.059
384.896
392.723
385.285
22.4245
136.521
138.582
133.452
134.755
80.0095
248.807
77.8103
254.124
32.9428
72.2246
19.1545
20.6882
31.8569
74.339
19.1493
33.1041
72.3169
19.1428
20.7303
32.9092
73.8382
19.1384
77.4737
254.76
251.699
77.9465
77.313
254.634
250.441
80.0703
32.5595
20.687
74.1201
19.1435
73.4185
19.1494
32.961
32.1341
20.6555
72.8102
19.132
72.7006
19.1398
33.2239
132.442
134.069
22.5718
136.269
137.76
386.294
387.49
388.582
381.652
22.4375
138.259
137.692
130.934
133.29
391.098
389.56
34.1693
73.6753
19.2901
20.7951
33.7086
76.0726
19.3004
82.6231
249.361
81.1199
257.083
33.8813
19.2649
74.3807
20.793
33.1548
19.2623
75.3309
81.7443
253.983
250.428
81.0355
33.8057
20.9076
75.9339
19.2699
74.8159
19.2825
34.1869
79.7248
257.442
247.477
82.5614
32.8053
20.8002
19.2412
76.1237
19.267
74.6846
33.8976
85.3152
254
83.6727
257.476
34.6897
19.3181
73.4625
20.8963
33.7315
19.317
76.3176
84.7473
253.138
83.4889
257.742
34.0019
20.8728
75.8907
19.3258
73.0939
19.3342
34.3766
82.4296
257.355
248.331
84.3806
33.9946
20.8177
19.3
76.1496
19.3225
73.2901
34.644
80.1848
255.51
253.171
84.5263
133.885
130.444
22.6012
139.259
137.239
387.042
389.573
388.024
388.646
22.4803
139.116
136.804
136.632
134.407
389.994
385.46
33.5841
19.1609
71.0269
20.5863
33.1265
19.1485
74.7333
81.1297
253.769
78.4436
255.375
81.9397
246.371
77.537
255.846
32.6109
20.6041
19.1543
73.607
19.1316
73.7101
33.3228
33.0526
20.7127
19.1306
74.2538
19.142
71.2005
33.7539
79.1102
255.21
251.289
81.0853
80.546
255.25
247.879
81.7588
385.828
391.628
386.969
389.169
22.5336
137.272
137.358
135.27
132.935
387.708
384.533
389.411
385.822
381.162
386.892
388.684
391.164
133.224
134.789
22.7124
137.144
138.803
387.431
386.971
390.08
387.945
22.527
135.489
138.704
133.213
136.869
80.4879
252.013
76.3866
253.896
33.0008
70.8194
19.1731
20.7444
31.8689
74.1394
19.1559
33.0869
71.363
19.1823
20.7135
32.0638
74.7293
19.1502
77.0078
253.006
246.419
79.4663
76.8492
246.342
250.972
77.9016
32.5024
20.6907
74.175
19.1065
73.3123
19.1399
32.2567
32.7617
20.6927
72.445
19.0945
71.876
19.152
32.2996
131.677
133.636
22.6083
137.961
137.913
385.079
391.148
387.253
385.87
22.4249
136.404
137.663
133.161
133.371
389.94
382.303
34.1618
75.0518
19.2784
20.7568
33.6314
76.5832
19.283
82.926
248.251
80.244
253.723
34.242
19.2477
73.5286
20.7502
33.0321
19.2691
75.1625
79.8218
256.869
249.375
83.5986
33.5659
20.864
75.7129
19.2329
75.8528
19.256
34.3409
79.3531
255.172
248.73
82.6046
33.0648
20.7493
19.2189
75.9496
19.2494
72.2865
34.2386
84.6955
250.706
80.1436
257.727
34.5135
19.3055
73.862
20.8867
34.0719
19.2956
76.4929
84.5741
256.029
80.3179
257.725
33.8559
20.8494
75.4736
19.3017
72.7233
19.3159
34.2753
82.8974
251.789
254.267
82.8357
33.4209
20.8692
19.2594
77.4182
19.2898
76.3141
34.5323
83.2743
256.606
257.165
84.1078
133.006
132.119
22.5461
139.565
136.86
386.495
388.986
388.466
388.109
22.304
137.852
136.695
136.366
133.1
387.298
385.882
33.8899
19.1674
72.0413
20.6697
32.8992
19.1406
74.3517
81.0597
251.643
77.3218
254.79
82.2784
247.683
80.9125
253.957
32.9275
20.6854
19.134
73.3663
19.1259
71.3828
33.3124
33.2297
20.6625
19.0912
74.4425
19.1504
70.6255
33.6368
79.1774
252.609
250.712
82.6162
81.0075
249.612
248.221
80.4643
391.14
390.93
385.689
389.557
22.3126
139.479
135.65
136.461
135.342
390.307
389.368
387.515
386.071
383.87
383.592
385.58
381.89
132.561
137.102
22.649
137.951
140.308
577.531
387.317
576.862
388.568
22.5787
159.045
169.473
136.944
136.232
83.7557
254.066
77.8926
255.359
34.734
71.9091
19.1819
20.5964
32.0893
74.9659
19.2993
34.7337
72.3086
19.173
20.646
32.5369
78.0568
19.3297
83.532
1007.29
249.632
100.077
81.909
1008.63
248.622
94.5823
34.9565
20.8881
241.593
19.966
73.5404
19.2559
39.4157
34.5446
20.8531
241.394
19.9952
77.2988
19.2736
39.6153
133.118
132.634
22.7634
138.665
139.132
386.846
388.785
576.726
385.904
22.7598
161.751
171.17
134.759
137.958
576.147
387.446
34.4466
73.1891
19.2263
20.639
33.8998
76.9314
19.2619
86.1478
253.426
82.7154
255.399
34.89
19.2076
72.9633
20.5538
33.1485
19.2272
77.4318
82.8006
1007.99
248.925
100.962
33.9125
20.8092
242.147
19.9197
75.4189
19.2611
39.4017
84.8246
1008.54
250.891
95.2837
34.74
20.753
19.947
242.364
19.1858
75.2586
39.3005
87.0052
257.355
83.8491
256.076
35.0702
19.2425
73.9378
20.6644
33.4226
19.2607
78.6932
86.1577
254.753
82.6401
256.383
35.4209
20.8729
242.081
20.0124
76.8097
19.2166
41.5666
84.347
1007.86
249.44
95.516
34.8819
20.8355
19.9665
243.693
19.2199
77.803
39.1845
85.6489
1009.08
251.342
95.5579
130.974
135.232
22.6009
138.356
138.543
383.738
388.144
576.108
387.572
22.4021
168.688
168.414
137.749
137.448
576.459
386.526
36.0381
19.1709
72.7249
20.6097
33.705
19.3445
78.8372
86.0015
246.796
82.2327
254.935
85.5015
257.233
82.1106
256.653
35.738
20.7951
19.9445
242.324
19.3402
76.9846
40.4599
35.8084
20.8303
20.0391
243.203
19.3103
76.9019
41.6607
82.4999
1007.26
249.653
93.7935
82.7647
1009.33
249.949
99.8897
386.514
390.012
384.694
388.339
22.6239
175.204
158.613
140.792
134.84
576.14
389.27
578.142
386.67
1660.22
591.706
1660.75
590.945
325.356
324.066
23.8138
366.301
364.248
23.7494
336.85
334.515
134.252
1796.32
153.153
383.96
52.367
264.061
19.4862
21.0743
45.8132
231
19.6182
52.9929
263.864
19.4539
21.0437
48.4655
229.096
19.617
45.445
21.2655
218.958
19.9093
45.4958
21.3295
216.809
19.8428
325.634
323.591
23.6538
363.289
366.501
1661.09
592.126
23.6345
333.104
337.403
52.1142
264.756
19.4766
21.0992
46.71
228.631
19.6319
133.527
1796.45
155.413
384.449
52.6071
19.4381
263.982
21.0426
48.3364
19.6277
231.306
45.1503
21.3006
215.845
19.8491
45.3421
21.3373
19.966
220.143
18.8343
17.9393
17.7656
19.2009
18.0675
18.7267
18.7333
18.4977
17.7485
17.7466
19.19
17.6934
18.7387
18.7401
18.7041
17.7835
17.6927
19.2062
17.9931
18.7322
18.6585
18.8312
19.8282
19.1016
19.0877
19.0971
19.7642
19.0882
19.0902
18.7761
19.7468
19.0984
19.117
18.9456
19.7488
19.0996
19.044
134.832
1796.46
155.269
385.81
53.7732
19.4887
265.52
21.087
48.3157
19.6512
230.358
134.275
1796.46
153.948
387.737
46.35
21.2208
220.446
19.947
46.3463
21.3628
19.8677
215.822
324.178
323.288
23.6981
366.399
364.574
1660.95
590.09
23.8449
338.776
334.495
53.4222
19.5223
265.789
21.0911
48.1595
19.6494
229.496
136.031
1796.38
155.446
384.609
136.729
1796.33
153.112
384.874
45.4235
21.283
19.9404
216.449
46.0783
21.3764
19.9437
216.627
1660.65
590.469
1659.92
590.691
24.0378
333.779
333.809
555.661
554.199
127.262
391.691
126.843
389.375
552.341
556.386
128.603
389.249
127.066
390.403
133.731
391.745
132.808
388.125
556.212
553.116
130.677
388.717
130.837
389.493
551.891
553.322
389.53
399.559
399.645
190.692
266.944
49.6837
90.8678
265.706
48.4351
90.0736
298.181
77.2139
271.414
92.8845
270.264
89.6404
289.961
409.512
144.624
250.873
408.841
138.214
296.932
77.5435
272.26
92.1673
297.305
265.592
90.6322
406.898
144.681
248.945
143.622
405.12
385.303
384.875
302.835
81.9663
94.9598
277.013
95.868
272.273
293.888
413.177
147.907
252.605
409.156
142.136
302.166
82.7775
96.6731
277.812
301.535
94.8298
275.278
411.406
148.672
251.888
147.626
411.501
388.624
386.909
191.883
396.214
399.806
399.148
394.882
187.689
90.7794
50.0119
268.972
133.558
87.865
47.8078
265.358
90.5791
48.3316
267.539
134.137
87.0207
46.6438
262.527
191.002
399.994
399.953
186.101
397.251
395.95
89.0989
266.41
138.333
50.1314
49.5288
266.659
90.2672
88.6072
266.611
132.598
48.7302
48.2575
260.825
87.5389
298.478
77.727
272.008
93.6602
266.929
90.6069
293.609
410.077
145.601
247.224
405.747
139.812
297.147
78.1978
273.13
93.662
296.922
269.534
91.8511
407.697
145.395
254.365
144.751
408.501
381.224
388.72
303.401
82.3525
96.7318
276.771
93.2426
271.441
298.384
412.674
148.236
247.95
411.567
141.553
302.71
83.8485
96.9891
276.661
297.478
94.2442
273.486
409.375
148.173
255.912
147.097
408.286
388.798
386.838
192.112
399.522
400.058
398.662
395.825
187.499
91.5759
50.584
268.576
137.025
90.945
49.1446
262.733
90.2838
49.047
268.218
135.324
89.3924
47.652
259.924
191.177
399.936
400.63
188.44
393.653
397.472
87.8785
267.655
135.319
50.2071
48.6528
261.673
87.5687
87.228
267.591
133.393
48.8921
47.3129
266.824