/*--------------------------------*- C++ -*----------------------------------*\
| =========                 |                                                 |
| \\      /  F ield         | OpenFOAM: The Open Source CFD Toolbox           |
|  \\    /   O peration     | Version:  2206                                  |
|   \\  /    A nd           | Website:  www.openfoam.com                      |
|    \\/     M anipulation  |                                                 |
\*---------------------------------------------------------------------------*/
FoamFile
{
    version     2.0;
    format      ascii;
    arch        "LSB;label=32;scalar=64";
    class       volScalarField;
    location    "20";
    object      p;
}
// * * * * * * * * * * * * * * * * * * * * * * * * * * * * * * * * * * * * * //

dimensions      [0 2 -2 0 0 0 0];

internalField   nonuniform List<scalar> 
66940
(
-0.0271847
-0.0271847
-0.0271848
-0.027166
-0.0274888
-0.0274888
-0.0274889
-0.0274702
-0.0277935
-0.0277935
-0.0277936
-0.0277749
-0.0280993
-0.0280993
-0.0280994
-0.0280807
-0.0284055
-0.0284056
-0.0284056
-0.0283869
-0.0287115
-0.0287116
-0.0287116
-0.0286929
-0.0290166
-0.0290166
-0.0290166
-0.028998
-0.0293209
-0.0293209
-0.0293208
-0.0293023
-0.0296248
-0.0296247
-0.0296247
-0.0296061
-0.0299261
-0.0299268
-0.0299269
-0.029909
-0.0301784
-0.0302003
-0.0302002
-0.0301942
-0.029786
-0.0300462
-0.0300376
-0.0302101
-0.0271273
-0.0271087
-0.0271088
-0.0271273
-0.0271087
-0.0271087
-0.0271088
-0.0271089
-0.0271273
-0.0271087
-0.0271087
-0.0271272
-0.0271661
-0.0274313
-0.0271848
-0.0271847
-0.0274128
-0.0274128
-0.027166
-0.0274313
-0.0271848
-0.0271848
-0.0274127
-0.0274127
-0.0271844
-0.0274128
-0.0274127
-0.0271661
-0.0274313
-0.0271848
-0.0274129
-0.0274128
-0.0274313
-0.0274702
-0.0277357
-0.0274889
-0.0274889
-0.0277172
-0.0277172
-0.0274701
-0.0277358
-0.0274888
-0.0274888
-0.0277172
-0.0277172
-0.0274888
-0.0277172
-0.0277173
-0.0274702
-0.0277358
-0.027489
-0.0277173
-0.0277172
-0.0277358
-0.0277748
-0.0280413
-0.0277935
-0.0277935
-0.0280227
-0.0280227
-0.0277748
-0.0280413
-0.0277935
-0.0277935
-0.0280227
-0.0280228
-0.0277934
-0.0280227
-0.0280228
-0.0277748
-0.0280414
-0.0277937
-0.0280228
-0.0280228
-0.0280414
-0.0280805
-0.0283476
-0.0280993
-0.0280993
-0.028329
-0.028329
-0.0280805
-0.0283476
-0.0280993
-0.0280993
-0.028329
-0.028329
-0.0280993
-0.028329
-0.0283291
-0.0280806
-0.0283477
-0.0280994
-0.0283291
-0.028329
-0.0283477
-0.0283868
-0.0286538
-0.0284056
-0.0284056
-0.0286351
-0.0286352
-0.0283869
-0.0286538
-0.0284055
-0.0284056
-0.0286351
-0.0286351
-0.0284055
-0.0286352
-0.0286352
-0.0283869
-0.0286538
-0.0284057
-0.0286352
-0.0286352
-0.0286538
-0.0286929
-0.0289591
-0.0287115
-0.0287116
-0.0289405
-0.0289406
-0.0286929
-0.0289591
-0.0287115
-0.0287115
-0.0289405
-0.0289405
-0.0287116
-0.0289406
-0.0289406
-0.0286929
-0.0289591
-0.0287116
-0.0289405
-0.0289405
-0.0289592
-0.028998
-0.0292636
-0.0290166
-0.0290167
-0.0292451
-0.0292451
-0.028998
-0.0292636
-0.0290166
-0.0290166
-0.0292451
-0.029245
-0.0290165
-0.0292451
-0.029245
-0.028998
-0.0292635
-0.0290168
-0.029245
-0.0292451
-0.0292636
-0.0293022
-0.0295676
-0.0293209
-0.0293209
-0.0295491
-0.0295491
-0.0293022
-0.0295676
-0.0293208
-0.0293208
-0.0295491
-0.029549
-0.0293208
-0.0295492
-0.0295491
-0.0293021
-0.0295675
-0.0293209
-0.0295491
-0.029549
-0.0295675
-0.0296061
-0.0298709
-0.0296248
-0.0296248
-0.0298524
-0.0298524
-0.029606
-0.0298709
-0.0296247
-0.0296247
-0.0298525
-0.0298523
-0.0296246
-0.0298525
-0.0298524
-0.029606
-0.0298708
-0.0296248
-0.0298524
-0.0298524
-0.0298708
-0.029909
-0.0301669
-0.0299269
-0.0299269
-0.0301452
-0.0301451
-0.0299089
-0.0301668
-0.0299268
-0.0299268
-0.0301456
-0.0301455
-0.0299268
-0.0301456
-0.0301455
-0.0299089
-0.0301669
-0.029927
-0.0301452
-0.0301451
-0.0301668
-0.0301942
-0.030269
-0.0302
-0.0302002
-0.0302295
-0.0302286
-0.0301941
-0.0302714
-0.0302002
-0.0302002
-0.0302288
-0.0302293
-0.0302002
-0.0302291
-0.0302293
-0.0301943
-0.0302689
-0.0302003
-0.0302293
-0.0302292
-0.0302691
-0.0302099
-0.0300373
-0.0300365
-0.030218
-0.030037
-0.0300371
-0.0297781
-0.0297863
-0.0297865
-0.0300371
-0.03021
-0.0300377
-0.0269747
-0.0271087
-0.0271089
-0.0271087
-0.0271088
-0.0269741
-0.0269573
-0.0269742
-0.0269575
-0.0269754
-0.0269749
-0.0269745
-0.0272788
-0.0271667
-0.0271666
-0.0272789
-0.0271666
-0.0272789
-0.0272788
-0.0271667
-0.0271667
-0.0272788
-0.0271846
-0.0271848
-0.0271845
-0.0274128
-0.0274127
-0.0274127
-0.0274127
-0.0272776
-0.0271675
-0.0271846
-0.0272607
-0.0271677
-0.0272779
-0.0272607
-0.0271666
-0.0272788
-0.0272777
-0.0271847
-0.0271675
-0.0272608
-0.0271678
-0.0272608
-0.027278
-0.0271666
-0.0271667
-0.0272793
-0.0272788
-0.0272786
-0.0275827
-0.0274707
-0.0274708
-0.0275828
-0.0274707
-0.0275829
-0.0275829
-0.0274706
-0.0274706
-0.0275829
-0.0274889
-0.0274889
-0.0274889
-0.0277172
-0.0277172
-0.0277172
-0.0277172
-0.0275818
-0.0274715
-0.0274888
-0.0275649
-0.0274717
-0.027582
-0.0275649
-0.0274706
-0.0275829
-0.0275817
-0.0274889
-0.0274716
-0.027565
-0.027472
-0.0275649
-0.027582
-0.0274707
-0.0274709
-0.0275835
-0.0275829
-0.0275828
-0.0278877
-0.0277752
-0.0277753
-0.0278878
-0.0277751
-0.0278878
-0.027888
-0.0277752
-0.0277752
-0.027888
-0.0277935
-0.0277935
-0.0277935
-0.0280228
-0.0280227
-0.0280228
-0.0280228
-0.0278869
-0.0277761
-0.0277935
-0.0278699
-0.0277764
-0.0278871
-0.0278698
-0.0277752
-0.027888
-0.0278868
-0.0277935
-0.0277762
-0.0278699
-0.0277765
-0.0278699
-0.0278871
-0.0277753
-0.0277755
-0.0278884
-0.027888
-0.0278878
-0.0281939
-0.0280809
-0.028081
-0.0281939
-0.0280808
-0.028194
-0.0281941
-0.0280809
-0.028081
-0.028194
-0.0280993
-0.0280993
-0.0280993
-0.028329
-0.028329
-0.028329
-0.028329
-0.028193
-0.0280818
-0.0280992
-0.0281758
-0.0280821
-0.0281932
-0.0281758
-0.0280809
-0.0281941
-0.0281929
-0.0280993
-0.028082
-0.0281759
-0.0280823
-0.0281759
-0.0281931
-0.0280811
-0.0280811
-0.0281945
-0.028194
-0.028194
-0.0285003
-0.0283873
-0.0283875
-0.0285004
-0.0283873
-0.0285005
-0.0285004
-0.0283874
-0.0283874
-0.0285004
-0.0284056
-0.0284056
-0.0284056
-0.0286351
-0.0286351
-0.0286351
-0.0286351
-0.0284993
-0.0283882
-0.0284055
-0.0284822
-0.0283884
-0.0284995
-0.0284821
-0.0283874
-0.0285005
-0.0284991
-0.0284056
-0.0283884
-0.0284822
-0.0283886
-0.0284821
-0.0284995
-0.0283875
-0.0283876
-0.0285008
-0.0285005
-0.0285003
-0.0288061
-0.0286935
-0.0286936
-0.0288062
-0.0286935
-0.0288063
-0.0288062
-0.0286934
-0.0286935
-0.0288062
-0.0287115
-0.0287115
-0.0287116
-0.0289405
-0.0289405
-0.0289404
-0.0289405
-0.0288051
-0.0286944
-0.0287115
-0.028788
-0.0286945
-0.0288054
-0.028788
-0.0286935
-0.0288062
-0.028805
-0.0287115
-0.0286944
-0.028788
-0.0286947
-0.0287879
-0.0288053
-0.0286936
-0.0286937
-0.0288066
-0.0288062
-0.0288061
-0.0291109
-0.0289986
-0.0289988
-0.0291109
-0.0289987
-0.0291111
-0.029111
-0.0289986
-0.0289986
-0.029111
-0.0290166
-0.0290166
-0.0290166
-0.029245
-0.029245
-0.0292449
-0.0292449
-0.0291099
-0.0289995
-0.0290166
-0.0290929
-0.0289997
-0.0291102
-0.0290929
-0.0289985
-0.029111
-0.0291097
-0.0290166
-0.0289995
-0.0290929
-0.0289998
-0.0290928
-0.02911
-0.0289987
-0.0289988
-0.0291115
-0.029111
-0.0291107
-0.0294151
-0.029303
-0.0293031
-0.0294152
-0.029303
-0.0294152
-0.0294151
-0.0293029
-0.0293029
-0.0294152
-0.0293209
-0.0293209
-0.0293209
-0.0295489
-0.0295489
-0.0295488
-0.0295488
-0.029414
-0.0293038
-0.0293208
-0.0293972
-0.029304
-0.0294143
-0.0293971
-0.0293028
-0.0294152
-0.0294138
-0.0293208
-0.0293038
-0.0293971
-0.0293041
-0.029397
-0.0294141
-0.029303
-0.029303
-0.0294156
-0.029415
-0.0294149
-0.0297191
-0.0296069
-0.029607
-0.0297191
-0.029607
-0.0297191
-0.0297191
-0.0296069
-0.0296068
-0.029719
-0.0296248
-0.0296248
-0.0296248
-0.0298508
-0.0298507
-0.0298507
-0.0298507
-0.0297181
-0.0296077
-0.0296247
-0.029701
-0.0296077
-0.0297181
-0.0297008
-0.0296068
-0.029719
-0.029718
-0.0296247
-0.0296077
-0.0297009
-0.0296078
-0.0297007
-0.029718
-0.029607
-0.0296071
-0.0297194
-0.0297189
-0.0297186
-0.030027
-0.0299126
-0.0299109
-0.0300259
-0.0299125
-0.030026
-0.030027
-0.0299125
-0.0299108
-0.0300259
-0.0299261
-0.0299261
-0.0299261
-0.0301281
-0.0301281
-0.030128
-0.030128
-0.0300248
-0.0299123
-0.0299261
-0.0300024
-0.0299103
-0.0300248
-0.0300003
-0.0299124
-0.030026
-0.0300246
-0.0299262
-0.0299124
-0.0300022
-0.0299104
-0.03
-0.0300248
-0.0299126
-0.0299126
-0.0300213
-0.0300249
-0.0300249
-0.0303756
-0.0302244
-0.0302152
-0.030405
-0.0302288
-0.0303842
-0.0303756
-0.0302244
-0.0302144
-0.030405
-0.0301784
-0.0301785
-0.0301785
-0.0300569
-0.0300547
-0.0300571
-0.030057
-0.0303349
-0.0302139
-0.0301885
-0.030257
-0.0302033
-0.0303724
-0.030235
-0.0302288
-0.0303841
-0.0303345
-0.0301878
-0.0302144
-0.0302571
-0.0302038
-0.0302348
-0.0303724
-0.0302225
-0.0302227
-0.0302828
-0.0303833
-0.030383
-0.0307901
-0.0306179
-0.0305105
-0.0315426
-0.0307326
-0.0317666
-0.0307865
-0.0306177
-0.03051
-0.0315419
-0.0288879
-0.0297592
-0.0297588
-0.0294032
-0.0296993
-0.029123
-0.0291202
-0.0302587
-0.0305144
-0.02992
-0.0296103
-0.0303464
-0.0310558
-0.0293109
-0.030732
-0.0317648
-0.0302597
-0.029921
-0.0305146
-0.0296012
-0.0303471
-0.0293155
-0.0310572
-0.030669
-0.0306698
-0.0297887
-0.0313198
-0.0313216
-0.0271267
-0.0270145
-0.0271269
-0.0270147
-0.0270141
-0.0271266
-0.0271267
-0.0270147
-0.0270148
-0.0269746
-0.0269566
-0.0269737
-0.0270145
-0.0271267
-0.0270146
-0.0271263
-0.0270145
-0.0271267
-0.0270146
-0.0271263
-0.0270154
-0.0270324
-0.0271257
-0.0271087
-0.0270154
-0.0270321
-0.0271254
-0.0270154
-0.0270325
-0.0271257
-0.0271087
-0.0270155
-0.0270322
-0.0271254
-0.0269755
-0.0269746
-0.0269749
-0.0269751
-0.0271267
-0.0270145
-0.0270142
-0.0271266
-0.0271267
-0.0270147
-0.0270148
-0.0271269
-0.0270148
-0.0270148
-0.0271269
-0.0270148
-0.0271269
-0.0270159
-0.0270328
-0.027126
-0.0271087
-0.0270157
-0.0270327
-0.0271258
-0.0270148
-0.0271269
-0.0270147
-0.0271269
-0.0270159
-0.0270327
-0.0271087
-0.027126
-0.0270327
-0.0270156
-0.0271258
-0.0269751
-0.026975
-0.0269741
-0.0269572
-0.0269574
-0.0269742
-0.0269751
-0.026975
-0.0270159
-0.0270329
-0.027126
-0.0271087
-0.0270157
-0.0270329
-0.0271257
-0.0270148
-0.0271268
-0.0270148
-0.0271269
-0.0270159
-0.0270329
-0.0271088
-0.0271259
-0.027033
-0.0270157
-0.0271258
-0.0270148
-0.0271268
-0.0270148
-0.0271269
-0.0271269
-0.0270147
-0.0270141
-0.0271267
-0.0271265
-0.0270148
-0.0270146
-0.0271267
-0.0270144
-0.0270154
-0.0270324
-0.0271086
-0.0271257
-0.027032
-0.0270154
-0.0271253
-0.0270154
-0.0270324
-0.0271086
-0.0271257
-0.0270321
-0.0270154
-0.0271253
-0.0270144
-0.0271266
-0.0270146
-0.0271263
-0.0270144
-0.0271267
-0.0270146
-0.0271263
-0.0269751
-0.0269746
-0.0270141
-0.0271267
-0.0271265
-0.0270148
-0.0270146
-0.0271268
-0.0270148
-0.0271267
-0.0270144
-0.0271667
-0.027279
-0.0271666
-0.0272788
-0.0271667
-0.0271667
-0.0272793
-0.0272788
-0.0272787
-0.0274309
-0.0273187
-0.0274308
-0.0273185
-0.0273182
-0.0274307
-0.0274307
-0.0273188
-0.0273186
-0.0272788
-0.0271667
-0.0271666
-0.0272789
-0.0272777
-0.0271675
-0.0271848
-0.0272608
-0.0271678
-0.0272779
-0.0272609
-0.0272777
-0.0271675
-0.0271848
-0.0272608
-0.0271678
-0.0272779
-0.0272608
-0.0273189
-0.0274309
-0.0273188
-0.0274307
-0.0273189
-0.0274309
-0.0273188
-0.0274307
-0.02732
-0.0273368
-0.0274299
-0.0274128
-0.0273196
-0.0273368
-0.0274296
-0.02732
-0.0273368
-0.0274299
-0.0274128
-0.0273196
-0.0273368
-0.0274296
-0.0271667
-0.0271667
-0.0272793
-0.0272787
-0.0272787
-0.0271666
-0.0272788
-0.0274309
-0.0273187
-0.0273181
-0.0274307
-0.0274307
-0.0273188
-0.0273186
-0.0274308
-0.0273185
-0.0272777
-0.0271675
-0.0271848
-0.0272608
-0.0271678
-0.0272779
-0.0272608
-0.0272788
-0.0271666
-0.0271667
-0.0272788
-0.0272777
-0.0271848
-0.0271675
-0.0272608
-0.0271678
-0.0272608
-0.0272779
-0.0273186
-0.0274308
-0.0273186
-0.0274308
-0.0273196
-0.0273368
-0.0274299
-0.0274127
-0.0273195
-0.0273367
-0.0274296
-0.0273186
-0.0274308
-0.0273185
-0.0274308
-0.0273196
-0.0273367
-0.0274127
-0.0274299
-0.0273367
-0.0273195
-0.0274296
-0.0272788
-0.0271666
-0.0271666
-0.0272788
-0.0272776
-0.0271845
-0.0271675
-0.0272607
-0.0271677
-0.0272607
-0.0272778
-0.0272788
-0.0271666
-0.0271666
-0.0272788
-0.0273196
-0.0273367
-0.0274299
-0.0274127
-0.0273194
-0.0273367
-0.0274296
-0.0273185
-0.0274308
-0.0273185
-0.0274308
-0.0273196
-0.0273366
-0.0274127
-0.0274299
-0.0273367
-0.0273195
-0.0274296
-0.0273185
-0.0274308
-0.0273185
-0.0274308
-0.0271667
-0.0271667
-0.0272793
-0.0272787
-0.0272788
-0.0271666
-0.0272789
-0.0274308
-0.0273185
-0.0273182
-0.0274307
-0.0274307
-0.0273187
-0.0273187
-0.0274309
-0.0273187
-0.0272777
-0.0271847
-0.0271674
-0.0272608
-0.0271678
-0.0272608
-0.0272779
-0.0272788
-0.0271666
-0.0271666
-0.027279
-0.0272788
-0.0271666
-0.0271666
-0.0272789
-0.02732
-0.0273369
-0.0274128
-0.0274299
-0.0273368
-0.0273196
-0.0274297
-0.02732
-0.0273369
-0.0274128
-0.0274299
-0.0273368
-0.0273196
-0.0274297
-0.0273189
-0.0274309
-0.0273188
-0.0274308
-0.0273189
-0.0274309
-0.0273188
-0.0274308
-0.0271665
-0.0272788
-0.0271666
-0.0272789
-0.0273181
-0.0274307
-0.0274307
-0.0273187
-0.0273188
-0.0274308
-0.0273185
-0.0274309
-0.0273187
-0.0274706
-0.0275828
-0.0274706
-0.0275828
-0.0274708
-0.0274707
-0.0275834
-0.0275827
-0.0275828
-0.0277352
-0.0276227
-0.0277352
-0.0276227
-0.0276224
-0.027735
-0.0277351
-0.0276228
-0.0276228
-0.0275827
-0.0274707
-0.0274708
-0.0275828
-0.0275817
-0.0274716
-0.0274889
-0.0275649
-0.0274719
-0.0275819
-0.0275649
-0.0275817
-0.0274716
-0.0274889
-0.027565
-0.0274719
-0.0275819
-0.0275649
-0.0276228
-0.0277351
-0.0276227
-0.0277351
-0.0276228
-0.0277351
-0.0276228
-0.027735
-0.027624
-0.027641
-0.0277343
-0.0277172
-0.0276237
-0.027641
-0.0277339
-0.027624
-0.027641
-0.0277342
-0.0277172
-0.0276237
-0.027641
-0.0277339
-0.0274708
-0.0274707
-0.0275835
-0.0275827
-0.0275828
-0.0274706
-0.0275829
-0.0277352
-0.0276227
-0.0276224
-0.027735
-0.0277351
-0.0276229
-0.0276228
-0.0277352
-0.0276227
-0.0275818
-0.0274715
-0.0274888
-0.0275649
-0.0274717
-0.027582
-0.0275649
-0.0275829
-0.0274706
-0.0274706
-0.0275829
-0.0275818
-0.0274888
-0.0274715
-0.0275649
-0.0274717
-0.0275649
-0.027582
-0.0276228
-0.0277352
-0.0276227
-0.0277353
-0.0276239
-0.027641
-0.0277343
-0.0277172
-0.0276236
-0.027641
-0.0277342
-0.0276228
-0.0277353
-0.0276228
-0.0277353
-0.0276239
-0.027641
-0.0277172
-0.0277344
-0.027641
-0.0276236
-0.0277342
-0.0275829
-0.0274706
-0.0274705
-0.0275829
-0.0275818
-0.0274889
-0.0274715
-0.027565
-0.0274717
-0.027565
-0.0275821
-0.0275829
-0.0274706
-0.0274706
-0.027583
-0.0276238
-0.027641
-0.0277344
-0.0277172
-0.0276236
-0.027641
-0.0277342
-0.0276227
-0.0277352
-0.0276227
-0.0277353
-0.0276239
-0.027641
-0.0277172
-0.0277345
-0.027641
-0.0276237
-0.0277342
-0.0276228
-0.0277353
-0.0276228
-0.0277353
-0.0274707
-0.0274708
-0.0275835
-0.0275829
-0.0275828
-0.0274707
-0.0275829
-0.0277353
-0.0276227
-0.0276224
-0.0277352
-0.0277351
-0.0276229
-0.0276228
-0.0277353
-0.0276227
-0.0275817
-0.0274889
-0.0274717
-0.027565
-0.027472
-0.027565
-0.027582
-0.0275828
-0.0274707
-0.0274708
-0.0275829
-0.0275828
-0.0274708
-0.0274708
-0.0275829
-0.027624
-0.0276411
-0.0277172
-0.0277344
-0.0276411
-0.0276237
-0.0277341
-0.027624
-0.0276411
-0.0277172
-0.0277344
-0.0276411
-0.0276238
-0.027734
-0.0276229
-0.0277352
-0.0276228
-0.0277352
-0.0276229
-0.0277353
-0.0276228
-0.0277352
-0.0274706
-0.027583
-0.0274707
-0.0275829
-0.0276224
-0.0277352
-0.0277352
-0.0276229
-0.027623
-0.0277353
-0.0276228
-0.0277353
-0.0276228
-0.0277751
-0.0278878
-0.0277751
-0.0278879
-0.0277753
-0.0277753
-0.0278884
-0.0278877
-0.0278878
-0.0280408
-0.0279278
-0.0280409
-0.0279279
-0.0279275
-0.0280406
-0.0280407
-0.027928
-0.027928
-0.0278878
-0.0277752
-0.0277753
-0.0278878
-0.0278867
-0.0277761
-0.0277935
-0.0278698
-0.0277764
-0.0278869
-0.0278698
-0.0278867
-0.0277761
-0.0277935
-0.0278699
-0.0277764
-0.0278869
-0.0278698
-0.027928
-0.0280407
-0.0279279
-0.0280406
-0.027928
-0.0280407
-0.0279279
-0.0280406
-0.0279291
-0.0279462
-0.0280398
-0.0280227
-0.0279289
-0.0279462
-0.0280395
-0.0279291
-0.0279462
-0.0280398
-0.0280227
-0.0279288
-0.0279462
-0.0280395
-0.0277753
-0.0277752
-0.0278884
-0.0278877
-0.0278879
-0.0277751
-0.0278879
-0.0280408
-0.0279278
-0.0279276
-0.0280406
-0.0280408
-0.027928
-0.027928
-0.0280408
-0.0279278
-0.0278869
-0.0277761
-0.0277935
-0.0278698
-0.0277764
-0.027887
-0.0278699
-0.027888
-0.0277753
-0.0277752
-0.027888
-0.0278869
-0.0277935
-0.0277761
-0.0278699
-0.0277764
-0.0278699
-0.0278871
-0.027928
-0.0280409
-0.0279279
-0.0280408
-0.0279291
-0.0279463
-0.02804
-0.0280227
-0.0279288
-0.0279462
-0.0280397
-0.027928
-0.0280409
-0.027928
-0.0280408
-0.0279291
-0.0279463
-0.0280227
-0.02804
-0.0279463
-0.0279289
-0.0280397
-0.027888
-0.0277752
-0.0277752
-0.027888
-0.0278869
-0.0277935
-0.0277762
-0.0278699
-0.0277764
-0.0278699
-0.0278871
-0.027888
-0.0277753
-0.0277752
-0.027888
-0.0279291
-0.0279463
-0.02804
-0.0280227
-0.0279288
-0.0279462
-0.0280397
-0.027928
-0.0280408
-0.0279279
-0.0280408
-0.0279291
-0.0279462
-0.0280227
-0.0280401
-0.0279463
-0.0279289
-0.0280397
-0.027928
-0.0280409
-0.027928
-0.0280408
-0.0277754
-0.0277754
-0.0278885
-0.0278879
-0.0278878
-0.0277752
-0.027888
-0.0280409
-0.0279279
-0.0279276
-0.0280408
-0.0280408
-0.0279281
-0.0279281
-0.0280409
-0.027928
-0.0278868
-0.0277935
-0.0277762
-0.0278699
-0.0277765
-0.0278699
-0.027887
-0.0278879
-0.0277753
-0.0277754
-0.027888
-0.0278879
-0.0277753
-0.0277754
-0.027888
-0.0279293
-0.0279464
-0.0280228
-0.02804
-0.0279463
-0.027929
-0.0280397
-0.0279293
-0.0279464
-0.0280228
-0.0280399
-0.0279463
-0.027929
-0.0280396
-0.0279282
-0.0280409
-0.027928
-0.0280408
-0.0279282
-0.0280409
-0.027928
-0.0280408
-0.0277752
-0.027888
-0.0277752
-0.027888
-0.0279276
-0.0280409
-0.0280407
-0.0279281
-0.0279281
-0.028041
-0.027928
-0.0280409
-0.027928
-0.0280808
-0.028194
-0.0280809
-0.028194
-0.028081
-0.028081
-0.0281945
-0.0281939
-0.0281939
-0.0283472
-0.0282341
-0.0283472
-0.0282341
-0.0282338
-0.0283471
-0.0283471
-0.0282342
-0.0282342
-0.0281939
-0.0280809
-0.0280809
-0.0281939
-0.0281927
-0.0280818
-0.0280993
-0.0281759
-0.0280821
-0.028193
-0.0281758
-0.0281928
-0.0280818
-0.0280993
-0.0281759
-0.0280821
-0.028193
-0.0281758
-0.0282343
-0.0283471
-0.0282341
-0.0283471
-0.0282343
-0.0283472
-0.0282341
-0.0283471
-0.0282353
-0.0282524
-0.0283463
-0.028329
-0.0282351
-0.0282524
-0.028346
-0.0282354
-0.0282524
-0.0283462
-0.028329
-0.0282351
-0.0282524
-0.0283459
-0.028081
-0.028081
-0.0281944
-0.0281938
-0.028194
-0.0280809
-0.0281941
-0.0283472
-0.0282341
-0.0282337
-0.0283471
-0.0283472
-0.0282342
-0.0282342
-0.0283473
-0.0282341
-0.0281929
-0.0280819
-0.0280993
-0.0281759
-0.0280821
-0.0281931
-0.0281759
-0.0281941
-0.028081
-0.0280809
-0.0281941
-0.028193
-0.0280993
-0.0280818
-0.0281759
-0.0280821
-0.0281759
-0.0281932
-0.0282342
-0.0283472
-0.0282342
-0.0283473
-0.0282353
-0.0282524
-0.0283464
-0.028329
-0.0282351
-0.0282524
-0.0283461
-0.0282342
-0.0283473
-0.0282342
-0.0283473
-0.0282353
-0.0282525
-0.028329
-0.0283464
-0.0282524
-0.0282351
-0.0283461
-0.0281941
-0.0280809
-0.0280809
-0.0281941
-0.028193
-0.0280993
-0.0280819
-0.0281759
-0.0280821
-0.0281759
-0.0281933
-0.0281941
-0.028081
-0.0280809
-0.0281942
-0.0282353
-0.0282524
-0.0283464
-0.028329
-0.028235
-0.0282524
-0.0283461
-0.0282342
-0.0283473
-0.0282342
-0.0283473
-0.0282353
-0.0282524
-0.028329
-0.0283464
-0.0282524
-0.0282351
-0.0283461
-0.0282342
-0.0283473
-0.0282342
-0.0283473
-0.0280811
-0.0280811
-0.0281945
-0.028194
-0.028194
-0.028081
-0.0281941
-0.0283473
-0.0282342
-0.0282338
-0.0283472
-0.0283471
-0.0282343
-0.0282343
-0.0283473
-0.0282342
-0.0281929
-0.0280993
-0.028082
-0.0281759
-0.0280823
-0.0281759
-0.0281931
-0.028194
-0.028081
-0.0280811
-0.0281941
-0.028194
-0.028081
-0.0280811
-0.0281941
-0.0282355
-0.0282525
-0.028329
-0.0283463
-0.0282525
-0.0282352
-0.028346
-0.0282355
-0.0282525
-0.028329
-0.0283464
-0.0282524
-0.0282352
-0.028346
-0.0282344
-0.0283473
-0.0282342
-0.0283472
-0.0282344
-0.0283472
-0.0282343
-0.0283472
-0.0280809
-0.0281942
-0.028081
-0.0281941
-0.0282337
-0.0283472
-0.0283472
-0.0282343
-0.0282344
-0.0283473
-0.0282342
-0.0283473
-0.0282342
-0.0283873
-0.0285004
-0.0283873
-0.0285005
-0.0283875
-0.0283875
-0.0285007
-0.0285003
-0.0285003
-0.0286534
-0.0285405
-0.0286535
-0.0285405
-0.02854
-0.0286533
-0.0286533
-0.0285406
-0.0285406
-0.0285003
-0.0283874
-0.0283874
-0.0285005
-0.0284991
-0.0283883
-0.0284055
-0.0284821
-0.0283886
-0.0284994
-0.0284821
-0.0284991
-0.0283883
-0.0284056
-0.0284822
-0.0283886
-0.0284994
-0.0284821
-0.0285406
-0.0286534
-0.0285405
-0.0286533
-0.0285406
-0.0286534
-0.0285406
-0.0286533
-0.0285416
-0.0285586
-0.0286524
-0.0286351
-0.0285414
-0.0285586
-0.0286521
-0.0285416
-0.0285586
-0.0286525
-0.0286351
-0.0285415
-0.0285586
-0.0286521
-0.0283875
-0.0283874
-0.0285008
-0.0285002
-0.0285004
-0.0283873
-0.0285005
-0.0286535
-0.0285406
-0.02854
-0.0286533
-0.0286534
-0.0285407
-0.0285406
-0.0286535
-0.0285405
-0.0284992
-0.0283882
-0.0284055
-0.0284821
-0.0283885
-0.0284995
-0.0284821
-0.0285004
-0.0283874
-0.0283874
-0.0285005
-0.0284993
-0.0284056
-0.0283882
-0.0284822
-0.0283885
-0.0284821
-0.0284996
-0.0285405
-0.0286534
-0.0285405
-0.0286534
-0.0285415
-0.0285586
-0.0286525
-0.0286351
-0.0285414
-0.0285586
-0.0286522
-0.0285405
-0.0286535
-0.0285406
-0.0286534
-0.0285415
-0.0285586
-0.0286351
-0.0286525
-0.0285586
-0.0285414
-0.0286523
-0.0285004
-0.0283874
-0.0283873
-0.0285005
-0.0284993
-0.0284056
-0.0283883
-0.0284822
-0.0283885
-0.0284821
-0.0284996
-0.0285004
-0.0283874
-0.0283874
-0.0285005
-0.0285415
-0.0285587
-0.0286526
-0.0286351
-0.0285413
-0.0285586
-0.0286523
-0.0285405
-0.0286535
-0.0285405
-0.0286534
-0.0285415
-0.0285586
-0.0286351
-0.0286526
-0.0285586
-0.0285414
-0.0286523
-0.0285405
-0.0286535
-0.0285406
-0.0286535
-0.0283875
-0.0283875
-0.0285008
-0.0285004
-0.0285003
-0.0283874
-0.0285005
-0.0286535
-0.0285405
-0.02854
-0.0286534
-0.0286533
-0.0285407
-0.0285406
-0.0286535
-0.0285406
-0.0284992
-0.0284056
-0.0283884
-0.0284822
-0.0283886
-0.0284821
-0.0284995
-0.0285003
-0.0283874
-0.0283875
-0.0285005
-0.0285003
-0.0283874
-0.0283875
-0.0285005
-0.0285417
-0.0285587
-0.0286351
-0.0286525
-0.0285586
-0.0285415
-0.0286522
-0.0285417
-0.0285588
-0.0286351
-0.0286525
-0.0285586
-0.0285415
-0.0286522
-0.0285406
-0.0286534
-0.0285406
-0.0286533
-0.0285406
-0.0286535
-0.0285406
-0.0286533
-0.0283874
-0.0285005
-0.0283874
-0.0285005
-0.02854
-0.0286534
-0.0286533
-0.0285407
-0.0285407
-0.0286535
-0.0285406
-0.0286535
-0.0285406
-0.0286935
-0.0288063
-0.0286934
-0.0288063
-0.0286936
-0.0286935
-0.0288066
-0.0288061
-0.0288061
-0.0289587
-0.0288462
-0.0289587
-0.0288461
-0.0288456
-0.0289585
-0.0289586
-0.0288463
-0.0288462
-0.0288061
-0.0286935
-0.0286936
-0.0288063
-0.028805
-0.0286944
-0.0287115
-0.028788
-0.0286947
-0.0288053
-0.028788
-0.028805
-0.0286944
-0.0287116
-0.028788
-0.0286947
-0.0288053
-0.028788
-0.0288463
-0.0289587
-0.0288463
-0.0289586
-0.0288463
-0.0289587
-0.0288463
-0.0289586
-0.0288473
-0.0288642
-0.0289577
-0.0289405
-0.0288471
-0.0288642
-0.0289574
-0.0288474
-0.0288643
-0.0289578
-0.0289405
-0.0288471
-0.0288642
-0.0289574
-0.0286936
-0.0286936
-0.0288066
-0.0288061
-0.0288062
-0.0286935
-0.0288063
-0.0289588
-0.0288462
-0.0288457
-0.0289586
-0.0289587
-0.0288464
-0.0288463
-0.0289588
-0.0288462
-0.028805
-0.0286943
-0.0287115
-0.028788
-0.0286945
-0.0288053
-0.0287879
-0.0288062
-0.0286935
-0.0286935
-0.0288062
-0.028805
-0.0287115
-0.0286943
-0.028788
-0.0286945
-0.0287879
-0.0288053
-0.0288461
-0.0289587
-0.0288462
-0.0289587
-0.0288472
-0.0288642
-0.0289578
-0.0289404
-0.0288471
-0.0288641
-0.0289575
-0.0288461
-0.0289587
-0.0288461
-0.0289587
-0.0288472
-0.0288642
-0.0289404
-0.0289578
-0.0288641
-0.028847
-0.0289575
-0.0288063
-0.0286935
-0.0286935
-0.0288063
-0.0288051
-0.0287116
-0.0286944
-0.0287881
-0.0286946
-0.028788
-0.0288054
-0.0288063
-0.0286935
-0.0286935
-0.0288063
-0.0288472
-0.0288643
-0.0289578
-0.0289405
-0.0288471
-0.0288642
-0.0289576
-0.0288462
-0.0289588
-0.0288462
-0.0289587
-0.0288473
-0.0288642
-0.0289405
-0.0289579
-0.0288642
-0.0288471
-0.0289576
-0.0288462
-0.0289588
-0.0288463
-0.0289587
-0.0286936
-0.0286936
-0.0288066
-0.0288061
-0.0288061
-0.0286935
-0.0288063
-0.0289587
-0.0288461
-0.0288456
-0.0289586
-0.0289585
-0.0288463
-0.0288462
-0.0289587
-0.0288462
-0.0288049
-0.0287115
-0.0286945
-0.028788
-0.0286947
-0.0287879
-0.0288053
-0.0288061
-0.0286935
-0.0286936
-0.0288062
-0.0288061
-0.0286936
-0.0286936
-0.0288062
-0.0288474
-0.0288642
-0.0289405
-0.0289577
-0.0288642
-0.0288471
-0.0289574
-0.0288473
-0.0288643
-0.0289405
-0.0289578
-0.0288642
-0.0288472
-0.0289574
-0.0288463
-0.0289586
-0.0288462
-0.0289585
-0.0288463
-0.0289587
-0.0288463
-0.0289586
-0.0286935
-0.0288063
-0.0286935
-0.0288063
-0.0288456
-0.0289586
-0.0289586
-0.0288463
-0.0288464
-0.0289588
-0.0288462
-0.0289587
-0.0288462
-0.0289986
-0.029111
-0.0289985
-0.029111
-0.0289987
-0.0289987
-0.0291114
-0.0291108
-0.0291109
-0.0292631
-0.0291508
-0.0292631
-0.0291508
-0.0291502
-0.029263
-0.029263
-0.0291509
-0.0291509
-0.0291109
-0.0289987
-0.0289987
-0.029111
-0.0291097
-0.0289996
-0.0290166
-0.0290929
-0.0289998
-0.02911
-0.0290929
-0.0291097
-0.0289996
-0.0290166
-0.0290929
-0.0289998
-0.0291101
-0.0290929
-0.0291509
-0.0292631
-0.0291509
-0.029263
-0.0291509
-0.0292632
-0.0291509
-0.029263
-0.029152
-0.0291688
-0.0292622
-0.029245
-0.0291518
-0.0291688
-0.0292619
-0.029152
-0.0291688
-0.0292622
-0.029245
-0.0291518
-0.0291688
-0.0292618
-0.0289988
-0.0289987
-0.0291115
-0.0291108
-0.0291111
-0.0289986
-0.0291111
-0.0292632
-0.0291509
-0.0291502
-0.029263
-0.029263
-0.029151
-0.029151
-0.0292632
-0.0291508
-0.0291098
-0.0289994
-0.0290165
-0.0290929
-0.0289997
-0.0291101
-0.0290928
-0.029111
-0.0289986
-0.0289986
-0.029111
-0.0291098
-0.0290166
-0.0289994
-0.0290929
-0.0289996
-0.0290928
-0.0291101
-0.0291508
-0.0292632
-0.0291508
-0.0292631
-0.0291518
-0.0291688
-0.0292622
-0.029245
-0.0291517
-0.0291687
-0.0292619
-0.0291508
-0.0292631
-0.0291508
-0.0292631
-0.0291518
-0.0291687
-0.0292449
-0.0292622
-0.0291687
-0.0291517
-0.029262
-0.029111
-0.0289986
-0.0289986
-0.0291111
-0.0291099
-0.0290166
-0.0289996
-0.029093
-0.0289997
-0.0290929
-0.0291101
-0.029111
-0.0289987
-0.0289986
-0.0291111
-0.0291518
-0.0291688
-0.0292623
-0.029245
-0.0291517
-0.0291688
-0.029262
-0.0291508
-0.0292631
-0.0291509
-0.0292631
-0.0291518
-0.0291687
-0.029245
-0.0292623
-0.0291688
-0.0291517
-0.029262
-0.0291508
-0.0292632
-0.0291508
-0.0292632
-0.0289987
-0.0289987
-0.0291114
-0.0291109
-0.0291108
-0.0289986
-0.029111
-0.0292631
-0.0291508
-0.0291502
-0.029263
-0.0292629
-0.0291509
-0.0291508
-0.029263
-0.0291508
-0.0291097
-0.0290166
-0.0289996
-0.0290929
-0.0289998
-0.0290929
-0.02911
-0.0291108
-0.0289986
-0.0289987
-0.0291109
-0.0291108
-0.0289987
-0.0289987
-0.029111
-0.0291519
-0.0291688
-0.029245
-0.0292621
-0.0291688
-0.0291517
-0.0292618
-0.0291519
-0.0291689
-0.029245
-0.0292621
-0.0291688
-0.0291517
-0.0292618
-0.0291509
-0.029263
-0.0291508
-0.0292629
-0.0291509
-0.0292631
-0.0291508
-0.0292629
-0.0289986
-0.0291111
-0.0289986
-0.029111
-0.0291502
-0.0292631
-0.0292629
-0.0291509
-0.0291509
-0.0292632
-0.0291508
-0.0292631
-0.0291508
-0.0293029
-0.0294152
-0.0293029
-0.0294152
-0.0293031
-0.029303
-0.0294156
-0.029415
-0.029415
-0.0295671
-0.0294549
-0.0295671
-0.0294548
-0.0294542
-0.0295669
-0.029567
-0.029455
-0.0294549
-0.0294151
-0.029303
-0.0293031
-0.0294152
-0.0294139
-0.0293039
-0.0293209
-0.0293972
-0.0293042
-0.0294142
-0.0293971
-0.0294139
-0.0293039
-0.0293209
-0.0293972
-0.0293041
-0.0294142
-0.0293971
-0.029455
-0.0295671
-0.0294549
-0.029567
-0.029455
-0.0295671
-0.0294549
-0.029567
-0.029456
-0.0294729
-0.0295661
-0.0295491
-0.0294558
-0.0294728
-0.0295659
-0.029456
-0.0294729
-0.0295662
-0.0295491
-0.0294558
-0.0294728
-0.0295659
-0.0293031
-0.029303
-0.0294157
-0.029415
-0.0294151
-0.0293029
-0.0294152
-0.0295671
-0.0294549
-0.0294542
-0.029567
-0.029567
-0.0294551
-0.029455
-0.0295671
-0.0294549
-0.029414
-0.0293038
-0.0293208
-0.0293972
-0.029304
-0.0294143
-0.0293971
-0.0294151
-0.0293029
-0.0293029
-0.0294152
-0.029414
-0.0293208
-0.0293037
-0.0293971
-0.029304
-0.0293971
-0.0294142
-0.0294548
-0.0295671
-0.0294549
-0.0295671
-0.0294558
-0.0294728
-0.0295662
-0.029549
-0.0294558
-0.0294727
-0.029566
-0.0294548
-0.0295671
-0.0294548
-0.0295671
-0.0294558
-0.0294727
-0.029549
-0.0295662
-0.0294727
-0.0294557
-0.029566
-0.0294152
-0.0293029
-0.0293029
-0.0294152
-0.0294141
-0.0293209
-0.0293038
-0.0293972
-0.029304
-0.0293971
-0.0294143
-0.0294152
-0.029303
-0.0293029
-0.0294152
-0.0294559
-0.0294728
-0.0295662
-0.0295491
-0.0294558
-0.0294728
-0.029566
-0.0294548
-0.0295671
-0.0294549
-0.0295671
-0.0294559
-0.0294727
-0.029549
-0.0295662
-0.0294728
-0.0294558
-0.029566
-0.0294549
-0.0295671
-0.0294548
-0.0295671
-0.0293029
-0.029303
-0.0294156
-0.029415
-0.0294149
-0.0293028
-0.0294151
-0.029567
-0.0294548
-0.0294542
-0.0295669
-0.0295668
-0.0294549
-0.0294549
-0.029567
-0.0294548
-0.0294138
-0.0293208
-0.0293038
-0.0293971
-0.0293041
-0.0293971
-0.0294141
-0.0294149
-0.0293029
-0.029303
-0.0294151
-0.029415
-0.0293029
-0.029303
-0.0294151
-0.029456
-0.0294728
-0.029549
-0.029566
-0.0294728
-0.0294557
-0.0295658
-0.029456
-0.0294728
-0.0295489
-0.029566
-0.0294728
-0.0294558
-0.0295658
-0.0294549
-0.029567
-0.0294548
-0.0295669
-0.0294549
-0.029567
-0.0294548
-0.0295669
-0.0293029
-0.0294152
-0.0293029
-0.0294151
-0.0294541
-0.0295669
-0.0295669
-0.029455
-0.029455
-0.0295671
-0.0294548
-0.029567
-0.0294548
-0.0296069
-0.0297191
-0.0296069
-0.0297191
-0.0296071
-0.029607
-0.0297194
-0.0297188
-0.0297188
-0.0298715
-0.0297593
-0.0298715
-0.0297592
-0.0297579
-0.0298709
-0.0298708
-0.0297595
-0.0297594
-0.0297191
-0.029607
-0.0296069
-0.0297191
-0.0297181
-0.0296078
-0.0296248
-0.029701
-0.0296079
-0.0297181