/*--------------------------------*- C++ -*----------------------------------*\
| =========                 |                                                 |
| \\      /  F ield         | OpenFOAM: The Open Source CFD Toolbox           |
|  \\    /   O peration     | Version:  2206                                  |
|   \\  /    A nd           | Website:  www.openfoam.com                      |
|    \\/     M anipulation  |                                                 |
\*---------------------------------------------------------------------------*/
FoamFile
{
    version     2.0;
    format      ascii;
    arch        "LSB;label=32;scalar=64";
    class       volVectorField;
    location    "20";
    object      U;
}
// * * * * * * * * * * * * * * * * * * * * * * * * * * * * * * * * * * * * * //

dimensions      [0 1 -1 0 0 0 0];

internalField   nonuniform List<vector> 
66940
(
(-9.71412e-07 -5.7188e-07 0.121766)
(-9.27244e-07 7.42526e-07 0.119173)
(1.99318e-06 -2.18264e-06 0.119207)
(-0.000236708 -0.000244107 0.115943)
(-6.47268e-07 -2.01183e-06 0.121766)
(-8.73864e-07 -2.47544e-07 0.119173)
(2.99247e-06 -7.03091e-07 0.11921)
(-0.000240733 -0.000239589 0.115943)
(-6.6307e-07 -1.40211e-06 0.121767)
(6.07667e-07 3.57207e-07 0.119172)
(1.99691e-06 -2.07493e-06 0.119214)
(-0.000235698 -0.000241702 0.115944)
(-1.86391e-06 6.4038e-07 0.121769)
(1.45525e-06 3.07408e-07 0.119174)
(4.63941e-07 -2.38551e-06 0.119215)
(-0.000238181 -0.000239836 0.115946)
(-1.67359e-06 9.76867e-07 0.121769)
(1.36927e-06 4.3359e-07 0.119177)
(8.42245e-07 -1.24495e-06 0.119214)
(-0.000236684 -0.000242186 0.115947)
(-7.82315e-07 7.90091e-07 0.121771)
(5.41885e-07 -4.34308e-07 0.119181)
(1.07086e-06 -9.12611e-07 0.119212)
(-0.000239543 -0.000239686 0.115948)
(4.74281e-07 6.93225e-07 0.121776)
(1.50818e-06 -1.63512e-06 0.119189)
(8.28855e-07 3.36435e-07 0.119216)
(-0.000237354 -0.000242148 0.115944)
(1.8103e-06 1.22067e-06 0.121791)
(5.35492e-06 -5.65227e-06 0.119199)
(-1.40179e-06 2.26159e-06 0.119225)
(-0.000239872 -0.00024011 0.115944)
(4.10171e-06 2.42894e-06 0.121806)
(1.05905e-05 -1.09796e-05 0.119208)
(-4.95694e-06 6.37526e-06 0.119237)
(-0.000237452 -0.000241993 0.115939)
(-2.20971e-05 -2.30598e-05 0.121776)
(4.37566e-05 -4.36211e-05 0.119208)
(-3.21235e-05 3.57911e-05 0.119255)
(-0.000206398 -0.000206043 0.115905)
(-0.000541156 -0.000536506 0.121344)
(0.000361529 -0.00029632 0.119022)
(-0.000274031 0.000348368 0.119113)
(0.000120072 0.000125394 0.115703)
(-0.00549753 -0.00551364 0.114918)
(0.00311305 -0.001639 0.11368)
(-0.00167468 0.00310075 0.113881)
(0.00249282 0.00250987 0.112068)
(-0.000245131 -0.000247644 0.115946)
(2.41407e-06 2.48719e-06 0.119224)
(-2.72606e-06 4.01813e-06 0.119229)
(0.000243865 -0.000247279 0.11595)
(7.05086e-07 9.68082e-07 0.119178)
(1.00808e-06 -1.23077e-06 0.119183)
(-1.60753e-06 1.92609e-06 0.119174)
(-3.01737e-06 -2.53955e-06 0.119173)
(-0.000244023 0.000248259 0.115948)
(1.70763e-06 -1.31427e-06 0.119207)
(-2.18746e-06 -2.74883e-06 0.119234)
(0.000244661 0.000249422 0.115944)
(0.000239062 0.000242071 0.115946)
(-0.000244526 -0.000249861 0.115948)
(2.52409e-06 3.09998e-06 0.119223)
(-2.42731e-06 3.87145e-06 0.119228)
(3.78528e-06 2.06088e-06 0.119229)
(-4.50678e-06 1.64089e-06 0.119231)
(-0.000238058 0.000241516 0.115949)
(0.000243027 -0.000249561 0.11595)
(6.03338e-07 6.12335e-07 0.119177)
(9.78032e-07 -1.14612e-06 0.119181)
(8.65203e-07 3.77435e-07 0.119179)
(1.76311e-06 -1.66521e-06 0.119183)
(-6.5701e-07 -1.50416e-06 0.119222)
(-4.56449e-07 5.48646e-07 0.119174)
(-2.01138e-06 -7.32242e-07 0.11918)
(0.000237174 -0.000239779 0.115947)
(-0.000242649 0.000249648 0.115948)
(-2.07041e-06 -3.66452e-06 0.119191)
(3.053e-06 -2.80303e-07 0.11921)
(-3.86581e-06 1.48812e-07 0.11923)
(0.00024125 0.000252856 0.115944)
(0.000239227 0.000240001 0.115947)
(-0.000246186 -0.000249367 0.115949)
(3.55454e-06 1.58541e-06 0.119229)
(-4.24047e-06 2.06297e-06 0.11923)
(3.55901e-06 2.60153e-06 0.119233)
(-3.34512e-06 2.39099e-06 0.119234)
(-0.000238263 0.000239547 0.115949)
(0.000245552 -0.000248671 0.115951)
(8.33699e-07 -3.12425e-07 0.119177)
(1.79681e-06 -1.06663e-06 0.119181)
(1.56482e-07 3.62791e-07 0.119178)
(1.58859e-06 -1.21991e-06 0.119184)
(-1.4132e-06 2.19902e-08 0.119205)
(1.81111e-07 6.65169e-07 0.119173)
(-2.228e-06 -1.40758e-06 0.119171)
(0.00023874 -0.000239089 0.115947)
(-0.000244335 0.000249523 0.115948)
(-3.91156e-06 -6.7471e-07 0.119207)
(2.69272e-06 -1.53486e-06 0.119214)
(-2.59976e-06 1.85471e-08 0.119241)
(0.000244381 0.000251734 0.115944)
(0.000237993 0.000241374 0.115948)
(-0.000247654 -0.000249132 0.11595)
(2.76594e-06 3.08026e-06 0.119231)
(-1.9138e-06 2.88878e-06 0.119231)
(1.59634e-06 4.2019e-06 0.119233)
(-1.24379e-06 3.72238e-06 0.119234)
(-0.000235818 0.000240649 0.115949)
(0.000246787 -0.000249045 0.115951)
(-3.51357e-07 5.63595e-07 0.119176)
(8.3825e-07 -8.74573e-07 0.119181)
(-5.36921e-07 1.79161e-06 0.119181)
(1.49294e-07 -1.57625e-06 0.119186)
(-2.46627e-07 -1.08913e-06 0.119218)
(1.51719e-06 1.30366e-06 0.119175)
(-1.01558e-06 -1.69106e-06 0.11918)
(0.000237072 -0.000239495 0.115947)
(-0.000246118 0.00025014 0.115948)
(-1.38245e-06 -2.22722e-06 0.119199)
(7.38344e-07 -2.14073e-06 0.119216)
(-8.68793e-07 -1.02699e-06 0.119235)
(0.000244705 0.000253118 0.115946)
(0.000237427 0.000241857 0.115948)
(-0.000246447 -0.000249276 0.115951)
(7.68091e-07 3.83619e-06 0.119231)
(-7.56778e-07 3.68123e-06 0.119231)
(1.63882e-06 3.25616e-06 0.119231)
(-2.3346e-06 3.43986e-06 0.11923)
(-0.000235714 0.000241015 0.115949)
(0.000245294 -0.000248972 0.115951)
(-6.41181e-07 1.45214e-06 0.119179)
(-1.88596e-07 -1.24184e-06 0.119184)
(-6.9774e-07 1.70963e-06 0.119185)
(3.05878e-08 -2.19542e-06 0.119188)
(-4.26796e-07 -7.98932e-07 0.119204)
(1.32286e-06 1.29118e-06 0.119177)
(-1.46306e-06 -2.01727e-06 0.119169)
(0.000236739 -0.000240051 0.115946)
(-0.000244983 0.000249662 0.115947)
(-6.86275e-07 -1.81662e-06 0.119211)
(1.28157e-06 -1.39439e-06 0.119215)
(-1.40626e-06 -2.68704e-07 0.119243)
(0.000244404 0.000251772 0.115948)
(0.000237842 0.000240888 0.11595)
(-0.00024628 -0.000249826 0.11595)
(1.1734e-06 2.7874e-06 0.11923)
(-1.87284e-06 3.05105e-06 0.119227)
(2.35661e-06 2.03057e-06 0.119228)
(-2.63798e-06 2.35161e-06 0.119225)
(-0.000237266 0.000240865 0.115949)
(0.000244787 -0.000249741 0.115953)
(-8.94961e-07 7.43317e-07 0.119185)
(-1.83556e-08 -1.58366e-06 0.119188)
(-9.75737e-07 1.22839e-06 0.119186)
(2.90829e-07 -1.36532e-06 0.11919)
(-1.1389e-07 -1.74293e-06 0.119217)
(4.13387e-07 1.09684e-06 0.119177)
(-1.518e-06 -1.2159e-06 0.119178)
(0.000237523 -0.000240085 0.115945)
(-0.000244523 0.000249964 0.115949)
(-8.79783e-07 -1.50791e-06 0.119199)
(1.29818e-06 -1.0051e-06 0.119211)
(-2.00235e-06 -1.66763e-07 0.119234)
(0.000244195 0.000254212 0.115949)
(0.000238248 0.000240633 0.115949)
(-0.000245629 -0.000249005 0.115949)
(1.58355e-06 1.72227e-06 0.119227)
(-1.83571e-06 1.39338e-06 0.119226)
(3.93867e-06 3.53217e-06 0.119222)
(-4.0339e-06 3.42116e-06 0.119221)
(-0.000237644 0.000240383 0.11595)
(0.000245355 -0.000249636 0.11595)
(-1.16803e-06 -1.2408e-07 0.119188)
(-4.00704e-07 -1.55983e-07 0.119191)
(8.48687e-07 2.47523e-06 0.119181)
(1.21994e-06 -2.42455e-06 0.119186)
(-7.39731e-07 -1.47483e-09 0.119207)
(-8.27349e-07 2.66718e-06 0.119176)
(-3.07118e-06 -3.45842e-06 0.119168)
(0.000237303 -0.000239153 0.115949)
(-0.000243992 0.000249512 0.115948)
(-1.5569e-06 1.06449e-07 0.119212)
(3.52394e-06 -2.18134e-06 0.119206)
(-3.65819e-06 -8.02581e-07 0.119237)
(0.000244156 0.000252053 0.115945)
(0.000238594 0.000240992 0.115948)
(-0.000245696 -0.000249408 0.115949)
(1.1685e-06 1.14051e-06 0.119228)
(-7.86878e-07 8.04064e-07 0.119228)
(6.06079e-06 5.66165e-06 0.119214)
(-5.92746e-06 5.69242e-06 0.119212)
(-0.000237277 0.000240455 0.115948)
(0.000244509 -0.000248267 0.115951)
(-1.68712e-06 -1.85071e-06 0.119194)
(-6.70087e-07 1.00014e-06 0.119198)
(2.73868e-06 4.65426e-06 0.119172)
(3.68857e-06 -5.45899e-06 0.119179)
(1.0803e-06 8.04206e-07 0.119228)
(-2.8175e-06 5.11877e-06 0.119167)
(-4.6459e-06 -5.08677e-06 0.119168)
(0.000238086 -0.000240008 0.115947)
(-0.000243796 0.000249725 0.115948)
(-7.62266e-08 1.90468e-07 0.119205)
(5.40553e-06 -3.8244e-06 0.119198)
(-5.35736e-06 -2.48068e-06 0.11922)
(0.000243437 0.000253151 0.115944)
(0.000239373 0.000241892 0.115947)
(-0.000245382 -0.000249717 0.115948)
(-1.05558e-06 -6.58962e-07 0.119238)
(1.03014e-06 -6.16289e-07 0.119236)
(8.8864e-06 7.28982e-06 0.119205)
(-8.86098e-06 7.56479e-06 0.119204)
(-0.000238277 0.000242029 0.115951)
(0.000243521 -0.000248186 0.11595)
(-4.14376e-06 -4.84132e-06 0.119207)
(-3.25503e-06 4.13044e-06 0.119209)
(5.44647e-06 8.36459e-06 0.119158)
(5.65847e-06 -8.29852e-06 0.119166)
(3.1754e-06 4.66499e-06 0.119223)
(-6.67122e-06 1.04332e-05 0.119159)
(-7.57568e-06 -8.64474e-06 0.119147)
(0.000238709 -0.000240139 0.115946)
(-0.000243961 0.000249871 0.115946)
(1.64547e-06 2.69254e-06 0.119225)
(8.59147e-06 -6.00077e-06 0.119186)
(-8.41023e-06 -4.27611e-06 0.119213)
(0.00024281 0.000251158 0.115944)
(0.000238876 0.000240678 0.115942)
(-0.00023465 -0.000238854 0.115961)
(-4.23555e-06 -5.44824e-06 0.119248)
(3.89377e-06 -5.18702e-06 0.119245)
(1.407e-05 1.74579e-06 0.119182)
(-1.28701e-05 1.36376e-06 0.11918)
(-0.000237889 0.000240373 0.115943)
(0.000233343 -0.00023738 0.115963)
(-8.10278e-06 -9.23034e-06 0.11922)
(-6.77231e-06 8.05814e-06 0.119219)
(1.6412e-06 1.5198e-05 0.119126)
(3.88357e-07 -1.33292e-05 0.119138)
(7.67038e-06 7.17642e-06 0.119245)
(-5.14884e-06 1.96293e-05 0.119142)
(-2.4518e-06 -1.32173e-05 0.119131)
(0.000238431 -0.000239705 0.11594)
(-0.000233287 0.000239573 0.115957)
(5.75757e-06 5.4383e-06 0.119225)
(1.51299e-05 -7.71504e-07 0.119162)
(-1.48235e-05 2.01746e-06 0.119175)
(0.000231938 0.000242018 0.115958)
(0.00020592 0.000208164 0.115909)
(-0.00026803 -0.000271648 0.115948)
(-3.06359e-05 -3.32741e-05 0.119261)
(2.9037e-05 -3.41917e-05 0.119256)
(-4.70746e-05 -0.000180049 0.119036)
(4.99815e-05 -0.000178391 0.119035)
(-0.00020427 0.000207831 0.115909)
(0.000268 -0.00026854 0.115963)
(-3.90405e-05 -3.81888e-05 0.119239)
(-3.64952e-05 3.55894e-05 0.119232)
(-0.000173758 -4.22689e-05 0.118971)
(-0.000176316 4.69962e-05 0.118986)
(3.69408e-05 3.48834e-05 0.119241)
(0.000167733 -3.17346e-05 0.119024)
(0.000172821 4.76091e-05 0.118979)
(0.00020602 -0.000205885 0.115905)
(-0.000266251 0.00027071 0.11595)
(3.31104e-05 3.49047e-05 0.119255)
(-4.22657e-05 0.0001795 0.119009)
(4.16309e-05 0.000182639 0.119023)
(0.000267476 0.000271866 0.115949)
(-0.000123833 -0.000120683 0.1157)
(-0.0023899 -0.00238911 0.114091)
(-0.000270048 -0.000346096 0.119112)
(0.000264979 -0.00034756 0.119107)
(-0.00170623 -0.00323641 0.116665)
(0.00171879 -0.00323686 0.11666)
(0.000124468 -0.000122703 0.11569)
(0.00242658 -0.0023831 0.114145)
(-0.000354566 -0.000284445 0.119101)
(-0.000350435 0.000280024 0.119086)
(-0.00322415 -0.00170439 0.116732)
(-0.00322678 0.0017143 0.116734)
(0.000353346 0.000278203 0.119104)
(0.00323499 -0.00169133 0.116882)
(0.00322475 0.0017126 0.116743)
(-0.000118863 0.000126644 0.1157)
(-0.00237164 0.00240145 0.114095)
(0.000275515 0.000345553 0.119107)
(-0.00169371 0.00322957 0.116652)
(0.00169706 0.00323083 0.116655)
(0.00237854 0.0024007 0.114088)
(-0.00249826 -0.00249795 0.112064)
(-0.00167052 -0.00310538 0.113891)
(0.00168532 -0.00314934 0.113879)
(0.00251301 -0.00252629 0.111932)
(-0.00308975 -0.00167633 0.11394)
(-0.00310704 0.00167996 0.113951)
(0.00557161 -0.00551571 0.114868)
(-0.0054846 0.00550845 0.114919)
(0.00548788 0.0055088 0.114921)
(0.00309986 0.00167589 0.113951)
(-0.00249183 0.00251465 0.112059)
(0.00168092 0.00310531 0.113883)
(1.61432e-05 -2.64123e-05 0.0888404)
(-9.36939e-07 -2.80159e-07 0.121767)
(1.81199e-06 3.62482e-09 0.121766)
(-8.45585e-07 5.47417e-07 0.12176)
(2.84238e-06 -1.86121e-06 0.121763)
(6.66861e-05 -1.69084e-06 0.112616)
(-5.27077e-07 -1.30997e-07 0.119182)
(5.43168e-05 -4.19738e-05 0.110475)
(6.94422e-07 -1.88751e-06 0.120207)
(0.000242524 0.000250753 0.115945)
(2.61823e-05 3.52121e-05 0.106659)
(3.15894e-05 2.22868e-05 0.106689)
(-1.28707e-06 -7.48978e-05 0.10997)
(1.25074e-05 5.98874e-05 0.0989679)
(-4.63434e-08 7.55746e-05 0.109968)
(-1.06812e-05 -5.21008e-05 0.099069)
(-1.37945e-05 2.97897e-05 0.0888142)
(1.2208e-05 -2.21064e-05 0.0889166)
(-7.3934e-05 -8.81402e-07 0.10977)
(5.48411e-05 8.7845e-06 0.0987911)
(7.40471e-05 -6.64302e-07 0.109817)
(-5.45356e-05 -1.14776e-05 0.0988463)
(1.67597e-06 -7.72043e-07 0.121767)
(-9.73527e-07 7.58602e-07 0.121759)
(1.35697e-07 8.19615e-07 0.121771)
(-8.01737e-07 -1.46318e-06 0.121767)
(7.31149e-07 -1.46461e-06 0.121766)
(-2.75841e-07 1.30722e-06 0.121761)
(2.01561e-07 1.33639e-06 0.121763)
(6.51597e-05 -1.40877e-06 0.11261)
(-5.36764e-05 3.74919e-05 0.110509)
(-2.59254e-07 -1.38208e-06 0.120197)
(-1.38068e-07 8.57525e-07 0.119174)
(-6.49067e-05 -4.68041e-07 0.112666)
(5.36314e-05 -4.06233e-05 0.110475)
(9.69333e-07 -1.2925e-06 0.120195)
(2.45474e-05 -1.15381e-05 0.0886941)
(-2.29504e-05 1.38821e-05 0.0887771)
(-1.55608e-06 6.38932e-05 0.112702)
(-8.20243e-07 -4.48614e-06 0.12028)
(3.79272e-05 -5.31962e-05 0.110595)
(2.51205e-06 -1.38465e-06 0.119208)
(-2.76837e-07 -7.06984e-05 0.1127)
(-1.09593e-06 -3.38487e-06 0.120281)
(-3.89714e-05 5.29236e-05 0.110597)
(-2.53303e-05 -3.27746e-05 0.106658)
(-3.38975e-05 -2.62507e-05 0.106778)
(0.000242459 0.000252729 0.115944)
(2.50107e-05 3.18114e-05 0.106661)
(3.4537e-05 2.56197e-05 0.106773)
(-6.37269e-07 -7.86309e-05 0.109962)
(1.02728e-05 5.48894e-05 0.0989926)
(2.10743e-07 6.77785e-05 0.109956)
(-1.27279e-05 -5.60348e-05 0.0990874)
(-1.38918e-05 2.31661e-05 0.08882)
(1.30145e-05 -2.44606e-05 0.0889308)
(-7.396e-05 -4.02995e-07 0.10977)
(5.47605e-05 1.08583e-05 0.0987891)
(7.37879e-05 -1.60535e-07 0.109818)
(-5.6109e-05 -9.99926e-06 0.0988481)
(3.77508e-07 -2.0874e-06 0.121765)
(-4.2985e-07 2.01523e-06 0.12176)
(-1.71145e-06 3.19223e-06 0.121765)
(-1.88673e-07 -1.81295e-06 0.121767)
(1.00516e-06 -2.05864e-06 0.121766)
(-4.21553e-08 2.24209e-06 0.121762)
(9.88969e-07 1.56246e-06 0.121763)
(6.44631e-05 -8.40321e-07 0.11261)
(-5.42534e-05 3.86714e-05 0.110505)
(2.70879e-07 -1.4133e-06 0.120197)
(-5.15511e-07 5.77151e-07 0.119173)
(-6.62019e-05 -5.03268e-07 0.112665)
(5.45913e-05 -3.94127e-05 0.110471)
(5.74159e-07 -4.24839e-07 0.120195)
(2.2829e-05 -1.41995e-05 0.0886955)
(-2.44378e-05 1.04593e-05 0.0887776)
(-1.75517e-06 7.0021e-05 0.112694)
(-9.47931e-07 -2.22731e-06 0.120281)
(3.85117e-05 -4.99258e-05 0.110588)
(3.6009e-06 -6.38462e-07 0.119212)
(-9.0996e-08 -6.5081e-05 0.112702)
(-1.09078e-06 -1.56193e-06 0.120283)
(-4.16907e-05 5.43124e-05 0.110591)
(-2.63767e-05 -3.35303e-05 0.106659)
(-3.46013e-05 -2.15541e-05 0.10678)
(0.000242417 0.000251224 0.115944)
(2.56038e-05 3.22849e-05 0.10665)
(3.46528e-05 2.59361e-05 0.106785)
(-3.92622e-07 -7.47099e-05 0.109961)
(9.03491e-06 5.46958e-05 0.099001)
(-3.73729e-09 6.95227e-05 0.109956)
(-1.26663e-05 -5.53021e-05 0.0990904)
(-1.21837e-05 2.50051e-05 0.0888292)
(1.41468e-05 -2.41218e-05 0.0889326)
(-7.38006e-05 2.91493e-08 0.109772)
(5.49807e-05 1.13045e-05 0.0987902)
(7.45771e-05 6.49947e-07 0.109819)
(-5.48577e-05 -1.11514e-05 0.0988438)
(1.07158e-06 -1.65359e-06 0.121766)
(-3.27763e-07 1.97571e-06 0.121761)
(-6.81239e-07 3.18523e-06 0.121769)
(-1.56343e-06 3.85286e-07 0.121769)
(1.82499e-06 4.11719e-07 0.121767)
(-1.08564e-06 5.61785e-07 0.121763)
(8.82143e-07 4.81489e-07 0.121766)
(6.49265e-05 -4.40834e-07 0.112612)
(-5.29384e-05 3.89809e-05 0.110508)
(1.02504e-06 -9.97265e-07 0.120196)
(7.69152e-07 1.49377e-06 0.119174)
(-6.60007e-05 -6.27105e-08 0.112667)
(5.48182e-05 -3.94586e-05 0.110477)
(1.91568e-06 -4.91004e-07 0.120195)
(2.38576e-05 -1.38692e-05 0.0886976)
(-2.36803e-05 1.19801e-05 0.0887817)
(-1.27833e-06 6.7375e-05 0.112678)
(-1.80351e-06 -2.80763e-06 0.120281)
(3.55734e-05 -5.19171e-05 0.110585)
(2.16495e-06 -2.1267e-06 0.119216)
(-4.01122e-07 -6.46024e-05 0.112685)
(-2.05996e-06 -2.42909e-06 0.120281)
(-4.17831e-05 5.2284e-05 0.11059)
(-2.43946e-05 -3.29281e-05 0.106654)
(-3.18891e-05 -2.41833e-05 0.106789)
(0.000244644 0.000252432 0.115946)
(2.67039e-05 3.13498e-05 0.106661)
(3.66459e-05 2.51687e-05 0.106781)
(-4.67798e-07 -7.38742e-05 0.109958)
(1.02982e-05 5.56101e-05 0.0990006)
(2.91764e-07 7.3054e-05 0.10995)
(-1.08051e-05 -5.54752e-05 0.0990912)
(-1.37744e-05 2.4123e-05 0.0888324)
(1.22611e-05 -2.44447e-05 0.088936)
(-7.45904e-05 -5.18564e-07 0.109774)
(5.56095e-05 1.05176e-05 0.0987865)
(7.40477e-05 2.00916e-07 0.109818)
(-5.55271e-05 -9.76293e-06 0.0988436)
(1.79587e-06 5.82828e-07 0.121767)
(-1.58458e-06 4.33103e-07 0.121763)
(-7.83918e-07 2.13349e-06 0.121768)
(-2.0362e-06 9.94459e-07 0.12177)
(1.76802e-06 1.00194e-06 0.121767)
(-1.54916e-06 -4.30313e-07 0.121764)
(1.33441e-06 -1.02954e-06 0.121764)
(6.54316e-05 -7.08211e-07 0.112613)
(-5.46326e-05 3.8859e-05 0.110511)
(2.15753e-06 -1.23553e-06 0.120198)
(1.31919e-06 1.85643e-06 0.119177)
(-6.60361e-05 -3.80613e-07 0.112668)
(5.4819e-05 -3.90383e-05 0.110479)
(2.83055e-06 -6.24508e-07 0.120196)
(2.35097e-05 -1.38224e-05 0.0887052)
(-2.39845e-05 1.17413e-05 0.0887864)
(-1.612e-06 6.71099e-05 0.112673)
(-2.09986e-06 -3.48619e-06 0.120274)
(3.86191e-05 -5.2958e-05 0.110586)
(1.431e-06 -2.05044e-06 0.119216)
(-1.94623e-07 -6.73683e-05 0.112676)
(-2.21292e-06 -2.86672e-06 0.120273)
(-3.96728e-05 5.27884e-05 0.11059)
(-2.56617e-05 -3.40645e-05 0.106664)
(-3.47017e-05 -2.30418e-05 0.106788)
(0.000244552 0.000251627 0.115946)
(2.55442e-05 3.1833e-05 0.106656)
(3.26276e-05 2.53606e-05 0.106793)
(-5.20678e-07 -7.41721e-05 0.10996)
(1.08702e-05 5.58402e-05 0.0989999)
(8.40942e-08 7.29263e-05 0.10995)
(-1.24989e-05 -5.46199e-05 0.0990905)
(-1.34903e-05 2.47476e-05 0.0888327)
(1.24441e-05 -2.36418e-05 0.0889357)
(-7.47493e-05 -2.89333e-07 0.109778)
(5.53876e-05 1.07057e-05 0.0987887)
(7.37875e-05 1.92635e-07 0.109824)
(-5.59209e-05 -1.15642e-05 0.0988495)
(1.15681e-06 9.10002e-07 0.121767)
(-1.54128e-06 -3.3045e-07 0.121764)
(-6.05066e-07 7.52272e-07 0.121771)
(-1.88569e-06 3.16012e-07 0.121769)
(1.84577e-06 2.99222e-07 0.121765)
(-1.46278e-06 1.06541e-07 0.121764)
(1.52542e-06 5.73147e-07 0.121765)
(6.58766e-05 -8.51716e-07 0.112614)
(-5.3913e-05 3.82188e-05 0.110513)
(2.7034e-06 -1.04207e-06 0.1202)
(8.77143e-07 1.20462e-06 0.119177)
(-6.50833e-05 -5.55675e-08 0.112669)
(5.40251e-05 -4.00649e-05 0.110481)
(2.59616e-06 -7.92292e-07 0.120197)
(2.37469e-05 -1.30758e-05 0.0887036)
(-2.29886e-05 1.31622e-05 0.0887871)
(-1.31282e-06 6.69458e-05 0.112671)
(-1.72677e-06 -2.33088e-06 0.120266)
(3.82823e-05 -5.26129e-05 0.110586)
(1.79186e-06 -1.49582e-06 0.119213)
(-2.41582e-07 -6.64643e-05 0.112674)
(-1.79833e-06 -1.8772e-06 0.120264)
(-4.08385e-05 5.14009e-05 0.110592)
(-2.51846e-05 -3.30959e-05 0.106657)
(-3.56499e-05 -2.45095e-05 0.106792)
(0.000243413 0.000252528 0.115949)
(2.5369e-05 3.20664e-05 0.106664)
(3.53181e-05 2.52505e-05 0.106781)
(-6.17032e-07 -7.41182e-05 0.109961)
(1.15598e-05 5.57417e-05 0.0990028)
(4.58969e-07 7.22546e-05 0.109954)
(-1.1168e-05 -5.54428e-05 0.0990931)
(-1.34671e-05 2.35222e-05 0.0888353)
(1.22018e-05 -2.42568e-05 0.08894)
(-7.4939e-05 -2.6293e-07 0.109778)
(5.55893e-05 1.12521e-05 0.0987881)
(7.32531e-05 3.94839e-07 0.109825)
(-5.57193e-05 -1.05653e-05 0.0988465)
(7.1057e-07 1.71046e-07 0.121768)
(-3.8167e-07 -2.4092e-08 0.121766)
(-1.21723e-06 1.76542e-06 0.12177)
(-2.1031e-06 -3.21315e-07 0.121764)
(2.45648e-06 -3.13818e-07 0.121761)
(-1.65917e-06 1.12099e-06 0.121759)
(2.59784e-06 7.21438e-07 0.12176)
(6.47803e-05 -1.13017e-06 0.112617)
(-5.47061e-05 3.76697e-05 0.110509)
(2.41592e-06 -1.59765e-06 0.120203)
(-4.6679e-08 1.94389e-06 0.119177)
(-6.60855e-05 1.07924e-07 0.112672)
(5.40954e-05 -4.01095e-05 0.110474)
(1.56656e-06 -5.96325e-07 0.120195)
(2.33967e-05 -1.37422e-05 0.0887042)
(-2.39503e-05 1.20611e-05 0.0887861)
(-1.51492e-06 6.65978e-05 0.112671)
(-1.47428e-06 -8.34101e-07 0.120261)
(3.85281e-05 -5.33243e-05 0.110586)
(2.83197e-06 -1.33121e-06 0.119209)
(7.83297e-08 -6.72988e-05 0.112673)
(-1.3692e-06 -1.42713e-06 0.120257)
(-3.96056e-05 5.2186e-05 0.110588)
(-2.60327e-05 -3.31214e-05 0.106665)
(-3.49275e-05 -2.25439e-05 0.106786)
(0.000243737 0.000251838 0.115947)
(2.60021e-05 3.36979e-05 0.106657)
(3.3125e-05 2.61062e-05 0.106791)
(-1.26409e-07 -7.34183e-05 0.109961)
(1.07928e-05 5.59401e-05 0.0990042)
(5.8166e-07 7.18057e-05 0.109952)
(-1.11132e-05 -5.44508e-05 0.0990918)
(-1.32754e-05 2.54393e-05 0.088837)
(1.2701e-05 -2.27637e-05 0.0889362)
(-7.43857e-05 -4.48223e-07 0.109778)
(5.58354e-05 1.11894e-05 0.0987867)
(7.28935e-05 3.3568e-07 0.109823)
(-5.55951e-05 -9.24904e-06 0.0988418)
(-2.84367e-07 6.07364e-07 0.121774)
(9.66811e-07 -3.0435e-07 0.121771)
(-2.0166e-06 8.09611e-07 0.121779)
(-3.38552e-06 -1.47504e-06 0.121754)
(2.94305e-06 -9.82531e-07 0.121751)
(-2.83838e-06 2.05937e-06 0.121749)
(2.29102e-06 2.32944e-06 0.121752)
(6.4736e-05 -8.10587e-07 0.112615)
(-5.40211e-05 3.76471e-05 0.110506)
(3.86292e-06 -2.14418e-06 0.120215)
(-1.54133e-06 3.50956e-06 0.119172)
(-6.62031e-05 -2.85201e-07 0.112671)
(5.43314e-05 -3.95866e-05 0.110474)
(-5.89879e-07 3.10191e-07 0.120184)
(2.40507e-05 -1.30791e-05 0.0887026)
(-2.32861e-05 1.1548e-05 0.0887856)
(-8.74971e-07 6.58796e-05 0.112671)
(-1.68974e-06 -1.90954e-07 0.120267)
(3.89749e-05 -5.25777e-05 0.110581)
(4.5318e-06 -2.64521e-06 0.119202)
(1.92402e-08 -6.75959e-05 0.112674)
(-4.19902e-07 -3.57684e-06 0.120245)
(-3.92833e-05 5.13769e-05 0.110585)
(-2.51132e-05 -3.33223e-05 0.106661)
(-3.48475e-05 -2.36057e-05 0.106792)
(0.000243724 0.000252855 0.115944)
(2.5349e-05 3.08116e-05 0.106666)
(3.51701e-05 2.4908e-05 0.106782)
(-1.08364e-06 -7.56505e-05 0.109949)
(1.02375e-05 5.64458e-05 0.0989991)
(-1.63666e-08 7.31084e-05 0.109953)
(-7.46499e-06 -5.66295e-05 0.0990816)
(-1.32131e-05 2.41631e-05 0.0888337)
(9.53046e-06 -2.56347e-05 0.0889332)
(-7.5378e-05 -6.72171e-07 0.109766)
(5.548e-05 1.08702e-05 0.0987878)
(7.29695e-05 9.81905e-08 0.109828)
(-5.7587e-05 -6.76496e-06 0.098836)
(-1.46628e-06 1.47469e-06 0.121786)
(2.20888e-06 -1.2964e-06 0.121785)
(-3.85054e-06 -6.45899e-07 0.121791)
(-5.69929e-06 -3.92574e-06 0.121738)
(4.35487e-06 -3.6545e-06 0.121734)
(-4.75757e-06 4.97766e-06 0.121733)
(4.3633e-06 4.99565e-06 0.121732)
(6.72598e-05 -6.06816e-07 0.112613)
(-5.51789e-05 3.82813e-05 0.11051)
(9.10428e-06 -4.46935e-06 0.120241)
(-4.54015e-06 7.72527e-06 0.119163)
(-6.63447e-05 -1.6009e-07 0.112673)
(5.64906e-05 -3.65216e-05 0.110472)
(-5.19193e-06 2.43567e-06 0.120156)
(2.36789e-05 -1.31608e-05 0.0887008)
(-2.54463e-05 8.04173e-06 0.0887787)
(-1.52143e-06 6.82953e-05 0.112667)
(-2.94136e-06 3.71491e-06 0.120286)
(3.80944e-05 -5.37585e-05 0.110582)
(7.10759e-06 -4.93269e-06 0.119192)
(1.37669e-07 -6.82324e-05 0.112676)
(8.45965e-07 -7.33144e-06 0.12022)
(-3.64879e-05 5.35536e-05 0.110583)
(-2.71417e-05 -3.3069e-05 0.106663)
(-3.45163e-05 -2.45961e-05 0.106784)
(0.000243242 0.000251183 0.115945)
(2.71734e-05 2.99013e-05 0.106653)
(3.03162e-05 2.74747e-05 0.106786)
(-7.42842e-06 -0.000104302 0.109899)
(-1.77202e-05 7.1198e-05 0.0990317)
(2.6374e-06 8.31288e-05 0.109985)
(6.34263e-05 -0.000102237 0.0990236)
(8.70604e-06 3.40307e-05 0.0888374)
(-4.36274e-05 -4.94552e-05 0.0889676)
(-0.000103869 -7.54428e-06 0.109708)
(7.04301e-05 -1.76502e-05 0.0988171)
(8.32838e-05 1.91651e-06 0.109848)
(-0.000103316 6.35535e-05 0.0987834)
(-1.82583e-06 2.65992e-06 0.1218)
(4.16636e-06 -3.00571e-06 0.1218)
(-4.02153e-06 -3.68251e-06 0.121807)
(-1.32937e-05 -1.15481e-05 0.121719)
(9.40798e-06 -1.29689e-05 0.121719)
(-1.20875e-05 1.47048e-05 0.121714)
(1.04973e-05 1.64688e-05 0.121715)
(9.7755e-05 -2.56384e-06 0.112576)
(-6.70759e-05 1.09123e-05 0.110518)
(1.61175e-05 -4.50004e-06 0.12028)
(-8.56497e-06 1.43454e-05 0.119154)
(-7.77421e-05 -6.2654e-07 0.112692)
(9.08101e-05 3.20563e-05 0.110465)
(-1.03261e-05 7.57595e-07 0.120112)
(3.3184e-05 7.99257e-06 0.088697)
(-4.9699e-05 -4.43832e-05 0.0888132)
(-2.50925e-06 9.94763e-05 0.112632)
(-2.64399e-06 9.70428e-06 0.120322)
(1.25003e-05 -6.6688e-05 0.110593)
(1.12824e-05 -5.75692e-06 0.119179)
(6.20667e-07 -7.83457e-05 0.112694)
(-2.27849e-06 -9.83969e-06 0.120181)
(3.27535e-05 8.87426e-05 0.110574)
(-3.51855e-05 -6.11402e-06 0.106635)
(-7.64893e-06 -3.308e-05 0.106769)
(0.000238823 0.000248624 0.115947)
(4.87381e-05 -3.82957e-05 0.106756)
(-3.55022e-05 4.83727e-05 0.106876)
(-8.43553e-05 -0.00027976 0.109902)
(-0.000223545 0.000227714 0.0992087)
(4.09777e-05 0.000158978 0.110057)
(0.000295058 -0.000396425 0.0987525)
(0.000160728 7.49053e-05 0.0886428)
(-0.000227451 -0.000119005 0.0894976)
(-0.000278036 -8.2526e-05 0.109713)
(0.000228906 -0.000227036 0.0990023)
(0.000159847 4.02127e-05 0.10992)
(-0.00039734 0.000298638 0.0985012)
(2.73552e-05 -2.05725e-05 0.121769)
(-2.17425e-05 2.14109e-05 0.121772)
(2.27262e-05 1.98453e-05 0.121775)
(-8.2262e-06 -6.15621e-06 0.121534)
(1.86294e-07 -1.4996e-05 0.121538)
(-5.51349e-06 1.52399e-05 0.121529)
(3.66405e-06 1.91972e-05 0.121529)
(0.00025223 -3.66995e-05 0.112542)
(-0.000148547 -0.000207392 0.110505)
(7.15879e-05 -1.61878e-06 0.120317)
(2.12524e-05 2.11947e-05 0.11911)
(-0.000143062 1.34243e-05 0.112742)
(0.000260431 0.000280968 0.110487)
(-1.89363e-05 -1.59423e-05 0.120008)
(7.67192e-05 0.000162682 0.0885111)
(-0.000119326 -0.000228834 0.0893277)
(-3.76635e-05 0.000252549 0.112585)
(1.6755e-06 6.232e-05 0.120355)
(-0.000206169 -0.00014646 0.110583)
(1.40634e-05 2.9309e-05 0.119117)
(1.31746e-05 -0.00014214 0.112753)
(-1.81184e-05 -1.46935e-05 0.120083)
(0.000280603 0.000260995 0.110599)
(-4.36892e-05 0.000201226 0.106183)
(0.000198716 -3.82062e-05 0.106302)
(0.000229918 0.000237295 0.115959)
(6.15386e-05 -0.000281326 0.10765)
(-0.000283911 6.17011e-05 0.1078)
(-0.000230301 -0.00109383 0.110195)
(-0.000478904 0.000498828 0.100928)
(0.000147036 8.70443e-05 0.10994)
(0.000361305 -0.00136593 0.0962321)
(0.000569949 7.81896e-05 0.0878914)
(-0.000766558 -0.000739889 0.0921807)
(-0.00108907 -0.000231224 0.110203)
(0.000509837 -0.000484747 0.10077)
(8.69335e-05 0.000145951 0.10993)
(-0.00136408 0.000360412 0.0961745)
(0.000550981 -0.00052439 0.121331)
(-0.000536759 0.000533713 0.121339)
(0.000539953 0.000528914 0.121343)
(-0.000284355 -0.000286133 0.118373)
(0.000264749 -0.000315254 0.118358)
(-0.000295825 0.000291474 0.118374)
(0.000298103 0.000292342 0.118373)
(0.000976174 -0.000118242 0.112558)
(-6.7437e-05 -0.000560497 0.111132)
(0.000838696 -0.000129807 0.120159)
(0.000822342 -0.000356797 0.118734)
(0.000130607 3.54384e-05 0.112688)
(0.000832354 0.000308031 0.109462)
(0.000113487 -6.85903e-05 0.119282)
(8.6793e-05 0.000578382 0.0877664)
(-0.000732727 -0.000765312 0.0921601)
(-0.000125175 0.000952048 0.112469)
(-0.000120627 0.000826669 0.120159)
(-0.000559691 -6.6052e-05 0.111199)
(-0.000367071 0.000832856 0.118561)
(3.949e-05 0.000145626 0.112659)
(-6.33783e-05 0.000124729 0.119101)
(0.00031322 0.000831743 0.10942)
(5.45332e-05 0.000538181 0.104801)
(0.000540968 5.90097e-05 0.104915)
(0.000532691 0.000537034 0.115679)
(0.000734084 -0.000264404 0.109879)
(-0.000280379 0.000733589 0.109905)
(-0.000789718 -0.0141497 0.10829)
(-0.000593982 -0.00449005 0.0682016)
(-0.000321697 -0.00460429 0.106355)
(-0.0060638 -0.0108419 0.101951)
(-0.000540682 -0.00285514 0.0538648)
(0.00635994 -0.0108305 0.0972515)
(-0.0141478 -0.000797784 0.10828)
(-0.00448359 -0.000603328 0.0681735)
(-0.00465028 -0.000339261 0.106417)
(-0.010839 -0.00608596 0.101945)
(-0.00153021 -0.00153593 0.10774)
(-0.00158251 -0.00534884 0.115047)
(-0.00534565 -0.00160414 0.115082)
(-0.00883164 -0.00888136 0.110418)
(-0.00158565 -0.00160216 0.115203)
(-0.001685 -0.00827956 0.109127)
(-0.00823024 -0.00170355 0.109143)
(0.0136915 -0.00116499 0.107793)
(0.0063037 -0.00239626 0.105014)
(0.00784866 -0.00142859 0.114302)
(0.0116906 -0.00896428 0.109126)
(0.00505479 -0.000289468 0.110103)
(0.0130731 -0.00642337 0.110569)
(0.0115269 -0.0016595 0.108549)
(-0.00285034 -0.000539708 0.0538487)
(-0.0108269 0.00637319 0.0972386)
(-0.00122388 0.0134996 0.107781)
(-0.00142193 0.00787064 0.114153)
(-0.00239985 0.00629805 0.105027)
(-0.00871544 0.0117196 0.109055)
(-0.000259626 0.00510542 0.110022)
(-0.00160079 0.0115693 0.108444)
(-0.00640273 0.0130594 0.110575)
(0.00317077 0.00187688 0.100901)
(0.00189453 0.00317489 0.100948)
(0.0101685 0.010188 0.107837)
(0.0123576 0.00659611 0.108368)
(0.00659038 0.0123609 0.108337)
(-1.23931e-05 -1.78546e-05 0.0889249)
(1.36529e-05 2.5498e-05 0.0887345)
(-2.35443e-05 -1.46129e-05 0.0887754)
(2.36124e-05 1.16969e-05 0.088696)
(0.00024094 0.000242051 0.115942)
(-3.45339e-05 -2.11514e-05 0.106786)
(-2.50602e-05 -3.44661e-05 0.106646)
(3.54075e-05 2.67498e-05 0.106705)
(2.51765e-05 3.21573e-05 0.106662)
(1.40469e-05 -5.6825e-05 0.0989388)
(-7.29167e-06 6.61914e-07 0.11911)
(3.70011e-05 -5.02369e-05 0.110496)
(1.34484e-06 8.06633e-05 0.1098)
(-9.50877e-06 -5.0369e-05 0.0990516)
(1.00498e-05 5.59032e-05 0.0988452)
(-8.83937e-07 -6.94309e-05 0.109975)
(-2.02003e-06 8.02462e-05 0.109802)
(9.83853e-06 -5.06678e-05 0.0990457)
(-9.64578e-06 5.62469e-05 0.0988423)
(5.45233e-07 -6.9833e-05 0.109978)
(3.45446e-07 7.4511e-05 0.112582)
(3.41552e-06 2.13758e-06 0.119219)
(-3.9843e-05 -4.95304e-05 0.1106)
(1.65187e-07 3.14526e-06 0.120299)
(3.85589e-05 5.69282e-05 0.11049)
(6.98752e-07 3.071e-06 0.120261)
(-1.11285e-06 -6.20142e-05 0.112692)
(-1.17129e-06 7.44062e-05 0.112582)
(-3.23143e-06 2.00991e-06 0.119218)
(3.95482e-05 -4.86881e-05 0.110606)
(1.45737e-06 3.69119e-06 0.120303)
(-3.80368e-05 5.73858e-05 0.110492)
(-5.39179e-07 3.15672e-06 0.120264)
(8.45478e-07 -6.23499e-05 0.112693)
(0.000243126 -0.000248822 0.115949)
(3.18041e-05 -2.23655e-05 0.106699)
(2.52998e-05 -3.52473e-05 0.106648)
(2.25281e-05 -1.49053e-05 0.0887814)
(1.24312e-05 -1.82669e-05 0.0889149)
(-1.29095e-05 2.65789e-05 0.088725)
(-0.000238498 0.000240765 0.115948)
(3.42478e-05 -2.02627e-05 0.106786)
(2.56937e-05 -3.50679e-05 0.106646)
(-3.54429e-05 2.75371e-05 0.106697)
(-2.54934e-05 3.21991e-05 0.10667)