/*--------------------------------*- C++ -*----------------------------------*\
| =========                 |                                                 |
| \\      /  F ield         | OpenFOAM: The Open Source CFD Toolbox           |
|  \\    /   O peration     | Version:  2206                                  |
|   \\  /    A nd           | Website:  www.openfoam.com                      |
|    \\/     M anipulation  |                                                 |
\*---------------------------------------------------------------------------*/
FoamFile
{
    version     2.0;
    format      ascii;
    arch        "LSB;label=32;scalar=64";
    class       volVectorField;
    location    "20";
    object      wallShearStress;
}
// * * * * * * * * * * * * * * * * * * * * * * * * * * * * * * * * * * * * * //

dimensions      [0 2 -2 0 0 0 0];

internalField   uniform (0 0 0);

boundaryField
{
    topPatch
    {
        type            calculated;
        value           nonuniform List<vector> 0();
    }
    wall
    {
        type            calculated;
        value           nonuniform List<vector> 
7778
(
(-2.69621e-06 2.22829e-05 -0.000300847)
(-6.91298e-06 -1.08247e-05 -0.00018748)
(2.2372e-05 -2.67026e-06 -0.000300678)
(-1.08261e-05 -6.89912e-06 -0.000187292)
(2.64817e-06 2.23596e-05 -0.000300907)
(2.22751e-05 2.67875e-06 -0.000300635)
(-2.22868e-05 -2.71306e-06 -0.000300691)
(-2.23628e-05 2.72025e-06 -0.000300683)
(-2.68957e-06 -2.22867e-05 -0.000300838)
(-6.92038e-06 1.08211e-05 -0.000187512)
(2.67791e-06 -2.23671e-05 -0.000300846)
(1.22561e-05 5.92937e-05 -0.000227287)
(-2.44681e-05 -1.60369e-05 -0.000386181)
(-1.53012e-05 8.73669e-06 -0.000279545)
(-3.87766e-05 3.74862e-05 -0.000270878)
(5.91201e-05 1.17579e-05 -0.000227076)
(-1.60514e-05 -2.44688e-05 -0.000386097)
(8.73285e-06 -1.52937e-05 -0.000279445)
(3.7488e-05 -3.87942e-05 -0.000270783)
(2.4337e-05 -1.6152e-05 -0.000385685)
(3.86474e-05 3.77559e-05 -0.000271037)
(1.50258e-05 8.93741e-06 -0.000279734)
(-1.61819e-05 2.42863e-05 -0.000385721)
(3.77618e-05 3.86221e-05 -0.000271077)
(8.95415e-06 1.49787e-05 -0.000279791)
(-1.17809e-05 5.9133e-05 -0.000227307)
(1.60819e-05 2.44632e-05 -0.000386215)
(-8.69916e-06 1.53101e-05 -0.000279573)
(-3.74681e-05 3.88366e-05 -0.000270873)
(5.92671e-05 -1.22826e-05 -0.000227088)
(-5.9145e-05 1.19227e-05 -0.000226997)
(-5.9037e-05 -1.14406e-05 -0.000227034)
(2.43433e-05 1.60258e-05 -0.000386238)
(1.5166e-05 -8.78597e-06 -0.000279644)
(3.87083e-05 -3.75399e-05 -0.00027092)
(1.22597e-05 -5.9283e-05 -0.000227287)
(-1.17608e-05 -5.91373e-05 -0.000227264)
(1.61687e-05 -2.43784e-05 -0.000385663)
(-3.77545e-05 -3.86712e-05 -0.00027096)
(-8.92001e-06 -1.50499e-05 -0.000279654)
(-2.42379e-05 1.61602e-05 -0.000385766)
(-3.85702e-05 -3.77982e-05 -0.000271088)
(-1.4925e-05 -8.98047e-06 -0.000279867)
(-1.27984e-05 6.75163e-06 -0.000208654)
(-3.46841e-06 2.78674e-05 -0.000200663)
(6.81093e-06 -1.27934e-05 -0.000208558)
(1.2803e-05 6.71346e-06 -0.000208691)
(3.4529e-06 2.78537e-05 -0.000200694)
(6.76887e-06 1.2796e-05 -0.000208598)
(2.78523e-05 3.43175e-06 -0.000200631)
(-6.74196e-06 -1.28032e-05 -0.000208553)
(-1.60397e-05 1.11045e-05 -0.000235151)
(-6.79735e-06 1.27673e-05 -0.000208588)
(-1.2832e-05 -6.73214e-06 -0.000208632)
(1.10924e-05 -1.6061e-05 -0.00023518)
(1.28093e-05 -6.76117e-06 -0.000208636)
(6.90357e-06 -1.08349e-05 -0.000187566)
(-1.08212e-05 6.92055e-06 -0.000187467)
(1.11017e-05 1.60256e-05 -0.000235172)
(2.78602e-05 -3.4601e-06 -0.000200598)
(1.60254e-05 1.11101e-05 -0.000235089)
(1.60564e-05 -1.11487e-05 -0.000235109)
(1.08207e-05 -6.87983e-06 -0.000187384)
(-2.78375e-05 -3.47934e-06 -0.000200619)
(1.08454e-05 6.89414e-06 -0.000187445)
(-2.78596e-05 3.43641e-06 -0.000200589)
(-1.60308e-05 -1.11281e-05 -0.00023508)
(-3.49144e-06 -2.78684e-05 -0.00020066)
(6.9062e-06 1.08124e-05 -0.000187441)
(3.49693e-06 -2.78489e-05 -0.000200664)
(4.5045e-07 1.60826e-05 -0.000223447)
(1.61366e-05 4.75586e-07 -0.000223285)
(-4.7053e-07 1.60751e-05 -0.000223432)
(-1.11257e-05 1.60453e-05 -0.00023518)
(1.61155e-05 -4.45928e-07 -0.000223352)
(-1.61112e-05 4.7137e-07 -0.000223308)
(-1.61355e-05 -4.65063e-07 -0.000223353)
(4.4731e-07 -1.60919e-05 -0.000223411)
(-4.67641e-07 -1.61216e-05 -0.000223344)
(-1.10727e-05 -1.60241e-05 -0.000235155)
(-3.51826e-08 3.72511e-09 -0.000188053)
(6.54815e-09 -1.89422e-08 -0.000175098)
(1.7107e-08 1.33653e-08 -0.000175377)
(-1.2475e-08 -2.56617e-08 -0.000187692)
(-6.05563e-09 1.37839e-08 -0.000187981)
(-6.79533e-09 -1.32165e-08 -0.000175194)
(1.09956e-08 2.00195e-08 -0.000175581)
(-9.8801e-09 1.33433e-08 -0.000187771)
(7.54435e-09 -1.99615e-08 -0.000188131)
(-2.9499e-08 -6.38625e-09 -0.000174893)
(2.12921e-08 1.26936e-08 -0.000175316)
(2.20642e-08 -5.67994e-10 -0.000187579)
(-6.8499e-09 1.34532e-08 -0.000187952)
(-9.79235e-09 -1.74765e-08 -0.000175171)
(1.27183e-08 1.57362e-08 -0.000175578)
(-7.34982e-09 1.17715e-08 -0.00018777)
(1.35716e-08 -6.8288e-09 -0.000188112)
(-1.32354e-08 -7.67824e-09 -0.000174919)
(2.23183e-08 1.11909e-08 -0.000175328)
(7.65273e-09 -9.48171e-09 -0.000187583)
(-1.27183e-08 1.22707e-08 -0.000187965)
(-6.58211e-09 -1.55928e-08 -0.000175169)
(1.09275e-08 2.02709e-08 -0.000175559)
(-7.52026e-09 8.68391e-09 -0.000187752)
(1.1332e-08 -6.66827e-09 -0.000188114)
(-1.39498e-08 -1.05043e-08 -0.000174904)
(1.3852e-08 7.84879e-09 -0.000175322)
(1.09441e-08 -8.76123e-09 -0.000187593)
(-1.50416e-08 7.26383e-09 -0.000187959)
(-9.34324e-09 -1.08061e-08 -0.000175147)
(8.51347e-09 1.36998e-08 -0.000175564)
(-8.77666e-09 9.67116e-09 -0.000187769)
(1.08042e-08 -9.33118e-09 -0.000188124)
(-9.61941e-09 -1.07973e-08 -0.000174907)
(2.48368e-08 4.72919e-09 -0.000175317)
(1.24457e-08 -1.07334e-08 -0.000187589)
(-6.06076e-09 8.60412e-09 -0.000187962)
(-1.01045e-08 -9.73878e-09 -0.000175163)
(4.99826e-09 1.91308e-08 -0.000175566)
(-1.15597e-08 7.98273e-09 -0.000187762)
(5.31812e-09 -1.22829e-08 -0.000188122)
(-2.05843e-08 -9.89837e-09 -0.000174907)
(1.60761e-08 4.38203e-09 -0.000175337)
(1.26475e-08 -9.36185e-09 -0.000187615)
(-8.47187e-09 7.28683e-09 -0.000187983)
(-1.01832e-08 -1.85845e-08 -0.000175162)
(8.2824e-09 1.17139e-08 -0.000175579)
(-1.14738e-08 9.21544e-09 -0.000187771)
(7.28463e-09 -9.02704e-09 -0.00018813)
(-2.20965e-08 -7.36216e-09 -0.000174933)
(1.64905e-08 7.76467e-09 -0.000175345)
(1.32426e-08 -1.0425e-08 -0.000187629)
(-9.40612e-09 9.53316e-09 -0.000187986)
(-7.28869e-09 -2.47273e-08 -0.000175182)
(1.27596e-08 5.76303e-09 -0.000175578)
(-1.04673e-08 1.41556e-08 -0.000187794)
(1.1326e-08 -3.85853e-09 -0.00018814)
(-1.81589e-08 -1.07445e-08 -0.000174913)
(1.77616e-08 9.40515e-09 -0.000175311)
(8.79676e-09 -9.84098e-09 -0.000187609)
(-7.70451e-09 1.49323e-08 -0.00018797)
(-8.36577e-09 -1.8369e-08 -0.000175169)
(1.19216e-08 1.05544e-08 -0.00017556)
(-1.00669e-08 8.01437e-09 -0.000187776)
(1.56729e-08 -2.27894e-09 -0.000188115)
(-6.94436e-09 -1.57272e-08 -0.000174902)
(1.95416e-08 1.88582e-08 -0.000175417)
(-8.89587e-09 -1.71833e-08 -0.000187622)
(3.80895e-08 3.64324e-08 -0.000188063)
(-1.64198e-08 -7.65743e-09 -0.00017516)
(1.98072e-08 1.63118e-08 -0.000175659)
(-1.87446e-08 -1.06461e-08 -0.00018777)
(3.47432e-08 4.23961e-08 -0.000188208)
(-4.07516e-08 -2.17423e-08 -0.000174883)
(1.37112e-07 -2.13466e-08 -0.000175715)
(-1.66436e-07 -9.4511e-08 -0.000187476)
(2.61178e-07 1.59201e-07 -0.000189024)
(-1.9173e-08 -3.35718e-08 -0.000175136)
(-2.18936e-08 1.38818e-07 -0.000175935)
(-9.68941e-08 -1.74092e-07 -0.00018764)
(1.51108e-07 2.60788e-07 -0.000189154)
(-5.72451e-08 2.04974e-08 -0.000184487)
(-2.58539e-06 1.23595e-06 -0.000150345)
(-3.3114e-07 -2.3345e-07 -0.000194077)
(3.58516e-07 -1.59137e-06 -0.000191037)
(1.89866e-08 -6.34127e-08 -0.000184665)
(1.23968e-06 -2.57743e-06 -0.000150523)
(-2.49012e-07 -3.8639e-07 -0.000194225)
(-1.60793e-06 3.34385e-07 -0.00019111)
(1.69437e-05 3.86996e-05 -0.000160169)
(1.03347e-05 -4.01829e-06 -0.00018604)
(3.86685e-05 1.69673e-05 -0.000160124)
(-4.01959e-06 1.03364e-05 -0.000185981)
(5.39554e-08 -1.16121e-08 -0.000188113)
(1.60689e-08 -2.34981e-08 -0.000187736)
(1.471e-08 6.57659e-09 -0.000188116)
(-7.19371e-09 -1.84275e-08 -0.000187749)
(-3.83311e-08 3.29098e-09 -0.000175458)
(5.0425e-08 -4.23925e-09 -0.000175559)
(7.7337e-09 -1.33152e-08 -0.000175111)
(-4.88578e-08 -4.50566e-09 -0.00017552)
(-1.00982e-08 -1.50481e-08 -0.000175077)
(-1.38072e-08 8.1299e-09 -0.000188125)
(-5.3001e-08 -1.31163e-08 -0.000188087)
(-2.07689e-08 -2.43948e-08 -0.000187712)
(-1.39423e-08 8.5564e-09 -0.00018814)
(4.92105e-09 -2.00667e-08 -0.000187764)
(1.16282e-08 1.19518e-08 -0.000175587)
(-4.30684e-09 -2.20292e-08 -0.000175169)
(9.26636e-09 -1.43123e-08 -0.0001756)
(-4.72072e-09 1.94282e-08 -0.0001752)
(-7.36808e-09 1.23666e-08 -0.000175585)
(-1.02138e-08 -9.03334e-09 -0.000175565)
(-1.1943e-08 1.10294e-08 -0.000175591)
(8.55979e-09 -1.71461e-08 -0.000175177)
(-1.30516e-08 -5.78469e-09 -0.00017557)
(7.54981e-09 1.80507e-08 -0.000175149)
(1.09487e-08 -1.02449e-08 -0.000188123)
(-2.99499e-09 1.76519e-08 -0.000187767)
(4.6684e-08 8.64192e-09 -0.000188116)
(1.11037e-08 2.12572e-08 -0.000187746)
(4.557e-08 1.87407e-09 -0.000175565)
(6.78797e-09 1.3741e-08 -0.000175125)
(-4.56229e-08 2.4044e-09 -0.000175539)
(-1.28976e-08 1.34544e-08 -0.000175095)
(-1.466e-08 -4.88494e-09 -0.00018809)
(-3.22645e-08 -5.61356e-09 -0.00018806)
(-1.62777e-08 -5.53138e-11 -0.000188096)
(2.11905e-09 2.15271e-08 -0.000187717)
(-4.45794e-08 8.41703e-09 -0.000188094)
(-1.18845e-08 1.86186e-08 -0.000187721)
(1.70795e-08 -2.65349e-08 -0.00018771)
(7.97128e-09 1.23083e-08 -0.000188002)
(-9.4858e-09 -1.19741e-08 -0.00018776)
(1.1334e-08 1.37574e-08 -0.000188122)
(-1.96808e-09 1.93656e-08 -0.00018798)
(-1.67573e-08 -5.2003e-09 -0.000187603)
(1.46045e-08 6.58962e-09 -0.000188123)
(-1.0233e-08 -8.46853e-09 -0.000187746)
(-5.85984e-10 -1.79585e-08 -0.000175064)
(-1.15501e-08 1.28305e-08 -0.000175349)
(1.11822e-08 1.45546e-08 -0.000175321)
(-2.65464e-08 -6.95687e-09 -0.000174929)
(-9.57162e-09 1.56532e-08 -0.000175305)
(2.98134e-08 -4.81355e-09 -0.000174914)
(8.04509e-09 -1.22916e-08 -0.000187791)
(-7.40549e-09 2.08323e-08 -0.000188151)
(-1.805e-10 1.70549e-08 -0.000187964)
(1.64737e-08 -6.28844e-09 -0.000187586)
(-1.3874e-08 8.41744e-09 -0.000188142)
(1.3787e-08 -1.68733e-09 -0.000187783)
(-7.17692e-09 1.65015e-08 -0.000175208)
(9.72052e-09 -2.28826e-08 -0.000175602)
(1.08003e-08 1.70756e-08 -0.000175585)
(-9.32909e-09 -1.58809e-08 -0.000175177)
(9.90433e-09 -1.95531e-08 -0.000175607)
(-9.25326e-09 1.11616e-08 -0.000175195)
(3.93583e-09 -1.97825e-08 -0.000175202)
(-9.14086e-09 2.4168e-08 -0.000175592)
(2.56577e-09 2.36866e-08 -0.000175175)
(-1.00558e-08 -2.28384e-08 -0.000175579)
(-1.14432e-08 2.11381e-08 -0.00017559)
(1.06406e-08 -1.02513e-08 -0.000175187)
(-9.30274e-09 -2.27923e-08 -0.000175581)
(1.14224e-08 8.56256e-09 -0.000175173)
(6.6754e-09 2.02289e-08 -0.000187729)
(7.32796e-09 -1.16175e-08 -0.000188014)
(1.19158e-08 -1.06e-08 -0.000188133)
(-1.06437e-08 3.76499e-09 -0.000187766)
(-3.17215e-09 -2.02578e-08 -0.000187987)
(-1.62856e-08 6.97321e-09 -0.000187628)
(-5.23003e-09 1.428e-08 -0.000175114)
(6.52715e-09 -1.43421e-08 -0.000175401)
(4.21319e-09 1.45114e-08 -0.000175082)
(-1.86475e-09 -1.38317e-08 -0.000175376)
(3.57817e-09 -1.7191e-08 -0.000175345)
(-3.60537e-08 2.79829e-09 -0.000174951)
(-4.90333e-09 -1.61881e-08 -0.000175332)
(3.39366e-08 1.15601e-09 -0.000174937)
(2.3245e-09 2.01411e-08 -0.00018774)
(-6.65378e-09 -1.89136e-08 -0.000188101)
(-1.59871e-09 1.7737e-08 -0.00018771)
(-3.99042e-09 -1.48677e-08 -0.000188005)
(-1.04543e-08 -1.37734e-08 -0.000188093)
(1.17253e-08 3.22559e-09 -0.000187727)
(-8.38537e-10 -1.78703e-08 -0.000187978)
(2.05982e-08 5.05549e-09 -0.000187604)
(-2.01038e-08 -2.32244e-09 -0.000187594)
(9.86059e-09 1.06877e-08 -0.000187968)
(-5.35444e-09 -1.4913e-08 -0.000187755)
(1.24631e-08 9.64391e-09 -0.000188107)
(1.71114e-08 1.00967e-08 -0.000187983)
(-7.70951e-09 -8.11158e-09 -0.000187595)
(1.21442e-08 1.01457e-08 -0.000188108)
(-5.98952e-09 -1.40613e-08 -0.000187747)
(2.8699e-08 -5.17592e-09 -0.000174883)
(-1.83343e-08 1.18007e-08 -0.000175292)
(2.71203e-08 9.13878e-09 -0.000175326)
(-1.61834e-08 -9.93066e-09 -0.000174902)
(-3.10621e-08 7.31136e-09 -0.000175309)
(1.19399e-08 -9.22252e-09 -0.000174885)
(6.80453e-09 -9.69438e-09 -0.00018778)
(-1.30421e-08 5.46665e-09 -0.000188117)
(-1.72332e-08 9.12052e-09 -0.000187962)
(1.34395e-08 -5.91402e-09 -0.000187572)
(-1.26348e-08 9.49351e-09 -0.000188125)
(4.60539e-09 -1.45733e-08 -0.000187761)
(-7.80502e-09 1.91352e-08 -0.000175196)
(9.8396e-09 -1.55165e-08 -0.000175582)
(1.26209e-08 1.59731e-08 -0.000175567)
(-8.97971e-09 -1.6639e-08 -0.000175171)
(9.81917e-09 -2.44754e-08 -0.000175592)
(-8.99944e-09 1.22386e-08 -0.000175193)
(9.31308e-09 -1.86515e-08 -0.000175175)
(-1.15564e-08 1.6099e-08 -0.000175567)
(1.01372e-08 1.43435e-08 -0.000175161)
(-1.01639e-08 -2.00561e-08 -0.000175544)
(-1.25992e-08 1.6153e-08 -0.000175565)
(1.0326e-08 -1.40722e-08 -0.000175161)
(-1.20468e-08 -2.11709e-08 -0.000175545)
(1.09225e-08 4.6275e-09 -0.000175139)
(-2.27621e-08 6.4278e-10 -0.000187624)
(9.06898e-09 -1.21401e-08 -0.000187968)
(9.80333e-09 -1.41674e-08 -0.000188119)
(-3.77255e-09 1.69602e-08 -0.000187752)
(1.49078e-08 -1.02638e-08 -0.000187976)
(-8.00943e-09 9.51417e-09 -0.000187613)
(-3.50617e-08 2.78696e-09 -0.000174917)
(1.8729e-08 -1.09577e-08 -0.000175333)
(3.30737e-08 2.11831e-09 -0.000174909)
(-2.19898e-08 -1.01221e-08 -0.000175312)
(2.69503e-08 -1.06923e-08 -0.000175339)
(-1.26946e-08 1.01861e-08 -0.000174913)
(-2.72213e-08 -1.23209e-08 -0.000175323)
(1.13657e-08 9.77475e-09 -0.000174901)
(7.90568e-09 8.35351e-09 -0.000187733)
(-8.92749e-09 -1.31068e-08 -0.000188067)
(2.07443e-08 1.80786e-09 -0.000187599)
(-1.1622e-08 -1.11005e-08 -0.000187958)
(-1.01654e-08 -1.53145e-08 -0.000188071)
(7.7845e-09 8.06316e-09 -0.000187701)
(-2.00192e-08 -6.04867e-09 -0.000187954)
(1.10761e-08 6.41312e-09 -0.000187585)
(-4.79166e-09 -1.08942e-08 -0.000187609)
(1.41155e-08 1.02355e-08 -0.000187977)
(-5.52418e-09 -1.22441e-08 -0.000187739)
(1.30814e-08 1.03885e-08 -0.000188102)
(1.94205e-08 7.9164e-09 -0.00018798)
(-1.00615e-08 -8.09527e-09 -0.000187604)
(1.01999e-08 1.35309e-08 -0.000188093)
(-7.79219e-09 -1.24238e-08 -0.000187724)
(1.35404e-08 -9.15473e-09 -0.000174901)
(-1.89505e-08 1.02984e-08 -0.000175308)
(2.89472e-08 5.93457e-09 -0.00017533)
(-1.79137e-08 -1.01823e-08 -0.000174901)
(-2.19484e-08 6.71575e-09 -0.000175319)
(1.97761e-08 -8.57648e-09 -0.000174897)
(4.64155e-09 -1.3322e-08 -0.000187767)
(-1.3226e-08 6.61285e-09 -0.000188123)
(-1.30404e-08 1.10844e-08 -0.000187969)
(9.94571e-09 -9.60902e-09 -0.000187582)
(-1.5555e-08 3.55958e-09 -0.000188117)
(3.98509e-09 -2.02045e-08 -0.000187762)
(-1.03428e-08 1.05786e-08 -0.000175192)
(9.69707e-09 -1.78503e-08 -0.000175583)
(6.90193e-09 2.34544e-08 -0.000175565)
(-8.30409e-09 -1.91954e-08 -0.000175151)
(9.75731e-09 -1.69319e-08 -0.0001756)
(-9.4656e-09 1.52155e-08 -0.000175184)
(5.5306e-09 -1.71312e-08 -0.000175171)
(-1.20963e-08 1.30145e-08 -0.000175568)
(7.4205e-09 1.73941e-08 -0.000175144)
(-1.15074e-08 -1.7348e-08 -0.00017555)
(-1.07363e-08 1.28624e-08 -0.000175572)
(7.58953e-09 -2.67328e-08 -0.00017516)
(-9.21344e-09 -1.63912e-08 -0.000175561)
(1.02403e-08 1.65716e-08 -0.000175149)
(-8.03895e-09 6.42998e-09 -0.000187619)
(1.37777e-08 -1.09024e-08 -0.000187982)
(1.11158e-08 -1.36586e-08 -0.000188134)
(-5.7417e-09 1.43025e-08 -0.000187755)
(9.0257e-09 -1.23292e-08 -0.000187971)
(-1.05736e-08 8.67339e-09 -0.00018761)
(-1.58018e-08 6.88098e-09 -0.000174927)
(1.76563e-08 -1.11699e-08 -0.000175336)
(1.78542e-08 7.95327e-09 -0.000174904)
(-1.70232e-08 -1.00504e-08 -0.00017531)
(1.94745e-08 -7.80542e-09 -0.000175328)
(-2.47005e-08 5.82895e-09 -0.000174916)
(-2.04848e-08 -8.719e-09 -0.000175309)
(2.19693e-08 7.10422e-09 -0.000174896)
(7.17751e-09 8.985e-09 -0.000187713)
(-1.01557e-08 -9.2654e-09 -0.000188075)
(1.02758e-08 6.41446e-09 -0.000187593)
(-1.18066e-08 -1.07249e-08 -0.000187955)
(-1.57539e-08 -4.93528e-09 -0.000188083)
(4.90205e-09 1.79114e-08 -0.000187721)
(-1.78296e-08 -8.83829e-09 -0.000187957)
(1.15312e-08 8.4512e-09 -0.000187581)
(-6.84875e-09 -1.12501e-08 -0.000187606)
(9.01364e-09 1.03484e-08 -0.000187972)
(-7.11618e-09 -1.28094e-08 -0.000187731)
(1.1158e-08 5.13832e-09 -0.000188097)
(1.50855e-08 8.53114e-09 -0.000187976)
(-1.61071e-08 -7.58305e-09 -0.000187602)
(8.74359e-09 1.46268e-08 -0.000188109)
(-2.778e-09 -1.91422e-08 -0.000187744)
(1.8068e-08 -8.39764e-09 -0.000174902)
(-2.07647e-08 6.3585e-09 -0.000175317)
(2.10057e-08 6.82447e-09 -0.000175322)
(-1.90477e-08 -8.69578e-09 -0.000174903)
(-2.31152e-08 3.03964e-09 -0.000175313)
(1.17828e-08 -1.17333e-08 -0.0001749)
(4.14293e-09 -1.91809e-08 -0.000187755)
(-1.32518e-08 4.13287e-09 -0.000188113)
(-1.56388e-08 7.62231e-09 -0.000187971)
(1.10721e-08 -8.7821e-09 -0.00018759)
(-9.99028e-09 1.13277e-08 -0.000188113)
(4.83743e-09 -1.92202e-08 -0.000187753)
(-3.61085e-09 2.29624e-08 -0.000175203)
(8.91123e-09 -1.50636e-08 -0.000175596)
(8.81307e-09 1.64612e-08 -0.000175563)
(-1.05943e-08 -1.72149e-08 -0.000175159)
(5.8087e-09 -2.06839e-08 -0.000175596)
(-1.27615e-08 1.40344e-08 -0.000175194)
(6.17491e-09 -2.13895e-08 -0.000175172)
(-8.37245e-09 1.05151e-08 -0.000175572)
(6.38431e-09 1.92762e-08 -0.000175153)
(-6.51843e-09 -1.4045e-08 -0.000175556)
(-4.68731e-09 1.53745e-08 -0.000175574)
(8.17426e-09 -2.01268e-08 -0.000175169)
(-5.62438e-09 -1.69756e-08 -0.00017555)
(1.05052e-08 1.44768e-08 -0.000175149)
(-1.71024e-08 6.83661e-09 -0.000187594)
(1.33808e-08 -9.59583e-09 -0.000187967)
(6.93248e-09 -1.58836e-08 -0.000188124)
(-5.47083e-09 1.52746e-08 -0.000187761)
(1.28816e-08 -9.34469e-09 -0.000187973)
(-1.15907e-08 1.07906e-08 -0.000187597)
(-1.87601e-08 6.67648e-09 -0.000174914)
(2.17632e-08 -3.3307e-09 -0.000175327)
(2.0905e-08 4.63297e-09 -0.000174891)
(-1.1901e-08 -7.70662e-09 -0.000175306)
(2.64167e-08 -2.36322e-09 -0.000175338)
(-1.65742e-08 9.72199e-09 -0.000174915)
(-2.56038e-08 -4.47396e-09 -0.000175307)
(2.24479e-08 9.05978e-09 -0.000174882)
(6.12865e-09 1.64668e-08 -0.000187721)
(-1.08569e-08 -9.06195e-09 -0.000188083)
(1.1909e-08 8.72313e-09 -0.000187584)
(-6.91319e-09 -1.10791e-08 -0.000187955)
(-8.54963e-09 -1.60604e-08 -0.000188071)
(1.07723e-08 8.40799e-09 -0.000187712)
(-1.62655e-08 -7.91188e-09 -0.000187948)
(1.75254e-08 4.98495e-09 -0.000187584)
(-5.72888e-09 -1.21948e-08 -0.000187608)
(1.57894e-08 4.10964e-09 -0.000187978)
(-1.08612e-08 -1.0165e-08 -0.000187748)
(6.96012e-09 1.37502e-08 -0.000188107)
(9.5448e-09 9.83618e-09 -0.000187979)
(-7.93297e-09 -1.24247e-08 -0.000187602)
(1.18539e-08 7.30988e-09 -0.000188113)
(-1.29929e-08 -1.29617e-08 -0.000187749)
(1.14409e-08 -1.12173e-08 -0.000174899)
(-2.14335e-08 5.38882e-09 -0.000175316)
(1.67319e-08 8.28891e-09 -0.000175321)
(-1.29973e-08 -1.3313e-08 -0.000174893)
(-1.16007e-08 1.0317e-08 -0.000175324)
(1.59622e-08 -1.3432e-08 -0.000174892)
(1.25745e-08 -1.09366e-08 -0.000187756)
(-2.69655e-09 1.92555e-08 -0.000188118)
(-1.42497e-08 8.36778e-09 -0.000187965)
(1.34801e-08 -1.12803e-08 -0.000187592)
(-1.17306e-08 6.61535e-09 -0.000188123)
(1.15271e-08 -8.68918e-09 -0.000187773)
(-1.2108e-08 9.00899e-09 -0.00017519)
(7.02798e-09 -1.91137e-08 -0.000175599)
(1.01821e-08 1.25093e-08 -0.000175572)
(-1.07777e-08 -1.89659e-08 -0.000175148)
(1.10094e-08 -1.24844e-08 -0.00017559)
(-1.08172e-08 1.66451e-08 -0.000175184)
(1.04819e-08 -8.62773e-09 -0.000175177)
(-5.29983e-09 2.37757e-08 -0.000175595)
(1.08968e-08 8.48847e-09 -0.000175153)
(-5.95682e-09 -2.0773e-08 -0.000175564)
(-9.11606e-09 1.57244e-08 -0.000175584)
(1.25857e-08 -1.26769e-08 -0.000175173)
(-5.8548e-09 -1.50052e-08 -0.000175561)
(1.25556e-08 1.18658e-08 -0.000175146)
(-1.3246e-08 9.91116e-09 -0.000187613)
(1.75285e-08 -3.26103e-09 -0.000187975)
(9.92656e-09 -1.3643e-08 -0.00018813)
(-1.10835e-08 1.21514e-08 -0.000187765)
(1.12127e-08 -9.76078e-09 -0.000187977)
(-7.76227e-09 1.43067e-08 -0.000187612)
(-1.10955e-08 1.04096e-08 -0.000174924)
(2.20517e-08 -5.30214e-09 -0.000175343)
(1.16597e-08 1.12606e-08 -0.000174885)
(-2.4489e-08 -4.72373e-09 -0.000175307)
(2.04355e-08 -6.81581e-09 -0.000175334)
(-1.70024e-08 1.02345e-08 -0.00017492)
(-1.75778e-08 -7.11824e-09 -0.000175313)
(1.41516e-08 1.21936e-08 -0.000174877)
(1.19206e-08 7.61249e-09 -0.000187721)
(-5.9919e-09 -1.58554e-08 -0.000188079)
(1.0154e-08 1.07502e-08 -0.000187584)
(-9.88611e-09 -8.28357e-09 -0.000187953)
(-1.06624e-08 -9.25625e-09 -0.000188088)
(1.2432e-08 1.04426e-08 -0.000187718)
(-1.13229e-08 -7.74658e-09 -0.00018797)
(1.3628e-08 1.05143e-08 -0.000187584)
(-1.53259e-08 -7.70422e-09 -0.000187618)
(6.59561e-09 9.9964e-09 -0.000187986)
(-8.47517e-09 -1.37281e-08 -0.000187758)
(8.09919e-09 7.49344e-09 -0.000188112)
(1.05253e-08 8.57578e-09 -0.000187996)
(-2.04189e-08 -1.09541e-08 -0.000187616)
(9.31748e-09 4.9154e-09 -0.000188123)
(-1.06544e-08 -1.44523e-08 -0.000187757)
(2.29749e-08 -7.8235e-09 -0.000174906)
(-1.75643e-08 7.38309e-09 -0.000175336)
(1.57264e-08 7.69618e-09 -0.000175359)
(-2.24358e-08 -1.02812e-08 -0.000174925)
(-1.86897e-08 7.74438e-09 -0.000175345)
(1.84177e-08 -1.17847e-08 -0.000174918)
(1.04567e-08 -1.2159e-08 -0.000187777)
(-1.06593e-08 7.23421e-09 -0.000188126)
(-1.23712e-08 6.55224e-09 -0.000187999)
(1.72343e-08 -9.23897e-09 -0.000187609)
(-8.94348e-09 6.15981e-09 -0.000188131)
(7.28356e-09 -2.01518e-08 -0.000187773)
(-1.09265e-08 1.87798e-08 -0.000175186)
(8.78388e-09 -1.06478e-08 -0.000175611)
(1.21689e-08 7.92595e-09 -0.000175589)
(-1.24076e-08 -2.14977e-08 -0.000175171)
(7.95019e-09 -1.22494e-08 -0.000175625)
(-1.12569e-08 1.86494e-08 -0.000175202)
(1.1009e-08 -1.7017e-08 -0.000175186)
(-7.83016e-09 1.1513e-08 -0.000175594)
(1.35331e-08 1.25965e-08 -0.000175163)
(-7.25528e-09 -1.37694e-08 -0.000175575)
(-1.04752e-08 1.19522e-08 -0.000175603)
(8.67167e-09 -2.60338e-08 -0.000175189)
(-7.57849e-09 -1.38866e-08 -0.000175579)
(1.01221e-08 1.86092e-08 -0.000175161)
(-1.20076e-08 1.00768e-08 -0.000187622)
(1.10172e-08 -1.02256e-08 -0.000187994)
(8.54431e-09 -1.02491e-08 -0.000188156)
(-1.01897e-08 1.79304e-08 -0.00018778)
(5.65943e-09 -1.0921e-08 -0.000188011)
(-1.91433e-08 9.48755e-09 -0.000187622)
(-1.69277e-08 1.18228e-08 -0.000174926)
(1.85929e-08 -4.97098e-09 -0.000175342)
(1.65472e-08 1.29066e-08 -0.000174893)
(-1.71595e-08 -7.14723e-09 -0.000175315)
(1.70524e-08 -9.0979e-09 -0.000175367)
(-2.08606e-08 1.00075e-08 -0.000174936)
(-1.79455e-08 -8.40378e-09 -0.000175325)
(2.28735e-08 9.10963e-09 -0.000174904)
(8.9254e-09 1.36337e-08 -0.00018773)
(-1.00862e-08 -5.15304e-09 -0.000188089)
(1.14023e-08 9.03967e-09 -0.00018761)
(-7.76548e-09 -1.02185e-08 -0.000187988)
(-8.6708e-09 -1.04732e-08 -0.000188098)
(9.50432e-09 1.85741e-08 -0.000187729)
(-6.86688e-09 -9.96024e-09 -0.000187983)
(1.70184e-08 1.18286e-08 -0.000187611)
(-1.20976e-08 -1.14853e-08 -0.000187629)
(1.3717e-08 9.78275e-09 -0.000187987)
(-8.94427e-09 -1.64644e-08 -0.000187755)
(1.17512e-08 4.27135e-09 -0.000188111)
(1.23092e-08 8.15498e-09 -0.000187975)
(-1.27218e-08 -8.52917e-09 -0.00018762)
(1.20328e-08 6.10141e-09 -0.000188093)
(-2.63059e-09 -2.2702e-08 -0.000187751)
(2.19936e-08 -9.8824e-09 -0.000174927)
(-1.71491e-08 8.18176e-09 -0.000175333)
(1.61614e-08 1.07043e-08 -0.000175335)
(-1.88792e-08 -8.18842e-09 -0.000174925)
(-2.10379e-08 9.72993e-09 -0.00017533)
(1.59024e-08 -1.10079e-08 -0.000174916)
(8.57322e-09 -1.52112e-08 -0.000187782)
(-1.0708e-08 9.30624e-09 -0.000188125)
(-1.31233e-08 7.36726e-09 -0.000187968)
(1.11098e-08 -9.57884e-09 -0.000187615)
(-1.15906e-08 5.77066e-09 -0.000188113)
(6.34882e-09 -1.56949e-08 -0.00018777)
(-8.16441e-09 2.15994e-08 -0.000175224)
(1.09543e-08 -1.15285e-08 -0.000175613)
(1.16952e-08 1.18007e-08 -0.000175573)
(-8.25751e-09 -2.26808e-08 -0.000175174)
(1.13841e-08 -1.16387e-08 -0.000175618)
(-1.00838e-08 2.16102e-08 -0.000175211)
(7.22651e-09 -2.20476e-08 -0.000175205)
(-8.07427e-09 1.59116e-08 -0.000175586)
(1.01663e-08 2.04095e-08 -0.000175173)
(-9.93296e-09 -1.41208e-08 -0.000175573)
(-1.03511e-08 1.44565e-08 -0.000175586)
(1.01177e-08 -1.8472e-08 -0.000175194)
(-1.00349e-08 -1.52199e-08 -0.00017558)
(1.00883e-08 1.48285e-08 -0.000175181)
(-1.9568e-08 7.3048e-09 -0.000187648)
(6.58155e-09 -1.2705e-08 -0.000188001)
(7.82237e-09 -1.07698e-08 -0.000188128)
(-3.90789e-09 1.7956e-08 -0.00018778)
(1.12859e-08 -8.63438e-09 -0.000187998)
(-1.70412e-08 7.73079e-09 -0.000187634)
(-2.52566e-08 8.51937e-09 -0.000174948)
(1.77295e-08 -6.98424e-09 -0.000175353)
(2.59738e-08 8.75612e-09 -0.000174891)
(-1.27146e-08 -8.8854e-09 -0.00017531)
(1.66334e-08 -8.7523e-09 -0.00017535)
(-1.92467e-08 9.54521e-09 -0.000174938)
(-2.37693e-08 -6.5871e-09 -0.000175306)
(1.80544e-08 7.90159e-09 -0.000174893)
(8.32364e-09 1.37284e-08 -0.000187735)
(-1.07482e-08 -6.28096e-09 -0.000188096)
(1.92201e-08 5.51139e-09 -0.000187625)
(-2.44941e-09 -1.58329e-08 -0.000187973)
(-9.63673e-09 -7.31956e-09 -0.000188093)
(4.69155e-09 1.67199e-08 -0.00018774)
(-1.44315e-08 -6.39113e-09 -0.000187959)
(1.33393e-08 7.75478e-09 -0.000187606)
(-1.10767e-08 -9.39121e-09 -0.000187617)
(3.8142e-09 1.41526e-08 -0.000187961)
(-9.22561e-09 -1.03269e-08 -0.000187742)
(1.43493e-08 3.57474e-09 -0.000188086)
(-1.4394e-09 1.56071e-08 -0.00018798)
(-1.30139e-08 -7.1047e-09 -0.000187604)
(1.68657e-08 -5.51914e-09 -0.000188109)
(-7.09623e-09 -1.3538e-08 -0.000187733)
(1.42323e-08 -1.08792e-08 -0.000174912)
(-2.13529e-08 6.26937e-09 -0.000175309)
(1.42479e-08 1.35084e-08 -0.000175335)
(-1.89105e-08 -9.68406e-09 -0.000174907)
(-1.53649e-08 1.58982e-08 -0.000175353)
(1.04206e-08 -9.94319e-09 -0.000174913)
(9.19414e-09 -1.01646e-08 -0.000187771)
(-1.16565e-08 4.85824e-09 -0.000188103)
(-8.62379e-11 1.46513e-08 -0.000187995)
(1.15881e-08 -6.55926e-09 -0.00018761)
(-1.2911e-08 -9.53689e-11 -0.000188133)
(7.81307e-09 -9.7245e-09 -0.000187756)
(-8.28226e-09 1.83202e-08 -0.000175217)
(1.17612e-08 -9.17379e-09 -0.000175598)
(1.39063e-08 1.13621e-08 -0.000175583)
(-8.68569e-09 -1.74481e-08 -0.000175162)
(1.79022e-08 -5.4512e-09 -0.000175626)
(-7.19887e-09 1.56829e-08 -0.000175203)
(8.91296e-09 -1.62772e-08 -0.000175192)
(-9.41923e-09 1.61713e-08 -0.000175565)
(9.68738e-09 1.28568e-08 -0.000175183)
(-1.01095e-08 -1.97433e-08 -0.000175565)
(-1.06508e-08 1.53932e-08 -0.000175594)
(1.07573e-08 -1.1396e-08 -0.000175178)
(-1.84591e-08 -6.57927e-09 -0.000175588)
(9.87106e-09 1.07267e-08 -0.000175177)
(-1.10108e-08 1.06114e-08 -0.000187639)
(8.00057e-09 -1.09492e-08 -0.000187981)
(1.66128e-08 1.95973e-09 -0.00018814)
(-6.48918e-09 1.06925e-08 -0.000187763)
(-3.92888e-09 -1.53685e-08 -0.000187993)
(-7.62597e-09 8.45186e-09 -0.000187614)
(-1.711e-08 8.99698e-09 -0.000174944)
(2.14649e-08 -8.87908e-09 -0.000175334)
(1.29159e-08 1.16363e-08 -0.000174899)
(-2.10376e-08 -7.79823e-09 -0.000175289)
(9.70912e-09 -1.40977e-08 -0.000175345)
(-1.75053e-08 1.07442e-08 -0.00017492)
(-1.6376e-08 -1.5216e-08 -0.000175316)
(1.50111e-08 1.0293e-08 -0.000174891)
(7.35311e-09 1.39303e-08 -0.000187737)
(-1.15723e-08 -7.76659e-09 -0.00018808)
(9.67731e-09 8.47722e-09 -0.000187603)
(-6.7974e-09 -1.16638e-08 -0.000187956)
(-1.36258e-08 -2.58049e-10 -0.000188105)
(1.20147e-08 2.29308e-09 -0.000187731)
(1.03608e-09 -1.30462e-08 -0.000187979)
(6.55637e-09 9.25867e-09 -0.000187606)
(1.3694e-08 -2.04074e-08 -0.000187601)
(-3.78959e-08 3.6618e-08 -0.000188065)
(-1.74079e-08 1.08781e-08 -0.000187735)
(3.33914e-08 -3.69427e-08 -0.000188186)
(-1.28324e-07 7.50119e-08 -0.00018835)
(5.4919e-08 -4.3732e-08 -0.000187528)
(7.39357e-08 -1.23716e-07 -0.000188464)
(-4.18568e-08 5.88076e-08 -0.000187664)
(1.26313e-08 -1.38049e-08 -0.000174907)
(-1.8989e-08 1.70331e-08 -0.00017542)
(4.98418e-08 1.56943e-08 -0.000175631)
(-1.61124e-08 -2.28687e-08 -0.000174821)
(-5.62381e-08 1.02193e-08 -0.000175635)
(9.28919e-09 -2.25774e-08 -0.000174831)
(1.80534e-08 1.1671e-08 -0.000187763)
(-3.1856e-08 -3.45853e-08 -0.000188218)
(1.21506e-07 7.29307e-08 -0.000188351)
(-6.35586e-08 -4.61973e-08 -0.000187532)
(-7.81772e-08 -1.27077e-07 -0.000188484)
(4.3079e-08 6.00138e-08 -0.00018769)
(-1.26619e-08 1.32265e-08 -0.000175201)
(1.81337e-08 -1.48515e-08 -0.000175697)
(1.20382e-08 5.59614e-08 -0.000175871)
(-2.16678e-08 -1.30492e-08 -0.000175083)
(1.40481e-08 -4.7759e-08 -0.000175917)
(-2.33605e-08 9.64682e-09 -0.000175131)
(1.42608e-08 -6.17109e-09 -0.000175181)
(-1.90141e-08 1.30727e-08 -0.000175673)
(1.27639e-08 1.37018e-08 -0.000175169)
(-2.0456e-08 -1.46812e-08 -0.000175665)
(-1.40626e-08 4.96462e-08 -0.000175878)
(2.3221e-08 -1.52782e-08 -0.000175102)
(-1.06464e-08 -5.32142e-08 -0.000175872)
(2.29968e-08 1.12484e-08 -0.000175094)
(3.97553e-09 1.56759e-08 -0.000187607)
(-3.641e-08 -3.26342e-08 -0.00018807)
(7.40639e-08 1.24758e-07 -0.000188501)
(-4.26683e-08 -5.64324e-08 -0.000187693)
(-1.24837e-07 -7.73004e-08 -0.000188349)
(6.21386e-08 4.50064e-08 -0.00018752)
(-1.25009e-08 1.16106e-08 -0.000174919)
(1.63275e-08 -2.10321e-08 -0.000175418)
(1.18825e-08 1.51797e-08 -0.000174886)
(-1.9839e-08 -1.98082e-08 -0.000175405)
(5.3445e-08 -1.51335e-08 -0.00017564)
(-1.65094e-08 2.46978e-08 -0.000174827)
(-5.82176e-08 -1.07888e-08 -0.000175626)
(1.86264e-08 2.23072e-08 -0.000174815)
(1.74176e-08 -1.11519e-08 -0.000187729)
(-3.1313e-08 3.42193e-08 -0.000188189)
(-3.1229e-09 1.60759e-08 -0.000187601)
(4.29469e-08 -3.7229e-08 -0.000188073)
(-7.48216e-08 1.27906e-07 -0.00018846)
(4.3574e-08 -5.96631e-08 -0.000187656)
(1.26997e-07 -7.52588e-08 -0.000188358)
(-5.82713e-08 4.58036e-08 -0.000187535)
(1.63666e-07 -9.33658e-08 -0.000187476)
(-2.64142e-07 1.54142e-07 -0.000189009)
(-9.90332e-08 1.76362e-07 -0.000187609)
(1.48253e-07 -2.54749e-07 -0.000189133)
(-3.74619e-07 3.41882e-07 -0.000189483)
(3.53147e-07 -1.85045e-07 -0.000187949)
(3.29427e-07 -3.33072e-07 -0.000189616)
(-1.90958e-07 3.66294e-07 -0.000188053)
(3.29818e-08 -2.26151e-08 -0.000174892)
(-1.35507e-07 -2.46792e-08 -0.00017572)
(3.17696e-07 -1.92251e-08 -0.000174273)
(-1.12908e-08 -9.05592e-09 -0.000176158)