/*--------------------------------*- C++ -*----------------------------------*\
| =========                 |                                                 |
| \\      /  F ield         | OpenFOAM: The Open Source CFD Toolbox           |
|  \\    /   O peration     | Version:  2206                                  |
|   \\  /    A nd           | Website:  www.openfoam.com                      |
|    \\/     M anipulation  |                                                 |
\*---------------------------------------------------------------------------*/
FoamFile
{
    version     2.0;
    format      ascii;
    arch        "LSB;label=32;scalar=64";
    class       volScalarField;
    location    "80";
    object      k;
}
// * * * * * * * * * * * * * * * * * * * * * * * * * * * * * * * * * * * * * //

dimensions      [0 2 -2 0 0 0 0];

internalField   nonuniform List<scalar> 
66701
(
8.74352e-06
8.1459e-06
1.36798e-05
2.11994e-05
1.06901e-05
3.70596e-05
3.34729e-05
1.16365e-05
8.25429e-06
1.39302e-05
2.13018e-05
1.07511e-05
3.73368e-05
1.18228e-05
3.39711e-05
8.8697e-06
2.49875e-06
5.94432e-07
1.11773e-07
5.08722e-08
3.11515e-07
2.5287e-06
6.01439e-07
1.12909e-07
5.09205e-08
3.11021e-07
2.51577e-06
5.84804e-07
1.07482e-07
4.58999e-08
2.75605e-07
2.57011e-06
5.97806e-07
1.09734e-07
4.61434e-08
2.75845e-07
2.53367e-06
6.02705e-07
1.13226e-07
5.10521e-08
3.11822e-07
2.5731e-06
6.12326e-07
1.14866e-07
5.11377e-08
3.11237e-07
2.38323e-06
5.59328e-07
1.03963e-07
4.65753e-08
2.83707e-07
2.46516e-06
5.81932e-07
1.08435e-07
4.79653e-08
2.91353e-07
2.41794e-06
5.68476e-07
1.05592e-07
4.67573e-08
2.83887e-07
2.4999e-06
5.8971e-07
1.09743e-07
4.81015e-08
2.91423e-07
8.72667e-06
8.68996e-06
4.08908e-05
2.24616e-05
2.21328e-05
1.37748e-05
4.08576e-05
3.74313e-05
3.69772e-05
1.36325e-05
4.48077e-05
4.07814e-05
3.75354e-05
3.45432e-05
3.72611e-05
1.3962e-05
4.46338e-05
4.04761e-05
3.45648e-05
3.83079e-05
8.81129e-06
4.10649e-05
2.24308e-05
8.69514e-06
1.68135e-05
7.86027e-06
7.7856e-06
1.68653e-05
7.84406e-06
7.8346e-06
3.60425e-05
1.37304e-05
4.35438e-05
2.24446e-05
3.59071e-05
1.37337e-05
4.34043e-05
3.54732e-05
1.35582e-05
4.27719e-05
2.19519e-05
3.54633e-05
1.3548e-05
4.33831e-05
1.05669e-05
3.35217e-05
1.17215e-05
3.69708e-05
1.06675e-05
3.36034e-05
1.16993e-05
8.15984e-06
2.1195e-05
1.37123e-05
8.16985e-06
2.12106e-05
1.08403e-05
1.18075e-05
3.39294e-05
3.73719e-05
1.08518e-05
1.18566e-05
3.39519e-05
8.30253e-06
2.15189e-05
1.39977e-05
8.3064e-06
2.15117e-05
8.83205e-06
1.72895e-05
7.97708e-06
8.02611e-06
3.59664e-05
4.39171e-05
2.21551e-05
4.3415e-05
1.36655e-05
3.65555e-05
2.25117e-05
1.39428e-05
4.36288e-05
8.84626e-06
2.7965e-05
2.11291e-05
2.14921e-05
1.60529e-05
2.80029e-05
2.11082e-05
2.14236e-05
1.59987e-05
2.14016e-05
1.58424e-05
2.13842e-05
1.58349e-05
4.4636e-05
4.1403e-05
4.51193e-05
4.51468e-05
4.46885e-05
4.52363e-05
4.52255e-05
4.34045e-05
4.28845e-05
4.4714e-05
3.80232e-05
4.51572e-05
4.34111e-05
4.26907e-05
4.16716e-05
4.49091e-05
4.06122e-05
4.48571e-05
4.17038e-05
4.49806e-05
4.04272e-05
4.28843e-05
4.29638e-05
4.44296e-05
3.76256e-05
4.43388e-05
4.33822e-05
4.30408e-05
4.1796e-05
4.06418e-05
4.50009e-05
4.39963e-05
4.16654e-05
4.06734e-05
4.43961e-05
4.2982e-05
4.32131e-05
4.57397e-05
3.77715e-05
4.35665e-05
4.34852e-05
4.54028e-05
4.53831e-05
4.12596e-05
4.58402e-05
4.58674e-05
4.50917e-05
2.49383e-06
5.93887e-07
1.11671e-07
5.08296e-08
3.113e-07
2.49951e-06
5.95478e-07
1.11968e-07
5.08782e-08
3.11423e-07
2.50481e-06
5.81436e-07
1.06869e-07
4.57933e-08
2.75231e-07
2.51332e-06
5.84534e-07
1.07462e-07
4.58921e-08
2.75548e-07
2.57189e-06
5.98367e-07
1.09828e-07
4.61482e-08
2.75796e-07
2.53269e-06
6.04018e-07
1.13501e-07
5.10724e-08
3.11765e-07
2.49427e-06
5.94088e-07
1.11738e-07
5.08339e-08
3.11237e-07
2.37688e-06
5.59002e-07
1.03948e-07
4.65186e-08
2.83239e-07
2.47452e-06
5.84097e-07
1.08837e-07
4.80135e-08
2.91388e-07
2.39153e-06
5.61765e-07
1.04387e-07
4.66165e-08
2.83715e-07
2.47174e-06
5.83409e-07
1.087e-07
4.79236e-08
2.90791e-07
2.51973e-06
5.85388e-07
1.07551e-07
4.58884e-08
2.75445e-07
2.42709e-06
5.69933e-07
1.05815e-07
4.67206e-08
2.83405e-07
2.50111e-06
5.90481e-07
1.09961e-07
4.81334e-08
2.91459e-07
2.42972e-06
5.70402e-07
1.05881e-07
4.67871e-08
2.8391e-07
2.50658e-06
5.91071e-07
1.0998e-07
4.80565e-08
2.90852e-07
2.57773e-06
5.99042e-07
1.09897e-07
4.61403e-08
2.75686e-07
2.53127e-06
6.02819e-07
1.13265e-07
5.10216e-08
3.11547e-07
2.61208e-06
6.06761e-07
1.11317e-07
4.66298e-08
2.7841e-07
2.51447e-06
5.99122e-07
1.12635e-07
5.09831e-08
3.11692e-07
2.33147e-06
5.53344e-07
1.04284e-07
4.94157e-08
3.05697e-07
2.5761e-06
5.98042e-07
1.09762e-07
4.64186e-08
2.77988e-07
2.57283e-06
5.97347e-07
1.09694e-07
4.64557e-08
2.78346e-07
2.32114e-06
5.51424e-07
1.03995e-07
4.93882e-08
3.05701e-07
2.55572e-06
5.93823e-07
1.09135e-07
4.63487e-08
2.77896e-07
2.55494e-06
5.9358e-07
1.09082e-07
4.63457e-08
2.77896e-07
2.33461e-06
5.541e-07
1.04411e-07
4.94359e-08
3.05748e-07
2.33365e-06
5.53706e-07
1.04321e-07
4.94052e-08
3.0563e-07
2.53257e-06
6.01952e-07
1.12993e-07
5.09032e-08
3.10803e-07
2.53459e-06
6.02312e-07
1.13036e-07
5.09303e-08
3.11009e-07
2.57839e-06
6.13136e-07
1.14975e-07
5.11217e-08
3.11018e-07
2.58021e-06
6.13478e-07
1.15005e-07
5.11448e-08
3.11213e-07
2.5816e-06
5.99676e-07
1.10087e-07
4.64716e-08
2.78139e-07
2.37761e-06
5.63591e-07
1.05999e-07
4.96036e-08
3.05888e-07
2.3835e-06
5.6552e-07
1.06394e-07
4.96594e-08
3.0598e-07
3.63605e-05
3.84929e-05
2.699e-05
3.79707e-05
3.73075e-05
3.92171e-05
2.75041e-05
3.87863e-05
3.81386e-05
3.97826e-05
2.73657e-05
3.91552e-05
3.80309e-05
3.99615e-05
2.74482e-05
4.04264e-05
3.90267e-05
4.06046e-05
2.7679e-05
3.99831e-05
4.0235e-05
4.1318e-05
2.77703e-05
3.9245e-05
4.04184e-05
4.14965e-05
2.80104e-05
3.94844e-05
4.05697e-05
4.10047e-05
2.81573e-05
4.10413e-05
4.104e-05
4.13557e-05
2.81417e-05
4.16722e-05
4.08476e-05
4.15001e-05
2.81372e-05
4.14627e-05
4.12248e-05
4.10539e-05
2.82781e-05
4.18851e-05
4.09634e-05
4.17619e-05
2.83396e-05
4.1773e-05
4.11558e-05
4.12694e-05
2.81209e-05
4.17949e-05
4.07613e-05
4.08633e-05
2.83034e-05
4.11678e-05
4.04852e-05
4.09446e-05
2.80188e-05
4.13563e-05
4.0813e-05
4.05144e-05
2.80194e-05
4.11594e-05
4.07703e-05
4.06327e-05
3.86126e-05
3.92311e-05
3.6278e-05
3.72554e-05
3.69506e-05
3.91611e-05
3.89597e-05
3.94464e-05
3.71881e-05
3.7399e-05
3.82603e-05
3.8025e-05
3.95539e-05
4.00073e-05
3.75679e-05
3.81374e-05
3.81539e-05
3.86775e-05
3.8015e-05
3.87557e-05
3.84647e-05
3.93533e-05
3.94048e-05
3.71698e-05
3.81661e-05
3.81922e-05
3.92901e-05
3.95839e-05
4.04111e-05
3.85562e-05
3.81471e-05
3.87349e-05
3.88548e-05
4.00764e-05
4.0704e-05
3.84934e-05
3.93381e-05
3.93006e-05
3.99201e-05
3.83812e-05
3.91038e-05
3.91675e-05
3.94292e-05
3.94413e-05
3.84544e-05
3.8255e-05
3.90424e-05
4.02469e-05
4.0557e-05
4.04053e-05
3.8493e-05
3.94911e-05
3.89175e-05
3.9743e-05
4.07811e-05
4.05157e-05
4.00185e-05
3.99738e-05
4.02896e-05
4.03851e-05
3.92417e-05
4.03135e-05
3.93559e-05
3.94815e-05
4.05974e-05
3.9086e-05
3.86105e-05
3.93991e-05
4.08878e-05
4.08233e-05
4.0517e-05
3.9586e-05
3.98965e-05
3.98941e-05
3.98124e-05
4.10992e-05
4.09179e-05
4.00411e-05
4.05354e-05
4.02545e-05
4.06243e-05
3.97352e-05
4.05883e-05
3.99082e-05
4.11683e-05
4.14587e-05
3.9499e-05
3.96618e-05
3.98276e-05
4.07891e-05
4.05565e-05
4.11067e-05
4.01169e-05
3.96322e-05
4.03076e-05
4.01879e-05
4.10439e-05
4.12678e-05
4.01886e-05
4.01302e-05
4.05702e-05
4.05901e-05
4.03537e-05
4.02e-05
4.06553e-05
4.08849e-05
4.12203e-05
3.9915e-05
4.0465e-05
4.04185e-05
4.15729e-05
4.15859e-05
4.09606e-05
4.05371e-05
3.99625e-05
4.0929e-05
3.93849e-05
4.07545e-05
4.11421e-05
4.0292e-05
4.03306e-05
4.02311e-05
4.05526e-05
4.07192e-05
3.92373e-05
4.11949e-05
4.09857e-05
4.1455e-05
4.0466e-05
4.00521e-05
4.02399e-05
4.15264e-05
4.14427e-05
4.12706e-05
4.08628e-05
3.95557e-05
4.09072e-05
4.01355e-05
4.11728e-05
4.13427e-05
4.06765e-05
4.05764e-05
4.05715e-05
4.10494e-05
4.12883e-05
4.03676e-05
4.17416e-05
4.10744e-05
4.14266e-05
4.08749e-05
4.09829e-05
4.084e-05
4.08543e-05
4.10414e-05
4.1479e-05
4.11272e-05
4.03404e-05
4.10411e-05
4.09392e-05
4.11778e-05
4.17087e-05
4.12605e-05
4.12342e-05
4.14331e-05
4.13079e-05
4.16508e-05
4.10454e-05
4.18267e-05
4.19725e-05
4.18392e-05
4.07474e-05
4.09842e-05
4.09673e-05
4.09911e-05
4.15689e-05
4.18345e-05
4.08952e-05
4.06798e-05
4.13832e-05
4.10864e-05
4.1525e-05
4.20657e-05
4.15398e-05
4.19413e-05
4.12855e-05
4.16665e-05
4.19014e-05
4.18222e-05
4.12567e-05
4.15572e-05
4.22983e-05
4.10621e-05
4.09742e-05
4.05148e-05
4.12242e-05
4.18464e-05
4.16815e-05
4.14801e-05
4.1314e-05
4.13643e-05
4.09076e-05
4.19461e-05
4.15667e-05
4.10206e-05
4.11274e-05
4.13786e-05
4.14852e-05
4.11722e-05
4.13266e-05
4.17652e-05
4.22981e-05
4.14715e-05
4.09162e-05
4.09911e-05
4.09857e-05
4.12931e-05
4.17661e-05
4.1474e-05
4.14144e-05
4.11087e-05
4.07037e-05
4.12157e-05
4.12967e-05
4.15163e-05
4.15136e-05
4.16482e-05
4.14671e-05
4.1834e-05
4.16173e-05
4.16156e-05
4.10224e-05
4.16432e-05
4.11287e-05
4.10716e-05
4.14872e-05
4.10966e-05
4.10638e-05
4.10192e-05
4.15004e-05
4.11853e-05
4.08442e-05
4.10418e-05
4.11548e-05
4.13099e-05
4.14347e-05
4.15104e-05
4.18238e-05
4.14513e-05
4.18877e-05
4.16551e-05
4.13899e-05
4.17571e-05
4.174e-05
4.16361e-05
4.06725e-05
4.09888e-05
4.05999e-05
4.08921e-05
4.11839e-05
4.12737e-05
4.12231e-05
4.10421e-05
4.07003e-05
4.04826e-05
4.13518e-05
4.11529e-05
4.14823e-05
4.19953e-05
4.15012e-05
4.16631e-05
4.17782e-05
4.10333e-05
4.14642e-05
4.11724e-05
4.1005e-05
4.08059e-05
4.06803e-05
4.08517e-05
4.05991e-05
4.09912e-05
4.08594e-05
4.12478e-05
4.07188e-05
4.07302e-05
4.05023e-05
4.10777e-05
4.09069e-05
4.14189e-05
4.11107e-05
4.13728e-05
4.16732e-05
4.13124e-05
4.09946e-05
4.1234e-05
4.10615e-05
4.1424e-05
4.08454e-05
4.0787e-05
4.04229e-05
4.09121e-05
4.09481e-05
4.07264e-05
4.0936e-05
4.05678e-05
4.1199e-05
4.08658e-05
4.13963e-05
4.11744e-05
4.0967e-05
4.18095e-05
4.1147e-05
4.10458e-05
4.13021e-05
4.08081e-05
4.10174e-05
4.14335e-05
4.09859e-05
4.02906e-05
4.07411e-05
3.96532e-05
4.08352e-05
4.08761e-05
4.10578e-05
4.1028e-05
4.09964e-05
4.11027e-05
4.13919e-05
4.0087e-05
8.53575e-06
8.66479e-06
4.32163e-05
3.15966e-05
3.62609e-05
3.6624e-05
3.64764e-05
4.30304e-05
3.17165e-05
2.1085e-05
2.1278e-05
3.84019e-05
2.16228e-05
2.09907e-05
3.69336e-05
1.33411e-05
1.34997e-05
3.62915e-05
8.49924e-06
8.5767e-06
3.70822e-05
1.3343e-05
1.35224e-05
3.69227e-05
2.72719e-05
2.71805e-05
2.7069e-05
2.72829e-05
2.71912e-05
2.73154e-05
2.73938e-05
4.38501e-05
3.66607e-05
3.28103e-05
3.86448e-05
3.59842e-05
3.29629e-05
4.38699e-05
8.67321e-06
8.64725e-06
4.34817e-05
3.18432e-05
3.60367e-05
3.75541e-05
4.34138e-05
3.18922e-05
3.59522e-05
2.09275e-05
2.17216e-05
3.9336e-05
2.09151e-05
2.15418e-05
3.72613e-05
1.36575e-05
3.73198e-05
1.37355e-05
8.69615e-06
8.73228e-06
3.68331e-05
1.36828e-05
3.6964e-05
1.36797e-05
2.71753e-05
2.73938e-05
2.74345e-05
2.71795e-05
2.75077e-05
2.72711e-05
2.77028e-05
4.47584e-05
3.5817e-05
3.30717e-05
3.87755e-05
4.42435e-05
3.65424e-05
3.30528e-05
8.74637e-06
8.82571e-06
4.34516e-05
3.25329e-05
3.5473e-05
3.82667e-05
4.30387e-05
3.26421e-05
3.62375e-05
2.08214e-05
2.1888e-05
3.96769e-05
2.12707e-05
2.1844e-05
3.72658e-05
1.37568e-05
3.78928e-05
1.38826e-05
8.7771e-06
8.8329e-06
3.76044e-05
1.38334e-05
3.72528e-05
1.38483e-05
2.76159e-05
2.75544e-05
2.77956e-05
2.73184e-05
2.79609e-05
2.75773e-05
2.74788e-05
4.54441e-05
3.78506e-05
3.36807e-05
3.95065e-05
4.46816e-05
3.83266e-05
3.37376e-05
8.88201e-06
8.93218e-06
4.46681e-05
3.29366e-05
3.74474e-05
3.80599e-05
4.42363e-05
3.29332e-05
3.78797e-05
2.21817e-05
2.21847e-05
4.0129e-05
2.22388e-05
2.24653e-05
3.79634e-05
1.39661e-05
3.77578e-05
1.39459e-05
8.93848e-06
8.96414e-06
3.78073e-05
1.39264e-05
3.76289e-05
1.39125e-05
2.78426e-05
2.74351e-05
2.77599e-05
2.75195e-05
2.79995e-05
2.74751e-05
2.75285e-05
4.59772e-05
3.8842e-05
3.3653e-05
4.05759e-05
4.62734e-05
3.88707e-05
3.39324e-05
8.96428e-06
8.91237e-06
4.5056e-05
3.30352e-05
3.82532e-05
3.95605e-05
4.47179e-05
3.32537e-05
3.82677e-05
2.25032e-05
2.26266e-05
4.11023e-05
2.26625e-05
2.23093e-05
3.82739e-05
1.40512e-05
3.78612e-05
1.40527e-05
8.97283e-06
9.04134e-06
3.74392e-05
1.39556e-05
3.78829e-05
1.39708e-05
2.80231e-05
2.77239e-05
2.78348e-05
2.77112e-05
2.79052e-05
2.76338e-05
2.76902e-05
4.6294e-05
3.89052e-05
3.45911e-05
4.04899e-05
4.61622e-05
3.87453e-05
3.47455e-05
9.00726e-06
8.93319e-06
4.49025e-05
3.36971e-05
3.84576e-05
4.0213e-05
4.54319e-05
3.3711e-05
3.82462e-05
2.25454e-05
2.24105e-05
4.1257e-05
2.26566e-05
2.26251e-05
3.7891e-05
1.40718e-05
3.81981e-05
1.40377e-05
8.9676e-06
8.9718e-06
3.77917e-05
1.39562e-05
3.74819e-05
1.39033e-05
2.77085e-05
2.78421e-05
2.76056e-05
2.79399e-05
2.78702e-05
2.79459e-05
2.78669e-05
4.57355e-05
3.90231e-05
3.49174e-05
3.96826e-05
4.60108e-05
3.88291e-05
3.48468e-05
8.98545e-06
8.98328e-06
4.49747e-05
3.409e-05
3.81481e-05
4.04831e-05
4.46895e-05
3.39846e-05
3.80939e-05
2.25788e-05
2.24246e-05
4.14923e-05
2.25414e-05
2.25365e-05
3.80835e-05
1.41215e-05
3.84077e-05
1.4208e-05
9.00045e-06
8.99808e-06
3.76197e-05
1.39305e-05
3.74282e-05
1.39219e-05
2.78385e-05
2.77561e-05
2.79466e-05
2.80998e-05
2.78587e-05
2.79089e-05
2.76928e-05
4.5774e-05
3.86801e-05
3.48946e-05
3.96929e-05
4.62257e-05
3.88976e-05
3.50191e-05
9.06402e-06
9.04736e-06
4.49912e-05
3.44434e-05
3.88219e-05
4.0628e-05
4.42093e-05
3.44752e-05
3.87942e-05
2.25751e-05
2.23923e-05
4.13153e-05
2.24772e-05
2.25714e-05
3.8572e-05
1.4125e-05
3.87481e-05
1.42385e-05
9.01514e-06
9.04131e-06
3.77885e-05
1.3872e-05
3.76935e-05
1.38478e-05
2.7751e-05
2.82254e-05
2.80259e-05
2.82588e-05
2.80848e-05
2.82477e-05
2.78945e-05
4.57532e-05
3.89768e-05
3.52663e-05
4.11104e-05
4.55031e-05
3.88071e-05
3.53098e-05
9.11083e-06
9.05422e-06
4.51939e-05
3.39479e-05
3.83921e-05
4.10127e-05
4.53218e-05
3.42473e-05
3.86894e-05
2.2482e-05
2.21993e-05
4.10246e-05
2.25271e-05
2.21601e-05
3.8255e-05
1.43139e-05
3.8615e-05
1.41087e-05
8.98927e-06
8.91066e-06
3.7991e-05
1.38685e-05
3.7679e-05
1.3886e-05
2.81292e-05
2.82148e-05
2.82119e-05
2.81895e-05
2.81483e-05
2.80694e-05
2.80709e-05
4.59548e-05
3.82994e-05
3.52098e-05
4.1753e-05
4.60053e-05
3.82082e-05
3.50607e-05
9.06135e-06
8.99846e-06
4.52379e-05
3.43998e-05
3.87782e-05
4.07302e-05
4.5092e-05
3.43933e-05
3.86164e-05
2.24524e-05
2.24344e-05
4.11317e-05
2.2513e-05
2.22186e-05
3.85777e-05
1.41954e-05
3.84699e-05
1.41777e-05
8.9052e-06
8.91752e-06
3.75604e-05
1.38354e-05
3.78234e-05
1.38578e-05
2.81902e-05
2.80766e-05
2.80146e-05
2.8243e-05
2.82589e-05
2.81193e-05
2.81258e-05
4.57241e-05
3.81854e-05
3.52429e-05
4.13385e-05
4.57366e-05
3.838e-05
3.49167e-05
8.99156e-06
8.96355e-06
4.49223e-05
3.4498e-05
3.89013e-05
4.12102e-05
4.48084e-05
3.44603e-05
3.86859e-05
2.24901e-05
2.23326e-05
4.11313e-05
2.25991e-05
2.227e-05
3.85541e-05
1.40936e-05
3.81649e-05
1.41235e-05
8.96278e-06
8.94477e-06
3.78736e-05
1.3837e-05
3.79546e-05
1.39013e-05
2.82616e-05
2.82104e-05
2.81735e-05
2.83204e-05
2.79622e-05
2.83091e-05
2.81128e-05
4.47656e-05
3.85829e-05
3.51012e-05
4.16189e-05
4.5479e-05
3.83525e-05
3.51255e-05
8.98505e-06
8.95544e-06
4.44814e-05
3.42472e-05
3.83306e-05
4.1073e-05
4.47801e-05
3.45693e-05
3.83488e-05
2.22193e-05
2.23847e-05
4.18093e-05
2.24525e-05
2.24055e-05
3.83929e-05
1.40905e-05
3.83652e-05
1.40461e-05
8.90089e-06
8.82724e-06
3.7693e-05
1.39622e-05
3.74119e-05
1.40194e-05
2.82245e-05
2.80443e-05
2.81301e-05
2.83019e-05
2.82005e-05
2.8377e-05
2.81357e-05
4.54354e-05
3.78057e-05
3.52358e-05
4.17397e-05
4.53382e-05
3.82636e-05
3.47822e-05
8.99988e-06
8.9821e-06
4.49568e-05
3.43213e-05
3.84551e-05
4.12172e-05
4.48267e-05
3.4419e-05
3.83619e-05
2.22748e-05
2.24981e-05
4.1206e-05
2.24274e-05
2.2517e-05
3.75626e-05
1.41333e-05
3.79669e-05
1.41148e-05
8.91626e-06
8.91565e-06
3.73822e-05
1.38397e-05
3.75408e-05
1.38918e-05
2.81834e-05
2.83713e-05
2.79096e-05
2.83318e-05
2.80754e-05
2.80296e-05
2.81161e-05
4.5498e-05
3.83338e-05
3.48884e-05
4.17133e-05
4.55438e-05
3.81667e-05
3.47881e-05
8.97044e-06
8.9712e-06
4.46759e-05
3.43932e-05
3.8117e-05
4.13143e-05
4.46953e-05
3.39478e-05
3.80837e-05
2.2454e-05
2.2376e-05
4.08601e-05
2.23333e-05
2.23292e-05
3.78476e-05
1.41238e-05
3.81814e-05
1.39762e-05
8.85882e-06
8.87997e-06
3.76127e-05
1.38588e-05
3.77e-05
1.38154e-05
2.78897e-05
2.80128e-05
2.81711e-05
2.82757e-05
2.81104e-05
2.78021e-05
2.80851e-05
4.51961e-05
3.8218e-05
3.51689e-05
4.09859e-05
4.49465e-05
3.80054e-05
3.50741e-05
9.01217e-06
9.01288e-06
4.46375e-05
3.37959e-05
3.7927e-05
4.01656e-05
4.48356e-05
3.35935e-05
3.80287e-05
2.20086e-05
2.21132e-05
4.08688e-05
2.22441e-05
2.23232e-05
3.74538e-05
1.40276e-05
3.81087e-05
1.3997e-05
8.86949e-06
8.86107e-06
3.72922e-05
1.37446e-05
3.74092e-05
1.3782e-05
2.81502e-05
2.80527e-05
2.7804e-05
2.78189e-05
2.82031e-05
2.75454e-05
2.74207e-05
4.52422e-05
3.78016e-05
3.50183e-05
4.15061e-05
4.49095e-05
3.79112e-05
3.50594e-05
9.01631e-06
8.95641e-06
4.3375e-05
3.40394e-05
3.79114e-05
4.04349e-05
4.35823e-05
3.41086e-05
3.82444e-05
2.23052e-05
2.21813e-05
4.08849e-05
2.23129e-05
2.23634e-05
8.7704e-06
1.40736e-05
3.7085e-05
2.79693e-05
2.72009e-05
2.70226e-05
3.77719e-05
3.42209e-05
4.43049e-05
9.03352e-06
3.40316e-05
3.80544e-05
4.38268e-05
2.24076e-05
2.22458e-05
2.19519e-05
2.17834e-05
3.85323e-05
2.15675e-05
2.19208e-05
8.50059e-06
8.49369e-06
8.58054e-06
8.60747e-06
3.86057e-05
2.1775e-05
2.15208e-05
2.13716e-05
2.19802e-05
8.42425e-06
8.47003e-06
4.32037e-05
3.15209e-05
3.65042e-05
3.64448e-05
3.68693e-05
4.25443e-05
3.15819e-05
3.65302e-05
1.3466e-05
1.35284e-05
3.64428e-05
3.68619e-05
1.34479e-05
1.34702e-05
3.65042e-05
4.32896e-05
3.66047e-05
3.19432e-05
3.65406e-05
3.62003e-05
4.28056e-05
3.18399e-05
4.32478e-05
3.6713e-05
3.20264e-05
3.70006e-05
3.68279e-05
4.33936e-05
3.20024e-05
3.69151e-05
1.34702e-05
1.35516e-05
3.70669e-05
3.68678e-05
1.36137e-05
1.36067e-05
3.70877e-05
8.33036e-06
8.33345e-06
8.45174e-06
8.45373e-06
3.85256e-05
2.11479e-05
2.17268e-05
2.16751e-05
2.09646e-05
8.33481e-06
8.33645e-06
8.56033e-06
8.46899e-06
8.50063e-06
8.56743e-06
8.52051e-06
8.58613e-06
2.15869e-05
2.1498e-05
3.9419e-05
2.18732e-05
2.15946e-05
8.64836e-06
8.53891e-06
8.66392e-06
8.63043e-06
3.95064e-05
2.19119e-05
2.17719e-05
2.18299e-05
2.19173e-05
3.65403e-05
1.35682e-05
1.35664e-05
3.65441e-05
4.3432e-05
3.65613e-05
3.22331e-05
3.72877e-05
3.67044e-05
3.22992e-05
4.32724e-05
4.32999e-05
3.68855e-05
3.18854e-05
3.79341e-05
3.65935e-05
3.17191e-05
4.31875e-05
3.68105e-05
1.36013e-05
1.35667e-05
3.72666e-05
3.68462e-05
1.37377e-05
1.36203e-05
3.69848e-05
4.32004e-05
3.81087e-05
3.71333e-05
3.24609e-05
3.66534e-05
3.23089e-05
4.3623e-05
4.29042e-05
3.79075e-05
3.75001e-05
3.20323e-05
3.71399e-05
3.17081e-05
4.38242e-05
2.16368e-05
2.16334e-05
3.94271e-05
2.18062e-05
2.16269e-05
8.53046e-06
8.54264e-06
8.69917e-06
8.58908e-06
3.99213e-05
2.19492e-05
2.1733e-05
2.19632e-05
2.1567e-05
8.59038e-06
8.53978e-06
4.41045e-05
3.65769e-05
3.20341e-05
3.75399e-05
3.66314e-05
3.20434e-05
4.31605e-05
3.72354e-05
1.3514e-05
1.34832e-05
3.71174e-05
4.39622e-05
3.23252e-05
3.63738e-05
3.83949e-05
3.24475e-05
3.66017e-05
4.37877e-05
3.67887e-05
1.37394e-05
1.35854e-05
3.73733e-05
4.40719e-05
3.76912e-05
3.75921e-05
3.2362e-05
3.7151e-05
3.20843e-05
4.37231e-05
3.70246e-05
1.36932e-05
1.36908e-05
3.7254e-05
4.34691e-05
3.86356e-05
3.29334e-05
3.72224e-05
3.26828e-05
3.71676e-05
4.35677e-05
3.69013e-05
1.34193e-05
1.34881e-05
3.69587e-05
4.34223e-05
3.2786e-05
3.5178e-05
3.81541e-05
3.28181e-05
3.47294e-05
4.3894e-05
3.72462e-05
1.31696e-05
1.30555e-05
3.71721e-05
4.35978e-05
3.86324e-05
3.58066e-05
3.30504e-05
3.62589e-05
3.29572e-05
4.42114e-05
3.73022e-05
1.34882e-05
1.35105e-05
3.72571e-05
4.40628e-05
3.83869e-05
3.25364e-05
3.49098e-05
3.26044e-05
3.50692e-05
4.41337e-05
3.73895e-05
1.31035e-05
1.31101e-05
3.74244e-05
2.19873e-05
2.1446e-05
3.95571e-05
2.20157e-05
2.1556e-05
8.47584e-06
8.45444e-06
8.75787e-06
8.72253e-06
3.94404e-05
2.19935e-05
2.14795e-05
2.20406e-05
2.15867e-05
8.43602e-06
8.40046e-06
4.35561e-05
3.21434e-05
3.70817e-05
3.7495e-05
4.31419e-05
3.2213e-05
3.70471e-05
3.67179e-05
1.34906e-05
3.71654e-05
1.3422e-05
3.68688e-05
1.36546e-05
3.72005e-05
1.35964e-05
4.30582e-05
3.75626e-05
3.22593e-05
3.56558e-05
3.20343e-05
3.54039e-05
4.32385e-05
4.36379e-05
3.80451e-05
3.23548e-05
3.73908e-05
3.22267e-05
3.69926e-05
4.33658e-05
3.70794e-05
1.33839e-05
1.33976e-05
3.72274e-05
3.67657e-05
1.36707e-05
1.35877e-05
3.68109e-05
8.25993e-06
8.24842e-06
8.55556e-06
8.55769e-06
3.90842e-05
2.07216e-05
2.19155e-05
2.08164e-05
2.17701e-05
8.27749e-06
8.21079e-06
8.62797e-06
8.54969e-06
8.66485e-06
8.71586e-06
8.69873e-06
8.66147e-06
2.2211e-05
2.20375e-05
4.00625e-05
2.21171e-05
2.19566e-05
8.79284e-06
8.74861e-06
8.80312e-06
8.76652e-06
4.01235e-05
2.2443e-05
2.23072e-05
2.23605e-05
2.22533e-05
3.7314e-05
1.38064e-05
3.70982e-05
1.38917e-05
4.36643e-05
3.72427e-05
3.25242e-05
3.85577e-05
4.37592e-05
3.75885e-05
3.26322e-05
4.42107e-05
3.7196e-05
3.21779e-05
3.8233e-05
4.36332e-05
3.73319e-05
3.23323e-05
3.73762e-05
1.38325e-05
1.37837e-05
3.79145e-05
3.70491e-05
1.40047e-05
1.38245e-05
3.76324e-05
4.41783e-05
3.87162e-05
3.73229e-05
3.27701e-05
3.76247e-05
3.27848e-05
4.4031e-05
4.37238e-05
3.8879e-05
3.79106e-05
3.27e-05
3.77095e-05
3.25323e-05
4.40889e-05
2.22323e-05
2.17901e-05
4.02411e-05
2.21582e-05
2.2057e-05
8.63739e-06
8.75139e-06
8.75894e-06
8.74334e-06
4.02567e-05
2.20355e-05
2.25885e-05
2.22662e-05
2.22752e-05
8.92176e-06
8.83186e-06
4.39054e-05
3.77486e-05
3.26729e-05
3.86671e-05
4.43274e-05
3.73954e-05
3.28212e-05
3.71818e-05
1.38248e-05
3.67586e-05
1.39081e-05
4.43656e-05
3.28849e-05
3.71942e-05
3.94288e-05
4.34945e-05
3.33196e-05
3.7656e-05
3.72082e-05
1.38582e-05
1.37489e-05
3.75308e-05
4.43215e-05
3.92956e-05
3.76821e-05
3.34513e-05
3.7156e-05
3.33764e-05
4.43178e-05
3.74298e-05
1.40727e-05
1.39964e-05
3.74479e-05
4.46174e-05
3.93056e-05
3.33151e-05
3.81333e-05
3.33261e-05
3.7931e-05
4.42567e-05
3.76455e-05
1.35867e-05
3.74519e-05
1.37288e-05
4.44991e-05
3.27882e-05
3.48934e-05
3.90116e-05
4.38852e-05
3.30708e-05
3.5667e-05
3.77456e-05
1.32196e-05
3.74543e-05
1.34237e-05
4.44857e-05
3.88622e-05
3.75712e-05
3.31811e-05
3.68853e-05
3.31492e-05
4.49471e-05
3.8175e-05
1.40607e-05
1.38922e-05
3.80452e-05
4.45261e-05
3.86219e-05
3.33218e-05
3.69393e-05
3.31537e-05
3.63528e-05
4.43378e-05
3.8033e-05
1.37451e-05
1.35523e-05
3.78792e-05
2.2251e-05
2.15217e-05
3.87568e-05
2.232e-05
2.17165e-05
8.45185e-06
8.57601e-06
8.82494e-06
8.86974e-06
3.89141e-05
2.2259e-05
2.20955e-05
2.24491e-05
2.18547e-05
8.74572e-06
8.63912e-06
4.37748e-05
3.24288e-05
3.74343e-05
3.85854e-05
4.35407e-05
3.26547e-05
3.73635e-05
3.75498e-05
1.33328e-05
3.69622e-05
1.35597e-05
3.75632e-05
1.36646e-05
3.69613e-05
1.37833e-05
4.35364e-05
3.77825e-05
3.28377e-05
3.74142e-05
3.28224e-05
3.64731e-05
4.41294e-05
4.40115e-05
3.88666e-05
3.29956e-05
3.7315e-05
3.26002e-05
3.72486e-05
4.38128e-05
3.74348e-05
1.38096e-05
1.36328e-05
3.77433e-05
3.75446e-05
1.38026e-05
1.38003e-05
3.77309e-05
8.34311e-06
8.50979e-06
8.61848e-06
8.65251e-06
3.97683e-05
2.2129e-05
2.23495e-05
2.15148e-05
2.19985e-05
8.7462e-06
8.57469e-06
8.7987e-06
8.67426e-06
8.80468e-06
8.84083e-06
8.78569e-06
8.80865e-06
2.25066e-05
2.23722e-05
4.02699e-05
2.25833e-05
2.24271e-05
8.8819e-06
8.82819e-06
8.84607e-06
8.78232e-06
4.0162e-05
2.26435e-05
2.23249e-05
2.26019e-05
2.24165e-05
3.79129e-05
1.40231e-05
3.78734e-05
1.40392e-05
4.42706e-05
3.74868e-05
3.31708e-05
3.83953e-05
4.46767e-05
3.80246e-05
3.31422e-05
4.41924e-05
3.75374e-05
3.26923e-05
3.95344e-05
4.39598e-05
3.81444e-05
3.31165e-05
3.73698e-05
1.39852e-05
1.39394e-05
3.78221e-05
3.79493e-05
1.41258e-05
1.4105e-05
3.77611e-05
4.41381e-05
3.88483e-05
3.82128e-05
3.31236e-05
3.77198e-05
3.27845e-05
4.47161e-05
4.48239e-05
3.97577e-05
3.80106e-05
3.30668e-05
3.81717e-05
3.27352e-05
4.47394e-05
2.20966e-05
2.26746e-05
4.08299e-05
2.24522e-05
2.27717e-05
9.00993e-06
8.98757e-06
8.93217e-06
8.83789e-06
4.09905e-05
2.26382e-05
2.26728e-05
2.24951e-05
2.27043e-05
8.99894e-06
9.04132e-06
4.47965e-05
3.74678e-05
3.345e-05
4.0027e-05
4.47323e-05
3.80436e-05
3.35031e-05
3.76787e-05
1.41338e-05
3.7351e-05
1.41366e-05
4.51101e-05
3.31733e-05
3.82446e-05
3.95917e-05
4.45162e-05
3.32068e-05
3.8063e-05
3.78085e-05
1.39477e-05
1.39787e-05
3.77781e-05
4.45939e-05
4.026e-05
3.78129e-05
3.40264e-05
3.76969e-05
3.39718e-05
4.48755e-05
3.78507e-05
1.41202e-05
1.41916e-05
3.78521e-05
4.52007e-05
4.01191e-05
3.37793e-05
3.82371e-05
3.34378e-05
3.83211e-05
4.51458e-05
3.86279e-05
1.41301e-05
3.86196e-05
1.42776e-05
4.504e-05
3.33838e-05
3.73373e-05
3.90097e-05
4.41326e-05
3.33666e-05
3.77032e-05
3.80486e-05
1.39575e-05
3.84611e-05
1.40996e-05
4.61768e-05
3.96005e-05
3.89259e-05
3.36044e-05
3.87825e-05
3.36701e-05
4.62573e-05
3.86419e-05
1.42782e-05
1.4314e-05
3.89019e-05
4.51709e-05
3.9091e-05
3.33315e-05
3.84089e-05
3.3218e-05
3.78033e-05
4.61234e-05
3.86276e-05
1.42016e-05
1.41299e-05
3.88045e-05
2.25207e-05
2.23297e-05
4.04974e-05
2.25752e-05
2.2351e-05
8.77449e-06
8.8627e-06
8.95254e-06
8.92969e-06
4.05594e-05
2.26103e-05
2.27726e-05
2.25579e-05
2.26482e-05
8.88003e-06
8.86364e-06
4.41947e-05
3.2598e-05
3.77279e-05
3.89549e-05
4.45365e-05
3.29184e-05
3.78872e-05
3.75896e-05
1.3883e-05
3.77374e-05
1.3945e-05
3.80776e-05
1.39678e-05
3.79053e-05
1.39328e-05
4.48005e-05
3.82226e-05
3.27748e-05
3.82742e-05
3.27317e-05
3.79014e-05
4.42827e-05
4.46354e-05
3.88269e-05
3.26588e-05
3.79979e-05
3.26677e-05
3.76429e-05
4.47308e-05
3.80044e-05
1.40826e-05
1.39651e-05
3.81684e-05
3.77527e-05
1.39653e-05
1.40044e-05
3.8097e-05
8.81194e-06
8.90138e-06
8.76985e-06
8.81732e-06
4.05174e-05
2.26699e-05
2.26228e-05
2.25729e-05
2.25363e-05
8.98385e-06
8.91363e-06
8.83722e-06
8.82049e-06
8.8859e-06
8.86459e-06
8.83761e-06
8.80562e-06
2.27319e-05
2.24794e-05
4.05314e-05
2.26286e-05
2.2124e-05
8.87849e-06
8.84412e-06
8.8299e-06
8.7755e-06
4.10392e-05
2.26841e-05
2.2373e-05
2.2505e-05
2.24241e-05
3.82069e-05
1.4213e-05
3.78702e-05
1.4102e-05
4.47852e-05
3.81905e-05
3.29142e-05
3.9637e-05
4.43329e-05
3.81536e-05
3.29236e-05
4.48866e-05
3.8612e-05
3.29187e-05
3.94495e-05
4.42479e-05
3.86635e-05
3.29636e-05
3.80989e-05
1.41132e-05
1.40612e-05
3.81371e-05
3.84554e-05
1.41884e-05
1.42744e-05
3.84691e-05
4.48217e-05
3.98136e-05
3.86082e-05
3.33295e-05
3.81042e-05
3.31172e-05
4.52116e-05
4.4955e-05
3.99167e-05
3.86636e-05
3.32587e-05
3.87221e-05
3.32008e-05
4.4866e-05
2.273e-05
2.2977e-05
4.0899e-05
2.28266e-05
2.29523e-05
9.0863e-06
9.06122e-06
8.98578e-06
8.97114e-06
4.07664e-05
2.27143e-05
2.28412e-05
2.27779e-05
2.2772e-05
9.09504e-06
9.09171e-06
4.54848e-05
3.7688e-05
3.41404e-05
3.99386e-05
4.56314e-05
3.78382e-05
3.42011e-05
3.80123e-05
1.419e-05
3.78978e-05
1.40085e-05
4.53715e-05
3.39125e-05
3.8375e-05
4.03323e-05
4.54162e-05
3.44246e-05
3.82211e-05
3.75933e-05
1.39777e-05
1.39842e-05
3.79361e-05
4.48732e-05
4.03049e-05
3.81537e-05
3.43859e-05
3.7877e-05
3.39765e-05
4.47948e-05
3.7951e-05
1.41713e-05
1.41796e-05
3.81343e-05
4.50617e-05
4.07067e-05
3.42735e-05
3.81021e-05
3.44354e-05
3.81174e-05
4.57484e-05
3.88167e-05
1.43378e-05
3.86459e-05
1.43678e-05
4.63233e-05
3.35155e-05
3.85442e-05
3.97477e-05
4.60694e-05
3.3828e-05
3.85076e-05
3.85316e-05
1.42916e-05
3.88601e-05
1.42918e-05
4.56843e-05
4.04856e-05
3.89347e-05
3.45753e-05
3.87768e-05
3.40728e-05
4.63623e-05
3.85806e-05
1.433e-05
1.44106e-05
3.86704e-05
4.63997e-05
4.04224e-05
3.45074e-05
3.83822e-05
3.40313e-05
3.82109e-05
4.61176e-05
3.8326e-05
1.41957e-05
1.43242e-05
3.88583e-05
2.26902e-05
2.27486e-05
4.10051e-05
2.24825e-05
2.28071e-05
8.94042e-06
8.91588e-06
8.98759e-06
8.89398e-06
4.08679e-05
2.26979e-05
2.27526e-05
2.25788e-05
2.27988e-05
8.97258e-06
8.99932e-06
4.50204e-05
3.28975e-05
3.80509e-05
3.95449e-05
4.48073e-05
3.3074e-05
3.83182e-05
3.86335e-05
1.39756e-05
3.80989e-05
1.41541e-05
3.85894e-05
1.40593e-05
3.8432e-05
1.40955e-05
4.51816e-05
3.98257e-05
3.35444e-05
3.84517e-05
3.34597e-05
3.84115e-05
4.54217e-05
4.51057e-05
3.99084e-05
3.34149e-05
3.83098e-05
3.334e-05
3.84439e-05
4.53376e-05
3.87427e-05
1.42259e-05
1.42047e-05
3.87881e-05
3.85617e-05
1.41782e-05
1.41507e-05
3.82573e-05
8.95714e-06
8.95367e-06
8.90492e-06
8.89528e-06
4.08768e-05
2.27348e-05
2.26316e-05
2.2587e-05
2.25465e-05
8.99171e-06
8.97307e-06
8.8896e-06
8.87121e-06
8.84712e-06
8.93459e-06
8.82351e-06
8.84109e-06
2.26127e-05
2.22362e-05
4.12114e-05
2.27914e-05
2.23953e-05
8.93726e-06
8.89302e-06
8.87516e-06
8.869e-06
4.09891e-05
2.27949e-05
2.25289e-05
2.26981e-05
2.2489e-05
3.84565e-05
1.43433e-05
3.81753e-05
1.43764e-05
4.51707e-05
3.86676e-05
3.3719e-05
4.01923e-05
4.50899e-05
3.86595e-05
3.38207e-05
4.43654e-05
3.84672e-05
3.36315e-05
4.0261e-05
4.50223e-05
3.88641e-05
3.3869e-05
3.81865e-05
1.40976e-05
1.41772e-05
3.83739e-05
3.82551e-05
1.43022e-05
1.42839e-05
3.8426e-05
4.51963e-05
4.04385e-05
3.81485e-05
3.41455e-05
3.82148e-05
3.37271e-05
4.49862e-05
4.49774e-05
3.97121e-05
3.84751e-05
3.40426e-05
3.89593e-05
3.39511e-05
4.46868e-05
2.29455e-05
2.31543e-05
4.13195e-05
2.28094e-05
2.29738e-05
9.10688e-06
9.07139e-06
9.01493e-06
8.99531e-06
4.1287e-05
2.28323e-05
2.29108e-05
2.30281e-05
2.28948e-05
9.06955e-06
9.06857e-06
4.53611e-05
3.77947e-05
3.44031e-05
4.08702e-05
4.53928e-05
3.80957e-05
3.44206e-05
3.79607e-05
1.42129e-05
3.81797e-05
1.41251e-05
4.52789e-05
3.46895e-05
3.81577e-05
4.06921e-05
4.58127e-05
3.46832e-05
3.84986e-05
3.76756e-05
1.39945e-05
1.40223e-05
3.78182e-05
4.51949e-05
4.0281e-05
3.83525e-05
3.45696e-05
3.82772e-05
3.4147e-05
4.473e-05
3.7884e-05
1.41331e-05
1.4209e-05
3.71366e-05
4.58191e-05
4.0572e-05
3.47132e-05
3.82645e-05
3.43451e-05
3.86381e-05
4.49917e-05
3.8609e-05
1.42626e-05
3.85645e-05
1.41573e-05
4.54884e-05
3.45378e-05
3.86956e-05
4.00788e-05
4.61701e-05
3.44017e-05
3.88251e-05
3.86115e-05
1.42048e-05
3.90002e-05
1.42433e-05
4.56353e-05
4.0233e-05
3.90056e-05
3.48875e-05
3.86724e-05
3.45164e-05
4.60926e-05
3.83778e-05
1.43416e-05
1.4318e-05