/*--------------------------------*- C++ -*----------------------------------*\
| =========                 |                                                 |
| \\      /  F ield         | OpenFOAM: The Open Source CFD Toolbox           |
|  \\    /   O peration     | Version:  2206                                  |
|   \\  /    A nd           | Website:  www.openfoam.com                      |
|    \\/     M anipulation  |                                                 |
\*---------------------------------------------------------------------------*/
FoamFile
{
    version     2.0;
    format      ascii;
    arch        "LSB;label=32;scalar=64";
    class       volScalarField;
    location    "80";
    object      omega;
}
// * * * * * * * * * * * * * * * * * * * * * * * * * * * * * * * * * * * * * //

dimensions      [0 0 -1 0 0 0 0];

internalField   nonuniform List<scalar> 
66701
(
406.796
425.527
298.984
200.289
332.495
132.267
149.183
311.005
425.316
298.735
199.964
332.501
130.99
311.022
149.111
406.792
723.83
1593.01
4387.6
16426.7
116912
720.395
1591.76
4386.13
16419.4
116840
743.626
1612.76
4420.03
16479.3
116802
743.679
1612.54
4420
16479.3
116814
723.447
1592.69
4387.27
16424.5
116892
720.487
1591.8
4386.2
16419.6
116852
730.96
1602.83
4404.04
16446.7
116752
730.464
1597.52
4393.27
16424.9
116727
731.219
1602.7
4404.03
16446.1
116747
730.551
1597.32
4393.22
16424.7
116725
407.221
408.655
26.8714
189.909
190.308
298.089
24.3188
119.11
134.327
299.583
52.6529
24.7643
122.966
20.5782
134.764
299.488
52.5478
24.674
20.662
121.385
408.583
26.868
190.07
407.256
239.922
409.636
410.37
237.349
410.086
411.018
142.55
307.867
80.1453
184.708
137.744
307.669
75.6488
141.849
309.206
80.2544
186.176
139.886
308.534
75.6098
332.162
152.743
311.2
131.659
332.251
148.205
311.095
424.915
201.686
298.764
425.166
199.36
332.054
311.004
152.653
129.246
332.403
310.758
148.109
424.891
201.794
298.913
425.133
199.054
407.174
239.248
410.229
409.516
142.236
79.9059
186.023
74.9865
308.76
142.797
187.25
307.525
77.5456
405.932
17.8947
16.5547
16.6889
15.8125
17.7958
16.5005
16.5681
15.7643
16.6981
15.7236
16.6314
15.6636
68.7328
25.9985
41.4059
41.4116
67.669
38.4309
38.8579
35.0543
70.2569
51.4297
114.383
48.557
34.0301
68.9713
30.5194
59.2649
28.3679
50.113
30.0885
57.0883
27.482
36.2827
80.206
52.5044
117.407
50.1775
34.4072
76.2427
30.5168
28.4425
60.3536
48.8737
30.0777
27.4685
57.4613
35.925
79.5252
51.7499
115.974
35.3607
76.6117
49.2452
68.9047
26.2235
40.9708
38.3001
40.525
723.598
1592.98
4387.65
16426.5
116912
723.367
1592.98
4387.65
16426.8
116912
743.889
1612.7
4420.21
16480.1
116814
743.755
1612.81
4420.07
16479.3
116802
743.961
1612.79
4420.05
16479.4
116814
723.718
1593.02
4387.31
16424.5
116892
723.658
1592.64
4387.39
16426.6
116912
730.893
1602.56
4403.91
16446.6
116752
730.574
1597.56
4393.31
16424.9
116727
731.445
1602.99
4404.09
16446.7
116752
730.236
1597.21
4393.09
16424.8
116727
743.86
1612.47
4419.75
16479.1
116802
730.828
1602.72
4403.92
16446
116747
730.629
1597.56
4393.27
16424.8
116725
731.417
1602.97
4404.07
16446.1
116747
730.233
1597.31
4393.06
16424.6
116725
743.462
1612.44
4419.73
16479.1
116814
723.706
1592.73
4387.08
16424.3
116892
742.93
1611.59
4417.44
16472
116759
724.088
1592.88
4386.98
16423.7
116881
722.447
1596.36
4394.91
16439.5
116901
743.192
1611.76
4417.85
16472.6
116776
742.196
1611.43
4417.53
16472.4
116776
722.455
1596.43
4394.98
16440.8
116921
742.794
1611.81
4417.94
16474.5
116795
742.805
1611.48
4417.63
16474.3
116795
721.635
1596.09
4394.68
16439.4
116901
721.753
1596.16
4394.73
16440.6
116921
720.537
1591.92
4385.95
16419.2
116840
720.835
1592.17
4386.18
16419.4
116840
720.606
1591.95
4386.02
16419.4
116852
720.869
1592.19
4386.24
16419.6
116852
742.621
1611.54
4417.55
16473.1
116778
722.023
1596.33
4395.05
16441.6
116918
722.292
1596.34
4394.97
16440.8
116904
23.5765
26.7061
17.8886
24.4101
24.2587
26.7346
17.9278
24.4756
24.2053
26.7982
17.9136
24.5443
24.1442
26.9374
17.8696
24.6376
24.1736
26.8807
17.911
24.766
24.2205
27.0263
17.8993
24.6064
24.3481
26.8997
17.8783
24.6715
24.2022
27.0394
17.8744
24.7507
24.2155
27.019
17.8887
24.6814
24.1813
27.0197
17.8397
24.6815
24.2172
26.7229
17.8552
24.5989
24.1726
26.9319
17.8658
24.5951
24.211
26.7776
17.8851
24.566
24.2001
26.9264
17.8834
24.5778
24.2769
26.9711
17.9036
24.5918
24.1993
27.0344
17.8731
24.0232
24.3911
26.6528
26.2487
26.4108
23.898
23.5086
24.1035
26.5656
26.8833
26.5852
24.1283
24.2771
24.2878
24.3475
26.7079
26.5404
24.3139
24.1637
24.5173
24.4357
24.5918
24.2318
24.6541
25.8607
26.5867
23.8485
24.0212
24.1236
26.5686
26.0272
26.5969
23.6535
23.1463
24.284
24.4473
25.873
26.5371
23.7723
23.7567
24.4714
24.6292
23.8128
24.2575
24.5901
26.05
26.4774
23.7266
23.8993
24.2175
26.1165
26.1122
26.6868
23.7516
23.9331
24.2789
24.3056
25.6321
26.4988
23.3275
23.3588
24.7986
24.9112
23.4949
24.4276
24.7459
25.9565
26.6896
23.5001
23.9261
24.2118
26.6679
25.5115
26.74
23.5467
23.1036
24.3165
24.2525
25.5822
26.6722
23.67
24.4082
24.7888
24.8037
24.1889
23.9127
24.7524
25.4822
26.571
23.7028
23.5619
24.4031
26.2197
26.1693
26.5138
22.9426
23.814
24.3802
24.3145
25.3583
26.7152
23.7707
24.1092
24.7658
24.6252
23.3847
23.6546
24.8885
25.2572
26.6346
23.7528
23.5686
24.283
26.6852
25.4055
26.6166
23.8531
23.7277
24.2478
24.3063
26.1844
26.7268
23.2952
24.3002
24.801
24.6871
24.4471
23.7397
24.7078
25.9027
26.4302
23.1492
23.9715
24.3768
26.9574
25.9761
26.611
23.0803
23.1769
24.2873
24.4616
26.18
26.5718
24.3306
24.2428
24.7352
24.616
23.4558
24.6042
24.8829
25.8024
26.3355
23.2921
24.0044
24.4335
26.215
25.659
26.6657
23.5968
24.0701
24.2916
24.3527
25.9514
26.7257
23.5339
23.7823
24.864
24.5262
24.3492
23.7241
24.7372
25.4025
26.4069
23.5724
23.9392
24.3358
26.9195
25.9863
26.6805
23.0646
23.2208
24.4778
24.4012
26.0898
26.5092
24.403
23.3872
24.6869
24.6876
23.5014
24.4758
24.7339
25.5518
26.4353
22.9599
23.9784
24.3925
25.8298
26.1516
26.83
24.0064
23.7092
24.3573
24.3485
25.4072
26.6494
24.0674
23.4958
24.6719
24.5948
23.4189
24.3436
24.7838
25.8114
26.5532
23.9959
23.5872
24.2059
26.1345
26.3145
26.8505
22.9889
23.7916
24.4253
24.3008
26.0012
26.5871
23.8956
23.4399
24.6279
24.7489
23.6008
24.3583
24.8226
25.9487
26.4921
23.7496
23.7677
24.1742
26.5078
26.1577
26.7963
24.0145
23.9884
24.2343
24.2279
25.4498
26.676
23.3128
24.3069
24.8148
24.7835
23.6148
24.3288
24.6734
25.2882
26.5473
23.8522
24.0098
24.3268
26.0764
26.1904
26.6376
23.827
23.7473
24.3138
24.2538
25.4849
26.8154
24.4014
23.9437
24.6458
24.5901
24.1667
24.3236
24.7358
26.1041
26.4506
23.6967
23.4739
24.1551
26.8133
25.6754
26.5301
24.0389
23.6871
24.2467
24.155
26.1422
26.6133
24.0411
23.7165
24.6277
24.687
24.1322
24.3302
24.7292
25.4868
26.4595
23.6621
23.3084
24.2177
26.2252
25.6939
26.8522
23.8323
23.0947
24.6224
24.5415
26.1479
26.7705
23.7487
23.9627
24.602
24.3082
24.1142
23.1715
24.3983
25.9544
26.4797
23.0864
23.5799
24.239
26.0762
23.4019
25.4964
23.3611
23.176
23.6206
25.8123
23.7569
407.241
406.64
48.545
20.0234
116.57
22.7276
116.794
49.0436
19.9333
188.425
186.79
26.6127
187.32
189.339
128.262
297.562
296.953
129.704
406.924
405.705
132.7
299.71
299.131
133.053
17.8738
17.8175
17.8541
17.8524
17.856
17.8601
17.8732
51.2696
121.711
20.4978
23.5436
121.741
20.2945
51.94
408.082
407.124
49.2703
20.2183
119.965
23.7861
49.7371
19.8796
118.602
191.209
188.19
26.6228
190.264
187.75
127.832
297.206
129.001
296.999
406.692
405.855
132.887
299.619
134.241
299.24
17.7907
17.8709
17.8232
17.8255
17.9413
17.8658
17.9179
51.6346
122.105
20.5661
23.7458
51.1277
121.806
20.4114
408.363
407.037
49.4529
20.285
119.698
23.4227
49.53
19.9703
119.247
190.53
188.592
26.8216
190.216
188.12
127.946
297.231
128.765
296.728
404.916
405.413
132.754
299.561
133.099
299.188
17.9012
17.9214
17.7572
17.9414
17.9077
17.8699
17.911
52.0482
122.498
20.3168
23.8706
51.8119
121.966
20.5194
408.136
407.008
49.4358
20.2899
120.656
23.2931
49.8522
20.0218
119.435
190.811
188.282
26.7963
190.238
188.019
128.083
297.129
128.885
296.807
406.58
405.548
133.526
299.452
134.015
299.246
17.7991
17.909
17.8541
17.9264
17.8498
17.8424
17.9203
51.9259
122.334
20.6689
23.2751
51.4951
121.442
20.079
407.86
406.961
49.5771
20.3093
120.019
23.5902
49.6928
19.8934
119.224
190.666
188.109
26.8665
190.153
188.038
128.229
297.206
128.074
296.829
404.845
405.41
133.339
299.487
133.051
299.239
17.7207
17.8934
17.7652
17.9005
17.8731
17.8507
17.9035
52.2625
122.629
20.7111
24.2959
52.1731
122
20.2009
407.981
406.907
48.9911
20.3678
119.82
23.0801
49.2471
20.1512
119.267
190.804
188.725
26.9009
190.205
188.314
127.702
297.229
128.969
296.776
406.277
405.517
132.903
299.291
133.954
299.193
17.7216
17.8638
17.734
17.8773
17.8686
17.8211
17.8625
51.9246
121.817
20.7573
24.3056
52.4355
121.649
20.5142
407.877
407.073
49.3914
20.2891
119.775
23.4216
50.148
20.0342
119.166
190.899
188.78
26.8413
190.296
188.334
127.97
297.187
128.673
296.731
406.517
405.504
132.942
299.62
134.264
299.239
17.7991
17.8771
17.8309
17.8646
17.8407
17.8547
17.901
51.8041
122.226
20.6763
24.2615
52.427
121.955
20.2415
406.892
407.03
49.5875
20.3146
119.185
23.3635
50.1289
20.0876
119.111
191.469
189.223
26.7872
190.529
188.545
127.969
296.935
128.346
296.921
405.737
405.402
133.525
299.726
134.634
299.216
17.7
17.7581
17.7459
17.8831
17.8163
17.8761
17.9013
52.0511
122.14
20.6147
24.0678
51.8393
122.257
20.0518
407.042
406.825
49.2604
20.3337
119.19
23.4566
49.7842
19.9195
119.248
190.375
188.847
26.8487
190.183
188.075
127.823
296.977
128.484
296.943
406.204
405.584
133.226
299.549
133.907
299.26
17.8419
17.7893
17.7236
17.8686
17.8449
17.8231
17.8833
51.7824
122.967
20.6986
24.2437
52.2013
121.339
20.5064
406.724
407.049
49.5626
20.3843
119.93
23.5391
49.7457
19.8836
119.177
190.844
188.742
26.8467
189.927
187.778
128.423
297.195
129.66
296.9
405.661
405.685
133.192
299.591
134.008
299.08
17.7016
17.6967
17.8264
17.8419
17.8666
17.8415
17.8704
51.5412
123.058
20.6842
23.67
51.9958
122.063
20.253
406.901
406.972
49.0269
20.3735
118.913
23.6537
49.8463
20.1633
119.074
189.986
188.465
26.7525
189.808
187.71
127.675
297.492
128.415
296.854
405.019
405.331
132.367
299.348
133.95
299.121
17.8082
17.6784
17.7079
17.8732
17.8016
17.8276
17.8563
51.3359
122.031
20.6182
23.6692
52.2076
121.943
20.2134
407.45
407.905
49.1356
20.3314
119.142
23.143
49.3078
19.946
118.855
190.681
188.125
26.815
190.057
188.097
127.982
297.341
129.215
296.784
405.63
405.739
133.366
299.203
133.947
299.092
17.8017
17.7755
17.694
17.7668
17.8491
17.8019
17.8443
52.1024
123.044
20.6013
23.6313
51.999
122.135
20.2786
408.058
406.988
49.241
20.2831
119.854
23.5974
49.0453
20.0042
119.123
190.682
189.307
26.7099
190.116
188.526
128.747
296.864
129.616
296.715
405.254
405.568
132.86
299.39
133.413
299.029
17.7697
17.8011
17.8151
17.8961
17.8074
17.8491
17.8646
52.3954
121.975
20.6045
23.6295
52.9344
122.037
20.2375
407.946
406.938
48.7312
20.2819
119.651
22.8848
49.2612
19.779
118.958
190.323
188.822
26.8176
190.274
188.295
128.503
297.198
128.97
296.937
405.343
405.461
133.715
299.374
132.987
299.198
17.7752
17.8338
17.7224
17.7994
17.8334
17.8961
17.8942
52.3723
122.013
20.6129
23.7991
52.6277
121.939
20.2995
408.076
407.063
49.2813
20.344
119.967
23.9008
50.2522
20.1744
118.618
190.715
188.735
26.8589
190.212
188.341
129.307
297.28
128.619
297.095
406.88
405.604
133.817
299.609
133.586
299.132
17.7048
17.8333
17.8514
17.9708
17.8643
17.7367
17.7038
52.0622
122.114
20.6443
23.9305
51.8091
122.068
20.3712
406.977
406.838
49.7354
20.3548
120.026
23.2173
50.1477
20.1085
119.315
190.376
188.57
26.8984
190.083
188.086
406.761
298.256
133.03
17.7685
17.6499
17.7695
121.338
19.9714
50.9745
405.831
20.3095
119.387
50.0674
189.451
187.889
188.794
185.964
25.94
185.639
187.378
404.733
405.117
407.108
406.418
25.4089
188.817
187.217
183.982
182.956
405.171
405.809
48.2598
20.1203
117.772
23.26
117.373
48.255
19.9325
126.169
295.406
295.538
127.628
127.32
296.417
296.333
127.327
44.7578
23.8296
19.8971
119.31
108.791
49.1885
19.9863
45.2034
23.1794
20.2222
117.146
110.624
48.7756
19.9045
120.128
296.417
294.179
127.695
124.521
296.625
295.867
126.921
407.46
406.867
405.364
405.706
25.6314
187.35
185.319
185.081
187.073
406.568
408.344
405.23
407.969
405.985
405.949
408.807
407.303
188.524
190.587
26.6488
187.37
189.897
405.623
406.563
408.653
409.358
26.2203
186.553
189.091
182.174
184.826
128.205
297.212
296.883
129.173
48.8889
120.128
20.2499
23.0565
119.055
20.0914
49.4295
48.5546
119.87
20.2799
23.8784
119.19
20.166
49.2976
125.455
296.854
296.295
127.924
118.858
296.618
295.517
129.54
45.9347
24.0825
117.895
20.2667
116.343
19.9562
48.7479
46.0549
23.4864
117.564
20.3278
111.98
20.0225
48.9506
187.827
190.357
26.5802
187.779
189.504
408.171
406.821
405.579
406.776
25.3785
186.759
188.679
182.492
184.491
406.436
408.876
51.0807
121.627
20.4137
23.248
121.39
20.1856
51.3806
132.65
299.574
299.176
132.597
51.0419
20.2957
123.117
23.0728
20.1553
121.035
50.3053
129.134
298.826
297.848
128.35
48.8706
24.3515
120.585
20.5855
118.863
20.1828
51.8432
129.912
298.833
297.872
132.385
46.8729
24.1947
20.5609
120.316
20.3461
114.334
52.3276
132.785
299.257
299.045
133.856
51.5389
20.6164
122.647
23.3647
20.3035
121.184
52.4441
131.725
299.261
298.827
133.562
46.7889
23.3631
121.083
20.2934
114.912
20.2483
49.2978
129.277
298.841
298.093
131.771
47.1126
24.4502
20.5715
120.219
20.219
114.632
51.3386
125.571
298.71
297.498
131.659
184.906
185.363
26.3937
189.275
187.146
407.312
405.347
408.03
408.191
25.7857
188.976
186.851
186.186
185.187
405.363
406.565
48.7548
20.132
110.919
23.4058
46.3173
20.1905
118.033
127.144
295.445
120.58
296.368
127.298
296.036
120.958
296.696
47.7844
23.9588
20.1292
118.28
20.2568
113.7
46.7975
47.0914
23.3956
20.2898
117.388
20.2113
110.896
49.1909
122.357
296.958
295.777
128.556
121.952
296.537
295.707
127.287
408.124
407.217
406.697
405.699
26.222
186.713
184.699
187.783
181.855
406.253
409.548
404.89
408.116
406.481
405.662
407.287
407.217
182.069
184.298
26.4853
186.799
189.388
405.562
406.495
406.888
408.126
25.7721
186.298
189.203
181.666
184.132
128.809
295.836
119.288
296.538
48.8012
109.369
20.1217
23.9235
45.8154
118.806
20.0351
49.376
111.897
20.2101
24.1236
47.2091
117.497
20.0581
117.394
297.029
295.422
127.164
124.635
296.483
295.476
128.238
44.9782
24.0776
117.542
20.3288
110.199
20.0155
49.1224
46.7188
23.6122
117.372
20.3103
111.989
19.9774
49.3811
183.432
183.937
26.4832
187.184
189.101
408.031
406.569
406.512
406.342
25.7408
186.57
188.494
183.051
183.869
407.95
409.108
51.8205
118.041
20.5414
24.1038
50.7605
120.73
20.3883
132.009
297.541
129.487
298.611
51.5745
20.4216
116.102
23.4993
50.6506
20.2891
119.217
121.343
298.871
298.083
131.406
49.9536
24.2169
121.376
20.7053
118.646
20.3418
51.7008
129.65
298.761
297.708
132.384
50.3909
24.3531
20.5529
122.163
20.7527
114.003
51.7464
132.103
298.075
127.659
298.88
51.4506
20.1649
114.03
24.1765
48.6923
20.5902
120.877
131.752
298.411
126.111
298.708
48.1245
24.0729
117.097
20.6462
118.911
20.2816
48.775
125.488
298.847
298.363
132.401
48.1901
24.2837
20.7279
121.11
20.393
110.074
51.8854
125.453
298.53
297.506
132.332
182.641
184.788
26.3988
189.859
186.853
406.713
405.668
406.956
408.945
25.8992
189.372
187.441
187.488
180.04
405.032
407.885
49.491
20.0937
111.538
23.9424
44.7386
20.0534
117.606
127.683
296.405
123.558
296.926
128.019
295.812
117.102
296.622
47.7758
23.7324
20.2073
115.419
19.9128
115.969
49.3323
47.3631
23.9793
20.3582
117.744
20.0399
112.672
49.2569
118.858
296.672
296.117
128.92
119.629
296.585
296.05
128.144
408.223
408.025
406.504
405.637
26.3673
189.172
187.473
185.2
182.788
406.474
407.285
405.052
407.967
406.412
405.612
407.7
407.097
181.851
183.35
26.6381
186.763
189.976
405.434
407.755
407.088
409.087
26.1353
187.171
189.818
182.853
187.79
128.243
295.583
117.699
296.746
48.7243
111.795
20.1985
23.5022
46.246
117.679
20.2687
48.768
111.358
20.2067
24.1218
45.7446
118.078
20.0298
122.853
296.306
295.448
122.946
124.478
296.479
295.596
127.639
46.1312
23.3822
117.116
20.3625
111.026
20.3119
48.6495
46.7669
24.0979
117.129
20.2763
110.919
20.0719
48.968
182.209
181.202
26.595
186.615
189.748
407.272
407.155
405.54
406.614
25.6817
186.638
189.52
182.652
183.916
406.9
408.373
51.1987
116.947
20.3808
24.4853
48.0884
120.896
20.16
132.638
297.631
128.124
298.631
51.9486
20.27
113.295
24.4808
50.6251
20.6772
122.304
127.524
299.106
297.68
132.805
46.2031
23.8709
121.761
20.739
116.758
20.669
52.2194
127.777
298.828
297.738
131.976
50.4449
24.0322
20.7461
121.507
20.7212
112.049
51.8689
131.774
298.355
124.74
298.791
51.3584
20.5592
117.901
24.6024
47.9145
20.329
121.088
131.549
297.602
124.81
298.566
46.9778
24.2046
121.475
20.5907
114.915
20.568
50.9519
125.488
298.784
297.709
131.698
48.8719
23.9056
20.6353
120.965
20.4656
117.463
51.6036
125.399
298.591
298.03
131.724
183.105
185.108
26.448
189.886
186.979
406.457
405.162
406.96
407.516
25.1009
189.65
187.024
182.532
185.259
405.283
406.21
48.8499
20.2671
113.095
23.8293
46.3819
20.0973
118.046
127.724
295.763
124.442
296.532
127.165
294.979
121.799
296.656
47.6822
23.0994
20.214
114.39
20.1491
111.395
47.0504
46.5848
23.9261
20.3396
118.09
20.0449
114.973
48.875
121.559
296.454
295.719
127.27
121.349
296.491
296.067
127.153
407.752
407.16
406.212
405.777
25.5079
188.447
186.849
187.6
181.027
406.407
409.57
405.215
408.035
407.765
405.38
408.045
407.223
184.532
183.211
26.8788
187.208
190.579
405.485
406.763
408.354
408.99
26.2845
187.321
190.108
185.216
184.399
127.692
295.605
116.966
296.822
48.6311
113.15
19.8556
22.9462
46.6733
117.716
20.2588
48.6119
110.778
19.8743
24.1732
47.0671
117.779
20.2944
119.14
296.254
296.101
126.436
117.997
296.418
295.816
128.409
47.4612
24.1407
117.777
20.2892
114.61
20.2918
48.6715
44.7782
23.6371
117.044
20.3619
110.534
20.0779
48.9173
180.869
185.996
26.4565
186.968
188.97
408.129
407.027
406.516
406.447
25.1199
186.331
188.526
181.59
184.368
406.197
408.141
52.2839
118.032
20.2373
24.752
47.3489
122.474
20.672
133.173
298.054
122.999
298.995
51.4398
20.4834
111.754
24.5656
48.2762
20.3398
122.549
123.924
299.108
297.992
131.515
50.39
24.576
121.375
20.8193
119.69
20.4785
51.7003
128.715
298.806
297.944
132.786
48.2072
24.6505
20.7289
120.967
20.8133
115.623
52.0358
132.88
298.132
121.593
298.795
51.3499
20.2546
115.128
24.4659
49.668
20.0571
121.036
131.899
298.121
126.119
298.656
50.0688
24.3725
117.153
20.3517
114.678
20.5645
51.1687
123.292
298.662
297.761
133.69
46.9585
24.5086
20.6572
120.884
20.5968
116.866
52.5375
125.811
298.783
298.338
133.013
183.506
184.709
26.6465
189.208
187.091
406.637
405.384
406.892
407.958
26.185
189.238
186.664
181.889
184.194
405.095
406.234
49.5242
19.9409
114.446
23.3991
44.7348
20.3324
118.047
127.208
295.986
121.733
296.521
127.183
296.086
121.049
296.532
47.6885
23.4787
20.3619
114.166
20.3
116.043
48.5501
47.4392
24.1411
20.4524
117.423
20.1554
111.638
49.3212
121.135
296.778
296.138
128.268
122.892
296.533
295.858
128.017
407.722
407.166
406.768
405.622
26.0769
190.259
185.303
184.275
183.307
406.903
409.574
405.108
406.675
406.668
405.647
407.437
407.026
184.715
185.693
26.564
186.91
189.665
405.624
406.484
406.968
407.758
25.6605
187.262
189.321
183.296
185.715
127.813
295.307
119.673
296.497
49.2374
115.374
20.1048
23.9905
44.5307
117.803
19.8647
49.7096
110.81
19.927
23.433
45.5447
117.86
20.3159
124.653
297.137
296.123
127.34
123.836
296.642
294.759
128.253
47.5122
23.5349
117.425
20.3152
115.279
20.2654
48.8042
46.77
23.9174
117.334
20.3321
111.317
20.3417
48.9549
181.849
184.033
26.7168
186.416
188.608
407.734
406.957
405.201
406.609
25.4242
186.617
188.689
182.172
184.327
406.491
408.241
52.3563
119.185
20.4261
23.3371
47.2937
121.812
20.1308
133.333
297.796
128.502
298.788
51.7791
20.545
114.87
23.7895
48.2694
20.3662
121.319
124.098
298.764
297.736
132.503
50.1047
24.5883
120.332
20.7243
115.452
20.664
51.9739
129.833
298.642
297.478
133.788
49.7246
23.7829
20.6737
121.195
20.3779
110.242
52.816
133.384
297.897
123.345
298.833
51.8083
20.1285
112.297
24.4859
50.5913
20.612
122.15
132.482
297.666
126.486
298.601
50.6243
23.9097
120.511
20.4099
112.976
20.653
49.3593
129.644
298.776
297.919
133.777
50.3839
23.9865
20.7798
120.835
20.437
118.718
52.0291
126.871
298.682
298.051
132.33
182.503
183.42
26.7051
189.736
187.009
406.304
405.631
406.993
407.653
26.1267
189.809
186.72
182.649
181.698
406.271
406.744
49.0356
20.264
111.483
24.0176
46.4743
20.3361
117.517
127.354
295.715
120.869
296.763
128.173
295.828
119.116
296.563
45.0362
24.0625
19.9192
114.176
20.0124
116.022
49.9671
46.0255
24.0453
20.3981
117.783
20.3423
112.31
49.3473
120.869
296.725
296.133
127.766
122.594
296.581
295.002
127.939
408.252
407.2
406.5
405.618
26.0351
190.298
186.163
184.379
183.373
406.781
408.478
405.254
406.687
407.702
405.49
408.73
407.102
183.959
182.768
26.598
187.179
190.285
407.272
406.473
407.686
407.737
25.9124
187.341
189.365
184.489
186.913
127.171
295.992
122.46
296.66
48.8293
109.44
20.0246
24.0308
47.2131
117.509
19.904
48.658
111.891
19.9424
24.017
45.8358
117.553
19.9596
118.91
296.969
295.452
127.041
118.97
296.521
295.006
127.728
45.6766
24.0269
117.511
20.3149
114.481
20.2467
49.0116
46.637
24.0554
117.574
20.2988
112.199
20.1175
49.1513
182.147
181.352
26.5681
187.458
189.527
407.909
407.069
405.254
406.649
25.3846
186.636
188.992
182.538
183.384
406.712
408.299
51.425
115.969
20.3308
24.3931
48.3851
121.35
20.4796
132.257
297.558
127.504
298.866
51.9303
20.3364
117.801
23.9056
51.2069
20.1081
120.718
125.204
299.476
298.39
128.949
48.285
23.9033
121.83
20.6507
112.056
20.5403
51.3472
126.262
298.681
297.95
131.6
50.0765
23.7467
20.7033
121.209
20.6444
111.841
51.696
132.219
297.517
130.443
298.601
51.9034
20.4086
118.145
23.8567
50.5932
20.12
120.944
131.901
297.879
126.594
298.687
47.0164
23.9276
121.267
20.5966
114.913
20.5862
52.3525
129.039
298.744
297.681
131.656
49.3116
24.3126
20.7102
120.782
20.6643
118.534
51.5913
125.36
298.587
297.713
132.109
183.955
181.243
26.5283
189.884
187.703
407.581
406.022
406.753
408.374
25.5995
189.586
187.411
182.378
180.356
405.222
406.325
49.1518
20.0886
111.769
24.1936
46.7145
20.2139
118.199
127.051
296.035
120.152
296.632
127.087
295.905
120.502
296.496
47.559
23.1423
20.2332
117.606
19.9268
109.503
47.4353
44.5276
23.5347
20.3349
117.703
20.2497
111.637
49.6908
121.309
296.614
295.975
127.554
121.133
296.743
296.456
127.293
408.064
407.219
406.646
405.682
25.664
188.012
185.495
187.699
183.513
406.718
408.535
405.077
406.799
405.778
405.577
409.004
407
183.306
184.646
26.7945
186.597
189.51
405.591
407.719
406.989
408.602
25.7621
187.573
188.973
183.247
184.09
126.741
295.849
120.153
296.888
48.5181
114.406
20.0633
24.144
45.4473
117.658
19.9561
48.7566
111.484
19.8338
24.2511
47.4512
118.126
20.2394
123.276
296.395
295.703
126.771
122.2
296.5
295.803
128.473
45.7478
24.0974
117.204
20.2648
111.743
19.9123
48.7002
44.699
23.6
117.458
20.3714
110.903
20.0554
49.2107
181.034
183.221
26.6088
186.907
190.201
408.159
407.229
405.648
406.571
25.9366
186.935
189.677
183.029
183.175
406.535
408.411
51.2041
115.174
20.3471
24.5046
48.0891
121.762
20.4943
131.12
297.838
124.12
298.699
50.9837
20.0835
112.332
24.4089
48.0007
20.5614
121.151
127.428
299.193
298.461
129.027
48.8786
24.5102
120.521
20.6513
115.16
20.5449
51.6589
120.991
298.822
297.103
133.157
47.9854
24.3941
20.7015
120.967
20.3585
117.133
51.3071
132.881
297.827
122.256
298.625
51.3786
20.3738
112.136
24.566
48.5092
20.2476
122.076
132.377
297.583
126.978
298.496
46.913
24.4431
120.737
20.5285
112.921
20.1755
51.189
129.127
299.215
298.62
131.892
47.7978
23.9917
20.6973
120.891
20.6014
118.75
51.624
122.669
298.617
297.692
133.592
187.081
184.879
26.4952
188.948
186.819
406.505
405.644
406.856
407.886
25.5566
189.119
187.204
187.128
179.225
404.835
407.928
49.6587
20.0628
111.908
24.2948
45.1032
20.1963
118.447
128.586
296.224
123.441
296.901
128.52
295.82
117.638
296.601
46.943
23.2101
20.1665
117.631
20.0325
109.894
49.324
47.9502
23.5913
20.3272
118.028
20.2328
113.169
49.2715
123.082
296.694
295.933
127.456
124.938
296.693
296.087
128.04
408.439
407.175
406.667
405.497
25.6891
189.261
188.325
188.016
182.087
406.318
408.426
405.336
406.976
406.799
405.553
408.093
407.323
183.331
184.298
26.6898
187.21
189.384
405.384
407.387
407.073
408.226
25.649
186.617
189.084
181.821
184.035
127.729
295.663
124.642
296.866
48.844
111.32
19.8765
23.3576
46.2307
118.223
20.2826
49.7277
111.211
20.206
23.5924
45.5612
118.186
20.088
123.167
296.618
295.468
126.913
121.707
296.863
295.599
127.457
46.325
23.9078
117.813
20.3469
113.159
20.0301
48.941
45.2407
23.9176
118.881
20.3712
113.175
20.0412
49.8988
180.159
182.526
26.7903
187.999
190.065
407.678
407.211
406.556
406.06
26.244
187.874
189.266
182.074
187.8
406.394
409.59
52.094
114.426
20.4061
24.6181
49.6589
120.96
20.2444
132.154
298.104
128.962
298.74
51.7588
20.1524
116.275
24.1357
49.3745
20.6009
120.591
129.871
299.227
297.527
127.967
50.5301
23.9893
120.551
20.7579
111.698
20.7245
51.781
125.107
298.779
297.476
132.221
49.6155
24.2239
20.7169
121.324
20.3717
111.313
51.6153
132.393
298.273
124.169
298.991
51.7482
20.4301
117.12
24.5198
48.9458
20.2994
120.738
132.381
298.003
129.39
298.775
50.1096
23.8364
122.439
20.3264
118.975
20.5224
49.5233
127.271
299.003
298.501
131.941
49.4201
24.509
20.6347
120.387
20.2608
114.116
51.5582
125.451
298.557
297.94
132.323
187.17
184.839
26.421
189.519
186.799
406.161
405.59
408.085
408.965
25.6909
189.39
186.724
187.628
183.713
405.232
406.636
49.0797
19.8403
109.908
23.0075
47.9829
20.2534
117.98
127.321
295.425
121.542
296.835
128.51
295.414
123.235
296.413
45.1671
23.7713
20.0843
114.416
20.3185
116.683
48.3722
47.3013
24.1567
20.3843
117.522
20.0743
111.531
49.1556
121.864
296.569
296.394
127.46
126.207
296.418
295.652
128.96
407.721
407.023
406.838
405.662
25.6419
190.378
188.21
183.922
181.878
406.517
409.56
405.045
408.091
406.397
407.16
407.986
407.22
181.998
183.277
26.7101
186.603
190.373
405.544
405.725
407.15
408.119
26.1298
186.81
189.55
182.794
186.82
127.277
296.046
121.2
296.839
48.7976
108.808
19.8548
24.119
46.3931
118.874
20.2585
49.1067
109.958
19.9281
24.2773
48.5292
119.512
20.3243
119.309
296.789
296.279
128.93
121.637
296.757
295.299
127.215
46.1149
23.6182
117.767
20.3676
110.426
20.0456
48.8547
47.1134
24.2094
117.97
20.4054
116.262
20.1008
49.0948
181.861
187.141
26.6931
187.878
188.818
407.65
406.992
405.606
407.825
25.7409
187.749
189.557
184.098
182.358
406.698
408.056
51.8368
119.157
20.2294
23.8452
50.4164
121.793
20.0498
131.625
298.076
124.763
298.904
51.3695
20.4856
112.823
24.4994
48.2193
20.5622
121.425
126.149
299.407
298.02
128.509
48.7477
24.2861
122.022
20.685
112.497
20.6071
52.0226
125.171
298.785
298.129
132.533
48.5144
23.7897
20.6551
120.953
20.5804
117.26
51.4801
132.342
297.766
124.711
298.661
51.555
20.1338
115.668
24.6257
48.5741
20.5929
120.727
132.052
298.11
126.807
298.73
48.4269
24.3965
122.491
20.6072
112.915
20.5903
51.1699
126.362
298.745
297.887
133.323
48.5506
24.5325
20.6994
121.552
20.3601
111.744
51.6245
123.807
298.892
298.239
132.409
187.383
181.143
26.5122
189.225
186.925
406.498
405.638
406.958
408.034
25.5895
189.232
187.297
185.908
180.162
404.876
407.937
48.9416
20.1939
111.236
24.0123
46.6639
20.2625
118.127
127.783
295.853
122.991
296.706
128.257
295.311
117.594
296.38
47.8222
23.8394
20.0702
117.374
20.2878
109.497
49.3453
44.6884
23.5458
20.3348
117.407
20.2699
111.004
49.5104
119.428
296.565
295.1
127.69
118.748
296.345
295.662
128.849
407.755
406.773
406.223
405.613
26.2462
189.092
187.85
186.488
182.906
406.694
407.851
405.085
406.76
407.3
405.499
407.644
407.097
182.684
185.034
26.6184
186.505
189.208
405.43
407.518
406.896
409.005
25.2061
187.007
189.082
183.099
184.781
128.237
295.936
117.383
296.596
49.203
111.833
20.0135
24.1792
46.9056
117.971
19.7947
49.1933
109.304
19.9255
23.9854
46.6456
118.849
20.333
124.69
296.738
296.009
126.963
123.965
296.528
295.736
127.67
47.5776
24.152
118.049
20.3253
107.282
20.2699
48.985
47.9811
24.1353
118.228
20.3947
108.774
20.1025
48.9269
184.697
186.504
26.6506
187.389
189.392
407.976
407.084
405.176
407.526
26.0807
186.812
189.08
180.489
184.226
406.299
408.296
52.222
118.671
20.3404
24.3829
47.8279
121.055
20.3811
131.73
298.262
125.615
298.859
51.2237
20.319
115.958
24.5819
48.1944
20.476
120.603
126.179
298.846
298.347
133.106
47.3201
24.418
121.657
20.6557
112.366
20.2735
52.4631
126.077
298.843
298.058
132.182
47.9357
23.9046
20.6379
120.867
20.5625
117.681
51.8073
132.247
297.275
126.45
299.031
51.5885
20.4978
112.612
24.5537
48.2913
20.2841
120.69
132.944
298.372
126.027
298.723
48.3216
23.4804
120.502
20.5378
112.613
20.1742
51.9823
126.309
298.748
298.473
132.038
48.5615
23.8795
20.4713
120.5
20.753
114.212
51.8342
127.717
298.765
298.058
133.734
183.618
184.27
26.3981
189.273
187.064
406.125
405.57
407.046
407.76
25.0956
189.341
187.349
185.057
179.317
405.138
407.534
49.3553
19.8625
111.139
23.4714
44.8081
20.2856
118.062
127.525
295.773
123.486
296.083
127.528
295.476
125.624
296.521
44.8343
23.4562
20.2582
117.687
20.2383
110.292
48.7533
47.5726
23.7298
20.325
117.68
20.3338
111.745
49.1121
123.545
296.824
296.339
127.797
124.452
296.598
295.41
128.094
407.939
407.046
406.217
405.563
25.6445
190.154
186.996
184.011
181.374
406.377
409.604
405.292
406.818
406.635
405.276
408.121
407.18
183.846
184.329
26.8086
186.681
189.524
405.504
405.96
408.479
408.093
25.4319
186.483
189.073
182.267
184.453
127.988
295.894
123.127
296.524
48.5901
115.001
19.9878
24.0427
45.5676
117.481
20.1253
49.295
114.749
19.9385
23.5189
44.887
117.381
20.3195
122.829
297.174
296.033
123.212
117.488
296.446
294.811
128.376
45.529
23.5733
118.3
20.2757
108.994
20.1711
48.9317
44.9418
23.3973
118.19
20.3545
109.889
20.0511
49.4939
180.012
184.764
26.6194
187.724
189.411
407.62
407.009
405.476
405.982
25.9272
187.093
189.057
182.674
184.914
406.377
408.104
51.7788
117.23
20.1463
24.2585
50.1878
120.949
20.6026
131.755
298.327
125.718