/*--------------------------------*- C++ -*----------------------------------*\
| =========                 |                                                 |
| \\      /  F ield         | OpenFOAM: The Open Source CFD Toolbox           |
|  \\    /   O peration     | Version:  2206                                  |
|   \\  /    A nd           | Website:  www.openfoam.com                      |
|    \\/     M anipulation  |                                                 |
\*---------------------------------------------------------------------------*/
FoamFile
{
    version     2.0;
    format      ascii;
    arch        "LSB;label=32;scalar=64";
    class       surfaceScalarField;
    location    "80";
    object      phi;
}
// * * * * * * * * * * * * * * * * * * * * * * * * * * * * * * * * * * * * * //

dimensions      [0 3 -1 0 0 0 0];

oriented        oriented;

internalField   nonuniform List<scalar> 
196491
(
-2.05295e-12
-1.81183e-12
-6.81213e-09
-2.44935e-12
-2.04139e-12
-2.49937e-12
-5.61225e-09
-4.17157e-12
-1.65672e-12
-1.36085e-08
-7.00021e-12
-2.08703e-08
-1.11112e-11
-1.37411e-12
-8.90231e-13
-9.95432e-09
4.64253e-12
1.38629e-11
5.36679e-14
-2.01582e-08
-1.91534e-08
-1.92991e-14
-9.80224e-13
-1.20837e-08
-2.46095e-12
-2.11416e-12
-2.40158e-12
-5.61098e-09
-4.17487e-12
2.32008e-12
-1.68938e-12
-1.36099e-08
-6.92354e-12
-2.08649e-08
-1.37208e-12
-1.1121e-11
-9.32955e-13
-9.95191e-09
1.38892e-11
4.64655e-12
-2.01547e-08
-9.30299e-13
-1.20827e-08
-1.91466e-08
-1.64494e-12
-6.814e-09
-1.13711e-12
-3.04805e-14
-4.45518e-09
-6.53576e-13
5.69661e-14
-2.39455e-09
-3.35338e-13
6.68317e-14
-1.17672e-09
-1.22373e-13
5.03846e-14
-4.86973e-10
7.21206e-15
-1.15834e-10
-1.52208e-12
3.22712e-13
-3.4861e-13
-4.45487e-09
-8.19454e-13
1.71726e-13
-1.87851e-13
-2.39253e-09
-3.84017e-13
9.30199e-14
-9.19832e-14
-1.17504e-09
-1.32654e-13
4.84096e-14
-3.68634e-14
-4.86091e-10
7.45677e-15
-1.05789e-14
-1.15595e-10
-8.78528e-13
-2.38275e-09
-4.02427e-13
-1.28323e-09
-1.57036e-13
-6.30364e-10
-4.54104e-14
-2.60416e-10
-6.1712e-11
-9.26996e-13
1.54872e-13
-3.11676e-13
-2.3833e-09
-4.50833e-13
5.68992e-14
-1.52778e-13
-1.28359e-09
-1.85583e-13
2.39236e-14
-6.9818e-14
-6.30491e-10
-5.58666e-14
9.90683e-15
-2.78056e-14
-2.60488e-10
-5.02823e-16
-6.78418e-15
-6.17194e-11
-9.15062e-13
-4.45667e-09
-4.35267e-13
-2.39545e-09
-1.73701e-13
-1.17721e-09
-4.88319e-14
-4.87253e-10
-1.15898e-10
-1.3726e-12
-3.96857e-13
-4.45432e-09
-6.6878e-13
-2.27496e-13
-2.39235e-09
-2.69655e-13
-1.19996e-13
-1.17489e-09
-7.77196e-14
-5.30445e-14
-4.86089e-10
-1.45261e-14
-1.15569e-10
-4.77292e-13
-2.26311e-13
-2.72428e-09
-2.14932e-13
-1.35941e-13
-1.46675e-09
-7.77899e-14
-7.75295e-14
-7.20833e-10
-2.17611e-14
-3.93791e-14
-2.98046e-10
-7.27316e-15
-7.0748e-11
-5.62045e-13
1.58411e-14
-2.9742e-09
-2.86356e-13
1.65528e-14
-1.60055e-09
-1.24068e-13
1.25772e-14
-7.86857e-10
-4.23304e-14
7.77256e-15
-3.2559e-10
1.00685e-15
-7.73982e-11
-5.37361e-13
-2.20398e-13
-2.72396e-09
-2.73141e-13
-1.27385e-13
-1.46656e-09
-1.18112e-13
-6.58133e-14
-7.20695e-10
-3.80208e-14
-2.80811e-14
-2.98008e-10
-7.30281e-15
-7.07377e-11
-5.09018e-13
-2.974e-09
-2.42966e-13
-1.60044e-09
-9.95664e-14
-7.86804e-10
-3.3435e-14
-3.25572e-10
-7.73916e-11
-2.79395e-11
-1.01319e-11
-4.51985e-12
-6.85509e-09
-3.73102e-12
-2.16909e-12
6.82019e-09
-2.43658e-12
-6.81185e-09
3.97349e-11
3.27314e-11
2.72891e-08
3.98305e-11
3.98309e-11
-2.74412e-08
-5.33195e-11
1.82157e-11
-1.19198e-10
2.22606e-08
-2.2134e-08
-8.82815e-12
3.38722e-12
-2.15894e-11
2.18563e-08
-2.1833e-08
-7.93025e-11
-3.83705e-12
-1.36941e-08
-1.02991e-09
3.58359e-11
9.83455e-11
-1.56685e-11
5.20052e-10
3.41145e-10
1.1348e-10
4.41405e-10
-1.15607e-07
-6.92385e-11
-1.97356e-10
2.16303e-08
-2.14964e-08
-4.77339e-11
-1.0854e-13
4.7697e-12
1.35291e-11
2.01883e-08
-2.01588e-08
-1.11742e-11
-4.35169e-12
1.36237e-08
-2.02581e-12
-1.36083e-08
-5.45909e-14
1.06973e-11
-9.16352e-11
2.428e-08
-2.42467e-08
-1.78131e-10
9.67466e-11
3.83738e-11
3.18611e-11
-3.25641e-11
-5.8392e-11
5.58328e-11
-5.71643e-11
5.72649e-11
-1.13547e-07
-1.5273e-11
-2.76605e-11
2.13882e-08
-2.13653e-08
-3.58497e-11
9.00933e-11
-9.61281e-11
1.28787e-10
9.47272e-11
-1.27991e-10
-1.17362e-07
-4.77884e-11
1.3487e-11
4.51577e-12
2.01847e-08
-2.01551e-08
-1.13138e-11
2.13948e-12
-4.33557e-12
1.36258e-08
-2.05461e-12
-1.36102e-08
-9.17575e-11
1.03164e-11
2.42758e-08
-2.42422e-08
2.76309e-12
-8.52685e-11
-3.86462e-11
5.6138e-11
3.84933e-11
-5.76338e-11
8.59798e-11
1.05403e-11
-1.09961e-11
-1.14739e-07
-1.68602e-11
-1.63588e-12
-7.78251e-11
1.28198e-10
7.85611e-11
-1.27645e-10
-1.18401e-07
8.98908e-12
-1.50398e-11
-2.75215e-11
2.13746e-08
-2.13523e-08
-3.96364e-12
6.82235e-09
-2.27777e-12
-6.81397e-09
2.74801e-08
9.08453e-11
-2.75365e-08
-1.34551e-10
1.48144e-11
-2.17092e-11
2.19109e-08
-2.18873e-08
3.14614e-12
3.545e-12
2.01645e-12
2.44302e-12
-1.55571e-08
-3.75149e-12
-2.43783e-12
1.09384e-11
1.36835e-11
-3.68812e-12
5.6716e-09
1.75245e-13
-2.6302e-12
-5.66546e-09
-3.46839e-12
5.64387e-09
-1.38511e-12
-2.12494e-12
-5.63689e-09
-1.1637e-11
-1.36525e-11
-1.5539e-08
3.14828e-13
2.02906e-12
1.50612e-12
2.74479e-12
-2.01543e-08
-6.15068e-12
1.71407e-11
1.7129e-11
-3.96706e-11
1.32588e-08
-2.53559e-12
-1.31981e-08
4.68376e-11
2.4025e-08
-1.47401e-10
-1.42189e-10
-2.39015e-08
-3.25878e-13
-3.71752e-11
-4.78813e-11
-1.76351e-11
-2.01411e-08
2.46391e-12
3.16813e-11
-1.33302e-11
-1.91373e-08
-8.04762e-12
2.32035e-11
1.51495e-11
-8.5572e-12
1.29197e-08
-1.81265e-12
-1.29074e-08
2.27564e-11
2.30003e-08
-3.86052e-11
-3.32536e-11
-2.29728e-08
-3.76036e-12
2.13793e-11
8.75599e-12
-1.55014e-11
-1.91213e-08
1.98961e-12
3.8362e-11
3.31984e-11
-9.96575e-09
1.13113e-11
8.89141e-13
-1.64788e-12
8.92203e-13
1.05494e-11
1.91796e-08
6.79799e-12
-3.86181e-11
-1.91536e-08
1.4941e-12
1.20977e-08
-1.65604e-13
-1.15492e-12
-1.20844e-08
-4.33998e-12
-1.40158e-11
-8.00394e-15
4.84727e-11
1.94239e-12
-1.23526e-12
-9.95442e-09
-6.51317e-12
3.96486e-11
-4.68572e-14
9.21929e-13
-5.61913e-09
2.53864e-12
2.67697e-12
2.10159e-12
2.08958e-08
-2.48212e-11
-2.08706e-08
3.67001e-12
1.19689e-11
1.66098e-12
-2.80459e-12
-5.61228e-09
2.52119e-11
-9.96352e-09
9.57365e-13
1.13287e-11
-1.59934e-12
9.16324e-13
1.21398e-12
1.20967e-08
-1.19866e-12
-1.20834e-08
1.07747e-11
1.9173e-08
6.84064e-12
-3.92782e-11
-1.91468e-08
-1.40581e-11
-4.37234e-12
4.8478e-11
2.08032e-12
-1.11458e-12
-9.9525e-09
8.56475e-13
-6.58009e-12
3.99083e-11
-5.61787e-09
2.64075e-12
2.64647e-12
2.04214e-12
2.08909e-08
-2.49461e-11
-2.08655e-08
3.64806e-12
-1.97566e-12
1.23783e-11
1.79244e-12
-2.70894e-12
-5.61104e-09
2.57441e-11
4.10152e-12
2.28736e-12
-3.35542e-12
-3.41933e-12
1.26881e-11
1.23412e-11
-1.55657e-08
1.37287e-12
2.02745e-12
-5.64578e-09
1.00434e-13
2.29551e-12
-5.67476e-09
1.65369e-11
-8.82129e-12
2.17642e-11
-1.91375e-08
2.33735e-08
-3.14369e-11
-4.61309e-11
-2.33341e-08
1.63727e-11
2.22707e-11
-2.72424e-12
8.88819e-12
3.12099e-11
4.66159e-11
1.79487e-12
-1.291e-08
-5.94668e-12
3.10604e-11
6.93801e-12
-2.01708e-08
-2.10369e-12
1.07166e-11
-1.75328e-12
-2.2282e-08
9.34033e-12
2.07339e-12
-1.32788e-08
-2.54972e-12
-2.36419e-08
6.66943e-11
3.28574e-12
-6.95693e-09
-1.42699e-13
2.49339e-10
-4.88669e-10
-1.21067e-07
-3.453e-10
4.49649e-10
-1.2982e-07
4.02234e-10
-4.1337e-11
-1.2473e-07
3.86382e-10
-6.56816e-12
-1.35609e-07
-3.95049e-10
1.09936e-11
-1.20906e-07
2.76774e-12
-1.29903e-07
-1.6669e-11
-8.24603e-12
-1.23835e-07
-1.37011e-12
-1.34874e-07
-9.43357e-13
-1.2773e-07
-1.47079e-11
3.89117e-10
-1.35876e-07
1.69632e-11
-1.24949e-11
-1.27704e-07
-1.56093e-11
-1.34996e-07
-2.06716e-11
-2.30906e-08
1.70878e-11
2.443e-11
-3.97664e-11
-3.85005e-11
1.74032e-11
2.60623e-08
-2.60889e-08
2.43974e-11
2.48097e-08
-2.48011e-08
-2.3082e-08
1.13725e-10
-2.62883e-08
4.15067e-10
-3.00795e-10
2.35519e-08
-2.33959e-08
2.52183e-08
-1.6512e-10
-2.50516e-08
-2.10233e-10
-8.75991e-11
-2.61742e-08
-2.59642e-08
-7.18798e-11
1.78034e-11
2.59975e-11
-7.08104e-11
2.35797e-08
1.42156e-11
-2.3551e-08
1.88914e-11
2.68213e-08
6.91875e-12
-2.681e-08
-9.92777e-12
9.19944e-11
-1.30156e-13
-2.13467e-11
-2.59001e-08
-1.36736e-11
-7.0298e-12
-3.72205e-11
-2.59987e-08
-4.7665e-11
-4.77671e-11
2.32701e-08
-2.32482e-08
2.48669e-08
-3.83568e-11
-2.48336e-08
2.85936e-11
1.42302e-11
-2.60489e-08
-2.5962e-08
2.11379e-11
-7.09055e-11
-2.86553e-11
2.15295e-11
2.68184e-08
-2.67966e-08
-7.09447e-11
2.35701e-08
1.70212e-11
-2.35451e-08
9.17553e-11
-1.00497e-11
2.92256e-11
-2.59621e-08
-1.63175e-11
-2.59678e-08
-4.75763e-11
-4.01694e-11
-4.70163e-11
2.32577e-08
-2.32337e-08
-4.11419e-11
2.48717e-08
-2.48334e-08
1.40665e-11
2.9228e-11
-2.59882e-08
-1.39939e-11
5.89733e-11
-2.30903e-08
-8.79968e-11
-1.43505e-11
1.24885e-10
2.59759e-08
-2.59061e-08
-1.45151e-11
1.92718e-10
-2.51029e-08
-2.03075e-12
1.38906e-13
-3.36574e-13
-4.45665e-09
-6.55647e-13
6.77126e-14
-2.28917e-13
-2.39573e-09
-3.81533e-14
-3.94437e-15
-1.64516e-13
-1.1774e-09
1.13216e-13
-3.64612e-14
-1.0627e-13
-4.87368e-10
8.70991e-15
-1.38058e-14
-1.15904e-10
-1.51584e-12
-1.89055e-13
4.45414e-09
1.3683e-13
-4.45499e-09
-8.62686e-13
-6.35699e-14
2.39392e-09
8.26033e-14
-2.39452e-09
-4.32766e-13
-1.71506e-14
1.17644e-09
4.88282e-14
-1.17678e-09
-1.57382e-13
-6.39225e-16
4.86879e-10
2.71155e-14
-4.87045e-10
2.16954e-15
1.15771e-10
5.38607e-15
-1.15838e-10
-2.04492e-12
-2.38297e-09
-1.02866e-12
-1.28337e-09
-4.34163e-13
-6.30386e-10
-1.15686e-13
-2.60405e-10
-6.17135e-11
-1.12224e-12
2.38194e-09
-3.65004e-13
-2.3827e-09
-5.16658e-13
1.28273e-09
-1.94049e-13
-1.28326e-09
-1.85436e-13
6.30086e-10
-9.59313e-14
-6.304e-10
-4.34625e-14
2.6028e-10
-4.13526e-14
-2.60439e-10
6.16629e-11
-9.88204e-15
-6.17189e-11
-1.17297e-12
1.79211e-13
2.38256e-09
-3.645e-13
-2.38326e-09
-5.78049e-13
6.44937e-14
1.28314e-09
-1.94632e-13
-1.28361e-09
-2.3178e-13
2.55024e-14
6.30252e-10
-9.69834e-14
-6.30529e-10
-6.13594e-14
9.65015e-15
2.60377e-10
-4.22858e-14
-2.60515e-10
-7.3697e-16
6.16736e-11
-9.6017e-15
-6.17249e-11
-1.2851e-12
4.45562e-09
-4.4566e-09
1.59466e-13
-6.34141e-13
2.39474e-09
-2.39543e-09
9.06732e-14
-2.51425e-13
1.17683e-09
-1.17725e-09
4.72174e-14
-5.83512e-14
4.87071e-10
-4.87286e-10
2.04917e-14
1.15829e-10
-1.15903e-10
6.83386e-15
1.3797e-12
7.5649e-14
-2.57488e-13
7.26001e-13
4.27193e-15
-1.96156e-13
3.40624e-13
-1.03313e-14
-1.37365e-13
1.20273e-13
-1.19777e-14
-8.04332e-14
-7.43194e-16
-1.55427e-14
4.35352e-13
-2.72369e-09
9.1315e-14
-2.0695e-13
1.68974e-13
-1.4664e-09
6.50383e-14
-1.1942e-13
5.13151e-14
-7.20644e-10
4.11613e-14
-6.69173e-14
1.59062e-14
-2.97959e-10
2.08299e-14
-3.1521e-14
-7.07098e-11
6.14924e-15
-9.41702e-15
-7.20141e-13
2.7529e-13
2.97369e-09
-4.44504e-14
-2.97436e-09
-3.83517e-13
1.65704e-13
1.60026e-09
-2.54286e-14
-1.60073e-09
-1.67785e-13
9.10314e-14
7.86713e-10
-1.43319e-14
-7.86992e-10
-5.17256e-14
4.25384e-14
3.2553e-10
-7.44973e-15
-3.25665e-10
9.93093e-15
7.7364e-11
-6.0114e-16
-7.74144e-11
-7.27655e-13
3.93686e-13
-2.72434e-09
-3.54857e-13
2.2997e-13
-1.46686e-09
-1.36194e-13
1.20609e-13
-7.20924e-10
-3.30869e-14
5.16233e-14
-2.981e-10
1.47902e-14
-7.0759e-11
4.81245e-13
-5.13333e-15
2.23522e-13
-1.41144e-15
9.12917e-14
-2.44799e-15
3.12259e-14
-3.29886e-15
8.88647e-16
8.32039e-13
1.75771e-13
3.5066e-13
8.69674e-14
1.3005e-13
4.56036e-14
4.32552e-14
2.19406e-14
5.05254e-15
4.82298e-13
-2.72344e-09
9.44193e-14
-1.8771e-13
2.21492e-13
-1.46625e-09
5.84238e-14
-1.12784e-13
9.01152e-14
-7.20537e-10
3.4396e-14
-6.80528e-14
3.15342e-14
-2.97937e-10
1.72298e-14
-3.55447e-14
-7.07038e-11
4.38704e-15
-8.82611e-15
-7.21531e-13
1.88263e-13
2.97348e-09
-2.9742e-09
-3.64844e-13
1.11529e-13
1.60013e-09
-1.60063e-09
-1.48107e-13
5.77613e-14
7.86641e-10
-7.86939e-10
-4.17297e-14
2.37952e-14
3.25497e-10
-3.25643e-10
7.11116e-15
7.73563e-11
-7.74086e-11
-6.60395e-13
4.22428e-13
-2.72414e-09
-3.2574e-13
2.4913e-13
-1.46673e-09
-1.28412e-13
1.32298e-13
-7.20815e-10
-3.52649e-14
5.78962e-14
-2.98071e-10
1.60598e-14
-7.07526e-11
4.37894e-13
1.97308e-13
8.14602e-14
2.97432e-14
9.80544e-13
-7.92552e-14
1.52172e-13
4.627e-13
-1.33616e-14
6.17113e-14
1.86479e-13
-8.30194e-16
2.43803e-14
5.47299e-14
1.33241e-15
8.07354e-15
1.14241e-15
3.2561e-15
1.22373e-12
-6.71936e-14
5.60859e-13
-4.35686e-14
2.19316e-13
-2.48464e-14
6.07219e-14
-1.11913e-14
-3.89245e-15
1.09048e-12
-1.94057e-13
3.05185e-13
-2.3664e-09
5.29896e-13
-1.25119e-13
1.6396e-13
-1.27398e-09
2.21571e-13
-7.34751e-14
8.78141e-14
-6.25768e-10
6.26418e-14
-3.55684e-14
3.97541e-14
-2.58506e-10
-8.88341e-15
1.09949e-14
-6.127e-11
1.7621e-12
-4.45383e-09
-1.72833e-13
8.20022e-13
-2.39374e-09
-1.48141e-13
3.19998e-13
-1.17637e-09
-9.45484e-14
7.82755e-14
-4.86843e-10
-4.59889e-14
-1.15788e-10
-1.53427e-14
-1.10614e-12
2.39816e-13
-1.0879e-13
4.25146e-09
-4.25324e-09
-2.47509e-13
5.42e-14
-4.97567e-14
2.28519e-09
-2.28633e-09
1.28921e-13
-1.77327e-14
-3.09366e-14
1.12248e-09
-1.12318e-09
1.82877e-13
-3.67226e-14
-2.2594e-14
4.64312e-10
-4.6471e-10
4.67994e-16
-1.25683e-15
1.10351e-10
-1.10453e-10
-1.41278e-12
2.36623e-09
-2.36721e-09
-7.94624e-13
1.27405e-09
-1.27449e-09
-3.99598e-13
6.25763e-10
-6.25932e-10
-1.48979e-13
2.58584e-10
-2.58626e-10
6.12602e-11
-6.13054e-11
1.58035e-12
2.47575e-13
8.96693e-13
7.72156e-14
4.35771e-13
-1.0192e-14
1.45013e-13
-4.17342e-14
9.46516e-15
-1.50395e-12
1.17751e-13
4.25228e-09
-4.25302e-09
-9.43506e-13
8.52751e-14
2.28538e-09
-2.28586e-09
-5.14134e-13
6.64191e-14
1.12277e-09
-1.12302e-09
-1.98319e-13
4.19762e-14
4.64486e-10
-4.64598e-10
9.11787e-15
1.10351e-10
-1.10411e-10
-9.32395e-13
2.36523e-09
-2.36594e-09
-3.97388e-13
1.2733e-09
-1.2738e-09
-1.22117e-13
6.25432e-10
-6.25753e-10
-1.78443e-14
2.58375e-10
-2.58553e-10
6.12211e-11
-6.1276e-11
9.00464e-13
-4.99709e-14
3.31049e-13
-3.57896e-14
7.6029e-14
3.58918e-16
1.61264e-15
1.82748e-14
-3.7207e-15
1.14182e-12
4.25376e-13
4.47947e-13
3.23417e-13
1.45717e-13
2.19313e-13
4.09833e-14
1.25617e-13
2.16079e-14
1.56237e-12
7.78992e-13
3.00306e-13
5.56715e-14
1.49806e-12
-4.4538e-09
7.32274e-13
-2.39189e-09
2.98344e-13
-1.17473e-09
8.10129e-14
-4.85955e-10
-1.15528e-10
-1.69369e-12
-4.45485e-09
-8.63102e-13
-2.39263e-09
-3.52704e-13
-1.17516e-09
-9.10489e-14
-4.86169e-10
-1.1561e-10
1.47561e-12
-4.45318e-09
7.07105e-13
-2.39163e-09
2.85867e-13
-1.17451e-09
8.0129e-14
-4.85911e-10
-1.15496e-10
-1.59728e-12
-4.45424e-09
-7.91351e-13
-2.39239e-09
-3.18335e-13
-1.17495e-09
-8.74873e-14
-4.86127e-10
-1.15578e-10
9.18106e-13
4.78461e-14
-2.36614e-09
4.2583e-13
5.88203e-16
-1.27393e-09
1.67978e-13
-5.92058e-15
-6.25757e-10
4.6579e-14
-4.67984e-15
-2.58514e-10
-9.68412e-17
-6.12606e-11
1.14841e-12
-1.41156e-13
-4.25389e-09
5.46687e-13
-9.06203e-14
-2.28634e-09
2.25011e-13
-5.34346e-14
-1.12315e-09
6.51056e-14
-2.66016e-14
-4.64577e-10
-6.40058e-15
-1.10399e-10
1.30386e-12
-4.25362e-09
6.24244e-13
-2.28622e-09
2.54952e-13
-1.12309e-09
6.95789e-14
-4.64528e-10
-1.10403e-10
2.98161e-10
2.9966e-10
1.14154e-07
1.86267e-10
2.52617e-10
1.23779e-10
9.43413e-12
2.14779e-10
5.00078e-11
7.36261e-11
-1.14937e-07
-7.25839e-10
-6.04503e-12
4.74374e-11
-7.80082e-13
2.73655e-08
-2.75267e-08
1.2057e-10
-5.51454e-11
-6.01728e-11
7.94987e-11
-1.16161e-12
1.20143e-07
-1.20106e-07
-4.75241e-11
5.56413e-11
1.65088e-11
1.13807e-07
2.35233e-11
3.05161e-11
-3.96483e-11
-6.88188e-11
4.4827e-11
-6.80281e-11
4.65873e-11
-1.138e-07
-1.14481e-07
1.22946e-12
5.55105e-10
-8.03588e-10
1.14775e-07
1.46307e-11
3.40862e-11
-2.72455e-11
-1.38734e-11
1.31693e-11
-2.74904e-11
-3.97266e-11
-2.75105e-08
9.37332e-11
5.8057e-12
3.97807e-11
2.16845e-11
2.73495e-08
-3.50886e-11
-3.405e-11
-1.20228e-07
2.50023e-11
2.52025e-11
1.20247e-07
-1.1379e-07
-4.21003e-11
3.50743e-11
1.51659e-11
1.13777e-07
2.86886e-11
3.53033e-11
-3.20135e-11
-6.41523e-11
5.05251e-11
5.24393e-11
-6.54589e-11
-1.14855e-07
-4.78831e-11
3.60487e-11
1.5624e-11
1.14846e-07
1.5548e-11
4.0132e-11
-2.35943e-11
-9.0617e-12
2.06414e-11
-3.2852e-12
-3.45872e-11
-2.74856e-08
3.213e-11
4.84664e-11
4.39758e-11
2.9346e-11
2.73317e-08
-2.13231e-11
-1.98258e-11
-1.20289e-07
1.67341e-11
1.64683e-11
1.20297e-07
-1.13738e-07
-3.92611e-11
2.18352e-11
6.43568e-12
1.13724e-07
3.11195e-11
3.74603e-11
-3.36017e-11
-6.09476e-11
5.42368e-11
5.64961e-11
-5.98728e-11
-1.14809e-07
-4.47134e-11
2.37761e-11
8.9764e-12
1.14795e-07
1.83802e-11
4.17341e-11
-2.21652e-11
-5.75417e-12
2.47227e-11
7.37111e-13
-3.10599e-11
-2.74724e-08
2.88301e-11
4.57426e-11
4.6713e-11
3.20777e-11
2.73191e-08
-1.30399e-11
-1.16124e-11
-1.20316e-07
1.07333e-11
1.13333e-11
1.20318e-07
-1.13691e-07
-3.81482e-11
1.30628e-11
2.86295e-12
1.13679e-07
3.22336e-11
3.83826e-11
-2.90598e-11
-5.97923e-11
5.55107e-11
5.76887e-11
-6.13717e-11
-1.14758e-07
-4.35829e-11
1.48928e-11
4.43454e-12
1.14747e-07
1.92345e-11
4.25258e-11
-2.12915e-11
-4.32027e-12
2.63707e-11
2.45396e-12
-2.96392e-11
-2.74638e-08
2.75135e-11
4.45544e-11
4.73598e-11
3.3192e-11
2.73112e-08
-8.24999e-12
-6.23628e-12
-1.20325e-07
6.53456e-12
7.94976e-12
1.20325e-07
-1.13657e-07
-3.76378e-11
8.01507e-12
1.66655e-12
1.13649e-07
3.26416e-11
3.8603e-11
-3.24517e-11
-5.91519e-11
5.61147e-11
5.83786e-11
-5.83597e-11
-1.14723e-07
-4.2996e-11
8.80736e-12
2.22038e-12
1.14716e-07
1.95153e-11
4.30396e-11
-2.10995e-11
-3.66452e-12
2.72077e-11
3.33923e-12
-2.90715e-11
-2.74595e-08
2.70832e-11
4.3967e-11
4.7854e-11
3.3346e-11
2.73072e-08
-5.0085e-12
-3.82871e-12
-1.20328e-07
4.2156e-12
5.12741e-12
1.20328e-07
-1.13632e-07
-3.7505e-11
5.14559e-12
7.12015e-13
1.13626e-07
3.25048e-11
3.87713e-11
-2.87613e-11
-5.88876e-11
5.63004e-11
5.87501e-11
-6.05994e-11
-1.14699e-07
-4.3027e-11
5.81576e-12
2.19976e-12
1.14694e-07
1.94543e-11
4.29717e-11
-2.12368e-11
-3.40061e-12
2.77688e-11
3.87359e-12
-2.87398e-11
-2.74569e-08
2.70239e-11
4.35587e-11
4.82818e-11
3.32673e-11
2.73048e-08
-2.79301e-12
-3.16462e-12
-1.20331e-07
3.16444e-12
3.19651e-12
1.2033e-07
-1.13616e-07
-3.74441e-11
2.46025e-12
3.85088e-13
1.13613e-07
3.22511e-11
3.86932e-11
-3.23107e-11
-5.86541e-11
5.67772e-11
5.90092e-11
-5.75828e-11
-1.14682e-07
-4.30922e-11
3.85421e-12
2.31202e-12
1.14678e-07
1.94791e-11
4.27023e-11
-2.12821e-11
-3.22338e-12
2.7846e-11
4.03763e-12
-2.86233e-11
-2.74556e-08
2.70637e-11
4.32048e-11
4.85013e-11
3.32061e-11
2.73037e-08
-2.79311e-12
-2.13734e-12
-1.20333e-07
2.75198e-12
2.76219e-12
1.20332e-07
-1.13608e-07
-3.76332e-11
2.87703e-13
2.6584e-13
1.13606e-07
3.20496e-11
3.851e-11
-2.88143e-11
-5.80687e-11
5.69289e-11
5.92824e-11
-6.01111e-11
-1.14673e-07
-4.31366e-11
2.30776e-12
1.72613e-12
1.14671e-07
1.95493e-11
4.28662e-11
-2.1086e-11
-3.33746e-12
2.75763e-11
3.8544e-12
-2.88067e-11
-2.74552e-08
2.71477e-11
4.31685e-11
4.86231e-11
3.29621e-11
2.73033e-08
-3.53761e-12
-6.87673e-13
-1.20335e-07
1.86525e-12
2.94748e-12
1.20334e-07
-1.13606e-07
-3.7728e-11
3.6896e-13
1.27521e-12
1.13604e-07
3.1839e-11
3.83795e-11
-3.27182e-11
-5.85573e-11
5.69829e-11
5.92688e-11
-5.76664e-11
-1.1467e-07
-4.27077e-11
2.24622e-12
1.23796e-12
1.14668e-07
1.99149e-11
4.32707e-11
-2.07704e-11
-3.49132e-12
2.74085e-11
3.64321e-12
-2.89625e-11
-2.74554e-08
2.70147e-11
4.33085e-11
4.83664e-11
3.32116e-11
2.73034e-08
-3.25351e-12
3.18162e-13
-1.20336e-07
1.13511e-12
2.53796e-12
1.20335e-07
-1.13606e-07
-3.7812e-11
1.68404e-13
8.89828e-13
1.13605e-07
3.18406e-11
3.83956e-11
-2.89406e-11
-5.85275e-11
5.64751e-11
5.89172e-11
-6.02615e-11
-1.14667e-07
-4.24727e-11
1.98288e-12
1.26407e-13
1.14667e-07
1.99403e-11
4.35217e-11
-2.04483e-11
-3.71496e-12
2.71347e-11
3.36071e-12
-2.92738e-11
-2.74555e-08
2.68964e-11
4.3279e-11
4.8426e-11
3.31591e-11
2.73037e-08
-2.43023e-12
3.99896e-13
-1.20337e-07
1.84785e-13
2.30269e-12
1.20337e-07
-1.13609e-07
-3.77713e-11
-2.99788e-13
1.12565e-13
1.13609e-07
3.20108e-11
3.84817e-11
-3.23415e-11
-5.84063e-11
5.66187e-11
5.90504e-11
-5.76658e-11
-1.14671e-07
-4.2393e-11
1.56e-12
-9.31068e-13
1.14671e-07
2.00036e-11
4.34731e-11
-2.0584e-11
-3.34695e-12
2.72418e-11
3.50052e-12
-2.89081e-11
-2.74558e-08
2.6931e-11
4.34677e-11
4.82923e-11
3.31802e-11
2.73039e-08
-2.14268e-12
1.39781e-12
-1.20339e-07
-6.61759e-13
1.88027e-12
1.20339e-07
-1.13612e-07
-3.75156e-11
6.19678e-14
-4.27987e-14
1.1361e-07
3.21874e-11
3.8653e-11
-2.8683e-11
-5.84565e-11
5.65146e-11
5.90101e-11
-6.02169e-11
-1.14674e-07
-4.25278e-11
1.63737e-12
-6.81547e-13
1.14674e-07
1.98376e-11
4.33727e-11
-2.09484e-11
-3.22304e-12
2.7597e-11
3.52129e-12
-2.86668e-11
-2.74556e-08
2.69035e-11
4.34239e-11
4.82563e-11
3.32176e-11
2.73038e-08
-1.96216e-12
1.40841e-12
-1.20341e-07
-7.01424e-13
1.90867e-12
1.20341e-07
-1.13615e-07
-3.74382e-11
-5.93606e-13
-7.35786e-13
1.13616e-07
3.22898e-11
3.8586e-11
-3.24331e-11
-5.85947e-11
5.6697e-11
5.89313e-11
-5.74848e-11
-1.14677e-07
-4.24943e-11
1.31803e-12
-7.65355e-13
1.14677e-07
1.98536e-11
4.32732e-11
-2.08266e-11
-3.35907e-12
2.76964e-11
3.79197e-12
-2.84696e-11
-2.74561e-08
2.69133e-11
4.35108e-11
4.82237e-11
3.33109e-11
2.73042e-08
-1.44308e-12
1.57893e-12
-1.20343e-07
-1.04125e-12
1.46732e-12
1.20342e-07
-1.13618e-07
-3.721e-11
-7.44114e-14
-3.79011e-13
1.13616e-07
3.25249e-11
3.84944e-11
-2.87135e-11
-5.83369e-11
5.66431e-11
5.91865e-11
-6.0185e-11
-1.14679e-07
-4.25447e-11
8.93392e-13
-7.13213e-13
1.14679e-07
1.98999e-11
4.33279e-11
-2.07001e-11
-3.15803e-12
2.78335e-11
3.85763e-12
-2.84381e-11
-2.74555e-08
2.67624e-11
4.32614e-11
4.83916e-11
3.35785e-11
2.73035e-08
-4.19352e-13
1.59774e-12
-1.20346e-07
-3.80111e-12
3.76407e-12
1.20345e-07
-1.13618e-07
-3.67397e-11
-1.26776e-12
-1.55097e-12
1.13618e-07
3.28377e-11
3.8352e-11
-3.2515e-11
-5.84659e-11
5.69664e-11
5.93239e-11
-5.73376e-11
-1.14678e-07
-4.24318e-11
-8.24237e-14
-4.75507e-13
1.14678e-07
1.98251e-11
4.30882e-11
-2.09436e-11
-2.99087e-12
2.81098e-11
4.21788e-12
-2.84848e-11
-2.74551e-08
2.66747e-11
4.3076e-11
4.86709e-11
3.32679e-11
2.73034e-08
-4.90374e-13
-1.21117e-07
1.76257e-12
2.38981e-13
-2.35027e-12
1.21118e-07
-1.14507e-07
-4.25874e-11
-5.76638e-13
-2.62123e-12
1.00074e-10
4.44142e-11
-9.86456e-11
-4.61894e-10
3.41713e-10
4.63173e-10
-3.42088e-10
-1.15245e-07
2.57359e-10
1.29118e-12
2.1527e-12
1.943e-10
-2.55414e-10
-1.9462e-10
-1.14258e-10
2.45303e-10
1.1522e-10
-2.46037e-10
1.1524e-07
-2.76242e-08
-2.79792e-10
-2.57545e-10
3.19675e-10
2.61938e-10
2.75799e-08
3.05205e-10
2.45716e-10
2.76331e-08
-2.76832e-08
-2.02634e-10
1.81122e-11
2.75023e-08
-2.7348e-08
-5.96168e-11
-3.85799e-11
-7.41726e-11
2.28805e-10
1.14358e-07
9.77526e-12
-2.7938e-11
-3.98199e-11
-2.71096e-12
6.96094e-12
-4.14393e-11
-3.54554e-11
-1.14483e-07
2.04732e-11
-1.14874e-07
2.39307e-10
-3.909e-10
-3.33683e-11
-2.01168e-10
-3.43171e-10
-4.1163e-11
-3.41556e-13
-2.50713e-10
1.43247e-09
-1.39517e-11
1.14462e-07
-1.14325e-07
-2.18416e-10
-3.20352e-12
-3.33232e-11
1.59107e-11
-3.21455e-11
-4.06011e-11
6.15868e-12
3.43299e-13
1.81664e-10
-2.73545e-08
-5.96012e-11
-3.7453e-11
-7.29565e-11
4.53827e-11
4.81042e-11
3.08872e-11
3.05098e-11
2.73323e-08
-2.74872e-08
-2.95391e-11
-3.30748e-11
2.74708e-08
-2.73199e-08
-4.48071e-11
-4.33822e-11
3.40128e-11
1.15921e-07
6.20297e-12
2.59895e-11
-2.37908e-11
9.28879e-12
1.26015e-11
-3.90816e-11
-3.42414e-11
-1.15922e-07
-4.48578e-11
5.34952e-11
3.30768e-11
1.15961e-07
6.65172e-12
2.69568e-11
-2.42317e-11
1.02273e-11
1.29246e-11
-3.79739e-11
-3.43715e-11
-1.15963e-07
1.15909e-07
4.05615e-11
-1.15915e-07
2.17297e-11
-4.08722e-11
-2.11986e-11
9.76172e-12
-2.93165e-11
-3.46087e-11
1.75266e-11
1.3515e-11
2.94746e-11
1.15949e-07
4.03181e-11
-1.15955e-07
2.23473e-11
-4.14995e-11
-2.20957e-11
9.85687e-12
-2.91615e-11
-3.42521e-11
1.7351e-11
1.3632e-11
3.11234e-11
3.13938e-11
2.73325e-08
-2.74874e-08
-3.40754e-11
2.74723e-08
-2.73209e-08
-4.37287e-11
-4.4172e-11
2.0084e-11
1.13809e-07
2.35821e-11
2.95399e-11
-3.96724e-11
-6.93196e-11
4.38276e-11
-6.80977e-11
4.61747e-11
-1.13807e-07
-1.00842e-10
-2.95781e-10
7.13264e-10
1.15002e-07
1.52685e-11
2.08893e-11
-3.72158e-11
-5.03036e-11
4.35086e-11
-6.74725e-11
4.03405e-11
-1.15284e-07
1.13789e-07
3.99359e-11
-1.13798e-07
1.9505e-11
-4.38218e-11
-3.73035e-11
2.69386e-11
5.11824e-11
-6.39953e-11
4.87935e-11
-6.52404e-11
2.27814e-11
1.14863e-07
3.94754e-11
-1.14871e-07
2.13275e-11
-3.41025e-11
-3.4529e-11
2.33098e-11
3.09107e-11
-6.333e-11
4.76032e-11
-4.55541e-11
-2.83064e-10
7.25967e-10
1.15027e-07
1.63961e-11
2.35496e-11
-3.62053e-11
-5.03391e-11
4.42034e-11
-6.75786e-11
4.10694e-11
-1.15347e-07
3.87211e-11
-1.13799e-07
1.80725e-11
-4.34786e-11
-3.66246e-11
2.75153e-11
5.10753e-11
-6.42761e-11
-6.5301e-11
4.90213e-11
2.31223e-11
1.14885e-07
4.01932e-11
-1.14895e-07
2.11501e-11
-3.35883e-11
-3.39566e-11
2.31341e-11
3.11566e-11
-6.3913e-11
4.79237e-11
-4.56082e-11
4.0987e-11
2.0243e-11
2.73414e-08
-3.88881e-11
2.74762e-08
-2.73269e-08
-5.07997e-11
-3.6823e-11
5.45266e-10
-8.31104e-10
1.1481e-07
1.34048e-11
2.98294e-11
-2.93303e-11
-1.49857e-11
1.27619e-11
-3.98204e-11
-2.84579e-11
3.97893e-11
-1.14861e-07
1.86464e-11
-4.93486e-11
-2.46864e-11
1.42462e-11
-5.12242e-12
-3.56698e-11
-1.02102e-11
1.91879e-11
3.88303e-11
1.14894e-07
4.04412e-11
-1.14902e-07
1.87358e-11
-4.96817e-11
-2.49779e-11
1.46361e-11
-4.69632e-12
-3.47846e-11
1.92608e-11
-9.71634e-12
-2.73356e-08
-5.21835e-11
-3.59117e-11
3.95776e-11
4.2506e-11
3.64203e-11
3.57154e-11
2.73165e-08
-3.27773e-11
-3.64159e-11
2.74596e-08
-2.73081e-08
-4.15924e-11
-4.07231e-11
1.82047e-11
1.15901e-07
1.07479e-11
3.07593e-11
-2.00929e-11
1.47423e-11
1.92999e-11
-2.76515e-11
-3.35184e-11
-4.01925e-11
3.56628e-11
1.89666e-11
1.15942e-07
1.08941e-11
3.06585e-11
-2.49225e-11
1.4707e-11
1.93099e-11
-2.75071e-11
-3.07374e-11
1.15868e-07
2.48036e-11
-1.15881e-07
1.20817e-11
-3.70305e-11
-1.81548e-11
1.30902e-11
-2.44638e-11
-3.05075e-11
2.26025e-11
1.75693e-11
3.24941e-11
1.1591e-07
2.35473e-11
-1.15921e-07
1.31931e-11
-3.77769e-11
-1.92836e-11
1.3062e-11
-2.43877e-11
-3.01487e-11
2.26525e-11
1.78631e-11
3.6573e-11
3.60331e-11
2.73174e-08
-3.69223e-11
2.74606e-08
-2.73086e-08
-4.10059e-11
-4.1532e-11
1.58479e-11
1.1378e-07
2.79613e-11
3.42936e-11
-3.62116e-11
-6.40456e-11
5.02556e-11
5.26075e-11
-6.29283e-11
-3.27373e-11
3.4885e-11
1.84828e-11
1.14853e-07
2.44811e-11
2.38743e-11
-3.36332e-11
-4.43932e-11
4.92412e-11
3.23768e-11
-6.21013e-11
1.13745e-07
2.34555e-11
-1.13758e-07
9.36567e-12
-3.98707e-11
-3.43737e-11
3.02643e-11
5.58609e-11
-6.01197e-11
5.32508e-11
-6.11492e-11
2.58805e-11
1.14813e-07
2.32286e-11
-1.14827e-07
1.18935e-11
-3.00662e-11
-3.14963e-11
2.68767e-11
3.5635e-11
-5.905e-11
5.24419e-11
-4.14078e-11
3.56768e-11
1.78486e-11
1.14873e-07
2.44522e-11
2.43146e-11
-3.29364e-11
-4.46976e-11
4.91911e-11
-6.29075e-11
3.27187e-11
2.37758e-11
-1.13751e-07
8.30318e-12
-3.99118e-11
-3.40534e-11
3.07871e-11
5.5631e-11
-6.04426e-11
-6.13842e-11
5.36236e-11
2.66771e-11
1.1483e-07
2.46264e-11
-1.14846e-07
1.11329e-11
-2.93846e-11
-3.07683e-11
2.69108e-11
3.57681e-11
-5.96438e-11
5.27297e-11
-4.19101e-11
4.35145e-11
2.91026e-11
2.73229e-08
-4.129e-11
2.74627e-08
-2.7313e-08
-4.83052e-11
-3.41641e-11
3.54041e-11
1.58608e-11
1.14885e-07
1.57136e-11
3.9755e-11
-2.43442e-11
-8.53481e-12
2.08342e-11
-3.38761e-11
-3.04464e-12
2.55045e-11
-1.14823e-07
1.05789e-11
-4.53691e-11
-2.24816e-11
1.77414e-11
1.23275e-15
-3.15696e-11
-6.363e-12
2.3944e-11
4.16434e-11
1.14851e-07
2.38492e-11
-1.14864e-07
1.06603e-11
-4.62348e-11
-2.26005e-11
1.75198e-11
3.87941e-14
-3.07477e-11
2.3838e-11
-5.57529e-12
-2.73218e-08
-4.93853e-11
-3.28916e-11
3.64204e-11
3.92209e-11
3.95296e-11
3.84007e-11
2.7306e-08
-3.39557e-11
-3.75509e-11
2.74524e-08
-2.73008e-08
-4.03034e-11
-3.98086e-11
1.0552e-11
1.15857e-07
1.35057e-11
3.3172e-11
-1.81378e-11
1.79607e-11
2.31153e-11
-2.37543e-11
-3.02507e-11
-3.71201e-11
2.07976e-11
1.13009e-11
1.159e-07
1.36446e-11
3.29828e-11
-1.89704e-11
1.7956e-11
2.31635e-11
-2.34467e-11
-3.00554e-11
1.15825e-07
1.56314e-11
-1.15836e-07
6.99463e-12
-3.55575e-11
-1.71821e-11
1.41826e-11
-2.24044e-11
-2.86414e-11
2.44953e-11
1.92308e-11
3.38324e-11
1.1587e-07
1.45794e-11
-1.1588e-07
8.60826e-12
-3.609e-11
-1.8244e-11
1.44447e-11
-2.23087e-11
-2.84964e-11
2.45689e-11
1.95051e-11
3.92357e-11
3.87102e-11
2.73062e-08
-3.80517e-11
2.74525e-08
-2.73002e-08
-3.99306e-11
-4.04915e-11
7.54524e-12
1.13734e-07
3.08473e-11
3.68289e-11
-3.40723e-11
-6.08919e-11
5.37691e-11
5.63428e-11
-5.99007e-11
-2.93845e-11
2.07447e-11
1.05121e-11
1.14801e-07
2.74374e-11
2.6181e-11
-3.12699e-11
-4.13237e-11
5.29217e-11
3.6196e-11
-5.922e-11
1.13704e-07
1.39322e-11
-1.13714e-07
4.84368e-12
-3.83865e-11
-3.32676e-11
3.15939e-11
5.7319e-11
-5.87037e-11
5.48189e-11
-5.97283e-11
2.71893e-11
1.14766e-07
1.4174e-11
-1.14777e-07
7.35047e-12
-2.82594e-11
-3.02574e-11
2.82327e-11
3.7346e-11
-5.8062e-11
5.39446e-11
-3.99707e-11
2.26584e-11
9.89251e-12
1.14814e-07
2.75005e-11
2.68273e-11
-3.05471e-11
-4.19746e-11
5.34663e-11
-5.95966e-11
3.63494e-11
1.40747e-11
-1.13701e-07
3.57275e-12
-3.83706e-11
-3.28849e-11
3.20002e-11
5.73227e-11
-5.89541e-11
-6.01396e-11
5.53162e-11
2.78148e-11
1.14771e-07
1.59523e-11
-1.14785e-07
7.16948e-12
-2.78819e-11
-2.96895e-11
2.8373e-11
3.7431e-11
-5.85649e-11
5.42138e-11
-4.05767e-11
4.60831e-11
3.19647e-11
2.73105e-08
-4.22481e-11
2.74551e-08
-2.73049e-08
-4.77133e-11
-3.3021e-11
2.18417e-11
9.52208e-12
1.14839e-07
1.79327e-11
4.17969e-11
-2.25023e-11
-5.50549e-12
2.4769e-11
-3.07341e-11
7.93162e-13
1.56986e-11
-1.14769e-07
5.75849e-12
-4.39117e-11
-2.14198e-11
1.90321e-11
2.10328e-12
-2.97504e-11
-4.60339e-12
2.5936e-11
4.26746e-11
1.14805e-07
1.51119e-11
-1.14816e-07
7.20055e-12
-4.48818e-11
-2.18634e-11
1.84228e-11
2.08504e-12
-2.91865e-11
2.5821e-11
-3.81736e-12
-2.73127e-08
-4.8611e-11
-3.20663e-11
3.51863e-11
3.80667e-11
4.03041e-11
3.92803e-11
2.72996e-08
-3.45394e-11
-3.80574e-11
2.74483e-08
-2.72964e-08
-3.98733e-11
-3.93866e-11
5.8013e-12
1.15817e-07
1.46167e-11
3.4136e-11
-1.71932e-11
1.93576e-11
2.48754e-11
-2.19118e-11
-2.88298e-11
-3.58787e-11
1.31798e-11
7.77141e-12
1.15862e-07
1.4481e-11
3.39513e-11
-2.1948e-11
1.94768e-11
2.49436e-11
-2.18935e-11
-2.60611e-11
1.15793e-07
1.01076e-11
-1.15802e-07
3.94722e-12
-3.47403e-11
-1.67495e-11
1.48964e-11
-2.13364e-11