/*--------------------------------*- C++ -*----------------------------------*\
| =========                 |                                                 |
| \\      /  F ield         | OpenFOAM: The Open Source CFD Toolbox           |
|  \\    /   O peration     | Version:  2206                                  |
|   \\  /    A nd           | Website:  www.openfoam.com                      |
|    \\/     M anipulation  |                                                 |
\*---------------------------------------------------------------------------*/
FoamFile
{
    version     2.0;
    format      ascii;
    arch        "LSB;label=32;scalar=64";
    class       volVectorField;
    location    "80";
    object      wallShearStress;
}
// * * * * * * * * * * * * * * * * * * * * * * * * * * * * * * * * * * * * * //

dimensions      [0 2 -2 0 0 0 0];

internalField   uniform (0 0 0);

boundaryField
{
    topPatch
    {
        type            calculated;
        value           nonuniform List<vector> 0();
    }
    wall
    {
        type            calculated;
        value           nonuniform List<vector> 
7718
(
(-7.21841e-09 -2.78674e-09 -0.000117241)
(-1.1718e-08 1.76933e-08 -0.000117114)
(-1.77378e-09 -4.24424e-09 -0.000110196)
(-5.35121e-09 1.89857e-09 -0.000110244)
(-7.23822e-09 -3.61353e-09 -0.000117296)
(-1.05968e-08 -2.04492e-08 -0.000117165)
(-3.12883e-09 1.32393e-08 -0.000111796)
(-3.37846e-09 3.87197e-09 -0.000113283)
(-5.98392e-09 -1.60889e-08 -0.000111827)
(-2.39275e-09 -4.91954e-09 -0.000113298)
(-1.59594e-08 9.74605e-09 -0.000117215)
(-9.73942e-09 -2.16185e-09 -0.000117224)
(-2.3909e-08 -5.52101e-09 -0.000110111)
(-4.27448e-09 9.44254e-10 -0.000110184)
(-6.64028e-09 -3.0459e-10 -0.000110233)
(-5.50451e-09 4.56057e-10 -0.000117284)
(1.2334e-08 -6.97699e-09 -0.000117191)
(2.98735e-09 -1.12255e-08 -0.000111689)
(-4.99897e-09 6.73774e-09 -0.000113289)
(-6.13661e-09 1.81431e-08 -0.000111795)
(2.7212e-09 -4.89133e-09 -0.000113164)
(1.80875e-09 1.48727e-09 -0.000110143)
(3.6261e-09 1.024e-08 -0.000111722)
(-3.67665e-09 -3.56171e-09 -0.000113303)
(-5.90987e-09 -1.68307e-08 -0.000111832)
(1.73759e-09 1.98138e-09 -0.000113174)
(3.98878e-09 -2.09681e-09 -0.000110201)
(4.33311e-09 -1.81324e-10 -0.000117236)
(1.27096e-08 2.26281e-09 -0.000110725)
(1.84432e-08 4.51031e-09 -0.000117262)
(-3.38165e-09 7.63907e-09 -0.000116136)
(-1.39006e-08 -6.38858e-09 -0.000110643)
(1.77743e-08 3.77794e-09 -0.00011073)
(1.16066e-09 -1.92498e-08 -0.000116132)
(-7.27206e-10 -1.23598e-09 -0.000110648)
(8.30304e-09 -1.21288e-08 -0.000110625)
(2.49736e-08 -2.18909e-08 -0.000116124)
(1.29018e-08 -4.07427e-09 -0.000116125)
(8.61861e-09 -1.30743e-08 -0.000117068)
(-1.2306e-08 2.20255e-08 -0.000117114)
(7.06359e-09 1.04178e-08 -0.000117112)
(-1.1475e-08 -2.49161e-08 -0.000117159)
(5.72437e-09 1.0634e-09 -0.000110678)
(1.22231e-09 -3.85783e-09 -0.00011617)
(1.70947e-08 9.31377e-09 -0.000116181)
(-1.81948e-08 -1.44963e-08 -0.000118436)
(-1.11893e-08 -2.59562e-08 -0.000118167)
(6.99561e-09 -1.50084e-08 -0.000110701)
(3.37861e-08 -9.82088e-09 -0.000110689)
(1.03081e-08 -5.30356e-09 -0.000117816)
(-1.7229e-08 -7.84353e-09 -0.000117745)
(-1.43526e-08 1.04978e-08 -0.000110856)
(-1.75065e-09 9.29471e-09 -0.000110699)
(-1.19286e-08 -3.15632e-09 -0.000117949)
(3.27121e-10 1.98989e-10 -0.000117774)
(-1.22227e-08 -6.9035e-09 -0.000110381)
(2.46266e-08 -4.86829e-09 -0.000110433)
(1.93324e-08 1.47785e-09 -0.000117483)
(-7.84887e-09 -4.67796e-10 -0.000117469)
(-8.76623e-09 -2.44105e-10 -0.000110559)
(1.05824e-09 7.70613e-09 -0.00011046)
(-4.78073e-09 3.62286e-09 -0.000117659)
(1.68903e-09 2.49208e-09 -0.000117523)
(-1.75101e-08 -2.29308e-09 -0.000110234)
(1.95341e-08 -1.4089e-09 -0.000110331)
(2.00789e-08 2.84565e-09 -0.000117323)
(-7.97679e-09 4.35429e-12 -0.00011736)
(-7.02546e-09 1.2071e-09 -0.000110411)
(-4.5616e-10 8.93803e-09 -0.00011035)
(-6.86406e-09 -2.57423e-09 -0.000117496)
(2.55047e-09 8.44587e-10 -0.000117405)
(-2.16665e-08 3.64461e-11 -0.000110177)
(1.41153e-08 1.26808e-09 -0.000110297)
(2.68977e-08 8.21584e-09 -0.000117271)
(-1.06733e-09 4.71626e-09 -0.000117331)
(-5.9281e-09 -9.82742e-10 -0.000110351)
(2.76329e-09 5.19575e-09 -0.00011031)
(-5.92614e-09 -3.42996e-09 -0.000117429)
(2.31166e-09 -3.90107e-10 -0.000117361)
(-1.94641e-08 -1.07044e-09 -0.000110168)
(1.79497e-08 1.20167e-10 -0.000110293)
(2.26338e-08 5.73496e-09 -0.000117261)
(-1.37526e-08 -2.19143e-09 -0.000117327)
(-5.23645e-09 -6.78379e-11 -0.000110319)
(-1.48007e-09 1.47912e-08 -0.000110285)
(-5.56184e-09 -3.15069e-09 -0.000117398)
(2.96364e-09 -5.22808e-10 -0.000117342)
(-2.70765e-08 2.84861e-09 -0.000110172)
(1.21764e-08 3.612e-09 -0.000110301)
(1.52447e-08 2.18163e-09 -0.000117267)
(-1.11393e-08 -3.63899e-11 -0.000117336)
(-4.43024e-09 5.09338e-10 -0.000110313)
(3.55594e-09 3.75554e-09 -0.000110277)
(-7.42316e-09 -5.96276e-09 -0.000117396)
(3.75553e-09 -9.66399e-11 -0.000117333)
(-2.0431e-08 4.51369e-10 -0.000110177)
(2.32128e-08 -1.4025e-09 -0.000110302)
(1.13044e-08 1.97154e-09 -0.000117268)
(-1.70525e-08 -3.55009e-09 -0.000117336)
(-3.79629e-09 -1.92576e-09 -0.000110297)
(3.26321e-09 5.32916e-09 -0.000110257)
(-2.52422e-09 1.60617e-09 -0.000117383)
(6.18641e-09 4.74264e-09 -0.000117323)
(-1.1935e-08 -3.76004e-09 -0.000110173)
(2.79671e-08 -4.49167e-09 -0.000110307)
(1.47294e-08 1.69674e-09 -0.000117256)
(-1.15684e-08 -6.88677e-10 -0.000117325)
(-2.31771e-09 -8.34008e-09 -0.000110278)
(5.60016e-09 -4.13622e-09 -0.000110239)
(-4.16231e-09 4.91109e-10 -0.00011737)
(6.31049e-09 4.68371e-09 -0.000117321)
(-9.03685e-09 -3.86767e-09 -0.000110175)
(2.82208e-08 -3.77286e-09 -0.000110295)
(1.63435e-08 2.19506e-09 -0.000117244)
(-1.19046e-08 -7.91201e-10 -0.000117303)
(-5.5548e-10 -1.02915e-08 -0.000110259)
(5.67163e-09 -2.71794e-09 -0.000110224)
(-2.18045e-09 3.98503e-09 -0.000117363)
(5.95861e-09 5.75583e-09 -0.000117307)
(-1.16019e-08 -1.1545e-09 -0.000110158)
(2.34094e-08 -2.3071e-09 -0.000110271)
(1.8679e-08 4.14334e-09 -0.000117211)
(-7.57609e-09 2.3514e-09 -0.000117269)
(-2.03536e-09 -9.04053e-09 -0.000110249)
(6.51003e-09 -5.47444e-10 -0.000110225)
(1.06383e-09 6.96476e-09 -0.000117357)
(6.56409e-09 6.33293e-09 -0.000117296)
(-2.20295e-08 -3.26068e-10 -0.00011014)
(1.95854e-08 -6.27975e-10 -0.000110268)
(1.50372e-08 4.49001e-10 -0.000117191)
(-1.33336e-08 -3.59491e-09 -0.000117264)
(-3.0856e-09 -7.15373e-09 -0.000110258)
(2.16232e-09 1.72786e-09 -0.00011023)
(-4.64536e-09 1.60765e-09 -0.000117351)
(7.24593e-09 1.02498e-08 -0.000117301)
(-1.58846e-08 -2.97875e-10 -0.000110121)
(2.05828e-08 8.09796e-10 -0.000110251)
(2.00851e-08 4.49857e-09 -0.000117178)
(-2.03047e-09 5.654e-09 -0.000117258)
(-4.45107e-09 -2.65318e-10 -0.00011025)
(3.78611e-09 5.52219e-09 -0.000110224)
(-2.51061e-09 1.6513e-09 -0.000117348)
(4.53986e-09 5.88665e-10 -0.000117294)
(-1.89178e-08 -1.80483e-09 -0.000110098)
(1.82864e-08 5.11057e-10 -0.000110261)
(1.83415e-08 1.66455e-09 -0.000117167)
(-1.46883e-08 -3.09851e-09 -0.00011727)
(-6.35274e-09 -2.28295e-09 -0.000110245)
(4.35314e-09 -9.67593e-10 -0.000110219)
(-6.09777e-09 1.87154e-10 -0.000117333)
(4.15264e-09 2.13374e-09 -0.000117289)
(-1.94947e-08 1.11017e-09 -0.000110076)
(1.69802e-08 2.42789e-09 -0.000110263)
(1.56716e-08 3.11594e-09 -0.000117141)
(-1.02433e-08 2.34078e-09 -0.000117281)
(-3.63782e-09 5.96195e-10 -0.000110216)
(4.34273e-09 3.31312e-09 -0.000110199)
(-1.96344e-09 1.31361e-09 -0.000117322)
(4.66672e-09 1.63068e-09 -0.000117281)
(-1.1498e-08 -6.89762e-09 -0.000110023)
(3.7343e-08 -3.42489e-09 -0.000110242)
(1.79761e-08 7.12018e-10 -0.000117096)
(-1.84145e-08 -1.91966e-09 -0.000117266)
(-5.25085e-09 -1.42006e-09 -0.000110193)
(7.08112e-09 1.99756e-09 -0.000110185)
(-5.78245e-09 -1.22108e-09 -0.000117302)
(5.84911e-09 8.35641e-10 -0.000117271)
(3.73586e-08 1.25768e-08 -0.00011718)
(-4.56521e-09 -5.66986e-09 -0.000110135)
(-4.4956e-09 2.62505e-09 -0.000117255)
(9.82692e-09 2.16512e-08 -0.000118308)
(2.90069e-08 1.5741e-08 -0.000118202)
(-6.50441e-09 -7.97782e-09 -0.000117977)
(-2.3325e-08 -2.75529e-08 -0.00011817)
(2.88724e-08 1.55341e-08 -0.000117956)
(-1.23272e-08 4.38157e-09 -0.000118047)
(1.9932e-08 2.37745e-08 -0.00011121)
(4.15588e-08 1.26944e-08 -0.000111161)
(-1.67985e-08 1.99494e-08 -0.000111261)
(-4.20441e-08 1.42193e-08 -0.000111168)
(3.68611e-08 1.21317e-08 -0.000110912)
(-4.4106e-09 1.18898e-08 -0.000110944)
(-3.15432e-08 9.51411e-09 -0.000110922)
(4.1875e-10 1.27399e-08 -0.000110976)
(1.90842e-08 -1.67351e-08 -0.000118433)
(5.34293e-09 -7.21682e-09 -0.000118206)
(-6.24762e-09 1.62286e-08 -0.000118354)
(-3.45579e-08 1.78198e-08 -0.000118196)
(7.3785e-09 -1.23341e-08 -0.000117948)
(1.9092e-08 -1.59603e-08 -0.00011818)
(-2.52136e-08 1.2153e-08 -0.000117968)
(3.53975e-09 9.1731e-09 -0.000118062)
(-2.54215e-09 -9.87505e-09 -0.000117802)
(2.01079e-08 -9.11214e-09 -0.000117739)
(-1.01588e-08 1.26717e-09 -0.000117925)
(1.19788e-09 -3.36833e-09 -0.000117747)
(1.59998e-08 -5.2364e-09 -0.000117592)
(-1.0926e-08 -3.92667e-09 -0.000117622)
(1.8055e-09 -1.2501e-09 -0.000117608)
(-6.65561e-09 -1.71728e-09 -0.000117757)
(1.99986e-09 -1.23067e-08 -0.00011072)
(-2.75179e-08 -6.36187e-09 -0.000110705)
(2.39723e-08 -4.43265e-09 -0.000110546)
(-2.74204e-09 -9.87346e-09 -0.00011052)
(-1.88718e-08 -1.94571e-09 -0.000110549)
(1.05515e-08 -7.43721e-09 -0.000110533)
(1.50051e-08 1.23952e-08 -0.000117997)
(2.94884e-09 6.01059e-09 -0.000117815)
(-1.41624e-08 -4.53959e-09 -0.000117593)
(1.72819e-08 -7.20769e-10 -0.000117628)
(-5.75996e-09 -8.47811e-09 -0.000117672)
(1.1516e-08 9.24498e-09 -0.000117824)
(-1.63257e-08 -1.14233e-08 -0.000110877)
(-2.50218e-09 -1.15105e-08 -0.000110716)
(1.73487e-09 3.82438e-09 -0.000110568)
(-9.9815e-09 2.40358e-09 -0.00011069)
(1.51055e-09 -3.78255e-09 -0.000110586)
(-9.64228e-09 -5.28211e-09 -0.000110712)
(1.53258e-08 1.48736e-08 -0.000110926)
(4.18931e-09 1.90732e-08 -0.000110768)
(1.39333e-08 -1.11111e-08 -0.000110881)
(2.712e-09 -1.56196e-08 -0.000110723)
(-2.48613e-10 6.31714e-09 -0.000110626)
(1.19577e-08 1.12122e-08 -0.000110759)
(3.26262e-09 -1.44696e-08 -0.000110581)
(1.12727e-08 -1.1272e-08 -0.000110716)
(-3.61028e-09 9.31044e-09 -0.000117809)
(2.16061e-08 8.94759e-09 -0.00011775)
(4.41729e-09 5.4127e-09 -0.000117642)
(-7.18187e-09 -2.30651e-09 -0.000117786)
(1.33399e-08 3.05132e-09 -0.000117628)
(-9.94661e-09 3.13299e-09 -0.000117638)
(1.39952e-09 1.36954e-08 -0.000110707)
(3.01802e-08 6.71947e-09 -0.000110699)
(1.185e-09 1.15276e-08 -0.000110737)
(-2.75431e-08 7.5935e-09 -0.000110712)
(2.51954e-08 4.16003e-09 -0.000110572)
(-6.87391e-09 6.57916e-09 -0.000110532)
(-2.12028e-08 1.94561e-09 -0.000110566)
(8.84073e-09 8.19261e-09 -0.00011054)
(1.58005e-08 -1.40471e-08 -0.000117946)
(3.82471e-09 -8.49881e-09 -0.000117766)
(7.41801e-09 6.81748e-09 -0.00011783)
(-1.43289e-08 5.96392e-09 -0.000117758)
(-1.62979e-09 9.74628e-10 -0.000117623)
(1.18224e-08 -9.53231e-09 -0.000117776)
(-1.54273e-08 5.05933e-09 -0.00011761)
(1.53017e-08 1.33031e-09 -0.000117639)
(-1.62928e-08 -1.0666e-09 -0.000117485)
(1.50795e-08 -4.35289e-09 -0.000117483)
(-6.98152e-09 4.83853e-10 -0.000117622)
(2.59519e-09 -2.13138e-09 -0.000117496)
(1.14006e-08 -6.809e-10 -0.000117428)
(-1.38398e-08 -4.57363e-10 -0.000117386)
(2.5135e-09 -6.94669e-12 -0.000117433)
(-6.26511e-09 6.37337e-10 -0.000117521)
(1.4802e-08 -4.72123e-09 -0.000110387)
(-1.91949e-08 -2.56441e-09 -0.000110428)
(1.64143e-08 -1.06401e-09 -0.000110376)
(-1.20281e-08 -4.42885e-09 -0.000110287)
(-1.87367e-08 -1.29424e-09 -0.000110373)
(1.51722e-08 -3.13863e-09 -0.000110285)
(4.94052e-09 -3.71358e-09 -0.000117689)
(-1.3878e-09 -4.51734e-09 -0.000117562)
(-1.41896e-08 -2.86397e-09 -0.000117413)
(2.10845e-08 3.44523e-09 -0.00011738)
(-5.34116e-09 -6.64089e-09 -0.000117495)
(4.01038e-09 -2.64813e-09 -0.000117579)
(-8.6195e-09 -1.42622e-09 -0.000110584)
(-8.91747e-10 -7.64815e-09 -0.000110476)
(2.08883e-09 4.86494e-09 -0.000110398)
(-8.83346e-09 2.75178e-09 -0.000110464)
(2.41197e-09 -1.4491e-09 -0.000110417)
(-7.80614e-09 -2.11927e-09 -0.000110484)
(9.53529e-09 1.05431e-09 -0.000110622)
(1.24856e-09 7.28994e-09 -0.000110517)
(1.27303e-08 -1.19516e-08 -0.00011058)
(2.91677e-09 -1.24507e-08 -0.000110478)
(-3.58544e-09 -6.59143e-10 -0.000110454)
(7.84081e-09 -1.50072e-09 -0.000110519)
(-3.44298e-09 -2.40336e-11 -0.000110421)
(9.18806e-09 -5.16072e-09 -0.00011049)
(-1.89747e-08 -9.64072e-10 -0.00011752)
(1.2286e-08 4.19744e-09 -0.000117514)
(2.88084e-09 -5.49672e-10 -0.000117462)
(-6.03762e-09 -3.1745e-10 -0.000117548)
(1.22624e-08 1.84227e-09 -0.000117458)
(-1.66502e-08 -2.3793e-10 -0.000117418)
(-8.65408e-09 7.32196e-09 -0.000110411)
(2.83835e-08 7.09642e-09 -0.000110459)
(1.42204e-08 4.70938e-09 -0.000110402)
(-2.13494e-08 4.05507e-09 -0.000110447)
(1.83175e-08 8.47519e-10 -0.000110404)
(-9.83247e-09 6.55643e-09 -0.000110313)
(-1.52101e-08 -7.61488e-10 -0.000110389)
(1.40604e-08 3.73039e-09 -0.0001103)
(8.22208e-09 -1.25483e-09 -0.000117637)
(-2.55396e-09 2.69428e-09 -0.000117517)
(1.8701e-08 -1.85825e-09 -0.000117503)
(-1.14805e-08 3.6434e-09 -0.000117495)
(-6.51892e-09 7.50746e-09 -0.000117455)
(6.20241e-09 1.54473e-10 -0.000117544)
(-1.21267e-08 1.62857e-09 -0.000117434)
(1.57638e-08 -5.72628e-10 -0.000117398)
(-2.05372e-08 3.74079e-09 -0.000117336)
(8.27099e-09 -3.84914e-10 -0.000117377)
(-5.72708e-09 6.29799e-10 -0.000117467)
(1.08796e-09 2.87828e-09 -0.000117386)
(5.74345e-09 2.38037e-09 -0.000117356)
(-2.26897e-08 5.22294e-09 -0.000117289)
(3.3123e-09 9.8054e-10 -0.000117369)
(-8.09772e-09 5.63901e-09 -0.000117421)
(1.41852e-08 -2.93951e-09 -0.000110233)
(-1.63338e-08 -7.15658e-10 -0.000110321)
(1.25969e-08 1.73049e-09 -0.000110311)
(-1.66236e-08 -2.44884e-09 -0.000110192)
(-9.67043e-09 3.26148e-09 -0.00011031)
(2.14123e-08 -3.64626e-10 -0.000110186)
(3.65205e-09 -2.86795e-09 -0.000117526)
(-5.92141e-09 -4.67167e-09 -0.000117447)
(-6.22633e-09 2.03713e-09 -0.000117351)
(2.48135e-08 6.90564e-09 -0.000117279)
(-6.04361e-09 -3.82102e-09 -0.000117421)
(5.14086e-09 9.15294e-11 -0.000117478)
(-6.4489e-09 -8.07943e-10 -0.000110435)
(3.14109e-10 -7.73703e-09 -0.000110368)
(3.49776e-09 1.74034e-09 -0.000110333)
(-8.24327e-09 4.87713e-09 -0.000110369)
(3.24539e-09 -4.58706e-09 -0.000110354)
(-6.01712e-09 -2.56201e-10 -0.00011039)
(4.94382e-09 -3.8929e-09 -0.000110465)
(-1.92148e-09 3.62194e-09 -0.000110406)
(5.22321e-09 2.70619e-09 -0.000110439)
(-3.02369e-09 -1.19345e-09 -0.000110375)
(-4.95894e-09 1.07917e-10 -0.000110384)
(6.15991e-09 -9.57389e-10 -0.000110423)
(-3.1814e-09 -4.37993e-09 -0.000110355)
(5.47643e-09 2.32037e-09 -0.000110396)
(-2.05302e-08 -3.21117e-09 -0.000117367)
(7.99803e-09 4.01301e-10 -0.000117408)
(2.59226e-09 -1.30159e-09 -0.000117386)
(-5.50902e-09 -1.79717e-09 -0.000117443)
(5.75825e-09 -2.38307e-09 -0.000117392)
(-2.32767e-08 -5.63603e-09 -0.000117325)
(-1.61394e-08 3.53083e-09 -0.000110259)
(1.82585e-08 1.36601e-09 -0.000110358)
(1.86777e-08 1.15802e-09 -0.000110246)
(-1.53794e-08 -3.35179e-11 -0.000110339)
(1.09607e-08 -2.99796e-09 -0.000110341)
(-1.97512e-08 2.56412e-10 -0.000110222)
(-1.11591e-08 -2.53245e-09 -0.000110318)
(2.06582e-08 -4.45986e-10 -0.000110207)
(2.49404e-09 5.4631e-09 -0.000117489)
(-6.97615e-09 8.19382e-09 -0.000117407)
(2.08443e-08 -4.26275e-09 -0.000117344)
(-1.00007e-08 -1.37369e-10 -0.000117384)
(-3.32389e-09 3.56084e-10 -0.000117381)
(3.35934e-09 2.76935e-09 -0.000117443)
(-7.73968e-09 -1.21312e-09 -0.00011736)
(2.10885e-08 -4.3444e-09 -0.0001173)
(-2.49884e-08 6.75036e-09 -0.000117274)
(5.1006e-09 2.27032e-09 -0.000117338)
(-5.26779e-09 1.90671e-09 -0.000117408)
(3.62377e-09 -8.60636e-10 -0.00011734)
(9.22688e-09 5.57029e-10 -0.00011734)
(-2.43998e-08 6.45104e-09 -0.000117259)
(4.15195e-09 -1.87564e-09 -0.000117326)
(-4.3833e-09 2.06322e-10 -0.000117381)
(2.23022e-08 1.35078e-11 -0.000110177)
(-1.16488e-08 2.53468e-09 -0.000110291)
(1.34361e-08 2.19745e-09 -0.000110301)
(-2.15973e-08 -5.3834e-10 -0.000110165)
(-1.44087e-08 2.01505e-09 -0.000110298)
(2.26271e-08 1.53195e-09 -0.000110165)
(6.58893e-09 4.01793e-09 -0.000117463)
(1.75623e-09 7.34472e-09 -0.000117397)
(-9.39429e-09 7.67182e-10 -0.000117339)
(2.55961e-08 8.04376e-09 -0.00011726)
(-2.13777e-09 3.36213e-09 -0.000117381)
(9.86908e-09 1.02571e-08 -0.000117426)
(-7.2432e-09 -3.21186e-09 -0.000110375)
(6.36594e-10 -9.40471e-09 -0.000110328)
(3.41692e-09 2.21495e-09 -0.000110295)
(-5.14349e-09 -9.27106e-10 -0.000110331)
(3.79799e-09 -3.68581e-09 -0.000110318)
(-5.9911e-09 -5.95408e-10 -0.000110348)
(5.15037e-09 -1.48701e-09 -0.000110405)
(3.24556e-10 1.293e-08 -0.000110357)
(7.05633e-09 -2.16796e-09 -0.000110377)
(-2.25721e-09 -6.45164e-09 -0.000110332)
(-3.35343e-09 4.77538e-09 -0.000110341)
(7.73837e-09 6.36492e-09 -0.000110374)
(-3.75115e-09 -2.48636e-09 -0.00011032)
(6.51484e-09 -3.19058e-09 -0.000110355)
(-2.36734e-08 -6.30195e-09 -0.000117314)
(8.90535e-09 1.80629e-10 -0.00011737)
(3.2952e-09 -1.27414e-09 -0.000117353)
(-5.05913e-09 -2.52529e-10 -0.0001174)
(9.6634e-09 -7.6587e-10 -0.000117368)
(-1.89751e-08 -3.5258e-09 -0.000117289)
(-2.39102e-08 -6.74395e-10 -0.00011021)
(1.41949e-08 -7.33675e-10 -0.000110323)
(2.31802e-08 -2.00558e-10 -0.000110183)
(-1.04569e-08 -2.45258e-09 -0.000110297)
(1.40874e-08 -2.2161e-09 -0.000110322)
(-2.01271e-08 -2.56569e-10 -0.000110191)
(-1.36038e-08 -1.31897e-09 -0.000110297)
(2.36043e-08 -1.81773e-09 -0.000110169)
(5.36233e-09 -2.09016e-09 -0.000117422)
(-4.06782e-09 1.26603e-09 -0.000117356)
(2.54589e-08 -7.36982e-09 -0.000117276)
(-2.77902e-09 -4.19864e-09 -0.00011734)
(-3.46491e-09 -7.96365e-10 -0.000117347)
(5.30063e-09 -1.71715e-09 -0.000117397)
(-9.6115e-09 -6.13039e-10 -0.000117332)
(2.68492e-08 -8.42458e-09 -0.00011726)
(-2.15391e-08 4.60541e-09 -0.000117262)
(1.09108e-08 -1.30969e-09 -0.00011733)
(-5.33855e-09 2.16708e-09 -0.000117371)
(-1.13947e-09 7.45028e-09 -0.000117314)
(4.6792e-09 2.98331e-09 -0.000117343)
(-2.08329e-08 5.03073e-09 -0.000117255)
(2.34603e-09 3.93268e-09 -0.00011732)
(-9.05114e-09 9.2848e-09 -0.000117358)
(1.69616e-08 -1.714e-09 -0.000110168)
(-2.32556e-08 -2.02534e-09 -0.00011029)
(7.08943e-09 4.14194e-09 -0.000110302)
(-2.01138e-08 -3.21576e-10 -0.000110163)
(-1.87081e-08 5.18026e-10 -0.00011031)
(1.32639e-08 -2.52715e-09 -0.000110163)
(6.29724e-09 5.09452e-09 -0.000117423)
(-4.72377e-09 -2.61598e-09 -0.000117364)
(-1.94428e-08 -4.39421e-09 -0.000117344)
(1.74869e-08 3.72395e-09 -0.00011725)
(-8.05083e-09 -5.54908e-09 -0.000117365)
(5.25157e-09 8.76498e-10 -0.000117403)
(-5.79964e-09 -1.58733e-09 -0.000110344)
(8.85659e-10 -7.58628e-09 -0.000110301)
(3.76754e-09 4.15466e-09 -0.000110286)
(-8.54113e-09 9.76277e-09 -0.000110311)
(2.36865e-09 -6.24438e-09 -0.00011031)
(-6.3727e-09 -2.69947e-09 -0.000110328)
(5.47903e-09 1.35648e-09 -0.000110365)
(-2.57776e-09 3.32875e-09 -0.000110322)
(5.23649e-09 6.73534e-10 -0.000110345)
(-3.52147e-09 -3.62923e-09 -0.000110296)
(-6.18273e-09 -2.11859e-09 -0.000110321)
(4.98271e-09 -2.71506e-09 -0.000110345)
(-6.90472e-09 3.69702e-09 -0.000110294)
(4.65556e-09 1.90685e-09 -0.000110322)
(-2.17614e-08 -5.36085e-09 -0.00011729)
(9.25096e-09 -1.4203e-10 -0.000117361)
(1.10528e-09 -6.44669e-09 -0.000117347)
(-5.72198e-09 -2.40344e-09 -0.000117385)
(8.01697e-09 -1.51184e-09 -0.000117371)
(-2.1279e-08 -5.363e-09 -0.000117284)
(-1.99677e-08 6.61118e-10 -0.000110191)
(1.8567e-08 -5.85752e-11 -0.000110318)
(1.78184e-08 4.44934e-10 -0.000110168)
(-1.97298e-08 7.59416e-10 -0.000110292)
(1.35231e-08 -3.62596e-09 -0.000110331)
(-1.84333e-08 8.66412e-10 -0.000110189)
(-1.82822e-08 -2.60212e-10 -0.000110299)
(1.62619e-08 1.94535e-09 -0.000110161)
(5.97652e-09 -2.55196e-09 -0.000117389)
(-3.7836e-09 2.43409e-09 -0.000117325)
(2.12562e-08 -5.33066e-09 -0.000117253)
(-1.33662e-08 1.49514e-09 -0.000117323)
(-7.23259e-09 6.2319e-09 -0.000117324)
(5.16726e-09 -2.25872e-09 -0.000117372)
(-1.71219e-08 2.96953e-09 -0.000117328)
(1.65889e-08 -2.46746e-09 -0.000117244)
(-2.60272e-08 8.99728e-09 -0.000117267)
(4.67171e-09 3.15061e-09 -0.000117336)
(-5.30052e-09 3.11329e-09 -0.000117366)
(4.05024e-09 1.68591e-10 -0.000117312)
(8.4859e-09 1.86762e-09 -0.000117343)
(-2.47011e-08 8.25312e-09 -0.000117261)
(5.47258e-09 -1.75555e-09 -0.00011731)
(-4.03817e-09 1.4156e-09 -0.000117355)
(1.38113e-08 -2.155e-09 -0.000110181)
(-1.92828e-08 6.15473e-10 -0.000110307)
(1.24765e-08 3.71364e-09 -0.00011031)
(-2.41624e-08 2.57899e-09 -0.000110174)
(-2.26712e-08 7.62333e-10 -0.000110315)
(1.37366e-08 -1.35155e-09 -0.00011018)
(3.22726e-09 -1.57073e-09 -0.000117409)
(-4.30913e-09 -3.96559e-10 -0.000117359)
(-2.03288e-08 -3.62873e-09 -0.000117344)
(1.62969e-08 3.57538e-09 -0.000117268)
(-7.61201e-09 -3.18168e-09 -0.000117352)
(3.64091e-09 -1.24775e-09 -0.000117389)
(-6.5038e-09 -3.91844e-09 -0.00011034)
(2.34319e-09 -7.53679e-09 -0.000110297)
(5.48216e-09 1.4436e-09 -0.000110276)
(-3.36079e-09 -1.53492e-09 -0.000110303)
(4.55956e-09 -3.20696e-09 -0.000110299)
(-5.58827e-09 -2.20844e-09 -0.000110325)
(2.47559e-09 -4.81128e-09 -0.000110349)
(-2.80904e-09 5.60095e-09 -0.000110316)
(2.88905e-09 6.17206e-09 -0.000110321)
(-7.92863e-09 3.61525e-09 -0.000110283)
(-5.46332e-09 5.02948e-10 -0.00011031)
(4.78383e-09 -1.01276e-09 -0.000110334)
(-7.47804e-09 1.6547e-09 -0.00011028)
(2.5237e-09 4.81649e-09 -0.000110309)
(-2.33332e-08 -6.55248e-09 -0.000117296)
(8.99737e-09 -1.35565e-09 -0.000117365)
(5.69421e-09 2.37726e-09 -0.000117335)
(-4.15175e-09 -1.23081e-09 -0.000117378)
(1.36675e-08 1.64435e-10 -0.000117366)
(-1.99602e-08 -5.19545e-09 -0.000117286)
(-2.19593e-08 -1.27127e-09 -0.000110201)
(1.39947e-08 -1.98039e-09 -0.000110323)
(1.3499e-08 1.70231e-09 -0.000110173)
(-2.06626e-08 7.06916e-11 -0.000110299)
(1.6494e-08 -2.01986e-09 -0.000110329)
(-2.04524e-08 -6.23248e-10 -0.000110194)
(-1.7998e-08 -1.50376e-09 -0.000110298)
(1.48143e-08 1.50887e-09 -0.000110165)
(1.93465e-09 3.25979e-09 -0.000117369)
(-9.40169e-09 9.80349e-09 -0.000117311)
(1.33574e-08 -1.68413e-09 -0.000117251)
(-1.65023e-08 2.67689e-09 -0.000117326)
(-7.16931e-09 3.79109e-09 -0.000117307)
(8.25012e-10 4.98388e-09 -0.000117355)
(-1.80088e-08 2.48668e-09 -0.000117326)
(1.38677e-08 -1.11687e-09 -0.000117243)
(-2.0757e-08 5.50293e-09 -0.000117265)
(1.93835e-08 -5.22202e-09 -0.00011733)
(-3.37705e-09 -1.15085e-09 -0.000117353)
(5.16144e-09 -1.86263e-09 -0.00011729)
(1.63654e-08 -2.86834e-09 -0.00011734)
(-1.14151e-08 9.27411e-10 -0.000117256)
(6.92952e-09 -6.52157e-09 -0.00011729)
(-2.14394e-09 -3.8355e-09 -0.000117333)
(1.0953e-08 -1.98164e-09 -0.000110185)
(-2.32966e-08 -1.89078e-09 -0.000110302)
(1.961e-08 2.67084e-10 -0.000110307)
(-1.40634e-08 -1.39368e-09 -0.000110173)
(-2.15735e-08 -5.36334e-10 -0.000110305)
(1.15556e-08 -2.92026e-09 -0.00011017)
(2.23266e-09 -1.30572e-09 -0.000117395)
(-7.12228e-09 -5.3577e-09 -0.000117342)
(-2.02596e-08 -5.10312e-09 -0.000117336)
(1.52882e-08 2.88947e-09 -0.000117254)
(-1.02647e-08 -1.22048e-08 -0.000117336)
(2.55839e-09 -2.49936e-09 -0.000117381)
(-4.42795e-09 6.85643e-11 -0.000110328)
(3.76531e-09 -1.82298e-09 -0.000110286)
(6.52303e-09 -4.24586e-09 -0.000110253)
(-4.45589e-09 -2.59054e-09 -0.000110279)
(5.24084e-09 3.57318e-10 -0.000110282)
(-3.82595e-09 5.09903e-09 -0.00011031)
(3.11336e-09 -3.47812e-09 -0.000110336)
(-4.70042e-09 -3.26677e-10 -0.000110298)
(1.36357e-09 7.02505e-09 -0.00011031)
(-5.00573e-09 1.50431e-09 -0.000110269)
(-7.89072e-09 -5.93628e-09 -0.000110294)
(3.51996e-09 -5.20816e-09 -0.000110321)
(-3.99812e-09 -3.74089e-09 -0.000110271)
(3.34383e-09 4.82903e-09 -0.000110296)
(-1.72477e-08 -4.51428e-09 -0.000117287)
(1.67214e-08 3.06495e-09 -0.000117349)
(5.11308e-09 2.68497e-09 -0.000117321)
(-9.84606e-10 5.12096e-09 -0.000117367)
(2.15911e-08 6.46986e-09 -0.000117349)
(-1.37596e-08 -8.92827e-10 -0.000117269)
(-1.65955e-08 7.88437e-11 -0.000110196)
(2.27896e-08 1.82771e-09 -0.000110313)
(1.62596e-08 1.51403e-10 -0.000110169)
(-1.91708e-08 1.05208e-09 -0.000110287)
(2.02767e-08 -3.49191e-11 -0.000110314)
(-1.47353e-08 3.02574e-09 -0.000110181)
(-2.02863e-08 1.45893e-09 -0.000110287)
(1.69918e-08 6.69293e-10 -0.000110158)
(1.51344e-09 3.24904e-09 -0.000117354)
(-1.01457e-08 1.13246e-08 -0.000117301)
(1.61537e-08 -3.17797e-09 -0.000117245)
(-1.22688e-08 1.52574e-09 -0.000117311)
(-3.75984e-09 3.67769e-11 -0.0001173)
(-2.18073e-10 7.91976e-09 -0.000117343)
(-1.60877e-08 3.7745e-09 -0.000117309)
(1.59169e-08 -3.23135e-09 -0.000117233)
(-1.33629e-08 8.23971e-10 -0.000117261)
(2.21701e-08 -5.83073e-09 -0.000117336)
(-1.23594e-09 -5.00392e-09 -0.000117337)
(7.67136e-09 -8.51806e-09 -0.00011728)
(2.31625e-08 -7.20243e-09 -0.000117335)
(-9.05412e-09 -1.95921e-09 -0.000117255)
(7.77662e-09 -6.90112e-09 -0.000117278)
(-1.82358e-09 -6.46988e-09 -0.00011732)
(1.27042e-08 -3.2841e-09 -0.000110171)
(-1.59248e-08 8.03914e-10 -0.000110292)
(2.69228e-08 -3.44604e-09 -0.000110307)
(-6.59861e-09 -5.74453e-09 -0.000110174)
(-1.45285e-08 1.2276e-09 -0.000110293)
(1.89996e-08 -5.56041e-10 -0.000110164)
(1.65845e-10 -7.69016e-09 -0.000117384)
(-5.29924e-09 -4.46615e-09 -0.000117336)
(-1.58528e-08 -2.54977e-09 -0.000117328)
(1.71365e-08 3.28852e-09 -0.000117253)
(-6.36601e-09 -4.64346e-09 -0.000117335)
(2.56803e-09 -3.54125e-09 -0.00011737)
(-3.62772e-09 3.25068e-09 -0.000110311)
(5.54607e-09 1.24088e-09 -0.000110276)
(8.68144e-09 -8.20461e-09 -0.000110236)
(-2.16477e-09 -9.69998e-09 -0.000110261)
(6.87703e-09 4.82029e-09 -0.000110271)
(-2.60223e-09 6.44674e-09 -0.000110302)
(2.25352e-09 -8.17084e-09 -0.00011032)
(-3.3261e-09 8.68086e-10 -0.000110291)
(6.1761e-09 -2.71176e-09 -0.000110302)
(-1.35875e-09 -6.54348e-09 -0.000110263)
(-6.17656e-09 -2.72762e-09 -0.000110294)
(3.37074e-09 -6.48185e-09 -0.000110313)
(-4.03442e-09 -2.31182e-09 -0.000110267)
(6.23667e-09 -7.40598e-10 -0.000110292)
(-8.94498e-09 4.53908e-10 -0.000117273)
(1.80162e-08 3.59653e-09 -0.000117339)
(7.43246e-09 6.73678e-09 -0.000117317)
(-1.4699e-09 4.48513e-09 -0.000117364)
(1.80888e-08 4.82775e-09 -0.000117334)
(-1.31317e-08 -3.30365e-10 -0.000117256)
(-1.3833e-08 1.78812e-09 -0.000110182)
(2.40975e-08 2.7729e-09 -0.000110298)
(1.24583e-08 3.63548e-09 -0.000110155)
(-2.01524e-08 1.1705e-09 -0.00011027)
(2.30317e-08 1.82659e-09 -0.000110294)
(-1.19398e-08 4.13476e-09 -0.000110164)
(-1.40359e-08 -1.66728e-09 -0.000110269)
(1.90018e-08 4.15793e-10 -0.000110139)
(6.44025e-09 -4.68533e-09 -0.000117347)
(-4.5159e-09 2.18419e-09 -0.000117294)
(1.44202e-08 -4.53679e-10 -0.000117225)
(-1.09848e-08 4.18774e-10 -0.000117292)
(-3.74907e-09 1.42717e-09 -0.000117298)
(5.119e-09 -1.51278e-09 -0.000117341)
(-1.18226e-08 9.45878e-10 -0.000117293)
(1.95043e-08 -3.96107e-09 -0.000117212)
(-6.95422e-09 -3.04526e-09 -0.000117258)
(2.46139e-08 -7.51061e-09 -0.000117328)
(-5.39478e-11 -6.38275e-09 -0.000117322)
(7.27586e-09 -7.86228e-09 -0.000117265)
(2.27053e-08 -4.64686e-09 -0.000117324)
(-7.56591e-09 -1.83378e-09 -0.000117246)
(1.00067e-08 -1.14293e-08 -0.000117271)
(-7.23718e-10 -5.09727e-09 -0.000117311)
(1.90898e-08 -4.183e-10 -0.00011016)
(-1.48154e-08 9.9914e-10 -0.00011027)
(2.18129e-08 2.52845e-10 -0.000110289)
(-8.19145e-09 -4.62695e-09 -0.000110161)
(-1.81731e-08 1.89731e-09 -0.000110266)
(1.91661e-08 1.67929e-12 -0.000110136)
(2.96917e-09 -2.30786e-09 -0.000117378)
(-5.97585e-09 -5.73546e-09 -0.000117325)
(-1.63677e-08 -2.63056e-09 -0.000117295)
(2.12103e-08 5.68922e-09 -0.000117219)
(-8.97394e-09 -7.09788e-09 -0.000117323)
(3.23935e-09 -5.33323e-10 -0.000117367)
(-2.91829e-09 5.12582e-09 -0.0001103)
(3.98283e-09 -7.33504e-10 -0.000110263)
(7.41156e-09 -5.77912e-09 -0.000110229)
(-2.25758e-09 -7.33379e-09 -0.00011025)
(9.92182e-09 6.90891e-09 -0.000110269)
(-3.39889e-09 4.67774e-09 -0.000110287)
(2.97873e-09 -7.10079e-09 -0.000110317)
(-5.81465e-09 -9.71106e-11 -0.000110282)
(5.02956e-09 5.17491e-10 -0.000110294)
(-3.30841e-09 -1.83601e-09 -0.000110258)
(-6.77501e-09 -2.11025e-11 -0.000110278)
(3.59493e-09 -5.34521e-09 -0.000110303)
(-4.8741e-09 -4.35441e-09 -0.000110261)
(4.12971e-09 1.27267e-09 -0.000110286)
(-1.14491e-08 -4.80381e-11 -0.000117254)
(1.91672e-08 5.65504e-09 -0.00011732)
(8.79238e-09 7.16991e-09 -0.000117308)
(-1.44026e-09 4.71576e-09 -0.00011735)
(1.61178e-08 1.57745e-09 -0.00011732)
(-1.1881e-08 -5.45757e-10 -0.00011724)
(-1.20037e-08 3.79929e-09 -0.00011016)
(2.38952e-08 2.713e-09 -0.000110281)
(1.89558e-08 7.33993e-10 -0.000110138)
(-1.49923e-08 -5.67311e-10 -0.000110256)
(1.96522e-08 -8.99116e-10 -0.000110278)
(-1.39445e-08 2.57409e-09 -0.000110146)
(-1.50414e-08 -3.58849e-09 -0.000110255)
(2.22285e-08 -1.55935e-09 -0.000110127)
(5.02825e-09 -1.8759e-09 -0.000117342)
(-5.97314e-09 4.50834e-09 -0.00011729)
(1.83542e-08 -3.46163e-09 -0.000117212)
(-1.08912e-08 5.24959e-10 -0.000117278)
(-5.69856e-09 1.98079e-09 -0.00011729)
(3.39004e-09 6.47834e-10 -0.000117334)
(-1.28811e-08 -7.16461e-10 -0.000117283)
(1.86046e-08 -4.26255e-09 -0.0001172)
(-9.39967e-09 -2.1252e-10 -0.000117243)
(1.75349e-08 -4.17304e-09 -0.000117304)
(7.41955e-10 -8.72566e-09 -0.000117313)
(7.41881e-09 -6.40129e-09 -0.000117263)
(1.01737e-08 4.27742e-10 -0.000117311)
(-1.58275e-08 2.11585e-09 -0.000117222)
(8.48423e-09 -9.01322e-09 -0.00011727)
(7.61202e-11 -7.35337e-09 -0.000117306)
(1.56026e-08 -1.46072e-09 -0.000110131)
(-1.5906e-08 1.71096e-09 -0.000110241)
(1.34019e-08 2.37554e-09 -0.000110275)
(-1.39016e-08 -2.39068e-09 -0.000110137)
(-2.08804e-08 -1.71233e-09 -0.000110244)
(1.68336e-08 -5.69916e-10 -0.000110112)
(3.06047e-09 -5.21265e-10 -0.000117365)
(-2.0449e-09 4.10467e-09 -0.000117318)
(-1.74692e-08 -3.83929e-09 -0.000117274)
(1.96444e-08 4.52856e-09 -0.000117193)
(-5.41073e-09 -2.80915e-09 -0.000117312)
(5.98443e-09 4.52103e-09 -0.000117347)
(-1.0985e-11 8.80946e-09 -0.000110296)
(5.07637e-09 -6.35626e-10 -0.000110257)
(6.31403e-09 -5.40726e-09 -0.000110231)
(-2.43693e-09 -5.68428e-09 -0.000110249)
(4.08865e-09 6.4722e-10 -0.000110264)
(-3.46228e-09 4.69908e-09 -0.000110282)
(3.8143e-09 -2.23074e-09 -0.000110302)
(-2.72363e-09 6.32565e-09 -0.000110271)
(5.3317e-09 -9.50608e-10 -0.000110286)
(-3.6974e-09 -3.82674e-09 -0.000110254)
(-3.96596e-09 4.43867e-10 -0.000110268)