/*--------------------------------*- C++ -*----------------------------------*\
| =========                 |                                                 |
| \\      /  F ield         | OpenFOAM: The Open Source CFD Toolbox           |
|  \\    /   O peration     | Version:  2206                                  |
|   \\  /    A nd           | Website:  www.openfoam.com                      |
|    \\/     M anipulation  |                                                 |
\*---------------------------------------------------------------------------*/
FoamFile
{
    version     2.0;
    format      ascii;
    arch        "LSB;label=32;scalar=64";
    class       volScalarField;
    location    "0.2";
    object      k;
}
// * * * * * * * * * * * * * * * * * * * * * * * * * * * * * * * * * * * * * //

dimensions      [0 2 -2 0 0 0 0];

internalField   nonuniform List<scalar> 
66928
(
2.58607e-05
2.58061e-05
2.58115e-05
2.58096e-05
2.58648e-05
2.58133e-05
2.58587e-05
2.58713e-05
2.57955e-05
2.57997e-05
1.37666e-05
1.35624e-05
2.5226e-05
2.50342e-05
2.08329e-05
2.97767e-05
2.04153e-05
2.9996e-05
2.96573e-05
2.57603e-05
2.8229e-05
2.03977e-05
2.99961e-05
2.57589e-05
2.964e-05
2.82273e-05
1.35519e-05
2.50253e-05
2.53214e-05
1.37816e-05
2.98705e-05
2.08685e-05
1.3766e-05
1.37431e-05
1.3593e-05
1.36014e-05
2.52554e-05
2.50712e-05
2.58637e-05
2.52911e-05
2.50941e-05
1.37481e-05
1.37473e-05
1.36119e-05
1.36151e-05
2.58655e-05
2.53408e-05
2.51272e-05
2.53148e-05
2.51167e-05
1.37924e-05
2.82016e-05
2.8389e-05
2.52245e-05
1.99827e-05
1.99834e-05
2.83806e-05
2.82038e-05
2.80242e-05
2.83519e-05
2.50368e-05
1.9693e-05
1.96932e-05
2.83398e-05
2.80242e-05
1.92396e-05
1.20369e-05
1.19602e-05
1.20355e-05
1.19589e-05
1.92287e-05
2.08416e-05
2.54927e-05
2.54918e-05
1.23341e-05
2.5082e-05
1.20124e-05
2.95521e-05
1.73169e-05
1.57345e-05
2.50612e-05
1.20052e-05
1.73164e-05
2.95428e-05
1.57271e-05
2.7997e-05
2.83533e-05
2.50281e-05
1.96813e-05
2.83411e-05
1.96816e-05
2.79977e-05
2.822e-05
2.83909e-05
2.53181e-05
2.00384e-05
2.00368e-05
2.83789e-05
2.82212e-05
1.92211e-05
1.19609e-05
1.2059e-05
1.1961e-05
1.20585e-05
1.92099e-05
1.37802e-05
2.08627e-05
2.56124e-05
2.56051e-05
1.22976e-05
1.37498e-05
1.37523e-05
1.3589e-05
1.3609e-05
1.92814e-05
1.20623e-05
1.19876e-05
1.20689e-05
1.19954e-05
1.92633e-05
2.82433e-05
2.8392e-05
2.00173e-05
2.52578e-05
2.82434e-05
2.00144e-05
2.8404e-05
2.80609e-05
2.83577e-05
1.9736e-05
2.50677e-05
2.80637e-05
1.97324e-05
2.83752e-05
1.92521e-05
1.20623e-05
1.19867e-05
1.92666e-05
1.20555e-05
1.19798e-05
2.82714e-05
2.00354e-05
2.52921e-05
2.84269e-05
2.00409e-05
2.82737e-05
2.84117e-05
2.80889e-05
1.97555e-05
2.51004e-05
2.84038e-05
1.97636e-05
2.80861e-05
2.83846e-05
1.37517e-05
1.37428e-05
1.36203e-05
1.36069e-05
1.9276e-05
1.20776e-05
1.20025e-05
1.92913e-05
1.20707e-05
1.19943e-05
2.83365e-05
2.84662e-05
2.53446e-05
2.00582e-05
2.00675e-05
2.84537e-05
2.83282e-05
2.81483e-05
2.84504e-05
2.51355e-05
1.97776e-05
1.9789e-05
2.84356e-05
2.81393e-05
2.83131e-05
2.00577e-05
2.84317e-05
2.53168e-05
2.83123e-05
2.00518e-05
2.84492e-05
2.81187e-05
1.97788e-05
2.84099e-05
2.51105e-05
2.81198e-05
1.97702e-05
2.84296e-05
1.9303e-05
1.20764e-05
1.2e-05
1.20839e-05
1.20084e-05
1.92876e-05
2.78807e-05
2.58577e-05
2.67878e-05
2.68022e-05
2.67767e-05
2.67904e-05
2.78914e-05
2.78697e-05
2.58623e-05
2.68094e-05
2.67837e-05
2.67986e-05
2.67724e-05
2.78816e-05
2.7911e-05
2.67825e-05
2.67957e-05
2.58632e-05
2.78931e-05
2.67968e-05
2.68111e-05
2.79521e-05
2.58666e-05
2.68278e-05
2.68463e-05
2.68137e-05
2.683e-05
2.79646e-05
2.58416e-05
2.58434e-05
2.67475e-05
2.77061e-05
2.97703e-05
2.91213e-05
2.76956e-05
2.91133e-05
2.67479e-05
2.67882e-05
2.77393e-05
2.96523e-05
2.9082e-05
2.77286e-05
2.90694e-05
2.67967e-05
2.63512e-05
2.82147e-05
2.85673e-05
2.61899e-05
2.85531e-05
2.6179e-05
2.63625e-05
2.67786e-05
2.7726e-05
2.9635e-05
2.90694e-05
2.90566e-05
2.77154e-05
2.67873e-05
2.63455e-05
2.82131e-05
2.61882e-05
2.85607e-05
2.61773e-05
2.85465e-05
2.63571e-05
2.6757e-05
2.77503e-05
2.9864e-05
2.91887e-05
2.77431e-05
2.9179e-05
2.67608e-05
2.79107e-05
2.586e-05
2.68083e-05
2.68238e-05
2.7929e-05
2.67933e-05
2.68067e-05
2.79523e-05
2.58695e-05
2.68033e-05
2.6818e-05
2.79324e-05
2.68175e-05
2.68346e-05
2.5795e-05
2.58072e-05
2.58129e-05
2.58691e-05
2.57887e-05
2.58121e-05
2.581e-05
2.58789e-05
2.57646e-05
2.5775e-05
2.57979e-05
2.58648e-05
2.57442e-05
2.57729e-05
2.57756e-05
2.58511e-05
2.57467e-05
2.577e-05
2.57756e-05
2.58503e-05
2.57464e-05
2.57662e-05
2.57725e-05
2.5842e-05
2.57464e-05
2.57661e-05
2.57708e-05
2.58383e-05
2.57462e-05
2.57658e-05
2.57707e-05
2.58372e-05
2.5746e-05
2.57658e-05
2.57708e-05
2.58375e-05
2.5746e-05
2.57658e-05
2.57707e-05
2.58372e-05
2.57461e-05
2.57657e-05
2.57707e-05
2.58374e-05
2.57461e-05
2.57657e-05
2.57708e-05
2.58372e-05
2.57461e-05
2.57657e-05
2.57708e-05
2.58375e-05
2.57461e-05
2.57657e-05
2.57707e-05
2.58374e-05
2.5746e-05
2.57657e-05
2.57707e-05
2.58377e-05
2.57461e-05
2.57657e-05
2.57707e-05
2.58373e-05
2.57461e-05
2.57658e-05
2.57706e-05
2.58377e-05
2.58051e-05
2.58067e-05
2.57994e-05
2.58009e-05
2.58665e-05
2.58779e-05
2.58108e-05
2.58088e-05
2.58073e-05
2.58055e-05
2.58095e-05
2.58127e-05
2.58117e-05
2.58604e-05
2.58718e-05
2.58161e-05
2.58094e-05
2.58198e-05
2.58816e-05
2.58729e-05
2.58774e-05
2.58029e-05
2.58005e-05
2.57967e-05
2.57809e-05
2.58745e-05
2.58509e-05
2.58121e-05
2.58104e-05
2.58088e-05
2.58077e-05
2.58128e-05
2.57839e-05
2.57977e-05
2.58726e-05
2.58811e-05
2.58226e-05
2.58097e-05
2.58147e-05
2.58778e-05
2.58657e-05
2.58512e-05
2.5785e-05
2.57731e-05
2.57667e-05
2.57665e-05
2.58463e-05
2.58448e-05
2.57989e-05
2.57981e-05
2.57757e-05
2.57745e-05
2.57855e-05
2.57728e-05
2.57719e-05
2.58709e-05
2.58532e-05
2.58026e-05
2.57756e-05
2.57781e-05
2.58553e-05
2.58522e-05
2.5852e-05
2.57703e-05
2.57709e-05
2.57711e-05
2.57698e-05
2.58455e-05
2.58409e-05
2.57785e-05
2.57772e-05
2.57781e-05
2.57769e-05
2.57753e-05
2.57724e-05
2.57734e-05
2.58539e-05
2.58533e-05
2.57806e-05
2.57768e-05
2.57797e-05
2.58554e-05
2.58526e-05
2.58457e-05
2.57749e-05
2.57721e-05
2.57715e-05
2.577e-05
2.58413e-05
2.58355e-05
2.57804e-05
2.57795e-05
2.57744e-05
2.57727e-05
2.57749e-05
2.57673e-05
2.57699e-05
2.58537e-05
2.58465e-05
2.57819e-05
2.57742e-05
2.57765e-05
2.58481e-05
2.58447e-05
2.58389e-05
2.57732e-05
2.57721e-05
2.57696e-05
2.57696e-05
2.58359e-05
2.58317e-05
2.57755e-05
2.57738e-05
2.57705e-05
2.5769e-05
2.57714e-05
2.57661e-05
2.5768e-05
2.58464e-05
2.58399e-05
2.57781e-05
2.57711e-05
2.57747e-05
2.58429e-05
2.58397e-05
2.58379e-05
2.57716e-05
2.57719e-05
2.57692e-05
2.57698e-05
2.58327e-05
2.58326e-05
2.57725e-05
2.57712e-05
2.57704e-05
2.57693e-05
2.57702e-05
2.57662e-05
2.57681e-05
2.58406e-05
2.58396e-05
2.57768e-05
2.57711e-05
2.57744e-05
2.58416e-05
2.58388e-05
2.58377e-05
2.57714e-05
2.57718e-05
2.57693e-05
2.57694e-05
2.58333e-05
2.58314e-05
2.57725e-05
2.57714e-05
2.57702e-05
2.57691e-05
2.57702e-05
2.57658e-05
2.57683e-05
2.58403e-05
2.58393e-05
2.57765e-05
2.57711e-05
2.57744e-05
2.58416e-05
2.58387e-05
2.58376e-05
2.57716e-05
2.57717e-05
2.57693e-05
2.57697e-05
2.58324e-05
2.58324e-05
2.57724e-05
2.57713e-05
2.57701e-05
2.5769e-05
2.57704e-05
2.57662e-05
2.57682e-05
2.58401e-05
2.58391e-05
2.57765e-05
2.57709e-05
2.57744e-05
2.58415e-05
2.58385e-05
2.58377e-05
2.57714e-05
2.57718e-05
2.57692e-05
2.57694e-05
2.58331e-05
2.58312e-05
2.57723e-05
2.57712e-05
2.57702e-05
2.5769e-05
2.57703e-05
2.57658e-05
2.57682e-05
2.58399e-05
2.58391e-05
2.57766e-05
2.5771e-05
2.57744e-05
2.58416e-05
2.58387e-05
2.58376e-05
2.57715e-05
2.57717e-05
2.57693e-05
2.57697e-05
2.58322e-05
2.58323e-05
2.57724e-05
2.57712e-05
2.57703e-05
2.5769e-05
2.57703e-05
2.57661e-05
2.57681e-05
2.58399e-05
2.5839e-05
2.57766e-05
2.57709e-05
2.57743e-05
2.58414e-05
2.58386e-05
2.58376e-05
2.57714e-05
2.57718e-05
2.57691e-05
2.57694e-05
2.5833e-05
2.58311e-05
2.57724e-05
2.57712e-05
2.57702e-05
2.57691e-05
2.57703e-05
2.57658e-05
2.57682e-05
2.58398e-05
2.58391e-05
2.57765e-05
2.57712e-05
2.57744e-05
2.58416e-05
2.58386e-05
2.58377e-05
2.57714e-05
2.57716e-05
2.57693e-05
2.57696e-05
2.58321e-05
2.58323e-05
2.57724e-05
2.57713e-05
2.57702e-05
2.57692e-05
2.57703e-05
2.57661e-05
2.57682e-05
2.58399e-05
2.58391e-05
2.57766e-05
2.57709e-05
2.57744e-05
2.58416e-05
2.58386e-05
2.58377e-05
2.57714e-05
2.57717e-05
2.57691e-05
2.57692e-05
2.5833e-05
2.58311e-05
2.57724e-05
2.57713e-05
2.57702e-05
2.57691e-05
2.57703e-05
2.57657e-05
2.57683e-05
2.58399e-05
2.58392e-05
2.57766e-05
2.5771e-05
2.57745e-05
2.58418e-05
2.58387e-05
2.58378e-05
2.57714e-05
2.57715e-05
2.57692e-05
2.57696e-05
2.58321e-05
2.58323e-05
2.57724e-05
2.57713e-05
2.57702e-05
2.5769e-05
2.57704e-05
2.57661e-05
2.57682e-05
2.584e-05
2.58391e-05
2.57767e-05
2.57709e-05
2.57744e-05
2.58415e-05
2.58387e-05
2.58378e-05
2.57714e-05
2.57717e-05
2.57693e-05
2.57694e-05
2.5833e-05
2.58312e-05
2.57724e-05
2.57711e-05
2.57703e-05
2.5769e-05
2.57703e-05
2.57658e-05
2.57683e-05
2.58399e-05
2.58391e-05
2.57766e-05
2.57709e-05
2.57745e-05
2.58418e-05
2.58388e-05
2.57716e-05
2.57717e-05
2.58322e-05
2.57724e-05
2.57712e-05
2.57704e-05
2.57698e-05
2.584e-05
2.57767e-05
2.57761e-05
2.5843e-05
3.02625e-05
2.08336e-05
3.02188e-05
2.08219e-05
1.37868e-05
1.37614e-05
3.00647e-05
2.0454e-05
3.0015e-05
2.04724e-05
2.57975e-05
2.57988e-05
2.57993e-05
2.57889e-05
2.57986e-05
2.57921e-05
2.58005e-05
2.82847e-05
2.97645e-05
2.57547e-05
2.58112e-05
2.97891e-05
2.5757e-05
2.82507e-05
1.35822e-05
1.35919e-05
2.8266e-05
2.57726e-05
2.98919e-05
2.58117e-05
2.5777e-05
2.99448e-05
2.82395e-05
2.51e-05
2.53817e-05
2.58752e-05
2.51121e-05
2.5414e-05
3.03853e-05
2.08305e-05
3.03525e-05
2.08287e-05
1.37712e-05
1.37699e-05
3.0155e-05
2.05081e-05
3.01489e-05
2.04958e-05
2.57973e-05
2.57919e-05
2.57995e-05
2.57801e-05
2.5777e-05
2.57824e-05
2.57845e-05
2.83207e-05
2.98324e-05
2.57527e-05
2.58099e-05
2.83005e-05
2.98311e-05
2.57494e-05
1.36162e-05
1.36133e-05
2.83226e-05
2.57729e-05
3.00286e-05
2.5813e-05
2.82969e-05
2.57719e-05
3.00416e-05
2.51523e-05
2.54633e-05
2.58863e-05
2.51455e-05
2.54568e-05
3.04207e-05
2.08439e-05
3.04152e-05
2.08452e-05
1.37821e-05
1.37797e-05
3.0166e-05
2.05087e-05
3.01809e-05
2.04913e-05
2.57636e-05
2.57696e-05
2.57705e-05
2.57442e-05
2.57438e-05
2.57449e-05
2.57453e-05
2.8301e-05
2.9832e-05
2.57136e-05
2.57751e-05
2.82953e-05
2.98189e-05
2.57139e-05
1.36233e-05
1.36099e-05
2.83113e-05
2.57456e-05
3.00425e-05
2.57875e-05
2.83186e-05
2.57357e-05
3.00343e-05
2.51583e-05
2.5466e-05
2.58569e-05
2.51382e-05
2.54483e-05
3.04649e-05
2.08743e-05
3.04602e-05
2.08796e-05
1.3791e-05
1.37873e-05
3.01578e-05
2.04921e-05
3.01646e-05
2.04773e-05
2.57479e-05
2.57485e-05
2.57486e-05
2.5747e-05
2.5746e-05
2.57471e-05
2.57469e-05
2.82997e-05
2.98255e-05
2.57114e-05
2.57758e-05
2.82885e-05
2.97962e-05
2.57158e-05
1.36108e-05
1.35961e-05
2.83059e-05
2.57234e-05
3.00288e-05
2.5779e-05
2.82997e-05
2.57276e-05
3.00231e-05
2.51425e-05
2.54545e-05
2.5854e-05
2.51141e-05
2.5442e-05
3.04666e-05
2.08831e-05
3.04721e-05
2.0868e-05
1.37801e-05
1.37652e-05
3.01235e-05
2.046e-05
3.01578e-05
2.0424e-05
2.57487e-05
2.57499e-05
2.57497e-05
2.57465e-05
2.57465e-05
2.57476e-05
2.57472e-05
2.82748e-05
2.97714e-05
2.57104e-05
2.57712e-05
2.82736e-05
2.97398e-05
2.57129e-05
1.35824e-05
1.35562e-05
2.82907e-05
2.57238e-05
3.00109e-05
2.57774e-05
2.82972e-05
2.57264e-05
2.99875e-05
2.50928e-05
2.5419e-05
2.58504e-05
2.506e-05
2.53875e-05
3.04646e-05
2.08594e-05
3.04632e-05
2.08535e-05
1.37639e-05
1.37601e-05
3.0077e-05
2.04047e-05
3.01046e-05
2.03827e-05
2.57495e-05
2.57504e-05
2.57502e-05
2.57471e-05
2.57474e-05
2.5748e-05
2.5748e-05
2.82549e-05
2.9729e-05
2.57091e-05
2.57682e-05
2.82483e-05
2.9714e-05
2.5712e-05
1.35445e-05
1.35304e-05
2.82654e-05
2.57226e-05
2.9964e-05
2.57742e-05
2.82686e-05
2.57256e-05
2.99425e-05
2.50468e-05
2.53691e-05
2.58423e-05
2.50266e-05
2.53514e-05
3.0466e-05
2.08574e-05
3.04635e-05
2.08522e-05
1.37683e-05
1.37623e-05
3.00777e-05
2.0389e-05
3.00816e-05
2.03833e-05
2.57502e-05
2.57508e-05
2.57508e-05
2.57465e-05
2.57474e-05
2.5748e-05
2.5748e-05
2.82574e-05
2.97297e-05
2.57095e-05
2.57686e-05
2.8243e-05
2.97236e-05
2.57122e-05
1.3539e-05
1.3534e-05
2.82626e-05
2.57228e-05
2.99437e-05
2.57731e-05
2.82572e-05
2.57256e-05
2.99427e-05
2.50415e-05
2.53574e-05
2.58403e-05
2.50335e-05
2.53507e-05
3.04636e-05
2.08566e-05
3.04614e-05
2.08526e-05
1.37641e-05
1.3761e-05
3.00727e-05
2.03936e-05
3.00852e-05
2.03791e-05
2.57501e-05
2.57507e-05
2.57508e-05
2.57463e-05
2.57474e-05
2.5748e-05
2.57481e-05
2.82576e-05
2.97247e-05
2.57094e-05
2.5768e-05
2.82426e-05
2.97222e-05
2.57122e-05
1.35385e-05
1.35298e-05
2.82622e-05
2.57227e-05
2.99414e-05
2.5773e-05
2.82575e-05
2.57255e-05
2.99406e-05
2.50401e-05
2.53589e-05
2.58397e-05
2.50264e-05
2.53472e-05
3.04633e-05
2.08584e-05
3.04615e-05
2.08524e-05
1.37674e-05
1.3761e-05
3.00773e-05
2.03958e-05
3.00891e-05
2.03821e-05
2.57502e-05
2.57508e-05
2.57509e-05
2.57463e-05
2.57474e-05
2.5748e-05
2.57481e-05
2.82574e-05
2.97292e-05
2.57093e-05
2.57681e-05
2.82448e-05
2.97213e-05
2.57122e-05
1.35422e-05
1.35319e-05
2.82621e-05
2.57226e-05
2.99419e-05
2.57731e-05
2.82566e-05
2.57253e-05
2.99413e-05
2.50464e-05
2.53608e-05
2.584e-05
2.50271e-05
2.5347e-05
3.04623e-05
2.08549e-05
3.04592e-05
2.08506e-05
1.37635e-05
1.37609e-05
3.00766e-05
2.03944e-05
3.00878e-05
2.03816e-05
2.57502e-05
2.57508e-05
2.57509e-05
2.57463e-05
2.57474e-05
2.5748e-05
2.57481e-05
2.82576e-05
2.97279e-05
2.57094e-05
2.57679e-05
2.82449e-05
2.9719e-05
2.57122e-05
1.35395e-05
1.35311e-05
2.82608e-05
2.57223e-05
2.99423e-05
2.5773e-05
2.82557e-05
2.57257e-05
2.99416e-05
2.50451e-05
2.5359e-05
2.58398e-05
2.50298e-05
2.53465e-05
3.04649e-05
2.08565e-05
3.04621e-05
2.08511e-05
1.37662e-05
1.37603e-05
3.0077e-05
2.03944e-05
3.0088e-05
2.03819e-05
2.57502e-05
2.57508e-05
2.57509e-05
2.57464e-05
2.57474e-05
2.5748e-05
2.57481e-05
2.82578e-05
2.97293e-05
2.57094e-05
2.57681e-05
2.82449e-05
2.97202e-05
2.57122e-05
1.35411e-05
1.35328e-05
2.82603e-05
2.57225e-05
2.99419e-05
2.5773e-05
2.82549e-05
2.57253e-05
2.99412e-05
2.50451e-05
2.53608e-05
2.58399e-05
2.50291e-05
2.53481e-05
3.04622e-05
2.0855e-05
3.04604e-05
2.08511e-05
1.37629e-05
1.37595e-05
3.00767e-05
2.03939e-05
3.00888e-05
2.03827e-05
2.57502e-05
2.57508e-05
2.57509e-05
2.57463e-05
2.57474e-05
2.5748e-05
2.57481e-05
2.82577e-05
2.97276e-05
2.57094e-05
2.57679e-05
2.82448e-05
2.97186e-05
2.57122e-05
1.35415e-05
1.3533e-05
2.8261e-05
2.57224e-05
2.99424e-05
2.57732e-05
2.82549e-05
2.57252e-05
2.9942e-05
2.50446e-05
2.53618e-05
2.58398e-05
2.50309e-05
2.53511e-05
3.04643e-05
2.08572e-05
3.04612e-05
2.08522e-05
1.37661e-05
1.37596e-05
3.00771e-05
2.03954e-05
3.00882e-05
2.0383e-05
2.57502e-05
2.57508e-05
2.57509e-05
2.57463e-05
2.57474e-05
2.5748e-05
2.57481e-05
2.82578e-05
2.97293e-05
2.57093e-05
2.57681e-05
2.82448e-05
2.97205e-05
2.57122e-05
1.35426e-05
1.35332e-05
2.82621e-05
2.57224e-05
2.99434e-05
2.57731e-05
2.8256e-05
2.57252e-05
2.99426e-05
2.50452e-05
2.53638e-05
2.584e-05
2.50298e-05
2.53509e-05
3.04634e-05
2.08536e-05
3.04614e-05
2.08489e-05
1.37614e-05
1.37582e-05
3.0077e-05
2.03942e-05
3.0089e-05
2.03825e-05
2.57502e-05
2.57508e-05
2.57509e-05
2.57463e-05
2.57474e-05
2.5748e-05
2.57481e-05
2.82577e-05
2.97278e-05
2.57094e-05
2.57679e-05
2.82448e-05
2.97189e-05
2.57122e-05
1.35398e-05
1.35316e-05
2.82625e-05
2.57224e-05
2.9943e-05
2.5773e-05
2.82568e-05
2.57253e-05
2.99422e-05
2.50449e-05
2.5363e-05
2.584e-05
2.5031e-05
2.53515e-05
3.04626e-05
2.0856e-05
3.04609e-05
2.08508e-05
1.37656e-05
1.376e-05
3.00771e-05
2.03951e-05
3.00885e-05
2.03828e-05
2.57501e-05
2.57508e-05
2.57509e-05
2.57463e-05
2.57474e-05
2.5748e-05
2.57481e-05
2.82578e-05
2.97294e-05
2.57094e-05
2.57681e-05
2.82448e-05
2.972e-05
2.57122e-05
1.35407e-05
1.35316e-05
2.82623e-05
2.57225e-05
2.99418e-05
2.5773e-05
2.82571e-05
2.57253e-05
2.99411e-05
2.50455e-05
2.53647e-05
2.58401e-05
2.50298e-05
2.53509e-05
3.04625e-05
2.08574e-05
3.04591e-05
2.0854e-05
1.37638e-05
1.37609e-05
3.00769e-05
2.03948e-05
3.00887e-05
2.03823e-05
2.57502e-05
2.57508e-05
2.57509e-05
2.57463e-05
2.57474e-05
2.5748e-05
2.57481e-05
2.82577e-05
2.97276e-05
2.57094e-05
2.57679e-05
2.82448e-05
2.97185e-05
2.57122e-05
1.35391e-05
1.35315e-05
2.82613e-05
2.57224e-05
2.99409e-05
2.5773e-05
2.82563e-05
2.57252e-05
2.99407e-05
2.50443e-05
2.53623e-05
2.58399e-05
2.503e-05
2.53514e-05
3.04645e-05
2.08583e-05
3.04622e-05
2.08525e-05
1.37678e-05
1.37613e-05
3.0077e-05
2.03948e-05
3.00884e-05
2.03827e-05
2.57502e-05
2.57508e-05
2.57509e-05
2.57502e-05
2.82577e-05
2.97293e-05
2.57093e-05
2.57682e-05
2.82448e-05
2.97205e-05
2.57122e-05
1.3541e-05
1.35296e-05
2.8261e-05
2.57222e-05
2.99411e-05
2.57729e-05
2.82556e-05
2.5725e-05
2.99415e-05
2.50454e-05
2.5365e-05
2.58402e-05
2.50295e-05
2.53513e-05
3.02597e-05
2.08279e-05
2.0824e-05
3.02145e-05
2.81914e-05
2.97978e-05
2.57602e-05
2.58034e-05
2.57578e-05
2.81637e-05
2.98441e-05
2.81894e-05
2.9821e-05
2.57601e-05
2.58055e-05
2.98613e-05
2.57577e-05
2.81611e-05
3.02852e-05
2.08238e-05
3.03388e-05
2.08269e-05
3.02838e-05
2.08317e-05
2.08331e-05
3.03354e-05
2.81885e-05
2.57995e-05
2.99032e-05
2.57493e-05
2.57519e-05
2.82125e-05
2.98607e-05
2.81868e-05
2.58021e-05
2.99166e-05
2.57494e-05
2.98758e-05
2.57519e-05
2.82118e-05
2.52938e-05
2.51297e-05
2.58733e-05
2.53107e-05
2.51394e-05
1.36169e-05
1.3619e-05
1.37638e-05
1.37644e-05
2.58744e-05
2.53435e-05
2.51541e-05
2.53236e-05
2.51621e-05
1.36211e-05
1.36312e-05
2.82486e-05
2.96852e-05
2.57589e-05
2.58091e-05
2.57564e-05
2.82165e-05
2.97355e-05
3.00644e-05
2.04392e-05
2.04609e-05
3.00154e-05
2.82469e-05
2.57574e-05
2.96679e-05
2.58069e-05
2.57549e-05
2.97192e-05
2.8215e-05
3.00901e-05
2.0495e-05
3.01278e-05
2.04946e-05
2.82377e-05
2.5807e-05
2.9799e-05
2.57503e-05
2.57507e-05
2.82772e-05
2.97572e-05
3.00901e-05
2.04874e-05
2.04848e-05
3.01243e-05
2.82362e-05
2.58051e-05
2.57488e-05
2.97861e-05
2.57491e-05
2.97421e-05
2.82758e-05
3.0141e-05
2.05167e-05
2.05076e-05
3.0123e-05
2.82795e-05
2.57591e-05
2.97101e-05
2.58115e-05
2.57581e-05
2.97397e-05
2.82426e-05
3.01272e-05
2.04715e-05
2.0474e-05
3.01033e-05
2.82737e-05
2.58117e-05
2.9825e-05
2.57546e-05
2.98034e-05
2.57555e-05
2.83105e-05
3.01569e-05
2.0508e-05
2.05202e-05
3.01716e-05
2.82688e-05
2.58115e-05
2.5755e-05
2.97931e-05
2.57552e-05
2.97587e-05
2.83076e-05
3.01482e-05
2.04859e-05
2.04926e-05
3.01681e-05
2.50623e-05
2.53548e-05
2.58642e-05
2.5086e-05
2.54007e-05
1.38027e-05
1.38152e-05
1.36035e-05
1.36065e-05
2.58654e-05
2.51205e-05
2.5454e-05
2.51099e-05
2.54292e-05
1.38351e-05
1.38297e-05
2.82645e-05
2.5775e-05
2.99192e-05
2.58199e-05
2.57789e-05
2.99672e-05
2.82385e-05
3.04617e-05
2.09035e-05
2.09403e-05
3.04152e-05
3.04574e-05
2.09142e-05
2.09394e-05
3.04097e-05
2.82629e-05
2.58093e-05
2.5774e-05
3.00136e-05
2.57752e-05
2.99608e-05
2.82976e-05
2.82615e-05
2.58198e-05
2.57758e-05
3.0025e-05
2.5778e-05
2.99832e-05
2.82964e-05
3.04839e-05
2.097e-05
2.09617e-05
3.05301e-05
3.048e-05
2.09674e-05
2.09587e-05
3.0527e-05
1.35917e-05
1.35923e-05
1.38179e-05
1.3829e-05
2.58766e-05
2.51376e-05
2.54523e-05
2.51339e-05
2.54364e-05
1.3601e-05
1.36058e-05
1.38439e-05
1.38418e-05
1.37569e-05
1.37595e-05
1.36231e-05
1.3618e-05
2.53565e-05
2.5146e-05
2.58803e-05
2.53614e-05
2.51464e-05
1.37695e-05
1.37686e-05
1.362e-05
1.36283e-05
2.58801e-05
2.53689e-05
2.51515e-05
2.53713e-05
2.51596e-05
3.03862e-05
2.08383e-05
3.03483e-05
2.08313e-05
2.82233e-05
2.99202e-05
2.57485e-05
2.58027e-05
2.82082e-05
2.99404e-05
2.57466e-05
2.82228e-05
2.99334e-05
2.57485e-05
2.57989e-05
2.82077e-05
2.99468e-05
2.57463e-05
3.03958e-05
2.08364e-05
2.08369e-05
3.04083e-05
3.0396e-05
2.08276e-05
2.08355e-05
3.04033e-05
2.82177e-05
2.58019e-05
2.99416e-05
2.57312e-05
2.99367e-05
2.57426e-05
2.82243e-05
2.82173e-05
2.57941e-05
2.99419e-05
2.57287e-05
2.99369e-05
2.57415e-05
2.82233e-05
2.53574e-05
2.51643e-05
2.5872e-05
2.53583e-05
2.51506e-05
1.36292e-05
1.36164e-05
1.3775e-05
1.37766e-05
2.58639e-05
2.53581e-05
2.51424e-05
2.53658e-05
2.5159e-05
1.3608e-05
1.36243e-05
2.83042e-05
2.98181e-05
2.57517e-05
2.58121e-05
2.82667e-05
2.98318e-05
2.57511e-05
3.01603e-05
2.05013e-05
3.01368e-05
2.04914e-05
2.83032e-05
2.57504e-05
2.98057e-05
2.58105e-05
2.82654e-05
2.57498e-05
2.98196e-05
3.01645e-05
2.0497e-05
2.05084e-05
3.01725e-05
2.82924e-05
2.58119e-05
2.98423e-05
2.57444e-05
2.98363e-05
2.57488e-05
2.83167e-05
3.01699e-05
2.04874e-05
2.05035e-05
3.01763e-05
2.82916e-05
2.58105e-05
2.57435e-05
2.98304e-05
2.57477e-05
2.98244e-05
2.83164e-05
3.01826e-05
2.05184e-05
3.01766e-05
2.04985e-05
2.83197e-05
2.57548e-05
2.98026e-05
2.58117e-05
2.82956e-05
2.57532e-05
2.98133e-05
3.01824e-05
2.0498e-05
3.01759e-05
2.04838e-05
2.83037e-05
2.57992e-05
2.98276e-05
2.57229e-05
2.98234e-05
2.57388e-05
2.83111e-05
3.01874e-05
2.0484e-05
2.05075e-05
3.01838e-05
2.83044e-05
2.58083e-05
2.57321e-05
2.98119e-05
2.57477e-05
2.98052e-05
2.83125e-05
3.01884e-05
2.04737e-05
2.04937e-05
3.01856e-05
2.51379e-05
2.54666e-05
2.5881e-05
2.51368e-05
2.54657e-05
1.38443e-05
1.38433e-05
1.36145e-05
1.36237e-05
2.58808e-05
2.51407e-05
2.54645e-05
2.51496e-05
2.54734e-05
1.38416e-05
1.38493e-05
2.83211e-05
2.57749e-05
3.0041e-05
2.58218e-05
2.82939e-05
2.57723e-05
3.00568e-05
3.05682e-05
2.09778e-05
3.05409e-05
2.09675e-05
3.05653e-05
2.09759e-05
3.05381e-05
2.09731e-05
2.83174e-05
2.58123e-05
2.57621e-05
3.004e-05
2.57683e-05
3.00376e-05
2.83272e-05
2.83162e-05
2.58194e-05
2.57619e-05
3.00541e-05
2.57688e-05
3.00508e-05
2.83261e-05
3.05571e-05
2.09576e-05
2.09701e-05
3.05613e-05
3.05552e-05
2.0962e-05
2.09792e-05
3.05608e-05
1.36116e-05
1.36037e-05
1.38518e-05
1.38494e-05
2.58844e-05
2.51482e-05
2.54604e-05
2.51583e-05
2.54653e-05
1.36026e-05
1.36131e-05
1.38496e-05
1.3856e-05
1.37764e-05
1.37746e-05
1.36286e-05
1.36162e-05
2.5376e-05
2.51614e-05
2.58547e-05
2.53665e-05
2.51403e-05
1.37804e-05
1.37812e-05
1.36125e-05
1.3624e-05
2.58532e-05
2.53657e-05
2.51275e-05
2.53695e-05
2.51461e-05
3.04224e-05
2.08346e-05
3.04049e-05
2.08382e-05
2.82252e-05
2.99417e-05
2.57228e-05
2.57748e-05
2.82174e-05
2.99469e-05
2.57179e-05
2.82238e-05
2.99416e-05
2.5721e-05
2.57693e-05
2.82161e-05
2.99485e-05
2.57167e-05
3.04322e-05
2.08624e-05
2.08564e-05
3.04542e-05
3.04328e-05
2.08523e-05
2.08497e-05
3.04485e-05
2.82202e-05
2.57673e-05
2.99459e-05
2.57145e-05
2.99368e-05
2.57145e-05
2.82395e-05
2.8219e-05
2.57664e-05
2.99521e-05
2.5714e-05
2.99388e-05
2.57138e-05
2.8238e-05
2.53627e-05
2.51487e-05
2.58451e-05
2.53519e-05
2.51373e-05
1.36166e-05
1.36089e-05
1.37843e-05
1.37857e-05
2.58458e-05
2.53545e-05
2.51312e-05
2.53522e-05
2.51523e-05
1.35942e-05
1.36178e-05
2.83086e-05
2.98457e-05
2.57333e-05
2.57874e-05
2.83018e-05
2.98415e-05
2.5722e-05
3.01656e-05
2.04963e-05
3.01657e-05
2.04714e-05
2.83079e-05
2.57328e-05
2.98331e-05
2.57867e-05
2.83014e-05
2.57216e-05
2.98269e-05
3.01613e-05
2.04808e-05
2.05008e-05
3.01579e-05
2.82882e-05
2.57773e-05
2.98333e-05
2.57103e-05
2.98307e-05
2.57115e-05
2.82977e-05
3.01682e-05
2.0461e-05
2.04803e-05
3.01602e-05
2.82879e-05
2.57764e-05
2.57101e-05
2.98155e-05
2.57112e-05
2.98162e-05
2.8298e-05
3.01797e-05
2.04934e-05
3.01736e-05
2.04773e-05
2.83022e-05
2.57209e-05
2.98129e-05
2.57778e-05
2.82919e-05
2.57149e-05
2.98086e-05
3.01807e-05
2.04832e-05
3.01764e-05
2.0466e-05
2.82844e-05
2.57737e-05
2.98228e-05
2.57114e-05
2.98216e-05
2.5712e-05
2.83006e-05
3.01716e-05
2.04609e-05
2.04876e-05
3.01713e-05
2.82857e-05
2.57721e-05
2.57101e-05
2.9808e-05
2.571e-05
2.98024e-05
2.83008e-05
3.0173e-05
2.04579e-05
2.04764e-05
3.01714e-05
2.51501e-05
2.54653e-05
2.58574e-05
2.5128e-05
2.54477e-05
1.38452e-05
1.3834e-05
1.36021e-05
1.36172e-05
2.58544e-05
2.51152e-05
2.544e-05
2.51345e-05
2.54484e-05
1.38313e-05
1.38381e-05
2.83121e-05
2.57485e-05
3.00439e-05
2.57912e-05
2.83162e-05
2.57366e-05
3.00473e-05
3.05459e-05
2.09602e-05
3.05456e-05
2.09429e-05
3.05471e-05
2.09634e-05
3.05463e-05
2.09486e-05
2.83001e-05
2.5778e-05
2.57234e-05
3.00256e-05
2.57256e-05
3.00242e-05
2.8305e-05
2.83008e-05
2.57803e-05
2.57233e-05
3.0042e-05
2.57249e-05
3.00356e-05
2.8305e-05
3.05324e-05
2.09402e-05
2.09462e-05
3.05403e-05
3.05343e-05
2.09469e-05
2.0951e-05
3.05409e-05
1.36108e-05
1.35969e-05
1.38534e-05
1.38421e-05
2.58572e-05
2.51333e-05
2.54461e-05
2.51471e-05
2.54507e-05
1.35918e-05
1.36057e-05
1.3842e-05
1.38469e-05
1.37872e-05
1.37847e-05
1.36206e-05
1.36027e-05
2.53746e-05
2.51374e-05
2.58518e-05
2.53724e-05
2.51222e-05
1.3777e-05
1.37901e-05
1.35856e-05
1.36095e-05
2.5853e-05
2.53607e-05
2.50936e-05
2.53796e-05
2.51266e-05
3.04549e-05
2.08621e-05
3.04444e-05
2.08648e-05
2.82517e-05
2.99488e-05
2.57201e-05
2.57706e-05
2.82352e-05
2.99599e-05
2.57201e-05
2.82491e-05
2.99472e-05
2.57196e-05
2.57711e-05
2.82336e-05
2.99564e-05
2.57197e-05
3.04594e-05
2.08802e-05
2.08881e-05
3.04692e-05
3.0445e-05
2.08576e-05
2.0873e-05
3.0455e-05
2.82469e-05
2.57706e-05
2.99558e-05
2.57202e-05
2.99506e-05
2.57199e-05
2.82601e-05
2.82442e-05
2.57702e-05
2.99526e-05
2.57198e-05
2.9947e-05
2.57195e-05
2.82567e-05
2.53643e-05
2.51351e-05
2.58433e-05
2.53617e-05
2.5101e-05
1.36006e-05
1.35731e-05
1.37771e-05
1.37916e-05
2.58437e-05
2.53495e-05
2.5066e-05
2.53685e-05
2.51052e-05
1.35504e-05
1.35789e-05
2.82968e-05
2.98263e-05
2.57137e-05
2.57785e-05
2.82814e-05
2.98279e-05
2.57138e-05
3.01648e-05
2.04717e-05
3.01612e-05
2.04564e-05
2.82973e-05
2.57136e-05
2.98094e-05
2.57773e-05
2.82821e-05
2.57137e-05
2.98113e-05
3.01525e-05
2.04522e-05
2.04861e-05
3.01518e-05
2.82826e-05
2.57786e-05
2.98159e-05
2.57132e-05
2.98176e-05
2.57135e-05
2.82996e-05
3.01579e-05
2.04299e-05
2.04645e-05
3.01549e-05
2.82832e-05
2.57775e-05
2.57128e-05
2.97989e-05
2.57131e-05
2.98008e-05
2.83e-05
3.01555e-05
2.04679e-05
3.01603e-05
2.04292e-05
2.8299e-05
2.57147e-05
2.97999e-05
2.57755e-05
2.82857e-05
2.57149e-05
2.97965e-05
3.01567e-05
2.04667e-05
3.0161e-05
2.04342e-05
2.82802e-05
2.57748e-05
2.97705e-05
2.57113e-05
2.97957e-05
2.57147e-05
2.8289e-05
3.01546e-05
2.03938e-05
2.04355e-05
3.01264e-05
2.82811e-05
2.5775e-05
2.57119e-05
2.9772e-05
2.57134e-05
2.97888e-05
2.82898e-05
3.01566e-05
2.04034e-05
2.04415e-05
3.01291e-05
2.51251e-05
2.54467e-05
2.58537e-05
2.51123e-05
2.5435e-05
1.38361e-05
1.38209e-05
1.3576e-05
1.36025e-05
2.58548e-05
2.50845e-05
2.54084e-05
2.51171e-05
2.54355e-05
1.38017e-05
1.38236e-05
2.83053e-05
2.57265e-05
3.00327e-05
2.57806e-05
2.82985e-05
2.57265e-05
3.00421e-05
3.05327e-05
2.09461e-05
3.05275e-05
2.09276e-05
3.05313e-05
2.09537e-05
3.05279e-05
2.09375e-05
2.82992e-05
2.57787e-05
2.57245e-05
3.00115e-05
2.57271e-05
3.00167e-05
2.83048e-05
2.82988e-05
2.57803e-05
2.57248e-05
3.00318e-05
2.57257e-05
3.0031e-05
2.83033e-05
3.05199e-05
2.08995e-05
2.093e-05
3.05262e-05
3.0519e-05
2.09079e-05
2.09391e-05
3.05242e-05
1.35991e-05
1.3575e-05
1.38476e-05
1.38331e-05
2.58547e-05
2.50855e-05
2.54155e-05
2.51196e-05
2.54428e-05
1.3557e-05
1.35819e-05
1.38146e-05
1.38362e-05
1.37794e-05
1.37644e-05
1.35911e-05
1.35629e-05
2.5362e-05
2.50981e-05
2.58498e-05
2.53387e-05
2.50606e-05
1.37562e-05
1.37675e-05
1.3548e-05
1.35692e-05
2.58501e-05
2.532e-05
2.50307e-05
2.53391e-05
2.50649e-05
3.04494e-05
2.08579e-05
3.04432e-05
2.08447e-05
2.82647e-05
2.9946e-05
2.57251e-05
2.57749e-05
2.82547e-05
2.99517e-05
2.57249e-05
2.82606e-05
2.99429e-05
2.57248e-05
2.57721e-05
2.82513e-05
2.99477e-05
2.57247e-05
3.04541e-05
2.08549e-05
2.08693e-05
3.04635e-05
3.04371e-05
2.08379e-05
2.08462e-05
3.04476e-05
2.82589e-05
2.57732e-05
2.99409e-05
2.57223e-05
2.99396e-05
2.5723e-05
2.82659e-05
2.82549e-05
2.57711e-05
2.99379e-05
2.57218e-05
2.99354e-05
2.57225e-05
2.82618e-05
2.53494e-05
2.50701e-05
2.58378e-05
2.53215e-05
2.50347e-05
1.35569e-05
1.3536e-05
1.37585e-05
1.37673e-05
2.58382e-05
2.53125e-05
2.5014e-05
2.53213e-05
2.50441e-05
1.35257e-05
1.35438e-05
2.82918e-05
2.98139e-05
2.57158e-05
2.57796e-05
2.82836e-05
2.97918e-05
2.57156e-05
3.01279e-05
2.04364e-05
3.01466e-05
2.03958e-05
2.82915e-05
2.57153e-05
2.97972e-05
2.57786e-05
2.82838e-05
2.5715e-05
2.97727e-05
3.01222e-05
2.03958e-05
2.04313e-05
3.0101e-05
2.82721e-05
2.5777e-05
2.97643e-05
2.57125e-05
2.97902e-05
2.57138e-05
2.82792e-05
3.01276e-05
2.03691e-05
2.04027e-05
3.0101e-05
2.82718e-05
2.57755e-05
2.57116e-05
2.97446e-05
2.57129e-05
2.9771e-05
2.82787e-05
3.01051e-05
2.04003e-05
3.01255e-05
2.03688e-05
2.82769e-05
2.57141e-05
2.9771e-05
2.57744e-05
2.827e-05
2.57137e-05
2.97481e-05
3.01062e-05
2.04107e-05
3.01268e-05
2.03763e-05
2.82544e-05
2.57701e-05
2.97263e-05
2.57093e-05
2.9739e-05
2.5712e-05
2.8263e-05
3.01028e-05
2.03549e-05
2.03775e-05
3.00835e-05
2.82566e-05
2.5772e-05
2.57104e-05
2.97308e-05
2.57114e-05
2.9746e-05
2.82646e-05
3.01058e-05
2.03599e-05
2.03845e-05
3.00864e-05
2.50894e-05
2.54094e-05
2.58506e-05
2.50528e-05
2.53788e-05
1.38038e-05
1.37821e-05
1.35369e-05
1.35618e-05
2.58506e-05
2.50223e-05
2.53521e-05
2.50573e-05
2.53789e-05
1.37683e-05
1.37848e-05
2.82905e-05
2.57271e-05
3.00227e-05
2.57813e-05
2.82935e-05
2.57268e-05
3.00126e-05
3.05084e-05
2.08998e-05
3.05114e-05
2.08676e-05
3.05053e-05
2.09088e-05
3.05099e-05
2.08788e-05
2.82783e-05
2.57765e-05
2.57229e-05
2.99654e-05
2.57256e-05
2.99803e-05
2.8277e-05
2.82781e-05
2.57785e-05
2.57235e-05
2.999e-05
2.57242e-05
3.00035e-05
2.8276e-05
3.04978e-05
2.08452e-05
2.08695e-05
3.04816e-05
3.04972e-05
2.08586e-05
2.08794e-05
3.04789e-05
1.35635e-05
1.35411e-05
1.38169e-05
1.37959e-05
2.58508e-05
2.50379e-05
2.53644e-05
2.50656e-05
2.53879e-05
1.35308e-05
1.35485e-05
1.37833e-05
1.3799e-05
1.37594e-05
1.37509e-05
1.35546e-05
1.35374e-05
2.53205e-05
2.50358e-05
2.58408e-05
2.53077e-05
2.50105e-05
1.37517e-05
1.3756e-05
1.35357e-05
1.35454e-05
2.58415e-05
2.53042e-05
2.49996e-05
2.53104e-05
2.50167e-05
3.04409e-05
2.08428e-05
3.04354e-05
2.0836e-05
2.82632e-05
2.99318e-05
2.5725e-05
2.57728e-05
2.82593e-05
2.9935e-05
2.5725e-05
2.82581e-05
2.99284e-05
2.57245e-05
2.57719e-05
2.82551e-05
2.99346e-05
2.57244e-05
3.04527e-05
2.08517e-05
2.08595e-05
3.04622e-05
3.04302e-05