/*--------------------------------*- C++ -*----------------------------------*\
| =========                 |                                                 |
| \\      /  F ield         | OpenFOAM: The Open Source CFD Toolbox           |
|  \\    /   O peration     | Version:  2206                                  |
|   \\  /    A nd           | Website:  www.openfoam.com                      |
|    \\/     M anipulation  |                                                 |
\*---------------------------------------------------------------------------*/
FoamFile
{
    version     2.0;
    format      ascii;
    arch        "LSB;label=32;scalar=64";
    class       volScalarField;
    location    "0.2";
    object      nut;
}
// * * * * * * * * * * * * * * * * * * * * * * * * * * * * * * * * * * * * * //

dimensions      [0 2 -1 0 0 0 0];

internalField   nonuniform List<scalar> 
67442
(
1.2712e-06
1.26279e-06
1.2643e-06
1.24274e-06
1.24244e-06
1.2641e-06
1.2642e-06
1.24192e-06
1.26302e-06
1.2628e-06
1.26278e-06
1.2421e-06
1.26462e-06
7.70973e-08
2.67235e-07
3.53005e-08
7.49002e-08
2.55581e-07
1.27125e-06
1.27125e-06
1.27128e-06
2.79301e-07
1.26738e-06
7.66289e-07
3.4659e-08
1.26862e-06
2.88048e-07
8.12353e-07
1.67125e-07
1.70845e-07
3.53715e-08
3.46965e-08
1.71351e-07
1.67105e-07
7.68692e-08
2.66841e-07
2.88304e-07
1.26858e-06
8.12778e-07
2.87835e-07
1.26855e-06
8.12567e-07
1.70712e-07
1.67223e-07
3.46054e-08
2.79568e-07
1.26742e-06
7.6642e-07
7.47697e-08
2.55576e-07
1.26733e-06
2.79379e-07
7.66415e-07
7.46289e-08
2.55319e-07
1.26734e-06
2.79298e-07
7.66338e-07
7.45865e-08
2.55312e-07
1.66969e-07
1.71031e-07
3.53062e-08
1.26863e-06
2.88055e-07
8.12323e-07
7.68719e-08
2.66837e-07
7.68984e-08
2.66865e-07
3.4595e-08
3.5336e-08
3.05466e-08
7.72131e-08
1.56876e-07
1.57252e-07
3.04895e-08
5.56777e-08
2.67531e-07
6.55448e-08
2.27115e-07
6.56384e-08
2.27446e-07
5.55988e-08
3.53721e-08
5.39555e-08
2.55897e-07
2.17753e-07
6.3231e-08
2.97092e-08
7.51339e-08
1.50351e-07
1.50827e-07
2.96126e-08
2.96429e-08
7.49905e-08
1.50485e-07
5.40826e-08
2.55812e-07
2.17525e-07
6.31626e-08
2.17892e-07
6.33703e-08
5.38978e-08
3.47526e-08
3.46985e-08
2.23073e-07
4.4414e-07
1.67664e-07
6.92126e-08
4.40923e-07
6.94738e-08
2.23054e-07
2.25942e-07
4.51431e-07
1.71295e-07
6.94162e-08
4.49003e-07
6.96232e-08
2.25937e-07
1.01962e-07
3.12873e-08
3.13205e-08
3.13072e-08
3.14322e-08
1.01555e-07
3.54332e-08
3.47964e-08
3.47321e-08
2.24981e-07
4.52527e-07
1.71794e-07
7.0136e-08
7.03224e-08
4.50161e-07
2.24999e-07
2.24396e-07
4.43158e-07
1.67597e-07
6.86819e-08
6.89213e-08
4.40041e-07
2.24399e-07
1.02014e-07
3.15301e-08
3.11752e-08
3.15071e-08
3.11884e-08
1.01623e-07
3.04731e-08
7.70254e-08
1.56347e-07
1.56717e-07
3.04152e-08
5.55783e-08
2.67124e-07
6.54043e-08
2.26683e-07
6.55282e-08
2.2701e-07
5.54795e-08
2.25328e-07
4.50753e-07
1.71138e-07
6.94223e-08
6.96211e-08
4.48974e-07
2.25675e-07
2.23198e-07
4.44212e-07
1.67792e-07
6.91816e-08
4.40388e-07
6.94603e-08
2.22648e-07
1.02072e-07
3.13594e-08
3.13001e-08
3.14751e-08
3.13124e-08
1.01639e-07
3.47243e-08
5.39357e-08
2.5588e-07
6.32203e-08
2.1766e-07
2.96862e-08
7.50066e-08
1.50169e-07
1.50645e-07
2.95897e-08
2.96205e-08
7.48754e-08
1.50308e-07
5.4064e-08
2.55804e-07
6.31499e-08
2.17445e-07
6.33586e-08
2.17814e-07
5.38797e-08
2.96441e-08
7.48914e-08
1.49973e-07
1.50489e-07
2.95407e-08
5.39776e-08
2.55535e-07
2.1716e-07
6.30201e-08
2.17569e-07
6.3249e-08
5.37779e-08
2.96421e-08
7.48466e-08
1.49942e-07
1.50454e-07
2.95368e-08
5.39789e-08
2.55525e-07
6.30138e-08
2.17147e-07
6.32429e-08
2.1755e-07
5.37786e-08
2.2458e-07
4.42726e-07
1.67461e-07
6.88262e-08
6.90364e-08
4.40222e-07
2.24567e-07
2.2453e-07
4.52738e-07
1.715e-07
7.0088e-08
4.49794e-07
7.03142e-08
2.24438e-07
1.02459e-07
3.12926e-08
3.15796e-08
3.1316e-08
3.1671e-08
1.0212e-07
3.5386e-08
3.04744e-08
7.70222e-08
1.56351e-07
1.56725e-07
3.04155e-08
5.55677e-08
2.67129e-07
2.26677e-07
6.5382e-08
2.27005e-07
6.55004e-08
5.54696e-08
3.04734e-08
7.70522e-08
1.56365e-07
1.56741e-07
3.04138e-08
5.55669e-08
2.67168e-07
2.26693e-07
6.53775e-08
2.27014e-07
6.54947e-08
5.54691e-08
3.47045e-08
3.54145e-08
1.27408e-06
1.27382e-06
1.27559e-06
5.43148e-07
1.14409e-06
1.16371e-06
1.24241e-06
1.1176e-06
1.14275e-06
5.49749e-07
5.43453e-07
1.1585e-06
1.14946e-06
1.24237e-06
1.13785e-06
1.12278e-06
5.49988e-07
5.42683e-07
1.15476e-06
1.15274e-06
1.24159e-06
1.12389e-06
1.13494e-06
5.4941e-07
5.43391e-07
1.14081e-06
1.16427e-06
1.24191e-06
1.14536e-06
1.11563e-06
5.49875e-07
1.27412e-06
1.27387e-06
1.27564e-06
1.27388e-06
1.27411e-06
1.27563e-06
1.27387e-06
1.27413e-06
1.27564e-06
1.20355e-06
8.32235e-07
2.79359e-07
4.39791e-07
8.17971e-07
4.37754e-07
1.20446e-06
1.23678e-06
7.5398e-07
6.4419e-07
1.24537e-06
6.35796e-07
1.24499e-06
1.237e-06
1.21643e-06
8.60327e-07
2.88218e-07
4.59578e-07
8.52618e-07
4.59076e-07
1.21628e-06
1.24525e-06
8.08232e-07
1.25142e-06
6.80482e-07
1.25131e-06
6.7748e-07
1.24513e-06
1.21605e-06
8.62676e-07
2.88515e-07
4.59861e-07
4.5944e-07
8.5563e-07
1.21593e-06
1.24526e-06
8.08717e-07
6.80838e-07
1.25133e-06
6.78078e-07
1.2513e-06
1.24508e-06
1.21564e-06
8.61147e-07
2.881e-07
4.59374e-07
4.58916e-07
8.54615e-07
1.21571e-06
1.24484e-06
8.08293e-07
6.80549e-07
1.25124e-06
6.77572e-07
1.2511e-06
1.24467e-06
1.20494e-06
8.31258e-07
2.7965e-07
4.40158e-07
4.3818e-07
8.17572e-07
1.20586e-06
1.23746e-06
7.54225e-07
6.44461e-07
1.24579e-06
6.36048e-07
1.24515e-06
1.23805e-06
1.20413e-06
8.33186e-07
2.79507e-07
4.39852e-07
4.37935e-07
8.20197e-07
1.20508e-06
1.23698e-06
7.54228e-07
1.24563e-06
6.44302e-07
1.24499e-06
6.35979e-07
1.23762e-06
1.20308e-06
8.34467e-07
2.79381e-07
4.39727e-07
8.20738e-07
4.37681e-07
1.20398e-06
1.23654e-06
7.5402e-07
1.24523e-06
6.44219e-07
1.24487e-06
6.35794e-07
1.23677e-06
1.21618e-06
8.59114e-07
2.88252e-07
4.59586e-07
8.51767e-07
4.59029e-07
1.2162e-06
1.24505e-06
8.08304e-07
1.25141e-06
6.80501e-07
1.2513e-06
6.77481e-07
1.24489e-06
5.46899e-09
6.06398e-10
4.21422e-11
5.31213e-12
4.60598e-12
5.54087e-09
6.12866e-10
4.30494e-11
5.70893e-12
5.01698e-12
5.41255e-09
6.00016e-10
4.17435e-11
5.31058e-12
4.61593e-12
5.50357e-09
6.08797e-10
4.27949e-11
5.70991e-12
5.02548e-12
5.54804e-09
6.13685e-10
4.31009e-11
5.71423e-12
5.02118e-12
5.50979e-09
6.09417e-10
4.28284e-11
5.70946e-12
5.02423e-12
5.45355e-09
6.04744e-10
4.2041e-11
5.308e-12
4.60426e-12
5.4942e-09
6.07814e-10
4.27444e-11
5.71083e-12
5.0275e-12
5.40425e-09
5.99167e-10
4.16909e-11
5.30846e-12
4.61522e-12
5.39517e-09
5.98288e-10
4.16497e-11
5.31002e-12
4.61754e-12
5.39352e-09
5.98071e-10
4.16388e-11
5.31075e-12
4.61857e-12
5.54276e-09
6.13211e-10
4.30807e-11
5.71339e-12
5.02076e-12
5.45435e-09
6.0485e-10
4.20498e-11
5.3093e-12
4.60534e-12
5.45639e-09
6.05087e-10
4.20659e-11
5.30908e-12
4.60482e-12
5.49279e-09
6.07617e-10
4.27297e-11
5.70867e-12
5.02566e-12
5.5493e-09
6.13823e-10
4.31113e-11
5.71146e-12
5.01798e-12
5.36773e-09
5.92952e-10
4.1778e-11
5.68373e-12
5.02523e-12
5.4779e-09
6.07536e-10
4.22208e-11
5.32138e-12
4.61391e-12
5.54652e-09
6.13603e-10
4.3095e-11
5.71499e-12
5.02258e-12
5.12471e-09
5.67163e-10
3.99266e-11
5.48027e-12
4.8544e-12
5.30176e-09
5.89025e-10
4.14153e-11
5.57178e-12
4.91306e-12
5.29458e-09
5.84829e-10
4.12572e-11
5.66455e-12
5.01895e-12
5.42048e-09
6.01093e-10
4.18183e-11
5.31759e-12
4.62142e-12
5.42086e-09
6.01166e-10
4.18199e-11
5.31275e-12
4.61594e-12
5.50662e-09
6.0945e-10
4.28448e-11
5.71507e-12
5.0296e-12
5.50909e-09
6.09702e-10
4.28567e-11
5.71162e-12
5.02538e-12
5.42238e-09
6.00592e-10
4.18289e-11
5.35608e-12
4.66318e-12
5.42649e-09
6.01106e-10
4.18589e-11
5.35919e-12
4.66591e-12
5.42416e-09
6.00845e-10
4.18388e-11
5.35123e-12
4.65752e-12
5.4294e-09
6.01467e-10
4.18758e-11
5.35547e-12
4.66133e-12
5.14687e-09
5.69358e-10
4.03308e-11
5.68029e-12
5.06216e-12
5.14536e-09
5.69114e-10
4.03127e-11
5.67805e-12
5.06029e-12
5.15202e-09
5.69894e-10
4.03604e-11
5.68364e-12
5.06518e-12
5.15077e-09
5.69692e-10
4.03452e-11
5.68193e-12
5.06382e-12
5.55335e-09
6.14598e-10
4.31672e-11
5.72116e-12
5.02684e-12
5.51274e-09
6.10063e-10
4.28778e-11
5.71438e-12
5.02807e-12
5.51528e-09
6.10336e-10
4.28912e-11
5.71132e-12
5.02425e-12
5.46289e-09
6.05803e-10
4.21077e-11
5.31656e-12
4.61208e-12
5.42101e-09
6.00465e-10
4.18253e-11
5.35671e-12
4.66392e-12
5.42589e-09
6.00991e-10
4.18545e-11
5.35974e-12
4.66658e-12
5.14989e-09
5.69691e-10
4.03531e-11
5.68056e-12
5.06187e-12
5.15435e-09
5.70164e-10
4.03795e-11
5.68423e-12
5.06535e-12
5.49967e-09
6.08454e-10
4.27821e-11
5.71512e-12
5.0313e-12
5.1234e-09
5.67007e-10
3.99177e-11
5.4804e-12
4.85474e-12
5.30098e-09
5.88939e-10
4.14098e-11
5.57158e-12
4.91296e-12
5.29025e-09
5.84349e-10
4.12268e-11
5.66283e-12
5.01801e-12
5.41249e-09
6.00288e-10
4.17688e-11
5.31553e-12
4.62068e-12
5.41342e-09
6.00411e-10
4.17734e-11
5.3107e-12
4.61514e-12
5.40226e-09
5.99109e-10
4.17005e-11
5.31608e-12
4.62298e-12
5.28403e-09
5.834e-10
4.11668e-11
5.66305e-12
5.01979e-12
5.40021e-09
5.98849e-10
4.16872e-11
5.3167e-12
4.62392e-12
5.45144e-09
6.03912e-10
4.20428e-11
5.36083e-12
4.66194e-12
5.45521e-09
6.04353e-10
4.20676e-11
5.36408e-12
4.66499e-12
5.17882e-09
5.72584e-10
4.05322e-11
5.6862e-12
5.06273e-12
5.54746e-09
6.13837e-10
4.31193e-11
5.7192e-12
5.02627e-12
5.35497e-09
5.91338e-10
4.16765e-11
5.68069e-12
5.02479e-12
5.46343e-09
6.05901e-10
4.21168e-11
5.31804e-12
4.61332e-12
5.35506e-09
5.91379e-10
4.1679e-11
5.68023e-12
5.02429e-12
5.4655e-09
6.06136e-10
4.21328e-11
5.31776e-12
4.61273e-12
5.4967e-09
6.08129e-10
4.27596e-11
5.71266e-12
5.02935e-12
5.55467e-09
6.14562e-10
4.31578e-11
5.71757e-12
5.0236e-12
5.35477e-09
5.9134e-10
4.16749e-11
5.68048e-12
5.02468e-12
5.28416e-09
5.83415e-10
4.11672e-11
5.66211e-12
5.01886e-12
5.15355e-09
5.70578e-10
4.01323e-11
5.47481e-12
4.8426e-12
5.34911e-09
5.94276e-10
4.17308e-11
5.56206e-12
4.89355e-12
5.35435e-09
5.9508e-10
4.17887e-11
5.56765e-12
4.89794e-12
5.14949e-09
5.69883e-10
4.00828e-11
5.46926e-12
4.83779e-12
5.36098e-09
5.92049e-10
4.17162e-11
5.67462e-12
5.01667e-12
5.42463e-09
6.00956e-10
4.18516e-11
5.35331e-12
4.65927e-12
5.42907e-09
6.01526e-10
4.18859e-11
5.35756e-12
4.66314e-12
5.15152e-09
5.69785e-10
4.03598e-11
5.68206e-12
5.06307e-12
5.15623e-09
5.70297e-10
4.03888e-11
5.68573e-12
5.06647e-12
5.29204e-09
5.8425e-10
4.12126e-11
5.65904e-12
5.01403e-12
5.12092e-09
5.66733e-10
3.98999e-11
5.48066e-12
4.85552e-12
5.29523e-09
5.88106e-10
4.13542e-11
5.57014e-12
4.91305e-12
5.29726e-09
5.88508e-10
4.1384e-11
5.57188e-12
4.91386e-12
5.11946e-09
5.66383e-10
3.98749e-11
5.47897e-12
4.85439e-12
5.29715e-09
5.85042e-10
4.12683e-11
5.66068e-12
5.01403e-12
5.41556e-09
5.99762e-10
4.1771e-11
5.35419e-12
4.66285e-12
5.4209e-09
6.00645e-10
4.18352e-11
5.35917e-12
4.66635e-12
5.15487e-09
5.69878e-10
4.03485e-11
5.67936e-12
5.06098e-12
5.157e-09
5.70446e-10
4.03921e-11
5.68315e-12
5.06374e-12
5.45127e-09
6.03688e-10
4.20136e-11
5.35748e-12
4.65953e-12
5.45792e-09
6.0467e-10
4.20827e-11
5.363e-12
4.66353e-12
5.16824e-09
5.71497e-10
4.0453e-11
5.68091e-12
5.05983e-12
5.17076e-09
5.72082e-10
4.04985e-11
5.68567e-12
5.06361e-12
5.40387e-09
5.98554e-10
4.16951e-11
5.35201e-12
4.66279e-12
5.40892e-09
5.99348e-10
4.1752e-11
5.35612e-12
4.66553e-12
5.13703e-09
5.68107e-10
4.02419e-11
5.67676e-12
5.06122e-12
5.13901e-09
5.68603e-10
4.02808e-11
5.68072e-12
5.06429e-12
5.1447e-09
5.69409e-10
4.0059e-11
5.4743e-12
4.84406e-12
5.34017e-09
5.93388e-10
4.1687e-11
5.56322e-12
4.89561e-12
5.34585e-09
5.94035e-10
4.17261e-11
5.56793e-12
4.89985e-12
5.13979e-09
5.6887e-10
4.00289e-11
5.46969e-12
4.83942e-12
5.3471e-09
5.90484e-10
4.16227e-11
5.672e-12
5.01626e-12
5.11973e-09
5.6659e-10
3.98919e-11
5.48083e-12
4.85588e-12
5.29432e-09
5.88009e-10
4.13481e-11
5.56991e-12
4.91295e-12
5.2964e-09
5.88416e-10
4.13781e-11
5.57165e-12
4.91375e-12
5.11834e-09
5.66246e-10
3.9867e-11
5.47911e-12
4.85473e-12
5.28761e-09
5.83752e-10
4.11812e-11
5.65729e-12
5.01308e-12
5.29297e-09
5.84574e-10
4.12386e-11
5.65894e-12
5.01305e-12
5.27972e-09
5.82891e-10
4.11375e-11
5.65727e-12
5.01395e-12
5.11151e-09
5.65444e-10
3.98157e-11
5.47654e-12
4.85357e-12
5.28336e-09
5.86811e-10
4.12804e-11
5.56684e-12
4.91134e-12
5.2875e-09
5.87232e-10
4.13023e-11
5.56798e-12
4.91203e-12
5.10736e-09
5.65044e-10
3.97974e-11
5.4754e-12
4.85251e-12
5.11199e-09
5.65496e-10
3.98172e-11
5.47692e-12
4.8539e-12
5.28278e-09
5.8677e-10
4.12746e-11
5.56647e-12
4.9111e-12
5.28691e-09
5.87192e-10
4.12966e-11
5.5676e-12
4.91178e-12
5.10784e-09
5.65094e-10
3.97987e-11
5.4758e-12
4.85289e-12
5.27945e-09
5.82887e-10
4.11384e-11
5.65836e-12
5.01496e-12
5.18393e-09
5.73232e-10
4.05714e-11
5.69078e-12
5.06682e-12
5.34721e-09
5.90457e-10
4.16226e-11
5.67196e-12
5.01614e-12
5.1438e-09
5.69281e-10
4.00503e-11
5.47331e-12
4.84318e-12
5.33878e-09
5.93228e-10
4.16761e-11
5.5628e-12
4.89541e-12
5.34358e-09
5.93786e-10
4.17083e-11
5.56653e-12
4.89887e-12
5.13884e-09
5.68741e-10
4.00212e-11
5.46947e-12
4.83924e-12
5.3472e-09
5.90487e-10
4.16244e-11
5.67156e-12
5.01573e-12
5.14356e-09
5.69292e-10
4.00515e-11
5.47393e-12
4.84387e-12
5.33834e-09
5.93198e-10
4.16753e-11
5.56286e-12
4.89554e-12
5.34307e-09
5.93753e-10
4.17084e-11
5.56755e-12
4.89994e-12
5.13875e-09
5.68765e-10
4.00221e-11
5.46923e-12
4.83907e-12
1.2628e-06
1.24193e-06
1.26431e-06
1.27127e-06
2.55501e-07
1.26743e-06
7.53914e-07
7.48722e-08
2.55506e-07
1.26734e-06
2.79204e-07
7.53923e-07
3.46945e-08
1.67168e-07
5.38015e-08
2.55278e-07
2.17604e-07
6.32636e-08
2.17189e-07
6.30336e-08
5.40002e-08
2.95421e-08
7.46123e-08
1.50462e-07
1.4994e-07
2.9645e-08
5.37832e-08
2.55287e-07
6.32468e-08
2.17538e-07
6.30149e-08
2.1712e-07
5.39823e-08
3.4588e-08
2.23873e-07
4.39711e-07
1.66644e-07
6.89015e-08
4.42443e-07
6.86712e-08
2.24246e-07
2.24404e-07
4.49563e-07
4.52464e-07
2.24114e-07
1.02143e-07
3.13269e-08
3.12118e-08
1.02487e-07
5.49524e-07
1.24236e-06
1.11451e-06
1.14464e-06
1.14002e-06
1.16393e-06
5.42944e-07
1.27383e-06
1.2756e-06
1.2739e-06
1.27413e-06
1.27564e-06
1.23719e-06
7.66242e-07
6.35725e-07
1.24498e-06
6.44255e-07
1.24526e-06
1.23706e-06
1.20414e-06
8.19798e-07
2.79079e-07
4.37597e-07
4.3959e-07
8.33042e-07
1.20357e-06
1.23677e-06
7.66244e-07
1.24482e-06
6.35667e-07
1.2451e-06
6.44101e-07
1.2366e-06
1.21628e-06
8.524e-07
8.60143e-07
1.21648e-06
1.24219e-06
1.26409e-06
1.263e-06
1.27121e-06
3.53725e-08
3.47362e-08
1.71422e-07
1.67398e-07
7.70905e-08
2.6724e-07
2.8818e-07
1.26859e-06
8.08463e-07
7.50002e-08
2.79344e-07
3.52971e-08
3.46219e-08
2.24707e-07
4.49809e-07
1.70967e-07
7.01828e-08
6.9972e-08
4.52257e-07
2.24706e-07
2.24102e-07
4.39705e-07
1.66865e-07
6.87772e-08
6.8511e-08
4.42879e-07
2.24116e-07
1.01458e-07
3.1515e-08
3.1193e-08
3.1446e-08
3.10918e-08
1.01865e-07
3.04455e-08
7.69424e-08
1.56928e-07
1.56542e-07
3.05005e-08
5.55075e-08
2.6695e-07
6.55267e-08
2.27171e-07
6.54155e-08
2.26837e-07
5.56031e-08
2.95644e-08
7.47354e-08
1.50643e-07
1.50124e-07
2.96678e-08
5.49739e-07
1.24254e-06
1.1373e-06
1.12223e-06
1.15804e-06
1.14899e-06
5.43123e-07
1.27409e-06
1.21567e-06
8.55291e-07
2.87976e-07
4.59094e-07
8.62511e-07
4.59561e-07
1.2159e-06
1.24483e-06
8.12656e-07
6.77785e-07
1.25123e-06
6.80683e-07
1.25121e-06
1.24517e-06
1.20491e-06
8.17224e-07
2.79255e-07
4.37836e-07
8.31053e-07
4.39901e-07
1.20438e-06
5.40133e-09
5.98817e-10
4.16723e-11
5.31293e-12
4.6208e-12
5.49838e-09
6.08206e-10
4.27617e-11
5.71295e-12
5.02981e-12
5.27831e-09
5.82738e-10
4.11263e-11
5.65624e-12
5.01323e-12
5.39399e-09
5.98116e-10
4.16333e-11
5.30743e-12
4.61542e-12
5.49318e-09
6.07693e-10
4.2735e-11
5.70892e-12
5.02576e-12
5.10926e-09
5.65319e-10
3.98154e-11
5.47773e-12
4.8545e-12
5.28917e-09
5.87396e-10
4.13104e-11
5.56972e-12
4.91386e-12
5.28443e-09
5.86974e-10
4.12912e-11
5.56893e-12
4.91315e-12
5.11334e-09
5.65728e-10
3.98365e-11
5.47916e-12
4.8555e-12
5.10804e-09
5.65176e-10
3.98076e-11
5.47793e-12
4.85485e-12
5.28808e-09
5.87288e-10
4.13038e-11
5.56947e-12
4.91375e-12
5.28323e-09
5.86863e-10
4.12844e-11
5.56868e-12
4.91305e-12
5.11219e-09
5.6559e-10
3.98289e-11
5.47934e-12
4.85585e-12
5.28294e-09
5.83314e-10
4.11607e-11
5.66134e-12
5.01802e-12
5.40842e-09
5.98906e-10
4.17192e-11
5.35556e-12
4.66585e-12
5.39813e-09
5.97791e-10
4.16535e-11
5.35159e-12
4.66303e-12
5.14769e-09
5.69094e-10
4.03036e-11
5.6813e-12
5.06439e-12
5.13979e-09
5.68195e-10
4.02506e-11
5.67794e-12
5.06185e-12
5.54408e-09
6.13238e-10
4.3077e-11
5.71863e-12
5.02682e-12
5.50355e-09
6.08684e-10
4.27854e-11
5.71179e-12
5.02806e-12
5.46791e-09
6.06213e-10
4.21353e-11
5.319e-12
4.61389e-12
5.40973e-09
5.99679e-10
4.17261e-11
5.31505e-12
4.62141e-12
5.53808e-09
6.12598e-10
4.3041e-11
5.71307e-12
5.02129e-12
5.49746e-09
6.0809e-10
4.27541e-11
5.70794e-12
5.02434e-12
5.35236e-09
5.91002e-10
4.16568e-11
5.6734e-12
5.01677e-12
5.45819e-09
6.05248e-10
4.20786e-11
5.3109e-12
4.60607e-12
5.40192e-09
5.9892e-10
4.16832e-11
5.30942e-12
4.61603e-12
5.16203e-09
5.70831e-10
4.04157e-11
5.68333e-12
5.06359e-12
5.1304e-09
5.67382e-10
4.02e-11
5.67844e-12
5.06427e-12
5.28256e-09
5.83217e-10
4.11569e-11
5.65798e-12
5.01414e-12
5.28727e-09
5.83803e-10
4.11917e-11
5.66305e-12
5.01892e-12
5.4463e-09
6.0314e-10
4.19832e-11
5.3603e-12
4.66352e-12
5.44009e-09
6.02548e-10
4.19511e-11
5.35623e-12
4.65963e-12
5.3982e-09
5.97889e-10
4.16557e-11
5.35349e-12
4.66552e-12
5.39263e-09
5.97356e-10
4.1628e-11
5.35064e-12
4.66289e-12
5.12396e-09
5.66827e-10
4.01719e-11
5.67536e-12
5.06133e-12
5.15536e-09
5.70234e-10
4.03848e-11
5.67959e-12
5.05994e-12
5.14175e-09
5.69014e-10
4.00352e-11
5.46835e-12
4.83788e-12
5.34532e-09
5.93847e-10
4.17081e-11
5.56546e-12
4.89796e-12
5.3401e-09
5.93326e-10
4.16799e-11
5.56117e-12
4.89363e-12
5.14639e-09
5.69583e-10
4.00695e-11
5.47336e-12
4.84259e-12
5.35968e-09
5.9191e-10
4.17148e-11
5.68231e-12
5.0252e-12
1.24175e-06
1.27081e-06
1.26236e-06
1.26381e-06
1.24163e-06
1.24146e-06
1.2414e-06
1.26417e-06
1.26378e-06
1.24097e-06
1.2626e-06
1.26221e-06
1.26228e-06
1.24061e-06
1.26416e-06
1.67361e-07
1.71015e-07
1.24148e-06
1.67735e-07
1.7128e-07
2.61926e-07
7.69301e-08
2.66969e-07
3.53269e-08
3.51437e-08
7.47747e-08
2.5583e-07
1.27085e-06
1.27083e-06
1.27086e-06
2.79705e-07
1.26697e-06
1.26253e-06
7.62188e-07
3.46185e-08
1.26821e-06
2.88531e-07
8.12224e-07
1.67481e-07
1.71093e-07
3.4604e-08
3.46724e-08
3.53334e-08
3.53676e-08
1.24207e-06
1.67694e-07
1.71275e-07
1.67355e-07
1.70991e-07
3.46615e-08
3.46222e-08
3.53608e-08
3.53445e-08
3.53121e-08
3.46448e-08
1.71161e-07
1.66907e-07
2.61869e-07
7.68971e-08
7.63728e-08
2.66884e-07
7.82102e-07
2.88225e-07
1.26821e-06
1.26798e-06
8.10017e-07
7.81986e-07
2.88086e-07
1.2682e-06
1.26368e-06
2.85655e-07
1.26795e-06
8.09918e-07
1.7089e-07
1.67253e-07
1.2409e-06
1.70354e-07
3.46195e-08
2.79666e-07
1.26701e-06
7.62157e-07
7.46831e-08
2.55829e-07
1.2669e-06
2.79491e-07
7.62172e-07
7.46597e-08
2.55865e-07
1.26692e-06
2.79717e-07
7.62255e-07
7.46723e-08
2.55854e-07
1.66904e-07
1.71309e-07
3.53238e-08
1.26824e-06
2.88481e-07
8.1219e-07
7.68844e-08
2.6749e-07
7.69162e-08
2.67486e-07
3.46378e-08
3.53498e-08
1.01515e-07
3.10989e-08
3.12621e-08
3.11237e-08
3.12844e-08
1.01765e-07
2.23504e-07
4.44372e-07
6.92116e-08
1.67757e-07
6.93775e-08
2.23491e-07
4.42057e-07
2.26353e-07
4.51699e-07
6.9394e-08
1.71302e-07
6.95127e-08
2.26356e-07
4.49966e-07
1.01791e-07
3.11039e-08
3.1265e-08
3.11139e-08
3.12777e-08
1.01499e-07
2.23448e-07
6.93746e-08
1.67369e-07
4.42336e-07
6.9222e-08
2.2349e-07
4.44209e-07
2.26315e-07
6.95129e-08
1.70997e-07
4.50239e-07
6.94018e-08
2.26346e-07
4.51543e-07
5.48828e-08
6.44301e-08
2.22924e-07
2.63323e-07
6.47014e-08
2.24058e-07
5.46801e-08
3.03625e-08
7.69198e-08
1.56874e-07
1.5628e-07
3.04341e-08
3.02264e-08
7.67042e-08
1.55473e-07
5.52608e-08
2.66362e-07
6.53146e-08
2.2699e-07
6.51121e-08
2.265e-07
5.54167e-08
3.53539e-08
3.52426e-08
2.9613e-08
7.47961e-08
1.50156e-07
1.50371e-07
2.95894e-08
5.38908e-08
2.56015e-07
2.17728e-07
6.30781e-08
2.17904e-07
6.31068e-08
5.38564e-08
3.46249e-08
2.2352e-07
4.4354e-07
6.92782e-08
1.67633e-07
2.23476e-07
4.43055e-07
6.93067e-08
2.26413e-07
4.51017e-07
6.94524e-08
1.71211e-07
2.26351e-07
4.50905e-07
6.94611e-08
1.01744e-07
3.11042e-08
3.12665e-08
1.01613e-07
3.10892e-08
3.12557e-08
3.46705e-08
3.46133e-08
3.53675e-08
3.5338e-08
1.01745e-07
3.11187e-08
3.12801e-08
1.01527e-07
3.10997e-08
3.12634e-08
2.23482e-07
4.42854e-07
6.93513e-08
1.67408e-07
2.23523e-07
6.92607e-08
4.43789e-07
2.26342e-07
4.50705e-07
6.94994e-08
1.71057e-07
2.26391e-07
6.94411e-08
4.51207e-07
1.01552e-07
3.10893e-08
3.12535e-08
1.01716e-07
3.11102e-08
3.12714e-08
2.23528e-07
6.92373e-08
4.43968e-07
1.67697e-07
2.23465e-07
6.93675e-08
4.42473e-07
2.26387e-07
6.94187e-08
4.51356e-07
1.71279e-07
2.26335e-07
6.95129e-08
4.50364e-07
3.46313e-08
3.46695e-08
3.53532e-08
3.53678e-08
3.53343e-08
3.52373e-08
3.46565e-08
2.25132e-07
4.5209e-07
1.7149e-07
6.99807e-08
7.00477e-08
4.51356e-07
2.25168e-07
2.24535e-07
4.42425e-07
1.67171e-07
6.8563e-08
6.86258e-08
4.41633e-07
2.24522e-07
1.70939e-07
4.5154e-07
1.01751e-07
3.13099e-08
3.10029e-08
3.12965e-08
3.09858e-08
1.01487e-07
5.48761e-08
6.44285e-08
2.22833e-07
2.63269e-07
6.46971e-08
2.23966e-07
5.4669e-08
3.03579e-08
7.69344e-08
1.56602e-07
1.56328e-07
3.03982e-08
3.01792e-08
1.54332e-07
7.6594e-08
1.55081e-07
3.01098e-08
5.52408e-08
2.66267e-07
6.53085e-08
2.26874e-07
6.51039e-08
2.26388e-07
5.54101e-08
1.02085e-07
3.14014e-08
3.13801e-08
3.11915e-08
2.25636e-07
4.50433e-07
1.71254e-07
6.94489e-08
6.9499e-08
4.50657e-07
2.26071e-07
2.23635e-07
4.43802e-07
1.67477e-07
6.92349e-08
4.42132e-07
6.9322e-08
2.23062e-07
2.24624e-07
6.96135e-08
1.7063e-07
4.48501e-07
6.95942e-08
4.49351e-07
2.25025e-07
2.24547e-07
1.67257e-07
4.4402e-07
6.92136e-08
1.01971e-07
3.13118e-08
3.11279e-08
3.12961e-08
3.1138e-08
1.01725e-07
3.46389e-08
3.46357e-08
2.95924e-08
7.47068e-08
1.49995e-07
1.50241e-07
2.95691e-08
5.38742e-08
2.56014e-07
6.30648e-08
2.17665e-07
6.30961e-08
2.17847e-07
5.38401e-08
5.38736e-08
2.5582e-07
2.17688e-07
6.31076e-08
2.95811e-08
7.46862e-08
1.50001e-07
1.50161e-07
2.9567e-08
2.9582e-08
7.47013e-08
1.50061e-07
5.38707e-08
2.56036e-07
2.17695e-07
6.30739e-08
2.17882e-07
6.31071e-08
5.38438e-08
5.38729e-08
2.55811e-07
6.31012e-08
2.17677e-07
2.95851e-08
7.46992e-08
1.50006e-07
1.50164e-07
2.95699e-08
2.95866e-08
7.46891e-08
1.50064e-07
5.38705e-08
2.56023e-07
6.30666e-08
2.17685e-07
6.31005e-08
2.17865e-07
5.38423e-08
2.24312e-07
4.41593e-07
1.67178e-07
6.8669e-08
6.86722e-08
4.41511e-07
2.24239e-07
2.24637e-07
4.51807e-07
1.71458e-07
7.01656e-08
4.51259e-07
7.01728e-08
2.24391e-07
1.0197e-07
3.10868e-08
3.14177e-08
3.1052e-08
3.13728e-08
1.01946e-07
3.53331e-08
3.04413e-08
7.68993e-08
1.56665e-07
1.56785e-07
3.04187e-08
5.54974e-08
2.67724e-07
2.27191e-07
6.53722e-08
2.2745e-07
6.54163e-08
5.54578e-08
3.04429e-08
7.69306e-08
1.56686e-07
1.56802e-07
3.04195e-08
5.55048e-08
2.67729e-07
2.27209e-07
6.53664e-08
2.2746e-07
6.54156e-08
5.54634e-08
3.46464e-08
3.46301e-08
3.53544e-08
5.4471e-07
1.14078e-06
1.16096e-06
1.24146e-06
5.49559e-07
1.12076e-06
1.14559e-06
1.27371e-06
1.27341e-06
1.27523e-06
5.4681e-07
1.13181e-06
1.15352e-06
1.24159e-06
5.47574e-07
1.12835e-06
1.15253e-06
5.48303e-07
1.2419e-06
1.12835e-06
1.15193e-06
5.46035e-07
1.1373e-06
1.15755e-06
5.4556e-07
1.15245e-06
1.13871e-06
1.2414e-06
1.14349e-06
1.13112e-06
5.48608e-07
5.4536e-07
1.14886e-06
1.14267e-06
1.24074e-06
1.1327e-06
1.14178e-06
5.48451e-07
5.46221e-07
1.12768e-06
1.1563e-06
1.2406e-06
1.15428e-06
1.12511e-06
5.46993e-07
5.49138e-07
1.24175e-06
1.12345e-06
1.14773e-06
5.44999e-07
1.1406e-06
1.1605e-06
1.27373e-06
1.27345e-06
1.27525e-06
1.27345e-06
1.27371e-06
1.27526e-06
1.27345e-06
1.2737e-06
1.27525e-06
1.20093e-06
8.25622e-07
2.79943e-07
4.39362e-07
8.24282e-07
4.39432e-07
1.20219e-06
1.20232e-06
2.79666e-07
8.2622e-07
4.38977e-07
1.23506e-06
7.59766e-07
6.4156e-07
1.24424e-06
6.40148e-07
1.24357e-06
1.23603e-06
1.21341e-06
8.5505e-07
2.88885e-07
4.59507e-07
8.57637e-07
4.60506e-07
1.21431e-06
1.24352e-06
8.10069e-07
1.25037e-06
6.79904e-07
1.25039e-06
6.79809e-07
1.24386e-06
5.45536e-07
1.24168e-06
1.13745e-06
1.15819e-06
5.48794e-07
1.12355e-06
1.14816e-06
1.24033e-06
6.58318e-07
1.24523e-06
7.91265e-07
6.65804e-07
1.24716e-06
1.23748e-06
1.2145e-06
8.57868e-07
2.88936e-07
4.5985e-07
4.59667e-07
8.6189e-07
1.21353e-06
1.20802e-06
2.87049e-07
4.54522e-07
8.53641e-07
1.24341e-06
8.05935e-07
6.80097e-07
1.25052e-06
6.76541e-07
1.2497e-06
1.24378e-06
1.24056e-06
6.5826e-07
1.24519e-06
7.91183e-07
6.65658e-07
1.24714e-06
1.23723e-06
1.2142e-06
8.56386e-07
2.89034e-07
4.5972e-07
4.59633e-07
8.61481e-07
1.21369e-06
1.21251e-06
4.51008e-07
2.86657e-07
8.4781e-07
4.54229e-07
1.2044e-06
8.51333e-07
1.24331e-06
8.05803e-07
6.79966e-07
1.25046e-06
6.76388e-07
1.24965e-06
1.24372e-06
5.47671e-07
1.24104e-06
1.14014e-06
1.14151e-06
1.14272e-06
1.14683e-06
5.46182e-07
1.20122e-06
8.24291e-07
2.7997e-07
4.39505e-07
4.39616e-07
8.23864e-07
1.20269e-06
1.23527e-06
7.59713e-07
6.41656e-07
1.24416e-06
6.40124e-07
1.2435e-06
1.23621e-06
1.20032e-06
8.25905e-07
2.79815e-07
4.39209e-07
4.39379e-07
8.26243e-07
1.20184e-06
1.23477e-06
7.59752e-07
1.244e-06
6.41516e-07
1.24333e-06
6.40081e-07
1.23579e-06
1.20025e-06
8.27441e-07
2.80013e-07
4.39306e-07
8.27394e-07
4.39457e-07
1.20176e-06
1.2348e-06
7.5982e-07
1.24412e-06
6.41598e-07
1.24343e-06
6.40157e-07
1.23582e-06
1.2136e-06
8.54161e-07
2.88852e-07
4.59576e-07
8.57075e-07
4.60487e-07
1.21443e-06
1.24347e-06
8.10066e-07
1.25036e-06
6.79973e-07
1.25039e-06
6.79738e-07
1.24379e-06
1.27248e-06
1.26337e-06
1.26559e-06
1.24348e-06
1.27215e-06
1.26439e-06
1.26556e-06
1.24384e-06
1.27076e-06
1.26267e-06
1.26416e-06
1.24267e-06
1.27082e-06
1.2627e-06
1.26415e-06
1.24262e-06
1.2708e-06
1.26249e-06
1.26393e-06
1.24217e-06
1.27079e-06
1.26235e-06
1.26382e-06
1.2418e-06
1.27079e-06
1.26233e-06
1.26382e-06
1.24178e-06
1.27078e-06
1.26235e-06
1.26381e-06
1.24178e-06
1.27078e-06
1.26232e-06
1.26381e-06
1.24177e-06
1.27078e-06
1.26236e-06
1.26381e-06
1.24178e-06
1.27078e-06
1.26233e-06
1.26381e-06
1.24176e-06
1.27078e-06
1.26234e-06
1.26382e-06
1.24177e-06
1.27079e-06
1.26234e-06
1.26382e-06
1.24176e-06
1.27078e-06
1.26235e-06
1.26381e-06
1.24176e-06
1.27078e-06
1.26233e-06
1.26381e-06
1.24176e-06
1.27078e-06
1.26236e-06
1.26383e-06
1.24343e-06
1.26475e-06
1.26436e-06
1.24208e-06
1.26368e-06
1.26343e-06
1.26297e-06
1.26298e-06
1.24289e-06
1.26485e-06
1.26481e-06
1.24304e-06
1.24402e-06
1.24347e-06
1.26547e-06
1.26491e-06
1.266e-06
1.26597e-06
1.2427e-06
1.24308e-06
1.26441e-06
1.26411e-06
1.26492e-06
1.26459e-06
1.26352e-06
1.26456e-06
1.26453e-06
1.24348e-06
1.24289e-06
1.26535e-06
1.26618e-06
1.2664e-06
1.24377e-06
1.24349e-06
1.24223e-06
1.26537e-06
1.26575e-06
1.26408e-06
1.26414e-06
1.24341e-06
1.24171e-06
1.26437e-06
1.26394e-06
1.26303e-06
1.26264e-06
1.26437e-06
1.26277e-06
1.26278e-06
1.24296e-06
1.24147e-06
1.26619e-06
1.26417e-06
1.26462e-06
1.24255e-06
1.24279e-06
1.24214e-06
1.2641e-06
1.26406e-06
1.26409e-06
1.26408e-06
1.24221e-06
1.24176e-06
1.26303e-06
1.26266e-06
1.26304e-06
1.26264e-06
1.26269e-06
1.26274e-06
1.26269e-06
1.24201e-06
1.24137e-06
1.26455e-06
1.26423e-06
1.26453e-06
1.24244e-06
1.24267e-06
1.24171e-06
1.2641e-06
1.26413e-06
1.26386e-06
1.26395e-06
1.24232e-06
1.24135e-06
1.26303e-06
1.26266e-06
1.2628e-06
1.26241e-06
1.26271e-06
1.2626e-06
1.26257e-06
1.24189e-06
1.24095e-06
1.26456e-06
1.26403e-06
1.26441e-06
1.24211e-06
1.24202e-06
1.24131e-06
1.26385e-06
1.26392e-06
1.2637e-06
1.26381e-06
1.2416e-06
1.24104e-06
1.26275e-06
1.2624e-06
1.26262e-06
1.26224e-06
1.26252e-06
1.26238e-06
1.26234e-06
1.24132e-06
1.24058e-06
1.26438e-06
1.26385e-06
1.26422e-06
1.24166e-06
1.24186e-06
1.24128e-06
1.26373e-06
1.26385e-06
1.26368e-06
1.26379e-06
1.24161e-06
1.24085e-06
1.26264e-06
1.26228e-06
1.26264e-06
1.26226e-06
1.26233e-06
1.26235e-06
1.26233e-06
1.24112e-06
1.24051e-06
1.26424e-06
1.26383e-06
1.26421e-06
1.24159e-06
1.24183e-06
1.24126e-06
1.26372e-06
1.26381e-06
1.26369e-06
1.26379e-06
1.24136e-06
1.24097e-06
1.26265e-06
1.26229e-06
1.26262e-06
1.26225e-06
1.26235e-06
1.26235e-06
1.26232e-06
1.24106e-06
1.24052e-06
1.26424e-06
1.26383e-06
1.26421e-06
1.24159e-06
1.24182e-06
1.24127e-06
1.26372e-06
1.26383e-06
1.26369e-06
1.26378e-06
1.24155e-06
1.24081e-06
1.26263e-06
1.26229e-06
1.26263e-06
1.26225e-06
1.26234e-06
1.26234e-06
1.26233e-06
1.24106e-06
1.24051e-06
1.26424e-06
1.26383e-06
1.26421e-06
1.24158e-06
1.24183e-06
1.24126e-06
1.26372e-06
1.2638e-06
1.26369e-06
1.2638e-06
1.24133e-06
1.24096e-06
1.26265e-06
1.26229e-06
1.26263e-06
1.26225e-06
1.26235e-06
1.26235e-06
1.26233e-06
1.24106e-06
1.24051e-06
1.26424e-06
1.26382e-06
1.26421e-06
1.24159e-06
1.24182e-06
1.24127e-06
1.26373e-06
1.26384e-06
1.26369e-06
1.26378e-06
1.24154e-06
1.24083e-06
1.26265e-06
1.26229e-06
1.26263e-06
1.26226e-06
1.26235e-06
1.26235e-06
1.26232e-06
1.24106e-06
1.24051e-06
1.26424e-06
1.26383e-06
1.2642e-06
1.24157e-06
1.24183e-06
1.24127e-06
1.26373e-06
1.2638e-06
1.2637e-06
1.2638e-06
1.24134e-06
1.24098e-06
1.26264e-06
1.26229e-06
1.26263e-06
1.26225e-06
1.26233e-06
1.26234e-06
1.26233e-06
1.24106e-06
1.24051e-06
1.26423e-06
1.26383e-06
1.26421e-06
1.24158e-06
1.24183e-06
1.24127e-06
1.26373e-06
1.26384e-06
1.26369e-06
1.26378e-06
1.24156e-06
1.24083e-06
1.26265e-06
1.26229e-06
1.26263e-06
1.26226e-06
1.26235e-06
1.26235e-06
1.26233e-06
1.24106e-06
1.24051e-06
1.26424e-06
1.26383e-06
1.26421e-06
1.24157e-06
1.24183e-06
1.24127e-06
1.26373e-06
1.2638e-06
1.26369e-06
1.26379e-06
1.24135e-06
1.24099e-06
1.26264e-06
1.26229e-06
1.26263e-06
1.26226e-06
1.26235e-06
1.26235e-06
1.26233e-06
1.24106e-06
1.2405e-06
1.26424e-06
1.26383e-06
1.26421e-06
1.24157e-06
1.24183e-06
1.24126e-06
1.26372e-06
1.26383e-06
1.26368e-06
1.26378e-06
1.24156e-06
1.24082e-06
1.26265e-06
1.26229e-06
1.26263e-06
1.26225e-06
1.26235e-06
1.26234e-06
1.26232e-06
1.24105e-06
1.2405e-06
1.26424e-06
1.26382e-06
1.26421e-06
1.24156e-06
1.24182e-06
1.24125e-06
1.26372e-06
1.26381e-06
1.26368e-06
1.26379e-06
1.24134e-06
1.24098e-06
1.26264e-06
1.26229e-06
1.26262e-06
1.26224e-06
1.26234e-06
1.26235e-06