/*--------------------------------*- C++ -*----------------------------------*\
| =========                 |                                                 |
| \\      /  F ield         | OpenFOAM: The Open Source CFD Toolbox           |
|  \\    /   O peration     | Version:  2206                                  |
|   \\  /    A nd           | Website:  www.openfoam.com                      |
|    \\/     M anipulation  |                                                 |
\*---------------------------------------------------------------------------*/
FoamFile
{
    version     2.0;
    format      ascii;
    arch        "LSB;label=32;scalar=64";
    class       volVectorField;
    location    "0.2";
    object      wallShearStress;
}
// * * * * * * * * * * * * * * * * * * * * * * * * * * * * * * * * * * * * * //

dimensions      [0 2 -2 0 0 0 0];

internalField   uniform (0 0 0);

boundaryField
{
    topPatch
    {
        type            calculated;
        value           nonuniform List<vector> 0();
    }
    wall
    {
        type            calculated;
        value           nonuniform List<vector> 
7803
(
(-1.03784e-09 -4.0923e-09 -0.000154441)
(6.29218e-09 -1.52322e-10 -0.000161415)
(-3.23246e-09 -2.71439e-09 -0.000154637)
(-8.82508e-10 5.07316e-09 -0.000161526)
(-7.25136e-09 4.82858e-10 -0.000161416)
(1.26434e-09 -8.56592e-09 -0.000161534)
(3.39814e-10 -4.31223e-09 -0.00015444)
(-2.17763e-09 -1.00437e-08 -0.000161532)
(-3.94269e-09 1.01835e-09 -0.00015464)
(2.83923e-09 -3.64727e-09 -0.000154636)
(3.20946e-09 2.72827e-09 -0.000154642)
(-1.24382e-08 -3.54306e-09 -0.000161434)
(-4.32093e-09 2.80786e-09 -0.000154448)
(2.51824e-09 3.49895e-09 -0.000154449)
(-1.21131e-09 8.40674e-09 -0.000161529)
(8.3329e-09 -1.09685e-09 -0.000161431)
(-7.96733e-09 5.9562e-09 -0.000161441)
(4.59073e-09 2.55314e-09 -0.000154574)
(-7.69282e-09 -1.00716e-09 -0.000161506)
(-3.54047e-09 7.03643e-09 -0.00015854)
(-2.37237e-09 1.91362e-09 -0.000159474)
(6.94601e-09 -1.27269e-08 -0.000161346)
(4.35535e-09 -2.62013e-10 -0.000154728)
(-3.19107e-09 -2.77317e-09 -0.000154637)
(-4.6677e-10 -6.88258e-09 -0.000161592)
(4.68774e-11 6.72803e-09 -0.000161524)
(9.51549e-10 3.42133e-09 -0.00015542)
(-2.14066e-09 -1.78117e-09 -0.000155465)
(3.21348e-09 1.14017e-09 -0.000155325)
(-2.82771e-09 -1.38737e-09 -0.000155389)
(1.06371e-09 2.81855e-09 -0.000162149)
(2.82758e-09 1.11313e-09 -0.000162123)
(-1.91891e-09 -1.81039e-09 -0.000162197)
(-3.05216e-09 -8.97842e-10 -0.00016218)
(7.62449e-09 -8.28011e-10 -0.000161506)
(8.34093e-10 4.74761e-09 -0.000161594)
(1.31211e-09 -8.6337e-09 -0.000161534)
(-4.79793e-09 2.40909e-09 -0.000154571)
(7.32666e-10 -3.47141e-09 -0.000155424)
(-2.62024e-09 8.54364e-10 -0.000155468)
(3.40929e-09 8.63142e-11 -0.000162145)
(-1.37137e-09 3.23968e-09 -0.000162201)
(-1.00338e-09 4.38887e-09 -0.000161593)
(-3.62492e-09 -8.09639e-09 -0.00015854)
(-2.38109e-09 -2.20003e-09 -0.00015947)
(6.24564e-09 1.00245e-08 -0.000161348)
(3.55649e-09 -1.67795e-09 -0.000154731)
(-4.16442e-09 4.08465e-10 -0.000154639)
(-4.58484e-09 -1.08171e-09 -0.000154727)
(-6.56625e-09 1.14975e-08 -0.000161347)
(-4.13206e-09 -4.88597e-11 -0.000154731)
(-2.05142e-09 1.69213e-09 -0.00015535)
(2.59062e-09 -1.61348e-09 -0.000155401)
(3.86287e-09 6.27467e-09 -0.000162139)
(4.48778e-09 -9.52523e-10 -0.000161523)
(-1.17116e-08 -6.97551e-09 -0.000161435)
(1.81183e-09 -3.64022e-09 -0.000154583)
(1.02202e-08 -6.58398e-09 -0.000161432)
(-3.71565e-09 -2.93657e-09 -0.000154582)
(-7.48295e-10 -4.70323e-09 -0.000161589)
(-7.51076e-09 7.76078e-10 -0.000161522)
(8.2742e-09 5.99627e-09 -0.000161437)
(-6.83837e-09 -1.26658e-08 -0.000161345)
(-8.94806e-09 3.92032e-09 -0.000158368)
(2.94224e-09 -2.47812e-09 -0.000159183)
(-2.12655e-09 2.45666e-09 -0.000159254)
(1.07176e-08 -4.09217e-09 -0.000158289)
(1.24753e-08 -7.1354e-09 -0.000161303)
(3.78353e-09 -8.75967e-10 -0.000155329)
(-2.06301e-09 1.73512e-09 -0.000155394)
(5.79328e-09 1.66306e-09 -0.000162121)
(4.62017e-12 3.22199e-09 -0.000162175)
(-5.7281e-09 8.29252e-09 -0.000161268)
(3.98504e-09 -1.0924e-08 -0.000158558)
(-2.37753e-09 2.17021e-09 -0.000159474)
(2.29802e-09 -3.15244e-09 -0.000159486)
(-3.55135e-09 7.28673e-09 -0.00015854)
(-5.73916e-09 8.24012e-09 -0.000161268)
(1.54815e-10 5.2927e-09 -0.000155391)
(2.80629e-09 -8.67188e-10 -0.000155448)
(4.26449e-09 9.57803e-09 -0.000162131)
(7.42984e-09 4.81008e-09 -0.000162174)
(-3.34856e-09 -1.16034e-09 -0.000155333)
(2.2573e-09 1.81686e-09 -0.000155399)
(-3.74806e-09 -3.3171e-10 -0.000162132)
(2.24329e-09 1.68051e-09 -0.000162192)
(-9.02208e-10 -3.50148e-09 -0.000155414)
(2.02736e-09 2.05003e-09 -0.000155459)
(-1.35062e-09 -2.42387e-09 -0.000162139)
(1.60392e-09 2.28046e-09 -0.000162187)
(9.27591e-09 3.92469e-09 -0.000158369)
(-2.62258e-09 -2.4366e-09 -0.000159188)
(2.7558e-09 2.44886e-09 -0.000159258)
(-1.02852e-08 -3.98094e-09 -0.000158292)
(-1.24334e-08 -7.0518e-09 -0.0001613)
(3.96598e-09 1.01915e-08 -0.000158557)
(-2.37426e-09 -2.23512e-09 -0.00015947)
(2.30719e-09 3.15487e-09 -0.000159482)
(-3.60427e-09 -8.17931e-09 -0.00015854)
(-6.49305e-09 -1.10545e-08 -0.000161269)
(-6.45684e-09 -1.09364e-08 -0.000161269)
(5.63671e-09 7.94966e-09 -0.000161266)
(-3.85548e-09 -1.06286e-08 -0.000158556)
(2.36584e-09 2.52594e-09 -0.000159476)
(-2.20198e-09 -2.79735e-09 -0.000159487)
(3.583e-09 7.52567e-09 -0.000158539)
(-3.94719e-09 1.07393e-08 -0.000158555)
(2.33114e-09 -1.897e-09 -0.00015947)
(-2.2418e-09 3.50082e-09 -0.000159481)
(3.51684e-09 -7.5531e-09 -0.000158539)
(5.99222e-09 -9.31765e-09 -0.000161269)
(8.55479e-09 3.33523e-09 -0.000162204)
(8.41478e-09 6.05553e-09 -0.000161295)
(-1.13738e-08 -4.70187e-09 -0.000158364)
(2.4499e-09 2.90349e-09 -0.000159183)
(-2.62467e-09 -2.92403e-09 -0.000159255)
(8.45724e-09 4.26781e-09 -0.000158284)
(-1.01002e-08 6.53158e-09 -0.000161293)
(1.02558e-08 -4.04582e-09 -0.000158367)
(-3.28047e-09 2.53685e-09 -0.000159187)
(2.32232e-09 -2.42753e-09 -0.000159259)
(-9.70697e-09 4.0371e-09 -0.000158288)
(4.10693e-09 -2.51769e-10 -0.000154733)
(-1.68672e-09 -9.05492e-09 -0.000161595)
(-6.19198e-09 -9.92506e-09 -0.000161271)
(-3.00507e-09 3.12963e-09 -0.000154643)
(-4.98575e-10 5.44756e-09 -0.00016153)
(-3.59454e-09 7.57033e-09 -0.000158542)
(2.22118e-09 -2.9196e-09 -0.000159486)
(-2.32346e-09 2.4205e-09 -0.000159476)
(3.87976e-09 -1.06316e-08 -0.000158557)
(-3.52396e-09 -7.61476e-09 -0.000158541)
(2.25229e-09 3.25154e-09 -0.000159482)
(-2.29288e-09 -1.96309e-09 -0.000159472)
(3.92941e-09 1.03973e-08 -0.000158557)
(6.27159e-09 1.04444e-08 -0.000161348)
(1.72724e-09 -1.36738e-09 -0.00015544)
(4.07563e-10 6.42813e-09 -0.000155394)
(6.39974e-09 4.40287e-09 -0.000162184)
(5.70961e-10 4.79161e-09 -0.000162144)
(7.64307e-09 -9.15142e-10 -0.000161506)
(7.42034e-10 4.74851e-09 -0.000161594)
(4.66044e-09 2.46557e-09 -0.000154574)
(4.2416e-09 -1.12233e-10 -0.000154728)
(-7.27207e-09 5.66607e-10 -0.000161417)
(1.3014e-09 -8.52245e-09 -0.000161535)
(1.25689e-08 -7.12889e-09 -0.000161305)
(-9.00278e-10 -4.10376e-09 -0.000154442)
(-3.26075e-09 -2.48953e-09 -0.000154638)
(2.47019e-09 1.3932e-09 -0.000162192)
(1.43184e-09 2.36044e-09 -0.000162187)
(-5.77674e-09 8.50753e-09 -0.000161269)
(6.85627e-09 -1.25523e-08 -0.000161346)
(2.45817e-09 1.62551e-09 -0.000155399)
(-2.97678e-09 -1.32525e-09 -0.000155334)
(1.93569e-09 2.09681e-09 -0.000155459)
(-9.96227e-10 -3.25095e-09 -0.000155415)
(-1.57692e-09 -2.17884e-09 -0.00016214)
(-3.38227e-09 -6.52227e-10 -0.000162134)
(1.06993e-08 -4.08268e-09 -0.00015829)
(-1.87902e-09 2.41739e-09 -0.000159255)
(3.48206e-09 -2.44498e-09 -0.000159184)
(-8.67914e-09 3.84184e-09 -0.000158367)
(-7.86599e-09 5.88013e-09 -0.000161441)
(-3.57685e-09 -2.05837e-09 -0.000154429)
(5.24295e-09 -7.01631e-10 -0.000161394)
(7.65265e-09 7.57288e-09 -0.000161559)
(-2.82201e-09 -5.13344e-09 -0.000154602)
(-5.79872e-10 6.76239e-09 -0.000161495)
(-1.08712e-09 8.5187e-09 -0.000161514)
(-9.57606e-10 -4.88121e-09 -0.000161613)
(7.60978e-09 -5.98993e-10 -0.00016142)
(-6.6102e-09 4.60228e-11 -0.000161538)
(-1.12222e-09 -5.03376e-09 -0.000161627)
(-1.06075e-09 8.72578e-09 -0.000161502)
(-7.24067e-09 1.89885e-10 -0.000161548)
(6.99331e-09 -1.80242e-10 -0.000161412)
(-6.76414e-09 3.1346e-10 -0.000161395)
(1.9365e-09 -1.10089e-08 -0.000161498)
(2.34248e-09 -2.62064e-09 -0.000154427)
(-6.21392e-09 1.77252e-09 -0.000154655)
(-3.01266e-09 -1.27669e-08 -0.000161497)
(-4.04698e-09 2.05893e-09 -0.000154607)
(2.35183e-09 -6.30874e-09 -0.0001546)
(3.58404e-09 3.16733e-09 -0.000154607)
(-1.00635e-08 -1.78711e-09 -0.000161406)
(-2.51861e-09 3.78345e-09 -0.00015443)
(1.48094e-09 4.14566e-09 -0.00015443)
(-9.78816e-10 9.2195e-09 -0.000161493)
(7.14218e-09 -3.49153e-11 -0.000161408)
(9.0657e-10 3.75618e-09 -0.000155404)
(-2.50755e-09 -1.60089e-09 -0.000155482)
(2.53389e-09 1.76798e-09 -0.000155312)
(-2.00134e-09 -2.18572e-09 -0.000155402)
(9.64148e-10 3.13872e-09 -0.000162132)
(2.44145e-09 1.61964e-09 -0.000162107)
(-2.66864e-09 -1.46778e-09 -0.000155488)
(8.72437e-10 3.84072e-09 -0.000155398)
(-1.95226e-09 -2.26918e-09 -0.000155408)
(2.24972e-09 1.98574e-09 -0.000155307)
(-2.95982e-08 2.74892e-09 -0.00015832)
(-1.1625e-08 3.21263e-09 -0.00015935)
(-9.419e-09 -2.27856e-09 -0.000159214)
(-4.56363e-08 1.03676e-08 -0.000158455)
(-1.71925e-08 9.13582e-09 -0.00016146)
(3.86093e-09 3.02507e-09 -0.000154616)
(-1.19445e-09 -7.04726e-10 -0.000161317)
(1.88504e-09 -3.70401e-09 -0.000154458)
(-1.08688e-10 2.81994e-09 -0.000161536)
(1.41219e-08 5.33737e-09 -0.0001614)
(7.57924e-09 -1.28949e-08 -0.000161381)
(5.46071e-09 -2.00572e-09 -0.000154759)
(2.64708e-11 -7.07831e-09 -0.000161625)
(6.76898e-10 4.71733e-09 -0.000155387)
(-2.7185e-09 -1.84946e-09 -0.000155497)
(2.3936e-09 2.17481e-09 -0.000155297)
(-3.67594e-09 -1.34236e-09 -0.000155416)
(-9.18057e-10 -4.82676e-09 -0.000161606)
(-1.09801e-09 8.58808e-09 -0.000161508)
(-6.53007e-09 5.52239e-11 -0.000161534)
(7.27867e-09 -4.1494e-10 -0.000161416)
(-2.71699e-09 -1.71001e-09 -0.0001555)
(7.31763e-10 4.29518e-09 -0.000155388)
(-2.676e-09 -1.96141e-09 -0.000155418)
(1.95807e-09 2.32775e-09 -0.000155298)
(-2.9003e-09 -1.5499e-09 -0.000162235)
(-2.90366e-09 -1.75659e-09 -0.000162215)
(8.62142e-10 4.01198e-09 -0.000155393)
(-2.72613e-09 -1.53423e-09 -0.000155495)
(2.02409e-09 2.23897e-09 -0.000155302)
(-2.22757e-09 -2.17567e-09 -0.000155413)
(-1.09129e-09 8.96147e-09 -0.000161496)
(-1.01505e-09 -5.01732e-09 -0.00016162)
(6.91405e-09 -9.55189e-11 -0.000161408)
(-6.90062e-09 9.79367e-11 -0.000161543)
(1.2882e-10 2.89673e-09 -0.000161534)
(-1.38376e-08 5.04249e-09 -0.000161402)
(2.68027e-09 2.49008e-09 -0.000161627)
(2.97893e-08 2.73197e-09 -0.000158322)
(1.23171e-08 3.22335e-09 -0.000159354)
(9.63377e-09 -2.27877e-09 -0.000159219)
(4.66664e-08 1.05288e-08 -0.000158457)
(-4.36361e-09 2.8358e-09 -0.000154613)
(-1.78751e-09 -3.67644e-09 -0.000154456)
(-3.85419e-10 -5.81377e-09 -0.000155395)
(-4.21754e-09 -5.60635e-10 -0.000155499)
(-1.63435e-09 -8.38393e-09 -0.0001554)
(2.73209e-09 -1.23787e-09 -0.000162119)
(-2.06765e-09 3.27061e-09 -0.000162233)
(-2.67831e-09 2.39499e-09 -0.000161625)
(-1.02565e-09 -9.85358e-09 -0.000161505)
(3.799e-09 -2.13178e-09 -0.000154763)
(4.29228e-09 6.25938e-09 -0.000158501)
(3.04534e-09 1.49875e-09 -0.00015944)
(-5.62052e-09 -2.65302e-09 -0.000154759)
(2.84947e-09 -5.19126e-09 -0.000154606)
(4.54829e-09 -8.66695e-09 -0.000158501)
(3.13378e-09 -3.3584e-09 -0.000159435)
(-6.63473e-09 9.45916e-09 -0.000161384)
(-4.23389e-09 -9.0837e-10 -0.000154765)
(3.99867e-09 2.20818e-09 -0.000154612)
(-1.58952e-09 2.5155e-09 -0.000155306)
(2.89083e-09 -2.11719e-09 -0.000155421)
(4.7486e-09 -1.32472e-09 -0.000161545)
(3.17647e-09 -3.40816e-09 -0.000154604)
(8.94109e-09 -6.64913e-09 -0.00016145)
(-4.72704e-09 -2.88474e-09 -0.000154602)
(-1.23893e-09 -4.93097e-09 -0.000161624)
(-2.62348e-10 8.12299e-09 -0.0001615)
(-8.10866e-09 5.51812e-10 -0.000161546)
(4.32246e-09 2.65656e-09 -0.000154575)
(-4.73665e-09 9.17493e-10 -0.000161509)
(4.36736e-09 -2.74296e-10 -0.000154728)
(4.38766e-10 -5.2789e-09 -0.000161589)
(-1.74351e-09 -3.78708e-09 -0.000154443)
(3.60489e-09 2.99655e-09 -0.000154578)
(5.93134e-09 -2.82988e-10 -0.000161414)
(-7.28002e-09 -5.62436e-10 -0.000161514)
(-3.23218e-09 -2.6e-09 -0.000154639)
(4.44972e-09 -3.69843e-10 -0.000154732)
(-3.60688e-10 5.82735e-09 -0.000161532)
(9.77729e-10 -4.44939e-09 -0.000161599)
(-2.28948e-09 -3.51319e-09 -0.000154452)
(4.63026e-09 2.56222e-09 -0.000154588)
(6.96629e-09 3.44548e-10 -0.000161429)
(-4.7009e-09 1.01245e-09 -0.000161528)
(-3.00008e-09 -3.04193e-09 -0.000154648)
(4.38276e-09 -2.56132e-10 -0.000154742)
(-5.95319e-10 5.37021e-09 -0.000161543)
(7.97121e-10 -4.63776e-09 -0.000161607)
(-3.84555e-10 -4.45047e-09 -0.000154452)
(4.88006e-09 2.31764e-09 -0.000154581)
(6.65715e-09 2.51766e-13 -0.000161428)
(-7.24565e-09 -7.36199e-10 -0.000161519)
(-3.29851e-09 -2.80373e-09 -0.000154647)
(4.16871e-09 -5.44707e-11 -0.000154734)
(-2.56971e-10 6.41977e-09 -0.000161539)
(6.56159e-10 -4.62915e-09 -0.000161597)
(-1.74094e-09 -3.87395e-09 -0.000154442)
(4.09835e-09 2.71904e-09 -0.000154574)
(7.10352e-09 2.48933e-10 -0.000161418)
(-4.73461e-09 8.97431e-10 -0.000161512)
(-3.21301e-09 -2.84494e-09 -0.000154638)
(4.31824e-09 -2.16353e-10 -0.000154728)
(-6.38042e-10 5.56329e-09 -0.000161529)
(6.32762e-10 -4.86367e-09 -0.00016159)
(-1.65417e-09 -3.86949e-09 -0.00015444)
(4.23758e-09 2.67623e-09 -0.000154573)
(6.40024e-09 -5.65376e-11 -0.000161413)
(-7.29417e-09 -6.31813e-10 -0.000161509)
(-3.17227e-09 -2.87288e-09 -0.000154636)
(4.33251e-09 -2.26602e-10 -0.000154727)
(-4.57294e-10 5.82043e-09 -0.000161527)
(7.47413e-10 -4.6845e-09 -0.00016159)
(-1.55962e-09 -3.89847e-09 -0.00015444)
(4.29524e-09 2.65725e-09 -0.000154573)
(7.14569e-09 3.40952e-10 -0.000161416)
(-4.63715e-09 9.87895e-10 -0.000161511)
(-3.18402e-09 -2.8349e-09 -0.000154636)
(4.30639e-09 -1.48184e-10 -0.000154727)
(-4.45303e-10 5.83514e-09 -0.000161527)
(6.97463e-10 -4.76958e-09 -0.000161589)
(-1.51555e-09 -3.91869e-09 -0.00015444)
(4.37636e-09 2.62474e-09 -0.000154573)
(6.44645e-09 2.32724e-11 -0.000161413)
(-7.32508e-09 -6.43211e-10 -0.00016151)
(-3.18577e-09 -2.83542e-09 -0.000154636)
(4.31718e-09 -1.90928e-10 -0.000154727)
(-4.60253e-10 5.81335e-09 -0.000161527)
(7.417e-10 -4.68575e-09 -0.000161589)
(-1.51518e-09 -3.92081e-09 -0.00015444)
(4.31612e-09 2.64802e-09 -0.000154573)
(7.15331e-09 3.44912e-10 -0.000161417)
(-4.62115e-09 9.89818e-10 -0.000161512)
(-3.17819e-09 -2.8433e-09 -0.000154636)
(4.32769e-09 -2.06996e-10 -0.000154727)
(-4.76975e-10 5.77651e-09 -0.000161527)
(7.26602e-10 -4.71646e-09 -0.000161589)
(-1.50391e-09 -3.92187e-09 -0.00015444)
(4.35672e-09 2.63046e-09 -0.000154573)
(6.49192e-09 -3.70061e-12 -0.000161414)
(-7.27974e-09 -6.27134e-10 -0.00016151)
(-3.17347e-09 -2.85584e-09 -0.000154636)
(4.32552e-09 -2.0454e-10 -0.000154727)
(-4.47637e-10 5.82941e-09 -0.000161527)
(7.28611e-10 -4.7104e-09 -0.000161589)
(-1.5351e-09 -3.9126e-09 -0.00015444)
(4.361e-09 2.63107e-09 -0.000154573)
(7.14328e-09 3.37204e-10 -0.000161417)
(-4.64665e-09 9.74637e-10 -0.000161512)
(-3.17522e-09 -2.85439e-09 -0.000154636)
(4.32163e-09 -1.90966e-10 -0.000154727)
(-4.74162e-10 5.78082e-09 -0.000161527)
(7.12794e-10 -4.7413e-09 -0.000161589)
(-1.49392e-09 -3.92784e-09 -0.00015444)
(4.37544e-09 2.62402e-09 -0.000154573)
(6.49757e-09 -2.27058e-12 -0.000161414)
(-7.27825e-09 -6.25925e-10 -0.00016151)
(-3.18282e-09 -2.83422e-09 -0.000154636)
(4.31948e-09 -1.87745e-10 -0.000154727)
(-4.7088e-10 5.78733e-09 -0.000161527)
(7.16611e-10 -4.73288e-09 -0.000161589)
(-1.51518e-09 -3.91883e-09 -0.00015444)
(4.33025e-09 2.64254e-09 -0.000154573)
(7.14221e-09 3.36237e-10 -0.000161417)
(-4.62353e-09 9.86272e-10 -0.000161512)
(-3.1765e-09 -2.85074e-09 -0.000154636)
(4.32037e-09 -1.89174e-10 -0.000154727)
(-4.74484e-10 5.7792e-09 -0.000161527)
(7.20204e-10 -4.72597e-09 -0.000161589)
(-1.46315e-09 -3.93487e-09 -0.00015444)
(4.30482e-09 2.65279e-09 -0.000154573)
(6.44349e-09 -3.093e-11 -0.000161414)
(-7.25999e-09 -6.15369e-10 -0.00016151)
(-3.17888e-09 -2.8468e-09 -0.000154636)
(4.32303e-09 -1.93524e-10 -0.000154727)
(-4.75348e-10 5.77865e-09 -0.000161527)
(7.22909e-10 -4.72528e-09 -0.00016159)
(-1.41975e-09 -3.95604e-09 -0.00015444)
(4.12537e-09 2.72094e-09 -0.000154573)
(7.03325e-09 2.75076e-10 -0.000161417)
(-4.46318e-09 1.07968e-09 -0.000161512)
(-3.18733e-09 -2.8482e-09 -0.000154636)
(4.32975e-09 -1.69056e-10 -0.000154728)
(-4.87969e-10 5.77317e-09 -0.000161527)
(7.16164e-10 -4.77155e-09 -0.00016159)
(-1.0703e-09 -4.08889e-09 -0.000154439)
(3.71957e-09 2.8782e-09 -0.000154575)
(6.0884e-09 -2.36562e-10 -0.000161412)
(-6.80815e-09 -3.57979e-10 -0.000161515)
(-3.14221e-09 -3.01872e-09 -0.000154634)
(4.37842e-09 -1.77147e-10 -0.000154733)
(-5.03498e-10 5.79623e-09 -0.000161525)
(7.42519e-10 -4.81194e-09 -0.000161595)
(2.5557e-10 -4.59157e-09 -0.000154431)
(1.88747e-09 3.62597e-09 -0.000154588)
(6.20123e-09 -2.23461e-10 -0.000161402)
(-4.19609e-09 1.44276e-09 -0.000161536)
(-2.99269e-09 -3.6146e-09 -0.000154622)
(4.7081e-09 -6.04106e-10 -0.000154752)
(-5.30367e-10 5.91899e-09 -0.000161514)
(8.51325e-10 -4.92535e-09 -0.000161614)
(7.32779e-09 -6.58195e-10 -0.000161507)
(8.6511e-10 4.71705e-09 -0.000161595)
(6.93159e-09 -4.32131e-10 -0.000161509)
(-7.70075e-09 7.53523e-10 -0.000161417)
(7.76323e-10 4.90456e-09 -0.000161597)
(1.27753e-09 -8.5397e-09 -0.000161534)
(-2.77929e-09 3.27641e-09 -0.000154574)
(3.93681e-09 2.83791e-09 -0.000154576)
(-1.54982e-09 -3.89135e-09 -0.000154442)
(-5.77494e-09 2.09852e-09 -0.000154573)
(2.04291e-09 -3.73673e-09 -0.00015444)
(3.40388e-10 6.64907e-09 -0.000161591)
(-9.72599e-09 -2.04204e-09 -0.00016151)
(7.53625e-09 6.23129e-10 -0.000161417)
(-1.75905e-09 3.18413e-09 -0.000161593)
(-1.93254e-09 -9.63238e-09 -0.000161529)
(3.53613e-09 -1.8292e-09 -0.00015473)
(4.29902e-09 -1.57424e-11 -0.00015473)
(-3.19662e-09 -2.73675e-09 -0.000154637)
(3.9883e-09 -7.93994e-10 -0.000154734)
(-3.83089e-09 1.04004e-09 -0.000154639)
(-3.89622e-09 8.84474e-10 -0.000154726)
(-4.1052e-09 -3.1393e-10 -0.000154731)
(-4.71737e-09 -1.28389e-09 -0.000154728)
(3.23884e-09 -2.66025e-09 -0.000154633)
(-4.13178e-09 -2.70653e-10 -0.000154732)
(3.3461e-09 2.44351e-09 -0.00015464)
(7.3842e-09 5.89111e-10 -0.000161524)
(-7.58267e-10 -7.82326e-09 -0.000161599)
(6.35734e-10 7.14593e-09 -0.000161524)
(4.73844e-09 -9.16667e-10 -0.000161518)
(-7.38095e-09 -3.34242e-10 -0.000161434)
(2.31553e-09 -3.52578e-09 -0.000154584)
(-3.74826e-09 -2.99426e-09 -0.000154583)
(2.38668e-09 -3.52701e-09 -0.000154581)
(-3.34856e-09 3.24986e-09 -0.000154447)
(-3.42285e-09 -3.12333e-09 -0.000154583)
(2.61146e-09 3.47847e-09 -0.000154447)
(-7.77077e-10 -4.77695e-09 -0.000161589)
(-7.62879e-09 7.4352e-10 -0.000161522)
(-7.78287e-10 -4.80828e-09 -0.00016159)
(-1.14678e-09 8.38357e-09 -0.000161528)
(-7.4874e-09 6.58223e-10 -0.000161523)
(8.21359e-09 -1.01958e-09 -0.00016143)
(-8.12004e-09 1.00073e-09 -0.000161419)
(6.45799e-09 -1.34425e-10 -0.000161513)
(1.27892e-09 -8.52314e-09 -0.000161537)
(1.06797e-09 4.43031e-09 -0.000161601)
(6.45135e-09 -1.04436e-10 -0.000161519)
(-8.51954e-09 1.26472e-09 -0.000161424)
(1.11133e-09 4.39306e-09 -0.000161607)
(1.53509e-09 -8.92694e-09 -0.000161541)
(-3.6193e-10 -4.59806e-09 -0.000154438)
(-5.2522e-09 2.36445e-09 -0.000154576)
(3.16664e-09 3.21024e-09 -0.000154584)
(-2.27724e-09 -3.53012e-09 -0.000154446)
(-5.40947e-09 2.29389e-09 -0.000154582)
(2.26611e-10 -4.34435e-09 -0.000154443)
(-2.06995e-09 -9.93107e-09 -0.000161533)
(-1.70358e-09 3.2108e-09 -0.000161594)
(-8.10743e-09 -1.00654e-09 -0.000161522)
(7.84342e-09 8.4544e-10 -0.00016142)
(-1.46536e-09 3.72315e-09 -0.0001616)
(-2.24199e-09 -1.02172e-08 -0.000161536)
(-3.96589e-09 8.23666e-10 -0.000154642)
(3.88859e-09 -1.10122e-09 -0.000154735)
(4.57684e-09 -5.78735e-10 -0.000154738)
(-3.03395e-09 -3.02171e-09 -0.000154642)
(4.27338e-09 -2.27043e-10 -0.000154744)
(-3.41261e-09 1.9346e-09 -0.000154645)
(2.61949e-09 -4.28811e-09 -0.000154636)
(-4.93693e-09 -1.69844e-09 -0.00015473)
(3.29863e-09 2.50135e-09 -0.000154641)
(-4.13351e-09 -3.51909e-10 -0.000154735)
(-4.89958e-09 -1.50389e-09 -0.000154735)
(2.47102e-09 -4.4797e-09 -0.000154639)
(-4.40077e-09 2.69885e-10 -0.000154739)
(3.21657e-09 2.64488e-09 -0.000154644)
(-1.21137e-08 -3.29892e-09 -0.00016143)
(6.0887e-09 -1.57234e-10 -0.000161525)
(-7.9237e-10 -7.93492e-09 -0.00016161)
(1.20398e-09 8.05514e-09 -0.000161534)
(3.11867e-09 -1.86786e-09 -0.000161526)
(-9.05134e-09 -1.28853e-09 -0.000161436)
(-5.11901e-09 2.50011e-09 -0.000154446)
(1.40429e-09 -3.91942e-09 -0.000154585)
(2.82225e-09 3.38021e-09 -0.000154448)
(-3.60646e-09 -3.08422e-09 -0.000154585)
(1.98053e-09 -3.74254e-09 -0.000154587)
(-4.15813e-09 2.87232e-09 -0.000154449)
(-3.04237e-09 -3.33903e-09 -0.00015459)
(2.79527e-09 3.36368e-09 -0.000154451)
(-1.14279e-09 8.31133e-09 -0.00016153)
(-9.23374e-10 -4.60717e-09 -0.000161593)
(8.30834e-09 -1.09175e-09 -0.000161431)
(-7.18093e-09 4.60245e-10 -0.000161526)
(-1.13087e-09 -4.28216e-09 -0.000161599)
(-1.35819e-09 8.65253e-09 -0.000161534)
(-6.91518e-09 2.84673e-10 -0.000161531)
(8.69565e-09 -1.33042e-09 -0.000161435)
(-8.2626e-09 1.13357e-09 -0.00016143)
(7.61323e-09 -8.00809e-10 -0.000161523)
(1.50089e-09 -8.84797e-09 -0.000161547)
(8.93193e-10 4.67704e-09 -0.000161611)
(8.18004e-09 -1.24048e-09 -0.00016152)
(-7.00094e-09 3.50855e-10 -0.000161432)
(7.98391e-10 4.58925e-09 -0.000161607)
(1.29133e-09 -8.63224e-09 -0.000161549)
(4.35474e-10 -4.22713e-09 -0.000154449)
(-2.51261e-09 3.43809e-09 -0.000154589)
(5.35701e-09 2.16067e-09 -0.000154586)
(-7.27512e-10 -4.21225e-09 -0.000154455)
(-4.79558e-09 2.42479e-09 -0.000154588)
(2.57602e-09 -3.47666e-09 -0.000154456)
(-1.776e-09 -9.25391e-09 -0.00016154)
(8.28928e-10 7.64121e-09 -0.000161604)
(-8.92916e-09 -1.69414e-09 -0.000161526)
(7.58497e-09 6.99366e-10 -0.000161436)
(-1.45995e-09 3.60475e-09 -0.000161607)
(-1.50245e-09 -8.77589e-09 -0.000161543)
(-3.74212e-09 1.28511e-09 -0.000154652)
(3.96491e-09 -8.38638e-10 -0.000154744)
(4.26264e-09 -2.58889e-10 -0.00015474)
(-3.19538e-09 -2.79374e-09 -0.000154651)
(4.1869e-09 5.83603e-11 -0.000154745)
(-3.38308e-09 2.20478e-09 -0.000154653)
(2.67427e-09 -3.83349e-09 -0.000154644)
(-3.59398e-09 1.83135e-09 -0.000154739)
(2.96352e-09 3.19016e-09 -0.000154649)
(-4.35194e-09 1.16552e-10 -0.000154745)
(-4.23847e-09 -1.75251e-10 -0.000154741)
(3.62519e-09 -1.53033e-09 -0.000154647)
(-3.97751e-09 -5.3101e-10 -0.000154746)
(3.14895e-09 2.77635e-09 -0.000154655)
(-1.3161e-08 -3.9304e-09 -0.00016144)
(7.36561e-09 4.97921e-10 -0.000161537)
(-4.50245e-10 -6.90334e-09 -0.000161609)
(1.09892e-09 8.07517e-09 -0.00016154)
(6.69994e-09 1.92737e-10 -0.000161532)
(-6.81357e-09 -8.84e-11 -0.000161448)
(-5.27168e-09 2.38105e-09 -0.000154454)
(2.6177e-09 -3.47192e-09 -0.000154596)
(3.35779e-09 3.10018e-09 -0.000154456)
(-3.12214e-09 -3.31328e-09 -0.000154595)
(4.54975e-09 -2.62857e-09 -0.000154595)
(-2.4222e-09 3.56353e-09 -0.000154461)
(-3.8748e-09 -2.8867e-09 -0.000154597)
(3.00022e-09 3.2721e-09 -0.000154461)
(-1.51834e-09 8.89794e-09 -0.000161539)
(-1.0659e-09 -4.39142e-09 -0.000161604)
(8.85836e-09 -1.45479e-09 -0.00016144)
(-7.04988e-09 3.64872e-10 -0.000161537)
(-5.82989e-10 -5.02606e-09 -0.000161605)
(-1.32311e-09 8.59847e-09 -0.000161544)
(-7.44836e-09 7.26332e-10 -0.000161537)
(8.60161e-09 -1.27326e-09 -0.000161445)
(-6.73717e-09 1.00826e-10 -0.000161428)
(7.76107e-09 -1.02518e-09 -0.000161513)
(1.22028e-09 -8.71335e-09 -0.000161545)
(7.30382e-10 4.71029e-09 -0.0001616)
(7.07921e-09 -6.128e-10 -0.000161508)
(-7.33669e-09 4.38013e-10 -0.000161421)
(8.1574e-10 4.65028e-09 -0.000161596)
(1.17666e-09 -8.59565e-09 -0.000161538)
(6.58307e-10 -4.3083e-09 -0.000154452)
(-4.4719e-09 2.50504e-09 -0.000154582)
(3.98351e-09 2.72884e-09 -0.000154576)
(-1.09217e-09 -4.17095e-09 -0.000154446)
(-5.22662e-09 2.19397e-09 -0.000154576)
(8.55111e-10 -4.26015e-09 -0.000154446)
(-1.79835e-09 -9.60749e-09 -0.000161546)
(-1.05525e-09 4.08435e-09 -0.0001616)
(-7.99631e-09 -1.1332e-09 -0.000161514)
(7.76839e-09 6.11675e-10 -0.000161422)
(-8.60674e-10 4.50597e-09 -0.000161593)
(-1.5453e-09 -9.24755e-09 -0.000161539)
(-3.9016e-09 1.38788e-09 -0.000154651)
(3.63471e-09 -1.3037e-09 -0.000154736)
(4.30799e-09 -2.54097e-10 -0.00015473)
(-3.36407e-09 -2.59636e-09 -0.000154641)
(3.95796e-09 -6.30846e-10 -0.000154735)
(-3.7249e-09 1.59067e-09 -0.000154643)
(3.08024e-09 -3.353e-09 -0.000154648)
(-4.44205e-09 -8.35113e-10 -0.000154736)
(3.50619e-09 2.21489e-09 -0.000154654)
(-3.8066e-09 -8.012e-10 -0.000154741)
(-4.48142e-09 -8.37068e-10 -0.00015473)
(2.96482e-09 -3.64736e-09 -0.000154642)
(-4.00287e-09 -3.51878e-10 -0.000154735)
(3.58718e-09 2.1025e-09 -0.000154648)
(-1.01259e-08 -2.13057e-09 -0.000161443)
(8.13652e-09 1.09272e-09 -0.00016153)
(-9.07127e-10 -7.84097e-09 -0.000161598)
(8.48058e-10 7.78792e-09 -0.000161529)
(4.97398e-09 -7.11466e-10 -0.000161519)
(-6.78189e-09 7.33848e-11 -0.000161439)
(-2.87267e-09 3.47124e-09 -0.000154459)
(3.12773e-09 -3.09114e-09 -0.000154591)
(2.28506e-09 3.68473e-09 -0.000154461)
(-3.92586e-09 -2.80144e-09 -0.000154591)
(3.00825e-09 -3.19286e-09 -0.000154583)
(-2.64513e-09 3.62184e-09 -0.000154453)
(-3.47464e-09 -3.00939e-09 -0.000154585)
(2.49015e-09 3.64008e-09 -0.000154454)
(-8.62124e-10 8.00088e-09 -0.000161543)
(-3.3882e-10 -5.35143e-09 -0.000161599)
(8.22744e-09 -9.24314e-10 -0.000161443)
(-7.63195e-09 8.83426e-10 -0.000161531)
(-6.16339e-10 -4.89562e-09 -0.000161592)
(-7.40272e-10 7.84498e-09 -0.000161536)
(-7.30595e-09 6.71721e-10 -0.000161525)
(8.18245e-09 -8.76134e-10 -0.000161437)
(-7.88463e-09 7.81125e-10 -0.000161417)
(7.10838e-09 -5.80054e-10 -0.000161506)
(1.272e-09 -8.6716e-09 -0.000161534)
(8.34147e-10 4.7015e-09 -0.000161594)
(7.00061e-09 -5.16367e-10 -0.000161505)
(-7.83367e-09 7.93473e-10 -0.000161415)
(9.06592e-10 4.57439e-09 -0.000161594)
(1.28598e-09 -8.63908e-09 -0.000161533)
(5.08668e-10 -4.36552e-09 -0.00015444)
(-2.79792e-09 3.21753e-09 -0.000154574)
(4.00282e-09 2.77404e-09 -0.000154573)
(-1.61478e-09 -3.88743e-09 -0.00015444)
(-5.21459e-09 2.30236e-09 -0.000154572)
(2.22836e-09 -3.69455e-09 -0.00015444)
(-1.29423e-09 -8.66916e-09 -0.000161532)
(9.74123e-10 7.69778e-09 -0.000161589)
(-9.25298e-09 -1.81347e-09 -0.00016151)
(7.47423e-09 5.75821e-10 -0.000161419)
(-1.77706e-09 3.08576e-09 -0.00016159)
(-1.48544e-09 -8.90154e-09 -0.000161526)
(-4.03865e-09 8.80363e-10 -0.000154641)
(3.681e-09 -1.40912e-09 -0.00015473)
(4.36704e-09 -2.96117e-10 -0.000154727)
(-3.21948e-09 -2.76768e-09 -0.000154636)
(4.09449e-09 -4.0224e-10 -0.000154732)
(-3.64015e-09 1.60543e-09 -0.000154638)
(3.02091e-09 -3.36447e-09 -0.000154637)
(-3.48609e-09 1.84041e-09 -0.000154726)
(3.34506e-09 2.62661e-09 -0.000154642)
(-4.09443e-09 -2.63811e-10 -0.000154731)
(-4.45873e-09 -6.7911e-10 -0.000154725)
(3.65012e-09 -1.66909e-09 -0.000154632)
(-4.15504e-09 -1.33371e-10 -0.00015473)
(3.318e-09 2.57241e-09 -0.00015464)
(-1.19162e-08 -3.11357e-09 -0.000161431)
(7.02322e-09 4.06059e-10 -0.000161521)
(-7.33871e-10 -7.62426e-09 -0.000161596)
(8.86728e-10 7.68176e-09 -0.000161523)
(4.86974e-09 -8.38207e-10 -0.000161516)
(-7.74363e-09 -5.30772e-10 -0.000161431)
(-4.50022e-09 2.83003e-09 -0.000154447)
(2.1521e-09 -3.56119e-09 -0.000154583)
(2.83575e-09 3.46311e-09 -0.000154449)
(-3.66777e-09 -2.99061e-09 -0.000154582)
(2.98732e-09 -3.26942e-09 -0.000154579)
(-3.29253e-09 3.28882e-09 -0.000154446)
(-3.62684e-09 -3.01841e-09 -0.000154582)
(2.59812e-09 3.50862e-09 -0.000154447)
(-1.07184e-09 8.37881e-09 -0.00016153)
(-7.6798e-10 -4.72418e-09 -0.000161589)
(8.50266e-09 -1.09281e-09 -0.000161431)
(-7.43465e-09 6.83338e-10 -0.000161522)
(-8.55303e-10 -4.60158e-09 -0.000161588)
(-1.14368e-09 8.4222e-09 -0.000161527)
(-7.31244e-09 6.03906e-10 -0.000161521)
(8.29869e-09 -1.03299e-09 -0.000161429)
(-7.89714e-09 8.30976e-10 -0.000161414)
(7.18974e-09 -6.07935e-10 -0.000161505)
(1.35561e-09 -8.75907e-09 -0.000161532)
(8.82194e-10 4.63825e-09 -0.000161593)
(7.15674e-09 -5.89455e-10 -0.000161505)
(-7.72179e-09 7.45828e-10 -0.000161414)
(8.88196e-10 4.6131e-09 -0.000161593)
(1.31788e-09 -8.67796e-09 -0.000161532)
(3.43866e-10 -4.36277e-09 -0.000154437)
(-4.59252e-09 2.56867e-09 -0.000154572)
(4.07338e-09 2.75519e-09 -0.000154573)
(-1.47837e-09 -3.93094e-09 -0.000154439)
(-5.15185e-09 2.3062e-09 -0.000154572)
(7.74063e-10 -4.1883e-09 -0.000154438)
(-2.13845e-09 -1.01206e-08 -0.00016153)
(-1.47501e-09 3.52824e-09 -0.000161589)
(-7.99338e-09 -1.04457e-09 -0.00016151)
(7.77377e-09 7.33869e-10 -0.000161414)
(-1.08598e-09 4.23823e-09 -0.000161589)
(-1.93286e-09 -9.75937e-09 -0.00016153)
(-3.92519e-09 1.08209e-09 -0.000154639)
(3.77609e-09 -1.21118e-09 -0.000154729)
(4.36581e-09 -2.88969e-10 -0.000154727)
(-3.21258e-09 -2.76889e-09 -0.000154636)
(4.13706e-09 -3.07973e-10 -0.000154732)
(-3.56813e-09 1.75861e-09 -0.000154638)
(2.80247e-09 -3.87659e-09 -0.000154633)
(-4.73382e-09 -1.2977e-09 -0.000154726)
(3.24988e-09 2.71773e-09 -0.000154639)
(-4.11303e-09 -2.84329e-10 -0.00015473)
(-4.57915e-09 -9.06636e-10 -0.000154726)
(2.70468e-09 -4.01772e-09 -0.000154634)
(-4.15627e-09 -1.61414e-10 -0.00015473)
(3.30139e-09 2.5554e-09 -0.000154639)
(-1.18725e-08 -3.14894e-09 -0.000161428)
(7.1677e-09 4.57859e-10 -0.000161521)
(-7.10242e-10 -7.58752e-09 -0.000161595)
(9.4749e-10 7.78762e-09 -0.000161523)
(4.96755e-09 -7.89101e-10 -0.000161516)
(-7.60866e-09 -4.76407e-10 -0.000161431)
(-4.44957e-09 2.79184e-09 -0.000154444)
(2.25442e-09 -3.54575e-09 -0.000154582)
(2.67978e-09 3.46709e-09 -0.000154446)
(-3.648e-09 -3.0224e-09 -0.000154582)
(3.10387e-09 -3.22713e-09 -0.000154579)
(-3.19982e-09 3.3101e-09 -0.000154445)
(-3.52937e-09 -3.0628e-09 -0.000154582)
(2.66827e-09 3.46395e-09 -0.000154446)
(-1.23484e-09 8.55841e-09 -0.000161527)
(-8.02346e-10 -4.71996e-09 -0.000161588)
(8.47522e-09 -1.1383e-09 -0.000161429)
(-7.38493e-09 6.29116e-10 -0.000161521)
(-8.10103e-10 -4.70206e-09 -0.000161588)
(-1.15577e-09 8.39552e-09 -0.000161527)
(-7.34675e-09 6.13001e-10 -0.000161521)
(8.35973e-09 -1.0861e-09 -0.000161429)
(-7.74253e-09 7.54092e-10 -0.000161414)