/*--------------------------------*- C++ -*----------------------------------*\
| =========                 |                                                 |
| \\      /  F ield         | OpenFOAM: The Open Source CFD Toolbox           |
|  \\    /   O peration     | Version:  2206                                  |
|   \\  /    A nd           | Website:  www.openfoam.com                      |
|    \\/     M anipulation  |                                                 |
\*---------------------------------------------------------------------------*/
FoamFile
{
    version     2.0;
    format      ascii;
    arch        "LSB;label=32;scalar=64";
    class       volScalarField;
    location    "0.3";
    object      Co;
}
// * * * * * * * * * * * * * * * * * * * * * * * * * * * * * * * * * * * * * //

dimensions      [0 0 0 0 0 0 0];

internalField   nonuniform List<scalar> 
183793
(
0.147616
0.146022
0.147822
0.146862
0.146534
0.147943
0.147352
0.147335
0.147818
0.146267
0.146844
0.146682
0.147822
0.146057
0.146481
0.146465
0.146274
0.146918
0.147019
0.147651
0.146991
0.148153
0.146737
0.147671
0.146224
0.147001
0.145942
0.147914
0.147665
0.146015
0.147839
0.146231
0.14716
0.146158
0.146277
0.147153
0.147883
0.147572
0.146569
0.147626
0.146278
0.146002
0.147697
0.147457
0.146066
0.145879
0.146345
0.147081
0.147049
0.146511
0.147801
0.147399
0.147695
0.147761
0.147777
0.146581
0.146262
0.147802
0.147585
0.147712
0.146709
0.147572
0.147565
0.14677
0.146391
0.147564
0.147608
0.147636
0.147475
0.147764
0.147699
0.147055
0.148117
0.147243
0.14785
0.147442
0.147451
0.147648
0.148109
0.147073
0.146075
0.146242
0.14672
0.147611
0.147761
0.147553
0.148097
0.147462
0.147981
0.14745
0.147922
0.147153
0.147343
0.148001
0.146228
0.148123
0.148606
0.147693
0.147473
0.147259
0.147293
0.147454
0.147585
0.147641
0.147579
0.147952
0.147652
0.147372
0.147485
0.147285
0.147934
0.146852
0.147768
0.147925
0.147597
0.14593
0.147399
0.14751
0.148092
0.14802
0.147638
0.14628
0.147664
0.14761
0.147899
0.147523
0.147218
0.14757
0.146376
0.147815
0.147447
0.147899
0.147379
0.147469
0.147756
0.147693
0.147481
0.147699
0.147427
0.14763
0.147756
0.148087
0.14785
0.147799
0.146962
0.147412
0.147587
0.147954
0.147392
0.147427
0.147386
0.147115
0.147553
0.147573
0.147757
0.148059
0.147612
0.147955
0.147764
0.147548
0.147676
0.146989
0.147665
0.146719
0.147309
0.147622
0.147351
0.146044
0.147548
0.147657
0.147406
0.146586
0.14804
0.147656
0.147586
0.147244
0.147724
0.147312
0.147586
0.147697
0.147636
0.147709
0.147413
0.147548
0.147549
0.147737
0.147163
0.147432
0.147387
0.148003
0.147256
0.147971
0.147481
0.147548
0.147638
0.147575
0.147643
0.147533
0.147623
0.148252
0.147721
0.147832
0.147533
0.146486
0.146892
0.147485
0.147603
0.147649
0.147647
0.147715
0.147715
0.147596
0.147548
0.147675
0.147704
0.148126
0.147505
0.147575
0.147972
0.148079
0.147748
0.147966
0.147953
0.147697
0.147509
0.148021
0.148151
0.147589
0.147814
0.14766
0.146702
0.146373
0.147989
0.146444
0.147922
0.147896
0.14773
0.147764
0.14793
0.148344
0.147736
0.148034
0.148071
0.147494
0.147633
0.147393
0.147561
0.147586
0.146013
0.148161
0.147601
0.147564
0.146536
0.147372
0.1478
0.146538
0.146473
0.146424
0.14657
0.147477
0.148624
0.147617
0.147601
0.14625
0.147479
0.147615
0.148182
0.147468
0.147688
0.14784
0.147469
0.147679
0.147572
0.147551
0.147565
0.147652
0.147174
0.147642
0.147818
0.147464
0.147595
0.147507
0.147814
0.147175
0.147539
0.147883
0.14762
0.147984
0.147672
0.147354
0.146314
0.147367
0.146178
0.147752
0.147813
0.146107
0.147932
0.14758
0.148202
0.147781
0.148151
0.14701
0.146292
0.147612
0.147452
0.148022
0.146303
0.148242
0.147673
0.147102
0.147915
0.147626
0.147821
0.147416
0.147952
0.14778
0.14724
0.147775
0.14755
0.148215
0.14746
0.147524
0.148498
0.147727
0.147604
0.147493
0.14768
0.147534
0.147508
0.148049
0.14733
0.147442
0.147521
0.147915
0.145841
0.147958
0.148
0.147462
0.147829
0.146069
0.147665
0.14755
0.14768
0.147153
0.147628
0.147915
0.148279
0.147544
0.147466
0.147658
0.14797
0.147112
0.146758
0.146494
0.147888
0.148263
0.148026
0.147535
0.147534
0.147606
0.147611
0.147293
0.147402
0.147919
0.148056
0.147606
0.14848
0.147281
0.147885
0.146987
0.147562
0.146203
0.146146
0.146507
0.146351
0.146645
0.147697
0.146506
0.147007
0.146698
0.147446
0.147718
0.14722
0.147935
0.147686
0.147189
0.147526
0.147821
0.148129
0.147456
0.147585
0.14814
0.148001
0.147931
0.147677
0.147677
0.148136
0.147587
0.147539
0.146344
0.147255
0.14769
0.147399
0.147634
0.146466
0.14751
0.147426
0.147633
0.147256
0.147487
0.147452
0.147512
0.147705
0.147714
0.147835
0.147442
0.147925
0.147769
0.147962
0.14766
0.147331
0.146399
0.147589
0.14768
0.147648
0.147607
0.147658
0.147623
0.147895
0.147451
0.146714
0.148469
0.147791
0.147233
0.146555
0.146806
0.147935
0.148312
0.14755
0.14778
0.14769
0.148345
0.148021
0.147416
0.147698
0.147661
0.147675
0.147432
0.147595
0.14714
0.147536
0.147928
0.147646
0.147338
0.146583
0.146652
0.146482
0.148073
0.147671
0.147795
0.147387
0.147411
0.146408
0.147536
0.147952
0.147511
0.148211
0.147637
0.147677
0.147587
0.147746
0.146742
0.147481
0.147573
0.147548
0.147617
0.147413
0.147709
0.146963
0.146847
0.147534
0.14802
0.147672
0.147601
0.147379
0.146635
0.147867
0.14791
0.147964
0.147541
0.14762
0.146549
0.147219
0.147075
0.147698
0.147447
0.147637
0.146225
0.147749
0.147779
0.14797
0.146026
0.146304
0.147384
0.147663
0.147568
0.147595
0.147712
0.147139
0.14735
0.147406
0.145859
0.147777
0.147123
0.147123
0.147501
0.147372
0.147765
0.147664
0.148276
0.147236
0.147674
0.14627
0.1465
0.147335
0.146488
0.146032
0.147446
0.147338
0.147502
0.14753
0.147445
0.147559
0.147509
0.146848
0.14632
0.146065
0.147398
0.147615
0.147753
0.147964
0.147051
0.148202
0.147563
0.146329
0.147466
0.148005
0.146611
0.147762
0.146796
0.146234
0.147205
0.14768
0.147354
0.148253
0.147786
0.147319
0.147769
0.147982
0.147218
0.14722
0.146675
0.145954
0.146522
0.147171
0.147608
0.146452
0.147784
0.147951
0.148003
0.14606
0.147464
0.147775
0.148025
0.147582
0.147664
0.147689
0.148051
0.147975
0.147746
0.147644
0.147615
0.148082
0.147699
0.14821
0.147958
0.147805
0.147972
0.147918
0.147727
0.147661
0.147819
0.148137
0.147675
0.148049
0.147787
0.147847
0.147711
0.147864
0.14848
0.14792
0.147933
0.147876
0.147956
0.148256
0.148075
0.147873
0.14785
0.147807
0.147808
0.14789
0.147857
0.14788
0.147991
0.148068
0.147791
0.147794
0.147881
0.147836
0.147692
0.147543
0.147446
0.147788
0.148189
0.148107
0.147775
0.147803
0.147955
0.14795
0.147953
0.147996
0.148248
0.148175
0.148175
0.148482
0.147733
0.147681
0.147707
0.147989
0.147771
0.1476
0.147327
0.147535
0.147629
0.147524
0.147936
0.147915
0.147915
0.148012
0.147779
0.147712
0.147592
0.147686
0.147684
0.147897
0.148185
0.148342
0.147802
0.148107
0.147744
0.147657
0.147619
0.147543
0.147543
0.147652
0.147475
0.147566
0.147287
0.147557
0.147182
0.147299
0.147158
0.147433
0.147433
0.148071
0.147711
0.147633
0.147846
0.147687
0.147822
0.147572
0.147713
0.147436
0.147705
0.147677
0.147851
0.147791
0.147835
0.147863
0.147632
0.147666
0.14765
0.147518
0.147976
0.147544
0.148066
0.147659
0.147686
0.147915
0.147868
0.147768
0.147789
0.147778
0.147993
0.147869
0.147946
0.147702
0.147702
0.147944
0.147944
0.147816
0.148161
0.148111
0.147953
0.147775
0.147802
0.147957
0.147958
0.14763
0.14813
0.147745
0.147749
0.147786
0.147744
0.147654
0.148149
0.147664
0.147579
0.147727
0.147728
0.147778
0.147755
0.147769
0.147655
0.14777
0.147867
0.147889
0.147953
0.148164
0.147596
0.147659
0.147928
0.147893
0.147496
0.147884
0.147876
0.147558
0.147499
0.147583
0.147987
0.147745
0.147902
0.148162
0.147645
0.147637
0.147676
0.147522
0.147527
0.147561
0.147241
0.147699
0.148126
0.148114
0.147887
0.147917
0.148044
0.148104
0.148052
0.148026
0.148147
0.147812
0.147813
0.147799
0.14758
0.147581
0.147581
0.148051
0.147323
0.14766
0.147661
0.147466
0.148062
0.147831
0.147832
0.147801
0.147801
0.147738
0.147841
0.147541
0.147544
0.147854
0.147854
0.147565
0.147916
0.147706
0.147706
0.147664
0.147394
0.147415
0.147537
0.147525
0.147525
0.147347
0.147664
0.147288
0.147561
0.147359
0.147479
0.147578
0.147581
0.147721
0.147721
0.147697
0.14784
0.14802
0.147758
0.147393
0.147393
0.147395
0.147432
0.147848
0.147655
0.147786
0.147786
0.1477
0.147983
0.148014
0.147625
0.147453
0.147415
0.147456
0.147411
0.147539
0.147616
0.147581
0.147718
0.14793
0.147582
0.148333
0.14798
0.147553
0.147672
0.148001
0.14819
0.148508
0.147857
0.147889
0.148073
0.148179
0.148156
0.148243
0.147764
0.147851
0.147806
0.147633
0.147584
0.147647
0.147947
0.148068
0.147582
0.147721
0.147806
0.147656
0.147888
0.147658
0.147749
0.147704
0.147704
0.1476
0.1476
0.147894
0.147894
0.148354
0.14831
0.148166
0.147642
0.147823
0.147855
0.14772
0.147758
0.147623
0.147612
0.147612
0.147924
0.148043
0.14759
0.147644
0.148232
0.147816
0.147477
0.147666
0.147369
0.147632
0.147704
0.147704
0.147315
0.147909
0.147875
0.147718
0.147697
0.147471
0.147501
0.148055
0.148083
0.148528
0.147875
0.148271
0.14803
0.147792
0.147359
0.147411
0.147545
0.147489
0.147694
0.147815
0.147617
0.147433
0.147561
0.147645
0.14822
0.147751
0.147752
0.147718
0.147718
0.147541
0.147338
0.147948
0.147782
0.147621
0.147671
0.147648
0.147969
0.147592
0.147592
0.147514
0.147662
0.147504
0.147649
0.147676
0.147447
0.147254
0.147254
0.147527
0.147881
0.147738
0.147729
0.148147
0.147709
0.147767
0.148374
0.147993
0.14798
0.147538
0.147538
0.147527
0.14757
0.147834
0.14806
0.147892
0.147794
0.147885
0.148058
0.148058
0.14755
0.14755
0.147463
0.14742
0.147491
0.14758
0.147252
0.147595
0.147595
0.147387
0.148064
0.147866
0.147866
0.147892
0.148142
0.147711
0.148198
0.148174
0.147746
0.147965
0.148283
0.148317
0.148236
0.14774
0.147577
0.147913
0.147978
0.147835
0.147743
0.14769
0.14771
0.147616
0.148013
0.147865
0.147865
0.147645
0.147547
0.147708
0.14803
0.147989
0.147793
0.147667
0.147788
0.147923
0.147944
0.148036
0.148487
0.148235
0.147377
0.147698
0.147641
0.147419
0.147419
0.147566
0.147577
0.14758
0.14802
0.147846
0.147638
0.147965
0.147773
0.147773
0.147864
0.147669
0.147292
0.147424
0.147341
0.147503
0.147488
0.147529
0.147529
0.14768
0.14768
0.14794
0.147482
0.14807
0.14807
0.147943
0.148247
0.14786
0.14786
0.148481
0.147622
0.147278
0.147734
0.147667
0.147651
0.147829
0.147583
0.147602
0.147458
0.147478
0.148012
0.147834
0.14768
0.147917
0.147917
0.147696
0.147828
0.147807
0.147937
0.148249
0.147927
0.147606
0.148127
0.148216
0.147762
0.147685
0.147624
0.147825
0.14781
0.147902
0.147437
0.147668
0.147712
0.14807
0.14766
0.147515
0.147862
0.148038
0.147941
0.148038
0.147695
0.147437
0.147649
0.147914
0.147918
0.147987
0.147854
0.148043
0.148032
0.14782
0.148067
0.147978
0.147889
0.147705
0.147218
0.14745
0.147292
0.147278
0.147297
0.147375
0.147558
0.14782
0.14782
0.148193
0.147487
0.147754
0.148135
0.147873
0.147852
0.147872
0.148216
0.147834
0.14775
0.147918
0.147988
0.147783
0.147806
0.148132
0.147904
0.147507
0.147594
0.147714
0.147942
0.147935
0.147739
0.147373
0.147507
0.147711
0.147695
0.147776
0.147672
0.14761
0.147686
0.14762
0.147647
0.148019
0.147812
0.147705
0.148092
0.148139
0.148092
0.147982
0.147567
0.147777
0.147619
0.147594
0.147674
0.147757
0.1475
0.147718
0.148059
0.147625
0.147867
0.147554
0.147587
0.147649
0.147941
0.14752
0.147419
0.147257
0.147311
0.14731
0.147663
0.147629
0.147629
0.147709
0.147785
0.14755
0.148425
0.148199
0.148166
0.148032
0.148032
0.147692
0.147996
0.147809
0.147809
0.147755
0.147634
0.147253
0.147343
0.147492
0.147772
0.147871
0.147452
0.14751
0.147812
0.147571
0.147742
0.147797
0.147797
0.147646
0.147646
0.14801
0.148124
0.148056
0.148056
0.148344
0.148383
0.147965
0.147825
0.148051
0.147616
0.148041
0.147658
0.14774
0.147718
0.147952
0.147897
0.147703
0.147319
0.147573
0.147982
0.147578
0.147709
0.147677
0.147608
0.147601
0.147623
0.147838
0.148391
0.147803
0.147709
0.148169
0.147857
0.147688
0.147566
0.147739
0.147497
0.147235
0.147235
0.14744
0.14744
0.147778
0.147516
0.147449
0.147467
0.147714
0.148128
0.147893
0.147892
0.147826
0.147945
0.147843
0.148145
0.147939
0.148066
0.147776
0.14787
0.147602
0.14767
0.147767
0.1478
0.147873
0.147872
0.147817
0.147741
0.147744
0.147817
0.147814
0.147661
0.147552
0.147406
0.147764
0.147764
0.14777
0.147788
0.14775
0.14775
0.147849
0.147877
0.147825
0.147731
0.147868
0.148022
0.147925
0.148174
0.147691
0.147481
0.147697
0.147697
0.147657
0.147599
0.147592
0.147772
0.147791
0.14783
0.14811
0.147894
0.147461
0.147556
0.147638
0.147372
0.147299
0.147468
0.147269
0.147058
0.147158
0.147229
0.147653
0.147722
0.147752
0.147752
0.147669
0.148019
0.148235
0.147925
0.148194
0.148263
0.147884
0.148121
0.148434
0.148129
0.147778
0.147618
0.147727
0.147641
0.147436
0.147596
0.147465
0.148132
0.147835
0.147835
0.147557
0.147468
0.14752
0.147793
0.147862
0.148402
0.147999
0.147534
0.147945
0.1481
0.14794
0.14794
0.147747
0.148146
0.147821
0.147691
0.147663
0.147512
0.14728
0.14766
0.14767
0.148074
0.147828
0.147323
0.147314
0.147313
0.147409
0.1476
0.147597
0.147737
0.147857
0.14792
0.14791
0.148024
0.147725
0.148087
0.147663
0.147619
0.147593
0.147639
0.147639
0.14743
0.147434
0.147502
0.147551
0.147463
0.147677
0.147574
0.147404
0.147615
0.14792
0.147886
0.147763
0.148011
0.148068
0.147889
0.147809
0.147796
0.147947
0.147928
0.147521
0.147656
0.14772
0.147666
0.148012
0.147934
0.147887
0.147918
0.147772
0.147819
0.147755
0.147741
0.147637
0.147806
0.147514
0.147722
0.147786
0.147647
0.147939
0.147833
0.148134
0.147705
0.147649
0.148144
0.148004
0.148051
0.147871
0.147714
0.147924
0.147977
0.147377
0.147698
0.147609
0.147573
0.147573
0.147566
0.147553
0.147838
0.147905
0.147838
0.147838
0.147927
0.147733
0.14752
0.147216
0.147566
0.14744
0.147299
0.147123
0.146991
0.147226
0.147651
0.147842
0.147659
0.147842
0.147859
0.148177
0.148177
0.148472
0.148327
0.148137
0.148303
0.148644
0.147902
0.147696
0.147877
0.147696
0.147781
0.147811
0.147882
0.147524
0.147344
0.147877
0.148065
0.147772
0.147599
0.147577
0.147523
0.148198
0.14809
0.147946
0.14796
0.147778
0.147636
0.148008
0.148097
0.147969
0.147701
0.147679
0.147455
0.147444
0.147766
0.147615
0.14747
0.147173
0.147548
0.147669
0.147984
0.147351
0.147277
0.147645
0.147583
0.147314
0.14752
0.147602
0.147882
0.147731
0.147731
0.148112
0.147898
0.147572
0.147458
0.147636
0.147654
0.147654
0.147701
0.147616
0.147452
0.147594
0.147531
0.1477
0.147396
0.147292
0.147741
0.147864
0.148068
0.148206
0.148135
0.147819
0.147782
0.147782
0.147726
0.14777
0.148022
0.14746
0.147719
0.14763
0.147724
0.147772
0.147701
0.147807
0.14784
0.147904
0.148081
0.147718
0.147819
0.14795
0.14768
0.147764
0.147605
0.14774
0.147921
0.147823
0.147951
0.147849
0.148038
0.148245
0.147782
0.148034
0.148315
0.148004
0.147932
0.147885
0.147527
0.147544
0.147733
0.147406
0.147428
0.147428
0.147782
0.148052
0.147511
0.147714
0.147841
0.147745
0.14795
0.147585
0.147294
0.14766
0.147318
0.147328
0.147558
0.147273
0.147034
0.147268
0.147832
0.147662
0.14767
0.14793
0.148034
0.148372
0.148037
0.147919
0.148264
0.14844
0.148091
0.148091
0.14785
0.148208
0.147811
0.14776
0.147935
0.147602
0.147551
0.14755
0.147697
0.147788
0.147441
0.147818
0.147608
0.147629
0.147652
0.147807
0.147655
0.148237
0.147798
0.147677
0.147643
0.147643
0.147913
0.147913
0.148005
0.147856
0.147621
0.147591
0.147707
0.147707
0.14788
0.147404
0.147376
0.147751
0.147383
0.147365
0.147326
0.147466
0.147828
0.147463
0.147507
0.147639
0.147547
0.147748
0.147705
0.147705
0.147903
0.147664
0.147606
0.147486
0.147747
0.147775
0.147751
0.147818
0.147646
0.147321
0.147529
0.147627
0.147515
0.147232
0.147646
0.147637
0.147815
0.148131
0.148046
0.148225
0.148146
0.147907
0.147824
0.147824
0.14769
0.147613
0.147618
0.147859
0.147675
0.14767
0.147626
0.147626
0.147996
0.14836
0.14838
0.14792
0.147753
0.147721
0.14832
0.14764
0.147719
0.147995
0.147845
0.147808
0.14811
0.147988
0.14771
0.14771
0.147938
0.148553
0.148025
0.148003
0.148142
0.147766
0.147504
0.147569
0.147588
0.147593
0.14753
0.147801
0.147863
0.147863
0.148045
0.147657
0.147744
0.14772
0.147582
0.147582
0.147694
0.147344
0.147156
0.147548
0.147339
0.147338
0.147464
0.147296
0.147598
0.147635
0.147681
0.147828
0.148416
0.14831
0.148145
0.148367
0.147931
0.14795
0.147974
0.147956
0.147878
0.147878
0.147737
0.147996
0.147773
0.147508
0.147713
0.1476
0.147589
0.147588
0.147663
0.147593
0.147483
0.147803
0.147669
0.147669
0.147734
0.147824
0.147865
0.147768
0.147785
0.147572
0.14798
0.14798
0.148008
0.148058
0.14802
0.147901
0.14835
0.14747
0.147613
0.147612
0.147491
0.147509
0.147683
0.1476
0.147414
0.147616
0.147602
0.147616
0.147581
0.14751
0.147697
0.147697
0.147587
0.147658
0.147555
0.147555
0.147804
0.147717
0.147449
0.147544
0.147755
0.14808
0.14797
0.147479
0.147776
0.147571
0.147353
0.14735
0.147628
0.147481
0.148006
0.148066
0.148215
0.147924
0.147865
0.147718
0.147778
0.147846
0.147747
0.147747
0.14769
0.147809
0.147972
0.147787
0.147709
0.147709
0.148076
0.148077
0.147844
0.147859
0.148162
0.148356
0.147782
0.147634
0.14807
0.147487
0.147781
0.148287
0.147848
0.147534
0.147626
0.148072
0.14814
0.148503
0.147802
0.147896
0.147827
0.1477
0.14771
0.147602
0.14785
0.147631
0.147604
0.147604
0.147745
0.147972
0.148093
0.147941
0.147711
0.147521
0.14738
0.147653
0.147525
0.147525
0.147449
0.147219
0.147294
0.147542
0.147303
0.147343
0.147613
0.147832
0.147847
0.148298
0.148135
0.148419
0.148461
0.148147
0.14798
0.147505
0.1479
0.148153
0.148047
0.148125
0.147541
0.147541
0.147373
0.147373
0.147342
0.147752
0.147684
0.147701
0.147825
0.147825
0.1475
0.147748
0.147735
0.1477
0.14801
0.148203
0.147746
0.147787
0.147787
0.147815
0.147894
0.147789
0.14797
0.14797
0.14812
0.148408
0.14789
0.1477
0.147922
0.147554
0.147731
0.147731
0.14737
0.147359
0.147601
0.147422
0.147509
0.147409
0.147668
0.147807
0.147749
0.147749
0.147676
0.147676
0.147721
0.147997
0.147992
0.147681
0.147581
0.147581
0.147776
0.147698
0.1476
0.147552
0.147225
0.147405
0.147492
0.147508
0.14741
0.148283
0.148613
0.148201
0.147951
0.147992
0.147748
0.147499
0.147745
0.147745
0.147778
0.147737
0.14784
0.14784
0.147728
0.148319
0.148211
0.14771
0.14813
0.148238
0.148076
0.147671
0.147732
0.147732
0.147715
0.148093
0.147831
0.147648
0.14788
0.147715
0.14772
0.147719
0.147471
0.14787
0.148142
0.148142
0.148357
0.147783
0.14774
0.147692
0.14783
0.148094
0.148094
0.147815
0.148114
0.147539
0.147921
0.148074
0.14772
0.147943
0.147693
0.147693
0.147559
0.147642
0.147372
0.147659
0.147497
0.147497
0.147335
0.147506
0.147512
0.147352
0.147906
0.147672
0.148073
0.148219
0.147845
0.148499
0.14811
0.148294
0.148294
0.14768
0.148471
0.147958
0.147922
0.147944
0.148071
0.14746
0.147392
0.147392
0.147487
0.147487
0.147479
0.147918
0.147873
0.147871
0.14801
0.147798
0.147557
0.148216
0.148262
0.147863
0.147838
0.147855
0.147615
0.147697
0.147774
0.148109
0.147994
0.148251
0.147737
0.147737
0.147818
0.147892
0.14753
0.147804
0.147903
0.147663
0.147423
0.147588
0.147577
0.147682
0.147379
0.147416
0.147483
0.14783
0.147792
0.148005
0.147815
0.147888
0.147628
0.147981
0.147875
0.147453
0.14781
0.147739
0.14778
0.147602
0.147468
0.147305
0.147284
0.147284
0.147301
0.147356
0.147656
0.148281
0.148455
0.148206
0.148056
0.147967
0.147608
0.148195
0.14821
0.147752
0.148022
0.148249
0.147883
0.147834
0.147849
0.148246
0.147726
0.147972
0.148643
0.148202
0.14796
0.147511
0.147542
0.147635
0.147642
0.147642
0.147717
0.147545
0.147866
0.147586
0.147632
0.147632
0.147768
0.147588
0.147972
0.148458
0.14812
0.14781
0.147636
0.147716
0.147756
0.147909
0.147639
0.148158
0.148158
0.147774
0.148463
0.14781
0.14798
0.148242
0.148117
0.147629
0.147554
0.147554
0.14752
0.147603
0.147679
0.147422
0.147477
0.147637
0.147711
0.147933
0.148067
0.147946
0.148492
0.148276
0.148274
0.147775
0.147821
0.148404
0.148302
0.148305
0.148538
0.147701
0.148103
0.147854
0.1475
0.147521
0.147748
0.147593
0.147515
0.147523
0.147674
0.147619
0.147919
0.148015
0.147813
0.147853
0.147938
0.148127
0.148062
0.148489
0.148381
0.147781
0.147608
0.147524
0.147661
0.147723
0.147761
0.14804
0.147614
0.147622
0.147663
0.147662
0.147432
0.147672
0.147595
0.147462
0.147373
0.147516
0.147742
0.147568
0.147531
0.147523
0.147552
0.147679
0.147882
0.148013
0.148013
0.147682
0.14773
0.148064
0.14763
0.147607
0.147855
0.147507
0.147722
0.147722
0.14774
0.147531
0.14747
0.147357
0.147249
0.1475
0.147775
0.148568
0.148114
0.147667
0.147911
0.147819
0.14806
0.148339
0.148042
0.147926
0.148156
0.148205
0.148239
0.148476
0.148618
0.14803
0.148151
0.148312
0.148043
0.147742
0.147792
0.147551
0.147453
0.147727
0.14761
0.147652
0.147461
0.147461
0.147718
0.147718
0.148092
0.147685
0.147722
0.147776
0.147894
0.147894
0.147756
0.147788
0.147778
0.148195
0.148195
0.147562
0.147832
0.147939
0.147623
0.148663
0.148663
0.147861
0.147698
0.148111
0.147682
0.147717
0.147833
0.147385
0.14754
0.147798
0.147375
0.147922
0.147906
0.147478
0.147498
0.147943
0.148003
0.14832
0.147875
0.148119
0.147916
0.14766
0.148001
0.147867
0.147689
0.148549
0.148372
0.147749
0.147749
0.147583
0.147339
0.147339
0.147565
0.147618
0.148023
0.147614
0.147614
0.147697
0.147634
0.147737
0.147922
0.147865
0.14796
0.148529
0.147826
0.148144
0.14824
0.147731
0.147865
0.147555
0.147865
0.14749
0.147826
0.147826
0.147698
0.1478
0.147748
0.148047
0.147606
0.147568
0.147568
0.147568
0.147472
0.147632
0.147529
0.147873
0.147873
0.147435
0.147625
0.148006
0.148293
0.148303
0.147912
0.147682
0.147855
0.147604
0.147786
0.147876
0.147601
0.147653
0.147833
0.147595
0.147627
0.147598
0.14744
0.147234
0.147301
0.14778
0.148001
0.147901
0.147827
0.147919
0.147828
0.147885
0.147845
0.148057
0.147573
0.14749
0.148193
0.148736
0.148388
0.148318
0.148193
0.148218
0.147977
0.148277
0.148073
0.147856
0.147925
0.147555
0.147549
0.147522
0.147678
0.147792
0.147886
0.147501
0.147678
0.147678
0.147635
0.147925
0.147705
0.147741
0.148013
0.148126
0.147724
0.14747
0.147711
0.148178
0.147974
0.147674
0.147674
0.147542
0.147587
0.148097
0.147954
0.14766
0.147669
0.147771
0.147491
0.1478
0.147778
0.14772
0.147778
0.147646
0.147599
0.147889
0.147763
0.147609
0.147651
0.14798
0.147957
0.147896
0.147973
0.147879
0.147781
0.147841
0.148091
0.147926
0.147916
0.148115
0.148057
0.147368
0.147586
0.147458
0.147669
0.147506
0.147576
0.147575
0.147568
0.147636
0.147635
0.147857
0.148018
0.148067
0.147855
0.148073
0.148427
0.1478
0.147672
0.148342
0.147476
0.147351
0.147566
0.148021
0.148027
0.147787
0.148381
0.147875
0.147703
0.147703
0.147859
0.148164
0.148322
0.147643
0.147512
0.147505
0.147577
0.147521
0.147436
0.147739
0.147533
0.147527
0.147686
0.147743
0.147931
0.147996
0.148045
0.147731
0.147478
0.147581
0.147544
0.147544
0.14779
0.147753
0.147618
0.147679
0.147682
0.147682
0.147457
0.147319
0.147395
0.147603
0.147658
0.14803
0.147945
0.148136
0.147868
0.147439
0.14774
0.147741
0.147553
0.147609
0.148366
0.148127
0.148423
0.148502
0.147715
0.148016
0.147997
0.147784
0.14785
0.14785
0.14773
0.14784
0.14784
0.147473
0.147881
0.147651
0.147659
0.14766
0.147796
0.147757
0.147693
0.147693
0.147689
0.148066
0.14814
0.14814
0.147854
0.147713
0.147705
0.147651
0.147703
0.147868
0.147747
0.147474
0.147512
0.147512
0.147451
0.147407
0.147701
0.147434
0.147696
0.147722
0.147343
0.14726
0.147523
0.147607
0.147679
0.14801
0.147508
0.147394
0.147734
0.147685
0.147622
0.148231
0.148231
0.147567
0.147835
0.148084
0.147731
0.147466
0.147784
0.147784
0.148137
0.147476
0.14743
0.147885
0.147868
0.147868
0.147681
0.147807
0.14795
0.147708
0.147614
0.147871
0.147941
0.147564
0.147748
0.148243
0.147855
0.147951
0.147884
0.147791
0.147517
0.147249
0.147621
0.147621
0.148
0.148493
0.148493
0.147762
0.1481
0.147885
0.148199
0.147781
0.147767
0.147714
0.147599
0.147606
0.147669
0.14742
0.147631
0.147469
0.14725
0.148094
0.1483
0.147697
0.147613
0.147613
0.147647
0.147716
0.147386
0.147532
0.147666
0.147758
0.147815
0.147815
0.147833
0.147411
0.147748
0.14766
0.147848
0.147406
0.147705
0.147476
0.147878
0.147715
0.147903
0.147914
0.147739
0.147555
0.147754
0.148036
0.147975
0.147923
0.147903
0.148542
0.148105
0.147956
0.148013
0.147902
0.147803
0.147819
0.147802
0.147722
0.147705
0.147712
0.147713
0.148046
0.148114
0.147605
0.147709
0.147654
0.147787
0.148136
0.148368
0.147596
0.147824
0.147836
0.148006
0.147974
0.147641
0.147635
0.147508
0.147675
0.147698
0.147698
0.147987
0.147469
0.147541
0.147542
0.147484
0.147539
0.147517
0.147921
0.147526
0.147526
0.147721
0.147637
0.147357
0.147297
0.147567
0.147567
0.147801
0.147743
0.147473
0.147377
0.147704
0.148073
0.147897
0.147836
0.147836
0.14752
0.147527
0.147597
0.147638
0.147639
0.147594
0.147594
0.147547
0.147472
0.147796
0.147977
0.148502
0.147801
0.14754
0.147703
0.147771
0.148086
0.147574
0.147551
0.147891
0.148178
0.147602
0.147832
0.148061
0.147979
0.147929
0.147464
0.147646
0.147486
0.147689
0.148357
0.148108
0.147803
0.147803
0.148144
0.147758
0.147703
0.147889
0.147645
0.14773
0.147925
0.147767
0.147628
0.148047
0.147491
0.147837
0.148812
0.148745
0.147451
0.147593
0.1477
0.147571
0.147571
0.148071
0.147782
0.14738
0.14764
0.147768
0.147764
0.147566
0.147566
0.147686
0.147686
0.147633
0.147765
0.147533
0.147699
0.147976
0.147812
0.147985
0.148274
0.148275
0.147591
0.14794
0.148193
0.147933
0.147864
0.148313
0.147971
0.147903
0.148692
0.147854
0.147844
0.147846
0.147846
0.147663
0.147986
0.147847
0.147847
0.147471
0.147492
0.147734
0.147703
0.147703
0.147357
0.147783
0.148554
0.148443
0.147616
0.147965
0.14785
0.147984
0.148042
0.148068
0.147676
0.147612
0.147659
0.147611
0.147929
0.147663
0.147663
0.147644
0.147644
0.14764
0.14764
0.147697
0.147515
0.147382
0.147996
0.147567
0.147567
0.147546
0.14725
0.147469
0.147589
0.147589
0.147596
0.147873
0.147509
0.147664
0.147566
0.147639
0.147836
0.147598
0.147578
0.147571
0.147465
0.147514
0.147917
0.147623
0.147756
0.147827
0.147828
0.147697
0.148068
0.147824
0.147844
0.147837
0.147732
0.147828
0.147665
0.147542
0.147684
0.147874
0.147874
0.148191
0.148154
0.147457
0.147696
0.147464
0.147625
0.147566
0.147981
0.148078
0.148033
0.147673
0.14769
0.147721
0.147987
0.147983
0.148079
0.147827
0.147628
0.147652
0.147726
0.147846
0.147992
0.147723
0.147216
0.147762
0.148312
0.147798
0.147718
0.147718
0.147488
0.148111
0.147649
0.147649
0.147477
0.147567
0.147554
0.147718
0.147539
0.147539
0.147659
0.147775
0.147713
0.147849
0.147677
0.147902
0.148145
0.147871
0.147981
0.147702
0.14798
0.147926
0.147883
0.147718
0.147861
0.148579
0.148579
0.147892
0.147635
0.147988
0.147823
0.147689
0.14794
0.14794
0.147747
0.147552
0.147853
0.147852
0.147991
0.147708
0.147669
0.147549
0.147418
0.14767
0.147807
0.147879
0.147795
0.148155
0.148155
0.147827
0.14826
0.147723
0.147844
0.147728
0.147651
0.147554
0.147565
0.147783
0.147666
0.148047
0.147691
0.147731
0.147933
0.147772
0.14772
0.147599
0.147458
0.147303
0.147315
0.147295
0.147436
0.147411
0.147422
0.147513
0.147543
0.147538
0.14789
0.147787
0.148035
0.147573
0.147454
0.147449
0.14744
0.147449
0.147495
0.147428
0.147641
0.147641
0.1475
0.148116
0.147899
0.14799
0.14778
0.14762
0.147688
0.147793
0.147944
0.148208
0.147808
0.147596
0.147516
0.147325
0.147948
0.14821
0.147971
0.147961
0.147819
0.147435
0.147393
0.147463
0.147626
0.147621
0.147717
0.147719
0.147703
0.14761
0.147708
0.147853
0.147857
0.14769
0.1476
0.147733
0.147564
0.147446
0.147494
0.147494
0.147598
0.147206
0.147369
0.147608
0.147946
0.14782
0.147449
0.147654
0.147599
0.148124
0.147649
0.147666
0.14788
0.147768
0.147747
0.147771
0.147963
0.147934
0.147817
0.147849
0.147842
0.147977
0.147539
0.147811
0.147993
0.148029
0.147494
0.147871
0.147872
0.147703
0.147864
0.148063
0.148019
0.147703
0.147677
0.147677
0.147652
0.147893
0.147925
0.148056
0.147905
0.147683
0.147884
0.147851
0.147647
0.147771
0.147717
0.147437
0.147495
0.147236
0.147639
0.147805
0.147826
0.147933
0.148385
0.148456
0.148287
0.147775
0.147821
0.147821
0.147901
0.14766
0.147693
0.147514
0.147631
0.147631
0.147692
0.14805
0.14805
0.147589
0.147593
0.147379
0.147452
0.147459
0.147421
0.147572
0.147424
0.147556
0.147585
0.147585
0.147625
0.147938
0.147905
0.147905
0.147999
0.147876
0.147737
0.14771
0.147639
0.147598
0.147419
0.147455
0.147707
0.147706
0.147721
0.147633
0.147704
0.148059
0.147834
0.147632
0.147561
0.148058
0.148014
0.148014
0.148346
0.147864
0.147925
0.14775
0.147651
0.147586
0.147883
0.147897
0.148353
0.147731
0.147421
0.147635
0.147726
0.147348
0.147763
0.147764
0.147694
0.147491
0.14792
0.147893
0.147897
0.147604
0.14767
0.147667
0.147527
0.147481
0.147373
0.147558
0.147297
0.147297
0.147443
0.147587
0.147775
0.147775
0.147604
0.147603
0.147551
0.147812
0.147712
0.147691
0.147692
0.147841
0.147715
0.147648
0.147884
0.14779
0.147617
0.147584
0.147679
0.147536
0.147373
0.147577
0.147701
0.147701
0.14748
0.147495
0.147618
0.147618
0.147909
0.148225
0.147839
0.147985
0.14808
0.147784
0.14773
0.14773
0.147964
0.148323
0.14789
0.147831
0.147988
0.147825
0.147712
0.147582
0.147449
0.147449
0.147327
0.147327
0.147832
0.147875
0.147791
0.148147
0.148053
0.148369
0.148286
0.147324
0.147567
0.14769
0.1479
0.147975
0.147955
0.147496
0.147527
0.1475
0.147711
0.147888
0.147771
0.147756
0.147572
0.147391
0.147291
0.147291
0.14726
0.14726
0.147535
0.147585
0.147655
0.147543
0.147805
0.147815
0.147927
0.148275
0.147997
0.147997
0.147684
0.147793
0.147416
0.147429
0.147459
0.147661
0.147726
0.147594
0.147664
0.147664
0.14762
0.14789
0.147936
0.147664
0.147684
0.147714
0.147967
0.148338
0.147927
0.147927
0.147757
0.147984
0.147729
0.147387
0.147917
0.148001
0.147856
0.147856
0.148063
0.147818
0.147597
0.147258
0.147772
0.147762
0.147597
0.147928
0.147783
0.147749
0.148266
0.147646
0.147958
0.147496
0.147548
0.147451
0.147276
0.147263
0.147135
0.147558
0.147576
0.147659
0.147707
0.147707
0.147922
0.147711
0.147603
0.147799
0.14754
0.147199
0.147713
0.147943
0.147773
0.147665
0.147753
0.147566
0.147661
0.147661
0.147576
0.147576
0.14763
0.147585
0.14765
0.148002
0.147696
0.147502
0.147665
0.147744
0.147881
0.147907
0.147864
0.147882
0.147718
0.147829
0.147792
0.147929
0.148281
0.14807
0.14809
0.147618
0.147853
0.147853
0.147971
0.147514
0.147482
0.147338
0.14744
0.147618
0.147932