/*--------------------------------*- C++ -*----------------------------------*\
| =========                 |                                                 |
| \\      /  F ield         | OpenFOAM: The Open Source CFD Toolbox           |
|  \\    /   O peration     | Version:  2206                                  |
|   \\  /    A nd           | Website:  www.openfoam.com                      |
|    \\/     M anipulation  |                                                 |
\*---------------------------------------------------------------------------*/
FoamFile
{
    version     2.0;
    format      ascii;
    arch        "LSB;label=32;scalar=64";
    class       volScalarField;
    location    "0.3";
    object      k;
}
// * * * * * * * * * * * * * * * * * * * * * * * * * * * * * * * * * * * * * //

dimensions      [0 2 -2 0 0 0 0];

internalField   nonuniform List<scalar> 
183793
(
8.60849e-08
8.52219e-08
7.59355e-08
7.414e-08
8.54585e-08
7.58335e-08
7.4336e-08
7.42278e-08
7.46225e-08
8.5113e-08
7.37957e-08
7.41623e-08
8.62889e-08
7.40154e-08
8.53713e-08
7.41233e-08
7.37301e-08
7.42771e-08
8.54189e-08
7.462e-08
7.4178e-08
7.61643e-08
8.5445e-08
8.70973e-08
8.50785e-08
8.52739e-08
8.51624e-08
7.59939e-08
7.432e-08
8.51327e-08
7.48189e-08
7.40429e-08
8.56596e-08
8.52582e-08
8.51991e-08
7.53069e-08
8.63067e-08
7.47562e-08
8.55085e-08
8.71454e-08
7.38713e-08
8.51095e-08
8.71755e-08
8.70244e-08
8.51651e-08
8.50534e-08
8.52985e-08
7.3839e-08
8.53005e-08
8.52496e-08
8.59342e-08
8.69016e-08
8.59932e-08
7.41887e-08
7.60884e-08
8.53593e-08
8.53469e-08
7.48673e-08
7.59277e-08
8.71139e-08
8.53825e-08
8.70751e-08
8.59276e-08
7.42075e-08
7.36346e-08
7.57034e-08
8.71358e-08
7.5577e-08
8.56639e-08
8.72054e-08
7.55907e-08
7.42397e-08
8.6212e-08
8.56972e-08
7.61322e-08
7.56315e-08
7.46868e-08
7.47213e-08
8.59346e-08
8.55845e-08
8.50468e-08
8.51957e-08
7.41167e-08
7.58364e-08
8.71342e-08
7.59141e-08
8.56271e-08
8.70125e-08
8.59768e-08
7.56818e-08
8.57033e-08
7.53761e-08
8.58775e-08
8.74073e-08
8.50721e-08
8.59575e-08
8.60033e-08
7.57961e-08
7.58737e-08
7.55062e-08
7.54614e-08
7.57417e-08
7.47131e-08
8.56237e-08
7.55e-08
8.59579e-08
8.61407e-08
8.69274e-08
7.46431e-08
8.68885e-08
8.54822e-08
7.4e-08
7.4767e-08
7.59222e-08
8.57638e-08
8.51711e-08
8.69128e-08
8.57599e-08
8.61774e-08
7.5944e-08
8.57633e-08
8.5278e-08
7.60069e-08
8.70363e-08
7.49737e-08
7.58098e-08
8.68235e-08
7.58124e-08
8.54848e-08
8.58581e-08
8.69335e-08
8.72134e-08
8.59859e-08
8.57785e-08
7.59243e-08
8.60656e-08
7.46633e-08
7.58309e-08
8.68972e-08
8.60034e-08
8.62073e-08
7.61387e-08
8.61243e-08
7.44834e-08
7.40789e-08
8.57547e-08
7.57046e-08
8.73723e-08
8.58884e-08
7.46055e-08
7.41399e-08
7.41158e-08
8.58141e-08
7.57767e-08
7.46732e-08
7.59598e-08
8.58489e-08
8.58834e-08
7.57485e-08
7.56948e-08
8.58266e-08
7.45266e-08
8.59682e-08
7.38684e-08
8.68808e-08
7.46594e-08
7.45606e-08
8.51888e-08
7.47681e-08
7.57718e-08
7.57051e-08
8.51755e-08
7.60314e-08
8.67028e-08
7.5853e-08
7.45461e-08
7.42553e-08
8.69447e-08
8.61736e-08
8.57833e-08
8.57721e-08
8.57467e-08
7.58707e-08
8.7043e-08
7.45501e-08
7.58376e-08
7.55489e-08
8.60183e-08
8.58497e-08
8.60577e-08
7.55813e-08
7.59599e-08
8.59267e-08
7.58705e-08
8.61055e-08
7.55271e-08
8.60592e-08
8.59979e-08
7.5834e-08
7.57406e-08
7.58704e-08
8.59953e-08
7.57222e-08
7.38884e-08
8.53257e-08
7.46365e-08
7.47606e-08
7.47554e-08
8.56188e-08
8.58354e-08
8.59349e-08
7.57595e-08
7.56133e-08
8.60208e-08
8.57335e-08
8.60411e-08
7.56261e-08
8.62818e-08
7.60963e-08
8.56732e-08
8.61064e-08
7.58053e-08
7.61333e-08
8.60313e-08
8.70444e-08
8.63009e-08
7.61932e-08
8.59478e-08
8.59728e-08
8.7204e-08
7.42892e-08
7.38786e-08
7.61629e-08
8.5273e-08
8.58391e-08
8.62475e-08
8.61541e-08
8.59695e-08
7.60189e-08
7.60473e-08
7.6013e-08
7.59678e-08
7.59594e-08
7.57975e-08
8.61797e-08
7.44793e-08
8.57128e-08
7.56601e-08
7.38334e-08
7.60972e-08
7.59238e-08
8.59623e-08
8.53203e-08
7.41265e-08
8.5997e-08
7.41488e-08
8.54512e-08
8.53004e-08
8.53161e-08
7.41477e-08
8.59566e-08
7.47841e-08
8.59291e-08
8.51184e-08
7.57798e-08
8.60591e-08
8.61674e-08
7.56473e-08
8.71179e-08
8.59765e-08
7.43206e-08
8.59926e-08
7.4688e-08
7.5477e-08
8.57113e-08
7.58305e-08
8.57575e-08
7.59208e-08
7.59464e-08
8.55738e-08
8.57826e-08
7.57227e-08
8.59612e-08
7.53194e-08
7.54616e-08
7.59961e-08
7.59692e-08
8.60263e-08
8.61076e-08
7.55361e-08
7.38949e-08
7.45646e-08
8.50032e-08
8.59419e-08
8.57849e-08
8.52048e-08
8.58968e-08
7.56336e-08
8.59762e-08
7.60455e-08
8.64416e-08
7.38948e-08
8.54012e-08
8.58719e-08
8.59308e-08
8.59502e-08
7.39406e-08
7.62937e-08
7.45516e-08
7.51678e-08
8.60104e-08
7.48171e-08
7.47137e-08
8.68681e-08
8.72416e-08
7.59267e-08
7.44214e-08
7.60571e-08
7.56523e-08
7.4777e-08
7.56086e-08
7.57174e-08
8.61598e-08
8.5667e-08
8.57667e-08
8.56406e-08
7.60545e-08
7.46321e-08
8.58687e-08
8.58643e-08
7.55465e-08
8.69821e-08
7.47236e-08
7.50328e-08
8.507e-08
8.62946e-08
7.61753e-08
8.69414e-08
7.5816e-08
8.51988e-08
7.59972e-08
7.46464e-08
7.58851e-08
7.41596e-08
7.46692e-08
8.72603e-08
7.59328e-08
8.57744e-08
8.57112e-08
8.71016e-08
8.59006e-08
8.67378e-08
7.39488e-08
8.52704e-08
7.59601e-08
7.58854e-08
7.62266e-08
8.69228e-08
8.70558e-08
8.60087e-08
8.60491e-08
8.58542e-08
7.43523e-08
7.59099e-08
8.69459e-08
8.70737e-08
8.63815e-08
7.56048e-08
7.59039e-08
7.40333e-08
8.70091e-08
8.53768e-08
7.40657e-08
8.55154e-08
8.52356e-08
7.40626e-08
7.46847e-08
8.51949e-08
7.4009e-08
8.50963e-08
8.69385e-08
8.60914e-08
7.45214e-08
8.73087e-08
7.56554e-08
7.53311e-08
7.55544e-08
8.59553e-08
8.5734e-08
7.59041e-08
8.70525e-08
7.50991e-08
7.50869e-08
8.63362e-08
8.59731e-08
7.5957e-08
8.71408e-08
7.47208e-08
7.43098e-08
8.53518e-08
7.56147e-08
7.59051e-08
7.46014e-08
8.58724e-08
8.51983e-08
7.46738e-08
7.56285e-08
7.57632e-08
8.68226e-08
7.57164e-08
7.56782e-08
8.6945e-08
7.44119e-08
7.47722e-08
7.58733e-08
8.69319e-08
7.48775e-08
8.71827e-08
7.58863e-08
7.47096e-08
7.57361e-08
8.5448e-08
8.56483e-08
8.58599e-08
8.71106e-08
8.60272e-08
7.48362e-08
8.57856e-08
7.46278e-08
8.69585e-08
7.40687e-08
8.57506e-08
7.48236e-08
8.55695e-08
8.55382e-08
7.43167e-08
7.49727e-08
7.59617e-08
8.56208e-08
8.62491e-08
8.58575e-08
7.5196e-08
8.56913e-08
8.69394e-08
7.5905e-08
7.58826e-08
7.59322e-08
7.46447e-08
8.71068e-08
7.42527e-08
7.45928e-08
7.4731e-08
8.70936e-08
8.69264e-08
7.40962e-08
8.51352e-08
7.40075e-08
8.59996e-08
7.48249e-08
8.58467e-08
7.5594e-08
7.57232e-08
8.53723e-08
8.70441e-08
7.50508e-08
8.60655e-08
8.58728e-08
7.56502e-08
7.5506e-08
8.71662e-08
8.59942e-08
8.53638e-08
8.69693e-08
8.60163e-08
8.58145e-08
7.56117e-08
7.56378e-08
8.60901e-08
7.42215e-08
8.56239e-08
8.69561e-08
7.46791e-08
8.69605e-08
8.57909e-08
7.54636e-08
8.53408e-08
8.58732e-08
8.61539e-08
8.61961e-08
7.57918e-08
8.71242e-08
7.3997e-08
8.68258e-08
7.52453e-08
7.59172e-08
7.56772e-08
8.5722e-08
8.53399e-08
8.58669e-08
7.5586e-08
7.59138e-08
8.51862e-08
8.51063e-08
8.6894e-08
7.46874e-08
8.70805e-08
7.47182e-08
7.48792e-08
7.43438e-08
7.55472e-08
8.58506e-08
8.50618e-08
7.58997e-08
7.55088e-08
8.5665e-08
8.5835e-08
7.45236e-08
7.57873e-08
7.47802e-08
8.61337e-08
7.54577e-08
8.71218e-08
8.50767e-08
7.39479e-08
7.54071e-08
7.38508e-08
8.52051e-08
7.46689e-08
7.45094e-08
7.54302e-08
8.5711e-08
7.56499e-08
7.5798e-08
7.58363e-08
7.41933e-08
8.54126e-08
8.51591e-08
7.56536e-08
7.58793e-08
8.56786e-08
7.62398e-08
7.41932e-08
8.57413e-08
8.70275e-08
8.54232e-08
7.45948e-08
8.57485e-08
7.42033e-08
7.5925e-08
7.40545e-08
7.40205e-08
7.39313e-08
7.61398e-08
7.56452e-08
8.60091e-08
7.58493e-08
7.53593e-08
7.49245e-08
8.73571e-08
7.44619e-08
8.68221e-08
7.4008e-08
8.52131e-08
8.5281e-08
7.41241e-08
7.47352e-08
7.39966e-08
8.61428e-08
8.59952e-08
7.59207e-08
7.37576e-08
7.46202e-08
8.60607e-08
8.5609e-08
8.5957e-08
7.56843e-08
8.60153e-08
8.59374e-08
7.5965e-08
8.59383e-08
7.58726e-08
8.59437e-08
7.57905e-08
8.60255e-08
7.60847e-08
7.61397e-08
7.59895e-08
7.61262e-08
8.60985e-08
7.59569e-08
8.60791e-08
7.57122e-08
8.58605e-08
7.61161e-08
8.58964e-08
7.5797e-08
8.59613e-08
7.58748e-08
8.59672e-08
7.63202e-08
8.62976e-08
7.57297e-08
8.57784e-08
7.60365e-08
8.59423e-08
7.57889e-08
8.59318e-08
7.57951e-08
8.59547e-08
7.60942e-08
8.58917e-08
7.57583e-08
8.58065e-08
7.57443e-08
8.59819e-08
7.59302e-08
8.60092e-08
7.60391e-08
8.58627e-08
7.56587e-08
8.57863e-08
7.5441e-08
8.56179e-08
7.59344e-08
8.61352e-08
7.60219e-08
8.60014e-08
7.61105e-08
8.60881e-08
7.60205e-08
8.62908e-08
7.61979e-08
8.6353e-08
7.63671e-08
8.61124e-08
7.56611e-08
8.57163e-08
7.58861e-08
8.59911e-08
7.57273e-08
8.58525e-08
7.56188e-08
8.56918e-08
7.59088e-08
8.5798e-08
7.57704e-08
8.63012e-08
7.60876e-08
8.58816e-08
7.59213e-08
8.58983e-08
7.58545e-08
8.59445e-08
7.57827e-08
8.60309e-08
7.61805e-08
8.6118e-08
7.60332e-08
8.60197e-08
7.58013e-08
8.58718e-08
7.5682e-08
8.58244e-08
7.59275e-08
8.58876e-08
7.57568e-08
8.56588e-08
7.57164e-08
8.56249e-08
7.53164e-08
8.56185e-08
7.55888e-08
8.57781e-08
7.58171e-08
8.57976e-08
7.5838e-08
8.58778e-08
7.57741e-08
8.59376e-08
7.61923e-08
8.56818e-08
7.54525e-08
8.58323e-08
7.56825e-08
8.59662e-08
7.60185e-08
8.60548e-08
7.60524e-08
8.60608e-08
7.57412e-08
8.60699e-08
7.5815e-08
8.57832e-08
7.58288e-08
8.59092e-08
7.59061e-08
8.58958e-08
7.58459e-08
8.59824e-08
7.59049e-08
8.6091e-08
7.58744e-08
8.60035e-08
7.59079e-08
8.59767e-08
7.58737e-08
8.60671e-08
7.59138e-08
8.61826e-08
7.61353e-08
8.60875e-08
7.60717e-08
8.62942e-08
7.60919e-08
8.60236e-08
7.5917e-08
8.62135e-08
7.62056e-08
8.5971e-08
7.58551e-08
8.60731e-08
7.58242e-08
8.59766e-08
7.59483e-08
8.60338e-08
7.60293e-08
8.60282e-08
7.56328e-08
8.60322e-08
7.61085e-08
8.58808e-08
7.57926e-08
8.62053e-08
7.57428e-08
8.58424e-08
7.63104e-08
8.60341e-08
7.5683e-08
8.59255e-08
7.58714e-08
8.59246e-08
7.59761e-08
8.59743e-08
7.56107e-08
8.57354e-08
7.59764e-08
8.58936e-08
7.57262e-08
8.59249e-08
7.57948e-08
8.58686e-08
7.59031e-08
8.58705e-08
7.58864e-08
8.58022e-08
7.56496e-08
8.58421e-08
7.54162e-08
8.55998e-08
7.56405e-08
8.60133e-08
7.60786e-08
8.60666e-08
7.61215e-08
8.59628e-08
7.59964e-08
8.62721e-08
7.6227e-08
8.63201e-08
7.61767e-08
8.61825e-08
7.58284e-08
8.58922e-08
7.57806e-08
8.58651e-08
7.58884e-08
8.58019e-08
7.55039e-08
8.59585e-08
7.58474e-08
8.57385e-08
7.58124e-08
8.6201e-08
7.606e-08
8.61417e-08
7.58767e-08
8.58754e-08
7.59499e-08
8.59538e-08
7.56983e-08
8.61144e-08
7.60535e-08
8.598e-08
7.59028e-08
8.60544e-08
7.57774e-08
8.58833e-08
7.56312e-08
8.57236e-08
7.57725e-08
8.59582e-08
7.58515e-08
8.57403e-08
7.57118e-08
8.5703e-08
7.54913e-08
8.575e-08
7.56935e-08
8.57159e-08
7.55548e-08
8.5942e-08
7.60318e-08
8.59238e-08
7.587e-08
8.58908e-08
7.60624e-08
8.58589e-08
7.55853e-08
8.57535e-08
7.57916e-08
8.59937e-08
7.59207e-08
8.60682e-08
7.61142e-08
8.59211e-08
7.57656e-08
8.61024e-08
7.57677e-08
8.58197e-08
7.5661e-08
8.58385e-08
7.57989e-08
8.57528e-08
7.58132e-08
8.5922e-08
7.59495e-08
8.59038e-08
7.5842e-08
8.60623e-08
7.58387e-08
8.58501e-08
7.5845e-08
8.59597e-08
7.59478e-08
8.61734e-08
7.5993e-08
8.61028e-08
7.62106e-08
8.61126e-08
7.59879e-08
8.60648e-08
7.58921e-08
8.60564e-08
7.61079e-08
8.6015e-08
7.57752e-08
8.58965e-08
7.59349e-08
8.60432e-08
7.57101e-08
8.60905e-08
7.60569e-08
8.58125e-08
7.56392e-08
8.60913e-08
7.59564e-08
8.59952e-08
7.58867e-08
8.62162e-08
7.57227e-08
8.59601e-08
7.63676e-08
8.61165e-08
7.58434e-08
8.59139e-08
7.55796e-08
8.60425e-08
7.6069e-08
8.59787e-08
7.56615e-08
8.57759e-08
7.5899e-08
8.57958e-08
7.57357e-08
8.59668e-08
7.57161e-08
8.5949e-08
7.60021e-08
8.57927e-08
7.57221e-08
8.57112e-08
7.56815e-08
8.5743e-08
7.56088e-08
8.57859e-08
7.53474e-08
8.60163e-08
7.59777e-08
8.59646e-08
7.59948e-08
8.59382e-08
7.57404e-08
8.6201e-08
7.63691e-08
8.62762e-08
7.60468e-08
8.60939e-08
7.59341e-08
8.58477e-08
7.55671e-08
8.56796e-08
7.58655e-08
8.58876e-08
7.57337e-08
8.60428e-08
7.57286e-08
8.57766e-08
7.57901e-08
8.58258e-08
7.60313e-08
8.62351e-08
7.57987e-08
8.59939e-08
7.6057e-08
8.57646e-08
7.56338e-08
8.61153e-08
7.5974e-08
8.59186e-08
7.58237e-08
8.59788e-08
7.58613e-08
8.59813e-08
7.57377e-08
8.59106e-08
7.58796e-08
8.58919e-08
7.58403e-08
8.59402e-08
7.56815e-08
8.56802e-08
7.55415e-08
8.58226e-08
7.58399e-08
8.57632e-08
7.55054e-08
8.60196e-08
7.59982e-08
8.60613e-08
7.61163e-08
8.58451e-08
7.60941e-08
8.59938e-08
7.56577e-08
8.58725e-08
7.58897e-08
8.61023e-08
7.60556e-08
8.61519e-08
7.60762e-08
8.59151e-08
7.58021e-08
8.5823e-08
7.56618e-08
8.59369e-08
7.55566e-08
8.58666e-08
7.58036e-08
8.56512e-08
7.56364e-08
8.59513e-08
7.59601e-08
8.58034e-08
7.5699e-08
8.61342e-08
7.60067e-08
8.60715e-08
7.59332e-08
8.59185e-08
7.58987e-08
8.59488e-08
7.58156e-08
8.619e-08
7.61401e-08
8.60323e-08
7.59718e-08
8.60079e-08
7.57289e-08
8.58754e-08
7.60384e-08
8.61223e-08
7.59008e-08
8.58974e-08
7.59517e-08
8.59429e-08
7.58172e-08
8.61917e-08
7.61233e-08
8.59367e-08
7.56884e-08
8.58525e-08
7.58574e-08
8.60955e-08
7.5928e-08
8.61314e-08
7.58042e-08
8.59852e-08
7.62149e-08
8.62496e-08
7.61915e-08
8.58836e-08
7.54559e-08
8.59386e-08
7.60184e-08
8.58834e-08
7.57245e-08
8.59526e-08
7.5843e-08
8.58456e-08
7.57622e-08
8.58925e-08
7.57532e-08
8.58916e-08
7.59609e-08
8.59052e-08
7.57224e-08
8.55678e-08
7.55538e-08
8.56177e-08
7.56036e-08
8.58032e-08
7.54184e-08
8.59067e-08
7.58784e-08
8.59176e-08
7.60817e-08
8.59652e-08
7.56763e-08
8.62107e-08
7.63511e-08
8.63506e-08
7.60951e-08
8.61261e-08
7.6017e-08
8.60462e-08
7.57628e-08
8.56536e-08
7.56605e-08
8.58188e-08
7.58292e-08
8.59403e-08
7.57932e-08
8.6039e-08
7.55836e-08
8.56591e-08
7.59487e-08
8.59912e-08
7.56889e-08
8.61733e-08
7.6163e-08
8.58019e-08
7.56547e-08
8.60688e-08
7.60053e-08
8.62214e-08
7.60707e-08
8.59542e-08
7.5833e-08
8.59912e-08
7.57292e-08
8.60333e-08
7.5873e-08
8.57761e-08
7.5995e-08
8.59407e-08
7.56463e-08
8.57884e-08
7.55998e-08
8.57852e-08
7.58895e-08
8.59153e-08
7.56314e-08
8.5826e-08
7.58395e-08
8.59929e-08
7.60656e-08
8.59118e-08
7.60668e-08
8.60102e-08
7.58759e-08
8.59203e-08
7.57184e-08
8.61348e-08
7.61467e-08
8.61061e-08
7.60833e-08
8.58947e-08
7.56832e-08
8.5708e-08
7.55764e-08
8.57726e-08
7.55684e-08
8.5765e-08
7.56638e-08
8.57947e-08
7.56882e-08
8.60945e-08
7.61231e-08
8.59961e-08
7.57052e-08
8.5944e-08
7.60317e-08
8.61409e-08
7.6018e-08
8.61141e-08
7.59529e-08
8.5916e-08
7.57548e-08
8.59492e-08
7.60132e-08
8.61394e-08
7.60317e-08
8.60265e-08
7.58374e-08
8.59249e-08
7.58627e-08
8.59202e-08
7.59266e-08
8.60674e-08
7.58561e-08
8.57619e-08
7.56888e-08
8.60547e-08
7.60679e-08
8.59734e-08
7.56653e-08
8.58631e-08
7.5788e-08
8.5913e-08
7.59264e-08
8.61569e-08
7.58578e-08
8.59455e-08
7.60385e-08
8.61336e-08
7.63048e-08
8.60237e-08
7.55949e-08
8.58972e-08
7.60141e-08
8.57535e-08
7.56461e-08
8.58785e-08
7.57378e-08
8.60161e-08
7.59111e-08
8.59873e-08
7.57493e-08
8.57704e-08
7.57538e-08
8.5975e-08
7.56908e-08
8.56095e-08
7.55026e-08
8.54674e-08
7.5557e-08
8.57425e-08
7.56684e-08
8.60297e-08
7.58573e-08
8.59498e-08
7.60657e-08
8.59234e-08
7.58454e-08
8.6557e-08
7.61692e-08
8.628e-08
7.61267e-08
8.59411e-08
7.58766e-08
8.61654e-08
7.60282e-08
8.59083e-08
7.55937e-08
8.5683e-08
7.56688e-08
8.57433e-08
7.58177e-08
8.5998e-08
7.56616e-08
8.57795e-08
7.58556e-08
8.57661e-08
7.56349e-08
8.60551e-08
7.60932e-08
8.60757e-08
7.57932e-08
8.58146e-08
7.57351e-08
8.63382e-08
7.62274e-08
8.60357e-08
7.59533e-08
8.5769e-08
7.55809e-08
8.59142e-08
7.57433e-08
8.5897e-08
7.60821e-08
8.5837e-08
7.5782e-08
8.5886e-08
7.55361e-08
8.55975e-08
7.55925e-08
8.59025e-08
7.57026e-08
8.5764e-08
7.57327e-08
8.58409e-08
7.58921e-08
8.59324e-08
7.58803e-08
8.61489e-08
7.61204e-08
8.57503e-08
7.55131e-08
8.61027e-08
7.60841e-08
8.59308e-08
7.58794e-08
8.58939e-08
7.56969e-08
8.5742e-08
7.55864e-08
8.57636e-08
7.57827e-08
8.57791e-08
7.56688e-08
8.59153e-08
7.56708e-08
8.59527e-08
7.61013e-08
8.63174e-08
7.6002e-08
8.59944e-08
7.60319e-08
8.60744e-08
7.60031e-08
8.6206e-08
7.60857e-08
8.6144e-08
7.56057e-08
8.59039e-08
7.60075e-08
8.59936e-08
7.59442e-08
8.6191e-08
7.60488e-08
8.61769e-08
7.58139e-08
8.58423e-08
7.59541e-08
8.60213e-08
7.58412e-08
8.58578e-08
7.55769e-08
8.60161e-08
7.61765e-08
8.60253e-08
7.58222e-08
8.61083e-08
7.58585e-08
8.59091e-08
7.58162e-08
8.61642e-08
7.59173e-08
8.62322e-08
7.59939e-08
8.59153e-08
7.62024e-08
8.61045e-08
7.55187e-08
8.59953e-08
7.60315e-08
8.57936e-08
7.56599e-08
8.56213e-08
7.56495e-08
8.60042e-08
7.60921e-08
8.61549e-08
7.59274e-08
8.58822e-08
7.56351e-08
8.58223e-08
7.57089e-08
8.56916e-08
7.55705e-08
8.555e-08
7.54904e-08
8.55124e-08
7.55512e-08
8.60238e-08
7.58986e-08
8.60322e-08
7.60436e-08
8.58506e-08
7.59291e-08
8.63867e-08
7.59825e-08
8.6374e-08
7.62848e-08
8.59865e-08
7.58418e-08
8.59642e-08
7.60257e-08
8.60616e-08
7.56645e-08
8.58988e-08
7.58475e-08
8.57425e-08
7.57548e-08
8.58307e-08
7.57787e-08
8.61687e-08
7.59069e-08
8.58293e-08
7.57317e-08
8.58397e-08
7.59345e-08
8.61838e-08
7.59835e-08
8.57606e-08
7.55502e-08
8.60538e-08
7.61281e-08
8.62405e-08
7.60527e-08
8.60282e-08
7.57511e-08
8.58028e-08
7.56285e-08
8.59183e-08
7.58464e-08
8.56358e-08
7.57276e-08
8.59599e-08
7.58436e-08
8.56919e-08
7.54317e-08
8.57306e-08
7.57409e-08
8.59103e-08
7.56388e-08
8.57414e-08
7.60964e-08
7.57821e-08
8.61431e-08
7.6254e-08
8.59428e-08
7.55281e-08
8.60646e-08
7.58088e-08
8.56823e-08
7.5822e-08
8.59906e-08
7.58641e-08
8.58916e-08
7.5654e-08
8.58093e-08
7.5863e-08
8.58947e-08
7.5692e-08
8.58776e-08
7.56679e-08
8.58856e-08
7.60229e-08
8.62016e-08
7.59922e-08
8.62099e-08
7.61144e-08
8.60175e-08
7.59535e-08
8.60858e-08
7.6103e-08
8.6e-08
7.55925e-08
8.60747e-08
7.59753e-08
8.59012e-08
7.5947e-08
8.61687e-08
7.6079e-08
8.61753e-08
7.59135e-08
8.59919e-08
7.60151e-08
8.59504e-08
7.58923e-08
8.60207e-08
7.55966e-08
8.59437e-08
7.60448e-08
8.60052e-08
7.59593e-08
8.61801e-08
7.59306e-08
8.5916e-08
7.57305e-08
8.59115e-08
7.59231e-08
8.62565e-08
7.6008e-08
8.58922e-08
7.60387e-08
8.58803e-08
7.55561e-08
8.59565e-08
7.58508e-08
8.59857e-08
7.58149e-08
8.5868e-08
7.5778e-08
8.58754e-08
7.59502e-08
8.61368e-08
7.60931e-08
8.60056e-08
7.56254e-08
8.56496e-08
7.56003e-08
8.57121e-08
7.55159e-08
8.55714e-08
7.53932e-08
8.5504e-08
7.55173e-08
8.59739e-08
7.5965e-08
8.59558e-08
7.59725e-08
8.61119e-08
7.6195e-08
8.60785e-08
7.592e-08
8.64513e-08
7.61973e-08
8.62087e-08
7.59834e-08
8.57743e-08
7.58359e-08
8.58805e-08
7.55786e-08
8.60525e-08
7.59363e-08
8.58825e-08
7.58052e-08
8.57309e-08
7.57273e-08
8.61027e-08
7.59255e-08
8.59912e-08
7.57739e-08
8.57985e-08
7.5899e-08
8.60533e-08
7.60884e-08
8.61356e-08
7.56223e-08
8.58508e-08
7.60931e-08
8.61265e-08
7.61026e-08
8.61104e-08
7.5833e-08
8.58815e-08
7.56671e-08
8.59661e-08
7.5857e-08
8.56743e-08
7.5553e-08
8.58341e-08
7.60493e-08
8.59117e-08
7.55039e-08
8.56744e-08
7.57556e-08
8.58788e-08
7.55131e-08
8.58521e-08
7.5803e-08
8.59607e-08
7.60919e-08
8.60718e-08
7.57077e-08
8.59441e-08
7.58087e-08
8.57826e-08
7.57538e-08
8.5959e-08
7.59091e-08
8.6024e-08
7.5864e-08
8.57926e-08
7.5748e-08
8.59267e-08
7.57037e-08
8.58055e-08
7.55497e-08
8.59609e-08
7.61148e-08
8.59082e-08
7.60303e-08
8.62311e-08
7.59442e-08
8.6095e-08
7.59332e-08
8.60192e-08
7.60442e-08
8.58852e-08
7.56746e-08
8.605e-08
7.59309e-08
8.60014e-08
7.59432e-08
8.59616e-08
7.60105e-08
8.62335e-08
7.60737e-08
8.59967e-08
7.58941e-08
8.59053e-08
7.58616e-08
8.6096e-08
7.58062e-08
8.59259e-08
7.59153e-08
8.60013e-08
7.59509e-08
8.60859e-08
7.60341e-08
8.61168e-08
7.57647e-08
8.58211e-08
7.59016e-08
8.60748e-08
7.59321e-08
8.61263e-08
7.60426e-08
8.59214e-08
7.57434e-08
8.58228e-08
7.56839e-08
8.5945e-08
7.57019e-08
8.60716e-08
7.59336e-08
8.58795e-08
7.5783e-08
8.60232e-08
7.60544e-08
8.6019e-08
7.57427e-08
8.56474e-08
7.55869e-08
8.57001e-08
7.56342e-08
8.57781e-08
7.55645e-08
8.56005e-08
7.54727e-08
8.59993e-08
7.59749e-08
8.59313e-08
7.59389e-08
8.61966e-08
7.62795e-08
8.61184e-08
7.58709e-08
8.60373e-08
7.60423e-08
8.64175e-08
7.60503e-08
8.59597e-08
7.59539e-08
8.57033e-08
7.5629e-08
8.58154e-08
7.5727e-08
8.60014e-08
7.57495e-08
8.58707e-08
7.57954e-08
8.57795e-08
7.5788e-08
8.60016e-08
7.58274e-08
8.5961e-08
7.5824e-08
8.58539e-08
7.60377e-08
8.61828e-08
7.56538e-08
8.59646e-08
7.59789e-08
8.61128e-08
7.61959e-08
8.601e-08
7.58963e-08
8.59857e-08
7.55504e-08
8.6023e-08
7.59227e-08
8.5843e-08
7.56941e-08
8.57242e-08
7.5909e-08
8.59824e-08
7.55402e-08
8.5678e-08
7.57481e-08
8.5823e-08
7.57017e-08
8.58592e-08
7.56666e-08
8.57946e-08
7.59273e-08
8.60183e-08
7.5915e-08
8.59571e-08
7.58802e-08
8.59393e-08
7.56108e-08
8.58548e-08
7.58996e-08
8.60769e-08
7.60327e-08
8.58091e-08
7.55993e-08
8.58769e-08
7.57542e-08
8.58371e-08
7.53734e-08
8.60733e-08
7.59869e-08
8.59544e-08
7.61877e-08
8.60072e-08
7.5841e-08
8.62965e-08
7.59877e-08
8.60188e-08
7.60758e-08
8.60413e-08
7.5879e-08
8.58781e-08
7.58675e-08
8.61386e-08
7.57689e-08
8.58703e-08
7.59627e-08
8.62313e-08
7.62837e-08
8.60652e-08
7.58311e-08
8.58785e-08
7.57069e-08
8.59645e-08
7.5823e-08
8.60566e-08
7.60001e-08
8.60394e-08
7.59412e-08
8.58876e-08
7.59469e-08
8.6084e-08
7.57928e-08
8.61155e-08
7.60757e-08
8.58468e-08
7.58165e-08
8.61502e-08
7.5896e-08
8.58713e-08
7.57862e-08
8.59615e-08
7.58244e-08
8.58942e-08
7.57739e-08
8.60848e-08
7.60999e-08
8.60406e-08
7.57267e-08
8.58285e-08
7.57951e-08
8.60599e-08
7.58207e-08
8.57429e-08
7.56514e-08
8.55491e-08
7.54889e-08
8.5791e-08
7.57057e-08
8.56881e-08
7.54884e-08
8.59388e-08
7.59548e-08
8.59942e-08
7.58799e-08
8.60729e-08
7.63392e-08
8.63719e-08
7.59276e-08
8.58427e-08
7.59045e-08
8.61373e-08
7.60341e-08
8.62369e-08
7.59471e-08
8.58506e-08
7.57412e-08
8.55857e-08
7.5657e-08
8.57931e-08
7.56665e-08
8.61079e-08
7.57438e-08
8.58234e-08
7.59071e-08
8.58767e-08
7.58038e-08
8.60697e-08
7.58732e-08
8.60249e-08
7.5995e-08
8.58625e-08
7.57362e-08
8.60395e-08
7.57665e-08
8.61516e-08
7.62545e-08
8.60547e-08
7.61443e-08
8.58485e-08
7.54853e-08
8.58375e-08
7.55872e-08
8.60132e-08
7.58562e-08
8.57212e-08
7.59989e-08
8.58306e-08
7.56358e-08
8.58139e-08
7.57241e-08
8.59537e-08
7.58253e-08
8.59165e-08
7.57033e-08
8.59787e-08
7.59601e-08
8.59152e-08
7.58486e-08
8.59264e-08
7.58236e-08
8.60263e-08
7.5642e-08
8.57561e-08
7.58352e-08
8.59744e-08
7.61568e-08
8.57617e-08
7.55086e-08
8.58264e-08
7.5763e-08
8.59324e-08
7.55663e-08
8.5883e-08
7.58346e-08
8.61796e-08
7.6321e-08
8.59655e-08
7.57868e-08
8.61267e-08
7.58779e-08
8.60296e-08
7.60194e-08
8.61631e-08
7.59656e-08
8.59848e-08
7.59826e-08
8.6002e-08
7.58578e-08
8.60825e-08
7.59025e-08
8.6173e-08
7.64845e-08
8.61735e-08
7.57469e-08
8.59675e-08
7.58016e-08
8.57082e-08
7.57276e-08
8.60449e-08
7.575e-08
8.61392e-08
7.59683e-08
8.5753e-08
7.59192e-08
8.58688e-08
7.57695e-08
8.63645e-08
7.62092e-08
8.59282e-08
7.57611e-08
8.59996e-08
7.59503e-08
8.58772e-08
7.57949e-08
8.60207e-08
7.58018e-08
8.59845e-08
7.59086e-08
8.59495e-08
7.60442e-08
8.62236e-08
7.58041e-08
8.58133e-08
7.57509e-08
8.58634e-08
7.57628e-08
8.6003e-08
7.57234e-08
8.56634e-08
7.5569e-08
8.56907e-08
7.5718e-08
8.58169e-08
7.55541e-08
8.60049e-08
7.5963e-08
8.61659e-08
7.59804e-08
8.5948e-08
7.62197e-08
8.61659e-08
7.59763e-08
8.5902e-08
7.56777e-08
8.59787e-08
7.61328e-08
8.6161e-08
7.6006e-08
8.60631e-08
7.56104e-08
8.56944e-08
7.57656e-08
8.57626e-08
7.57005e-08
8.59078e-08
7.57248e-08
8.60705e-08
7.60636e-08
8.58436e-08
7.58014e-08
8.59532e-08
7.58721e-08
8.6168e-08
7.60145e-08
8.57695e-08
7.5737e-08
8.59065e-08
7.57156e-08
8.61564e-08
7.59485e-08
8.61668e-08
7.62551e-08
8.59606e-08
7.56073e-08
8.55589e-08
7.53962e-08
8.59213e-08
7.57983e-08
8.5992e-08
7.60927e-08
8.58057e-08
7.57364e-08
8.58962e-08
7.5683e-08
8.58173e-08
7.57534e-08
8.59926e-08
7.59047e-08
8.61839e-08
7.58312e-08
8.59348e-08
7.59206e-08
8.58642e-08
7.58143e-08
8.6012e-08
7.57003e-08
8.59393e-08
7.5848e-08
8.5918e-08
7.60379e-08
8.58363e-08
7.55074e-08
8.55728e-08
7.56529e-08
8.58834e-08
7.56391e-08
8.57449e-08
7.57783e-08
8.61304e-08
7.62881e-08
8.61433e-08
7.59282e-08
8.5915e-08
7.57579e-08
8.60619e-08
7.59703e-08
8.61077e-08
7.598e-08
8.6199e-08
7.60799e-08
8.59531e-08
7.59445e-08
8.61631e-08
7.5812e-08
8.61914e-08
7.65338e-08
8.6043e-08
7.55785e-08
8.61533e-08
7.5848e-08
8.58407e-08
7.58981e-08
8.57927e-08
7.56464e-08
8.6146e-08
7.58905e-08
8.59487e-08
7.60575e-08
8.58009e-08
7.57377e-08
8.61695e-08
7.63832e-08
8.61902e-08
7.56757e-08
8.5916e-08
7.59213e-08
8.59629e-08
7.6021e-08
8.58468e-08
7.57436e-08
8.60793e-08
7.5739e-08
8.58693e-08
7.60663e-08
8.61054e-08
7.59054e-08
8.60798e-08
7.5776e-08
8.57728e-08
7.57919e-08
8.58268e-08
7.56634e-08
8.59033e-08
7.58034e-08
8.56596e-08
7.56997e-08
8.58703e-08
7.54817e-08
8.60515e-08
7.58875e-08
8.61452e-08
7.60697e-08
8.61879e-08
7.59571e-08
8.58982e-08
7.61257e-08
8.58653e-08
7.55142e-08
8.61062e-08
7.60898e-08
8.614e-08
7.61399e-08
8.58862e-08
7.56543e-08
8.57858e-08
7.56683e-08
8.58636e-08
7.57804e-08
8.58887e-08
7.57366e-08
8.61849e-08
7.6098e-08
8.5934e-08
7.58684e-08
8.58974e-08
7.58079e-08
8.61546e-08
7.60724e-08
8.59952e-08
7.58442e-08
8.59241e-08
7.57542e-08
8.60173e-08
7.59389e-08
8.60853e-08
7.62479e-08
8.61532e-08
7.58263e-08
8.59308e-08
7.56572e-08
8.57306e-08
7.5723e-08
8.59764e-08
7.59593e-08
8.58058e-08
7.57771e-08
8.60348e-08
7.58024e-08
8.58173e-08
7.57361e-08
8.59679e-08
7.60462e-08
8.60806e-08
7.59365e-08
8.60831e-08
7.59012e-08
8.58724e-08
7.5792e-08
8.57867e-08
7.55575e-08
8.59906e-08
7.58719e-08
8.58383e-08
7.59711e-08
8.58893e-08
7.55332e-08
8.56914e-08
7.56416e-08
8.57939e-08
7.57129e-08
8.59955e-08
7.59182e-08
8.58927e-08
7.59671e-08
8.61726e-08
7.60306e-08
8.59059e-08
7.58658e-08
8.61137e-08
7.58599e-08
8.61349e-08
7.62597e-08
8.62855e-08
7.60329e-08
8.61045e-08
7.60125e-08
8.6004e-08
7.57219e-08
8.62125e-08
7.633e-08
8.59488e-08
7.56274e-08
8.5886e-08
7.58418e-08
8.60015e-08
7.59496e-08
8.58595e-08
7.5706e-08
8.59381e-08
7.59025e-08
8.60689e-08
7.58342e-08
8.59231e-08
7.58451e-08
8.59563e-08
7.6252e-08
8.62649e-08
7.57701e-08
8.58661e-08
7.58805e-08
8.59749e-08
7.57787e-08
8.56941e-08
7.58692e-08
8.59118e-08
7.5694e-08
8.60218e-08
7.60185e-08
8.59136e-08
7.60147e-08
8.60651e-08
7.57149e-08
8.5936e-08
7.58639e-08
8.57655e-08
7.56302e-08
8.58701e-08
7.57994e-08
8.57894e-08
7.58273e-08
8.58271e-08
7.56317e-08
8.60196e-08
7.58826e-08
8.60441e-08
7.60948e-08
8.62458e-08
7.58331e-08
8.60355e-08
7.62729e-08
8.56721e-08
7.57126e-08
8.60624e-08
7.57251e-08
8.60734e-08
7.6063e-08
8.5785e-08
7.57562e-08
8.57478e-08
7.57784e-08
8.59318e-08
7.56807e-08
8.59746e-08
7.58294e-08
8.59714e-08
7.60917e-08
8.61459e-08
7.5954e-08
8.60452e-08
7.59139e-08
8.58024e-08
7.58858e-08
8.60982e-08
7.59558e-08
8.59584e-08
7.57433e-08
8.60786e-08
7.58237e-08
8.58925e-08
7.61398e-08
8.58786e-08
7.57485e-08
8.61257e-08
7.57265e-08
8.58315e-08
7.57766e-08
8.58443e-08
7.58969e-08
8.57635e-08
7.57165e-08
8.5906e-08
7.587e-08
8.59727e-08
7.57638e-08
8.5842e-08
7.60538e-08
8.60385e-08
7.60627e-08
8.60809e-08
7.58189e-08
8.60198e-08
7.58821e-08
8.57894e-08
7.55784e-08
8.58788e-08
7.58096e-08
8.59319e-08
7.60114e-08
8.58138e-08
7.57066e-08
8.587e-08
7.55831e-08
8.5698e-08
7.57225e-08
8.62012e-08
7.59961e-08
8.58912e-08
7.58464e-08
8.6033e-08
7.59756e-08
8.60688e-08
7.59706e-08
8.58991e-08
7.57576e-08
8.62551e-08
7.63499e-08
8.6019e-08
7.59424e-08
8.62955e-08
7.612e-08
8.60427e-08
7.58933e-08
8.60144e-08
7.60521e-08
8.6096e-08
7.55731e-08
8.57708e-08
7.58579e-08
8.5939e-08
7.5886e-08
8.60103e-08
7.57018e-08
8.59674e-08
7.61054e-08
8.59614e-08
7.5803e-08
8.62111e-08
7.58248e-08
8.59662e-08
7.615e-08
8.60916e-08
7.58474e-08
8.59973e-08
7.60182e-08
8.58991e-08
7.56989e-08
8.58601e-08
7.59753e-08
8.57209e-08
7.58131e-08
8.60629e-08
7.57072e-08
8.59154e-08
7.59519e-08
8.56236e-08
7.55932e-08
8.59024e-08
7.56767e-08
8.58451e-08
7.58083e-08
8.57198e-08
7.5753e-08
8.59188e-08
7.58053e-08
8.58549e-08
7.57836e-08
8.60624e-08
7.58368e-08
8.59644e-08
7.59442e-08
8.60443e-08
7.55818e-08
8.6193e-08
7.6274e-08
8.58409e-08
7.60702e-08
8.59381e-08
7.5474e-08
8.59156e-08
7.58166e-08
8.57202e-08
7.56297e-08
8.58185e-08
7.59997e-08
8.58432e-08
7.56625e-08
8.60493e-08
7.57321e-08
8.58511e-08
7.60392e-08
8.59686e-08
7.5776e-08
8.63316e-08
7.60575e-08
8.57808e-08
7.57773e-08
8.59185e-08
7.59127e-08
8.58338e-08
7.57521e-08
8.61803e-08
7.55444e-08
8.59189e-08
7.61673e-08
8.57926e-08
7.57302e-08
8.59872e-08
7.60373e-08
8.61059e-08
7.5652e-08
8.58812e-08
7.5944e-08
8.58667e-08
7.57333e-08
8.57625e-08
7.58962e-08
8.59982e-08
7.5663e-08
8.56994e-08
7.59401e-08
8.61669e-08
7.61806e-08
8.58666e-08
7.5739e-08
8.59709e-08
7.57931e-08
8.58384e-08
7.57089e-08
8.58045e-08
7.5715e-08
8.59867e-08
7.5771e-08
8.58183e-08
7.59023e-08
8.57831e-08
7.55076e-08
8.56874e-08
7.57413e-08
8.60785e-08
7.61185e-08
8.62059e-08
7.59648e-08
8.58256e-08
7.577e-08
8.62392e-08
7.5953e-08
8.58694e-08
7.56587e-08
8.62708e-08
7.64139e-08
8.6024e-08
7.58829e-08
8.59866e-08
7.60119e-08
8.63812e-08
7.59832e-08
8.5903e-08
7.61111e-08
8.60528e-08
7.56104e-08
8.59414e-08
7.57458e-08
8.59467e-08
7.60201e-08
8.60418e-08
7.57545e-08
8.60015e-08
7.60271e-08
8.5968e-08
7.59292e-08
8.60212e-08
7.58958e-08
8.62427e-08
7.61387e-08
8.5919e-08
7.57598e-08
8.60882e-08
7.58694e-08
8.58159e-08
7.57219e-08
8.59414e-08
7.57727e-08
8.57451e-08
7.58641e-08
8.59232e-08
7.57191e-08
8.60402e-08
7.58555e-08
8.57119e-08
7.56591e-08
8.56048e-08
7.55887e-08
8.59789e-08
7.59027e-08
8.58664e-08
7.57813e-08
8.57688e-08
7.58127e-08
8.57711e-08
7.5873e-08
8.60747e-08
7.58293e-08
8.60416e-08
7.58868e-08
8.60251e-08
7.57469e-08
8.59936e-08
7.60226e-08
8.60376e-08
7.62656e-08
8.58654e-08
7.54424e-08
8.58609e-08
7.57201e-08
8.58552e-08
7.5746e-08
8.59146e-08
7.59218e-08
8.59163e-08
7.58772e-08
8.59772e-08
7.57658e-08
8.59858e-08
7.60733e-08
8.58199e-08
7.57229e-08
8.61539e-08
7.60149e-08
8.60228e-08
7.58054e-08
8.57437e-08
7.57034e-08
8.58135e-08
7.59887e-08
8.59175e-08
7.55266e-08
8.61162e-08
7.60225e-08
8.60617e-08
7.60125e-08
8.60338e-08
7.61996e-08
8.61189e-08
7.57786e-08
8.58794e-08
7.57972e-08
8.59199e-08
7.57158e-08
8.57615e-08
7.58167e-08
8.58374e-08
7.56519e-08
8.58319e-08
7.58322e-08
8.60543e-08
7.60746e-08
8.58911e-08
7.57225e-08
8.56936e-08
7.56225e-08
8.58765e-08
7.58005e-08
8.59054e-08
7.5816e-08
8.58237e-08
7.56649e-08
8.6e-08
7.60457e-08
8.58157e-08
7.55063e-08
8.58112e-08
7.57671e-08