/*--------------------------------*- C++ -*----------------------------------*\
| =========                 |                                                 |
| \\      /  F ield         | OpenFOAM: The Open Source CFD Toolbox           |
|  \\    /   O peration     | Version:  2206                                  |
|   \\  /    A nd           | Website:  www.openfoam.com                      |
|    \\/     M anipulation  |                                                 |
\*---------------------------------------------------------------------------*/
FoamFile
{
    version     2.0;
    format      ascii;
    arch        "LSB;label=32;scalar=64";
    class       volScalarField;
    location    "0.3";
    object      nut;
}
// * * * * * * * * * * * * * * * * * * * * * * * * * * * * * * * * * * * * * //

dimensions      [0 2 -1 0 0 0 0];

internalField   nonuniform List<scalar> 
183793
(
6.09159e-15
6.03052e-15
5.37339e-15
5.24634e-15
6.04726e-15
5.36617e-15
5.26021e-15
5.25255e-15
5.28048e-15
6.02281e-15
5.22197e-15
5.24792e-15
6.10603e-15
5.23752e-15
6.04109e-15
5.24516e-15
5.21733e-15
5.25604e-15
6.04446e-15
5.28031e-15
5.24902e-15
5.38958e-15
6.04631e-15
6.16323e-15
6.02038e-15
6.0342e-15
6.02631e-15
5.37752e-15
5.25907e-15
6.02421e-15
5.29438e-15
5.23947e-15
6.06149e-15
6.03309e-15
6.02891e-15
5.32891e-15
6.10728e-15
5.28994e-15
6.05081e-15
6.16663e-15
5.22732e-15
6.02257e-15
6.16876e-15
6.15807e-15
6.0265e-15
6.0186e-15
6.03594e-15
5.22504e-15
6.03609e-15
6.03248e-15
6.08093e-15
6.14938e-15
6.0851e-15
5.24979e-15
5.38421e-15
6.04024e-15
6.03937e-15
5.2978e-15
5.37284e-15
6.1644e-15
6.04189e-15
6.16166e-15
6.08046e-15
5.25112e-15
5.21057e-15
5.35696e-15
6.16595e-15
5.34802e-15
6.06179e-15
6.17088e-15
5.34899e-15
5.25339e-15
6.10058e-15
6.06415e-15
5.38731e-15
5.35188e-15
5.28503e-15
5.28747e-15
6.08095e-15
6.05618e-15
6.01813e-15
6.02867e-15
5.24469e-15
5.36638e-15
6.16584e-15
5.37188e-15
6.0592e-15
6.15723e-15
6.08394e-15
5.35544e-15
6.06459e-15
5.3338e-15
6.07691e-15
6.18517e-15
6.01992e-15
6.08257e-15
6.08582e-15
5.36353e-15
5.36902e-15
5.34301e-15
5.33984e-15
5.35968e-15
5.28689e-15
6.05895e-15
5.34257e-15
6.0826e-15
6.09554e-15
6.15121e-15
5.28194e-15
6.14845e-15
6.04894e-15
5.23643e-15
5.29071e-15
5.37245e-15
6.06887e-15
6.02693e-15
6.15017e-15
6.06859e-15
6.09813e-15
5.37399e-15
6.06883e-15
6.03449e-15
5.37844e-15
6.15892e-15
5.30533e-15
5.36449e-15
6.14385e-15
5.36468e-15
6.04913e-15
6.07554e-15
6.15164e-15
6.17145e-15
6.08458e-15
6.0699e-15
5.3726e-15
6.09022e-15
5.28337e-15
5.36599e-15
6.14907e-15
6.08582e-15
6.10025e-15
5.38777e-15
6.09437e-15
5.27064e-15
5.24202e-15
6.06822e-15
5.35705e-15
6.18269e-15
6.07768e-15
5.27928e-15
5.24633e-15
5.24463e-15
6.07243e-15
5.36216e-15
5.28407e-15
5.37511e-15
6.07489e-15
6.07733e-15
5.36016e-15
5.35636e-15
6.07331e-15
5.27369e-15
6.08333e-15
5.22712e-15
6.14791e-15
5.28309e-15
5.2761e-15
6.02818e-15
5.29078e-15
5.36181e-15
5.35709e-15
6.02724e-15
5.38018e-15
6.13531e-15
5.36755e-15
5.27508e-15
5.25449e-15
6.15243e-15
6.09786e-15
6.07025e-15
6.06946e-15
6.06766e-15
5.3688e-15
6.15939e-15
5.27536e-15
5.36647e-15
5.34604e-15
6.08687e-15
6.07494e-15
6.08966e-15
5.34833e-15
5.37512e-15
6.08039e-15
5.36879e-15
6.09305e-15
5.34449e-15
6.08977e-15
6.08543e-15
5.36621e-15
5.3596e-15
5.36878e-15
6.08525e-15
5.3583e-15
5.22854e-15
6.03787e-15
5.28147e-15
5.29025e-15
5.28989e-15
6.05861e-15
6.07393e-15
6.08097e-15
5.36094e-15
5.35059e-15
6.08705e-15
6.06673e-15
6.08849e-15
5.35149e-15
6.10552e-15
5.38477e-15
6.06245e-15
6.09311e-15
5.36417e-15
5.38739e-15
6.08779e-15
6.15949e-15
6.10687e-15
5.39163e-15
6.08188e-15
6.08366e-15
6.17078e-15
5.2569e-15
5.22784e-15
5.38948e-15
6.03414e-15
6.0742e-15
6.10309e-15
6.09649e-15
6.08342e-15
5.3793e-15
5.3813e-15
5.37888e-15
5.37568e-15
5.37508e-15
5.36363e-15
6.0983e-15
5.27035e-15
6.06526e-15
5.3539e-15
5.22464e-15
5.38483e-15
5.37257e-15
6.08291e-15
6.03749e-15
5.24538e-15
6.08537e-15
5.24696e-15
6.04675e-15
6.03608e-15
6.03719e-15
5.24688e-15
6.08251e-15
5.29191e-15
6.08056e-15
6.0232e-15
5.36237e-15
6.08976e-15
6.09743e-15
5.353e-15
6.16468e-15
6.08392e-15
5.25912e-15
6.08506e-15
5.28511e-15
5.34095e-15
6.06515e-15
5.36596e-15
6.06842e-15
5.37235e-15
5.37416e-15
6.05542e-15
6.07019e-15
5.35833e-15
6.08284e-15
5.3298e-15
5.33986e-15
5.37768e-15
5.37578e-15
6.08744e-15
6.0932e-15
5.34513e-15
5.22899e-15
5.27638e-15
6.01505e-15
6.08147e-15
6.07036e-15
6.02931e-15
6.07828e-15
5.35203e-15
6.0839e-15
5.38118e-15
6.11683e-15
5.22899e-15
6.04321e-15
6.07651e-15
6.08069e-15
6.08206e-15
5.23223e-15
5.39874e-15
5.27547e-15
5.31907e-15
6.08632e-15
5.29425e-15
5.28693e-15
6.14701e-15
6.17344e-15
5.37277e-15
5.26625e-15
5.382e-15
5.35335e-15
5.29141e-15
5.35026e-15
5.35795e-15
6.09689e-15
6.06202e-15
6.06907e-15
6.06015e-15
5.38181e-15
5.28116e-15
6.07629e-15
6.07598e-15
5.34587e-15
6.15508e-15
5.28764e-15
5.30952e-15
6.01977e-15
6.10643e-15
5.39036e-15
6.1522e-15
5.36493e-15
6.02889e-15
5.37776e-15
5.28217e-15
5.36983e-15
5.24773e-15
5.28379e-15
6.17477e-15
5.3732e-15
6.06962e-15
6.06515e-15
6.16354e-15
6.07855e-15
6.13779e-15
5.23281e-15
6.03395e-15
5.37513e-15
5.36985e-15
5.39399e-15
6.15088e-15
6.16029e-15
6.0862e-15
6.08906e-15
6.07526e-15
5.26136e-15
5.37158e-15
6.15252e-15
6.16156e-15
6.11258e-15
5.34999e-15
5.37115e-15
5.23879e-15
6.15699e-15
6.04148e-15
5.24108e-15
6.05129e-15
6.03149e-15
5.24086e-15
5.28488e-15
6.02861e-15
5.23707e-15
6.02164e-15
6.152e-15
6.09205e-15
5.27332e-15
6.17819e-15
5.35357e-15
5.33062e-15
5.34642e-15
6.08241e-15
6.06676e-15
5.37117e-15
6.16006e-15
5.3142e-15
5.31334e-15
6.10937e-15
6.08367e-15
5.37491e-15
6.16631e-15
5.28744e-15
5.25835e-15
6.03971e-15
5.35069e-15
5.37124e-15
5.27898e-15
6.07655e-15
6.02885e-15
5.28411e-15
5.35167e-15
5.3612e-15
6.14379e-15
5.35789e-15
5.35519e-15
6.15245e-15
5.26558e-15
5.29107e-15
5.36899e-15
6.15153e-15
5.29852e-15
6.16927e-15
5.36991e-15
5.28665e-15
5.35928e-15
6.04652e-15
6.06069e-15
6.07567e-15
6.16417e-15
6.08751e-15
5.29561e-15
6.07041e-15
5.28086e-15
6.15341e-15
5.24129e-15
6.06793e-15
5.29471e-15
6.05512e-15
6.0529e-15
5.25884e-15
5.30526e-15
5.37524e-15
6.05875e-15
6.10321e-15
6.0755e-15
5.32106e-15
6.06374e-15
6.15205e-15
5.37123e-15
5.36965e-15
5.37316e-15
5.28205e-15
6.1639e-15
5.25431e-15
5.27838e-15
5.28816e-15
6.16297e-15
6.15114e-15
5.24324e-15
6.02438e-15
5.23696e-15
6.08555e-15
5.29481e-15
6.07473e-15
5.34923e-15
5.35837e-15
6.04116e-15
6.15947e-15
5.31079e-15
6.09021e-15
6.07658e-15
5.3532e-15
5.343e-15
6.1681e-15
6.08517e-15
6.04056e-15
6.15418e-15
6.08673e-15
6.07246e-15
5.35048e-15
5.35232e-15
6.09196e-15
5.2521e-15
6.05897e-15
6.15324e-15
5.28449e-15
6.15355e-15
6.07078e-15
5.34e-15
6.03894e-15
6.07661e-15
6.09647e-15
6.09946e-15
5.36323e-15
6.16514e-15
5.23622e-15
6.14402e-15
5.32455e-15
5.3721e-15
5.35512e-15
6.06591e-15
6.03887e-15
6.07617e-15
5.34866e-15
5.37186e-15
6.02799e-15
6.02234e-15
6.14884e-15
5.28508e-15
6.16204e-15
5.28725e-15
5.29865e-15
5.26076e-15
5.34591e-15
6.07501e-15
6.01919e-15
5.37085e-15
5.34319e-15
6.06187e-15
6.07391e-15
5.27348e-15
5.36291e-15
5.29164e-15
6.09504e-15
5.33958e-15
6.16496e-15
6.02025e-15
5.23274e-15
5.336e-15
5.22587e-15
6.02933e-15
5.28376e-15
5.27247e-15
5.33764e-15
6.06513e-15
5.35318e-15
5.36366e-15
5.36637e-15
5.25011e-15
6.04402e-15
6.02608e-15
5.35344e-15
5.36942e-15
6.06284e-15
5.39493e-15
5.2501e-15
6.06728e-15
6.15829e-15
6.04477e-15
5.27852e-15
6.06778e-15
5.25081e-15
5.37265e-15
5.24029e-15
5.23788e-15
5.23157e-15
5.38784e-15
5.35285e-15
6.08622e-15
5.36729e-15
5.33262e-15
5.30185e-15
6.18162e-15
5.26911e-15
6.14375e-15
5.237e-15
6.0299e-15
6.0347e-15
5.24521e-15
5.28845e-15
5.23619e-15
6.09569e-15
6.08525e-15
5.37234e-15
5.21928e-15
5.28032e-15
6.08988e-15
6.05791e-15
6.08254e-15
5.35562e-15
6.08666e-15
6.08115e-15
5.37548e-15
6.08122e-15
5.36894e-15
6.0816e-15
5.36313e-15
6.08738e-15
5.38395e-15
5.38784e-15
5.37721e-15
5.38689e-15
6.09255e-15
5.37491e-15
6.09118e-15
5.35759e-15
6.07571e-15
5.38617e-15
6.07825e-15
5.36359e-15
6.08284e-15
5.36909e-15
6.08326e-15
5.40061e-15
6.10664e-15
5.35883e-15
6.0699e-15
5.38054e-15
6.0815e-15
5.36302e-15
6.08076e-15
5.36346e-15
6.08238e-15
5.38462e-15
6.07792e-15
5.36085e-15
6.07189e-15
5.35986e-15
6.0843e-15
5.37302e-15
6.08624e-15
5.38072e-15
6.07586e-15
5.35381e-15
6.07046e-15
5.3384e-15
6.05854e-15
5.37331e-15
6.09515e-15
5.37951e-15
6.08568e-15
5.38577e-15
6.09181e-15
5.37941e-15
6.10616e-15
5.39196e-15
6.11056e-15
5.40393e-15
6.09353e-15
5.35397e-15
6.0655e-15
5.3699e-15
6.08495e-15
5.35866e-15
6.07514e-15
5.35098e-15
6.06378e-15
5.3715e-15
6.07129e-15
5.36171e-15
6.10689e-15
5.38415e-15
6.0772e-15
5.37239e-15
6.07839e-15
5.36766e-15
6.08166e-15
5.36258e-15
6.08777e-15
5.39073e-15
6.09393e-15
5.3803e-15
6.08697e-15
5.3639e-15
6.07651e-15
5.35545e-15
6.07315e-15
5.37282e-15
6.07763e-15
5.36074e-15
6.06144e-15
5.35788e-15
6.05904e-15
5.32958e-15
6.05859e-15
5.34886e-15
6.06988e-15
5.36501e-15
6.07126e-15
5.3665e-15
6.07693e-15
5.36197e-15
6.08117e-15
5.39156e-15
6.06307e-15
5.33921e-15
6.07371e-15
5.35549e-15
6.08319e-15
5.37926e-15
6.08946e-15
5.38166e-15
6.08988e-15
5.35964e-15
6.09053e-15
5.36486e-15
6.07024e-15
5.36584e-15
6.07916e-15
5.37131e-15
6.07821e-15
5.36705e-15
6.08434e-15
5.37123e-15
6.09202e-15
5.36907e-15
6.08583e-15
5.37144e-15
6.08393e-15
5.36902e-15
6.09033e-15
5.37186e-15
6.09851e-15
5.38753e-15
6.09178e-15
5.38303e-15
6.1064e-15
5.38446e-15
6.08725e-15
5.37208e-15
6.10069e-15
5.3925e-15
6.08353e-15
5.3677e-15
6.09076e-15
5.36551e-15
6.08392e-15
5.37429e-15
6.08797e-15
5.38003e-15
6.08758e-15
5.35197e-15
6.08786e-15
5.38563e-15
6.07715e-15
5.36328e-15
6.10011e-15
5.35975e-15
6.07443e-15
5.39992e-15
6.088e-15
5.35552e-15
6.08031e-15
5.36886e-15
6.08025e-15
5.37627e-15
6.08377e-15
5.3504e-15
6.06686e-15
5.37629e-15
6.07805e-15
5.35858e-15
6.08026e-15
5.36344e-15
6.07629e-15
5.3711e-15
6.07642e-15
5.36992e-15
6.07159e-15
5.35316e-15
6.07441e-15
5.33664e-15
6.05726e-15
5.35251e-15
6.08652e-15
5.38352e-15
6.09029e-15
5.38656e-15
6.08295e-15
5.3777e-15
6.10484e-15
5.39402e-15
6.10823e-15
5.39046e-15
6.0985e-15
5.36581e-15
6.07795e-15
5.36243e-15
6.07603e-15
5.37006e-15
6.07156e-15
5.34285e-15
6.08265e-15
5.36715e-15
6.06708e-15
5.36468e-15
6.0998e-15
5.3822e-15
6.09561e-15
5.36923e-15
6.07676e-15
5.37441e-15
6.08231e-15
5.35661e-15
6.09368e-15
5.38174e-15
6.08417e-15
5.37108e-15
6.08943e-15
5.36221e-15
6.07732e-15
5.35186e-15
6.06603e-15
5.36186e-15
6.08263e-15
5.36745e-15
6.0672e-15
5.35756e-15
6.06456e-15
5.34196e-15
6.06789e-15
5.35627e-15
6.06548e-15
5.34646e-15
6.08148e-15
5.38021e-15
6.08019e-15
5.36876e-15
6.07786e-15
5.38237e-15
6.0756e-15
5.34861e-15
6.06813e-15
5.36321e-15
6.08514e-15
5.37234e-15
6.09041e-15
5.38604e-15
6.08e-15
5.36137e-15
6.09282e-15
5.36152e-15
6.07282e-15
5.35397e-15
6.07415e-15
5.36373e-15
6.06809e-15
5.36474e-15
6.08006e-15
5.37438e-15
6.07877e-15
5.36677e-15
6.08999e-15
5.36654e-15
6.07498e-15
5.36699e-15
6.08273e-15
5.37426e-15
6.09785e-15
5.37746e-15
6.09285e-15
5.39286e-15
6.09355e-15
5.3771e-15
6.09016e-15
5.37032e-15
6.08957e-15
5.38559e-15
6.08664e-15
5.36205e-15
6.07825e-15
5.37335e-15
6.08864e-15
5.35744e-15
6.09198e-15
5.38198e-15
6.07231e-15
5.35243e-15
6.09204e-15
5.37487e-15
6.08524e-15
5.36994e-15
6.10088e-15
5.35834e-15
6.08276e-15
5.40397e-15
6.09382e-15
5.36687e-15
6.07949e-15
5.34821e-15
6.08859e-15
5.38284e-15
6.08407e-15
5.35401e-15
6.06972e-15
5.37081e-15
6.07113e-15
5.35925e-15
6.08323e-15
5.35786e-15
6.08197e-15
5.3781e-15
6.07091e-15
5.35829e-15
6.06514e-15
5.35542e-15
6.06739e-15
5.35027e-15
6.07043e-15
5.33177e-15
6.08674e-15
5.37638e-15
6.08307e-15
5.37758e-15
6.08121e-15
5.35958e-15
6.0998e-15
5.40408e-15
6.10512e-15
5.38127e-15
6.09222e-15
5.3733e-15
6.07481e-15
5.34732e-15
6.06291e-15
5.36844e-15
6.07763e-15
5.35911e-15
6.08861e-15
5.35875e-15
6.06977e-15
5.3631e-15
6.07325e-15
5.38017e-15
6.10222e-15
5.36371e-15
6.08515e-15
5.38199e-15
6.06892e-15
5.35204e-15
6.09374e-15
5.37611e-15
6.07982e-15
5.36548e-15
6.08408e-15
5.36814e-15
6.08426e-15
5.3594e-15
6.07925e-15
5.36943e-15
6.07793e-15
5.36666e-15
6.08135e-15
5.35542e-15
6.06295e-15
5.34551e-15
6.07302e-15
5.36663e-15
6.06882e-15
5.34296e-15
6.08697e-15
5.37783e-15
6.08992e-15
5.38618e-15
6.07462e-15
5.38461e-15
6.08514e-15
5.35373e-15
6.07656e-15
5.37015e-15
6.09282e-15
5.38189e-15
6.09633e-15
5.38334e-15
6.07957e-15
5.36395e-15
6.07306e-15
5.35402e-15
6.08112e-15
5.34658e-15
6.07614e-15
5.36406e-15
6.0609e-15
5.35223e-15
6.08214e-15
5.37513e-15
6.07167e-15
5.35665e-15
6.09508e-15
5.37843e-15
6.09064e-15
5.37323e-15
6.07981e-15
5.37079e-15
6.08196e-15
5.36491e-15
6.09902e-15
5.38787e-15
6.08786e-15
5.37596e-15
6.08614e-15
5.35877e-15
6.07676e-15
5.38068e-15
6.09423e-15
5.37093e-15
6.07832e-15
5.37453e-15
6.08154e-15
5.36502e-15
6.09914e-15
5.38668e-15
6.0811e-15
5.35591e-15
6.07515e-15
5.36787e-15
6.09234e-15
5.37286e-15
6.09488e-15
5.3641e-15
6.08453e-15
5.39316e-15
6.10324e-15
5.3915e-15
6.07734e-15
5.33945e-15
6.08123e-15
5.37926e-15
6.07733e-15
5.35846e-15
6.08223e-15
5.36685e-15
6.07465e-15
5.36113e-15
6.07797e-15
5.36049e-15
6.07791e-15
5.37519e-15
6.07887e-15
5.35831e-15
6.055e-15
5.34638e-15
6.05852e-15
5.34991e-15
6.07165e-15
5.3368e-15
6.07898e-15
5.36935e-15
6.07975e-15
5.38374e-15
6.08312e-15
5.35505e-15
6.10049e-15
5.4028e-15
6.11039e-15
5.38468e-15
6.0945e-15
5.37916e-15
6.08885e-15
5.36117e-15
6.06107e-15
5.35393e-15
6.07276e-15
5.36587e-15
6.08135e-15
5.36332e-15
6.08834e-15
5.34849e-15
6.06145e-15
5.37432e-15
6.08496e-15
5.35594e-15
6.09785e-15
5.38949e-15
6.07156e-15
5.35352e-15
6.09045e-15
5.37833e-15
6.10124e-15
5.38296e-15
6.08234e-15
5.36613e-15
6.08496e-15
5.35879e-15
6.08794e-15
5.36897e-15
6.06973e-15
5.3776e-15
6.08138e-15
5.35292e-15
6.07061e-15
5.34964e-15
6.07038e-15
5.37013e-15
6.07959e-15
5.35187e-15
6.07327e-15
5.3666e-15
6.08508e-15
5.38259e-15
6.07934e-15
5.38268e-15
6.08631e-15
5.36917e-15
6.07994e-15
5.35803e-15
6.09512e-15
5.38833e-15
6.09309e-15
5.38385e-15
6.07813e-15
5.35553e-15
6.06492e-15
5.34798e-15
6.06949e-15
5.34741e-15
6.06895e-15
5.35416e-15
6.07105e-15
5.35589e-15
6.09227e-15
5.38666e-15
6.08531e-15
5.3571e-15
6.08162e-15
5.3802e-15
6.09555e-15
5.37923e-15
6.09366e-15
5.37462e-15
6.07964e-15
5.3606e-15
6.08199e-15
5.37889e-15
6.09544e-15
5.3802e-15
6.08746e-15
5.36645e-15
6.08026e-15
5.36824e-15
6.07994e-15
5.37276e-15
6.09035e-15
5.36777e-15
6.06874e-15
5.35594e-15
6.08945e-15
5.38276e-15
6.0837e-15
5.35427e-15
6.07589e-15
5.36295e-15
6.07942e-15
5.37275e-15
6.09669e-15
5.36789e-15
6.08172e-15
5.38068e-15
6.09504e-15
5.39953e-15
6.08725e-15
5.34929e-15
6.07831e-15
5.37895e-15
6.06814e-15
5.35291e-15
6.07699e-15
5.3594e-15
6.08672e-15
5.37166e-15
6.08468e-15
5.36021e-15
6.06933e-15
5.36053e-15
6.08381e-15
5.35607e-15
6.05795e-15
5.34276e-15
6.04789e-15
5.34661e-15
6.06736e-15
5.35449e-15
6.08768e-15
5.36786e-15
6.08203e-15
5.3826e-15
6.08016e-15
5.36702e-15
6.125e-15
5.38993e-15
6.10539e-15
5.38692e-15
6.08141e-15
5.36923e-15
6.09729e-15
5.37995e-15
6.07909e-15
5.34921e-15
6.06315e-15
5.35452e-15
6.06741e-15
5.36506e-15
6.08544e-15
5.35401e-15
6.06998e-15
5.36773e-15
6.06903e-15
5.35212e-15
6.08948e-15
5.38455e-15
6.09094e-15
5.36332e-15
6.07246e-15
5.35921e-15
6.10952e-15
5.39405e-15
6.08811e-15
5.37465e-15
6.06923e-15
5.3483e-15
6.07951e-15
5.35979e-15
6.07829e-15
5.38376e-15
6.07405e-15
5.36253e-15
6.07751e-15
5.34513e-15
6.0571e-15
5.34912e-15
6.07868e-15
5.35691e-15
6.06888e-15
5.35904e-15
6.07432e-15
5.37032e-15
6.0808e-15
5.36948e-15
6.09612e-15
5.38648e-15
6.06791e-15
5.34351e-15
6.09285e-15
5.38391e-15
6.08068e-15
5.36942e-15
6.07807e-15
5.35651e-15
6.06732e-15
5.34869e-15
6.06886e-15
5.36258e-15
6.06995e-15
5.35452e-15
6.07959e-15
5.35466e-15
6.08223e-15
5.38512e-15
6.10804e-15
5.3781e-15
6.08519e-15
5.38021e-15
6.09085e-15
5.37817e-15
6.10016e-15
5.38402e-15
6.09577e-15
5.35005e-15
6.07878e-15
5.37849e-15
6.08513e-15
5.37401e-15
6.0991e-15
5.38141e-15
6.0981e-15
5.36479e-15
6.07442e-15
5.37471e-15
6.08709e-15
5.36672e-15
6.07552e-15
5.34802e-15
6.08672e-15
5.39044e-15
6.08737e-15
5.36538e-15
6.09325e-15
5.36794e-15
6.07915e-15
5.36495e-15
6.0972e-15
5.3721e-15
6.10201e-15
5.37753e-15
6.07959e-15
5.39228e-15
6.09298e-15
5.3439e-15
6.08525e-15
5.38018e-15
6.07098e-15
5.35389e-15
6.05878e-15
5.35315e-15
6.08588e-15
5.38447e-15
6.09654e-15
5.37282e-15
6.07725e-15
5.35213e-15
6.073e-15
5.35736e-15
6.06376e-15
5.34756e-15
6.05374e-15
5.3419e-15
6.05108e-15
5.3462e-15
6.08727e-15
5.37078e-15
6.08786e-15
5.38104e-15
6.07501e-15
5.37294e-15
6.11295e-15
5.37672e-15
6.11205e-15
5.39811e-15
6.08462e-15
5.36676e-15
6.08305e-15
5.37978e-15
6.08994e-15
5.35421e-15
6.07842e-15
5.36716e-15
6.06736e-15
5.3606e-15
6.0736e-15
5.36229e-15
6.09752e-15
5.37137e-15
6.0735e-15
5.35897e-15
6.07424e-15
5.37332e-15
6.09859e-15
5.37678e-15
6.06864e-15
5.34613e-15
6.08939e-15
5.38702e-15
6.1026e-15
5.38169e-15
6.08758e-15
5.36034e-15
6.07163e-15
5.35167e-15
6.0798e-15
5.36709e-15
6.05981e-15
5.35868e-15
6.08274e-15
5.36689e-15
6.06378e-15
5.33774e-15
6.06652e-15
5.35962e-15
6.07923e-15
5.3524e-15
6.06728e-15
5.38478e-15
5.36253e-15
6.09571e-15
5.39593e-15
6.08153e-15
5.34457e-15
6.09015e-15
5.36443e-15
6.0631e-15
5.36536e-15
6.08492e-15
5.36834e-15
6.07791e-15
5.35347e-15
6.07209e-15
5.36826e-15
6.07813e-15
5.35616e-15
6.07692e-15
5.35446e-15
6.07748e-15
5.37958e-15
6.09985e-15
5.3774e-15
6.10044e-15
5.38605e-15
6.08682e-15
5.37466e-15
6.09165e-15
5.38525e-15
6.08558e-15
5.34912e-15
6.09087e-15
5.37621e-15
6.07859e-15
5.3742e-15
6.09752e-15
5.38354e-15
6.09798e-15
5.37184e-15
6.08501e-15
5.37902e-15
6.08207e-15
5.37034e-15
6.08705e-15
5.34941e-15
6.08159e-15
5.38113e-15
6.08595e-15
5.37508e-15
6.09832e-15
5.37304e-15
6.07964e-15
5.35888e-15
6.07932e-15
5.37251e-15
6.10373e-15
5.37852e-15
6.07795e-15
5.3807e-15
6.07711e-15
5.34654e-15
6.0825e-15
5.3674e-15
6.08457e-15
5.36486e-15
6.07624e-15
5.36224e-15
6.07677e-15
5.37443e-15
6.09526e-15
5.38454e-15
6.08597e-15
5.35145e-15
6.06079e-15
5.34967e-15
6.06521e-15
5.3437e-15
6.05525e-15
5.33502e-15
6.05048e-15
5.3438e-15
6.08373e-15
5.37548e-15
6.08245e-15
5.37601e-15
6.0935e-15
5.39176e-15
6.09113e-15
5.37229e-15
6.11752e-15
5.39192e-15
6.10035e-15
5.37678e-15
6.06961e-15
5.36635e-15
6.07712e-15
5.34814e-15
6.0893e-15
5.37345e-15
6.07727e-15
5.36417e-15
6.06654e-15
5.35866e-15
6.09285e-15
5.37268e-15
6.08496e-15
5.36195e-15
6.07132e-15
5.37081e-15
6.08935e-15
5.38421e-15
6.09518e-15
5.35123e-15
6.07502e-15
5.38454e-15
6.09453e-15
5.38522e-15
6.0934e-15
5.36614e-15
6.07719e-15
5.3544e-15
6.08318e-15
5.36783e-15
6.06253e-15
5.34632e-15
6.07384e-15
5.38145e-15
6.07933e-15
5.34285e-15
6.06254e-15
5.36066e-15
6.07701e-15
5.3435e-15
6.07511e-15
5.36402e-15
6.0828e-15
5.38446e-15
6.09066e-15
5.35727e-15
6.08163e-15
5.36442e-15
6.07019e-15
5.36053e-15
6.08268e-15
5.37152e-15
6.08728e-15
5.36833e-15
6.0709e-15
5.36012e-15
6.0804e-15
5.35699e-15
6.07182e-15
5.34609e-15
6.08281e-15
5.38608e-15
6.07908e-15
5.3801e-15
6.10193e-15
5.37401e-15
6.0923e-15
5.37323e-15
6.08694e-15
5.38108e-15
6.07746e-15
5.35493e-15
6.08912e-15
5.37306e-15
6.08568e-15
5.37394e-15
6.08286e-15
5.3787e-15
6.10211e-15
5.38317e-15
6.08535e-15
5.37046e-15
6.07888e-15
5.36816e-15
6.09237e-15
5.36424e-15
6.08034e-15
5.37196e-15
6.08568e-15
5.37448e-15
6.09166e-15
5.38036e-15
6.09385e-15
5.3613e-15
6.07292e-15
5.37099e-15
6.09087e-15
5.37315e-15
6.09451e-15
5.38097e-15
6.08002e-15
5.3598e-15
6.07304e-15
5.35559e-15
6.08169e-15
5.35686e-15
6.09064e-15
5.37325e-15
6.07705e-15
5.3626e-15
6.08723e-15
5.3818e-15
6.08692e-15
5.35975e-15
6.06063e-15
5.34872e-15
6.06436e-15
5.35207e-15
6.06988e-15
5.34714e-15
6.05731e-15
5.34064e-15
6.08553e-15
5.37618e-15
6.08072e-15
5.37363e-15
6.09949e-15
5.39773e-15
6.09396e-15
5.36882e-15
6.08822e-15
5.38095e-15
6.11513e-15
5.38151e-15
6.08273e-15
5.37469e-15
6.06459e-15
5.3517e-15
6.07251e-15
5.35864e-15
6.08568e-15
5.36023e-15
6.07643e-15
5.36348e-15
6.06998e-15
5.36295e-15
6.08569e-15
5.36574e-15
6.08282e-15
5.3655e-15
6.07524e-15
5.38063e-15
6.09852e-15
5.35346e-15
6.08308e-15
5.37646e-15
6.09356e-15
5.39182e-15
6.08629e-15
5.37061e-15
6.08457e-15
5.34614e-15
6.08721e-15
5.37249e-15
6.07447e-15
5.35631e-15
6.06607e-15
5.37151e-15
6.08433e-15
5.34542e-15
6.0628e-15
5.36013e-15
6.07306e-15
5.35685e-15
6.07562e-15
5.35436e-15
6.07105e-15
5.37281e-15
6.08688e-15
5.37194e-15
6.08255e-15
5.36948e-15
6.08129e-15
5.35042e-15
6.0753e-15
5.37085e-15
6.09102e-15
5.38027e-15
6.07207e-15
5.3496e-15
6.07687e-15
5.36056e-15
6.07405e-15
5.33362e-15
6.09077e-15
5.37703e-15
6.08235e-15
5.39124e-15
6.08609e-15
5.3667e-15
6.10656e-15
5.37708e-15
6.08691e-15
5.38332e-15
6.0885e-15
5.36939e-15
6.07696e-15
5.36858e-15
6.09539e-15
5.3616e-15
6.07641e-15
5.37531e-15
6.10195e-15
5.39803e-15
6.0902e-15
5.366e-15
6.07699e-15
5.35721e-15
6.08307e-15
5.36543e-15
6.08959e-15
5.37796e-15
6.08837e-15
5.37379e-15
6.07763e-15
5.3742e-15
6.09152e-15
5.36329e-15
6.09375e-15
5.38331e-15
6.07474e-15
5.36497e-15
6.09621e-15
5.3706e-15
6.07648e-15
5.36282e-15
6.08286e-15
5.36553e-15
6.07809e-15
5.36195e-15
6.09158e-15
5.38502e-15
6.08845e-15
5.35861e-15
6.07345e-15
5.36346e-15
6.08982e-15
5.36527e-15
6.06739e-15
5.35329e-15
6.05367e-15
5.34179e-15
6.0708e-15
5.35713e-15
6.06351e-15
5.34175e-15
6.08125e-15
5.37475e-15
6.08517e-15
5.36946e-15
6.09074e-15
5.40196e-15
6.1119e-15
5.37283e-15
6.07445e-15
5.37119e-15
6.09529e-15
5.38036e-15
6.10235e-15
5.37421e-15
6.07501e-15
5.35964e-15
6.05626e-15
5.35368e-15
6.07094e-15
5.35435e-15
6.09322e-15
5.35983e-15
6.07308e-15
5.37138e-15
6.07686e-15
5.36407e-15
6.09051e-15
5.36898e-15
6.08734e-15
5.3776e-15
6.07585e-15
5.35929e-15
6.08837e-15
5.36143e-15
6.09631e-15
5.39596e-15
6.08945e-15
5.38817e-15
6.07486e-15
5.34153e-15
6.07408e-15
5.34874e-15
6.08651e-15
5.36778e-15
6.06585e-15
5.37788e-15
6.0736e-15
5.35218e-15
6.07241e-15
5.35843e-15
6.0823e-15
5.36559e-15
6.07967e-15
5.35696e-15
6.08407e-15
5.37513e-15
6.07958e-15
5.36724e-15
6.08038e-15
5.36548e-15
6.08744e-15
5.35262e-15
6.06832e-15
5.3663e-15
6.08377e-15
5.38905e-15
6.06872e-15
5.34318e-15
6.07329e-15
5.36118e-15
6.0808e-15
5.34726e-15
6.0773e-15
5.36625e-15
6.09829e-15
5.40067e-15
6.08314e-15
5.36287e-15
6.09455e-15
5.36931e-15
6.08768e-15
5.37933e-15
6.09712e-15
5.37552e-15
6.08451e-15
5.37673e-15
6.08572e-15
5.36789e-15
6.09142e-15
5.37106e-15
6.09782e-15
5.41224e-15
6.09786e-15
5.36004e-15
6.08328e-15
5.36391e-15
6.06494e-15
5.35868e-15
6.08876e-15
5.36026e-15
6.09543e-15
5.37572e-15
6.0681e-15
5.37224e-15
6.0763e-15
5.36164e-15
6.11138e-15
5.39276e-15
6.0805e-15
5.36105e-15
6.08555e-15
5.37444e-15
6.07689e-15
5.36344e-15
6.08704e-15
5.36393e-15
6.08448e-15
5.37149e-15
6.08201e-15
5.38109e-15
6.10141e-15
5.36409e-15
6.07237e-15
5.36033e-15
6.07591e-15
5.36117e-15
6.08579e-15
5.35839e-15
6.06176e-15
5.34746e-15
6.0637e-15
5.358e-15
6.07263e-15
5.3464e-15
6.08593e-15
5.37534e-15
6.09732e-15
5.37657e-15
6.0819e-15
5.3935e-15
6.09732e-15
5.37628e-15
6.07865e-15
5.35515e-15
6.08407e-15
5.38735e-15
6.09697e-15
5.37838e-15
6.09004e-15
5.35039e-15
6.06396e-15
5.36137e-15
6.06878e-15
5.35676e-15
6.07906e-15
5.35848e-15
6.09057e-15
5.38245e-15
6.07451e-15
5.3639e-15
6.08227e-15
5.36891e-15
6.09747e-15
5.37898e-15
6.06927e-15
5.35935e-15
6.07896e-15
5.35783e-15
6.09665e-15
5.37431e-15
6.09738e-15
5.39601e-15
6.08279e-15
5.35017e-15
6.05437e-15
5.33523e-15
6.08001e-15
5.36368e-15
6.08502e-15
5.38452e-15
6.07183e-15
5.3593e-15
6.07824e-15
5.35553e-15
6.07265e-15
5.36051e-15
6.08506e-15
5.37121e-15
6.0986e-15
5.36601e-15
6.08097e-15
5.37234e-15
6.07597e-15
5.36481e-15
6.08643e-15
5.35675e-15
6.08129e-15
5.3672e-15
6.07978e-15
5.38064e-15
6.074e-15
5.3431e-15
6.05535e-15
5.35339e-15
6.07733e-15
5.35242e-15
6.06753e-15
5.36227e-15
6.09481e-15
5.39834e-15
6.09572e-15
5.37288e-15
6.07957e-15
5.36082e-15
6.08996e-15
5.37586e-15
6.0932e-15
5.37654e-15
6.09966e-15
5.38361e-15
6.08226e-15
5.37403e-15
6.09712e-15
5.36465e-15
6.09913e-15
5.41573e-15
6.08862e-15
5.34813e-15
6.09643e-15
5.3672e-15
6.07431e-15
5.37075e-15
6.07092e-15
5.35294e-15
6.09591e-15
5.37021e-15
6.08195e-15
5.38203e-15
6.07149e-15
5.3594e-15
6.09758e-15
5.40507e-15
6.09904e-15
5.35501e-15
6.07964e-15
5.37239e-15
6.08296e-15
5.37945e-15
6.07474e-15
5.35982e-15
6.09119e-15
5.35949e-15
6.07633e-15
5.38265e-15
6.09304e-15
5.37126e-15
6.09123e-15
5.3621e-15
6.0695e-15
5.36323e-15
6.07332e-15
5.35413e-15
6.07874e-15
5.36405e-15
6.06149e-15
5.35671e-15
6.0764e-15
5.34128e-15
6.08923e-15
5.37e-15
6.09586e-15
5.38289e-15
6.09888e-15
5.37492e-15
6.07838e-15
5.38685e-15
6.07605e-15
5.34358e-15
6.0931e-15
5.38431e-15
6.09549e-15
5.38786e-15
6.07753e-15
5.35349e-15
6.07043e-15
5.35448e-15
6.07593e-15
5.36241e-15
6.07771e-15
5.35932e-15
6.09867e-15
5.38489e-15
6.08091e-15
5.36865e-15
6.07833e-15
5.36436e-15
6.09652e-15
5.38308e-15
6.08524e-15
5.36693e-15
6.08021e-15
5.36056e-15
6.0868e-15
5.37363e-15
6.09162e-15
5.3955e-15
6.09643e-15
5.36566e-15
6.08068e-15
5.3537e-15
6.06652e-15
5.35835e-15
6.08391e-15
5.37508e-15
6.07184e-15
5.36218e-15
6.08804e-15
5.36397e-15
6.07265e-15
5.35928e-15
6.08331e-15
5.38123e-15
6.09128e-15
5.37346e-15
6.09146e-15
5.37096e-15
6.07655e-15
5.36324e-15
6.07049e-15
5.34664e-15
6.08492e-15
5.36889e-15
6.07414e-15
5.37591e-15
6.07775e-15
5.34492e-15
6.06374e-15
5.35259e-15
6.071e-15
5.35764e-15
6.08526e-15
5.37217e-15
6.07799e-15
5.37563e-15
6.0978e-15
5.38012e-15
6.07892e-15
5.36846e-15
6.09363e-15
5.36804e-15
6.09513e-15
5.39633e-15
6.10579e-15
5.38029e-15
6.09298e-15
5.37884e-15
6.08586e-15
5.35828e-15
6.10062e-15
5.40131e-15
6.08196e-15
5.35159e-15
6.07751e-15
5.36676e-15
6.08569e-15
5.37439e-15
6.07564e-15
5.35716e-15
6.0812e-15
5.37106e-15
6.09045e-15
5.36622e-15
6.08014e-15
5.36699e-15
6.08249e-15
5.39579e-15
6.10433e-15
5.36169e-15
6.07611e-15
5.3695e-15
6.08381e-15
5.3623e-15
6.06393e-15
5.3687e-15
6.07934e-15
5.3563e-15
6.08713e-15
5.37926e-15
6.07947e-15
5.379e-15
6.09019e-15
5.35778e-15
6.08106e-15
5.36832e-15
6.06899e-15
5.35179e-15
6.07639e-15
5.36376e-15
6.07068e-15
5.36573e-15
6.07335e-15
5.35189e-15
6.08697e-15
5.36965e-15
6.0887e-15
5.38467e-15
6.10297e-15
5.36615e-15
6.08809e-15
5.39727e-15
6.06238e-15
5.35762e-15
6.09e-15
5.3585e-15
6.09078e-15
5.38242e-15
6.07037e-15
5.36071e-15
6.06774e-15
5.36228e-15
6.08076e-15
5.35536e-15
6.08378e-15
5.36589e-15
6.08356e-15
5.38444e-15
6.09591e-15
5.3747e-15
6.08878e-15
5.37186e-15
6.0716e-15
5.36988e-15
6.09253e-15
5.37483e-15
6.08264e-15
5.35979e-15
6.09114e-15
5.36548e-15
6.07798e-15
5.38785e-15
6.07699e-15
5.36016e-15
6.09448e-15
5.3586e-15
6.07366e-15
5.36215e-15
6.07457e-15
5.37066e-15
6.06885e-15
5.35789e-15
6.07893e-15
5.36876e-15
6.08365e-15
5.36124e-15
6.0744e-15
5.38176e-15
6.08831e-15
5.38239e-15
6.09131e-15
5.36514e-15
6.08698e-15
5.36962e-15
6.07068e-15
5.34812e-15
6.077e-15
5.36448e-15
6.08076e-15
5.37876e-15
6.07241e-15
5.35719e-15
6.07639e-15
5.34845e-15
6.06421e-15
5.35832e-15
6.09982e-15
5.37768e-15
6.07788e-15
5.36709e-15
6.08792e-15
5.37623e-15
6.09045e-15
5.37588e-15
6.07844e-15
5.3608e-15
6.10363e-15
5.40272e-15
6.08693e-15
5.37388e-15
6.10649e-15
5.38645e-15
6.08861e-15
5.37041e-15
6.0866e-15
5.38164e-15
6.09237e-15
5.34775e-15
6.06936e-15
5.3679e-15
6.08126e-15
5.36989e-15
6.08631e-15
5.35685e-15
6.08328e-15
5.38542e-15
6.08285e-15
5.36402e-15
6.10052e-15
5.36556e-15
6.08319e-15
5.38857e-15
6.09206e-15
5.36715e-15
6.08539e-15
5.37925e-15
6.07844e-15
5.35665e-15
6.07568e-15
5.37621e-15
6.06583e-15
5.36473e-15
6.09004e-15
5.35724e-15
6.07959e-15
5.37456e-15
6.05894e-15
5.34917e-15
6.07867e-15
5.35508e-15
6.07462e-15
5.36439e-15
6.06576e-15
5.36048e-15
6.07983e-15
5.36418e-15
6.07532e-15
5.36264e-15
6.09e-15
5.3664e-15
6.08306e-15
5.37401e-15
6.08871e-15
5.34836e-15
6.09924e-15
5.39734e-15
6.07432e-15
5.38292e-15
6.0812e-15
5.34073e-15
6.07961e-15
5.36498e-15
6.06578e-15
5.35176e-15
6.07274e-15
5.37793e-15
6.07448e-15
5.35408e-15
6.08907e-15
5.359e-15
6.07505e-15
5.38073e-15
6.08336e-15
5.3621e-15
6.10904e-15
5.38203e-15
6.07007e-15
5.3622e-15
6.07981e-15
5.37178e-15
6.07382e-15
5.36041e-15
6.09834e-15
5.34572e-15
6.07984e-15
5.38979e-15
6.07091e-15
5.35886e-15
6.08468e-15
5.3806e-15
6.09308e-15
5.35333e-15
6.07717e-15
5.37399e-15
6.07615e-15
5.35908e-15
6.06878e-15
5.37061e-15
6.08546e-15
5.35411e-15
6.06431e-15
5.37372e-15
6.09739e-15
5.39073e-15
6.07614e-15
5.35949e-15
6.08352e-15
5.36332e-15
6.07414e-15
5.35735e-15
6.07175e-15
5.35779e-15
6.08464e-15
5.36175e-15
6.07273e-15
5.37104e-15
6.07023e-15
5.34311e-15
6.06346e-15
5.35965e-15
6.09113e-15
5.38634e-15
6.10015e-15
5.37546e-15
6.07324e-15
5.36168e-15
6.1025e-15
5.37463e-15
6.07634e-15
5.35381e-15
6.10474e-15
5.40724e-15
6.08728e-15
5.36967e-15
6.08464e-15
5.3788e-15
6.11256e-15
5.37677e-15
6.07872e-15
5.38582e-15
6.08931e-15
5.35039e-15
6.08143e-15
5.35997e-15
6.08181e-15
5.37938e-15
6.08854e-15
5.36058e-15
6.08569e-15
5.37987e-15
6.08331e-15
5.37295e-15
6.08708e-15
5.37058e-15
6.10275e-15
5.38777e-15
6.07985e-15
5.36096e-15
6.09182e-15
5.36872e-15
6.07255e-15
5.35828e-15
6.08143e-15
5.36187e-15
6.06754e-15
5.36834e-15
6.08014e-15
5.35808e-15
6.08842e-15
5.36773e-15
6.0652e-15
5.35383e-15
6.05761e-15
5.34885e-15
6.08408e-15
5.37107e-15
6.07613e-15
5.36248e-15
6.06922e-15
5.3647e-15
6.06938e-15
5.36897e-15
6.09087e-15
5.36588e-15
6.08853e-15
5.36995e-15
6.08736e-15
5.36004e-15
6.08513e-15
5.37956e-15
6.08824e-15
5.39675e-15
6.07606e-15
5.3385e-15
6.07574e-15
5.35815e-15
6.07534e-15
5.35998e-15
6.07954e-15
5.37242e-15
6.07966e-15
5.36927e-15
6.08397e-15
5.36139e-15
6.08458e-15
5.38314e-15
6.07284e-15
5.35835e-15
6.09647e-15
5.37901e-15
6.08719e-15
5.36418e-15
6.06744e-15
5.35697e-15
6.07239e-15
5.37715e-15
6.07974e-15
5.34446e-15
6.0938e-15
5.37954e-15
6.08995e-15
5.37884e-15
6.08797e-15
5.39208e-15
6.09399e-15
5.36229e-15
6.07705e-15
5.3636e-15
6.07991e-15
5.35785e-15
6.06871e-15
5.36499e-15
6.07408e-15
5.35332e-15
6.07368e-15
5.36608e-15
6.08942e-15
5.38323e-15
6.07788e-15
5.35832e-15
6.0639e-15
5.35124e-15
6.07684e-15
5.36384e-15
6.07889e-15
5.36493e-15
6.07311e-15
5.35424e-15
6.08558e-15
5.38119e-15