/*--------------------------------*- C++ -*----------------------------------*\
| =========                 |                                                 |
| \\      /  F ield         | OpenFOAM: The Open Source CFD Toolbox           |
|  \\    /   O peration     | Version:  2206                                  |
|   \\  /    A nd           | Website:  www.openfoam.com                      |
|    \\/     M anipulation  |                                                 |
\*---------------------------------------------------------------------------*/
FoamFile
{
    version     2.0;
    format      ascii;
    arch        "LSB;label=32;scalar=64";
    class       volScalarField;
    location    "0.3";
    object      p;
}
// * * * * * * * * * * * * * * * * * * * * * * * * * * * * * * * * * * * * * //

dimensions      [0 2 -2 0 0 0 0];

internalField   nonuniform List<scalar> 
183793
(
0.102364
0.0968766
0.102775
0.0982101
0.102729
0.102124
0.0988662
0.0995445
0.0943461
0.0978373
0.0978876
0.0985334
0.103022
0.105431
0.0987918
0.0966352
0.0975827
0.100499
0.1024
0.102474
0.102806
0.103756
0.103058
0.104644
0.0962346
0.105024
0.104363
0.103102
0.10313
0.0919891
0.107022
0.104116
0.0965229
0.0971952
0.0887386
0.108348
0.103666
0.100809
0.104032
0.108245
0.0891357
0.105681
0.106921
0.104312
0.0893781
0.089052
0.107959
0.0894392
0.0896991
0.106651
0.0991211
0.089328
0.0867793
0.0897592
0.0988441
0.0900191
0.10337
0.100478
0.08684
0.103979
0.0903539
0.101032
0.0870973
0.10804
0.108376
0.0871895
0.0870781
0.0991863
0.10533
0.100375
0.0878303
0.0904354
0.0987703
0.0880653
0.101453
0.106069
0.101145
0.10146
0.106324
0.0883831
0.0884215
0.108296
0.107046
0.105401
0.100702
0.0884684
0.0984707
0.0952248
0.102059
0.100147
0.0890325
0.105731
0.10567
0.0938935
0.0984494
0.100402
0.0923192
0.107019
0.0982161
0.0959713
0.105732
0.10638
0.0920589
0.0962394
0.0887766
0.0896859
0.0949101
0.0883732
0.0894209
0.0877439
0.0884103
0.107376
0.0907347
0.0939994
0.091014
0.0975166
0.0874214
0.0978261
0.0997743
0.0904196
0.0994529
0.1073
0.105082
0.0926164
0.094659
0.106055
0.0886892
0.106713
0.090695
0.106637
0.0912906
0.094888
0.089668
0.0899844
0.0900671
0.106968
0.095324
0.106696
0.104975
0.106945
0.0903067
0.0903985
0.0906422
0.103778
0.090764
0.0929768
0.0907313
0.0945546
0.0909769
0.104742
0.108702
0.107711
0.0877557
0.0910567
0.0949892
0.0913882
0.0916464
0.0893701
0.107027
0.107361
0.0919718
0.0900968
0.0916452
0.0910938
0.0890154
0.0910702
0.0972603
0.0910207
0.096941
0.0917203
0.108009
0.091347
0.107691
0.0980961
0.0875284
0.0975614
0.091413
0.0974598
0.0922831
0.0878007
0.086797
0.108614
0.0927186
0.0971553
0.0981913
0.0995221
0.0878523
0.0932716
0.10859
0.093937
0.0868565
0.108675
0.106285
0.107678
0.107589
0.101794
0.104985
0.104332
0.102782
0.0936634
0.107344
0.104006
0.104091
0.101155
0.0916693
0.0998343
0.100154
0.0995205
0.101722
0.101048
0.102698
0.102122
0.0871895
0.106615
0.101716
0.104023
0.10079
0.102033
0.102444
0.107941
0.0994218
0.104404
0.100474
0.10335
0.107584
0.0997406
0.0940009
0.098104
0.105001
0.10202
0.0917499
0.0920762
0.0943285
0.092333
0.106308
0.098743
0.0955515
0.0945916
0.0946541
0.0988288
0.0933524
0.0949896
0.0953061
0.0917078
0.102038
0.0959592
0.0926396
0.0920428
0.101824
0.103431
0.0966066
0.0874386
0.0926612
0.102137
0.10467
0.100826
0.100749
0.101748
0.102078
0.0924015
0.103696
0.107687
0.0968478
0.101067
0.0998303
0.0971682
0.103042
0.0972458
0.107255
0.0974827
0.105089
0.100726
0.0927164
0.0975586
0.105332
0.0946641
0.0977937
0.0978769
0.0981711
0.101072
0.0984191
0.0897434
0.10303
0.0881462
0.0975678
0.103429
0.103115
0.107624
0.093912
0.100796
0.105762
0.0930601
0.108635
0.107298
0.0990914
0.0929943
0.103376
0.0991691
0.105009
0.108685
0.0942481
0.104765
0.106333
0.100065
0.0974995
0.0926617
0.093077
0.0943299
0.0897391
0.10182
0.100722
0.108024
0.0923858
0.0896475
0.0903025
0.101127
0.108355
0.103765
0.0894321
0.102118
0.104742
0.103425
0.101381
0.106007
0.107934
0.104351
0.10047
0.0991934
0.0959055
0.104682
0.104422
0.096835
0.096615
0.0985142
0.0933169
0.103354
0.101449
0.096512
0.104741
0.104691
0.0914084
0.0871918
0.0924015
0.0956668
0.105073
0.0987434
0.0956383
0.0958746
0.0961956
0.0990829
0.0952496
0.0977825
0.0933935
0.0936245
0.107349
0.0998191
0.0995008
0.0997297
0.0994163
0.10465
0.105652
0.105971
0.0937015
0.10507
0.0984111
0.0919507
0.0942544
0.0979109
0.105394
0.0884933
0.100051
0.100422
0.100175
0.0939458
0.105352
0.104445
0.107359
0.095914
0.0950113
0.0981385
0.105636
0.100383
0.0878434
0.0942241
0.0985111
0.108351
0.0962788
0.0935927
0.100101
0.107677
0.0922892
0.102456
0.0936829
0.094909
0.0893485
0.0891024
0.0899671
0.0904179
0.0940209
0.0952739
0.0907545
0.106053
0.0891185
0.0887156
0.107636
0.095655
0.10409
0.0936857
0.096182
0.102136
0.0972508
0.107912
0.101479
0.103112
0.107029
0.0929514
0.0917259
0.103004
0.0927178
0.101797
0.0953289
0.0949452
0.101724
0.102713
0.101693
0.107262
0.0988475
0.107968
0.0875287
0.101359
0.0888164
0.0913355
0.106698
0.0919849
0.0946014
0.0946833
0.093997
0.0923811
0.0881092
0.101361
0.0936129
0.0900763
0.0900148
0.0932724
0.100153
0.104417
0.106372
0.104093
0.10366
0.106719
0.0933738
0.10638
0.10628
0.105964
0.0963069
0.095599
0.0953475
0.0903505
0.104425
0.0955824
0.0894359
0.096938
0.106971
0.0935749
0.0943312
0.0874452
0.102383
0.0985166
0.0959561
0.0906385
0.104341
0.101409
0.0955469
0.0912947
0.0968748
0.10178
0.0891171
0.0952336
0.0927377
0.0942699
0.0909672
0.0913936
0.0916206
0.0929641
0.0930337
0.103711
0.0971921
0.103691
0.1027
0.0966075
0.10235
0.0972804
0.108583
0.0881538
0.0900732
0.0963007
0.0965555
0.100088
0.0945872
0.101138
0.104078
0.0871361
0.106014
0.0958649
0.108684
0.103326
0.103436
0.103761
0.0978746
0.0949889
0.108253
0.0880997
0.0884682
0.0887931
0.0890429
0.0887232
0.0881617
0.0897558
0.106065
0.0906841
0.0910731
0.106597
0.099467
0.0992126
0.0920626
0.0959864
0.0965532
0.105412
0.105745
0.093042
0.0932896
0.108027
0.093356
0.108693
0.0998547
0.0997759
0.08679
0.0956514
0.0969235
0.108301
0.102448
0.106085
0.0981467
0.105302
0.0991337
0.0887985
0.0871236
0.0969551
0.0875097
0.106401
0.0868748
0.0872137
0.102458
0.105411
0.102391
0.104742
0.108351
0.102784
0.102678
0.0884784
0.0880601
0.10346
0.0877869
0.0874714
0.0875502
0.0868535
0.0878676
0.107273
0.105334
0.102775
0.0881786
0.096285
0.104019
0.108608
0.108271
0.108008
0.107601
0.106964
0.106705
0.106642
0.10638
0.105976
0.105723
0.10565
0.103756
0.103101
0.105065
0.101447
0.101382
0.101131
0.101046
0.100788
0.100733
0.100473
0.100404
0.100144
0.100071
0.0998227
0.0997558
0.0995039
0.0994206
0.099169
0.0991056
0.0988425
0.0987724
0.0985051
0.0984428
0.0981812
0.098125
0.0978802
0.0978099
0.097571
0.0975027
0.0972537
0.0971889
0.0969287
0.0968601
0.0966015
0.0965299
0.0962769
0.0962116
0.0959575
0.0959143
0.0956554
0.0955938
0.0953336
0.095264
0.094995
0.0949194
0.094671
0.0945925
0.0943316
0.0942503
0.0939903
0.0939131
0.0936683
0.0935999
0.0933582
0.0932869
0.0930376
0.0929729
0.0927041
0.0926383
0.0923779
0.0923091
0.0920545
0.0919711
0.091718
0.0916508
0.0913883
0.0913146
0.0910625
0.0909856
0.0907243
0.0906605
0.0903987
0.0903253
0.0900771
0.0900028
0.0897456
0.0896815
0.0894221
0.0893574
0.0891145
0.0890325
0.0887868
0.088722
0.0884686
0.0883938
0.0881527
0.0880802
0.0878297
0.0877534
0.0875148
0.0874402
0.0871761
0.0871049
0.0868481
0.0867622
0.108677
0.108591
0.108338
0.108261
0.108002
0.10791
0.107666
0.107593
0.107339
0.107265
0.107019
0.106935
0.106692
0.106626
0.106371
0.106294
0.106052
0.105973
0.105723
0.105651
0.105397
0.10531
0.105052
0.104972
0.104723
0.104657
0.104407
0.104337
0.104083
0.104003
0.103753
0.103686
0.103428
0.103351
0.103099
0.103028
0.102774
0.1027
0.102446
0.102364
0.102112
0.102039
0.10178
0.101697
0.10144
0.101367
0.101121
0.101052
0.100803
0.100718
0.100466
0.100393
0.100142
0.100062
0.0998187
0.0997531
0.0994885
0.0994107
0.0991583
0.0990763
0.0988324
0.0987589
0.0985131
0.0984384
0.0981883
0.0981226
0.0978811
0.0978099
0.0975676
0.0974905
0.0972487
0.0971755
0.0969198
0.0968498
0.0966051
0.0965272
0.0962817
0.0962083
0.095972
0.0958978
0.0956593
0.0955911
0.095324
0.0952472
0.094998
0.0949194
0.0946711
0.0945903
0.0943211
0.0942362
0.0939782
0.0939033
0.0936549
0.093592
0.0933512
0.0932745
0.0930299
0.0929489
0.0927046
0.092628
0.092373
0.0923179
0.0920553
0.0919743
0.0917191
0.0916328
0.0913842
0.0913127
0.0910573
0.0909764
0.0907225
0.0906433
0.0903905
0.0903171
0.0900711
0.0899938
0.0897428
0.0896673
0.0894115
0.0893438
0.0891023
0.0890291
0.0887788
0.0886999
0.0884572
0.0883856
0.0881432
0.0880656
0.0878187
0.0877467
0.0875013
0.087421
0.0871715
0.0870977
0.086843
0.0867698
0.10867
0.10858
0.108333
0.108255
0.107997
0.107927
0.107667
0.107589
0.107341
0.107262
0.107013
0.106941
0.106693
0.106608
0.106363
0.106299
0.106049
0.105981
0.10573
0.105651
0.105399
0.105327
0.105062
0.104988
0.104726
0.104652
0.104405
0.104329
0.104083
0.104012
0.103758
0.103679
0.103425
0.103352
0.1031
0.103021
0.102774
0.102708
0.102445
0.102361
0.102114
0.102037
0.101777
0.101703
0.101449
0.101374
0.101119
0.101046
0.100794
0.100722
0.100468
0.10039
0.10014
0.100066
0.0998268
0.0997506
0.099493
0.0994133
0.0991657
0.0990986
0.0988382
0.0987734
0.0985233
0.0984496
0.0982032
0.0981341
0.0978867
0.0978189
0.0975652
0.0974939
0.0972524
0.0971745
0.0969238
0.0968543
0.0966043
0.0965312
0.0962921
0.0962146
0.0959677
0.095897
0.0956532
0.0955844
0.0953261
0.0952551
0.0949895
0.094916
0.0946648
0.0945843
0.0943147
0.0942376
0.0939885
0.0939117
0.0936558
0.093582
0.0933405
0.093277
0.0930343
0.0929523
0.0927048
0.0926291
0.0923705
0.0922878
0.0920474
0.091977
0.0917148
0.0916349
0.0913844
0.0913052
0.091055
0.0909745
0.0907222
0.0906426
0.090384
0.0903095
0.0900627
0.0899834
0.0897376
0.089664
0.0894129
0.0893343
0.089098
0.0890289
0.0887756
0.0886934
0.0884564
0.0883861
0.088141
0.0880679
0.0878214
0.0877471
0.0875007
0.0874318
0.0871798
0.0871025
0.0868509
0.0867751
0.108655
0.108582
0.108331
0.108256
0.107998
0.107922
0.107664
0.107584
0.107336
0.107259
0.107016
0.106939
0.106693
0.106623
0.106371
0.106309
0.10606
0.10599
0.105731
0.105656
0.105394
0.105312
0.10506
0.104981
0.104733
0.104658
0.104409
0.104334
0.104088
0.104018
0.103763
0.103686
0.103435
0.10336
0.1031
0.103026
0.102772
0.102694
0.102441
0.102368
0.10211
0.102035
0.101778
0.101701
0.101452
0.101375
0.101123
0.101041
0.100794
0.100723
0.100467
0.100396
0.100144
0.100075
0.0998202
0.0997588
0.0995017
0.0994229
0.0991758
0.0990989
0.0988451
0.0987699
0.0985217
0.0984509
0.0982112
0.0981371
0.0978948
0.0978166
0.0975677
0.0974934
0.0972502
0.0971784
0.0969267
0.0968451
0.096601
0.0965335
0.0962888
0.0962139
0.0959717
0.0958946
0.0956502
0.0955775
0.0953216
0.0952422
0.0949872
0.0949165
0.0946648
0.0945861
0.0943221
0.094248
0.0939967
0.0939069
0.0936655
0.0935886
0.0933398
0.0932686
0.0930193
0.0929415
0.092703
0.0926175
0.0923655
0.0922866
0.0920397
0.0919685
0.0917091
0.0916323
0.091378
0.0913023
0.091047
0.0909733
0.0907209
0.0906434
0.0903916
0.0903127
0.0900629
0.0899877
0.0897354
0.0896581
0.0894176
0.0893472
0.0890967
0.0890247
0.0887699
0.0886972
0.0884498
0.0883776
0.0881317
0.0880615
0.087818
0.0877402
0.0874985
0.087434
0.08718
0.0871003
0.0868515
0.0867694
0.108656
0.108585
0.108332
0.108256
0.108003
0.107929
0.107671
0.107595
0.10734
0.107266
0.107019
0.106944
0.106699
0.106627
0.106378
0.106301
0.106057
0.10598
0.105731
0.105654
0.105396
0.10532
0.105065
0.104994
0.10474
0.104664
0.104414
0.104339
0.104091
0.104009
0.103759
0.103695
0.103435
0.103346
0.103101
0.10302
0.102768
0.102691
0.102442
0.102364
0.102109
0.102031
0.101778
0.101702
0.10145
0.101372
0.101124
0.101048
0.100806
0.10073
0.100472
0.100404
0.100151
0.100074
0.0998231
0.0997538
0.0994997
0.0994276
0.0991808
0.0990943
0.0988561
0.098785
0.0985327
0.0984637
0.0982148
0.0981403
0.0978955
0.0978204
0.0975704
0.0974924
0.0972451
0.0971724
0.0969239
0.0968522
0.0966097
0.096539
0.0962866
0.0962193
0.0959707
0.0958945
0.0956454
0.0955655
0.0953169
0.0952406
0.0949883
0.0949076
0.0946601
0.0945823
0.0943169
0.0942499
0.0939757
0.0939041
0.0936597
0.0935769
0.0933375
0.0932573
0.0930128
0.0929403
0.0926852
0.0926028
0.0923597
0.0922813
0.0920326
0.0919463
0.0917076
0.0916305
0.0913788
0.0913064
0.09105
0.0909689
0.0907125
0.0906424
0.0903938
0.0903117
0.0900684
0.0899896
0.0897357
0.089666
0.0894175
0.089351
0.0890877
0.0890077
0.0887734
0.0886938
0.0884577
0.0883839
0.0881343
0.0880628
0.0878172
0.0877414
0.0874976
0.0874283
0.0871753
0.0871051
0.0868539
0.0867811
0.108662
0.108589
0.108335
0.10826
0.108006
0.10793
0.107673
0.107599
0.107342
0.107261
0.107019
0.106943
0.1067
0.106621
0.106379
0.106306
0.106059
0.105985
0.105729
0.105653
0.105402
0.105323
0.10507
0.105006
0.104745
0.104664
0.104416
0.104338
0.104091
0.104016
0.103766
0.103692
0.103432
0.103365
0.103101
0.103016
0.102768
0.10269
0.102443
0.10237
0.102108
0.102033
0.101777
0.101701
0.101446
0.101368
0.10112
0.101047
0.100803
0.100726
0.100476
0.100403
0.100149
0.10007
0.0998218
0.0997384
0.0994907
0.0994326
0.099171
0.099094
0.0988588
0.0987897
0.0985414
0.0984694
0.0982204
0.0981477
0.0978946
0.0978195
0.0975682
0.0974935
0.0972445
0.0971648
0.0969227
0.0968484
0.096606
0.096527
0.0962856
0.0962176
0.0959669
0.0958949
0.0956419
0.0955612
0.0953115
0.0952355
0.0949853
0.0949079
0.094653
0.0945746
0.0943175
0.0942318
0.0939735
0.0939053
0.0936536
0.0935827
0.0933393
0.0932628
0.0930168
0.0929419
0.0926768
0.0926069
0.092359
0.0922787
0.0920241
0.0919507
0.0917071
0.0916316
0.0913823
0.0913065
0.0910564
0.0909752
0.0907165
0.0906422
0.0903896
0.0903212
0.0900683
0.0899857
0.0897404
0.0896611
0.0894297
0.0893516
0.0890844
0.0890217
0.0887659
0.0886926
0.088457
0.0883787
0.0881327
0.0880659
0.0878164
0.0877448
0.0874984
0.087415
0.0871725
0.0870968
0.0868463
0.108665
0.108587
0.108333
0.108253
0.108003
0.10792
0.107668
0.107593
0.107336
0.107258
0.107012
0.10694
0.106696
0.106625
0.106379
0.106298
0.106053
0.10597
0.105722
0.105653
0.105409
0.10533
0.10508
0.105003
0.104742
0.104673
0.104414
0.104332
0.104086
0.104013
0.103764
0.10368
0.103432
0.103363
0.103092
0.103017
0.102765
0.102686
0.102439
0.10236
0.102104
0.102024
0.101772
0.101697
0.101447
0.101377
0.101123
0.101042
0.100796
0.100715
0.100474
0.100397
0.100145
0.100075
0.0998116
0.0997359
0.0994895
0.0994162
0.0991683
0.0990973
0.0988592
0.0987869
0.0985433
0.0984701
0.0982197
0.0981456
0.0978954
0.0978232
0.0975745
0.0974934
0.0972423
0.097168
0.0969274
0.0968505
0.0966053
0.0965306
0.0962845
0.0962066
0.0959558
0.0958865
0.0956304
0.0955597
0.0953073
0.0952292
0.0949821
0.0949017
0.0946488
0.094573
0.0943198
0.0942417
0.0939895
0.0939079
0.0936533
0.093594
0.0933297
0.0932506
0.0930125
0.0929303
0.0926799
0.0926091
0.0923537
0.0922835
0.092032
0.091957
0.0917095
0.0916318
0.0913794
0.0913035
0.0910503
0.0909748
0.0907239
0.0906424
0.0903935
0.0903257
0.0900681
0.0899957
0.0897391
0.0896624
0.0894222
0.0893418
0.0890941
0.0890171
0.0887589
0.0886999
0.0884653
0.0883881
0.0881424
0.0880643
0.0878166
0.0877397
0.0874925
0.0874171
0.0871718
0.0870939
0.108668
0.1086
0.108337
0.108248
0.107994
0.107919
0.107654
0.107574
0.107332
0.107259
0.107013
0.106937
0.106694
0.106623
0.106375
0.106297
0.106047
0.105969
0.105722
0.105657
0.10541
0.105347
0.105079
0.10499
0.104744
0.104669
0.104418
0.104341
0.104092
0.104009
0.103759
0.103688
0.10343
0.103346
0.103086
0.103019
0.102762
0.10268
0.102432
0.102359
0.102101
0.102023
0.101773
0.101694
0.101441
0.101374
0.101116
0.101041
0.100792
0.100718
0.100474
0.100398
0.100145
0.100076
0.0998161
0.0997435
0.0994952
0.0994193
0.0991739
0.0990977
0.0988549
0.0987841
0.0985399
0.0984638
0.0982219
0.0981434
0.0978964
0.0978265
0.0975699
0.0974929
0.0972442
0.0971656
0.0969215
0.0968458
0.0965989
0.0965226
0.0962826
0.0962056
0.0959552
0.095877
0.0956272
0.095556
0.095307
0.0952306
0.094982
0.0949097
0.0946513
0.0945738
0.0943194
0.0942489
0.0939881
0.0939061
0.0936572
0.0935731
0.093328
0.093255
0.0929989
0.0929298
0.0926858
0.0926041
0.0923547
0.0922846
0.0920288
0.0919536
0.0917047
0.0916275
0.0913843
0.0913096
0.0910518
0.0909802
0.0907217
0.0906453
0.0903988
0.0903244
0.090066
0.0899871
0.0897384
0.0896631
0.089412
0.0893356
0.0890919
0.0890126
0.0887651
0.0886981
0.0884545
0.0883894
0.0881394
0.0880548
0.0878163
0.0877452
0.0874966
0.0874188
0.0871686
0.0870969
0.10866
0.108593
0.108327
0.108252
0.108
0.107914
0.107651
0.107575
0.107323
0.107261
0.107014
0.106936
0.106689
0.106613
0.106366
0.106292
0.106041
0.105973
0.105726
0.105652
0.105414
0.105331
0.105075
0.105003
0.104738
0.104659
0.104411
0.104346
0.104091
0.104002
0.103758
0.103676
0.103421
0.10334
0.10309
0.103023
0.102763
0.102691
0.102435
0.102356
0.102099
0.102027
0.101774
0.101698
0.101453
0.101381
0.10112
0.101054
0.100799
0.100724
0.100476
0.100397
0.100147
0.100071
0.0998149
0.0997492
0.0994959
0.0994206
0.0991713
0.0991033
0.0988587
0.0987809
0.0985411
0.0984731
0.0982198
0.0981398
0.0979038
0.0978233
0.0975637
0.0974974
0.0972407
0.0971596
0.0969223
0.0968485
0.0965976
0.096529
0.0962784
0.0961986
0.0959576
0.0958823
0.0956281
0.0955545
0.0953028
0.0952313
0.0949804
0.094909
0.0946543
0.0945751
0.0943234
0.094249
0.0939866
0.0939171
0.0936591
0.093581
0.0933369
0.0932569
0.0930063
0.0929343
0.0926866
0.092616
0.0923597
0.0922742
0.0920285
0.0919528
0.0916996
0.0916258
0.0913806
0.0913022
0.0910508
0.0909713
0.0907177
0.0906422
0.0903964
0.090318
0.09007
0.0899984
0.089741
0.0896607
0.0894057
0.0893277
0.0890777
0.0890064
0.0887695
0.088693
0.0884411
0.0883821
0.0881354
0.0880616
0.0878136
0.0877423
0.0874951
0.0874159
0.0871677
0.0870886
0.108664
0.108576
0.10832
0.108254
0.107989
0.107904
0.107655
0.107578
0.107329
0.107257
0.107007
0.106935
0.10669
0.106616
0.10637
0.106296
0.106049
0.105975
0.105727
0.105661
0.105409
0.10533
0.105076
0.104993
0.10474
0.104664
0.104405
0.104334
0.104074
0.103997
0.10375
0.103672
0.103424
0.103355
0.103096
0.103021
0.102766
0.102691
0.102436
0.102346
0.102105
0.102024
0.101772
0.101705
0.101455
0.101374
0.101131
0.101052
0.100798
0.100733
0.10047
0.100397
0.100145
0.100067
0.0998225
0.0997477
0.0994952
0.0994228
0.099171
0.099107
0.098861
0.0987855
0.0985448
0.0984673
0.0982169
0.0981509
0.0979034
0.0978141
0.0975635
0.0974872
0.0972368
0.0971687
0.0969236
0.0968423
0.0966016
0.0965289
0.0962735
0.0962009
0.0959533
0.0958739
0.0956313
0.0955564
0.095306
0.0952302
0.0949772
0.0949052
0.0946564
0.09458
0.0943323
0.0942583
0.0939933
0.0939333
0.0936556
0.0935798
0.0933286
0.0932504
0.09301
0.092935
0.0926868
0.0926056
0.0923513
0.0922799
0.0920251
0.0919444
0.0916966
0.0916268
0.0913754
0.0912939
0.0910496
0.0909745
0.0907172
0.0906439
0.0903849
0.0903123
0.0900664
0.0899941
0.0897395
0.0896593
0.0894076
0.0893229
0.0890805
0.0890116
0.0887644
0.0887027
0.0884509
0.0883773
0.0881303
0.0880549
0.0878165
0.0877371
0.0874921
0.0874228
0.0871688
0.0870927
0.108659
0.108579
0.108325
0.108245
0.107982
0.10791
0.10765
0.107568
0.107328
0.10725
0.107004
0.106939
0.106691
0.10661
0.106369
0.106298
0.106051
0.105975
0.105729
0.105656
0.105401
0.105319
0.105069
0.104982
0.104739
0.104662
0.104404
0.104321
0.104068
0.103999
0.103745
0.103666
0.103429
0.10335
0.103093
0.10302
0.102758
0.102687
0.102424
0.102346
0.102102
0.102019
0.101777
0.101699
0.101449
0.101381
0.101123
0.101049
0.100795
0.100722
0.100476
0.100405
0.100155
0.100088
0.0998281
0.0997534
0.0995062
0.0994264
0.0991756
0.0990953
0.0988539
0.0987862
0.0985403
0.0984572
0.0982091
0.0981373
0.0978823
0.0978
0.0975535
0.0974714
0.0972345
0.0971712
0.0969168
0.0968433
0.096598
0.0965206
0.0962719
0.096204
0.0959482
0.0958721
0.0956307
0.0955611
0.0953113
0.0952359
0.094983
0.0949052
0.0946594
0.094587
0.0943311
0.0942561
0.0939978
0.0939226
0.0936584
0.0935866
0.093331
0.0932565
0.0930154
0.0929382
0.0926848
0.0926086
0.0923557
0.0922799
0.0920221
0.0919461
0.0917041
0.0916285
0.0913715
0.0913029
0.0910523
0.0909758
0.0907253
0.0906522
0.0904
0.0903195
0.0900704
0.090002
0.0897358
0.0896611
0.0894038
0.0893248
0.0890858
0.0890067
0.0887697
0.0887038
0.0884524
0.088384
0.0881262
0.0880628
0.0878117
0.0877386
0.0874932
0.087422
0.0871714
0.0870949
0.10866
0.108587
0.108326
0.108248
0.107989
0.107911
0.107643
0.107571
0.107324
0.107255
0.107006
0.106941
0.106689
0.106612
0.106366
0.10629
0.106044
0.10597
0.10573
0.105642
0.105392
0.105319
0.105056
0.104976
0.104728
0.104651
0.104396
0.104324
0.10408
0.104007
0.103746
0.103675
0.103425
0.103344
0.103092
0.103013
0.10275
0.102672
0.10242
0.102339
0.102092
0.102028
0.101774
0.101694
0.101459
0.101377
0.101127
0.101059
0.100801
0.100726
0.100481
0.100413
0.100157
0.10009
0.0998292
0.099748
0.099506
0.0994339
0.099175
0.099095
0.0988563
0.0987778
0.0985271
0.0984532
0.0981975
0.0981132
0.0978662
0.0977954
0.0975497
0.0974719
0.0972368
0.0971617
0.0969132
0.0968507
0.0965948
0.0965198
0.0962787
0.0962051
0.0959561
0.0958843
0.0956392
0.0955647
0.0953027
0.0952346
0.0949839
0.094911
0.0946658
0.0945885
0.0943417
0.0942583
0.0939961
0.0939188
0.09366
0.0935889
0.0933348
0.0932551
0.0930088
0.0929322
0.0926835
0.092608
0.092351
0.0922756
0.0920198
0.0919575
0.0917036
0.0916247
0.0913766
0.0913036
0.0910483
0.0909743
0.090721
0.0906377
0.0903955
0.0903154
0.0900734
0.0899905
0.0897347
0.0896709
0.0894004
0.0893214
0.0890856
0.0890114
0.0887703
0.0886929
0.0884468
0.0883757
0.0881302
0.0880577
0.0878168
0.0877454
0.0874989
0.0874263
0.0871756
0.0871025
0.108669
0.10859
0.10833
0.108252
0.107993
0.107915
0.107653
0.107581
0.107328
0.10726
0.107009
0.106929
0.106683
0.106608
0.106363
0.106288
0.106043
0.105975
0.105725
0.105643
0.105396
0.105316
0.105057
0.104984
0.104731
0.104651
0.104403
0.104337
0.104083
0.104007
0.103747
0.103677
0.103415
0.103332
0.103093
0.103015
0.102752
0.102683
0.102424
0.102345
0.102098
0.102025
0.101768
0.101701
0.101452
0.101373
0.101138
0.101063
0.100806
0.100741
0.10049
0.100408
0.10016
0.100092
0.0998337
0.0997596
0.0995081
0.0994277
0.099171
0.0991036
0.0988541
0.0987721
0.0985286
0.0984462
0.0981931
0.0981176
0.0978593
0.0977905
0.0975441
0.0974718
0.0972298
0.0971556
0.0969119
0.0968361
0.0965922
0.0965288
0.0962782
0.0962043
0.095961
0.0958841
0.095639
0.0955587
0.0952984
0.0952257
0.094979
0.0949072
0.0946531
0.0945762
0.0943347
0.0942479
0.0939977
0.0939186
0.0936657
0.0935965
0.0933336
0.0932711
0.0930072
0.0929302
0.0926846
0.0926083
0.092349
0.0922731
0.092026
0.0919566
0.0917009
0.0916295
0.0913814
0.0912993
0.0910471
0.0909736
0.0907146
0.0906461
0.0903965
0.0903271
0.090068
0.0899862
0.0897269
0.0896623
0.089403
0.089337
0.0890901
0.089018
0.08877
0.0886967
0.088456
0.0883786
0.08813
0.0880579
0.0878163
0.087746
0.0874947
0.0874235
0.0871733
0.0871094
0.108666
0.108584
0.108327
0.108251
0.107993
0.107913
0.107661
0.107588
0.107335
0.107263
0.107001
0.10693
0.106683
0.10661
0.106356
0.106283
0.106046
0.105974
0.105718
0.105644
0.105391
0.105304
0.105053
0.104979
0.104728
0.104648
0.104416
0.104345
0.104087
0.104016
0.103752
0.103671
0.103414
0.103349
0.10309
0.103008
0.102759
0.102681
0.102423
0.102346
0.102097
0.10202
0.101776
0.101704
0.101455
0.101385
0.101142
0.101065
0.100821
0.100743
0.100488
0.100419
0.100166
0.100083
0.0998339
0.0997622
0.0995084
0.0994285
0.0991809
0.0991041
0.0988471
0.0987768
0.098522
0.0984461
0.0981957
0.0981163
0.0978601
0.0977881
0.097545
0.0974705
0.0972344
0.0971677
0.0969207
0.0968501
0.0966064
0.0965351
0.0962828
0.0962105
0.0959564
0.0958838
0.0956302
0.0955446
0.0952987
0.0952168
0.0949702
0.0948975
0.0946444
0.0945874
0.0943222
0.0942445
0.0939978
0.0939205
0.0936731
0.0935958
0.0933398
0.0932708
0.0930098
0.0929433
0.0926883
0.0926059
0.0923531
0.0922738
0.0920288
0.0919486
0.0917021
0.0916257
0.0913713
0.091297
0.0910491
0.0909678
0.0907205
0.0906583
0.0904041
0.090325
0.0900677
0.089994
0.0897391
0.0896566
0.089407
0.0893497
0.0891021
0.0890236
0.0887756
0.0887014
0.0884586
0.0883857
0.0881339
0.0880637
0.0878231
0.0877533
0.0875083
0.0874339
0.0871886
0.0871182
0.108667
0.108592
0.108333
0.108252
0.107992
0.107922
0.107662
0.107587
0.107335
0.107253
0.107001
0.10693
0.106681
0.106602
0.10636
0.10629
0.106048
0.105979
0.105721
0.105653
0.10539
0.10531
0.105055
0.104975
0.104724
0.104656
0.104424
0.104345
0.104091
0.104023
0.103756
0.103672
0.103417
0.103341
0.10308
0.103009
0.102755
0.102672
0.102418
0.102337
0.102094
0.102025
0.101772
0.101703
0.101456
0.101394
0.101145
0.101077
0.10083
0.100753
0.100498
0.100421
0.100168
0.100089
0.0998323
0.0997569
0.099506
0.0994343
0.0991817
0.0990991
0.0988473
0.0987714
0.0985158
0.0984341
0.0981934
0.0981135
0.0978671
0.0977907
0.0975443
0.097469
0.0972381
0.0971639
0.0969227
0.0968541
0.0966099
0.0965349
0.0962858
0.0962114
0.0959545
0.0958739
0.0956232
0.0955499
0.095292
0.0952159
0.0949618
0.0948871
0.094641
0.0945773
0.0943169
0.0942503
0.0940007
0.0939192
0.0936734
0.0935963
0.093346
0.0932676
0.09301
0.0929398
0.0926861
0.0926089
0.092355
0.0922787
0.0920243
0.0919508
0.0917052
0.091625
0.0913741
0.0913045
0.0910453
0.0909712
0.0907176
0.0906412
0.0903974
0.0903205
0.0900704
0.0899856
0.0897303
0.0896631
0.0894109
0.0893413
0.0890892
0.0890278
0.088778
0.0886987
0.0884567
0.0883858
0.088142
0.0880684
0.0878304
0.0877657
0.0875147
0.0874462
0.0871915
0.0871064
0.108662
0.10859
0.108329
0.108246
0.107993
0.107917
0.10766
0.10759
0.107332
0.10726
0.107006
0.106929
0.106683
0.106613
0.106365
0.106292
0.106048
0.105973
0.105722
0.105645
0.105387
0.105313
0.105053
0.104976
0.104727
0.104667
0.104423
0.104342
0.104092
0.104022
0.103753
0.103672
0.10342
0.103341
0.103082
0.103007
0.102751
0.10268
0.102424
0.102349
0.1021
0.102024
0.101781
0.10172
0.10147
0.101397
0.101149
0.101072
0.100821
0.100742
0.100492
0.100421
0.100163
0.100088
0.0998327
0.099751
0.0995078
0.0994337
0.0991724
0.0990961
0.0988434
0.0987591
0.0985057
0.0984327
0.0981839
0.0981086
0.0978628
0.097786
0.0975434
0.0974726
0.0972494
0.0971777
0.0969279
0.0968563
0.0966031
0.0965237
0.0962824
0.0962061
0.0959504
0.0958787
0.0956218
0.095546
0.0952957
0.0952183
0.0949673
0.0949016
0.0946554
0.0945705
0.0943175
0.0942599
0.0939986
0.0939141
0.0936721
0.0935993
0.0933538
0.0932758
0.0930215
0.0929439
0.0926877
0.0926155
0.0923553
0.0922789
0.0920268
0.0919551
0.0917063
0.0916279
0.0913754
0.0912979
0.0910465
0.0909711
0.0907202
0.0906431
0.0903947
0.090327
0.090068
0.0899893
0.0897446
0.0896673
0.0894197
0.0893487
0.089097
0.0890199
0.0887717
0.0886992
0.0884621
0.0883881
0.0881447
0.0880764
0.0878362
0.0877672
0.0875232
0.0874513
0.0871933
0.0871221
0.10866
0.108578
0.108323
0.108242
0.107993
0.107915
0.107665
0.107597
0.107334
0.107262
0.107005
0.106927
0.106681
0.106608
0.106365
0.106286
0.106043
0.10597
0.105719
0.105642
0.10539
0.105315
0.105062
0.104993
0.104738
0.104666
0.104418
0.104341
0.104097
0.104015
0.10375
0.103679
0.103418
0.103333
0.103086
0.103009
0.102752
0.10268
0.102422
0.102352
0.102103
0.102031
0.101791
0.101709
0.101471
0.101399
0.10116
0.101082
0.100822
0.100749
0.100494
0.100417
0.100161
0.100086
0.0998291
0.0997554
0.0995027
0.0994206
0.0991696
0.0991006
0.0988347
0.0987492
0.0985051
0.09843
0.0981787
0.0981078
0.0978623
0.0977938
0.0975455
0.0974782
0.0972429
0.0971669
0.0969246
0.0968435
0.0966065
0.0965354
0.0962886
0.0962041
0.0959574
0.0958765
0.0956183
0.0955471
0.0952927
0.0952169
0.094974
0.0948997
0.0946446
0.094574
0.0943204
0.0942465
0.0939946
0.0939243
0.0936757
0.0935978
0.0933445
0.0932733
0.0930239
0.0929372
0.0926895
0.0926109
0.0923534
0.0922776
0.0920294
0.0919539
0.0917046
0.0916284
0.0913791
0.0912979
0.0910441
0.0909745
0.0907225
0.0906434
0.0904011
0.0903308
0.0900634
0.0899945
0.0897423
0.0896648
0.0894242
0.0893484
0.0890984
0.0890261
0.088781
0.0887166
0.0884627
0.0883855
0.088149
0.0880764
0.0878409
0.0877723
0.0875266
0.0874481
0.0872009
0.108658
0.108574
0.108319
0.108247
0.10799
0.107906
0.107667
0.107591
0.107334
0.107276
0.10701
0.106936
0.106689
0.106622
0.106372
0.106296
0.106044
0.105968
0.105717
0.105643
0.105393
0.105321
0.105073
0.104994
0.104737
0.104664
0.104419
0.104352
0.104094
0.104009
0.103748
0.103679
0.103415
0.103336
0.103088
0.103013
0.102756
0.102683
0.102425
0.102354
0.102102
0.102032
0.101787
0.101719
0.101473
0.101399
0.101151
0.101078
0.100822
0.100733
0.100487
0.100409
0.100159
0.100079
0.0998302
0.0997547
0.0994925
0.0994184
0.0991682
0.0990919
0.0988278
0.0987609
0.0985022
0.098425
0.0981802
0.098105
0.097863
0.0977899
0.0975526
0.0974833
0.0972435
0.0971736
0.0969241
0.0968512
0.0965978
0.0965353
0.0962805
0.0962058
0.0959564
0.0958715
0.0956199
0.095543
0.0952882
0.095213
0.0949747
0.0949
0.0946467
0.0945685
0.0943192
0.0942388
0.0939979
0.0939346
0.0936789
0.0935956
0.0933476
0.0932756
0.093016
0.0929463
0.0926904
0.0926081
0.0923521
0.0922757
0.0920246
0.0919458
0.091697
0.0916302
0.0913769
0.0912925
0.091045
0.0909658
0.0907213
0.0906505
0.0904069
0.0903246
0.0900713
0.0900047
0.089749
0.0896771
0.0894259
0.0893557
0.0891011
0.0890293
0.0887834
0.0887096
0.0884628
0.088396
0.0881554
0.0880815
0.0878463
0.0877684
0.0875263
0.0874483
0.10865
0.108572
0.108316
0.10824
0.107988
0.107912
0.107666
0.107587
0.107336
0.107253
0.107015
0.106946
0.106695
0.106622
0.106371
0.106298
0.10605
0.105976
0.105725
0.105652
0.105394
0.10532
0.10507
0.104996
0.104737
0.104663
0.1044
0.104349
0.104086
0.104001
0.103745
0.103673
0.103418
0.103342
0.103092
0.103019
0.102761
0.102686
0.102434
0.102363
0.102115
0.102037
0.101791
0.101718
0.101473
0.101405
0.101155
0.101081
0.100817
0.10074
0.100487
0.100403
0.100151
0.100077
0.0998295
0.0997479
0.0994934
0.0994155
0.0991634
0.0990843
0.098836
0.0987644
0.0985096
0.0984333
0.0981793
0.0981097
0.0978675
0.097796
0.0975558
0.0974815
0.0972389
0.0971675
0.0969269
0.0968496
0.0966019
0.0965241
0.0962775
0.0962158
0.0959554
0.0958785
0.0956249
0.0955381
0.0952873
0.0952169
0.0949759
0.0948998
0.0946471
0.094571
0.094326
0.0942515
0.0939962
0.0939309
0.0936783
0.0936134
0.0933561
0.0932746
0.093023
0.0929529
0.092689
0.0926097
0.0923595
0.0922813
0.092024
0.0919483
0.0917012
0.091629
0.0913741