/*--------------------------------*- C++ -*----------------------------------*\
| =========                 |                                                 |
| \\      /  F ield         | OpenFOAM: The Open Source CFD Toolbox           |
|  \\    /   O peration     | Version:  2206                                  |
|   \\  /    A nd           | Website:  www.openfoam.com                      |
|    \\/     M anipulation  |                                                 |
\*---------------------------------------------------------------------------*/
FoamFile
{
    version     2.0;
    format      ascii;
    arch        "LSB;label=32;scalar=64";
    class       volVectorField;
    location    "50";
    object      U;
}
// * * * * * * * * * * * * * * * * * * * * * * * * * * * * * * * * * * * * * //

dimensions      [0 1 -1 0 0 0 0];

internalField   nonuniform List<vector> 
66621
(
(-1.5203e-05 -4.28285e-05 0.081885)
(-6.23037e-05 -4.05978e-07 0.105427)
(-4.7974e-05 -8.24977e-06 0.0816569)
(5.53831e-05 -5.50863e-07 0.117386)
(4.26818e-05 -3.53613e-05 0.107613)
(2.25576e-06 -4.47862e-07 0.129994)
(-2.43109e-05 1.0459e-05 0.0702152)
(-9.81506e-08 5.3198e-05 0.117693)
(2.24276e-06 -3.32001e-06 0.128368)
(-3.14503e-06 -2.45813e-06 0.130294)
(-3.67538e-05 4.00837e-05 0.108014)
(0.000201089 0.000205486 0.124783)
(2.1964e-05 2.71641e-05 0.0955096)
(3.01483e-05 1.90012e-05 0.0958035)
(-1.70538e-05 -2.1667e-05 0.070302)
(-2.48995e-05 -1.07812e-05 0.0701958)
(-0.000203172 -0.000207415 0.124742)
(-2.82366e-05 -1.54739e-05 0.0956947)
(-2.14373e-05 -2.77176e-05 0.0954642)
(4.49518e-06 2.57712e-06 0.128489)
(-3.43731e-05 -3.6384e-05 0.107758)
(2.01647e-05 -2.70416e-05 0.0955063)
(2.22686e-05 -1.05023e-05 0.0702227)
(-5.49132e-05 -6.58762e-07 0.117388)
(-2.60816e-08 2.55677e-06 0.128264)
(-4.37756e-05 -3.48229e-05 0.10761)
(-2.56629e-06 -1.21208e-06 0.130004)
(-6.21592e-05 -1.10386e-07 0.105428)
(-4.75114e-05 8.17409e-06 0.0816761)
(-5.48455e-05 2.43724e-07 0.117384)
(2.32289e-06 -3.60057e-06 0.12824)
(-1.63919e-06 6.95624e-07 0.130014)
(-4.35025e-05 3.37137e-05 0.107602)
(6.19416e-05 7.83126e-08 0.10543)
(4.63772e-05 -8.19625e-06 0.0816812)
(5.53824e-05 8.28901e-08 0.117387)
(-1.98451e-06 -4.02566e-06 0.128246)
(1.68027e-06 8.9343e-07 0.130015)
(4.36829e-05 3.41999e-05 0.107611)
(6.17923e-05 -1.39257e-07 0.105428)
(4.66792e-05 7.64178e-06 0.0816607)
(-0.000201414 0.000205554 0.12478)
(-2.17958e-05 2.6776e-05 0.0954836)
(-3.07733e-05 1.90974e-05 0.0958246)
(-1.33986e-05 2.32844e-05 0.0703841)
(6.28012e-08 5.32358e-05 0.117694)
(-2.76973e-06 -3.56219e-06 0.128373)
(2.01582e-06 -2.38417e-06 0.130296)
(3.65878e-05 4.10679e-05 0.108013)
(1.08519e-07 6.12541e-05 0.106082)
(-1.11589e-05 4.64948e-05 0.0820737)
(1.79273e-07 6.11131e-05 0.106083)
(1.13974e-05 4.66316e-05 0.0820814)
(2.41711e-05 1.0303e-05 0.0702021)
(1.34156e-05 2.33352e-05 0.0703896)
(-4.14797e-06 -4.77972e-05 0.0939877)
(-4.44674e-06 -2.93231e-05 0.0682765)
(2.32212e-05 -4.74476e-07 0.0749972)
(-6.17597e-05 -1.64731e-06 0.102707)
(-2.41971e-05 -6.2645e-07 0.0779404)
(6.306e-05 -5.96303e-07 0.105414)
(6.27531e-05 1.59079e-06 0.102668)
(2.25769e-05 -8.30297e-07 0.0778594)
(-2.45874e-05 -1.27978e-07 0.0750986)
(2.17626e-05 8.94263e-07 0.0680359)
(-5.25802e-05 -4.50663e-06 0.0936783)
(4.70979e-05 7.85337e-06 0.0815208)
(4.99609e-05 4.76481e-06 0.0935909)
(-2.62857e-05 3.3237e-07 0.0681611)
(2.10149e-05 -1.00218e-05 0.070102)
(-2.37944e-05 -2.11207e-05 0.0874661)
(1.31637e-05 1.96719e-05 0.0689995)
(2.26961e-05 1.04207e-05 0.0690498)
(-1.21402e-05 -1.80821e-05 0.0688882)
(-2.03963e-05 -9.88013e-06 0.06893)
(2.36971e-05 2.07539e-05 0.0875476)
(-7.61761e-05 -2.13844e-05 0.104525)
(2.33405e-05 2.03127e-05 0.0808856)
(-2.18167e-05 -2.70854e-05 0.0954327)
(7.1827e-05 2.041e-05 0.113626)
(-7.52558e-05 -2.09926e-05 0.113601)
(-2.3285e-05 -1.85576e-05 0.0807485)
(7.48732e-05 2.24682e-05 0.104616)
(-2.10028e-05 -7.36869e-05 0.104555)
(2.38255e-05 2.09528e-05 0.080945)
(-3.05466e-05 -1.98704e-05 0.0956828)
(1.91979e-05 7.1577e-05 0.113746)
(-2.28576e-05 -7.26451e-05 0.113689)
(-2.10449e-05 -2.13165e-05 0.0807792)
(2.10253e-05 7.32832e-05 0.104659)
(2.01432e-05 1.0327e-05 0.0700831)
(2.28284e-05 1.89559e-05 0.0875155)
(-2.12174e-05 -7.70167e-06 0.0690303)
(-9.36215e-06 -1.95177e-05 0.0689681)
(2.04803e-05 6.99727e-06 0.068945)
(1.02378e-05 1.66388e-05 0.068894)
(-1.97882e-05 -1.9589e-05 0.0874747)
(2.66695e-05 7.2114e-05 0.104684)
(-2.21379e-05 -1.73436e-05 0.0810008)
(-1.85222e-05 -6.79317e-05 0.113678)
(2.15846e-05 1.87104e-05 0.0809232)
(-2.16876e-05 -7.09096e-05 0.104638)
(7.50818e-05 1.89673e-05 0.104512)
(-2.11462e-05 -2.06857e-05 0.0807641)
(2.10231e-05 2.70064e-05 0.0953875)
(-7.11331e-05 -2.10526e-05 0.113581)
(2.14188e-05 1.73711e-05 0.0806398)
(-7.21588e-05 -2.12223e-05 0.104498)
(7.43376e-05 2.01507e-05 0.113573)
(9.08933e-06 -1.84706e-05 0.0689968)
(1.87693e-05 -1.90981e-05 0.087496)
(2.13784e-05 -2.01901e-05 0.0808873)
(7.17572e-05 -2.23045e-05 0.113599)
(7.43452e-05 -2.47532e-05 0.10458)
(2.25461e-05 -1.222e-07 0.0750168)
(-2.37176e-05 6.53658e-08 0.077947)
(-6.20809e-05 1.22146e-06 0.102712)
(6.31277e-05 -4.67816e-07 0.105413)
(2.22334e-05 -2.39172e-07 0.0778657)
(6.10182e-05 -2.16417e-06 0.102673)
(-2.48554e-05 -2.44361e-07 0.0751173)
(2.162e-05 -6.35804e-07 0.0680588)
(-5.20256e-05 4.78584e-06 0.0936887)
(4.65798e-05 -7.64462e-06 0.0815422)
(4.98417e-05 -4.76121e-06 0.0936017)
(-2.6132e-05 -8.35721e-08 0.0681826)
(6.02449e-05 -7.57554e-07 0.102715)
(2.19634e-05 3.20968e-07 0.0779526)
(2.29349e-05 6.65871e-07 0.0751179)
(5.11889e-05 -4.2436e-06 0.0936949)
(2.51326e-05 1.90737e-07 0.0681826)
(2.17492e-05 -2.0458e-07 0.0779459)
(6.13942e-05 8.91027e-07 0.102708)
(2.33322e-05 -5.33002e-07 0.0750999)
(5.107e-05 4.47127e-06 0.093678)
(2.51668e-05 3.30993e-07 0.0681626)
(2.31848e-05 -2.22635e-05 0.0874716)
(-1.40698e-05 1.77029e-05 0.0689882)
(-2.47883e-05 1.00269e-05 0.0690662)
(1.12765e-05 -1.84963e-05 0.0688952)
(1.97531e-05 -1.09516e-05 0.0689271)
(-2.58131e-05 1.9144e-05 0.0875566)
(7.67724e-05 -2.04619e-05 0.104458)
(-2.33899e-05 1.94613e-05 0.080768)
(2.21884e-05 -2.75974e-05 0.0953974)
(-7.17056e-05 1.85397e-05 0.113607)
(2.28902e-05 -1.89861e-05 0.0806564)
(7.61383e-05 -2.09581e-05 0.113572)
(-7.53282e-05 1.9352e-05 0.104566)
(2.21904e-05 -7.3532e-05 0.104623)
(-2.44736e-05 2.12325e-05 0.0810647)
(3.00375e-05 -1.9216e-05 0.0957134)
(-2.1205e-05 7.21336e-05 0.113759)
(2.25783e-05 -7.14403e-05 0.113711)
(1.98836e-05 -2.13911e-05 0.0808752)
(-2.40057e-05 7.32644e-05 0.104715)
(1.25619e-05 -1.88974e-05 0.0702376)
(-2.51321e-07 -2.20436e-05 0.0754299)
(-1.03433e-06 6.0315e-05 0.103393)
(-2.1552e-07 2.16985e-05 0.0784701)
(-5.05677e-07 -6.29398e-05 0.106078)
(2.01761e-06 -6.23454e-05 0.103319)
(-4.15799e-07 -2.09327e-05 0.0783833)
(-2.55186e-07 2.29774e-05 0.0755632)
(1.86091e-06 -2.10104e-05 0.0682324)
(-6.39029e-06 5.13944e-05 0.0943092)
(1.00796e-05 -4.67202e-05 0.081881)
(6.77966e-06 -5.00456e-05 0.0941463)
(-1.15409e-06 2.5293e-05 0.0684116)
(3.7056e-07 -2.19612e-05 0.0754289)
(1.39984e-06 6.00006e-05 0.103394)
(1.04176e-06 2.18444e-05 0.0784704)
(5.16902e-07 -6.34547e-05 0.106079)
(-1.93841e-06 -6.25262e-05 0.103325)
(8.76773e-07 -2.07422e-05 0.0783817)
(8.41189e-07 2.31292e-05 0.0755609)
(-1.45377e-06 -2.09283e-05 0.0682384)
(6.75535e-06 5.14543e-05 0.0943124)
(-9.73953e-06 -4.67978e-05 0.0818916)
(-6.25918e-06 -4.95726e-05 0.0941563)
(1.41775e-06 2.4921e-05 0.0684117)
(-1.23248e-05 -1.96438e-05 0.0702409)
(-3.89134e-06 9.45397e-07 0.132568)
(-1.59989e-06 -1.09395e-07 0.134057)
(-6.84267e-06 1.42537e-06 0.13375)
(-5.00783e-06 3.21507e-06 0.135237)
(3.01378e-06 1.43609e-06 0.132558)
(9.0624e-08 -3.90577e-07 0.134055)
(6.77197e-06 1.78388e-06 0.133746)
(4.07759e-06 3.7297e-06 0.135239)
(-3.90299e-06 8.21498e-07 0.132464)
(-5.17754e-06 -4.94165e-07 0.133737)
(-2.50216e-06 -2.05388e-06 0.133918)
(-3.19855e-06 2.10443e-07 0.135141)
(3.72372e-06 2.46632e-07 0.132465)
(5.08575e-06 -3.05385e-07 0.133735)
(2.13295e-06 -2.43192e-06 0.133916)
(3.07819e-06 7.70543e-07 0.135136)
(-0.000235703 1.10412e-06 0.122495)
(5.67337e-05 -2.10484e-06 0.116267)
(0.000227979 2.88382e-07 0.123103)
(-5.80971e-05 -4.23325e-07 0.117386)
(-6.02588e-05 2.63983e-06 0.116244)
(-0.000225785 -7.7034e-07 0.12306)
(0.000232819 -2.75753e-06 0.122564)
(5.34245e-05 -1.09487e-05 0.113405)
(0.000234266 -1.50384e-05 0.118565)
(0.000245233 -7.50116e-06 0.121259)
(-2.46971e-06 -0.000234611 0.122655)
(1.82786e-06 0.000224846 0.12325)
(-3.89297e-07 5.49152e-05 0.116625)
(-9.22218e-07 -5.75277e-05 0.11771)
(-2.27332e-06 -0.000225343 0.123229)
(2.871e-06 -5.90936e-05 0.116579)
(3.43978e-06 0.000228832 0.122735)
(2.64193e-06 -0.000235821 0.12133)
(-1.04734e-05 5.2197e-05 0.113802)
(3.58222e-05 -4.37882e-05 0.107849)
(-1.06416e-05 0.000232207 0.118759)
(1.23301e-05 -0.000236318 0.118658)
(1.15271e-05 -5.31259e-05 0.113674)
(-1.47844e-06 0.000241614 0.12145)
(-6.79229e-05 -6.73748e-05 0.115185)
(-0.000193842 -0.000193426 0.124653)
(5.6951e-05 0.000203039 0.120768)
(0.000196935 5.79732e-05 0.120783)
(-5.94261e-05 -0.000201793 0.120682)
(-0.000198499 -5.67837e-05 0.120687)
(6.87448e-05 7.04029e-05 0.115294)
(7.13912e-05 6.61456e-05 0.115253)
(0.000197925 0.000194534 0.124694)
(-0.000201453 -5.67923e-05 0.12076)
(-5.47597e-05 -0.000202796 0.120702)
(-6.90689e-05 -6.91675e-05 0.115223)
(0.000208082 5.66375e-05 0.120766)
(5.78086e-05 0.000199817 0.120688)
(-1.07783e-05 -5.02702e-05 0.113483)
(-1.13157e-05 -0.000229045 0.118592)
(-4.0992e-06 -0.000239686 0.121246)
(0.000236431 4.8091e-07 0.122503)
(-5.72893e-05 -2.40087e-06 0.116272)
(-0.000227976 1.31364e-07 0.123106)
(5.82072e-05 -8.64387e-07 0.11739)
(6.03886e-05 2.11243e-06 0.116251)
(0.000225978 -1.0734e-06 0.123064)
(-0.00023375 -2.92196e-06 0.122572)
(0.000240979 3.54617e-06 0.121192)
(-5.43282e-05 -1.08671e-05 0.113409)
(4.5657e-05 3.23058e-05 0.107505)
(-0.000234953 -1.41101e-05 0.118575)
(5.52667e-05 9.30746e-06 0.113352)
(0.000240309 1.09943e-05 0.118517)
(-0.000245901 -7.09829e-06 0.121269)
(0.000231678 -1.18659e-06 0.122491)
(-0.000226946 -4.12029e-07 0.123102)
(-5.80494e-05 2.46212e-06 0.116263)
(5.82313e-05 -5.14817e-07 0.117386)
(0.00022544 6.31417e-07 0.123058)
(5.91396e-05 -2.78267e-06 0.116242)
(-0.000235413 2.24278e-06 0.122564)
(0.000239428 -4.27714e-06 0.121169)
(-5.44428e-05 1.13493e-05 0.113396)
(4.55878e-05 -3.23042e-05 0.107498)
(-0.000231947 1.25914e-05 0.11856)
(5.54808e-05 -9.02947e-06 0.113338)
(-0.000241896 5.97722e-06 0.12125)
(0.000238988 -1.18123e-05 0.118501)
(-0.000232372 -1.01432e-06 0.122497)
(0.000227268 -5.77326e-07 0.123103)
(5.81836e-05 2.32213e-06 0.11627)
(-5.80954e-05 -1.89021e-07 0.117388)
(-0.000225381 8.46239e-07 0.12306)
(-5.93351e-05 -2.47163e-06 0.116249)
(0.000235783 2.33117e-06 0.12257)
(-0.000240255 -4.15471e-06 0.121176)
(5.42852e-05 1.14198e-05 0.113404)
(-4.53828e-05 -3.23794e-05 0.107509)
(0.000232607 1.34096e-05 0.118569)
(-0.000239093 -1.18875e-05 0.118511)
(-5.54927e-05 -8.83144e-06 0.113345)
(0.000242243 6.5137e-06 0.121258)
(6.84435e-05 -6.72811e-05 0.115182)
(0.000193973 -0.000193127 0.12465)
(-5.67973e-05 0.000201424 0.120767)
(-0.000198886 5.85589e-05 0.120779)
(0.0001991 -5.64247e-05 0.120684)
(5.96332e-05 -0.000201075 0.120677)
(-6.92858e-05 6.96663e-05 0.115295)
(1.99109e-06 -0.000234408 0.122658)
(-2.19851e-06 0.000224931 0.123251)
(6.74627e-07 5.55131e-05 0.116626)
(5.48837e-07 -5.75215e-05 0.117712)
(1.7378e-06 -0.000225414 0.12323)
(-2.94382e-06 -5.88144e-05 0.116584)
(-3.97977e-06 0.000228874 0.122736)
(-2.95861e-06 -0.000235539 0.121333)
(1.05343e-05 5.24179e-05 0.113801)
(-3.55076e-05 -4.38383e-05 0.107849)
(9.47122e-06 0.000231489 0.118759)
(-1.22799e-05 -0.000236106 0.118659)
(-1.14271e-05 -5.29668e-05 0.113677)
(5.29876e-07 0.000241282 0.12145)
(-7.88474e-06 -1.72959e-05 0.048426)
(-4.41182e-06 -7.62475e-06 0.0328766)
(-2.29312e-06 -2.84755e-06 0.0204935)
(-1.02512e-06 -7.67075e-07 0.0108029)
(-3.5002e-07 -1.45285e-07 0.00328093)
(-1.67233e-05 -4.13646e-06 0.0484152)
(-7.96455e-06 -2.2826e-06 0.0328715)
(-3.32486e-06 -1.13121e-06 0.02049)
(-9.89089e-07 -4.27352e-07 0.0108003)
(-1.52933e-07 -1.64152e-07 0.00327997)
(-1.20849e-05 5.90131e-06 0.0500578)
(-5.89336e-06 2.89566e-06 0.0342289)
(-2.61e-06 1.26489e-06 0.0214875)
(-1.04537e-06 4.22678e-07 0.0114032)
(-1.09598e-07 1.31504e-07 0.00348888)
(-1.03304e-05 -1.1256e-05 0.0500472)
(-5.52544e-06 -4.87845e-06 0.0342213)
(-2.71469e-06 -1.7319e-06 0.021483)
(-1.11352e-06 -4.44511e-07 0.0114015)
(-3.20751e-07 -1.08576e-08 0.00348879)
(-1.23525e-05 -6.09937e-06 0.0500426)
(-5.92193e-06 -3.04002e-06 0.0342181)
(-2.56194e-06 -1.3592e-06 0.0214804)
(-9.53222e-07 -4.64128e-07 0.0113991)
(-1.16779e-07 -1.48198e-07 0.00348759)
(1.11373e-05 -5.70409e-06 0.0500635)
(5.40441e-06 -2.76012e-06 0.034233)
(2.294e-06 -1.24581e-06 0.0214902)
(7.69916e-07 -4.55056e-07 0.0114048)
(1.12521e-07 -1.5103e-07 0.00348958)
(-1.63246e-05 4.12483e-06 0.0484327)
(-7.69926e-06 2.32804e-06 0.0328836)
(-3.17071e-06 1.22143e-06 0.0204976)
(-9.62495e-07 5.5466e-07 0.0108041)
(-1.25029e-07 1.68974e-07 0.00328093)
(1.5735e-05 -4.12644e-06 0.0484326)
(7.45538e-06 -2.37599e-06 0.0328835)
(3.09666e-06 -1.27848e-06 0.0204977)
(9.44146e-07 -5.74854e-07 0.0108046)
(1.60318e-07 -2.21818e-07 0.00328132)
(1.58411e-05 3.89112e-06 0.0484184)
(7.49222e-06 2.13717e-06 0.0328737)
(3.07339e-06 1.04432e-06 0.020492)
(8.40174e-07 3.93894e-07 0.010802)
(1.67163e-07 1.42614e-07 0.00328068)
(-8.37026e-06 1.11452e-05 0.0500273)
(-4.63706e-06 5.11181e-06 0.0342086)
(-2.26798e-06 2.06871e-06 0.0214752)
(-8.92571e-07 7.08371e-07 0.0113969)
(-2.46469e-07 5.35699e-08 0.00348726)
(-6.40048e-06 1.53297e-05 0.0483914)
(-3.99859e-06 7.11737e-06 0.0328564)
(-2.25479e-06 2.84224e-06 0.0204812)
(-1.06698e-06 7.73649e-07 0.010796)
(-3.48398e-07 1.02411e-07 0.00327882)
(6.9131e-06 1.52878e-05 0.0483967)
(4.5172e-06 7.02348e-06 0.0328597)
(2.69685e-06 2.74348e-06 0.0204834)
(1.38541e-06 7.24841e-07 0.010797)
(4.27614e-07 7.95556e-08 0.00327897)
(1.1923e-05 5.67434e-06 0.0500479)
(5.89692e-06 2.70168e-06 0.034222)
(2.63643e-06 1.07082e-06 0.0214834)
(1.01216e-06 2.91247e-07 0.0114012)
(1.64055e-07 5.04299e-08 0.00348831)
(8.51812e-06 1.08921e-05 0.0500312)
(4.85829e-06 4.84853e-06 0.0342109)
(2.529e-06 1.83556e-06 0.0214763)
(1.09784e-06 5.33707e-07 0.0113972)
(3.31824e-07 9.68751e-09 0.00348706)
(1.20398e-05 -1.58078e-06 0.0486289)
(6.36669e-06 -1.60949e-06 0.0331379)
(2.90672e-06 -1.39005e-06 0.0207238)
(1.02359e-06 -9.89522e-07 0.0109561)
(2.37988e-07 -3.02621e-07 0.00333779)
(-1.39671e-05 6.98762e-08 0.0491224)
(-6.7839e-06 3.65683e-07 0.0335196)
(-2.92291e-06 3.85651e-07 0.0209964)
(-1.02018e-06 2.49888e-07 0.0111193)
(-1.67734e-07 1.37222e-07 0.00339428)
(1.04468e-05 -1.1735e-06 0.0490513)
(5.2327e-06 -1.08611e-06 0.0334718)
(2.3522e-06 -9.05077e-07 0.0209685)
(8.58097e-07 -6.48182e-07 0.0111055)
(1.79779e-07 -1.75039e-07 0.00339045)
(-1.35052e-05 1.50815e-06 0.0487094)
(-6.74715e-06 1.83369e-06 0.0331895)
(-3.0252e-06 1.54266e-06 0.0207536)
(-1.09864e-06 9.69824e-07 0.0109707)
(-2.19636e-07 4.02905e-07 0.0033419)
(1.34807e-05 3.70733e-06 0.0483072)
(6.52561e-06 2.43698e-06 0.0327993)
(2.73997e-06 1.48635e-06 0.0204476)
(7.21372e-07 7.79076e-07 0.0107793)
(1.55032e-07 2.10364e-07 0.00327391)
(9.92052e-06 -5.54834e-06 0.049968)
(4.9883e-06 -2.94856e-06 0.0341702)
(2.17933e-06 -1.51767e-06 0.0214532)
(6.88241e-07 -7.61188e-07 0.0113862)
(1.67647e-07 -1.09705e-07 0.003484)
(1.3799e-05 9.21546e-06 0.0486309)
(6.82457e-06 4.09268e-06 0.0330223)
(2.98604e-06 1.39974e-06 0.0205878)
(1.08803e-06 1.6449e-07 0.0108541)
(1.92531e-07 2.69687e-08 0.00329707)
(-1.1777e-05 -7.56038e-06 0.0485269)
(-6.00243e-06 -3.26084e-06 0.0329534)
(-2.73676e-06 -1.11017e-06 0.0205475)
(-9.62559e-07 -2.19276e-07 0.0108342)
(-3.0374e-07 6.71992e-08 0.00329136)
(1.21329e-05 1.20706e-05 0.0486169)
(6.37449e-06 5.53006e-06 0.033013)
(2.94823e-06 2.13256e-06 0.0205821)
(1.05453e-06 6.66368e-07 0.0108512)
(3.11673e-07 3.72514e-08 0.00329624)
(-9.60947e-06 -1.04679e-05 0.0484974)
(-4.8504e-06 -5.06611e-06 0.0329341)
(-2.21119e-06 -2.10883e-06 0.0205358)
(-8.94897e-07 -6.19031e-07 0.0108281)
(-1.09581e-07 -1.96409e-07 0.00328955)
(9.30831e-06 5.69628e-06 0.0499526)
(4.63162e-06 3.06508e-06 0.0341592)
(1.98442e-06 1.61651e-06 0.0214459)
(5.7174e-07 8.24342e-07 0.0113819)
(1.53571e-07 1.36061e-07 0.00348266)
(4.97031e-06 -9.69397e-06 0.0500707)
(2.29007e-06 -4.83916e-06 0.0342005)
(8.87901e-07 -2.13634e-06 0.0214432)
(2.9016e-07 -7.28194e-07 0.0113657)
(1.11006e-08 -1.84628e-07 0.00347275)
(1.15947e-05 -8.03833e-06 0.0486458)
(5.67503e-06 -3.50559e-06 0.033031)
(2.49806e-06 -1.29052e-06 0.0205932)
(9.2251e-07 -2.6251e-07 0.0108573)
(1.65081e-07 -1.04927e-07 0.0032981)
(1.16662e-05 1.16771e-06 0.048644)
(6.1348e-06 1.37276e-06 0.0331478)
(2.78894e-06 1.29552e-06 0.02073)
(1.00197e-06 9.77224e-07 0.0109595)
(2.20133e-07 2.93044e-07 0.00333882)
(-1.38346e-05 -3.51739e-07 0.0491261)
(-6.662e-06 -4.55614e-07 0.0335222)
(-2.84492e-06 -3.6442e-07 0.0209981)
(-9.567e-07 -2.18364e-07 0.0111202)
(-1.75688e-07 -8.73824e-08 0.00339454)
(1.04233e-05 3.26813e-07 0.0490557)
(5.16274e-06 4.84505e-07 0.0334749)
(2.30497e-06 5.16052e-07 0.0209702)
(8.36974e-07 4.15642e-07 0.0111063)
(1.84481e-07 1.29901e-07 0.00339071)
(-1.35739e-05 -1.75279e-06 0.0487232)
(-6.76862e-06 -1.95145e-06 0.0331985)
(-3.03675e-06 -1.56913e-06 0.0207591)
(-1.08461e-06 -9.4343e-07 0.0109737)
(-2.25969e-07 -4.11612e-07 0.00334278)
(1.34327e-05 -3.67597e-06 0.0483274)
(6.50787e-06 -2.39968e-06 0.0328135)
(2.76907e-06 -1.44084e-06 0.0204565)
(7.83038e-07 -7.2973e-07 0.0107838)
(1.68823e-07 -2.21032e-07 0.00327507)
(1.24274e-05 6.83992e-07 0.049131)
(6.00989e-06 7.95764e-07 0.0335245)
(2.56024e-06 6.79532e-07 0.0209994)
(8.10787e-07 4.48578e-07 0.0111208)
(2.01074e-07 1.58976e-07 0.00339446)
(1.32896e-05 1.91661e-06 0.0487221)
(6.65436e-06 2.12059e-06 0.0331984)
(2.96742e-06 1.73908e-06 0.0207593)
(1.0616e-06 1.08876e-06 0.0109735)
(2.54714e-07 4.18697e-07 0.00334256)
(1.23444e-05 -4.71609e-07 0.0491257)
(5.97595e-06 -5.71529e-07 0.0335208)
(2.59019e-06 -4.942e-07 0.0209966)
(9.50323e-07 -3.30335e-07 0.0111191)
(1.70836e-07 -1.06035e-07 0.00339401)
(1.35204e-05 -1.81401e-06 0.0487115)
(6.73081e-06 -2.04698e-06 0.0331918)
(2.95454e-06 -1.70513e-06 0.0207552)
(9.66419e-07 -1.10037e-06 0.0109714)
(2.585e-07 -4.00273e-07 0.00334204)
(-1.53654e-05 6.36102e-06 0.0500752)
(-8.78413e-06 2.15396e-06 0.0341998)
(-4.78758e-06 8.36913e-08 0.0214414)
(-2.21596e-06 -5.61887e-07 0.0113647)
(-6.72883e-07 -3.16354e-07 0.00347245)
(-1.35183e-05 1.37655e-05 0.0486249)
(-7.02536e-06 6.34393e-06 0.0330166)
(-3.11913e-06 2.45359e-06 0.0205843)
(-1.02691e-06 7.78499e-07 0.0108528)
(-2.73445e-07 6.0215e-08 0.00329701)
(9.16814e-06 -1.11318e-05 0.0484973)
(4.40327e-06 -5.48802e-06 0.0329343)
(1.87453e-06 -2.39421e-06 0.0205363)
(6.88802e-07 -7.81014e-07 0.0108289)
(4.06628e-08 -2.40104e-07 0.0032901)
(7.58794e-06 -8.07926e-06 0.0499148)
(4.43496e-06 -3.702e-06 0.034134)
(2.49535e-06 -1.40628e-06 0.0214309)
(1.29249e-06 -2.80218e-07 0.0113746)
(2.81221e-07 -7.82254e-08 0.00348067)
(-1.25041e-06 -1.09647e-05 0.0485978)
(-1.50134e-06 -5.76069e-06 0.0331156)
(-1.4549e-06 -2.64875e-06 0.0207096)
(-1.09503e-06 -9.12507e-07 0.0109484)
(-3.72849e-07 -2.54833e-07 0.00333534)
(1.76419e-07 1.20111e-05 0.0491117)
(3.88755e-07 5.86385e-06 0.0335148)
(3.92961e-07 2.5505e-06 0.020994)
(2.60772e-07 9.36789e-07 0.011118)
(1.23268e-07 1.78745e-07 0.00339393)
(-7.35196e-07 -8.9575e-06 0.0490273)
(-7.92945e-07 -4.43335e-06 0.0334543)
(-7.57778e-07 -2.02069e-06 0.020957)
(-5.93853e-07 -7.80142e-07 0.0110991)
(-1.71125e-07 -1.62644e-07 0.00338837)
(1.00129e-06 1.2082e-05 0.0487009)
(1.43523e-06 6.09023e-06 0.0331851)
(1.37348e-06 2.75974e-06 0.0207513)
(9.64037e-07 1.00373e-06 0.0109695)
(3.91773e-07 2.49278e-07 0.0033416)
(5.70319e-06 -1.26242e-05 0.0482544)
(3.96461e-06 -5.87822e-06 0.0327651)
(2.49689e-06 -2.35353e-06 0.020427)
(1.32049e-06 -5.5829e-07 0.0107689)
(4.04235e-07 -8.92816e-08 0.0032708)
(1.55191e-06 -1.11199e-05 0.0485965)
(1.80124e-06 -5.88097e-06 0.0331152)
(1.66236e-06 -2.74716e-06 0.0207099)
(1.15859e-06 -1.08359e-06 0.0109487)
(4.47159e-07 -2.23488e-07 0.00333533)
(5.36556e-07 1.18679e-05 0.0491111)
(2.04811e-07 5.74459e-06 0.0335144)
(8.02651e-09 2.43687e-06 0.0209943)
(-8.59102e-08 7.96926e-07 0.0111183)
(-1.90453e-08 2.02811e-07 0.00339397)
(1.16534e-06 -9.12986e-06 0.0490259)
(1.16004e-06 -4.49776e-06 0.0334532)
(9.76337e-07 -2.04835e-06 0.0209566)
(6.35779e-07 -7.43265e-07 0.0110991)
(2.53556e-07 -1.93039e-07 0.00338825)
(-3.87452e-07 1.19068e-05 0.0486988)
(-8.99118e-07 5.99308e-06 0.033184)
(-9.88972e-07 2.70832e-06 0.0207509)
(-7.5743e-07 9.8701e-07 0.0109694)
(-2.93488e-07 2.43617e-07 0.00334144)
(-5.25217e-06 -1.29013e-05 0.0482606)
(-3.5442e-06 -6.16784e-06 0.032769)
(-2.14486e-06 -2.58194e-06 0.0204296)
(-1.08101e-06 -7.15264e-07 0.0107701)
(-3.30754e-07 -1.22857e-07 0.00327103)
(-7.39203e-06 -8.49718e-06 0.0499175)
(-4.3003e-06 -3.96095e-06 0.0341355)
(-2.39928e-06 -1.54682e-06 0.0214315)
(-1.21189e-06 -3.20274e-07 0.0113747)
(-2.68146e-07 -8.85e-08 0.00348041)
(8.12829e-06 1.085e-05 0.0500693)
(3.88043e-06 5.6152e-06 0.0341976)
(1.46849e-06 2.71909e-06 0.0214406)
(3.74543e-07 1.12478e-06 0.0113642)
(-1.92983e-08 3.00615e-07 0.00347205)
(1.34584e-05 5.80743e-06 0.0500691)
(7.57789e-06 2.09589e-06 0.0341969)
(4.01401e-06 2.49963e-07 0.0214401)
(1.80778e-06 -3.48749e-07 0.0113637)
(5.32965e-07 -2.32632e-07 0.00347192)
(-3.11749e-06 -1.8295e-05 0.0500837)
(-1.40513e-06 -8.52884e-06 0.0342525)
(-4.6756e-07 -3.4919e-06 0.0215044)
(-7.12039e-08 -1.13362e-06 0.0114127)
(1.31667e-08 -2.24008e-07 0.00349194)
(1.43628e-05 -4.41942e-07 0.0499635)
(7.71895e-06 -9.79586e-07 0.0341732)
(3.60589e-06 -1.07744e-06 0.0214565)
(1.33862e-06 -8.49265e-07 0.011388)
(3.05819e-07 -2.74821e-07 0.00348465)
(-1.67606e-05 1.52992e-06 0.0500664)
(-8.73547e-06 1.99819e-06 0.0342406)
(-4.06533e-06 1.84823e-06 0.0214962)
(-1.53558e-06 1.29033e-06 0.0114079)
(-3.31056e-07 4.59953e-07 0.00349036)
(-7.97187e-06 9.13463e-06 0.0500653)
(-4.08819e-06 4.552e-06 0.0341949)
(-1.80798e-06 1.99164e-06 0.0214389)
(-6.76011e-07 6.77843e-07 0.0113633)
(-8.34635e-08 1.64889e-07 0.0034719)
(-1.22392e-05 7.96539e-06 0.0486248)
(-6.08297e-06 3.57224e-06 0.0330196)
(-2.71656e-06 1.29898e-06 0.0205868)
(-1.02245e-06 1.94716e-07 0.010854)
(-1.57299e-07 8.49996e-08 0.00329713)
(1.11809e-05 -7.76656e-06 0.0485316)
(5.63446e-06 -3.56752e-06 0.0329561)
(2.48653e-06 -1.39854e-06 0.0205492)
(8.29709e-07 -4.5829e-07 0.0108353)
(2.57155e-07 2.1548e-08 0.00329179)
(-7.37831e-06 -1.0301e-05 0.0499796)
(-3.66354e-06 -5.48872e-06 0.0341387)
(-1.41382e-06 -2.68985e-06 0.0214061)
(-3.02216e-07 -1.16952e-06 0.011347)
(-5.62929e-08 -2.44207e-07 0.00346723)
(-1.21208e-05 -5.61054e-06 0.0499744)
(-6.8319e-06 -2.37901e-06 0.0341348)
(-3.59388e-06 -5.64711e-07 0.0214036)
(-1.67879e-06 1.73224e-07 0.0113455)
(-4.1444e-07 9.56974e-08 0.00346674)
(-1.1956e-05 -5.0608e-06 0.0500529)
(-6.41486e-06 -1.98268e-06 0.0341874)
(-3.23594e-06 -3.64313e-07 0.0214346)
(-1.42121e-06 2.03974e-07 0.0113608)
(-3.76296e-07 1.39252e-07 0.00347087)
(-1.16887e-05 -1.14801e-05 0.0486159)
(-6.09362e-06 -5.09749e-06 0.0330132)
(-2.83644e-06 -1.83858e-06 0.0205829)
(-1.06278e-06 -4.65069e-07 0.0108521)
(-3.14021e-07 -6.51604e-08 0.00329665)
(9.84715e-06 8.72003e-06 0.0485145)
(5.12788e-06 4.02403e-06 0.0329432)
(2.44135e-06 1.67174e-06 0.020541)
(1.00568e-06 5.25248e-07 0.0108309)
(1.53325e-07 1.37286e-07 0.00329055)
(-6.32622e-06 -1.0672e-05 0.0500539)
(-2.87175e-06 -5.64629e-06 0.0341878)
(-9.1496e-07 -2.89872e-06 0.021435)
(-1.09335e-07 -1.3102e-06 0.0113612)
(9.57199e-08 -3.78476e-07 0.00347104)
(-1.31663e-05 -9.70657e-06 0.0486161)
(-6.35482e-06 -4.58992e-06 0.0330129)
(-2.66167e-06 -1.87693e-06 0.0205824)
(-8.89474e-07 -5.1998e-07 0.0108514)
(-1.2813e-07 -1.33728e-07 0.00329618)
(1.14396e-05 7.01821e-06 0.0485146)
(5.96625e-06 2.96241e-06 0.0329452)
(2.75605e-06 1.01068e-06 0.0205428)
(1.00201e-06 2.70803e-07 0.0108317)
(2.8375e-07 -1.00886e-07 0.00329058)
(1.26717e-05 3.97164e-06 0.0499753)
(7.41423e-06 1.37193e-06 0.0341335)
(4.01081e-06 -2.31771e-08 0.0214023)
(1.91155e-06 -4.13885e-07 0.0113445)
(4.9807e-07 -2.24502e-07 0.00346627)
(6.84161e-06 8.99523e-06 0.049981)
(3.62589e-06 4.57149e-06 0.0341373)
(1.51749e-06 2.16605e-06 0.0214049)
(3.91739e-07 9.26122e-07 0.0113461)
(9.72249e-08 1.84991e-07 0.0034668)
(1.44025e-05 5.66858e-07 0.0499824)
(7.76407e-06 1.07106e-06 0.0341861)
(3.63313e-06 1.16318e-06 0.0214645)
(1.36408e-06 9.32112e-07 0.0113922)
(3.04866e-07 2.77053e-07 0.00348569)
(-1.65849e-05 -1.25398e-06 0.0500842)
(-8.61335e-06 -1.75451e-06 0.0342528)
(-3.97314e-06 -1.61589e-06 0.0215038)
(-1.47438e-06 -1.06941e-06 0.0114118)
(-3.18949e-07 -4.46458e-07 0.00349132)
(1.63826e-05 1.48341e-06 0.0500828)
(8.52148e-06 2.01345e-06 0.0342527)
(3.91662e-06 1.85934e-06 0.0215041)
(1.43881e-06 1.28e-06 0.011412)
(3.53874e-07 4.56029e-07 0.00349157)
(1.63353e-05 -1.01273e-06 0.0500679)
(8.50256e-06 -1.65458e-06 0.0342423)
(3.92343e-06 -1.61402e-06 0.0214977)
(1.48375e-06 -1.12388e-06 0.0114089)
(3.29411e-07 -4.25056e-07 0.00349075)
(6.48839e-06 -1.08664e-05 0.049986)
(2.98276e-06 -5.99471e-06 0.0341413)
(9.76614e-07 -3.05211e-06 0.0214072)
(9.20223e-08 -1.38594e-06 0.0113474)
(-2.59353e-08 -2.99426e-07 0.00346743)
(1.1315e-05 -6.77044e-06 0.0499701)
(6.09247e-06 -3.29078e-06 0.0341321)
(3.04088e-06 -1.17501e-06 0.0214019)
(1.34202e-06 -1.59709e-07 0.0113449)
(3.16895e-07 4.75854e-10 0.00346683)
(8.18397e-07 -1.39647e-05 0.0499062)
(-4.78097e-08 -7.48312e-06 0.0341345)
(-5.14543e-07 -3.48153e-06 0.0214327)
(-5.50895e-07 -1.29351e-06 0.0113757)
(-2.23204e-07 -2.88527e-07 0.00348093)
(-4.24515e-07 1.6067e-05 0.0500477)
(4.20394e-07 8.3188e-06 0.0342283)
(8.06887e-07 3.8072e-06 0.0214889)
(7.15693e-07 1.39016e-06 0.0114043)
(2.98241e-07 3.13248e-07 0.00348942)
(-2.4641e-07 -1.38384e-05 0.0499105)
(5.84877e-07 -7.45743e-06 0.0341378)
(9.36211e-07 -3.50856e-06 0.0214349)
(8.35975e-07 -1.32029e-06 0.0113768)
(2.95125e-07 -3.04882e-07 0.00348113)
(7.0889e-07 1.57793e-05 0.0500489)
(-1.69906e-07 8.11734e-06 0.0342298)
(-6.2344e-07 3.68544e-06 0.0214901)
(-6.03453e-07 1.31347e-06 0.0114048)
(-2.71672e-07 3.16366e-07 0.00348948)
(1.02575e-05 1.55539e-05 0.070127)
(2.16594e-05 9.33899e-06 0.07008)
(0.000198449 0.000199659 0.124676)
(3.47739e-05 1.89722e-05 0.095533)
(1.94517e-05 2.56982e-05 0.0953518)
(6.17474e-05 -8.63111e-07 0.10537)
(4.54711e-05 6.37778e-06 0.0814927)
(5.68277e-05 -1.11521e-06 0.117355)
(4.58683e-07 -1.40646e-06 0.128581)
(4.41864e-05 3.07042e-05 0.107462)
(-3.36593e-07 -1.91741e-06 0.130458)
(6.16462e-05 -5.73992e-07 0.105369)
(4.50699e-05 -6.28593e-06 0.0815153)
(5.67794e-05 -3.06877e-07 0.117351)
(6.33553e-07 -1.38779e-06 0.128609)
(-3.67193e-07 9.11098e-07 0.130471)
(4.44125e-05 -3.08137e-05 0.107454)
(-5.90005e-07 -8.00979e-07 0.128614)
(-4.41377e-05 -3.15237e-05 0.107465)
(-4.52398e-05 -7.12684e-06 0.0815019)
(2.21388e-05 -9.02092e-06 0.0700981)
(0.000197814 -0.00019849 0.124608)
(2.09017e-05 -2.37587e-05 0.0953591)
(3.31159e-05 -1.65632e-05 0.0956917)
(1.32195e-05 -1.88872e-05 0.0702364)
(-5.35396e-07 -5.69505e-05 0.117709)
(3.11717e-06 -9.05627e-08 0.128619)
(-1.08715e-06 -8.46585e-07 0.130376)
(3.66805e-05 -4.29322e-05 0.107819)
(6.44597e-07 -5.65633e-05 0.11771)
(-3.78706e-06 -8.79128e-07 0.128621)
(8.13082e-07 -9.73306e-07 0.130377)
(-3.51814e-05 -4.24944e-05 0.10782)
(-4.27305e-07 -6.26023e-05 0.106069)
(1.00444e-05 -4.54214e-05 0.0818602)
(5.48911e-07 -6.25644e-05 0.106071)
(-9.27943e-06 -4.57303e-05 0.0818705)
(-0.000197369 -0.000199022 0.124611)
(-1.97181e-05 -2.62213e-05 0.0953987)
(-3.05242e-05 -1.79655e-05 0.0956554)
(-2.11892e-05 -9.97805e-06 0.0700885)
(-1.21235e-05 -2.02158e-05 0.070241)
(1.79581e-05 7.33704e-06 0.0689373)
(1.18336e-05 1.61148e-05 0.0688894)
(2.29959e-05 1.78359e-05 0.0875077)
(1.93818e-05 1.958e-05 0.0808288)
(2.86447e-05 7.20191e-05 0.113612)
(2.64299e-05 7.23986e-05 0.104615)
(2.13129e-05 1.61033e-05 0.0806137)
(7.39221e-05 1.78723e-05 0.113533)
(7.54534e-05 1.61527e-05 0.104484)
(-1.66308e-05 3.33542e-06 0.0751246)
(6.04871e-05 5.78798e-07 0.102623)
(2.01659e-05 -1.08332e-06 0.0778355)
(-6.0422e-05 -1.30284e-07 0.105467)
(2.12941e-05 -9.30774e-07 0.0749836)
(-5.82964e-05 -6.05115e-07 0.10275)
(-1.57808e-05 1.03509e-06 0.0779674)
(-1.64633e-05 1.86294e-06 0.0681618)
(4.80607e-05 3.97984e-06 0.0935569)
(-4.13262e-05 -3.52656e-06 0.0816853)
(2.3076e-05 4.85532e-07 0.0680402)
(-4.67442e-05 -4.75953e-06 0.0937116)
(-1.69569e-05 -3.88096e-06 0.0751435)
(2.00639e-05 2.22627e-08 0.0778417)
(5.92842e-05 -1.39278e-06 0.102628)
(-6.02164e-05 -5.2802e-07 0.105468)
(2.06286e-05 8.95377e-08 0.075003)
(-1.56087e-05 -1.54815e-06 0.0779743)
(-5.89896e-05 1.73124e-07 0.102754)
(-1.62684e-05 -1.68074e-06 0.068183)
(4.79363e-05 -3.99627e-06 0.0935672)
(-4.05386e-05 3.20116e-06 0.0817044)
(2.27955e-05 -6.09881e-07 0.0680622)
(-4.58992e-05 4.80225e-06 0.0937205)
(1.68444e-05 -1.67287e-06 0.0681637)
(-4.87402e-05 -4.22602e-06 0.0935611)
(4.03253e-05 3.50817e-06 0.0816888)
(-2.36448e-05 -2.84662e-07 0.0680411)
(4.57136e-05 4.87315e-06 0.0937109)
(-1.60431e-05 5.0927e-06 0.0702175)
(-2.20016e-05 1.81994e-05 0.0875932)
(1.18949e-05 -2.04522e-05 0.0689129)
(1.71954e-05 -1.17634e-05 0.0689137)
(2.22524e-05 -2.01897e-05 0.0874524)
(-9.49714e-06 1.36173e-05 0.0689937)
(-1.67271e-05 5.53733e-06 0.0690564)
(-7.07637e-05 1.46357e-05 0.104584)
(2.27811e-05 -1.95976e-05 0.0806598)
(7.4852e-05 -1.73696e-05 0.113528)
(-1.86087e-05 2.47907e-05 0.0955048)
(-7.05454e-05 1.72705e-05 0.11363)
(7.59605e-05 -2.04252e-05 0.104406)
(-1.92871e-05 1.23491e-05 0.0808157)
(-2.45949e-05 7.61524e-05 0.104776)
(1.79814e-05 -1.94398e-05 0.0808303)
(2.46463e-05 -7.1215e-05 0.113689)
(-2.9631e-05 1.61073e-05 0.0958545)
(1.86874e-05 -7.28619e-05 0.104613)
(-1.93e-05 1.89558e-05 0.0810635)