/*--------------------------------*- C++ -*----------------------------------*\
| =========                 |                                                 |
| \\      /  F ield         | OpenFOAM: The Open Source CFD Toolbox           |
|  \\    /   O peration     | Version:  2206                                  |
|   \\  /    A nd           | Website:  www.openfoam.com                      |
|    \\/     M anipulation  |                                                 |
\*---------------------------------------------------------------------------*/
FoamFile
{
    version     2.0;
    format      ascii;
    arch        "LSB;label=32;scalar=64";
    class       volVectorField;
    location    "50";
    object      wallShearStress;
}
// * * * * * * * * * * * * * * * * * * * * * * * * * * * * * * * * * * * * * //

dimensions      [0 2 -2 0 0 0 0];

internalField   uniform (0 0 0);

boundaryField
{
    topPatch
    {
        type            calculated;
        value           nonuniform List<vector> 0();
    }
    wall
    {
        type            calculated;
        value           nonuniform List<vector> 
7709
(
(1.49975e-08 9.49839e-09 -0.000125354)
(9.6276e-09 7.73816e-09 -0.000125329)
(6.84835e-09 -6.46916e-09 -0.000133362)
(1.35676e-08 2.68212e-09 -0.000133342)
(7.30866e-09 7.2325e-09 -0.000133324)
(-6.87359e-09 7.20849e-09 -0.000133378)
(8.28096e-09 -7.81877e-09 -0.000125371)
(-1.00988e-08 1.004e-08 -0.000125369)
(-1.01312e-08 -6.90224e-09 -0.00012534)
(1.08809e-08 -4.6251e-09 -0.000133294)
(1.47941e-08 -7.57907e-09 -0.000125281)
(-1.78842e-08 -6.81239e-09 -0.00012529)
(-9.02138e-09 -3.44028e-09 -0.000133341)
(-1.41316e-08 -2.88632e-09 -0.000133304)
(-1.20312e-08 1.12233e-08 -0.000127511)
(9.30249e-09 -5.11402e-09 -0.000129654)
(-9.19598e-09 6.60062e-09 -0.000129508)
(1.12579e-08 -1.50633e-08 -0.000127667)
(-9.0992e-09 -9.27844e-09 -0.000125097)
(-8.92276e-09 5.58399e-09 -0.000133176)
(-1.00887e-08 -2.93408e-09 -0.000125978)
(1.42017e-08 -7.62283e-10 -0.00012576)
(-1.40355e-08 -4.35516e-09 -0.000125946)
(6.04403e-09 1.00743e-08 -0.000125691)
(-8.35812e-09 -6.57422e-09 -0.000133136)
(-1.54174e-09 7.93919e-09 -0.000132753)
(-8.63174e-09 5.69242e-09 -0.000126008)
(-1.11386e-08 -1.08719e-08 -0.000127547)
(9.69459e-09 3.21643e-09 -0.000129663)
(-9.42133e-09 -4.8577e-09 -0.000129517)
(1.14614e-08 1.53771e-08 -0.000127699)
(-9.86033e-09 9.77376e-09 -0.000125148)
(-1.07427e-08 -5.97555e-09 -0.000129674)
(-1.28901e-08 -1.56194e-08 -0.000127705)
(-9.20286e-09 3.94529e-09 -0.000129656)
(-1.31712e-08 1.49018e-08 -0.000127683)
(2.81636e-08 9.32865e-09 -0.000132741)
(1.28581e-08 -5.68024e-09 -0.000125956)
(-3.38021e-09 1.17367e-08 -0.000125692)
(-1.19667e-08 5.17908e-09 -0.000133042)
(1.399e-08 1.2188e-08 -0.000127426)
(-4.62551e-09 -9.0005e-09 -0.000129653)
(6.50299e-09 7.52561e-09 -0.00012944)
(-1.46814e-08 -1.20905e-08 -0.000127665)
(-1.66356e-08 6.41072e-09 -0.000124975)
(-1.68863e-08 1.04632e-08 -0.000127429)
(6.39543e-10 -1.03479e-08 -0.000129655)
(-9.63132e-09 9.0403e-09 -0.000129436)
(1.08947e-08 -1.18663e-08 -0.000127662)
(1.38453e-08 7.77579e-09 -0.000124987)
(1.15223e-08 5.67146e-09 -0.00013305)
(-1.59798e-09 -1.34252e-08 -0.000132734)
(-2.22571e-08 6.75512e-09 -0.00013273)
(4.21702e-10 1.20942e-08 -0.000133447)
(-1.53018e-08 9.56705e-09 -0.000133171)
(1.65704e-08 -1.6586e-08 -0.000133389)
(5.14805e-09 -7.8769e-09 -0.000132728)
(8.40857e-09 -4.91353e-09 -0.000125971)
(-1.22478e-08 9.12942e-10 -0.000125767)
(4.59257e-09 1.13815e-08 -0.000132549)
(1.78696e-08 -1.32235e-09 -0.000132532)
(1.55942e-08 -3.9956e-09 -0.000132697)
(1.4042e-08 5.29076e-09 -0.000125952)
(-7.5047e-09 -7.51e-09 -0.000125719)
(-1.6715e-09 1.61828e-08 -0.000132697)
(7.529e-09 6.98375e-09 -0.000125944)
(-1.30014e-08 2.33766e-09 -0.00012573)
(-2.07317e-08 6.64512e-09 -0.000132521)
(-6.00688e-09 -8.96473e-09 -0.000132535)
(-1.52741e-08 -9.67828e-09 -0.000133218)
(1.59946e-08 1.60753e-08 -0.000133433)
(-1.76392e-08 -1.63759e-08 -0.000133435)
(-1.64914e-08 1.52293e-08 -0.000133399)
(-1.13321e-09 1.32302e-08 -0.000132557)
(-1.42323e-08 2.43092e-09 -0.000132526)
(7.67978e-09 1.429e-08 -0.000133026)
(-1.04087e-08 -1.57705e-08 -0.00013335)
(-1.04921e-08 1.48876e-08 -0.000133036)
(9.34686e-09 -1.59912e-08 -0.000133355)
(-2.91543e-08 6.67321e-09 -0.000133087)
(-8.01448e-09 -4.44011e-09 -0.000133199)
(-9.58879e-09 -4.21616e-09 -0.000125163)
(-9.45827e-09 4.91967e-09 -0.000125215)
(7.63081e-09 5.48695e-09 -0.000125175)
(-9.42821e-09 1.01096e-09 -0.000133239)
(-2.18636e-08 -1.86141e-09 -0.000133096)
(-1.82402e-08 4.72182e-09 -0.00012502)
(1.63217e-08 5.1554e-09 -0.000125032)
(6.00876e-09 5.31468e-09 -0.000133214)
(1.672e-08 1.29682e-09 -0.0001331)
(6.09838e-09 -1.77024e-08 -0.000127607)
(-1.02327e-08 3.35233e-09 -0.00012958)
(-1.04057e-08 1.25018e-08 -0.000127577)
(2.68643e-09 -6.07448e-09 -0.000129585)
(1.10143e-08 -1.94892e-08 -0.000133337)
(5.61322e-09 2.84565e-09 -0.000125264)
(6.06027e-09 1.71031e-08 -0.000127637)
(-9.61324e-09 -3.34615e-09 -0.000129589)
(-1.0407e-08 -1.08753e-08 -0.00012761)
(3.06191e-09 4.79645e-09 -0.000129591)
(5.56489e-09 -3.24984e-09 -0.00012531)
(-1.17164e-08 1.49792e-08 -0.000133337)
(-6.28872e-09 -6.23133e-09 -0.000125274)
(7.33292e-09 4.43564e-09 -0.000133309)
(-1.68825e-08 -2.46336e-09 -0.000132596)
(-1.67694e-08 -4.77665e-10 -0.000125764)
(1.11881e-08 3.15995e-10 -0.000125913)
(1.64439e-08 1.57109e-09 -0.000133252)
(-5.2386e-09 -9.00221e-09 -0.000127648)
(2.78317e-09 8.90041e-09 -0.000129456)
(7.26945e-09 1.0196e-08 -0.000127446)
(-1.48616e-09 -6.21997e-09 -0.000129638)
(2.41474e-08 -1.16916e-09 -0.000125234)
(3.1554e-09 -8.06132e-09 -0.000127644)
(-5.55852e-09 9.2357e-09 -0.000129456)
(-1.11554e-08 9.99947e-09 -0.000127444)
(-1.20127e-09 -7.66037e-09 -0.00012964)
(-1.42975e-09 -1.03786e-08 -0.000133324)
(-2.15757e-08 -2.60934e-09 -0.000125243)
(-3.69468e-10 -6.06371e-09 -0.000132689)
(-1.87359e-08 9.66811e-09 -0.00013269)
(1.20797e-08 2.03008e-09 -0.000125816)
(-1.15106e-08 4.23189e-09 -0.000125921)
(1.3769e-08 3.63448e-09 -0.000125738)
(-1.11038e-08 -2.36549e-09 -0.000125897)
(-5.8307e-09 1.99407e-09 -0.000133281)
(-1.40765e-08 1.08692e-10 -0.000133258)
(1.86468e-09 1.66745e-08 -0.000132595)
(2.78122e-09 1.03589e-08 -0.000132602)
(2.24053e-08 -7.53124e-09 -0.000132581)
(-3.00048e-08 1.48839e-08 -0.000132534)
(-2.2391e-08 3.34094e-09 -0.000125744)
(-8.62874e-09 -4.34084e-09 -0.000132566)
(-1.43239e-08 2.56639e-09 -0.000125774)
(-1.46702e-08 1.64363e-08 -0.000133242)
(1.04141e-08 1.71767e-08 -0.000133381)
(-1.45425e-08 -1.65977e-08 -0.000133287)
(1.40299e-08 -1.77729e-08 -0.000133242)
(-1.47563e-08 -2.18739e-09 -0.000125805)
(1.26455e-08 5.82814e-09 -0.000125911)
(-3.68522e-09 -1.3069e-08 -0.000132692)
(1.31261e-08 5.37633e-09 -0.0001327)
(3.59121e-10 -9.42564e-09 -0.000133318)
(5.51528e-09 1.25137e-08 -0.000133064)
(-6.82152e-09 1.27218e-08 -0.000133073)
(-1.2605e-08 -5.62537e-09 -0.000125005)
(1.75497e-08 5.31674e-09 -0.000125291)
(1.089e-08 -4.41137e-09 -0.000133064)
(-1.77555e-08 2.87473e-09 -0.000133313)
(-6.23632e-09 -7.40346e-09 -0.000125142)
(7.36893e-09 9.12959e-09 -0.000125343)
(-1.07425e-08 -1.0008e-08 -0.000124981)
(1.43046e-08 1.07803e-08 -0.000125331)
(1.39298e-08 -4.02937e-09 -0.000133039)
(-1.6871e-08 5.60298e-09 -0.000133336)
(-9.52601e-09 -8.69014e-09 -0.000125109)
(1.02509e-08 1.45802e-08 -0.00012538)
(-5.3509e-09 8.90503e-09 -0.000133185)
(6.029e-09 -1.24897e-08 -0.000133426)
(-1.33306e-08 -2.50331e-09 -0.000133058)
(1.51945e-08 4.30526e-09 -0.000133301)
(-4.30983e-09 -7.23663e-09 -0.000133173)
(6.81312e-09 7.79838e-09 -0.000133352)
(1.91684e-08 4.63337e-10 -0.000133326)
(-1.54661e-08 -3.03433e-09 -0.000133044)
(3.78204e-09 1.27342e-08 -0.000133378)
(-5.31087e-09 -8.14502e-09 -0.000133159)
(1.09732e-08 -5.8768e-09 -0.000125015)
(-1.96794e-08 4.24417e-09 -0.000125301)
(1.62939e-08 5.47127e-09 -0.000125314)
(-1.06608e-08 -6.28629e-09 -0.000124994)
(-1.76315e-08 5.11203e-09 -0.000125326)
(9.68985e-09 -8.07831e-09 -0.000125003)
(4.47892e-09 -6.53244e-09 -0.000133212)
(-7.52723e-09 5.96045e-09 -0.000133381)
(-2.15979e-08 -1.10021e-09 -0.000133337)
(1.4704e-08 -2.68161e-09 -0.000133054)
(-8.74139e-09 6.52921e-09 -0.000133403)
(5.03356e-09 -8.80836e-09 -0.000133192)
(-6.09946e-09 6.60103e-09 -0.000125177)
(7.35672e-09 -9.9953e-09 -0.000125379)
(6.41751e-09 1.16852e-08 -0.000125367)
(-6.95805e-09 -7.80555e-09 -0.000125126)
(7.00702e-09 -1.13462e-08 -0.000125407)
(-8.36798e-09 6.20286e-09 -0.000125163)
(5.6134e-09 -9.32201e-09 -0.00012517)
(-6.62453e-09 7.17859e-09 -0.000125365)
(6.25845e-09 5.09118e-09 -0.000125137)
(-5.33676e-09 -1.2885e-08 -0.000125339)
(-6.94642e-09 9.6603e-09 -0.000125388)
(6.73069e-09 -9.7364e-09 -0.000125151)
(-6.44226e-09 -9.46291e-09 -0.000125359)
(9.4127e-09 1.41937e-09 -0.000125118)
(-1.33592e-08 -3.21253e-09 -0.000133033)
(1.43662e-08 5.12457e-09 -0.000133325)
(-7.57292e-09 -4.67121e-09 -0.00013314)
(7.40603e-09 1.01587e-08 -0.000133394)
(1.0001e-08 -1.03279e-08 -0.000124986)
(-1.20709e-08 7.96797e-09 -0.000125322)
(4.57233e-09 -1.02162e-08 -0.000133167)
(-5.1961e-09 1.61387e-08 -0.000133414)
(-8.55399e-09 1.0431e-08 -0.000125143)
(8.08626e-09 -1.27794e-08 -0.000125422)
(7.09959e-09 -1.07915e-08 -0.000125129)
(-5.08538e-09 1.68394e-08 -0.000125394)
(5.86333e-09 1.25875e-08 -0.000125099)
(-6.60424e-09 -9.26695e-09 -0.000125367)
(-1.53547e-08 1.5548e-09 -0.000133077)
(1.5375e-08 -4.33265e-09 -0.000133371)
(-2.01512e-08 9.65282e-10 -0.000133068)
(-1.27926e-08 7.02885e-09 -0.000125013)
(1.58336e-08 -5.90804e-09 -0.000125346)
(8.15277e-09 8.25809e-09 -0.000124975)
(-1.86521e-08 -3.53709e-09 -0.000125305)
(-1.593e-08 1.00041e-08 -0.00012499)
(1.21533e-08 6.89966e-09 -0.000124959)
(4.91851e-09 1.21786e-08 -0.000133134)
(-8.34638e-09 -1.30523e-08 -0.000133381)
(1.09488e-08 5.15725e-09 -0.000133022)
(-1.90975e-08 -4.68641e-09 -0.000133324)
(1.929e-08 1.9521e-09 -0.000133011)
(9.49103e-09 -1.01572e-08 -0.000127446)
(-1.88479e-09 1.01244e-08 -0.000129692)
(3.53869e-09 -8.98458e-09 -0.000129442)
(-8.2548e-09 1.10278e-08 -0.000127701)
(1.86327e-08 2.56615e-09 -0.000125281)
(-1.27823e-08 -5.87908e-09 -0.000124993)
(-1.61236e-08 1.80718e-09 -0.000133305)
(1.37199e-08 -2.71902e-09 -0.000133054)
(-1.03789e-08 1.34205e-08 -0.000127543)
(7.91266e-09 -2.26287e-09 -0.000129665)
(-6.93644e-09 5.04791e-09 -0.00012954)
(9.56569e-09 -1.3132e-08 -0.000127686)
(1.3727e-08 -1.54624e-08 -0.00013341)
(6.26988e-09 9.44141e-09 -0.000125333)
(-1.43929e-08 1.58892e-08 -0.000133196)
(-6.71849e-09 -8.10242e-09 -0.000125129)
(1.2491e-08 -1.47753e-08 -0.000127424)
(-2.5453e-09 8.98788e-09 -0.000129698)
(3.4137e-09 -1.08031e-08 -0.000129426)
(-1.12458e-08 1.27024e-08 -0.000127717)
(-8.13018e-09 1.27872e-08 -0.000133408)
(1.49562e-08 7.45308e-09 -0.000125332)
(1.4268e-08 -1.56171e-08 -0.000133054)
(-1.21347e-08 -9.51309e-09 -0.00012496)
(-2.03227e-08 4.4655e-10 -0.000133348)
(1.28971e-08 -5.47977e-09 -0.000133017)
(-1.42858e-08 1.24509e-08 -0.000127495)
(8.7088e-09 -3.9675e-09 -0.000129704)
(-1.07268e-08 3.67417e-09 -0.000129488)
(1.2138e-08 -1.43768e-08 -0.000127723)
(1.24193e-08 -1.18099e-08 -0.000133462)
(6.88572e-09 1.30058e-08 -0.000125385)
(-9.01681e-09 -9.68284e-09 -0.00012509)
(4.09286e-09 -1.1741e-08 -0.000133436)
(-6.30049e-09 9.77465e-09 -0.000133166)
(7.29997e-09 1.97703e-09 -0.000125765)
(-7.03531e-09 -7.08235e-09 -0.000126014)
(6.47927e-09 8.141e-09 -0.000125673)
(-1.38554e-08 -2.98695e-09 -0.00012593)
(-8.54681e-09 -8.35883e-09 -0.000126003)
(6.28572e-09 5.64093e-09 -0.000125737)
(-7.82943e-09 -7.01027e-09 -0.000125925)
(9.61884e-09 4.21155e-09 -0.000125676)
(5.18591e-09 5.9892e-09 -0.000132554)
(2.09117e-08 -7.19229e-09 -0.000132503)
(1.27488e-08 3.95946e-09 -0.000133294)
(-1.53105e-08 -1.10512e-09 -0.000133047)
(6.66188e-09 4.71213e-09 -0.000133342)
(-3.61824e-09 -9.0665e-09 -0.000133164)
(-1.23721e-08 -5.3905e-09 -0.000133034)
(1.69942e-08 2.44531e-09 -0.000133311)
(-7.67472e-09 -5.6086e-09 -0.000133147)
(4.74882e-09 1.00955e-08 -0.000133363)
(-1.10087e-08 -1.1095e-08 -0.000127456)
(2.24163e-09 8.67232e-09 -0.000129695)
(-8.64646e-10 -8.80052e-09 -0.000129449)
(8.94728e-09 1.10061e-08 -0.000127712)
(-1.98663e-08 3.46513e-09 -0.000125294)
(-1.40234e-08 -1.51512e-08 -0.000133082)
(1.11248e-08 -7.53969e-09 -0.000125003)
(-8.88003e-09 1.00624e-08 -0.000127708)
(3.62097e-09 -1.0222e-08 -0.000129434)
(1.14122e-08 -1.04088e-08 -0.000127439)
(-2.98669e-09 8.6799e-09 -0.000129701)
(-1.07816e-08 -7.82799e-09 -0.000124984)
(1.77163e-08 4.25672e-09 -0.000125296)
(8.7859e-09 1.01615e-08 -0.000127718)
(-3.29707e-09 -9.74941e-09 -0.000129443)
(-1.17173e-08 -1.16535e-08 -0.000127448)
(1.55389e-09 9.11823e-09 -0.000129703)
(-1.33089e-08 -1.61441e-08 -0.000133075)
(9.28897e-09 -8.61106e-09 -0.000124993)
(-1.90828e-08 3.74494e-09 -0.00012531)
(1.0673e-08 1.96411e-09 -0.00012581)
(-9.9986e-09 3.61108e-09 -0.000125992)
(-9.63496e-09 4.3599e-09 -0.000125998)
(8.35902e-09 -1.92524e-09 -0.000125795)
(5.94337e-09 -3.99097e-09 -0.00013258)
(-7.71246e-09 4.32666e-09 -0.000133376)
(3.90735e-09 -9.33566e-09 -0.000133198)
(1.3449e-08 -3.37395e-09 -0.000133044)
(-1.78402e-08 4.74512e-10 -0.000133322)
(1.44261e-09 -1.04168e-08 -0.000132567)
(-9.63443e-09 6.79959e-09 -0.000126014)
(8.68944e-09 5.33065e-10 -0.00012577)
(9.22896e-09 -1.83462e-09 -0.000125786)
(-9.55793e-09 3.92212e-09 -0.000126002)
(2.71732e-10 -1.16412e-08 -0.00013255)
(4.98781e-09 -8.40854e-09 -0.000133177)
(-7.34196e-09 5.57123e-09 -0.000133389)
(-9.8344e-09 -1.2784e-08 -0.00012756)
(6.69258e-09 4.93878e-09 -0.000129665)
(-7.73893e-09 -1.74632e-09 -0.000129541)
(9.58102e-09 1.4348e-08 -0.000127702)
(4.87848e-09 -9.84395e-09 -0.000125366)
(-1.52577e-08 -1.66368e-08 -0.00013322)
(-6.37379e-09 7.21816e-09 -0.000125164)
(9.06206e-09 -1.28042e-08 -0.000127696)
(-8.56496e-09 6.24874e-09 -0.000129526)
(-9.6801e-09 1.4047e-08 -0.000127533)
(6.82836e-09 -3.47683e-09 -0.000129674)
(-7.66106e-09 -8.88103e-09 -0.000125113)
(6.0684e-09 1.03177e-08 -0.000125352)
(8.65218e-09 1.33844e-08 -0.000127711)
(-8.42416e-09 -2.35867e-09 -0.00012953)
(-9.64701e-09 -1.2474e-08 -0.000127549)
(7.4454e-09 3.40267e-09 -0.000129675)
(-7.01924e-09 8.1426e-09 -0.00012515)
(5.95709e-09 -1.05081e-08 -0.000125388)
(8.32385e-09 1.13333e-08 -0.000127562)
(-8.62687e-09 -6.94034e-09 -0.000129676)
(6.76552e-09 1.51655e-09 -0.00012955)
(-9.8012e-09 -1.59684e-08 -0.000127702)
(-6.20616e-09 7.37362e-09 -0.000125358)
(1.45311e-08 1.32778e-08 -0.000133213)
(6.56051e-09 -1.0213e-08 -0.000125154)
(9.59984e-09 -1.32768e-08 -0.000127542)
(-6.64199e-09 1.168e-09 -0.000129661)
(7.11875e-09 -4.47635e-09 -0.000129539)
(-9.66961e-09 1.16007e-08 -0.000127682)
(-4.58655e-09 -1.04479e-08 -0.000125323)
(1.48719e-08 -1.70527e-08 -0.000133184)
(7.30164e-09 7.0819e-09 -0.000125123)
(-1.04775e-08 -1.43731e-08 -0.000127712)
(8.03505e-09 1.72369e-09 -0.000129537)
(9.74073e-09 1.16718e-08 -0.000127548)
(-7.76266e-09 -5.00938e-09 -0.000129682)
(5.59676e-09 -1.07927e-08 -0.000125137)
(-7.46385e-09 9.15996e-09 -0.000125375)
(-8.64222e-09 9.29479e-09 -0.000127689)
(7.72779e-09 -7.38562e-09 -0.000129526)
(1.02893e-08 -1.66727e-08 -0.000127526)
(-7.60332e-09 -1.09782e-10 -0.000129669)
(5.31654e-09 7.08671e-09 -0.000125103)
(-3.44464e-09 -1.54289e-08 -0.000125339)
(1.43495e-08 3.58175e-09 -0.000133337)
(-1.95007e-08 4.15905e-10 -0.00013302)
(6.55103e-09 1.04603e-08 -0.000133395)
(-5.57782e-09 -1.09939e-08 -0.000133121)
(-1.19551e-08 -1.21207e-08 -0.000127436)
(3.9328e-09 1.07408e-08 -0.000129707)
(-3.11154e-09 -1.16867e-08 -0.000129428)
(1.25764e-08 1.09096e-08 -0.000127714)
(-1.47319e-08 6.02572e-09 -0.000125333)
(-1.33172e-08 -1.80566e-08 -0.000133056)
(1.03781e-08 -1.0117e-08 -0.000124968)
(-4.34384e-09 1.14693e-08 -0.000132767)
(9.30024e-09 -4.10851e-09 -0.00012576)
(-8.76112e-09 5.07098e-09 -0.000126015)
(-4.45137e-09 9.43465e-09 -0.000126019)
(3.26996e-09 -9.21476e-09 -0.000125769)
(-8.18612e-09 7.77863e-09 -0.000133414)
(5.01321e-09 -1.35198e-08 -0.000133148)
(-1.14657e-08 -1.42143e-08 -0.00012751)
(9.7655e-09 3.84286e-09 -0.000129703)
(-9.31021e-09 -4.32077e-09 -0.000129495)
(1.24569e-08 1.25084e-08 -0.000127742)
(6.90083e-09 -1.21929e-08 -0.000125422)
(-1.64572e-08 -1.61465e-08 -0.000133178)
(-9.81968e-09 8.82526e-09 -0.000125121)
(1.28827e-08 1.34876e-08 -0.000127504)
(-9.31704e-09 -3.17447e-09 -0.000129707)
(1.0698e-08 5.31019e-09 -0.000129494)
(-1.13621e-08 -1.32646e-08 -0.000127733)
(-6.24402e-09 1.00125e-08 -0.000125398)
(1.68111e-08 1.29666e-08 -0.000133161)
(8.19297e-09 -9.71476e-09 -0.000125109)
(9.32384e-09 -1.30527e-08 -0.000127488)
(-1.17089e-08 7.63262e-09 -0.000129697)
(1.07849e-08 -4.01165e-09 -0.000129481)
(-1.01481e-08 1.4697e-08 -0.000127711)
(-6.62537e-09 -7.99711e-09 -0.00012537)
(1.82914e-08 -1.32021e-08 -0.000133128)
(6.21199e-09 1.0338e-08 -0.00012508)
(-9.76024e-09 6.87079e-09 -0.000125732)
(9.24347e-09 -7.39477e-09 -0.000126003)
(7.33622e-09 -9.02102e-09 -0.000125988)
(-1.1942e-08 4.68463e-09 -0.000125729)
(-1.80125e-08 -3.41289e-09 -0.000132554)
(1.4295e-08 -3.33842e-09 -0.000133379)
(-1.88707e-08 1.6438e-09 -0.000133062)
(-1.23377e-08 7.80391e-10 -0.000132561)
(-1.25346e-08 2.16578e-09 -0.000125749)
(7.23747e-09 1.32442e-08 -0.000127416)
(-6.42111e-09 -9.35773e-09 -0.000129679)
(-7.66135e-10 1.14826e-08 -0.000129401)
(-1.50937e-08 -1.20304e-08 -0.0001277)
(1.34672e-08 -6.49527e-09 -0.000125358)
(1.1559e-08 1.65619e-08 -0.000133052)
(-1.25296e-08 9.61292e-09 -0.000124996)
(-1.57362e-08 1.26395e-08 -0.000127405)
(-1.63587e-09 -8.73731e-09 -0.000129679)
(-7.55517e-09 1.15204e-08 -0.000129399)
(6.03104e-09 -8.51108e-09 -0.000127686)
(-1.82726e-08 -4.82663e-09 -0.000125318)
(-1.7806e-08 1.86796e-08 -0.000133027)
(6.93321e-09 8.91891e-09 -0.000124963)
(-5.19824e-10 8.65273e-09 -0.000129398)
(9.46594e-09 1.32959e-08 -0.000127399)
(-1.22612e-08 1.11153e-08 -0.000129393)
(-1.81587e-08 1.20648e-08 -0.000127391)
(-8.27294e-09 -7.71749e-09 -0.000133387)
(5.27499e-09 1.00262e-08 -0.000133114)
(-2.1065e-08 -1.1214e-09 -0.00013333)
(1.61517e-08 3.24479e-09 -0.000133007)
(1.04302e-08 4.29686e-09 -0.000125682)
(-2.73314e-09 -9.79741e-09 -0.000125132)
(4.75285e-08 -7.22409e-09 -0.000125365)
(-2.9268e-09 -8.75805e-09 -0.000133155)
(-4.92503e-08 -1.40076e-08 -0.000133347)
(-4.6445e-09 -1.21779e-08 -0.00012516)
(9.56281e-09 -4.62275e-09 -0.000125275)
(-8.03722e-09 1.28289e-09 -0.000133236)
(6.58417e-09 -5.18949e-09 -0.000133313)
(-1.13172e-08 -7.35239e-09 -0.000125026)
(1.05444e-08 8.99981e-09 -0.000125221)
(4.84661e-09 -6.15367e-09 -0.000133076)
(-9.69191e-09 5.51366e-09 -0.000133235)
(-6.19961e-09 -8.37616e-09 -0.000125158)
(8.38311e-09 4.99105e-09 -0.000125282)
(-5.39574e-09 3.86662e-09 -0.000133219)
(7.59069e-09 -2.56168e-09 -0.000133318)
(-2.59622e-08 3.69784e-11 -0.000124955)
(4.5637e-09 1.11633e-08 -0.000125185)
(2.97517e-08 7.5507e-09 -0.000133024)
(2.72205e-09 1.29915e-08 -0.000133211)
(-9.43107e-09 9.76318e-10 -0.000125151)
(5.84351e-09 1.3443e-08 -0.000125273)
(-3.08967e-09 6.29957e-09 -0.000133221)
(7.06194e-09 -2.3496e-09 -0.000133313)
(-2.85736e-08 7.36299e-10 -0.000124968)
(7.73345e-09 1.14613e-08 -0.000125207)
(2.65004e-08 6.31529e-09 -0.000133034)
(-4.69615e-09 6.25542e-09 -0.000133225)
(-8.79831e-09 -1.37355e-09 -0.000125155)
(1.01815e-08 7.41869e-09 -0.000125277)
(-4.25067e-09 6.24202e-09 -0.000133226)
(6.35015e-09 5.2262e-10 -0.000133309)
(-1.63936e-08 -3.13656e-09 -0.00012499)
(1.92262e-08 3.69171e-09 -0.000125228)
(1.78598e-08 5.74555e-10 -0.000133061)
(-1.52897e-08 3.22484e-09 -0.000133256)
(-7.97283e-09 -6.43816e-09 -0.000125153)
(7.27135e-09 8.37117e-10 -0.000125276)
(-3.74534e-09 6.24626e-09 -0.000133227)
(6.59216e-09 -2.8527e-09 -0.000133317)
(-1.09642e-08 -8.27077e-09 -0.00012501)
(2.29795e-08 3.54419e-09 -0.000125255)
(7.16394e-09 -6.34862e-09 -0.000133073)
(-2.20474e-08 -3.26362e-09 -0.00013327)
(-4.9563e-09 -1.16814e-08 -0.000125159)
(1.13569e-08 -1.09712e-09 -0.000125287)
(-6.47479e-09 4.86098e-09 -0.000133228)
(2.78619e-09 -5.00684e-09 -0.000133327)
(-1.03685e-08 -7.71404e-09 -0.000125023)
(1.88539e-08 3.89859e-09 -0.000125258)
(9.22013e-09 -4.86744e-09 -0.000133086)
(-1.5161e-08 2.37019e-09 -0.000133271)
(-4.12775e-09 -1.21378e-08 -0.000125167)
(8.75414e-09 6.78212e-10 -0.000125292)
(-7.14833e-09 1.16744e-09 -0.000133241)
(5.64914e-09 -5.75794e-09 -0.000133335)
(-1.71288e-08 -4.01116e-09 -0.000125024)
(1.64753e-08 6.09516e-09 -0.000125247)
(9.30248e-09 -3.87424e-09 -0.000133079)
(-1.74714e-08 2.1373e-10 -0.000133257)
(-5.80743e-09 -7.48718e-09 -0.000125171)
(8.29411e-09 5.68367e-09 -0.000125286)
(-4.80475e-09 4.01955e-09 -0.000133242)
(6.24112e-09 -4.2166e-09 -0.000133329)
(-1.77492e-08 -4.07123e-09 -0.000125007)
(1.51242e-08 7.37082e-09 -0.000125238)
(1.60399e-08 -8.56299e-10 -0.000133063)
(-1.00633e-08 4.66614e-09 -0.000133248)
(-5.81233e-09 -6.71442e-09 -0.000125159)
(8.15943e-09 5.36828e-09 -0.000125276)
(-3.5826e-09 7.20356e-09 -0.000133236)
(6.48015e-09 -1.56048e-09 -0.000133325)
(-1.51137e-08 -6.34108e-09 -0.000124995)
(1.66231e-08 7.19261e-09 -0.000125226)
(1.25623e-08 -2.92112e-09 -0.000133054)
(-1.31234e-08 2.89494e-09 -0.000133243)
(-8.60616e-09 -4.36152e-09 -0.000125147)
(8.78653e-09 5.37362e-09 -0.000125266)
(-6.70899e-09 2.13445e-09 -0.000133229)
(4.98239e-09 -5.53215e-09 -0.000133317)
(-1.55567e-08 -5.28179e-09 -0.000124984)
(1.60939e-08 5.53675e-09 -0.000125218)
(1.80221e-08 -6.31682e-10 -0.000133046)
(-1.10979e-08 1.57614e-09 -0.000133231)
(-5.33548e-09 -7.67176e-09 -0.000125134)
(7.51061e-09 5.84141e-09 -0.000125251)
(-4.46419e-09 3.55328e-09 -0.000133217)
(2.85146e-09 -4.6919e-09 -0.000133302)
(-1.60778e-08 -6.20739e-09 -0.000124984)
(1.6552e-08 2.64714e-09 -0.00012522)
(1.2182e-08 -2.98524e-09 -0.000133043)
(-1.33982e-08 3.11486e-09 -0.000133235)
(-9.72859e-09 -4.75055e-09 -0.000125119)
(5.64822e-09 4.09182e-09 -0.000125242)
(-4.41594e-09 4.98415e-09 -0.000133212)
(7.98328e-09 -1.49446e-10 -0.000133309)
(-1.52524e-08 -5.14456e-09 -0.000124994)
(1.56578e-08 4.35011e-09 -0.000125227)
(1.53397e-08 -3.58245e-10 -0.00013305)
(-1.12218e-08 2.62854e-09 -0.000133242)
(-6.43355e-09 -5.90581e-09 -0.000125128)
(8.14708e-09 3.55897e-09 -0.000125257)
(-3.46059e-09 7.10677e-09 -0.000133221)
(5.93987e-09 -2.57476e-10 -0.000133319)
(-1.7411e-08 -7.48769e-09 -0.000124994)
(1.41756e-08 4.317e-09 -0.000125241)
(1.40415e-08 -2.63594e-09 -0.000133056)
(-1.19317e-08 3.09148e-09 -0.000133258)
(-9.08357e-09 -8.81715e-09 -0.000125138)
(6.83002e-09 2.39578e-09 -0.000125276)
(-5.40184e-09 6.15374e-09 -0.000133229)
(6.74212e-09 -1.39878e-09 -0.000133336)
(-1.80525e-08 -5.32324e-09 -0.000125006)
(1.80633e-08 6.45738e-09 -0.000125267)
(1.82091e-08 -1.18553e-10 -0.00013307)
(-8.94624e-09 4.54497e-09 -0.000133279)
(-6.2739e-09 -9.73954e-09 -0.000125149)
(8.36614e-09 5.84315e-09 -0.000125309)
(-5.29639e-09 6.8799e-09 -0.000133231)
(5.72397e-09 -5.54223e-09 -0.000133358)
(-5.17428e-09 5.67646e-09 -0.000133214)
(7.07723e-09 -8.10692e-09 -0.000133396)
(2.22052e-08 -2.06931e-09 -0.000133346)
(8.59074e-09 -4.20238e-09 -0.000133294)
(2.23698e-08 5.82902e-09 -0.000125359)
(-2.20332e-08 -4.39411e-09 -0.000125053)
(-2.4333e-08 6.28973e-09 -0.000125358)
(2.09737e-08 -3.36707e-09 -0.000125061)
(-2.77023e-08 -4.5502e-09 -0.000133347)
(3.12219e-08 5.41977e-09 -0.000133104)
(-1.11021e-08 -6.00056e-09 -0.000133339)
(5.9284e-09 -3.23908e-09 -0.00013324)
(9.40306e-09 2.48598e-09 -0.0001253)
(6.12231e-09 -9.82056e-09 -0.000125354)
(-9.83711e-09 1.81546e-09 -0.000125338)
(7.14062e-09 -5.18561e-09 -0.0001252)
(-5.66264e-09 -9.45641e-09 -0.000125313)
(3.26223e-09 -6.33158e-09 -0.000133345)
(1.16315e-08 -3.60975e-09 -0.000133268)
(1.85004e-08 -4.76107e-09 -0.000125254)
(-1.93992e-08 -5.06841e-09 -0.000125267)
(-5.62275e-09 -2.66899e-09 -0.000133312)
(-1.50529e-08 -5.27646e-11 -0.000133279)
(3.04427e-09 -1.01529e-08 -0.000133162)
(4.75142e-08 -1.52587e-08 -0.000133352)
(-1.50567e-09 -1.25939e-08 -0.000133189)
(1.40957e-08 -8.61598e-09 -0.000133279)
(2.43093e-08 -6.0537e-09 -0.000133276)
(1.44908e-08 -1.74192e-08 -0.000133158)
(8.33033e-09 -1.80147e-09 -0.000133278)
(-3.20297e-10 -1.58709e-08 -0.00013319)
(2.24504e-09 -9.57704e-09 -0.000125119)
(-4.48284e-08 -5.29531e-09 -0.000125355)
(2.68907e-08 2.5746e-10 -0.000125273)
(1.53719e-08 -1.75476e-08 -0.000125121)
(-3.20955e-08 -2.16492e-09 -0.000125264)
(-1.51421e-08 -1.56831e-08 -0.000125114)
(-2.00042e-10 -1.15614e-08 -0.000133237)
(-1.16511e-08 -4.89076e-09 -0.000133324)
(-2.94667e-08 -9.02061e-09 -0.000133275)
(-1.97972e-08 -2.09485e-08 -0.000133149)
(-1.02165e-08 -4.08977e-09 -0.000133318)
(-1.39504e-09 -1.57309e-08 -0.00013324)
(-9.06135e-09 1.87624e-09 -0.000125214)
(6.85058e-09 -8.01242e-09 -0.000125316)
(9.23781e-09 2.16311e-09 -0.000125274)
(-3.54302e-09 -1.34414e-08 -0.00012516)
(5.71559e-09 -6.24858e-09 -0.000125305)
(-7.26586e-09 4.45769e-09 -0.000125199)
(3.18041e-09 -1.43699e-08 -0.000125197)
(-9.86999e-09 4.87238e-10 -0.000125316)
(6.88251e-09 4.00281e-09 -0.000125176)
(-7.12444e-09 -6.40662e-09 -0.000125282)
(-9.32939e-09 1.4115e-09 -0.000125308)
(3.87019e-09 -1.22468e-08 -0.000125198)
(-8.2831e-09 -3.72332e-09 -0.000125277)
(6.59795e-09 5.05521e-09 -0.000125167)
(-1.75757e-08 -7.91432e-10 -0.000133077)
(1.28275e-08 -3.45355e-09 -0.000133247)
(5.321e-09 -3.36935e-09 -0.000133307)
(-6.33135e-09 2.91949e-09 -0.000133223)
(1.18381e-08 -1.77625e-09 -0.000133233)
(-1.57536e-08 4.54485e-10 -0.000133065)
(-1.63602e-08 5.11834e-09 -0.000125008)
(1.60737e-08 -5.33189e-09 -0.00012523)
(1.58439e-08 6.03421e-09 -0.000125024)
(-1.72486e-08 -5.28391e-09 -0.000125242)
(1.54885e-08 -6.01344e-09 -0.000125217)
(-1.66715e-08 4.11211e-09 -0.000124995)
(-1.53636e-08 -4.72247e-09 -0.000125234)
(1.66538e-08 3.79032e-09 -0.000125013)
(5.70543e-09 5.03616e-09 -0.000133205)
(-6.83322e-09 -3.34634e-09 -0.000133285)
(1.57651e-08 -5.66354e-12 -0.000133091)
(-1.50765e-08 -1.99733e-09 -0.000133258)
(-6.23356e-09 -1.189e-09 -0.000133281)
(5.43452e-09 3.39628e-09 -0.000133197)
(-1.34379e-08 -1.4046e-09 -0.000133253)
(1.46987e-08 1.09102e-09 -0.000133079)
(-7.82529e-09 -5.21452e-09 -0.000133088)
(6.1225e-09 5.69759e-09 -0.000133236)
(-4.26428e-09 -4.64758e-09 -0.000133189)
(7.04031e-09 3.25538e-09 -0.000133287)
(2.14869e-09 1.01386e-08 -0.000133211)
(-2.45832e-08 4.52535e-09 -0.000133053)
(4.76482e-09 6.6759e-09 -0.00013328)
(-5.36557e-09 -3.22751e-09 -0.000133197)
(6.48033e-09 -1.09139e-08 -0.000125008)
(-1.39098e-08 5.73596e-09 -0.00012521)
(8.75781e-09 8.47372e-09 -0.000125186)
(-2.33231e-08 -1.92148e-09 -0.000124978)
(-6.47897e-09 8.78277e-09 -0.000125179)
(2.03477e-08 -2.60488e-09 -0.000124971)
(3.3358e-09 -8.37316e-09 -0.000133235)
(-6.87227e-09 2.20238e-09 -0.000133324)
(-2.55692e-09 8.49306e-09 -0.000133212)
(2.55877e-08 5.31357e-09 -0.000133044)
(-4.65833e-09 5.86481e-09 -0.000133312)
(5.90599e-09 -3.07066e-09 -0.000133242)
(-7.66141e-09 6.21283e-09 -0.000125189)
(8.08182e-09 -3.91809e-09 -0.000125316)
(6.33061e-09 1.19804e-08 -0.000125275)
(-6.77165e-09 -3.82024e-09 -0.000125161)
(8.45295e-09 -5.62936e-09 -0.000125306)
(-6.11295e-09 6.52746e-09 -0.0001252)
(4.54242e-09 -1.06019e-08 -0.000125191)
(-8.5789e-09 5.16028e-09 -0.000125317)
(5.56252e-09 7.57327e-09 -0.00012516)
(-8.7572e-09 -5.28628e-09 -0.000125283)
(-5.62117e-09 1.24192e-08 -0.000125307)
(5.67031e-09 -3.9995e-09 -0.000125201)
(-9.71817e-09 -5.19036e-09 -0.000125278)
(5.08775e-09 6.12565e-09 -0.000125166)
(-1.47611e-08 1.82463e-10 -0.000133056)
(1.29012e-08 -3.84984e-09 -0.000133239)
(8.69345e-09 -4.69704e-10 -0.000133313)
(-2.34275e-09 7.38455e-09 -0.000133232)
(1.43309e-08 -2.00082e-09 -0.000133233)
(-1.73713e-08 -8.33019e-10 -0.000133061)
(-1.85463e-08 3.45151e-09 -0.000124983)
(1.44708e-08 -6.05496e-09 -0.000125221)
(1.69614e-08 3.37122e-09 -0.000125004)
(-1.7171e-08 -5.31973e-09 -0.000125237)
(1.85201e-08 -4.6981e-09 -0.000125213)
(-1.69874e-08 2.08307e-09 -0.000124993)
(-1.7032e-08 -6.60843e-09 -0.000125232)
(1.56991e-08 2.89936e-09 -0.000125008)
(4.3151e-09 5.40615e-09 -0.000133194)
(-7.82655e-09 -1.59622e-09 -0.000133285)
(1.59021e-08 2.91395e-10 -0.000133075)
(-1.38637e-08 -2.89773e-09 -0.000133254)
(-6.75494e-09 -9.05346e-10 -0.00013328)
(2.84758e-09 5.97254e-09 -0.000133196)
(-1.13262e-08 -2.89359e-09 -0.00013325)
(1.80831e-08 -1.24385e-09 -0.000133076)
(-2.49461e-08 5.33521e-09 -0.000133026)
(-7.98216e-11 9.87887e-09 -0.000133204)
(-7.56181e-09 2.90679e-09 -0.000133187)
(4.48662e-09 1.02777e-08 -0.00013328)
(2.07818e-09 1.00837e-08 -0.000133217)
(-2.89947e-08 7.12434e-09 -0.000133031)
(3.67806e-09 1.05861e-08 -0.000133285)
(-8.25217e-09 2.44887e-09 -0.000133189)
(2.80371e-08 -3.20196e-10 -0.000124942)
(-1.31946e-09 1.19245e-08 -0.000125183)
(3.20436e-09 8.02877e-09 -0.00012519)
(-2.93571e-08 6.07183e-10 -0.000124955)
(-3.77077e-09 1.02919e-08 -0.000125197)
(3.0288e-08 1.73707e-09 -0.000124957)
(7.88396e-09 4.52463e-09 -0.00013323)
(-1.59352e-10 1.58561e-08 -0.000133315)
(-2.43383e-09 9.14446e-09 -0.000133222)
(2.7804e-08 5.09339e-09 -0.000133031)
(-5.31872e-09 8.07697e-09 -0.00013331)
(7.66985e-09 2.56509e-09 -0.00013323)
(-6.3655e-09 7.08365e-09 -0.000125186)
(9.40874e-09 -3.97941e-09 -0.00012531)
(3.61262e-09 1.01926e-08 -0.000125273)
(-9.57605e-09 9.55049e-10 -0.000125153)
(7.01248e-09 -2.97045e-09 -0.000125309)
(-6.37519e-09 7.69577e-09 -0.000125195)
(9.16948e-09 5.22443e-10 -0.000125187)
(-3.7763e-09 1.86945e-08 -0.000125312)
(6.16039e-09 7.61688e-09 -0.000125155)
(-8.74329e-09 -5.91969e-09 -0.00012528)
(-4.56004e-09 1.13551e-08 -0.000125299)
(1.02248e-08 4.3611e-09 -0.000125188)
(-7.15693e-09 -3.11358e-09 -0.000125271)
(4.63883e-09 6.6052e-09 -0.000125163)
(-1.29497e-08 -2.47053e-10 -0.000133053)
(1.56339e-08 -3.62404e-09 -0.000133236)
(7.57512e-09 -1.68471e-09 -0.000133316)
(-4.54438e-09 5.05631e-09 -0.000133229)
(1.23282e-08 -3.67453e-09 -0.000133238)
(-1.59541e-08 4.24457e-10 -0.000133057)
(-1.57144e-08 5.1393e-09 -0.000124978)
(1.86093e-08 -5.04474e-09 -0.000125219)
(1.83288e-08 4.78393e-09 -0.000124997)
(-1.61568e-08 -6.39734e-09 -0.000125237)
(1.51802e-08 -4.10022e-09 -0.000125215)