/*--------------------------------*- C++ -*----------------------------------*\
| =========                 |                                                 |
| \\      /  F ield         | OpenFOAM: The Open Source CFD Toolbox           |
|  \\    /   O peration     | Version:  2206                                  |
|   \\  /    A nd           | Website:  www.openfoam.com                      |
|    \\/     M anipulation  |                                                 |
\*---------------------------------------------------------------------------*/
FoamFile
{
    version     2.0;
    format      ascii;
    arch        "LSB;label=32;scalar=64";
    class       volScalarField;
    location    "100";
    object      div(phi);
}
// * * * * * * * * * * * * * * * * * * * * * * * * * * * * * * * * * * * * * //

dimensions      [0 0 -1 0 0 0 0];

internalField   nonuniform List<scalar> 
10720
(
0.00118945
-0.000797329
0.000447256
-0.000529325
0.000185619
3.79512e-05
0.000263179
0.000257799
7.43769e-05
2.26682e-06
-7.69288e-07
6.70017e-06
2.0833e-05
6.51509e-06
9.48064e-07
-1.85983e-05
-5.99091e-06
-1.01221e-05
1.92733e-05
1.0977e-05
4.88472e-05
3.27446e-05
5.78205e-05
4.02898e-05
4.51639e-05
7.1436e-05
0.000201225
0.000180733
1.45047e-05
-0.000142271
0.000777983
0.000130846
0.000458731
0.000991302
5.84778e-05
-0.000847761
0.00211276
0.000329123
0.00269043
-0.000823528
0.00092707
-0.000303829
0.000282884
-0.000269593
-0.000169436
4.28393e-05
0.000249254
0.000162712
0.000192405
9.58323e-05
0.000118231
5.68514e-05
9.39621e-05
6.08511e-05
0.00010334
6.15492e-05
0.000107808
3.25484e-05
9.63069e-05
-3.9572e-05
2.464e-05
-0.000236131
-0.000278936
-0.000265902
-0.000236812
-0.000123355
-0.000105172
-9.70756e-05
-0.000334254
-0.000173193
-0.00016247
-0.000255386
-0.000183068
-0.000323648
-0.000210361
-0.000361271
-0.00123028
0.000623726
0.00052526
-0.000201753
0.000298339
-0.000394433
0.00031978
0.000113819
0.000389445
0.000145235
4.32786e-05
-1.70751e-05
-5.84434e-06
9.23374e-06
3.01988e-05
1.92585e-05
2.14562e-05
1.17376e-05
3.18394e-05
4.21606e-05
7.41664e-05
8.79333e-05
0.000122057
0.000132886
0.000154623
0.000148443
0.000135579
0.000137958
0.000165709
0.000191186
0.00013805
0.000100744
0.000623499
0.000298327
0.000514831
0.000817334
0.000566078
-0.000107684
0.00183333
-8.28641e-05
0.000192859
8.16819e-05
0.000438697
-0.000108883
3.87458e-05
-0.000178624
-0.000108791
0.000118023
0.000159289
0.000158391
0.000151716
0.000105467
0.000109196
7.27294e-05
0.000103606
8.10979e-05
0.000115768
8.26541e-05
0.000108577
5.21983e-05
6.97637e-05
-3.28791e-05
-4.19497e-05
-0.000250524
-0.000302957
-0.00032682
-0.000269895
-0.000195933
-0.000127694
-9.17115e-05
-0.000314749
-0.000206047
-0.000213286
-0.000301655
-0.000265641
-0.000385133
-0.000326237
-0.000476489
-0.00117656
0.000379042
-0.000787127
0.000588554
-0.000554838
0.000430711
2.20502e-05
0.000415299
0.000248216
0.000150401
-9.96832e-06
-3.92091e-05
-3.67534e-05
-9.66615e-06
-4.60289e-06
6.11625e-06
-7.70264e-06
-1.07121e-05
-1.46316e-05
-1.07998e-05
-2.97552e-06
-3.59512e-06
7.25995e-06
-9.7127e-07
-2.29737e-06
-1.164e-05
-3.00916e-05
-6.18795e-06
5.91506e-05
5.43498e-05
-5.45613e-05
-0.000170233
0.000421141
-9.79396e-06
0.000209266
0.000543088
-0.000181904
-0.000639994
0.000840535
0.000284241
0.00144559
0.000733553
-0.000299467
0.000228533
-0.000189235
-0.000140445
6.42486e-05
0.000131396
0.00012951
0.000167347
0.000104724
0.000125383
6.36678e-05
8.87997e-05
5.26532e-05
8.26346e-05
6.28877e-05
7.96038e-05
6.53246e-05
6.07491e-05
5.12583e-05
1.40308e-05
-4.48254e-06
-0.000125623
-0.000188617
-0.000193648
-0.000169147
-0.000108033
-5.5301e-05
-9.98293e-05
-0.000268762
-0.000112553
-0.000127968
-0.000198406
-0.000129558
-0.000248469
-0.000128054
-0.000245255
-0.000808699
0.000380824
0.000600218
-0.000287742
0.00025635
2.71176e-05
0.000335982
0.000371637
0.000232474
-5.75943e-06
-3.62179e-05
-5.90236e-05
-4.60729e-05
-1.14198e-05
1.17991e-06
1.88633e-05
9.71048e-06
2.38701e-05
2.52428e-05
5.06774e-05
6.40186e-05
8.97898e-05
0.000107793
0.00012631
0.000136703
0.000136525
0.000125875
0.000131987
0.000153229
0.000183683
0.00014171
0.000124131
0.000511984
0.000277839
0.000463504
0.000684043
0.000513291
9.20067e-06
0.00140437
-2.63268e-05
-0.000110525
-0.000188175
0.000145881
-0.000156177
-0.000112422
9.57258e-06
2.78464e-05
0.000126517
0.000156516
0.000137138
0.00012778
0.000112223
8.12544e-05
9.2015e-05
6.7181e-05
9.95555e-05
7.38432e-05
0.000103693
6.74737e-05
8.0373e-05
3.16477e-05
1.1024e-05
-6.35296e-05
-0.000154449
-0.000244152
-0.000259539
-0.00026238
-0.000201607
-0.000151621
-0.000116906
-0.000269659
-0.000207155
-0.000222902
-0.000310651
-0.000281633
-0.00040817
-0.000352497
-0.000509039
-0.00103856
0.000199485
0.000357055
0.000105945
8.68658e-05
0.000263867
0.000378109
0.000263677
7.3707e-05
4.39171e-05
-7.51443e-05
-8.44632e-05
-5.65617e-05
-3.99516e-05
-8.36336e-06
-7.92812e-06
-3.61153e-07
-9.53066e-06
-4.66893e-06
-5.94609e-06
1.48192e-06
4.87731e-07
6.63382e-06
8.04055e-07
-2.92717e-06
-1.32797e-05
-3.14043e-05
-2.78523e-05
2.58578e-05
2.70129e-06
-0.000103533
-0.000202502
0.000337808
-5.13019e-05
0.000143242
0.000518929
-0.000266072
-0.000769666
0.000662743
0.00023533
0.00110095
-4.0567e-05
-3.91062e-05
-0.000119216
-8.36643e-05
-2.6488e-05
0.000138353
0.00011204
0.000137822
0.000116843
0.000135499
8.48283e-05
0.000103513
5.6324e-05
8.40146e-05
5.15599e-05
7.9703e-05
5.13191e-05
7.16796e-05
3.89109e-05
5.27515e-05
4.99869e-06
6.95894e-06
-8.64565e-05
-0.000102636
-0.000158238
-0.000127191
-0.000101096
-2.42616e-05
-9.22405e-05
-0.000178749
-7.1057e-05
-7.56066e-05
-0.000154597
-7.13894e-05
-0.000196111
-5.14019e-05
-0.000185758
-0.000491775
0.000234466
0.000105897
0.000112723
0.000305829
0.000232145
0.000276703
0.000217936
0.000110536
-9.11717e-05
-7.8886e-05
-9.1499e-05
-6.29266e-05
-3.59487e-05
-3.74889e-06
1.45372e-06
1.72345e-05
1.57596e-05
3.62388e-05
4.43207e-05
6.905e-05
8.13911e-05
0.000104413
0.000114801
0.000128223
0.000128826
0.000126708
0.000131146
0.000149376
0.000173832
0.000144555
0.000129088
0.000456488
0.000275803
0.000448429
0.000705191
0.000502566
3.05749e-05
0.00136601
4.04087e-05
-5.93492e-05
3.52122e-05
-8.62883e-05
-0.000179885
-3.3231e-05
8.53107e-05
1.79329e-05
0.000125226
0.000118566
0.000133795
0.000117059
0.000105514
9.40439e-05
7.43137e-05
8.13909e-05
6.61001e-05
8.26937e-05
6.56353e-05
7.43856e-05
5.0263e-05
3.91359e-05
2.34031e-06
-4.22921e-05
-0.000107033
-0.000175282
-0.000206581
-0.0002348
-0.000197385
-0.000170775
-0.000120249
-0.000221572
-0.000192293
-0.000214472
-0.000280499
-0.000267957
-0.000372227
-0.000337179
-0.000466823
-0.000794036
3.53745e-05
-0.000169066
0.000336635
0.000102732
0.000269998
0.000279532
0.000117578
-2.23642e-05
-8.91073e-06
-0.000108336
-9.20967e-05
-7.63174e-05
-3.50255e-05
-2.15678e-05
-7.79284e-07
-4.34128e-06
2.43233e-06
-9.23075e-07
5.49539e-06
6.22656e-06
9.24061e-06
1.02475e-05
7.45671e-06
2.3379e-06
-4.62401e-06
-2.23849e-05
-2.72828e-05
-9.35475e-06
-3.04026e-05
-0.00016663
-0.000222402
0.000244698
-9.15856e-05
9.14728e-05
0.000483404
-0.000372755
-0.000926075
0.000720089
0.000196005
0.000895471
7.58837e-05
-0.000269193
-4.57807e-05
-4.965e-05
-2.18506e-05
0.000135612
8.07347e-05
9.87454e-05
0.000113729
9.62068e-05
0.000110859
7.24409e-05
8.88657e-05
5.09691e-05
7.38942e-05
4.28296e-05
6.54988e-05
3.32097e-05
5.35023e-05
1.28131e-05
3.23698e-05
-2.59931e-05
-1.54744e-05
-9.71216e-05
-6.98671e-05
-0.000136658
-4.98948e-05
-5.09389e-05
-3.612e-05
-0.000140166
-2.05774e-05
-4.65259e-05
-9.49278e-05
-3.86006e-05
-0.000118591
-2.43102e-07
-9.75371e-05
-0.000229898
0.000112204
0.000553316
0.000121757
0.000275562
0.000246979
0.000118229
0.000105957
3.59877e-05
-0.000108721
-9.40521e-05
-9.03301e-05
-6.65266e-05
-2.95443e-05
-1.30238e-05
8.29015e-06
8.77434e-06
2.56394e-05
2.90299e-05
5.15072e-05
6.07295e-05
8.22234e-05
9.28454e-05
0.00010851
0.000116315
0.000122257
0.00012304
0.000127487
0.000141254
0.00015455
0.000129594
0.000112854
0.000372695
0.000232873
0.000385929
0.00063359
0.000451604
2.41297e-05
0.00135684
8.98379e-05
8.43106e-05
-0.000265683
-6.89987e-06
-0.000176466
-2.06681e-05
7.34064e-05
5.06242e-06
8.98932e-05
0.000106701
9.7852e-05
0.000107707
9.47486e-05
9.0868e-05
7.51784e-05
6.86644e-05
5.99326e-05
6.04814e-05
5.25015e-05
5.40844e-05
3.6244e-05
3.11136e-05
-1.32327e-06
-2.48911e-05
-7.45942e-05
-0.000119439
-0.000157363
-0.000190704
-0.000180038
-0.000167403
-0.000118826
-0.000183446
-0.00018262
-0.000201125
-0.000252348
-0.000247483
-0.000331341
-0.00030573
-0.000404396
-0.000585898
-7.35061e-05
-6.91869e-05
0.000256357
0.000226525
0.000154914
0.000175269
3.68183e-05
-4.06722e-05
-3.65186e-05
-9.55896e-05
-9.31556e-05
-5.40179e-05
-3.69515e-05
-6.87031e-06
-5.50495e-06
7.61094e-06
2.47861e-06
1.06043e-05
8.00694e-06
1.48917e-05
1.1978e-05
1.6041e-05
1.00959e-05
9.39446e-06
1.86586e-06
-9.8975e-06
-2.25765e-05
-2.08013e-05
-6.59834e-05
-0.000183239
-0.000262637
0.00016176
-7.81524e-05
2.99587e-05
0.000428783
-0.000416586
-0.00105304
0.000701715
0.000119873
0.000809989
7.25774e-05
-0.000214731
-4.27577e-05
-4.24276e-05
-5.24062e-06
0.000112914
6.38933e-05
7.03489e-05
7.78538e-05
8.92441e-05
7.98068e-05
8.94279e-05
6.09421e-05
6.79286e-05
4.12357e-05
5.30118e-05
2.91927e-05
4.26902e-05
1.51162e-05
2.95717e-05
-4.17109e-06
8.56667e-06
-3.34725e-05
-3.02799e-05
-7.12769e-05
-6.52373e-05
-6.65333e-05
-1.75407e-05
-3.27636e-05
-8.54488e-05
-9.7744e-06
-6.29989e-06
-6.31034e-05
-6.94216e-07
-7.47372e-05
5.36528e-05
-4.86288e-05
-7.17667e-05
5.66231e-05
0.000218719
0.000243038
0.000185259
0.00017278
5.27668e-05
6.33173e-05
5.65775e-06
-0.000101857
-8.33677e-05
-7.55154e-05
-4.6249e-05
-2.39052e-05
-1.74018e-06
4.80119e-06
1.72115e-05
2.01009e-05
3.42027e-05
4.32171e-05
6.06903e-05
7.2334e-05
8.56494e-05
9.6255e-05
0.000105594
0.000111943
0.000115895
0.000120994
0.000132477
0.000134409
0.000114952
8.50915e-05
0.000294502
0.000173306
0.000296414
0.000541568
0.000367356
1.83635e-05
0.00118727
0.000103947
0.000162904
-0.000114623
-8.71746e-05
-0.000121237
1.47253e-05
6.48675e-05
-7.55758e-06
7.42025e-05
6.79968e-05
8.00253e-05
7.41934e-05
9.10999e-05
7.1659e-05
7.68681e-05
4.8775e-05
5.65706e-05
3.35633e-05
4.70574e-05
2.46169e-05
3.56237e-05
8.79104e-06
1.02176e-05
-2.6179e-05
-3.92162e-05
-8.89423e-05
-0.000104697
-0.000151526
-0.000141772
-0.000153211
-0.000106436
-0.000159601
-0.000166916
-0.000190918
-0.000222414
-0.000227961
-0.000290046
-0.000273227
-0.000344496
-0.000447855
-0.000125592
0.000235632
0.000175746
0.000160726
9.95369e-05
0.000117715
1.0965e-05
-5.10702e-05
-3.04843e-05
-8.71275e-05
-5.91416e-05
-4.5122e-05
-1.34013e-05
-8.44777e-06
8.83229e-06
4.09487e-06
1.41312e-05
8.32095e-06
1.75539e-05
1.24832e-05
1.91171e-05
1.29914e-05
1.55977e-05
9.28416e-06
8.13146e-06
-2.5246e-06
-1.63012e-05
-2.25765e-05
-7.6691e-05
-0.000182537
-0.000281873
0.000121465
-0.000113142
3.85118e-05
0.000362928
-0.00042241
-0.00107911
0.000714065
4.01138e-05
0.000697212
-7.96646e-05
-0.00010945
-1.1374e-05
-3.41873e-05
-5.88136e-06
9.94864e-05
3.63705e-05
5.00088e-05
5.07015e-05
6.28178e-05
6.90109e-05
6.85342e-05
5.92367e-05
4.80659e-05
3.81255e-05
3.13027e-05
2.61468e-05
1.94556e-05
1.66802e-05
6.83619e-06
6.45582e-06
-7.9947e-06
-6.55262e-06
-3.14475e-05
-2.63001e-05
-5.75161e-05
-2.66921e-05
-2.84532e-05
-5.79832e-06
-6.06842e-05
4.13952e-06
1.03009e-05
-2.61498e-05
1.61366e-05
-3.1557e-05
8.0898e-05
-1.24837e-05
2.4352e-06
2.69543e-05
9.71158e-05
0.000156494
0.000116828
0.000115209
2.63043e-05
3.47793e-05
-2.2666e-06
-8.51302e-05
-5.7847e-05
-5.03402e-05
-2.88079e-05
-1.12313e-05
2.85741e-06
9.66289e-06
1.67136e-05
2.08458e-05
3.04809e-05
3.82402e-05
5.27632e-05
6.29268e-05
7.45132e-05
8.30693e-05
9.22351e-05
9.92837e-05
0.000104057
0.00011216
0.000119657
0.000121547
9.55965e-05
7.37157e-05
0.00021809
0.000113819
0.000204241
0.000425821
0.000292589
1.01406e-05
0.000990826
8.57035e-05
0.000133197
-6.58107e-06
-3.22465e-05
-8.41941e-05
2.75915e-05
5.1578e-05
-8.54611e-06
5.7281e-05
5.60804e-05
4.71263e-05
6.43685e-05
5.86419e-05
7.12554e-05
4.74501e-05
5.12808e-05
2.66722e-05
3.61669e-05
1.59719e-05
2.86924e-05
8.08457e-06
1.88684e-05
-6.00416e-06
-3.53654e-06
-3.5192e-05
-4.78304e-05
-8.02139e-05
-0.000100895
-0.000113951
-0.000118361
-0.000100968
-0.000133181
-0.000155765
-0.000173113
-0.000199744
-0.000202835
-0.0002551
-0.00023803
-0.000293531
-0.000356274
-0.000148696
0.000144809
8.3942e-05
0.000101598
6.27137e-05
8.04303e-05
-1.52605e-06
-3.80509e-05
-2.37387e-05
-5.28878e-05
-4.6016e-05
-2.14093e-05
-1.18506e-05
5.02629e-06
4.95485e-06
1.34483e-05
9.52667e-06
1.60572e-05
1.21887e-05
1.84559e-05
1.35908e-05
1.68049e-05
1.19156e-05
1.23745e-05
9.06554e-06
1.76905e-06
-7.41502e-06
-2.25037e-05
-6.01688e-05
-0.000165677
-0.000238478
6.32402e-05
-7.47244e-05
9.1961e-06
0.000334179
-0.000401396
-0.00106644
0.000676773
-3.72101e-05
0.000481849
4.65323e-06
-5.68305e-05
2.52233e-05
-2.81884e-05
7.95541e-06
8.47324e-05
3.55166e-05
2.8752e-05
3.7953e-05
3.66653e-05
5.49847e-05
4.41779e-05
5.03699e-05
2.72261e-05
3.35022e-05
1.42203e-05
2.21803e-05
7.04186e-06
1.26906e-05
1.19524e-06
3.45912e-06
-4.88697e-06
-5.21668e-06
-1.58045e-05
-1.662e-05
-3.17581e-05
-1.68368e-05
-1.55673e-05
-1.29021e-06
-3.67148e-05
6.05943e-06
2.06746e-05
-4.16146e-06
3.57154e-05
-8.05323e-06
9.96701e-05
7.67367e-06
3.62694e-05
2.21755e-05
7.92563e-05
9.92474e-05
7.21686e-05
7.87475e-05
1.35131e-05
2.60897e-05
-5.15861e-06
-5.95139e-05
-4.52062e-05
-3.28814e-05
-2.21593e-05
-2.18856e-06
1.93189e-06
1.37411e-05
1.21495e-05
2.19845e-05
2.2335e-05
3.46947e-05
3.99109e-05
5.48524e-05
6.04584e-05
7.07555e-05
7.77194e-05
8.48891e-05
9.18775e-05
9.85058e-05
0.000110405
0.000106175
9.15118e-05
6.67626e-05
0.000162019
6.4691e-05
0.00012162
0.000310191
0.000211308
-9.89071e-07
0.000793375
5.21683e-05
6.04139e-05
-1.02316e-06
1.15303e-05
-5.52307e-05
3.73119e-05
4.38183e-05
-6.54372e-06
4.99017e-05
3.56544e-05
3.81339e-05
3.66188e-05
4.94037e-05
4.15851e-05
4.12844e-05
2.63288e-05
2.63677e-05
1.36009e-05
1.9306e-05
7.03607e-06
1.56302e-05
1.72393e-06
7.9929e-06
-9.62901e-06
-1.18108e-05
-3.66396e-05
-4.6534e-05
-7.44005e-05
-7.82381e-05
-9.39857e-05
-8.62429e-05
-0.000118402
-0.000135385
-0.000159493
-0.000174519
-0.000182057
-0.000217146
-0.000207374
-0.000245074
-0.000292472
-0.000153062
6.76204e-05
4.47575e-05
7.00564e-05
4.5816e-05
5.72114e-05
-4.90317e-06
-3.13961e-05
-1.96636e-05
-4.59843e-05
-3.35006e-05
-1.88852e-05
-5.8765e-06
3.36939e-06
8.0474e-06
1.04999e-05
1.20206e-05
1.25328e-05
1.41467e-05
1.44471e-05
1.5325e-05
1.3427e-05
1.33901e-05
1.18093e-05
1.08772e-05
6.69681e-06
-2.28588e-06
-8.96901e-06
-4.47313e-05
-0.000109503
-0.000181678
4.30317e-05
-6.68991e-05
2.16292e-05
0.000281088
-0.000360928
-0.00102205
0.000689974
-9.39606e-05
0.000316512
1.59981e-05
-3.38297e-05
3.09198e-05
-2.50621e-05
7.51977e-06
7.40257e-05
2.21797e-05
2.62659e-05
1.71341e-05
3.04652e-05
2.37794e-05
3.92447e-05
1.8964e-05
3.02314e-05
8.71244e-06
2.15797e-05
3.08128e-06
1.51073e-05
-3.23737e-07
8.73287e-06
-3.57011e-06
2.70863e-06
-7.15436e-06
-4.48907e-06
-1.32582e-05
-1.42172e-05
-1.33486e-05
-4.23681e-06
-5.13538e-06
-1.83586e-05
2.12045e-06
2.33821e-05
9.22711e-06
5.13628e-05
1.36586e-05
0.000104193
1.94969e-05
5.04008e-05
1.95235e-05
4.606e-05
6.9333e-05
5.38167e-05
5.60337e-05
7.95266e-06
1.57345e-05
-7.67873e-06
-5.48918e-05
-3.5441e-05
-3.32363e-05
-1.48352e-05
-7.30137e-06
6.49533e-06
6.42767e-06
1.5134e-05
1.32899e-05
2.2379e-05
2.36918e-05
3.50165e-05
4.14645e-05
5.20654e-05
5.75887e-05
6.56873e-05
7.236e-05
7.80016e-05
8.92817e-05
9.61892e-05
0.000102067
8.42508e-05
7.78859e-05
0.000115881
4.36544e-05
6.33084e-05
0.000205284
0.000133539
-1.19431e-05
0.000629431
1.77515e-05
7.95342e-06
-5.43197e-06
1.23247e-05
-4.9202e-05
3.20497e-05
3.30503e-05
-9.19577e-07
4.0396e-05
3.30408e-05
2.24624e-05
2.81063e-05
2.7534e-05
2.80657e-05
2.24084e-05
1.8951e-05
1.31897e-05
1.26591e-05
7.19098e-06
1.06566e-05
3.90205e-06
9.62962e-06
-2.02072e-07
3.76386e-06
-1.22006e-05
-1.49493e-05
-3.6657e-05
-4.408e-05
-6.20926e-05
-6.63541e-05
-8.05515e-05
-9.79238e-05
-0.000121949
-0.000138995
-0.000156981
-0.000158066
-0.000185262
-0.000173147
-0.000205745
-0.00024558
-0.000151955
3.67617e-05
3.15868e-05
5.34971e-05
3.41127e-05
4.02058e-05
-6.14904e-06
-3.12486e-05
-1.81609e-05
-4.26196e-05
-2.96324e-05
-2.0777e-05
-3.98433e-06
-2.40229e-07
8.78554e-06
7.27761e-06
1.22384e-05
1.04154e-05
1.38159e-05
1.32377e-05
1.51458e-05
1.38276e-05
1.43352e-05
1.37489e-05
1.38773e-05
1.12998e-05
7.06079e-06
1.79501e-06
-1.71056e-05
-6.22198e-05
-0.000105205
2.81101e-05
-4.16091e-05
1.53251e-05
0.000212046
-0.000367734
-0.000918721
0.000648943
-0.000128023
0.000208499
9.51293e-06
-3.17853e-05
2.44893e-05
-2.38624e-05
1.43333e-05
6.20634e-05
2.5937e-05
1.48482e-05
1.7476e-05
8.52891e-06
2.16181e-05
9.68499e-06
2.17557e-05
5.1136e-06
1.80215e-05
1.73436e-06
1.4758e-05
9.86488e-08
1.10919e-05
-1.3899e-06
6.29184e-06
-3.41154e-06
7.83788e-07
-6.66587e-06
-5.42864e-06
-1.19643e-05
-7.0957e-06
-6.15323e-06
-4.13093e-06
-1.46438e-05
2.45153e-06
1.46801e-05
1.94418e-05
5.08051e-05
3.88663e-05
0.000101965
2.68698e-05
4.73818e-05
1.7816e-05
3.21452e-05
5.6054e-05
4.11461e-05
4.14947e-05
6.5015e-06
7.03791e-06
-1.04379e-05
-4.63571e-05
-3.67186e-05
-2.87065e-05
-1.81762e-05
-4.16246e-06
1.04332e-06
8.68114e-06
8.78801e-06
1.47152e-05
1.50682e-05
2.26739e-05
2.59001e-05
3.62383e-05
4.26683e-05
5.01174e-05
5.59096e-05
6.16396e-05
6.90806e-05
7.7249e-05
8.98162e-05
9.17375e-05
8.79822e-05
8.06999e-05
9.81116e-05
3.47184e-05
4.24465e-05
0.000119799
7.1352e-05
-3.00561e-05
0.000473879
-1.35417e-05
-2.17753e-05
-7.7596e-06
6.47743e-06
-4.26735e-05
2.82247e-05
2.88137e-05
1.56562e-06
3.72891e-05
2.26804e-05
1.94645e-05
1.51249e-05
1.69532e-05
1.41385e-05
1.23699e-05
1.06982e-05
8.56006e-06
7.12601e-06
7.07654e-06
4.30763e-06
7.70129e-06
2.41165e-06
7.26315e-06
-1.84304e-06
-1.21182e-07
-1.49166e-05
-1.88153e-05
-3.64631e-05
-4.12074e-05
-5.74982e-05
-6.54414e-05
-8.86096e-05
-0.000102688
-0.00012553
-0.000136587
-0.000141878
-0.000152122
-0.000144681
-0.000164485
-0.000210038
-0.000146075
2.85547e-05
2.58654e-05
4.34351e-05
2.95114e-05
2.82103e-05
-9.38155e-06
-2.62102e-05
-2.34186e-05
-3.59464e-05
-3.17699e-05
-1.38923e-05
-8.54852e-06
4.23934e-06
3.41869e-06
1.07123e-05
8.1736e-06
1.33202e-05
1.16072e-05
1.56965e-05
1.52914e-05
1.69091e-05
1.6571e-05
1.73429e-05
1.80633e-05
1.69441e-05
1.60598e-05
1.26801e-05
5.49519e-06
-2.4807e-05
-4.09785e-05
1.5235e-05
-2.07387e-05
8.42189e-06
0.00011066
-0.00030383
-0.000902482
0.000603389
-0.00013148
0.000144432
5.2357e-06
-2.79435e-05
1.79944e-05
-2.04948e-05
1.18419e-05
5.56426e-05
1.73886e-05
1.65646e-05
4.4065e-06
1.01035e-05
9.58598e-07
1.24412e-05
6.60213e-07
1.29864e-05
-7.35798e-09
1.24565e-05
-6.52677e-07
1.13438e-05
-5.69775e-07
8.6342e-06
-1.84555e-06
3.7147e-06
-4.73584e-06
-1.8653e-06
-8.9209e-06
-7.52505e-06
-1.07127e-05
-6.06158e-06
-1.0009e-05
-1.10212e-05
-5.2891e-06
1.0226e-05
1.39365e-05
5.37205e-05
4.30542e-05
0.000114247
3.0151e-05
4.35434e-05
1.71382e-05
2.91961e-05
4.68397e-05
3.56735e-05
3.20276e-05
2.53715e-06
3.99304e-06
-1.44183e-05
-4.24246e-05
-3.20594e-05
-2.51637e-05
-1.28584e-05
-3.96149e-06
3.60634e-06
6.36922e-06
1.07566e-05
1.14205e-05
1.64062e-05
1.8263e-05
2.53467e-05
2.99262e-05
3.97242e-05
4.36454e-05
4.96406e-05
5.43444e-05
5.98682e-05
7.03489e-05
7.86366e-05
8.74467e-05
8.26056e-05
8.66406e-05
8.08081e-05
4.56889e-05
3.41962e-05
7.85939e-05
2.29676e-05
-3.90688e-05
0.000335356
-3.3759e-05
-3.50071e-05
-8.12001e-06
2.43314e-06
-3.87844e-05
2.19773e-05
2.38916e-05
4.026e-06
3.11453e-05
2.17922e-05
1.21689e-05
1.05973e-05
7.80349e-06
6.41245e-06
6.70414e-06
4.96889e-06
6.04899e-06
3.64734e-06
4.42419e-06
4.414e-06
3.15017e-06
5.70598e-06
1.18364e-06
4.05142e-06
-5.03972e-06
-5.62389e-06
-1.9351e-05
-2.30864e-05
-3.76191e-05
-4.37084e-05
-6.08157e-05
-7.37026e-05
-9.21917e-05
-0.000107801
-0.000122631
-0.000124307
-0.00012797
-0.000116489
-0.000129161
-0.00017715
-0.000136664
2.21179e-05
2.21029e-05
3.71939e-05
2.33691e-05
2.15719e-05
-9.78834e-06
-2.62467e-05
-1.67402e-05
-3.31761e-05
-1.94772e-05
-1.33837e-05
-1.4668e-07
1.15927e-06
9.18577e-06
7.31545e-06
1.29525e-05
1.1228e-05
1.58664e-05
1.53219e-05
1.955e-05
1.8944e-05
2.04958e-05
2.08723e-05
2.18047e-05
2.30116e-05
2.1454e-05
2.28302e-05
1.60695e-05
4.75729e-06
-1.22498e-05
1.49905e-05
-1.72439e-05
1.11216e-06
4.3343e-05
-0.000289968
-0.000735598
0.000496397
-0.000129768
0.000114419
3.25072e-06
-2.54405e-05
1.27075e-05
-1.72262e-05
1.3735e-05
4.788e-05
2.02704e-05
7.59134e-06
7.59962e-06
-2.56367e-06
5.0726e-06
-2.99514e-06
7.69641e-06
-2.28837e-06
8.69409e-06
-2.55379e-06
8.67765e-06
-1.3154e-06
8.83242e-06
-1.24101e-06
5.68486e-06
-3.83836e-06
-1.42161e-07
-8.10522e-06
-6.04074e-06
-1.27919e-05
-9.53701e-06
-1.33899e-05
-1.04107e-05
-1.64196e-05
-6.54062e-06
-1.95038e-06
1.30702e-05
3.73992e-05
5.37466e-05
0.000101157
5.14174e-05
3.1093e-05
9.02206e-06
2.43018e-05
4.17271e-05
2.95341e-05
2.58556e-05
1.66486e-06
1.02848e-06
-1.09945e-05
-3.53014e-05
-2.22435e-05
-1.54646e-05
-6.84715e-06
1.06493e-06
5.4634e-06
9.2791e-06
1.06488e-05
1.37911e-05
1.51842e-05
1.96961e-05
2.28428e-05
2.90585e-05
3.54546e-05
4.04139e-05
4.42043e-05
4.76993e-05
5.3084e-05
6.03997e-05
7.0487e-05
7.60455e-05
7.82521e-05
7.8568e-05
7.3819e-05
4.99868e-05
4.03686e-05
5.74274e-05
-2.00272e-06
-2.24226e-05
0.000212386
-4.0017e-05
-4.31756e-05
-7.29869e-06
-4.90267e-07
-3.25946e-05
1.8618e-05
2.15988e-05
5.22065e-06
2.69627e-05
1.7083e-05
8.91936e-06
5.94476e-06
2.77829e-06
3.49936e-06
1.35223e-06
4.7134e-06
-1.53747e-06
3.47432e-06
1.63507e-06
2.89318e-06
2.40757e-06
2.07546e-06
3.20629e-06
-9.62217e-07
-1.19052e-06
-9.42934e-06
-1.31483e-05
-2.30201e-05
-2.93668e-05
-4.02486e-05
-5.14095e-05
-6.52502e-05
-7.93164e-05
-9.41913e-05
-0.000107506
-0.000110392
-0.000107595
-9.72732e-05
-9.73651e-05
-0.000146565
-0.000121275
1.97613e-05
1.93719e-05
3.2077e-05
2.09183e-05
1.76535e-05
-1.09361e-05
-1.92422e-05
-1.28132e-05
-1.87868e-05
-1.41e-05
-2.10512e-06
4.56238e-07
8.60928e-06
7.53518e-06
1.29073e-05
1.12584e-05
1.58199e-05
1.50754e-05
1.91507e-05
1.98509e-05
2.24737e-05
2.22277e-05
2.32517e-05
2.47492e-05
2.50129e-05
2.64634e-05
2.427e-05
2.48103e-05
1.18928e-05
7.82406e-06
3.60918e-06
-6.13108e-06
-1.48771e-05
5.43164e-06
-0.000237276
-0.000544314
0.000343444
-0.000107693
9.23298e-05
2.03584e-06
-2.14697e-05
9.28264e-06
-1.47766e-05
1.18341e-05
4.23411e-05
1.33242e-05
9.2604e-06
-3.47962e-07
1.26283e-06
-4.56699e-06
2.78694e-06
-2.57215e-06
1.15553e-06
-4.0426e-06
4.74276e-06
-5.4422e-06
6.63208e-06
-1.36628e-06
6.66682e-06
-1.85755e-06
1.96802e-06
-6.87349e-06
-4.78168e-06
-1.26581e-05
-1.03974e-05
-1.65687e-05
-1.25244e-05
-1.80983e-05
-1.4177e-05
-1.51863e-05
-4.24872e-06
2.18972e-06
2.81668e-05
4.396e-05
9.43228e-05
5.88184e-05
3.22524e-05
1.49427e-05
2.29888e-05
3.64305e-05
2.65203e-05
2.18185e-05
-1.94903e-06
3.3604e-06
-9.9196e-06
-2.66061e-05
-1.30417e-05
-7.11284e-06
-8.91603e-08
5.78356e-06
8.73052e-06
1.13292e-05
1.26232e-05
1.44118e-05
1.63507e-05
1.90286e-05
2.25008e-05
2.64546e-05
3.21385e-05
3.60998e-05
3.89244e-05
4.11259e-05
4.47225e-05
5.08572e-05
5.85823e-05
6.4005e-05
6.65216e-05
6.79383e-05
6.27187e-05
5.16726e-05
4.13678e-05
5.19957e-05
-9.7764e-06
-1.14671e-07
0.000118838
-3.21216e-05
-4.97586e-05
-6.7094e-06
-1.77644e-06
-2.90376e-05
1.48176e-05
1.8281e-05
3.64072e-06
2.46587e-05
1.31875e-05
7.46244e-06
1.76139e-06
2.49547e-06
-3.23061e-07
-1.66086e-07
-4.33189e-06
-5.92003e-07
-9.89869e-06
1.16879e-05
-6.6595e-06
2.93033e-06
1.27771e-06
2.07144e-06
-1.00872e-07
-3.39905e-06
-8.38454e-06
-1.38968e-05
-2.02008e-05
-2.69372e-05
-3.49685e-05
-4.52701e-05
-5.57275e-05
-6.86376e-05
-7.99689e-05
-9.31898e-05
-9.60511e-05
-9.27353e-05
-8.23324e-05
-7.52958e-05
-0.000118952
-0.00010475
1.63736e-05
1.63261e-05
2.84616e-05
1.62489e-05
1.65002e-05
-1.01771e-05
-1.67441e-05
-3.65601e-06
-1.40072e-05
-3.74447e-06
2.18317e-07
7.48462e-06
8.21265e-06
1.2341e-05
1.15377e-05
1.48029e-05
1.44363e-05
1.76103e-05
1.802e-05
2.12275e-05
2.19416e-05
2.28904e-05
2.32359e-05
2.41512e-05
2.59142e-05
2.49339e-05
2.58048e-05
2.17007e-05
1.77873e-05
7.27969e-06
4.63878e-06
-1.05522e-05
-1.35817e-05
-1.19546e-05
-0.000166409
-0.000351145
0.0002323
-7.55949e-05
6.22684e-05
1.69146e-06
-1.88081e-05
6.42179e-06
-1.22764e-05
1.05079e-05
3.75851e-05
1.36218e-05
5.16437e-06
9.98079e-07
-2.96643e-06
-7.42456e-07
-4.26188e-06
-2.31498e-06
-7.73281e-06
-1.24525e-05
1.67315e-05
-7.03976e-06
-9.13084e-07
-5.10019e-06
-8.61909e-07
3.62123e-06
-2.64792e-06
-3.06916e-06
-1.01802e-05
-1.04308e-05
-1.59694e-05
-1.49627e-05
-1.8321e-05
-1.68904e-05
-1.86408e-05
-1.47041e-05
-1.06451e-05
-1.07394e-06
1.50189e-05
3.59202e-05
7.20329e-05
6.89572e-05
2.30874e-05
1.64563e-05
1.89415e-05
3.321e-05
2.20808e-05
1.89098e-05
-2.69329e-06
3.13202e-06
-5.46446e-06
-2.15257e-05
-6.26549e-06
-1.64338e-06
4.27822e-06
7.64432e-06
1.11205e-05
1.17019e-05
1.36925e-05
1.40567e-05
1.6229e-05
1.76786e-05
2.06561e-05
2.33167e-05
2.74107e-05
3.0941e-05
3.24407e-05
3.37839e-05
3.53807e-05
4.01374e-05
4.52637e-05
4.98747e-05
5.21236e-05
5.33173e-05
5.03024e-05
4.52784e-05
4.0293e-05
4.61684e-05
-6.45707e-06
2.31555e-05
6.35543e-05
-1.93695e-05
-5.5277e-05
-5.61041e-06
-2.85222e-06
-2.44357e-05
1.17232e-05
1.63989e-05
4.68045e-06
2.0757e-05
1.15376e-05
4.13404e-06
2.15142e-06
-9.65773e-07
-4.44882e-07
-8.95516e-06
-1.47891e-05
1.44019e-05
-5.59512e-07
6.68635e-06
-1.69963e-05
-3.46694e-06
-6.36412e-06
-2.03648e-06
4.11235e-07
-4.29635e-06
-8.26092e-06
-1.41519e-05
-1.87722e-05
-2.44457e-05
-3.0756e-05
-3.87314e-05
-4.70793e-05
-5.74512e-05
-6.66713e-05
-7.81882e-05
-8.19946e-05
-7.99835e-05
-7.1808e-05
-6.13581e-05
-9.90586e-05
-9.14074e-05
1.51919e-05
1.42104e-05
2.47915e-05
1.43895e-05
1.49537e-05
-1.09191e-05
-1.24375e-05
-1.88404e-06
-7.14892e-06
-2.22392e-06
4.26605e-06
7.09022e-06
1.03408e-05
1.11008e-05
1.27794e-05
1.31967e-05
1.48292e-05
1.5684e-05
1.74299e-05
1.87836e-05
2.04891e-05
2.06011e-05
2.07339e-05
2.17566e-05
2.24961e-05
2.27615e-05
2.12058e-05
1.95115e-05
1.3735e-05
7.94572e-06
-9.97544e-07
-7.3768e-06
-1.6008e-05
-6.6638e-06
-0.000117264
-0.000167887
0.000135216
-5.30029e-05
4.44451e-05
1.32487e-06
-1.59899e-05
4.23818e-06
-1.11169e-05
9.38717e-06
3.18364e-05
1.14707e-05
4.12809e-06
-1.83318e-07
-2.26113e-06
-2.18075e-06
-7.17535e-06
-1.36257e-05
7.8217e-06
-2.32044e-06
1.9519e-05
-1.42886e-05
-2.44177e-07
-2.31912e-05
-5.77721e-06
-7.97673e-06
-3.41144e-06
-6.26779e-06
-9.13018e-06
-1.34729e-05
-1.52706e-05
-1.76316e-05
-1.78426e-05
-1.88238e-05
-1.75047e-05
-1.62866e-05
-1.12352e-05
-5.09355e-06
7.89676e-06
2.5577e-05
5.15225e-05
6.40244e-05
1.89423e-05
2.05485e-05
1.78007e-05
2.90862e-05
1.98696e-05
1.63581e-05
-5.46673e-06
4.46086e-06
-5.66299e-06
-1.84849e-05
-3.9909e-06
7.43588e-08
4.5958e-06
8.35548e-06
9.93419e-06
1.17079e-05
1.20903e-05
1.32773e-05
1.40063e-05
1.56052e-05
1.71869e-05
1.93268e-05
2.17461e-05
2.45856e-05
2.54476e-05
2.54719e-05
2.62391e-05
2.86122e-05
3.24459e-05
3.49947e-05
3.74643e-05
3.74057e-05
3.71872e-05
3.45335e-05
3.53675e-05
3.56566e-05
1.22702e-06
3.57271e-05
3.3021e-05
-7.99221e-06
-5.58333e-05
-5.1252e-06
-3.33305e-06
-2.20208e-05
9.14729e-06
1.29947e-05
4.83886e-06
1.76851e-05
9.57889e-06
3.01695e-06
8.78259e-07
-1.78868e-06
-7.14453e-06
-1.58162e-06
-3.26709e-06
1.97647e-05
8.25568e-07
3.16411e-06
-2.14365e-05
-9.86538e-06
-1.87844e-05
-1.35522e-05
-7.47245e-06
-5.92779e-06
-9.34479e-06
-1.33422e-05
-1.772e-05
-2.14769e-05
-2.66406e-05
-3.19541e-05
-3.8755e-05
-4.63656e-05
-5.38999e-05
-6.34296e-05
-6.78311e-05
-6.81283e-05
-6.22811e-05
-5.41881e-05
-8.46536e-05
-8.29095e-05
1.29251e-05
1.19301e-05
2.1955e-05
1.07298e-05
1.38966e-05
-1.05592e-05
-1.26811e-05
1.07714e-06
-7.60752e-06
-6.52852e-07
3.26925e-06
6.71024e-06
8.94564e-06
1.01815e-05
1.10327e-05
1.17536e-05
1.25621e-05
1.34978e-05
1.44657e-05
1.55757e-05
1.68716e-05
1.68386e-05
1.66428e-05
1.71823e-05
1.80635e-05
1.78265e-05
1.66543e-05
1.42702e-05
1.03048e-05
4.33728e-06
-2.22109e-06
-8.14383e-06
-1.22311e-05
-8.51871e-06
-7.0043e-05
-6.65452e-05
7.91272e-05
-2.44503e-05
2.72589e-05
1.18875e-06
-1.41029e-05
2.25589e-06
-9.90491e-06
8.34975e-06
2.72818e-05
9.92546e-06
3.74125e-06
-7.32743e-07
-2.05114e-06
-3.72061e-06
-8.18339e-06
-2.53821e-06
1.02689e-05
1.12335e-05
3.39739e-06
-5.28862e-06
-6.50231e-06
-1.81045e-05
-2.49008e-05
-2.01456e-05
-9.02574e-06
-8.02714e-06
-1.03386e-05
-1.31378e-05
-1.56161e-05
-1.70226e-05
-1.78353e-05
-1.77708e-05
-1.69479e-05
-1.51883e-05
-1.13136e-05
-6.22001e-06
3.4447e-06
1.72293e-05
3.52284e-05
5.2913e-05
1.04015e-05
2.34512e-05
1.4558e-05
2.63241e-05
1.63454e-05
1.41323e-05
-5.65344e-06
3.00915e-06
-4.09562e-06
-1.73489e-05
-3.57691e-06
2.12455e-07
3.53915e-06
6.84956e-06
8.66811e-06
9.71825e-06
1.03164e-05
1.07899e-05
1.14396e-05
1.22452e-05
1.33277e-05
1.46282e-05
1.59285e-05
1.80164e-05
1.82602e-05
1.79057e-05
1.74817e-05
1.87352e-05
2.05789e-05
2.23463e-05
2.36208e-05
2.36465e-05
2.43432e-05
2.32414e-05
2.68376e-05
2.32711e-05
7.03344e-06
3.35685e-05
2.17233e-05
-1.22367e-06
-5.22035e-05
-4.26699e-06
-3.92334e-06
-1.90043e-05
6.70779e-06
1.12597e-05
4.48519e-06
1.58053e-05
7.1854e-06
2.63377e-06
-4.42328e-07
-3.27415e-06
-6.68696e-06
-1.40912e-06
1.07864e-05
8.46067e-06
1.98148e-06
-1.40281e-06
-7.4103e-06
-2.33556e-05
-3.15354e-05
-1.39067e-05
-1.35208e-05
-9.08041e-06
-9.29057e-06
-1.22888e-05
-1.5406e-05
-1.84459e-05
-2.19064e-05
-2.56142e-05
-3.05851e-05
-3.59088e-05
-4.20026e-05
-4.93146e-05
-5.43363e-05
-5.6246e-05
-5.26353e-05
-4.97196e-05
-7.45725e-05
-7.79642e-05
1.20928e-05
1.04945e-05
1.89582e-05
9.41938e-06
1.18601e-05
-1.12385e-05
-1.10126e-05
-5.70594e-07
-5.99164e-06
-1.94285e-06
2.50339e-06
5.27938e-06
7.26837e-06
8.25753e-06
8.83153e-06
9.30066e-06
9.78317e-06
1.03767e-05
1.099e-05
1.16353e-05
1.25907e-05
1.23958e-05
1.19429e-05
1.21874e-05
1.29498e-05
1.27405e-05