/*--------------------------------*- C++ -*----------------------------------*\
| =========                 |                                                 |
| \\      /  F ield         | OpenFOAM: The Open Source CFD Toolbox           |
|  \\    /   O peration     | Version:  2206                                  |
|   \\  /    A nd           | Website:  www.openfoam.com                      |
|    \\/     M anipulation  |                                                 |
\*---------------------------------------------------------------------------*/
FoamFile
{
    version     2.0;
    format      ascii;
    arch        "LSB;label=32;scalar=64";
    class       volScalarField;
    location    "100";
    object      magR;
}
// * * * * * * * * * * * * * * * * * * * * * * * * * * * * * * * * * * * * * //

dimensions      [0 2 -2 0 0 0 0];

internalField   nonuniform List<scalar> 
10720
(
0.0173672
0.0204261
0.0243726
0.029716
0.0361231
0.0443349
0.0549062
0.0681004
0.0849064
0.106343
0.133811
0.169943
0.218947
0.28621
0.380877
0.519288
0.725934
1.05488
1.57188
2.52243
4.03229
7.62138
13.3143
32.0653
54.8327
62.1681
61.1542
59.387
58.1842
56.7948
54.6076
51.4966
47.6767
43.2256
38.0179
32.1334
24.6233
17.5449
4.0106
0.0146413
0.0124155
0.00998841
0.00790352
0.00597945
0.00439222
0.00347791
0.00386591
0.00517906
0.00746519
0.0109441
0.0160015
0.0232173
0.0333859
0.0475322
0.0674184
0.0961398
0.139324
0.207381
0.318453
0.511126
0.849262
1.51018
2.74957
5.57743
11.2108
25.4664
47.1911
61.7948
67.3036
68.6623
68.7157
68.1301
67.0153
65.4281
63.4531
60.6576
57.4862
47.2351
0.00332714
0.00332407
0.00329323
0.0032088
0.00307615
0.00291722
0.00272551
0.00250735
0.00228693
0.00206574
0.00185423
0.00167125
0.00150767
0.00143892
0.00156614
0.00203427
0.00336754
0.00675563
0.0146966
0.0366487
0.0918274
0.280148
0.740508
2.29741
5.86886
10.3388
15.0617
19.2984
22.0353
22.3751
20.4297
17.5706
14.8328
12.6087
10.9068
9.58246
8.65604
7.64618
8.45231
0.00328663
0.003229
0.00313546
0.00299561
0.00279583
0.00254982
0.00231323
0.00206308
0.00179911
0.00154488
0.00131562
0.00111344
0.000935794
0.000780424
0.000647027
0.00053495
0.000440192
0.000360486
0.000290446
0.00022588
0.000160801
9.54771e-05
3.84695e-05
9.8813e-06
0.000269862
0.00347381
0.0222614
0.137234
0.385079
0.692299
0.99432
1.25194
1.46068
1.63776
1.79937
1.96397
2.1384
2.5325
3.45789
0.00226506
0.00223709
0.00217782
0.00209084
0.00199798
0.00189416
0.00178631
0.00168702
0.00159947
0.00152895
0.00147476
0.00143604
0.00140925
0.00139854
0.00140447
0.00142421
0.00135873
0.00119199
0.000420712
0.000223495
0.00264268
0.0180505
0.000428123
0.000313828
0.00253213
0.055574
0.268005
0.87855
2.30469
4.90342
8.39678
11.5623
13.1806
13.0775
11.9903
10.592
9.43874
7.96952
9.05203
0.00228713
0.00229117
0.00228677
0.00224421
0.00215247
0.00200897
0.00184406
0.0016824
0.00150165
0.00130054
0.00109573
0.000904109
0.000734194
0.000588788
0.000471492
0.000380128
0.000311902
0.00026256
0.000228675
0.000206088
0.000191989
0.000184745
0.000183284
0.000186037
0.000190454
0.000192684
0.000194221
0.000127256
0.00164366
0.00760428
0.018955
0.039848
0.0912083
0.184765
0.3147
0.466197
0.623103
0.730705
1.20601
0.00186098
0.00186428
0.00185503
0.00183843
0.00180719
0.00176088
0.0017032
0.00163185
0.0015503
0.00146022
0.00136373
0.00126416
0.00116387
0.00106172
0.000959147
0.000854982
0.000742626
0.000630868
0.000520102
0.000392608
0.000289044
2.59675e-05
3.55695e-05
2.39983e-05
0.00333312
0.0159923
0.0392089
0.0754693
0.00644598
0.0195119
0.182823
1.04452
3.07074
5.92771
8.4083
9.61477
9.85848
9.03516
9.74497
0.00184419
0.00181958
0.00178037
0.00172713
0.00165207
0.00155787
0.001456
0.00134058
0.00120951
0.00107157
0.000937154
0.000813836
0.000704126
0.000608411
0.000527305
0.000459325
0.000403398
0.000357745
0.000321169
0.000291363
0.000267113
0.000246574
0.000227841
0.000207501
0.00018617
0.000168732
0.000155212
0.000147598
0.000124382
0.000143052
2.51903e-05
3.18665e-05
0.000507246
0.000752769
0.0047316
0.0206857
0.0607732
0.142075
0.489441
0.00142174
0.00141688
0.00140441
0.00138304
0.00135167
0.0013095
0.00125828
0.00119887
0.00113313
0.00106456
0.00099554
0.000928831
0.000866735
0.000811131
0.000762997
0.000724327
0.000692936
0.000660843
0.000620696
0.0005688
0.000482167
0.0003677
9.16788e-05
1.56605e-05
6.64673e-06
2.6618e-09
0
0
0.00170784
0.0208845
0.0697057
0.0244667
0.0664751
0.315238
1.82353
4.60105
7.42582
8.87957
10.0229
0.00141907
0.00141019
0.00139058
0.00135585
0.00130462
0.00123952
0.00116868
0.00108833
0.000997009
0.000899376
0.000799711
0.000702324
0.000610043
0.000524626
0.000447928
0.000380846
0.000323686
0.000276165
0.000237763
0.000207221
0.000183385
0.000164747
0.000149703
0.000135561
0.000120823
0.00010697
9.64849e-05
9.0057e-05
8.80963e-05
8.34477e-05
9.34026e-05
1.0213e-06
0.000239173
0.000976353
0.000696006
0.000479502
0.00134656
0.0045456
0.0921472
0.00115478
0.00115788
0.00115629
0.00115046
0.00113836
0.00111944
0.00109431
0.0010624
0.00102428
0.000980977
0.00093294
0.000881242
0.000826976
0.000771004
0.000714298
0.000658024
0.000600574
0.000538359
0.000474922
0.000415773
0.000361833
0.000320525
0.000258279
0.000170889
8.38626e-05
2.95634e-08
5.25137e-06
2.83813e-06
1.11672e-07
0
0
0.00485138
0.0357464
0.0234044
0.0849168
0.511333
2.93168
6.63584
9.40462
0.00114576
0.00113299
0.00111369
0.0010845
0.00104605
0.00100023
0.000950145
0.000892505
0.000826981
0.000756623
0.000684017
0.000612178
0.000543457
0.000479344
0.000421158
0.000369792
0.00032548
0.00028798
0.000256797
0.000231046
0.00020972
0.000191532
0.000175038
0.000158167
0.000140006
0.000122301
0.000106716
9.36362e-05
8.26967e-05
7.35388e-05
6.54387e-05
5.69585e-05
4.44105e-05
2.03309e-05
1.10618e-06
5.41733e-05
0.000230429
0.00106053
0.0102955
0.000936272
0.000939679
0.000939862
0.000936557
0.00092876
0.000915638
0.000897379
0.000873615
0.000844513
0.000810803
0.000773035
0.000732112
0.000689195
0.000645229
0.000601419
0.000558739
0.000518484
0.000482511
0.000448962
0.000415
0.000379802
0.00034561
0.000317357
0.000281686
0.000239893
0.000178286
0.000111672
5.28431e-05
1.71606e-06
3.46775e-06
1.37935e-07
0
0
0.00367641
0.00013795
0.0528123
0.300046
3.14136
7.46996
0.000928261
0.000917933
0.000903143
0.000880371
0.000851595
0.000818642
0.00078202
0.000739741
0.000692198
0.000641018
0.000587536
0.00053346
0.000480285
0.00042908
0.00038092
0.000336723
0.000297007
0.000262033
0.00023184
0.000206103
0.000184318
0.0001657
0.000149208
0.000133314
0.000117072
0.000101383
8.75348e-05
7.60102e-05
6.65951e-05
5.91799e-05
5.39149e-05
5.06317e-05
4.81714e-05
4.167e-05
2.75039e-05
1.50537e-05
1.72735e-06
1.21241e-07
0.000356887
0.000772453
0.000777481
0.000780332
0.00078083
0.000778443
0.000772366
0.00076276
0.000749155
0.000731483
0.000710129
0.000685104
0.000656876
0.000625986
0.000592857
0.000558108
0.000522278
0.00048607
0.000448763
0.00040969
0.000370669
0.000333817
0.000300578
0.00027278
0.000250957
0.000229814
0.000209595
0.000180804
0.000147624
0.000104118
6.50491e-05
2.51698e-06
2.08946e-06
0
0
3.45104e-06
0.0116389
0.0106685
0.733604
4.60304
0.000764018
0.000754587
0.000742367
0.000724161
0.00070218
0.000677727
0.000650261
0.000618644
0.000583568
0.000545822
0.000506029
0.000465321
0.000424683
0.000384871
0.00034672
0.000311078
0.000278474
0.000249298
0.000223696
0.000201507
0.000182327
0.00016552
0.000150214
0.000135241
0.000119906
0.000104897
9.12185e-05
7.92217e-05
6.86762e-05
5.93754e-05
5.12733e-05
4.41554e-05
3.79371e-05
3.26097e-05
2.8959e-05
2.54141e-05
1.75879e-05
1.80619e-06
2.74369e-05
0.000642358
0.000647559
0.000651265
0.000653206
0.000653162
0.000650403
0.000644938
0.000636335
0.000624466
0.000609417
0.000591171
0.000569959
0.000546132
0.000520042
0.000492222
0.000463214
0.000433438
0.000403694
0.000374718
0.000346416
0.000318663
0.000291712
0.000266229
0.000242914
0.000220471
0.000198933
0.000178138
0.000159398
0.000141906
0.000125558
9.26556e-05
4.20533e-05
4.13988e-06
3.39775e-07
0
0
0.00519819
0.105695
2.07051
0.000634789
0.000626847
0.000617003
0.000602542
0.000585516
0.000566774
0.000545697
0.000521674
0.000495371
0.000467163
0.000437322
0.000406495
0.000375296
0.00034419
0.00031373
0.000284543
0.000257139
0.000231891
0.000209048
0.000188654
0.000170547
0.000154337
0.000139427
0.000125024
0.000110629
9.66469e-05
8.38796e-05
7.27043e-05
6.30113e-05
5.46339e-05
4.75702e-05
4.19034e-05
3.75223e-05
3.43438e-05
3.2387e-05
3.23363e-05
3.38176e-05
3.30819e-05
1.21494e-06
0.000539406
0.000544481
0.000548662
0.000551594
0.000553168
0.000552872
0.000550607
0.000546013
0.00053894
0.000529369
0.000517167
0.000502431
0.000485329
0.000466038
0.000444858
0.000422104
0.000398143
0.000373402
0.000347654
0.000321252
0.000295213
0.000270487
0.000247682
0.00022667
0.000206273
0.000185436
0.00016493
0.000146612
0.000132547
0.00012186
0.000116721
0.000101439
7.14503e-05
7.03328e-06
7.00013e-07
0
5.02016e-07
0.000774393
0.683667
0.000532747
0.000526074
0.000517989
0.000506315
0.000492892
0.000478203
0.000461708
0.000443163
0.000423131
0.000401745
0.000379126
0.000355657
0.000331662
0.000307393
0.000283247
0.000259681
0.000237091
0.000215859
0.000196232
0.000178341
0.00016214
0.000147377
0.000133622
0.00012033
0.000107114
9.42574e-05
8.23774e-05
7.17955e-05
6.24319e-05
5.4131e-05
4.68482e-05
4.05543e-05
3.51848e-05
3.0864e-05
2.7546e-05
2.66067e-05
2.54911e-05
4.06075e-05
1.63301e-05
0.000456599
0.000461251
0.000465414
0.000468695
0.000471034
0.000472067
0.000471611
0.000469445
0.000465336
0.00045924
0.000450979
0.000440554
0.000428019
0.000413442
0.000397022
0.000379004
0.000359622
0.000339272
0.000318255
0.000296925
0.000275623
0.0002548
0.000234839
0.000215795
0.000197036
0.000177788
0.000158388
0.00014029
0.00012517
0.000113055
0.000105581
0.000100934
9.76093e-05
8.17587e-05
1.16904e-05
1.96852e-07
0
0.00311532
0.2155
0.000450921
0.000445323
0.000438619
0.000429054
0.000418317
0.000406588
0.000393462
0.000378951
0.000363469
0.00034707
0.000329746
0.000311734
0.000293205
0.000274272
0.000255146
0.000236146
0.000217559
0.000199682
0.000182779
0.000166996
0.000152355
0.000138738
0.00012588
0.000113427
0.000101135
8.92123e-05
7.81239e-05
6.81726e-05
5.93451e-05
5.15459e-05
4.47563e-05
3.90243e-05
3.43216e-05
3.07105e-05
2.80817e-05
2.74305e-05
2.66689e-05
3.57326e-05
4.24572e-05
0.000389411
0.000393594
0.000397552
0.000400879
0.000403604
0.000405407
0.000406143
0.000405592
0.00040357
0.000400007
0.000394714
0.000387643
0.000378776
0.000368123
0.000355769
0.000341852
0.000326546
0.000310131
0.000292806
0.000274645
0.000256089
0.000237798
0.000220147
0.00020318
0.000186411
0.000169266
0.000151917
0.000135453
0.000121077
0.000109089
9.93818e-05
9.2642e-05
8.79828e-05
9.40837e-05
8.23576e-05
2.35755e-06
1.70507e-09
0.00131743
0.084474
0.000384552
0.000379729
0.000374062
0.000366123
0.00035744
0.00034794
0.000337383
0.000325911
0.000313803
0.000301065
0.000287678
0.00027376
0.000259385
0.000244562
0.00022943
0.000214173
0.000198972
0.000184067
0.000169661
0.000155929
0.000142945
0.000130659
0.000118902
0.000107452
9.61929e-05
8.5267e-05
7.50329e-05
6.57498e-05
5.74376e-05
5.0027e-05
4.34974e-05
3.7862e-05
3.30944e-05
2.92831e-05
2.64171e-05
2.53227e-05
2.48734e-05
3.04512e-05
4.59268e-05
0.000334211
0.000337948
0.000341624
0.000344841
0.000347668
0.000349843
0.000351257
0.00035171
0.000351033
0.000349157
0.000345904
0.000341203
0.000334997
0.000327235
0.00031796
0.000307239
0.000295181
0.000281951
0.000267817
0.000252879
0.000237404
0.000221874
0.000206557
0.000191521
0.000176485
0.000161093
0.000145513
0.000130628
0.000117417
0.000106254
9.67663e-05
8.90759e-05
8.25564e-05
8.00305e-05
9.19971e-05
6.26379e-05
5.06423e-08
0.000626296
0.0365024
0.000329982
0.00032572
0.000320847
0.000314202
0.00030711
0.000299356
0.00029081
0.00028166
0.000272106
0.000262134
0.000251705
0.000240868
0.000229651
0.000218032
0.000206034
0.000193781
0.000181386
0.000169012
0.000156814
0.00014494
0.000133479
0.000122431
0.00011171
0.000101208
9.0879e-05
8.08496e-05
7.13914e-05
6.27342e-05
5.49282e-05
4.79387e-05
4.17624e-05
3.64278e-05
3.19478e-05
2.83862e-05
2.57241e-05
2.4611e-05
2.42051e-05
2.82503e-05
4.21433e-05
0.000288335
0.000291691
0.000295081
0.000298127
0.000300933
0.00030329
0.000305079
0.000306149
0.000306364
0.000305637
0.000303831
0.000300845
0.00029663
0.000291118
0.000284292
0.000276166
0.000266797
0.000256288
0.000244873
0.000232569
0.000219574
0.000206311
0.000193043
0.000179845
0.000166521
0.000152829
0.000138923
0.000125517
0.000113457
0.000103131
9.43747e-05
8.69231e-05
8.09507e-05
7.47315e-05
7.59141e-05
0.000100008
2.82113e-06
0.000188636
0.0133185
0.000284544
0.000280713
0.000276479
0.0002709
0.000265044
0.00025869
0.000251739
0.000244414
0.000236822
0.000228959
0.000220777
0.0002123
0.000203514
0.000194363
0.000184852
0.000175023
0.000164934
0.0001547
0.000144433
0.000134246
0.000124214
0.000114375
0.0001047
9.51628e-05
8.57657e-05
7.66163e-05
6.79339e-05
5.9914e-05
5.26223e-05
4.60491e-05
4.01995e-05
3.50985e-05
3.07595e-05
2.72471e-05
2.45609e-05
2.331e-05
2.27511e-05
2.61427e-05
3.7915e-05
0.000249784
0.000252824
0.000255953
0.000258806
0.000261528
0.000263945
0.000265922
0.000267364
0.000268152
0.000268198
0.000267394
0.000265651
0.000262893
0.000259052
0.000254081
0.000247978
0.000240768
0.000232491
0.000223336
0.000213323
0.000202577
0.000191402
0.000180042
0.000168562
0.000156841
0.000144723
0.000132353
0.000120311
0.00010932
9.97622e-05
9.1633e-05
8.46685e-05
7.90916e-05
7.44678e-05
6.71612e-05
9.02195e-05
3.80276e-05
1.91985e-05
0.00349659
0.000246324
0.000242854
0.000239165
0.00023447
0.000229593
0.000224367
0.000218701
0.000212803
0.000206747
0.000200517
0.000194074
0.000187403
0.000180491
0.000173272
0.000165713
0.000157834
0.000149645
0.000141205
0.000132592
0.000123889
0.000115172
0.000106483
9.7822e-05
8.91947e-05
8.06621e-05
7.23347e-05
6.43843e-05
5.69743e-05
5.01821e-05
4.40193e-05
3.85018e-05
3.36638e-05
2.95294e-05
2.6158e-05
2.35481e-05
2.2235e-05
2.15525e-05
2.42284e-05
3.41998e-05
0.000217099
0.000219881
0.000222761
0.000225429
0.000228045
0.000230445
0.000232514
0.000234176
0.000235329
0.000235902
0.000235797
0.000234929
0.000233241
0.000230652
0.000227129
0.000222629
0.000217154
0.000210714
0.000203436
0.000195356
0.000186526
0.000177158
0.000167493
0.000157595
0.000147369
0.00013672
0.000125783
0.00011503
0.00010507
9.62697e-05
8.86892e-05
8.2234e-05
7.67145e-05
7.35146e-05
6.61198e-05
7.2923e-05
7.91919e-05
1.03537e-06
0.000544089
0.000213947
0.000210807
0.000207602
0.000203641
0.000199547
0.000195213
0.000190571
0.000185799
0.000180944
0.00017599
0.000170893
0.000165637
0.000160189
0.000154477
0.000148468
0.000142139
0.000135496
0.000128553
0.000121359
0.000113968
0.000106438
9.88109e-05
9.1106e-05
8.33656e-05
7.56689e-05
6.81255e-05
6.0875e-05
5.40593e-05
4.77597e-05
4.20027e-05
3.68129e-05
3.22292e-05
2.82755e-05
2.50078e-05
2.24323e-05
2.10282e-05
2.02288e-05
2.22898e-05
3.07993e-05
0.00018922
0.000191767
0.00019441
0.000196904
0.000199392
0.000201732
0.000203823
0.000205604
0.000206978
0.000207895
0.000208272
0.000208034
0.000207137
0.0002055
0.000203076
0.000199821
0.000195718
0.000190766
0.000185027
0.000178572
0.000171388
0.000163612
0.000155465
0.000147008
0.000138166
0.000128876
0.000119265
0.000109717
0.000100742
9.26914e-05
8.56454e-05
7.96597e-05
7.43524e-05
7.11579e-05
6.68488e-05
6.23982e-05
9.19179e-05
1.42629e-06
7.53971e-06
0.000186384
0.000183575
0.000180786
0.000177431
0.000173963
0.000170334
0.000166504
0.00016262
0.000158707
0.000154749
0.000150705
0.000146545
0.000142237
0.000137716
0.000132931
0.000127857
0.000122469
0.000116775
0.000110786
0.000104539
9.80711e-05
9.14158e-05
8.46027e-05
7.76936e-05
7.07828e-05
6.39698e-05
5.73799e-05
5.11335e-05
4.53103e-05
3.99494e-05
3.50822e-05
3.07522e-05
2.6987e-05
2.38388e-05
2.13174e-05
1.98421e-05
1.89388e-05
2.04448e-05
2.76384e-05
0.000165353
0.000167666
0.00017008
0.000172405
0.000174744
0.000176998
0.000179057
0.000180882
0.000182388
0.000183532
0.000184241
0.00018446
0.000184133
0.000183198
0.000181611
0.000179324
0.000176312
0.000172558
0.000168085
0.000162976
0.000157182
0.000150782
0.00014397
0.000136805
0.000129226
0.000121187
0.000112799
0.000104377
9.63423e-05
8.90281e-05
8.25287e-05
7.6958e-05
7.20562e-05
6.84407e-05
6.62196e-05
5.91483e-05
8.25799e-05
1.40822e-05
1.11925e-06
0.000162835
0.000160351
0.000157919
0.000155054
0.000152097
0.000149022
0.000145836
0.000142645
0.000139469
0.000136286
0.000133064
0.000129764
0.000126351
0.000122763
0.00011895
0.000114877
0.000110514
0.000105849
0.00010088
9.56179e-05
9.00916e-05
8.43272e-05
7.83484e-05
7.22127e-05
6.60241e-05
5.98968e-05
5.39311e-05
4.82292e-05
4.2867e-05
3.78919e-05
3.33407e-05
2.92596e-05
2.56778e-05
2.26435e-05
2.01701e-05
1.86255e-05
1.7626e-05
1.86685e-05
2.46972e-05
0.000144865
0.000146942
0.000149145
0.000151285
0.000153474
0.000155609
0.000157606
0.000159417
0.000160984
0.000162262
0.00016319
0.000163716
0.000163805
0.000163393
0.000162446
0.000160912
0.00015876
0.000155971
0.000152538
0.000148536
0.000143905
0.000138687
0.00013304
0.00012702
0.000120578
0.000113673
0.000106402
9.90219e-05
9.18805e-05
8.52796e-05
7.93347e-05
7.41556e-05
6.96861e-05
6.59137e-05
6.4155e-05
5.8991e-05
6.7452e-05
4.74324e-05
1.37208e-05
0.000142653
0.00014047
0.000138339
0.000135876
0.000133333
0.000130705
0.000128027
0.000125383
0.000122781
0.000120205
0.000117622
0.00011499
0.000112276
0.000109421
0.000106377
0.000103107
9.95757e-05
9.57587e-05
9.16454e-05
8.72358e-05
8.25352e-05
7.75596e-05
7.23328e-05
6.69178e-05
6.14151e-05
5.59266e-05
5.05437e-05
4.53553e-05
4.0434e-05
3.58307e-05
3.15863e-05
2.77483e-05
2.43484e-05
2.14299e-05
1.90087e-05
1.74056e-05
1.63194e-05
1.69669e-05
2.19673e-05
0.00012723
0.000129083
0.000131078
0.000133038
0.000135062
0.000137065
0.000138963
0.000140728
0.000142299
0.00014364
0.000144704
0.000145444
0.00014583
0.00014581
0.000145343
0.00014439
0.000142913
0.000140891
0.0001383
0.000135206
0.000131549
0.000127342
0.000122702
0.000117686
0.000112253
0.000106369
0.00010011
9.36856e-05
8.7381e-05
8.14626e-05
7.60648e-05
7.12783e-05
6.7181e-05
6.35654e-05
6.15002e-05
5.87775e-05
5.81139e-05
6.12757e-05
3.67173e-05
0.000125297
0.000123376
0.0001215
0.00011937
0.000117166
0.000114907
0.000112635
0.000110421
0.00010827
0.000106166
0.000104079
0.000101969
9.97987e-05
9.75215e-05
9.50856e-05
9.24558e-05
8.95966e-05
8.64785e-05
8.30787e-05
7.93902e-05
7.54111e-05
7.11431e-05
6.65998e-05
6.18429e-05
5.6969e-05
5.20692e-05
4.7229e-05
4.25253e-05
3.80249e-05
3.37795e-05
2.98325e-05
2.62313e-05
2.30094e-05
2.02056e-05
1.78366e-05
1.61823e-05
1.50181e-05
1.53419e-05
1.94558e-05
0.000111999
0.000113651
0.000115448
0.000117232
0.000119089
0.000120947
0.000122728
0.000124415
0.000125953
0.000127308
0.000128443
0.000129319
0.000129906
0.000130163
0.000130054
0.000129544
0.000128593
0.00012718
0.000125276
0.00012293
0.000120083
0.000116735
0.000112961
0.000108821
0.000104281
9.93047e-05
9.39537e-05
8.83971e-05
8.28695e-05
7.75996e-05
7.27307e-05
6.83433e-05
6.45601e-05
6.12409e-05
5.88054e-05
5.75392e-05
5.38034e-05
5.89945e-05
5.17348e-05
0.000110309
0.000108611
0.000106951
0.000105099
0.000103181
0.000101228
9.92884e-05
9.74208e-05
9.5627e-05
9.38936e-05
9.21902e-05
9.04817e-05
8.87371e-05
8.69102e-05
8.49553e-05
8.28353e-05
8.05162e-05
7.79689e-05
7.51658e-05
7.20898e-05
6.87282e-05
6.50821e-05
6.1156e-05
5.69983e-05
5.26939e-05
4.83363e-05
4.40008e-05
3.97524e-05
3.56508e-05
3.17476e-05
2.80867e-05
2.47144e-05
2.16664e-05
1.8977e-05
1.66618e-05
1.49655e-05
1.37313e-05
1.37887e-05
1.71452e-05
9.87938e-05
0.000100267
0.000101886
0.000103499
0.000105197
0.000106906
0.000108563
0.000110154
0.000111629
0.000112962
0.000114119
0.000115068
0.000115787
0.000116237
0.000116392
0.000116214
0.000115672
0.000114742
0.00011339
0.000111646
0.000109472
0.000106846
0.000103813
0.00010043
9.66729e-05
9.25007e-05
8.79592e-05
8.31863e-05
7.83731e-05
7.37125e-05
6.93482e-05
6.53599e-05
6.18644e-05
5.88527e-05
5.6238e-05
5.54579e-05
5.17191e-05
5.33234e-05
5.55496e-05
9.73076e-05
9.57974e-05
9.43225e-05
9.2705e-05
9.10296e-05
8.93386e-05
8.76755e-05
8.60888e-05
8.45806e-05
8.31379e-05
8.17395e-05
8.0347e-05
7.89326e-05
7.74569e-05
7.58777e-05
7.41638e-05
7.228e-05
7.01947e-05
6.78821e-05
6.53204e-05
6.24926e-05
5.93865e-05
5.60029e-05
5.23821e-05
4.86021e-05
4.47436e-05
4.08731e-05
3.70483e-05
3.33218e-05
2.97431e-05
2.63562e-05
2.32051e-05
2.03244e-05
1.77484e-05
1.54883e-05
1.37594e-05
1.24655e-05
1.23105e-05
1.50312e-05
8.72968e-05
8.86158e-05
9.00735e-05
9.15319e-05
9.3079e-05
9.46437e-05
9.61755e-05
9.76591e-05
9.90565e-05
0.000100341
0.000101489
0.000102469
0.000103266
0.000103845
0.000104184
0.000104251
0.000104018
0.00010346
0.000102547
0.000101288
9.96704e-05
9.7647e-05
9.52439e-05
9.25149e-05
8.94391e-05
8.59728e-05
8.21485e-05
7.80785e-05
7.39166e-05
6.98245e-05
6.59365e-05
6.23362e-05
5.91183e-05
5.63793e-05
5.37788e-05
5.29332e-05
5.01397e-05
4.86192e-05
5.31757e-05
8.59772e-05
8.46316e-05
8.33191e-05
8.18962e-05
8.04314e-05
7.89664e-05
7.75335e-05
7.61803e-05
7.49049e-05
7.36961e-05
7.25353e-05
7.13904e-05
7.02343e-05
6.90359e-05
6.77554e-05
6.63609e-05
6.48241e-05
6.31147e-05
6.1205e-05
5.90718e-05
5.66957e-05
5.40583e-05
5.11535e-05
4.80137e-05
4.47053e-05
4.13005e-05
3.78547e-05
3.44219e-05
3.10471e-05
2.77759e-05
2.46507e-05
2.17124e-05
1.89925e-05
1.65278e-05
1.43248e-05
1.25725e-05
1.12272e-05
1.09066e-05
1.31073e-05
7.72488e-05
7.84348e-05
7.97488e-05
8.10702e-05
8.24747e-05
8.39055e-05
8.53137e-05
8.66902e-05
8.79984e-05
8.92207e-05
9.03326e-05
9.13136e-05
9.21449e-05
9.28048e-05
9.32702e-05
9.35138e-05
9.35123e-05
9.3239e-05
9.26716e-05
9.18014e-05
9.06291e-05
8.91051e-05
8.72342e-05
8.50651e-05
8.25754e-05
7.97244e-05
7.65333e-05
7.30911e-05
6.95191e-05
6.59534e-05
6.25132e-05
5.92858e-05
5.63405e-05
5.38358e-05
5.13656e-05
5.02585e-05
4.83689e-05
4.52876e-05
4.87886e-05
7.60647e-05
7.48681e-05
7.36987e-05
7.24424e-05
7.11615e-05
6.98887e-05
6.86507e-05
6.74899e-05
6.6405e-05
6.53856e-05
6.44176e-05
6.34703e-05
6.25197e-05
6.15371e-05
6.04888e-05
5.93499e-05
5.80918e-05
5.66861e-05
5.51064e-05
5.33303e-05
5.13357e-05
4.91005e-05
4.66133e-05
4.38975e-05
4.10095e-05
3.80114e-05
3.49559e-05
3.18842e-05
2.8837e-05
2.58555e-05
2.29785e-05
2.02439e-05
1.76825e-05
1.53282e-05
1.31844e-05
1.14168e-05
1.00281e-05
9.57534e-06
1.1356e-05
6.84386e-05
6.95089e-05
7.06947e-05
7.18943e-05
7.31699e-05
7.44762e-05
7.57674e-05
7.70381e-05
7.82574e-05
7.94072e-05
8.04713e-05
8.14297e-05
8.2269e-05
8.29715e-05
8.35158e-05
8.38831e-05
8.40493e-05
8.39916e-05
8.36895e-05
8.31274e-05
8.23131e-05
8.11928e-05
7.97635e-05
7.80641e-05
7.6077e-05
7.376e-05
7.11243e-05
6.82383e-05
6.51981e-05
6.21144e-05
5.90931e-05
5.62192e-05
5.3543e-05
5.12453e-05
4.89571e-05
4.75949e-05
4.62613e-05
4.28104e-05
4.43664e-05
6.73724e-05
6.63084e-05
6.52679e-05
6.41553e-05
6.30322e-05
6.19221e-05
6.08495e-05
5.98508e-05
5.89229e-05
5.80588e-05
5.72453e-05
5.64542e-05
5.56653e-05
5.48564e-05
5.39956e-05
5.30586e-05
5.20226e-05
5.08619e-05
4.95527e-05
4.80705e-05
4.63951e-05
4.45024e-05
4.23774e-05
4.0035e-05
3.75227e-05
3.48903e-05
3.21871e-05
2.94455e-05
2.67013e-05
2.39903e-05
2.13478e-05
1.88079e-05
1.64018e-05
1.41564e-05
1.20743e-05
1.02994e-05
8.87363e-06
8.31912e-06
9.77137e-06
6.06945e-05
6.16637e-05
6.27348e-05
6.38224e-05
6.49824e-05
6.61731e-05
6.73557e-05
6.85245e-05
6.96559e-05
7.07308e-05
7.17386e-05
7.26606e-05
7.34889e-05
7.42053e-05
7.47962e-05
7.52449e-05
7.55301e-05
7.56323e-05
7.55317e-05
7.52122e-05
7.46803e-05
7.38879e-05
7.28217e-05
7.15165e-05
6.9953e-05
6.80914e-05
6.59352e-05
6.35365e-05
6.0971e-05
5.83258e-05
5.56914e-05
5.31489e-05
5.07368e-05
4.86232e-05
4.65336e-05
4.49963e-05
4.38876e-05
4.06991e-05
4.05361e-05
5.97363e-05
5.87913e-05
5.7866e-05
5.68784e-05
5.58898e-05
5.49177e-05
5.39846e-05
5.31202e-05
5.23232e-05
5.15861e-05
5.08988e-05
5.02342e-05
4.95751e-05
4.89033e-05
4.81917e-05
4.74174e-05
4.65602e-05
4.55969e-05
4.45084e-05
4.3271e-05
4.1863e-05
4.02593e-05
3.84433e-05
3.6425e-05
3.42424e-05
3.19387e-05
2.95519e-05
2.71118e-05
2.46469e-05
2.21874e-05
1.97663e-05
1.74124e-05
1.51553e-05
1.30174e-05
1.10001e-05
9.22661e-06
7.76998e-06
7.13762e-06
8.34055e-06
5.38776e-05
5.47544e-05
5.57228e-05
5.6708e-05
5.7762e-05
5.88466e-05
5.99268e-05
6.10015e-05
6.20463e-05
6.30472e-05
6.39935e-05
6.48714e-05
6.56741e-05
6.63874e-05
6.70005e-05
6.74983e-05
6.78637e-05
6.80811e-05
6.81312e-05
6.79988e-05
6.76873e-05
6.7156e-05
6.63874e-05
6.54068e-05
6.41985e-05
6.27234e-05
6.09799e-05
5.90055e-05
5.68582e-05
5.46075e-05
5.2327e-05
5.00913e-05
4.79327e-05
4.59937e-05
4.40921e-05
4.24767e-05
4.13785e-05
3.86606e-05
3.73608e-05
5.30192e-05
5.21814e-05
5.13584e-05
5.04793e-05
4.96054e-05
4.87502e-05
4.79343e-05
4.71832e-05
4.64944e-05
4.58613e-05
4.52755e-05
4.47133e-05
4.41598e-05
4.35989e-05
4.30053e-05
4.2361e-05
4.16483e-05
4.08478e-05
3.99389e-05
3.89021e-05
3.77169e-05
3.63588e-05
3.4808e-05
3.30719e-05
3.11788e-05
2.91648e-05
2.70616e-05
2.48934e-05
2.26832e-05
2.04573e-05
1.8243e-05
1.60658e-05
1.39522e-05
1.19205e-05
9.97039e-06
8.206e-06
6.72366e-06
6.03184e-06
7.05667e-06
4.78709e-05
4.86613e-05
4.95365e-05
5.04273e-05
5.13838e-05
5.23711e-05
5.3356e-05
5.43418e-05
5.53031e-05
5.62314e-05
5.71151e-05
5.79439e-05
5.87111e-05
5.94084e-05
6.00244e-05
6.05477e-05
6.09659e-05
6.12623e-05
6.14238e-05
6.14323e-05
6.12929e-05
6.09673e-05
6.04377e-05
5.9721e-05
5.88062e-05
5.76573e-05
5.6265e-05
5.46575e-05
5.28768e-05
5.09767e-05
4.90177e-05
4.7065e-05
4.5143e-05
4.33723e-05
4.16417e-05
4.00304e-05
3.88411e-05
3.65651e-05
3.46994e-05
4.71029e-05
4.63612e-05
4.5629e-05
4.48452e-05
4.40695e-05
4.33147e-05
4.25968e-05
4.19401e-05
4.13407e-05
4.07928e-05
4.02898e-05
3.98103e-05
3.93411e-05
3.88698e-05
3.83724e-05
3.78331e-05
3.72372e-05
3.65674e-05
3.58063e-05
3.49355e-05
3.39353e-05
3.27839e-05
3.14597e-05
2.99664e-05
2.83261e-05
2.65674e-05
2.47165e-05
2.27934e-05
2.08157e-05
1.88051e-05
1.67842e-05
1.47749e-05
1.27997e-05
1.08732e-05
8.99324e-06
7.24527e-06
5.74086e-06
5.00186e-06
5.91021e-06
4.25715e-05
4.32833e-05
4.40714e-05
4.48766e-05
4.57425e-05
4.66386e-05
4.75362e-05
4.84372e-05
4.93197e-05
5.01763e-05
5.09979e-05
5.17744e-05
5.25028e-05
5.31746e-05
5.37811e-05
5.43139e-05
5.47615e-05
5.51107e-05
5.53506e-05
5.54633e-05
5.54539e-05
5.52889e-05
5.49476e-05
5.44457e-05
5.37706e-05
5.28905e-05
5.17943e-05
5.05008e-05
4.90391e-05
4.74493e-05
4.57786e-05
4.40838e-05
4.23858e-05
4.07723e-05
3.91967e-05
3.76411e-05
3.63446e-05
3.43882e-05
3.23508e-05
4.18858e-05
4.12294e-05
4.05772e-05
3.98766e-05
3.91865e-05
3.8518e-05
3.78835e-05
3.73058e-05
3.67805e-05
3.63032e-05
3.58677e-05
3.5455e-05
3.50538e-05
3.4654e-05
3.42341e-05
3.37797e-05
3.32791e-05
3.27166e-05
3.20764e-05
3.13425e-05
3.04978e-05
2.95196e-05
2.83875e-05
2.71027e-05
2.56812e-05
2.41476e-05
2.25208e-05
2.08176e-05
1.9051e-05
1.7238e-05
1.53974e-05
1.35468e-05
1.17052e-05
9.88292e-06
8.07641e-06
6.35228e-06
4.8284e-06
4.04832e-06
4.89465e-06
3.78904e-05
3.85307e-05
3.92392e-05
3.99655e-05
4.07486e-05
4.156e-05
4.23765e-05
4.31979e-05
4.40062e-05
4.47937e-05
4.55543e-05
4.62781e-05
4.69633e-05
4.76027e-05
4.81908e-05
4.87188e-05
4.91797e-05
4.95618e-05
4.98547e-05
5.00421e-05
5.01297e-05
5.0087e-05
4.98941e-05
4.95617e-05
4.90807e-05
4.8422e-05
4.7573e-05
4.65444e-05
4.53566e-05
4.40384e-05
4.26253e-05
4.11624e-05
3.96712e-05
3.82116e-05
3.67704e-05
3.53046e-05
3.39331e-05
3.21719e-05
3.0161e-05
3.72788e-05
3.66961e-05
3.6115e-05
3.54881e-05
3.48738e-05
3.42797e-05
3.37169e-05
3.3206e-05
3.2743e-05
3.23235e-05
3.19429e-05
3.15854e-05
3.124e-05
3.08971e-05
3.05393e-05
3.01536e-05
2.97309e-05
2.92563e-05
2.87155e-05
2.8095e-05
2.73794e-05
2.65465e-05
2.55776e-05
2.4472e-05
2.32415e-05
2.19036e-05
2.04753e-05
1.89683e-05
1.73926e-05
1.57606e-05
1.40875e-05
1.23871e-05
1.06742e-05
8.95659e-06
7.2275e-06
5.53522e-06
3.99352e-06
3.17163e-06
4.00577e-06
3.375e-05
3.43251e-05
3.49618e-05
3.56156e-05
3.63228e-05
3.70571e-05
3.77973e-05
3.85448e-05
3.92832e-05
4.00048e-05
4.07053e-05
4.13763e-05
4.20163e-05
4.26199e-05
4.31825e-05
4.36983e-05
4.41597e-05
4.45574e-05
4.48831e-05
4.51229e-05
4.52803e-05
4.533e-05
4.52521e-05
4.50529e-05
4.47259e-05
4.42464e-05
4.36011e-05
4.27941e-05
4.18391e-05
4.0756e-05
3.957e-05
3.83165e-05
3.70129e-05
3.57011e-05
3.43807e-05
3.302e-05
3.16209e-05
2.99648e-05
2.80531e-05
3.32033e-05
3.26843e-05
3.21663e-05
3.16062e-05
3.10585e-05
3.05298e-05
3.00296e-05
2.95758e-05
2.91653e-05
2.87943e-05
2.84598e-05
2.8146e-05
2.78452e-05
2.75497e-05
2.72428e-05
2.69133e-05
2.65533e-05
2.615e-05
2.56916e-05
2.51654e-05
2.45571e-05
2.38469e-05
2.30164e-05
2.20635e-05
2.0998e-05
1.98317e-05
1.85786e-05
1.72468e-05
1.58431e-05
1.43769e-05
1.28592e-05
1.13014e-05
9.71304e-06
8.10037e-06
6.45342e-06
4.80213e-06
3.24385e-06
2.37161e-06
3.24197e-06
3.00816e-05
3.05985e-05
3.117e-05
3.17583e-05
3.2396e-05
3.30595e-05
3.37298e-05
3.44083e-05
3.50809e-05
3.574e-05
3.6383e-05
3.70021e-05
3.75966e-05
3.81624e-05
3.86953e-05
3.9191e-05
3.96434e-05
4.00448e-05
4.03888e-05
4.06638e-05
4.0869e-05
4.09871e-05
4.09947e-05
4.08981e-05
4.06926e-05
4.03572e-05
3.98772e-05
3.92541e-05
3.84951e-05
3.76127e-05
3.66247e-05
3.55566e-05
3.44238e-05
3.3252e-05
3.20437e-05
3.07858e-05
2.94107e-05
2.78195e-05
2.60097e-05
2.95914e-05
2.91286e-05
2.86665e-05
2.81662e-05
2.76781e-05
2.72074e-05
2.67619e-05
2.6358e-05
2.59928e-05
2.56628e-05
2.5366e-05
2.50894e-05
2.48255e-05
2.45679e-05
2.43019e-05
2.40186e-05
2.37104e-05
2.33663e-05
2.29757e-05
2.25279e-05
2.20093e-05
2.1402e-05
2.06889e-05
1.98675e-05
1.89439e-05
1.79275e-05
1.68281e-05
1.56523e-05
1.44037e-05
1.30893e-05
1.17162e-05
1.02928e-05
8.82553e-06
7.31858e-06
5.75995e-06
4.16153e-06
2.59206e-06
1.64717e-06
2.60635e-06
2.68262e-05
2.7291e-05
2.78038e-05
2.83333e-05
2.8908e-05
2.9507e-05
3.01133e-05
3.07287e-05
3.13397e-05
3.19406e-05
3.25288e-05
3.30977e-05
3.36468e-05
3.41734e-05
3.46737e-05
3.51451e-05
3.55821e-05
3.5979e-05
3.63294e-05
3.66235e-05
3.68591e-05
3.70244e-05