/*--------------------------------*- C++ -*----------------------------------*\
| =========                 |                                                 |
| \\      /  F ield         | OpenFOAM: The Open Source CFD Toolbox           |
|  \\    /   O peration     | Version:  2206                                  |
|   \\  /    A nd           | Website:  www.openfoam.com                      |
|    \\/     M anipulation  |                                                 |
\*---------------------------------------------------------------------------*/
FoamFile
{
    version     2.0;
    format      ascii;
    arch        "LSB;label=32;scalar=64";
    class       surfaceScalarField;
    location    "100";
    object      phi;
}
// * * * * * * * * * * * * * * * * * * * * * * * * * * * * * * * * * * * * * //

dimensions      [0 3 -1 0 0 0 0];

oriented        oriented;

internalField   nonuniform List<scalar> 
21254
(
-0.190818
0.211022
-0.0202029
0.233464
-0.0224432
0.253583
-0.020118
0.271967
-0.0183847
0.289562
-0.017595
0.30428
-0.0147178
0.316451
-0.0121712
0.326717
-0.010265
0.334182
-0.00746491
0.339729
-0.0055475
0.34352
-0.00379033
0.345403
-0.00188365
0.345649
-0.000246137
0.343799
0.0018501
0.339361
0.00443823
0.332303
0.00705798
0.322082
0.010221
0.308339
0.013743
0.290371
0.0179681
0.267768
0.0226029
0.239772
0.0279967
0.207518
0.0322535
0.174473
0.0330462
0.148731
0.0257415
0.137385
0.0113467
0.138894
-0.0015083
0.146401
-0.00750534
0.15469
-0.00828693
0.160979
-0.00628893
0.164295
-0.00331746
0.164159
0.000146185
0.160573
0.00358872
0.154235
0.00634542
0.145436
0.00881762
0.133746
0.011691
0.117928
0.0157987
0.0961567
0.0218244
0.0633474
0.0328183
0.0695524
-0.00612392
-0.167776
-0.0230426
-0.143664
-0.0241109
-0.114722
-0.0289425
-0.083485
-0.0312365
-0.0509537
-0.0325316
-0.0179219
-0.033032
0.0139719
-0.0318938
0.0439161
-0.0299438
0.0709716
-0.0270552
0.0944757
-0.0235037
0.114244
-0.0197679
0.130677
-0.0164325
0.14425
-0.0135729
0.155401
-0.0111508
0.164877
-0.00947588
0.17295
-0.00807277
0.180094
-0.00714417
0.186516
-0.00642121
0.192511
-0.00599502
0.198175
-0.0056634
0.203663
-0.00548801
0.208937
-0.00527407
0.213902
-0.00496625
0.217857
-0.00395707
0.220629
-0.00277442
0.222576
-0.00194881
0.223778
-0.00120303
0.224498
-0.000721535
0.224833
-0.000336114
0.224698
0.000131015
0.223889
0.000806748
0.222361
0.00152536
0.220113
0.00224328
0.217181
0.00292878
0.213475
0.00369928
0.20867
0.0048003
0.201831
0.00683077
0.18815
0.0136471
0.169615
0.0185542
-0.17414
0.195388
-0.0414495
0.217245
-0.0443012
0.240266
-0.0431381
0.261914
-0.0400336
0.283184
-0.0388641
0.303162
-0.0346958
0.321392
-0.0304008
0.338122
-0.0269941
0.352985
-0.0223286
0.366033
-0.0185949
0.377324
-0.0150815
0.386902
-0.0114615
0.395126
-0.00847044
0.402545
-0.00556852
0.409349
-0.00236599
0.415232
0.0011753
0.42002
0.0054334
0.423572
0.0101909
0.425035
0.0165055
0.423981
0.0236569
0.418951
0.0330276
0.408857
0.0423484
0.392535
0.0493692
0.370734
0.0475433
0.346635
0.0354473
0.322555
0.0225729
0.299179
0.0158729
0.277104
0.0137897
0.257092
0.0137245
0.239976
0.0138003
0.225932
0.0141991
0.214036
0.0154902
0.202509
0.0178812
0.190013
0.0213298
0.17553
0.0261868
0.157321
0.0340047
0.13425
0.0449437
0.09683
0.0702358
0.0742353
0.0164769
-0.152541
-0.0446422
-0.129404
-0.0472474
-0.102356
-0.0559902
-0.0738386
-0.0597542
-0.0436153
-0.0627552
-0.0120506
-0.064597
0.019342
-0.0632861
0.0483094
-0.058911
0.0744014
-0.0531469
0.0975293
-0.0466312
0.117555
-0.0397936
0.134837
-0.0337142
0.149754
-0.0284899
0.162528
-0.0239244
0.17365
-0.020597
0.183416
-0.0178387
0.192118
-0.0158458
0.200067
-0.0143701
0.207516
-0.0134437
0.214561
-0.012708
0.22136
-0.012287
0.227974
-0.0118884
0.23432
-0.0113135
0.239907
-0.00954633
0.244442
-0.00731231
0.248109
-0.00561804
0.250776
-0.00387265
0.252346
-0.00229301
0.252814
-0.000804596
0.252345
0.000595358
0.251166
0.00198299
0.249428
0.00325921
0.247158
0.00450837
0.244367
0.00571479
0.240981
0.00707666
0.236717
0.00905653
0.231575
0.0119602
0.221157
0.024032
0.204172
0.0355507
-0.16937
0.191105
-0.0631859
0.21314
-0.0663349
0.237012
-0.0670108
0.258978
-0.0619989
0.280058
-0.0599449
0.300362
-0.0549987
0.318614
-0.0486518
0.335179
-0.0435594
0.349627
-0.0367761
0.362155
-0.0311231
0.372772
-0.025699
0.38162
-0.0203095
0.388465
-0.0153152
0.393676
-0.0107795
0.396972
-0.00566227
0.399071
-0.000923538
0.400027
0.00447754
0.400598
0.00961955
0.401024
0.01608
0.401927
0.0227533
0.403853
0.0311023
0.40665
0.0395507
0.408942
0.0470775
0.40809
0.0483954
0.402872
0.0406651
0.394038
0.0314069
0.382564
0.0273477
0.368423
0.0279315
0.351027
0.0311196
0.330192
0.0346333
0.306946
0.0374517
0.283169
0.0392666
0.260459
0.0405955
0.238998
0.0428023
0.217551
0.0476296
0.193744
0.0577947
0.16586
0.0728511
0.125124
0.11098
0.0842161
0.0574338
-0.147573
-0.0664377
-0.123917
-0.0709046
-0.0957387
-0.0841677
-0.0665712
-0.088922
-0.0362365
-0.0930901
-0.004839
-0.0959943
0.0259901
-0.0941149
0.0544121
-0.0873327
0.0802835
-0.0790179
0.103492
-0.0698399
0.12377
-0.0600703
0.141352
-0.0512961
0.156614
-0.0437522
0.169843
-0.0371528
0.181367
-0.0321206
0.191551
-0.0280228
0.200663
-0.0249576
0.208976
-0.0226826
0.216695
-0.0211619
0.22398
-0.0199929
0.231016
-0.0193231
0.237803
-0.0186756
0.244223
-0.0177345
0.249956
-0.0152808
0.254698
-0.0120556
0.258573
-0.00949453
0.261651
-0.00695246
0.263969
-0.00461136
0.265595
-0.00243216
0.26653
-0.000343609
0.266828
0.00168353
0.26644
0.00364539
0.265368
0.00557643
0.263541
0.00753881
0.260876
0.00973626
0.257038
0.0128919
0.251704
0.0172867
0.241302
0.0344098
0.223976
0.052889
-0.163738
0.186304
-0.0857508
0.209064
-0.0890956
0.23417
-0.0921162
0.257159
-0.0849873
0.279572
-0.0823577
0.301189
-0.0766151
0.321131
-0.0685932
0.339284
-0.0617117
0.35581
-0.0533027
0.370484
-0.0457975
0.383424
-0.0386384
0.39462
-0.0315056
0.404083
-0.024779
0.411851
-0.018547
0.418241
-0.0120527
0.423
-0.00568165
0.426121
0.00135609
0.427299
0.00844182
0.426768
0.0166116
0.424528
0.0249939
0.421083
0.0345476
0.417299
0.0433361
0.413708
0.0506694
0.41003
0.0520743
0.405265
0.0454318
0.399324
0.0373488
0.392782
0.033891
0.386062
0.0346546
0.378807
0.0383765
0.369908
0.0435335
0.357859
0.04951
0.341171
0.0559592
0.319464
0.0623121
0.293847
0.0684345
0.265908
0.0755812
0.235493
0.0882092
0.201247
0.107138
0.155592
0.156635
0.102259
0.110763
-0.141441
-0.0887356
-0.117641
-0.0947039
-0.0888201
-0.112989
-0.0593342
-0.118408
-0.0287163
-0.123708
0.00296309
-0.127674
0.0338327
-0.124984
0.0621624
-0.115662
0.0878293
-0.104684
0.110886
-0.0928959
0.131066
-0.0802507
0.148683
-0.0689129
0.16416
-0.0592281
0.177746
-0.050739
0.189785
-0.0441595
0.200503
-0.0387398
0.210221
-0.0346754
0.219114
-0.0315757
0.227421
-0.0294682
0.235275
-0.027847
0.242786
-0.0268334
0.250012
-0.0259028
0.256883
-0.0246058
0.263054
-0.0214539
0.268267
-0.0172713
0.272591
-0.0138214
0.276082
-0.0104456
0.27879
-0.00732146
0.280751
-0.00439471
0.282034
-0.00163024
0.282669
0.00104528
0.282669
0.00364078
0.282028
0.0062115
0.280729
0.00883167
0.278644
0.0118111
0.275408
0.0161187
0.270465
0.022215
0.260597
0.0442448
0.242288
0.0712049
-0.160934
0.184374
-0.10919
0.208049
-0.112771
0.234549
-0.118616
0.258306
-0.108743
0.28168
-0.105731
0.304311
-0.0992451
0.325049
-0.0893313
0.344047
-0.0807091
0.361544
-0.0708003
0.376926
-0.0611802
0.390553
-0.0522656
0.402352
-0.0433048
0.412558
-0.0349849
0.420856
-0.0268444
0.427408
-0.0186047
0.43221
-0.0104845
0.435387
-0.00182044
0.437073
0.00675544
0.437128
0.016557
0.435888
0.0262337
0.433302
0.0371336
0.429568
0.0470701
0.424855
0.0553829
0.419063
0.0578656
0.412046
0.0524492
0.404078
0.0453158
0.395817
0.0421527
0.387845
0.0426261
0.380403
0.0458172
0.373538
0.0503956
0.36694
0.0561133
0.359616
0.0632829
0.349575
0.0723559
0.334065
0.0839569
0.310934
0.0987049
0.279733
0.119389
0.240792
0.146099
0.189777
0.207658
0.127729
0.172852
-0.137599
-0.112071
-0.113072
-0.11923
-0.0830076
-0.143054
-0.0526435
-0.148772
-0.0212459
-0.155106
0.0111074
-0.160027
0.0424777
-0.156354
0.0710512
-0.144235
0.0967686
-0.130402
0.119836
-0.115963
0.139984
-0.100399
0.157622
-0.08655
0.173234
-0.0748401
0.187036
-0.0645412
0.199367
-0.05649
0.210502
-0.0498743
0.220625
-0.0447989
0.229932
-0.0408817
0.238627
-0.0381634
0.246853
-0.0360728
0.254699
-0.0346792
0.262204
-0.0334073
0.269322
-0.0317245
0.275762
-0.0278945
0.281251
-0.0227623
0.28583
-0.0184015
0.289541
-0.0141578
0.292435
-0.010216
0.294534
-0.00649554
0.295872
-0.00297115
0.296506
0.000410345
0.296501
0.00364414
0.295865
0.00684443
0.294585
0.0101106
0.292636
0.0137545
0.289689
0.0190646
0.285219
0.0266787
0.276669
0.0527787
0.258875
0.0890076
-0.158798
0.183247
-0.133639
0.208172
-0.137695
0.236012
-0.146456
0.260894
-0.133625
0.285224
-0.13006
0.309101
-0.123122
0.330709
-0.110939
0.350839
-0.100839
0.369204
-0.0891662
0.385669
-0.0776452
0.400466
-0.0670629
0.413418
-0.0562572
0.424719
-0.046286
0.434351
-0.0364758
0.442189
-0.0264428
0.448526
-0.0168219
0.45306
-0.00635387
0.455855
0.00396111
0.457035
0.015377
0.456468
0.0268015
0.454279
0.0393237
0.450733
0.0506165
0.445852
0.0602655
0.439547
0.0641715
0.431717
0.0602805
0.422648
0.0543864
0.412914
0.0518887
0.402996
0.052547
0.393101
0.0557136
0.38337
0.0601296
0.374087
0.0654044
0.365464
0.0719112
0.357516
0.0803144
0.349219
0.0922708
0.337235
0.110703
0.315878
0.140746
0.280417
0.181605
0.227246
0.26083
0.159391
0.240705
-0.134489
-0.13638
-0.109117
-0.144603
-0.077707
-0.174465
-0.0461733
-0.180306
-0.0137287
-0.18755
0.0196202
-0.193375
0.0518205
-0.188554
0.0808889
-0.173303
0.106859
-0.156371
0.130033
-0.139137
0.150204
-0.120569
0.167807
-0.104152
0.183436
-0.0904688
0.19736
-0.0784648
0.209887
-0.0690172
0.221287
-0.0612735
0.23173
-0.0552418
0.241432
-0.0505834
0.250523
-0.0472535
0.259141
-0.0446909
0.267382
-0.0429201
0.275263
-0.0412894
0.282726
-0.0391876
0.289576
-0.034747
0.295472
-0.0286605
0.300408
-0.0233401
0.304483
-0.0182352
0.30769
-0.0134255
0.310074
-0.00888155
0.311669
-0.00456961
0.312521
-0.000445212
0.312658
0.00350291
0.312084
0.00741212
0.310831
0.0113568
0.30876
0.0158164
0.305643
0.022171
0.300812
0.031495
0.292407
0.0611558
0.274924
0.106492
-0.157682
0.183438
-0.159394
0.209422
-0.163678
0.238805
-0.175839
0.264922
-0.15974
0.290453
-0.155591
0.315368
-0.148036
0.338062
-0.133633
0.358979
-0.121756
0.378289
-0.108477
0.395588
-0.0949448
0.411114
-0.0825895
0.424987
-0.0701299
0.437081
-0.0583807
0.447459
-0.0468533
0.45617
-0.0351539
0.463059
-0.0237108
0.468277
-0.0115721
0.47173
0.000508751
0.473506
0.0136012
0.473613
0.0266937
0.472184
0.0407535
0.46933
0.0534702
0.465246
0.0643497
0.459646
0.0697708
0.452431
0.0674958
0.443754
0.0630631
0.434116
0.0615264
0.423945
0.0627173
0.413403
0.0662534
0.402437
0.0710914
0.391114
0.0767319
0.379609
0.0834149
0.368312
0.091613
0.357792
0.102803
0.3483
0.120185
0.336549
0.152468
0.312551
0.205628
0.26498
0.308409
0.195733
0.309989
-0.132173
-0.161888
-0.105698
-0.171079
-0.0728108
-0.207352
-0.0399412
-0.213176
-0.00624952
-0.221242
0.0283926
-0.228017
0.0616549
-0.221816
0.091478
-0.203126
0.117913
-0.182805
0.14137
-0.162594
0.161639
-0.140837
0.179257
-0.121771
0.1949
-0.106111
0.208872
-0.0924367
0.221507
-0.0816516
0.233086
-0.0728526
0.243805
-0.0659606
0.253809
-0.0605869
0.263243
-0.0566868
0.272206
-0.0536544
0.28078
-0.0514932
0.288975
-0.0494851
0.296769
-0.0469815
0.303906
-0.0418844
0.310158
-0.0349141
0.315446
-0.0286294
0.3198
-0.0225901
0.323274
-0.0169006
0.325866
-0.0114736
0.32764
-0.00634628
0.328604
-0.00140932
0.328828
0.00327811
0.328321
0.00791686
0.327047
0.0126295
0.324967
0.0178934
0.321761
0.0253768
0.316735
0.0365178
0.308311
0.0695706
0.291316
0.123492
-0.157151
0.184235
-0.186477
0.21162
-0.191063
0.242658
-0.206876
0.26996
-0.18704
0.296739
-0.18237
0.322855
-0.174152
0.346515
-0.157293
0.368549
-0.14379
0.388614
-0.128542
0.406756
-0.113087
0.423222
-0.0990563
0.437866
-0.0847736
0.450754
-0.0712688
0.462002
-0.0581008
0.471548
-0.0447006
0.479362
-0.0315238
0.485475
-0.0176859
0.489844
-0.00385957
0.492413
0.0110326
0.493225
0.0258828
0.492413
0.0415656
0.490017
0.0558671
0.486183
0.0681849
0.480907
0.0750483
0.474014
0.0743905
0.465639
0.0714397
0.456235
0.0709327
0.446183
0.072772
0.43561
0.0768289
0.424506
0.0821971
0.412738
0.0885072
0.400259
0.0958993
0.387015
0.104867
0.373279
0.116557
0.359912
0.133566
0.348546
0.163834
0.333967
0.220257
0.298346
0.344034
0.234252
0.374086
-0.130405
-0.188635
-0.102757
-0.198727
-0.0681535
-0.241956
-0.0337469
-0.247583
0.00140301
-0.256391
0.0374776
-0.264092
0.0720312
-0.256369
0.102792
-0.233886
0.129863
-0.209876
0.153739
-0.186469
0.174207
-0.161305
0.191885
-0.139448
0.207541
-0.121767
0.221524
-0.10642
0.234197
-0.094324
0.24592
-0.0845748
0.256806
-0.0768461
0.26705
-0.0708313
0.276758
-0.066394
0.286033
-0.0629297
0.294912
-0.0603723
0.303447
-0.0580202
0.31157
-0.0551046
0.319074
-0.0493902
0.325693
-0.0415352
0.331345
-0.0342835
0.336049
-0.0272971
0.33984
-0.0206941
0.342708
-0.014343
0.344697
-0.00833926
0.345865
-0.00258043
0.34622
0.00291801
0.345796
0.00833516
0.344561
0.0138569
0.342416
0.0200289
0.339093
0.0286904
0.333861
0.0417348
0.325272
0.0781359
0.308733
0.140028
-0.157299
0.185757
-0.214934
0.214579
-0.219885
0.247305
-0.239602
0.275974
-0.215709
0.304179
-0.210574
0.331612
-0.201585
0.356441
-0.182122
0.379329
-0.166678
0.400428
-0.149642
0.419341
-0.132
0.436455
-0.11617
0.451837
-0.100156
0.465501
-0.0849333
0.477472
-0.0700716
0.487751
-0.0549795
0.496365
-0.0401373
0.503201
-0.024522
0.508232
-0.0088902
0.511462
0.00780237
0.512897
0.0244473
0.512664
0.0417993
0.51082
0.0577107
0.507444
0.0715619
0.502545
0.079947
0.496025
0.0809097
0.487954
0.0795107
0.478705
0.0801812
0.468715
0.0827608
0.458163
0.0873778
0.447008
0.0933468
0.435196
0.100323
0.4226
0.108493
0.409016
0.118452
0.394215
0.13137
0.378019
0.149749
0.362263
0.179553
0.34933
0.233217
0.324957
0.368413
0.271388
0.427693
-0.129082
-0.216852
-0.100081
-0.227729
-0.0636874
-0.27835
-0.0276751
-0.283595
0.0091357
-0.293202
0.0468307
-0.301786
0.0828994
-0.292438
0.114779
-0.265765
0.142645
-0.237742
0.167076
-0.2109
0.187855
-0.182084
0.205672
-0.157265
0.221374
-0.137468
0.235365
-0.12041
0.248064
-0.107023
0.259824
-0.0963352
0.270852
-0.0878738
0.281267
-0.0812457
0.291194
-0.0763214
0.300734
-0.0724696
0.309931
-0.0695687
0.318748
-0.0668371
0.327179
-0.0635366
0.335029
-0.0572399
0.342028
-0.0485352
0.348018
-0.040275
0.353063
-0.0323423
0.357135
-0.0247663
0.360282
-0.0174909
0.362502
-0.010561
0.363833
-0.00391151
0.364323
0.002428
0.363962
0.00869382
0.362756
0.0150629
0.360602
0.0221811
0.357199
0.0320951
0.351787
0.0471448
0.343154
0.0867657
0.327166
0.156019
-0.157805
0.187857
-0.244986
0.218218
-0.250244
0.252816
-0.274199
0.282931
-0.245823
0.31242
-0.240062
0.341288
-0.230453
0.367253
-0.208087
0.391231
-0.190657
0.413266
-0.171678
0.433001
-0.151735
0.450904
-0.134074
0.467085
-0.116336
0.481391
-0.0992398
0.494014
-0.0826942
0.505078
-0.0660433
0.514337
-0.0493964
0.521887
-0.032072
0.527618
-0.0146204
0.531591
0.00382984
0.533754
0.022285
0.534057
0.0414974
0.532743
0.0590257
0.529793
0.074513
0.525263
0.0844787
0.519052
0.0871221
0.511186
0.0873783
0.50208
0.0892894
0.492114
0.09273
0.481421
0.0980721
0.470105
0.104665
0.458096
0.112339
0.445305
0.121288
0.431582
0.132184
0.416685
0.146284
0.399958
0.166487
0.381048
0.198465
0.364852
0.249461
0.346086
0.387184
0.303819
0.469967
-0.128196
-0.24646
-0.097728
-0.258198
-0.0593715
-0.316707
-0.0214983
-0.321468
0.0170364
-0.331737
0.0565903
-0.34134
0.0942514
-0.330098
0.127416
-0.29893
0.156243
-0.266568
0.181381
-0.236038
0.20257
-0.203273
0.22059
-0.175284
0.236389
-0.153267
0.250393
-0.134414
0.263094
-0.119724
0.274892
-0.108133
0.285972
-0.098954
0.296505
-0.0917782
0.30663
-0.0864456
0.316389
-0.0822289
0.325802
-0.0789817
0.334923
-0.0759582
0.343671
-0.0722854
0.351854
-0.0654236
0.359201
-0.055884
0.365575
-0.0466506
0.370945
-0.0377147
0.375354
-0.0291779
0.378776
-0.0209154
0.38124
-0.0130281
0.382789
-0.00546444
0.383412
0.00180041
0.383163
0.0089363
0.382004
0.016215
0.37982
0.0243559
0.376313
0.0355921
0.370766
0.0526771
0.362094
0.0954178
0.346625
0.171483
-0.158819
0.19045
-0.276616
0.22239
-0.282184
0.258908
-0.310716
0.290672
-0.277587
0.321749
-0.271139
0.352067
-0.260771
0.379165
-0.235185
0.404327
-0.215819
0.427355
-0.194707
0.447981
-0.172361
0.466627
-0.152721
0.483398
-0.133107
0.498436
-0.114278
0.511827
-0.0960853
0.523427
-0.0776425
0.533391
-0.0593612
0.541597
-0.040277
0.548044
-0.0210675
0.552608
-0.000734162
0.555362
0.0195311
0.556283
0.0405769
0.55543
0.059879
0.552924
0.077019
0.548791
0.0886115
0.542947
0.0929661
0.535426
0.0948994
0.526489
0.0982259
0.516509
0.102708
0.505751
0.108827
0.494186
0.116224
0.481867
0.124661
0.46874
0.134412
0.454677
0.146249
0.439512
0.161461
0.422854
0.18313
0.403166
0.21811
0.383313
0.269345
0.365019
0.405479
0.330237
0.504786
-0.127552
-0.277728
-0.0955627
-0.290188
-0.0551262
-0.357143
-0.0153066
-0.361288
0.0252023
-0.372246
0.0666669
-0.382804
0.106128
-0.369559
0.14073
-0.333531
0.170666
-0.296503
0.196595
-0.261967
0.218319
-0.224996
0.236626
-0.193591
0.25258
-0.16922
0.266632
-0.148465
0.279338
-0.13243
0.291129
-0.119924
0.302245
-0.11007
0.312864
-0.102397
0.323091
-0.0966726
0.333023
-0.0921611
0.342691
-0.0886491
0.352066
-0.0853331
0.361085
-0.0813046
0.369607
-0.0739459
0.377307
-0.0635851
0.384032
-0.0533764
0.389766
-0.0434491
0.394489
-0.0339012
0.398218
-0.0246444
0.400932
-0.0157434
0.402667
-0.00719949
0.40347
0.000997564
0.403315
0.00909006
0.40221
0.0173214
0.400006
0.0265584
0.396439
0.039162
0.390749
0.0583666
0.382064
0.104103
0.367187
0.186361
-0.160098
0.193513
-0.31003
0.227204
-0.315873
0.26575
-0.349262
0.299118
-0.310954
0.33179
-0.303811
0.36367
-0.29265
0.392231
-0.263747
0.418506
-0.242094
0.442576
-0.218777
0.464068
-0.193853
0.483561
-0.172214
0.501138
-0.150685
0.516749
-0.129888
0.530711
-0.110048
0.543016
-0.0899467
0.553605
-0.0699505
0.562408
-0.0490796
0.569424
-0.0280835
0.574606
-0.00591545
0.577972
0.0161662
0.579474
0.0390753
0.579167
0.0601874
0.577111
0.0790759
0.573362
0.0923624
0.567861
0.0984683
0.560644
0.102119
0.551907
0.106965
0.542022
0.112595
0.531169
0.119682
0.519433
0.127962
0.506811
0.137288
0.493273
0.147953
0.478766
0.160762
0.463073
0.177169
0.446129
0.200085
0.426589
0.23765
0.404625
0.291354
0.384478
0.425631
0.351811
0.53746
-0.127184
-0.310642
-0.0934748
-0.323898
-0.0508877
-0.399731
-0.00897009
-0.403205
0.0336067
-0.414822
0.0771536
-0.426351
0.118585
-0.410991
0.154729
-0.369674
0.185889
-0.327662
0.212767
-0.288845
0.235119
-0.247347
0.253807
-0.212279
0.26995
-0.185363
0.284086
-0.1626
0.296805
-0.14515
0.3086
-0.131719
0.319708
-0.121177
0.330364
-0.113052
0.340694
-0.107003
0.350754
-0.102221
0.360593
-0.098488
0.370185
-0.0949253
0.379506
-0.0906262
0.388342
-0.0827822
0.396391
-0.0716352
0.403474
-0.0604608
0.409547
-0.0495241
0.414615
-0.0389716
0.418621
-0.0286529
0.421612
-0.0187377
0.423576
-0.0091671
0.424536
3.22989e-05
0.424519
0.00910144
0.423455
0.0183783
0.421259
0.0287445
0.417618
0.0427932
0.411809
0.0641626
0.403174
0.11272
0.388899
0.200629
-0.161795
0.196937
-0.345172
0.232479
-0.351414
0.273174
-0.389956
0.308374
-0.346154
0.342782
-0.338219
0.376288
-0.326155
0.406248
-0.293707
0.433827
-0.269673
0.458937
-0.243888
0.481381
-0.216298
0.501677
-0.192509
0.519953
-0.168962
0.536326
-0.14626
0.55094
-0.124662
0.563809
-0.102816
0.57494
-0.081081
0.58435
-0.0584895
0.591985
-0.0357179
0.597759
-0.0116891
0.601616
0.0123088
0.603651
0.0370411
0.603812
0.0600263
0.602194
0.0806937
0.598881
0.0956758
0.593819
0.10353
0.586918
0.10902
0.578429
0.115454
0.568625
0.122397
0.557733
0.130571
0.545851
0.139838
0.532979
0.150162
0.519072
0.161858
0.504078
0.175756
0.4878
0.193459
0.470206
0.217663
0.450619
0.25719
0.42786
0.314146
0.405776
0.447712
0.372411
0.570853
-0.126984
-0.345452
-0.0915905
-0.359292
-0.0466388
-0.444683
-0.00251307
-0.447331
0.0423185
-0.459654
0.0881495
-0.472181
0.13159
-0.45443
0.169465
-0.407549
0.201964
-0.360161
0.229892
-0.316772
0.252972
-0.270427
0.27212
-0.231427
0.288543
-0.201786
0.302815
-0.176872
0.315565
-0.157899
0.327353
-0.143507
0.338454
-0.132278
0.34912
-0.123718
0.359487
-0.117371
0.369651
-0.112384
0.379629
-0.108466
0.389432
-0.104729
0.398995
-0.100189
0.408145
-0.0919328
0.416522
-0.0800127
0.423953
-0.0678922
0.430374
-0.0559455
0.43575
-0.0443478
0.440079
-0.0329815
0.443343
-0.0220025
0.445545
-0.0113696
0.446703
-0.00112466
0.446806
0.00899783
0.445824
0.0193616
0.443625
0.030944
0.439952
0.0464703
0.434053
0.0700616
0.42543
0.121345
0.411805
0.214255
-0.1637
0.200784
-0.382254
0.238282
-0.388912
0.281264
-0.432938
0.318344
-0.383233
0.354526
-0.3744
0.389774
-0.361404
0.421259
-0.325192
0.450137
-0.298552
0.476451
-0.270203
0.499867
-0.239713
0.521089
-0.213732
0.540117
-0.187989
0.55716
-0.163303
0.572404
-0.139906
0.585775
-0.116187
0.597527
-0.0928334
0.6075
-0.0684616
0.615664
-0.0438819
0.622013
-0.0180379
0.626452
0.00787066
0.628974
0.0345198
0.629634
0.0593673
0.62847
0.0818594
0.625554
0.0985925
0.620855
0.108231
0.614288
0.115589
0.606067
0.123677
0.59641
0.132057
0.585513
0.14147
0.5735
0.151853
0.56038
0.163286
0.546141
0.176099
0.530689
0.191212
0.513896
0.210264
0.495568
0.235999
0.475515
0.277244
0.452356
0.337345
0.429046
0.471025
0.395083
0.60482
-0.12709
-0.382063
-0.0896757
-0.396706
-0.0423225
-0.492036
0.00418013
-0.493834
0.0513521
-0.506825
0.0995444
-0.520374
0.145262
-0.500148
0.184962
-0.447249
0.218959
-0.394158
0.248038
-0.345851
0.27194
-0.294329
0.291611
-0.251097
0.308374
-0.218548
0.32281
-0.191309
0.335623
-0.170712
0.347431
-0.155314
0.358523
-0.14337
0.369158
-0.134352
0.379544
-0.127757
0.389777
-0.122617
0.399871
-0.118559
0.409835
-0.114693
0.419637
-0.109991
0.429067
-0.101363
0.43776
-0.0887066
0.445526
-0.0756595
0.452288
-0.0627096
0.45801
-0.0500718
0.462652
-0.0376253
0.466197
-0.0255513
0.468638
-0.0138145
0.469981
-0.00247287
0.470236
0.00873754
0.469337
0.0202536
0.46716
0.0331119
0.463448
0.0501728
0.457491
0.0760062
0.448972
0.129848
0.43597
0.227248
-0.165876
0.205054
-0.421432
0.244576
-0.428434
0.28996
-0.478322
0.328991
-0.422264
0.367094
-0.412502
0.40427
-0.39858
0.437275
-0.358198
0.467576
-0.328852
0.495218
-0.297845
0.51971
-0.264206
0.541799
-0.235821
0.561641
-0.207832
0.579292
-0.180954
0.595171
-0.155784
0.60924
-0.130256
0.621512
-0.105106
0.632029
-0.0789789
0.640703
-0.0525554
0.647477
-0.0248116
0.652405
0.00294333
0.655445
0.0314795
0.65652
0.0582921
0.655794
0.0825861
0.653297
0.10109
0.649003
0.112525
0.642834
0.121758
0.634851
0.131659
0.625352
0.141555
0.614517
0.152302
0.602405
0.163959
0.589082
0.176611
0.574509
0.19067
0.55867
0.207051
0.541373
0.227572
0.522361
0.254996
0.501615
0.297939
0.47807
0.360927
0.454007
0.495082
0.42041
0.638437
-0.127263
-0.420676
-0.0879467
-0.436022
-0.037937
-0.542046
0.0110635
-0.542834
0.0607372
-0.556499
0.111514
-0.57115
0.159557
-0.54819
0.201256
-0.488947
0.23682
-0.429722
0.267192
-0.376223
0.291996
-0.319133
0.31231
-0.27141
0.32947
-0.235708
0.344139
-0.205977
0.357056
-0.183628
0.368877
-0.167136
0.379945
-0.154438
0.390575
-0.144982
0.400954
-0.138136
0.411208
-0.132871
0.421385
-0.128736
0.431506
-0.124814
0.441514
-0.119999
0.451199
-0.111048
0.460213
-0.0977199
0.468298
-0.0837457
0.475393
-0.0698045
0.481432
-0.0561105
0.486389
-0.0425826
0.49021
-0.0293727
0.492911
-0.0165155
0.494479
-0.00404027
0.49487
0.00834659
0.494083
0.0210432
0.491947
0.0352479
0.488214
0.0539108
0.482227
0.0819945
0.473782
0.138297
0.461451
0.239579
-0.168371
0.209706
-0.462766
0.251357
-0.470084
0.299251
-0.526215
0.340343
-0.463356
0.380543
-0.452703
0.419664
-0.4377
0.454358
-0.392892
0.486198
-0.360693
0.51512
-0.326767
0.540691
-0.289778
0.56375
-0.25888
0.584442
-0.228523
0.602921
-0.199433
0.6194
-0.172263
0.634017
-0.144873
0.646826
-0.117914
0.657841
-0.0899939
0.667011
-0.0617251
0.674357
-0.0321563
0.679726
-0.00242566
0.683174
0.0280329
0.684727
0.0567395
0.684388
0.0829262
0.682286
0.103193
0.678366
0.116447
0.672553
0.127573
0.664893
0.139322
0.655579
0.150872
0.644787
0.163096
0.63261
0.176138
0.619114
0.19011
0.604266
0.20552
0.588003
0.223317
0.570224
0.24536
0.550638
0.274587
0.529194
0.319383
0.505087
0.38507
0.48049
0.519681
0.447777
0.671151
-0.127601
-0.461447
-0.0861401
-0.477482
-0.0334144
-0.594772
0.0182244
-0.594473
0.0705591
-0.608833
0.124043
-0.624634
0.174608
-0.598755
0.218411
-0.532749
0.255701
-0.467012
0.287429
-0.407951
0.31326
-0.344964
0.334255
-0.292405
0.351883
-0.253336
0.366827
-0.220921
0.379888
-0.196689
0.391757
-0.179005
0.402819
-0.1655
0.413415
-0.155579
0.423776
-0.148497
0.434046
-0.14314
0.44427
-0.13896
0.454493
-0.135038
0.464687
-0.130194
0.474645
-0.121006
0.48393
-0.107005
0.492317
-0.0921343
0.499732
-0.0772201
0.506094
-0.0624742
0.511365
-0.0478561
0.515491
-0.0335016
0.51845
-0.0194787
0.520215
-0.0058097
0.520798
0.0077575
0.52011
0.0217238
0.518032
0.037317
0.514303
0.0576314
0.5083
0.0879858
0.499995
0.146587
0.48836
0.251203
-0.171059
0.21462
-0.506327
0.258591
-0.514054
0.309153
-0.576776
0.352471
-0.506674
0.394819
-0.49505
0.435967
-0.478849
0.472498
-0.429423
0.50593
-0.394125
0.536221
-0.357059
0.563003
-0.31656
0.587166
-0.283043
0.608692
-0.25005
0.627911
-0.218652
0.645083
-0.189435
0.660264
-0.160053
0.673626
-0.131277
0.685131
-0.101499
0.694804
-0.0713978
0.702549
-0.0399011
0.708399
-0.00827558
0.712261
0.0241716
0.714182
0.0548182
0.714266
0.0828426
0.712542
0.104917
0.709032
0.119957
0.703565
0.13304
0.696202
0.146684
0.687097
0.159977
0.67638
0.17381
0.664188
0.188327
0.650537
0.203763
0.635428
0.220628
0.618799
0.239946
0.60055
0.263619
0.58044
0.294679
0.558296
0.341477
0.533595
0.40981
0.508491
0.544776
0.476668
0.702988
-0.128063
-0.504443
-0.0843854
-0.52116
-0.0287842
-0.650373
0.0256927
-0.64895
0.0808206
-0.663961
0.137137
-0.680949
0.190423
-0.652041
0.236445
-0.578772
0.275591
-0.506157
0.308794
-0.441154
0.335705
-0.371875
0.357475
-0.314174
0.375645
-0.271505
0.390925
-0.236201
0.404156
-0.209921
0.416121
-0.19097
0.427191
-0.17657
0.437768
-0.166156
0.448097
-0.158826
0.458348
-0.15339
0.468616
-0.149229
0.478923
-0.145344
0.489276
-0.140547
0.499439
-0.131169
0.508987
-0.116553
0.51768
-0.100828
0.525399
-0.0849386
0.532088
-0.0691633
0.537657
-0.0534253
0.542078
-0.037923
0.5453
-0.0227012
0.547312
-0.00782104
0.54806
0.00701033
0.547489
0.0222969
0.545492
0.0393163
0.541777
0.0613523
0.53582
0.0939435
0.527649
0.154762
0.516681
0.262172
-0.174037
0.219997
-0.552286
0.266399
-0.560456
0.319656
-0.630033
0.365415
-0.552432
0.409937
-0.539572
0.453333
-0.522244
0.491704
-0.467795
0.526836
-0.429257
0.558648
-0.388871
0.586715
-0.344628
0.611854
-0.308181
0.634386
-0.272582
0.654349
-0.238615
0.672206
-0.207293
0.688077
-0.175922
0.70194
-0.14514
0.71397
-0.113528
0.724089
-0.0815165
0.732315
-0.0481262
0.738545
-0.0145057
0.742791
0.0199266
0.745135
0.0524756
0.745535
0.0824434
0.744179
0.106275
0.741013
0.123125
0.735897
0.138158
0.728856
0.153728
0.719979
0.168857
0.709416
0.184377
0.697209
0.200537
0.683436
0.217539
0.668084
0.235981
0.651107
0.256925
0.632425
0.282307
0.611761
0.315347
0.589037
0.364199
0.563712
0.435165
0.538031
0.570456
0.506967
0.734051
-0.128697
-0.549783
-0.0826372
-0.56722
-0.0239523
-0.709058
0.0334475
-0.70635
0.0915761
-0.722089
0.150924
-0.740297
0.206983
-0.708099
0.255445
-0.627233
0.29653
-0.547242
0.33135
-0.475973
0.359451
-0.399975
0.382073
-0.336796
0.400839
-0.290271
0.416498
-0.25186
0.429964
-0.223387
0.442019
-0.203024
0.453138
-0.187689
0.463685
-0.176703
0.473982
-0.169123
0.484208
-0.163616
0.494484
-0.159504
0.504858
-0.155718
0.515353
-0.151042
0.525723
-0.14154
0.53552
-0.126351
0.544473
-0.109783
0.552478
-0.0929444
0.559456
-0.0761425
0.565342
-0.0593139
0.570045
-0.0426281
0.573549
-0.0262097
0.575778
-0.010055
0.576732
0.00605017
0.576322
0.022701
0.574383
0.0412473
0.570748
0.0649782
0.564828
0.0998533
0.556872
0.162703
0.546585
0.272448
-0.17723
0.225716
-0.600771
0.274594
-0.609334
0.330894
-0.686332
0.378977
-0.600514
0.425994
-0.586589
0.471651
-0.567901
0.512105
-0.50825
0.548962
-0.466115
0.582339
-0.422249
0.611725
-0.374015
0.638112
-0.334569
0.66156
-0.29603
0.682429
-0.259484
0.701013
-0.225877
0.717481
-0.19239
0.731922
-0.159581
0.744424
-0.12603
0.754973
-0.0920653
0.763571
-0.0567234
0.770208
-0.0211421
0.774862
0.0152728
0.777487
0.0498502
0.778237
0.081694
0.777241
0.107272
0.77442
0.125945
0.769685
0.142893
0.762952
0.160461
0.7543
0.177509
0.74385
0.194826
0.731693
0.212693
0.717834
0.231399
0.702274
0.251539
0.684985
0.274214
0.665876
0.301422
0.644737
0.336469
0.621441
0.38744
0.595534
0.461112
0.569284
0.596697
0.538808
0.764538
-0.129419
-0.597594
-0.080854
-0.615785
-0.0189487
-0.770963
0.0415367
-0.766835
0.102818
-0.78337
0.165372
-0.80285
0.224454
-0.767181
0.275421
-0.6782
0.318603
-0.590424
0.355106
-0.512475
0.384498
-0.429367
0.40806
-0.360357
0.427486
-0.309697
0.443598
-0.267972
0.45733
-0.23712
0.469538
-0.215232
0.480698
-0.198849
0.491247
-0.187252
0.501508
-0.179384
0.511729
-0.173837
0.521982
-0.169758
0.532413
-0.166149
0.543013
-0.161642
0.553571
-0.152097
0.563594
-0.136374
0.572784
-0.118972
0.58108
-0.101241
0.588345
-0.0834076
0.594501
-0.0654708
0.59952
-0.0476475
0.603284
-0.0299733
0.605765
-0.0125355
0.606896
0.00491923
0.606637
0.022963
0.604833
0.0430532
0.601254
0.0685647
0.59545
0.105659
0.587685
0.170471
0.578094
0.28204
-0.18069
0.231798
-0.651879
0.283345
-0.660881
0.342696
-0.745682
0.39348
-0.651298
0.44294
-0.636049
0.491104
-0.616065
0.533575
-0.55072
0.572362
-0.504903
0.607421
-0.457308
0.638268
-0.404862
0.665818
-0.362118
0.690388
-0.3206
0.712118
-0.281214
0.731468
-0.245227
0.74855
-0.209472
0.763591
-0.174622
0.776561
-0.139
0.787544
-0.103048
0.796583
-0.0657615
0.803558
-0.0281168
0.808519
0.0103121
0.811483
0.0468875
0.812541
0.0806377
0.811854
0.10796
0.809377
0.128424
0.804951
0.147321