/*--------------------------------*- C++ -*----------------------------------*\
| =========                 |                                                 |
| \\      /  F ield         | OpenFOAM: The Open Source CFD Toolbox           |
|  \\    /   O peration     | Version:  2206                                  |
|   \\  /    A nd           | Website:  www.openfoam.com                      |
|    \\/     M anipulation  |                                                 |
\*---------------------------------------------------------------------------*/
FoamFile
{
    version     2.0;
    format      ascii;
    arch        "LSB;label=32;scalar=64";
    class       volScalarField;
    location    "100";
    object      turbulenceProperties:L;
}
// * * * * * * * * * * * * * * * * * * * * * * * * * * * * * * * * * * * * * //

dimensions      [0 1 0 0 0 0 0];

internalField   nonuniform List<scalar> 
10720
(
0.00197757
0.00187462
0.00178053
0.00169042
0.00162793
0.00158443
0.00156421
0.0015721
0.00160953
0.001679
0.00178461
0.00193171
0.00212877
0.00238619
0.00271942
0.00315734
0.00373671
0.00454078
0.00563294
0.00732687
0.00964508
0.0140489
0.0200906
0.034226
0.0485301
0.0544783
0.0559041
0.0566547
0.0576686
0.0586946
0.0594186
0.0598309
0.0601211
0.0604119
0.0607826
0.0612874
0.0623396
0.0635603
0.0703056
0.00210314
0.00223734
0.00244622
0.00270339
0.00306343
0.00353612
0.00395115
0.0037747
0.0033224
0.00286936
0.00252188
0.00229879
0.00219214
0.00219232
0.00228955
0.00247895
0.00276472
0.00316214
0.00370282
0.00443009
0.0054393
0.00681171
0.0088434
0.0116517
0.0162756
0.0227463
0.0339392
0.0459076
0.0523611
0.0546177
0.055292
0.0555925
0.0557894
0.0559207
0.056017
0.0561091
0.0562222
0.0564431
0.0564382
0.0040264
0.00402774
0.00404612
0.00409868
0.00418585
0.00429821
0.00444674
0.00463621
0.00485454
0.00510781
0.00539113
0.00567801
0.00597755
0.00611812
0.00590455
0.00542972
0.00505865
0.00533385
0.0061714
0.0075797
0.00917176
0.0122981
0.0157765
0.0233879
0.034786
0.0469131
0.0608224
0.0763849
0.0926939
0.108288
0.122496
0.135432
0.147385
0.157808
0.166146
0.172365
0.176276
0.178101
0.166796
0.00405162
0.00408841
0.0041498
0.00424688
0.00439755
0.00460662
0.0048383
0.00512165
0.00548188
0.00591279
0.00640435
0.00695903
0.00758937
0.0083109
0.00913133
0.0100527
0.0111059
0.0123238
0.0138465
0.0159789
0.0197009
0.0279646
0.0538324
0.14825
0.0142367
0.0123073
0.0284934
0.0684026
0.117005
0.163143
0.19757
0.21568
0.220869
0.21944
0.215767
0.211646
0.207091
0.198953
0.177364
0.00489132
0.00492218
0.00498905
0.00509213
0.00520954
0.00535085
0.00551048
0.00567086
0.00582462
0.00595816
0.00606758
0.00615001
0.00620974
0.00623552
0.00622522
0.00618531
0.00631459
0.00672378
0.0127712
0.0199615
0.00520577
0.0097986
0.011695
0.0131806
0.0373116
0.0344686
0.0424408
0.0546528
0.0706149
0.0893951
0.109271
0.1289
0.147439
0.165502
0.183969
0.202648
0.220118
0.238444
0.227083
0.00486744
0.004863
0.00486755
0.00491334
0.00501677
0.00519267
0.00541958
0.00567406
0.00600613
0.00645424
0.00703216
0.00774224
0.00859238
0.00959586
0.0107244
0.0119451
0.0131883
0.0143757
0.0154063
0.0162321
0.0168231
0.0171581
0.0172387
0.0171257
0.016936
0.016813
0.0167051
0.0207982
0.0199616
0.0537717
0.116398
0.187565
0.224467
0.240476
0.249653
0.255703
0.258449
0.269039
0.246907
0.00539404
0.00538919
0.00540263
0.00542702
0.00547378
0.00554535
0.00563857
0.00576065
0.00591038
0.00609017
0.00630219
0.00654602
0.00682264
0.00714389
0.00751693
0.00796284
0.00854487
0.00926884
0.010192
0.0117253
0.0139338
0.0790032
0.065453
0.0910102
0.00681484
0.0136487
0.0239421
0.0410063
0.0184702
0.103334
0.118706
0.125663
0.143919
0.163848
0.183893
0.205545
0.229226
0.258748
0.25963
0.00541872
0.00545551
0.0055154
0.0055999
0.00572573
0.00589637
0.00609918
0.00635618
0.00669153
0.00710898
0.00760157
0.00815703
0.00876937
0.00943387
0.0101333
0.0108572
0.0115854
0.0123023
0.0129838
0.0136316
0.0142368
0.0148177
0.0154145
0.0161521
0.0170517
0.0179109
0.0186709
0.0191612
0.0208185
0.0198033
0.0530427
0.0424978
0.0592599
0.203473
0.225778
0.234024
0.247816
0.259321
0.245432
0.00617212
0.0061825
0.00620984
0.00625759
0.00632978
0.00643087
0.00656044
0.00672109
0.00691336
0.00713263
0.00737588
0.00763632
0.00790533
0.00817205
0.0084262
0.00864865
0.00884306
0.00905599
0.00934528
0.00976116
0.0105802
0.0121258
0.0295826
0.109308
0.209872
14.6264
0
0
0.00805231
0.0222959
0.0439942
0.0346362
0.137653
0.208796
0.196259
0.209252
0.2301
0.263862
0.27539
0.00617813
0.00619773
0.00624128
0.00632067
0.00644345
0.00661046
0.00680786
0.00705465
0.00737059
0.00776027
0.00822957
0.00878156
0.00942232
0.0101604
0.010996
0.0119251
0.0129354
0.0140042
0.015093
0.0161671
0.0171858
0.0181319
0.0190213
0.0199888
0.0211726
0.0225013
0.023692
0.0245194
0.0247987
0.0254403
0.0242458
0.547028
0.0225515
0.043856
0.0439858
0.0434775
0.0914262
0.123637
0.20076
0.00684876
0.0068394
0.00684402
0.00686128
0.00689757
0.0069556
0.00703498
0.00713987
0.00727155
0.00743035
0.00761934
0.00783976
0.00809305
0.00838185
0.00870844
0.00907347
0.00949791
0.0100322
0.0106819
0.0114189
0.0122433
0.0130224
0.0144584
0.017907
0.0277103
9.89097
0.203125
0.319855
3.66109
0
0
0.0176439
0.0438793
0.0406508
0.165086
0.254151
0.237571
0.265588
0.281186
0.00687578
0.00691442
0.00697394
0.00706708
0.00719563
0.00735861
0.00755014
0.00779019
0.00809295
0.00846085
0.00889853
0.0094061
0.00998303
0.0106296
0.0113401
0.012102
0.0128995
0.0137137
0.0145225
0.0153104
0.0160701
0.0168158
0.0175903
0.0185047
0.0196683
0.0210438
0.0225279
0.0240494
0.0255898
0.0271342
0.028764
0.0308292
0.0348373
0.0533239
0.409453
0.0364321
0.0521879
0.066497
0.105403
0.00760617
0.0075923
0.00759152
0.00760485
0.00763664
0.00769111
0.0077689
0.0078738
0.00800827
0.00817301
0.00837026
0.00860101
0.00886477
0.00916182
0.00948967
0.00984549
0.0102206
0.0105949
0.0109838
0.0114246
0.0119432
0.0125244
0.0130865
0.0138896
0.0150279
0.01739
0.0223253
0.0352833
0.426277
0.246477
2.74426
0
0
0.0236674
0.0203716
0.0988801
0.285103
0.273245
0.283113
0.00763879
0.00768146
0.00774387
0.00784326
0.00797452
0.00813351
0.00832195
0.00855662
0.00884571
0.00919213
0.00960142
0.0100763
0.0106195
0.0112352
0.0119242
0.0126826
0.0135039
0.0143769
0.0152844
0.0162107
0.017142
0.0180795
0.0190526
0.0201566
0.0215096
0.0231143
0.0248757
0.0266952
0.0285198
0.0302539
0.0316947
0.0327094
0.0335363
0.0359661
0.0449428
0.065736
0.316241
2.4212
0.0237578
0.00837361
0.00834661
0.00833141
0.00832877
0.00834154
0.00837428
0.00842682
0.00850296
0.00860503
0.00873341
0.00889147
0.0090805
0.00930185
0.00955826
0.0098514
0.0101838
0.0105565
0.0109867
0.0114989
0.0120893
0.0127394
0.0134254
0.0140945
0.0147032
0.0153776
0.0161336
0.0173693
0.0191726
0.0227641
0.0294048
0.296029
0.334654
0
0
0.242994
0.0503391
0.0571316
0.294451
0.285582
0.00841936
0.00847155
0.00854076
0.00864739
0.00878161
0.00893873
0.00912577
0.00935628
0.00963357
0.00996126
0.0103456
0.0107888
0.0112932
0.011863
0.0124986
0.0131952
0.0139462
0.0147397
0.0155603
0.0163946
0.0172353
0.0180892
0.0189885
0.0200122
0.0212535
0.0227234
0.0243677
0.0261479
0.0280839
0.0302035
0.0325021
0.035023
0.0377842
0.0407509
0.0432896
0.0461208
0.0557279
0.294239
0.0468897
0.00918186
0.00914518
0.00911928
0.00910585
0.00910624
0.0091256
0.00916423
0.00922599
0.00931327
0.00942755
0.00957191
0.00974839
0.00995875
0.0102055
0.0104899
0.0108134
0.0111787
0.0115833
0.0120229
0.0125045
0.0130379
0.0136271
0.0142645
0.0149342
0.0156778
0.0165135
0.0174691
0.0184987
0.0196318
0.0208782
0.024123
0.0377705
0.196841
1.27293
0
0
0.0440048
0.266618
0.291007
0.00923602
0.00929413
0.00936786
0.00947964
0.00961643
0.00977421
0.00996138
0.0101884
0.0104556
0.0107669
0.0111284
0.0115428
0.0120131
0.0125443
0.0131392
0.0137967
0.0145133
0.0152829
0.0160963
0.0169439
0.0178207
0.0187333
0.0197095
0.0208139
0.0221268
0.0236734
0.0254115
0.027295
0.0293197
0.0314878
0.0337452
0.0359551
0.0379965
0.0397155
0.0409054
0.0409524
0.0401151
0.0403868
0.451169
0.0100192
0.00997272
0.00993486
0.00990861
0.00989467
0.00989746
0.00991792
0.00995966
0.0100249
0.0101152
0.0102338
0.0103829
0.0105642
0.0107807
0.0110344
0.0113279
0.0116638
0.0120441
0.0124823
0.0129852
0.0135459
0.0141517
0.0147891
0.0154595
0.0162058
0.0170921
0.0181259
0.0192322
0.020247
0.0211487
0.021705
0.0232064
0.0274819
0.130946
0.734432
0
0.907645
0.0223397
0.298131
0.0100813
0.010145
0.0102239
0.0103412
0.010481
0.0106408
0.0108293
0.0110538
0.0113126
0.01161
0.0119516
0.0123398
0.0127786
0.0132736
0.0138279
0.0144418
0.0151143
0.0158402
0.0166135
0.0174269
0.0182769
0.0191705
0.020133
0.021216
0.0224868
0.0239715
0.025642
0.0274669
0.029455
0.0316332
0.0340036
0.0365475
0.0392377
0.0418952
0.0443443
0.0451416
0.0460648
0.0370282
0.0650902
0.0108895
0.0108347
0.0107863
0.0107487
0.0107222
0.0107106
0.010716
0.0107408
0.0107883
0.0108598
0.0109589
0.0110879
0.0112491
0.0114458
0.0116801
0.0119546
0.0122726
0.0126353
0.0130459
0.0135065
0.0140189
0.0145806
0.0151879
0.0158442
0.0165816
0.0174561
0.018494
0.0196505
0.0208057
0.0218963
0.0226889
0.0232661
0.0237429
0.0257575
0.0890769
1.91427
0
0.0545108
0.298724
0.0109577
0.0110265
0.0111106
0.0112339
0.0113771
0.01154
0.0117309
0.0119535
0.0122056
0.0124908
0.0128149
0.0131801
0.0135904
0.0140518
0.0145692
0.0151441
0.0157779
0.0164691
0.0172139
0.018009
0.0188546
0.0197583
0.0207429
0.021852
0.0231419
0.0246399
0.0263307
0.0281872
0.0302112
0.0324166
0.0347891
0.0372571
0.0397282
0.0420002
0.0439206
0.0444506
0.0450403
0.0391039
0.0356383
0.0117915
0.0117288
0.0116704
0.011622
0.0115828
0.0115572
0.0115469
0.0115549
0.011584
0.0116357
0.0117136
0.0118201
0.0119578
0.0121297
0.0123386
0.0125873
0.012879
0.0132156
0.013601
0.0140436
0.0145437
0.0150928
0.0156864
0.0163285
0.0170474
0.0178904
0.0188846
0.0199993
0.021153
0.022284
0.0233476
0.0241972
0.0248572
0.0242784
0.0257774
0.292558
8.18729
0.0435055
0.248063
0.0118659
0.0119413
0.0120316
0.0121615
0.0123082
0.012475
0.0126685
0.0128896
0.0131359
0.013411
0.0137197
0.0140643
0.0144489
0.0148805
0.0153636
0.0159016
0.016498
0.0171531
0.0178667
0.018637
0.0194651
0.0203598
0.0213427
0.0224511
0.0237288
0.0252034
0.0268674
0.0287017
0.0307086
0.0329048
0.0352886
0.0378242
0.0404576
0.0430107
0.0452841
0.0462553
0.0466651
0.0421926
0.0343558
0.0127284
0.0126577
0.0125895
0.0125307
0.0124797
0.0124409
0.012416
0.0124082
0.0124203
0.0124538
0.0125124
0.0125985
0.0127148
0.0128649
0.0130513
0.0132772
0.0135458
0.0138601
0.0142213
0.0146354
0.015105
0.0156249
0.016194
0.0168179
0.01752
0.0183383
0.0192955
0.0203658
0.0214813
0.0225817
0.0236612
0.0246619
0.025614
0.0260449
0.0247055
0.0293431
5.18001
0.0297926
0.170216
0.0128099
0.0128937
0.0129915
0.0131282
0.0132788
0.0134496
0.0136456
0.0138654
0.0141067
0.0143725
0.0146673
0.0149937
0.0153556
0.0157596
0.0162121
0.016717
0.0172789
0.0179005
0.0185838
0.0193302
0.0201431
0.0210325
0.0220188
0.0231332
0.0244125
0.0258826
0.027544
0.0293832
0.031402
0.0336137
0.0360139
0.0385613
0.0411769
0.0436844
0.0458901
0.0469168
0.047312
0.0437854
0.0358738
0.013704
0.0136248
0.0135463
0.0134769
0.0134139
0.0133617
0.0133225
0.0132993
0.0132947
0.0133106
0.0133503
0.0134166
0.0135117
0.0136392
0.0138022
0.0140039
0.0142479
0.0145372
0.0148724
0.0152609
0.0157062
0.0162033
0.0167511
0.0173551
0.0180363
0.0188273
0.0197476
0.0207759
0.0218529
0.0229217
0.0239619
0.0249669
0.025873
0.0269031
0.0267765
0.0241158
0.251652
0.0216516
0.102619
0.0137953
0.0138893
0.0139953
0.0141387
0.014294
0.0144684
0.0146667
0.0148847
0.0151213
0.0153787
0.0156611
0.0159707
0.0163118
0.0166914
0.0171156
0.0175897
0.0181199
0.0187098
0.0193636
0.020085
0.0208805
0.0217603
0.0227436
0.0238563
0.0251294
0.0265878
0.0282359
0.0300666
0.0320824
0.0342961
0.036707
0.0392844
0.0419643
0.0445877
0.0469636
0.0482078
0.0487988
0.0455202
0.0378065
0.014724
0.014635
0.0145453
0.0144648
0.0143892
0.0143232
0.0142698
0.0142313
0.0142104
0.0142093
0.0142307
0.0142774
0.0143523
0.0144584
0.0145994
0.0147781
0.0149979
0.0152628
0.0155726
0.0159341
0.0163515
0.0168223
0.0173452
0.0179263
0.0185844
0.0193471
0.0202314
0.0212203
0.0222621
0.0233049
0.0243179
0.0252982
0.0261783
0.0269736
0.0283531
0.0250962
0.0387942
0.0610288
0.0540821
0.0148272
0.0149327
0.0150474
0.0151974
0.015358
0.0155358
0.0157357
0.0159522
0.016184
0.0164335
0.016704
0.0169986
0.017321
0.0176782
0.0180769
0.0185227
0.0190228
0.0195832
0.0202094
0.0209074
0.0216843
0.0225519
0.0235292
0.0246411
0.0259118
0.027363
0.0290035
0.0308322
0.0328528
0.0350776
0.0375072
0.0401124
0.042829
0.045506
0.0479623
0.0493591
0.0501357
0.0472868
0.0398018
0.0157937
0.0156934
0.0155915
0.0154989
0.0154097
0.0153292
0.0152607
0.0152065
0.0151691
0.0151507
0.0151542
0.0151822
0.0152371
0.0153225
0.0154411
0.0155965
0.0157921
0.0160318
0.0163162
0.0166505
0.0170403
0.0174852
0.017983
0.0185394
0.0191721
0.0199051
0.0207528
0.0217016
0.0227074
0.0237233
0.0247174
0.0256702
0.0265774
0.0271656
0.0285823
0.0273728
0.0264734
0.520894
0.023848
0.0159095
0.0160274
0.0161506
0.016307
0.0164735
0.0166554
0.016857
0.0170721
0.0172997
0.0175414
0.017801
0.0180812
0.018386
0.0187228
0.0190979
0.0195185
0.0199913
0.0205241
0.0211238
0.0217981
0.0225562
0.0234107
0.0243807
0.0254876
0.0267527
0.0281952
0.0298273
0.0316521
0.0336752
0.0359093
0.0383575
0.040995
0.0437679
0.0465403
0.0491401
0.0507551
0.0517492
0.0493001
0.0419406
0.0169171
0.0168044
0.0166898
0.0165837
0.0164799
0.016384
0.0162997
0.0162289
0.0161749
0.0161391
0.0161245
0.0161338
0.0161687
0.016233
0.0163298
0.0164623
0.0166342
0.0168489
0.0171084
0.017415
0.0177766
0.0181943
0.0186653
0.019195
0.0198
0.0205016
0.0213121
0.0222205
0.0231898
0.0241764
0.025152
0.0260815
0.0269944
0.0276075
0.0284629
0.0294178
0.0252151
0.405169
0.123381
0.017045
0.0171747
0.0173066
0.0174696
0.0176429
0.01783
0.018034
0.0182482
0.0184718
0.0187066
0.0189559
0.019223
0.019512
0.0198296
0.0201833
0.0205799
0.0210277
0.0215343
0.0221088
0.0227598
0.0234984
0.0243389
0.0253001
0.0264013
0.0276603
0.0290962
0.0307219
0.0325446
0.034573
0.0368201
0.0392918
0.0419674
0.0448
0.0476672
0.0504082
0.0522495
0.053482
0.0514758
0.0442736
0.0180964
0.0179713
0.0178435
0.0177228
0.0176038
0.0174913
0.0173905
0.0173025
0.0172309
0.017177
0.017144
0.0171338
0.017149
0.0171927
0.0172678
0.0173776
0.0175255
0.0177153
0.0179496
0.018229
0.0185622
0.0189523
0.0193958
0.0198976
0.0204731
0.0211416
0.021914
0.0227815
0.0237129
0.0246684
0.025622
0.0265347
0.0274217
0.0281404
0.0286248
0.0302016
0.0262827
0.0738623
0.502158
0.0182355
0.018376
0.0185169
0.0186874
0.0188682
0.019062
0.0192693
0.0194838
0.0197045
0.0199333
0.0201733
0.0204282
0.0207023
0.0210026
0.0213366
0.0217115
0.0221359
0.0226184
0.0231688
0.0237978
0.0245169
0.0253411
0.0262903
0.0273846
0.0286394
0.0300689
0.0316886
0.0335097
0.0355442
0.037806
0.0403043
0.0430239
0.0459273
0.0489085
0.0518213
0.0539282
0.0554371
0.0538683
0.0468353
0.0193334
0.0191965
0.0190543
0.0189192
0.0187838
0.0186546
0.0185361
0.0184305
0.0183406
0.0182683
0.0182162
0.0181869
0.018182
0.018205
0.018258
0.0183449
0.0184688
0.0186334
0.018842
0.0190943
0.0193993
0.0197612
0.0201765
0.0206494
0.0211943
0.0218288
0.0225628
0.023389
0.0242815
0.0252043
0.0261322
0.0270306
0.027885
0.0286694
0.029084
0.0302633
0.0285322
0.0337401
0.0768324
0.0194824
0.0196332
0.0197838
0.0199625
0.020152
0.0203536
0.0205656
0.0207814
0.0210006
0.0212246
0.0214565
0.0217008
0.0219616
0.0222462
0.0225623
0.0229172
0.0233201
0.0237803
0.0243081
0.0249149
0.0256146
0.0264235
0.0273616
0.0284472
0.0296944
0.0311176
0.0327329
0.0345547
0.0365975
0.0388778
0.041408
0.0441794
0.0471637
0.0502736
0.0533802
0.0557852
0.057613
0.0565042
0.0496596
0.0206295
0.0204811
0.0203248
0.0201746
0.020023
0.0198763
0.0197402
0.0196161
0.0195076
0.0194163
0.0193448
0.0192955
0.01927
0.0192714
0.0193024
0.019366
0.0194658
0.0196051
0.019788
0.0200133
0.0202898
0.0206224
0.021009
0.0214524
0.0219657
0.0225654
0.0232606
0.0240455
0.0248984
0.0257876
0.0266876
0.0275699
0.0284003
0.0291932
0.0296957
0.030352
0.0305329
0.0299044
0.0391463
0.0207879
0.0209492
0.0211104
0.0212979
0.0214973
0.0217076
0.0219255
0.0221444
0.0223634
0.022584
0.0228095
0.0230445
0.0232938
0.0235643
0.0238643
0.0242013
0.0245844
0.0250237
0.0255306
0.026117
0.0267971
0.0275893
0.0285148
0.0295913
0.0308312
0.0322493
0.0338618
0.0356856
0.0377386
0.0400403
0.0426072
0.0454383
0.048516
0.0517736
0.0551054
0.0578546
0.0600564
0.0594205
0.0527669
0.0219874
0.0218271
0.0216567
0.0214915
0.0213234
0.0211591
0.021005
0.0208622
0.0207346
0.020624
0.0205327
0.0204632
0.0204169
0.0203968
0.0204054
0.0204456
0.0205211
0.0206348
0.0207912
0.0209887
0.0212362
0.0215388
0.0218958
0.0223088
0.0227895
0.0233539
0.0240102
0.0247539
0.0255667
0.0264212
0.027292
0.028155
0.0289704
0.0297431
0.0303589
0.0307007
0.0316928
0.0304914
0.0322801
0.0221553
0.0223279
0.0225007
0.0226981
0.022908
0.0231279
0.0233527
0.0235756
0.0237957
0.0240145
0.0242355
0.0244633
0.0247028
0.0249612
0.0252468
0.0255679
0.0259336
0.0263539
0.0268408
0.0274074
0.0280697
0.0288453
0.0297568
0.0308231
0.0320574
0.0334713
0.0350817
0.036909
0.0389746
0.0413014
0.043911
0.0468115
0.0499965
0.0534225
0.0570142
0.0601597
0.0628064
0.0626769
0.0562094
0.023411
0.0232384
0.023053
0.0228728
0.0226875
0.0225055
0.0223332
0.0221714
0.0220246
0.0218943
0.0217832
0.0216932
0.0216258
0.021584
0.0215697
0.0215863
0.0216369
0.0217245
0.0218537
0.0220238
0.0222415
0.0225133
0.02284
0.0232218
0.023669
0.0241973
0.0248145
0.025517
0.0262894
0.0271084
0.0279492
0.0287899
0.0295939
0.0303416
0.0310383
0.031279
0.0323297
0.0319516
0.0312799
0.0235893
0.0237746
0.0239599
0.024168
0.0243893
0.0246189
0.0248513
0.0250793
0.0253019
0.0255206
0.025738
0.0259602
0.0261919
0.0264403
0.0267142
0.0270212
0.0273711
0.0277748
0.028244
0.0287925
0.0294368
0.0301968
0.0310957
0.0321525
0.0333795
0.034789
0.0363991
0.038232
0.0403134
0.04267
0.0453292
0.0483094
0.05162
0.0552399
0.059134
0.0627402
0.0659173
0.0663324
0.0600312
0.0249052
0.0247191
0.0245183
0.0243221
0.0241192
0.023919
0.0237279
0.023547
0.0233804
0.0232303
0.0230987
0.022988
0.0228993
0.0228354
0.0227984
0.0227911
0.0228167
0.0228782
0.0229799
0.0231224
0.0233094
0.0235498
0.0238452
0.0241946
0.0246073
0.0250988
0.0256768
0.026338
0.0270698
0.0278524
0.0286626
0.0294793
0.0302725
0.0310004
0.0317375
0.0320131
0.0328524
0.0333876
0.032021
0.0250958
0.0252946
0.0254931
0.0257136
0.0259466
0.0261861
0.0264269
0.0266605
0.0268865
0.0271061
0.0273222
0.0275405
0.0277663
0.0280063
0.0282699
0.0285654
0.0289022
0.029291
0.0297445
0.0302769
0.0309049
0.0316499
0.0325362
0.0335832
0.0348037
0.03621
0.0378223
0.0396636
0.0417639
0.044155
0.0468707
0.049942
0.053399
0.0572427
0.0614879
0.065634
0.0694563
0.0704713
0.0642853
0.0264757
0.0262747
0.0260573
0.025844
0.025623
0.0254036
0.0251931
0.0249923
0.0248059
0.0246355
0.0244834
0.0243517
0.0242417
0.0241554
0.0240952
0.0240639
0.0240641
0.0240995
0.0241733
0.0242877
0.0244444
0.0246527
0.0249158
0.0252316
0.0256094
0.0260635
0.0266017
0.0272213
0.0279124
0.0286576
0.0294364
0.0302277
0.0310089
0.0317241
0.0324739
0.0328468
0.0334661
0.0345666
0.0333988
0.0266811
0.0268935
0.027106
0.0273401
0.027585
0.027835
0.0280848
0.0283252
0.0285556
0.0287773
0.0289927
0.0292083
0.0294295
0.0296636
0.0299196
0.0302054
0.0305308
0.0309071
0.0313471
0.0318649
0.0324781
0.0332092
0.0340838
0.0351223
0.0363381
0.037744
0.0393592
0.0412116
0.0433346
0.0457652
0.048546
0.0517213
0.0553411
0.05944
0.0640912
0.068875
0.0734908
0.0752096
0.0690634
0.0281284
0.027911
0.0276759
0.0274439
0.0272036
0.026964
0.0267332
0.0265118
0.0263045
0.0261134
0.0259402
0.0257872
0.0256554
0.0255466
0.0254633
0.0254076
0.0253826
0.0253914
0.0254373
0.0255233
0.0256493
0.0258258
0.0260564
0.0263386
0.0266806
0.0270966
0.0275944
0.0281723
0.0288221
0.0295295
0.0302757
0.0310406
0.0318078
0.0325155
0.0332634
0.0337464
0.0342315
0.0355493
0.0349791
0.0283501
0.0285766
0.0288035
0.0290522
0.0293099
0.0295714
0.0298309
0.0300787
0.0303145
0.0305392
0.0307554
0.0309702
0.0311889
0.031418
0.0316675
0.0319459
0.0322625
0.0326286
0.0330569
0.0335628
0.0341635
0.0348825
0.0357464
0.0367774
0.0379887
0.0393959
0.041017
0.0428841
0.045034
0.0475107
0.0503657
0.0536591
0.0574608
0.0618507
0.0669722
0.0725143
0.0781243
0.0806875
0.0744522
0.029869
0.0296334
0.0293793
0.0291279
0.0288667
0.0286058
0.0283535
0.0281107
0.0278814
0.0276688
0.0274737
0.0272989
0.0271447
0.0270134
0.0269066
0.0268263
0.0267757
0.0267577
0.0267757
0.0268326
0.0269281
0.0270723
0.0272699
0.0275178
0.0278238
0.0282018
0.0286595
0.0291958
0.0298041
0.030473
0.0311861
0.0319241
0.0326749
0.0333799
0.0341192
0.0347017
0.0351493
0.0364674
0.0365627
0.0301075
0.0303484
0.0305901
0.0308546
0.0311263
0.0314005
0.0316708
0.0319274
0.0321696
0.0323986
0.0326166
0.0328316
0.0330492
0.0332754
0.0335201
0.0337928
0.0341025
0.0344608
0.0348798
0.035375
0.0359651
0.0366744
0.0375308
0.0385566
0.0397665
0.0411758
0.0428065
0.0446914
0.0468732
0.049403
0.0523415
0.0557676
0.0597767
0.0644993
0.0701654
0.0766135
0.0834877
0.087109
0.0805846
0.0317022
0.0314474
0.0311731
0.0309011
0.0306178
0.0303344
0.0300597
0.0297937
0.0295418
0.0293064
0.0290889
0.0288914
0.0287143
0.0285597
0.0284288
0.0283238
0.0282476
0.0282025
0.0281922
0.0282198
0.0282848
0.0283966
0.0285607
0.0287742
0.0290439
0.0293836
0.029801
0.0302958
0.0308629
0.031493
0.0321726
0.0328835
0.0336164
0.0343198
0.0350516
0.0357126
0.0361979
0.0374278
0.0380696
0.0319577
0.0322131
0.0324701
0.0327517
0.033039
0.0333275
0.03361
0.0338765
0.0341265
0.0343613
0.0345829
0.0347996
0.035017
0.0352415
0.0354839
0.0357527
0.0360573
0.036409
0.036821
0.0373085
0.0378902
0.0385914
0.0394417
0.0404639
0.0416743
0.0430893
0.0447326
0.0466401
0.0488597
0.0514495
0.0544827
0.0580574
0.0623003
0.0674013
0.0736992
0.0812376
0.0897481
0.0947567
0.087608
0.0336322
0.0333581
0.0330622
0.0327689
0.0324625
0.0321551
0.0318569
0.0315666
0.0312911
0.0310317
0.0307907
0.0305697
0.0303694
0.0301906
0.0300354
0.0299054
0.0298027
0.0297306
0.0296916
0.0296896
0.0297235
0.0298029
0.0299334
0.0301126
0.0303461
0.0306472
0.0310243
0.0314775
0.0320035
0.0325949
0.0332404
0.0339237
0.0346389
0.0353406
0.0360683
0.0367859
0.0373573
0.038495
0.0395002
0.0339051
0.0341752
0.0344483
0.0347481
0.0350525
0.0353567
0.0356534
0.0359315
0.0361911
0.0364334
0.0366602
0.0368803
0.0370996
0.0373238
0.0375649
0.0378317
0.0381333
0.0384809
0.0388877
0.0393695
0.0399455
0.0406409
0.0414875
0.0425087
0.0437223
0.0451463
0.0468063
0.048741
0.0510042
0.0536618
0.0568008
0.0605403
0.0650442
0.0705723
0.0775993
0.0864555
0.0971261
0.104056
0.0957277
0.035664
0.0353697
0.0350521
0.0347363
0.034406
0.0340739
0.0337507
0.0334353
0.0331348
0.0328508
0.0325851
0.0323399
0.0321148
0.0319113
0.0317309
0.0315749
0.0314457
0.0313459
0.031278
0.0312464
0.0312491
0.0312959
0.031393
0.0315376
0.0317351
0.0319983
0.0323354
0.0327471
0.0332319
0.0337845
0.0343959
0.0350515
0.0357473
0.0364491
0.037176
0.0379348
0.0386141
0.0397003
0.0409141
0.0359547
0.0362398
0.0365298
0.0368493
0.0371723
0.0374935
0.0378062
0.0380979
0.038369
0.0386205
0.0388543
0.0390798
0.0393028
0.039529
0.0397706
0.0400372
0.0403372
0.0406825
0.0410865
0.0415648
0.0421365
0.0428289
0.0436746
0.0446979
0.0459184
0.0473542
0.0490349
0.0510014
0.0533139
0.0560476
0.0593033
0.0632246
0.0680172
0.0740231
0.0818849
0.092332
0.105906
0.115662
0.10519
0.0378029
0.0374875
0.0371476
0.0368086
0.0364532
0.0360957
0.0357463
0.0354049
0.0350782
0.0347686
0.0344771
0.0342064
0.033956
0.0337272
0.0335208
0.0333387
0.0331822
0.0330541
0.0329569
0.0328953
0.0328666
0.0328808
0.0329444
0.0330548
0.0332166
0.033442
0.0337393
0.0341103
0.0345544
0.0350681
0.0356451
0.0362736
0.0369497
0.0376497
0.0383824
0.0391699
0.0399583
0.041046
0.0423808
0.0381117
0.0384132
0.038721
0.0390614
0.0394039
0.0397438
0.0400741
0.0403812
0.0406658
0.0409288
0.041172
0.0414044
0.0416327
0.0418632
0.0421077
0.0423762
0.0426764
0.0430212
0.0434243
0.0439013
0.0444713
0.0451636
0.0460111
0.047039
0.0482682
0.0497205
0.0514257
0.0534296
0.0557976
0.0586155
0.0619988
0.0661177
0.0712257
0.0777564
0.0865598
0.0989115
0.11645
0.130672
0.116275
0.0400547
0.0397178
0.0393545
0.0389916
0.0386102
0.0382258
0.0378497
0.0374809
0.037127
0.0367907
0.0364728
0.0361759
0.0358994
0.0356443
0.0354114
0.0352018
0.0350175
0.0348609
0.0347343
0.0346419
0.0345818
0.0345629
0.0345928
0.0346693
0.034796
0.0349842
0.0352424
0.0355734
0.0359774
0.0364527
0.0369953
0.0375962
0.0382531
0.0389503
0.0396931
0.0405024
0.0413905
0.0425286
0.0439499
0.0403832
0.0407026
0.041029
0.0413909
0.0417541
0.042114
0.0424632
0.0427878
0.0430878
0.0433645
0.0436187
0.0438612
0.0440975
0.0443334
0.0445825
0.0448546
0.0451577
0.0455046
0.0459088
0.0463863
0.0469572
0.0476513
0.0485035
0.0495398
0.0507812
0.0522532
0.0539867
0.0560325
0.0584623
0.0613712
0.064892
0.0692206
0.0746664
0.0817622
0.0916037
0.106193
0.129207
0.151112
0.129247
0.0424269
0.042067
0.0416796
0.0412918
0.0408834
0.040471
0.0400669
0.0396699
0.0392878
0.0389239
0.0385785
0.0382544
0.0379508
0.0376685
0.0374083
0.037171
0.0369583
0.0367727
0.0366158
0.0364919
0.0364003
0.0363479
0.0363446
0.0363877
0.0364796
0.036631
0.036851
0.0371426
0.0375073
0.037945
0.0384538
0.0390276
0.0396651
0.0403586
0.0411141
0.0419463
0.0429158
0.0441342
0.0456462
0.042777
0.0431155
0.0434616
0.0438458
0.0442305
0.0446114
0.0449811
0.0453244
0.0456417
0.0459342
0.0462021
0.0464561
0.0467024
0.0469467
0.0472029
0.0474806
0.0477882
0.0481388
0.0485463
0.0490264
0.0496007
0.0502994
0.0511589
0.0522059
0.0534634
0.0549582
0.056725
0.0588172
0.0613136
0.0643188
0.0679835
0.0725324
0.0783304
0.0860181
0.0969608
0.114073
0.144541
0.181321
0.144147
0.0449277
0.0445435
0.0441307
0.0437164
0.0432796
0.0428381
0.0424047
0.041978
0.0415668
0.0411739
0.0408
0.0404479
0.0401165
0.0398063
0.0395181
0.0392523
0.0390105
0.0387948
0.0386074
0.0384521
0.0383291
0.0382436
0.0382071
0.038217
0.0382745
0.0383902
0.0385727
0.0388258
0.039152
0.0395528
0.0400282
0.0405752
0.0411944
0.0418828
0.0426524
0.0435096
0.0445484
0.045858
0.047473
0.0453011
0.0456596
0.0460264
0.046434
0.0468409
0.0472438
0.0476352
0.0479985
0.0483348
0.0486448
0.0489284
0.0491965
0.0494554
0.04971
0.0499751
0.0502613
0.0505748
0.0509312
0.0513442
0.0518296
0.0524099
0.053116
0.0539849
0.0550452
0.0563215
0.0578431
0.0596467
0.0617887
0.0643544
0.0674602
0.0712727
0.0760445
0.0821965
0.0904752
0.102521
0.122275
0.162273
0.232989
0.16028
0.0475654
0.0471554
0.046716
0.0462739
0.0458072
0.0453348
0.0448707
0.0444129
0.0439711
0.0435479
0.0431447
0.0427635
0.0424031
0.0420642
0.0417471
0.0414522
0.0411809
0.040935
0.040717
0.0405302
0.0403753
0.0402569
0.0401876
0.0401649
0.0401888
0.0402691
0.0404152
0.040631
0.0409198
0.0412846
0.0417275
0.0422481
0.0428495
0.0435324
0.0443155
0.0452015
0.0462983
0.0476994
0.0494305
0.0479634
0.0483429
0.0487313
0.0491633
0.0495933
0.0500193
0.0504332
0.0508182
0.0511751
0.0515042
0.051806
0.0520902
0.0523627
0.0526302
0.052907
0.0532025
0.0535254
0.0538897
0.0543098
0.0548024
0.0553904
0.0561057
0.0569876
0.058065
0.0593627
0.0609132
0.0627553
0.0649499
0.0675876
0.0707954
0.0747537
0.0797421
0.086235
0.0950742
0.108137
0.130324
0.180461
0.356752
0.175366
0.0503484
0.0499116
0.0494441
0.0489727
0.0484742
0.0479698
0.0474733
0.046983
0.0465088
0.0460543
0.0456201
0.0452086
0.0448183
0.0444497
0.0441031
0.0437784
0.0434767
0.0432002
0.0429508
0.042732
0.0425451
0.0423942
0.0422929
0.0422384
0.0422296
0.042276
0.0423871
0.0425669
0.0428195
0.0431494
0.0435606
0.0440555
0.0446395
0.0453172
0.0461122
0.0470306
0.0481788
0.0496603
0.0515149
0.0507719
0.0511733
0.0515841
0.0520415
0.0524959
0.0529459
0.0533835
0.0537917
0.0541703
0.0545205
0.0548418
0.0551439
0.0554338
0.0557156
0.0560058
0.0563133
0.0566472
0.0570207
0.0574499
0.0579528
0.0585502
0.0592766
0.0601728
0.0612686
0.0625907
0.064173
0.0660559
0.0683041
0.0710134
0.0743182
0.0784152
0.083603
0.0903989
0.0997182
0.113596
0.137517
0.193891
0.636007
0.185599
0.0532847
0.0528204
0.0523237
0.0518216
0.0512898
0.0507513
0.0502207
0.0496959
0.0491881
0.048701
0.0482345
0.0477914
0.0473702
0.0469709
0.0465936
0.0462382
0.0459058
0.045598
0.0453169
0.045066
0.0448468
0.0446638
0.0445306
0.0444454
0.0444051
0.0444189
0.0444961
0.0446413
0.0448593
0.0451561
0.0455371
0.0460072
0.0465746
0.0472472
0.0480533
0.0490035
0.0502036
0.0517523
0.0537252
0.0537348
0.0541588
0.0545929
0.0550768
0.0555565
0.0560315
0.0564944
0.0569265
0.0573286
0.0577013
0.058044
0.0583662
0.0586739
0.0589733
0.059279
0.059601
0.0599465
0.0603316
0.0607725
0.0612859
0.0618941
0.0626344
0.0635469
0.0646627
0.0660106
0.0676253
0.0695499
0.0718506
0.0746272
0.0780228
0.082243
0.0876008
0.094638
0.1043
0.118658
0.143123
0.197197
0.315773
0.188539
0.0563836
0.0558909
0.0553637
0.0548296
0.0542629
0.0536886
0.0531223
0.0525612
0.0520186
0.0514968
0.0509962
0.0505202
0.0500667
0.0496357
0.0492267
0.0488399
0.048476
0.0481366
0.0478233
0.0475401
0.047289
0.0470738
0.0469096
0.0467944
0.0467236
0.0467062
0.0467512
0.0468634
0.0470487
0.0473141
0.0476665
0.048113
0.0486648
0.0493329
0.0501489
0.0511302
0.0523828
0.0539894
0.0560678
0.0568603
0.0573082
0.0577663
0.0582774
0.0587834
0.0592848
0.0597738
0.0602314
0.0606579
0.0610548
0.0614204
0.0617645
0.0620929
0.0624111
0.0627339
0.0630715
0.0634312
0.0638298
0.0642832
0.0648085
0.0654302
0.0661838
0.0671139
0.0682519
0.0696252
0.0712732
0.0732384
0.0755878
0.0784253
0.0818994
0.0862177
0.0917025
0.0988961
0.108721
0.12313
0.146748
0.191747
0.243052
0.185568
0.0596544
0.0591324
0.0585736
0.0580065
0.0574029
0.0567912
0.0561875
0.0555888
0.0550088
0.0544506
0.0539144
0.0534043
0.0529173
0.0524531
0.0520114
0.0515922
0.051196
0.0508243
0.0504786
0.0501629
0.0498792
0.0496325
0.0494381
0.0492944
0.049195
0.0491476
0.0491619
0.0492431
0.0493975
0.0496333
0.0499588
0.0503836
0.0509207
0.051585
0.0524102
0.0534206
0.0547254
0.0563851
0.0585541
0.0601582
0.0606311
0.0611141
0.0616526
0.0621857
0.0627142
0.0632303
0.0637143
0.0641667
0.0645895
0.0649796