/*--------------------------------*- C++ -*----------------------------------*\
| =========                 |                                                 |
| \\      /  F ield         | OpenFOAM: The Open Source CFD Toolbox           |
|  \\    /   O peration     | Version:  2206                                  |
|   \\  /    A nd           | Website:  www.openfoam.com                      |
|    \\/     M anipulation  |                                                 |
\*---------------------------------------------------------------------------*/
FoamFile
{
    version     2.0;
    format      ascii;
    arch        "LSB;label=32;scalar=64";
    class       volScalarField;
    location    "100";
    object      turbulenceProperties:nuEff;
}
// * * * * * * * * * * * * * * * * * * * * * * * * * * * * * * * * * * * * * //

dimensions      [0 2 -1 0 0 0 0];

internalField   nonuniform List<scalar> 
10720
(
3.01739e-05
3.31663e-05
3.71881e-05
4.24385e-05
4.93134e-05
5.83155e-05
7.01503e-05
8.52154e-05
0.000104401
0.000128527
0.000158917
0.000198111
0.000250398
0.00032179
0.000422413
0.000570712
0.00079557
0.0011613
0.0017537
0.00288325
0.00479225
0.00958657
0.018111
0.0478646
0.0887419
0.106071
0.107955
0.107812
0.108625
0.109229
0.108427
0.106024
0.102511
0.0980808
0.092548
0.085792
0.0763908
0.0657468
0.034775
2.75932e-05
2.53367e-05
2.3143e-05
2.11208e-05
1.92461e-05
1.76011e-05
1.64511e-05
1.7852e-05
2.04766e-05
2.47204e-05
3.14971e-05
4.22008e-05
5.84623e-05
8.19398e-05
0.000113849
0.000156339
0.000214254
0.000297443
0.000424382
0.000626381
0.000969812
0.00155983
0.00269333
0.00478055
0.00950076
0.0188152
0.0422996
0.0778787
0.101643
0.110647
0.113138
0.113797
0.113712
0.113043
0.111889
0.110369
0.108128
0.105677
0.095785
1.53098e-05
1.52178e-05
1.51275e-05
1.5045e-05
1.49479e-05
1.48523e-05
1.47694e-05
1.46863e-05
1.46225e-05
1.45792e-05
1.45524e-05
1.45859e-05
1.46085e-05
1.51244e-05
1.72144e-05
2.35068e-05
4.36084e-05
9.51497e-05
0.00018582
0.000366266
0.00069606
0.00161758
0.00336245
0.00876332
0.0208181
0.0372558
0.0582938
0.0828643
0.107448
0.126486
0.13672
0.140182
0.140166
0.138371
0.135494
0.131755
0.128066
0.121612
0.119757
1.53814e-05
1.54861e-05
1.55827e-05
1.57116e-05
1.5842e-05
1.59742e-05
1.60901e-05
1.59974e-05
1.58365e-05
1.56429e-05
1.54261e-05
1.51886e-05
1.49315e-05
1.46537e-05
1.43405e-05
1.39899e-05
1.35728e-05
1.30861e-05
1.24948e-05
1.18079e-05
1.10523e-05
1.04068e-05
1.00692e-05
1.00046e-05
1.31162e-05
0.000180102
0.00106585
0.00630271
0.0180232
0.0336398
0.0487528
0.0596623
0.0659596
0.0693732
0.0714887
0.073256
0.0747914
0.0781932
0.0814466
1.61999e-05
1.62215e-05
1.62422e-05
1.62639e-05
1.62892e-05
1.63163e-05
1.63458e-05
1.63787e-05
1.64154e-05
1.64564e-05
1.65034e-05
1.65577e-05
1.66216e-05
1.66978e-05
1.67959e-05
1.69056e-05
1.62232e-05
1.47853e-05
1.06203e-05
1.01813e-05
3.30674e-05
0.000332
1.16096e-05
1.33118e-05
0.000471996
0.00201632
0.0054351
0.0126587
0.0264798
0.0488876
0.0781924
0.108234
0.132178
0.147789
0.157303
0.162857
0.166988
0.166217
0.168706
1.61861e-05
1.61769e-05
1.61699e-05
1.61609e-05
1.61503e-05
1.61403e-05
1.61236e-05
1.61282e-05
1.61412e-05
1.61599e-05
1.61815e-05
1.62057e-05
1.62344e-05
1.62665e-05
1.63029e-05
1.63432e-05
1.63888e-05
1.64406e-05
1.65019e-05
1.65756e-05
1.66686e-05
1.67892e-05
1.69479e-05
1.7136e-05
1.72689e-05
1.69934e-05
1.6447e-05
1.28384e-05
0.000203687
0.00118034
0.00400845
0.00930229
0.0167649
0.0255358
0.0345908
0.0431189
0.0503834
0.0567951
0.0669632
1.60782e-05
1.60746e-05
1.60758e-05
1.60788e-05
1.60822e-05
1.60871e-05
1.60939e-05
1.61021e-05
1.6113e-05
1.61266e-05
1.61434e-05
1.61644e-05
1.61903e-05
1.62225e-05
1.62624e-05
1.63162e-05
1.63582e-05
1.63156e-05
1.58444e-05
1.41721e-05
1.23033e-05
1.00149e-05
1.00191e-05
1.00065e-05
7.95151e-05
0.000434333
0.00118042
0.00279167
0.000373637
0.00357536
0.0125427
0.0317212
0.0622811
0.0985087
0.131674
0.157381
0.177722
0.192051
0.200131
1.60879e-05
1.61023e-05
1.611e-05
1.61169e-05
1.61188e-05
1.61226e-05
1.61231e-05
1.61167e-05
1.61087e-05
1.61011e-05
1.60942e-05
1.60886e-05
1.60841e-05
1.60809e-05
1.6079e-05
1.60781e-05
1.60783e-05
1.60792e-05
1.60805e-05
1.60822e-05
1.60837e-05
1.60848e-05
1.60853e-05
1.60865e-05
1.6087e-05
1.61054e-05
1.6072e-05
1.63182e-05
1.54187e-05
1.93561e-05
1.05255e-05
1.18343e-05
0.000340062
0.001415
0.00384519
0.00832136
0.0150962
0.0241452
0.0424103
1.61178e-05
1.61096e-05
1.61068e-05
1.61053e-05
1.61044e-05
1.61042e-05
1.61047e-05
1.61068e-05
1.61107e-05
1.61163e-05
1.61236e-05
1.61327e-05
1.61439e-05
1.61576e-05
1.61744e-05
1.61959e-05
1.62221e-05
1.6246e-05
1.62743e-05
1.62405e-05
1.5533e-05
1.39903e-05
1.029e-05
1.00083e-05
1.00014e-05
1e-05
1e-05
1e-05
5.80044e-05
0.000805044
0.00287795
0.00134753
0.00877321
0.028956
0.0654485
0.110837
0.154833
0.194153
0.215284
1.61284e-05
1.61362e-05
1.61366e-05
1.61348e-05
1.6129e-05
1.61278e-05
1.61272e-05
1.61255e-05
1.61231e-05
1.61204e-05
1.61179e-05
1.61157e-05
1.61142e-05
1.61134e-05
1.61137e-05
1.61149e-05
1.61172e-05
1.61204e-05
1.61245e-05
1.61291e-05
1.61343e-05
1.61399e-05
1.61459e-05
1.61524e-05
1.61603e-05
1.61677e-05
1.61845e-05
1.61704e-05
1.62838e-05
1.58152e-05
1.76829e-05
1.00012e-05
6.40869e-05
0.000346246
0.000292798
0.000239117
0.000837995
0.00206824
0.0150601
1.61303e-05
1.61224e-05
1.61186e-05
1.61157e-05
1.61133e-05
1.61119e-05
1.61113e-05
1.61115e-05
1.61129e-05
1.61154e-05
1.61191e-05
1.61241e-05
1.61305e-05
1.61384e-05
1.61482e-05
1.61605e-05
1.61762e-05
1.6194e-05
1.62158e-05
1.62743e-05
1.6334e-05
1.6597e-05
1.55884e-05
1.3055e-05
1.08761e-05
1e-05
1.00046e-05
1.00014e-05
1e-05
1e-05
1e-05
0.000309754
0.00205836
0.00154541
0.0118883
0.0448835
0.100448
0.168939
0.212929
1.61349e-05
1.61349e-05
1.61296e-05
1.61249e-05
1.61182e-05
1.61187e-05
1.61219e-05
1.61243e-05
1.61252e-05
1.61246e-05
1.6123e-05
1.61209e-05
1.61187e-05
1.61165e-05
1.61147e-05
1.61134e-05
1.61128e-05
1.61128e-05
1.61134e-05
1.61145e-05
1.61159e-05
1.61175e-05
1.61192e-05
1.6121e-05
1.61231e-05
1.61257e-05
1.61285e-05
1.61318e-05
1.61372e-05
1.61354e-05
1.61595e-05
1.61746e-05
1.53548e-05
1.17714e-05
1.00086e-05
3.34482e-05
0.000197539
0.000543956
0.00265119
1.61333e-05
1.61308e-05
1.61292e-05
1.61271e-05
1.61248e-05
1.61226e-05
1.61203e-05
1.61182e-05
1.61166e-05
1.61154e-05
1.61147e-05
1.61146e-05
1.6115e-05
1.61156e-05
1.61169e-05
1.61193e-05
1.61232e-05
1.61281e-05
1.61341e-05
1.61401e-05
1.61613e-05
1.62562e-05
1.65697e-05
1.65533e-05
1.61621e-05
1.45986e-05
1.25136e-05
1.07774e-05
1.00011e-05
1.00052e-05
1e-05
1e-05
1e-05
0.000361614
1.19239e-05
0.00562077
0.0385707
0.11959
0.191069
1.61284e-05
1.61215e-05
1.6113e-05
1.61081e-05
1.61027e-05
1.61052e-05
1.61113e-05
1.61167e-05
1.61206e-05
1.6123e-05
1.6124e-05
1.61239e-05
1.61231e-05
1.61218e-05
1.61204e-05
1.61191e-05
1.61181e-05
1.61176e-05
1.61177e-05
1.61183e-05
1.61196e-05
1.61215e-05
1.61239e-05
1.61268e-05
1.61302e-05
1.61343e-05
1.61391e-05
1.61447e-05
1.61504e-05
1.61606e-05
1.6157e-05
1.61985e-05
1.62236e-05
1.51826e-05
1.25623e-05
1.08272e-05
1.00115e-05
1e-05
9.80119e-05
1.61213e-05
1.61254e-05
1.61274e-05
1.61282e-05
1.61283e-05
1.6128e-05
1.61272e-05
1.6126e-05
1.61249e-05
1.61238e-05
1.61231e-05
1.6123e-05
1.61235e-05
1.61248e-05
1.61271e-05
1.61304e-05
1.61349e-05
1.61408e-05
1.6147e-05
1.61528e-05
1.61593e-05
1.61603e-05
1.61931e-05
1.63494e-05
1.65558e-05
1.69777e-05
1.69607e-05
1.63766e-05
1.43576e-05
1.22573e-05
1.00043e-05
1.00034e-05
1e-05
1e-05
1.00059e-05
0.00135075
0.0014669
0.0622819
0.151298
1.61094e-05
1.61001e-05
1.60925e-05
1.60902e-05
1.60872e-05
1.60904e-05
1.60973e-05
1.61044e-05
1.61105e-05
1.61153e-05
1.61188e-05
1.61211e-05
1.61223e-05
1.61225e-05
1.61222e-05
1.61215e-05
1.61206e-05
1.61198e-05
1.61193e-05
1.6119e-05
1.61191e-05
1.61197e-05
1.61206e-05
1.6122e-05
1.61236e-05
1.61256e-05
1.61279e-05
1.61304e-05
1.61331e-05
1.61357e-05
1.61383e-05
1.61391e-05
1.61478e-05
1.61396e-05
1.64344e-05
1.58827e-05
1.32056e-05
1.00172e-05
1.13064e-05
1.61015e-05
1.611e-05
1.61151e-05
1.61189e-05
1.61217e-05
1.61239e-05
1.61254e-05
1.61261e-05
1.61263e-05
1.61261e-05
1.61256e-05
1.61251e-05
1.61246e-05
1.61244e-05
1.61246e-05
1.61251e-05
1.61261e-05
1.61274e-05
1.61294e-05
1.61327e-05
1.61379e-05
1.6144e-05
1.61447e-05
1.61607e-05
1.61946e-05
1.63368e-05
1.6594e-05
1.69581e-05
1.72206e-05
1.72868e-05
1.51347e-05
1.13555e-05
1.00155e-05
1.00001e-05
1e-05
1e-05
0.000792826
0.021413
0.103405
1.60881e-05
1.60814e-05
1.60776e-05
1.60784e-05
1.6077e-05
1.60792e-05
1.60851e-05
1.6092e-05
1.60986e-05
1.61046e-05
1.61097e-05
1.61139e-05
1.6117e-05
1.61191e-05
1.61205e-05
1.61211e-05
1.61212e-05
1.6121e-05
1.61208e-05
1.61205e-05
1.61205e-05
1.61207e-05
1.61213e-05
1.61223e-05
1.61238e-05
1.61258e-05
1.61284e-05
1.61315e-05
1.61353e-05
1.61396e-05
1.61448e-05
1.61502e-05
1.61552e-05
1.61546e-05
1.62085e-05
1.63048e-05
1.67213e-05
1.43334e-05
1.00027e-05
1.60826e-05
1.60917e-05
1.60981e-05
1.61037e-05
1.61084e-05
1.61127e-05
1.61164e-05
1.61193e-05
1.61217e-05
1.61234e-05
1.61245e-05
1.61254e-05
1.6126e-05
1.61265e-05
1.61271e-05
1.6128e-05
1.61293e-05
1.61311e-05
1.61335e-05
1.61363e-05
1.61395e-05
1.61439e-05
1.61481e-05
1.61499e-05
1.61485e-05
1.61499e-05
1.61874e-05
1.62901e-05
1.65373e-05
1.68787e-05
1.77057e-05
1.71094e-05
1.43193e-05
1.00499e-05
1.00005e-05
1e-05
1.00003e-05
0.000150112
0.0608822
1.60731e-05
1.60716e-05
1.60726e-05
1.60756e-05
1.6074e-05
1.60744e-05
1.60778e-05
1.60829e-05
1.60885e-05
1.60941e-05
1.60996e-05
1.61046e-05
1.61089e-05
1.61125e-05
1.61153e-05
1.61173e-05
1.61187e-05
1.61196e-05
1.61201e-05
1.61203e-05
1.61205e-05
1.61207e-05
1.61211e-05
1.61217e-05
1.61226e-05
1.61239e-05
1.61256e-05
1.61278e-05
1.61305e-05
1.61335e-05
1.61369e-05
1.6141e-05
1.61445e-05
1.61522e-05
1.61367e-05
1.62685e-05
1.59198e-05
1.86875e-05
1.05945e-05
1.60713e-05
1.60778e-05
1.60833e-05
1.60888e-05
1.60939e-05
1.60989e-05
1.61037e-05
1.61081e-05
1.6112e-05
1.61154e-05
1.61182e-05
1.61206e-05
1.61225e-05
1.61241e-05
1.61254e-05
1.61266e-05
1.61279e-05
1.61292e-05
1.61308e-05
1.61328e-05
1.61356e-05
1.61392e-05
1.6144e-05
1.61493e-05
1.61539e-05
1.61534e-05
1.61496e-05
1.61466e-05
1.61767e-05
1.62294e-05
1.65702e-05
1.71243e-05
1.77621e-05
1.63245e-05
1.01516e-05
1e-05
1e-05
0.000760675
0.0342603
1.60684e-05
1.60722e-05
1.60766e-05
1.60803e-05
1.60778e-05
1.6076e-05
1.60766e-05
1.6079e-05
1.60825e-05
1.60865e-05
1.60911e-05
1.60957e-05
1.61002e-05
1.61044e-05
1.61081e-05
1.61112e-05
1.61137e-05
1.61157e-05
1.61172e-05
1.61183e-05
1.61191e-05
1.61198e-05
1.61205e-05
1.61212e-05
1.61221e-05
1.61233e-05
1.61249e-05
1.61268e-05
1.61293e-05
1.61323e-05
1.61358e-05
1.614e-05
1.61441e-05
1.6152e-05
1.61426e-05
1.62164e-05
1.59498e-05
1.71282e-05
1.45122e-05
1.607e-05
1.60722e-05
1.60756e-05
1.60794e-05
1.60833e-05
1.60875e-05
1.6092e-05
1.60965e-05
1.6101e-05
1.61053e-05
1.61093e-05
1.61129e-05
1.61161e-05
1.61189e-05
1.61215e-05
1.61237e-05
1.61258e-05
1.61279e-05
1.613e-05
1.61323e-05
1.61347e-05
1.61375e-05
1.61411e-05
1.61458e-05
1.61516e-05
1.61576e-05
1.61618e-05
1.61614e-05
1.61572e-05
1.61444e-05
1.61523e-05
1.63226e-05
1.65948e-05
1.83892e-05
1.72767e-05
1.00061e-05
1e-05
0.000397675
0.0178188
1.60731e-05
1.60798e-05
1.60854e-05
1.60885e-05
1.60854e-05
1.60821e-05
1.60805e-05
1.60804e-05
1.60814e-05
1.60833e-05
1.60861e-05
1.60895e-05
1.60931e-05
1.60969e-05
1.61006e-05
1.61041e-05
1.61073e-05
1.611e-05
1.61124e-05
1.61143e-05
1.6116e-05
1.61173e-05
1.61185e-05
1.61196e-05
1.61207e-05
1.61219e-05
1.61234e-05
1.61252e-05
1.61273e-05
1.61298e-05
1.61327e-05
1.61362e-05
1.61401e-05
1.61455e-05
1.61476e-05
1.61665e-05
1.61286e-05
1.6244e-05
1.62467e-05
1.60765e-05
1.60749e-05
1.60758e-05
1.60773e-05
1.60792e-05
1.60817e-05
1.60847e-05
1.60882e-05
1.60921e-05
1.60961e-05
1.61002e-05
1.61042e-05
1.61081e-05
1.61117e-05
1.61152e-05
1.61183e-05
1.61213e-05
1.6124e-05
1.61267e-05
1.61294e-05
1.61322e-05
1.61352e-05
1.61385e-05
1.61425e-05
1.61473e-05
1.61534e-05
1.61604e-05
1.61677e-05
1.61726e-05
1.61741e-05
1.61543e-05
1.61591e-05
1.61243e-05
1.64289e-05
1.92914e-05
1.4474e-05
1e-05
0.000184469
0.00804221
1.60828e-05
1.60892e-05
1.60937e-05
1.60957e-05
1.6093e-05
1.60895e-05
1.60868e-05
1.60851e-05
1.60843e-05
1.60842e-05
1.60851e-05
1.60867e-05
1.60889e-05
1.60916e-05
1.60946e-05
1.60978e-05
1.61009e-05
1.61039e-05
1.61067e-05
1.61091e-05
1.61114e-05
1.61133e-05
1.61151e-05
1.61167e-05
1.61183e-05
1.61198e-05
1.61215e-05
1.61234e-05
1.61255e-05
1.61279e-05
1.61307e-05
1.6134e-05
1.61378e-05
1.6142e-05
1.61476e-05
1.61505e-05
1.61716e-05
1.6116e-05
1.63122e-05
1.60861e-05
1.60826e-05
1.60818e-05
1.60812e-05
1.60811e-05
1.60816e-05
1.60828e-05
1.60846e-05
1.6087e-05
1.609e-05
1.60933e-05
1.60969e-05
1.61007e-05
1.61045e-05
1.61082e-05
1.61119e-05
1.61155e-05
1.61189e-05
1.61223e-05
1.61256e-05
1.6129e-05
1.61324e-05
1.61359e-05
1.61397e-05
1.6144e-05
1.61491e-05
1.61553e-05
1.61629e-05
1.61713e-05
1.61809e-05
1.61866e-05
1.61758e-05
1.61917e-05
1.59119e-05
1.6731e-05
2.15408e-05
1.001e-05
4.4738e-05
0.0029348
1.60919e-05
1.60955e-05
1.60977e-05
1.6099e-05
1.60975e-05
1.6095e-05
1.60926e-05
1.60906e-05
1.60889e-05
1.60877e-05
1.6087e-05
1.60871e-05
1.60879e-05
1.60892e-05
1.60911e-05
1.60933e-05
1.60958e-05
1.60984e-05
1.61011e-05
1.61037e-05
1.61062e-05
1.61085e-05
1.61107e-05
1.61128e-05
1.61148e-05
1.61168e-05
1.61188e-05
1.61209e-05
1.61231e-05
1.61256e-05
1.61283e-05
1.61314e-05
1.61349e-05
1.61389e-05
1.6144e-05
1.61474e-05
1.61621e-05
1.61423e-05
1.62063e-05
1.60938e-05
1.60907e-05
1.60893e-05
1.60876e-05
1.60863e-05
1.60854e-05
1.60849e-05
1.60851e-05
1.6086e-05
1.60875e-05
1.60896e-05
1.60922e-05
1.60951e-05
1.60984e-05
1.61019e-05
1.61056e-05
1.61093e-05
1.6113e-05
1.61168e-05
1.61205e-05
1.61245e-05
1.61285e-05
1.61325e-05
1.61365e-05
1.61408e-05
1.61455e-05
1.6151e-05
1.61575e-05
1.61655e-05
1.61743e-05
1.61887e-05
1.6188e-05
1.62237e-05
1.61706e-05
1.55614e-05
2.00865e-05
1.19291e-05
1.05029e-05
0.000799238
1.60963e-05
1.60963e-05
1.60963e-05
1.60976e-05
1.60975e-05
1.60967e-05
1.60957e-05
1.60944e-05
1.6093e-05
1.60916e-05
1.60903e-05
1.60895e-05
1.60891e-05
1.60892e-05
1.60899e-05
1.60911e-05
1.60926e-05
1.60945e-05
1.60967e-05
1.6099e-05
1.61013e-05
1.61037e-05
1.6106e-05
1.61083e-05
1.61106e-05
1.61129e-05
1.61153e-05
1.61177e-05
1.61201e-05
1.61228e-05
1.61256e-05
1.61287e-05
1.61322e-05
1.61361e-05
1.61407e-05
1.61454e-05
1.61527e-05
1.61567e-05
1.61696e-05
1.60964e-05
1.60953e-05
1.60945e-05
1.6093e-05
1.60914e-05
1.609e-05
1.60888e-05
1.6088e-05
1.60877e-05
1.60879e-05
1.60887e-05
1.60901e-05
1.6092e-05
1.60944e-05
1.60972e-05
1.61003e-05
1.61037e-05
1.61074e-05
1.61111e-05
1.6115e-05
1.61192e-05
1.61236e-05
1.61281e-05
1.61326e-05
1.61371e-05
1.61419e-05
1.61471e-05
1.61531e-05
1.61603e-05
1.61679e-05
1.618e-05
1.61908e-05
1.61885e-05
1.63454e-05
1.56645e-05
1.71279e-05
1.84495e-05
1.00016e-05
0.000131146
1.60949e-05
1.60921e-05
1.60908e-05
1.60926e-05
1.60936e-05
1.60944e-05
1.60951e-05
1.60952e-05
1.60949e-05
1.60941e-05
1.60932e-05
1.60922e-05
1.60914e-05
1.60908e-05
1.60906e-05
1.60908e-05
1.60915e-05
1.60925e-05
1.60939e-05
1.60955e-05
1.60974e-05
1.60994e-05
1.61016e-05
1.61039e-05
1.61063e-05
1.61087e-05
1.61112e-05
1.61138e-05
1.61165e-05
1.61194e-05
1.61224e-05
1.61256e-05
1.61291e-05
1.6133e-05
1.61373e-05
1.61423e-05
1.61478e-05
1.6156e-05
1.61626e-05
1.60937e-05
1.6095e-05
1.60954e-05
1.60948e-05
1.6094e-05
1.6093e-05
1.60919e-05
1.60909e-05
1.60902e-05
1.60897e-05
1.60897e-05
1.60902e-05
1.60911e-05
1.60926e-05
1.60945e-05
1.60968e-05
1.60996e-05
1.61027e-05
1.61061e-05
1.61098e-05
1.61138e-05
1.61183e-05
1.61231e-05
1.6128e-05
1.61328e-05
1.61378e-05
1.61431e-05
1.61488e-05
1.61556e-05
1.6163e-05
1.61715e-05
1.6189e-05
1.6169e-05
1.63052e-05
1.61064e-05
1.55996e-05
2.1829e-05
1.00034e-05
1.00613e-05
1.60892e-05
1.60856e-05
1.60842e-05
1.60862e-05
1.60878e-05
1.60897e-05
1.60915e-05
1.60931e-05
1.6094e-05
1.60943e-05
1.60942e-05
1.60938e-05
1.60932e-05
1.60925e-05
1.6092e-05
1.60917e-05
1.60917e-05
1.6092e-05
1.60926e-05
1.60935e-05
1.60948e-05
1.60963e-05
1.60981e-05
1.61001e-05
1.61023e-05
1.61046e-05
1.61071e-05
1.61098e-05
1.61126e-05
1.61156e-05
1.61187e-05
1.6122e-05
1.61256e-05
1.61296e-05
1.61339e-05
1.61389e-05
1.61443e-05
1.61517e-05
1.61598e-05
1.60876e-05
1.60906e-05
1.60922e-05
1.60929e-05
1.60932e-05
1.60932e-05
1.60929e-05
1.60925e-05
1.6092e-05
1.60915e-05
1.60912e-05
1.60912e-05
1.60915e-05
1.60922e-05
1.60933e-05
1.60949e-05
1.60969e-05
1.60993e-05
1.61022e-05
1.61054e-05
1.6109e-05
1.61132e-05
1.61179e-05
1.61229e-05
1.6128e-05
1.61333e-05
1.61387e-05
1.61444e-05
1.61508e-05
1.61585e-05
1.6165e-05
1.61821e-05
1.61748e-05
1.62116e-05
1.63629e-05
1.53708e-05
2.03384e-05
1.0355e-05
1.00016e-05
1.60825e-05
1.60797e-05
1.60791e-05
1.60809e-05
1.60824e-05
1.60843e-05
1.60867e-05
1.6089e-05
1.60909e-05
1.60922e-05
1.60931e-05
1.60936e-05
1.60936e-05
1.60934e-05
1.60931e-05
1.60927e-05
1.60924e-05
1.60923e-05
1.60924e-05
1.60928e-05
1.60934e-05
1.60944e-05
1.60956e-05
1.60972e-05
1.6099e-05
1.61011e-05
1.61034e-05
1.61059e-05
1.61087e-05
1.61116e-05
1.61148e-05
1.61181e-05
1.61218e-05
1.61258e-05
1.61303e-05
1.61352e-05
1.61407e-05
1.61475e-05
1.61564e-05
1.60813e-05
1.60847e-05
1.6087e-05
1.60887e-05
1.609e-05
1.6091e-05
1.60916e-05
1.6092e-05
1.60921e-05
1.60921e-05
1.60921e-05
1.60921e-05
1.60922e-05
1.60926e-05
1.60932e-05
1.60942e-05
1.60956e-05
1.60973e-05
1.60995e-05
1.61021e-05
1.61052e-05
1.61089e-05
1.61131e-05
1.61179e-05
1.61231e-05
1.61284e-05
1.6134e-05
1.61399e-05
1.61461e-05
1.61537e-05
1.61601e-05
1.61728e-05
1.61839e-05
1.61594e-05
1.63826e-05
1.57078e-05
1.75854e-05
1.41945e-05
1.02776e-05
1.60774e-05
1.60764e-05
1.60769e-05
1.60782e-05
1.60789e-05
1.60803e-05
1.60823e-05
1.60846e-05
1.60868e-05
1.60888e-05
1.60904e-05
1.60916e-05
1.60925e-05
1.60929e-05
1.6093e-05
1.6093e-05
1.60928e-05
1.60927e-05
1.60926e-05
1.60926e-05
1.60929e-05
1.60934e-05
1.60941e-05
1.60952e-05
1.60966e-05
1.60982e-05
1.61002e-05
1.61025e-05
1.6105e-05
1.61078e-05
1.61109e-05
1.61142e-05
1.61178e-05
1.61219e-05
1.61263e-05
1.61313e-05
1.61369e-05
1.61435e-05
1.61524e-05
1.60771e-05
1.60798e-05
1.6082e-05
1.6084e-05
1.60858e-05
1.60875e-05
1.60888e-05
1.60899e-05
1.60907e-05
1.60913e-05
1.60918e-05
1.60921e-05
1.60924e-05
1.60928e-05
1.60933e-05
1.6094e-05
1.6095e-05
1.60963e-05
1.60979e-05
1.61e-05
1.61024e-05
1.61054e-05
1.61091e-05
1.61134e-05
1.61182e-05
1.61235e-05
1.61291e-05
1.61352e-05
1.61414e-05
1.61487e-05
1.61558e-05
1.61641e-05
1.61849e-05
1.61503e-05
1.63003e-05
1.6084e-05
1.61601e-05
1.73997e-05
1.22485e-05
1.60756e-05
1.60763e-05
1.60776e-05
1.60783e-05
1.60781e-05
1.60785e-05
1.60796e-05
1.60813e-05
1.60832e-05
1.60852e-05
1.60871e-05
1.60887e-05
1.60901e-05
1.60911e-05
1.60918e-05
1.60923e-05
1.60925e-05
1.60926e-05
1.60926e-05
1.60926e-05
1.60927e-05
1.60929e-05
1.60933e-05
1.6094e-05
1.60949e-05
1.60962e-05
1.60978e-05
1.60997e-05
1.61019e-05
1.61044e-05
1.61072e-05
1.61104e-05
1.61139e-05
1.61178e-05
1.61222e-05
1.61272e-05
1.61328e-05
1.61394e-05
1.61482e-05
1.60763e-05
1.60775e-05
1.60791e-05
1.60807e-05
1.60824e-05
1.6084e-05
1.60856e-05
1.6087e-05
1.60883e-05
1.60894e-05
1.60904e-05
1.60911e-05
1.60918e-05
1.60924e-05
1.60931e-05
1.60938e-05
1.60946e-05
1.60957e-05
1.6097e-05
1.60986e-05
1.61006e-05
1.6103e-05
1.6106e-05
1.61096e-05
1.61139e-05
1.61187e-05
1.61242e-05
1.61302e-05
1.61365e-05
1.61436e-05
1.61513e-05
1.61574e-05
1.61789e-05
1.61593e-05
1.62161e-05
1.62996e-05
1.57581e-05
1.74843e-05
1.50147e-05
1.6077e-05
1.60786e-05
1.60801e-05
1.60804e-05
1.60795e-05
1.6079e-05
1.60791e-05
1.60799e-05
1.60811e-05
1.60825e-05
1.60841e-05
1.60857e-05
1.60873e-05
1.60886e-05
1.60898e-05
1.60906e-05
1.60913e-05
1.60917e-05
1.60919e-05
1.60921e-05
1.60923e-05
1.60924e-05
1.60927e-05
1.60932e-05
1.60938e-05
1.60948e-05
1.6096e-05
1.60975e-05
1.60994e-05
1.61016e-05
1.61041e-05
1.6107e-05
1.61103e-05
1.6114e-05
1.61182e-05
1.61231e-05
1.61286e-05
1.61352e-05
1.61439e-05
1.60781e-05
1.6078e-05
1.60787e-05
1.60795e-05
1.60806e-05
1.60818e-05
1.60831e-05
1.60845e-05
1.60858e-05
1.60871e-05
1.60883e-05
1.60894e-05
1.60904e-05
1.60913e-05
1.60922e-05
1.60931e-05
1.6094e-05
1.6095e-05
1.60962e-05
1.60976e-05
1.60993e-05
1.61013e-05
1.61037e-05
1.61066e-05
1.61102e-05
1.61145e-05
1.61195e-05
1.61252e-05
1.61315e-05
1.61384e-05
1.61464e-05
1.61521e-05
1.617e-05
1.61688e-05
1.61635e-05
1.63618e-05
1.58104e-05
1.67499e-05
1.65707e-05
1.60802e-05
1.60818e-05
1.60829e-05
1.60831e-05
1.60819e-05
1.60808e-05
1.60803e-05
1.60802e-05
1.60806e-05
1.60813e-05
1.60823e-05
1.60835e-05
1.60848e-05
1.60861e-05
1.60874e-05
1.60885e-05
1.60894e-05
1.60901e-05
1.60907e-05
1.60911e-05
1.60915e-05
1.60917e-05
1.6092e-05
1.60924e-05
1.6093e-05
1.60937e-05
1.60947e-05
1.60959e-05
1.60974e-05
1.60993e-05
1.61015e-05
1.61041e-05
1.6107e-05
1.61104e-05
1.61144e-05
1.6119e-05
1.61244e-05
1.61309e-05
1.61394e-05
1.60812e-05
1.60802e-05
1.60802e-05
1.60802e-05
1.60806e-05
1.60812e-05
1.6082e-05
1.60829e-05
1.6084e-05
1.60852e-05
1.60863e-05
1.60875e-05
1.60886e-05
1.60897e-05
1.60908e-05
1.60919e-05
1.6093e-05
1.60941e-05
1.60953e-05
1.60966e-05
1.60982e-05
1.60999e-05
1.61019e-05
1.61044e-05
1.61073e-05
1.6111e-05
1.61153e-05
1.61206e-05
1.61265e-05
1.61331e-05
1.61411e-05
1.61472e-05
1.61609e-05
1.61729e-05
1.61404e-05
1.63365e-05
1.59889e-05
1.62124e-05
1.69165e-05
1.60834e-05
1.60843e-05
1.60848e-05
1.60851e-05
1.60841e-05
1.6083e-05
1.60821e-05
1.60816e-05
1.60813e-05
1.60814e-05
1.60817e-05
1.60824e-05
1.60832e-05
1.60842e-05
1.60853e-05
1.60864e-05
1.60874e-05
1.60883e-05
1.6089e-05
1.60897e-05
1.60902e-05
1.60906e-05
1.60911e-05
1.60915e-05
1.6092e-05
1.60927e-05
1.60935e-05
1.60946e-05
1.60959e-05
1.60974e-05
1.60993e-05
1.61016e-05
1.61042e-05
1.61073e-05
1.6111e-05
1.61152e-05
1.61204e-05
1.61265e-05
1.61349e-05
1.60841e-05
1.6083e-05
1.60826e-05
1.60821e-05
1.60819e-05
1.60819e-05
1.60822e-05
1.60826e-05
1.60832e-05
1.6084e-05
1.60849e-05
1.6086e-05
1.6087e-05
1.60881e-05
1.60893e-05
1.60904e-05
1.60916e-05
1.60928e-05
1.60941e-05
1.60955e-05
1.6097e-05
1.60986e-05
1.61005e-05
1.61026e-05
1.61051e-05
1.61081e-05
1.61118e-05
1.61164e-05
1.61218e-05
1.6128e-05
1.61357e-05
1.61423e-05
1.61526e-05
1.61716e-05
1.61354e-05
1.62799e-05
1.61476e-05
1.59806e-05
1.67192e-05
1.60854e-05
1.60854e-05
1.60854e-05
1.60858e-05
1.60853e-05
1.60845e-05
1.60837e-05
1.60831e-05
1.60826e-05
1.60823e-05
1.60821e-05
1.60823e-05
1.60826e-05
1.60832e-05
1.60839e-05
1.60847e-05
1.60856e-05
1.60864e-05
1.60873e-05
1.6088e-05
1.60887e-05
1.60893e-05
1.60898e-05
1.60904e-05
1.6091e-05
1.60916e-05
1.60924e-05
1.60934e-05
1.60945e-05
1.60959e-05
1.60976e-05
1.60995e-05
1.61019e-05
1.61046e-05
1.61079e-05
1.61118e-05
1.61166e-05
1.61224e-05
1.61304e-05
1.60856e-05
1.6085e-05
1.60847e-05
1.6084e-05
1.60836e-05
1.60833e-05
1.60832e-05
1.60832e-05
1.60834e-05
1.60838e-05
1.60844e-05
1.60851e-05
1.60859e-05
1.60869e-05
1.60879e-05
1.6089e-05
1.60902e-05
1.60915e-05
1.60928e-05
1.60942e-05
1.60957e-05
1.60973e-05
1.60991e-05
1.6101e-05
1.61032e-05
1.61058e-05
1.6109e-05
1.61129e-05
1.61177e-05
1.61233e-05
1.61304e-05
1.61373e-05
1.61452e-05
1.61665e-05
1.61386e-05
1.62236e-05
1.62416e-05
1.59505e-05
1.64207e-05
1.60857e-05
1.60849e-05
1.60845e-05
1.60851e-05
1.60851e-05
1.60847e-05
1.60844e-05
1.6084e-05
1.60836e-05
1.60832e-05
1.60829e-05
1.60827e-05
1.60827e-05
1.60829e-05
1.60832e-05
1.60837e-05
1.60843e-05
1.6085e-05
1.60857e-05
1.60864e-05
1.60871e-05
1.60877e-05
1.60884e-05
1.6089e-05
1.60897e-05
1.60904e-05
1.60912e-05
1.60922e-05
1.60932e-05
1.60945e-05
1.6096e-05
1.60978e-05
1.60999e-05
1.61023e-05
1.61053e-05
1.61089e-05
1.61132e-05
1.61186e-05
1.61261e-05
1.60855e-05
1.60856e-05
1.60857e-05
1.60853e-05
1.60849e-05
1.60846e-05
1.60843e-05
1.60842e-05
1.60841e-05
1.60842e-05
1.60844e-05
1.60848e-05
1.60854e-05
1.60861e-05
1.60869e-05
1.60879e-05
1.6089e-05
1.60902e-05
1.60914e-05
1.60928e-05
1.60943e-05
1.60959e-05
1.60977e-05
1.60996e-05
1.61016e-05
1.61039e-05
1.61066e-05
1.611e-05
1.61142e-05
1.61191e-05
1.61255e-05
1.61325e-05
1.61388e-05
1.61591e-05
1.61437e-05
1.61806e-05
1.62735e-05
1.60171e-05
1.61935e-05
1.60845e-05
1.60834e-05
1.6083e-05
1.60835e-05
1.60838e-05
1.60838e-05
1.60839e-05
1.6084e-05
1.60839e-05
1.60837e-05
1.60835e-05
1.60832e-05
1.60831e-05
1.6083e-05
1.60831e-05
1.60833e-05
1.60836e-05
1.6084e-05
1.60845e-05
1.60851e-05
1.60857e-05
1.60863e-05
1.60869e-05
1.60876e-05
1.60883e-05
1.60891e-05
1.60899e-05
1.60909e-05
1.60919e-05
1.60931e-05
1.60945e-05
1.60961e-05
1.60981e-05
1.61003e-05
1.6103e-05
1.61062e-05
1.61102e-05
1.61151e-05
1.6122e-05
1.60842e-05
1.6085e-05
1.60855e-05
1.60855e-05
1.60854e-05
1.60853e-05
1.60851e-05
1.60849e-05
1.60848e-05
1.60848e-05
1.60848e-05
1.6085e-05
1.60853e-05
1.60858e-05
1.60864e-05
1.60872e-05
1.60881e-05
1.60891e-05
1.60903e-05
1.60916e-05
1.6093e-05
1.60945e-05
1.60962e-05
1.6098e-05
1.61e-05
1.61021e-05
1.61046e-05
1.61076e-05
1.61112e-05
1.61155e-05
1.61211e-05
1.61279e-05
1.61332e-05
1.61508e-05
1.61476e-05
1.61533e-05
1.62634e-05
1.61075e-05
1.6079e-05
1.60827e-05
1.60817e-05
1.60814e-05
1.60818e-05
1.60821e-05
1.60823e-05
1.60827e-05
1.60831e-05
1.60833e-05
1.60834e-05
1.60835e-05
1.60834e-05
1.60833e-05
1.60832e-05
1.60831e-05
1.60831e-05
1.60832e-05
1.60834e-05
1.60837e-05
1.60841e-05
1.60846e-05
1.6085e-05
1.60856e-05
1.60862e-05
1.60869e-05
1.60877e-05
1.60886e-05
1.60895e-05
1.60905e-05
1.60917e-05
1.60931e-05
1.60946e-05
1.60964e-05
1.60985e-05
1.61009e-05
1.61039e-05
1.61075e-05
1.6112e-05
1.61183e-05
1.60825e-05
1.60836e-05
1.60844e-05
1.60848e-05
1.6085e-05
1.60852e-05
1.60852e-05
1.60852e-05
1.60851e-05
1.60851e-05
1.60852e-05
1.60853e-05
1.60855e-05
1.60858e-05
1.60862e-05
1.60868e-05
1.60875e-05
1.60884e-05
1.60894e-05
1.60905e-05
1.60918e-05
1.60933e-05
1.60949e-05
1.60966e-05
1.60984e-05
1.61005e-05
1.61028e-05
1.61054e-05
1.61086e-05
1.61124e-05
1.61172e-05
1.61236e-05
1.61285e-05
1.61425e-05
1.61488e-05
1.61392e-05
1.62327e-05
1.61798e-05
1.60614e-05
1.60813e-05
1.60807e-05
1.60805e-05
1.60806e-05
1.60807e-05
1.60809e-05
1.60813e-05
1.60818e-05
1.60823e-05
1.60826e-05
1.60829e-05
1.60831e-05
1.60831e-05
1.60831e-05
1.60831e-05
1.60831e-05
1.60831e-05
1.60831e-05
1.60833e-05
1.60835e-05
1.60837e-05
1.60841e-05
1.60845e-05
1.6085e-05
1.60857e-05
1.60864e-05
1.60872e-05
1.60881e-05
1.60892e-05
1.60903e-05
1.60916e-05
1.60931e-05
1.60948e-05
1.60967e-05
1.6099e-05
1.61018e-05
1.61051e-05
1.61092e-05
1.61148e-05
1.60813e-05
1.60824e-05
1.60832e-05
1.60837e-05
1.60841e-05
1.60845e-05
1.60847e-05
1.60849e-05
1.6085e-05
1.60851e-05
1.60853e-05
1.60854e-05
1.60856e-05
1.60859e-05
1.60862e-05
1.60867e-05
1.60872e-05
1.60879e-05
1.60888e-05
1.60898e-05
1.60909e-05
1.60922e-05
1.60936e-05
1.60952e-05
1.6097e-05
1.60989e-05
1.6101e-05
1.61035e-05
1.61064e-05
1.61097e-05
1.61139e-05
1.61196e-05
1.61243e-05
1.61349e-05
1.6147e-05
1.61341e-05
1.61975e-05
1.62184e-05
1.60993e-05
1.60808e-05
1.60808e-05
1.60806e-05
1.60804e-05
1.60801e-05
1.608e-05
1.60802e-05
1.60806e-05
1.60811e-05
1.60816e-05
1.6082e-05
1.60824e-05
1.60826e-05
1.60828e-05
1.60828e-05
1.60829e-05
1.60829e-05
1.60829e-05
1.60829e-05
1.6083e-05
1.60832e-05
1.60834e-05
1.60837e-05
1.60841e-05
1.60846e-05
1.60852e-05
1.6086e-05
1.60868e-05
1.60878e-05
1.60889e-05
1.60902e-05
1.60916e-05
1.60932e-05
1.60951e-05
1.60972e-05
1.60998e-05
1.61029e-05
1.61067e-05
1.61118e-05
1.60811e-05
1.60817e-05
1.60825e-05
1.60829e-05
1.60833e-05
1.60837e-05
1.6084e-05
1.60843e-05
1.60846e-05
1.60848e-05
1.60851e-05
1.60853e-05
1.60856e-05
1.60859e-05
1.60862e-05
1.60866e-05
1.60871e-05
1.60877e-05
1.60884e-05
1.60892e-05
1.60902e-05
1.60913e-05
1.60926e-05
1.6094e-05
1.60956e-05
1.60974e-05
1.60994e-05
1.61017e-05
1.61043e-05
1.61074e-05
1.6111e-05
1.6116e-05
1.61207e-05
1.61283e-05
1.61426e-05
1.61338e-05
1.61676e-05
1.62253e-05
1.61498e-05
1.60813e-05
1.60817e-05
1.60815e-05
1.6081e-05
1.60803e-05
1.60799e-05
1.60798e-05
1.608e-05
1.60803e-05
1.60807e-05
1.60811e-05
1.60815e-05
1.60819e-05
1.60821e-05
1.60823e-05
1.60824e-05
1.60825e-05
1.60826e-05
1.60826e-05
1.60826e-05
1.60827e-05
1.60828e-05
1.6083e-05
1.60833e-05
1.60837e-05
1.60842e-05
1.60849e-05
1.60857e-05
1.60866e-05
1.60876e-05
1.60888e-05
1.60901e-05
1.60917e-05
1.60934e-05
1.60955e-05
1.60979e-05
1.61008e-05
1.61044e-05
1.6109e-05
1.60818e-05
1.6082e-05
1.60824e-05
1.60826e-05
1.60829e-05
1.60832e-05
1.60835e-05
1.60838e-05
1.60841e-05
1.60845e-05
1.60848e-05
1.60851e-05
1.60855e-05
1.60858e-05
1.60861e-05
1.60865e-05
1.6087e-05
1.60875e-05
1.60882e-05
1.60889e-05
1.60897e-05
1.60907e-05
1.60918e-05
1.6093e-05
1.60944e-05
1.6096e-05
1.60979e-05
1.61e-05
1.61024e-05
1.61052e-05
1.61084e-05
1.61128e-05
1.61174e-05
1.61229e-05
1.61366e-05
1.61347e-05
1.61469e-05
1.6211e-05
1.61867e-05
1.60825e-05
1.60829e-05
1.60826e-05
1.6082e-05
1.60812e-05
1.60804e-05
1.608e-05
1.60799e-05
1.608e-05
1.60802e-05
1.60805e-05
1.60808e-05
1.60811e-05
1.60814e-05
1.60817e-05
1.60819e-05
1.6082e-05
1.60821e-05
1.60822e-05
1.60822e-05
1.60823e-05
1.60823e-05
1.60825e-05
1.60827e-05
1.6083e-05
1.60834e-05
1.6084e-05
1.60846e-05
1.60854e-05
1.60864e-05
1.60875e-05
1.60887e-05
1.60902e-05
1.60919e-05
1.60938e-05
1.60961e-05
1.60989e-05
1.61022e-05
1.61064e-05
1.60829e-05
1.60828e-05
1.6083e-05
1.6083e-05
1.6083e-05
1.60832e-05
1.60834e-05
1.60836e-05
1.60839e-05
1.60842e-05
1.60846e-05
1.60849e-05
1.60853e-05
1.60856e-05
1.6086e-05
1.60864e-05
1.60869e-05
1.60874e-05
1.6088e-05
1.60886e-05
1.60894e-05
1.60903e-05
1.60912e-05
1.60923e-05
1.60935e-05
1.60949e-05
1.60965e-05
1.60984e-05
1.61006e-05
1.61032e-05
1.61062e-05
1.61099e-05
1.61144e-05
1.61187e-05
1.613e-05
1.61347e-05
1.61353e-05
1.61875e-05
1.62018e-05
1.60837e-05
1.60838e-05
1.60835e-05
1.60829e-05
1.60821e-05
1.60812e-05
1.60806e-05
1.60803e-05
1.60801e-05
1.60801e-05
1.60802e-05
1.60803e-05
1.60806e-05
1.60808e-05
1.6081e-05
1.60813e-05
1.60814e-05
1.60816e-05
1.60817e-05
1.60817e-05
1.60818e-05
1.60819e-05
1.6082e-05
1.60821e-05