/*--------------------------------*- C++ -*----------------------------------*\
| =========                 |                                                 |
| \\      /  F ield         | OpenFOAM: The Open Source CFD Toolbox           |
|  \\    /   O peration     | Version:  2206                                  |
|   \\  /    A nd           | Website:  www.openfoam.com                      |
|    \\/     M anipulation  |                                                 |
\*---------------------------------------------------------------------------*/
FoamFile
{
    version     2.0;
    format      ascii;
    arch        "LSB;label=32;scalar=64";
    class       volSymmTensorField;
    location    "100";
    object      turbulenceProperties:R;
}
// * * * * * * * * * * * * * * * * * * * * * * * * * * * * * * * * * * * * * //

dimensions      [0 2 -2 0 0 0 0];

internalField   nonuniform List<symmTensor> 
10720
(
(0.0107944 0.00198016 -3.60952e-21 0.008874 -3.1852e-20 0.00992536)
(0.012927 0.0023783 3.41696e-21 0.0101842 3.07835e-20 0.0116228)
(0.0158348 0.00279154 6.04093e-21 0.0116235 2.62523e-20 0.0138777)
(0.019808 0.0033354 6.38941e-20 0.0135515 3.47911e-19 0.0168758)
(0.0247578 0.00387164 -1.89382e-19 0.015643 -6.75527e-19 0.0204266)
(0.0312885 0.00428109 -2.31521e-19 0.0180208 -4.58565e-19 0.025004)
(0.039836 0.00453598 6.73083e-20 0.0208958 2.7825e-21 0.0308221)
(0.0506392 0.0043677 3.90967e-20 0.024271 6.18188e-20 0.0380276)
(0.0643962 0.00346326 1.10119e-19 0.0284697 -8.89504e-20 0.0471987)
(0.0817632 0.00157321 -1.94004e-20 0.0340066 -1.94642e-20 0.0588402)
(0.103597 -0.00175979 2.31957e-18 0.0415429 9.99185e-19 0.073764)
(0.131622 -0.00705142 -5.37056e-19 0.0522368 -4.12411e-19 0.0934246)
(0.168678 -0.0150712 1.10957e-18 0.0678394 -1.6648e-18 0.12012)
(0.218283 -0.0270371 5.3076e-19 0.0906723 1.17731e-18 0.156797)
(0.286405 -0.0450045 8.99629e-19 0.124624 -1.59496e-18 0.208466)
(0.383758 -0.0725376 1.81162e-19 0.176644 5.61969e-18 0.284014)
(0.525643 -0.115554 2.87401e-17 0.257793 1.42725e-17 0.396885)
(0.746768 -0.186061 -5.72372e-18 0.391838 9.63369e-18 0.576485)
(1.0855 -0.301034 -3.34482e-18 0.611324 -4.69297e-17 0.858806)
(1.69694 -0.515569 2.46187e-18 1.02657 -2.34469e-19 1.37752)
(2.63913 -0.867862 -6.53775e-17 1.71554 -4.84405e-17 2.20111)
(4.85043 -1.70732 1.54747e-16 3.38347 2.60888e-16 4.15704)
(8.22643 -3.07807 -1.07815e-16 6.16299 -3.34467e-16 7.25708)
(19.1734 -7.59842 1.99237e-16 15.489 5.22631e-17 17.4694)
(31.6569 -13.2196 -1.56551e-16 27.6482 -7.49208e-18 29.8417)
(34.7186 -15.1227 1.82296e-17 32.5822 -9.58697e-16 33.7713)
(33.2017 -14.9133 2.08173e-16 33.0501 -5.79152e-17 33.1717)
(31.5004 -14.4667 1.6864e-16 32.8568 3.47162e-16 32.1932)
(30.2401 -14.1306 1.21396e-15 32.8165 4.28975e-16 31.5383)
(28.9681 -13.7321 1.27132e-15 32.5808 3.79281e-15 30.7872)
(27.3663 -13.1304 -2.01617e-15 31.809 -1.45558e-15 29.6048)
(25.3798 -12.3029 -2.35147e-15 30.4196 -2.4977e-15 27.9229)
(23.122 -11.3076 -7.99342e-16 28.5332 -3.44803e-15 25.8568)
(20.645 -10.1708 -3.0863e-15 26.1853 -4.53028e-15 23.4452)
(17.8984 -8.87082 8.96655e-16 23.2891 2.44664e-15 20.6213)
(14.932 -7.4352 1.58191e-16 19.8817 1.82863e-15 17.4282)
(11.2987 -5.64848 4.72543e-18 15.3741 -4.33028e-18 13.3594)
(8.00739 -4.0074 -1.62868e-15 11.0057 4.58685e-16 9.51115)
(1.70896 -0.85855 -5.06716e-16 2.64567 -2.25483e-15 2.16576)
(0.00891592 0.00164618 1.1958e-21 0.00772689 -2.84478e-21 0.00835161)
(0.00745344 0.00134012 -7.12527e-21 0.00666595 8.06337e-21 0.00711079)
(0.00591116 0.00102688 -2.68985e-20 0.00547842 -2.10152e-20 0.00571878)
(0.00462719 0.000761674 3.88419e-20 0.00440194 -4.42938e-20 0.00452962)
(0.00349086 0.000531167 -5.45547e-20 0.00335852 2.00175e-20 0.00342399)
(0.00258605 0.000353237 -1.55204e-19 0.00246388 2.06934e-19 0.00250674)
(0.00208807 0.000248356 1.13109e-19 0.00192083 1.04274e-19 0.00198062)
(0.00238969 0.000273142 6.6221e-20 0.00205514 -2.4178e-19 0.00220496)
(0.00329035 0.000367516 8.0081e-20 0.00263904 1.80563e-21 0.00296001)
(0.00484934 0.000572296 -7.22047e-20 0.00366023 -2.28315e-20 0.00426153)
(0.00723812 0.000981318 7.6942e-20 0.00516953 1.83152e-19 0.00622352)
(0.0107336 0.00174668 2.06728e-19 0.007277 -1.03562e-19 0.00904324)
(0.0157096 0.00308735 -2.93842e-19 0.0101863 -6.53426e-21 0.0130165)
(0.0226351 0.00526295 1.46917e-19 0.0142398 2.64678e-20 0.0185501)
(0.0320939 0.00851238 1.15372e-18 0.0199642 4.19407e-20 0.0261878)
(0.0450953 0.0131876 1.12843e-18 0.0282965 -2.68432e-19 0.0369206)
(0.0635499 0.0199069 4.24178e-19 0.0407527 4.95971e-19 0.0524491)
(0.0909122 0.0299339 1.40148e-19 0.0599977 5.5409e-19 0.0758577)
(0.133596 0.0456818 2.62784e-19 0.0908993 -1.47948e-19 0.112794)
(0.202505 0.0714812 4.65446e-19 0.142165 2.95953e-20 0.173131)
(0.320823 0.116501 -7.24415e-19 0.232375 -4.36526e-18 0.277812)
(0.525742 0.196232 -2.92501e-18 0.393409 3.6916e-20 0.461582)
(0.920769 0.353396 2.9212e-18 0.71361 3.40377e-18 0.820858)
(1.64668 0.651346 1.4638e-18 1.32852 1.73446e-19 1.49503)
(3.27456 1.33548 1.04744e-16 2.75974 -1.27716e-17 3.03345)
(6.45175 2.70617 6.61329e-19 5.67685 -2.00316e-18 6.0979)
(14.3661 6.1817 -1.80392e-19 13.1826 -6.64869e-18 13.8544)
(26.0964 11.4933 -1.86652e-18 24.9546 5.73435e-20 25.672)
(33.4995 15.0687 3.85456e-18 33.3637 5.22009e-20 33.6024)
(35.7848 16.4001 4.01124e-16 37.0603 -2.43665e-17 36.5763)
(35.8361 16.691 -1.85962e-17 38.4995 -9.15629e-19 37.2947)
(35.2386 16.6415 -5.29758e-17 39.1701 1.39254e-16 37.3083)
(34.3622 16.4206 -2.46907e-15 39.4235 -3.21497e-16 36.9791)
(33.274 16.0614 -4.34407e-15 39.3125 2.89714e-16 36.3659)
(32.0052 15.5824 3.91874e-15 38.8677 3.61255e-16 35.499)
(30.5959 15.0071 -2.28958e-17 38.1416 -7.0368e-17 34.4236)
(28.8252 14.2327 -2.42014e-17 36.8855 -1.70612e-16 32.9054)
(26.9433 13.3767 -1.54298e-16 35.3322 1.69595e-16 31.1847)
(21.6711 10.8306 -3.7718e-15 29.5168 -5.1308e-17 25.6062)
(0.00210544 -0.000132546 -1.20289e-21 0.00173347 -3.47126e-21 0.00189656)
(0.00207638 -0.000162078 1.37995e-21 0.00176176 4.7437e-21 0.00189254)
(0.00202051 -0.000187582 5.46518e-22 0.00178645 1.72194e-22 0.00187114)
(0.00193312 -0.000198625 3.5197e-21 0.00178058 3.84623e-22 0.00181936)
(0.00181875 -0.000197628 5.50634e-21 0.00174542 2.56458e-20 0.00174075)
(0.00169167 -0.000187452 2.05105e-20 0.00169272 3.73636e-20 0.00164707)
(0.00155393 -0.000169476 -8.11537e-21 0.00161258 1.36508e-21 0.00153488)
(0.00140946 -0.000146984 -7.35014e-21 0.00150791 -2.25754e-21 0.00140827)
(0.00127105 -0.000123853 -4.94433e-20 0.00139412 -5.35278e-20 0.00128071)
(0.00113949 -0.000102306 -1.50008e-20 0.00127213 -5.5867e-21 0.00115308)
(0.00101847 -8.36891e-05 -1.42147e-19 0.00115022 -1.35988e-19 0.00103145)
(0.000916708 -6.93835e-05 -1.74869e-21 0.0010419 2.08471e-20 0.000926028)
(0.000828449 -5.88145e-05 -6.83667e-20 0.000941842 5.12027e-22 0.000832322)
(0.000792483 -5.80563e-05 4.87157e-20 0.000900994 2.88193e-20 0.000789899)
(0.000863467 -7.72215e-05 -1.33102e-19 0.000987275 -3.91257e-20 0.000848868)
(0.00112474 -0.000146296 5.16679e-19 0.00129499 1.23535e-19 0.00107397)
(0.00188866 -0.000401897 -1.15998e-18 0.00214008 -9.54728e-19 0.0016942)
(0.00392676 -0.00121229 -2.69083e-18 0.00409181 -9.35639e-19 0.00324606)
(0.00889676 -0.00315384 -5.95672e-18 0.00817632 2.37548e-18 0.00707767)
(0.0227091 -0.00831155 1.33162e-18 0.0189547 9.57279e-22 0.0181654)
(0.0572341 -0.0211611 1.22361e-17 0.0454127 1.41134e-17 0.0468896)
(0.173642 -0.0651438 -2.80784e-17 0.135776 -5.49377e-17 0.146318)
(0.452659 -0.173929 1.89172e-18 0.358733 7.90318e-17 0.392759)
(1.37723 -0.545822 1.9635e-18 1.12832 -3.29503e-17 1.2298)
(3.44526 -1.40814 -0 2.93682 -0 3.15959)
(5.94569 -2.49868 -9.5892e-18 5.27272 2.09166e-16 5.59031)
(8.4827 -3.65884 -4.4771e-17 7.83684 2.53327e-17 8.16758)
(10.6346 -4.70248 -5.89081e-17 10.2627 -2.46509e-16 10.4777)
(11.8666 -5.37321 -7.91046e-16 11.993 -1.56866e-15 11.9651)
(11.7661 -5.44519 2.86301e-16 12.4686 -5.33734e-15 12.1425)
(10.4916 -4.94847 -9.61897e-17 11.6482 3.97087e-15 11.0745)
(8.82655 -4.22701 -2.98065e-16 10.23 5.23696e-15 9.50945)
(7.31554 -3.54152 -2.07885e-15 8.78616 3.0398e-15 8.01329)
(6.13215 -2.99014 5.42612e-15 7.56322 1.10779e-14 6.80378)
(5.24942 -2.57269 -2.76007e-16 6.59775 -1.82584e-15 5.88506)
(4.58766 -2.25396 5.52852e-15 5.81985 -2.91751e-15 5.17161)
(4.11785 -2.02967 -1.83673e-16 5.27731 3.82133e-17 4.67773)
(3.70971 -1.80889 2.41803e-15 4.61018 -8.71286e-16 4.11148)
(3.8866 -1.95239 5.10435e-15 5.17764 7.49863e-15 4.6802)
(0.0021019 -9.35031e-05 1.6927e-21 0.00168726 3.77191e-21 0.00187608)
(0.00207992 -5.2793e-05 3.0741e-23 0.00164112 -2.94022e-20 0.00184431)
(0.00202606 -2.65617e-06 -1.95666e-20 0.00158358 -2.53404e-20 0.001794)
(0.00192982 5.22213e-05 7.54895e-21 0.001515 6.51365e-20 0.00171721)
(0.00178018 0.000101389 5.47747e-20 0.00143116 -5.00346e-20 0.00160588)
(0.00159076 0.000135349 -2.67325e-20 0.0013356 -5.64755e-20 0.0014665)
(0.00140599 0.000150369 -2.95033e-20 0.00124651 -1.09959e-19 0.00133236)
(0.00121577 0.000147012 -9.3458e-20 0.00114972 1.6927e-20 0.00118876)
(0.00102325 0.000129467 -2.98802e-20 0.00104156 7.82228e-20 0.00103508)
(0.000849737 0.000102775 -2.20056e-20 0.000926375 2.39781e-21 0.000886169)
(0.000705896 7.53734e-05 -1.33992e-21 0.000809711 -4.45369e-20 0.00075204)
(0.00058839 5.25313e-05 -9.32997e-22 0.000696894 -1.73874e-20 0.000634331)
(0.000490795 3.54363e-05 1.32644e-20 0.000591491 3.41914e-20 0.000531467)
(0.000408615 2.36955e-05 -1.51746e-20 0.000495607 -5.95233e-21 0.000441979)
(0.000339603 1.61743e-05 -6.23282e-21 0.000411281 -2.13563e-20 0.000365566)
(0.000282174 1.14749e-05 -2.97254e-20 0.000339493 -3.23265e-21 0.000301713)
(0.00023382 8.52067e-06 -3.23507e-21 0.000278269 3.83374e-22 0.000248028)
(0.00019312 6.56559e-06 -1.45698e-22 0.000226527 -1.5219e-21 0.000203111)
(0.000157196 5.004e-06 -2.47688e-21 0.000180975 1.30397e-21 0.000163849)
(0.000123734 3.54751e-06 2.65018e-21 0.000139152 -8.28713e-22 0.000127762)
(8.93669e-05 2.06107e-06 -1.28533e-20 9.75548e-05 6.46116e-21 9.13521e-05)
(5.39016e-05 8.00502e-07 -9.20628e-22 5.68566e-05 1.64058e-22 5.45577e-05)
(2.2018e-05 1.36165e-07 2.37435e-23 2.24974e-05 -9.19829e-23 2.2112e-05)
(5.6932e-06 9.13975e-09 5.34525e-23 5.72364e-06 -1.88156e-24 5.69802e-06)
(0.000148026 6.89746e-06 -3.34077e-20 0.000168037 3.03459e-21 0.000150275)
(0.00153346 0.000439394 -1.65132e-18 0.0025969 1.37393e-19 0.00160806)
(0.00993118 0.00318222 -1.265e-20 0.0165188 1.57481e-19 0.0101891)
(0.0623931 0.0215147 6.40756e-21 0.100122 3.3525e-19 0.063168)
(0.178529 0.0677719 -6.54234e-20 0.273625 -8.88991e-22 0.17988)
(0.327532 0.136464 3.16775e-18 0.474426 1.90352e-17 0.331174)
(0.478729 0.213246 1.09411e-18 0.655091 -2.12293e-17 0.489284)
(0.609589 0.282038 2.38926e-17 0.798287 -6.90777e-17 0.63199)
(0.714048 0.337153 2.73406e-15 0.911741 1.75828e-16 0.751732)
(0.799232 0.38195 2.54071e-15 1.01112 -3.57734e-16 0.85403)
(0.872941 0.420791 -2.3517e-15 1.10725 -8.24743e-17 0.946348)
(0.946411 0.459014 2.24274e-15 1.20917 2.85592e-16 1.03828)
(1.01914 0.497643 -3.99821e-15 1.3231 -5.77059e-16 1.135)
(1.21412 0.591526 -3.69391e-15 1.55965 -7.04458e-16 1.3443)
(1.64907 0.813928 -3.64175e-15 2.08919 -2.09989e-16 1.88357)
(0.00143439 -9.67149e-05 -4.89946e-22 0.00115994 -7.64163e-22 0.00130724)
(0.0013942 -0.000120504 -1.32699e-20 0.00116618 -2.63633e-20 0.00129295)
(0.00132758 -0.000138938 9.53783e-21 0.00116294 1.69631e-20 0.00126072)
(0.00124015 -0.000147798 1.27045e-20 0.00114797 2.09632e-20 0.0012133)
(0.00114892 -0.000147381 2.33799e-20 0.00113044 3.32165e-20 0.00116214)
(0.00105241 -0.000136984 -7.04569e-20 0.00110553 -1.11928e-19 0.00110477)
(0.000958442 -0.000117575 4.85734e-20 0.00107326 8.57176e-20 0.00104534)
(0.000876948 -9.22945e-05 6.22465e-20 0.00103872 5.71399e-20 0.000990473)
(0.000810174 -6.33181e-05 -3.62484e-21 0.00100312 6.97907e-21 0.000942154)
(0.000761349 -3.37262e-05 4.15279e-20 0.000969277 6.6025e-20 0.000903475)
(0.000729107 -5.76235e-06 -8.28309e-20 0.000937968 -6.92881e-21 0.00087376)
(0.000711401 1.93035e-05 1.16508e-19 0.000910134 1.23164e-19 0.000852664)
(0.000704697 4.06853e-05 5.50725e-20 0.000885236 2.38853e-20 0.000838112)
(0.000709036 5.81773e-05 2.59306e-20 0.000868343 -2.45093e-20 0.000832101)
(0.000723024 7.25075e-05 7.99832e-20 0.000861441 7.71088e-20 0.000834967)
(0.000743978 8.42088e-05 -2.03184e-19 0.000863829 -2.03868e-19 0.000845273)
(0.00072262 8.2938e-05 4.51022e-20 0.000815151 6.77509e-20 0.000803583)
(0.000646654 6.77906e-05 3.00309e-19 0.000707975 8.69157e-20 0.000701613)
(0.000238394 9.14584e-06 1.18463e-20 0.000245271 8.62806e-21 0.000244625)
(0.000127908 2.70678e-06 -1.06438e-21 0.000129656 -7.12522e-23 0.000129477)
(0.00137997 0.000334439 1.48314e-19 0.00157042 -3.31019e-19 0.0015458)
(0.00850455 0.00419059 3.67373e-19 0.0106262 3.05942e-18 0.0102692)
(0.000242825 1.60954e-05 2.84463e-20 0.00024943 -6.45725e-21 0.000248178)
(0.000178849 1.71334e-05 -3.27364e-20 0.000181335 -1.37912e-20 0.000181745)
(0.00189743 -0.000322881 4.53014e-20 0.000847751 9.03675e-20 0.00137269)
(0.034117 -0.0129912 -1.41989e-17 0.0264609 4.15254e-18 0.0297788)
(0.156339 -0.0644856 6.88394e-18 0.135334 2.35628e-18 0.144057)
(0.495834 -0.213423 -9.50326e-18 0.45895 -6.49856e-19 0.473566)
(1.26848 -0.561738 -2.80816e-16 1.23346 2.66231e-16 1.245)
(2.64194 -1.19564 -6.19591e-16 2.67697 2.0518e-17 2.653)
(4.43283 -2.04426 2.32637e-15 4.67014 -6.56238e-16 4.54838)
(5.98087 -2.80536 2.23668e-15 6.548 1.07559e-15 6.26886)
(6.68394 -3.18193 -4.43652e-17 7.5939 2.81071e-15 7.15093)
(6.51714 -3.13857 5.09245e-15 7.64864 -3.43955e-15 7.09543)
(5.89561 -2.86187 4.10402e-15 7.09521 -2.16609e-15 6.50289)
(5.17629 -2.52077 -7.62435e-15 6.30382 -2.24092e-15 5.74015)
(4.59414 -2.24231 -1.89894e-17 5.634 -1.11275e-15 5.11721)
(4.00113 -1.91619 5.24499e-15 4.64952 -6.65116e-16 4.30612)
(4.27497 -2.11607 -9.69131e-15 5.53236 3.70456e-15 4.90932)
(0.0014656 -6.76043e-05 -3.26039e-21 0.00115492 -6.4699e-21 0.00131908)
(0.00147894 -3.71064e-05 -2.10209e-21 0.00114776 2.82034e-21 0.00131988)
(0.00148073 -3.72471e-07 3.00515e-20 0.00114206 3.26967e-20 0.00131623)
(0.00144948 3.78047e-05 -2.01459e-20 0.00112596 -2.49941e-21 0.00129029)
(0.00137684 7.35339e-05 2.8173e-21 0.00109441 1.02102e-20 0.00123648)
(0.00126327 0.000100128 4.84376e-21 0.00104397 6.15302e-20 0.00115334)
(0.00113177 0.000114856 5.1191e-21 0.000985659 3.14048e-20 0.00105912)
(0.00100198 0.00011885 1.23719e-19 0.000929643 5.71843e-20 0.000966454)
(0.000865227 0.000110951 2.7385e-20 0.00085889 -2.15579e-20 0.000862569)
(0.000725198 9.38971e-05 5.45744e-20 0.000767639 5.92983e-21 0.000747394)
(0.000593121 7.31221e-05 -6.09834e-20 0.000663825 -2.01374e-20 0.000630453)
(0.000477052 5.31005e-05 -3.57291e-20 0.000559049 5.07371e-20 0.00052121)
(0.000379184 3.59912e-05 5.63295e-20 0.000460993 -2.57371e-20 0.000424447)
(0.000298909 2.25409e-05 2.76343e-20 0.000373542 -1.76847e-22 0.000341724)
(0.000236329 1.27759e-05 -3.32005e-20 0.000300873 2.3198e-20 0.000274959)
(0.000188922 5.94547e-06 -1.83682e-20 0.000242944 3.53375e-20 0.000222966)
(0.000154393 1.36226e-06 5.49464e-20 0.000198862 -2.64808e-20 0.000184108)
(0.000130018 -1.68046e-06 4.37313e-20 0.00016642 -8.39001e-21 0.000155987)
(0.00011371 -3.74503e-06 1.61754e-20 0.000143765 -2.03297e-21 0.000136622)
(0.000103242 -5.30489e-06 -5.64345e-21 0.000128268 1.55001e-20 0.000123711)
(9.71374e-05 -6.62654e-06 8.47952e-20 0.000118175 1.51278e-21 0.000115633)
(9.4704e-05 -7.9867e-06 2.16518e-21 0.000112234 -9.95079e-21 0.000111526)
(9.56554e-05 -9.55215e-06 -2.14388e-22 0.000109474 -5.77646e-22 0.000110798)
(9.97566e-05 -1.11252e-05 -1.21316e-21 0.000108169 -4.99273e-21 0.00011274)
(0.000105633 -1.18559e-05 -8.11938e-23 0.000106841 2.12644e-21 0.000115838)
(0.000110302 -1.10341e-05 1.33166e-19 0.000104539 -8.17256e-21 0.000117424)
(0.000113823 -9.26465e-06 -1.46038e-21 0.000102864 9.83922e-23 0.000118378)
(7.50705e-05 -3.33552e-06 -5.64388e-21 6.8587e-05 -1.46612e-23 7.63678e-05)
(0.00105054 -0.00015096 -4.55891e-21 0.000582202 5.28102e-22 0.00110157)
(0.00498741 -0.000324371 -3.83793e-18 0.00250708 -1.30046e-19 0.00514344)
(0.0124814 0.00100863 2.4384e-17 0.00623545 2.48059e-18 0.012751)
(0.0245941 0.0072199 -2.05234e-18 0.0157316 -2.69986e-20 0.0251248)
(0.0512664 0.0214648 -3.36872e-16 0.0444872 2.68483e-17 0.0528217)
(0.0983126 0.0449294 2.4091e-19 0.0996762 3.86791e-17 0.10247)
(0.162541 0.0763643 6.5331e-18 0.177517 -6.11425e-17 0.171584)
(0.237474 0.112667 2.07907e-17 0.267916 4.90349e-17 0.252546)
(0.313561 0.149994 -1.07016e-16 0.362206 2.48424e-16 0.337264)
(0.381091 0.17749 2.44752e-15 0.412453 7.03647e-16 0.394432)
(0.607382 0.290837 4.95942e-15 0.69131 1.70396e-15 0.662158)
(0.0011817 -7.85605e-05 -2.65014e-21 0.000957579 -3.78901e-21 0.00106655)
(0.00116855 -9.6958e-05 -4.82812e-21 0.000974837 -8.29952e-21 0.00106814)
(0.00114239 -0.000113472 1.02285e-20 0.00099123 1.26826e-20 0.00106197)
(0.00110878 -0.00012507 1.05745e-20 0.00100662 1.39134e-20 0.0010516)
(0.00106531 -0.000130371 1.44857e-21 0.00101515 -1.56193e-22 0.00103272)
(0.00101266 -0.000129283 -2.79115e-21 0.00101575 8.70914e-21 0.00100502)
(0.000955573 -0.000122205 9.9428e-20 0.00100777 9.88069e-20 0.000970727)
(0.000894601 -0.000110085 -9.39678e-20 0.000988013 -1.16668e-19 0.000928553)
(0.000832417 -9.44671e-05 2.11148e-20 0.000957876 5.54949e-21 0.000880416)
(0.000770627 -7.72127e-05 1.21858e-19 0.000917453 8.97458e-20 0.000827477)
(0.000710149 -5.97781e-05 9.9074e-20 0.000868349 9.67428e-20 0.000770895)
(0.000652127 -4.33897e-05 1.06143e-19 0.000813154 3.34349e-20 0.000712627)
(0.00059708 -2.89057e-05 -1.17399e-19 0.000754075 -8.74251e-20 0.000654057)
(0.000543516 -1.66482e-05 -7.67369e-20 0.000691141 -7.243e-20 0.000594647)
(0.000491394 -6.81078e-06 7.36309e-21 0.000625999 -2.38532e-20 0.000535282)
(0.000439487 6.2976e-07 -1.81278e-19 0.000558525 1.05525e-20 0.000475283)
(0.000383756 6.80236e-06 -5.14122e-20 0.0004847 -6.32341e-20 0.000411337)
(0.00032881 1.16418e-05 -2.90357e-19 0.000410171 -2.22131e-19 0.000348377)
(0.000275053 1.49296e-05 2.85135e-20 0.000334488 -3.91259e-20 0.000287269)
(0.000212957 1.38178e-05 9.37855e-21 0.000246117 -2.15827e-20 0.000218712)
(0.00016089 9.98199e-06 -5.58507e-20 0.000175519 -1.53701e-22 0.000163263)
(1.49603e-05 8.52257e-08 5.86763e-23 1.50409e-05 1.20232e-23 1.49753e-05)
(2.04987e-05 1.42526e-07 -3.76924e-22 2.0589e-05 -7.75998e-23 2.05193e-05)
(1.38458e-05 5.82319e-08 -4.25412e-23 1.38691e-05 4.63225e-23 1.38512e-05)
(0.00179829 0.000660753 1.13154e-19 0.00192832 7.54128e-21 0.00181224)
(0.00871835 0.00388136 2.59558e-18 0.00879642 1.36771e-18 0.00849924)
(0.0220789 0.00952315 -6.26594e-19 0.0208139 2.65268e-19 0.020863)
(0.0438461 0.018193 1.99268e-18 0.0386718 1.23792e-19 0.0401954)
(0.00393462 0.00150878 3.3991e-18 0.00312328 1.40559e-19 0.00342953)
(0.0146286 0.00275796 -2.63321e-18 0.00697936 2.92145e-17 0.0101388)
(0.108813 -0.0435958 -1.83952e-16 0.0903701 -1.68869e-16 0.0980615)
(0.569542 -0.2547 8.18763e-16 0.56413 -7.65069e-16 0.564496)
(1.61477 -0.747177 1.1577e-15 1.71487 -1.10442e-16 1.66272)
(3.04063 -1.43535 -3.57653e-16 3.38395 -4.1935e-15 3.21259)
(4.22981 -2.02454 -3.99399e-15 4.8804 -1.07122e-15 4.55987)
(4.7805 -2.30525 4.69606e-16 5.63733 2.38317e-15 5.21371)
(4.867 -2.35723 -7.46792e-15 5.81232 1.08188e-15 5.34844)
(4.57904 -2.17987 -5.46328e-15 5.22076 9.8984e-16 4.88943)
(4.76356 -2.32048 5.67616e-15 5.78892 -4.75672e-15 5.29075)
(0.001183 -5.64015e-05 -1.15973e-21 0.000936053 6.44101e-22 0.00105782)
(0.00117511 -3.33948e-05 3.85441e-21 0.000915392 2.25652e-20 0.00104393)
(0.00115347 -5.54285e-06 1.39714e-20 0.000891137 2.38225e-20 0.00102227)
(0.00111692 2.32872e-05 2.10986e-20 0.000866359 -1.11162e-20 0.000991872)
(0.00105952 5.0469e-05 -4.10858e-20 0.000837581 -2.6615e-20 0.00094875)
(0.00098407 7.219e-05 -8.25995e-21 0.000805064 -3.97051e-20 0.00089444)
(0.000899857 8.64388e-05 -6.1601e-20 0.000772129 -4.14823e-20 0.000836094)
(0.000806018 9.19611e-05 -6.70938e-20 0.000733217 3.58344e-21 0.000770038)
(0.000705024 8.85335e-05 -1.01648e-20 0.000683629 -1.27262e-20 0.000694859)
(0.000605135 7.8323e-05 2.664e-20 0.000625166 -1.70687e-20 0.000615615)
(0.000513807 6.4614e-05 1.84022e-20 0.000562338 4.21006e-20 0.000538225)
(0.000435012 5.03779e-05 4.92485e-20 0.00049986 -1.98206e-20 0.000467072)
(0.000368827 3.74357e-05 -4.09877e-20 0.000440455 -2.91603e-20 0.000403679)
(0.00031398 2.66823e-05 -1.60525e-21 0.000385793 1.1413e-20 0.00034831)
(0.000269469 1.84357e-05 4.14414e-20 0.000337584 -1.06202e-20 0.000301322)
(0.000233359 1.23875e-05 7.58851e-20 0.000295988 -8.7695e-21 0.00026193)
(0.00020435 8.12038e-06 -5.33606e-20 0.000261075 -5.33718e-21 0.000229519)
(0.000181052 5.15447e-06 -1.07611e-20 0.000232182 -1.52033e-20 0.000203076)
(0.000162585 3.05241e-06 -4.69885e-21 0.000208828 2.78973e-21 0.0001819)
(0.000147625 1.42723e-06 7.645e-20 0.00018967 -2.45177e-20 0.000164683)
(0.000135527 4.46418e-08 1.04787e-20 0.000173994 -1.26584e-20 0.000150691)
(0.000125361 -1.29369e-06 -7.32251e-20 0.000160616 1.71697e-20 0.000138862)
(0.000116229 -2.69711e-06 -1.9641e-21 0.000148269 6.35696e-21 0.000128079)
(0.000106449 -4.042e-06 -7.04342e-22 0.000134703 -3.45466e-21 0.000116395)
(9.62936e-05 -4.85441e-06 2.98733e-22 0.00012045 -2.6448e-23 0.000104074)
(8.80912e-05 -5.04927e-06 -5.39841e-20 0.000108867 2.45625e-22 9.38481e-05)
(8.18012e-05 -4.88472e-06 -1.2476e-22 9.98888e-05 1.23122e-23 8.58703e-05)
(7.83012e-05 -4.7907e-06 1.2033e-20 9.49783e-05 -5.74902e-22 8.11616e-05)
(6.68839e-05 -3.75861e-06 -4.7838e-22 7.93303e-05 -6.89607e-24 6.83796e-05)
(7.57833e-05 -5.67964e-06 4.93615e-23 9.33796e-05 -3.23598e-21 7.70489e-05)
(1.42943e-05 -2.60254e-07 -2.94036e-21 1.50111e-05 1.10616e-22 1.43094e-05)
(1.78945e-05 -6.48813e-07 -2.12733e-22 1.94234e-05 -1.31414e-23 1.78087e-05)
(0.000250555 -5.91748e-05 4.66836e-20 0.00037326 -1.28141e-19 0.000219533)
(0.000465673 4.51841e-05 2.36659e-17 0.000505049 3.5727e-18 0.000301084)
(0.00294045 0.00109764 3.97549e-19 0.00225207 3.9432e-20 0.00250207)
(0.0123459 0.00488368 -2.31849e-16 0.00988173 -2.73399e-17 0.0114074)
(0.0346752 0.014633 1.49618e-15 0.030475 2.14137e-16 0.0336754)
(0.0839036 0.0338702 3.07341e-17 0.069431 -1.27074e-16 0.0776568)
(0.260528 0.119086 2.39758e-16 0.264631 -1.33296e-15 0.270713)
(0.000901921 -6.02487e-05 -2.6613e-21 0.000730184 -3.01368e-21 0.000816972)
(0.000886831 -7.39889e-05 -5.5044e-21 0.000739336 -7.58221e-21 0.000814567)
(0.000863298 -8.61192e-05 1.87035e-20 0.000748409 2.35763e-20 0.000807547)
(0.000831908 -9.43716e-05 -7.77364e-20 0.000754908 -9.39281e-20 0.000795632)
(0.000793421 -9.79025e-05 1.92355e-20 0.000756947 2.22144e-20 0.000778039)
(0.000748135 -9.64207e-05 4.11087e-20 0.00075342 4.14335e-20 0.000754223)
(0.000698935 -8.99581e-05 -3.6588e-20 0.00074328 -5.14629e-20 0.000725341)
(0.000647759 -7.91768e-05 -1.76519e-20 0.000725643 1.94182e-21 0.000691804)
(0.000596567 -6.50593e-05 -1.39682e-19 0.00070076 -1.25811e-19 0.000654646)
(0.00054798 -4.90057e-05 -2.42079e-20 0.000669931 -5.01658e-20 0.000615955)
(0.000503437 -3.2249e-05 3.35458e-21 0.000634531 -1.12248e-20 0.000577011)
(0.000464213 -1.59195e-05 -7.23284e-20 0.00059646 -8.494e-20 0.00053941)
(0.00043106 -9.06583e-07 3.45711e-20 0.000557601 3.87589e-20 0.000504478)
(0.000404347 1.21927e-05 -1.38361e-19 0.000519765 -7.01336e-20 0.000473269)
(0.000383895 2.29979e-05 2.80683e-20 0.000484305 1.56185e-20 0.000446295)
(0.000370047 3.15178e-05 1.33783e-19 0.000453154 1.07634e-19 0.00042471)
(0.000360777 3.75189e-05 -1.80962e-19 0.000426103 -5.07466e-20 0.000406966)
(0.000350927 4.08248e-05 -3.33024e-20 0.000399305 1.47797e-19 0.00038831)
(0.000336123 4.1655e-05 -1.12345e-20 0.000368596 -1.8804e-20 0.000364626)
(0.000314044 3.99672e-05 -1.34128e-19 0.000332034 -2.06894e-20 0.000333869)
(0.000271616 3.28269e-05 1.23049e-19 0.00027707 7.45036e-20 0.000282465)
(0.000210754 2.15997e-05 2.84816e-21 0.000209184 -4.22727e-21 0.000214698)
(5.30128e-05 1.48191e-06 4.87525e-21 5.26404e-05 1.36422e-21 5.30966e-05)
(9.0475e-06 4.28256e-08 1.01418e-22 9.03141e-06 3.38572e-23 9.04565e-06)
(3.83896e-06 7.34349e-09 -1.63794e-24 3.83546e-06 -1.60172e-25 3.83805e-06)
(1.53679e-09 1.1312e-15 2.70982e-32 1.53679e-09 -1.09477e-31 1.53679e-09)
(0 0 0 0 -0 0)
(0 0 -0 0 -0 0)
(0.00103289 0.000292452 -4.07145e-19 0.000869708 -2.694e-20 0.00096042)
(0.0126707 0.00489972 6.49405e-19 0.00991102 3.39753e-20 0.0113743)
(0.04275 0.0162426 -4.32229e-18 0.0327252 2.14709e-18 0.0378516)
(0.0154458 0.0055507 -3.51339e-17 0.0110713 -2.50591e-17 0.013261)
(0.0472739 0.0117112 -2.33016e-17 0.0248565 -7.17178e-17 0.0359441)
(0.188801 -0.0747979 -2.12526e-15 0.153316 2.0541e-16 0.170393)
(0.968203 -0.44423 3.83454e-16 1.009 1.24349e-15 0.987465)
(2.35935 -1.11396 -5.76815e-19 2.62821 9.0162e-20 2.49275)
(3.74046 -1.78879 -2.14342e-16 4.30477 2.64259e-15 4.02754)
(4.54377 -2.14821 8.62422e-17 5.08853 -1.07615e-16 4.80398)
(5.00648 -2.40862 -9.43809e-15 5.83597 2.20012e-15 5.45267)
(0.000909604 -4.39513e-05 5.50285e-21 0.00071936 1.0892e-21 0.000815502)
(0.000910237 -2.68073e-05 -1.60795e-20 0.000708861 -2.04948e-20 0.000810051)
(0.000900805 -6.1363e-06 -1.31013e-20 0.000695674 1.89089e-20 0.000798895)
(0.000877393 1.55632e-05 4.56971e-20 0.000679485 1.4002e-20 0.000778673)
(0.000838327 3.64085e-05 -1.1752e-20 0.00065993 -7.12757e-20 0.000749057)
(0.000785841 5.38116e-05 -3.00643e-20 0.000637768 3.58393e-20 0.000711569)
(0.000726302 6.62967e-05 6.93517e-20 0.00061583 4.96906e-20 0.000671011)
(0.000659394 7.25646e-05 -2.87077e-20 0.000590395 -4.92739e-20 0.000624946)
(0.000586856 7.21683e-05 -5.2381e-20 0.000558038 -1.7818e-20 0.000572543)
(0.000513696 6.63181e-05 -3.96353e-20 0.000519047 1.65327e-20 0.000516514)
(0.000443793 5.69766e-05 4.98465e-20 0.000474471 -3.40697e-21 0.000459314)
(0.000379817 4.62386e-05 -3.39576e-20 0.000426566 -1.58944e-20 0.00040344)
(0.000322738 3.56755e-05 -3.36899e-20 0.000377583 2.32106e-20 0.000350541)
(0.000272618 2.62401e-05 3.20613e-20 0.000329486 9.30198e-21 0.000301618)
(0.000229545 1.84495e-05 -5.3568e-20 0.000284339 1.14571e-20 0.000257718)
(0.000193126 1.23394e-05 -6.71326e-21 0.000243564 -2.75894e-20 0.000219359)
(0.000162879 7.72688e-06 1.06194e-20 0.000208003 1.34948e-20 0.000186704)
(0.000138212 4.30846e-06 -5.46168e-20 0.00017794 5.11208e-21 0.000159578)
(0.000118578 1.77248e-06 2.10744e-20 0.000153337 -1.42829e-21 0.000137666)
(0.000103177 -1.85702e-07 -8.35978e-20 0.000133548 9.13992e-21 0.00012025)
(9.13555e-05 -1.79358e-06 -7.4622e-21 0.000117909 2.11033e-21 0.000106656)
(8.23498e-05 -3.2306e-06 6.65073e-20 0.000105443 2.21283e-22 9.60249e-05)
(7.5405e-05 -4.59136e-06 6.11623e-20 9.50666e-05 -1.13807e-20 8.74371e-05)
(6.92263e-05 -5.79405e-06 -5.35201e-20 8.49417e-05 4.383e-21 7.93866e-05)
(6.29494e-05 -6.51182e-06 -5.81068e-22 7.42188e-05 2.0904e-22 7.10099e-05)
(5.70849e-05 -6.63983e-06 -5.05348e-20 6.41164e-05 6.47412e-21 6.31251e-05)
(5.28852e-05 -6.42323e-06 -3.17507e-22 5.61677e-05 1.44548e-23 5.72291e-05)
(5.0768e-05 -5.99195e-06 5.45483e-24 5.07592e-05 2.85465e-22 5.37083e-05)
(5.09672e-05 -5.55405e-06 1.25922e-22 4.81159e-05 -1.74378e-23 5.2787e-05)
(4.92647e-05 -4.57594e-06 1.72209e-20 4.45937e-05 1.06424e-21 5.00604e-05)
(5.61486e-05 -5.3293e-06 -1.38989e-23 4.84537e-05 -2.87685e-21 5.62744e-05)
(5.90084e-07 -7.08009e-10 -1.51895e-25 5.88862e-07 -2.39145e-26 5.89995e-07)
(0.000154769 -2.92711e-05 -9.71008e-19 0.000100073 -1.25295e-19 0.000146705)
(0.000658334 -0.000160027 -5.44391e-18 0.000349439 -4.07566e-19 0.000588674)
(0.000479413 -0.000114608 2.0982e-20 0.0002483 6.05304e-21 0.000408246)
(0.000343099 -7.20111e-05 -6.03772e-18 0.000166646 -8.89079e-19 0.000272145)
(0.00102493 -0.000120977 8.54635e-19 0.000416863 -6.15678e-18 0.000748127)
(0.0035656 0.000230976 1.40806e-18 0.00140008 2.66809e-19 0.00242529)
(0.0541116 0.02185 -5.73468e-16 0.0444062 4.43178e-17 0.0513448)
(0.000732747 -4.93254e-05 6.20264e-21 0.000593597 5.76773e-21 0.000662862)
(0.00072542 -6.03756e-05 -4.41471e-21 0.000604448 -3.88556e-21 0.000664688)
(0.000712201 -7.04668e-05 -2.37471e-22 0.000615997 -5.65675e-22 0.000663623)
(0.0006944 -7.79341e-05 -5.94079e-22 0.0006272 -1.98207e-22 0.000660175)
(0.00067183 -8.2024e-05 5.43545e-20 0.000635979 5.41878e-20 0.000653141)
(0.000644506 -8.25401e-05 -3.52038e-20 0.000641766 -3.90792e-20 0.000642079)
(0.000614197 -7.93575e-05 -1.78049e-21 0.000643407 6.70467e-21 0.000627467)
(0.000581653 -7.2791e-05 1.17843e-19 0.000639524 1.06395e-19 0.000608919)
(0.000547879 -6.34373e-05 -2.21255e-20 0.000629816 2.79447e-21 0.000586734)
(0.00051411 -5.2223e-05 -1.31498e-19 0.00061417 -8.64903e-20 0.000561558)
(0.000480816 -4.00301e-05 4.06509e-20 0.000592658 3.25567e-20 0.000533615)
(0.000448514 -2.77095e-05 -1.06347e-19 0.000565992 -3.54823e-20 0.000503529)
(0.00041753 -1.60441e-05 -4.03611e-20 0.000535075 -1.55299e-20 0.000471952)
(0.000387912 -5.58813e-06 -6.63559e-20 0.000500873 3.38415e-20 0.000439358)
(0.000359664 3.28334e-06 5.5175e-21 0.000464488 3.05358e-21 0.000406316)
(0.000332866 1.03658e-05 5.00198e-20 0.000427169 1.11732e-20 0.000373507)
(0.000306219 1.56103e-05 7.0806e-20 0.000388333 9.92851e-20 0.000340043)
(0.000277466 1.93192e-05 2.61692e-19 0.000345809 7.05364e-20 0.00030416)
(0.000248197 2.16424e-05 -1.03453e-19 0.000302079 -4.53937e-21 0.000267882)
(0.000220992 2.28186e-05 9.49729e-20 0.000260944 4.12263e-20 0.0002343)
(0.000196267 2.2884e-05 1.40687e-20 0.000223095 -4.09076e-20 0.000203921)
(0.000177775 2.2713e-05 -1.48419e-20 0.00019345 2.70274e-20 0.000180768)
(0.000147187 1.78491e-05 -7.4737e-20 0.000151665 -4.21434e-20 0.000146304)
(9.95842e-05 8.91888e-06 1.40647e-21 9.80138e-05 -1.71776e-21 9.75712e-05)
(4.91403e-05 2.292e-06 7.9231e-22 4.77871e-05 -1.6226e-22 4.82085e-05)
(1.70686e-08 2.91897e-13 6.27286e-28 1.70683e-08 -1.88546e-28 1.70684e-08)
(3.03798e-06 9.27461e-09 -7.61492e-24 3.02636e-06 -2.7442e-24 3.03126e-06)
(1.64051e-06 2.72389e-09 -2.12518e-24 1.63682e-06 -1.07517e-25 1.63844e-06)