/*--------------------------------*- C++ -*----------------------------------*\
| =========                 |                                                 |
| \\      /  F ield         | OpenFOAM: The Open Source CFD Toolbox           |
|  \\    /   O peration     | Version:  2206                                  |
|   \\  /    A nd           | Website:  www.openfoam.com                      |
|    \\/     M anipulation  |                                                 |
\*---------------------------------------------------------------------------*/
FoamFile
{
    version     2.0;
    format      ascii;
    arch        "LSB;label=32;scalar=64";
    class       volSymmTensorField;
    location    "100";
    object      turbulenceProperties:devReff;
}
// * * * * * * * * * * * * * * * * * * * * * * * * * * * * * * * * * * * * * //

dimensions      [0 2 -2 0 0 0 0];

internalField   nonuniform List<symmTensor> 
10720
(
(0.00139069 0.00296171 -5.39872e-21 -0.0014816 -4.76408e-20 9.09097e-05)
(0.00193129 0.00340492 4.89193e-21 -0.00199545 4.40715e-20 6.41634e-05)
(0.00281239 0.00381829 8.26283e-21 -0.00294788 3.59081e-20 0.00013549)
(0.00400708 0.00436362 8.35911e-20 -0.00417807 4.55163e-19 0.000170993)
(0.00562201 0.00485645 -2.37554e-19 -0.00581117 -8.47359e-19 0.000189153)
(0.00786635 0.00516716 -2.79439e-19 -0.00814748 -5.53476e-19 0.000281126)
(0.0108671 0.00529009 7.84983e-20 -0.0112219 3.24509e-21 0.000354731)
(0.0147207 0.00494839 4.42947e-20 -0.0151532 7.00378e-20 0.000432432)
(0.0195838 0.00383013 1.21784e-19 -0.0201484 -9.83729e-20 0.000564601)
(0.0255476 0.00170594 -2.10371e-20 -0.0262382 -2.11064e-20 0.000690638)
(0.0326856 -0.00187796 2.47534e-18 -0.0335352 1.06628e-18 0.000849581)
(0.0412776 -0.00742628 -5.65606e-19 -0.0423274 -4.34334e-19 0.00104982)
(0.0518706 -0.0156981 1.15572e-18 -0.0531632 -1.73405e-18 0.00129263)
(0.0650541 -0.0279042 5.47783e-19 -0.0666496 1.21507e-18 0.00159557)
(0.081844 -0.0460958 9.21443e-19 -0.0838595 -1.63363e-18 0.00201552)
(0.10411 -0.0738313 1.84393e-19 -0.106698 5.71991e-18 0.00258744)
(0.133885 -0.117025 2.91059e-17 -0.137374 1.44541e-17 0.00348839)
(0.176592 -0.187677 -5.77344e-18 -0.181421 9.71737e-18 0.00482973)
(0.234962 -0.30276 -3.36401e-18 -0.241932 -4.71988e-17 0.00696944)
(0.331074 -0.517364 2.47044e-18 -0.341623 -2.35285e-19 0.0105486)
(0.454821 -0.869677 -6.55142e-17 -0.470703 -4.85418e-17 0.0158823)
(0.720868 -1.7091 1.54909e-16 -0.747625 2.6116e-16 0.0267573)
(1.01149 -3.07977 -1.07875e-16 -1.05309 -3.34651e-16 0.0415999)
(1.79651 -7.60001 1.99279e-16 -1.88867 5.2274e-17 0.0921528)
(1.9415 -13.2211 -1.56568e-16 -2.06758 -7.49292e-18 0.126084)
(1.02797 -15.1241 1.82314e-17 -1.10858 -9.58788e-16 0.0806068)
(0.0605725 -14.9146 2.08192e-16 -0.0910798 -5.79206e-17 0.0305073)
(-0.683155 -14.468 1.68656e-16 0.673402 3.47194e-16 0.00975395)
(-1.29169 -14.1319 1.21407e-15 1.28498 4.29015e-16 0.00670257)
(-1.81073 -13.7334 1.27143e-15 1.80225 3.79316e-15 0.00848684)
(-2.22726 -13.1317 -2.01636e-15 2.21584 -1.45572e-15 0.0114233)
(-2.52786 -12.3041 -2.3517e-15 2.51235 -2.49793e-15 0.0155106)
(-2.71555 -11.3087 -7.9942e-16 2.6961 -3.44836e-15 0.0194556)
(-2.78044 -10.1718 -3.08661e-15 2.76043 -4.53074e-15 0.0200026)
(-2.70488 -8.87178 8.96752e-16 2.68648 2.4469e-15 0.0183967)
(-2.48228 -7.43606 1.58209e-16 2.46804 1.82884e-15 0.0142381)
(-2.04561 -5.64922 4.72605e-18 2.03026 -4.33084e-18 0.015345)
(-1.50092 -4.00801 -1.62893e-15 1.49785 4.58755e-16 0.00306884)
(-0.464639 -0.858797 -5.06862e-16 0.472345 -2.25548e-15 -0.00770591)
(0.000916644 0.00258188 1.87549e-21 -0.00094823 -4.46175e-21 3.1586e-05)
(0.00062235 0.00221391 -1.17711e-20 -0.000678617 1.33209e-20 5.62666e-05)
(0.00036692 0.00180819 -4.73646e-20 -0.000395073 -3.70049e-20 2.81535e-05)
(0.000204362 0.00144658 7.37692e-20 -0.000223431 -8.41235e-20 1.9069e-05)
(0.000138226 0.00110564 -1.13557e-19 -0.000137251 4.16671e-20 -9.75216e-07)
(0.000155512 0.000817955 -3.59389e-19 -0.000127384 4.79175e-19 -2.81286e-05)
(0.000233494 0.000633338 2.88442e-19 -0.000192984 2.65912e-19 -4.05099e-05)
(0.000393524 0.000621004 1.50557e-19 -0.000367076 -5.49699e-19 -2.64487e-05)
(0.000639545 0.000718314 1.56519e-19 -0.000633444 3.52911e-21 -6.10085e-06)
(0.000994683 0.000961074 -1.21256e-19 -0.00100223 -3.83417e-20 7.54795e-06)
(0.00150581 0.00143781 1.12734e-19 -0.00152505 2.68351e-19 1.92386e-05)
(0.00224848 0.00228912 2.70928e-19 -0.00228162 -1.35723e-19 3.31352e-05)
(0.00330391 0.00372441 -3.54476e-19 -0.00335902 -7.88258e-21 5.51061e-05)
(0.00473838 0.00599453 1.67339e-19 -0.00482392 3.01469e-20 8.55431e-05)
(0.00659083 0.00933207 1.26481e-18 -0.00670691 4.59794e-20 0.000116075)
(0.00889336 0.0140888 1.20554e-18 -0.00905337 -2.86776e-19 0.000160009)
(0.0118525 0.0208815 4.44946e-19 -0.0120608 5.20254e-19 0.000208273)
(0.0158561 0.0309753 1.45024e-19 -0.0161339 5.73367e-19 0.000277834)
(0.021677 0.0467842 2.69125e-19 -0.0220501 -1.51519e-19 0.000373068)
(0.0303898 0.0726409 4.72997e-19 -0.0309294 3.00754e-20 0.000539664)
(0.0442765 0.117714 -7.31962e-19 -0.0450931 -4.41074e-18 0.000816576)
(0.0659201 0.197498 -2.94388e-18 -0.0672663 3.71542e-20 0.00134622)
(0.102739 0.354713 2.93209e-18 -0.105193 3.41646e-18 0.0024547)
(0.156932 0.652712 1.46686e-18 -0.161896 1.73809e-19 0.00496348)
(0.252242 1.33689 1.04854e-16 -0.263118 -1.2785e-17 0.0108756)
(0.376449 2.70761 6.61681e-19 -0.398864 -2.00423e-18 0.0224155)
(0.565175 6.18316 -1.80435e-19 -0.618552 -6.65026e-18 0.0533765)
(0.522139 11.4948 -1.86676e-18 -0.619849 5.73508e-20 0.0977094)
(0.0109641 15.0702 3.85494e-18 -0.124851 5.2206e-20 0.113887)
(-0.689074 16.4016 4.0116e-16 0.58659 -2.43687e-17 0.102484)
(-1.37416 16.6925 -1.85979e-17 1.28953 -9.1571e-19 0.0846319)
(-2.00055 16.643 -5.29805e-17 1.93125 1.39266e-16 0.0692993)
(-2.55963 16.4221 -2.46929e-15 2.50212 -3.21525e-16 0.0575112)
(-3.04376 16.0628 -4.34445e-15 2.99533 2.8974e-16 0.048423)
(-3.45241 15.5838 3.91909e-15 3.4107 3.61287e-16 0.0417099)
(-3.79146 15.0084 -2.28979e-17 3.75491 -7.03743e-17 0.0365462)
(-4.04725 14.234 -2.42036e-17 4.01387 -1.70628e-16 0.0333742)
(-4.21051 13.378 -1.54312e-16 4.17921 1.69611e-16 0.0312974)
(-3.9273 10.8317 -3.77219e-15 3.91916 -5.13134e-17 0.00814186)
(0.000558257 -0.000382174 -3.46831e-21 -0.00051426 -1.00088e-20 -4.39968e-05)
(0.00048458 -0.000472704 4.02466e-21 -0.000433007 1.38351e-20 -5.1573e-05)
(0.000377066 -0.000553417 1.61238e-21 -0.000313452 5.08019e-22 -6.36143e-05)
(0.000264725 -0.000592335 1.04964e-20 -0.000190183 1.14701e-21 -7.45412e-05)
(0.000152399 -0.000597047 1.6635e-20 -6.91512e-05 7.74778e-20 -8.32482e-05)
(4.44268e-05 -0.000573765 6.27797e-20 4.76545e-05 1.14365e-19 -9.20813e-05)
(-4.08852e-05 -0.000524818 -2.51309e-20 0.000140748 4.22724e-21 -9.98628e-05)
(-0.000101604 -0.000460629 -2.30344e-20 0.000206929 -7.07487e-21 -0.000105325)
(-0.000139948 -0.000391789 -1.56405e-19 0.000249362 -1.69326e-19 -0.000109414)
(-0.000155205 -0.00032572 -4.77595e-20 0.000267114 -1.77869e-20 -0.000111909)
(-0.000154215 -0.000267524 -4.54392e-19 0.000266924 -4.34704e-19 -0.00011271)
(-0.000142614 -0.00022068 -5.56185e-21 0.000255584 6.63062e-20 -0.00011297)
(-0.000123906 -0.000186435 -2.16714e-19 0.000235537 1.62306e-21 -0.000111631)
(-0.000104213 -0.000171351 1.43782e-19 0.000216052 8.50589e-20 -0.000111839)
(-8.68614e-05 -0.000184259 -3.17596e-19 0.000208558 -9.33583e-20 -0.000121697)
(-6.93151e-05 -0.000254609 8.99211e-19 0.000226985 2.14997e-19 -0.00015767)
(-2.46323e-05 -0.00052148 -1.50513e-18 0.000301591 -1.2388e-18 -0.000276959)
(0.00019207 -0.00135466 -3.00684e-18 0.000376499 -1.04552e-18 -0.00056857)
(0.000894655 -0.00333322 -6.29552e-18 0.00013324 2.51059e-18 -0.00102789)
(0.00284373 -0.00854485 1.36899e-18 -0.00101615 9.84149e-22 -0.00182758)
(0.00749633 -0.0214695 1.24145e-17 -0.00449735 1.43192e-17 -0.00299898)
(0.0218652 -0.0655491 -2.8253e-17 -0.0162365 -5.52795e-17 -0.0056287)
(0.0514283 -0.174448 1.89736e-18 -0.0427781 7.92675e-17 -0.00865021)
(0.132264 -0.546445 1.96574e-18 -0.116934 -3.2988e-17 -0.01533)
(0.264834 -1.40882 -0 -0.243857 -0 -0.0209779)
(0.342875 -2.49935 -9.59178e-18 -0.330276 2.09222e-16 -0.012599)
(0.320378 -3.65946 -4.47786e-17 -0.325585 2.53371e-17 0.00520624)
(0.176329 -4.70305 -5.89152e-17 -0.195704 -2.46538e-16 0.0193751)
(-0.0749565 -5.37371 -7.9112e-16 0.0514422 -1.56881e-15 0.0235143)
(-0.359677 -5.44562 2.86324e-16 0.342908 -5.33776e-15 0.0167687)
(-0.579879 -4.94883 -9.61967e-17 0.576809 3.97116e-15 0.0030705)
(-0.695508 -4.22731 -2.98086e-16 0.708061 5.23733e-15 -0.0125534)
(-0.722842 -3.54178 -2.07899e-15 0.747884 3.04002e-15 -0.0250422)
(-0.700947 -2.99035 5.42651e-15 0.730224 1.10787e-14 -0.0292776)
(-0.661371 -2.57288 -2.76028e-16 0.687057 -1.82598e-15 -0.0256858)
(-0.605425 -2.25413 5.52894e-15 0.626856 -2.91773e-15 -0.0214318)
(-0.573155 -2.02983 -1.83688e-16 0.586393 3.82163e-17 -0.0132378)
(-0.434113 -1.80903 2.41822e-15 0.466426 -8.71357e-16 -0.032313)
(-0.694937 -1.95256 5.10478e-15 0.59621 7.49926e-15 0.0987269)
(0.000610204 -0.000267256 4.83817e-21 -0.000574951 1.07811e-20 -3.52524e-05)
(0.000634576 -0.000149024 8.67758e-23 -0.000604069 -8.29968e-20 -3.05073e-05)
(0.000627604 -7.41406e-06 -5.46155e-20 -0.000607461 -7.07318e-20 -2.01426e-05)
(0.00057531 0.000143651 2.07658e-20 -0.000565779 1.79178e-19 -9.53131e-06)
(0.000473034 0.000274941 1.48535e-19 -0.000473426 -1.35681e-19 3.92209e-07)
(0.000338174 0.000361903 -7.14789e-20 -0.0003441 -1.51007e-19 5.92604e-06)
(0.000205291 0.000397275 -7.79477e-20 -0.00021605 -2.90512e-19 1.0759e-05)
(8.27507e-05 0.000392139 -2.4929e-19 -9.34427e-05 4.5151e-20 1.0692e-05)
(-2.7252e-05 0.000351289 -8.10754e-20 2.24187e-05 2.12246e-19 4.83333e-06)
(-0.000104483 0.000284905 -6.10023e-20 0.000107969 6.64705e-21 -3.48633e-06)
(-0.000142109 0.000214283 -3.80933e-21 0.000153033 -1.26616e-19 -1.09241e-05)
(-0.000150702 0.000153775 -2.73117e-21 0.000166922 -5.08982e-20 -1.62196e-05)
(-0.000142677 0.000107294 4.01618e-20 0.000162208 1.03524e-19 -1.95314e-05)
(-0.000126327 7.46135e-05 -4.77823e-20 0.000147596 -1.87429e-20 -2.1269e-05)
(-0.000107532 5.34381e-05 -2.05925e-20 0.000129283 -7.05589e-20 -2.17512e-05)
(-8.98298e-05 4.02346e-05 -1.04227e-19 0.000111148 -1.13347e-20 -2.13183e-05)
(-7.42772e-05 3.23694e-05 -1.22898e-20 9.45815e-05 1.45641e-21 -2.03043e-05)
(-6.13391e-05 2.78402e-05 -6.17808e-22 8.03148e-05 -6.45335e-21 -1.89757e-05)
(-5.08033e-05 2.5062e-05 -1.24052e-20 6.82894e-05 6.53081e-21 -1.74862e-05)
(-4.23342e-05 2.31693e-05 1.73087e-20 5.83634e-05 -5.41246e-21 -1.60292e-05)
(-3.56166e-05 2.16478e-05 -1.35001e-19 5.03827e-05 6.78626e-20 -1.47661e-05)
(-3.07953e-05 2.04802e-05 -2.35536e-20 4.48047e-05 4.1973e-21 -1.40094e-05)
(-2.77937e-05 1.98048e-05 3.45344e-21 4.1923e-05 -1.33787e-20 -1.41293e-05)
(-2.57895e-05 2.00533e-05 1.17279e-19 4.09923e-05 -4.12829e-21 -1.52028e-05)
(-3.12314e-05 2.90314e-05 -1.40613e-19 5.2995e-05 1.27726e-20 -2.17636e-05)
(-0.000401642 0.000465225 -1.7484e-18 0.000724308 1.4547e-19 -0.000322666)
(-0.00230348 0.00321236 -1.27699e-20 0.00434657 1.58972e-19 -0.00204309)
(-0.012855 0.0215489 6.41775e-21 0.0249339 3.35783e-19 -0.0120789)
(-0.0321669 0.0678095 -6.54597e-20 0.0629819 -8.89485e-22 -0.030815)
(-0.0501935 0.136505 3.16869e-18 0.0967442 1.90408e-17 -0.0465507)
(-0.0623187 0.21329 1.09434e-18 0.11408 -2.12336e-17 -0.0517614)
(-0.0703782 0.282085 2.38966e-17 0.118351 -6.90892e-17 -0.0479732)
(-0.078471 0.337204 2.73447e-15 0.119252 1.75855e-16 -0.040781)
(-0.0889078 0.382005 2.54107e-15 0.123009 -3.57786e-16 -0.0341016)
(-0.102586 0.42085 -2.35203e-15 0.131754 -8.24858e-17 -0.0291684)
(-0.118225 0.459077 2.24304e-15 0.144572 2.85631e-16 -0.0263473)
(-0.13996 0.49771 -3.99875e-15 0.164045 -5.77136e-16 -0.0240849)
(-0.158591 0.591602 -3.69438e-15 0.186989 -7.04548e-16 -0.0283985)
(-0.224901 0.814028 -3.6422e-15 0.215272 -2.10015e-16 0.00962917)
(0.000349777 -0.000252708 -1.28019e-21 -0.000367336 -1.99669e-21 1.75594e-05)
(0.000286173 -0.000314192 -3.45989e-20 -0.000308358 -6.87376e-20 2.21848e-05)
(0.000200786 -0.000361516 2.48175e-20 -0.000227592 4.4138e-20 2.68063e-05)
(0.000103026 -0.000383749 3.29864e-20 -0.000136332 5.44296e-20 3.33066e-05)
(4.53084e-06 -0.000381722 6.05545e-20 -4.33192e-05 8.60318e-20 3.87884e-05)
(-9.08352e-05 -0.000353857 -1.82005e-19 4.63998e-05 -2.89133e-19 4.44355e-05)
(-0.000173199 -0.000302854 1.25117e-19 0.00012256 2.20795e-19 5.06381e-05)
(-0.000235626 -0.000236986 1.59831e-19 0.000179751 1.46719e-19 5.58744e-05)
(-0.00027713 -0.000162015 -9.27501e-21 0.000216558 1.78576e-20 6.05718e-05)
(-0.000297412 -8.5963e-05 1.05848e-19 0.000232566 1.68288e-19 6.48464e-05)
(-0.000299032 -1.46228e-05 -2.10196e-19 0.000230984 -1.75829e-20 6.80476e-05)
(-0.000286155 4.874e-05 2.94175e-19 0.000215631 3.1098e-19 7.05236e-05)
(-0.000262698 0.000102129 1.38244e-19 0.000190495 5.99571e-20 7.22025e-05)
(-0.000234654 0.000145038 6.46458e-20 0.000162502 -6.11025e-20 7.21515e-05)
(-0.000206253 0.000179201 1.97677e-19 0.000135841 1.90573e-19 7.04121e-05)
(-0.000180463 0.000206152 -4.97415e-19 0.000112946 -4.99091e-19 6.75172e-05)
(-0.000150759 0.00021621 1.17576e-19 9.04579e-05 1.76619e-19 6.03014e-05)
(-0.000119758 0.000209456 9.2788e-19 6.97073e-05 2.68548e-19 5.00504e-05)
(-7.48048e-05 0.000156595 2.02833e-19 4.29338e-05 1.4773e-19 3.18711e-05)
(-6.21045e-05 0.000152017 -5.97776e-20 3.61033e-05 -4.00164e-21 2.60012e-05)
(-0.000170242 0.000479423 2.1261e-19 0.00010277 -4.7452e-19 6.74724e-05)
(-0.00133565 0.00432073 3.78782e-19 0.000851842 3.15443e-18 0.000483808)
(-2.87491e-05 0.000116094 2.05179e-19 1.88887e-05 -4.65753e-20 9.86041e-06)
(-7.21122e-06 6.88679e-05 -1.31584e-19 2.78159e-06 -5.54336e-20 4.42964e-06)
(0.000536169 -0.00032987 4.6282e-20 -0.000536234 9.23235e-20 6.51481e-08)
(0.00401804 -0.013056 -1.42697e-17 -0.00367625 4.17324e-18 -0.000341789)
(0.0111164 -0.0646044 6.89662e-18 -0.00992744 2.36062e-18 -0.001189)
(0.0197325 -0.213592 -9.51077e-18 -0.0171799 -6.50369e-19 -0.00255267)
(0.0195082 -0.56195 -2.80922e-16 -0.0155256 2.66332e-16 -0.00398258)
(-0.0153689 -1.19588 -6.19718e-16 0.0196688 2.05222e-17 -0.00429994)
(-0.117638 -2.04452 2.32666e-15 0.119709 -6.56322e-16 -0.00207163)
(-0.285064 -2.80562 2.23689e-15 0.282116 1.07569e-15 0.00294828)
(-0.459019 -3.18217 -4.43685e-17 0.451012 2.81093e-15 0.00800703)
(-0.569968 -3.13879 5.09279e-15 0.561607 -3.43978e-15 0.00836127)
(-0.602329 -2.86205 4.10428e-15 0.597344 -2.16623e-15 0.0049855)
(-0.56383 -2.52092 -7.62481e-15 0.563768 -2.24105e-15 6.13447e-05)
(-0.521005 -2.24245 -1.89905e-17 0.518912 -1.11281e-15 0.00209302)
(-0.317813 -1.9163 5.2453e-15 0.330619 -6.65156e-16 -0.0128062)
(-0.630619 -2.1162 -9.69188e-15 0.626847 3.70478e-15 0.00377166)
(0.000398758 -0.000176889 -8.53092e-21 -0.000414143 -1.69287e-20 1.53853e-05)
(0.000427968 -9.71789e-05 -5.50523e-21 -0.000439368 7.38625e-21 1.13999e-05)
(0.000439562 -9.7616e-07 7.8758e-20 -0.000448017 8.56906e-20 8.45526e-06)
(0.000422063 9.91668e-05 -5.28454e-20 -0.000426564 -6.55629e-21 4.50156e-06)
(0.00037008 0.000193096 7.39806e-21 -0.000371561 2.68115e-20 1.48157e-06)
(0.000288465 0.000263196 1.27323e-20 -0.00028797 1.61738e-19 -4.9549e-07)
(0.000192005 0.000302418 1.34787e-20 -0.000192711 8.26897e-20 7.05632e-07)
(9.46228e-05 0.00031279 3.25606e-19 -9.57516e-05 1.50498e-19 1.1288e-06)
(7.88034e-06 0.000291617 7.19772e-20 -8.77553e-06 -5.66616e-20 8.9519e-07)
(-5.65238e-05 0.000246331 1.43171e-19 5.48172e-05 1.55564e-20 1.70655e-06)
(-9.42697e-05 0.000191415 -1.59639e-19 9.08151e-05 -5.27145e-20 3.45467e-06)
(-0.000109815 0.000138668 -9.3304e-20 0.000104314 1.32496e-19 5.50088e-06)
(-0.0001103 9.37216e-05 1.46683e-19 0.000102732 -6.70198e-20 7.56726e-06)
(-0.000101624 5.85115e-05 7.17331e-20 9.21083e-05 -4.5906e-22 9.51584e-06)
(-8.89557e-05 3.30458e-05 -8.58754e-20 7.79921e-05 6.00031e-20 1.09636e-05)
(-7.56332e-05 1.53184e-05 -4.73252e-20 6.35533e-05 9.10463e-20 1.20799e-05)
(-6.34331e-05 3.4945e-06 1.4095e-19 5.064e-05 -6.79293e-20 1.27931e-05)
(-5.30709e-05 -4.28962e-06 1.1163e-19 3.98508e-05 -2.14167e-20 1.32201e-05)
(-4.48103e-05 -9.50495e-06 4.10535e-20 3.14687e-05 -5.15972e-21 1.33416e-05)
(-3.82282e-05 -1.33724e-05 -1.42258e-20 2.48572e-05 3.9072e-20 1.33711e-05)
(-3.29386e-05 -1.65635e-05 2.11952e-19 1.96457e-05 3.78132e-21 1.32929e-05)
(-2.83164e-05 -1.97506e-05 5.35434e-21 1.5034e-05 -2.46076e-20 1.32824e-05)
(-2.3548e-05 -2.33005e-05 -5.22954e-22 1.01597e-05 -1.40905e-21 1.33883e-05)
(-1.7126e-05 -2.67155e-05 -2.91322e-21 3.07507e-06 -1.19893e-20 1.4051e-05)
(-9.03804e-06 -2.81661e-05 -1.92893e-22 -6.16745e-06 5.05182e-21 1.52055e-05)
(-1.10048e-06 -2.68119e-05 3.23582e-19 -1.5105e-05 -1.98587e-20 1.62055e-05)
(5.44477e-06 -2.36352e-05 -3.7256e-21 -2.25116e-05 2.51009e-22 1.70668e-05)
(7.81928e-06 -1.50871e-05 -2.55282e-20 -2.15066e-05 -6.6315e-23 1.36873e-05)
(0.000146283 -0.000158754 -4.79429e-21 -0.000346233 5.55368e-22 0.00019995)
(0.000781385 -0.000327143 -3.87072e-18 -0.00172013 -1.31157e-19 0.000938748)
(0.00199713 0.00101115 2.4445e-17 -0.0042645 2.48679e-18 0.00226737)
(0.00278026 0.00722767 -2.05455e-18 -0.00609183 -2.70276e-20 0.00331157)
(0.00174234 0.0214776 -3.37073e-16 -0.0050409 2.68643e-17 0.00329856)
(-0.00184098 0.044947 2.41004e-19 -0.000476804 3.86943e-17 0.00231778)
(-0.00800889 0.0763864 6.53498e-18 0.00697171 -6.11602e-17 0.00103718)
(-0.015175 0.112693 2.07955e-17 0.0152744 4.90463e-17 -9.94087e-05)
(-0.0241207 0.150024 -1.07037e-16 0.0245337 2.48473e-16 -0.000413034)
(-0.0149041 0.177521 2.44795e-15 0.0164643 7.03771e-16 -0.00156018)
(-0.0462417 0.29088 4.96016e-15 0.0376991 1.70421e-15 0.00854256)
(0.00029914 -0.00020781 -7.01019e-21 -0.0002937 -1.00227e-20 -5.44016e-06)
(0.00025943 -0.000256571 -1.27762e-20 -0.000253166 -2.19622e-20 -6.26394e-06)
(0.00020425 -0.000300232 2.70631e-20 -0.000195708 3.35565e-20 -8.54198e-06)
(0.000140485 -0.000330818 2.79702e-20 -0.000129733 3.6802e-20 -1.07522e-05)
(7.29341e-05 -0.00034472 3.83023e-21 -5.97039e-05 -4.12997e-22 -1.32302e-05)
(4.00533e-06 -0.00034167 -7.37647e-21 1.21725e-05 2.30166e-20 -1.61779e-05)
(-5.92914e-05 -0.000322741 2.62588e-19 7.85621e-05 2.60948e-19 -1.92707e-05)
(-0.000112029 -0.000290492 -2.47961e-19 0.000134465 -3.07861e-19 -2.24365e-05)
(-0.000152404 -0.000249003 5.56557e-20 0.000178289 1.46277e-20 -2.58845e-05)
(-0.000178707 -0.000203242 3.20759e-19 0.000207773 2.36232e-19 -2.90654e-05)
(-0.000191779 -0.000157082 2.60342e-19 0.000223933 2.54216e-19 -3.21538e-05)
(-0.000193631 -0.000113778 2.7833e-19 0.000228617 8.76739e-20 -3.49865e-05)
(-0.000186542 -7.56004e-05 -3.07048e-19 0.000224065 -2.28653e-19 -3.75233e-05)
(-0.000172723 -4.3403e-05 -2.00058e-19 0.000212144 -1.8883e-19 -3.9421e-05)
(-0.000154505 -1.76864e-05 1.91206e-20 0.000195041 -6.19424e-20 -4.05361e-05)
(-0.000133323 1.62681e-06 -4.68282e-19 0.000174178 2.72594e-20 -4.08553e-05)
(-0.000110223 1.7501e-05 -1.32272e-19 0.000149485 -1.62688e-19 -3.9262e-05)
(-8.6912e-05 3.00754e-05 -7.50106e-19 0.000123275 -5.73852e-19 -3.63626e-05)
(-6.47509e-05 4.04747e-05 7.73014e-20 9.63817e-05 -1.06072e-19 -3.16308e-05)
(-4.40631e-05 4.69371e-05 3.18576e-20 6.85756e-05 -7.33133e-20 -2.45125e-05)
(-3.0272e-05 5.33204e-05 -2.98335e-19 4.78711e-05 -8.21019e-22 -1.7599e-05)
(-2.14429e-05 5.74179e-05 3.95312e-20 3.28026e-05 8.1002e-21 -1.13597e-05)
(-1.93796e-05 7.47642e-05 -1.97722e-19 2.79821e-05 -4.07062e-20 -8.60251e-06)
(-1.47026e-05 8.94717e-05 -6.53635e-20 2.10499e-05 7.11732e-20 -6.34728e-06)
(-5.48934e-05 0.000755804 1.29432e-19 9.38343e-05 8.62612e-21 -3.89408e-05)
(4.81217e-05 0.00397283 2.65675e-18 0.00012803 1.39994e-18 -0.000176151)
(0.000834024 0.00960452 -6.31948e-19 -0.000441727 2.67535e-19 -0.000392297)
(0.00295225 0.0182584 1.99985e-18 -0.00224066 1.24237e-19 -0.000711586)
(0.000450879 0.00155027 3.49257e-18 -0.000382771 1.44424e-19 -6.81072e-05)
(0.0040577 0.0027657 -2.6406e-18 -0.003613 2.92964e-17 -0.000444702)
(0.00973903 -0.0436306 -1.84099e-16 -0.00871827 -1.69003e-16 -0.00102076)
(0.00348733 -0.25478 8.19021e-16 -0.00192708 -7.6531e-16 -0.00156025)
(-0.04936 -0.747297 1.15789e-15 0.0507557 -1.1046e-16 -0.00139572)
(-0.171779 -1.43549 -3.57689e-16 0.17158 -4.19392e-15 0.000198312)
(-0.326904 -2.02469 -3.99429e-15 0.323732 -1.0713e-15 0.00317262)
(-0.430044 -2.3054 4.69636e-16 0.426849 2.38332e-15 0.00319513)
(-0.475613 -2.35736 -7.46834e-15 0.469763 1.08194e-15 0.00585003)
(-0.31739 -2.17998 -5.46357e-15 0.32437 9.89891e-16 -0.00698045)
(-0.517542 -2.3206 5.67644e-15 0.507868 -4.75696e-15 0.00967393)
(0.000327792 -0.000149046 -3.0647e-21 -0.000324786 1.70209e-21 -3.00598e-06)
(0.000343834 -8.81201e-05 1.01708e-20 -0.000341506 5.95436e-20 -2.32784e-06)
(0.000345866 -1.46147e-05 3.6838e-20 -0.000345812 6.2812e-20 -5.44139e-08)
(0.000329879 6.13576e-05 5.55909e-20 -0.000330291 -2.92891e-20 4.11793e-07)
(0.000292143 0.00013295 -1.08232e-19 -0.000292497 -7.01118e-20 3.53753e-07)
(0.000235799 0.000190098 -2.17509e-20 -0.000235576 -1.04555e-19 -2.22431e-07)
(0.000168075 0.000227608 -1.62206e-19 -0.000168253 -1.0923e-19 1.77888e-07)
(9.55407e-05 0.000242305 -1.76783e-19 -9.62794e-05 9.44188e-21 7.38729e-07)
(2.77412e-05 0.000233463 -2.68046e-20 -2.86767e-05 -3.35589e-20 9.35459e-07)
(-2.68404e-05 0.000206699 7.03044e-20 2.60224e-05 -4.50451e-20 8.18e-07)
(-6.42168e-05 0.000170638 4.85982e-20 6.39484e-05 1.11183e-19 2.68415e-07)
(-8.53581e-05 0.00013312 1.30135e-19 8.59992e-05 -5.23744e-20 -6.41093e-07)
(-9.38319e-05 9.89666e-05 -1.08357e-19 9.55273e-05 -7.70893e-20 -1.69534e-06)
(-9.35638e-05 7.05609e-05 -4.24506e-21 9.63432e-05 3.01816e-20 -2.77945e-06)
(-8.81388e-05 4.87627e-05 1.09613e-19 9.20261e-05 -2.80906e-20 -3.88732e-06)
(-8.04158e-05 3.2768e-05 2.00734e-19 8.52532e-05 -2.31974e-20 -4.83745e-06)
(-7.22076e-05 2.148e-05 -1.4115e-19 7.78399e-05 -1.41179e-20 -5.6323e-06)
(-6.44955e-05 1.36334e-05 -2.84626e-20 7.07392e-05 -4.02122e-20 -6.24372e-06)
(-5.77915e-05 8.07239e-06 -1.24265e-20 6.45026e-05 7.3777e-21 -6.71111e-06)
(-5.20931e-05 3.77382e-06 2.02145e-19 5.90822e-05 -6.48285e-20 -6.98903e-06)
(-4.72627e-05 1.18022e-07 2.77029e-20 5.44349e-05 -3.34656e-20 -7.17213e-06)
(-4.29601e-05 -3.41979e-06 -1.93566e-19 5.02326e-05 4.5387e-20 -7.27246e-06)
(-3.86727e-05 -7.12932e-06 -5.19173e-21 4.60205e-05 1.68035e-20 -7.34779e-06)
(-3.36536e-05 -1.06829e-05 -1.86156e-21 4.10209e-05 -9.13059e-21 -7.36733e-06)
(-2.81344e-05 -1.28294e-05 7.89505e-22 3.57068e-05 -6.98979e-23 -7.57237e-06)
(-2.33303e-05 -1.33195e-05 -1.42405e-19 3.14744e-05 6.47936e-22 -8.14415e-06)
(-1.95488e-05 -1.29293e-05 -3.30228e-22 2.83272e-05 3.2589e-23 -8.77837e-06)
(-1.68201e-05 -1.23731e-05 3.1078e-20 2.62525e-05 -1.48482e-21 -9.43244e-06)
(-1.32239e-05 -1.0695e-05 -1.36121e-21 2.21919e-05 -1.96225e-23 -8.96798e-06)
(-1.30072e-05 -1.17501e-05 1.0212e-22 2.33962e-05 -6.69466e-21 -1.0389e-05)
(-4.88731e-06 -5.21306e-06 -5.88972e-20 9.47223e-06 2.21572e-21 -4.58492e-06)
(-3.10369e-06 -4.18592e-06 -1.37248e-21 6.7608e-06 -8.47839e-23 -3.65711e-06)
(-3.14867e-05 -6.09677e-05 4.8098e-20 9.49353e-05 -1.32023e-19 -6.34486e-05)
(4.20349e-05 4.55057e-05 2.38343e-17 8.16909e-05 3.59812e-18 -0.000123726)
(0.000376566 0.0011005 3.98585e-19 -0.00031361 3.95348e-20 -6.29562e-05)
(0.0011356 0.00488956 -2.32128e-16 -0.00133154 -2.73728e-17 0.000195938)
(0.00173448 0.0146427 1.49718e-15 -0.00246854 2.14279e-16 0.000734056)
(0.00690933 0.0338842 3.07469e-17 -0.0075693 -1.27127e-16 0.000659964)
(-0.00476378 0.119114 2.39815e-16 -0.000659938 -1.33328e-15 0.00542371)
(0.000225419 -0.00015873 -7.01141e-21 -0.000227034 -7.93977e-21 1.61463e-06)
(0.000193151 -0.000195092 -1.45139e-20 -0.000195759 -1.99926e-20 2.60846e-06)
(0.000150022 -0.000227141 4.93308e-20 -0.000153 6.21829e-20 2.9782e-06)
(9.96044e-05 -0.000248944 -2.05062e-19 -0.000103516 -2.47774e-19 3.91116e-06)
(4.5601e-05 -0.000258282 5.07464e-20 -5.06227e-05 5.8605e-20 5.02169e-06)
(-1.00015e-05 -0.000254378 1.08453e-19 3.9424e-06 1.0931e-19 6.05914e-06)
(-6.22161e-05 -0.000237317 -9.65222e-20 5.47707e-05 -1.35764e-19 7.44537e-06)
(-0.000107195 -0.000208829 -4.65569e-20 9.8223e-05 5.12156e-21 8.97244e-06)
(-0.000142609 -0.000171527 -3.68269e-19 0.000132094 -3.31697e-19 1.05147e-05)
(-0.000166817 -0.000129129 -6.37876e-20 0.000154521 -1.32186e-19 1.22955e-05)
(-0.000179632 -8.49128e-05 8.83275e-21 0.000165542 -2.95552e-20 1.409e-05)
(-0.000181902 -4.18778e-05 -1.90268e-19 0.000165989 -2.23444e-19 1.59123e-05)
(-0.000175139 -2.38216e-06 9.084e-20 0.000157364 1.01844e-19 1.77758e-05)
(-0.000161237 3.19937e-05 -3.63061e-19 0.000141622 -1.84031e-19 1.96158e-05)
(-0.000142164 6.02452e-05 7.35275e-20 0.000120867 4.0914e-20 2.12967e-05)
(-0.000120043 8.23868e-05 3.49707e-19 9.71973e-05 2.81353e-19 2.28453e-05)
(-9.69128e-05 9.78181e-05 -4.71799e-19 7.34024e-05 -1.32305e-19 2.35104e-05)
(-7.43556e-05 0.000106186 -8.66205e-20 5.14771e-05 3.84424e-19 2.28785e-05)
(-5.27187e-05 0.000108045 -2.91402e-20 3.15078e-05 -4.87738e-20 2.12108e-05)
(-3.28042e-05 0.000104012 -3.49057e-19 1.40135e-05 -5.38427e-20 1.87907e-05)
(-1.52568e-05 9.21561e-05 3.45439e-19 5.51914e-08 2.09157e-19 1.52016e-05)
(-2.77313e-06 7.57301e-05 9.98585e-21 -8.28003e-06 -1.48211e-20 1.10532e-05)
(3.41358e-06 5.25806e-05 1.72982e-19 -9.80065e-06 4.8405e-20 6.38707e-06)
(7.20047e-06 5.15688e-05 1.22124e-19 -1.21749e-05 4.07695e-20 4.97446e-06)
(1.07138e-05 5.34469e-05 -1.19211e-20 -1.48045e-05 -1.16576e-21 4.09074e-06)
(1.36075e-05 5.4843e-05 1.31378e-21 -1.69299e-05 -5.30766e-21 3.32243e-06)
(1.52631e-05 5.61551e-05 1.32525e-20 -1.78469e-05 -3.58295e-21 2.58382e-06)
(1.59022e-05 5.83233e-05 -6.27679e-21 -1.77987e-05 -9.23294e-21 1.89649e-06)
(9.49155e-05 0.000353374 -4.91959e-19 -0.000102262 -3.25519e-20 7.3468e-06)
(0.00136903 0.00496135 6.57573e-19 -0.00142536 3.44026e-20 5.6327e-05)
(0.00499173 0.0162993 -4.33736e-18 -0.00506799 2.15457e-18 7.6255e-05)
(0.00220279 0.0055922 -3.53966e-17 -0.00220444 -2.52465e-17 1.64706e-06)
(0.0112619 0.0117245 -2.33281e-17 -0.0111811 -7.17996e-17 -8.08348e-05)
(0.0179709 -0.0748238 -2.12599e-15 -0.017527 2.05481e-16 -0.00044393)
(-0.0200219 -0.444298 3.83512e-16 0.0207789 1.24368e-15 -0.000756984)
(-0.134101 -1.11406 -5.76867e-19 0.134785 9.01701e-20 -0.000684063)
(-0.283816 -1.78891 -2.14355e-16 0.280531 2.64276e-15 0.00328471)
(-0.268338 -2.14832 8.62466e-17 0.276453 -1.0762e-16 -0.00811456)
(-0.425249 -2.40873 -9.43853e-15 0.404286 2.20022e-15 0.020963)
(0.000249442 -0.000115668 1.4482e-20 -0.000251231 2.86648e-21 1.78893e-06)
(0.000264336 -7.04945e-05 -4.22837e-20 -0.000265216 -5.38948e-20 8.80465e-07)
(0.000269129 -1.61358e-05 -3.44508e-20 -0.000270277 4.97223e-20 1.14836e-06)
(0.000260048 4.0932e-05 1.20185e-19 -0.000260459 3.68259e-20 4.10871e-07)
(0.000234797 9.58122e-05 -3.09263e-20 -0.00023467 -1.87568e-19 -1.26898e-07)
(0.000195064 0.000141627 -7.91262e-20 -0.000194652 9.43254e-20 -4.12596e-07)
(0.000145433 0.000174497 1.82538e-19 -0.000145336 1.30788e-19 -9.69897e-08)
(9.07759e-05 0.000191028 -7.55738e-20 -9.08656e-05 -1.29715e-19 8.97209e-08)
(3.78578e-05 0.000190031 -1.37928e-19 -3.80258e-05 -4.69176e-20 1.67977e-07)
(-7.1721e-06 0.000174674 -1.04395e-19 6.92143e-06 4.35453e-20 2.50678e-07)
(-4.05724e-05 0.000150108 1.31324e-19 4.02525e-05 -8.97586e-21 3.19898e-07)
(-6.18135e-05 0.000121845 -8.94827e-20 6.13756e-05 -4.18839e-20 4.37898e-07)
(-7.26072e-05 9.40237e-05 -8.87906e-20 7.19384e-05 6.11721e-20 6.68756e-07)
(-7.54416e-05 6.91623e-05 8.45053e-20 7.44472e-05 2.45176e-20 9.94368e-07)
(-7.28912e-05 4.86269e-05 -1.41188e-19 7.15285e-05 3.01972e-20 1.36273e-06)
(-6.73506e-05 3.25186e-05 -1.76917e-20 6.55694e-05 -7.27074e-20 1.78116e-06)
(-6.05537e-05 2.03582e-05 2.79792e-20 5.83358e-05 3.55551e-20 2.21798e-06)
(-5.36369e-05 1.13479e-05 -1.43853e-19 5.09999e-05 1.34646e-20 2.63705e-06)
(-4.72551e-05 4.66656e-06 5.54845e-20 4.42561e-05 -3.7604e-21 2.99893e-06)
(-4.16178e-05 -4.88683e-07 -2.19992e-19 3.83064e-05 2.40522e-20 3.31144e-06)
(-3.66939e-05 -4.71744e-06 -1.96269e-20 3.31456e-05 5.55055e-21 3.54827e-06)
(-3.2218e-05 -8.49226e-06 1.74827e-19 2.84883e-05 5.81685e-22 3.72965e-06)
(-2.77542e-05 -1.2062e-05 1.6068e-19 2.38989e-05 -2.98984e-20 3.85532e-06)
(-2.26446e-05 -1.52117e-05 -1.40511e-19 1.86144e-05 1.15071e-20 4.03017e-06)
(-1.69027e-05 -1.70824e-05 -1.52431e-21 1.26604e-05 5.48374e-22 4.24234e-06)
(-1.14218e-05 -1.74053e-05 -1.32469e-19 7.01018e-06 1.69709e-20 4.4116e-06)
(-6.65271e-06 -1.68093e-05 -8.30902e-22 1.93762e-06 3.78277e-23 4.71509e-06)
(-2.56088e-06 -1.57028e-05 1.42952e-23 -2.58375e-06 7.48104e-22 5.14463e-06)
(8.90999e-07 -1.43927e-05 3.26312e-22 -6.49779e-06 -4.5188e-23 5.60679e-06)
(3.51305e-06 -1.24448e-05 4.68344e-20 -9.19021e-06 2.89433e-21 5.67716e-06)
(5.80704e-06 -1.22659e-05 -3.19895e-23 -1.19035e-05 -6.62133e-21 6.09649e-06)
(3.77804e-06 -6.12133e-06 -1.31326e-21 -6.78651e-06 -2.06761e-22 3.00847e-06)
(2.47882e-05 -3.4683e-05 -1.15054e-18 -4.00211e-05 -1.48461e-19 1.52328e-05)
(0.000129938 -0.000164786 -5.60581e-18 -0.000188144 -4.19687e-19 5.82057e-05)
(0.000104323 -0.00011866 2.1724e-20 -0.000134962 6.26708e-21 3.06392e-05)
(8.60685e-05 -7.5154e-05 -6.30124e-18 -9.80861e-05 -9.27884e-19 1.20176e-05)
(0.000298521 -0.000122438 8.64957e-19 -0.000316893 -6.23114e-18 1.83718e-05)
(0.0011073 0.000232098 1.4149e-18 -0.00106874 2.68106e-19 -3.85562e-05)
(0.0041602 0.0218645 -5.73849e-16 -0.00555171 4.43473e-17 0.00139151)
(0.00018334 -0.000129787 1.63206e-20 -0.000182797 1.51763e-20 -5.42936e-07)
(0.000159498 -0.00015899 -1.16255e-20 -0.000159066 -1.02321e-20 -4.31177e-07)
(0.000127136 -0.000185634 -6.25582e-22 -0.0001263 -1.49019e-21 -8.35598e-07)
(8.90891e-05 -0.000205367 -1.56548e-21 -8.79912e-05 -5.22303e-22 -1.09791e-06)
(4.79189e-05 -0.000216196 1.43266e-19 -4.65763e-05 1.42827e-19 -1.34262e-06)
(4.53943e-06 -0.000217589 -9.28029e-20 -2.68213e-06 -1.03019e-19 -1.8573e-06)
(-3.73312e-05 -0.000209212 -4.69396e-21 3.96773e-05 1.76757e-20 -2.34608e-06)
(-7.48148e-05 -0.000191896 3.10665e-19 7.77498e-05 2.80484e-19 -2.93496e-06)
(-0.000106132 -0.000167214 -5.83206e-20 0.000109847 7.36594e-21 -3.71462e-06)