/*--------------------------------*- C++ -*----------------------------------*\
| =========                 |                                                 |
| \\      /  F ield         | OpenFOAM: The Open Source CFD Toolbox           |
|  \\    /   O peration     | Version:  2206                                  |
|   \\  /    A nd           | Website:  www.openfoam.com                      |
|    \\/     M anipulation  |                                                 |
\*---------------------------------------------------------------------------*/
FoamFile
{
    version     2.0;
    format      ascii;
    arch        "LSB;label=32;scalar=64";
    class       volVectorField;
    location    "100";
    object      U;
}
// * * * * * * * * * * * * * * * * * * * * * * * * * * * * * * * * * * * * * //

dimensions      [0 1 -1 0 0 0 0];

internalField   nonuniform List<vector> 
10720
(
(0.969176 22.7718 -6.32444e-18)
(2.39582 25.0809 5.71339e-18)
(4.24715 27.3507 0)
(6.43144 29.2179 -2.39027e-16)
(8.89614 30.7386 2.68204e-16)
(11.5821 31.8579 2.23575e-16)
(14.3478 32.4761 3.43433e-16)
(17.1006 32.6145 0)
(19.759 32.3219 0)
(22.2403 31.6284 0)
(24.5053 30.6073 1.07484e-16)
(26.5276 29.3314 0)
(28.2869 27.8595 2.12397e-15)
(29.7379 26.1909 0)
(30.8307 24.3232 0)
(31.543 22.2873 0)
(31.8266 20.0783 -3.83327e-15)
(31.6372 17.7254 -5.91526e-15)
(30.8881 15.2348 5.45543e-15)
(29.5078 12.659 0)
(27.3797 10.0431 5.04078e-15)
(24.5033 7.49001 -1.08717e-14)
(21.0081 5.14089 6.1676e-15)
(17.6411 3.19394 -2.10475e-16)
(15.7184 1.72345 0)
(15.4581 0.647941 3.11194e-15)
(16.141 -0.0830049 4.35655e-17)
(17.0912 -0.559505 -1.09033e-15)
(17.9388 -0.912811 -3.63224e-15)
(18.4808 -1.22444 -1.22119e-14)
(18.6552 -1.51848 5.15517e-15)
(18.388 -1.78647 8.9115e-15)
(17.7726 -2.01857 7.36907e-15)
(16.8843 -2.19658 2.43117e-14)
(15.7015 -2.29215 -9.4467e-15)
(14.2117 -2.28696 -6.54424e-17)
(12.0116 -2.09623 1.4429e-17)
(9.68958 -1.78211 -1.0675e-15)
(2.94924 -1.06503 1.58414e-14)
(-0.0988624 20.3517 -1.226e-17)
(-0.885901 17.669 -3.98141e-17)
(-1.31389 14.6756 1.21117e-16)
(-1.27333 11.2708 -3.21267e-16)
(-0.623505 7.81072 -1.0733e-15)
(0.567136 4.56357 2.01108e-15)
(2.10183 1.78602 9.60028e-15)
(3.88908 -0.732231 2.19381e-15)
(6.03678 -2.95299 0)
(8.32683 -4.63816 0)
(10.5097 -5.74091 1.42068e-15)
(12.4785 -6.37409 5.31975e-16)
(14.2119 -6.66549 -9.13239e-16)
(15.71 -6.718 7.57403e-16)
(16.996 -6.62209 1.26028e-15)
(18.1103 -6.43683 8.1519e-16)
(19.0883 -6.2037 1.02006e-15)
(19.9625 -5.94545 6.69424e-16)
(20.7639 -5.67691 0)
(21.5136 -5.39673 0)
(22.2293 -5.10342 -8.46218e-16)
(22.9207 -4.78496 -3.40878e-17)
(23.588 -4.42499 4.68012e-16)
(24.1967 -3.99769 -2.46694e-16)
(24.6754 -3.50195 2.95222e-17)
(25.0069 -2.98865 0)
(25.2292 -2.48498 -5.41273e-17)
(25.3828 -1.92603 0)
(25.4802 -1.26372 0)
(25.513 -0.54463 -1.03544e-16)
(25.4554 0.165096 0)
(25.3018 0.821975 4.29573e-16)
(25.0542 1.40678 7.16748e-16)
(24.7209 1.91499 3.01486e-15)
(24.3012 2.35029 -8.1572e-16)
(23.7921 2.72197 2.42188e-18)
(23.0914 3.03253 0)
(22.1451 3.25493 2.60121e-15)
(19.5469 3.44695 6.30042e-15)
(6.7337 19.7707 -2.02908e-17)
(8.30414 21.5156 1.356e-17)
(10.2633 23.1499 0)
(12.5635 24.5664 0)
(15.0914 25.6963 -7.85161e-17)
(17.8494 26.4798 -2.14228e-16)
(20.7353 26.8644 0)
(23.6292 26.8576 0)
(26.4761 26.4616 5.32379e-16)
(29.1929 25.7157 0)
(31.7248 24.6689 2.10424e-15)
(34.0467 23.3671 0)
(36.1296 21.8499 7.88943e-16)
(37.9952 20.2198 -7.7496e-16)
(39.6706 18.53 1.59549e-15)
(41.1542 16.8048 -3.22565e-15)
(42.4144 15.08 3.45945e-15)
(43.4264 13.3899 3.15801e-15)
(44.165 11.7491 3.08144e-15)
(44.5725 10.1819 1.86956e-16)
(44.5639 8.6888 -3.19245e-15)
(44.0082 7.2553 3.05615e-15)
(42.7793 5.80304 -1.75714e-16)
(40.8294 4.25635 0)
(38.4101 2.71279 0)
(35.8745 1.36449 0)
(33.327 0.292983 1.57648e-16)
(30.8454 -0.530215 -3.50915e-17)
(28.5334 -1.17908 2.19837e-15)
(26.511 -1.69994 3.15442e-17)
(24.8173 -2.10656 -2.39061e-17)
(23.4419 -2.41746 -7.70619e-17)
(22.1935 -2.64854 4.70784e-15)
(20.9027 -2.80481 -7.5372e-15)
(19.4403 -2.87664 -3.79181e-17)
(17.7603 -2.84973 -7.66635e-15)
(15.452 -2.65095 0)
(13.042 -2.31716 2.60145e-16)
(6.54027 -1.40611 7.40339e-15)
(5.45803 17.9407 2.84341e-17)
(4.39636 15.9377 -8.80586e-17)
(3.554 13.6135 -9.58041e-16)
(3.0225 11.0047 1.21999e-15)
(2.99292 8.22671 0)
(3.51194 5.47938 -2.59551e-15)
(4.50752 2.91889 -1.56555e-15)
(5.85232 0.561416 -7.44073e-15)
(7.52551 -1.4113 1.89798e-15)
(9.39485 -2.87013 -1.4151e-15)
(11.2874 -3.83795 1.82217e-15)
(13.0873 -4.41348 -5.21237e-16)
(14.7444 -4.69492 0)
(16.2343 -4.76382 -3.35421e-16)
(17.5538 -4.70241 6.59906e-17)
(18.7245 -4.55898 -7.2538e-16)
(19.7699 -4.37145 0)
(20.7164 -4.15831 0)
(21.5895 -3.93282 -7.20534e-17)
(22.4131 -3.68739 6.98593e-17)
(23.2028 -3.41639 -7.79283e-16)
(23.9706 -3.09898 -7.87112e-17)
(24.7175 -2.71095 3.31531e-17)
(25.4192 -2.20784 2.87001e-16)
(26.0198 -1.59765 -1.11641e-16)
(26.4922 -0.945768 -3.76861e-17)
(26.8443 -0.281983 0)
(27.0682 0.348005 0)
(27.1593 0.901927 0)
(27.1268 1.36947 9.94314e-18)
(27.0057 1.76499 0)
(26.816 2.1146 0)
(26.5677 2.43691 -1.19109e-15)
(26.2634 2.73924 -9.91389e-16)
(25.895 3.02467 6.75055e-16)
(25.4637 3.29604 -2.23789e-16)
(24.8718 3.55193 -5.53692e-16)
(24.2903 3.78086 -2.08085e-15)
(22.2963 3.87244 -4.37132e-15)
(8.44411 18.256 -5.28643e-18)
(9.5591 19.7877 -5.30665e-17)
(10.9479 21.3074 3.71545e-17)
(12.5753 22.7365 2.10275e-18)
(14.4036 23.9665 -8.98258e-17)
(16.4328 24.9754 3.6468e-16)
(18.5969 25.7181 -2.6799e-16)
(20.8287 26.1539 -3.62198e-16)
(23.0747 26.2777 1.44682e-17)
(25.2779 26.0947 -5.17936e-16)
(27.3857 25.6207 5.08728e-16)
(29.3628 24.8832 -1.35146e-15)
(31.1771 23.9127 -6.6041e-16)
(32.8085 22.7309 0)
(34.2379 21.3655 -1.63472e-15)
(35.4566 19.8491 3.36428e-15)
(36.5143 18.1782 0)
(37.4283 16.3872 -6.49605e-15)
(38.235 14.5081 -3.26262e-15)
(38.9575 12.6019 3.82627e-16)
(39.6587 10.7146 -3.7356e-16)
(40.3573 8.90287 -1.70144e-16)
(41.0102 7.1559 -2.38944e-15)
(41.39 5.42795 1.21699e-15)
(41.2501 3.75865 0)
(40.5998 2.25679 1.12527e-15)
(39.581 0.984564 -1.34307e-16)
(38.2779 -0.0687417 0)
(36.6602 -0.955208 1.75408e-15)
(34.6714 -1.70064 3.23986e-15)
(32.3405 -2.29937 -5.64424e-15)
(29.8447 -2.7469 -4.76361e-15)
(27.4093 -3.05165 -1.00331e-16)
(25.148 -3.22643 -6.28435e-15)
(22.9728 -3.27924 -4.75226e-15)
(20.7553 -3.20837 6.22744e-15)
(18.0674 -2.9705 0)
(15.2884 -2.53794 2.21861e-16)
(9.11249 -1.82023 -1.04699e-14)
(7.56554 16.6641 -3.01064e-17)
(6.82431 14.9533 -9.06847e-17)
(6.26321 12.9617 3.93674e-16)
(5.87662 10.753 0)
(5.81285 8.41945 6.64487e-16)
(6.10309 6.07133 0)
(6.7433 3.80332 4.03117e-15)
(7.7175 1.69703 1.67957e-15)
(8.98141 -0.124635 1.39078e-15)
(10.4297 -1.60206 0)
(11.9458 -2.73291 -1.96116e-15)
(13.4408 -3.54896 -4.0842e-16)
(14.8639 -4.09984 1.8544e-15)
(16.1845 -4.43915 0)
(17.3885 -4.61995 -8.32038e-16)
(18.4813 -4.68393 -2.50532e-16)
(19.4759 -4.66503 1.00941e-15)
(20.3895 -4.58542 5.14697e-16)
(21.2407 -4.46016 1.35152e-16)
(22.0483 -4.29123 -7.61347e-17)
(22.8254 -4.07802 7.16042e-16)
(23.5808 -3.8098 0)
(24.3141 -3.47091 0)
(25.0039 -3.03945 2.91478e-17)
(25.6043 -2.53133 0)
(26.0906 -1.99862 1.03681e-16)
(26.4742 -1.46336 -2.83917e-19)
(26.7699 -0.92691 2.03652e-17)
(26.9828 -0.38328 0)
(27.1137 0.170718 8.69755e-17)
(27.1648 0.734448 -1.66737e-16)
(27.1371 1.29126 0)
(27.0302 1.82171 6.2082e-16)
(26.8438 2.31073 0)
(26.5687 2.75214 0)
(26.2057 3.14571 4.4365e-17)
(25.6579 3.49505 -6.84667e-17)
(25.0391 3.76303 2.1793e-15)
(23.2114 3.89044 8.73188e-15)
(10.806 16.7698 -2.36189e-17)
(11.8377 18.072 -2.91824e-17)
(13.1059 19.3683 3.40247e-17)
(14.5918 20.5806 2.14328e-17)
(16.2624 21.6226 0)
(18.1253 22.4789 0)
(20.1315 23.1012 -4.59585e-16)
(22.2279 23.4508 5.94465e-16)
(24.3714 23.5167 0)
(26.5101 23.2945 -8.19217e-16)
(28.5944 22.7924 -1.08925e-15)
(30.5858 22.0277 -1.04749e-15)
(32.4495 21.0234 1.28601e-15)
(34.1563 19.8064 1.2273e-15)
(35.6808 18.4106 0)
(37.0135 16.8674 2.01106e-15)
(38.1204 15.2267 7.04042e-16)
(38.9657 13.5461 5.75865e-15)
(39.5348 11.8655 3.50687e-16)
(39.8399 10.2164 -3.45878e-16)
(39.9135 8.62943 2.95548e-15)
(39.8285 7.12679 -4.84003e-16)
(39.687 5.69719 2.66836e-15)
(39.5333 4.29849 1.12791e-15)
(39.2744 2.93198 -6.9035e-17)
(38.8245 1.6713 -1.03877e-15)
(38.2269 0.584822 7.62468e-18)
(37.5727 -0.32668 -7.71539e-18)
(36.8935 -1.11281 -1.70694e-15)
(36.1204 -1.81052 -4.45298e-17)
(35.1103 -2.42245 2.77665e-15)
(33.6971 -2.93175 -4.61396e-15)
(31.7743 -3.31409 -3.6147e-15)
(29.397 -3.54761 7.41641e-19)
(26.7397 -3.62357 4.29593e-15)
(23.9671 -3.53475 0)
(20.821 -3.26004 2.65545e-15)
(17.5599 -2.71542 -1.91073e-16)
(11.4852 -2.10556 4.18134e-15)
(9.96973 15.4222 -4.03622e-17)
(9.2488 13.9827 1.31912e-16)
(8.67008 12.2991 5.08295e-16)
(8.24089 10.4197 0)
(8.08116 8.43064 -5.63185e-16)
(8.21404 6.40126 0)
(8.63725 4.39409 -2.78967e-15)
(9.33818 2.49862 -8.28963e-17)
(10.2896 0.819889 1.0614e-15)
(11.4247 -0.59339 9.03927e-16)
(12.6626 -1.71982 2.34525e-17)
(13.932 -2.56636 1.51499e-15)
(15.1846 -3.16552 -9.38067e-16)
(16.3857 -3.55753 3.02144e-16)
(17.5137 -3.78361 1.00774e-15)
(18.5622 -3.88303 1.09016e-15)
(19.5346 -3.8882 -9.56589e-16)
(20.439 -3.82358 1.25356e-17)
(21.2877 -3.70632 0)
(22.094 -3.54292 9.36285e-16)
(22.8684 -3.33394 4.2734e-17)
(23.6174 -3.07119 -6.42045e-16)
(24.34 -2.74086 0)
(25.0187 -2.32281 2.98021e-17)
(25.616 -1.82216 0)
(26.1071 -1.27838 -6.06847e-17)
(26.4982 -0.714656 0)
(26.8014 -0.141567 -1.95368e-17)
(27.0217 0.42942 1.29893e-18)
(27.1621 0.982295 -9.7008e-19)
(27.2281 1.49713 1.59506e-16)
(27.226 1.9622 4.80659e-18)
(27.1595 2.37785 0)
(27.0297 2.74873 -4.36134e-16)
(26.827 3.08238 -5.93124e-18)
(26.5469 3.38419 2.06086e-16)
(26.0912 3.66229 1.48386e-15)
(25.5385 3.8508 5.78628e-18)
(23.8817 3.93614 0)
(12.4238 15.6487 -3.08706e-17)
(13.2962 16.8002 -1.89563e-17)
(14.3718 17.965 5.75612e-17)
(15.6235 19.0753 -1.05265e-16)
(17.0225 20.0538 7.883e-18)
(18.5886 20.8988 -8.09948e-17)
(20.2813 21.5671 1.8672e-16)
(22.0598 22.022 0)
(23.8959 22.2516 8.93674e-16)
(25.7465 22.2449 4.49251e-16)
(27.5723 21.9999 0)
(29.3394 21.5239 1.00168e-15)
(31.0136 20.8309 -5.46086e-16)
(32.565 19.9386 1.52404e-15)
(33.9685 18.8702 0)
(35.2033 17.6512 -2.63365e-15)
(36.2523 16.3043 2.56224e-15)
(37.1212 14.8282 -1.57391e-16)
(37.8062 13.2386 0)
(38.297 11.5736 2.8276e-15)
(38.5877 9.87338 -2.85758e-15)
(38.6791 8.18692 -1.479e-16)
(38.5879 6.54449 -2.25904e-15)
(38.3313 4.96419 -2.11801e-15)
(37.9025 3.48232 0)
(37.2999 2.15482 0)
(36.5788 1.01735 -2.42185e-16)
(35.8251 0.0562619 -2.69905e-17)
(35.1024 -0.777193 1.66563e-15)
(34.4282 -1.51785 -4.38611e-17)
(33.7905 -2.17415 4.37632e-17)
(33.1428 -2.74561 4.52441e-15)
(32.354 -3.22529 0)
(31.1969 -3.58728 1.16717e-14)
(29.3988 -3.78489 -3.8047e-17)
(26.8944 -3.76693 0)
(23.6166 -3.50862 -1.33138e-17)
(19.9616 -2.88701 0)
(13.8457 -2.30374 -3.58838e-15)
(11.7086 14.4628 4.67846e-17)
(11.0874 13.2077 -2.64168e-16)
(10.5687 11.738 -4.91004e-17)
(10.1579 10.0985 1.0887e-15)
(9.95847 8.36901 -1.71338e-15)
(9.98906 6.58635 -2.03333e-15)
(10.2614 4.79739 2.02511e-15)
(10.7695 3.09154 -1.8675e-15)
(11.4935 1.55415 -8.14868e-16)
(12.3893 0.220612 -7.12516e-16)
(13.3971 -0.88687 1.3689e-15)
(14.4607 -1.76494 -1.28748e-15)
(15.54 -2.43342 -5.5208e-16)
(16.6028 -2.91965 5.39801e-16)
(17.6258 -3.25102 -1.1372e-15)
(18.5976 -3.4578 2.14939e-16)
(19.5151 -3.56543 0)
(20.3806 -3.59422 -7.53275e-16)
(21.2009 -3.55863 2.62473e-16)
(21.985 -3.46604 -9.89226e-16)
(22.7406 -3.31747 0)
(23.4722 -3.10742 5.5994e-16)
(24.1779 -2.82565 4.1789e-16)
(24.8422 -2.45975 -2.66607e-16)
(25.4333 -2.01587 0)
(25.9274 -1.52747 -1.07454e-16)
(26.326 -1.02038 0)
(26.6385 -0.506832 0)
(26.8692 0.00421809 0)
(27.0202 0.502811 -5.53446e-17)
(27.0955 0.983927 0)
(27.1011 1.4497 0)
(27.0412 1.8982 4.84273e-16)
(26.9194 2.32499 4.30582e-16)
(26.7303 2.72685 0)
(26.476 3.09957 1.03661e-16)
(26.0707 3.44543 8.92953e-17)
(25.6006 3.68784 0)
(24.2129 3.83102 -4.39324e-15)
(13.8789 14.6711 4.0194e-17)
(14.6669 15.6903 -2.85708e-17)
(15.6353 16.7272 0)
(16.7576 17.7186 1.18347e-17)
(18.0054 18.5955 2.10663e-17)
(19.4062 19.3619 7.55448e-17)
(20.925 19.9769 4.19255e-17)
(22.5292 20.4076 -4.89401e-16)
(24.2004 20.6398 -7.4989e-17)
(25.9032 20.6594 8.84912e-16)
(27.6046 20.4592 -3.20452e-16)
(29.2757 20.0394 7.61532e-16)
(30.8839 19.4062 3.85841e-16)
(32.3996 18.5701 2.7774e-16)
(33.7968 17.5471 0)
(35.051 16.357 -5.70111e-16)
(36.1443 15.02 -1.28022e-15)
(37.0516 13.5763 -4.80565e-15)
(37.7476 12.076 1.42691e-15)
(38.2255 10.5549 -1.81787e-15)
(38.4884 9.04489 -2.83726e-16)
(38.5518 7.56805 0)
(38.4342 6.13066 2.01944e-15)
(38.1426 4.72581 1.29825e-16)
(37.6683 3.37051 -5.9986e-17)
(37.014 2.11977 -8.5259e-16)
(36.2234 1.02435 1.98819e-16)
(35.3652 0.0898345 4.16164e-16)
(34.4893 -0.716666 -1.55675e-15)
(33.6141 -1.42544 -8.28558e-17)
(32.7526 -2.04727 2.64669e-15)
(31.9313 -2.58593 4.27049e-15)
(31.1755 -3.04448 0)
(30.4707 -3.41988 -1.91563e-17)
(29.648 -3.6923 -4.29451e-15)
(28.3269 -3.79656 0)
(25.8525 -3.64269 -4.8418e-15)
(22.3362 -3.02429 0)
(16.2403 -2.45687 3.1526e-15)
(13.2257 13.624 -4.53911e-17)
(12.6544 12.5224 1.05419e-16)
(12.1638 11.228 -2.52457e-16)
(11.7598 9.78124 0)
(11.5322 8.25774 7.1235e-16)
(11.493 6.67405 3.13921e-15)
(11.6596 5.06738 0)
(12.0283 3.5243 -1.38053e-15)
(12.5829 2.11601 -1.30095e-15)
(13.2939 0.869046 1.28423e-15)
(14.1173 -0.195041 -4.72803e-17)
(15.0092 -1.06634 5.48933e-16)
(15.9379 -1.75614 3.63382e-17)
(16.876 -2.28247 1.3967e-15)
(17.8011 -2.66304 1.22652e-15)
(18.6996 -2.92019 -1.13573e-15)
(19.5646 -3.07403 1.55716e-16)
(20.3936 -3.14205 -2.87701e-16)
(21.1888 -3.13776 1.32191e-16)
(21.9546 -3.06954 7.44418e-16)
(22.6955 -2.94023 9.45294e-17)
(23.4136 -2.74711 -6.19521e-17)
(24.106 -2.4827 -3.51403e-16)
(24.7586 -2.13783 0)
(25.3444 -1.71631 1.00249e-17)
(25.8407 -1.24457 2.15432e-16)
(26.2455 -0.746413 -2.07549e-19)
(26.5656 -0.2336 2.08029e-19)
(26.8046 0.285295 0)
(26.9642 0.800107 5.23307e-17)
(27.048 1.30147 0)
(27.0613 1.77655 0)
(27.0081 2.21753 -4.52761e-16)
(26.8916 2.61952 -3.42866e-16)
(26.7062 2.98216 0)
(26.4524 3.3034 -9.84364e-17)
(26.0517 3.59 -1.78154e-15)
(25.5757 3.75084 1.23353e-17)
(24.3448 3.81209 4.21237e-15)
(15.0852 13.8413 3.66305e-18)
(15.794 14.755 -2.54574e-17)
(16.6638 15.6912 4.58789e-17)
(17.6666 16.5905 -4.43453e-17)
(18.7735 17.3916 -5.22308e-18)
(20.0163 18.1037 0)
(21.3632 18.6911 -1.90057e-16)
(22.7869 19.1241 -8.51755e-18)
(24.2764 19.3912 -2.55044e-16)
(25.8017 19.4781 -5.28946e-16)
(27.3367 19.3756 0)
(28.858 19.0809 -1.37414e-15)
(30.3359 18.5954 -1.21588e-15)
(31.7436 17.925 -3.01103e-15)
(33.0554 17.0812 0)
(34.2465 16.0796 -1.91641e-15)
(35.2942 14.9412 -2.04111e-15)
(36.1804 13.6868 2.26932e-15)
(36.8957 12.3278 -2.24185e-15)
(37.4295 10.8906 2.08598e-15)
(37.7776 9.40748 2.58646e-16)
(37.9419 7.91598 -2.2254e-15)
(37.9297 6.44479 0)
(37.741 5.01159 -1.9559e-15)
(37.3636 3.64251 1.16599e-16)
(36.7975 2.3827 8.87765e-16)
(36.0794 1.27254 0)
(35.2683 0.317784 -3.06036e-17)
(34.4061 -0.508951 6.56679e-17)
(33.5021 -1.23442 2.5261e-15)
(32.5541 -1.86733 -2.33974e-15)
(31.5711 -2.40896 -4.05018e-15)
(30.5803 -2.8611 3.40141e-15)
(29.6327 -3.22292 -5.98566e-17)
(28.7781 -3.4884 4.25414e-15)
(28.0417 -3.63551 5.37512e-15)
(26.7819 -3.59941 2.47859e-15)
(24.2495 -3.07581 -1.42002e-18)
(18.575 -2.57014 -5.86545e-18)
(14.4919 12.9043 1.80159e-17)
(13.9696 11.924 1.91913e-16)
(13.5091 10.7696 2.39049e-16)
(13.1167 9.47747 -4.80718e-16)
(12.8732 8.11958 -1.82675e-15)
(12.7866 6.69841 5.32918e-16)
(12.8767 5.24571 1.15302e-15)
(13.1425 3.84382 2.84833e-15)
(13.5699 2.55299 1.11885e-15)
(14.1383 1.39261 -1.04386e-15)
(14.8139 0.38214 -2.29596e-17)
(15.5622 -0.466754 -4.82202e-16)
(16.3585 -1.16146 0)
(17.1805 -1.71422 -1.87487e-17)
(18.0084 -2.13629 -7.59381e-16)
(18.8288 -2.44381 3.24921e-16)
(19.6332 -2.65181 -3.19841e-16)
(20.4159 -2.77384 0)
(21.1757 -2.82083 4.64362e-16)
(21.9137 -2.80017 -7.83645e-16)
(22.6317 -2.71457 0)
(23.3297 -2.56234 5.40283e-16)
(24.0038 -2.33791 0)
(24.6413 -2.03524 -1.63457e-17)
(25.2186 -1.65821 1.6338e-17)
(25.7143 -1.22853 -1.14159e-16)
(26.1235 -0.768663 -2.47103e-18)
(26.4505 -0.291611 -4.85641e-19)
(26.6981 0.192781 -4.57908e-19)
(26.8676 0.673493 3.43308e-17)
(26.9621 1.13947 8.82426e-17)
(26.9864 1.58558 -1.83101e-16)
(26.9441 2.00819 -6.064e-18)
(26.8379 2.40394 3.40679e-17)
(26.6617 2.77169 0)
(26.4154 3.10761 3.25019e-18)
(26.0253 3.41382 8.55461e-16)
(25.5517 3.59866 -1.34666e-17)
(24.4127 3.6741 3.92236e-15)
(16.1328 13.1127 6.92649e-18)
(16.7818 13.9366 3.93404e-17)
(17.5766 14.7843 0)
(18.4891 15.5997 -2.15051e-17)
(19.4898 16.3274 -3.79341e-17)
(20.6126 16.9801 0)
(21.8287 17.5251 -7.05641e-17)
(23.1145 17.9359 6.32007e-16)
(24.4639 18.2027 -9.5632e-16)
(25.8525 18.311 3.0261e-16)
(27.2589 18.2505 4.54084e-16)
(28.6647 18.0157 1.73304e-15)
(30.0446 17.6041 1.27238e-15)
(31.3744 17.0167 1.55244e-15)
(32.6298 16.2597 4.20012e-16)
(33.7864 15.3434 1.40496e-15)
(34.821 14.2824 1.94901e-15)
(35.7143 13.0942 1.92463e-15)
(36.4441 11.8108 -1.43027e-15)
(36.9955 10.4647 -4.39846e-15)
(37.3624 9.08655 0)
(37.5476 7.70319 8.2808e-17)
(37.5597 6.33424 1.74565e-15)
(37.4035 4.9916 1.85881e-15)
(37.0729 3.69544 -1.06754e-16)
(36.5669 2.48527 -7.91966e-16)
(35.9136 1.40123 5.70621e-18)
(35.163 0.455756 -4.06432e-16)
(34.353 -0.369565 4.29383e-17)
(33.4929 -1.09652 -4.69131e-15)
(32.5754 -1.73212 -8.49442e-18)
(31.595 -2.27565 -6.33278e-17)
(30.5495 -2.72555 -3.23978e-15)
(29.4531 -3.07782 -5.90346e-17)
(28.3296 -3.32398 -3.99846e-15)
(27.3475 -3.44377 -1.0522e-14)
(26.5303 -3.42746 2.49359e-15)
(25.2822 -3.01139 -5.61149e-17)
(20.6056 -2.62463 2.68791e-15)
(15.5848 12.2688 -7.19327e-17)
(15.1003 11.3894 -2.56201e-16)
(14.6643 10.3515 -1.74736e-16)
(14.2831 9.18799 -4.3975e-16)
(14.03 7.96626 9.98167e-16)
(13.911 6.68051 -6.58475e-17)
(13.945 5.35954 -2.86259e-15)
(14.1333 4.08013 -9.6523e-16)
(14.4638 2.89432 2.43e-17)
(14.9209 1.81637 0)
(15.4779 0.863783 -8.80817e-16)
(16.107 0.0483474 8.12102e-16)
(16.7895 -0.635398 -7.72415e-16)
(17.5076 -1.196 -3.90861e-16)
(18.2446 -1.64016 3.19689e-16)
(18.9889 -1.97916 3.18823e-16)
(19.7315 -2.22335 1.1159e-15)
(20.4654 -2.38244 -2.6226e-16)
(21.1871 -2.46476 -4.32439e-16)
(21.8951 -2.47652 0)
(22.5887 -2.42028 -6.31098e-16)
(23.2659 -2.2953 -4.47482e-16)
(23.922 -2.09762 -1.22391e-17)
(24.5448 -1.82337 -4.46816e-17)
(25.1133 -1.47608 -1.13107e-17)
(25.6074 -1.07307 1.60675e-16)
(26.0198 -0.634773 -1.49939e-18)
(26.3526 -0.174405 8.48468e-18)
(26.6077 0.298109 -1.31701e-18)
(26.7857 0.772002 -3.17443e-17)
(26.889 1.23737 -1.37243e-17)
(26.9217 1.68513 3.4118e-16)
(26.8871 2.10776 2.86481e-16)
(26.7877 2.49979 2.71753e-16)
(26.6178 2.85855 4.19733e-18)
(26.3769 3.1775 -1.06341e-18)
(25.9964 3.45784 -9.68161e-16)
(25.5326 3.59788 -2.20051e-15)
(24.4713 3.61186 -3.61541e-15)
(17.0411 12.4686 -2.14743e-17)
(17.6393 13.2163 -1.66899e-17)
(18.3704 13.9879 -7.57763e-17)
(19.206 14.7315 2.26077e-16)
(20.1166 15.3955 -5.58008e-17)
(21.1365 15.9957 -3.52761e-17)
(22.2391 16.5024 2.37224e-16)
(23.4033 16.8922 0)
(24.6266 17.1575 2.89182e-16)
(25.8882 17.2849 1.77293e-17)
(27.1708 17.2643 -3.86006e-16)
(28.4605 17.0895 -1.59402e-15)
(29.7355 16.756 -6.69323e-16)
(30.9745 16.2626 0)
(32.1559 15.6118 0)
(33.2561 14.8106 0)
(34.2522 13.8705 0)
(35.1229 12.8085 -1.84042e-15)
(35.8508 11.6418 1.87107e-15)
(36.4208 10.3918 1.83892e-15)
(36.8231 9.08518 -1.48529e-15)
(37.0548 7.75142 1.31114e-15)
(37.1176 6.41724 -1.36411e-15)
(37.0128 5.10419 -1.00337e-16)
(36.7364 3.83594 -4.67247e-17)
(36.2891 2.64624 7.97067e-16)
(35.6951 1.57014 1.72494e-16)
(34.9985 0.622133 0)
(34.236 -0.210216 0)
(33.4203 -0.944921 3.90107e-17)
(32.5483 -1.58845 0)
(31.6148 -2.1398 3.44031e-15)
(30.6112 -2.59656 -3.02957e-15)
(29.5305 -2.95225 -4.80785e-15)
(28.3491 -3.19576 7.40335e-15)
(27.1082 -3.29959 5.02774e-15)
(25.9959 -3.24339 -2.42614e-15)
(25.4643 -2.86063 9.21144e-17)
(22.0755 -2.60127 -2.61014e-15)
(16.5322 11.7034 0)
(16.0803 10.9084 7.2201e-17)
(15.6665 9.96838 3.31635e-16)
(15.2973 8.91332 -1.41146e-15)
(15.0393 7.80536 1.18667e-15)
(14.8978 6.63448 -8.40641e-16)
(14.8902 5.42723 1.85055e-17)
(15.0194 4.25449 7.59697e-16)
(15.2751 3.16252 7.83845e-16)
(15.6447 2.16191 0)
(16.1062 1.26785 3.63559e-16)
(16.6369 0.491575 -1.10599e-15)
(17.2221 -0.171726 1.72349e-15)
(17.8481 -0.728619 3.08453e-16)
(18.5013 -1.18336 -6.21274e-16)
(19.1723 -1.5437 -5.70307e-16)
(19.8526 -1.81653 -5.1626e-16)
(20.5349 -2.00839 0)
(21.2146 -2.12503 0)
(21.8884 -2.171 0)
(22.5535 -2.14826 5.90404e-16)
(23.2066 -2.05623 0)
(23.842 -1.89188 -3.56443e-16)
(24.4481 -1.65281 -4.38033e-17)
(25.0058 -1.34232 -2.30845e-16)
(25.496 -0.974651 -1.40628e-16)
(25.9099 -0.568182 0)
(26.2474 -0.136362 -6.5881e-18)
(26.5093 0.310452 1.30459e-18)
(26.6958 0.761379 -3.51946e-19)
(26.8086 1.20554 -1.19463e-16)
(26.8511 1.63469 -2.28729e-17)
(26.8263 2.04278 -2.77588e-16)
(26.7362 2.42468 1.87151e-16)
(26.5751 2.7773 0)
(26.3421 3.09339 -4.18011e-18)
(25.973 3.37169 -6.48676e-17)
(25.5213 3.51133 2.08725e-15)
(24.5361 3.51626 -1.98405e-17)
(17.8391 11.8917 2.20762e-17)
(18.3948 12.5733 0)
(19.0725 13.2783 1.47815e-16)
(19.844 13.9579 -1.18442e-16)
(20.6797 14.5644 1.77785e-17)
(21.6141 15.1152 3.28619e-17)
(22.6219 15.5831 -1.02491e-16)
(23.6839 15.9479 -1.53658e-16)
(24.8002 16.2031 0)
(25.9528 16.3367 -3.31415e-16)
(27.1281 16.3392 -3.70016e-16)
(28.3153 16.204 3.66114e-16)
(29.4961 15.9255 1.4251e-15)
(30.6528 15.4999 5.9175e-16)
(31.766 14.927 -1.80341e-15)
(32.8136 14.2103 -1.32452e-15)
(33.774 13.3578 1.05672e-15)
(34.6262 12.3813 7.92843e-16)
(35.3511 11.298 -4.06233e-16)
(35.9308 10.1317 4.10824e-16)
(36.3527 8.9079 1.04409e-15)
(36.6117 7.6526 1.94125e-16)
(36.7075 6.3894 -1.85666e-16)
(36.6404 5.13883 -1.24209e-15)
(36.4078 3.92286 0)
(36.0104 2.77106 -6.67867e-16)
(35.4677 1.71629 -3.21591e-16)
(34.8175 0.776159 -2.97057e-16)
(34.0938 -0.0555171 -1.09869e-15)
(33.3116 -0.79249 4.11097e-15)
(32.4719 -1.44003 1.68947e-15)
(31.5734 -1.99672 4.26904e-18)
(30.6119 -2.4597 3.83306e-17)
(29.5802 -2.82205 0)
(28.4537 -3.07023 -3.45398e-15)
(27.2065 -3.17886 0)
(25.7686 -3.10141 0)
(25.2238 -2.68634 -3.44609e-17)
(22.9087 -2.50459 9.1019e-18)
(17.3632 11.1943 -7.30918e-17)
(16.9392 10.4715 2.33705e-16)
(16.545 9.61529 1.6728e-17)
(16.1877 8.65311 3.15654e-16)
(15.9281 7.64224 -1.03047e-15)
(15.7711 6.57008 6.74151e-16)
(15.7324 5.46161 1.94772e-17)
(15.816 4.38253 -6.33847e-16)
(16.0134 3.37435 -6.1145e-16)
(16.3134 2.44505 -6.43326e-16)
(16.6976 1.60801 -1.24961e-15)
(17.1469 0.873523 0)
(17.6495 0.236719 -6.24446e-16)
(18.1949 -0.307985 -2.02823e-17)
(18.7722 -0.76321 0)
(19.3741 -1.13463 -5.07373e-16)
(19.9936 -1.42635 -2.40837e-16)
(20.6238 -1.64239 -2.22861e-16)
(21.2596 -1.78624 7.51452e-16)
(21.8967 -1.86062 6.58152e-16)
(22.5311 -1.86641 -6.53366e-17)
(23.1582 -1.80296 4.84684e-16)
(23.7716 -1.66782 8.50204e-17)
(24.36 -1.45936 -4.27735e-17)
(24.9057 -1.18068 2.05138e-16)
(25.3904 -0.843479 1.20846e-17)
(25.8042 -0.463877 0)
(26.1452 -0.0550465 0)
(26.4129 0.372519 1.05011e-19)
(26.607 0.808035 -1.12914e-18)
(26.7284 1.24076 8.92686e-17)
(26.7797 1.66169 -2.24726e-17)
(26.7636 2.0629 -1.94717e-16)
(26.6817 2.43802 -1.78117e-16)
(26.5285 2.78285 -4.31201e-19)
(26.3031 3.0882 4.99457e-18)
(25.9459 3.35081 1.90904e-15)
(25.5078 3.46658 -2.01283e-15)
(24.5996 3.43847 1.8438e-17)
(18.5443 11.3708 8.61235e-18)
(19.0632 11.9947 0)
(19.695 12.641 -7.45261e-17)
(20.4114 13.2638 0)
(21.1829 13.8191 7.17152e-18)
(22.0436 14.325 -6.91602e-18)
(22.9696 14.7567 7.50503e-17)
(23.943 15.0963 1.44075e-16)
(24.9655 15.339 0)
(26.0213 15.474 -2.05319e-16)
(27.0995 15.493 3.76526e-16)
(28.1923 15.3894 -7.85883e-16)
(29.2841 15.1571 -4.47027e-16)
(30.3602 14.7915 -4.64581e-16)
(31.4035 14.2904 1.14712e-15)
(32.3943 13.6549 1.26014e-15)
(33.3122 12.8901 -1.36903e-15)
(34.1367 12.0053 -1.37918e-15)
(34.849 11.0146 0)
(35.4314 9.93496 3.76461e-16)
(35.8698 8.7882 -7.2883e-16)
(36.1559 7.59909 1.77967e-16)
(36.2859 6.39235 2.37813e-18)
(36.2583 5.19119 2.9247e-15)
(36.0705 4.01818 -1.61603e-16)
(35.7231 2.89934 1.00648e-16)
(35.2318 1.86427 2.95891e-16)
(34.6281 0.932012 3.13828e-16)
(33.9432 0.101341 9.41279e-16)
(33.1928 -0.637447 -1.88298e-15)
(32.3804 -1.28825 -1.54142e-15)
(31.5068 -1.84915 -6.01599e-15)
(30.5716 -2.31663 5.1324e-15)
(29.5725 -2.6843 -7.22342e-17)
(28.492 -2.9367 3.19819e-15)
(27.3389 -3.05207 -9.31101e-17)
(25.8352 -2.98562 4.9296e-17)
(24.9749 -2.52818 9.2938e-18)
(23.2544 -2.35811 -2.2569e-15)
(18.0973 10.7325 3.75598e-17)
(17.6977 10.0719 -1.17329e-16)
(17.3215 9.28829 2.24358e-16)
(16.9758 8.40638 0)
(16.7171 7.47962 5.84798e-16)
(16.5494 6.4934 0)
(16.4874 5.47172 0)
(16.5357 4.47533 0)
(16.6869 3.54222 1.12827e-15)
(16.9313 2.67835 -5.4575e-16)
(17.2527 1.89566 6.16379e-16)
(17.6345 1.20358 0)
(18.0672 0.596831 0)
(18.5424 0.0700731 -5.32641e-16)
(19.0517 -0.378487 0)
(19.5897 -0.753113 4.71779e-16)
(20.151 -1.0564 8.94375e-18)
(20.7295 -1.29029 0)
(21.3203 -1.45633 -5.36692e-16)
(21.9189 -1.5557 -7.80083e-16)
(22.5203 -1.58829 -5.32586e-16)
(23.1192 -1.55296 -4.45174e-16)
(23.7088 -1.4473 7.36483e-16)
(24.278 -1.27009 0)
(24.8101 -1.0242 2.19682e-16)
(25.2875 -0.719144 1.81996e-16)
(25.6996 -0.36908 5.73366e-17)
(26.0427 0.0133106 0)
(26.3154 0.417404 -1.75984e-18)
(26.5165 0.832459 1.1963e-18)
(26.6463 1.24758 -5.95835e-17)
(26.7067 1.65345 -2.1657e-17)
(26.6998 2.04246 1.77747e-16)
(26.6269 2.40794 -1.02187e-16)
(26.4825 2.74504 -3.0522e-18)
(26.2653 3.04339 3.20622e-19)
(25.9209 3.29747 -1.91597e-15)
(25.4968 3.4037 1.864e-15)
(24.6617 3.35885 5.53485e-15)
(19.1719 10.8968 5.31738e-18)
(19.6588 11.4697 -2.6044e-17)
(20.2504 12.0639 0)
(20.919 12.6359 -7.81305e-17)
(21.635 13.1449 0)
(22.4322 13.6094 0)
(23.2873 14.0071 2.16307e-17)
(24.1837 14.3216 1.3326e-16)
(25.1244 14.5494 3.23143e-16)
(26.095 14.6812 8.86942e-16)
(27.0869 14.7097 5.26705e-16)
(28.0945 14.6288 6.29851e-16)
(29.1046 14.4322 0)
(30.1053 14.1146 1.29179e-15)
(31.0819 13.6725 -4.60647e-16)
(32.0167 13.1051 0)
(32.8913 12.4151 1.13645e-15)
(33.6858 11.6088 1.31416e-15)
(34.3821 10.6975 0)
(34.9622 9.69608 1.32841e-15)
(35.4101 8.62498 -1.30392e-15)
(35.7156 7.50648 0)
(35.8731 6.36367 -1.56937e-16)
(35.8794 5.21934 2.71021e-17)
(35.7321 4.09521 7.5552e-17)
(35.4313 3.01438 1.14697e-15)
(34.989 2.00377 -4.18709e-18)
(34.4314 1.08366 -3.06889e-17)
(33.7862 0.257329 -2.5629e-17)
(33.069 -0.481042 5.67878e-17)
(32.2849 -1.13357 1.5381e-15)
(31.4356 -1.69759 5.39213e-15)
(30.5217 -2.16862 4.26783e-17)
(29.5445 -2.54022 -3.81282e-15)
(28.4848 -2.79663 -2.88127e-15)
(27.3961 -2.91279 -4.00882e-15)
(25.9899 -2.86846 -2.06339e-15)
(24.881 -2.39225 6.75596e-18)
(23.3686 -2.18746 2.14209e-15)
(18.7503 10.3104 -7.91057e-17)
(18.3724 9.70447 -2.7644e-16)
(18.0126 8.98431 5.34882e-16)
(17.6784 8.17261 0)
(17.4222 7.3193 9.22264e-16)
(17.2476 6.40892 0)
(17.168 5.46397 -4.52274e-16)
(17.1887 4.54116 1.80338e-15)
(17.3033 3.67543 -1.37839e-15)
(17.5027 2.87162 0)
(17.7727 2.14014 9.93258e-16)
(18.0984 1.48963 9.48959e-16)
(18.4718 0.914486 0)
(18.8864 0.409455 -9.14553e-16)
(19.3353 -0.0270029 2.17147e-16)
(19.815 -0.398664 -2.17507e-16)
(20.3213 -0.707017 2.08176e-16)
(20.8496 -0.952629 3.59762e-16)
(21.3955 -1.13556 -1.60915e-17)
(21.9544 -1.25558 4.20925e-16)
(22.5213 -1.31152 1.16365e-16)
(23.0904 -1.30161 -1.15443e-16)
(23.6549 -1.22332 -3.50558e-16)
(24.2037 -1.07539 2.91419e-16)
(24.7207 -0.860206 -1.93843e-16)
(25.1892 -0.585614 -1.84717e-16)
(25.5979 -0.263784 -5.41081e-17)
(25.9418 0.0933448 -4.10971e-19)
(26.2183 0.475229 2.07987e-18)
(26.4256 0.871335 -1.13232e-18)
(26.5631 1.27082 1.15373e-17)
(26.6321 1.66415 -2.09997e-17)
(26.634 2.04284 -1.0186e-16)
(26.5698 2.39934 1.03924e-16)
(26.4342 2.72784 1.03314e-18)
(26.2258 3.01656 -1.99447e-16)
(25.8951 3.25797 9.38231e-16)
(25.4865 3.34931 0)
(24.7216 3.28439 -5.25053e-15)
(19.7334 10.4628 1.38431e-17)
(20.1919 10.9904 0)
(20.7481 11.5379 0)
(21.3744 12.0642 1.22995e-16)
(22.0419 12.5315 -2.09446e-17)
(22.7832 12.9583 0)
(23.5762 13.324 0)
(24.4051 13.6142 -4.04968e-16)
(25.2734 13.8265 -2.25857e-17)
(26.1686 13.9526 -2.97111e-17)
(27.0831 13.9863 -1.21894e-15)
(28.0133 13.922 -3.33278e-16)
(28.9482 13.7539 6.4412e-16)
(29.8779 13.4763 -5.63782e-17)
(30.7902 13.085 0)
(31.6694 12.578 0)
(32.499 11.9558 -3.10317e-15)
(33.2604 11.2228 -5.80712e-16)
(33.9359 10.3877 5.96498e-16)
(34.5082 9.46229 -1.28558e-15)
(34.9608 8.46381 2.45117e-15)
(35.2815 7.41257 1.16578e-15)
(35.4627 6.33072 -1.13428e-15)
(35.5002 5.24104 -1.29109e-15)
(35.3907 4.1647 2.05638e-16)
(35.1337 3.12218 -1.12143e-15)
(34.7385 2.13773 -1.27278e-16)
(34.2263 1.23221 2.83133e-17)
(33.6212 0.412485 -2.84225e-17)
(32.9387 -0.32361 9.47512e-17)
(32.1847 -0.976457 -4.02007e-17)
(31.362 -1.54257 -2.63847e-15)
(30.4708 -2.01652 -9.83725e-17)
(29.5149 -2.39104 1.15103e-16)
(28.4717 -2.65185 0)
(27.4031 -2.76639 3.69012e-15)
(26.1113 -2.7374 1.92003e-15)
(24.915 -2.26713 0)
(23.4433 -2.01013 0)
(19.3345 9.92247 0)
(18.976 9.36471 2.44602e-16)
(18.6315 8.70081 -7.88914e-16)
(18.3085 7.95098 -3.7048e-16)
(18.0561 7.16256 -8.32302e-16)
(17.8771 6.31956 0)
(17.7844 5.44303 0)
(17.7835 4.58612 -8.06685e-16)
(17.8688 3.7813 8.30965e-16)
(18.0317 3.03237 0)
(18.2593 2.34866 -4.17897e-16)
(18.5383 1.73822 -4.4491e-16)
(18.8615 1.19523 4.16443e-16)
(19.2236 0.714133 4.25991e-16)
(19.6193 0.293307 -7.885e-16)
(20.0462 -0.0706641 0)
(20.5015 -0.378826 -1.72562e-16)
(20.9817 -0.630904 1.3197e-17)
(21.4834 -0.825985 7.51561e-16)
(22.0024 -0.962713 -1.31894e-16)
(22.5339 -1.03889 1.26271e-16)
(23.072 -1.05215 -9.38403e-17)
(23.61 -0.999613 1.31713e-16)
(24.137 -0.879811 -5.95469e-16)
(24.6377 -0.694458 -2.01964e-16)
(25.0956 -0.449888 1.58563e-16)
(25.4992 -0.156544 -9.17514e-18)
(25.8425 0.174536 0)
(26.1217 0.533043 -3.10158e-18)
(26.3343 0.908632 1.04529e-17)
(26.479 1.29057 1.05907e-17)
(26.5563 1.66899 -4.42458e-17)
(26.5671 2.03536 1.58872e-16)
(26.5119 2.38155 -8.07036e-17)