/*--------------------------------*- C++ -*----------------------------------*\
| =========                 |                                                 |
| \\      /  F ield         | OpenFOAM: The Open Source CFD Toolbox           |
|  \\    /   O peration     | Version:  2206                                  |
|   \\  /    A nd           | Website:  www.openfoam.com                      |
|    \\/     M anipulation  |                                                 |
\*---------------------------------------------------------------------------*/
FoamFile
{
    version     2.0;
    format      ascii;
    arch        "LSB;label=32;scalar=64";
    class       volScalarField;
    location    "0.9";
    object      Co;
}
// * * * * * * * * * * * * * * * * * * * * * * * * * * * * * * * * * * * * * //

dimensions      [0 0 0 0 0 0 0];

internalField   nonuniform List<scalar> 
185303
(
0.0857537
0.0859207
0.086156
0.085933
0.0859138
0.0858545
0.0860133
0.0859849
0.0859453
0.0858263
0.0866505
0.0856942
0.0859906
0.0857839
0.0858385
0.0858562
0.0855408
0.0865417
0.0857959
0.086532
0.0860395
0.0867053
0.0869732
0.0861442
0.085901
0.0856157
0.0870358
0.086165
0.0858779
0.0865252
0.0856444
0.0853197
0.0858494
0.0865009
0.0867079
0.0862141
0.0854254
0.0864358
0.0865223
0.0863873
0.0865409
0.0863666
0.08624
0.0866744
0.0856303
0.0862809
0.0860127
0.0862727
0.0855674
0.0854697
0.0853783
0.0854636
0.0868619
0.0854576
0.0868638
0.0865035
0.0869602
0.0866633
0.0855787
0.0856265
0.0866501
0.085353
0.0858763
0.0863557
0.0863188
0.0856028
0.085876
0.0862805
0.0856412
0.0856169
0.0855312
0.085617
0.0853789
0.0864992
0.0860999
0.0854174
0.0862869
0.0861083
0.0864821
0.0852374
0.0854786
0.0852703
0.0860101
0.0857929
0.0853742
0.0853619
0.0859872
0.0860536
0.0858684
0.0866799
0.0863126
0.0856198
0.0862985
0.0858123
0.0858984
0.0856925
0.0863907
0.0863537
0.0863205
0.0862613
0.0862939
0.0857281
0.0856857
0.0860567
0.0861674
0.0863598
0.0854738
0.0858782
0.0858001
0.0858787
0.0857307
0.0862851
0.0857548
0.0857711
0.0859902
0.0863543
0.0853753
0.0856068
0.0853036
0.0851473
0.0861263
0.0859509
0.0860019
0.08603
0.0860932
0.0857604
0.0853163
0.0851194
0.085376
0.0861928
0.0856591
0.0860096
0.0861833
0.0864522
0.0862297
0.0854099
0.0868268
0.0859813
0.0859644
0.0864486
0.0862695
0.0853506
0.085704
0.0851714
0.0857508
0.0863629
0.0859829
0.0854172
0.085921
0.0860544
0.0853422
0.0851929
0.0851878
0.0860504
0.0855546
0.0849901
0.0850525
0.0854644
0.0866468
0.0857327
0.0853846
0.0852741
0.0852137
0.0862493
0.0853763
0.0853855
0.0855409
0.0865523
0.085516
0.085328
0.0864298
0.0853401
0.085401
0.0865891
0.0857193
0.0864802
0.0858188
0.086361
0.0863887
0.0857231
0.0852476
0.0852896
0.0860933
0.0857899
0.0852243
0.0852841
0.0854395
0.0856139
0.0867955
0.0854305
0.0855612
0.085954
0.0863694
0.0857135
0.0864522
0.08663
0.0865043
0.0863762
0.085653
0.0858634
0.0864822
0.0862419
0.085525
0.0858312
0.0854686
0.0858511
0.0860322
0.085731
0.0858751
0.0860968
0.0860378
0.0869154
0.086257
0.0858914
0.0862254
0.0854783
0.0863542
0.0856066
0.0859317
0.0857194
0.0864731
0.0855187
0.0855231
0.0865674
0.0852343
0.0852475
0.0855836
0.0852984
0.0854056
0.0854987
0.0860914
0.0854197
0.086437
0.0860815
0.0865486
0.0864496
0.0860923
0.0857948
0.0863476
0.0864228
0.0863747
0.086194
0.0864518
0.0858784
0.0860236
0.085509
0.0855142
0.0865667
0.0851624
0.0857365
0.0865766
0.0857673
0.0856308
0.0864549
0.086526
0.0853098
0.085756
0.0855764
0.0855918
0.0851862
0.0854713
0.0862675
0.0861831
0.0862339
0.0862926
0.0863935
0.0862472
0.085281
0.0862214
0.0861394
0.0853098
0.0860165
0.0862715
0.0860262
0.085732
0.0857268
0.0862012
0.0863662
0.0869196
0.085189
0.0863497
0.08534
0.0852872
0.0860896
0.0849461
0.0852718
0.0848867
0.0864232
0.0858937
0.085145
0.0850774
0.0864942
0.0856184
0.0867509
0.0859479
0.0853305
0.085553
0.0866498
0.0858635
0.0857386
0.0858217
0.0864745
0.0865239
0.0865186
0.0867377
0.0862413
0.0857462
0.0861365
0.086005
0.0858759
0.0866807
0.0849075
0.0860097
0.0857853
0.0858667
0.0860768
0.0864316
0.0849579
0.0858842
0.0855933
0.0850605
0.0858752
0.0859831
0.0849845
0.0851682
0.0863596
0.0866278
0.085876
0.0848996
0.0859673
0.0856717
0.0860622
0.0864859
0.0857179
0.0858154
0.0849095
0.08494
0.0857353
0.0858568
0.0853128
0.0863969
0.0866301
0.0855919
0.0853043
0.085935
0.0853385
0.0853943
0.0857685
0.0854687
0.0856919
0.0861984
0.0854647
0.0855504
0.0861518
0.0862438
0.0854442
0.0857664
0.0855324
0.0852958
0.0855161
0.0857213
0.0854858
0.0862309
0.0857602
0.0862119
0.0855249
0.0857992
0.0855876
0.0861034
0.0858755
0.0861666
0.0856244
0.0862243
0.0860513
0.0854497
0.0859026
0.0860968
0.0860659
0.0861288
0.0860186
0.0855556
0.086077
0.0859143
0.0858515
0.0857539
0.0863118
0.0859433
0.0863883
0.0860086
0.0856824
0.0861021
0.0863195
0.0860146
0.085941
0.0859179
0.085976
0.0855282
0.0857493
0.0857019
0.0863722
0.0866106
0.0857308
0.0857504
0.0862329
0.0853718
0.0858325
0.086478
0.0856175
0.0860603
0.0859191
0.0861388
0.0860114
0.0861729
0.086066
0.0855684
0.0858604
0.0854134
0.0854177
0.0864916
0.0857453
0.085821
0.0855158
0.0864069
0.0864894
0.0864737
0.086144
0.0862771
0.0862456
0.0859449
0.0859674
0.0861778
0.0862416
0.0861784
0.0860046
0.0859878
0.0860803
0.0859742
0.0863674
0.0862141
0.0862084
0.0859468
0.0857652
0.0860116
0.0864924
0.0853727
0.0857796
0.0855436
0.0858567
0.0865072
0.0863541
0.0861224
0.0865635
0.0863974
0.0867676
0.0864942
0.0863689
0.0865881
0.0864065
0.0861035
0.0857482
0.0865224
0.0857247
0.0859834
0.0860309
0.0857046
0.086047
0.0864935
0.0861718
0.0860618
0.0864195
0.0861769
0.086423
0.0858819
0.0863962
0.0854758
0.0864231
0.0859301
0.086175
0.0854395
0.0863473
0.08608
0.0862325
0.0855779
0.0861583
0.0858857
0.0862626
0.0865016
0.086549
0.0865092
0.0863778
0.0867401
0.0865569
0.0861686
0.0858932
0.0866144
0.0865677
0.0867302
0.0863473
0.0863601
0.0863117
0.0861082
0.0858669
0.0858381
0.0863738
0.0866993
0.0866144
0.086186
0.0862001
0.0862941
0.0866601
0.0863689
0.0855067
0.0865041
0.0862798
0.08624
0.0863695
0.086214
0.0860951
0.086193
0.0863465
0.0862156
0.0860411
0.0860277
0.0860257
0.0859479
0.0858255
0.0859193
0.085903
0.0860996
0.085942
0.0860203
0.0855725
0.0857351
0.085769
0.0859522
0.085988
0.085966
0.0859526
0.0858185
0.0857878
0.0858211
0.0858561
0.0859372
0.0859638
0.0859852
0.0858628
0.0859575
0.086039
0.0859873
0.0860078
0.086031
0.0858453
0.0858694
0.0858694
0.0859726
0.0858577
0.0858712
0.085962
0.086028
0.0860279
0.086101
0.0859147
0.0860425
0.0858881
0.0859726
0.0862054
0.0861144
0.0861746
0.0861678
0.086236
0.0863555
0.0860098
0.0860985
0.0859183
0.0859483
0.0859392
0.0860333
0.0859353
0.0859925
0.0860689
0.0862254
0.0862561
0.0862733
0.0864171
0.0863841
0.0864938
0.0863115
0.0862193
0.0862192
0.0862863
0.0863499
0.0863806
0.0866472
0.0865461
0.0868286
0.0865575
0.0870027
0.086947
0.086947
0.0868843
0.0869437
0.086825
0.086754
0.0868419
0.0867247
0.0869705
0.0871407
0.086554
0.0866878
0.0864986
0.0864674
0.0863983
0.0863887
0.0863311
0.0864224
0.0861138
0.0859465
0.0859369
0.086131
0.0860909
0.0860431
0.0860707
0.0861397
0.0861396
0.0861767
0.0859826
0.0858995
0.0859449
0.0859094
0.0859972
0.0860252
0.0861305
0.0861409
0.0859027
0.0859042
0.0859033
0.0860188
0.0858833
0.0859606
0.0858756
0.0860126
0.086356
0.0867435
0.086397
0.0863798
0.0862894
0.0864645
0.0863125
0.0862295
0.0862971
0.0864283
0.0861404
0.0860475
0.0860519
0.0860228
0.0862304
0.0860694
0.0862533
0.0860788
0.0859645
0.0859784
0.0860317
0.0861313
0.0861312
0.0861931
0.0860464
0.0859868
0.085841
0.085854
0.0859963
0.0861044
0.0861719
0.0861038
0.0859748
0.086047
0.0860657
0.0860996
0.0862946
0.0861918
0.0862767
0.0861642
0.0864622
0.0863572
0.0863645
0.0861514
0.0863802
0.086287
0.0863851
0.0861952
0.0863565
0.0861175
0.0862348
0.0864138
0.0863999
0.0861519
0.0860105
0.0861109
0.0864121
0.0863477
0.0860594
0.0859135
0.0857482
0.0857566
0.0859009
0.0860123
0.0860718
0.0861703
0.086239
0.0861831
0.086331
0.086331
0.0863603
0.0863604
0.0863466
0.0861646
0.0861721
0.0861936
0.0863892
0.0863892
0.0865855
0.0865855
0.0870371
0.087037
0.087381
0.08754
0.086792
0.0865997
0.0866969
0.0866963
0.0863559
0.0867371
0.0864034
0.0865043
0.0872444
0.0872443
0.086522
0.0866695
0.0865368
0.0861784
0.0860534
0.0863876
0.086287
0.0863778
0.0860476
0.0858717
0.0859077
0.0860439
0.0860442
0.0862925
0.0859547
0.0860067
0.0860918
0.0861486
0.086028
0.0860821
0.0859771
0.0858925
0.0858344
0.0858452
0.0858451
0.0858193
0.0857434
0.0858713
0.0858672
0.0859194
0.0858271
0.0856658
0.0857686
0.0859535
0.0864525
0.0865992
0.0863756
0.0863807
0.0862132
0.0863381
0.0863446
0.0862958
0.0864506
0.0862425
0.086068
0.0861409
0.0860682
0.0860709
0.0860724
0.0860591
0.0860739
0.0860281
0.0861649
0.0861291
0.0861798
0.0862055
0.0862193
0.0861595
0.086114
0.0859695
0.0858993
0.0860259
0.0860004
0.085991
0.0861146
0.086174
0.0859667
0.086058
0.0860727
0.0860727
0.0861063
0.0860364
0.0859458
0.0860901
0.0861951
0.0862315
0.0860357
0.0861433
0.0861577
0.0863309
0.0861336
0.0861887
0.0860658
0.0860219
0.0862623
0.0862623
0.0861616
0.0861615
0.0859492
0.0859482
0.0861201
0.0859487
0.0859807
0.0857543
0.0856354
0.0857627
0.0858883
0.0859281
0.0859392
0.0862418
0.0861372
0.0863631
0.0862502
0.0862714
0.0863062
0.0863062
0.0861876
0.0861133
0.0861764
0.0861257
0.0860662
0.0861861
0.0861524
0.0860929
0.0864793
0.0862233
0.0871517
0.0871373
0.0861449
0.0859431
0.0863107
0.086048
0.0861597
0.0861497
0.0859714
0.0863616
0.0868076
0.0865523
0.086509
0.086607
0.0861133
0.08611
0.0862041
0.0860809
0.0860089
0.0860759
0.086076
0.0860962
0.0859807
0.086137
0.0864077
0.0861883
0.0861884
0.0861589
0.0861273
0.086084
0.0860841
0.0861315
0.0859822
0.086002
0.0857842
0.0856888
0.0856889
0.0855743
0.0857056
0.0857347
0.0859886
0.0858976
0.0858976
0.085862
0.0859813
0.0860474
0.0865104
0.0862487
0.0863108
0.0860048
0.0861241
0.0862856
0.0862897
0.0862261
0.0863246
0.0862458
0.0861191
0.0861691
0.0859759
0.0860565
0.0860502
0.0861927
0.0860354
0.0861239
0.0858957
0.0860097
0.0860103
0.0860335
0.0860335
0.0860337
0.0860226
0.0858555
0.0858273
0.085877
0.085948
0.0859775
0.0862164
0.0859188
0.0857027
0.0858023
0.0859539
0.0859537
0.0859057
0.0858791
0.0856029
0.0856503
0.0858946
0.0858339
0.0857088
0.0856982
0.0859661
0.0858865
0.0857836
0.0858547
0.0857478
0.0858332
0.0860361
0.0859917
0.0858054
0.0858531
0.0860038
0.0860159
0.0858483
0.085905
0.0858753
0.0857696
0.0855385
0.085716
0.0858233
0.0860131
0.0860351
0.0859145
0.0860876
0.0862342
0.0861151
0.0861775
0.0860753
0.0861549
0.0858814
0.0858812
0.0861216
0.0860666
0.0860279
0.0858104
0.0858819
0.0860513
0.0859874
0.0860471
0.0863869
0.0860397
0.0858552
0.085855
0.0858509
0.085946
0.0862143
0.0862142
0.0861602
0.0864936
0.0863243
0.0863499
0.0866397
0.0863199
0.0857684
0.085899
0.0860221
0.0860222
0.0859012
0.0860932
0.0861049
0.0860028
0.0859707
0.0860093
0.0860093
0.0860746
0.0861308
0.0862211
0.0861051
0.0860466
0.0860839
0.0860382
0.0860191
0.0860207
0.085853
0.0858109
0.0857449
0.0856115
0.0855939
0.0857897
0.0857389
0.0858577
0.0859742
0.0859742
0.0857056
0.0859437
0.0860287
0.0860545
0.0861269
0.0860588
0.0861043
0.0862553
0.0862413
0.0863614
0.0863793
0.0863774
0.0862872
0.0862187
0.0863963
0.0863879
0.0865671
0.0863185
0.0864801
0.0862656
0.0861498
0.0860831
0.0860585
0.0860062
0.0860032
0.0860419
0.0860419
0.0861129
0.0857762
0.0858816
0.0859063
0.085955
0.0860322
0.0857216
0.0855611
0.085854
0.0859224
0.0857685
0.0856744
0.0856429
0.0855137
0.0855963
0.0855964
0.0857182
0.0855551
0.0856644
0.08589
0.085891
0.0856364
0.0856671
0.0857693
0.0857788
0.0858445
0.0858688
0.0859402
0.0857432
0.0859107
0.0856972
0.0857054
0.0859069
0.0857978
0.0858218
0.0857121
0.0858233
0.0859868
0.0858948
0.0859559
0.0859994
0.086176
0.0859969
0.086052
0.0859032
0.0860409
0.0858463
0.0855654
0.0857505
0.0857505
0.0859137
0.0858343
0.0860043
0.085985
0.0860052
0.0860398
0.0861261
0.0861241
0.0859423
0.0859528
0.0860722
0.0860068
0.0860623
0.0861556
0.0861747
0.0862552
0.0861716
0.0861696
0.086194
0.0863215
0.086136
0.0856983
0.0856425
0.085771
0.0860267
0.0858908
0.0858789
0.0857048
0.0857783
0.0860161
0.086041
0.0860409
0.0859765
0.0861046
0.0861365
0.0861365
0.0860631
0.0859798
0.0860355
0.0861207
0.0859909
0.0859589
0.0858742
0.0858742
0.0856644
0.0857132
0.0857514
0.0857514
0.0858825
0.0860586
0.0858871
0.0858295
0.0860064
0.085992
0.0861588
0.0861695
0.0862566
0.0862107
0.0863322
0.0863569
0.0864105
0.0865293
0.0865293
0.0863457
0.0865538
0.0863395
0.0861815
0.0861795
0.0861927
0.0862149
0.0862748
0.0862417
0.0861646
0.0861025
0.0860208
0.0859799
0.0859864
0.0860359
0.0860781
0.0858794
0.0859655
0.085869
0.0859203
0.0859202
0.0859337
0.085691
0.0859137
0.0859797
0.0859323
0.0856198
0.0856423
0.085881
0.0857956
0.0861164
0.0859127
0.0863838
0.0864533
0.0859962
0.0859052
0.0858715
0.0859686
0.0859535
0.0859448
0.0860354
0.0860183
0.0862979
0.0862372
0.0860863
0.0860809
0.0857393
0.0859101
0.0859099
0.0858404
0.0857573
0.0859107
0.0858401
0.0859404
0.0860238
0.0861473
0.0860755
0.0860753
0.086003
0.0860595
0.0860141
0.0858459
0.086054
0.086022
0.0860694
0.0860597
0.0860597
0.0860132
0.0859929
0.0860161
0.0860043
0.0860917
0.0860518
0.0860308
0.0859688
0.0858518
0.0858517
0.0860416
0.0860417
0.086128
0.0861149
0.0864183
0.0862733
0.0863244
0.0863244
0.0862839
0.0860168
0.0861384
0.0862264
0.086108
0.0862787
0.0861139
0.0861139
0.0859673
0.0861897
0.0862216
0.0861674
0.0861285
0.0860953
0.0861283
0.0862219
0.0861951
0.0860733
0.0860012
0.0860354
0.0859937
0.0859749
0.0859696
0.0859696
0.085897
0.0858271
0.0858285
0.0859889
0.0860582
0.08602
0.0858326
0.0859336
0.0861957
0.0863721
0.086284
0.0862903
0.0862429
0.086432
0.0864299
0.0863246
0.0863875
0.0865603
0.0864919
0.0864432
0.0863208
0.0862079
0.0863069
0.0861761
0.0862191
0.0862983
0.0860878
0.0860684
0.0860776
0.0860234
0.0860948
0.0860425
0.0859667
0.086047
0.0859829
0.0861521
0.0860775
0.0860775
0.0860024
0.0860263
0.0860217
0.0859457
0.0859944
0.0859517
0.0859158
0.0856971
0.0855641
0.085564
0.0857462
0.0857463
0.0860382
0.0864954
0.0863409
0.0857877
0.0857694
0.0858284
0.0857289
0.0857649
0.0857429
0.0856876
0.0859643
0.0859644
0.0860693
0.0863191
0.0863411
0.0855486
0.0857452
0.0857372
0.0856916
0.0857907
0.0857906
0.0857525
0.0857454
0.085869
0.0859601
0.0860486
0.0860487
0.0860396
0.0860836
0.0859628
0.0858715
0.0859445
0.0860298
0.0860778
0.0860891
0.086089
0.0860407
0.0860095
0.0860848
0.0860362
0.0860891
0.0859794
0.0860404
0.085985
0.0860178
0.0858593
0.0860471
0.08607
0.0861567
0.0862763
0.0862764
0.0861252
0.0864033
0.0861938
0.086158
0.0861956
0.0859331
0.085884
0.0860966
0.086305
0.0862688
0.0861497
0.0860936
0.0860952
0.0861549
0.0861144
0.0860788
0.0860311
0.0860168
0.086116
0.0861529
0.0860541
0.0861922
0.0859918
0.0859418
0.0858349
0.0858166
0.0858166
0.0857944
0.0856597
0.0856717
0.0857096
0.0857986
0.0857987
0.0857189
0.0858587
0.085869
0.0867176
0.086495
0.0863347
0.0863081
0.0864134
0.0864342
0.0864271
0.0864482
0.0863954
0.0863132
0.086642
0.0863843
0.086402
0.0866757
0.0866324
0.0869659
0.0862722
0.086311
0.0861987
0.0862029
0.086125
0.0861658
0.0861556
0.0860309
0.0858562
0.0859263
0.0860646
0.0861092
0.0861093
0.0859893
0.0859892
0.0859353
0.0859457
0.085868
0.0859391
0.0858874
0.0859406
0.0858785
0.0860601
0.08614
0.0862399
0.0864052
0.0865173
0.0862966
0.0860574
0.0860367
0.0861351
0.0859957
0.0861374
0.0859865
0.086117
0.0862568
0.0860685
0.0860409
0.0860409
0.0859962
0.0857682
0.0858373
0.0857364
0.0857299
0.0857676
0.0857013
0.085558
0.0856709
0.0858519
0.0856277
0.0857422
0.0857312
0.0858283
0.0858167
0.0858222
0.0858115
0.0858114
0.0860736
0.0862596
0.0862691
0.0863609
0.0863606
0.0863608
0.0863315
0.0863314
0.0861778
0.0862152
0.0862547
0.0862547
0.0861346
0.0862078
0.0862113
0.0862929
0.0861483
0.0862816
0.0862816
0.0862903
0.0861931
0.0860601
0.0860713
0.0860176
0.0861191
0.0860389
0.0862481
0.0861437
0.086271
0.0860722
0.0861114
0.0861245
0.0861618
0.0861406
0.0862512
0.0861517
0.0861169
0.0861946
0.0861886
0.0864192
0.086209
0.086209
0.0860341
0.085955
0.0858391
0.0858391
0.0857851
0.0857609
0.0857953
0.0857953
0.0858453
0.0858557
0.085825
0.0858943
0.0860033
0.0863143
0.0862315
0.0862856
0.0863433
0.0862612
0.0864241
0.0861382
0.0861599
0.0863744
0.0862954
0.086461
0.0863542
0.0862866
0.0865561
0.0866361
0.0868305
0.0867577
0.0863131
0.0865045
0.0862336
0.0860213
0.0860117
0.0861968
0.0860079
0.0860546
0.0858798
0.0860772
0.0860035
0.0861036
0.0864717
0.0864602
0.0864882
0.0864099
0.0864829
0.0864949
0.0863007
0.0864477
0.0862696
0.0864282
0.0862538
0.0863836
0.0863064
0.0865777
0.0863331
0.0860887
0.0860224
0.0861559
0.0859297
0.0859274
0.0859633
0.0860126
0.0861478
0.0861478
0.0859499
0.0858649
0.085865
0.0857554
0.0857554
0.0857819
0.085765
0.0859256
0.0858637
0.0858001
0.0857515
0.0858181
0.0858452
0.0857963
0.0857964
0.0858117
0.0859451
0.0859651
0.0860832
0.0859955
0.08625
0.0863189
0.0863523
0.086535
0.0865014
0.0866519
0.0864401
0.086447
0.0863779
0.086223
0.0862794
0.0862516
0.0862516
0.0861431
0.0859942
0.0860862
0.0860919
0.0861072
0.0861884
0.0861884
0.0861113
0.0861972
0.0859473
0.0860199
0.0860819
0.086111
0.0861565
0.0862437
0.0861195
0.0862658
0.086042
0.0862097
0.0862072
0.0862812
0.0862947
0.0863485
0.086283
0.0863899
0.086198
0.0862447
0.0862613
0.0862986
0.0862571
0.0861943
0.0861164
0.0860011
0.086001
0.08596
0.0859499
0.0859356
0.0859899
0.0860258
0.0861107
0.0860535
0.0862281
0.0861652
0.0859447
0.0862227
0.0861017
0.0861838
0.0860554
0.0861987
0.0859948
0.0859989
0.0860834
0.086066
0.0861888
0.0861707
0.0863141
0.0863141
0.0868441
0.0868441
0.0866763
0.0860353
0.0863456
0.0864831
0.0862403
0.0862403
0.0862941
0.0862942
0.0866198
0.0866196
0.0870237
0.087041
0.0860641
0.0866141
0.0865384
0.086472
0.0862551
0.0862775
0.086324
0.0863052
0.086433
0.0862012
0.0861577
0.0862712
0.0861345
0.0862401
0.0861198
0.0862848
0.0860253
0.085964
0.0861132
0.0860022
0.0857345
0.0859343
0.0860211
0.0860202
0.0859847
0.0860758
0.0859175
0.0859048
0.0858905
0.0858583
0.0859823
0.0859036
0.0861853
0.0861043
0.0861042
0.0861396
0.0858576
0.0860174
0.0861389
0.0861305
0.0859392
0.0859385
0.0858671
0.085901
0.0859049
0.0858927
0.0860679
0.0860679
0.0862942
0.086047
0.0862727
0.0864404
0.0863898
0.0863898
0.0862263
0.0860684
0.0860159
0.0860762
0.0860762
0.086072
0.0859702
0.0860596
0.0861769
0.0860184
0.086055
0.0859084
0.0860473
0.0857289
0.0856957
0.085757
0.0859471
0.0856873
0.0858143
0.0858392
0.0859266
0.0859083
0.0858692
0.0859408
0.0860167
0.0862641
0.0862328
0.0862104
0.0862305
0.0863801
0.0862473
0.0864432
0.0863371
0.0864623
0.0863632
0.0862986
0.0862337
0.0860793
0.0860665
0.0860354
0.0860355
0.0860268
0.085943
0.0859948
0.0860627
0.0859656
0.0860138
0.0862122
0.0864132
0.0863941
0.0864342
0.0863323
0.0863323
0.086232
0.086168
0.0860767
0.0860768
0.0860486
0.0860417
0.086086
0.0862267
0.0861618
0.0868954
0.0868954
0.086086
0.0859836
0.0862665
0.0859351
0.0860236
0.0862347
0.0860074
0.0860385
0.0862831
0.0859522
0.0870006
0.0870006
0.0862012
0.0864059
0.0863606
0.0861269
0.0860387
0.0860823
0.0860459
0.0859794
0.0859628
0.0858895
0.0861316
0.0857075
0.0858676
0.0857615
0.0860314
0.0862603
0.0859747
0.0860285
0.0860647
0.0859868
0.0859372
0.0861646
0.0861548
0.0860614
0.0861743
0.0861664
0.0861663
0.0861622
0.0860097
0.0860176
0.0860176
0.0859639
0.086117
0.0864637
0.0864021
0.0861274
0.0861273
0.0861141
0.0861981
0.086105
0.0860486
0.0858695
0.0858456
0.0858584
0.0859614
0.0860144
0.0862314
0.0862758
0.086215
0.0862349
0.0864585
0.0866482
0.0861427
0.0862446
0.0861292
0.08611
0.0859519
0.0860725
0.0861154
0.0860679
0.0861526
0.086223
0.0862231
0.0861582
0.0859632
0.0859069
0.085817
0.0858685
0.0855624
0.0856794
0.0856794
0.0859161
0.0857331
0.0857309
0.0857098
0.0857098
0.0857427
0.0857626
0.0859486
0.0860782
0.085893
0.0860314
0.0863229
0.0861193
0.0861682
0.0861682
0.0863628
0.0862068
0.0860438
0.0861094
0.0861094
0.0860412
0.0859535
0.0859139
0.0859138
0.0859769
0.0858676
0.0859418
0.0860337
0.0858822
0.0859352
0.0859185
0.0862753
0.0863539
0.0863973
0.0863307
0.0863078
0.0862701
0.0862395
0.0863329
0.0861846
0.0862754
0.0862839
0.0864251
0.0863431
0.0861652
0.0865193
0.0860682
0.0859643
0.0860077
0.0859214
0.0858792
0.0861098
0.086217
0.0862432
0.0864304
0.0862026
0.0862472
0.086544
0.0861191
0.0861137
0.0861207
0.0862264
0.0860074
0.0860084
0.0858645
0.0860131
0.0859209
0.0858505
0.0858043
0.0859432
0.0859568
0.0859782
0.0860288
0.0862549
0.0862549
0.0861235
0.0861186
0.0861626
0.0859451
0.0858339
0.0859098
0.0859777
0.0860868
0.0862463
0.0863093
0.0863026
0.0860979
0.0861974
0.0860695
0.0860747
0.0860338
0.0864421
0.0861914
0.0859677
0.0862364
0.086352
0.0863777
0.0862242
0.0861068
0.0861489
0.0859849
0.0858615
0.0859501
0.0859061
0.0859391
0.0860777
0.0861611
0.0862621
0.0864281
0.0866844
0.0864984
0.085959
0.0861817
0.0860697
0.0859729
0.0860214
0.0861147
0.0861226
0.0862343
0.0863193
0.0863734
0.086345
0.0862949
0.0862002
0.0860448
0.0860448
0.0860453
0.0858883
0.0858664
0.0858664
0.0859177
0.0858146
0.0859565
0.085763
0.0857986
0.0856877
0.0859018
0.0861683
0.086049
0.0859587
0.0861889
0.0861494
0.0860415
0.0861402
0.0864018
0.0863843
0.0862688
0.0859946
0.0860861
0.0860183
0.085994
0.085994
0.0859143
0.085997
0.0859955
0.0861331
0.0860818
0.0862529
0.0862529
0.0860585
0.0862861
0.0861057
0.0861455
0.0861682
0.0861565
0.0861444
0.0861814
0.0860637
0.0861083
0.0862705
0.0861613
0.0861176
0.0862187
0.0860815
0.086143
0.0859954
0.0858736
0.0859493
0.0857701
0.0856711
0.08578
0.0860517
0.0858699
0.0860315
0.086113
0.0861582
0.0860818
0.0860143
0.0858291
0.0859388
0.0860868
0.0860093
0.0860706
0.0859759
0.0860642
0.0861498
0.0860455
0.0857486
0.085991
0.0860915
0.0859799
0.0860221
0.0862846
0.0862177
0.0863451
0.086145
0.086145
0.0860304
0.0859854
0.08587
0.0861094
0.086009
0.0860109
0.0860935
0.086055
0.0860247
0.085993
0.0861559
0.0861875
0.0862858
0.0863582
0.0861128
0.0858301
0.0859306
0.0858414
0.086031
0.0860389
0.085958
0.0859777
0.0860449
0.0859878
0.0858887
0.0857775
0.0857259
0.0858849
0.0860805
0.0859912
0.0861064
0.0860076
0.0861755
0.0860831
0.0860265
0.0857851
0.0858211
0.0859234
0.0859666
0.0860437
0.086104
0.0861013
0.0861492
0.086407
0.0864188
0.0863985
0.0863442
0.0862172
0.0862102
0.0862196
0.0862196
0.0860899
0.0862508
0.0861502
0.0864332
0.0862366
0.0863096
0.0861727
0.0862565
0.0862605
0.0861558
0.0861261
0.086146
0.0861873
0.0861247
0.0861836
0.0861766
0.0860349
0.0860886
0.086061
0.0859889
0.086013
0.086013
0.085939
0.0859638
0.0859209
0.0859623
0.0859986
0.085915
0.0861109
0.0863758
0.0861346
0.0860054
0.0860931
0.0858729
0.0859989
0.0860051
0.0860799
0.086262
0.0860797
0.0858541
0.0860726
0.0860726
0.0861834
0.0861288
0.0860077
0.0859293
0.0859804
0.0859804
0.0858343
0.0858307
0.0857923
0.0856054
0.0857824
0.0858692
0.0859128
0.0859964
0.0861068
0.0861057
0.0860095
0.0859928
0.0859068
0.0859784
0.0857723
0.0859053
0.0859602
0.0860752
0.0860264
0.0861219
0.0859256
0.0856985
0.0856197
0.0858887
0.0857145
0.0859267
0.0857501
0.0859557
0.0858257
0.085847
0.0856824
0.0859647
0.0857559
0.085563
0.0857956
0.0857552
0.0859254
0.0859425
0.0859813
0.0859389
0.0859033
0.0859032
0.0860245
0.0864109
0.0862943
0.085816
0.085722
0.0857334
0.0861439
0.0861199
0.0861556
0.086017
0.0862505
0.0860622
0.0861065
0.0858926
0.0859165
0.0860836
0.0863271
0.0863483
0.086242
0.0861729
0.0861415
0.0860838
0.0860534
0.0859968
0.0860222
0.085985
0.0860837
0.0861939
0.0862751
0.0863351
0.0863371
0.0863613
0.0865717
0.0864938
0.0865666
0.0865287
0.0863408
0.0863874
0.0862837
0.0863718
0.0861812
0.0861566
0.0861273
0.0861499
0.0863453
0.0861571
0.0860879
0.086126
0.0859947
0.0859212
0.0859734
0.0860266
0.0861261
0.0861218
0.0861026
0.0860642
0.0860636
0.0861912
0.0860582
0.0858695
0.0861292
0.0860055
0.0859767
0.086083
0.0861081
0.0860613
0.0860613
0.0859771
0.0862645
0.086066
0.0859486
0.0859825
0.0858172
0.0862606
0.0862917
0.0862682
0.0862436
0.0862437
0.0862809
0.0859879
0.0861272
0.0861272
0.0861422
0.0861396
0.0860404
0.0860108
0.0860309
0.086031
0.0859586
0.0858231
0.0857853
0.0856657
0.0857437
0.085749
0.0858523
0.085967
0.0859651
0.0858951
0.0858561
0.0858624
0.0859153
0.0859316
0.0858889
0.0857193
0.0860485
0.0860541
0.0860556
0.085924
0.0858408
0.0856917
0.0857828
0.0857827
0.085734
0.0858091
0.0857141
0.0856319
0.085741
0.0855594
0.0856568
0.0856567
0.0857304
0.0856251
0.0856465
0.0856791
0.0858263
0.0859371
0.0859841
0.0859503
0.0860061
0.0858964
0.0860492
0.0860727
0.0861412
0.0861171
0.0861019
0.086426
0.0864998
0.0862413
0.086106
0.0861202
0.0861552
0.0860856
0.0860799
0.0859076
0.0859112
0.0860371
0.0861895
0.0861205
0.0861483
0.086073
0.0860789
0.0861119
0.0858958
0.0857968
0.085845
0.0859662
0.0859867
0.0860188
0.08601
0.0861398
0.086259
0.0863732
0.0863169
0.0862908
0.0862051
0.0861122
0.0862904
0.0861357
0.0861292
0.0860883
0.086037
0.0860043
0.0860617
0.086291
0.0861274
0.0861564
0.0863934
0.0862284
0.0862028
0.0860246
0.0860952
0.0860313
0.0860789
0.0862077
0.0861608
0.086223
0.086172
0.0860455
0.0860186
0.085935
0.085921
0.0859272
0.0859188
0.0860153
0.0859703
0.0859733
0.0859689
0.0860415
0.0859448
0.085892
0.0857677
0.0857677
0.0858264
0.0861973
0.0862341
0.0861398
0.0862278
0.0862277
0.086243
0.0861648
0.0862631
0.0861783
0.086243
0.0862431
0.0863721
0.0860811
0.0860782
0.0860782
0.0860146
0.0859352
0.0858742
0.0858742
0.0858449
0.0858644
0.0859082
0.0860894
0.0860684
0.0860684
0.0859999
0.0860469
0.0860537
0.0861338
0.0859296
0.0860038
0.0863583
0.0862304
0.0861554
0.086059
0.0859154
0.0858485
0.0860236
0.0859546
0.0859749
0.0859583
0.0860103
0.0858775
0.0858999
0.0859187
0.0858697
0.0859205
0.0857578
0.0860029
0.0858687
0.0858687
0.085975
0.0859271
0.085837
0.0858591
0.0859412
0.0858489
0.0859288
0.0859288
0.0858708
0.0857407
0.0858524
0.0864133
0.0864134
0.0859826
0.0857067
0.0859137
0.0857007
0.0858955
0.0857768
0.0855358
0.0856102
0.0857912
0.0857715
0.0857944
0.0857115
0.0856844
0.0858848
0.0859838
0.0859026
0.0856719
0.0858345
0.0859432
0.0859037
0.0860209
0.0859259
0.0860157
0.0860862
0.0862526
0.086196
0.0860891
0.0860434
0.0860859
0.0859425
0.0859774
0.0859594
0.0859772
0.0860148
0.0860774
0.0863329
0.0862085
0.086126
0.0862133
0.086133
0.0860752
0.0860139
0.0860497
0.0859483
0.0858981
0.0860168
0.0860169
0.0861402
0.0862581
0.0860213
0.0859235
0.0858909
0.085891
0.0859617
0.0859957
0.0859416
0.085954
0.0859691
0.0859563
0.0860503
0.0861274
0.0861588
0.0860909
0.0860528
0.0860063
0.0860173
0.0862696
0.0862202
0.0862422
0.0864188
0.0864452
0.0864162
0.0867506
0.0866036
0.0867226
0.0866466
0.0868029
0.0864628
0.0864594
0.0863649
0.0863648
0.0862041
0.0861111
0.0860638
0.0860031
0.0859562
0.0859563
0.0859268
0.0860476
0.0860822
0.0860046
0.0860723
0.0859372
0.0860589
0.086112
0.0861499
0.0862681
0.0864191
0.0859759
0.0859867
0.0859501
0.0858219
0.0858271
0.0860086
0.085943
0.0859402
0.0860384
0.0860077
0.0857869
0.0861037
0.0860235
0.086207
0.0859791
0.0858229
0.0858351
0.086139
0.0860601
0.0861182
0.0859999
0.0858476
0.0859663
0.0859109
0.0860351
0.0860157
0.0860158
0.0858824
0.0858825
0.0858799
0.0860238
0.0860344
0.0857211
0.085792
0.0858123
0.0857251
0.0857251
0.0857767
0.0856227
0.0857059
0.0857955
0.0858559
0.0858273
0.0858823
0.0858447
0.0860047
0.0860047
0.0860976
0.0858794
0.0857812
0.0857488
0.0859002
0.0859512
0.0859511
0.0859875
0.0860048
0.0860922
0.0861328
0.0859198
0.0859883
0.085844
0.0859812
0.0859368
0.0858387
0.0859984
0.0861238
0.0860262
0.0858456
0.0859268
0.0859408
0.0861306
0.0860235
0.0859306
0.0859053
0.0859099
0.0860875
0.0860162
0.0861107
0.086243
0.0862275
0.0862274
0.0861292
0.0861422
0.0861748
0.08613
0.0862956
0.0861334
0.0860152
0.0860555
0.0861666
0.0861432
0.0862459
0.0863838
0.0864365
0.0863243
0.0861247
0.086128
0.0861279
0.0862467
0.0862327
0.0863707
0.0866461
0.0864138
0.0866715
0.086673
0.0868365
0.0865821
0.086683
0.0866302
0.0866935
0.0867175
0.0867733
0.086564
0.0864655
0.0863335
0.0861973
0.086122
0.0861936
0.0860517
0.0859903
0.0859903
0.0859764
0.0860486
0.0859772
0.0859771
0.0859845
0.0859845
0.0859526
0.0863845
0.0863845
0.0858261
0.0857938
0.0857307
0.0857147
0.0856298
0.0855993
0.0857131
0.085686
0.085869
0.0857142
0.0857763
0.0856677
0.0859657
0.0860313
0.0857914
0.0858519
0.0860606
0.0858997
0.0860544
0.0862498
0.0860163
0.0861513
0.0859954
0.086217
0.0861709
0.0861209
0.0862056
0.0861202
0.0861202
0.0860189
0.0860467
0.0859538
0.0861033
0.0860836
0.0860605
0.0859481
0.0859127
0.0858985
0.0860063
0.0860267
0.0862024
0.0861992
0.0864367
0.0863347
0.0863803
0.0862882
0.0862737
0.0861063
0.0861063
0.0860102
0.0859849
0.0860932
0.0861339
0.0861836
0.0860461
0.0862346
0.0860983
0.0860369
0.0860369
0.0860267
0.0861609
0.0861272
0.0861303
0.0861551
0.0862336
0.0861255
0.0861351
0.0861459
0.0860676
0.0860366
0.0860195
0.0859893
0.0859396
0.0859462
0.0860624
0.0860618
0.0861049
0.0861608
0.0860723
0.086085
0.0861196
0.0863023
0.0860678
0.0859752
0.0859647
0.08586
0.0858045
0.0858346
0.0859982
0.0859383
0.0858672
0.0861664
0.0863747
0.0861369
0.0858686
0.0860998
0.0861089
0.0861089
0.086348
0.0863914
0.0863235
0.0862981
0.0864613
0.0865837
0.086567
0.0865938
0.0864055
0.0865654
0.086526
0.0863348
0.0864374
0.086339
0.0864341
0.0862065
0.0860917
0.086066
0.0861293
0.0860183
0.0858882
0.0859043
0.0859908
0.0861165
0.0861211
0.0862096
0.0862172
0.0864175
0.0861322
0.0862927
0.0862364
0.0860959
0.0859562
0.0858227
0.0857669
0.0856879
0.0856469
0.0856609
0.0856367
0.0856164
0.0856139
0.0856733
0.0855784
0.0856974
0.0859868
0.08581
0.085716
0.0857446
0.0858462
0.085883
0.0860232
0.0858748
0.0860488
0.0860492
0.0861106
0.0860606
0.0860252
0.0861759
0.086172
0.0861516
0.086081
0.0860141
0.085957
0.0859496
0.08592
0.0859639
0.0858935
0.0859527
0.0858459
0.0856861
0.0857818
0.0859675
0.0859509
0.0860824
0.086217
0.0860877
0.0861021
0.0863377
0.0863852
0.0862355
0.0865327
0.0864226
0.0867017
0.0868477
0.086385
0.0862862
0.0864136
0.0864338
0.0862547
0.086385
0.086266
0.0861054
0.0862185
0.0862844
0.0864114
0.0861949
0.0860804
0.0862418
0.0862442
0.0862616
0.0861049
0.0859765
0.0859497
0.085872
0.0858187
0.0858001