/*--------------------------------*- C++ -*----------------------------------*\
| =========                 |                                                 |
| \\      /  F ield         | OpenFOAM: The Open Source CFD Toolbox           |
|  \\    /   O peration     | Version:  2206                                  |
|   \\  /    A nd           | Website:  www.openfoam.com                      |
|    \\/     M anipulation  |                                                 |
\*---------------------------------------------------------------------------*/
FoamFile
{
    version     2.0;
    format      ascii;
    arch        "LSB;label=32;scalar=64";
    class       volScalarField;
    location    "0.9";
    object      k;
}
// * * * * * * * * * * * * * * * * * * * * * * * * * * * * * * * * * * * * * //

dimensions      [0 2 -2 0 0 0 0];

internalField   nonuniform List<scalar> 
185303
(
6.82576e-09
6.98774e-09
7.01104e-09
6.87368e-09
6.79665e-09
7.02957e-09
7.02192e-09
6.85472e-09
6.859e-09
6.82819e-09
6.85175e-09
6.81701e-09
6.87037e-09
6.99583e-09
7.02001e-09
7.0023e-09
6.80381e-09
7.15423e-09
6.97549e-09
7.10006e-09
6.86775e-09
7.12593e-09
6.89575e-09
6.85756e-09
6.84748e-09
6.73815e-09
6.91961e-09
7.10684e-09
7.03769e-09
7.11908e-09
6.82285e-09
6.90412e-09
6.98269e-09
6.86878e-09
6.90022e-09
7.05136e-09
6.94683e-09
7.09635e-09
6.86797e-09
7.06668e-09
7.11633e-09
6.82834e-09
6.89246e-09
7.11636e-09
6.8105e-09
7.06689e-09
7.04065e-09
6.8302e-09
6.94937e-09
6.7382e-09
6.93593e-09
6.73194e-09
6.88463e-09
6.92851e-09
7.14189e-09
6.84478e-09
7.1657e-09
7.14352e-09
6.74639e-09
6.82298e-09
6.85342e-09
6.94009e-09
6.85738e-09
6.83118e-09
7.12015e-09
6.75399e-09
6.98831e-09
6.89978e-09
6.79722e-09
6.95975e-09
6.79902e-09
6.75799e-09
6.72641e-09
7.12534e-09
6.85943e-09
6.92726e-09
6.8613e-09
7.0292e-09
6.91846e-09
6.91657e-09
6.70324e-09
6.90121e-09
6.87188e-09
6.73566e-09
6.92741e-09
6.76694e-09
7.04619e-09
6.88151e-09
6.96761e-09
7.1125e-09
6.81147e-09
6.80045e-09
6.8502e-09
6.84211e-09
6.84543e-09
7.03058e-09
6.89625e-09
6.89964e-09
6.84933e-09
7.11044e-09
6.83426e-09
7.00169e-09
6.99044e-09
7.08326e-09
7.06183e-09
7.10616e-09
6.75124e-09
6.84842e-09
6.98798e-09
6.85065e-09
7.03136e-09
7.03695e-09
6.82658e-09
6.75033e-09
6.81381e-09
7.09677e-09
6.94357e-09
6.71283e-09
6.92117e-09
6.90722e-09
7.06401e-09
6.96217e-09
7.02533e-09
7.05937e-09
6.86803e-09
6.83921e-09
6.73184e-09
6.70559e-09
6.90614e-09
7.07272e-09
6.72995e-09
7.02499e-09
7.09069e-09
7.09398e-09
6.84059e-09
6.93961e-09
6.90847e-09
7.0598e-09
6.85752e-09
7.08117e-09
7.07961e-09
6.74427e-09
7.0258e-09
6.92709e-09
6.97285e-09
6.83981e-09
7.0121e-09
6.93232e-09
7.04473e-09
7.04059e-09
6.93407e-09
6.73612e-09
6.92269e-09
6.8565e-09
6.95851e-09
6.68961e-09
6.8856e-09
6.69805e-09
6.86221e-09
6.98309e-09
6.92158e-09
6.73747e-09
6.91527e-09
7.09346e-09
6.72891e-09
6.93362e-09
6.73304e-09
6.85242e-09
6.94237e-09
6.75092e-09
6.84536e-09
6.93883e-09
6.96305e-09
6.84932e-09
6.80743e-09
7.09631e-09
6.95986e-09
7.08655e-09
7.09507e-09
6.96109e-09
6.73359e-09
6.93123e-09
6.87939e-09
6.8087e-09
6.72053e-09
6.93223e-09
6.75443e-09
6.98387e-09
6.89985e-09
6.73623e-09
6.96446e-09
7.05493e-09
7.07729e-09
6.7913e-09
6.86946e-09
7.10101e-09
6.86207e-09
6.84005e-09
6.76457e-09
7.04517e-09
7.09196e-09
6.82152e-09
6.97174e-09
7.0055e-09
6.80829e-09
6.8181e-09
7.06386e-09
6.98443e-09
6.8413e-09
7.04042e-09
7.04916e-09
6.91272e-09
7.10433e-09
6.84074e-09
7.10435e-09
6.96195e-09
6.83614e-09
6.75636e-09
6.98695e-09
6.70634e-09
6.83605e-09
6.7588e-09
6.75809e-09
7.12363e-09
6.93504e-09
6.90019e-09
6.79456e-09
6.9229e-09
6.91367e-09
6.70124e-09
6.85006e-09
6.76761e-09
6.86155e-09
7.06728e-09
7.09254e-09
6.8413e-09
6.87722e-09
7.02257e-09
7.09996e-09
7.1191e-09
7.09979e-09
7.09914e-09
6.83154e-09
7.06706e-09
7.0217e-09
6.80327e-09
6.72786e-09
6.86773e-09
6.91054e-09
7.01999e-09
6.91373e-09
6.9964e-09
6.9797e-09
7.08268e-09
6.85088e-09
6.69502e-09
6.81341e-09
6.80392e-09
6.74098e-09
6.90623e-09
6.96442e-09
6.86996e-09
7.09579e-09
7.06017e-09
7.10725e-09
7.10236e-09
6.82133e-09
6.69838e-09
7.06533e-09
7.04363e-09
6.89747e-09
7.06318e-09
6.89382e-09
7.00055e-09
6.82999e-09
6.82349e-09
7.08066e-09
7.08924e-09
6.8883e-09
6.87722e-09
7.09209e-09
6.69332e-09
6.69411e-09
6.81455e-09
6.89586e-09
6.69338e-09
6.8921e-09
7.06644e-09
6.9799e-09
6.66244e-09
6.88169e-09
6.8589e-09
6.80848e-09
7.12213e-09
6.98708e-09
6.69187e-09
6.99232e-09
7.12791e-09
7.03643e-09
6.99495e-09
6.81207e-09
7.10717e-09
6.86961e-09
7.15087e-09
7.10326e-09
6.8805e-09
6.98969e-09
6.99435e-09
6.86919e-09
6.85299e-09
6.86377e-09
6.87426e-09
7.0915e-09
6.99005e-09
6.9886e-09
7.07964e-09
6.91732e-09
6.65631e-09
7.04601e-09
6.79244e-09
6.87728e-09
6.83316e-09
7.06924e-09
6.86572e-09
6.67244e-09
7.08743e-09
6.85077e-09
6.80315e-09
6.68665e-09
7.03393e-09
6.78918e-09
7.04084e-09
7.1386e-09
7.0302e-09
7.01373e-09
6.87452e-09
6.66234e-09
6.83664e-09
6.85831e-09
6.88011e-09
6.92822e-09
6.86868e-09
6.70601e-09
6.91816e-09
7.04177e-09
6.75904e-09
6.71539e-09
6.82974e-09
6.96354e-09
6.96081e-09
6.8723e-09
6.78862e-09
6.78211e-09
6.7471e-09
6.88428e-09
6.76382e-09
6.81832e-09
6.7354e-09
6.92396e-09
6.96437e-09
6.81727e-09
6.73297e-09
6.90266e-09
6.81072e-09
7.00505e-09
6.92567e-09
6.81203e-09
6.70435e-09
6.86769e-09
6.83793e-09
7.06087e-09
6.9292e-09
7.05795e-09
6.7678e-09
6.71714e-09
7.00109e-09
6.86212e-09
7.00696e-09
6.8859e-09
6.8433e-09
6.94227e-09
7.05177e-09
6.74971e-09
6.79388e-09
6.94203e-09
7.0663e-09
7.05244e-09
6.84681e-09
6.77471e-09
6.95634e-09
7.0566e-09
6.89841e-09
7.05285e-09
6.79609e-09
6.75964e-09
7.03089e-09
6.95496e-09
6.75564e-09
6.94705e-09
7.08231e-09
6.84571e-09
6.97528e-09
6.99885e-09
6.78737e-09
6.71945e-09
7.00266e-09
6.91753e-09
6.97142e-09
6.86342e-09
6.79125e-09
6.87283e-09
6.81037e-09
6.81924e-09
6.77528e-09
6.98471e-09
6.84373e-09
6.74947e-09
6.93657e-09
6.92533e-09
6.76103e-09
7.03366e-09
6.79658e-09
7.11607e-09
7.10304e-09
7.10737e-09
7.0884e-09
6.91195e-09
7.08838e-09
7.04315e-09
6.83377e-09
6.89162e-09
6.81166e-09
7.05901e-09
6.80676e-09
7.07061e-09
7.03471e-09
7.04128e-09
6.87832e-09
6.88411e-09
6.8827e-09
7.04709e-09
6.81005e-09
6.85132e-09
7.08523e-09
6.71529e-09
6.82693e-09
6.77897e-09
7.04963e-09
7.11424e-09
6.91556e-09
7.08014e-09
6.87136e-09
6.86935e-09
6.88407e-09
7.07193e-09
6.83427e-09
6.90648e-09
7.09663e-09
6.88054e-09
7.0065e-09
6.86077e-09
6.8251e-09
7.03972e-09
7.06179e-09
6.82268e-09
6.86772e-09
7.08044e-09
7.06683e-09
7.07496e-09
7.10609e-09
7.08667e-09
6.89911e-09
7.01372e-09
7.13171e-09
6.97078e-09
6.92604e-09
7.01754e-09
7.09599e-09
6.9625e-09
7.13179e-09
6.86234e-09
6.88336e-09
6.79132e-09
6.87939e-09
6.99582e-09
7.09509e-09
6.86127e-09
7.08767e-09
6.87049e-09
6.84901e-09
6.93536e-09
6.9144e-09
7.08776e-09
6.83629e-09
7.08325e-09
7.10704e-09
6.95175e-09
6.92041e-09
7.09462e-09
6.80748e-09
7.04847e-09
6.84044e-09
6.82994e-09
6.91228e-09
6.86117e-09
7.12776e-09
7.06156e-09
6.88668e-09
7.10951e-09
6.88803e-09
7.09706e-09
6.92504e-09
6.82817e-09
6.89889e-09
7.09482e-09
6.92116e-09
7.05986e-09
6.87994e-09
7.06759e-09
6.89767e-09
7.03898e-09
6.85338e-09
7.03845e-09
6.85079e-09
6.99876e-09
6.83282e-09
7.00965e-09
6.84755e-09
7.02591e-09
6.84823e-09
7.00199e-09
6.8181e-09
7.0167e-09
6.8475e-09
7.04963e-09
6.87877e-09
7.04212e-09
6.85858e-09
7.02981e-09
6.853e-09
7.03005e-09
6.86268e-09
7.04956e-09
6.86777e-09
7.02046e-09
6.86007e-09
7.04205e-09
6.87769e-09
7.04994e-09
6.88175e-09
7.04604e-09
6.84136e-09
7.0391e-09
6.85622e-09
7.0318e-09
6.85795e-09
7.02752e-09
6.85521e-09
7.05942e-09
6.88756e-09
7.04993e-09
6.86857e-09
7.04599e-09
6.84463e-09
7.03984e-09
6.88003e-09
7.02307e-09
6.86851e-09
7.06696e-09
6.86555e-09
7.04187e-09
6.87369e-09
7.02309e-09
6.86502e-09
7.04205e-09
6.87451e-09
7.04646e-09
6.86614e-09
7.05456e-09
6.907e-09
7.08272e-09
6.90576e-09
7.09265e-09
6.92054e-09
7.09842e-09
6.91831e-09
7.06764e-09
6.90599e-09
7.0667e-09
6.90284e-09
7.07061e-09
6.89989e-09
7.08891e-09
6.92272e-09
7.10438e-09
6.93142e-09
7.12042e-09
6.97702e-09
7.11035e-09
6.94878e-09
7.11723e-09
6.94214e-09
7.11139e-09
6.98365e-09
7.1067e-09
6.91423e-09
7.1304e-09
6.89274e-09
7.07738e-09
6.94147e-09
7.0602e-09
6.90363e-09
7.09764e-09
6.93865e-09
7.08887e-09
6.87965e-09
7.04655e-09
6.87878e-09
7.06215e-09
6.89044e-09
7.05468e-09
6.89596e-09
7.08214e-09
6.89833e-09
7.06394e-09
6.86689e-09
7.05657e-09
6.85405e-09
7.03607e-09
6.88383e-09
7.02941e-09
6.86811e-09
7.0211e-09
6.84002e-09
7.02916e-09
6.84067e-09
7.03281e-09
6.86589e-09
7.02919e-09
6.8741e-09
7.04153e-09
6.89541e-09
7.11411e-09
6.93456e-09
7.09089e-09
6.89288e-09
7.09811e-09
6.91852e-09
7.08077e-09
6.88176e-09
7.08527e-09
6.88149e-09
7.06508e-09
6.8773e-09
7.05609e-09
6.88829e-09
7.06868e-09
6.89067e-09
7.06654e-09
6.86239e-09
7.05133e-09
6.87241e-09
7.07126e-09
6.90128e-09
7.07112e-09
6.87615e-09
7.0303e-09
6.8498e-09
7.03625e-09
6.85836e-09
7.04958e-09
6.8722e-09
7.05493e-09
6.86683e-09
7.05935e-09
6.88917e-09
7.05505e-09
6.89146e-09
7.06788e-09
6.87199e-09
7.07173e-09
6.89875e-09
7.0915e-09
6.90039e-09
7.07811e-09
6.8995e-09
7.08602e-09
6.91343e-09
7.08343e-09
6.91126e-09
7.0849e-09
6.87877e-09
7.08593e-09
6.89737e-09
7.03555e-09
6.85157e-09
7.04495e-09
6.87492e-09
7.03339e-09
6.84223e-09
7.00781e-09
6.8411e-09
7.01954e-09
6.85905e-09
7.04496e-09
6.87719e-09
7.06264e-09
6.91534e-09
7.08774e-09
6.92363e-09
7.09035e-09
6.91594e-09
7.09923e-09
6.90299e-09
7.05465e-09
6.88869e-09
7.0398e-09
6.89536e-09
7.03674e-09
6.89415e-09
7.03453e-09
6.91839e-09
7.05665e-09
6.91417e-09
7.14327e-09
6.90135e-09
7.07066e-09
6.93302e-09
7.08742e-09
6.901e-09
7.09313e-09
6.96046e-09
7.10921e-09
6.96041e-09
7.11541e-09
6.86192e-09
7.08288e-09
6.92106e-09
7.05238e-09
6.87334e-09
7.06821e-09
6.92578e-09
7.0906e-09
6.86754e-09
7.03682e-09
6.85704e-09
7.06117e-09
6.89448e-09
7.05146e-09
6.87483e-09
7.05028e-09
6.88897e-09
7.06466e-09
6.87884e-09
7.06031e-09
6.86745e-09
7.03552e-09
6.85728e-09
7.02615e-09
6.87013e-09
7.01483e-09
6.84387e-09
7.0315e-09
6.83549e-09
7.0279e-09
6.83392e-09
7.00285e-09
6.83881e-09
7.04215e-09
6.85829e-09
7.07547e-09
6.91197e-09
7.07307e-09
6.89579e-09
7.08949e-09
6.92292e-09
7.08868e-09
6.89538e-09
7.06906e-09
6.88274e-09
7.07789e-09
6.88861e-09
7.06558e-09
6.89659e-09
7.06195e-09
6.88842e-09
7.06554e-09
6.87663e-09
7.07423e-09
6.89789e-09
7.07761e-09
6.91585e-09
7.07607e-09
6.89514e-09
7.04201e-09
6.86672e-09
7.03299e-09
6.86276e-09
7.02328e-09
6.85998e-09
7.0213e-09
6.85133e-09
7.04185e-09
6.88742e-09
7.04272e-09
6.87969e-09
7.02723e-09
6.85233e-09
7.03821e-09
6.89e-09
7.05228e-09
6.87705e-09
7.05586e-09
6.88947e-09
7.06118e-09
6.89553e-09
7.06322e-09
6.89749e-09
7.05198e-09
6.89069e-09
7.04855e-09
6.88993e-09
7.03707e-09
6.8476e-09
7.04123e-09
6.86068e-09
7.02864e-09
6.837e-09
7.00245e-09
6.82962e-09
7.02864e-09
6.86191e-09
7.04344e-09
6.86127e-09
7.05133e-09
6.89418e-09
7.08116e-09
6.92374e-09
7.08048e-09
6.91174e-09
7.08698e-09
6.89463e-09
7.06351e-09
6.87095e-09
7.04373e-09
6.86247e-09
7.04843e-09
6.8587e-09
7.04085e-09
6.88513e-09
7.02715e-09
6.9106e-09
7.04656e-09
6.82393e-09
7.02408e-09
6.87818e-09
7.03539e-09
6.85712e-09
7.05689e-09
6.8856e-09
7.08393e-09
6.95688e-09
7.08497e-09
6.86722e-09
7.05886e-09
6.89591e-09
7.07135e-09
6.88068e-09
7.05512e-09
6.88943e-09
7.07544e-09
6.89381e-09
7.06205e-09
6.86285e-09
7.0634e-09
6.91236e-09
7.08722e-09
6.9111e-09
7.07646e-09
6.89227e-09
7.07121e-09
6.88735e-09
7.06027e-09
6.86782e-09
7.03558e-09
6.83554e-09
7.0104e-09
6.84026e-09
6.9876e-09
6.83067e-09
7.01308e-09
6.84582e-09
7.05217e-09
6.85848e-09
7.02356e-09
6.85699e-09
7.05217e-09
6.87115e-09
7.06583e-09
6.88251e-09
7.04586e-09
6.88566e-09
7.08531e-09
6.92222e-09
7.10433e-09
6.91162e-09
7.06793e-09
6.88267e-09
7.05851e-09
6.8776e-09
7.06133e-09
6.88819e-09
7.0637e-09
6.87793e-09
7.04792e-09
6.84708e-09
7.05385e-09
6.87629e-09
7.05778e-09
6.8824e-09
7.0627e-09
6.88201e-09
7.04169e-09
6.8493e-09
7.04433e-09
6.86344e-09
7.03044e-09
6.85397e-09
6.98693e-09
6.81754e-09
7.01298e-09
6.86166e-09
7.01754e-09
6.84629e-09
6.98533e-09
6.80152e-09
6.98823e-09
6.8426e-09
6.9948e-09
6.82022e-09
7.00823e-09
6.84448e-09
7.01005e-09
6.84076e-09
7.02396e-09
6.85524e-09
7.03354e-09
6.86466e-09
7.028e-09
6.8468e-09
7.01902e-09
6.85733e-09
7.03528e-09
6.86306e-09
7.03682e-09
6.85099e-09
6.99676e-09
6.82085e-09
7.00572e-09
6.86215e-09
7.03257e-09
6.85248e-09
7.03518e-09
6.86587e-09
7.04856e-09
6.88487e-09
7.05019e-09
6.87719e-09
7.04466e-09
6.8687e-09
7.04284e-09
6.86859e-09
7.02415e-09
6.83654e-09
7.02629e-09
6.83726e-09
7.05538e-09
6.86425e-09
7.06281e-09
6.88874e-09
7.03069e-09
6.83301e-09
7.03377e-09
6.86697e-09
7.04137e-09
6.87635e-09
7.06532e-09
6.87553e-09
7.08152e-09
6.94134e-09
7.07321e-09
6.87651e-09
7.01849e-09
6.83651e-09
7.02419e-09
6.87914e-09
7.05121e-09
6.87252e-09
7.04556e-09
6.89186e-09
7.07579e-09
6.86714e-09
7.06371e-09
6.88424e-09
7.05789e-09
6.90895e-09
7.07901e-09
6.88457e-09
7.05977e-09
6.88664e-09
7.06446e-09
6.8784e-09
7.04965e-09
6.84436e-09
7.03032e-09
6.83772e-09
6.99515e-09
6.82973e-09
7.00179e-09
6.83074e-09
7.0322e-09
6.86449e-09
7.02518e-09
6.83748e-09
7.0382e-09
6.87594e-09
7.08602e-09
6.89888e-09
7.07544e-09
6.89136e-09
7.10078e-09
6.92199e-09
7.11015e-09
6.93328e-09
7.10263e-09
6.90849e-09
7.08849e-09
6.91178e-09
7.08791e-09
6.92207e-09
7.09431e-09
6.91919e-09
7.08919e-09
6.87976e-09
7.06276e-09
6.88215e-09
7.06064e-09
6.87138e-09
7.05922e-09
6.89226e-09
7.03842e-09
6.83421e-09
7.04061e-09
6.86071e-09
7.05874e-09
6.86332e-09
7.00586e-09
6.80247e-09
7.02727e-09
6.85532e-09
7.00963e-09
6.82786e-09
6.99737e-09
6.79509e-09
6.9933e-09
6.82382e-09
6.99758e-09
6.80378e-09
7.00756e-09
6.83029e-09
6.9932e-09
6.81393e-09
6.99922e-09
6.84277e-09
7.01778e-09
6.8427e-09
7.05325e-09
6.84861e-09
7.02638e-09
6.83555e-09
7.00972e-09
6.84194e-09
7.02814e-09
6.85378e-09
7.01349e-09
6.81829e-09
7.02024e-09
6.86465e-09
7.04029e-09
6.86401e-09
7.05459e-09
6.86026e-09
7.0455e-09
6.84652e-09
7.03094e-09
6.84047e-09
6.99929e-09
6.8219e-09
7.01769e-09
6.85789e-09
7.04284e-09
6.85735e-09
7.0453e-09
6.86319e-09
7.05959e-09
6.88434e-09
7.08235e-09
6.89177e-09
7.0606e-09
6.87517e-09
7.06674e-09
6.88246e-09
7.06846e-09
6.8953e-09
7.08124e-09
6.87782e-09
7.07072e-09
6.90694e-09
7.06301e-09
6.87904e-09
7.0237e-09
6.79648e-09
6.99946e-09
6.85214e-09
7.03921e-09
6.84579e-09
7.01183e-09
6.84848e-09
7.02925e-09
6.86089e-09
7.07704e-09
6.87935e-09
7.04876e-09
6.89099e-09
7.08682e-09
6.89075e-09
7.05867e-09
6.8682e-09
7.05644e-09
6.89132e-09
7.06219e-09
6.86444e-09
7.04405e-09
6.86217e-09
7.01332e-09
6.82956e-09
7.0386e-09
6.83407e-09
7.0348e-09
6.86883e-09
7.00088e-09
6.82818e-09
7.05174e-09
6.8915e-09
7.08505e-09
6.92475e-09
7.09223e-09
6.91491e-09
7.11525e-09
6.93605e-09
7.1105e-09
6.94767e-09
7.09556e-09
6.90092e-09
7.09054e-09
6.90944e-09
7.0774e-09
6.89826e-09
7.06926e-09
6.8959e-09
7.0695e-09
6.89037e-09
7.06959e-09
6.88624e-09
7.05549e-09
6.86884e-09
7.0416e-09
6.8856e-09
7.05496e-09
6.84767e-09
7.03534e-09
6.85653e-09
7.03425e-09
6.8735e-09
7.01122e-09
6.80902e-09
7.04453e-09
6.86105e-09
7.00572e-09
6.81568e-09
6.99368e-09
6.83709e-09
7.01782e-09
6.85813e-09
7.04089e-09
6.86588e-09
7.07003e-09
6.86085e-09
7.04734e-09
6.85857e-09
7.03344e-09
6.87798e-09
7.01569e-09
6.85746e-09
7.04143e-09
6.90141e-09
7.04879e-09
6.86031e-09
7.04131e-09
6.81451e-09
7.02988e-09
6.87828e-09
7.02947e-09
6.83667e-09
7.03301e-09
6.85658e-09
7.02901e-09
6.865e-09
7.05349e-09
6.88628e-09
7.06566e-09
6.87268e-09
7.07489e-09
6.87953e-09
7.04166e-09
6.86893e-09
7.06076e-09
6.88946e-09
7.07071e-09
6.885e-09
7.05611e-09
6.87657e-09
7.05784e-09
6.88339e-09
7.07092e-09
6.88338e-09
7.04806e-09
6.86619e-09
7.04635e-09
6.86236e-09
7.06266e-09
6.89395e-09
7.08394e-09
6.88375e-09
7.09348e-09
6.9088e-09
7.08854e-09
6.93918e-09
7.08349e-09
6.85138e-09
7.05195e-09
6.89157e-09
7.08151e-09
6.90125e-09
7.08666e-09
6.88745e-09
7.05145e-09
6.8782e-09
7.08737e-09
6.89899e-09
7.05644e-09
6.88419e-09
7.0677e-09
6.90505e-09
7.08232e-09
6.87256e-09
7.05297e-09
6.87952e-09
7.05457e-09
6.86931e-09
7.05221e-09
6.88329e-09
7.00634e-09
6.82993e-09
7.03507e-09
6.84933e-09
7.06065e-09
6.88439e-09
7.01546e-09
6.84551e-09
7.05717e-09
6.92751e-09
7.10265e-09
6.93645e-09
7.09492e-09
6.92958e-09
7.11421e-09
6.92779e-09
7.10758e-09
6.93523e-09
7.0783e-09
6.88115e-09
7.04468e-09
6.8815e-09
7.06918e-09
6.88826e-09
7.08076e-09
6.88195e-09
7.05035e-09
6.87034e-09
7.05343e-09
6.88344e-09
7.06195e-09
6.87648e-09
7.03463e-09
6.86722e-09
7.05314e-09
6.8759e-09
7.0705e-09
6.88498e-09
7.03646e-09
6.8918e-09
7.02528e-09
6.84128e-09
7.0405e-09
6.86498e-09
7.03297e-09
6.81159e-09
6.9851e-09
6.82085e-09
7.01742e-09
6.84105e-09
7.04822e-09
6.88807e-09
7.03404e-09
6.82672e-09
7.0276e-09
6.83571e-09
7.02293e-09
6.8422e-09
7.02424e-09
6.82638e-09
7.03968e-09
6.88194e-09
7.04127e-09
6.88202e-09
7.01526e-09
6.78987e-09
7.00099e-09
6.84957e-09
7.00858e-09
6.8386e-09
7.00994e-09
6.83225e-09
7.01665e-09
6.83925e-09
7.01629e-09
6.8778e-09
7.04321e-09
6.87426e-09
7.06889e-09
6.8747e-09
7.04388e-09
6.87418e-09
7.06136e-09
6.891e-09
7.07606e-09
6.88259e-09
7.05463e-09
6.88012e-09
7.05282e-09
6.88065e-09
7.06021e-09
6.87486e-09
7.05928e-09
6.88411e-09
7.04224e-09
6.86024e-09
7.05902e-09
6.89575e-09
7.05805e-09
6.8811e-09
7.07667e-09
6.88551e-09
7.0635e-09
6.92494e-09
7.07714e-09
6.86832e-09
7.04064e-09
6.87308e-09
7.05185e-09
6.90249e-09
7.0841e-09
6.89922e-09
7.06741e-09
6.88602e-09
7.077e-09
6.89251e-09
7.06565e-09
6.88229e-09
7.04358e-09
6.89427e-09
7.06926e-09
6.87898e-09
7.05485e-09
6.86746e-09
7.02578e-09
6.84809e-09
7.02947e-09
6.85966e-09
7.01594e-09
6.82159e-09
7.01108e-09
6.83263e-09
7.02648e-09
6.85331e-09
7.01151e-09
6.83715e-09
7.04276e-09
6.96073e-09
7.11948e-09
6.93367e-09
7.10815e-09
6.92591e-09
7.08984e-09
6.92361e-09
7.10795e-09
6.93569e-09
7.09997e-09
6.91558e-09
7.04564e-09
6.87371e-09
7.0622e-09
6.90072e-09
7.09154e-09
6.8924e-09
7.08018e-09
6.88267e-09
7.0487e-09
6.88528e-09
7.06362e-09
6.89173e-09
7.04527e-09
6.84957e-09
7.0431e-09
6.86221e-09
7.08033e-09
6.88281e-09
7.05374e-09
6.86823e-09
7.04144e-09
6.84134e-09
7.03824e-09
6.85455e-09
7.05127e-09
6.84595e-09
7.03947e-09
6.85799e-09
7.06751e-09
6.88208e-09
7.10458e-09
6.93532e-09
7.05015e-09
6.85295e-09
7.0469e-09
6.88217e-09
7.05059e-09
6.87474e-09
7.057e-09
6.86681e-09
7.07423e-09
6.87754e-09
7.05319e-09
6.88942e-09
7.03569e-09
6.82711e-09
7.01789e-09
6.84352e-09
7.01062e-09
6.83735e-09
6.99754e-09
6.81458e-09
7.02945e-09
6.82156e-09
7.01129e-09
6.8383e-09
7.02947e-09
6.84644e-09
7.04746e-09
6.85832e-09
7.0433e-09
6.86245e-09
7.06967e-09
6.89983e-09
7.10552e-09
6.91602e-09
7.11487e-09
6.92793e-09
7.11226e-09
6.91774e-09
7.08856e-09
6.89636e-09
7.09099e-09
6.9216e-09
7.06343e-09
6.87951e-09
7.0814e-09
6.91138e-09
7.06946e-09
6.88649e-09
7.07129e-09
6.87391e-09
7.03688e-09
6.87972e-09
7.05598e-09
6.87346e-09
7.05274e-09
6.87087e-09
7.06581e-09
6.88797e-09
7.07048e-09
6.89585e-09
7.07403e-09
6.89511e-09
7.08601e-09
6.88942e-09
7.08171e-09
6.90079e-09
7.07261e-09
6.89458e-09
7.07809e-09
6.90549e-09
7.10247e-09
6.89417e-09
7.06402e-09
6.85449e-09
7.03282e-09
6.85714e-09
7.03419e-09
6.83967e-09
7.03232e-09
6.84474e-09
7.03271e-09
6.8578e-09
7.02836e-09
6.86204e-09
7.06106e-09
7.09304e-09
6.92993e-09
7.0899e-09
6.93067e-09
7.10199e-09
6.91022e-09
7.04893e-09
6.88727e-09
7.07329e-09
6.91114e-09
7.084e-09
6.9108e-09
7.06522e-09
6.86858e-09
7.06109e-09
6.88763e-09
7.03461e-09
6.86056e-09
7.06878e-09
6.87318e-09
7.03973e-09
6.86314e-09
7.0393e-09
6.8803e-09
7.05202e-09
6.84758e-09
7.05636e-09
6.85748e-09
7.05484e-09
6.90802e-09
7.07474e-09
6.90227e-09
7.08884e-09
6.90932e-09
7.09375e-09
6.90562e-09
7.06634e-09
6.87811e-09
7.06432e-09
6.89065e-09
7.06459e-09
6.89322e-09
7.08636e-09
6.92655e-09
7.05847e-09
6.85463e-09
7.03904e-09
6.87233e-09
7.04869e-09
6.86573e-09
7.04371e-09
6.87325e-09
7.05652e-09
6.86005e-09
7.03585e-09
6.8564e-09
7.02432e-09
6.83693e-09
7.0295e-09
6.83951e-09
7.01928e-09
6.84278e-09
6.98638e-09
6.81623e-09
7.03669e-09
6.85466e-09
7.04034e-09
6.85173e-09
7.03395e-09
6.8711e-09
7.05632e-09
6.89507e-09
7.05923e-09
6.89099e-09
7.09213e-09
6.91725e-09
7.09753e-09
6.92764e-09
7.11564e-09
6.9477e-09
7.10929e-09
6.92768e-09
7.08302e-09
6.90037e-09
7.08244e-09
6.9163e-09
7.05235e-09
6.86703e-09
7.05405e-09
6.88909e-09
7.0427e-09
6.87392e-09
7.05013e-09
6.85546e-09
7.03311e-09
6.8602e-09
7.03447e-09
6.86654e-09
7.02198e-09
6.86279e-09
7.05142e-09
6.87861e-09
7.05747e-09
6.89257e-09
7.06231e-09
6.89974e-09
7.08979e-09
6.90933e-09
7.08085e-09
6.90969e-09
7.09569e-09
6.90613e-09
7.08702e-09
6.91335e-09
7.09044e-09
6.91526e-09
7.09678e-09
6.87416e-09
7.06078e-09
6.87925e-09
7.05419e-09
6.87567e-09
7.05017e-09
6.8706e-09
7.05128e-09
6.88484e-09
7.03606e-09
6.8875e-09
7.07757e-09
6.87983e-09
7.07229e-09
6.89854e-09
7.05465e-09
6.89848e-09
7.06531e-09
6.87285e-09
7.04038e-09
6.86257e-09
7.04215e-09
6.87846e-09
7.03061e-09
6.88133e-09
7.03366e-09
6.86864e-09
7.07497e-09
6.84303e-09
7.00593e-09
6.85036e-09
7.04223e-09
6.8878e-09
7.05568e-09
6.90503e-09
7.02462e-09
6.91767e-09
7.0216e-09
6.89136e-09
7.11569e-09
6.83577e-09
7.06831e-09
6.93268e-09
7.05819e-09
6.89191e-09
7.06086e-09
6.8927e-09
7.06352e-09
6.88629e-09
7.02606e-09
6.84538e-09
7.01456e-09
6.85705e-09
7.0337e-09
6.85484e-09
7.04701e-09
6.88186e-09
7.03996e-09
6.85581e-09
7.02416e-09
6.84542e-09
7.05391e-09
6.87617e-09
7.04826e-09
6.87041e-09
7.05186e-09
6.86148e-09
7.04718e-09
6.85602e-09
7.03386e-09
6.85479e-09
7.04526e-09
6.86457e-09
7.0734e-09
6.89399e-09
7.04592e-09
6.85487e-09
7.05283e-09
6.88932e-09
7.06266e-09
6.86132e-09
7.03071e-09
6.87116e-09
7.0346e-09
6.87609e-09
7.04518e-09
6.8765e-09
7.07446e-09
6.87679e-09
7.0558e-09
6.88672e-09
7.06829e-09
6.92198e-09
7.08922e-09
6.89819e-09
7.0611e-09
6.87365e-09
7.05731e-09
6.8961e-09
7.05396e-09
6.86196e-09
7.0575e-09
6.878e-09
7.03074e-09
6.84312e-09
7.01621e-09
6.82444e-09
6.98789e-09
6.81616e-09
6.99922e-09
6.83424e-09
6.98586e-09
6.82034e-09
7.00888e-09
6.84598e-09
7.01836e-09
6.85483e-09
7.02965e-09
6.86824e-09
7.06205e-09
6.90187e-09
7.06513e-09
6.89131e-09
7.07223e-09
6.90485e-09
7.10426e-09
6.92022e-09
7.0798e-09
6.92705e-09
7.10485e-09
6.90178e-09
7.06738e-09
6.88422e-09
7.05944e-09
6.89145e-09
7.05308e-09
6.86401e-09
7.05106e-09
6.8658e-09
7.01348e-09
6.86598e-09
7.04557e-09
6.91557e-09
7.12964e-09
6.93844e-09
7.11583e-09
6.92613e-09
7.09064e-09
6.89346e-09
7.07578e-09
6.88024e-09
7.07038e-09
6.87386e-09
7.06718e-09
6.88885e-09
7.05271e-09
6.9126e-09
7.04746e-09
6.82803e-09
7.02911e-09
6.83807e-09
7.02534e-09
6.86337e-09
7.06459e-09
6.88023e-09
7.06845e-09
6.88315e-09
7.02028e-09
6.90768e-09
7.03912e-09
6.79878e-09
7.0454e-09
6.88718e-09
7.02511e-09
6.85729e-09
7.03462e-09
6.85516e-09
7.0264e-09
6.84469e-09
7.01272e-09
6.81318e-09
6.97493e-09
6.81146e-09
6.99533e-09
6.82379e-09
7.03449e-09
6.85729e-09
7.03119e-09
6.85638e-09
7.01101e-09
6.84274e-09
7.05533e-09
6.89892e-09
7.06974e-09
6.89968e-09
7.08513e-09
6.9011e-09
7.06683e-09
6.87095e-09
7.06341e-09
6.86786e-09
7.04618e-09
6.87299e-09
7.05111e-09
6.89502e-09
7.08467e-09
6.88875e-09
7.07389e-09
6.88743e-09
7.06494e-09
6.85191e-09
7.02714e-09
6.86079e-09
7.02426e-09
6.87251e-09
7.04307e-09
6.88706e-09
7.07505e-09
6.88682e-09
7.0843e-09
6.89625e-09
7.07734e-09
6.89734e-09
7.08003e-09
6.89959e-09
7.06246e-09
6.86244e-09
7.06287e-09
6.8953e-09
7.06894e-09
6.88277e-09
7.08909e-09
6.9022e-09
7.06325e-09
6.84967e-09
7.03608e-09
6.84296e-09
7.0038e-09
6.81065e-09
7.01262e-09
6.84766e-09
7.00478e-09
6.8169e-09
6.99903e-09
6.82885e-09
7.01128e-09
6.83807e-09
7.02077e-09
6.85449e-09
7.0283e-09
6.86987e-09
7.06247e-09
6.88948e-09
7.04228e-09
6.87897e-09
7.08155e-09
6.90257e-09
7.05768e-09
6.89084e-09
7.07944e-09
6.89105e-09
7.06043e-09
6.86421e-09
7.03506e-09
6.87528e-09
7.03417e-09
6.85159e-09
7.04688e-09
6.84644e-09
7.02291e-09
6.83984e-09
7.0459e-09
6.92254e-09
7.1075e-09
6.94228e-09
7.10945e-09
6.92726e-09
7.09047e-09
6.9185e-09
7.08031e-09
6.8971e-09
7.07691e-09
6.88937e-09
7.10105e-09
6.90788e-09
7.0767e-09
6.9021e-09
7.02504e-09
6.83375e-09
7.03607e-09
6.84476e-09
7.03744e-09
6.8667e-09
7.0472e-09
6.88483e-09
7.09771e-09
6.90364e-09
7.07658e-09
6.91031e-09
7.03657e-09
6.81711e-09
7.05524e-09
6.86988e-09
7.025e-09
6.8438e-09
7.02751e-09
6.85041e-09
7.00915e-09
6.83776e-09
7.01631e-09
6.84203e-09
7.00685e-09
6.83474e-09
7.02724e-09
6.85457e-09
7.04502e-09
6.86586e-09
7.04903e-09
6.86021e-09
7.01888e-09
6.8426e-09
7.04104e-09
6.88167e-09
7.06099e-09
6.90225e-09
7.07906e-09
6.91843e-09
7.06296e-09
6.88888e-09
7.07159e-09
6.87616e-09
7.06073e-09
6.87697e-09
7.0185e-09
6.84784e-09
7.04571e-09
6.90007e-09
7.07818e-09
6.9078e-09
7.07919e-09
6.88038e-09
7.03833e-09
6.85785e-09
7.03025e-09
6.86971e-09
7.03808e-09
6.87235e-09
7.04479e-09
6.87392e-09
7.07623e-09
6.90685e-09
7.04575e-09
6.85062e-09
7.03758e-09
6.88675e-09
7.06493e-09
6.87182e-09
7.07078e-09
6.88901e-09
7.07672e-09
6.90342e-09
7.0995e-09
6.9308e-09
7.10892e-09
6.88394e-09
7.07107e-09
6.88429e-09
7.06386e-09
6.84168e-09
7.03673e-09
6.86886e-09
7.04941e-09
6.84057e-09
7.03851e-09
6.83687e-09
7.0311e-09
6.83249e-09
7.05177e-09
6.87134e-09
7.02436e-09
6.85241e-09
7.08225e-09
6.90001e-09
7.0644e-09
6.87674e-09
7.08415e-09
6.91897e-09
7.06132e-09
6.8792e-09
7.05978e-09
6.88092e-09
7.06066e-09
6.87708e-09
7.03605e-09
6.86676e-09
7.04271e-09
6.88261e-09
7.0647e-09
6.89392e-09
7.04299e-09
6.85915e-09
7.07248e-09
6.89211e-09
7.07352e-09
6.91462e-09
7.07666e-09
6.90484e-09
7.05068e-09
6.88308e-09
7.07175e-09
6.89938e-09
7.053e-09
6.87351e-09
7.06096e-09
6.89687e-09
7.05422e-09
6.87869e-09
7.01788e-09
6.83815e-09
7.00603e-09
6.82273e-09
7.03198e-09
6.85472e-09
7.03294e-09
6.86014e-09
7.07009e-09
6.89515e-09
7.06377e-09
6.88637e-09
7.02182e-09
6.83855e-09
7.03873e-09
6.87413e-09
7.04846e-09
6.86499e-09
7.04792e-09
6.86441e-09
7.02343e-09
6.8266e-09
7.01567e-09
6.85361e-09
6.9952e-09
6.82882e-09
7.02176e-09
6.86063e-09
7.03967e-09
6.87106e-09
7.041e-09
6.86529e-09
7.01509e-09
6.83859e-09
7.04348e-09
6.88498e-09
7.05636e-09
6.89282e-09
7.05307e-09
6.89e-09
7.03196e-09
6.88683e-09
7.04374e-09
6.87736e-09
7.06472e-09
6.85772e-09
7.02917e-09
6.82961e-09
7.02046e-09
6.87308e-09
7.03809e-09
6.88172e-09
7.05725e-09
6.87684e-09
7.038e-09
6.84829e-09
7.01976e-09
6.84747e-09
7.04585e-09
6.86431e-09
7.04535e-09
6.84441e-09
7.04397e-09
6.87442e-09
7.04149e-09
6.83778e-09
7.02047e-09
6.86125e-09
7.05464e-09
6.87319e-09
7.06943e-09
6.88441e-09
7.07549e-09
6.89364e-09
7.09037e-09
6.94203e-09
7.12184e-09
6.91536e-09
7.08447e-09
6.90307e-09
7.09757e-09
6.90029e-09
7.06652e-09
6.89254e-09
7.07495e-09
6.89804e-09
7.09136e-09
6.92012e-09
7.07548e-09
6.88235e-09
7.08159e-09
6.90739e-09
7.05657e-09
6.89155e-09
7.07881e-09
6.89709e-09
7.06811e-09
6.86394e-09
7.04969e-09
6.89259e-09
7.04005e-09
6.85491e-09
7.05923e-09
6.87866e-09
7.0477e-09
6.87667e-09
7.05572e-09
6.86067e-09
7.04848e-09
6.86719e-09
7.06512e-09
6.90314e-09
7.02802e-09
6.84712e-09
7.03652e-09
6.86555e-09
7.06803e-09
6.88445e-09
7.07297e-09
6.89074e-09
7.02875e-09
6.83754e-09
7.06268e-09
6.8966e-09
7.06517e-09
6.8642e-09
7.0466e-09
6.86612e-09
7.05218e-09
6.87774e-09
7.03719e-09
6.85136e-09
7.01375e-09
6.81452e-09
7.01762e-09
6.86927e-09
7.03679e-09
6.86407e-09
7.0542e-09
6.88911e-09
7.06381e-09
6.88499e-09
7.03672e-09
6.84953e-09
7.00916e-09
6.84657e-09
7.03747e-09
6.87877e-09
7.03094e-09
6.85259e-09
6.99949e-09
6.78882e-09
6.99064e-09
6.82549e-09
6.9774e-09
6.8001e-09
6.98069e-09
6.81959e-09
6.99505e-09
6.82002e-09
7.00251e-09
6.83884e-09
6.98483e-09
6.79073e-09
7.00728e-09
6.85611e-09
7.03809e-09
6.87989e-09
7.05809e-09
6.86901e-09
7.04406e-09
6.86662e-09
7.0467e-09
6.89616e-09
7.039e-09
6.83298e-09
7.03228e-09
6.82319e-09
7.04655e-09
6.87296e-09
7.04607e-09
6.86351e-09
7.05335e-09
6.8795e-09
7.05113e-09
6.86348e-09
7.03799e-09
6.86182e-09
7.06785e-09
6.90823e-09
7.093e-09
6.88173e-09
7.07094e-09
6.88708e-09
7.05735e-09
6.87919e-09
7.0458e-09
6.88031e-09
7.05353e-09
6.88847e-09
7.0716e-09
6.90473e-09
7.09853e-09
6.91408e-09
7.09275e-09
6.94222e-09
7.10785e-09
6.93506e-09
7.10032e-09
6.92814e-09
7.0859e-09
6.91808e-09
7.07354e-09
6.8894e-09
7.06644e-09
6.88464e-09
7.05864e-09
6.9013e-09
7.06546e-09
6.87567e-09
7.04923e-09
6.86666e-09
7.04385e-09
6.88918e-09
7.06179e-09
6.89078e-09
7.07828e-09
6.8772e-09
7.06732e-09
6.88852e-09
7.03196e-09
6.84098e-09
7.05663e-09
6.88331e-09
7.04052e-09
6.88432e-09
7.05739e-09
6.87329e-09
7.05012e-09
6.8595e-09
7.06088e-09
6.89531e-09
7.04583e-09
6.84681e-09
7.03441e-09
6.90471e-09
7.09473e-09
6.91551e-09
7.10234e-09
6.92166e-09
7.07556e-09
6.87199e-09
7.07243e-09
6.90411e-09
7.08424e-09
6.89024e-09
7.06242e-09
6.87349e-09
7.05879e-09
6.88256e-09
7.03822e-09
6.8418e-09
7.02288e-09
6.81492e-09
7.01671e-09
6.85402e-09
7.04734e-09
6.85781e-09
7.04836e-09
6.86341e-09
7.04203e-09
6.86135e-09
7.05362e-09
6.86089e-09
7.02824e-09
6.8186e-09
7.0457e-09
6.89468e-09
7.04529e-09
6.85747e-09
7.01921e-09
6.80826e-09
7.01788e-09
6.8446e-09
7.01288e-09
6.81844e-09
6.98814e-09
6.81003e-09
6.99385e-09
6.8126e-09
7.00178e-09
6.8379e-09
7.00843e-09
6.80237e-09
7.00967e-09
6.842e-09
7.0301e-09
6.86911e-09
7.05054e-09
6.88075e-09
7.04983e-09
6.86018e-09
7.03802e-09
6.90941e-09
7.02518e-09
6.86618e-09
7.03001e-09
6.85893e-09
7.06492e-09
6.86374e-09
7.03305e-09
6.86596e-09
7.03453e-09
6.87798e-09
7.02833e-09
6.86061e-09
7.0367e-09
6.8664e-09
7.04028e-09
6.89266e-09
7.05358e-09
6.87911e-09
7.06698e-09
6.87902e-09
7.02883e-09
6.85636e-09
7.03814e-09
6.87323e-09
7.04194e-09
6.86064e-09
7.03522e-09
6.87563e-09
7.0733e-09
6.89206e-09
7.06969e-09
6.89541e-09
7.06048e-09
6.88669e-09
7.06871e-09
6.9031e-09
7.05668e-09
6.88904e-09
7.04582e-09
6.87171e-09
7.06304e-09
6.88287e-09
7.04161e-09
6.87418e-09
7.06779e-09
6.89598e-09
7.07343e-09
6.88024e-09
7.05193e-09
6.88633e-09
7.06268e-09
6.90432e-09
7.08129e-09
6.90113e-09
7.06976e-09
6.88115e-09
7.04111e-09
6.84875e-09
7.04388e-09
6.86592e-09
7.03725e-09
6.87365e-09
7.04203e-09
6.8559e-09
7.04714e-09
6.84867e-09
7.03851e-09
6.86625e-09
7.02935e-09
6.8424e-09
7.03556e-09
6.90197e-09