/*--------------------------------*- C++ -*----------------------------------*\
| =========                 |                                                 |
| \\      /  F ield         | OpenFOAM: The Open Source CFD Toolbox           |
|  \\    /   O peration     | Version:  2206                                  |
|   \\  /    A nd           | Website:  www.openfoam.com                      |
|    \\/     M anipulation  |                                                 |
\*---------------------------------------------------------------------------*/
FoamFile
{
    version     2.0;
    format      ascii;
    arch        "LSB;label=32;scalar=64";
    class       volScalarField;
    location    "0.9";
    object      nut;
}
// * * * * * * * * * * * * * * * * * * * * * * * * * * * * * * * * * * * * * //

dimensions      [0 2 -1 0 0 0 0];

internalField   nonuniform List<scalar> 
185303
(
4.83009e-16
4.9447e-16
4.96119e-16
4.86399e-16
4.80949e-16
4.9743e-16
4.96889e-16
4.85057e-16
4.85361e-16
4.8318e-16
4.84847e-16
4.82389e-16
4.86165e-16
4.95043e-16
4.96754e-16
4.95501e-16
4.81455e-16
5.06252e-16
4.93603e-16
5.02419e-16
4.8598e-16
5.04249e-16
4.87961e-16
4.85258e-16
4.84545e-16
4.76809e-16
4.8965e-16
5.02898e-16
4.98005e-16
5.03764e-16
4.82802e-16
4.88553e-16
4.94113e-16
4.86053e-16
4.88278e-16
4.98972e-16
4.91576e-16
5.02156e-16
4.85995e-16
5.00057e-16
5.0357e-16
4.83191e-16
4.87728e-16
5.03572e-16
4.81929e-16
5.00071e-16
4.98215e-16
4.83323e-16
4.91755e-16
4.76812e-16
4.90805e-16
4.7637e-16
4.87174e-16
4.90279e-16
5.05379e-16
4.84354e-16
5.07063e-16
5.05494e-16
4.77392e-16
4.82812e-16
4.84966e-16
4.91099e-16
4.85246e-16
4.83392e-16
5.0384e-16
4.7793e-16
4.94511e-16
4.88246e-16
4.80989e-16
4.9249e-16
4.81116e-16
4.78213e-16
4.75978e-16
5.04207e-16
4.85391e-16
4.90191e-16
4.85523e-16
4.97404e-16
4.89568e-16
4.89434e-16
4.74338e-16
4.88347e-16
4.86272e-16
4.76632e-16
4.90201e-16
4.78846e-16
4.98607e-16
4.86953e-16
4.93046e-16
5.03299e-16
4.81997e-16
4.81217e-16
4.84738e-16
4.84165e-16
4.844e-16
4.97502e-16
4.87996e-16
4.88236e-16
4.84676e-16
5.03153e-16
4.8361e-16
4.95457e-16
4.94661e-16
5.0123e-16
4.99713e-16
5.0285e-16
4.77735e-16
4.84612e-16
4.94487e-16
4.84769e-16
4.97557e-16
4.97953e-16
4.83066e-16
4.77671e-16
4.82163e-16
5.02186e-16
4.91345e-16
4.75017e-16
4.8976e-16
4.88773e-16
4.99868e-16
4.92661e-16
4.9713e-16
4.99539e-16
4.85999e-16
4.8396e-16
4.76362e-16
4.74505e-16
4.88696e-16
5.00483e-16
4.76228e-16
4.97106e-16
5.01755e-16
5.01988e-16
4.84058e-16
4.91065e-16
4.88861e-16
4.99569e-16
4.85256e-16
5.01082e-16
5.00971e-16
4.77242e-16
4.97163e-16
4.90179e-16
4.93417e-16
4.84003e-16
4.96194e-16
4.90549e-16
4.98503e-16
4.9821e-16
4.90672e-16
4.76665e-16
4.89868e-16
4.85184e-16
4.92402e-16
4.73374e-16
4.87243e-16
4.73971e-16
4.85588e-16
4.94141e-16
4.89789e-16
4.76761e-16
4.89342e-16
5.01952e-16
4.76155e-16
4.90641e-16
4.76447e-16
4.84895e-16
4.9126e-16
4.77713e-16
4.84395e-16
4.91009e-16
4.92723e-16
4.84676e-16
4.81711e-16
5.02153e-16
4.92498e-16
5.01462e-16
5.02066e-16
4.92585e-16
4.76486e-16
4.90471e-16
4.86803e-16
4.81801e-16
4.75562e-16
4.90543e-16
4.77961e-16
4.94197e-16
4.88251e-16
4.76673e-16
4.92823e-16
4.99225e-16
5.00808e-16
4.8057e-16
4.86101e-16
5.02486e-16
4.85578e-16
4.8402e-16
4.78679e-16
4.98534e-16
5.01846e-16
4.82709e-16
4.93339e-16
4.95727e-16
4.81772e-16
4.82467e-16
4.99857e-16
4.94236e-16
4.84108e-16
4.98198e-16
4.98817e-16
4.89162e-16
5.02721e-16
4.84068e-16
5.02722e-16
4.92646e-16
4.83743e-16
4.78097e-16
4.94415e-16
4.74558e-16
4.83737e-16
4.7827e-16
4.7822e-16
5.04086e-16
4.90741e-16
4.88275e-16
4.808e-16
4.89883e-16
4.89229e-16
4.74197e-16
4.84728e-16
4.78893e-16
4.85541e-16
5.00099e-16
5.01887e-16
4.84108e-16
4.8665e-16
4.96935e-16
5.02411e-16
5.03766e-16
5.02399e-16
5.02353e-16
4.83417e-16
5.00084e-16
4.96874e-16
4.81417e-16
4.76081e-16
4.85978e-16
4.89008e-16
4.96753e-16
4.89233e-16
4.95083e-16
4.93901e-16
5.01189e-16
4.84786e-16
4.73757e-16
4.82134e-16
4.81463e-16
4.77009e-16
4.88702e-16
4.9282e-16
4.86136e-16
5.02117e-16
4.99596e-16
5.02927e-16
5.02581e-16
4.82695e-16
4.73995e-16
4.99961e-16
4.98426e-16
4.88083e-16
4.99809e-16
4.87825e-16
4.95377e-16
4.83308e-16
4.82848e-16
5.01046e-16
5.01653e-16
4.87434e-16
4.8665e-16
5.01854e-16
4.73636e-16
4.73693e-16
4.82215e-16
4.87969e-16
4.73641e-16
4.87703e-16
5.00039e-16
4.93915e-16
4.71452e-16
4.86966e-16
4.85353e-16
4.81786e-16
5.0398e-16
4.94424e-16
4.73534e-16
4.94795e-16
5.0439e-16
4.97916e-16
4.9498e-16
4.8204e-16
5.02921e-16
4.86111e-16
5.06014e-16
5.02645e-16
4.86882e-16
4.94608e-16
4.94938e-16
4.86082e-16
4.84935e-16
4.85698e-16
4.8644e-16
5.01813e-16
4.94634e-16
4.94532e-16
5.00974e-16
4.89487e-16
4.71018e-16
4.98594e-16
4.8065e-16
4.86654e-16
4.83532e-16
5.00238e-16
4.85836e-16
4.72159e-16
5.01525e-16
4.84778e-16
4.81409e-16
4.73165e-16
4.97739e-16
4.8042e-16
4.98228e-16
5.05146e-16
4.97475e-16
4.9631e-16
4.86458e-16
4.71444e-16
4.83778e-16
4.85311e-16
4.86855e-16
4.90259e-16
4.86045e-16
4.74534e-16
4.89547e-16
4.98294e-16
4.78287e-16
4.75199e-16
4.8329e-16
4.92758e-16
4.92565e-16
4.86302e-16
4.8038e-16
4.7992e-16
4.77442e-16
4.87149e-16
4.78625e-16
4.82482e-16
4.76614e-16
4.89957e-16
4.92817e-16
4.82407e-16
4.76442e-16
4.8845e-16
4.81944e-16
4.95695e-16
4.90078e-16
4.82037e-16
4.74417e-16
4.85975e-16
4.83869e-16
4.99645e-16
4.90328e-16
4.99439e-16
4.78907e-16
4.75322e-16
4.95415e-16
4.85581e-16
4.9583e-16
4.87264e-16
4.84249e-16
4.91253e-16
4.99002e-16
4.77627e-16
4.80753e-16
4.91236e-16
5.00029e-16
4.99048e-16
4.84498e-16
4.79396e-16
4.92248e-16
4.99343e-16
4.88149e-16
4.99078e-16
4.80909e-16
4.7833e-16
4.97524e-16
4.92151e-16
4.78047e-16
4.91591e-16
5.01163e-16
4.8442e-16
4.93589e-16
4.95256e-16
4.80292e-16
4.75485e-16
4.95526e-16
4.89502e-16
4.93315e-16
4.85673e-16
4.80566e-16
4.86339e-16
4.8192e-16
4.82547e-16
4.79436e-16
4.94256e-16
4.8428e-16
4.7761e-16
4.90849e-16
4.90054e-16
4.78428e-16
4.9772e-16
4.80944e-16
5.03551e-16
5.0263e-16
5.02936e-16
5.01594e-16
4.89108e-16
5.01592e-16
4.98392e-16
4.83575e-16
4.87669e-16
4.82011e-16
4.99514e-16
4.81664e-16
5.00334e-16
4.97794e-16
4.98259e-16
4.86727e-16
4.87137e-16
4.87037e-16
4.9867e-16
4.81896e-16
4.84817e-16
5.01369e-16
4.75191e-16
4.83091e-16
4.79697e-16
4.9885e-16
5.03422e-16
4.89363e-16
5.01009e-16
4.86235e-16
4.86093e-16
4.87134e-16
5.00428e-16
4.8361e-16
4.8872e-16
5.02176e-16
4.86885e-16
4.95798e-16
4.85486e-16
4.82961e-16
4.98148e-16
4.99711e-16
4.8279e-16
4.85977e-16
5.0103e-16
5.00067e-16
5.00642e-16
5.02845e-16
5.01471e-16
4.88199e-16
4.96309e-16
5.04658e-16
4.9327e-16
4.90104e-16
4.96579e-16
5.02131e-16
4.92685e-16
5.04664e-16
4.85597e-16
4.87084e-16
4.80571e-16
4.86803e-16
4.95042e-16
5.02067e-16
4.85521e-16
5.01542e-16
4.86174e-16
4.84654e-16
4.90764e-16
4.8928e-16
5.01548e-16
4.83753e-16
5.01229e-16
5.02913e-16
4.91924e-16
4.89706e-16
5.02033e-16
4.81715e-16
4.98768e-16
4.84047e-16
4.83304e-16
4.89131e-16
4.85514e-16
5.04379e-16
4.99694e-16
4.87319e-16
5.03087e-16
4.87415e-16
5.02206e-16
4.90034e-16
4.83179e-16
4.88184e-16
5.02048e-16
4.89759e-16
4.99574e-16
4.86842e-16
5.00121e-16
4.88097e-16
4.98096e-16
4.84963e-16
4.98059e-16
4.84779e-16
4.9525e-16
4.83508e-16
4.96021e-16
4.8455e-16
4.97172e-16
4.84599e-16
4.95479e-16
4.82467e-16
4.9652e-16
4.84547e-16
4.9885e-16
4.86759e-16
4.98319e-16
4.85331e-16
4.97447e-16
4.84936e-16
4.97464e-16
4.85621e-16
4.98845e-16
4.85981e-16
4.96786e-16
4.85436e-16
4.98314e-16
4.86683e-16
4.98872e-16
4.86971e-16
4.98596e-16
4.84112e-16
4.98105e-16
4.85164e-16
4.97588e-16
4.85286e-16
4.97286e-16
4.85092e-16
4.99543e-16
4.87382e-16
4.98871e-16
4.86038e-16
4.98592e-16
4.84344e-16
4.98157e-16
4.86848e-16
4.96971e-16
4.86033e-16
5.00076e-16
4.85824e-16
4.98301e-16
4.864e-16
4.96972e-16
4.85786e-16
4.98314e-16
4.86458e-16
4.98625e-16
4.85866e-16
4.99199e-16
4.88757e-16
5.01192e-16
4.88669e-16
5.01894e-16
4.89715e-16
5.02302e-16
4.89557e-16
5.00124e-16
4.88686e-16
5.00058e-16
4.88462e-16
5.00335e-16
4.88254e-16
5.01629e-16
4.89869e-16
5.02724e-16
4.90485e-16
5.03859e-16
4.93712e-16
5.03146e-16
4.91713e-16
5.03634e-16
4.91244e-16
5.0322e-16
4.94181e-16
5.02889e-16
4.89268e-16
5.04566e-16
4.87748e-16
5.00813e-16
4.91196e-16
4.99598e-16
4.88518e-16
5.02247e-16
4.90997e-16
5.01626e-16
4.86822e-16
4.98632e-16
4.8676e-16
4.99736e-16
4.87586e-16
4.99208e-16
4.87976e-16
5.0115e-16
4.88143e-16
4.99862e-16
4.85919e-16
4.99341e-16
4.8501e-16
4.9789e-16
4.87118e-16
4.97419e-16
4.86005e-16
4.96831e-16
4.84018e-16
4.97402e-16
4.84063e-16
4.9766e-16
4.85848e-16
4.97404e-16
4.86429e-16
4.98277e-16
4.87937e-16
5.03413e-16
4.90708e-16
5.0177e-16
4.87758e-16
5.02281e-16
4.89572e-16
5.01053e-16
4.86971e-16
5.01372e-16
4.86952e-16
4.99943e-16
4.86655e-16
4.99307e-16
4.87433e-16
5.00198e-16
4.87602e-16
5.00047e-16
4.85601e-16
4.98971e-16
4.8631e-16
5.00381e-16
4.88352e-16
5.00371e-16
4.86574e-16
4.97482e-16
4.84709e-16
4.97903e-16
4.85315e-16
4.98846e-16
4.86294e-16
4.99225e-16
4.85914e-16
4.99538e-16
4.87496e-16
4.99234e-16
4.87658e-16
5.00141e-16
4.86279e-16
5.00414e-16
4.88173e-16
5.01813e-16
4.88289e-16
5.00865e-16
4.88226e-16
5.01425e-16
4.89212e-16
5.01242e-16
4.89059e-16
5.01346e-16
4.86759e-16
5.01419e-16
4.88075e-16
4.97853e-16
4.84835e-16
4.98519e-16
4.86487e-16
4.97701e-16
4.84174e-16
4.95891e-16
4.84094e-16
4.96721e-16
4.85364e-16
4.98519e-16
4.86648e-16
4.99771e-16
4.89348e-16
5.01547e-16
4.89934e-16
5.01732e-16
4.8939e-16
5.0236e-16
4.88473e-16
4.99205e-16
4.87462e-16
4.98154e-16
4.87934e-16
4.97938e-16
4.87848e-16
4.97781e-16
4.89563e-16
4.99347e-16
4.89264e-16
5.05476e-16
4.88357e-16
5.00338e-16
4.90598e-16
5.01524e-16
4.88332e-16
5.01928e-16
4.9254e-16
5.03066e-16
4.92536e-16
5.03504e-16
4.85567e-16
5.01203e-16
4.89752e-16
4.99044e-16
4.86375e-16
5.00165e-16
4.90086e-16
5.01749e-16
4.85965e-16
4.97944e-16
4.85222e-16
4.99667e-16
4.87871e-16
4.98979e-16
4.86481e-16
4.98896e-16
4.87481e-16
4.99914e-16
4.86764e-16
4.99606e-16
4.85958e-16
4.97852e-16
4.85238e-16
4.97189e-16
4.86148e-16
4.96387e-16
4.8429e-16
4.97567e-16
4.83697e-16
4.97312e-16
4.83586e-16
4.9554e-16
4.83932e-16
4.9832e-16
4.8531e-16
5.00678e-16
4.89109e-16
5.00509e-16
4.87964e-16
5.01671e-16
4.89884e-16
5.01613e-16
4.87935e-16
5.00225e-16
4.87041e-16
5.0085e-16
4.87456e-16
4.99978e-16
4.8802e-16
4.99722e-16
4.87442e-16
4.99976e-16
4.86608e-16
5.00591e-16
4.88112e-16
5.0083e-16
4.89383e-16
5.00721e-16
4.87918e-16
4.98311e-16
4.85907e-16
4.97673e-16
4.85627e-16
4.96985e-16
4.8543e-16
4.96845e-16
4.84817e-16
4.98299e-16
4.87372e-16
4.98361e-16
4.86824e-16
4.97265e-16
4.84889e-16
4.98042e-16
4.87554e-16
4.99038e-16
4.86638e-16
4.99291e-16
4.87516e-16
4.99667e-16
4.87945e-16
4.99811e-16
4.88084e-16
4.99016e-16
4.87603e-16
4.98773e-16
4.87549e-16
4.97961e-16
4.84554e-16
4.98256e-16
4.85479e-16
4.97364e-16
4.83804e-16
4.95511e-16
4.83281e-16
4.97364e-16
4.85566e-16
4.98412e-16
4.85521e-16
4.9897e-16
4.8785e-16
5.01081e-16
4.89942e-16
5.01033e-16
4.89092e-16
5.01493e-16
4.87882e-16
4.99832e-16
4.86206e-16
4.98432e-16
4.85606e-16
4.98765e-16
4.85339e-16
4.98228e-16
4.8721e-16
4.97259e-16
4.89012e-16
4.98633e-16
4.82879e-16
4.97042e-16
4.86717e-16
4.97842e-16
4.85227e-16
4.99364e-16
4.87243e-16
5.01277e-16
4.92287e-16
5.01351e-16
4.85942e-16
4.99503e-16
4.87972e-16
5.00387e-16
4.86894e-16
4.99239e-16
4.87514e-16
5.00676e-16
4.87824e-16
4.99729e-16
4.85633e-16
4.99824e-16
4.89136e-16
5.0151e-16
4.89047e-16
5.00749e-16
4.87715e-16
5.00377e-16
4.87366e-16
4.99603e-16
4.85984e-16
4.97856e-16
4.837e-16
4.96074e-16
4.84034e-16
4.94461e-16
4.83356e-16
4.96263e-16
4.84428e-16
4.99029e-16
4.85324e-16
4.97005e-16
4.85218e-16
4.99029e-16
4.8622e-16
4.99996e-16
4.87024e-16
4.98583e-16
4.87247e-16
5.01375e-16
4.89834e-16
5.02721e-16
4.89084e-16
5.00145e-16
4.87036e-16
4.99478e-16
4.86677e-16
4.99678e-16
4.87426e-16
4.99846e-16
4.867e-16
4.98729e-16
4.84517e-16
4.99148e-16
4.86584e-16
4.99426e-16
4.87017e-16
4.99774e-16
4.86988e-16
4.98288e-16
4.84674e-16
4.98475e-16
4.85675e-16
4.97492e-16
4.85005e-16
4.94413e-16
4.82427e-16
4.96256e-16
4.85549e-16
4.96579e-16
4.84461e-16
4.943e-16
4.81293e-16
4.94505e-16
4.842e-16
4.9497e-16
4.82616e-16
4.95921e-16
4.84333e-16
4.96049e-16
4.8407e-16
4.97033e-16
4.85094e-16
4.97711e-16
4.85761e-16
4.97319e-16
4.84497e-16
4.96684e-16
4.85242e-16
4.97834e-16
4.85648e-16
4.97943e-16
4.84793e-16
4.95108e-16
4.82661e-16
4.95742e-16
4.85583e-16
4.97643e-16
4.84899e-16
4.97828e-16
4.85847e-16
4.98774e-16
4.87191e-16
4.9889e-16
4.86647e-16
4.98498e-16
4.86047e-16
4.98369e-16
4.86039e-16
4.97047e-16
4.83771e-16
4.97198e-16
4.83822e-16
4.99257e-16
4.85732e-16
4.99783e-16
4.87465e-16
4.9751e-16
4.83521e-16
4.97728e-16
4.85925e-16
4.98265e-16
4.86588e-16
4.9996e-16
4.8653e-16
5.01107e-16
4.91187e-16
5.00518e-16
4.86599e-16
4.96646e-16
4.83769e-16
4.9705e-16
4.86786e-16
4.98962e-16
4.86317e-16
4.98562e-16
4.87686e-16
5.00701e-16
4.85937e-16
4.99846e-16
4.87146e-16
4.99435e-16
4.88895e-16
5.00929e-16
4.8717e-16
4.99567e-16
4.87316e-16
4.99899e-16
4.86733e-16
4.98851e-16
4.84324e-16
4.97483e-16
4.83855e-16
4.94995e-16
4.83289e-16
4.95465e-16
4.83361e-16
4.97616e-16
4.85749e-16
4.9712e-16
4.83838e-16
4.98041e-16
4.86559e-16
5.01425e-16
4.88183e-16
5.00677e-16
4.8765e-16
5.0247e-16
4.89818e-16
5.03133e-16
4.90617e-16
5.026e-16
4.88863e-16
5.016e-16
4.89095e-16
5.01559e-16
4.89823e-16
5.02012e-16
4.8962e-16
5.0165e-16
4.8683e-16
4.99779e-16
4.86998e-16
4.99629e-16
4.86237e-16
4.99528e-16
4.87714e-16
4.98057e-16
4.83606e-16
4.98212e-16
4.85482e-16
4.99495e-16
4.85666e-16
4.95753e-16
4.8136e-16
4.97268e-16
4.851e-16
4.9602e-16
4.83157e-16
4.95152e-16
4.80838e-16
4.94864e-16
4.82871e-16
4.95167e-16
4.81453e-16
4.95873e-16
4.83329e-16
4.94857e-16
4.82171e-16
4.95283e-16
4.84212e-16
4.96596e-16
4.84207e-16
4.99106e-16
4.84625e-16
4.97205e-16
4.83701e-16
4.96026e-16
4.84153e-16
4.97329e-16
4.84991e-16
4.96293e-16
4.82479e-16
4.9677e-16
4.8576e-16
4.98189e-16
4.85715e-16
4.99201e-16
4.8545e-16
4.98557e-16
4.84477e-16
4.97528e-16
4.8405e-16
4.95288e-16
4.82735e-16
4.9659e-16
4.85282e-16
4.9837e-16
4.85244e-16
4.98544e-16
4.85657e-16
4.99555e-16
4.87154e-16
5.01165e-16
4.87679e-16
4.99626e-16
4.86505e-16
5.00061e-16
4.87021e-16
5.00182e-16
4.87929e-16
5.01087e-16
4.86693e-16
5.00343e-16
4.88753e-16
4.99797e-16
4.86779e-16
4.97015e-16
4.80937e-16
4.953e-16
4.84875e-16
4.98112e-16
4.84426e-16
4.96175e-16
4.84616e-16
4.97408e-16
4.85494e-16
5.00789e-16
4.86801e-16
4.98789e-16
4.87624e-16
5.01481e-16
4.87607e-16
4.9949e-16
4.86011e-16
4.99332e-16
4.87648e-16
4.99739e-16
4.85745e-16
4.98455e-16
4.85585e-16
4.96281e-16
4.83277e-16
4.98069e-16
4.83596e-16
4.97801e-16
4.86056e-16
4.95401e-16
4.83179e-16
4.98999e-16
4.8766e-16
5.01356e-16
4.90013e-16
5.01865e-16
4.89317e-16
5.03493e-16
4.90813e-16
5.03157e-16
4.91635e-16
5.021e-16
4.88327e-16
5.01745e-16
4.8893e-16
5.00815e-16
4.88138e-16
5.00239e-16
4.87972e-16
5.00256e-16
4.8758e-16
5.00263e-16
4.87288e-16
4.99264e-16
4.86057e-16
4.98282e-16
4.87243e-16
4.99227e-16
4.84559e-16
4.97839e-16
4.85186e-16
4.97761e-16
4.86386e-16
4.96132e-16
4.81824e-16
4.98489e-16
4.85506e-16
4.95743e-16
4.82295e-16
4.94891e-16
4.8381e-16
4.96599e-16
4.85299e-16
4.98231e-16
4.85847e-16
5.00293e-16
4.85491e-16
4.98688e-16
4.8533e-16
4.97705e-16
4.86704e-16
4.96448e-16
4.85251e-16
4.9827e-16
4.88362e-16
4.98791e-16
4.85453e-16
4.98261e-16
4.82213e-16
4.97453e-16
4.86725e-16
4.97424e-16
4.8378e-16
4.97674e-16
4.85189e-16
4.97391e-16
4.85785e-16
4.99123e-16
4.87291e-16
4.99984e-16
4.86329e-16
5.00637e-16
4.86813e-16
4.98286e-16
4.86063e-16
4.99637e-16
4.87516e-16
5.00342e-16
4.872e-16
4.99308e-16
4.86604e-16
4.99431e-16
4.87086e-16
5.00357e-16
4.87086e-16
4.98739e-16
4.85869e-16
4.98618e-16
4.85598e-16
4.99772e-16
4.87834e-16
5.01278e-16
4.87112e-16
5.01953e-16
4.88885e-16
5.01603e-16
4.91035e-16
5.01246e-16
4.84821e-16
4.99014e-16
4.87665e-16
5.01106e-16
4.8835e-16
5.01471e-16
4.87373e-16
4.98979e-16
4.86719e-16
5.01521e-16
4.8819e-16
4.99332e-16
4.87143e-16
5.00129e-16
4.88619e-16
5.01163e-16
4.8632e-16
4.99087e-16
4.86812e-16
4.992e-16
4.8609e-16
4.99032e-16
4.8708e-16
4.95786e-16
4.83304e-16
4.97819e-16
4.84676e-16
4.9963e-16
4.87157e-16
4.96432e-16
4.84406e-16
4.99384e-16
4.90208e-16
5.02602e-16
4.90841e-16
5.02055e-16
4.90355e-16
5.03419e-16
4.90228e-16
5.02951e-16
4.90755e-16
5.00879e-16
4.86928e-16
4.985e-16
4.86953e-16
5.00234e-16
4.87431e-16
5.01053e-16
4.86984e-16
4.98901e-16
4.86163e-16
4.99119e-16
4.8709e-16
4.99722e-16
4.86597e-16
4.97788e-16
4.85942e-16
4.99098e-16
4.86557e-16
5.00326e-16
4.87199e-16
4.97918e-16
4.87682e-16
4.97127e-16
4.84107e-16
4.98204e-16
4.85784e-16
4.97671e-16
4.82006e-16
4.94284e-16
4.82661e-16
4.96571e-16
4.8409e-16
4.9875e-16
4.87418e-16
4.97747e-16
4.83076e-16
4.97291e-16
4.83713e-16
4.9696e-16
4.84172e-16
4.97053e-16
4.83053e-16
4.98146e-16
4.86984e-16
4.98258e-16
4.8699e-16
4.96418e-16
4.80469e-16
4.95408e-16
4.84693e-16
4.95945e-16
4.83917e-16
4.96041e-16
4.83467e-16
4.96516e-16
4.83963e-16
4.9649e-16
4.86691e-16
4.98395e-16
4.8644e-16
5.00212e-16
4.86472e-16
4.98443e-16
4.86434e-16
4.9968e-16
4.87625e-16
5.00721e-16
4.8703e-16
4.99204e-16
4.86855e-16
4.99076e-16
4.86892e-16
4.99599e-16
4.86483e-16
4.99533e-16
4.87137e-16
4.98327e-16
4.85448e-16
4.99515e-16
4.87961e-16
4.99446e-16
4.86924e-16
5.00763e-16
4.87236e-16
4.99832e-16
4.90026e-16
5.00797e-16
4.8602e-16
4.98214e-16
4.86357e-16
4.99007e-16
4.88438e-16
5.01289e-16
4.88206e-16
5.00108e-16
4.87273e-16
5.00787e-16
4.87732e-16
4.99984e-16
4.87008e-16
4.98422e-16
4.87856e-16
5.00239e-16
4.86775e-16
4.99219e-16
4.85959e-16
4.97162e-16
4.84589e-16
4.97424e-16
4.85407e-16
4.96466e-16
4.82713e-16
4.96122e-16
4.83495e-16
4.97212e-16
4.84958e-16
4.96153e-16
4.83814e-16
4.98364e-16
4.92559e-16
5.03793e-16
4.90644e-16
5.02991e-16
4.90095e-16
5.01695e-16
4.89933e-16
5.02977e-16
4.90787e-16
5.02412e-16
4.89364e-16
4.98568e-16
4.86401e-16
4.99739e-16
4.88313e-16
5.01815e-16
4.87724e-16
5.01012e-16
4.87035e-16
4.98784e-16
4.8722e-16
4.9984e-16
4.87677e-16
4.98541e-16
4.84693e-16
4.98388e-16
4.85587e-16
5.01022e-16
4.87045e-16
4.9914e-16
4.86013e-16
4.98271e-16
4.84111e-16
4.98044e-16
4.85045e-16
4.98966e-16
4.84437e-16
4.98131e-16
4.85289e-16
5.00115e-16
4.86993e-16
5.02738e-16
4.90761e-16
4.98887e-16
4.84933e-16
4.98656e-16
4.87e-16
4.98918e-16
4.86474e-16
4.99371e-16
4.85913e-16
5.00591e-16
4.86672e-16
4.99102e-16
4.87513e-16
4.97863e-16
4.83104e-16
4.96604e-16
4.84265e-16
4.9609e-16
4.83828e-16
4.95164e-16
4.82217e-16
4.97422e-16
4.82711e-16
4.96137e-16
4.83896e-16
4.97423e-16
4.84471e-16
4.98696e-16
4.85312e-16
4.98402e-16
4.85605e-16
5.00268e-16
4.8825e-16
5.02805e-16
4.89396e-16
5.03467e-16
4.90238e-16
5.03281e-16
4.89517e-16
5.01604e-16
4.88004e-16
5.01777e-16
4.89791e-16
4.99827e-16
4.86812e-16
5.01098e-16
4.89067e-16
5.00253e-16
4.87306e-16
5.00382e-16
4.86415e-16
4.97947e-16
4.86827e-16
4.99299e-16
4.86384e-16
4.9907e-16
4.862e-16
4.99995e-16
4.8741e-16
5.00325e-16
4.87968e-16
5.00576e-16
4.87915e-16
5.01424e-16
4.87513e-16
5.0112e-16
4.88317e-16
5.00476e-16
4.87878e-16
5.00864e-16
4.8865e-16
5.02589e-16
4.87849e-16
4.99868e-16
4.85041e-16
4.97661e-16
4.85229e-16
4.97758e-16
4.83993e-16
4.97625e-16
4.84351e-16
4.97653e-16
4.85275e-16
4.97345e-16
4.85575e-16
4.99659e-16
5.01922e-16
4.9038e-16
5.017e-16
4.90432e-16
5.02555e-16
4.88985e-16
4.988e-16
4.87361e-16
5.00524e-16
4.8905e-16
5.01282e-16
4.89026e-16
4.99953e-16
4.86038e-16
4.99661e-16
4.87386e-16
4.97787e-16
4.85471e-16
5.00205e-16
4.86364e-16
4.98149e-16
4.85653e-16
4.98119e-16
4.86868e-16
4.99019e-16
4.84552e-16
4.99326e-16
4.85253e-16
4.99218e-16
4.88829e-16
5.00627e-16
4.88422e-16
5.01625e-16
4.88921e-16
5.01972e-16
4.88659e-16
5.00032e-16
4.86713e-16
4.99889e-16
4.876e-16
4.99908e-16
4.87782e-16
5.01449e-16
4.9014e-16
4.99476e-16
4.85051e-16
4.981e-16
4.86303e-16
4.98784e-16
4.85837e-16
4.98431e-16
4.86369e-16
4.99337e-16
4.85435e-16
4.97875e-16
4.85176e-16
4.97059e-16
4.83799e-16
4.97425e-16
4.83982e-16
4.96702e-16
4.84213e-16
4.94374e-16
4.82334e-16
4.97934e-16
4.85053e-16
4.98193e-16
4.84846e-16
4.97741e-16
4.86217e-16
4.99324e-16
4.87913e-16
4.99529e-16
4.87624e-16
5.01858e-16
4.89483e-16
5.0224e-16
4.90218e-16
5.03521e-16
4.91637e-16
5.03072e-16
4.9022e-16
5.01213e-16
4.88288e-16
5.01172e-16
4.89415e-16
4.99043e-16
4.85929e-16
4.99163e-16
4.8749e-16
4.98359e-16
4.86416e-16
4.98885e-16
4.8511e-16
4.97681e-16
4.85445e-16
4.97777e-16
4.85894e-16
4.96893e-16
4.85629e-16
4.98977e-16
4.86748e-16
4.99405e-16
4.87736e-16
4.99747e-16
4.88243e-16
5.01692e-16
4.88922e-16
5.01059e-16
4.88948e-16
5.0211e-16
4.88695e-16
5.01496e-16
4.89207e-16
5.01738e-16
4.89342e-16
5.02186e-16
4.86433e-16
4.99639e-16
4.86793e-16
4.99173e-16
4.8654e-16
4.98888e-16
4.86181e-16
4.98967e-16
4.87189e-16
4.9789e-16
4.87377e-16
5.00827e-16
4.86834e-16
5.00453e-16
4.88158e-16
4.99205e-16
4.88154e-16
4.9996e-16
4.8634e-16
4.98196e-16
4.85613e-16
4.98321e-16
4.86737e-16
4.97504e-16
4.86941e-16
4.9772e-16
4.86043e-16
5.00643e-16
4.84231e-16
4.95758e-16
4.84749e-16
4.98326e-16
4.87398e-16
4.99278e-16
4.88618e-16
4.97081e-16
4.89512e-16
4.96866e-16
4.87651e-16
5.03524e-16
4.83717e-16
5.00172e-16
4.90574e-16
4.99456e-16
4.87689e-16
4.99645e-16
4.87745e-16
4.99833e-16
4.87291e-16
4.97182e-16
4.84397e-16
4.96368e-16
4.85222e-16
4.97723e-16
4.85066e-16
4.98664e-16
4.86978e-16
4.98166e-16
4.85135e-16
4.97047e-16
4.84399e-16
4.99153e-16
4.86575e-16
4.98753e-16
4.86168e-16
4.99008e-16
4.85536e-16
4.98676e-16
4.8515e-16
4.97734e-16
4.85063e-16
4.9854e-16
4.85755e-16
5.00532e-16
4.87837e-16
4.98588e-16
4.85068e-16
4.99076e-16
4.87506e-16
4.99772e-16
4.85525e-16
4.97511e-16
4.86221e-16
4.97786e-16
4.8657e-16
4.98535e-16
4.86599e-16
5.00607e-16
4.86619e-16
4.99287e-16
4.87322e-16
5.0017e-16
4.89817e-16
5.01651e-16
4.88134e-16
4.99662e-16
4.86397e-16
4.99393e-16
4.87986e-16
4.99156e-16
4.8557e-16
4.99407e-16
4.86705e-16
4.97513e-16
4.84237e-16
4.96485e-16
4.82915e-16
4.94481e-16
4.82329e-16
4.95283e-16
4.83608e-16
4.94337e-16
4.82625e-16
4.95966e-16
4.8444e-16
4.96638e-16
4.85065e-16
4.97436e-16
4.86015e-16
4.99729e-16
4.88394e-16
4.99947e-16
4.87647e-16
5.00449e-16
4.88605e-16
5.02715e-16
4.89692e-16
5.00985e-16
4.90176e-16
5.02758e-16
4.88388e-16
5.00106e-16
4.87145e-16
4.99544e-16
4.87656e-16
4.99094e-16
4.85715e-16
4.98951e-16
4.85842e-16
4.96292e-16
4.85855e-16
4.98563e-16
4.89364e-16
5.04512e-16
4.90982e-16
5.03535e-16
4.90111e-16
5.01752e-16
4.87799e-16
5.00701e-16
4.86864e-16
5.00318e-16
4.86412e-16
5.00092e-16
4.87473e-16
4.99068e-16
4.89153e-16
4.98697e-16
4.83169e-16
4.97398e-16
4.83879e-16
4.97131e-16
4.8567e-16
4.99908e-16
4.86863e-16
5.00182e-16
4.87069e-16
4.96773e-16
4.88805e-16
4.98106e-16
4.81099e-16
4.98551e-16
4.87355e-16
4.97115e-16
4.8524e-16
4.97788e-16
4.85089e-16
4.97206e-16
4.84348e-16
4.96238e-16
4.82118e-16
4.93564e-16
4.81996e-16
4.95008e-16
4.82869e-16
4.97779e-16
4.8524e-16
4.97545e-16
4.85175e-16
4.96117e-16
4.8421e-16
4.99254e-16
4.88186e-16
5.00273e-16
4.88239e-16
5.01362e-16
4.88339e-16
5.00067e-16
4.86206e-16
4.99825e-16
4.85988e-16
4.98606e-16
4.8635e-16
4.98954e-16
4.87909e-16
5.0133e-16
4.87466e-16
5.00567e-16
4.87373e-16
4.99934e-16
4.84859e-16
4.97259e-16
4.85488e-16
4.97055e-16
4.86317e-16
4.98386e-16
4.87346e-16
5.00649e-16
4.87329e-16
5.01304e-16
4.87997e-16
5.00811e-16
4.88074e-16
5.01001e-16
4.88233e-16
4.99758e-16
4.85604e-16
4.99787e-16
4.8793e-16
5.00216e-16
4.87042e-16
5.01642e-16
4.88417e-16
4.99814e-16
4.847e-16
4.97891e-16
4.84225e-16
4.95607e-16
4.81939e-16
4.96231e-16
4.84558e-16
4.95676e-16
4.82382e-16
4.95269e-16
4.83227e-16
4.96136e-16
4.8388e-16
4.96808e-16
4.85042e-16
4.97341e-16
4.8613e-16
4.99759e-16
4.87517e-16
4.9833e-16
4.86774e-16
5.01109e-16
4.88444e-16
4.9942e-16
4.87614e-16
5.0096e-16
4.87629e-16
4.99614e-16
4.85729e-16
4.97819e-16
4.86513e-16
4.97756e-16
4.84837e-16
4.98656e-16
4.84472e-16
4.96959e-16
4.84005e-16
4.98586e-16
4.89857e-16
5.02945e-16
4.91253e-16
5.03083e-16
4.90191e-16
5.0174e-16
4.89571e-16
5.01021e-16
4.88056e-16
5.0078e-16
4.8751e-16
5.02488e-16
4.8882e-16
5.00765e-16
4.88411e-16
4.9711e-16
4.83574e-16
4.9789e-16
4.84353e-16
4.97987e-16
4.85905e-16
4.98678e-16
4.87188e-16
5.02253e-16
4.8852e-16
5.00757e-16
4.88991e-16
4.97926e-16
4.82396e-16
4.99247e-16
4.86131e-16
4.97107e-16
4.84285e-16
4.97285e-16
4.84753e-16
4.95985e-16
4.83858e-16
4.96493e-16
4.8416e-16
4.95823e-16
4.83644e-16
4.97266e-16
4.85047e-16
4.98524e-16
4.85846e-16
4.98807e-16
4.85446e-16
4.96674e-16
4.842e-16
4.98242e-16
4.86965e-16
4.99654e-16
4.88421e-16
5.00933e-16
4.89566e-16
4.99793e-16
4.87475e-16
5.00404e-16
4.86575e-16
4.99636e-16
4.86632e-16
4.96647e-16
4.84571e-16
4.98573e-16
4.88267e-16
5.0087e-16
4.88814e-16
5.00942e-16
4.86874e-16
4.9805e-16
4.85279e-16
4.97479e-16
4.86118e-16
4.98033e-16
4.86305e-16
4.98507e-16
4.86416e-16
5.00732e-16
4.88747e-16
4.98575e-16
4.84768e-16
4.97997e-16
4.87324e-16
4.99933e-16
4.86268e-16
5.00347e-16
4.87484e-16
5.00767e-16
4.88504e-16
5.02379e-16
4.90441e-16
5.03045e-16
4.87126e-16
5.00367e-16
4.8715e-16
4.99857e-16
4.84135e-16
4.97938e-16
4.86058e-16
4.98834e-16
4.84056e-16
4.98063e-16
4.83795e-16
4.97539e-16
4.83485e-16
4.99001e-16
4.86234e-16
4.97062e-16
4.84894e-16
5.01158e-16
4.88263e-16
4.99895e-16
4.86616e-16
5.01293e-16
4.89604e-16
4.99678e-16
4.8679e-16
4.99568e-16
4.86911e-16
4.99631e-16
4.8664e-16
4.97889e-16
4.8591e-16
4.9836e-16
4.87031e-16
4.99916e-16
4.87832e-16
4.9838e-16
4.85371e-16
5.00467e-16
4.87703e-16
5.00541e-16
4.89296e-16
5.00763e-16
4.88604e-16
4.98924e-16
4.87064e-16
5.00415e-16
4.88218e-16
4.99089e-16
4.86387e-16
4.99652e-16
4.8804e-16
4.99175e-16
4.86754e-16
4.96603e-16
4.83885e-16
4.95765e-16
4.82794e-16
4.97601e-16
4.85058e-16
4.97669e-16
4.85441e-16
5.00298e-16
4.87919e-16
4.9985e-16
4.87297e-16
4.96882e-16
4.83913e-16
4.98079e-16
4.86431e-16
4.98767e-16
4.85784e-16
4.98729e-16
4.85743e-16
4.96996e-16
4.83068e-16
4.96447e-16
4.84979e-16
4.94998e-16
4.83225e-16
4.96878e-16
4.85476e-16
4.98145e-16
4.86214e-16
4.98239e-16
4.85806e-16
4.96406e-16
4.83916e-16
4.98415e-16
4.87199e-16
4.99326e-16
4.87753e-16
4.99093e-16
4.87554e-16
4.976e-16
4.8733e-16
4.98433e-16
4.8666e-16
4.99918e-16
4.8527e-16
4.97402e-16
4.83281e-16
4.96786e-16
4.86357e-16
4.98034e-16
4.86968e-16
4.99389e-16
4.86623e-16
4.98027e-16
4.84603e-16
4.96737e-16
4.84545e-16
4.98582e-16
4.85736e-16
4.98547e-16
4.84328e-16
4.9845e-16
4.86452e-16
4.98274e-16
4.83859e-16
4.96786e-16
4.8552e-16
4.99205e-16
4.86365e-16
5.00251e-16
4.87159e-16
5.0068e-16
4.87812e-16
5.01733e-16
4.91236e-16
5.03959e-16
4.89349e-16
5.01316e-16
4.88479e-16
5.02242e-16
4.88282e-16
5.00045e-16
4.87734e-16
5.00642e-16
4.88123e-16
5.01803e-16
4.89686e-16
5.0068e-16
4.87013e-16
5.01111e-16
4.88785e-16
4.99341e-16
4.87664e-16
5.00915e-16
4.88056e-16
5.00158e-16
4.8571e-16
4.98854e-16
4.87737e-16
4.98172e-16
4.85071e-16
4.99529e-16
4.86752e-16
4.98714e-16
4.86611e-16
4.99281e-16
4.85479e-16
4.98768e-16
4.8594e-16
4.99946e-16
4.88484e-16
4.97321e-16
4.8452e-16
4.97922e-16
4.85824e-16
5.00152e-16
4.87161e-16
5.00501e-16
4.87606e-16
4.97372e-16
4.83842e-16
4.99773e-16
4.88021e-16
4.9995e-16
4.85729e-16
4.98635e-16
4.85864e-16
4.9903e-16
4.86687e-16
4.9797e-16
4.8482e-16
4.96311e-16
4.82213e-16
4.96585e-16
4.86087e-16
4.97941e-16
4.85719e-16
4.99173e-16
4.87491e-16
4.99853e-16
4.872e-16
4.97936e-16
4.84691e-16
4.95986e-16
4.84481e-16
4.9799e-16
4.8676e-16
4.97527e-16
4.84907e-16
4.95302e-16
4.80395e-16
4.94676e-16
4.82989e-16
4.93739e-16
4.81192e-16
4.93971e-16
4.82572e-16
4.94988e-16
4.82602e-16
4.95515e-16
4.83934e-16
4.94264e-16
4.80529e-16
4.95853e-16
4.85156e-16
4.98033e-16
4.86838e-16
4.99449e-16
4.86069e-16
4.98456e-16
4.85899e-16
4.98643e-16
4.8799e-16
4.98098e-16
4.83519e-16
4.97622e-16
4.82827e-16
4.98632e-16
4.86349e-16
4.98598e-16
4.8568e-16
4.99113e-16
4.86811e-16
4.98956e-16
4.85678e-16
4.98026e-16
4.8556e-16
5.00139e-16
4.88844e-16
5.01919e-16
4.86969e-16
5.00358e-16
4.87348e-16
4.99396e-16
4.86789e-16
4.98579e-16
4.86868e-16
4.99126e-16
4.87446e-16
5.00405e-16
4.88597e-16
5.0231e-16
4.89258e-16
5.01901e-16
4.91249e-16
5.0297e-16
4.90743e-16
5.02437e-16
4.90253e-16
5.01417e-16
4.89541e-16
5.00542e-16
4.87512e-16
5.00039e-16
4.87175e-16
4.99488e-16
4.88354e-16
4.9997e-16
4.8654e-16
4.98821e-16
4.85903e-16
4.98441e-16
4.87496e-16
4.9971e-16
4.87609e-16
5.00877e-16
4.86648e-16
5.00102e-16
4.8745e-16
4.976e-16
4.84085e-16
4.99345e-16
4.87081e-16
4.98205e-16
4.87152e-16
4.99399e-16
4.86371e-16
4.98884e-16
4.85396e-16
4.99646e-16
4.8793e-16
4.98581e-16
4.84498e-16
4.97773e-16
4.88595e-16
5.02041e-16
4.8936e-16
5.02579e-16
4.89794e-16
5.00685e-16
4.8628e-16
5.00463e-16
4.88553e-16
5.01299e-16
4.87571e-16
4.99755e-16
4.86386e-16
4.99498e-16
4.87027e-16
4.98043e-16
4.84143e-16
4.96957e-16
4.82241e-16
4.9652e-16
4.85008e-16
4.98688e-16
4.85276e-16
4.9876e-16
4.85672e-16
4.98312e-16
4.85526e-16
4.99132e-16
4.85494e-16
4.97336e-16
4.82502e-16
4.98572e-16
4.87885e-16
4.98543e-16
4.85252e-16
4.96697e-16
4.8177e-16
4.96603e-16
4.84341e-16
4.96249e-16
4.8249e-16
4.94499e-16
4.81895e-16
4.94903e-16
4.82077e-16
4.95464e-16
4.83867e-16
4.95934e-16
4.81353e-16
4.96023e-16
4.84157e-16
4.97468e-16
4.86076e-16
4.98914e-16
4.869e-16
4.98864e-16
4.85444e-16
4.98028e-16
4.88927e-16
4.9712e-16
4.85869e-16
4.97461e-16
4.85355e-16
4.99932e-16
4.85695e-16
4.97677e-16
4.85853e-16
4.97781e-16
4.86703e-16
4.97343e-16
4.85474e-16
4.97935e-16
4.85884e-16
4.98188e-16
4.87742e-16
4.99129e-16
4.86783e-16
5.00078e-16
4.86777e-16
4.97378e-16
4.85173e-16
4.98037e-16
4.86367e-16
4.98306e-16
4.85476e-16
4.9783e-16
4.86538e-16
5.00525e-16
4.877e-16
5.0027e-16
4.87937e-16
4.99618e-16
4.8732e-16
5.002e-16
4.88481e-16
4.99348e-16
4.87486e-16
4.9858e-16
4.8626e-16
4.99799e-16
4.8705e-16
4.98282e-16
4.86435e-16
5.00135e-16
4.87977e-16
5.00534e-16
4.86863e-16
4.99013e-16
4.87295e-16
4.99773e-16
4.88567e-16
5.0109e-16
4.88342e-16
5.00274e-16
4.86928e-16
4.98247e-16
4.84635e-16
4.98443e-16
4.8585e-16
4.97974e-16
4.86397e-16
4.98312e-16
4.85141e-16
4.98674e-16
4.84629e-16
4.98063e-16
4.85873e-16
4.97415e-16
4.84186e-16
4.97854e-16
4.88401e-16
5.01381e-16