/*--------------------------------*- C++ -*----------------------------------*\
| =========                 |                                                 |
| \\      /  F ield         | OpenFOAM: The Open Source CFD Toolbox           |
|  \\    /   O peration     | Version:  2206                                  |
|   \\  /    A nd           | Website:  www.openfoam.com                      |
|    \\/     M anipulation  |                                                 |
\*---------------------------------------------------------------------------*/
FoamFile
{
    version     2.0;
    format      ascii;
    arch        "LSB;label=32;scalar=64";
    class       volScalarField;
    location    "0.9";
    object      p;
}
// * * * * * * * * * * * * * * * * * * * * * * * * * * * * * * * * * * * * * //

dimensions      [0 2 -2 0 0 0 0];

internalField   nonuniform List<scalar> 
185303
(
0.0250363
0.0201618
0.0276368
0.027957
0.0275176
0.0223664
0.0220696
0.0280947
0.0276604
0.0219466
0.0225366
0.0203333
0.0280961
0.0203081
0.0283581
0.0254391
0.0226858
0.0285011
0.0269072
0.0216236
0.0266507
0.0283531
0.0285257
0.0242981
0.0279515
0.0222455
0.0288201
0.0226573
0.026621
0.0229524
0.0215078
0.0250115
0.0200251
0.0229762
0.0289661
0.0207484
0.0277772
0.0228029
0.0228296
0.0270543
0.0241255
0.0215022
0.0218067
0.0280665
0.0216523
0.0254366
0.0290902
0.027078
0.0200192
0.0200476
0.0201614
0.0201919
0.0282326
0.0203107
0.0293921
0.0217997
0.0287958
0.0286517
0.0203429
0.0210714
0.0253218
0.02046
0.0262122
0.0272214
0.0292418
0.0204876
0.0207545
0.0285303
0.0206313
0.0206062
0.0228353
0.0206323
0.0207813
0.02222
0.0203374
0.0272005
0.0225445
0.0251519
0.0221008
0.0209004
0.0209281
0.0210476
0.0200534
0.0210767
0.0211934
0.0257656
0.0200209
0.0276628
0.0209002
0.0244244
0.0213624
0.0229783
0.0285294
0.0247444
0.0245967
0.0247109
0.0286813
0.0228422
0.0278029
0.022954
0.0200407
0.0245729
0.0206082
0.0211912
0.026762
0.0254399
0.0263507
0.0209281
0.0204607
0.0289655
0.0258766
0.0266156
0.025322
0.0212243
0.026644
0.0289368
0.0213392
0.0213677
0.0214797
0.0216258
0.0258802
0.0210438
0.0289428
0.0260288
0.0286766
0.0204818
0.0215071
0.021656
0.0217742
0.0214812
0.0218044
0.0292399
0.0255879
0.0210479
0.0250319
0.0219218
0.0212183
0.0274885
0.0273718
0.0201579
0.0250068
0.0219503
0.0257371
0.0220672
0.0273495
0.0201855
0.0234001
0.0222168
0.0242739
0.0280656
0.0223642
0.0223921
0.0225117
0.0267911
0.0267604
0.0225418
0.0226597
0.0226893
0.0276538
0.0270575
0.0228075
0.0228348
0.0229518
0.0228097
0.0229802
0.0231004
0.0231284
0.0279511
0.0232515
0.023283
0.0273644
0.0234026
0.0257375
0.0247373
0.0256145
0.0277749
0.0261811
0.0200158
0.0279235
0.0258888
0.0234339
0.023551
0.0210783
0.0235713
0.0235835
0.0236974
0.023727
0.0251584
0.0283795
0.0238695
0.0239847
0.0264711
0.0203055
0.0278027
0.0207756
0.0206018
0.0204784
0.0203334
0.0240152
0.0279241
0.0207474
0.0251794
0.0241292
0.0277801
0.0262067
0.0213671
0.0252959
0.0226605
0.029269
0.0287952
0.0255843
0.0286759
0.0213417
0.0217993
0.0222168
0.0242765
0.0209225
0.024307
0.0274943
0.0247472
0.0226834
0.0244577
0.0241597
0.0225099
0.0245707
0.0247212
0.0270781
0.0248658
0.0252964
0.024894
0.023863
0.0225382
0.0232777
0.0201662
0.0232514
0.0231241
0.0282393
0.0263292
0.0238369
0.0232535
0.0274873
0.024713
0.0248848
0.021046
0.021339
0.0272252
0.0250402
0.0223858
0.0251544
0.021921
0.0232826
0.0216285
0.026034
0.0252966
0.0254682
0.0251841
0.0248918
0.0269339
0.0253232
0.0254406
0.0266169
0.0241506
0.0208968
0.0263239
0.0213371
0.0242732
0.0269371
0.0254733
0.0269137
0.0222179
0.0255917
0.0248636
0.0243068
0.0280699
0.023127
0.0263587
0.0271953
0.0276299
0.0280915
0.0257424
0.0290892
0.0256226
0.0257744
0.0257662
0.0258855
0.0259093
0.0260265
0.0287946
0.0229545
0.0260583
0.0261766
0.0237203
0.0245964
0.0211946
0.021481
0.0262041
0.0225132
0.0282077
0.0244218
0.025587
0.0223893
0.0220675
0.0291179
0.0289404
0.0223646
0.0235724
0.0271994
0.027924
0.0222448
0.027808
0.0206254
0.0263239
0.024857
0.0228082
0.0252981
0.021774
0.0241572
0.026356
0.0273385
0.0273695
0.0264722
0.0234242
0.0269065
0.0266158
0.0265002
0.0286487
0.0222403
0.0207789
0.0266477
0.0282155
0.020928
0.0206001
0.0290906
0.0261792
0.0248637
0.0267626
0.0267964
0.0257666
0.0259115
0.0269124
0.029122
0.0240098
0.0269438
0.0270573
0.0208955
0.026059
0.0270849
0.0220922
0.0263275
0.0264732
0.0240073
0.0264996
0.02664
0.028532
0.0254687
0.0267832
0.0232744
0.0272307
0.0273475
0.0244261
0.0201869
0.0273722
0.0244553
0.0200476
0.0285067
0.0274889
0.0254641
0.0275191
0.0283828
0.0256176
0.0283521
0.0276314
0.0286515
0.0276595
0.027809
0.0236952
0.0288235
0.0231025
0.0253284
0.0291185
0.0279266
0.0284953
0.0279574
0.028826
0.0280712
0.0235481
0.0276301
0.0238646
0.028102
0.028213
0.0245648
0.0289697
0.0257377
0.026054
0.0282414
0.0204486
0.028356
0.0283867
0.0285048
0.0273418
0.0275119
0.028649
0.0250097
0.0286797
0.0220971
0.0287972
0.0292746
0.0289434
0.0270802
0.0289737
0.0272262
0.0267904
0.0259045
0.0264946
0.0290956
0.0265077
0.0291269
0.0292437
0.0240103
0.0292732
0.0264749
0.0259098
0.0245669
0.0239828
0.0241263
0.0238318
0.0238646
0.0235424
0.0277775
0.0282355
0.0212224
0.0261992
0.0261779
0.0263507
0.0271952
0.0238394
0.0270478
0.0269391
0.0207819
0.0215119
0.0267607
0.0283809
0.0244499
0.020455
0.0246028
0.0260619
0.0251806
0.0260301
0.0239778
0.0226937
0.023684
0.0241535
0.0243017
0.0244501
0.0236925
0.0234267
0.0223981
0.0225132
0.0250422
0.0235462
0.0210733
0.0212181
0.0250106
0.0241272
0.0204825
0.0248965
0.0214811
0.0282079
0.0216267
0.0233948
0.0244242
0.0234275
0.0232466
0.023102
0.0247184
0.0288249
0.0217743
0.0219226
0.0238371
0.0220684
0.0275198
0.0237169
0.0247428
0.0216572
0.0211933
0.0217733
0.0219456
0.0219218
0.0220922
0.0216508
0.0231343
0.0229856
0.0226595
0.0251836
0.0251546
0.0223673
0.0222522
0.0219528
0.0242741
0.0235759
0.0239824
0.0237191
0.0206314
0.0213697
0.0245943
0.0292414
0.020309
0.020196
0.0231013
0.0292675
0.0234012
0.0207515
0.0256154
0.0292696
0.0292364
0.0291188
0.0290878
0.0289711
0.0289387
0.0288218
0.0287888
0.0286757
0.0286442
0.0285282
0.0284979
0.0283831
0.028353
0.0282415
0.0282105
0.0280974
0.0280667
0.0279513
0.0279202
0.0278045
0.0277734
0.027659
0.0276285
0.0275159
0.0274857
0.0273715
0.0273411
0.0272243
0.0271935
0.0270799
0.0270502
0.0269358
0.0269051
0.0267893
0.0267594
0.0266475
0.026616
0.0265028
0.0264725
0.0263563
0.0263252
0.0262086
0.0261779
0.0260607
0.0260306
0.0259133
0.0258821
0.0257644
0.0257307
0.0256117
0.0255795
0.0254626
0.0254314
0.0253248
0.025293
0.0251789
0.0251486
0.0250374
0.0250069
0.024894
0.0248629
0.0247465
0.0247157
0.0245972
0.0245661
0.0244516
0.0244184
0.0243009
0.024269
0.0241523
0.0241215
0.0240039
0.0239729
0.023861
0.0238299
0.023717
0.0236868
0.0235723
0.0235414
0.0234265
0.0233953
0.0232784
0.0232472
0.0231305
0.0230989
0.0229831
0.0229525
0.0228382
0.0228074
0.022692
0.0226585
0.022542
0.0225119
0.0223941
0.0223643
0.0222473
0.0222175
0.0221004
0.0220695
0.0219507
0.0219186
0.0218039
0.0217742
0.0216578
0.0216272
0.021509
0.02148
0.0213659
0.0213345
0.0212194
0.0211869
0.0210723
0.0210417
0.0209243
0.0208962
0.0207812
0.0207489
0.020633
0.0206009
0.020484
0.0204538
0.0203365
0.020307
0.0201902
0.0201609
0.0200506
0.02002
0.0292674
0.0292359
0.0291137
0.0290823
0.0289653
0.028935
0.0288191
0.0287878
0.0286735
0.0286437
0.0285276
0.028498
0.0283827
0.0283533
0.02824
0.0282097
0.0280992
0.0280683
0.0279518
0.0279215
0.0278046
0.0277752
0.0276601
0.0276298
0.0275153
0.0274849
0.0273699
0.0273402
0.0272237
0.027195
0.0270811
0.0270522
0.0269365
0.0269071
0.0267896
0.0267603
0.0266478
0.0266183
0.0265035
0.0264745
0.0263574
0.0263282
0.0262108
0.0261808
0.0260608
0.0260309
0.0259119
0.0258812
0.0257621
0.0257303
0.0256103
0.0255796
0.0254614
0.0254309
0.0253228
0.0252934
0.0251786
0.0251483
0.0250352
0.0250069
0.0248925
0.0248625
0.024744
0.0247136
0.0245954
0.0245655
0.02445
0.0244187
0.0243008
0.0242694
0.024152
0.0241214
0.0240037
0.0239745
0.0238609
0.0238304
0.0237174
0.0236856
0.0235712
0.0235392
0.0234272
0.0233943
0.023283
0.0232555
0.0231322
0.0231042
0.0229846
0.0229558
0.0228401
0.0228127
0.0226943
0.0226631
0.0225445
0.0225138
0.0223956
0.0223687
0.0222473
0.0222175
0.0220983
0.0220698
0.0219514
0.0219207
0.0218044
0.0217756
0.0216596
0.02163
0.02151
0.021479
0.0213624
0.0213327
0.0212175
0.0211868
0.0210718
0.0210413
0.0209244
0.0208945
0.0207786
0.0207491
0.0206334
0.0206026
0.0204861
0.0204552
0.0203378
0.0203084
0.0201916
0.0201641
0.0200493
0.020019
0.0292655
0.0292346
0.0291144
0.0290848
0.0289664
0.0289366
0.0288189
0.0287879
0.0286731
0.0286429
0.0285287
0.0284995
0.0283849
0.0283552
0.0282397
0.0282094
0.0280981
0.0280673
0.0279528
0.0279217
0.0278052
0.0277747
0.0276594
0.0276284
0.0275153
0.0274844
0.0273711
0.02734
0.0272252
0.0271955
0.0270822
0.0270527
0.0269378
0.0269079
0.0267927
0.0267634
0.0266506
0.0266206
0.0265066
0.0264764
0.026359
0.0263293
0.0262112
0.026181
0.0260612
0.0260309
0.0259117
0.0258809
0.0257603
0.0257287
0.0256106
0.0255802
0.0254639
0.0254326
0.0253221
0.0252933
0.0251792
0.0251486
0.0250368
0.0250067
0.0248931
0.0248625
0.0247433
0.0247123
0.0245945
0.0245646
0.0244483
0.0244175
0.0242993
0.0242674
0.0241507
0.0241199
0.024005
0.0239743
0.0238586
0.0238282
0.023716
0.0236863
0.023571
0.0235411
0.0234277
0.0233952
0.023287
0.023253
0.0231342
0.0231055
0.0229846
0.0229541
0.0228402
0.0228103
0.0226932
0.0226637
0.0225449
0.0225118
0.0223966
0.022367
0.022249
0.0222183
0.0220994
0.0220693
0.021951
0.0219204
0.021805
0.0217741
0.0216586
0.021629
0.0215117
0.0214802
0.0213641
0.0213329
0.0212181
0.0211868
0.0210715
0.0210393
0.020923
0.0208914
0.0207754
0.0207447
0.0206301
0.0205988
0.0204848
0.0204542
0.0203404
0.0203096
0.0201934
0.0201633
0.0200501
0.0200197
0.0292654
0.0292332
0.0291121
0.0290819
0.0289647
0.0289346
0.0288176
0.0287869
0.0286724
0.0286416
0.0285294
0.0284995
0.0283855
0.0283551
0.02824
0.0282088
0.028097
0.0280658
0.0279508
0.0279203
0.0278049
0.0277741
0.0276586
0.0276282
0.0275153
0.0274853
0.0273712
0.0273403
0.0272261
0.0271961
0.0270833
0.0270543
0.0269399
0.0269101
0.0267946
0.0267649
0.0266522
0.0266214
0.0265071
0.0264765
0.0263601
0.026329
0.0262111
0.026181
0.0260596
0.0260294
0.0259102
0.0258802
0.0257588
0.0257293
0.0256109
0.0255807
0.0254627
0.025433
0.0253235
0.0252937
0.0251793
0.0251482
0.0250364
0.0250053
0.024894
0.0248631
0.0247439
0.024712
0.024593
0.0245621
0.0244449
0.0244143
0.0242966
0.0242655
0.0241493
0.0241198
0.0240059
0.0239757
0.02386
0.0238291
0.0237159
0.0236864
0.0235695
0.0235411
0.0234238
0.0233951
0.0232825
0.0232489
0.0231332
0.023102
0.0229845
0.022954
0.02284
0.0228084
0.0226928
0.0226638
0.0225445
0.0225124
0.0223951
0.0223636
0.0222469
0.0222164
0.0220984
0.0220674
0.0219515
0.0219225
0.0218081
0.0217769
0.0216595
0.0216292
0.0215088
0.021479
0.0213626
0.021331
0.0212157
0.0211853
0.0210695
0.0210372
0.020921
0.0208896
0.0207751
0.0207445
0.0206296
0.020599
0.0204868
0.0204554
0.0203395
0.0203086
0.0201939
0.020164
0.0200492
0.0200186
0.0292646
0.0292321
0.029114
0.0290831
0.0289645
0.0289344
0.0288164
0.0287867
0.0286707
0.0286408
0.0285286
0.0284982
0.0283845
0.0283539
0.0282412
0.0282106
0.0280979
0.0280659
0.0279503
0.027919
0.0278039
0.0277732
0.0276586
0.0276282
0.0275143
0.0274831
0.0273686
0.0273393
0.0272268
0.0271976
0.0270844
0.027055
0.0269415
0.026912
0.0267965
0.026767
0.0266534
0.0266219
0.0265065
0.0264761
0.0263615
0.0263297
0.0262128
0.0261823
0.0260621
0.0260315
0.0259114
0.0258805
0.0257587
0.0257285
0.0256132
0.0255828
0.0254648
0.0254357
0.0253232
0.0252929
0.0251781
0.0251468
0.0250332
0.0250016
0.0248906
0.0248598
0.0247441
0.0247127
0.0245966
0.0245647
0.0244456
0.0244137
0.0242953
0.0242647
0.0241483
0.0241195
0.0240049
0.0239759
0.0238588
0.0238282
0.0237179
0.0236874
0.0235713
0.0235414
0.0234254
0.0233968
0.0232824
0.0232528
0.0231357
0.0231053
0.0229875
0.0229566
0.0228409
0.0228088
0.0226924
0.0226626
0.0225421
0.0225114
0.0223941
0.0223623
0.0222473
0.0222171
0.0220991
0.0220672
0.0219496
0.0219191
0.0218049
0.0217743
0.0216601
0.0216287
0.0215091
0.0214793
0.0213628
0.021331
0.0212141
0.0211828
0.0210664
0.0210357
0.0209199
0.0208883
0.020773
0.0207422
0.0206278
0.0205975
0.0204863
0.0204546
0.0203367
0.0203063
0.0201913
0.0201606
0.0200475
0.0200176
0.0292615
0.0292309
0.0291151
0.0290838
0.028965
0.0289345
0.0288178
0.0287878
0.0286724
0.0286418
0.02853
0.0285003
0.0283847
0.0283543
0.02824
0.0282101
0.0280953
0.0280647
0.0279492
0.0279182
0.0278029
0.0277723
0.0276586
0.0276288
0.0275161
0.0274846
0.0273704
0.0273405
0.0272288
0.0271996
0.0270864
0.0270559
0.0269424
0.0269129
0.0267985
0.0267679
0.0266518
0.0266213
0.0265069
0.0264752
0.0263615
0.0263292
0.0262134
0.0261842
0.026064
0.0260329
0.0259123
0.0258813
0.0257607
0.0257296
0.0256145
0.0255835
0.0254667
0.0254352
0.0253231
0.0252935
0.0251775
0.0251482
0.0250335
0.0250014
0.0248889
0.024858
0.0247405
0.0247093
0.0245922
0.0245608
0.0244426
0.024412
0.0242949
0.0242659
0.024151
0.0241223
0.0240089
0.0239797
0.0238611
0.0238314
0.0237179
0.0236867
0.0235729
0.023543
0.0234278
0.0233983
0.0232825
0.0232522
0.0231332
0.0231027
0.0229849
0.0229545
0.0228378
0.0228069
0.0226904
0.0226594
0.0225396
0.0225105
0.0223927
0.0223608
0.0222443
0.0222138
0.0220984
0.022067
0.0219514
0.0219203
0.0218053
0.0217742
0.0216597
0.0216282
0.0215101
0.0214789
0.0213611
0.0213304
0.0212141
0.021182
0.021065
0.0210347
0.0209182
0.0208879
0.0207716
0.0207413
0.0206274
0.020597
0.0204842
0.0204536
0.0203374
0.0203082
0.0201927
0.0201613
0.0200485
0.0200183
0.0292599
0.0292304
0.0291166
0.0290861
0.0289656
0.0289349
0.0288189
0.0287885
0.0286728
0.0286408
0.0285285
0.0284981
0.0283863
0.0283555
0.0282418
0.028212
0.0280951
0.0280645
0.0279476
0.0279177
0.0278032
0.0277726
0.0276577
0.0276272
0.0275149
0.0274846
0.0273708
0.0273407
0.0272308
0.0272016
0.0270893
0.0270581
0.0269433
0.0269129
0.0268
0.0267689
0.0266524
0.026623
0.026507
0.0264759
0.026361
0.0263288
0.0262137
0.026182
0.0260622
0.0260324
0.0259103
0.0258803
0.0257617
0.0257309
0.0256154
0.0255854
0.0254685
0.0254371
0.0253246
0.0252918
0.0251753
0.0251464
0.0250295
0.0249991
0.0248876
0.0248571
0.0247415
0.0247108
0.0245912
0.0245609
0.0244442
0.0244137
0.0242968
0.0242682
0.0241544
0.0241266
0.0240115
0.0239819
0.0238637
0.023835
0.0237188
0.0236898
0.0235737
0.0235435
0.0234277
0.0233977
0.0232836
0.0232539
0.0231345
0.0231035
0.0229858
0.0229546
0.0228375
0.0228058
0.0226904
0.0226593
0.0225413
0.0225127
0.0223942
0.0223626
0.0222419
0.0222108
0.0220953
0.0220643
0.0219498
0.0219186
0.0218056
0.0217744
0.0216584
0.0216276
0.02151
0.0214787
0.0213611
0.0213304
0.0212136
0.0211814
0.0210645
0.0210332
0.0209172
0.0208871
0.0207707
0.0207407
0.0206286
0.0205979
0.020484
0.0204534
0.0203363
0.0203063
0.0201913
0.0201609
0.0200473
0.0200165
0.0292653
0.029234
0.0291175
0.029086
0.0289659
0.0289355
0.0288199
0.0287892
0.0286731
0.0286418
0.0285285
0.0284967
0.0283852
0.0283538
0.0282404
0.0282106
0.0280953
0.0280653
0.0279487
0.0279189
0.0278038
0.027773
0.0276587
0.0276279
0.0275161
0.0274869
0.0273728
0.0273436
0.027232
0.0272022
0.0270888
0.0270577
0.0269425
0.026912
0.0267979
0.0267672
0.0266516
0.0266213
0.0265056
0.0264758
0.0263598
0.0263301
0.0262138
0.0261796
0.0260622
0.0260315
0.0259112
0.02588
0.0257624
0.0257309
0.0256153
0.0255851
0.0254687
0.0254398
0.0253252
0.0252923
0.0251768
0.0251457
0.0250298
0.0250001
0.0248877
0.0248572
0.0247419
0.0247108
0.0245908
0.0245617
0.0244451
0.0244155
0.0242978
0.0242693
0.024156
0.0241279
0.0240133
0.023984
0.0238656
0.0238369
0.0237218
0.0236931
0.0235759
0.023546
0.0234296
0.023399
0.0232842
0.0232544
0.0231346
0.0231033
0.0229854
0.0229538
0.0228368
0.0228051
0.0226889
0.0226567
0.0225404
0.0225099
0.022391
0.02236
0.0222407
0.02221
0.0220948
0.0220642
0.0219468
0.0219172
0.0218038
0.0217735
0.0216574
0.0216262
0.0215083
0.0214778
0.0213594
0.0213283
0.0212107
0.0211803
0.0210652
0.0210345
0.0209179
0.0208871
0.0207707
0.0207409
0.0206282
0.0205974
0.0204815
0.020451
0.0203352
0.0203052
0.0201899
0.0201599
0.0200479
0.0200162
0.0293835
0.0292621
0.0292318
0.0291148
0.0290841
0.0289667
0.0289359
0.0288184
0.0287877
0.028672
0.0286416
0.0285296
0.0284974
0.0283866
0.0283554
0.0282414
0.0282102
0.0280957
0.0280665
0.0279491
0.0279195
0.0278034
0.0277741
0.0276602
0.0276291
0.0275179
0.0274883
0.0273718
0.0273418
0.0272321
0.0272022
0.0270893
0.0270585
0.0269444
0.0269134
0.0267988
0.0267686
0.026653
0.0266222
0.0265057
0.0264748
0.0263587
0.0263297
0.0262105
0.0261794
0.0260616
0.0260309
0.0259117
0.0258804
0.0257616
0.0257311
0.0256157
0.0255849
0.0254676
0.0254385
0.025322
0.025292
0.025176
0.0251454
0.0250305
0.0250005
0.0248863
0.0248554
0.0247404
0.0247092
0.0245903
0.0245605
0.0244462
0.0244177
0.0243014
0.0242731
0.0241605
0.0241308
0.0240171
0.0239868
0.0238695
0.0238398
0.0237236
0.0236942
0.0235769
0.0235477
0.0234308
0.0234003
0.0232864
0.0232561
0.0231349
0.0231033
0.0229839
0.0229528
0.0228351
0.0228036
0.0226873
0.0226558
0.02254
0.0225091
0.0223897
0.0223589
0.0222385
0.0222084
0.0220943
0.0220639
0.0219481
0.021919
0.0218038
0.0217731
0.021657
0.0216261
0.0215083
0.0214785
0.0213601
0.0213295
0.0212109
0.02118
0.0210648
0.0210345
0.0209174
0.0208866
0.0207707
0.0207418
0.0206295
0.0205989
0.0204816
0.0204515
0.020336
0.0203053
0.0201905
0.0201603
0.0200478
0.0200157
0.0294122
0.0293822
0.0292626
0.0292332
0.0291147
0.0290837
0.0289674
0.028936
0.0288193
0.0287881
0.0286713
0.0286391
0.0285273
0.0284942
0.0283878
0.0283587
0.0282434
0.0282134
0.028097
0.0280676
0.0279507
0.0279205
0.0278051
0.0277741
0.0276628
0.0276296
0.0275229
0.0274939
0.0273745
0.0273473
0.0272316
0.0272012
0.027089
0.0270592
0.0269444
0.0269137
0.0267968
0.0267656
0.02665
0.0266203
0.0265041
0.0264736
0.0263581
0.0263281
0.0262087
0.0261785
0.0260609
0.0260307
0.0259118
0.0258818
0.0257618
0.0257319
0.0256164
0.0255858
0.0254683
0.0254382
0.0253217
0.025292
0.0251749
0.0251452
0.0250317
0.0250023
0.0248889
0.0248569
0.0247402
0.0247095
0.0245924
0.0245627
0.0244492
0.024421
0.0243064
0.0242774
0.0241644
0.024134
0.0240197
0.0239887
0.0238716
0.0238412
0.0237263
0.023697
0.0235801
0.0235493
0.0234315
0.0234012
0.0232861
0.0232548
0.0231358
0.0231043
0.0229847
0.0229542
0.0228346
0.0228032
0.0226856
0.0226532
0.0225374
0.0225065
0.0223886
0.0223583
0.0222381
0.0222082
0.0220929
0.0220623
0.0219481
0.0219182
0.0218022
0.0217726
0.0216568
0.021627
0.021509
0.0214776
0.0213576
0.0213274
0.0212094
0.0211794
0.0210646
0.0210349
0.0209186
0.0208875
0.0207704
0.0207407
0.0206275
0.0205976
0.0204814
0.0204505
0.0203344
0.0203038
0.020188
0.0201578
0.0200444
0.0200133
0.0294136
0.0293826
0.029263
0.029232
0.0291143
0.0290831
0.0289671
0.0289367
0.0288198
0.0287888
0.0286715
0.028641
0.0285272
0.0284959
0.0283906
0.0283574
0.0282456
0.0282161
0.0280979
0.0280686
0.0279511
0.0279218
0.0278056
0.0277761
0.0276629
0.0276315
0.0275266
0.0274916
0.0273776
0.0273498
0.0272315
0.0272026
0.0270882
0.0270584
0.0269428
0.0269129
0.0267962
0.0267655
0.0266489
0.0266186
0.026502
0.0264709
0.0263551
0.0263243
0.0262059
0.0261764
0.0260592
0.0260287
0.0259126
0.0258827
0.0257637
0.0257335
0.0256187
0.0255882
0.0254712
0.0254406
0.0253237
0.0252931
0.0251748
0.0251441
0.0250303
0.0250015
0.0248888
0.024857
0.0247399
0.024709
0.0245927
0.0245627
0.024449
0.0244208
0.0243078
0.0242779
0.0241641
0.0241334
0.02402
0.0239886
0.0238728
0.0238415
0.0237265
0.0236962
0.02358
0.0235487
0.0234308
0.0234001
0.0232843
0.0232546
0.0231361
0.0231052
0.0229858
0.0229546
0.022832
0.0227997
0.0226831
0.0226531
0.0225366
0.0225054
0.0223877
0.0223577
0.0222397
0.0222087
0.022092
0.0220612
0.0219487
0.0219187
0.0218026
0.0217724
0.021656
0.0216266
0.0215105
0.0214794
0.021359
0.0213281
0.0212098
0.021179
0.0210629
0.0210326
0.0209177
0.0208878
0.0207711
0.020741
0.0206261
0.0205964
0.0204815
0.02045
0.0203335
0.0203031
0.0201884
0.0201591
0.0200452
0.0200154
0.0294128
0.0293818
0.029262
0.0292316
0.0291144
0.0290842
0.0289693
0.0289381
0.0288196
0.0287887
0.0286717
0.0286423
0.0285262
0.0284979
0.0283876
0.0283544
0.0282446
0.0282135
0.0280988
0.0280686
0.0279506
0.0279209
0.0278072
0.0277781
0.0276632
0.0276359
0.0275246
0.0274913
0.0273788
0.0273485
0.0272315
0.0272024
0.0270867
0.0270572
0.0269408
0.0269113
0.026795
0.0267642
0.0266493
0.0266178
0.0265044
0.026473
0.0263568
0.0263266
0.0262079
0.0261782
0.026061
0.0260307
0.0259131
0.0258825
0.0257631
0.0257338
0.0256185
0.0255887
0.0254723
0.0254408
0.025325
0.0252935
0.0251759
0.0251448
0.0250295
0.0249986
0.0248849
0.0248552
0.0247394
0.0247094
0.0245944
0.0245648
0.024452
0.0244233
0.0243109
0.024281
0.0241666
0.0241348
0.0240189
0.023987
0.0238723
0.0238407
0.0237255
0.0236942
0.0235778
0.0235485
0.0234319
0.023401
0.0232848
0.0232547
0.0231355
0.0231051
0.0229857
0.0229548
0.0228313
0.0228002
0.0226834
0.0226539
0.0225366
0.0225055
0.0223868
0.0223583
0.0222412
0.0222109
0.022093
0.0220621
0.0219494
0.0219192
0.0218032
0.0217736
0.0216561
0.0216252
0.0215092
0.0214785
0.021359
0.0213275
0.0212099
0.0211796
0.0210638
0.0210334
0.0209188
0.0208883
0.0207703
0.0207404
0.0206254
0.0205955
0.0204807
0.0204503
0.0203342
0.0203037
0.0201891
0.0201593
0.020046
0.0200164
0.0294121
0.0293818
0.0292622
0.029231
0.0291137
0.0290838
0.0289706
0.0289395
0.0288198
0.0287885
0.0286707
0.0286406
0.0285268
0.0284978
0.028386
0.0283563
0.0282449
0.0282148
0.0281006
0.0280708
0.0279519
0.0279223
0.0278082
0.0277786
0.0276646
0.0276351
0.0275208
0.0274899
0.0273791
0.0273482
0.0272352
0.0272043
0.0270879
0.0270577
0.0269415
0.0269113
0.0267932
0.0267633
0.026647
0.0266159
0.026502
0.0264709
0.026355
0.026324
0.0262066
0.0261769
0.0260611
0.0260312
0.0259151
0.0258852
0.0257663
0.0257357
0.0256184
0.025588
0.0254716
0.0254414
0.0253253
0.0252933
0.0251768
0.0251467
0.0250327
0.025002
0.0248862
0.0248565
0.0247396
0.0247102
0.0245951
0.0245658
0.0244542
0.0244241
0.0243116
0.0242808
0.0241669
0.0241344
0.0240167
0.0239848
0.0238699
0.0238399
0.0237258
0.0236937
0.0235779
0.0235475
0.023432
0.0234019
0.0232858
0.0232547
0.0231369
0.0231068
0.0229853
0.0229548
0.022832
0.0228012
0.0226836
0.0226537
0.0225364
0.0225059
0.0223886
0.0223584
0.0222408
0.0222109
0.0220934
0.0220637
0.0219517
0.0219201
0.021806
0.0217763
0.02166
0.021628
0.0215107
0.0214793
0.0213597
0.0213282
0.0212094
0.0211793
0.0210642
0.0210337
0.02092
0.0208893
0.0207717
0.0207418
0.0206268
0.0205963
0.0204812
0.0204514
0.020335
0.0203052
0.0201888
0.020158
0.0200451
0.0200158
0.0294129
0.0293823
0.0292625
0.0292316
0.0291139
0.0290829
0.0289697
0.0289398
0.0288206
0.0287895
0.0286715
0.0286422
0.0285287
0.0284995
0.0283869
0.0283577
0.0282456
0.028215
0.0280999
0.0280701
0.0279517
0.0279208
0.0278064
0.027776
0.0276649
0.0276349
0.0275206
0.0274899
0.0273773
0.0273466
0.0272352
0.0272035
0.0270876
0.0270567
0.0269415
0.02691
0.026792
0.0267629
0.0266454
0.0266153
0.0265015
0.0264708
0.0263553
0.0263241
0.0262076
0.0261784
0.0260615
0.0260308
0.0259139
0.0258845
0.0257665
0.0257366
0.0256207
0.0255909
0.0254738
0.0254442
0.0253258
0.0252938
0.0251776
0.0251461
0.0250326
0.0250026
0.0248859
0.0248562
0.0247398
0.0247092
0.0245943
0.024565
0.024453
0.024423
0.0243101
0.0242788
0.0241644
0.024133
0.0240163
0.023984
0.0238698
0.0238394
0.0237241
0.0236936
0.0235777
0.0235466
0.023431
0.0234003
0.0232852
0.0232541
0.0231372
0.0231055
0.0229846
0.0229536
0.0228313
0.0228004
0.0226837
0.0226527
0.0225354
0.0225052
0.0223888
0.0223578
0.0222411
0.0222107
0.0220937
0.022065
0.0219521
0.0219215
0.0218053
0.0217754
0.0216601
0.0216294
0.0215117
0.0214789
0.0213606
0.0213291
0.0212111
0.0211808
0.021066
0.0210345
0.0209193
0.0208889
0.0207715
0.0207413
0.0206262
0.0205957
0.0204807
0.0204501
0.0203344
0.0203057
0.0201905
0.0201607
0.0200467
0.0200171
0.0294126
0.0293823
0.0292638
0.0292334
0.0291168
0.029085
0.0289704
0.0289403
0.0288214
0.0287907
0.0286732
0.0286433
0.0285309
0.0285012
0.0283879
0.028358
0.0282459
0.0282164
0.0281014
0.0280728
0.0279532
0.0279229
0.0278062
0.0277755
0.027663
0.0276328
0.0275186
0.0274873
0.0273741
0.027343
0.0272324
0.0272025
0.0270859
0.0270545
0.0269404
0.0269093
0.0267938
0.0267638
0.026646
0.0266156
0.0265004
0.0264693
0.0263545
0.0263234
0.0262099
0.0261804
0.0260632
0.0260326
0.0259152
0.0258846
0.0257668
0.0257369
0.0256215
0.0255907
0.0254748
0.0254444
0.025326
0.0252963
0.0251802
0.0251478
0.0250356
0.0250032
0.0248889
0.0248594
0.0247406
0.0247105
0.0245956
0.0245665
0.0244538
0.0244245
0.0243111
0.0242798
0.0241631
0.024132
0.0240151
0.0239833
0.0238696
0.0238386
0.0237233
0.0236934
0.0235784
0.0235475
0.0234318
0.0234001
0.0232838
0.0232531
0.0231363
0.0231049
0.0229837
0.022952
0.0228316
0.0228008
0.0226832
0.0226527
0.0225353
0.0225048
0.0223876
0.0223575
0.0222412
0.0222107
0.0220948
0.0220649
0.0219523
0.0219226
0.0218063
0.0217755
0.021659
0.0216291
0.0215107
0.0214793
0.0213602
0.0213287
0.0212106
0.02118
0.0210669
0.0210355
0.0209199
0.0208893
0.0207719
0.0207418
0.0206267
0.0205961
0.0204816
0.020451
0.0203346
0.0203047
0.0201896
0.0201594
0.0200451
0.0200146
0.0294124
0.029382
0.0292634
0.0292324
0.0291172
0.0290861
0.0289712
0.0289405
0.0288213
0.0287915
0.0286747
0.0286445
0.0285316
0.0285013
0.0283894
0.0283596
0.0282477
0.0282182
0.0281022
0.0280723
0.0279518
0.0279221
0.0278066
0.0277767
0.027664
0.0276327
0.0275174
0.0274866
0.0273743
0.0273425
0.0272327
0.027203
0.0270879
0.0270563
0.0269418
0.0269108
0.0267949
0.0267643
0.0266457
0.0266157
0.0265009
0.026471
0.0263556
0.0263254
0.026212
0.0261819
0.0260639
0.026034
0.0259169
0.0258863
0.0257686
0.0257384
0.0256211
0.025591
0.0254757
0.0254447
0.0253258
0.0252963
0.0251801
0.0251492
0.0250362
0.025004
0.0248909
0.0248585
0.0247399
0.0247106
0.0245956
0.0245664
0.0244542
0.0244235
0.0243098
0.0242786
0.0241612
0.0241293
0.0240114
0.0239804
0.0238678
0.0238367
0.0237209
0.0236899
0.0235755
0.0235461
0.023432
0.0234004
0.0232838
0.0232523
0.0231353
0.0231035
0.0229821
0.0229501
0.0228306
0.0227993
0.0226815
0.022651
0.0225342
0.0225042
0.0223873
0.0223569
0.0222403
0.0222102
0.0220959
0.0220655
0.021952
0.0219226
0.0218068
0.0217766
0.0216592
0.0216288
0.0215106
0.0214802
0.0213605
0.0213294
0.0212096
0.0211794
0.0210652
0.0210347
0.0209184
0.0208873
0.0207708
0.0207407
0.020627
0.0205959
0.0204813
0.0204505
0.0203351
0.0203055
0.0201903
0.0201594
0.0200443
0.0200132
0.0294118
0.0293816
0.0292624
0.0292325
0.0291167
0.0290862
0.028972
0.0289415
0.0288244
0.0287946
0.0286774
0.0286464
0.0285328
0.0285025
0.0283912
0.0283615
0.02825
0.0282203
0.0281043
0.0280742
0.0279544
0.0279242
0.0278091
0.0277786
0.0276643
0.0276325
0.0275174
0.0274857
0.0273734
0.0273403
0.0272309
0.0272001
0.0270858
0.0270552
0.0269409
0.0269094
0.0267942
0.0267634
0.0266458
0.0266159
0.0265015
0.0264719
0.0263559
0.0263268
0.0262137
0.0261846
0.0260646
0.0260347
0.0259164
0.0258867
0.0257696
0.0257392
0.0256212
0.0255912
0.0254753
0.0254443
0.0253273
0.0252973
0.0251806
0.0251504
0.0250348
0.0250048
0.0248911
0.0248575
0.0247404
0.0247099
0.0245959
0.0245671
0.0244542
0.0244228
0.0243071
0.0242757
0.0241595
0.0241273
0.0240108
0.0239795
0.0238686
0.023838
0.0237233
0.0236917
0.0235761
0.0235454
0.0234299
0.0233984
0.0232818
0.0232497
0.0231336
0.0231016
0.022983
0.0229512
0.022833
0.0228023
0.0226834
0.0226527
0.0225358
0.0225059
0.0223893
0.0223576
0.0222395
0.0222097
0.0220971
0.022067
0.0219521
0.0219214
0.0218064
0.0217771
0.0216597
0.0216287
0.0215093
0.0214786
0.0213596
0.0213289
0.0212114
0.021181
0.0210664
0.0210357
0.0209185
0.020888
0.0207703
0.02074
0.0206254
0.0205958
0.020481
0.0204504
0.020335
0.0203044
0.0201908
0.0201598
0.0200444
0.0200136
0.0294127
0.0293819
0.0292644
0.0292342
0.029118
0.029088
0.0289725
0.0289421
0.0288263
0.0287959
0.0286779
0.0286479
0.0285334
0.0285035
0.0283917
0.0283617
0.0282494
0.0282193
0.0281038
0.0280751
0.0279546
0.0279249
0.0278088
0.0277787
0.0276628
0.0276313
0.0275157
0.0274842
0.0273715
0.0273396
0.0272315
0.0271988
0.0270856
0.0270553
0.0269397
0.0269082
0.0267925
0.0267621
0.0266456
0.0266157
0.0265014
0.0264711
0.0263558
0.0263261
0.0262147
0.0261856
0.0260657
0.0260353
0.0259155
0.0258859
0.02577
0.0257406
0.0256219
0.0255924
0.0254745
0.025445
0.0253283
0.0252972
0.0251818
0.0251516
0.0250342
0.0250044
0.0248883
0.0248565
0.0247402
0.0247097
0.0245972
0.0245666
0.024452
0.0244215
0.0243064
0.024275
0.0241573
0.0241253
0.0240095
0.0239784
0.0238677
0.0238373
0.0237225
0.023691
0.0235761
0.0235445
0.023429
0.0233979
0.0232805
0.0232486
0.0231301
0.0230989
0.0229797
0.0229487
0.0228321
0.0228018
0.0226828
0.0226519
0.0225351
0.0225055
0.022391
0.0223595
0.0222417
0.0222103
0.0220979
0.0220671
0.0219523
0.0219219
0.0218081
0.0217786
0.0216618
0.0216306
0.0215113
0.0214799
0.0213615
0.0213311
0.0212134
0.0211816
0.0210652
0.0210342
0.0209179
0.0208881
0.0207716
0.0207413
0.0206259
0.0205962
0.0204803
0.0204509
0.0203347
0.0203042
0.0201888
0.0201587
0.0200443
0.0200128
0.0294138
0.0293821
0.0292641
0.0292324
0.0291193
0.0290894
0.0289728
0.0289427
0.0288284
0.028798
0.02868
0.0286498
0.0285344
0.0285047
0.0283932
0.0283637
0.028252
0.0282218
0.0281053
0.0280751
0.0279542
0.0279236
0.0278085
0.0277781
0.0276612
0.0276302
0.0275139
0.0274836
0.0273699
0.0273401
0.0272298
0.0271976
0.0270866
0.0270551
0.0269397
0.0269085
0.0267919
0.0267614
0.0266454
0.0266161
0.0265024
0.0264726
0.0263577
0.0263285
0.0262152
0.0261849
0.0260664
0.0260365
0.0259166
0.0258866
0.0257707
0.0257408
0.0256232
0.0255927
0.0254737
0.0254443
0.0253274
0.0252972
0.0251831
0.0251527
0.025036
0.025006
0.024889
0.0248578
0.0247404
0.0247095
0.0245974
0.0245659
0.0244509
0.0244206
0.0243046
0.0242738
0.0241552
0.0241244
0.024008
0.0239777
0.0238652
0.023835
0.0237203
0.0236886
0.0235748
0.0235425
0.02343
0.0233999
0.0232812
0.0232497
0.02313
0.0230998
0.0229813
0.0229525
0.0228352
0.0228051
0.0226836
0.0226526
0.0225344
0.0225037
0.0223887
0.022359
0.0222411
0.0222097
0.022096
0.0220657
0.0219525
0.0219222
0.0218077