/*--------------------------------*- C++ -*----------------------------------*\
| =========                 |                                                 |
| \\      /  F ield         | OpenFOAM: The Open Source CFD Toolbox           |
|  \\    /   O peration     | Version:  2206                                  |
|   \\  /    A nd           | Website:  www.openfoam.com                      |
|    \\/     M anipulation  |                                                 |
\*---------------------------------------------------------------------------*/
FoamFile
{
    version     2.0;
    format      ascii;
    arch        "LSB;label=32;scalar=64";
    class       volVectorField;
    location    "0.9";
    object      wallShearStress;
}
// * * * * * * * * * * * * * * * * * * * * * * * * * * * * * * * * * * * * * //

dimensions      [0 2 -2 0 0 0 0];

internalField   uniform (0 0 0);

boundaryField
{
    wall
    {
        type            calculated;
        value           nonuniform List<vector> 
8037
(
(-1.50168e-07 -5.50508e-08 -0.000180327)
(1.03159e-08 -6.72335e-09 -0.00018042)
(2.9161e-07 6.68453e-08 -0.000180183)
(1.38707e-07 2.52091e-08 -0.000179826)
(-3.30052e-08 -1.78256e-08 -0.000180254)
(2.61346e-07 6.04872e-08 -0.000180301)
(6.93147e-07 1.78575e-07 -0.000179646)
(8.57765e-07 2.20349e-07 -0.000179887)
(3.4949e-07 8.9748e-08 -0.000179475)
(3.60646e-07 8.94546e-08 -0.000179769)
(1.70818e-07 3.46337e-08 -0.000179621)
(2.14293e-07 4.67939e-08 -0.000179873)
(2.8615e-07 6.9242e-08 -0.000179288)
(1.83415e-08 -3.63772e-09 -0.000179512)
(1.37302e-08 2.62821e-10 -0.000180208)
(-3.51958e-07 -9.79321e-08 -0.000180129)
(-4.50406e-08 -1.51882e-08 -0.000180267)
(3.86634e-08 1.25931e-09 -0.000180145)
(-5.27169e-08 -2.19594e-08 -0.000179824)
(1.80505e-07 4.51957e-08 -0.000180013)
(1.21741e-07 2.38148e-08 -0.000180074)
(-1.72529e-07 -6.86645e-08 -0.000180584)
(-1.11423e-08 -1.54345e-08 -0.000179464)
(4.5932e-08 2.64033e-09 -0.000179614)
(1.28817e-08 -6.68124e-09 -0.000179534)
(3.1281e-07 7.47002e-08 -0.000179668)
(9.0792e-08 9.11394e-09 -0.000179511)
(-5.15079e-07 -1.51178e-07 -0.000179467)
(-1.80766e-07 -6.39118e-08 -0.000179144)
(-9.114e-08 -3.91966e-08 -0.000179161)
(1.79559e-07 2.29163e-08 -0.000179247)
(-1.14351e-07 -4.38511e-08 -0.000178714)
(9.68163e-08 1.06455e-08 -0.000179322)
(-1.06521e-07 -4.94862e-08 -0.00017923)
(-4.19513e-08 -3.08015e-08 -0.000179427)
(1.25714e-07 1.94416e-08 -0.000179816)
(1.13561e-07 2.53095e-08 -0.000179737)
(7.93206e-08 1.5322e-08 -0.000180232)
(-8.6651e-08 -3.11443e-08 -0.00018038)
(3.81936e-08 -2.30213e-09 -0.000180764)
(-1.1456e-07 -4.67754e-08 -0.000180532)
(-2.53974e-07 -7.6864e-08 -0.000180124)
(-2.43954e-07 -8.10463e-08 -0.000180332)
(-8.29028e-08 -3.27531e-08 -0.000179686)
(5.3309e-09 -6.69676e-09 -0.000180034)
(1.96586e-07 4.51748e-08 -0.000179787)
(2.70628e-07 6.22263e-08 -0.000179502)
(1.94125e-07 4.17406e-08 -0.000179463)
(3.03246e-07 6.79632e-08 -0.000179504)
(3.94325e-07 1.0041e-07 -0.000179411)
(3.06207e-07 7.25236e-08 -0.000179616)
(8.66141e-08 1.369e-08 -0.000179804)
(1.04146e-07 1.89302e-08 -0.000179985)
(2.51975e-07 5.26498e-08 -0.00018016)
(1.66618e-08 -8.17906e-09 -0.000180126)
(-6.02139e-09 -7.69908e-09 -0.000180116)
(-1.03753e-07 -3.7999e-08 -0.000180284)
(-1.85591e-08 -2.22813e-08 -0.000180251)
(-1.27017e-07 -4.78653e-08 -0.000179701)
(-1.74277e-07 -5.90769e-08 -0.000179727)
(4.5968e-08 1.15376e-09 -0.000179609)
(1.39134e-08 -7.46984e-09 -0.000179604)
(-3.85673e-08 -2.0797e-08 -0.000179869)
(-6.98672e-09 -1.23139e-08 -0.000179866)
(-9.81845e-08 -5.69378e-09 -0.000181878)
(1.064e-07 4.38247e-08 -0.000181863)
(7.43523e-08 3.90397e-08 -0.000182081)
(-2.14599e-08 6.81507e-09 -0.000181385)
(2.52023e-07 8.67175e-08 -0.000181733)
(2.15657e-07 8.13587e-08 -0.000181915)
(1.6436e-07 5.75385e-08 -0.000181644)
(4.08227e-07 1.25423e-07 -0.000181694)
(9.97463e-07 2.71126e-07 -0.000181224)
(5.62197e-07 1.73737e-07 -0.000181701)
(-3.01294e-08 7.95776e-09 -0.000181344)
(3.3516e-08 2.80039e-08 -0.000181336)
(-7.78673e-08 -4.50107e-09 -0.000181469)
(-3.13613e-07 -5.60619e-08 -0.000181597)
(1.62987e-07 5.92252e-08 -0.000181513)
(4.73054e-07 1.43149e-07 -0.000181793)
(2.09463e-07 7.65329e-08 -0.000182001)
(3.83478e-07 1.18277e-07 -0.000182127)
(4.24152e-07 1.31856e-07 -0.000181761)
(4.53682e-07 1.39099e-07 -0.00018166)
(3.1886e-07 1.01642e-07 -0.000181745)
(3.10944e-07 1.04511e-07 -0.000182079)
(7.42586e-08 3.0541e-08 -0.000181619)
(3.25342e-07 1.01964e-07 -0.000181291)
(1.09769e-07 4.63764e-08 -0.000181389)
(1.89967e-07 6.51708e-08 -0.000181294)
(2.25893e-07 7.07784e-08 -0.00018154)
(-4.01447e-08 6.61091e-10 -0.000181233)
(-3.32494e-07 -7.36486e-08 -0.0001811)
(-1.98236e-07 -4.14682e-08 -0.000181127)
(-5.09294e-07 -1.27101e-07 -0.000181002)
(-3.21923e-07 -8.80829e-08 -0.000180514)
(6.03989e-08 3.31992e-08 -0.000181176)
(-3.90603e-08 2.49706e-09 -0.000181185)
(2.34186e-08 1.47685e-08 -0.000181041)
(-1.92789e-08 8.08914e-09 -0.000181314)
(-1.17049e-07 -2.23918e-08 -0.000181347)
(8.59414e-08 4.15658e-08 -0.000181921)
(2.94084e-07 9.44814e-08 -0.000182071)
(2.34928e-07 8.25542e-08 -0.000182347)
(-1.35177e-08 1.08618e-08 -0.000182325)
(1.26795e-07 4.20307e-08 -0.00018196)
(-2.55552e-08 7.9898e-09 -0.000181986)
(-2.68745e-07 -5.77531e-08 -0.000181558)
(-3.93136e-08 9.88672e-09 -0.000181601)
(2.4432e-07 8.3621e-08 -0.000181449)
(3.93593e-07 1.23337e-07 -0.000181492)
(4.46644e-07 1.3517e-07 -0.000181195)
(1.62924e-07 5.91279e-08 -0.000181176)
(3.54652e-07 1.0987e-07 -0.000180898)
(4.10949e-07 1.23902e-07 -0.000181318)
(2.63876e-07 8.50616e-08 -0.0001814)
(2.00205e-07 6.79266e-08 -0.000181478)
(2.1153e-07 6.8901e-08 -0.000181926)
(1.22688e-07 4.53886e-08 -0.000181831)
(3.17801e-07 1.01255e-07 -0.00018198)
(3.92825e-08 2.80652e-08 -0.000181964)
(2.05466e-07 6.88463e-08 -0.000182025)
(-1.18938e-07 -1.88833e-08 -0.000182061)
(-2.84993e-08 5.64224e-09 -0.00018156)
(-1.33191e-07 -2.43811e-08 -0.000181448)
(5.71071e-09 1.80288e-08 -0.0001814)
(1.08178e-07 4.56082e-08 -0.000181453)
(2.7768e-07 8.83197e-08 -0.000181227)
(2.1934e-07 7.01133e-08 -0.000181842)
(1.61713e-07 1.0707e-08 -0.000179554)
(1.35357e-07 2.71961e-09 -0.000179877)
(1.21184e-07 5.48586e-09 -0.000179979)
(9.96095e-08 4.95301e-09 -0.000179677)
(3.26767e-07 4.25091e-08 -0.000179495)
(4.55242e-07 5.99815e-08 -0.000179773)
(4.63104e-07 7.52886e-08 -0.000179881)
(9.19628e-07 1.61957e-07 -0.00017964)
(7.0524e-07 7.60859e-08 -0.000179166)
(5.67181e-07 7.5734e-08 -0.000179297)
(3.7227e-07 4.54595e-08 -0.000179805)
(5.75683e-07 8.11085e-08 -0.000180127)
(6.10327e-07 9.38347e-08 -0.000180375)
(6.85547e-07 1.18407e-07 -0.000179865)
(-4.1197e-08 -2.3694e-08 -0.000179101)
(3.39881e-07 3.8803e-08 -0.000180535)
(3.08248e-07 3.70482e-08 -0.000179909)
(3.15188e-07 4.04839e-08 -0.000179991)
(5.46628e-07 7.12071e-08 -0.000179869)
(4.28115e-07 5.00909e-08 -0.000179353)
(3.76603e-07 4.92391e-08 -0.000179498)
(3.55209e-07 5.07115e-08 -0.000179508)
(2.40466e-08 -5.8221e-09 -0.000179897)
(3.46672e-07 4.28562e-08 -0.000179439)
(1.6365e-08 -1.30435e-08 -0.000179147)
(1.46638e-07 3.78749e-09 -0.000179595)
(1.18273e-07 3.44511e-10 -0.000179533)
(1.2858e-07 4.42234e-09 -0.000179495)
(-2.05696e-07 -4.4498e-08 -0.000179443)
(-2.97281e-07 -5.5581e-08 -0.000179439)
(-5.96059e-07 -1.01819e-07 -0.000179504)
(-2.21375e-07 -4.76274e-08 -0.000179987)
(-6.26168e-08 -2.49707e-08 -0.000179313)
(1.54617e-07 7.28951e-09 -0.000179864)
(3.07783e-08 -1.2326e-08 -0.000179439)
(1.05568e-07 3.33954e-09 -0.000179501)
(4.0589e-08 -5.24182e-09 -0.000179585)
(2.80222e-07 3.6533e-08 -0.000179599)
(3.9812e-07 5.01206e-08 -0.00017972)
(3.55568e-07 5.01361e-08 -0.000179851)
(2.92258e-07 4.13982e-08 -0.000180377)
(8.28107e-08 -1.89401e-09 -0.000180076)
(-1.63095e-07 -3.94882e-08 -0.000179735)
(-3.06641e-07 -5.74425e-08 -0.000180022)
(-1.03614e-07 -2.55931e-08 -0.0001796)
(1.48312e-07 1.15159e-08 -0.000179873)
(2.01652e-07 2.21855e-08 -0.000179352)
(4.40061e-07 5.76504e-08 -0.000179025)
(3.29604e-07 3.66422e-08 -0.000178794)
(5.43046e-07 6.56866e-08 -0.000178995)
(4.45281e-07 5.71199e-08 -0.00017877)
(4.97594e-07 6.74415e-08 -0.000179111)
(3.06469e-07 3.72874e-08 -0.000179208)
(1.13811e-07 1.00682e-08 -0.00017949)
(4.2662e-07 5.57887e-08 -0.000179995)
(2.62484e-07 2.36183e-08 -0.000179839)
(1.40713e-07 8.53947e-09 -0.000180011)
(5.66928e-08 -3.08809e-10 -0.000180341)
(1.59732e-08 -9.48212e-09 -0.0001804)
(7.2523e-08 -7.4056e-09 -0.000180066)
(-1.86821e-07 -4.68598e-08 -0.000179808)
(1.02034e-07 1.66729e-10 -0.000179886)
(7.23759e-08 1.45279e-09 -0.000179525)
(8.65333e-08 2.52847e-09 -0.000179649)
(1.66302e-08 -7.07173e-09 -0.000179564)
(-4.00559e-07 -5.45571e-08 -0.000181624)
(-3.24881e-07 -3.73546e-08 -0.000181414)
(-7.53827e-08 2.04665e-09 -0.000181579)
(-1.05382e-07 -5.69671e-09 -0.000181269)
(1.15694e-07 3.04983e-08 -0.000181284)
(1.23738e-07 2.62192e-08 -0.000181088)
(5.02364e-07 8.28792e-08 -0.000181111)
(9.26493e-07 1.65507e-07 -0.000181935)
(1.8039e-07 3.18521e-08 -0.00018074)
(7.77086e-07 1.289e-07 -0.00018123)
(3.84245e-07 6.95523e-08 -0.000181404)
(3.18728e-07 5.40983e-08 -0.000180995)
(8.2109e-07 1.257e-07 -0.000180954)
(1.17942e-06 2.08296e-07 -0.000182415)
(7.21044e-08 4.24917e-08 -0.000181695)
(4.92497e-07 8.67952e-08 -0.000181516)
(3.50944e-07 6.91928e-08 -0.000181555)
(3.6487e-07 6.65064e-08 -0.000181647)
(2.12849e-07 3.92533e-08 -0.000181186)
(5.44222e-07 9.73574e-08 -0.000180948)
(4.15976e-07 8.1094e-08 -0.000181225)
(3.02786e-07 6.4286e-08 -0.000181468)
(1.27249e-07 3.59556e-08 -0.000181283)
(3.11781e-07 5.92564e-08 -0.000180997)
(-1.41554e-07 -8.12278e-09 -0.000181387)
(-3.07359e-07 -3.97073e-08 -0.00018129)
(-3.11052e-07 -3.94357e-08 -0.000181427)
(-1.37858e-07 -1.10822e-08 -0.000181368)
(-3.15624e-07 -3.39368e-08 -0.000181233)
(7.30262e-08 2.82543e-08 -0.000181369)
(-5.69535e-09 2.14054e-08 -0.000181735)
(-5.628e-07 -8.24122e-08 -0.000181367)
(-3.60513e-09 1.34052e-08 -0.000181478)
(2.45215e-07 4.87613e-08 -0.000181578)
(2.40273e-07 5.03719e-08 -0.000181057)
(1.0537e-07 3.10781e-08 -0.00018109)
(-4.12181e-08 9.3563e-09 -0.000181227)
(1.82534e-08 2.19342e-08 -0.000181722)
(-8.70935e-08 -2.26049e-10 -0.000181514)
(3.06994e-07 6.64081e-08 -0.000181683)
(1.76817e-07 4.26509e-08 -0.000182007)
(-3.95157e-08 4.31627e-09 -0.000181607)
(-6.83483e-08 -4.21454e-09 -0.000181569)
(-2.0414e-07 -1.79226e-08 -0.000181543)
(-1.4618e-07 -2.37791e-09 -0.000181643)
(1.60065e-08 1.84723e-08 -0.000181272)
(1.35851e-07 3.72126e-08 -0.000181015)
(7.27945e-08 2.43776e-08 -0.000180534)
(-1.40107e-07 -1.00987e-08 -0.000180604)
(-9.33007e-08 -8.42812e-09 -0.000180363)
(2.72982e-07 5.31991e-08 -0.000180669)
(2.01386e-07 4.22098e-08 -0.000180818)
(1.52057e-07 4.00132e-08 -0.000180985)
(2.96987e-07 6.413e-08 -0.000181473)
(-5.66946e-08 -1.39458e-09 -0.000181584)
(3.14541e-07 5.99773e-08 -0.000181626)
(1.77745e-07 4.38102e-08 -0.000182102)
(2.84934e-07 5.89646e-08 -0.000181854)
(7.0592e-08 2.32792e-08 -0.000182183)
(-5.16091e-09 6.7143e-09 -0.000181638)
(4.24231e-08 1.48498e-08 -0.000181533)
(-5.55545e-08 6.96193e-10 -0.000181447)
(2.10441e-08 2.15826e-08 -0.000181467)
(2.35084e-07 5.06808e-08 -0.000180934)
(3.56154e-07 7.29685e-08 -0.000181416)
(-4.62525e-07 -3.6262e-08 -0.000180136)
(-3.39144e-07 -3.09368e-08 -0.000180475)
(-2.33493e-07 -1.99572e-08 -0.000180386)
(-1.18127e-07 -1.82808e-08 -0.000179989)
(-1.20915e-07 -1.76952e-08 -0.000179764)
(-1.84397e-07 -2.4745e-08 -0.000179697)
(-6.0174e-08 -2.2282e-08 -0.000179955)
(9.25227e-07 4.31121e-08 -0.00018029)
(6.72738e-07 2.02481e-08 -0.000178851)
(5.55673e-07 5.32486e-09 -0.000179064)
(1.07218e-07 -1.13132e-08 -0.000179372)
(-1.40973e-07 -2.63466e-08 -0.000179678)
(-1.51617e-07 -2.63216e-08 -0.000179835)
(1.10461e-06 5.2182e-08 -0.000180147)
(9.05749e-07 4.47075e-08 -0.000178522)
(4.27229e-07 7.6083e-09 -0.00017988)
(2.59825e-07 6.46594e-10 -0.000179445)
(2.01367e-07 -2.46312e-09 -0.000179458)
(2.97434e-07 2.57169e-09 -0.000179284)
(6.40191e-07 1.41551e-08 -0.000178891)
(5.55077e-07 1.16574e-08 -0.00017878)
(4.29174e-07 1.43529e-08 -0.000179002)
(2.3684e-07 -9.25705e-10 -0.000179498)
(3.66199e-07 5.14072e-09 -0.000179419)
(9.56334e-09 -5.43677e-09 -0.000179064)
(-1.74383e-07 -2.14998e-08 -0.000179906)
(-2.81565e-07 -1.99753e-08 -0.000179941)
(5.19829e-08 -1.20273e-08 -0.000180068)
(-3.09772e-08 -1.35803e-08 -0.000179655)
(7.12548e-08 -1.07558e-08 -0.000179674)
(-6.37538e-08 -1.28237e-08 -0.000179655)
(-5.33728e-07 -3.3239e-08 -0.000180032)
(-4.71372e-08 -9.28624e-09 -0.00017989)
(1.06167e-07 -1.12764e-08 -0.000179891)
(1.51953e-07 -1.4704e-08 -0.000179368)
(1.4349e-07 -6.94503e-09 -0.000179403)
(7.82765e-08 -1.07861e-08 -0.000179558)
(1.43278e-07 -1.20772e-09 -0.000179796)
(2.4353e-07 2.29265e-09 -0.000179866)
(3.97638e-07 1.64139e-08 -0.000179995)
(-1.72681e-08 -1.27549e-08 -0.00017998)
(8.37805e-08 -7.65324e-09 -0.000180017)
(-1.87607e-07 -2.23204e-08 -0.000179507)
(-3.62628e-07 -3.17503e-08 -0.000179971)
(-2.33018e-07 -1.83706e-08 -0.000179845)
(-9.95881e-09 -1.1095e-08 -0.000180156)
(-1.20687e-07 -2.14539e-08 -0.000179429)
(8.82587e-08 -1.42523e-08 -0.000179232)
(-1.92078e-07 -2.53344e-08 -0.00017869)
(1.63441e-07 -6.93795e-09 -0.000179138)
(3.08021e-07 -2.41201e-09 -0.000178708)
(2.8808e-07 1.58857e-09 -0.000178836)
(2.85025e-07 -8.766e-10 -0.000178931)
(3.29226e-07 7.57468e-09 -0.000179275)
(6.28235e-08 -5.71129e-09 -0.000179487)
(4.70022e-07 1.05386e-08 -0.000179859)
(3.2993e-07 4.05784e-09 -0.000179637)
(3.75969e-07 7.20487e-09 -0.000180058)
(-1.9711e-08 -1.31866e-08 -0.000179872)
(3.70675e-08 -1.15909e-08 -0.0001799)
(-3.699e-08 -1.26734e-08 -0.000179534)
(1.67983e-08 -1.03499e-08 -0.000179695)
(1.91763e-07 2.67597e-09 -0.00017938)
(2.37064e-07 2.30709e-09 -0.000179373)
(1.99923e-07 2.19222e-09 -0.000179161)
(-1.0952e-07 6.94581e-09 -0.000182444)
(-8.0657e-08 9.79443e-09 -0.000182282)
(-4.21389e-08 1.52211e-08 -0.000181993)
(-1.16314e-07 1.06947e-08 -0.000181833)
(1.25497e-07 2.51959e-08 -0.00018175)
(-3.36799e-08 1.63564e-08 -0.00018169)
(3.29879e-07 2.80753e-08 -0.000181423)
(9.52619e-07 4.33345e-08 -0.00018142)
(2.11914e-07 2.13286e-08 -0.000181052)
(1.36863e-07 1.08822e-08 -0.000180984)
(3.63415e-07 3.25932e-08 -0.000181532)
(1.86103e-08 1.70618e-08 -0.000181609)
(2.67116e-07 2.01182e-08 -0.000180967)
(1.12091e-06 5.11052e-08 -0.00018127)
(4.74283e-07 4.69076e-08 -0.000181392)
(2.53974e-07 2.74652e-08 -0.000181076)
(3.76637e-07 3.45042e-08 -0.000181204)
(2.9035e-07 2.77422e-08 -0.000181117)
(-1.21624e-07 2.74924e-09 -0.00018097)
(-2.31375e-08 8.18297e-10 -0.000180389)
(7.60826e-08 1.43466e-08 -0.000180659)
(3.80022e-07 3.83075e-08 -0.00018127)
(1.54208e-07 2.09285e-08 -0.000181141)
(3.72838e-07 2.60394e-08 -0.000180765)
(2.016e-07 2.80197e-08 -0.00018141)
(-1.85474e-08 1.28899e-08 -0.000181594)
(-1.59017e-07 1.15852e-08 -0.000181901)
(-2.80838e-07 -4.27753e-09 -0.000181658)
(-3.39533e-07 -3.53473e-09 -0.000181665)
(-8.32542e-08 5.65496e-09 -0.000181447)
(4.07329e-07 4.34748e-08 -0.000181461)
(2.80781e-08 1.69209e-08 -0.000181916)
(-1.51092e-07 5.51581e-09 -0.000181809)
(-1.5022e-07 -6.29069e-10 -0.000181659)
(4.70736e-08 9.54135e-09 -0.000181035)
(9.93319e-08 1.58332e-08 -0.000180985)
(1.43296e-07 1.84667e-08 -0.000181246)
(4.15557e-07 3.69772e-08 -0.000181731)
(1.82127e-07 2.26841e-08 -0.000181861)
(5.4443e-07 4.39953e-08 -0.000181813)
(2.79258e-07 2.65521e-08 -0.000181793)
(-1.55423e-07 1.437e-09 -0.000181565)
(-7.67469e-08 1.03438e-08 -0.0001816)
(-1.02864e-07 6.95908e-09 -0.000181705)
(-6.13913e-08 1.52509e-08 -0.000182038)
(-1.84769e-07 3.29835e-09 -0.000181693)
(-5.14113e-08 7.41624e-09 -0.000181255)
(-2.54874e-07 -5.71686e-09 -0.00018074)
(-1.06389e-07 8.2059e-09 -0.00018078)
(-4.17037e-07 -1.34856e-08 -0.000180628)
(-1.10775e-07 -1.91972e-09 -0.000180516)
(1.71397e-07 1.55828e-08 -0.000180711)
(3.06625e-08 1.50187e-08 -0.000180844)
(3.03256e-07 3.11168e-08 -0.000180993)
(-9.29054e-08 1.25484e-08 -0.000181532)
(8.10218e-08 1.04189e-08 -0.000181257)
(1.74299e-07 2.30285e-08 -0.000181776)
(1.44016e-07 1.65552e-08 -0.000181501)
(1.23136e-08 1.48678e-08 -0.000181829)
(-5.55517e-08 1.11923e-08 -0.000181543)
(-4.90466e-08 1.25495e-08 -0.000181219)
(-1.00916e-07 6.34327e-09 -0.000181203)
(-6.67811e-08 1.34001e-08 -0.000181406)
(1.16328e-07 1.90933e-08 -0.000181018)
(5.54107e-08 2.05914e-08 -0.000181368)
(-1.68552e-07 2.52319e-11 -0.000180264)
(-4.04572e-08 -1.07726e-08 -0.000180582)
(-2.2278e-07 2.15811e-09 -0.00018038)
(5.58066e-08 -1.1539e-08 -0.000180333)
(4.13927e-08 -1.34037e-08 -0.000180019)
(-1.44841e-07 -1.15449e-09 -0.00017991)
(-5.21113e-08 -1.82705e-08 -0.000180237)
(-1.43011e-08 -3.22499e-08 -0.000180157)
(2.54925e-07 -2.30506e-08 -0.000178995)
(3.40725e-07 -3.06791e-08 -0.000179168)
(3.39385e-07 -2.94006e-08 -0.000179467)
(-1.56812e-09 -7.36579e-09 -0.000179742)
(-2.72566e-07 -1.27542e-09 -0.000180087)
(-1.14203e-07 -2.18641e-08 -0.00018017)
(5.66028e-07 -4.18514e-08 -0.000178794)
(4.67941e-07 -4.91377e-08 -0.000179621)
(2.75082e-07 -3.31228e-08 -0.00017926)
(2.72642e-07 -3.11509e-08 -0.000179391)
(-6.51543e-08 -4.06352e-09 -0.000179193)
(1.95966e-07 -1.53899e-08 -0.000179345)
(2.98975e-07 -1.98313e-08 -0.000179112)
(5.83622e-07 -3.76629e-08 -0.000179401)
(4.14286e-07 -3.44356e-08 -0.000179567)
(3.55676e-07 -3.70735e-08 -0.000179473)
(2.89967e-07 -2.87963e-08 -0.00017907)
(-3.96393e-08 -1.29477e-08 -0.000179679)
(-2.44664e-07 1.21242e-09 -0.000180014)
(-1.15627e-07 -3.40508e-09 -0.000180356)
(5.80443e-08 -1.07043e-08 -0.000179921)
(2.31316e-07 -2.31065e-08 -0.000179796)
(6.70921e-07 -5.04246e-08 -0.000179755)
(-1.56696e-07 -2.44235e-09 -0.000179303)
(-1.42053e-07 3.46667e-10 -0.000180041)
(-6.50968e-08 -8.41159e-09 -0.000180183)
(2.33322e-07 -2.99319e-08 -0.000179782)
(9.928e-08 -1.65133e-08 -0.000179384)
(1.54844e-07 -1.83783e-08 -0.000179526)
(1.6805e-07 -1.70859e-08 -0.000179583)
(1.69963e-07 -1.76508e-08 -0.000179691)
(7.66853e-07 -5.46778e-08 -0.00018017)
(1.27819e-07 -2.31219e-08 -0.000179268)
(-6.9902e-08 -8.30175e-09 -0.000179793)
(2.86945e-08 -8.94531e-09 -0.000179623)
(-2.06915e-07 1.11062e-09 -0.000179868)
(-1.71025e-07 1.78616e-09 -0.00018011)
(-1.31586e-07 -1.40485e-09 -0.000180484)
(-3.03114e-07 1.48842e-09 -0.000179834)
(-3.68447e-07 3.33185e-09 -0.000179756)
(-3.60209e-07 1.35344e-09 -0.000179199)
(-5.1132e-07 9.46e-09 -0.000179488)
(-2.34778e-07 -6.27425e-09 -0.000179132)
(3.21102e-08 -1.81868e-08 -0.000179018)
(-3.20668e-08 -2.02815e-08 -0.000178893)
(4.46647e-07 -4.2194e-08 -0.000179535)
(-3.40402e-08 -5.78945e-09 -0.000179204)
(9.95606e-08 -1.82968e-08 -0.00018003)
(1.6471e-08 -1.16724e-08 -0.000179691)
(3.4477e-07 -3.46934e-08 -0.000180313)
(8.53998e-08 -1.96636e-08 -0.000179703)
(-3.19079e-08 -1.34706e-08 -0.000179778)
(1.71766e-07 -2.42473e-08 -0.000179695)
(-1.76781e-07 9.43217e-10 -0.000179556)
(9.16957e-10 -8.65539e-09 -0.00017976)
(3.42794e-07 -3.03351e-08 -0.000179989)
(7.67425e-08 -1.49424e-08 -0.000179401)
(-4.63645e-08 1.93398e-08 -0.000182168)
(8.21124e-08 7.79727e-09 -0.000182184)
(1.22086e-07 1.06939e-08 -0.000181952)
(-1.64597e-07 2.10856e-08 -0.000181877)
(2.62879e-07 -2.22343e-10 -0.000181835)
(2.56962e-07 9.4405e-09 -0.000182188)
(-3.61558e-08 1.91201e-08 -0.000181826)
(7.95911e-08 -9.77348e-09 -0.000181044)
(4.35585e-07 -1.16962e-08 -0.000181145)
(9.5054e-08 5.11632e-09 -0.000181137)
(3.77282e-07 -1.08128e-08 -0.000181304)
(3.75684e-07 -1.52441e-09 -0.000182031)
(1.70689e-07 7.53661e-09 -0.000181764)
(2.67645e-07 -1.73722e-08 -0.00018118)
(3.90923e-07 -1.35462e-08 -0.000181516)
(-3.26222e-07 2.01423e-08 -0.000181095)
(7.88333e-08 6.30663e-09 -0.000181149)
(2.50981e-07 2.1038e-09 -0.000180902)
(1.75338e-07 1.07143e-08 -0.000181016)
(4.3662e-07 -1.35373e-08 -0.000180841)
(3.84103e-07 -6.14436e-09 -0.000181113)
(4.46622e-07 -6.25779e-09 -0.000181385)
(2.52866e-07 1.7578e-09 -0.000181359)
(2.14735e-07 -8.19248e-09 -0.000180856)
(6.80439e-08 6.99579e-09 -0.000181201)
(3.33503e-08 9.58241e-09 -0.000181515)
(1.43327e-07 1.0619e-08 -0.00018184)
(5.20895e-08 1.12886e-08 -0.000181637)
(-7.95961e-08 2.37769e-08 -0.000181769)
(-1.38579e-07 2.22977e-08 -0.000181639)
(2.14132e-07 -8.06364e-09 -0.000180984)
(3.35866e-07 -1.53746e-09 -0.000181356)
(3.75971e-07 -3.5825e-09 -0.000181833)
(3.47385e-08 1.05058e-08 -0.000181835)
(9.6615e-08 2.85412e-09 -0.000181172)
(2.11827e-07 1.07479e-09 -0.000181057)
(6.40266e-08 1.06567e-08 -0.000181186)
(3.70466e-07 -1.88912e-09 -0.000181345)
(5.00932e-07 -1.23373e-08 -0.000181781)
(4.01853e-07 -1.9068e-08 -0.000181346)
(2.86216e-07 -1.60895e-09 -0.000181167)
(2.947e-08 1.15084e-08 -0.000181537)
(3.15492e-08 1.4211e-08 -0.000181676)
(2.6621e-08 1.56706e-08 -0.000181787)
(1.96231e-07 4.15049e-09 -0.000182137)
(-1.33161e-07 2.12531e-08 -0.00018228)
(-1.95236e-07 2.06565e-08 -0.000181701)
(-3.46118e-07 2.7148e-08 -0.000181593)
(-3.05432e-07 3.02954e-08 -0.000181219)
(-5.22157e-07 4.40537e-08 -0.000181358)
(-6.43908e-07 4.29959e-08 -0.000181147)
(-4.47453e-07 2.89904e-08 -0.000181066)
(-3.09629e-07 2.86495e-08 -0.000181318)
(-1.91559e-07 1.52036e-08 -0.000180944)
(-4.49267e-09 2.47611e-08 -0.000181817)
(-1.47828e-08 1.14838e-08 -0.000181623)
(3.32876e-07 -2.37767e-09 -0.000181901)
(1.35694e-07 -4.95127e-10 -0.000181551)
(-1.48546e-07 1.81077e-08 -0.000181566)
(-9.77179e-09 1.0544e-08 -0.000181553)
(-8.50076e-08 1.49156e-08 -0.000181209)
(1.55371e-07 6.89171e-09 -0.00018132)
(2.21171e-07 6.7138e-09 -0.000181629)
(4.17132e-07 -1.35192e-08 -0.000181287)
(3.4342e-07 -2.97324e-09 -0.000181717)
(-1.02202e-08 -4.31426e-09 -0.000179842)
(1.1586e-07 -2.89868e-08 -0.000180195)
(9.68908e-08 -2.37095e-08 -0.000180041)
(-2.38272e-07 3.20001e-08 -0.000179771)
(2.43718e-07 -4.90354e-08 -0.000180021)
(2.29262e-07 -4.82899e-08 -0.000179655)
(1.68846e-07 -3.93991e-08 -0.000180029)
(-2.34103e-07 1.86721e-08 -0.000179772)
(2.21034e-07 -5.3771e-08 -0.000179114)
(6.96546e-08 -2.38093e-08 -0.000178825)
(3.57568e-07 -7.01502e-08 -0.000179287)
(2.64913e-07 -5.40869e-08 -0.000179367)
(1.76383e-07 -4.4609e-08 -0.000179912)
(-3.47923e-07 3.3977e-08 -0.000179788)
(7.62452e-08 -2.21571e-08 -0.000179169)
(5.65235e-08 -2.1203e-08 -0.000179714)
(1.38058e-07 -3.52344e-08 -0.000179583)
(3.33873e-07 -6.95983e-08 -0.0001796)
(3.17275e-08 -1.86062e-08 -0.000179013)
(3.20181e-07 -6.26827e-08 -0.000179505)
(2.36234e-07 -4.80502e-08 -0.000179043)
(4.12237e-07 -7.91465e-08 -0.000179483)
(3.9206e-07 -8.22008e-08 -0.000179629)
(2.65227e-07 -5.79474e-08 -0.000179529)
(1.73392e-08 -1.5892e-08 -0.000179021)
(1.53533e-07 -3.36823e-08 -0.000179736)
(2.05917e-07 -4.47799e-08 -0.000179864)
(8.47797e-09 -1.50571e-08 -0.000179947)
(2.10244e-07 -4.2131e-08 -0.000179904)
(2.74776e-07 -4.33152e-08 -0.000179777)
(2.28522e-07 -5.32992e-08 -0.00017944)
(2.49369e-07 -5.04649e-08 -0.000179014)
(2.08022e-07 -4.6343e-08 -0.00017957)
(1.53175e-08 -1.47366e-08 -0.000179718)
(2.0804e-07 -4.8115e-08 -0.000179673)
(1.84598e-07 -4.12388e-08 -0.000179207)
(-3.25302e-08 -3.80601e-09 -0.000179162)
(2.62357e-07 -5.20151e-08 -0.000179444)
(2.32972e-07 -4.82112e-08 -0.000179263)
(2.24253e-07 -5.42741e-08 -0.000179711)
(4.20059e-07 -8.10657e-08 -0.000179068)
(4.48046e-08 -2.03082e-08 -0.00017934)
(2.2079e-07 -4.48912e-08 -0.000179585)
(2.99663e-07 -5.51884e-08 -0.000179759)
(6.75971e-08 -2.21097e-08 -0.000179927)
(-7.02256e-08 -2.55461e-09 -0.000180587)
(-4.48913e-08 -1.40933e-08 -0.000180272)
(-4.9239e-07 6.39786e-08 -0.000180038)
(-1.73977e-07 1.60192e-08 -0.000180101)
(-6.19039e-07 8.73881e-08 -0.000179938)
(-7.18495e-07 9.79728e-08 -0.000180053)
(-2.07796e-07 2.17376e-08 -0.000180308)
(-2.02252e-07 2.4873e-08 -0.000179729)
(-1.18675e-07 4.66834e-09 -0.000180104)
(2.51e-07 -4.58275e-08 -0.000179816)
(1.6313e-07 -3.75363e-08 -0.000179981)
(2.14464e-07 -4.82573e-08 -0.000179589)
(1.24177e-07 -3.1566e-08 -0.00017998)
(-1.73756e-07 2.02964e-08 -0.000179359)
(-2.37879e-08 -3.57767e-09 -0.000179766)
(9.14413e-08 -2.45484e-08 -0.000179652)
(7.49428e-08 -1.98354e-08 -0.000179487)
(-1.20162e-07 8.16101e-09 -0.000179519)
(3.14046e-07 -6.62025e-08 -0.000180102)
(2.62164e-07 -5.55817e-08 -0.000179254)
(1.22523e-07 7.40733e-10 -0.000181679)
(1.03758e-07 -3.30596e-09 -0.000181706)
(2.82843e-07 -2.82569e-08 -0.000181355)
(-5.77191e-08 2.60931e-08 -0.000181696)
(-1.19792e-08 1.35487e-08 -0.000181481)
(2.56881e-07 -2.73192e-08 -0.000181586)
(-2.86467e-08 1.69727e-08 -0.000181493)
(-2.2702e-07 4.99632e-08 -0.000180963)
(1.42566e-07 -1.55694e-08 -0.000180741)
(1.44003e-07 -6.84629e-09 -0.000181046)
(-3.70989e-08 1.79897e-08 -0.00018108)
(6.54681e-08 1.70127e-09 -0.00018163)
(-1.58824e-07 3.53205e-08 -0.00018155)
(-3.45232e-07 6.62764e-08 -0.000181005)
(3.88866e-07 -4.82403e-08 -0.000181307)
(-1.64715e-07 3.57249e-08 -0.000181433)
(1.32774e-07 -9.41194e-09 -0.000181456)
(2.73429e-07 -3.41648e-08 -0.000181098)
(2.37697e-07 -1.42346e-08 -0.000180996)
(4.06994e-07 -5.37255e-08 -0.000180669)
(6.24684e-07 -8.57528e-08 -0.000181038)
(5.20009e-07 -7.13086e-08 -0.000181303)
(3.54795e-07 -4.8873e-08 -0.00018123)
(3.80258e-07 -5.72689e-08 -0.000180815)
(3.94447e-07 -4.76351e-08 -0.000181202)
(1.26779e-07 -1.0047e-08 -0.00018142)
(7.55634e-08 -9.47592e-10 -0.000181429)
(1.64813e-07 -1.85131e-08 -0.000181162)
(2.99298e-07 -3.89554e-08 -0.000181335)
(4.20731e-07 -4.56405e-08 -0.000181722)
(-4.2271e-08 2.16887e-08 -0.000181097)
(2.28846e-08 1.05277e-08 -0.000180979)
(2.32962e-07 -2.24387e-08 -0.00018121)
(8.02322e-08 3.15294e-09 -0.000181457)
(-3.42814e-08 1.18969e-08 -0.000181118)
(4.19064e-08 7.19267e-10 -0.000180851)
(-4.36897e-08 1.95041e-08 -0.000181246)
(-9.46185e-08 3.27565e-08 -0.00018134)
(9.12271e-08 2.31642e-09 -0.000181377)
(9.56072e-08 -1.06613e-08 -0.000181246)
(-8.78e-09 1.02345e-08 -0.000180903)
(9.37122e-09 1.31147e-08 -0.000181346)
(-7.32778e-08 2.39859e-08 -0.000181594)
(-1.84697e-07 4.62506e-08 -0.000181753)
(1.37337e-07 -7.05949e-09 -0.000181959)
(-5.17157e-08 1.81888e-08 -0.000182442)
(-3.58701e-07 6.32784e-08 -0.000181901)
(-2.50673e-07 5.53684e-08 -0.000182089)
(-2.43274e-07 5.22707e-08 -0.000181706)
(-1.49595e-07 4.24575e-08 -0.000181845)
(-4.43291e-09 1.66016e-08 -0.000181974)
(-1.46008e-07 3.55197e-08 -0.000181768)
(1.84086e-07 -1.00996e-08 -0.000181826)
(-1.26057e-08 9.11315e-09 -0.000181437)
(7.75208e-08 6.56585e-09 -0.000181799)
(-2.25641e-07 5.07577e-08 -0.000181673)
(-1.16676e-08 1.31711e-08 -0.000181442)
(1.93722e-07 -2.17478e-08 -0.000181285)
(8.27124e-08 7.31918e-09 -0.000181555)
(4.49622e-08 8.83506e-09 -0.000181367)
(-8.14065e-09 1.87189e-08 -0.000181455)
(8.26824e-08 1.03539e-09 -0.000181392)
(1.16942e-07 8.51245e-10 -0.000181629)
(1.34597e-07 -1.29691e-08 -0.000181096)
(3.5536e-07 -4.33806e-08 -0.000181251)
(1.68589e-08 -1.11179e-08 -0.000179408)
(5.62832e-08 -2.70649e-08 -0.00017972)
(3.42562e-07 -1.06813e-07 -0.000179814)
(-2.77249e-07 6.744e-08 -0.000179077)
(-4.17919e-08 -3.73607e-10 -0.000179992)
(1.73784e-07 -5.86351e-08 -0.000179577)
(-1.05623e-07 1.33576e-08 -0.000179576)
(-2.98545e-07 6.35256e-08 -0.000179726)
(-5.45914e-08 -4.01935e-09 -0.000179336)
(-1.4069e-07 2.38813e-08 -0.000178724)
(1.09314e-07 -3.99249e-08 -0.000179475)
(1.87172e-07 -5.88957e-08 -0.000179456)
(3.6069e-09 -1.5788e-08 -0.000179826)
(-2.85873e-07 6.46447e-08 -0.000179724)
(8.20139e-08 -3.38315e-08 -0.000179364)
(-2.11421e-07 4.32732e-08 -0.000179345)
(2.55496e-07 -8.14771e-08 -0.000179801)
(4.30442e-07 -1.31065e-07 -0.000179444)
(2.87175e-07 -9.24464e-08 -0.00017849)
(3.24329e-07 -1.06709e-07 -0.000179037)
(5.18413e-07 -1.52149e-07 -0.00017864)
(5.29232e-07 -1.51643e-07 -0.000178877)
(3.33223e-07 -1.06076e-07 -0.00017888)
(4.48894e-07 -1.41488e-07 -0.000179085)
(1.6874e-07 -5.88606e-08 -0.000178296)
(3.66869e-08 -2.20521e-08 -0.000179263)
(1.12579e-07 -3.93538e-08 -0.000179656)
(-1.20022e-07 1.44739e-08 -0.000179537)
(-2.32661e-07 4.31621e-08 -0.000179549)
(5.57401e-07 -1.61176e-07 -0.000180039)
(2.75994e-07 -8.98756e-08 -0.000179034)
(1.52083e-07 -5.26519e-08 -0.000178951)
(1.78975e-07 -5.74272e-08 -0.000179664)
(-5.88033e-08 7.47431e-09 -0.000179508)
(-7.10993e-08 9.52367e-09 -0.000179751)
(2.02694e-09 -1.48146e-08 -0.000179452)
(-2.58339e-07 6.2829e-08 -0.000179356)
(-3.25098e-08 1.99495e-09 -0.000180085)
(1.59541e-07 -5.23124e-08 -0.000179803)
(-1.61185e-07 2.59627e-08 -0.000179879)
(2.08486e-07 -7.72818e-08 -0.000179667)
(1.49739e-07 -5.49566e-08 -0.000179598)
(2.98147e-08 -1.94129e-08 -0.000179768)
(1.45954e-07 -4.41019e-08 -0.000180049)
(2.38376e-07 -7.44639e-08 -0.000180217)
(-9.58968e-08 1.57639e-08 -0.000180577)
(-1.29421e-07 1.87315e-08 -0.000180557)
(-1.45805e-07 2.51733e-08 -0.000180404)
(-3.60805e-08 -2.71462e-09 -0.000180375)
(-7.38305e-08 9.55518e-09 -0.000179972)
(-2.00369e-07 4.27308e-08 -0.00017992)
(-1.92347e-07 3.99274e-08 -0.000180087)
(1.94586e-07 -6.28762e-08 -0.000179709)
(-2.72215e-07 6.199e-08 -0.000179542)
(-1.97681e-08 -4.6014e-09 -0.000179859)
(-9.49882e-08 1.50903e-08 -0.00017986)
(1.1018e-07 -4.24446e-08 -0.000179735)
(2.16619e-07 -7.56382e-08 -0.000179901)
(-1.45303e-08 -8.46914e-09 -0.000179119)
(5.2911e-08 -2.98995e-08 -0.000179803)
(1.30036e-07 -4.36447e-08 -0.000179764)
(2.46979e-07 -7.98263e-08 -0.000179673)
(-7.67334e-09 -8.92004e-09 -0.000179434)
(-7.75181e-08 5.9204e-09 -0.00017998)
(1.13434e-07 -4.32887e-08 -0.000179242)
(-6.77778e-08 3.72212e-08 -0.000181538)
(-2.94423e-07 9.11823e-08 -0.000181637)
(-1.80599e-07 5.58244e-08 -0.000181043)
(8.5252e-09 1.83288e-08 -0.000181576)
(-1.79345e-07 6.12628e-08 -0.000181654)
(-8.62635e-09 1.57198e-08 -0.000181401)
(-1.74825e-07 6.02247e-08 -0.00018147)
(-2.54434e-07 8.18115e-08 -0.000181234)
(-6.15511e-08 2.56316e-08 -0.000180888)
(1.27815e-07 -1.68801e-08 -0.000180871)
(6.71935e-08 -1.89971e-09 -0.00018113)
(2.05954e-07 -4.31439e-08 -0.00018143)
(1.08546e-07 -1.93637e-08 -0.000181526)
(-3.74887e-07 1.18852e-07 -0.000181201)
(1.05086e-07 -1.49632e-08 -0.000180922)
(1.04503e-08 8.04862e-09 -0.000181307)
(1.1984e-07 -1.98279e-08 -0.000181247)
(7.02821e-08 -1.32603e-08 -0.000180777)
(-6.10055e-08 3.05064e-08 -0.000180629)
(-5.85831e-08 2.45803e-08 -0.000180387)