/*--------------------------------*- C++ -*----------------------------------*\
| =========                 |                                                 |
| \\      /  F ield         | OpenFOAM: The Open Source CFD Toolbox           |
|  \\    /   O peration     | Version:  2206                                  |
|   \\  /    A nd           | Website:  www.openfoam.com                      |
|    \\/     M anipulation  |                                                 |
\*---------------------------------------------------------------------------*/
FoamFile
{
    version     2.0;
    format      ascii;
    arch        "LSB;label=32;scalar=64";
    class       surfaceScalarField;
    location    "0.4";
    object      phi;
}
// * * * * * * * * * * * * * * * * * * * * * * * * * * * * * * * * * * * * * //

dimensions      [0 3 -1 0 0 0 0];

oriented        oriented;

internalField   nonuniform List<scalar> 
196491
(
-2.011e-12
-1.72004e-12
-7.4204e-09
-3.75777e-12
-1.76866e-12
-1.96643e-12
-6.08403e-09
-3.28112e-12
-1.45555e-12
-1.47018e-08
-6.59029e-12
-2.22136e-08
-1.29251e-11
-1.01422e-12
-8.02774e-13
-1.09527e-08
4.42021e-12
1.59236e-11
8.97289e-14
-2.11481e-08
-2.01619e-08
7.86192e-14
-8.00449e-13
-1.32963e-08
-3.52307e-12
-1.94806e-12
-1.99718e-12
-6.0805e-09
-3.59556e-12
2.17767e-12
-1.49237e-12
-1.46974e-08
-6.83686e-12
-2.22027e-08
-1.18555e-12
-1.29241e-11
-7.87012e-13
-1.09469e-08
1.59181e-11
4.58318e-12
-2.11448e-08
-8.03206e-13
-1.32932e-08
-2.01535e-08
-1.80838e-12
-7.41922e-09
-8.3323e-13
-6.84223e-15
-4.92196e-09
-3.72924e-13
3.48703e-14
-2.66292e-09
-1.44761e-13
3.1893e-14
-1.31172e-09
-3.54394e-14
1.84017e-14
-5.42887e-10
5.81576e-15
-1.28933e-10
-9.75506e-13
1.47426e-13
-1.33499e-13
-4.89155e-09
-4.42887e-13
5.96456e-14
-5.63795e-14
-2.646e-09
-1.72696e-13
2.25933e-14
-2.44237e-14
-1.30319e-09
-4.20018e-14
7.98312e-15
-9.76312e-15
-5.3932e-10
2.08947e-15
-2.34717e-15
-1.28104e-10
-7.02214e-13
-2.63532e-09
-3.25331e-13
-1.43392e-09
-1.28687e-13
-7.09299e-10
-3.19398e-14
-2.94471e-10
-7.00728e-11
-7.16409e-13
9.1955e-14
-2.4428e-13
-2.63466e-09
-3.29719e-13
3.28678e-14
-1.26815e-13
-1.43366e-09
-1.29214e-13
1.06231e-14
-6.18392e-14
-7.09137e-10
-3.18605e-14
2.73056e-15
-2.61217e-14
-2.94433e-10
-3.49604e-16
-6.62035e-15
-7.00512e-11
-8.90789e-13
-4.92128e-09
-4.01899e-13
-2.6626e-09
-1.56487e-13
-1.31159e-09
-3.80644e-14
-5.42887e-10
-1.28941e-10
-9.91516e-13
-2.21979e-13
-4.88901e-09
-4.51237e-13
-1.15915e-13
-2.64474e-09
-1.76423e-13
-5.89949e-14
-1.30249e-09
-4.3159e-14
-2.57675e-14
-5.3909e-10
-6.53336e-15
-1.28023e-10
-3.95754e-13
-6.10467e-14
-3.0546e-09
-1.83792e-13
-2.03815e-14
-1.65824e-09
-7.4057e-14
-6.55358e-15
-8.18877e-10
-1.90259e-14
-2.24203e-15
-3.39533e-10
-6.11177e-16
-8.07364e-11
-3.89116e-13
3.50597e-14
-3.3354e-09
-1.80519e-13
2.50602e-14
-1.80832e-09
-7.22804e-14
1.47702e-14
-8.92179e-10
-1.83302e-14
6.8518e-15
-3.69678e-10
1.7919e-15
-8.78808e-11
-3.89391e-13
-1.33902e-13
-3.05326e-09
-1.80662e-13
-7.22792e-14
-1.65751e-09
-7.2525e-14
-3.68895e-14
-8.18478e-10
-1.84582e-14
-1.61211e-14
-3.39393e-10
-4.07444e-15
-8.07027e-11
-3.91159e-13
-3.33463e-09
-1.82098e-13
-1.80791e-09
-7.32872e-14
-8.91979e-10
-1.87522e-14
-3.69596e-10
-8.78614e-11
-3.08695e-11
-1.25471e-11
-3.22523e-12
-7.47071e-09
-5.3985e-12
-2.21679e-12
7.42927e-09
-1.4217e-12
-7.42023e-09
3.96808e-11
3.17541e-11
2.70799e-08
4.01588e-11
4.09142e-11
-2.72324e-08
-5.94755e-11
2.23367e-11
-1.23775e-10
2.36179e-08
-2.34878e-08
-1.11623e-11
4.61413e-12
-2.29591e-11
2.31906e-08
-2.31665e-08
-8.48755e-11
-2.39724e-12
-1.48045e-08
-9.9308e-10
3.35081e-11
9.79872e-11
-1.09902e-11
5.04914e-10
3.48924e-10
1.09718e-10
4.48813e-10
-1.12812e-07
-7.40886e-11
-2.04806e-10
2.24486e-08
-2.23141e-08
-5.09543e-11
5.7907e-14
4.53811e-12
1.63485e-11
2.11785e-08
-2.11485e-08
-1.27123e-11
-3.42887e-12
1.4717e-08
-1.31843e-12
-1.47018e-08
1.51276e-13
1.11638e-11
-9.31248e-11
2.47987e-08
-2.47678e-08
-1.77464e-10
9.66419e-11
3.76595e-11
2.84981e-11
-2.82441e-11
-5.78732e-11
5.62064e-11
-5.75243e-11
5.67588e-11
-1.10784e-07
-1.77517e-11
-2.34976e-11
2.21882e-08
-2.21708e-08
-3.33609e-11
8.78637e-11
-9.75177e-11
1.32809e-10
9.71188e-11
-1.312e-10
-1.13398e-07
-5.09312e-11
1.63306e-11
4.61749e-12
2.11752e-08
-2.11452e-08
-1.27762e-11
2.33206e-12
-3.65858e-12
1.47129e-08
-1.3402e-12
-1.46974e-08
-9.30586e-11
1.10183e-11
2.47961e-08
-2.47648e-08
6.8754e-13
-8.11579e-11
-3.67004e-11
5.61914e-11
3.62141e-11
-5.8094e-11
8.31827e-11
1.41289e-12
-3.01386e-12
-1.1195e-07
-1.49291e-11
9.23541e-13
-7.85184e-11
1.3182e-10
7.97452e-11
-1.31088e-10
-1.14385e-07
1.14391e-11
-1.76419e-11
-2.33615e-11
2.21737e-08
-2.21569e-08
-5.51951e-12
7.42831e-09
-1.42018e-12
-7.41904e-09
2.72758e-08
9.48602e-11
-2.73287e-08
-1.36901e-10
1.38009e-11
-2.31437e-11
2.32415e-08
-2.32165e-08
4.12643e-12
4.90248e-12
2.1259e-12
1.83499e-12
-1.66869e-08
-3.26254e-12
-3.49307e-12
1.29365e-11
1.37202e-11
-3.11383e-12
6.20079e-09
-2.07392e-12
-2.04924e-12
-6.19356e-09
-3.38051e-12
6.1692e-09
-2.9449e-12
-1.33112e-12
-6.16154e-09
-1.24761e-11
-1.3878e-11
-1.66671e-08
2.69405e-12
1.05486e-12
2.77347e-12
1.49861e-12
-2.10116e-08
-9.06761e-12
1.71949e-11
2.1262e-11
-4.42419e-11
1.43364e-08
-1.33334e-12
-1.42706e-08
4.75688e-11
2.461e-08
-1.50611e-10
-1.44779e-10
-2.44859e-08
-3.21319e-12
-3.83328e-11
-4.49123e-11
-2.14722e-11
-2.09992e-08
6.24826e-13
3.26443e-11
-1.3737e-11
-1.99536e-08
-1.13503e-11
2.10225e-11
2.02618e-11
-1.11579e-11
1.39704e-08
-7.692e-13
-1.39568e-08
2.12412e-11
2.35615e-08
-4.05786e-11
-3.22084e-11
-2.35329e-08
-4.19048e-12
2.26012e-11
1.07671e-11
-1.99334e-11
-1.99375e-08
9.70449e-13
4.05177e-11
3.13343e-11
-1.09654e-08
1.28874e-11
1.14238e-12
-2.03218e-12
6.9955e-13
1.3273e-11
2.01883e-08
6.70614e-12
-4.16288e-11
-2.01621e-08
1.1746e-12
1.33119e-08
6.60131e-14
-7.08377e-13
-1.3296e-08
-4.4349e-12
-1.59433e-11
6.86062e-14
5.06389e-11
1.8839e-12
-7.30728e-13
-1.09522e-08
-6.70822e-12
4.14944e-11
6.95525e-14
6.5691e-13
-6.09169e-09
3.59761e-12
2.02634e-12
4.21056e-12
2.22395e-08
-2.63971e-11
-2.2214e-08
3.12514e-12
1.27399e-11
1.46664e-12
-1.47829e-12
-6.08411e-09
2.59234e-11
-1.09596e-08
1.00154e-12
1.2847e-11
-1.87881e-12
7.19307e-13
1.29882e-12
1.33087e-08
-7.04698e-13
-1.32929e-08
1.32948e-11
2.01801e-08
6.95998e-12
-4.19915e-11
-2.01538e-08
-1.59466e-11
-4.31731e-12
5.06923e-11
2.04849e-12
-7.03565e-13
-1.09464e-08
6.53703e-13
-6.51264e-12
4.16432e-11
-6.08817e-09
3.78704e-12
2.00531e-12
4.03737e-12
2.22289e-08
-2.64232e-11
-2.22032e-08
2.83383e-12
-2.00391e-12
1.31606e-11
1.42924e-12
-1.48307e-12
-6.0806e-09
2.629e-11
5.28904e-12
1.79836e-12
-3.49059e-12
-2.8408e-12
1.27523e-11
1.35325e-11
-1.66911e-08
2.50241e-12
1.61148e-12
-6.16871e-09
2.04196e-12
1.72665e-12
-6.20148e-09
1.41349e-11
-1.1402e-11
2.6956e-11
-1.99515e-08
2.39431e-08
-3.02019e-11
-4.79079e-11
-2.39027e-08
1.45636e-11
2.33646e-11
-3.59495e-12
1.09008e-11
2.92496e-11
4.86142e-11
9.5461e-13
-1.39552e-08
-7.98505e-12
3.03449e-11
1.10638e-11
-2.10266e-08
-4.44499e-12
1.11554e-11
-2.68328e-12
-2.36351e-08
1.31074e-11
1.02888e-12
-1.43537e-08
-1.38505e-12
-2.42183e-08
6.72601e-11
1.70338e-12
-7.57949e-09
1.36861e-12
2.38978e-10
-4.61779e-10
-1.1537e-07
-3.21539e-10
4.19403e-10
-1.22467e-07
3.82892e-10
-3.63563e-11
-1.17736e-07
3.63194e-10
-3.748e-12
-1.26561e-07
-3.70124e-10
9.64481e-12
-1.15217e-07
2.015e-12
-1.22542e-07
-1.32729e-11
-6.1693e-12
-1.16888e-07
3.66783e-13
-1.25871e-07
3.36668e-12
-1.20546e-07
-1.29974e-11
3.6313e-10
-1.268e-07
1.32151e-11
-7.03571e-12
-1.2051e-07
-1.45507e-11
-1.25976e-07
-2.26956e-11
-2.35649e-08
1.54547e-11
2.21248e-11
-4.05886e-11
-4.05209e-11
1.52529e-11
2.62107e-08
-2.62385e-08
2.2637e-11
2.49515e-08
-2.49453e-08
-2.35684e-08
1.10639e-10
-2.64514e-08
4.14043e-10
-3.09927e-10
2.42044e-08
-2.40479e-08
2.55171e-08
-1.67136e-10
-2.53507e-08
-2.1165e-10
-8.64734e-11
-2.63404e-08
-2.60151e-08
-7.1064e-11
1.75052e-11
2.65087e-11
-7.11131e-11
2.41171e-08
1.55154e-11
-2.4092e-08
1.88916e-11
2.68422e-08
7.10008e-12
-2.68285e-08
-1.04222e-11
9.25696e-11
-5.87732e-15
-2.10477e-11
-2.59492e-08
-1.46267e-11
-6.95303e-12
-3.6609e-11
-2.61436e-08
-4.4578e-11
-4.51712e-11
2.38975e-08
-2.38809e-08
2.51563e-08
-3.82227e-11
-2.51176e-08
2.43786e-11
1.63837e-11
-2.61913e-08
-2.60154e-08
2.08715e-11
-6.98697e-11
-2.84959e-11
2.17882e-11
2.68401e-08
-2.6816e-08
-7.07999e-11
2.41096e-08
1.85614e-11
-2.40884e-08
9.24498e-11
-1.04595e-11
2.98372e-11
-2.60145e-08
-1.72643e-11
-2.61176e-08
-4.43919e-11
-3.95288e-11
-4.42103e-11
2.38875e-08
-2.38688e-08
-4.07538e-11
2.51659e-08
-2.51225e-08
1.62261e-11
2.51316e-11
-2.61365e-08
-1.73301e-11
6.0701e-11
-2.35678e-08
-9.21054e-11
-1.23699e-11
1.27888e-10
2.61275e-08
-2.60614e-08
-1.77414e-11
1.97074e-10
-2.52491e-08
-1.36925e-12
1.25343e-14
-4.07386e-14
-4.92548e-09
-5.55488e-13
4.02433e-14
-6.18996e-15
-2.66498e-09
-1.95387e-13
3.09194e-14
4.82128e-15
-1.31268e-09
-4.31887e-14
1.59182e-14
4.86679e-15
-5.43303e-10
4.3815e-15
1.7287e-15
-1.29023e-10
-7.75674e-13
-4.88455e-14
4.92102e-09
-3.5825e-15
-4.92161e-09
-3.85353e-13
-1.45932e-14
2.66243e-09
-1.4317e-14
-2.6628e-09
-1.58966e-13
-2.40342e-15
1.31149e-09
-1.51187e-14
-1.3117e-09
-3.96702e-14
2.19863e-15
5.4278e-10
-9.52618e-15
-5.42892e-10
1.94417e-15
1.28898e-10
-2.82627e-15
-1.28936e-10
-9.98304e-13
-2.63765e-09
-4.1539e-13
-1.43523e-09
-1.48108e-13
-7.0991e-10
-3.2519e-14
-2.94719e-10
-7.01208e-11
-6.87318e-13
2.63461e-09
-1.9755e-13
-2.63509e-09
-3.43083e-13
1.43359e-09
-1.05692e-13
-1.43385e-09
-1.4276e-13
7.09145e-10
-5.34699e-14
-7.09294e-10
-3.63723e-14
2.94399e-10
-2.33839e-14
-2.94479e-10
7.00488e-11
-6.34669e-15
-7.0077e-11
-7.01625e-13
9.78945e-14
2.63397e-09
-2.60967e-13
-2.63444e-09
-3.50097e-13
4.79679e-14
1.43334e-09
-1.48165e-13
-1.43359e-09
-1.44642e-13
2.23953e-14
7.08989e-10
-7.84946e-14
-7.09138e-10
-3.63471e-14
8.23644e-15
2.94364e-10
-3.52473e-14
-2.94445e-10
1.3307e-15
7.00283e-11
-9.43458e-15
-7.00565e-11
-7.7823e-13
4.92035e-09
-4.92092e-09
2.86422e-14
-3.89555e-13
2.66213e-09
-2.66248e-09
1.29371e-14
-1.62569e-13
1.31137e-09
-1.31158e-09
3.75201e-15
-4.10464e-14
5.42786e-10
-5.42899e-10
1.65194e-16
1.28908e-10
-1.28948e-10
8.58079e-18
8.46191e-13
4.70909e-14
1.24914e-15
3.59226e-13
1.21569e-14
-9.50824e-15
1.35609e-13
5.45285e-15
-1.21638e-14
3.32522e-14
2.49861e-15
-7.759e-15
5.54839e-16
-2.39397e-15
2.86104e-13
-3.05406e-09
1.53055e-13
-2.7609e-13
1.13222e-13
-1.65801e-09
1.01153e-13
-1.63498e-13
4.30278e-14
-8.18774e-10
5.91139e-14
-9.22092e-14
1.15259e-14
-3.39486e-10
2.78308e-14
-4.35593e-14
-8.07203e-11
7.34184e-15
-1.19125e-14
-4.29341e-13
9.56363e-14
3.33486e-09
2.15e-14
-3.33526e-09
-2.33058e-13
3.96906e-14
1.80808e-09
1.46831e-14
-1.80833e-09
-1.00699e-13
1.46691e-14
8.92076e-10
8.8905e-15
-8.92232e-10
-2.57571e-14
4.7715e-15
3.69631e-10
4.28264e-15
-3.69715e-10
9.99653e-16
8.78649e-11
1.15745e-15
-8.78928e-11
-4.29291e-13
1.71717e-13
-3.05444e-09
-2.26592e-13
8.49555e-14
-1.65826e-09
-9.72083e-14
3.92318e-14
-8.18928e-10
-2.50941e-14
1.54511e-14
-3.39568e-10
3.45173e-15
-8.07479e-11
2.43556e-13
2.73499e-14
9.06302e-14
1.97459e-14
3.48183e-14
1.19891e-14
1.00747e-14
5.69601e-15
1.49441e-15
6.72128e-13
1.33281e-13
2.94721e-13
6.55623e-14
1.12383e-13
3.34068e-14
2.73079e-14
1.49306e-14
3.82979e-15
2.9447e-13
-3.05273e-09
9.67709e-14
-2.01845e-13
1.16277e-13
-1.65728e-09
6.06291e-14
-1.13136e-13
4.38374e-14
-8.18378e-10
3.46282e-14
-6.26315e-14
1.15763e-14
-3.39347e-10
1.62565e-14
-2.97381e-14
-8.06871e-11
4.30525e-15
-8.34143e-15
-4.27131e-13
1.41224e-13
3.3341e-09
-3.33449e-09
-2.32314e-13
7.11351e-14
1.80767e-09
-1.80793e-09
-1.00661e-13
3.35394e-14
8.91877e-10
-8.92033e-10
-2.58665e-14
1.37255e-14
3.6955e-10
-3.69634e-10
3.32037e-15
8.78456e-11
-8.78737e-11
-4.16157e-13
2.32357e-13
-3.05311e-09
-2.206e-13
1.24428e-13
-1.65753e-09
-9.49136e-14
6.23603e-14
-8.18532e-10
-2.45421e-14
2.63966e-14
-3.3943e-10
6.37103e-15
-8.07147e-11
2.41581e-13
8.96118e-14
3.44533e-14
1.00028e-14
6.50509e-13
2.67143e-14
5.63573e-14
2.83816e-13
3.89653e-14
1.22293e-14
1.07784e-13
2.57154e-14
1.79009e-15
2.60235e-14
1.24256e-14
-9.32198e-17
3.31996e-15
-2.65337e-16
8.26414e-13
6.93954e-14
3.49681e-13
4.47024e-14
1.32398e-13
2.36441e-14
3.29247e-14
1.03896e-14
2.72449e-15
4.57852e-13
-3.66009e-14
5.1825e-16
-2.6194e-09
1.9969e-13
-2.28819e-14
3.24613e-15
-1.42498e-09
7.70974e-14
-1.19737e-14
1.93949e-15
-7.04782e-10
1.94587e-14
-5.18583e-15
8.1892e-16
-2.92538e-10
-1.22122e-15
2.48365e-16
-6.96182e-11
7.62492e-13
-4.92164e-09
4.27737e-15
3.18607e-13
-2.66267e-09
-2.49284e-14
1.2073e-13
-1.31163e-09
-2.08056e-14
3.02773e-14
-5.42855e-10
-1.14783e-14
-1.28939e-10
-3.54583e-15
-9.29973e-13
-9.44079e-15
3.50913e-15
4.71361e-09
-4.71473e-09
-4.01132e-13
-2.7425e-14
3.5838e-14
2.55249e-09
-2.55302e-09
-1.50358e-13
-2.52284e-14
3.40212e-14
1.25799e-09
-1.25825e-09
-3.55118e-14
-1.49099e-14
2.01745e-14
5.20933e-10
-5.21053e-10
-4.50856e-15
6.13093e-15
1.23761e-10
-1.23798e-10
-5.56818e-13
2.62027e-09
-2.62109e-09
-2.34864e-13
1.42562e-09
-1.42598e-09
-8.72055e-14
7.04996e-10
-7.05165e-10
-2.0717e-14
2.92682e-10
-2.92759e-10
6.96327e-11
-6.96562e-11
3.60872e-13
8.72561e-14
1.95799e-13
9.74944e-14
8.74594e-14
6.75886e-14
2.4088e-14
3.49292e-14
1.01631e-14
-6.87398e-13
-1.74197e-14
4.71324e-09
-4.71386e-09
-3.2846e-13
2.00085e-14
2.55197e-09
-2.55231e-09
-1.34007e-13
2.41428e-14
1.25786e-09
-1.25805e-09
-3.38547e-14
1.53772e-14
5.20865e-10
-5.2096e-10
4.98775e-15
1.23721e-10
-1.23754e-10
-4.10111e-13
2.61874e-09
-2.61912e-09
-2.11636e-13
1.42459e-09
-1.42479e-09
-9.01965e-14
7.04604e-10
-7.04716e-10
-2.34982e-14
2.92482e-10
-2.92543e-10
6.958e-11
-6.96014e-11
4.345e-13
-5.34764e-14
1.90261e-13
-4.7463e-14
7.36471e-14
-3.42012e-14
1.849e-14
-1.81081e-14
-5.13855e-15
5.10352e-13
8.93696e-14
2.38908e-13
9.20989e-14
9.94742e-14
6.47039e-14
2.63342e-14
3.30032e-14
8.99104e-15
7.1243e-13
3.12503e-13
1.21836e-13
3.06969e-14
9.85751e-13
-4.89065e-09
4.36225e-13
-2.64555e-09
1.68195e-13
-1.30298e-09
4.13047e-14
-5.39222e-10
-1.2807e-10
-7.67231e-13
-4.89139e-09
-3.7467e-13
-2.64596e-09
-1.56649e-13
-1.30322e-09
-4.02437e-14
-5.39346e-10
-1.28114e-10
9.7403e-13
-4.88812e-09
4.30413e-13
-2.6443e-09
1.66232e-13
-1.30229e-09
4.1073e-14
-5.38995e-10
-1.27991e-10
-7.69379e-13
-4.88886e-09
-3.7627e-13
-2.64471e-09
-1.57646e-13
-1.30252e-09
-4.0611e-14
-5.39121e-10
-1.28034e-10
4.19567e-13
1.69259e-14
-2.61852e-09
1.79334e-13
1.42796e-14
-1.42458e-09
6.81155e-14
6.98003e-15
-7.04601e-10
1.68271e-14
2.41301e-15
-2.92477e-10
3.02962e-16
-6.959e-11
7.67587e-13
9.15202e-16
-4.7129e-09
3.31543e-13
-4.13873e-16
-2.55193e-09
1.26361e-13
-1.21163e-15
-1.25779e-09
3.12674e-14
-9.09153e-16
-5.20788e-10
-2.81842e-16
-1.23725e-10
8.27004e-13
-4.71355e-09
3.59314e-13
-2.55226e-09
1.36396e-13
-1.25795e-09
3.31175e-14
-5.20833e-10
-1.23751e-10
3.17388e-10
2.43016e-10
1.11124e-07
2.02597e-10
2.55116e-10
1.33373e-10
3.12198e-11
2.42043e-10
6.77503e-11
9.59226e-11
-1.11941e-07
-7.71667e-10
-2.06838e-11
6.59525e-11
1.47044e-11
2.70964e-08
-2.72539e-08
9.75088e-11
-4.04329e-12
-8.31444e-12
4.29719e-11
-3.19632e-11
1.14673e-07
-1.14672e-07
-3.67627e-11
4.46289e-12
-1.0947e-11
1.10858e-07
2.791e-11
3.79019e-11
-2.81866e-11
-5.76423e-11
5.70551e-11
-5.7833e-11
5.84585e-11
-1.10852e-07
-1.11476e-07
8.55518e-12
4.82515e-10
-8.04653e-10
1.11766e-07
1.81298e-11
4.05667e-11
-1.51013e-11
3.82304e-12
2.17396e-11
-1.93924e-11
-2.65917e-11
-2.72543e-08
7.90335e-11
2.17475e-13
5.05767e-11
3.07381e-11
2.70937e-08
-4.19542e-15
2.45503e-12
-1.14676e-07
-1.47792e-12
-4.22583e-13
1.14675e-07
-1.10856e-07
-3.67537e-11
-1.22986e-12
-8.63455e-13
1.10855e-07
2.81275e-11
3.79556e-11
-2.35176e-11
-5.74531e-11
5.69055e-11
5.85926e-11
-6.01867e-11
-1.11855e-07
-4.14863e-11
-8.37841e-13
-4.06661e-13
1.11856e-07
1.45888e-11
4.26564e-11
-1.4647e-11
4.26866e-12
2.43967e-11
-3.49363e-12
-2.52916e-11
-2.72438e-08
2.7082e-11
4.21359e-11
4.99436e-11
3.3341e-11
2.70913e-08
-1.00837e-12
1.32123e-12
-1.14676e-07
-9.94429e-13
4.80659e-13
1.14676e-07
-1.10856e-07
-3.68293e-11
-8.69227e-13
-5.83313e-13
1.10856e-07
2.84915e-11
3.81258e-11
-2.81881e-11
-5.75843e-11
5.68034e-11
5.84786e-11
-5.77813e-11
-1.11857e-07
-4.14184e-11
1.9896e-13
-1.49321e-13
1.11858e-07
1.46973e-11
4.21697e-11
-1.52099e-11
4.16924e-12
2.42579e-11
-3.58151e-12
-2.54303e-11
-2.72438e-08
2.71385e-11
4.21541e-11
4.99042e-11
3.32845e-11
2.70913e-08
-4.25523e-13
1.32957e-12
-1.14676e-07
-7.92152e-13
3.13663e-13
1.14675e-07
-1.10855e-07
-3.66635e-11
-1.28096e-12
-8.41876e-13
1.10853e-07
2.82677e-11
3.80234e-11
-2.33926e-11
-5.74717e-11
5.68951e-11
5.86004e-11
-6.02171e-11
-1.11858e-07
-4.13825e-11
-6.07104e-13
-3.41996e-14
1.11858e-07
1.47159e-11
4.21989e-11
-1.5197e-11
4.35043e-12
2.45749e-11
-3.37474e-12
-2.51024e-11
-2.72437e-08
2.69905e-11
4.20359e-11
4.99929e-11
3.34619e-11
2.70912e-08
-1.33752e-13
9.65524e-13
-1.14674e-07
-5.2561e-13
1.9435e-13
1.14673e-07
-1.10854e-07
-3.65916e-11
-1.37101e-12
-1.20777e-12
1.10853e-07
2.87764e-11
3.83658e-11
-2.78894e-11
-5.74742e-11
5.68943e-11
5.85851e-11
-5.76699e-11
-1.11857e-07
-4.13916e-11
-7.56351e-13
5.06458e-14
1.11856e-07
1.46589e-11
4.21779e-11
-1.52656e-11
4.42155e-12
2.47201e-11
-3.30945e-12
-2.49798e-11
-2.72434e-08
2.69313e-11
4.19556e-11
5.00563e-11
3.35642e-11
2.70909e-08
-3.00715e-13
-1.00784e-13
-1.14673e-07
7.0928e-14
4.28843e-13
1.14672e-07
-1.10852e-07
-3.6593e-11
-9.01856e-13
-9.58099e-13
1.1085e-07
2.83463e-11
3.80768e-11
-2.33173e-11
-5.75654e-11
5.6766e-11
5.84858e-11
-6.03224e-11
-1.11856e-07
-4.16093e-11
-6.26817e-13
6.49831e-13
1.11856e-07
1.43658e-11
4.19638e-11
-1.55389e-11
4.4248e-12
2.47341e-11
-3.31453e-12
-2.49615e-11
-2.7243e-08
2.69414e-11
4.20137e-11
4.99818e-11
3.35699e-11
2.70905e-08
-7.90644e-13
-4.82152e-13
-1.14673e-07
3.74868e-13
6.5062e-13
1.14673e-07
-1.10852e-07
-3.68092e-11
-8.76449e-13
-6.07931e-13
1.10852e-07
2.81518e-11
3.81481e-11
-2.78684e-11
-5.76242e-11
5.66903e-11
5.83825e-11
-5.77987e-11
-1.11856e-07
-4.1793e-11
-1.05783e-13
1.12951e-12
1.11856e-07
1.4186e-11
4.18082e-11
-1.56769e-11
4.29839e-12
2.45147e-11
-3.44078e-12
-2.51923e-11
-2.72429e-08
2.70886e-11
4.20948e-11
4.9929e-11
3.33383e-11
2.70904e-08
-1.32525e-12
2.24557e-13
-1.14675e-07
-1.04057e-13
9.12495e-13
1.14675e-07
-1.10853e-07
-3.69069e-11
-1.28643e-12
-2.85252e-13
1.10852e-07
2.76441e-11
3.779e-11
-2.33444e-11
-5.74992e-11
5.68093e-11
5.85027e-11
-6.02182e-11
-1.11857e-07
-4.16716e-11
4.13269e-13
7.29322e-13
1.11857e-07
1.43907e-11
4.19576e-11
-1.5455e-11
4.14844e-12
2.42809e-11
-3.59098e-12
-2.54108e-11
-2.72431e-08
2.7233e-11
4.20377e-11
5.00463e-11
3.31106e-11
2.70907e-08
-1.25518e-12
1.19691e-12
-1.14676e-07
-6.81264e-13
7.7269e-13
1.14676e-07
-1.10854e-07
-3.68782e-11
-1.67398e-12
-6.15141e-13
1.10855e-07
2.81283e-11
3.81142e-11
-2.78491e-11
-5.74176e-11
5.6891e-11
5.85807e-11
-5.75965e-11
-1.11857e-07
-4.14578e-11
4.04971e-13
9.13054e-14
1.11857e-07
1.4641e-11
4.21594e-11
-1.52285e-11
4.14996e-12
2.428e-11
-3.58666e-12
-2.54033e-11
-2.72433e-08
2.72069e-11
4.19855e-11
5.01051e-11
3.31554e-11
2.70909e-08
-9.95614e-13
1.53482e-12
-1.14676e-07
-9.39405e-13
6.01859e-13
1.14675e-07
-1.10856e-07
-3.6777e-11
-1.52084e-12
-7.06548e-13
1.10854e-07
2.78263e-11
3.79356e-11
-2.31508e-11
-5.74307e-11
5.68475e-11
5.85678e-11
-6.01799e-11
-1.11857e-07
-4.14283e-11
2.63807e-13
-9.96486e-14
1.11857e-07
1.4634e-11
4.21844e-11
-1.52404e-11
4.17953e-12
2.43166e-11
-3.56261e-12
-2.53614e-11
-2.72435e-08
2.71528e-11
4.20424e-11
5.00273e-11
3.3229e-11
2.7091e-08
-1.00958e-12
1.10036e-12
-1.14675e-07
-6.6031e-13
6.57013e-13
1.14675e-07
-1.10856e-07
-3.68102e-11
-1.39944e-12
-7.89533e-13
1.10856e-07
2.82009e-11
3.81788e-11
-2.77895e-11
-5.74596e-11
5.6839e-11
5.85269e-11
-5.76365e-11
-1.11857e-07
-4.15196e-11
4.00406e-13
2.40053e-13
1.11857e-07
1.45221e-11
4.2093e-11
-1.53509e-11
4.18025e-12
2.43228e-11
-3.56442e-12
-2.53571e-11
-2.72435e-08
2.71666e-11
4.20808e-11
5.00005e-11
3.32345e-11
2.7091e-08
-9.69781e-13
1.17077e-12
-1.14676e-07
-6.64868e-13
6.72042e-13
1.14675e-07
-1.10856e-07
-3.67864e-11
-1.33035e-12
-5.99744e-13
1.10855e-07
2.78249e-11
3.79072e-11
-2.31848e-11
-5.74471e-11
5.68422e-11
5.85569e-11
-6.01866e-11
-1.11857e-07
-4.15382e-11
3.40463e-13
3.43131e-13
1.11857e-07
1.44983e-11
4.20727e-11
-1.53788e-11
4.19291e-12
2.43576e-11
-3.5426e-12
-2.53331e-11
-2.72434e-08
2.71371e-11
4.20707e-11
5.00078e-11
3.32606e-11
2.7091e-08
-8.55754e-13
1.36122e-12
-1.14676e-07
-7.06188e-13
7.05456e-13
1.14675e-07
-1.10856e-07
-3.68216e-11
-1.547e-12
-6.39656e-13
1.10857e-07
2.82084e-11
3.81232e-11
-2.7853e-11
-5.74426e-11
5.68576e-11
5.85552e-11
-5.76226e-11
-1.11857e-07
-4.15429e-11
1.27895e-13
3.2562e-13
1.11857e-07
1.44887e-11
4.20558e-11
-1.54037e-11
4.20923e-12
2.44063e-11
-3.50749e-12
-2.53022e-11
-2.72434e-08
2.7112e-11
4.20875e-11
4.99867e-11
3.32809e-11
2.7091e-08
-7.71891e-13
1.57333e-12
-1.14676e-07
-6.71855e-13
8.80214e-13
1.14675e-07
-1.10856e-07
-3.67593e-11
-1.64194e-12
-6.07192e-13
1.10855e-07
2.78809e-11
3.78424e-11
-2.32624e-11
-5.73855e-11
5.69094e-11
5.86397e-11
-6.01254e-11
-1.11857e-07
-4.15237e-11
-1.10705e-13
2.9714e-13
1.11857e-07
1.4517e-11
4.20451e-11
-1.54024e-11
4.21299e-12
2.44685e-11
-3.4538e-12
-2.5279e-11
-2.72434e-08
2.7056e-11
4.20691e-11
5.00175e-11
3.33246e-11
2.7091e-08
-7.89489e-13
2.40615e-12
-1.14677e-07
-3.38772e-12
3.14184e-12
1.14676e-07
-1.10857e-07
-3.68618e-11
-2.8464e-12
-7.33559e-13
1.10858e-07
2.82751e-11
3.79465e-11
-2.80072e-11
-5.72016e-11
5.70433e-11
5.87537e-11
-5.74091e-11
-1.11857e-07
-4.13693e-11
-2.03297e-12
-6.02549e-13
1.11858e-07
1.46329e-11
4.22747e-11
-1.50537e-11
4.62776e-12
2.47007e-11
-3.27082e-12
-2.49084e-11
-2.72434e-08
2.69935e-11
4.18961e-11
5.00913e-11
3.34167e-11
2.7091e-08
3.14076e-12
-1.15422e-07
-2.21294e-12
1.53048e-12
-3.26987e-12
1.15422e-07
-1.11679e-07
-4.29332e-11
-2.66233e-12
1.08931e-12
9.86415e-11
4.28922e-11
-9.90465e-11
-4.69024e-10
3.5073e-10
4.71583e-10
-3.50821e-10
-1.12381e-07
2.61831e-10
8.95348e-13
-2.11576e-12
1.99028e-10
-2.59339e-10
-1.96737e-10
-1.14309e-10
2.52343e-10
1.16732e-10
-2.51641e-10
1.12375e-07
-2.7402e-08
-2.83315e-10
-2.61985e-10
3.27738e-10
2.68317e-10
2.73513e-08
3.29084e-10
2.68223e-10
2.73477e-08
-2.74048e-08
-2.22765e-10
5.22538e-12
2.72496e-08
-2.70924e-08
-5.23349e-11
-2.9541e-11
-8.05514e-11
1.82239e-10
1.11382e-07
1.83821e-11
-1.26985e-11
-2.274e-11
2.04438e-11
2.46896e-11
-1.89286e-11
-1.82029e-11
-1.11519e-07
-5.70605e-11
-1.11847e-07
1.96616e-10
-3.65523e-10
-2.03203e-11
-1.86092e-10
-3.1808e-10
-2.52744e-11
1.70641e-11
-2.28442e-10
1.30639e-09
-1.35756e-13
1.1146e-07
-1.11329e-07
-2.42928e-10
4.8291e-12
-2.02046e-11
2.15828e-11
-2.06533e-11
-2.43743e-11
1.74098e-11
1.81565e-11
1.15417e-10
-2.70948e-08
-5.21998e-11
-2.78173e-11
-7.9598e-11
3.445e-11
3.75118e-11
4.05501e-11
4.06704e-11
2.70828e-08
-2.72359e-08
-3.46491e-11
-3.77017e-11
2.72333e-08
-2.70805e-08
-4.03696e-11
-4.00787e-11
4.36407e-12
1.12886e-07
8.25812e-12
3.33604e-11
-1.07066e-11
2.33175e-11
2.12399e-11
-2.56134e-11
-2.52819e-11
-1.12885e-07
-3.41322e-11
-7.87065e-13
5.6552e-12
1.12923e-07
8.81862e-12
3.43281e-11
-1.04855e-11
2.47698e-11
2.22528e-11
-2.38231e-11
-2.48552e-11
-1.12925e-07
1.12889e-07
2.05285e-13
-1.12889e-07
3.51287e-13
-3.35075e-11
-9.6552e-12
9.15516e-12
-2.42638e-11
-2.40124e-11
2.26789e-11
2.44622e-11
3.44056e-11
1.12924e-07
7.14081e-13
-1.12923e-07
1.39049e-12
-3.40328e-11
-1.03645e-11
9.08541e-12
-2.4434e-11
-2.37802e-11
2.21471e-11
2.42724e-11
4.07321e-11
4.15e-11
2.70807e-08
-2.72338e-08
-3.80485e-11
2.72332e-08
-2.70797e-08
-3.98425e-11
-4.11793e-11
-6.88074e-12
1.10869e-07
2.74076e-11
3.64468e-11
-2.92436e-11
-5.82065e-11
5.5878e-11
-5.82839e-11
5.78494e-11
-1.10864e-07
-8.62053e-11
-3.33747e-10
6.60578e-10
1.12015e-07
1.87292e-11
2.89198e-11
-2.55296e-11
-3.78805e-11
5.58576e-11
-5.73712e-11
5.19146e-11
-1.1229e-07
1.10869e-07
-1.55964e-12
-1.10869e-07
1.11156e-13
-3.68126e-11
-2.83812e-11
2.81625e-11
5.8798e-11
-5.71482e-11
5.68344e-11
-5.71405e-11
2.84845e-11
1.11897e-07
-1.25962e-12
-1.11897e-07
4.79063e-13
-2.73674e-11
-2.47754e-11
2.43738e-11
3.70167e-11
-5.63514e-11
5.56591e-11
-3.60201e-11
-3.17567e-10
6.71326e-10
1.12014e-07
2.05409e-11
3.1988e-11
-2.40498e-11
-3.79597e-11
5.61883e-11
-5.79235e-11
5.26015e-11
-1.12331e-07
-7.72851e-13
-1.10856e-07
-3.7622e-13
-3.68877e-11
-2.80346e-11
2.81665e-11
5.84929e-11
-5.76928e-11
-5.75409e-11
5.68116e-11
2.86614e-11
1.11892e-07
9.12781e-13
-1.11893e-07
4.73446e-13
-2.71862e-11
-2.46708e-11
2.40372e-11
3.69597e-11
-5.72372e-11
5.58337e-11
-3.68184e-11
5.22207e-11
2.93859e-11
2.70903e-08
-4.26815e-11
2.72387e-08
-2.7087e-08
-4.80242e-11
-3.24698e-11
4.67792e-10
-8.27256e-10
1.11801e-07
1.70088e-11
3.72192e-11
-1.66681e-11
4.00826e-12
2.21712e-11
-2.53862e-11
-1.94276e-11
-6.86668e-14
-1.11856e-07
-2.83567e-15
-4.15155e-11
-1.46371e-11
1.45424e-11
-3.82814e-12
-2.53468e-11
4.21682e-12
2.4261e-11
4.25093e-11
1.11897e-07
3.25894e-13
-1.11897e-07
4.61288e-13
-4.20967e-11
-1.51058e-11
1.4594e-11
-3.78829e-12
-2.49937e-11
2.39087e-11
4.36478e-12
-2.70914e-08
-4.94621e-11
-3.17689e-11
3.33811e-11
3.66791e-11
4.14476e-11
4.16669e-11
2.70801e-08
-3.4482e-11
-3.76308e-11
2.72325e-08
-2.70796e-08
-4.05075e-11
-4.0342e-11
6.04767e-14
1.12889e-07
9.31598e-12
3.46805e-11
-9.59135e-12
2.44678e-11
2.284e-11
-2.41603e-11
-2.3976e-11
-3.39887e-11
1.05797e-12
1.34145e-12
1.12925e-07
8.98481e-12
3.42801e-11
-1.43966e-11
2.43021e-11
2.25587e-11
-2.43686e-11
-2.12081e-11
1.12889e-07
9.9868e-13
-1.12889e-07
4.45542e-13
-3.35352e-11
-9.81613e-12
9.13373e-12
-2.43678e-11
-2.42715e-11
2.25815e-11
2.42215e-11
3.44837e-11
1.12923e-07
1.27576e-12
-1.12923e-07
1.38258e-12
-3.41436e-11
-1.07783e-11
9.12527e-12
-2.44008e-11
-2.41712e-11
2.24531e-11
2.42498e-11
4.1023e-11
4.20411e-11
2.70794e-08
-3.81643e-11
2.72331e-08
-2.70795e-08
-3.98064e-11
-4.11132e-11
-4.03351e-13
1.10869e-07
2.82888e-11
3.77532e-11
-2.83253e-11
-5.70708e-11
5.69693e-11
5.89446e-11
-5.71064e-11
-2.72353e-11
-1.59353e-12
1.82473e-13
1.11897e-07
2.45099e-11
2.85455e-11
-2.47076e-11
-3.59868e-11
5.57874e-11
3.71309e-11
-5.63121e-11
1.10869e-07
-1.43728e-12
-1.10869e-07
2.48442e-13
-3.67599e-11
-2.84974e-11
2.81456e-11
5.86971e-11
-5.74061e-11
5.67101e-11
-5.73469e-11
2.84408e-11
1.11896e-07
-7.38807e-13
-1.11896e-07
4.11874e-13
-2.73031e-11
-2.48644e-11
2.43822e-11
3.68936e-11
-5.65456e-11
5.55778e-11
-3.62427e-11
4.59971e-14
5.70956e-14
1.11892e-07
2.42296e-11
2.8736e-11
-2.45116e-11
-3.6775e-11
5.59387e-11
-5.71716e-11
3.70412e-11
-8.32635e-13
-1.10856e-07
-3.94395e-13
-3.67899e-11
-2.82066e-11
2.85438e-11
5.85258e-11
-5.77427e-11
-5.75591e-11
5.68739e-11
2.86425e-11
1.11891e-07
6.98137e-14
-1.11891e-07
1.71391e-14
-2.71311e-11
-2.44908e-11
2.43203e-11
3.69633e-11
-5.72806e-11
5.58905e-11
-3.68751e-11
4.95412e-11
3.37418e-11
2.70866e-08
-4.21841e-11
2.72376e-08
-2.70861e-08
-4.83256e-11
-3.25705e-11
-1.14516e-13
4.80896e-13
1.11897e-07
1.44866e-11
4.24946e-11
-1.51802e-11
4.39831e-12
2.39276e-11
-2.4956e-11
-3.75666e-12
1.58495e-13
-1.11857e-07
-1.31932e-13
-4.13931e-11
-1.51887e-11
1.4731e-11
-3.5825e-12
-2.5458e-11
4.15995e-12
2.42482e-11
4.24867e-11
1.11898e-07
9.56238e-14
-1.11898e-07
7.0815e-13
-4.21624e-11
-1.52729e-11
1.43547e-11
-3.74384e-12
-2.49256e-11
2.39486e-11
4.40811e-12
-2.70913e-08
-4.95267e-11
-3.18142e-11
3.35621e-11
3.6746e-11
4.1325e-11
4.1412e-11
2.70795e-08
-3.4492e-11
-3.7817e-11
2.72319e-08
-2.70793e-08
-3.99683e-11
-4.03807e-11
4.57022e-13
1.12889e-07
9.09233e-12
3.44765e-11
-9.83329e-12
2.42209e-11
2.25855e-11
-2.43818e-11
-2.42496e-11
-3.40597e-11
1.4702e-12
1.70853e-12
1.12923e-07
9.1643e-12
3.45157e-11
-1.07257e-11
2.42453e-11
2.24774e-11
-2.43951e-11
-2.41671e-11
1.12889e-07
6.2899e-13
-1.12889e-07
5.99051e-13
-3.35535e-11
-9.82082e-12
9.10082e-12
-2.42364e-11
-2.40653e-11
2.27605e-11
2.43674e-11
3.4485e-11
1.12923e-07
8.9083e-13
-1.12923e-07
1.10043e-12
-3.39013e-11
-1.03538e-11
9.1528e-12
-2.42943e-11
-2.40098e-11
2.26187e-11
2.43422e-11
4.09251e-11
4.18438e-11
2.70794e-08
-3.81346e-11
2.72328e-08
-2.70792e-08
-3.97926e-11
-4.11444e-11
6.92641e-14
1.10869e-07
2.81444e-11
3.76576e-11
-2.84795e-11
-5.73904e-11
5.66802e-11
5.86561e-11
-5.74251e-11
-2.72952e-11
-5.90456e-13
3.92209e-13
1.11896e-07
2.43802e-11
2.84616e-11
-2.48484e-11
-3.62907e-11
5.55523e-11
3.68473e-11
-5.6565e-11
1.10869e-07
-1.32942e-12
-1.10869e-07
-3.08746e-14
-3.65917e-11
-2.82966e-11
2.83222e-11
5.8644e-11
-5.7417e-11
5.66866e-11
-5.74081e-11
2.86301e-11
1.11896e-07
-5.11127e-13
-1.11896e-07
-3.55872e-14
-2.71281e-11
-2.46429e-11
2.45832e-11
3.68155e-11
-5.65705e-11
5.5549e-11
-3.63258e-11
9.11898e-14
1.21235e-14
1.11891e-07
2.43263e-11
2.86448e-11
-2.44741e-11
-3.68849e-11
5.5895e-11
-5.72757e-11
3.69498e-11
-1.09482e-12
-1.10856e-07
-5.58988e-13
-3.67572e-11
-2.78868e-11
2.83433e-11
5.85379e-11
-5.76931e-11
-5.75266e-11
5.68382e-11
2.87576e-11
1.1189e-07
-1.97205e-13
-1.11891e-07
-3.16069e-13
-2.7042e-11
-2.43139e-11
2.44747e-11
3.70204e-11
-5.71943e-11
5.59614e-11
-3.68067e-11
4.92597e-11
3.36391e-11
2.7086e-08
-4.21819e-11
2.72373e-08
-2.70858e-08
-4.83754e-11
-3.23466e-11
1.93041e-13
6.83217e-13
1.11898e-07
1.43554e-11
4.24926e-11
-1.52752e-11
4.40675e-12
2.39507e-11
-2.49269e-11
-3.74057e-12
-4.21629e-13
-1.11858e-07
8.61314e-14
-4.14053e-11
-1.52087e-11
1.46982e-11
-3.43151e-12
-2.51876e-11
4.3012e-12
2.44801e-11
4.25715e-11
1.11898e-07
-4.28919e-13
-1.11898e-07
4.6687e-13
-4.20822e-11
-1.52314e-11
1.43905e-11
-3.63464e-12
-2.47273e-11
2.41255e-11
4.52223e-12
-2.70912e-08
-4.94534e-11
-3.1667e-11
3.35362e-11
3.65264e-11
4.12662e-11
4.13939e-11
2.70792e-08
-3.44873e-11
-3.79792e-11
2.72317e-08
-2.7079e-08
-3.97539e-11
-4.04393e-11
4.63613e-13
1.12889e-07
9.11171e-12
3.45045e-11
-9.81646e-12
2.44158e-11
2.28527e-11
-2.41809e-11
-2.39795e-11
-3.3917e-11
7.85551e-13
1.3237e-12
1.12924e-07
8.98582e-12
3.43211e-11
-1.44186e-11
2.43668e-11
2.26811e-11
-2.42607e-11
-2.11094e-11
1.12888e-07
1.66126e-13
-1.12888e-07
5.98385e-13
-3.3546e-11
-9.87185e-12