/*--------------------------------*- C++ -*----------------------------------*\
| =========                 |                                                 |
| \\      /  F ield         | OpenFOAM: The Open Source CFD Toolbox           |
|  \\    /   O peration     | Version:  2206                                  |
|   \\  /    A nd           | Website:  www.openfoam.com                      |
|    \\/     M anipulation  |                                                 |
\*---------------------------------------------------------------------------*/
FoamFile
{
    version     2.0;
    format      ascii;
    arch        "LSB;label=32;scalar=64";
    class       volVectorField;
    location    "0.4";
    object      wallShearStress;
}
// * * * * * * * * * * * * * * * * * * * * * * * * * * * * * * * * * * * * * //

dimensions      [0 2 -2 0 0 0 0];

internalField   uniform (0 0 0);

boundaryField
{
    topPatch
    {
        type            calculated;
        value           nonuniform List<vector> 0();
    }
    wall
    {
        type            calculated;
        value           nonuniform List<vector> 
7718
(
(4.47522e-09 -1.31622e-08 -0.000130515)
(-4.50408e-09 6.42854e-09 -0.000129812)
(-2.37527e-09 -3.1365e-09 -0.000125142)
(-4.62425e-09 -2.70702e-09 -0.000125144)
(5.27591e-10 6.21703e-09 -0.000130512)
(-6.24245e-09 -1.25503e-08 -0.000129814)
(-2.03714e-09 1.14857e-09 -0.000127599)
(-1.65708e-09 -4.27305e-10 -0.00012864)
(-2.76492e-09 -6.32792e-09 -0.000127598)
(-1.93172e-09 -4.36762e-09 -0.000128637)
(-3.58877e-09 -9.05297e-10 -0.00013057)
(1.3986e-09 -8.24512e-09 -0.000130515)
(-1.01927e-08 3.74246e-10 -0.000125208)
(-4.87591e-09 1.72325e-09 -0.000125144)
(-6.39634e-09 -5.64389e-09 -0.00012515)
(-7.96796e-10 4.41117e-09 -0.000130515)
(2.00487e-09 6.40264e-10 -0.000130451)
(3.5197e-09 -1.54509e-08 -0.000127477)
(-2.42499e-09 -1.11654e-10 -0.00012865)
(-2.77784e-09 1.65218e-09 -0.00012761)
(1.19893e-09 -5.34074e-09 -0.000128509)
(3.24712e-09 -1.39577e-10 -0.000125098)
(2.85855e-09 1.10461e-08 -0.000127477)
(-2.5915e-09 -2.96215e-09 -0.000128648)
(-3.28128e-09 -5.27025e-09 -0.00012761)
(9.79331e-10 1.23562e-09 -0.000128506)
(1.11106e-09 -4.92048e-09 -0.000125102)
(-9.38389e-10 -5.96604e-09 -0.000130451)
(1.45177e-09 -1.60792e-09 -0.000125723)
(5.59257e-09 8.23858e-10 -0.000130504)
(3.9174e-09 -6.32457e-09 -0.000130232)
(3.22679e-09 -4.90483e-09 -0.000125808)
(7.96351e-09 -2.3775e-09 -0.000125769)
(4.92174e-09 -9.10087e-09 -0.000130216)
(-1.70929e-11 -4.56564e-09 -0.000125747)
(4.67096e-09 -3.10349e-09 -0.000125669)
(1.45054e-08 -1.00687e-08 -0.000130173)
(7.71954e-09 -5.92632e-09 -0.000130145)
(5.98556e-09 -1.29332e-08 -0.000129747)
(-5.71e-09 1.05373e-08 -0.000129822)
(4.43454e-09 7.33274e-09 -0.00012975)
(-6.90578e-09 -1.48714e-08 -0.000129826)
(3.91275e-10 -2.70719e-09 -0.000125671)
(2.0222e-09 -6.7456e-10 -0.000130149)
(1.58512e-09 -1.40098e-09 -0.000130169)
(1.14426e-09 6.2577e-09 -0.000130478)
(-5.5101e-09 -1.72509e-08 -0.000130381)
(9.28661e-09 -8.09921e-09 -0.000125038)
(6.07118e-09 1.18354e-09 -0.000125079)
(1.19162e-08 3.63606e-09 -0.000130459)
(-2.34976e-09 1.14277e-09 -0.000130457)
(-6.64998e-09 7.22265e-09 -0.000125104)
(4.68519e-09 -1.87695e-09 -0.000125082)
(3.77626e-09 1.24341e-08 -0.000130478)
(4.35696e-09 2.81504e-09 -0.000130434)
(-4.02435e-09 -1.96851e-09 -0.000125056)
(2.90075e-10 3.5811e-09 -0.000125112)
(1.11088e-08 3.27256e-09 -0.000130454)
(-4.84095e-10 2.56811e-09 -0.000130461)
(-1.71804e-09 -3.45065e-09 -0.000125163)
(4.10021e-09 -1.24239e-09 -0.000125131)
(3.07033e-09 9.78465e-09 -0.000130531)
(3.16496e-10 -4.37872e-09 -0.000130478)
(-6.13497e-09 -1.34073e-09 -0.000125072)
(-2.15252e-09 4.46344e-09 -0.00012512)
(1.19257e-08 3.70421e-09 -0.000130461)
(-2.66363e-09 1.13863e-09 -0.000130467)
(-3.57843e-09 2.87552e-10 -0.000125177)
(2.92095e-09 1.34217e-09 -0.000125132)
(1.52085e-10 4.99683e-09 -0.000130543)
(-1.55384e-09 -7.46117e-09 -0.000130477)
(-7.62577e-09 -6.89527e-10 -0.000125078)
(-2.85544e-09 4.8089e-09 -0.000125128)
(1.13888e-08 3.35911e-09 -0.000130466)
(-1.45371e-09 2.05916e-09 -0.000130471)
(-3.90726e-09 1.14368e-09 -0.00012517)
(2.91781e-09 1.38717e-09 -0.000125126)
(-3.08009e-10 4.22622e-09 -0.000130535)
(-1.45385e-09 -7.36574e-09 -0.00013047)
(-6.51473e-09 -1.1076e-09 -0.000125091)
(3.18133e-10 3.56359e-09 -0.000125145)
(8.28536e-09 1.69142e-09 -0.000130476)
(-7.25039e-09 -1.74809e-09 -0.000130486)
(-3.55701e-09 2.61087e-10 -0.000125167)
(3.32558e-09 3.47589e-10 -0.000125124)
(2.7443e-10 5.1713e-09 -0.000130531)
(-7.53261e-10 -6.08859e-09 -0.000130467)
(-1.52604e-09 -2.96032e-09 -0.000125105)
(4.62369e-09 1.89912e-09 -0.000125152)
(5.34453e-09 -1.25805e-10 -0.000130485)
(-6.32745e-09 -4.37248e-10 -0.000130491)
(-2.91405e-09 -1.52221e-09 -0.000125165)
(4.05675e-09 -1.71184e-09 -0.000125122)
(1.56993e-09 7.6686e-09 -0.000130529)
(7.03953e-10 -3.29202e-09 -0.000130465)
(7.0505e-10 -4.00673e-09 -0.000125106)
(6.2254e-09 1.07534e-09 -0.000125151)
(6.88821e-09 1.60446e-09 -0.000130487)
(-7.75932e-09 -1.60431e-09 -0.000130491)
(-2.44621e-09 -2.81169e-09 -0.000125161)
(4.29804e-09 -2.41011e-09 -0.000125116)
(2.44217e-09 9.36698e-09 -0.000130526)
(1.12395e-09 -2.45078e-09 -0.000130461)
(4.21158e-10 -3.97624e-09 -0.0001251)
(4.87395e-09 1.63081e-09 -0.000125144)
(7.92887e-09 1.44463e-09 -0.000130483)
(-3.69173e-09 7.53432e-10 -0.000130484)
(-2.4538e-09 -2.76999e-09 -0.000125155)
(4.24797e-09 -2.1992e-09 -0.00012511)
(2.41727e-09 9.28959e-09 -0.00013052)
(9.78505e-10 -2.79715e-09 -0.000130456)
(-1.23927e-09 -3.30754e-09 -0.000125095)
(3.55004e-09 2.19303e-09 -0.000125141)
(8.18095e-09 1.65886e-09 -0.000130476)
(-6.58925e-09 -1.00233e-09 -0.000130482)
(-2.56902e-09 -2.36189e-09 -0.000125151)
(4.10746e-09 -1.73156e-09 -0.000125108)
(2.09613e-09 8.63387e-09 -0.000130517)
(6.32381e-10 -3.53511e-09 -0.000130455)
(-1.75657e-09 -3.08054e-09 -0.000125094)
(3.52326e-09 2.20361e-09 -0.00012514)
(7.82613e-09 1.41005e-09 -0.000130476)
(-4.12374e-09 5.46738e-10 -0.00013048)
(-2.6694e-09 -2.06262e-09 -0.000125152)
(4.0407e-09 -1.56391e-09 -0.000125109)
(1.86363e-09 8.14616e-09 -0.000130518)
(4.99837e-10 -3.78184e-09 -0.000130456)
(-1.53808e-09 -3.17248e-09 -0.000125094)
(3.52156e-09 2.20403e-09 -0.00012514)
(7.61507e-09 1.37459e-09 -0.000130474)
(-6.94971e-09 -1.18914e-09 -0.000130482)
(-2.68547e-09 -2.04359e-09 -0.000125152)
(4.03606e-09 -1.55688e-09 -0.00012511)
(1.81641e-09 8.07127e-09 -0.000130518)
(4.1481e-10 -3.93011e-09 -0.000130456)
(-1.55355e-09 -3.17472e-09 -0.000125093)
(3.35773e-09 2.26911e-09 -0.000125142)
(7.73337e-09 1.35233e-09 -0.000130475)
(-4.16014e-09 7.01318e-10 -0.000130482)
(-2.71467e-09 -1.9662e-09 -0.000125152)
(4.05941e-09 -1.60642e-09 -0.00012511)
(1.73095e-09 7.9039e-09 -0.000130518)
(3.28446e-10 -4.09074e-09 -0.000130456)
(-1.27393e-09 -3.30019e-09 -0.00012509)
(3.08656e-09 2.39473e-09 -0.000125146)
(7.60773e-09 1.34871e-09 -0.00013047)
(-6.92283e-09 -1.14728e-09 -0.000130489)
(-2.7607e-09 -1.87574e-09 -0.000125151)
(4.17198e-09 -1.87562e-09 -0.000125111)
(1.69339e-09 7.84781e-09 -0.000130517)
(2.94625e-10 -4.15757e-09 -0.000130457)
(-2.32739e-10 -3.74467e-09 -0.00012508)
(2.45846e-09 2.7212e-09 -0.00012516)
(7.3457e-09 1.09258e-09 -0.000130461)
(-5.32478e-09 4.06856e-11 -0.000130502)
(-2.62929e-09 -2.21101e-09 -0.000125149)
(4.55616e-09 -2.77339e-09 -0.000125114)
(1.72508e-09 7.89739e-09 -0.000130516)
(2.64467e-10 -4.27765e-09 -0.000130461)
(3.87631e-09 -5.45236e-09 -0.000125057)
(1.56255e-08 -2.36766e-09 -0.000125175)
(4.81633e-09 -6.31221e-10 -0.000130435)
(-6.3323e-09 -1.1963e-09 -0.000130507)
(-2.11865e-09 -3.45377e-09 -0.00012515)
(5.14167e-09 -4.82976e-09 -0.000125114)
(1.86641e-09 8.1956e-09 -0.000130517)
(7.85835e-10 -3.03682e-09 -0.000130461)
(1.98017e-08 7.46633e-09 -0.000130542)
(-1.55176e-09 -9.12361e-09 -0.000125105)
(-8.55773e-10 7.06503e-09 -0.000130482)
(-7.06538e-09 -1.78653e-10 -0.000130464)
(1.4402e-08 6.10556e-09 -0.000130472)
(-1.42731e-10 -3.64991e-09 -0.000130419)
(-4.46747e-09 -7.13746e-09 -0.000130451)
(1.71084e-08 7.25414e-09 -0.000130462)
(-8.64084e-09 -1.90516e-09 -0.000130444)
(-3.15148e-09 3.77516e-09 -0.000125064)
(1.16627e-08 1.66328e-09 -0.000125111)
(-3.19237e-09 5.78889e-09 -0.000125102)
(-5.82962e-09 -1.10642e-09 -0.000125128)
(1.73353e-08 3.71769e-09 -0.000125107)
(3.23718e-09 5.15836e-09 -0.000125041)
(-3.39417e-09 -2.15403e-09 -0.000125121)
(2.26036e-09 3.10774e-09 -0.000125079)
(-2.47738e-09 8.92051e-09 -0.000130534)
(-4.517e-10 -3.53116e-09 -0.000130489)
(-7.40895e-10 3.80754e-09 -0.000130504)
(-9.65106e-09 2.65213e-09 -0.000130481)
(-2.52059e-09 -6.14086e-10 -0.000130479)
(-1.68686e-10 5.8164e-09 -0.000130549)
(-8.17746e-09 2.18868e-09 -0.000130481)
(8.80407e-09 -2.20791e-09 -0.000130476)
(-1.87905e-09 -2.32642e-09 -0.000130432)
(5.89559e-09 -6.18661e-10 -0.000130435)
(2.24575e-09 -9.79248e-09 -0.000130483)
(3.36157e-09 -9.703e-10 -0.000130437)
(2.98936e-09 1.14639e-09 -0.000130456)
(-9.87859e-09 3.15662e-09 -0.000130437)
(2.19063e-09 1.48613e-09 -0.000130466)
(4.55947e-09 -1.23777e-08 -0.000130507)
(4.00789e-09 -2.40254e-09 -0.000125059)
(2.29347e-10 3.51708e-09 -0.000125097)
(1.44782e-09 3.25186e-09 -0.000125097)
(-9.71383e-10 -3.25535e-09 -0.000125037)
(-9.45342e-10 3.27005e-09 -0.000125096)
(5.59384e-09 -1.70912e-09 -0.00012505)
(1.25914e-10 -4.49495e-09 -0.000130544)
(1.15017e-09 6.7993e-09 -0.000130479)
(-3.70463e-09 5.41948e-10 -0.000130457)
(1.37249e-08 4.28712e-09 -0.000130451)
(4.05963e-10 5.68713e-09 -0.000130478)
(1.59232e-10 -4.3215e-09 -0.00013054)
(-5.83829e-09 -5.22094e-09 -0.000125104)
(5.2496e-09 3.35625e-09 -0.000125085)
(5.29643e-09 -3.51156e-09 -0.000125114)
(-1.52747e-09 -3.56402e-09 -0.000125134)
(5.26467e-09 3.53394e-09 -0.000125117)
(-1.04813e-09 4.83912e-09 -0.000125137)
(3.68969e-09 4.52268e-10 -0.000125169)
(-2.99855e-09 1.1073e-09 -0.000125123)
(1.82292e-09 4.18903e-09 -0.000125173)
(-4.21475e-09 2.28308e-09 -0.000125128)
(-3.42057e-09 2.91483e-10 -0.000125123)
(3.50181e-09 1.12432e-10 -0.000125165)
(-3.55242e-09 2.03934e-10 -0.000125126)
(2.58154e-09 2.46158e-09 -0.00012517)
(-1.74672e-09 2.29791e-09 -0.00013045)
(6.60256e-09 8.83584e-10 -0.000130459)
(2.37467e-09 -1.03701e-09 -0.000130463)
(5.35853e-09 1.3898e-08 -0.000130504)
(2.96363e-09 -1.23564e-09 -0.000130479)
(-9.89196e-09 -2.86243e-09 -0.000130458)
(8.61331e-09 7.75407e-09 -0.000125051)
(6.3273e-09 -1.20803e-09 -0.000125098)
(2.52849e-09 2.97902e-09 -0.000125071)
(-1.1601e-09 -3.1314e-09 -0.000125112)
(5.91735e-10 -3.64253e-09 -0.000125116)
(-1.49702e-09 3.03507e-09 -0.000125053)
(2.37914e-10 -3.77102e-09 -0.000125113)
(5.40424e-09 1.74613e-09 -0.000125064)
(-3.4902e-09 1.07457e-08 -0.000130544)
(-4.11118e-10 -3.71539e-09 -0.00013048)
(9.01739e-09 -1.80582e-09 -0.000130472)
(-2.45812e-09 -1.21904e-09 -0.000130471)
(6.43805e-10 -5.87064e-09 -0.000130474)
(-1.09778e-09 6.90829e-09 -0.00013054)
(-1.76145e-09 -1.73725e-09 -0.000130475)
(1.36274e-08 -4.66439e-09 -0.000130467)
(-1.22574e-08 4.20464e-09 -0.000130459)
(2.48053e-09 1.33347e-09 -0.000130474)
(2.96428e-09 -9.49817e-09 -0.000130534)
(3.25294e-10 4.46987e-09 -0.000130483)
(2.15739e-09 1.41489e-09 -0.000130481)
(-1.2637e-08 4.20505e-09 -0.000130473)
(-9.71626e-10 6.58362e-09 -0.000130485)
(1.17935e-09 -6.65161e-09 -0.000130547)
(4.00798e-09 -2.14512e-09 -0.000125053)
(1.29691e-09 4.09108e-09 -0.000125103)
(-8.12198e-10 3.93927e-09 -0.000125118)
(-5.25786e-09 -1.65434e-09 -0.000125068)
(-6.69168e-10 3.31264e-09 -0.000125105)
(6.19894e-09 -1.3477e-09 -0.00012506)
(-9.00584e-10 -5.95299e-09 -0.000130542)
(2.44599e-09 8.92701e-09 -0.000130483)
(-3.83865e-09 3.98197e-10 -0.000130465)
(1.33323e-08 4.62e-09 -0.000130462)
(-1.02202e-10 4.69826e-09 -0.00013048)
(4.81028e-10 -3.78818e-09 -0.000130541)
(-1.77279e-09 3.39849e-09 -0.000125166)
(3.93161e-09 9.04617e-10 -0.000125133)
(3.26664e-09 5.96128e-10 -0.000125134)
(-2.8388e-09 -1.32053e-09 -0.000125176)
(3.093e-09 -9.42839e-10 -0.000125135)
(-2.9218e-09 1.15659e-09 -0.000125178)
(3.1529e-09 -5.63806e-10 -0.000125166)
(-2.3105e-09 2.98016e-09 -0.000125126)
(3.29432e-09 3.77166e-10 -0.00012517)
(-2.86496e-09 -1.49042e-09 -0.000125127)
(-3.68177e-09 -6.52534e-10 -0.000125125)
(4.01994e-09 1.53325e-09 -0.000125167)
(-2.78865e-09 -1.49998e-09 -0.000125124)
(3.79462e-09 -8.08627e-10 -0.00012517)
(-1.29009e-08 -4.473e-09 -0.000130478)
(2.14213e-09 -1.57467e-09 -0.000130492)
(-9.69787e-10 -6.49727e-09 -0.00013048)
(1.21561e-09 6.78282e-09 -0.000130543)
(1.69914e-09 -1.76477e-09 -0.000130498)
(-1.34246e-08 -4.64905e-09 -0.000130489)
(-5.73634e-09 1.38618e-09 -0.000125071)
(-7.62277e-10 -4.0564e-09 -0.000125127)
(5.90668e-09 1.46632e-09 -0.000125067)
(-2.16914e-10 -3.60404e-09 -0.000125118)
(-2.00873e-09 -4.49123e-09 -0.000125132)
(-6.89875e-09 1.02272e-09 -0.00012508)
(6.73775e-10 -3.94411e-09 -0.00012512)
(5.74406e-09 1.5332e-09 -0.000125071)
(-2.67967e-10 5.16593e-09 -0.000130536)
(1.29043e-09 -6.99799e-09 -0.000130472)
(1.37396e-08 -4.77908e-09 -0.000130473)
(-2.94476e-09 -1.0906e-09 -0.000130482)
(1.32004e-09 -7.00781e-09 -0.000130467)
(2.5573e-10 4.31243e-09 -0.000130533)
(-2.82371e-09 -1.15403e-09 -0.000130485)
(1.26589e-08 -4.19055e-09 -0.000130478)
(-1.28968e-08 4.45945e-09 -0.000130478)
(1.31489e-09 1.8826e-09 -0.000130483)
(1.35972e-10 -4.89583e-09 -0.000130548)
(-1.44875e-09 7.36153e-09 -0.000130482)
(7.60967e-10 2.19267e-09 -0.000130486)
(-1.36949e-08 4.74192e-09 -0.00013048)
(-1.64099e-09 7.74846e-09 -0.000130478)
(-2.38806e-10 -4.28203e-09 -0.000130544)
(4.55159e-09 -1.98806e-09 -0.000125061)
(2.43831e-10 3.6789e-09 -0.000125107)
(-2.73629e-09 4.72761e-09 -0.000125123)
(-7.53019e-09 -7.83274e-10 -0.000125074)
(-1.65754e-12 3.62888e-09 -0.000125111)
(5.52374e-09 -1.59742e-09 -0.000125063)
(-9.95093e-10 -6.48592e-09 -0.000130541)
(6.27902e-10 5.77498e-09 -0.000130475)
(-3.22997e-09 8.01857e-10 -0.000130469)
(1.32444e-08 4.44848e-09 -0.000130464)
(2.96633e-10 5.28779e-09 -0.00013047)
(-1.97006e-10 -5.07575e-09 -0.000130536)
(-3.71967e-09 -6.02797e-10 -0.000125179)
(2.69527e-09 -1.81845e-09 -0.000125133)
(2.81963e-09 1.61917e-09 -0.000125128)
(-3.78916e-09 7.84986e-10 -0.000125174)
(2.64579e-09 -1.98321e-09 -0.000125129)
(-3.92034e-09 -1.06852e-09 -0.000125175)
(2.997e-09 -1.35864e-09 -0.000125166)
(-3.40341e-09 -4.65718e-11 -0.000125121)
(3.87845e-09 -9.13377e-10 -0.000125167)
(-2.65495e-09 -1.83001e-09 -0.000125119)
(-3.55514e-09 -3.111e-10 -0.000125117)
(3.20816e-09 -7.90818e-10 -0.000125162)
(-3.0138e-09 -1.02977e-09 -0.000125115)
(3.90337e-09 -9.80624e-10 -0.000125162)
(-1.38548e-08 -4.82848e-09 -0.000130493)
(1.22556e-09 -1.99404e-09 -0.0001305)
(-1.62174e-09 -7.6339e-09 -0.000130472)
(-3.12416e-10 4.21301e-09 -0.000130539)
(6.59215e-10 -2.31937e-09 -0.000130502)
(-1.43029e-08 -5.07219e-09 -0.000130495)
(-7.9357e-09 6.57074e-10 -0.000125084)
(-2.84849e-09 -4.82844e-09 -0.000125134)
(6.33806e-09 1.29688e-09 -0.000125073)
(7.7685e-10 -3.9822e-09 -0.000125122)
(-3.46986e-09 -5.12083e-09 -0.000125137)
(-8.76718e-09 3.04667e-10 -0.000125086)
(8.5865e-10 -4.07044e-09 -0.000125125)
(6.39109e-09 1.27603e-09 -0.000125075)
(2.35789e-10 4.39258e-09 -0.000130528)
(1.49205e-09 -7.31943e-09 -0.000130462)
(1.29941e-08 -4.34479e-09 -0.000130481)
(-2.78764e-09 -1.14368e-09 -0.000130487)
(1.01423e-09 -6.51401e-09 -0.000130458)
(3.35128e-10 4.19259e-09 -0.000130523)
(-2.80407e-09 -1.18328e-09 -0.000130489)
(1.29755e-08 -4.32392e-09 -0.000130483)
(-1.40854e-08 4.99464e-09 -0.000130483)
(5.89075e-10 2.32515e-09 -0.00013049)
(-3.24483e-10 -4.10114e-09 -0.00013054)
(-1.36608e-09 7.26664e-09 -0.000130475)
(1.55659e-09 1.81052e-09 -0.000130494)
(-1.40729e-08 4.97692e-09 -0.000130487)
(-1.01371e-09 6.67468e-09 -0.000130474)
(1.88679e-11 -4.7072e-09 -0.000130538)
(4.4897e-09 -1.94204e-09 -0.000125067)
(1.1104e-09 4.06897e-09 -0.000125117)
(-1.94263e-09 4.47276e-09 -0.000125135)
(-7.69425e-09 -6.34669e-10 -0.000125084)
(-3.61805e-09 2.29541e-09 -0.000125124)
(5.02279e-09 -1.73933e-09 -0.000125074)
(-1.03214e-09 -6.38281e-09 -0.000130533)
(1.89461e-09 7.88215e-09 -0.000130471)
(-6.6618e-09 -1.31532e-09 -0.000130478)
(1.19503e-08 3.8989e-09 -0.000130472)
(-1.48053e-09 2.26381e-09 -0.000130469)
(-2.24704e-10 -5.07852e-09 -0.000130529)
(-4.03094e-09 -1.42764e-09 -0.000125171)
(2.61778e-09 -2.02276e-09 -0.000125126)
(3.13268e-09 8.97451e-10 -0.000125124)
(-3.70437e-09 6.27628e-10 -0.000125168)
(2.86482e-09 -1.50745e-09 -0.000125125)
(-3.90498e-09 -1.09287e-09 -0.000125169)
(3.00468e-09 -1.20616e-09 -0.000125158)
(-2.71022e-09 1.83339e-09 -0.000125114)
(3.59248e-09 -2.54192e-10 -0.000125158)
(-3.13428e-09 -6.85787e-10 -0.000125113)
(-4.54766e-09 -2.74494e-09 -0.000125114)
(3.54122e-09 1.86186e-10 -0.000125154)
(-3.65417e-09 5.03837e-10 -0.000125113)
(3.36614e-09 3.22937e-10 -0.000125156)
(-1.47637e-08 -5.33529e-09 -0.000130498)
(6.18587e-10 -2.37151e-09 -0.000130506)
(-1.1128e-09 -6.7906e-09 -0.000130468)
(-7.67802e-11 4.58442e-09 -0.000130532)
(1.37331e-09 -1.98917e-09 -0.00013051)
(-1.46683e-08 -5.30332e-09 -0.000130501)
(-8.97551e-09 1.72216e-10 -0.000125089)
(-3.39792e-09 -5.1122e-09 -0.000125142)
(5.9891e-09 1.35785e-09 -0.000125079)
(-7.96589e-10 -3.46746e-09 -0.000125131)
(-2.76677e-09 -4.89235e-09 -0.000125148)
(-8.89424e-09 1.6253e-10 -0.000125095)
(-2.2607e-09 -2.93756e-09 -0.000125139)
(4.32498e-09 1.98644e-09 -0.000125086)
(-2.35274e-10 5.1528e-09 -0.00013052)
(6.14744e-10 -5.81253e-09 -0.000130457)
(1.26361e-08 -4.17603e-09 -0.000130486)
(-4.50475e-09 -2.68268e-10 -0.000130493)
(-2.40137e-10 -4.31813e-09 -0.000130457)
(-6.6479e-10 5.90402e-09 -0.000130519)
(-5.93011e-09 4.73067e-10 -0.000130498)
(1.07412e-08 -3.17832e-09 -0.00013049)
(-1.26327e-08 4.0306e-09 -0.000130492)
(3.90617e-09 4.03133e-10 -0.000130499)
(3.89333e-10 -5.32445e-09 -0.000130536)
(-5.29729e-10 5.7323e-09 -0.000130473)
(6.14117e-09 -1.02306e-09 -0.000130501)
(-1.06615e-08 3.06941e-09 -0.000130497)
(2.72793e-10 4.23343e-09 -0.000130472)
(9.66336e-10 -6.45064e-09 -0.000130536)
(6.1356e-10 -3.43419e-09 -0.00012508)
(-4.59311e-09 1.60312e-09 -0.000125132)
(2.37822e-09 2.35783e-09 -0.000125149)
(-4.40726e-09 -1.93768e-09 -0.000125102)
(-6.01157e-09 1.28043e-09 -0.000125141)
(3.10858e-10 -3.71251e-09 -0.000125089)
(-2.5657e-09 -9.24124e-09 -0.000130532)
(-1.63688e-09 1.73517e-09 -0.000130471)
(-9.2511e-09 -2.27449e-09 -0.000130491)
(7.91199e-09 1.22885e-09 -0.000130482)
(-2.09337e-09 9.43502e-10 -0.000130471)
(-2.48766e-09 -9.22264e-09 -0.000130533)
(-3.79162e-09 -8.23486e-10 -0.000125168)
(2.96754e-09 -1.15469e-09 -0.000125124)
(3.69852e-09 -7.00046e-10 -0.000125123)
(-3.26384e-09 -5.77946e-10 -0.000125167)
(3.37695e-09 -4.68394e-11 -0.000125123)
(-3.54092e-09 -9.19732e-11 -0.000125167)
(2.01635e-09 -3.66967e-09 -0.000125156)
(-4.67858e-09 -3.16685e-09 -0.000125115)
(2.9385e-09 1.34176e-09 -0.000125156)
(-3.77036e-09 8.9774e-10 -0.000125115)
(-4.9155e-09 -3.71829e-09 -0.000125117)
(1.88965e-09 -3.97958e-09 -0.000125157)
(-4.20421e-09 1.98108e-09 -0.000125117)
(2.74673e-09 1.88917e-09 -0.000125158)
(-1.35547e-08 -4.72427e-09 -0.000130506)
(3.51735e-09 -8.01134e-10 -0.000130514)
(6.38727e-11 -4.52885e-09 -0.000130466)
(7.13712e-10 6.02014e-09 -0.00013053)
(5.89825e-09 5.03807e-10 -0.000130515)
(-1.12842e-08 -3.46993e-09 -0.000130509)
(-7.76891e-09 5.83429e-10 -0.000125102)
(-7.29441e-10 -4.06578e-09 -0.000125155)
(2.7537e-09 2.5829e-09 -0.000125094)
(-4.13592e-09 -2.17058e-09 -0.000125147)
(1.54598e-09 -3.18061e-09 -0.000125159)
(-5.75317e-09 1.40543e-09 -0.000125108)
(-4.35423e-09 -2.08017e-09 -0.000125153)
(1.38483e-09 3.16274e-09 -0.000125102)
(-1.53844e-09 7.4519e-09 -0.00013052)
(-7.42014e-10 -3.35184e-09 -0.00013046)
(9.36591e-09 -2.4648e-09 -0.000130496)
(-7.7913e-09 1.49237e-09 -0.000130504)
(-1.3551e-09 -2.25312e-09 -0.000130463)
(-1.96308e-09 8.28303e-09 -0.000130523)
(-8.4891e-09 1.86516e-09 -0.000130508)
(7.62457e-09 -1.50523e-09 -0.000130501)
(-8.24397e-09 2.25193e-09 -0.000130497)
(8.41312e-09 -1.98223e-09 -0.0001305)
(1.77525e-09 -7.97829e-09 -0.000130535)
(9.46237e-10 2.9286e-09 -0.000130471)
(9.69183e-09 -2.88868e-09 -0.0001305)
(-5.8274e-09 3.84483e-10 -0.000130497)
(1.1873e-09 2.43855e-09 -0.000130469)
(2.3181e-09 -9.03682e-09 -0.000130534)
(-1.04649e-09 -4.12484e-09 -0.000125096)
(-3.00381e-09 2.4177e-09 -0.000125144)
(5.77985e-09 1.24501e-09 -0.00012515)
(-4.12154e-10 -3.59895e-09 -0.000125107)
(-5.72239e-09 1.36883e-09 -0.000125141)
(1.99593e-09 -2.97765e-09 -0.000125099)
(-3.33697e-09 -1.05995e-08 -0.000130535)
(3.54576e-12 4.35408e-09 -0.000130475)
(-9.11431e-09 -2.15793e-09 -0.000130494)
(7.34231e-09 1.53032e-09 -0.000130493)
(-2.13194e-09 9.54928e-10 -0.000130474)
(-1.8911e-09 -8.20464e-09 -0.000130533)
(-3.20073e-09 8.60443e-10 -0.000125166)
(3.69189e-09 8.92575e-10 -0.000125121)
(4.24014e-09 -2.222e-09 -0.000125119)
(-2.52804e-09 -2.58324e-09 -0.000125164)
(3.99622e-09 1.66905e-09 -0.000125119)
(-2.79912e-09 1.94922e-09 -0.000125164)
(1.70445e-09 -4.39663e-09 -0.00012516)
(-3.6293e-09 -5.65465e-10 -0.000125119)
(2.43392e-09 2.63312e-09 -0.000125161)
(-4.1068e-09 1.80537e-09 -0.00012512)
(-4.78966e-09 -3.51211e-09 -0.000125119)
(2.76451e-09 -1.85812e-09 -0.00012516)
(-4.16294e-09 1.93459e-09 -0.000125121)
(2.51579e-09 2.51086e-09 -0.000125163)
(-8.91215e-09 -2.17942e-09 -0.00013051)
(8.24141e-09 1.79077e-09 -0.000130516)
(1.10815e-09 -2.53459e-09 -0.000130463)
(2.11638e-09 8.70822e-09 -0.000130528)
(9.48278e-09 2.48305e-09 -0.000130515)
(-6.77137e-09 -1.01479e-09 -0.000130511)
(-3.4174e-09 2.36259e-09 -0.000125112)
(3.94104e-09 -2.19067e-09 -0.000125162)
(1.31188e-09 3.20491e-09 -0.000125107)
(-4.5783e-09 -1.95987e-09 -0.000125157)
(5.19056e-09 -1.67233e-09 -0.000125162)
(-1.5499e-09 3.14637e-09 -0.000125114)
(-3.43433e-09 -2.39189e-09 -0.000125158)
(1.51504e-09 3.15741e-09 -0.000125111)
(-2.53252e-09 9.34149e-09 -0.000130526)
(-1.35785e-09 -2.19643e-09 -0.000130466)
(7.11719e-09 -1.24432e-09 -0.000130505)
(-8.94073e-09 2.13026e-09 -0.000130511)
(-1.28424e-09 -2.31955e-09 -0.000130468)
(-2.42825e-09 9.17946e-09 -0.000130529)
(-8.09986e-09 1.6915e-09 -0.000130511)
(6.86544e-09 -1.09023e-09 -0.000130507)
(-5.13532e-09 -3.30054e-10 -0.000130496)
(9.67034e-09 -2.7255e-09 -0.000130497)
(2.52564e-09 -9.43962e-09 -0.000130532)
(1.17909e-09 2.39495e-09 -0.000130467)
(9.07022e-09 -2.38111e-09 -0.000130493)
(-5.17373e-09 5.91127e-11 -0.000130493)
(1.1152e-09 2.57479e-09 -0.000130464)
(2.45421e-09 -9.37498e-09 -0.000130529)
(-9.54597e-10 -3.32878e-09 -0.000125096)
(-3.9663e-09 2.0268e-09 -0.000125141)
(5.7205e-09 1.29245e-09 -0.000125146)
(8.77787e-10 -4.15736e-09 -0.000125104)
(-3.29577e-09 2.27876e-09 -0.000125138)
(1.35853e-09 -3.26278e-09 -0.000125094)
(-2.88173e-09 -9.98879e-09 -0.000130537)
(-1.10057e-09 2.57179e-09 -0.000130473)
(-7.02608e-09 -1.29585e-09 -0.000130489)
(8.40289e-09 1.79057e-09 -0.000130485)
(-1.06792e-09 2.73991e-09 -0.000130469)
(-1.79624e-09 -8.07889e-09 -0.000130534)
(-2.66153e-09 2.33044e-09 -0.000125162)
(4.02267e-09 1.81271e-09 -0.000125116)
(4.29487e-09 -2.35949e-09 -0.000125112)
(-2.38802e-09 -3.01399e-09 -0.000125158)
(4.14149e-09 2.01609e-09 -0.000125113)
(-2.53867e-09 2.65038e-09 -0.000125158)
(1.96687e-09 -3.94386e-09 -0.000125161)
(-4.30685e-09 -2.41254e-09 -0.000125119)
(2.56369e-09 2.40401e-09 -0.000125164)
(-3.81436e-09 1.2085e-09 -0.000125121)
(-4.20961e-09 -2.11421e-09 -0.000125116)
(2.35924e-09 -2.98205e-09 -0.00012516)
(-3.91108e-09 1.36684e-09 -0.000125118)
(2.79873e-09 1.91341e-09 -0.000125163)
(-5.73334e-09 -4.12453e-10 -0.000130509)
(9.85762e-09 2.73267e-09 -0.000130513)
(1.15202e-09 -2.45698e-09 -0.000130458)
(2.40436e-09 9.32212e-09 -0.000130523)
(9.19222e-09 2.36625e-09 -0.000130509)
(-5.59889e-09 -3.12775e-10 -0.000130507)
(-3.39706e-10 3.66423e-09 -0.000125113)
(5.76506e-09 -1.39005e-09 -0.00012516)
(2.50358e-09 2.78377e-09 -0.000125111)
(-3.02567e-09 -2.50195e-09 -0.000125157)
(4.98825e-09 -1.70731e-09 -0.000125156)
(-2.36477e-10 3.73091e-09 -0.00012511)
(-2.0341e-09 -2.89425e-09 -0.000125153)
(3.05844e-09 2.61616e-09 -0.000125109)
(-2.31063e-09 9.01367e-09 -0.000130531)
(-7.56841e-10 -3.22408e-09 -0.000130468)
(7.87059e-09 -1.60029e-09 -0.000130507)
(-7.53316e-09 1.44754e-09 -0.00013051)
(-6.32359e-10 -3.48668e-09 -0.000130466)
(-1.77193e-09 8.05942e-09 -0.00013053)
(-6.46995e-09 8.77973e-10 -0.000130506)
(8.45397e-09 -1.86733e-09 -0.000130505)
(-6.01994e-09 5.29262e-10 -0.000130489)
(8.08524e-09 -1.8544e-09 -0.000130491)
(2.36017e-09 -9.14129e-09 -0.000130526)
(9.96199e-10 2.83467e-09 -0.000130462)
(7.31857e-09 -1.41626e-09 -0.000130489)
(-7.01862e-09 1.07521e-09 -0.000130487)
(7.96443e-10 3.26073e-09 -0.00013046)
(2.21203e-09 -8.8421e-09 -0.000130524)
(1.63667e-09 -3.15883e-09 -0.000125092)
(-6.86121e-10 3.28412e-09 -0.000125135)
(4.0032e-09 1.99674e-09 -0.000125141)
(-6.62965e-10 -3.56122e-09 -0.000125097)
(-3.77337e-09 2.07851e-09 -0.000125132)
(3.98573e-09 -2.2672e-09 -0.00012509)
(-2.14357e-09 -8.51658e-09 -0.000130532)
(1.23566e-09 6.57314e-09 -0.000130469)
(-7.26684e-09 -1.492e-09 -0.000130483)
(1.00063e-08 2.76119e-09 -0.000130483)
(-1.24922e-09 2.58883e-09 -0.000130466)
(-7.37055e-10 -6.10686e-09 -0.000130527)
(-2.55706e-09 2.54828e-09 -0.000125155)
(4.0493e-09 1.79745e-09 -0.00012511)
(4.18149e-09 -1.9651e-09 -0.000125108)
(-2.44481e-09 -2.76157e-09 -0.000125153)
(4.04774e-09 1.73672e-09 -0.000125109)
(-2.53887e-09 2.56213e-09 -0.000125153)
(2.42887e-09 -2.72735e-09 -0.000125158)
(-2.97596e-09 1.05952e-09 -0.000125114)
(2.77449e-09 1.91252e-09 -0.000125161)
(-3.71331e-09 8.59119e-10 -0.000125117)
(-4.36375e-09 -2.41554e-09 -0.000125112)
(3.40607e-09 -3.19773e-10 -0.000125154)
(-3.89471e-09 1.28763e-09 -0.000125114)
(2.87426e-09 1.65978e-09 -0.000125159)
(-6.40597e-09 -7.52038e-10 -0.000130503)
(8.47322e-09 1.97956e-09 -0.000130507)
(8.69754e-10 -3.069e-09 -0.000130455)
(2.21892e-09 8.90447e-09 -0.000130518)
(7.51303e-09 1.43458e-09 -0.000130505)
(-7.2022e-09 -1.19248e-09 -0.000130501)
(-9.26194e-10 3.45179e-09 -0.000125107)
(4.37708e-09 -1.943e-09 -0.000125153)
(3.70102e-09 2.35597e-09 -0.000125105)
(-2.25036e-09 -2.78763e-09 -0.000125151)
(3.37055e-09 -2.37153e-09 -0.000125151)
(-1.75818e-09 3.1244e-09 -0.000125104)
(-1.97334e-09 -2.92996e-09 -0.000125148)
(3.54808e-09 2.43036e-09 -0.000125103)
(-1.68976e-09 7.86735e-09 -0.000130528)
(-3.45311e-10 -3.99749e-09 -0.000130465)
(9.41819e-09 -2.37875e-09 -0.000130502)
(-6.45397e-09 8.84804e-10 -0.000130504)
(-5.60525e-10 -3.64882e-09 -0.000130463)
(-1.44305e-09 7.40673e-09 -0.000130526)
(-6.12655e-09 6.80906e-10 -0.000130501)
(9.30492e-09 -2.31456e-09 -0.000130499)
(-7.7281e-09 1.48591e-09 -0.000130485)
(6.80199e-09 -1.12072e-09 -0.000130488)
(2.02509e-09 -8.42928e-09 -0.000130522)
(6.92145e-10 3.48345e-09 -0.00013046)
(6.65089e-09 -1.03014e-09 -0.000130488)
(-8.17231e-09 1.74076e-09 -0.000130485)
(6.1406e-10 3.66372e-09 -0.00013046)
(1.92717e-09 -8.22746e-09 -0.000130522)
(1.1467e-09 -3.34283e-09 -0.000125086)
(-3.48927e-09 2.22243e-09 -0.000125131)
(3.33836e-09 2.28647e-09 -0.00012514)
(-1.9291e-09 -3.0349e-09 -0.000125095)
(-3.62241e-09 2.17116e-09 -0.000125131)
(1.71934e-09 -3.11916e-09 -0.000125085)
(-2.13054e-09 -8.54416e-09 -0.000130528)
(-7.69008e-10 3.28829e-09 -0.000130465)
(-6.94374e-09 -1.23095e-09 -0.000130483)
(9.18671e-09 2.24811e-09 -0.000130477)
(-1.07918e-09 2.79687e-09 -0.000130463)
(-1.56379e-09 -7.55199e-09 -0.000130526)
(-2.65146e-09 2.2088e-09 -0.000125152)
(3.90255e-09 1.28847e-09 -0.000125109)
(4.07382e-09 -1.61419e-09 -0.000125109)
(-2.57388e-09 -2.33647e-09 -0.000125151)
(3.89779e-09 1.24164e-09 -0.000125109)
(-2.69172e-09 2.07171e-09 -0.000125152)
(2.29962e-09 -3.08339e-09 -0.000125153)
(-4.16772e-09 -1.96325e-09 -0.000125111)
(2.77069e-09 1.87353e-09 -0.000125157)
(-3.71657e-09 8.10729e-10 -0.000125114)
(-4.25007e-09 -2.10933e-09 -0.00012511)
(2.44023e-09 -2.68777e-09 -0.000125152)
(-3.86712e-09 1.17263e-09 -0.000125113)
(2.89071e-09 1.58635e-09 -0.000125157)
(-8.12731e-09 -1.7122e-09 -0.000130499)
(7.08713e-09 1.19642e-09 -0.000130504)
(5.88998e-10 -3.64385e-09 -0.000130455)
(1.88687e-09 8.18305e-09 -0.000130517)
(6.66433e-09 9.56993e-10 -0.000130504)
(-8.51486e-09 -1.93316e-09 -0.000130499)
(-2.49901e-09 2.80741e-09 -0.000125102)
(3.0656e-09 -2.49547e-09 -0.00012515)
(3.60817e-09 2.37745e-09 -0.000125101)
(-2.54132e-09 -2.69047e-09 -0.000125148)
(2.58149e-09 -2.70197e-09 -0.00012515)
(-2.96546e-09 2.61928e-09 -0.000125101)
(-2.41334e-09 -2.7598e-09 -0.000125147)
(3.23445e-09 2.53756e-09 -0.0001251)
(-1.6648e-09 7.78827e-09 -0.000130525)
(-3.9177e-10 -3.94633e-09 -0.000130462)
(9.63383e-09 -2.51337e-09 -0.000130497)
(-6.50983e-09 8.9179e-10 -0.000130501)
(-5.58167e-10 -3.67537e-09 -0.000130461)
(-1.47964e-09 7.44343e-09 -0.000130524)
(-6.48002e-09 8.58976e-10 -0.0001305)
(9.19359e-09 -2.27249e-09 -0.000130497)
(-8.22093e-09 1.77336e-09 -0.000130484)
(6.72931e-09 -1.08741e-09 -0.000130488)
(1.8694e-09 -8.08955e-09 -0.000130523)
(5.98299e-10 3.66176e-09 -0.000130461)
(6.8104e-09 -1.11615e-09 -0.000130488)
(-8.12605e-09 1.70601e-09 -0.000130484)
(5.93545e-10 3.68349e-09 -0.00013046)
(1.84058e-09 -8.07311e-09 -0.000130523)
(1.18456e-09 -3.31535e-09 -0.000125085)
(-1.32335e-09 3.05118e-09 -0.000125131)
(3.48977e-09 2.22859e-09 -0.00012514)
(-1.76716e-09 -3.09444e-09 -0.000125094)
(-4.34958e-09 1.88437e-09 -0.00012513)
(3.28691e-09 -2.52674e-09 -0.000125086)
(-2.20986e-09 -8.56389e-09 -0.000130526)
(1.05496e-09 6.30678e-09 -0.000130466)
(-7.8135e-09 -1.75806e-09 -0.000130481)
(9.49289e-09 2.51787e-09 -0.000130479)
(-1.40131e-09 2.34563e-09 -0.000130464)
(-8.91342e-10 -6.33214e-09 -0.000130523)
(-2.79158e-09 1.80088e-09 -0.000125153)
(3.81813e-09 1.06254e-09 -0.00012511)
(4.06014e-09 -1.59305e-09 -0.000125109)
(-2.63724e-09 -2.18557e-09 -0.000125152)
(3.86887e-09 1.1689e-09 -0.00012511)
(-2.75616e-09 1.90498e-09 -0.000125153)
(2.36565e-09 -2.79915e-09 -0.000125152)
(-3.09513e-09 8.58837e-10 -0.000125111)
(2.79886e-09 1.76673e-09 -0.000125156)
(-3.70617e-09 7.74899e-10 -0.000125113)
(-4.44843e-09 -2.56614e-09 -0.00012511)