/*--------------------------------*- C++ -*----------------------------------*\
| =========                 |                                                 |
| \\      /  F ield         | OpenFOAM: The Open Source CFD Toolbox           |
|  \\    /   O peration     | Version:  2206                                  |
|   \\  /    A nd           | Website:  www.openfoam.com                      |
|    \\/     M anipulation  |                                                 |
\*---------------------------------------------------------------------------*/
FoamFile
{
    version     2.0;
    format      ascii;
    arch        "LSB;label=32;scalar=64";
    class       volScalarField;
    location    "130";
    object      nut;
}
// * * * * * * * * * * * * * * * * * * * * * * * * * * * * * * * * * * * * * //

dimensions      [0 2 -1 0 0 0 0];

internalField   nonuniform List<scalar> 
66940
(
2.64789e-06
1.85792e-06
1.87283e-06
1.89707e-06
2.67623e-06
1.86904e-06
1.87582e-06
1.90777e-06
2.65252e-06
1.87373e-06
1.87176e-06
1.91457e-06
2.68607e-06
1.87404e-06
1.87554e-06
1.90581e-06
2.66853e-06
1.87092e-06
1.87658e-06
1.9088e-06
2.64536e-06
1.86393e-06
1.87089e-06
1.8962e-06
2.63026e-06
1.86096e-06
1.86783e-06
1.89042e-06
2.6284e-06
1.85507e-06
1.85516e-06
1.87161e-06
2.59253e-06
1.84125e-06
1.84331e-06
1.85926e-06
2.49361e-06
1.82809e-06
1.82322e-06
1.83115e-06
2.10709e-06
1.9005e-06
1.88658e-06
1.86183e-06
1.2294e-06
2.12997e-06
1.88075e-06
1.81518e-06
1.85517e-06
1.83482e-06
1.85974e-06
1.87588e-06
1.83916e-06
1.86205e-06
1.85848e-06
1.83884e-06
1.8757e-06
1.87776e-06
1.84836e-06
1.85389e-06
1.90004e-06
1.86102e-06
1.84256e-06
1.85964e-06
1.84449e-06
1.86638e-06
1.92418e-06
1.88497e-06
1.83989e-06
1.86702e-06
1.85101e-06
1.87017e-06
1.83302e-06
1.87174e-06
1.83599e-06
1.92727e-06
1.88388e-06
1.8542e-06
1.87785e-06
1.85837e-06
1.8614e-06
1.90759e-06
1.8591e-06
1.84729e-06
1.86395e-06
1.85468e-06
1.86936e-06
1.9283e-06
1.88859e-06
1.85613e-06
1.86869e-06
1.85998e-06
1.87129e-06
1.83917e-06
1.87376e-06
1.8576e-06
1.93155e-06
1.8834e-06
1.85452e-06
1.87693e-06
1.86203e-06
1.86863e-06
1.90953e-06
1.86428e-06
1.8527e-06
1.87422e-06
1.85627e-06
1.88127e-06
1.92958e-06
1.8886e-06
1.85698e-06
1.86851e-06
1.8599e-06
1.87556e-06
1.8542e-06
1.88092e-06
1.86309e-06
1.93142e-06
1.89061e-06
1.85281e-06
1.88741e-06
1.86201e-06
1.86047e-06
1.90736e-06
1.86748e-06
1.85322e-06
1.87603e-06
1.86017e-06
1.87679e-06
1.93314e-06
1.8923e-06
1.85206e-06
1.86728e-06
1.86506e-06
1.87109e-06
1.85516e-06
1.87787e-06
1.86601e-06
1.93105e-06
1.88751e-06
1.84954e-06
1.88842e-06
1.86892e-06
1.86943e-06
1.90499e-06
1.87018e-06
1.849e-06
1.86273e-06
1.85744e-06
1.88581e-06
1.9321e-06
1.89415e-06
1.85399e-06
1.86077e-06
1.86095e-06
1.87612e-06
1.85438e-06
1.88728e-06
1.86448e-06
1.92685e-06
1.89298e-06
1.85035e-06
1.88699e-06
1.87041e-06
1.8632e-06
1.8983e-06
1.86909e-06
1.83331e-06
1.86844e-06
1.86682e-06
1.89157e-06
1.93108e-06
1.89333e-06
1.84411e-06
1.8543e-06
1.86851e-06
1.88595e-06
1.84241e-06
1.88604e-06
1.86097e-06
1.92486e-06
1.89934e-06
1.85456e-06
1.8983e-06
1.86923e-06
1.86801e-06
1.89592e-06
1.88063e-06
1.83662e-06
1.8627e-06
1.88285e-06
1.90358e-06
1.91383e-06
1.90668e-06
1.8373e-06
1.85549e-06
1.87848e-06
1.89771e-06
1.83301e-06
1.901e-06
1.8708e-06
1.91649e-06
1.91027e-06
1.84386e-06
1.90902e-06
1.87664e-06
1.87188e-06
1.87955e-06
1.89659e-06
1.829e-06
1.8563e-06
1.90395e-06
1.91753e-06
1.91057e-06
1.92073e-06
1.82733e-06
1.8427e-06
1.89365e-06
1.91651e-06
1.82111e-06
1.91734e-06
1.89048e-06
1.90928e-06
1.92439e-06
1.8334e-06
1.92437e-06
1.90544e-06
1.89013e-06
1.8646e-06
1.94355e-06
1.82373e-06
1.83917e-06
1.92952e-06
1.9357e-06
1.89378e-06
1.9576e-06
1.81115e-06
1.83285e-06
1.91577e-06
1.93655e-06
1.80904e-06
1.93485e-06
1.91322e-06
1.89318e-06
1.94926e-06
1.82814e-06
1.93888e-06
1.92953e-06
1.92825e-06
1.84866e-06
2.02864e-06
1.814e-06
1.82607e-06
1.92083e-06
1.92694e-06
1.87402e-06
2.03407e-06
1.79897e-06
1.81395e-06
1.90298e-06
1.9207e-06
1.79409e-06
1.91391e-06
1.89716e-06
1.8587e-06
2.04422e-06
1.82027e-06
1.92797e-06
1.9254e-06
2.01085e-06
1.88081e-06
1.99199e-06
1.88e-06
1.89109e-06
1.70301e-06
1.70805e-06
1.90532e-06
2.02078e-06
1.86343e-06
1.87672e-06
1.71228e-06
1.73327e-06
1.86125e-06
1.71009e-06
1.70795e-06
1.89068e-06
2.03062e-06
1.88322e-06
1.70837e-06
1.69656e-06
1.97242e-06
1.85725e-06
1.85738e-06
1.82675e-06
1.8234e-06
1.86466e-06
1.89587e-06
1.21408e-06
1.23794e-06
1.23193e-06
1.85897e-06
1.85769e-06
1.85793e-06
5.35761e-08
2.65786e-06
2.67761e-06
2.69102e-06
2.66656e-06
9.64378e-07
1.86726e-06
4.97221e-07
2.19606e-06
1.86438e-06
2.49615e-07
2.47544e-07
4.70046e-07
1.13191e-07
4.66743e-07
1.13326e-07
5.4498e-08
5.45523e-08
4.63303e-07
1.12994e-07
4.59333e-07
1.13107e-07
2.67214e-06
2.69512e-06
2.67823e-06
2.66738e-06
2.67024e-06
2.65379e-06
2.64564e-06
9.69414e-07
4.96959e-07
2.19211e-06
1.86441e-06
9.70479e-07
5.00259e-07
2.1829e-06
5.49483e-08
5.49405e-08
9.84266e-07
2.20901e-06
4.99557e-07
1.8737e-06
9.83292e-07
2.21052e-06
5.01614e-07
2.51058e-07
2.52953e-07
1.85663e-06
2.51026e-07
2.5357e-07
4.73996e-07
1.13803e-07
4.7203e-07
1.13994e-07
5.50736e-08
5.51305e-08
4.64663e-07
1.13837e-07
4.61578e-07
1.1378e-07
2.67466e-06
2.66032e-06
2.66635e-06
2.65013e-06
2.66667e-06
2.6554e-06
2.66905e-06
9.71346e-07
4.99105e-07
2.18639e-06
1.871e-06
9.74528e-07
5.00569e-07
2.20319e-06
5.51609e-08
5.51364e-08
9.85218e-07
2.2026e-06
5.02175e-07
1.87785e-06
9.89269e-07
2.19798e-06
5.03857e-07
2.5231e-07
2.5481e-07
1.86465e-06
2.52151e-07
2.54926e-07
4.74494e-07
1.14469e-07
4.72996e-07
1.1457e-07
5.52899e-08
5.52317e-08
4.64378e-07
1.14217e-07
4.6241e-07
1.14002e-07
2.67836e-06
2.68987e-06
2.68228e-06
2.65307e-06
2.65162e-06
2.68789e-06
2.67423e-06
9.69312e-07
4.98491e-07
2.18656e-06
1.8791e-06
9.73829e-07
5.00336e-07
2.19254e-06
5.52008e-08
5.51157e-08
9.85495e-07
2.20619e-06
5.042e-07
1.88512e-06
9.88006e-07
2.21572e-06
5.05887e-07
2.52193e-07
2.55051e-07
1.86803e-06
2.51819e-07
2.54394e-07
4.75852e-07
1.14803e-07
4.74325e-07
1.14785e-07
5.52766e-08
5.52587e-08
4.65024e-07
1.14327e-07
4.62128e-07
1.14197e-07
2.68909e-06
2.69891e-06
2.6904e-06
2.65399e-06
2.68219e-06
2.67413e-06
2.65928e-06
9.69948e-07
4.97483e-07
2.18785e-06
1.88206e-06
9.72393e-07
4.99264e-07
2.19882e-06
5.51692e-08
5.50338e-08
9.85302e-07
2.20251e-06
5.05517e-07
1.88252e-06
9.87425e-07
2.2109e-06
5.06824e-07
2.51865e-07
2.53689e-07
1.86363e-06
2.51575e-07
2.53292e-07
4.75427e-07
1.1504e-07
4.74789e-07
1.14898e-07
5.53354e-08
5.51477e-08
4.63965e-07
1.14396e-07
4.61085e-07
1.14117e-07
2.68947e-06
2.67017e-06
2.69355e-06
2.65481e-06
2.69427e-06
2.66586e-06
2.67766e-06
9.71771e-07
4.96146e-07
2.18655e-06
1.87958e-06
9.73651e-07
4.97714e-07
2.2061e-06
5.51757e-08
5.51389e-08
9.8718e-07
2.18187e-06
5.04286e-07
1.88856e-06
9.89152e-07
2.19445e-06
5.0514e-07
2.51032e-07
2.52908e-07
1.86752e-06
2.50496e-07
2.5212e-07
4.7337e-07
1.15019e-07
4.72528e-07
1.1504e-07
5.51622e-08
5.51378e-08
4.62308e-07
1.13956e-07
4.59721e-07
1.13438e-07
2.7043e-06
2.68528e-06
2.6815e-06
2.63543e-06
2.68672e-06
2.68742e-06
2.67652e-06
9.71583e-07
4.96063e-07
2.18097e-06
1.88613e-06
9.7317e-07
4.97745e-07
2.21374e-06
5.53187e-08
5.51958e-08
9.85903e-07
2.18976e-06
5.04471e-07
1.89262e-06
9.89808e-07
2.22373e-06
5.04743e-07
2.50318e-07
2.51744e-07
1.8634e-06
2.50083e-07
2.51435e-07
4.7316e-07
1.14973e-07
4.71954e-07
1.14937e-07
5.50778e-08
5.50574e-08
4.61693e-07
1.13484e-07
4.59161e-07
1.13262e-07
2.68856e-06
2.68873e-06
2.67692e-06
2.67189e-06
2.69807e-06
2.68721e-06
2.67047e-06
9.6938e-07
4.9594e-07
2.18024e-06
1.89551e-06
9.71317e-07
4.97812e-07
2.22608e-06
5.51899e-08
5.50763e-08
9.85538e-07
2.18532e-06
5.0131e-07
1.89705e-06
9.86008e-07
2.2351e-06
5.02776e-07
2.49575e-07
2.51692e-07
1.86379e-06
2.49116e-07
2.51184e-07
4.73452e-07
1.14632e-07
4.71821e-07
1.1446e-07
5.48722e-08
5.48818e-08
4.59989e-07
1.12773e-07
4.57508e-07
1.12639e-07
2.67562e-06
2.66873e-06
2.67241e-06
2.70061e-06
2.70514e-06
2.73095e-06
2.72888e-06
9.70443e-07
4.95078e-07
2.15961e-06
1.90927e-06
9.69091e-07
4.97488e-07
2.2576e-06
5.49228e-08
5.48226e-08
9.86389e-07
2.15791e-06
5.00563e-07
1.91463e-06
9.85179e-07
2.26581e-06
5.02246e-07
2.48265e-07
2.51305e-07
1.88135e-06
2.47691e-07
2.51551e-07
4.73431e-07
1.14527e-07
4.72599e-07
1.14236e-07
5.48017e-08
5.48731e-08
4.59785e-07
1.12262e-07
4.56752e-07
1.12132e-07
2.61134e-06
2.64432e-06
2.62236e-06
2.84223e-06
2.88614e-06
2.86812e-06
2.87438e-06
9.72805e-07
4.93733e-07
2.11607e-06
1.9259e-06
9.70518e-07
4.95612e-07
2.3001e-06
5.45411e-08
5.45396e-08
9.90633e-07
2.126e-06
5.00256e-07
1.93158e-06
9.88078e-07
2.3284e-06
5.00731e-07
2.47853e-07
2.51743e-07
1.90798e-06
2.4757e-07
2.51474e-07
4.75916e-07
1.14944e-07
4.73267e-07
1.15256e-07
5.48289e-08
5.53128e-08
4.60555e-07
1.12655e-07
4.57589e-07
1.12803e-07
2.46349e-06
2.50575e-06
2.5091e-06
2.96345e-06
2.92606e-06
2.89651e-06
2.89776e-06
9.7987e-07
4.9497e-07
2.0419e-06
1.93694e-06
9.74734e-07
4.93265e-07
2.42388e-06
5.44718e-08
5.4872e-08
1.00535e-06
2.04144e-06
5.0125e-07
1.93975e-06
1.00016e-06
2.44562e-06
5.00169e-07
2.47131e-07
2.51787e-07
1.96024e-06
2.47614e-07
2.52532e-07
4.63683e-07
1.15741e-07
4.74581e-07
1.15492e-07
5.57346e-08
5.77624e-08
4.65275e-07
1.15041e-07
4.72102e-07
1.16187e-07
2.08651e-06
2.09099e-06
2.11766e-06
1.84023e-06
1.84743e-06
1.85726e-06
1.84246e-06
1.04665e-06
5.0879e-07
1.89927e-06
1.85809e-06
1.02965e-06
4.88899e-07
2.70824e-06
5.56407e-08
5.81665e-08
1.04121e-06
1.85999e-06
5.13095e-07
1.85734e-06
1.03989e-06
2.6436e-06
4.87075e-07
2.50179e-07
2.52549e-07
2.0471e-06
2.50871e-07
2.50312e-07
5.41849e-07
3.3378e-09
3.10828e-07
6.87939e-08
3.11624e-09
4.25457e-08
5.49216e-07
3.35977e-09
3.14023e-07
6.9002e-08
4.64358e-07
7.6739e-07
7.63487e-07
9.66726e-07
5.18042e-07
6.50072e-07
6.50698e-07
1.1991e-06
1.87438e-07
1.75802e-06
1.41568e-06
9.52437e-07
2.59589e-07
1.04566e-06
3.13691e-09
4.30269e-08
1.19212e-06
1.72289e-06
1.85671e-07
1.39832e-06
9.46506e-07
1.04344e-06
2.57448e-07
9.80912e-08
9.80145e-08
1.59894e-06
1.23111e-07
1.22969e-07
5.34855e-08
5.28972e-08
5.37132e-08
5.36793e-08
1.89889e-06
2.50309e-07
2.48839e-07
2.4938e-07
2.48529e-07
1.12256e-07
1.84205e-06
4.90764e-07
4.52582e-07
1.12691e-07
1.10646e-07
4.66783e-07
4.54959e-07
1.14684e-07
1.12555e-07
4.69015e-07
9.60851e-07
1.82312e-06
4.93611e-07
2.16954e-06
4.86119e-07
2.13899e-06
9.75761e-07
9.62733e-07
1.84614e-06
5.00999e-07
2.19224e-06
4.93376e-07
2.14827e-06
9.80295e-07
1.88538e-06
2.49641e-07
2.52094e-07
5.4454e-08
5.43956e-08
5.37279e-08
1.92098e-06
2.54492e-07
2.53333e-07
2.52036e-07
2.52897e-07
5.46648e-08
5.45907e-08
4.58072e-07
1.12596e-07
1.12551e-07
4.61834e-07
9.63405e-07
1.84068e-06
4.91078e-07
2.15952e-06
4.88108e-07
2.16684e-06
9.62043e-07
4.59951e-07
1.14757e-07
1.14795e-07
4.63482e-07
9.66367e-07
1.85893e-06
2.17724e-06
5.00634e-07
2.18028e-06
4.98431e-07
9.64509e-07
4.6436e-07
1.13877e-07
9.6488e-07
1.85023e-06
2.19845e-06
4.91315e-07
4.64083e-07
1.12617e-07
9.69703e-07
1.86017e-06
4.9833e-07
2.19089e-06
4.95794e-07
2.17296e-06
9.68138e-07
4.61866e-07
1.14297e-07
1.14287e-07
4.65664e-07
9.68526e-07
1.83752e-06
2.16832e-06
4.9344e-07
2.17907e-06
4.90407e-07
9.66023e-07
4.61553e-07
1.13124e-07
1.13005e-07
4.65471e-07
5.48198e-08
5.48589e-08
1.92738e-06
2.54063e-07
2.5386e-07
2.54179e-07
2.52688e-07
5.42603e-08
5.36859e-08
9.63018e-07
1.85999e-06
2.21129e-06
5.00407e-07
2.16452e-06
4.92511e-07
9.80012e-07
9.64699e-07
1.83523e-06
2.18236e-06
4.9969e-07
2.15492e-06
4.91606e-07
9.8237e-07
4.52968e-07
1.14479e-07
1.12195e-07
4.66295e-07
4.53786e-07
1.1402e-07
1.11719e-07
4.69741e-07
5.37824e-08
5.31841e-08
1.90199e-06
2.50292e-07
2.52373e-07
2.50389e-07
2.50231e-07
5.39724e-08
5.39144e-08
5.39981e-08
5.33447e-08
5.36481e-08
5.37998e-08
5.38664e-08
5.39355e-08
2.51085e-07
2.49558e-07
1.85261e-06
2.51804e-07
2.49693e-07
5.40375e-08
5.39313e-08
5.41357e-08
5.40909e-08
1.89968e-06
2.52938e-07
2.50627e-07
2.52472e-07
2.50751e-07
4.72138e-07
1.1481e-07
4.68622e-07
1.14699e-07
9.81463e-07
4.93439e-07
2.18224e-06
1.84521e-06
9.78746e-07
4.95612e-07
2.18128e-06
9.85647e-07
5.00035e-07
2.18162e-06
1.86154e-06
9.85233e-07
5.01724e-07
2.1866e-06
4.70314e-07
1.13736e-07
1.13544e-07
4.7313e-07
4.7212e-07
1.15635e-07
1.15161e-07
4.74437e-07
9.87174e-07
1.84681e-06
4.97414e-07
2.17769e-06
4.95739e-07
2.1806e-06
9.88772e-07
9.89454e-07
1.85935e-06
5.0483e-07
2.17463e-06
5.0173e-07
2.18968e-06
9.89968e-07
2.55048e-07
2.54085e-07
1.88054e-06
2.55073e-07
2.54457e-07
5.4849e-08
5.49668e-08
5.49178e-08
5.46785e-08
1.92743e-06
2.56442e-07
2.55493e-07
2.55893e-07
2.55517e-07
5.51504e-08
5.51302e-08
9.621e-07
4.89747e-07
2.17541e-06
1.84296e-06
9.65566e-07
4.92626e-07
2.17859e-06
4.65312e-07
1.15096e-07
4.61457e-07
1.1506e-07
9.65521e-07
2.19384e-06
4.99083e-07
1.87115e-06
9.68391e-07
2.18994e-06
5.01466e-07
4.6098e-07
1.13522e-07
1.13473e-07
4.6487e-07
9.66479e-07
1.84946e-06
4.94352e-07
2.18386e-06
4.91605e-07
2.18514e-06
9.6478e-07
4.6327e-07
1.15338e-07
1.1541e-07
4.6714e-07
9.70051e-07
1.87087e-06
2.19121e-06
5.0225e-07
2.19121e-06
5.0024e-07
9.69208e-07
4.67287e-07
1.14767e-07
4.63528e-07
1.14808e-07
9.6693e-07
2.18418e-06
4.92291e-07
1.83423e-06
9.6945e-07
2.18105e-06
4.95113e-07
4.66586e-07
1.1356e-07
4.63003e-07
1.13708e-07
9.73167e-07
1.86063e-06
5.01432e-07
2.19664e-06
4.9882e-07
2.19698e-06
9.71608e-07
4.65049e-07
1.15284e-07
1.15309e-07
4.68931e-07
9.70757e-07
1.83488e-06
2.17327e-06
4.9675e-07
2.17159e-06
4.94229e-07
9.69246e-07
4.64351e-07
1.14101e-07
1.1409e-07
4.68014e-07
2.54905e-07
2.54608e-07
1.88261e-06
2.54379e-07
2.55116e-07
5.43159e-08
5.44946e-08
5.50424e-08
5.50653e-08
1.92455e-06
2.54806e-07
2.5637e-07
2.55217e-07
2.56103e-07
5.48832e-08
5.47493e-08
9.85106e-07
2.19064e-06
4.9937e-07
1.85662e-06
9.86032e-07
2.18151e-06
5.01558e-07
4.69167e-07
1.14656e-07
4.67271e-07
1.14698e-07
4.70833e-07
1.14491e-07
4.69674e-07
1.14936e-07
9.89068e-07
1.87014e-06
2.1893e-06
5.03512e-07
2.19804e-06
5.01635e-07
9.86802e-07
9.88603e-07
1.85745e-06
2.20217e-06
5.02298e-07
2.1992e-06
5.01089e-07
9.85919e-07
4.69035e-07
1.15196e-07
1.15093e-07
4.71012e-07
4.70036e-07
1.15296e-07
1.15254e-07
4.7141e-07
5.41337e-08
5.41862e-08
5.4194e-08
5.44225e-08
1.90459e-06
2.51866e-07
2.54484e-07
2.52142e-07
2.54539e-07
5.43964e-08
5.43383e-08
5.46173e-08
5.45806e-08
5.41597e-08
5.42233e-08
5.4276e-08
5.42939e-08
2.53713e-07
2.51447e-07
1.86047e-06
2.53819e-07
2.51217e-07
5.43759e-08
5.43274e-08
5.44159e-08
5.44264e-08
1.90087e-06
2.54478e-07
2.51913e-07
2.54376e-07
2.52012e-07
4.74841e-07
1.15797e-07
4.73288e-07
1.16014e-07
9.8985e-07
4.9704e-07
2.16754e-06
1.8481e-06
9.91722e-07
4.98294e-07
2.18677e-06
9.90649e-07
5.05176e-07
2.18684e-06
1.87552e-06
9.93271e-07
5.06905e-07
2.18651e-06
4.73343e-07
1.14319e-07
1.14244e-07
4.74684e-07
4.74231e-07
1.16291e-07
1.16236e-07
4.75444e-07
9.91997e-07
1.85196e-06
4.9949e-07
2.18592e-06
4.98314e-07
2.1697e-06
9.90992e-07
9.92891e-07
1.87067e-06
5.0705e-07
2.20068e-06
5.06712e-07
2.18053e-06
9.9095e-07
2.57285e-07
2.56271e-07
1.89024e-06
2.57465e-07
2.5567e-07
5.52686e-08
5.51781e-08
5.52323e-08
5.52133e-08
1.93266e-06
2.5786e-07
2.55417e-07
2.58115e-07
2.56063e-07
5.51228e-08
5.52596e-08
9.64921e-07
4.92669e-07
2.17137e-06
1.85984e-06
9.67905e-07
4.95e-07
2.19024e-06
4.67492e-07
1.15646e-07
4.64339e-07
1.15541e-07
9.70143e-07
2.18773e-06
5.00037e-07
1.86678e-06
9.7146e-07
2.18733e-06
5.01965e-07
4.62635e-07
1.13955e-07
1.1408e-07
4.66117e-07
9.69278e-07
1.85756e-06
4.95282e-07
2.18174e-06
4.93328e-07
2.18985e-06
9.66435e-07
4.64654e-07
1.15386e-07
1.15812e-07
4.6773e-07
9.73422e-07
1.86912e-06
2.20109e-06
5.02027e-07
2.20079e-06
5.00198e-07
9.70463e-07
4.69578e-07
1.15615e-07
4.6632e-07
1.1537e-07
9.69151e-07
2.17248e-06
4.95731e-07
1.84461e-06
9.72502e-07
2.17859e-06
4.98087e-07
4.68722e-07
1.14535e-07
4.65334e-07
1.14523e-07
9.74308e-07
1.87491e-06
5.00951e-07
2.18154e-06
4.98903e-07
2.19766e-06
9.71511e-07
4.66538e-07
1.15295e-07
1.15595e-07
4.69498e-07
9.71873e-07
1.85066e-06
2.19131e-06
4.98238e-07
2.17352e-06
4.96343e-07
9.6955e-07
4.65982e-07
1.14694e-07
1.14833e-07
4.68443e-07
2.55326e-07
2.572e-07
1.88684e-06
2.55228e-07
2.57342e-07
5.50037e-08
5.50759e-08
5.51138e-08
5.52397e-08
1.93341e-06
2.54905e-07
2.58122e-07
2.55534e-07
2.58049e-07
5.52129e-08
5.51857e-08
9.86505e-07
2.18893e-06
5.01687e-07
1.85513e-06
9.87716e-07
2.20806e-06
5.02821e-07
4.71121e-07
1.15482e-07
4.70858e-07
1.15517e-07
4.72314e-07
1.15514e-07
4.70812e-07
1.1541e-07
9.89384e-07
1.87065e-06
2.21355e-06
5.05045e-07
2.20174e-06
5.03239e-07
9.8633e-07
9.89416e-07
1.85991e-06
2.21249e-06
5.02219e-07
2.20683e-06
5.01805e-07
9.86032e-07
4.71032e-07
1.15763e-07
1.15745e-07
4.72289e-07
4.70863e-07
1.15158e-07
1.1531e-07
4.72091e-07
5.4525e-08
5.44935e-08
5.4691e-08
5.4673e-08
1.91117e-06
2.52035e-07
2.5527e-07
2.52865e-07
2.55626e-07
5.45175e-08
5.46117e-08
5.4672e-08
5.4729e-08
5.4453e-08
5.44752e-08
5.45334e-08
5.44814e-08
2.55015e-07
2.52403e-07
1.86224e-06
2.54836e-07
2.52115e-07
5.45125e-08
5.45501e-08
5.45506e-08
5.45913e-08
1.90174e-06
2.548e-07
2.52483e-07
2.55582e-07
2.52803e-07
4.75678e-07
1.16176e-07
4.74338e-07
1.16317e-07
9.89392e-07
4.98619e-07
2.16938e-06
1.85875e-06
9.93187e-07
4.99755e-07
2.1719e-06
9.91109e-07
5.06759e-07
2.19256e-06
1.88007e-06
9.93576e-07
5.073e-07
2.19756e-06
4.73876e-07
1.14641e-07
1.14746e-07
4.7506e-07
4.74838e-07
1.1614e-07
1.16179e-07
4.76433e-07
9.9267e-07
1.84927e-06
5.00737e-07
2.18762e-06
4.9951e-07
2.16074e-06
9.90018e-07
9.93358e-07
1.87501e-06
5.07447e-07
2.19606e-06
5.06373e-07
2.18379e-06
9.91091e-07
2.58324e-07
2.56098e-07
1.88087e-06
2.57433e-07
2.55236e-07
5.52217e-08
5.51062e-08
5.52187e-08
5.52679e-08
1.92886e-06
2.57737e-07
2.54676e-07
2.57833e-07
2.55568e-07
5.49703e-08
5.51675e-08
9.64095e-07
4.94054e-07
2.17923e-06
1.85623e-06
9.69279e-07
4.9628e-07
2.17332e-06
4.67849e-07
1.1566e-07
4.64962e-07
1.15516e-07
9.69764e-07
2.19734e-06
5.00206e-07
1.87141e-06
9.73176e-07
2.20098e-06
5.02218e-07
4.6219e-07
1.14084e-07
1.14237e-07
4.65652e-07
9.68454e-07
1.85527e-06
4.96652e-07
2.19237e-06
4.9455e-07
2.18354e-06
9.65262e-07
4.64994e-07
1.15262e-07
1.15763e-07
4.68111e-07
9.71348e-07
1.87228e-06
2.20117e-06
5.01261e-07
2.19837e-06
4.99946e-07
9.68306e-07
4.69024e-07
1.15511e-07
4.66425e-07
1.15045e-07
9.69298e-07
2.17048e-06
4.96378e-07
1.85862e-06
9.73539e-07
2.1852e-06
4.97922e-07
4.68749e-07
1.14933e-07
4.65694e-07
1.14664e-07
9.72368e-07
1.87409e-06
4.99973e-07
2.19569e-06
4.98087e-07
2.1849e-06
9.68661e-07
4.66127e-07
1.14906e-07
1.15115e-07
4.68531e-07
9.70942e-07
1.85111e-06
2.1832e-06
4.97328e-07
2.18012e-06
4.95706e-07
9.68207e-07
4.65834e-07
1.14293e-07
1.14874e-07
4.68721e-07
2.55583e-07
2.58458e-07
1.8862e-06
2.55037e-07
2.58446e-07
5.52901e-08
5.53066e-08
5.50967e-08
5.52156e-08
1.93077e-06
2.54888e-07
2.58311e-07
2.55514e-07
2.58675e-07
5.53118e-08
5.53674e-08
9.85023e-07
2.20143e-06
5.01842e-07
1.86466e-06
9.87355e-07
2.1925e-06
5.0299e-07
4.72355e-07
1.1595e-07
4.71107e-07
1.15982e-07
4.71384e-07
1.15067e-07
4.71061e-07
1.15193e-07
9.87168e-07
1.87467e-06
2.20172e-06
5.06225e-07
2.19846e-06
5.04966e-07
9.86618e-07
9.8709e-07
1.86037e-06
2.19524e-06
5.02244e-07
2.19971e-06
5.01473e-07
9.84824e-07
4.71327e-07
1.16057e-07
1.16137e-07
4.72262e-07
4.70491e-07
1.14668e-07
1.15204e-07
4.71758e-07
5.45912e-08
5.44693e-08
5.46939e-08
5.4568e-08
1.91258e-06
2.51641e-07
2.53943e-07
2.52641e-07
2.54871e-07
5.44474e-08
5.45675e-08
5.43589e-08
5.4599e-08
5.45716e-08
5.45483e-08
5.467e-08
5.46184e-08
2.55377e-07
2.53113e-07
1.86723e-06
2.54973e-07
2.52777e-07
5.45989e-08
5.46105e-08
5.46008e-08
5.4712e-08
1.90851e-06
2.55216e-07
2.52743e-07
2.55486e-07
2.53293e-07
4.7724e-07
1.16281e-07
4.75725e-07
1.16331e-07
9.92511e-07
5.0036e-07
2.18045e-06
1.85734e-06
9.93006e-07
5.00827e-07
2.1985e-06
9.94953e-07
5.05984e-07
2.18619e-06
1.87937e-06
9.94929e-07
5.07395e-07
2.19249e-06
4.75092e-07
1.14952e-07
1.1493e-07
4.7641e-07
4.76541e-07
1.16463e-07
1.16464e-07
4.77967e-07
9.95562e-07
1.84771e-06
5.01729e-07
2.20121e-06
5.00335e-07
2.18651e-06
9.93457e-07
9.97412e-07
1.8637e-06
5.07531e-07
2.19967e-06
5.06179e-07
2.19796e-06
9.95075e-07
2.58116e-07
2.55364e-07
1.89131e-06
2.57988e-07
2.54826e-07
5.50423e-08
5.4913e-08
5.52898e-08
5.53182e-08
1.93448e-06
2.57952e-07
2.54274e-07
2.58537e-07
2.55201e-07
5.48307e-08
5.49909e-08
9.65547e-07
4.95145e-07
2.18392e-06
1.86659e-06
9.69162e-07
4.96816e-07
2.19966e-06
4.66586e-07
1.15308e-07
4.64429e-07
1.14955e-07
9.68603e-07
2.18111e-06
4.99345e-07
1.87316e-06
9.70942e-07
2.20647e-06
5.01287e-07
4.62047e-07
1.14192e-07
1.14461e-07
4.64274e-07
9.67781e-07
1.85063e-06
4.96631e-07
2.19646e-06
4.95042e-07
2.1802e-06
9.65997e-07
4.63181e-07
1.15118e-07
1.15278e-07
4.65966e-07
9.71279e-07
1.86246e-06
2.20538e-06
5.01385e-07
2.19362e-06
4.99445e-07
9.68198e-07
4.68826e-07
1.15125e-07
4.65594e-07
1.14839e-07
9.70272e-07
2.17035e-06
4.95499e-07
1.8638e-06
9.7227e-07
2.18121e-06
4.97075e-07
4.68537e-07
1.14517e-07
4.6588e-07
1.14314e-07
9.73212e-07
1.8708e-06
4.98378e-07
2.20396e-06
4.96889e-07
2.18823e-06
9.70955e-07
4.66015e-07
1.14445e-07
1.15049e-07
4.68414e-07
9.73402e-07
1.85558e-06
2.19647e-06
4.96706e-07
2.16818e-06
4.95081e-07
9.70733e-07
4.64951e-07
1.13872e-07
1.14308e-07
4.67417e-07
2.55527e-07
2.58579e-07
1.88728e-06
2.54576e-07
2.58345e-07
5.53618e-08
5.53285e-08
5.50657e-08
5.51296e-08
1.92276e-06
2.54769e-07
2.58003e-07
2.55326e-07
2.58423e-07
5.51826e-08
5.53684e-08
9.84564e-07
2.17253e-06
5.01072e-07
1.86358e-06
9.87632e-07
2.19817e-06
5.01461e-07
4.72901e-07
1.16119e-07
4.71769e-07
1.15942e-07
4.7201e-07
1.15092e-07
4.70887e-07
1.14943e-07
9.88047e-07
1.87853e-06
2.21213e-06
5.06043e-07
2.20264e-06
5.05118e-07
9.86635e-07
9.86569e-07
1.85312e-06
2.20414e-06
5.00167e-07
2.19204e-06
4.99778e-07
9.85264e-07
4.72129e-07
1.15684e-07
1.16006e-07
4.73186e-07
4.71365e-07
1.1473e-07
1.1493e-07
4.72488e-07
5.45086e-08
5.43576e-08
5.4343e-08
5.43345e-08
1.90218e-06
2.50735e-07
2.53075e-07
2.52289e-07
2.53766e-07
5.42613e-08
5.44338e-08
5.43025e-08
5.43776e-08
5.46637e-08
5.46307e-08
5.46853e-08
5.4546e-08
2.55729e-07
2.53064e-07
1.86763e-06
2.55218e-07
2.52266e-07
5.46367e-08
5.46668e-08
5.44721e-08
5.46224e-08
1.90773e-06
2.55332e-07
2.51789e-07
2.55597e-07
2.52769e-07
4.76305e-07
1.16356e-07
4.76214e-07
1.16405e-07
9.91517e-07
5.00875e-07
2.16687e-06
1.86116e-06
9.94789e-07
5.01775e-07
2.19906e-06
9.94662e-07
5.06722e-07
2.19045e-06
1.88345e-06
9.9818e-07
5.07992e-07
2.2013e-06
4.73664e-07
1.14837e-07
1.14767e-07
4.74594e-07
4.75658e-07
1.16446e-07
1.16489e-07
4.75528e-07
9.93329e-07
1.84694e-06
5.01906e-07
2.20663e-06
5.00666e-07
2.18221e-06
9.89044e-07
9.9682e-07
1.86465e-06
5.07855e-07
2.21741e-06
5.06882e-07
2.19573e-06
9.92593e-07
2.5853e-07
2.5448e-07
1.89145e-06
2.57504e-07
2.5398e-07
5.48991e-08
5.47843e-08
5.51226e-08
5.52277e-08
1.92938e-06
2.56886e-07
2.54138e-07
2.57495e-07
2.54398e-07
5.4804e-08
5.48755e-08
9.64309e-07
4.95027e-07
2.16916e-06
1.86794e-06
9.6778e-07
4.96804e-07
2.19711e-06
4.66056e-07
1.15395e-07
4.6314e-07
1.1525e-07
9.65792e-07
2.1873e-06
4.99477e-07
1.87446e-06
9.70535e-07
2.20616e-06
5.01388e-07
4.61101e-07
1.13935e-07
1.14333e-07
4.63502e-07
9.66212e-07
1.85266e-06
4.9648e-07
2.20072e-06
4.94753e-07
2.16196e-06
9.62444e-07
4.63074e-07
1.15403e-07
1.15535e-07
4.6591e-07
9.67279e-07
1.85571e-06
2.20578e-06
5.01874e-07
2.17126e-06
4.99601e-07
9.65363e-07
4.68563e-07
1.14663e-07
4.65491e-07
1.14457e-07
9.70907e-07
2.16613e-06
4.94463e-07
1.86885e-06
9.73967e-07
2.19613e-06
4.96292e-07
4.67507e-07
1.14219e-07
4.64476e-07
1.14054e-07
9.73717e-07
1.87121e-06
4.98816e-07
2.20518e-06
4.9654e-07
2.17456e-06
9.71949e-07
4.65868e-07
1.14576e-07
1.1473e-07
4.68169e-07
9.72433e-07
1.84734e-06
2.20053e-06
4.95854e-07
2.18029e-06
4.93942e-07
9.69847e-07
4.64946e-07
1.14122e-07
1.1432e-07
4.66962e-07
2.55336e-07
2.57986e-07
1.89346e-06
2.55052e-07
2.57816e-07
5.52092e-08
5.51543e-08
5.5213e-08
5.52513e-08
1.92814e-06
2.55352e-07
2.5726e-07
2.55852e-07
2.58065e-07
5.51257e-08
5.52012e-08
9.85772e-07
2.19003e-06
4.99615e-07
1.86689e-06
9.87726e-07
2.20613e-06
4.99983e-07
4.72418e-07
1.15812e-07
4.71946e-07
1.15711e-07
4.72168e-07
1.14748e-07
4.70956e-07
1.14548e-07
9.88988e-07
1.87648e-06
2.21595e-06
5.05908e-07
2.19179e-06
5.04512e-07
9.88229e-07
9.88086e-07
1.85398e-06
2.20907e-06
4.98056e-07
2.18929e-06
4.97919e-07
9.85913e-07
4.72104e-07
1.15823e-07
1.15896e-07
4.73245e-07
4.71062e-07
1.14102e-07
1.14297e-07
4.72757e-07
5.43278e-08
5.42028e-08
5.4242e-08
5.39909e-08
1.90302e-06
2.50241e-07
2.5149e-07
2.51351e-07
2.52573e-07
5.41937e-08
5.4293e-08
5.39811e-08
5.41263e-08
5.47016e-08
5.46924e-08
5.45164e-08
5.4282e-08
2.55966e-07
2.52222e-07
1.86332e-06
2.55684e-07
2.51139e-07
5.46655e-08
5.47297e-08
5.42154e-08
5.43412e-08
1.89709e-06
2.55654e-07
2.50785e-07
2.56185e-07
2.51565e-07
4.74944e-07
1.16309e-07
4.74199e-07
1.16377e-07
9.87656e-07
5.01333e-07
2.17827e-06
1.8615e-06
9.90987e-07
5.02482e-07
2.19587e-06
9.9068e-07
5.06747e-07
2.19205e-06
1.88879e-06
9.94332e-07
5.07488e-07
2.21355e-06
4.72216e-07
1.14829e-07
1.15073e-07
4.73224e-07
4.7398e-07
1.16254e-07
1.16243e-07
4.75092e-07
9.88376e-07
1.83846e-06
5.02631e-07
2.21928e-06
5.01371e-07
2.16906e-06
9.87348e-07
9.92817e-07
1.86577e-06
5.07043e-07
2.2272e-06
5.06131e-07
2.18269e-06
9.91005e-07
2.5752e-07
2.54457e-07
1.89358e-06
2.57204e-07
2.54059e-07
5.48827e-08
5.47929e-08
5.51444e-08
5.51745e-08
1.92522e-06
2.57191e-07
2.53845e-07
2.57551e-07
2.54535e-07
5.47736e-08
5.48877e-08
9.63636e-07
4.9379e-07
2.16743e-06
1.86028e-06
9.65228e-07
4.94903e-07
2.19996e-06
4.64281e-07
1.15698e-07
4.62305e-07
1.15137e-07
9.64578e-07
2.18258e-06
5e-07
1.88071e-06
9.66453e-07
2.20556e-06
5.02223e-07
4.59949e-07
1.13537e-07
1.13731e-07
4.63238e-07
9.65556e-07
1.84097e-06
4.94296e-07
2.20958e-06
4.92858e-07
2.16538e-06
9.64223e-07
4.61742e-07
1.1522e-07
1.15397e-07
4.64989e-07
9.68589e-07
1.85753e-06
2.21237e-06
5.02551e-07
2.181e-06
5.00431e-07
9.67866e-07
4.68386e-07
1.14544e-07
4.65408e-07
1.14321e-07
9.69372e-07
2.17526e-06
4.93597e-07
1.86301e-06
9.71308e-07
2.18942e-06
4.95536e-07
4.67055e-07
1.14342e-07
4.6427e-07
1.14084e-07
9.72464e-07
1.86508e-06
4.98051e-07
2.22805e-06
4.96171e-07
2.18309e-06
9.70281e-07
4.64505e-07
1.14242e-07
1.14639e-07
4.66117e-07
9.70554e-07
1.83932e-06
2.20364e-06
4.94285e-07
2.16035e-06
4.92831e-07
9.68877e-07
4.63199e-07
1.13456e-07
1.13993e-07
4.65007e-07
2.55997e-07
2.57642e-07
1.89566e-06
2.55432e-07
2.56884e-07
5.51584e-08
5.49929e-08
5.51217e-08
5.52635e-08
1.92611e-06
2.54939e-07
2.56429e-07
2.55996e-07
2.57247e-07
5.48708e-08
5.49557e-08
9.85682e-07
2.18223e-06
4.9651e-07
1.87342e-06
9.8695e-07
2.22093e-06
4.97907e-07
4.71844e-07
1.15743e-07
4.71452e-07
1.15428e-07
4.72028e-07
1.14215e-07
4.70828e-07
1.14079e-07
9.87103e-07
1.86919e-06
2.23712e-06
5.0345e-07
2.17433e-06
5.02634e-07
9.8505e-07
9.86708e-07
1.85007e-06
2.22442e-06
4.97894e-07
2.17645e-06
4.96708e-07
9.83221e-07
4.70873e-07
1.15274e-07
1.15292e-07
4.71918e-07
4.70584e-07
1.1405e-07
1.14332e-07
4.70999e-07
5.42478e-08
5.40939e-08
5.40097e-08
5.39743e-08
1.88987e-06
2.4923e-07
2.51319e-07
2.50772e-07
2.5209e-07
5.3907e-08
5.41565e-08
5.39315e-08
5.40388e-08
5.46145e-08
5.46341e-08
5.42672e-08
5.41577e-08
2.55776e-07
2.51175e-07
1.8818e-06
2.55377e-07
2.50687e-07
5.46027e-08
5.45902e-08
5.39966e-08
5.42079e-08
1.89554e-06
2.55551e-07
2.50287e-07
2.55978e-07
2.51388e-07
4.7512e-07
1.1613e-07
4.73465e-07
1.16177e-07
9.87415e-07
5.01533e-07
2.16855e-06
1.87328e-06
9.89005e-07
5.02501e-07
2.23025e-06
9.9145e-07
5.05394e-07
2.1811e-06
1.89739e-06
9.92349e-07
5.06621e-07
2.2434e-06
4.72223e-07
1.14655e-07
1.14837e-07
4.73734e-07
4.74125e-07
1.1571e-07
1.16167e-07
4.75908e-07
9.89473e-07
1.8362e-06
5.02037e-07
2.2368e-06
5.01022e-07
2.14652e-06
9.89644e-07
9.92656e-07
1.86043e-06
5.05788e-07
2.25536e-06
5.04983e-07
2.17614e-06
9.94467e-07
2.57779e-07
2.5392e-07
1.89721e-06
2.56557e-07
2.52947e-07
5.48249e-08
5.4682e-08
5.48844e-08
5.5049e-08
1.91517e-06
2.55851e-07
2.52926e-07
2.56706e-07
2.53435e-07
5.46536e-08
5.47326e-08
9.63144e-07
4.91945e-07
2.16144e-06
1.87367e-06
9.64601e-07
4.93604e-07
2.22054e-06
4.63118e-07
1.15499e-07
4.62051e-07
1.15332e-07
9.67619e-07
2.17594e-06
5.00197e-07
1.89154e-06
9.68794e-07
2.22073e-06
5.02496e-07
4.58627e-07
1.1279e-07
1.13171e-07
4.6155e-07
9.6353e-07
1.83381e-06
4.93099e-07
2.22046e-06
4.91248e-07
2.14908e-06
9.63742e-07
4.60185e-07
1.15316e-07
1.1558e-07
4.63221e-07
9.68198e-07
1.85211e-06
2.23144e-06
5.01954e-07
2.16385e-06
4.99827e-07
9.66005e-07
4.66412e-07
1.14487e-07
4.63254e-07
1.14343e-07
9.66781e-07
2.15551e-06
4.9185e-07
1.86173e-06
9.69469e-07
2.21684e-06
4.93405e-07
4.64902e-07
1.13689e-07
4.61868e-07
1.13447e-07
9.70398e-07
1.86071e-06
4.98093e-07
2.2448e-06
4.95849e-07
2.16501e-06
9.69499e-07
4.63505e-07
1.14478e-07
1.14618e-07
4.66846e-07
9.67192e-07
1.82799e-06
2.22601e-06
4.93074e-07
2.15416e-06
4.90985e-07
9.64735e-07
4.62024e-07
1.13134e-07
1.13391e-07
4.65095e-07
2.55481e-07
2.56695e-07
1.90209e-06
2.54824e-07
2.56361e-07
5.48972e-08
5.48721e-08
5.49219e-08
5.51287e-08
1.91901e-06
2.54135e-07
2.56484e-07
2.55354e-07
2.56802e-07
5.47769e-08
5.48071e-08
9.84758e-07
2.17424e-06
4.96734e-07
1.87077e-06
9.83808e-07
2.23332e-06
4.97944e-07
4.72154e-07
1.15212e-07
4.7084e-07
1.15166e-07
4.70955e-07
1.14078e-07
4.69694e-07
1.14143e-07
9.84686e-07
1.86561e-06
2.25657e-06
5.01828e-07
2.17915e-06
5.00883e-07
9.84868e-07
9.84555e-07
1.8348e-06
2.243e-06
4.97284e-07
2.16438e-06
4.96391e-07
9.84927e-07
4.70331e-07
1.148e-07
1.14995e-07
4.72086e-07
4.69879e-07
1.13734e-07
1.14187e-07
4.71183e-07
5.39286e-08
5.38121e-08
5.39591e-08
5.38656e-08
1.87334e-06
2.48352e-07
2.50955e-07
2.49529e-07
2.51715e-07
5.36518e-08
5.38383e-08
5.38754e-08
5.39827e-08
5.45912e-08
5.4562e-08
5.39655e-08
5.39611e-08
2.55655e-07
2.50969e-07
1.89226e-06
2.54934e-07
2.50322e-07
5.45215e-08
5.45358e-08
5.3853e-08
5.38918e-08
1.87191e-06
2.54774e-07
2.49671e-07
2.55368e-07
2.50535e-07