/*--------------------------------*- C++ -*----------------------------------*\
| =========                 |                                                 |
| \\      /  F ield         | OpenFOAM: The Open Source CFD Toolbox           |
|  \\    /   O peration     | Version:  2206                                  |
|   \\  /    A nd           | Website:  www.openfoam.com                      |
|    \\/     M anipulation  |                                                 |
\*---------------------------------------------------------------------------*/
FoamFile
{
    version     2.0;
    format      ascii;
    arch        "LSB;label=32;scalar=64";
    class       volScalarField;
    location    "130";
    object      p;
}
// * * * * * * * * * * * * * * * * * * * * * * * * * * * * * * * * * * * * * //

dimensions      [0 2 -2 0 0 0 0];

internalField   nonuniform List<scalar> 
66940
(
-0.016116
-0.0161159
-0.016116
-0.0161045
-0.0162946
-0.0162944
-0.0162945
-0.016283
-0.0164733
-0.0164733
-0.0164733
-0.0164619
-0.0166523
-0.0166522
-0.0166523
-0.0166407
-0.0168313
-0.0168312
-0.0168313
-0.0168196
-0.0170105
-0.0170102
-0.0170102
-0.0169983
-0.0171896
-0.0171889
-0.0171891
-0.0171766
-0.0173694
-0.0173674
-0.0173676
-0.0173538
-0.0175497
-0.0175436
-0.017544
-0.017528
-0.0177239
-0.0177089
-0.0177096
-0.0176945
-0.017782
-0.0177955
-0.0177964
-0.0178308
-0.0163678
-0.0170734
-0.017035
-0.0175619
-0.0160828
-0.0160718
-0.0160718
-0.0160828
-0.0160712
-0.0160712
-0.0160712
-0.0160712
-0.0160827
-0.0160717
-0.0160718
-0.0160827
-0.0161046
-0.0162613
-0.016116
-0.016116
-0.01625
-0.0162499
-0.0161046
-0.0162613
-0.0161159
-0.0161159
-0.01625
-0.0162499
-0.0161158
-0.0162499
-0.0162499
-0.0161045
-0.0162612
-0.0161161
-0.0162499
-0.0162498
-0.0162612
-0.0162831
-0.01644
-0.0162945
-0.0162944
-0.0164287
-0.0164287
-0.0162831
-0.01644
-0.0162945
-0.0162945
-0.0164287
-0.0164288
-0.0162944
-0.0164287
-0.0164287
-0.0162831
-0.0164401
-0.0162945
-0.0164287
-0.0164287
-0.0164401
-0.0164618
-0.016619
-0.0164733
-0.0164732
-0.0166077
-0.0166077
-0.0164618
-0.016619
-0.0164733
-0.0164733
-0.0166077
-0.0166077
-0.0164732
-0.0166077
-0.0166078
-0.0164619
-0.016619
-0.0164734
-0.0166077
-0.0166076
-0.016619
-0.0166407
-0.0167981
-0.0166522
-0.0166522
-0.0167868
-0.0167868
-0.0166407
-0.0167981
-0.0166522
-0.0166522
-0.0167868
-0.0167868
-0.0166522
-0.0167868
-0.0167868
-0.0166407
-0.0167981
-0.0166523
-0.0167868
-0.0167868
-0.0167981
-0.0168196
-0.0169772
-0.0168312
-0.0168312
-0.016966
-0.0169661
-0.0168196
-0.0169773
-0.0168312
-0.0168312
-0.016966
-0.016966
-0.0168312
-0.016966
-0.016966
-0.0168197
-0.0169772
-0.0168313
-0.0169659
-0.0169659
-0.0169772
-0.0169982
-0.0171565
-0.0170101
-0.0170102
-0.0171453
-0.0171452
-0.0169983
-0.0171564
-0.0170101
-0.0170102
-0.0171453
-0.0171452
-0.0170102
-0.0171452
-0.0171452
-0.0169983
-0.0171564
-0.0170103
-0.0171452
-0.0171452
-0.0171564
-0.0171764
-0.0173359
-0.0171889
-0.0171889
-0.0173251
-0.017325
-0.0171764
-0.0173359
-0.0171889
-0.0171889
-0.0173251
-0.017325
-0.017189
-0.017325
-0.0173251
-0.0171766
-0.0173359
-0.0171892
-0.0173249
-0.0173249
-0.0173359
-0.0173535
-0.0175159
-0.0173673
-0.0173674
-0.0175065
-0.0175063
-0.0173536
-0.0175158
-0.0173672
-0.0173674
-0.0175067
-0.0175065
-0.0173675
-0.0175065
-0.0175064
-0.0173538
-0.0175158
-0.0173676
-0.0175062
-0.0175061
-0.0175158
-0.0175276
-0.0176967
-0.0175436
-0.0175437
-0.0176928
-0.0176924
-0.0175277
-0.0176966
-0.0175435
-0.0175437
-0.0176931
-0.0176928
-0.0175436
-0.0176929
-0.0176928
-0.017528
-0.0176965
-0.017544
-0.0176921
-0.017692
-0.0176965
-0.017694
-0.0178667
-0.017709
-0.0177093
-0.0178789
-0.0178782
-0.0176942
-0.0178665
-0.0177087
-0.017709
-0.0178798
-0.0178796
-0.017709
-0.0178796
-0.0178798
-0.0176943
-0.0178665
-0.0177096
-0.0178775
-0.0178776
-0.0178667
-0.0178301
-0.0177389
-0.0177948
-0.0177955
-0.0177455
-0.0177403
-0.0178309
-0.0177453
-0.0177956
-0.0177955
-0.0177417
-0.0177444
-0.0177958
-0.0177468
-0.0177438
-0.01783
-0.0177376
-0.0177963
-0.0177419
-0.0177434
-0.017739
-0.0175619
-0.0170354
-0.017028
-0.0175831
-0.0170348
-0.017038
-0.016336
-0.0163726
-0.0163689
-0.0170375
-0.0175598
-0.0170332
-0.0159933
-0.0160714
-0.0160714
-0.0160714
-0.0160713
-0.0159933
-0.015983
-0.0159932
-0.0159833
-0.0159931
-0.0159934
-0.0159932
-0.0161718
-0.016105
-0.0161052
-0.0161719
-0.016105
-0.0161719
-0.0161722
-0.0161048
-0.0161045
-0.016172
-0.016116
-0.016116
-0.016116
-0.01625
-0.0162499
-0.0162499
-0.0162499
-0.0161719
-0.016105
-0.0161159
-0.0161606
-0.0161048
-0.0161719
-0.0161606
-0.0161048
-0.0161719
-0.0161711
-0.0161161
-0.0161052
-0.0161606
-0.0161056
-0.0161606
-0.0161714
-0.0161047
-0.016105
-0.0161719
-0.0161721
-0.0161716
-0.0163504
-0.0162835
-0.0162835
-0.0163504
-0.0162835
-0.0163504
-0.0163508
-0.0162833
-0.016283
-0.0163506
-0.0162945
-0.0162945
-0.0162945
-0.0164287
-0.0164287
-0.0164287
-0.0164287
-0.0163504
-0.0162834
-0.0162944
-0.0163392
-0.0162833
-0.0163503
-0.0163392
-0.0162833
-0.0163506
-0.0163499
-0.0162945
-0.0162838
-0.0163393
-0.016284
-0.0163393
-0.0163501
-0.0162832
-0.0162835
-0.0163506
-0.0163505
-0.0163504
-0.0165292
-0.0164622
-0.0164622
-0.0165291
-0.0164622
-0.0165291
-0.0165297
-0.016462
-0.0164617
-0.0165294
-0.0164733
-0.0164733
-0.0164733
-0.0166077
-0.0166076
-0.0166077
-0.0166077
-0.0165293
-0.0164621
-0.0164732
-0.0165181
-0.016462
-0.0165292
-0.0165182
-0.016462
-0.0165293
-0.0165287
-0.0164733
-0.0164626
-0.0165182
-0.0164628
-0.0165182
-0.0165289
-0.0164619
-0.0164623
-0.0165296
-0.0165295
-0.0165291
-0.0167082
-0.0166412
-0.0166412
-0.0167082
-0.0166412
-0.0167082
-0.0167087
-0.016641
-0.0166407
-0.0167084
-0.0166522
-0.0166523
-0.0166523
-0.0167868
-0.0167868
-0.0167868
-0.0167868
-0.0167084
-0.0166411
-0.0166521
-0.0166972
-0.0166409
-0.0167082
-0.0166973
-0.016641
-0.0167084
-0.0167077
-0.0166522
-0.0166415
-0.0166972
-0.0166417
-0.0166972
-0.0167079
-0.0166409
-0.0166412
-0.0167086
-0.0167084
-0.0167082
-0.0168873
-0.0168203
-0.0168203
-0.0168872
-0.0168203
-0.0168873
-0.0168877
-0.0168201
-0.0168198
-0.0168874
-0.0168313
-0.0168314
-0.0168313
-0.0169659
-0.0169659
-0.0169658
-0.0169658
-0.0168875
-0.0168203
-0.016831
-0.0168764
-0.0168201
-0.0168874
-0.0168765
-0.0168202
-0.0168875
-0.0168868
-0.0168311
-0.0168206
-0.0168764
-0.0168208
-0.0168764
-0.016887
-0.01682
-0.0168203
-0.0168877
-0.0168876
-0.0168872
-0.0170663
-0.0169994
-0.0169994
-0.0170663
-0.0169994
-0.0170663
-0.0170668
-0.0169991
-0.0169989
-0.0170665
-0.0170105
-0.0170104
-0.0170104
-0.0171448
-0.0171448
-0.0171447
-0.0171447
-0.0170664
-0.0169994
-0.0170099
-0.0170556
-0.0169991
-0.0170664
-0.0170558
-0.0169992
-0.0170664
-0.0170657
-0.01701
-0.0169997
-0.0170555
-0.0169998
-0.0170557
-0.017066
-0.0169991
-0.0169994
-0.0170668
-0.0170665
-0.0170663
-0.0172453
-0.0171786
-0.0171785
-0.0172453
-0.0171785
-0.0172452
-0.0172458
-0.0171783
-0.017178
-0.0172455
-0.0171896
-0.0171897
-0.0171897
-0.0173235
-0.0173234
-0.0173234
-0.0173234
-0.0172453
-0.0171785
-0.0171885
-0.017235
-0.017178
-0.0172454
-0.0172354
-0.0171783
-0.0172454
-0.0172446
-0.0171888
-0.0171789
-0.0172349
-0.0171787
-0.0172352
-0.0172451
-0.0171782
-0.0171785
-0.0172461
-0.0172457
-0.0172453
-0.0174245
-0.0173578
-0.0173577
-0.0174244
-0.0173579
-0.0174244
-0.0174249
-0.0173576
-0.0173572
-0.0174245
-0.0173694
-0.0173695
-0.0173694
-0.0175014
-0.0175013
-0.0175012
-0.0175013
-0.017424
-0.017358
-0.0173669
-0.0174154
-0.0173567
-0.0174246
-0.0174157
-0.0173577
-0.0174245
-0.0174234
-0.0173673
-0.0173584
-0.0174153
-0.0173576
-0.0174153
-0.0174244
-0.0173576
-0.017358
-0.0174257
-0.0174247
-0.0174246
-0.0176039
-0.0175375
-0.017537
-0.0176036
-0.0175376
-0.0176033
-0.0176043
-0.0175373
-0.0175365
-0.0176038
-0.0175498
-0.0175499
-0.0175498
-0.0176764
-0.0176761
-0.0176761
-0.0176762
-0.0176018
-0.0175376
-0.0175438
-0.0175987
-0.0175346
-0.017604
-0.0175977
-0.0175374
-0.0176034
-0.017601
-0.0175444
-0.0175381
-0.0175982
-0.0175354
-0.0175968
-0.0176037
-0.0175373
-0.0175376
-0.017606
-0.0176038
-0.0176034
-0.0177845
-0.0177177
-0.0177158
-0.0177842
-0.0177184
-0.0177833
-0.017785
-0.0177176
-0.0177154
-0.0177845
-0.0177241
-0.0177243
-0.017724
-0.0178214
-0.0178205
-0.0178204
-0.0178211
-0.0177762
-0.0177177
-0.0177107
-0.0177888
-0.0177083
-0.0177848
-0.0177827
-0.0177183
-0.0177834
-0.0177754
-0.0177116
-0.0177181
-0.0177875
-0.0177091
-0.0177813
-0.0177845
-0.017718
-0.0177182
-0.0177857
-0.0177834
-0.0177833
-0.0179838
-0.017903
-0.0178914
-0.0180032
-0.0179077
-0.0179983
-0.0179847
-0.0179035
-0.0178912
-0.0180035
-0.017783
-0.017783
-0.0177823
-0.017365
-0.0173481
-0.0173633
-0.0173649
-0.017919
-0.0178974
-0.0177752
-0.017923
-0.0178562
-0.0179851
-0.017899
-0.017908
-0.0179987
-0.0179164
-0.0177727
-0.0178974
-0.0179216
-0.0178574
-0.0178962
-0.0179843
-0.0179049
-0.0179047
-0.0179005
-0.0179926
-0.017992
-0.0185604
-0.0182195
-0.0180971
-0.0193814
-0.0182787
-0.0196223
-0.0185587
-0.0182196
-0.0180971
-0.019382
-0.013697
-0.016695
-0.0166981
-0.0156603
-0.0165699
-0.014674
-0.014676
-0.0175859
-0.0181234
-0.0167741
-0.0162365
-0.0177669
-0.0188784
-0.0154067
-0.0182786
-0.0196222
-0.0175764
-0.0167734
-0.0181222
-0.0161974
-0.0177684
-0.0154064
-0.01888
-0.0182368
-0.0182371
-0.0165887
-0.0191605
-0.0191588
-0.0160826
-0.0160158
-0.0160827
-0.0160155
-0.0160152
-0.0160827
-0.0160828
-0.0160157
-0.0160154
-0.0159933
-0.0159814
-0.0159926
-0.0160158
-0.0160826
-0.016016
-0.0160825
-0.0160158
-0.0160825
-0.016016
-0.0160825
-0.0160162
-0.0160261
-0.0160824
-0.016072
-0.0160162
-0.0160257
-0.0160824
-0.0160162
-0.0160261
-0.0160824
-0.016072
-0.0160162
-0.0160257
-0.0160824
-0.0159931
-0.0159933
-0.0159934
-0.0159934
-0.0160826
-0.0160158
-0.0160152
-0.0160827
-0.0160828
-0.0160157
-0.0160155
-0.0160828
-0.0160155
-0.0160151
-0.0160828
-0.0160155
-0.016083
-0.0160153
-0.0160264
-0.0160826
-0.0160711
-0.0160156
-0.0160263
-0.0160826
-0.0160151
-0.0160827
-0.0160154
-0.016083
-0.0160153
-0.0160264
-0.0160711
-0.0160825
-0.0160263
-0.0160155
-0.0160826
-0.0159937
-0.0159934
-0.0159933
-0.015983
-0.0159833
-0.0159932
-0.0159937
-0.0159934
-0.0160154
-0.0160264
-0.0160826
-0.0160711
-0.0160156
-0.0160262
-0.0160827
-0.0160152
-0.0160828
-0.0160155
-0.016083
-0.0160154
-0.0160263
-0.0160711
-0.0160826
-0.0160262
-0.0160156
-0.0160827
-0.0160152
-0.0160828
-0.0160155
-0.016083
-0.0160827
-0.0160154
-0.0160152
-0.0160827
-0.0160825
-0.0160153
-0.0160156
-0.0160825
-0.0160157
-0.0160161
-0.0160261
-0.0160718
-0.0160822
-0.0160255
-0.016016
-0.0160822
-0.0160162
-0.0160261
-0.0160718
-0.0160823
-0.0160255
-0.0160161
-0.0160823
-0.0160157
-0.0160824
-0.0160159
-0.0160824
-0.0160158
-0.0160825
-0.0160159
-0.0160824
-0.0159934
-0.0159932
-0.0160152
-0.0160827
-0.0160826
-0.0160154
-0.0160156
-0.0160827
-0.0160155
-0.0160825
-0.0160157
-0.016105
-0.0161719
-0.0161048
-0.016172
-0.016105
-0.0161048
-0.0161719
-0.0161719
-0.016172
-0.0162611
-0.0161943
-0.0162612
-0.0161941
-0.0161938
-0.0162611
-0.0162612
-0.0161943
-0.016194
-0.0161718
-0.016105
-0.0161052
-0.0161718
-0.0161712
-0.0161053
-0.0161161
-0.0161606
-0.0161057
-0.0161715
-0.0161606
-0.0161712
-0.0161053
-0.0161161
-0.0161605
-0.0161057
-0.0161715
-0.0161606
-0.0161943
-0.0162611
-0.0161943
-0.016261
-0.0161943
-0.0162611
-0.0161943
-0.016261
-0.0161947
-0.0162052
-0.0162607
-0.01625
-0.0161946
-0.0162052
-0.0162605
-0.0161947
-0.0162052
-0.0162608
-0.0162499
-0.0161946
-0.0162052
-0.0162605
-0.016105
-0.0161048
-0.0161719
-0.0161717
-0.0161722
-0.0161049
-0.016172
-0.0162611
-0.0161943
-0.0161938
-0.0162612
-0.0162612
-0.0161943
-0.016194
-0.0162612
-0.0161941
-0.0161719
-0.016105
-0.0161159
-0.0161606
-0.0161048
-0.0161718
-0.0161606
-0.0161722
-0.0161047
-0.0161045
-0.0161719
-0.0161719
-0.0161159
-0.0161049
-0.0161606
-0.0161047
-0.0161606
-0.0161717
-0.0161937
-0.0162612
-0.016194
-0.0162615
-0.016194
-0.0162052
-0.016261
-0.01625
-0.0161942
-0.0162051
-0.0162612
-0.0161937
-0.0162612
-0.016194
-0.0162615
-0.016194
-0.0162052
-0.0162499
-0.0162611
-0.0162052
-0.0161942
-0.0162612
-0.0161722
-0.0161048
-0.0161046
-0.016172
-0.0161719
-0.0161159
-0.0161049
-0.0161606
-0.0161048
-0.0161606
-0.0161718
-0.0161722
-0.0161048
-0.0161046
-0.016172
-0.016194
-0.0162052
-0.016261
-0.0162499
-0.0161942
-0.0162051
-0.0162611
-0.0161937
-0.0162612
-0.016194
-0.0162615
-0.016194
-0.016205
-0.0162499
-0.016261
-0.0162051
-0.0161941
-0.0162611
-0.0161937
-0.0162612
-0.016194
-0.0162615
-0.0161047
-0.0161049
-0.0161719
-0.016172
-0.0161717
-0.0161049
-0.0161718
-0.0162612
-0.016194
-0.0161938
-0.0162613
-0.016261
-0.0161939
-0.0161941
-0.016261
-0.0161942
-0.0161711
-0.0161161
-0.0161052
-0.0161605
-0.0161056
-0.0161605
-0.0161714
-0.0161717
-0.0161049
-0.0161051
-0.0161717
-0.0161717
-0.0161049
-0.0161051
-0.0161717
-0.0161946
-0.0162052
-0.0162499
-0.0162607
-0.0162052
-0.0161944
-0.0162605
-0.0161946
-0.0162053
-0.0162499
-0.0162607
-0.0162052
-0.0161945
-0.0162604
-0.0161941
-0.016261
-0.0161942
-0.016261
-0.0161941
-0.016261
-0.0161942
-0.016261
-0.0161048
-0.016172
-0.0161049
-0.0161717
-0.0161938
-0.0162612
-0.0162611
-0.0161939
-0.0161943
-0.0162612
-0.016194
-0.016261
-0.0161942
-0.0162835
-0.0163504
-0.0162833
-0.0163505
-0.0162835
-0.0162833
-0.0163506
-0.0163504
-0.0163506
-0.0164397
-0.0163728
-0.0164399
-0.0163727
-0.0163725
-0.0164398
-0.0164399
-0.0163728
-0.0163726
-0.0163504
-0.0162836
-0.0162835
-0.0163504
-0.0163498
-0.0162838
-0.0162944
-0.0163392
-0.016284
-0.0163501
-0.0163393
-0.0163498
-0.0162838
-0.0162944
-0.0163392
-0.016284
-0.0163501
-0.0163392
-0.0163728
-0.0164397
-0.0163729
-0.0164397
-0.0163728
-0.0164397
-0.0163728
-0.0164397
-0.0163733
-0.0163838
-0.0164394
-0.0164287
-0.0163732
-0.0163838
-0.0164392
-0.0163733
-0.0163839
-0.0164394
-0.0164287
-0.0163731
-0.0163838
-0.0164392
-0.0162835
-0.0162833
-0.0163506
-0.0163504
-0.0163505
-0.0162833
-0.0163505
-0.0164397
-0.0163728
-0.0163724
-0.0164398
-0.0164399
-0.0163728
-0.0163726
-0.0164398
-0.0163726
-0.0163505
-0.0162835
-0.0162945
-0.0163392
-0.0162833
-0.0163504
-0.0163393
-0.0163508
-0.0162833
-0.016283
-0.0163506
-0.0163505
-0.0162944
-0.0162835
-0.0163393
-0.0162833
-0.0163393
-0.0163504
-0.0163723
-0.0164399
-0.0163726
-0.0164402
-0.0163726
-0.0163838
-0.0164397
-0.0164287
-0.0163728
-0.0163838
-0.0164399
-0.0163724
-0.0164399
-0.0163727
-0.0164402
-0.0163726
-0.0163839
-0.0164288
-0.0164398
-0.0163839
-0.0163729
-0.0164399
-0.0163508
-0.0162832
-0.016283
-0.0163505
-0.0163505
-0.0162944
-0.0162834
-0.0163392
-0.0162833
-0.0163393
-0.0163503
-0.0163508
-0.0162832
-0.016283
-0.0163505
-0.0163726
-0.0163838
-0.0164397
-0.0164287
-0.0163728
-0.0163838
-0.0164399
-0.0163723
-0.0164399
-0.0163726
-0.0164401
-0.0163726
-0.0163839
-0.0164288
-0.0164397
-0.0163838
-0.0163728
-0.0164399
-0.0163723
-0.0164399
-0.0163726
-0.0164402
-0.0162833
-0.0162834
-0.0163506
-0.0163507
-0.0163504
-0.0162835
-0.0163505
-0.0164399
-0.0163727
-0.0163725
-0.01644
-0.0164398
-0.0163726
-0.0163729
-0.0164398
-0.0163729
-0.0163499
-0.0162945
-0.0162838
-0.0163393
-0.016284
-0.0163393
-0.0163501
-0.0163504
-0.0162835
-0.0162835
-0.0163504
-0.0163504
-0.0162835
-0.0162835
-0.0163504
-0.0163734
-0.0163839
-0.0164288
-0.0164395
-0.0163839
-0.0163732
-0.0164392
-0.0163734
-0.016384
-0.0164288
-0.0164395
-0.0163839
-0.0163732
-0.0164392
-0.0163729
-0.0164398
-0.0163729
-0.0164398
-0.0163729
-0.0164398
-0.0163729
-0.0164398
-0.0162832
-0.0163505
-0.0162835
-0.0163504
-0.0163725
-0.0164399
-0.0164398
-0.0163726
-0.0163728
-0.0164398
-0.0163726
-0.0164398
-0.0163728
-0.0164622
-0.0165292
-0.016462
-0.0165293
-0.0164622
-0.016462
-0.0165294
-0.0165292
-0.0165294
-0.0166187
-0.0165516
-0.0166188
-0.0165515
-0.0165512
-0.0166187
-0.0166189
-0.0165516
-0.0165515
-0.0165291
-0.0164622
-0.0164622
-0.0165291
-0.0165286
-0.0164625
-0.0164731
-0.0165181
-0.0164627
-0.0165288
-0.0165181
-0.0165286
-0.0164625
-0.0164732
-0.0165181
-0.0164627
-0.0165288
-0.0165181
-0.0165517
-0.0166187
-0.0165517
-0.0166187
-0.0165517
-0.0166187
-0.0165517
-0.0166187
-0.0165522
-0.0165627
-0.0166184
-0.0166078
-0.016552
-0.0165627
-0.0166182
-0.0165521
-0.0165628
-0.0166184
-0.0166077
-0.016552
-0.0165627
-0.0166182
-0.0164621
-0.0164619
-0.0165294
-0.016529
-0.0165295
-0.016462
-0.0165293
-0.0166187
-0.0165516
-0.0165512
-0.0166187
-0.0166188
-0.0165516
-0.0165514
-0.0166188
-0.0165514
-0.0165294
-0.0164622
-0.0164732
-0.0165181
-0.0164621
-0.0165292
-0.0165181
-0.0165296
-0.016462
-0.0164617
-0.0165293
-0.0165294
-0.0164732
-0.0164622
-0.0165181
-0.016462
-0.0165181
-0.0165292
-0.0165512
-0.0166189
-0.0165515
-0.0166192
-0.0165515
-0.0165627
-0.0166187
-0.0166077
-0.0165517
-0.0165626
-0.0166188
-0.0165512
-0.0166189
-0.0165514
-0.0166192
-0.0165515
-0.0165628
-0.0166078
-0.0166187
-0.0165627
-0.0165517
-0.0166188
-0.0165296
-0.016462
-0.0164617
-0.0165293
-0.0165293
-0.0164732
-0.0164622
-0.0165183
-0.016462
-0.0165182
-0.0165292
-0.0165296
-0.016462
-0.0164617
-0.0165294
-0.0165515
-0.0165627
-0.0166187
-0.0166077
-0.0165516
-0.0165626
-0.0166188
-0.0165512
-0.0166188
-0.0165514
-0.0166191
-0.0165515
-0.0165626
-0.0166077
-0.0166187
-0.0165627
-0.0165516
-0.0166188
-0.0165512
-0.0166189
-0.0165515
-0.0166191
-0.016462
-0.0164622
-0.0165295
-0.0165294
-0.0165292
-0.0164623
-0.0165292
-0.0166188
-0.0165515
-0.0165513
-0.0166189
-0.0166187
-0.0165514
-0.0165517
-0.0166187
-0.0165517
-0.0165287
-0.0164734
-0.0164626
-0.0165181
-0.0164628
-0.0165182
-0.0165289
-0.0165293
-0.0164623
-0.0164623
-0.0165292
-0.0165292
-0.0164623
-0.0164623
-0.0165292
-0.0165522
-0.0165628
-0.0166077
-0.0166184
-0.0165628
-0.016552
-0.0166181
-0.0165522
-0.0165629
-0.0166077
-0.0166184
-0.0165628
-0.0165521
-0.0166181
-0.0165518
-0.0166187
-0.0165517
-0.0166187
-0.0165518
-0.0166187
-0.0165517
-0.0166187
-0.016462
-0.0165294
-0.0164622
-0.0165292
-0.0165514
-0.0166188
-0.0166187
-0.0165513
-0.0165518
-0.0166188
-0.0165515
-0.0166187
-0.0165517
-0.0166412
-0.0167082
-0.016641
-0.0167083
-0.0166411
-0.016641
-0.0167085
-0.0167082
-0.0167084
-0.0167977
-0.0167307
-0.0167979
-0.0167305
-0.0167301
-0.0167978
-0.0167979
-0.0167307
-0.0167305
-0.0167082
-0.0166412
-0.0166413
-0.0167082
-0.0167077
-0.0166415
-0.0166521
-0.0166972
-0.0166417
-0.0167079
-0.0166973
-0.0167077
-0.0166415
-0.0166521
-0.0166972
-0.0166417
-0.0167079
-0.0166973
-0.0167307
-0.0167977
-0.0167307
-0.0167977
-0.0167307
-0.0167977
-0.0167307
-0.0167977
-0.0167312
-0.0167417
-0.0167974
-0.0167869
-0.0167311
-0.0167416
-0.0167972
-0.0167312
-0.0167417
-0.0167975
-0.0167869
-0.0167311
-0.0167416
-0.0167972
-0.0166411
-0.0166409
-0.0167085
-0.0167082
-0.0167084
-0.0166409
-0.0167083
-0.0167978
-0.0167307
-0.0167302
-0.0167978
-0.0167979
-0.0167307
-0.0167305
-0.0167979
-0.0167305
-0.0167084
-0.0166412
-0.0166521
-0.0166972
-0.016641
-0.0167082
-0.0166973
-0.0167087
-0.016641
-0.0166408
-0.0167084
-0.0167084
-0.0166521
-0.0166412
-0.0166972
-0.016641
-0.0166973
-0.0167082
-0.0167303
-0.0167979
-0.0167305
-0.0167982
-0.0167305
-0.0167417
-0.0167978
-0.016787
-0.0167307
-0.0167416
-0.0167979
-0.0167303
-0.016798
-0.0167305
-0.0167982
-0.0167305
-0.0167417
-0.016787
-0.0167978
-0.0167417
-0.0167308
-0.0167979
-0.0167087
-0.0166409
-0.0166407
-0.0167084
-0.0167084
-0.0166521
-0.0166411
-0.0166972
-0.016641
-0.0166973
-0.0167082
-0.0167087
-0.016641
-0.0166407
-0.0167084
-0.0167305
-0.0167417
-0.0167978
-0.016787
-0.0167307
-0.0167416
-0.0167979
-0.0167303
-0.0167979
-0.0167305
-0.0167982
-0.0167305
-0.0167418
-0.016787
-0.0167978
-0.0167416
-0.0167307
-0.0167979
-0.0167303
-0.0167979
-0.0167305
-0.0167982
-0.016641
-0.0166411
-0.0167085
-0.0167085
-0.0167082
-0.0166412
-0.0167082
-0.016798
-0.0167306
-0.0167302
-0.016798
-0.0167978
-0.0167305
-0.0167307
-0.0167977
-0.0167307
-0.0167077
-0.0166521
-0.0166416
-0.0166972
-0.0166417
-0.0166972
-0.0167079
-0.0167082
-0.0166412
-0.0166412
-0.0167082
-0.0167082
-0.0166412
-0.0166413
-0.0167082
-0.0167312
-0.0167418
-0.0167869
-0.0167975
-0.0167416
-0.0167311
-0.0167972
-0.0167312
-0.0167418
-0.0167869
-0.0167975
-0.0167416
-0.0167311
-0.0167972
-0.0167308
-0.0167977
-0.0167307
-0.0167977
-0.0167307
-0.0167977
-0.0167307
-0.0167977
-0.016641
-0.0167083
-0.0166412
-0.0167082
-0.0167302
-0.0167979
-0.0167978
-0.0167305
-0.0167307
-0.0167979
-0.0167305
-0.0167978
-0.0167307
-0.0168202
-0.0168873
-0.0168201
-0.0168874
-0.0168202
-0.01682
-0.0168877
-0.0168873
-0.0168875
-0.0169768
-0.0169098
-0.0169769
-0.0169096
-0.016909
-0.0169769
-0.016977
-0.0169098
-0.0169096
-0.0168873
-0.0168203
-0.0168203
-0.0168873
-0.0168867
-0.0168206
-0.016831
-0.0168764
-0.0168207
-0.016887
-0.0168765
-0.0168867
-0.0168206
-0.016831
-0.0168764
-0.0168208
-0.016887
-0.0168765
-0.0169098
-0.0169768
-0.0169098
-0.0169768
-0.0169098
-0.0169768
-0.0169099
-0.0169768
-0.0169103
-0.0169207
-0.0169765
-0.0169662
-0.0169102
-0.0169206
-0.0169762
-0.0169103
-0.0169208
-0.0169766
-0.0169663
-0.0169102
-0.0169206
-0.0169762
-0.0168203
-0.0168201
-0.0168877
-0.0168872
-0.0168877
-0.0168201
-0.0168875
-0.0169768
-0.0169098
-0.016909
-0.0169769
-0.016977
-0.0169098
-0.0169097
-0.016977
-0.0169097
-0.0168874
-0.0168203
-0.016831
-0.0168764
-0.0168201
-0.0168873
-0.0168765
-0.0168877
-0.0168201
-0.0168198
-0.0168875
-0.0168874
-0.0168311
-0.0168203
-0.0168764
-0.0168201
-0.0168765
-0.0168874
-0.0169093
-0.0169769
-0.0169096
-0.0169773
-0.0169096
-0.0169207
-0.0169768
-0.0169662
-0.0169098
-0.0169204
-0.0169769
-0.0169094
-0.016977
-0.0169097
-0.0169773
-0.0169096
-0.0169207
-0.0169662
-0.0169769
-0.0169205
-0.0169099
-0.0169769
-0.0168878
-0.0168201
-0.0168199
-0.0168876
-0.0168875
-0.016831
-0.0168203
-0.0168765
-0.0168201
-0.0168766
-0.0168874
-0.0168878
-0.0168201
-0.0168199
-0.0168875
-0.0169096
-0.0169208
-0.0169769
-0.0169662
-0.0169099
-0.0169205
-0.0169769
-0.0169094
-0.016977
-0.0169097
-0.0169773
-0.0169096
-0.0169206
-0.0169662
-0.0169768
-0.0169205
-0.0169099
-0.0169769
-0.0169094
-0.016977
-0.0169097
-0.0169773
-0.0168201
-0.0168202
-0.0168877
-0.0168876
-0.0168873
-0.0168203
-0.0168873
-0.016977
-0.0169097
-0.0169091
-0.0169771
-0.0169768
-0.0169097
-0.0169099
-0.0169768
-0.0169099
-0.0168867
-0.0168312
-0.0168206
-0.0168763
-0.0168208
-0.0168764
-0.016887
-0.0168873
-0.0168203
-0.0168203
-0.0168873
-0.0168873
-0.0168203
-0.0168203
-0.0168872
-0.0169103
-0.0169208
-0.0169661
-0.0169765
-0.0169205
-0.0169102
-0.0169762
-0.0169103
-0.0169209
-0.0169661
-0.0169765
-0.0169206
-0.0169102
-0.0169762
-0.0169099
-0.0169767
-0.0169099
-0.0169768
-0.0169099
-0.0169768
-0.0169098
-0.0169768
-0.0168201
-0.0168875
-0.0168202
-0.0168872
-0.0169091
-0.016977
-0.0169768
-0.0169095
-0.0169099
-0.0169769
-0.0169097
-0.0169768
-0.0169098
-0.0169994
-0.0170663
-0.0169992
-0.0170664
-0.0169993
-0.0169991
-0.0170668
-0.0170664
-0.0170665
-0.0171559
-0.017089
-0.017156
-0.0170888
-0.0170875
-0.0171559
-0.0171561
-0.0170889
-0.0170887
-0.0170663
-0.0169994
-0.0169994
-0.0170663
-0.0170657
-0.0169997
-0.0170099
-0.0170556
-0.0169998
-0.0170661
-0.0170558
-0.0170657
-0.0169998
-0.01701
-0.0170556
-0.0169998
-0.0170661
-0.0170558
-0.0170889
-0.0171558
-0.017089
-0.0171558
-0.0170889
-0.0171558
-0.017089
-0.0171558
-0.0170892
-0.0170996
-0.0171556
-0.0171456
-0.0170894
-0.0170993
-0.0171552
-0.0170893
-0.0170996
-0.0171556
-0.0171456
-0.0170894
-0.0170993
-0.0171552
-0.0169994
-0.0169992
-0.0170668
-0.0170664
-0.0170665
-0.0169992
-0.0170664
-0.0171558
-0.0170889
-0.0170875
-0.0171559
-0.017156
-0.0170889
-0.0170887
-0.0171559
-0.0170888
-0.0170664
-0.0169994
-0.0170098
-0.0170556
-0.0169991
-0.0170664
-0.0170558
-0.0170668
-0.0169992
-0.0169989
-0.0170665
-0.0170664
-0.0170098
-0.0169994
-0.0170555
-0.0169991
-0.0170558
-0.0170664
-0.0170884
-0.017156
-0.0170888
-0.0171563
-0.0170885
-0.0170996
-0.0171559
-0.0171456
-0.017089
-0.0170992
-0.0171558
-0.0170884
-0.017156
-0.0170887
-0.0171563
-0.0170885
-0.0170996
-0.0171456
-0.0171559
-0.0170992
-0.017089
-0.0171558
-0.0170668
-0.0169992
-0.0169989
-0.0170665
-0.0170664
-0.0170099
-0.0169994
-0.0170555
-0.0169991
-0.0170558
-0.0170663
-0.0170668
-0.0169992
-0.0169989
-0.0170664
-0.0170885
-0.0170996
-0.0171559
-0.0171456
-0.017089
-0.0170992
-0.0171558
-0.0170884
-0.017156
-0.0170887
-0.0171563
-0.0170885
-0.0170996
-0.0171456
-0.0171558
-0.0170993
-0.017089
-0.0171558
-0.0170884
-0.0171559
-0.0170887
-0.0171563
-0.0169992
-0.0169993
-0.0170667
-0.0170665
-0.0170662
-0.0169993
-0.0170662
-0.0171559
-0.0170887
-0.0170876
-0.0171561
-0.0171558
-0.0170887
-0.0170889
-0.0171558
-0.0170889
-0.0170657
-0.01701
-0.0169998
-0.0170555
-0.0169998
-0.0170557
-0.017066
-0.0170662
-0.0169993
-0.0169994
-0.0170662
-0.0170663
-0.0169994
-0.0169994
-0.0170663
-0.0170892
-0.0170997
-0.0171455
-0.0171555
-0.0170994
-0.0170893
-0.0171551
-0.0170892
-0.0170997
-0.0171455
-0.0171556
-0.0170994
-0.0170893
-0.0171551
-0.0170889
-0.0171557
-0.0170889
-0.0171558
-0.0170889
-0.0171558
-0.0170889
-0.0171558
-0.0169992
-0.0170664
-0.0169994
-0.0170663
-0.0170876
-0.0171559
-0.0171559
-0.0170887
-0.0170889
-0.0171559
-0.0170887
-0.0171558
-0.0170889
-0.0171785
-0.0172453
-0.0171784
-0.0172454
-0.0171785
-0.0171783
-0.0172461
-0.0172454
-0.0172455
-0.0173348
-0.0172681
-0.0173349
-0.017268
-0.0172652
-0.0173349
-0.0173351
-0.0172681
-0.0172679
-0.0172453
-0.0171785
-0.0171785
-0.0172452
-0.0172445
-0.0171789
-0.0171885
-0.017235
-0.0171787
-0.0172451
-0.0172353
-0.0172445
-0.0171789
-0.0171885
-0.0172349
-0.0171787
-0.017245
-0.0172352
-0.017268
-0.0173348
-0.0172681
-0.0173349
-0.017268
-0.0173348
-0.0172681
-0.0173349
-0.017268
-0.0172782
-0.0173347
-0.0173253
-0.0172686
-0.0172779
-0.0173339
-0.017268
-0.0172783
-0.0173347
-0.0173253
-0.0172685
-0.0172778
-0.017334
-0.0171785
-0.0171782
-0.0172461
-0.0172452
-0.0172457
-0.0171783
-0.0172455
-0.0173348
-0.0172681
-0.0172652
-0.0173349
-0.0173351
-0.0172681
-0.0172679
-0.017335
-0.017268
-0.0172452
-0.0171786
-0.0171885
-0.0172351
-0.017178
-0.0172454
-0.0172354
-0.0172458
-0.0171783
-0.017178
-0.0172455
-0.0172452
-0.0171885
-0.0171786
-0.0172349
-0.017178
-0.0172354
-0.0172454
-0.0172676
-0.017335
-0.0172679
-0.0173354
-0.0172674
-0.0172782
-0.017335
-0.0173255
-0.0172683
-0.0172778
-0.0173346
-0.0172676
-0.017335
-0.0172679
-0.0173353
-0.0172673
-0.0172783
-0.0173254
-0.0173351
-0.0172778
-0.0172682
-0.0173346
-0.0172458
-0.0171783
-0.017178
-0.0172455
-0.0172453
-0.0171886
-0.0171785
-0.0172351
-0.017178
-0.0172354
-0.0172455
-0.0172458
-0.0171783
-0.017178
-0.0172455
-0.0172673
-0.0172782
-0.017335
-0.0173254
-0.0172682
-0.0172778
-0.0173347
-0.0172676
-0.017335
-0.0172679
-0.0173354
-0.0172674
-0.0172783
-0.0173255
-0.017335
-0.0172779
-0.0172683
-0.0173347
-0.0172676
-0.0173351
-0.017268
-0.0173354
-0.0171783
-0.0171784
-0.017246
-0.0172456
-0.0172453
-0.0171785
-0.0172453
-0.017335
-0.017268
-0.0172654
-0.0173352
-0.0173349
-0.0172679
-0.0172681
-0.0173349
-0.0172682
-0.0172446
-0.0171888
-0.0171789
-0.0172349
-0.0171787
-0.0172352
-0.0172451
-0.0172453
-0.0171785
-0.0171785
-0.0172453
-0.0172454
-0.0171785
-0.0171785
-0.0172453
-0.0172682
-0.0172785
-0.0173252
-0.0173347
-0.0172781
-0.0172686
-0.017334
-0.0172682
-0.0172786
-0.0173252
-0.0173348
-0.0172782
-0.0172687
-0.017334
-0.0172681
-0.0173349
-0.0172682
-0.0173349
-0.0172681
-0.0173349
-0.0172682
-0.0173349
-0.0171783
-0.0172455
-0.0171785
-0.0172453
-0.0172655
-0.0173351
-0.017335
-0.0172678
-0.0172683
-0.017335
-0.017268
-0.0173349
-0.0172682
-0.0173578
-0.0174244
-0.0173577
-0.0174245
-0.0173578
-0.0173576
-0.0174257
-0.0174245
-0.0174246
-0.0175139
-0.0174477
-0.017514
-0.0174475
-0.0174412
-0.0175141
-0.0175142
-0.0174476
-0.0174474
-0.0174245
-0.0173579
-0.0173577
-0.0174244
-0.0174233
-0.0173583
-0.017367
-0.0174154
-0.0173575
-0.0174243
-0.0174156
-0.0174233
-0.0173583
-0.0173671
-0.0174154
-0.0173575
-0.0174244
-0.0174156
-0.0174474
-0.017514
-0.0174476
-0.0175142
-0.0174474
-0.0175139
-0.0174477
-0.0175141
-0.0174466
-0.017456
-0.017514
-0.0175061
-0.0174482
-0.0174561
-0.0175123
-0.0174466
-0.0174561
-0.017514
-0.0175061
-0.0174482
-0.0174561
-0.0175123
-0.0173578
-0.0173577
-0.0174257
-0.0174245
-0.0174247
-0.0173577
-0.0174245
-0.0175139
-0.0174477
-0.0174412
-0.0175141
-0.0175142
-0.0174476
-0.0174475
-0.017514
-0.0174476
-0.0174239
-0.0173579
-0.0173668
-0.0174155
-0.0173567
-0.0174245
-0.0174158
-0.0174249
-0.0173577
-0.0173572
-0.0174246
-0.017424
-0.0173669
-0.017358
-0.0174154
-0.0173567
-0.0174157
-0.0174246
-0.0174469
-0.0175141
-0.0174474
-0.0175146
-0.0174458
-0.0174559
-0.0175143
-0.0175065
-0.0174477
-0.0174558
-0.017513
-0.0174469
-0.0175141
-0.0174474
-0.0175146
-0.0174459
-0.0174561
-0.0175063
-0.0175143
-0.0174559
-0.0174478
-0.0175131
-0.017425
-0.0173577
-0.0173573
-0.0174246
-0.017424
-0.017367
-0.017358
-0.0174154
-0.0173567
-0.0174157
-0.0174246
-0.017425
-0.0173577
-0.0173573
-0.0174246
-0.0174459
-0.017456
-0.0175143
-0.0175063
-0.0174478
-0.0174558
-0.0175131
-0.0174469
-0.0175141
-0.0174474
-0.0175146
-0.0174459
-0.0174561
-0.0175062
-0.0175143
-0.0174559
-0.0174478
-0.0175131
-0.0174469
-0.0175142
-0.0174475
-0.0175146
-0.0173577
-0.0173578
-0.0174258
-0.0174247
-0.0174245
-0.0173579
-0.0174244
-0.017514
-0.0174475
-0.0174416
-0.0175142
-0.017514
-0.0174474
-0.0174477
-0.0175139
-0.0174478
-0.0174234
-0.0173673
-0.0173585
-0.0174152
-0.0173576
-0.0174153
-0.0174244
-0.0174246
-0.0173579
-0.0173578
-0.0174245
-0.0174246
-0.017358
-0.0173578
-0.0174245
-0.0174467
-0.0174564
-0.0175058
-0.017514
-0.0174563
-0.0174482
-0.0175124
-0.0174468
-0.0174563
-0.0175058
-0.0175141
-0.0174563
-0.0174483
-0.0175124
-0.0174475
-0.017514
-0.0174477
-0.0175142
-0.0174475
-0.017514
-0.0174477
-0.0175142
-0.0173577
-0.0174245
-0.017358
-0.0174245
-0.0174416
-0.0175142
-0.0175141
-0.0174475
-0.0174477
-0.017514
-0.0174476
-0.0175139
-0.0174478
-0.0175376
-0.0176034
-0.0175375
-0.0176035
-0.0175375
-0.0175373
-0.0176062
-0.0176036
-0.0176037
-0.017693
-0.0176278
-0.0176931
-0.0176277
-0.0176124
-0.0176932
-0.0176933
-0.0176277
-0.0176275
-0.0176039
-0.0175374
-0.017537
-0.0176035
-0.0176011