/*--------------------------------*- C++ -*----------------------------------*\
| =========                 |                                                 |
| \\      /  F ield         | OpenFOAM: The Open Source CFD Toolbox           |
|  \\    /   O peration     | Version:  2206                                  |
|   \\  /    A nd           | Website:  www.openfoam.com                      |
|    \\/     M anipulation  |                                                 |
\*---------------------------------------------------------------------------*/
FoamFile
{
    version     2.0;
    format      ascii;
    arch        "LSB;label=32;scalar=64";
    class       volVectorField;
    location    "130";
    object      U;
}
// * * * * * * * * * * * * * * * * * * * * * * * * * * * * * * * * * * * * * //

dimensions      [0 1 -1 0 0 0 0];

internalField   nonuniform List<vector> 
66940
(
(1.63556e-06 2.20352e-06 0.144595)
(2.17456e-06 -1.05988e-06 0.134892)
(-2.3704e-06 -2.54762e-07 0.135278)
(-0.000118735 -0.000116553 0.129405)
(2.75816e-06 3.67272e-06 0.144587)
(1.54407e-06 -3.00834e-06 0.134882)
(-2.24983e-06 -2.49202e-06 0.135273)
(-0.000118441 -0.000118157 0.12939)
(5.516e-06 5.16022e-06 0.144585)
(2.5353e-08 -5.09553e-06 0.134882)
(-2.27245e-06 -4.78313e-06 0.135272)
(-0.000121424 -0.000116455 0.129387)
(7.10599e-06 7.02577e-06 0.144589)
(-2.28298e-06 -9.26199e-06 0.134888)
(-6.08221e-06 -7.18356e-06 0.135272)
(-0.000120944 -0.000115731 0.129392)
(1.08576e-05 1.27242e-05 0.144598)
(-7.50471e-06 -1.47806e-05 0.134895)
(-1.32479e-05 -1.1782e-05 0.135281)
(-0.000121516 -0.00011521 0.129399)
(1.3557e-05 1.50518e-05 0.144611)
(-1.7699e-05 -2.60755e-05 0.134907)
(-2.53867e-05 -2.36546e-05 0.135293)
(-0.000120817 -0.000116291 0.129395)
(1.53395e-05 1.62343e-05 0.144639)
(-3.90164e-05 -5.26881e-05 0.134915)
(-5.01899e-05 -4.9146e-05 0.135306)
(-0.00012134 -0.000117241 0.129384)
(-1.07738e-05 -7.03745e-06 0.144703)
(-8.62366e-05 -0.000108672 0.134905)
(-0.000104268 -0.000101493 0.13531)
(-0.000122807 -0.000119359 0.129342)
(-0.000158509 -0.000146416 0.14485)
(-0.000195106 -0.000220381 0.134816)
(-0.000212585 -0.000217568 0.135253)
(-0.000134695 -0.000131363 0.12922)
(-0.000878463 -0.000853094 0.145122)
(-0.000506211 -0.000369105 0.134459)
(-0.000353874 -0.000536324 0.134954)
(-0.000180044 -0.000172133 0.1289)
(-0.00429242 -0.00428825 0.144933)
(-0.00155295 -0.0001225 0.132991)
(-0.000112618 -0.00157375 0.133634)
(-0.000172125 -0.000170528 0.127847)
(-0.0199242 -0.0200594 0.132315)
(-6.53986e-05 0.00146224 0.121812)
(0.00134949 -0.000168347 0.122579)
(0.00109625 0.00108045 0.119549)
(-0.000125346 -0.000123681 0.129268)
(-1.1216e-06 -9.12577e-07 0.135337)
(-4.09072e-07 -4.05884e-07 0.135289)
(0.000122688 -0.00012125 0.129214)
(-2.72042e-06 2.04062e-06 0.134956)
(-2.1995e-06 -1.22913e-06 0.134887)
(3.8121e-06 1.96886e-06 0.134884)
(2.04881e-06 1.18604e-06 0.134931)
(-0.000124108 0.000123344 0.129202)
(-8.17263e-07 8.5654e-07 0.135269)
(-4.15605e-07 2.37007e-06 0.135308)
(0.000124739 0.000123002 0.129243)
(0.000116532 0.000116971 0.129426)
(-0.000122693 -0.000122898 0.129252)
(-2.33355e-06 4.619e-07 0.135346)
(1.94424e-06 6.08623e-07 0.135296)
(2.8333e-06 -1.68074e-06 0.135315)
(-3.59631e-06 9.27584e-07 0.135266)
(-0.000116387 0.000117488 0.12937)
(0.000123041 -0.000122227 0.129203)
(-1.30631e-06 -1.40255e-06 0.134968)
(-5.26179e-07 1.43767e-06 0.134898)
(-2.47503e-06 2.37318e-06 0.134938)
(-2.93167e-06 -1.27658e-06 0.134874)
(2.57105e-06 6.09782e-07 0.134969)
(2.9496e-06 2.81369e-06 0.134867)
(1.91345e-06 -2.82573e-06 0.134916)
(0.000115821 -0.000116427 0.12936)
(-0.000121975 0.000121236 0.129194)
(3.22506e-06 -7.60082e-07 0.135308)
(2.61198e-06 -2.89521e-08 0.135254)
(-3.11794e-06 9.08082e-07 0.135298)
(0.000123583 0.000122181 0.129231)
(0.000118805 0.00011717 0.12941)
(-0.000122706 -0.000123336 0.129244)
(-2.27348e-06 1.18733e-06 0.135338)
(2.09231e-06 3.17989e-06 0.135282)
(6.03967e-06 -1.26544e-06 0.1353)
(-5.51387e-06 8.32386e-08 0.135248)
(-0.000116575 0.000116926 0.129361)
(0.000121584 -0.000122304 0.129196)
(-3.55491e-07 -3.46877e-06 0.134958)
(1.63641e-07 2.62266e-06 0.134894)
(-3.02926e-06 3.34558e-06 0.13492)
(-2.5145e-06 -4.09405e-06 0.134863)
(-8.95186e-08 1.91218e-07 0.134951)
(4.02885e-06 3.08362e-06 0.134853)
(4.57316e-07 -3.92873e-06 0.134894)
(0.000117131 -0.000117341 0.129353)
(-0.000121587 0.00012125 0.129188)
(2.69629e-06 -2.32726e-06 0.135307)
(6.68966e-06 4.01051e-07 0.135242)
(-6.90798e-06 1.5863e-06 0.13529)
(0.000121997 0.00012242 0.129224)
(0.00011918 0.000117371 0.129401)
(-0.000122707 -0.000122812 0.129234)
(-2.83433e-06 2.82498e-06 0.135335)
(3.96505e-06 4.13231e-06 0.135279)
(9.24559e-06 -3.12309e-06 0.135288)
(-9.76079e-06 -2.4064e-06 0.135239)
(-0.000117425 0.000116234 0.129352)
(0.000121182 -0.000122332 0.129192)
(1.36039e-06 -4.93487e-06 0.134955)
(2.29397e-06 2.81354e-06 0.134897)
(-3.97479e-06 7.40166e-06 0.134904)
(-3.81203e-06 -6.78893e-06 0.134854)
(-1.81615e-06 1.47974e-06 0.134951)
(4.85738e-06 6.17303e-06 0.134845)
(2.25596e-06 -5.28493e-06 0.134882)
(0.000118518 -0.00011835 0.129345)
(-0.000121032 0.000122751 0.129181)
(4.14264e-06 -5.65589e-06 0.135309)
(9.14269e-06 3.5505e-06 0.135227)
(-8.45834e-06 5.52505e-06 0.135284)
(0.000121 0.000125196 0.129232)
(0.000118784 0.000117649 0.12939)
(-0.00012282 -0.000121216 0.12923)
(-6.63594e-06 5.76362e-06 0.135341)
(6.12127e-06 6.98373e-06 0.135285)
(1.38064e-05 -6.53142e-06 0.135273)
(-1.39979e-05 -7.19122e-06 0.13523)
(-0.000118133 0.000116678 0.129347)
(0.000122305 -0.000121749 0.129195)
(3.55496e-06 -8.29562e-06 0.134957)
(3.62618e-06 7.33907e-06 0.134905)
(-8.43004e-06 1.40865e-05 0.134885)
(-7.10523e-06 -1.20308e-05 0.13484)
(-5.15743e-06 7.62057e-06 0.134949)
(8.27341e-06 1.16868e-05 0.134836)
(6.19466e-06 -8.10286e-06 0.13487)
(0.000117918 -0.000116139 0.129337)
(-0.000119668 0.000121571 0.129181)
(7.97946e-06 -5.02937e-06 0.135323)
(1.36723e-05 9.25863e-06 0.135213)
(-1.47707e-05 1.11689e-05 0.135284)
(0.00012199 0.000124423 0.129242)
(0.00011891 0.000119315 0.129381)
(-0.000122307 -0.000121081 0.129234)
(-1.36505e-05 1.19937e-05 0.135345)
(1.43525e-05 1.2305e-05 0.135293)
(2.50591e-05 -1.43225e-05 0.135252)
(-2.44269e-05 -1.65071e-05 0.135218)
(-0.000117228 0.000117399 0.129345)
(0.000120057 -0.000119425 0.129201)
(7.35922e-06 -1.41773e-05 0.13496)
(9.6041e-06 1.25228e-05 0.134916)
(-1.71116e-05 2.50616e-05 0.134864)
(-1.57519e-05 -2.13045e-05 0.134822)
(-9.15431e-06 1.3387e-05 0.134968)
(1.61547e-05 2.36172e-05 0.134826)
(1.61805e-05 -1.98395e-05 0.13486)
(0.000119193 -0.000116938 0.129333)
(-0.000120167 0.000121608 0.129187)
(1.3807e-05 -1.27179e-05 0.135339)
(2.27557e-05 2.01739e-05 0.135201)
(-2.41044e-05 1.99613e-05 0.13528)
(0.000120268 0.000124187 0.129253)
(0.000118557 0.000118669 0.129374)
(-0.000120454 -0.000119416 0.129247)
(-2.5699e-05 2.3739e-05 0.135351)
(2.63745e-05 2.47922e-05 0.135303)
(4.57891e-05 -3.42231e-05 0.135231)
(-4.60815e-05 -3.80716e-05 0.13521)
(-0.000118513 0.000118545 0.129339)
(0.000118616 -0.000119467 0.129214)
(1.65641e-05 -2.85965e-05 0.134974)
(1.92804e-05 2.49759e-05 0.13493)
(-3.38009e-05 4.62593e-05 0.134845)
(-3.29627e-05 -4.28703e-05 0.134802)
(-1.94807e-05 2.48304e-05 0.134981)
(3.43441e-05 4.46646e-05 0.13482)
(3.31545e-05 -4.03577e-05 0.134848)
(0.000117929 -0.000116312 0.129326)
(-0.000117689 0.000119095 0.129195)
(2.50229e-05 -2.51523e-05 0.135361)
(4.51312e-05 3.98997e-05 0.135188)
(-4.43344e-05 4.1736e-05 0.135275)
(0.000120114 0.000120495 0.129267)
(0.000118632 0.000118991 0.129356)
(-0.000115506 -0.00011565 0.129278)
(-5.30493e-05 4.52493e-05 0.13536)
(5.13502e-05 4.91844e-05 0.135312)
(9.03415e-05 -7.54564e-05 0.135231)
(-8.9547e-05 -8.09483e-05 0.13521)
(-0.000118228 0.000117567 0.12932)
(0.000114703 -0.00011536 0.129251)
(3.68893e-05 -5.65939e-05 0.134993)
(4.00726e-05 4.92066e-05 0.134946)
(-6.99622e-05 9.4844e-05 0.134839)
(-6.73379e-05 -8.77626e-05 0.134788)
(-3.93065e-05 4.8388e-05 0.13501)
(7.23936e-05 9.11383e-05 0.134825)
(7.10919e-05 -8.63534e-05 0.134854)
(0.000119239 -0.000118312 0.129306)
(-0.0001143 0.000116143 0.129227)
(5.23857e-05 -5.1593e-05 0.13538)
(8.98854e-05 8.33068e-05 0.135189)
(-8.81957e-05 8.36106e-05 0.135281)
(0.000114896 0.000118551 0.12931)
(0.000122336 0.000121829 0.129308)
(-0.000108998 -0.000108643 0.129362)
(-0.000105047 9.58316e-05 0.135359)
(0.000103579 0.000103101 0.135307)
(0.000181926 -0.000168945 0.135279)
(-0.000177313 -0.000180141 0.135267)
(-0.000121462 0.000120199 0.129281)
(0.000110598 -0.000109744 0.129342)
(8.15193e-05 -0.000113406 0.135003)
(8.50671e-05 0.000103667 0.134954)
(-0.000152561 0.000192698 0.13488)
(-0.000148915 -0.000180032 0.134824)
(-8.47735e-05 0.000101984 0.135022)
(0.000159511 0.000186043 0.134892)
(0.000153127 -0.000178008 0.134898)
(0.000120867 -0.000120052 0.129263)
(-0.000109376 0.000111625 0.129318)
(0.000103853 -0.000104223 0.135387)
(0.000179376 0.000180252 0.135237)
(-0.00017818 0.000185017 0.135326)
(0.00011214 0.00011313 0.129392)
(0.000134254 0.000135445 0.129186)
(-0.000121595 -0.00012146 0.129605)
(-0.000208981 0.000210871 0.13529)
(0.000205015 0.000222827 0.135238)
(0.000304332 -0.000442391 0.1355)
(-0.000293728 -0.000459602 0.135494)
(-0.000132541 0.000132912 0.129163)
(0.000124389 -0.000120989 0.129593)
(0.000186466 -0.000225382 0.134952)
(0.000183801 0.000213511 0.134912)
(-0.000409022 0.000328552 0.135095)
(-0.000394302 -0.000316744 0.135033)
(-0.000187416 0.000209242 0.134977)
(0.000425534 0.000320161 0.13516)
(0.000408681 -0.000313155 0.135112)
(0.000132039 -0.000131455 0.129153)
(-0.000121074 0.000120795 0.129555)
(0.000210034 -0.000223658 0.135319)
(0.000307371 0.000452635 0.135454)
(-0.000299344 0.000461695 0.135542)
(0.000120515 0.000129282 0.129638)
(0.000174299 0.000177366 0.12887)
(-0.000422584 -0.000420726 0.130341)
(-0.000345659 0.000529929 0.134977)
(0.000328837 0.000552805 0.134926)
(-3.08966e-05 -0.00172023 0.13617)
(6.55282e-05 -0.0017473 0.136169)
(-0.000174298 0.000176366 0.128844)
(0.00043432 -0.000423027 0.130378)
(0.000486806 -0.000377921 0.134658)
(0.000467279 0.000366843 0.134637)
(-0.00165554 1.38211e-05 0.135759)
(-0.00160317 -1.58194e-05 0.135688)
(-0.000483437 0.00035389 0.134676)
(0.00169752 -2.93908e-06 0.135953)
(0.00164144 9.56435e-06 0.135778)
(0.000172902 -0.000172221 0.128841)
(-0.000417151 0.000410345 0.130281)
(0.000350198 -0.000553167 0.135017)
(-6.64459e-06 0.00171437 0.136103)
(2.43344e-05 0.00175074 0.136197)
(0.000432255 0.000426092 0.130383)
(0.000162737 0.000177151 0.127812)
(-0.00579053 -0.00579812 0.128679)
(-8.52013e-05 0.00159344 0.13363)
(3.66205e-05 0.00162433 0.133592)
(-0.0055213 -0.0108324 0.133896)
(0.00563589 -0.0108916 0.133857)
(-0.000166567 0.000175012 0.127744)
(0.00587801 -0.00574983 0.128751)
(0.00150245 -0.000141072 0.133332)
(0.00143685 0.000158299 0.13333)
(-0.0107803 -0.00553403 0.13391)
(-0.010621 0.00544173 0.133804)
(-0.001486 0.000119711 0.133351)
(0.0109276 -0.00560027 0.134442)
(0.0107398 0.00549387 0.133904)
(0.000160399 -0.000150673 0.1278)
(-0.00573925 0.00576089 0.128613)
(9.50774e-05 -0.00162657 0.133693)
(-0.00547877 0.0107605 0.133847)
(0.00556309 0.010852 0.133949)
(0.00578922 0.00582373 0.128723)
(-0.00111124 -0.00108973 0.119499)
(0.0014499 0.000279384 0.122527)
(-0.00146229 0.000164611 0.122358)
(0.00114166 -0.00114422 0.118961)
(0.00022766 0.0014528 0.122588)
(6.77535e-05 -0.00135328 0.122581)
(0.0205388 -0.0203118 0.132047)
(-0.0197891 0.0199067 0.1323)
(0.0198724 0.0200228 0.132321)
(-0.00020745 -0.0014854 0.122597)
(-0.00117074 0.0011462 0.119494)
(-0.00140605 -0.000279001 0.122612)
(7.71044e-06 2.5243e-07 0.0592854)
(-3.61813e-06 -1.16827e-06 0.1446)
(2.60708e-06 3.13357e-08 0.144552)
(-3.4031e-06 1.71968e-06 0.144542)
(2.32697e-06 1.60878e-06 0.144571)
(2.58798e-05 2.36582e-06 0.11406)
(1.85162e-06 3.74237e-06 0.134903)
(1.44088e-05 -7.46122e-06 0.097136)
(-1.89321e-06 2.41596e-06 0.140005)
(0.000124965 0.000118864 0.129238)
(-7.29256e-07 3.45471e-06 0.0821285)
(1.90082e-05 -3.00269e-06 0.0822351)
(7.00119e-07 -3.13236e-05 0.0953645)
(7.67565e-06 1.33421e-05 0.0696381)
(2.09677e-07 2.20177e-05 0.0955604)
(-3.5709e-06 -1.86248e-05 0.06953)
(-5.62934e-06 2.25124e-06 0.0594896)
(6.73615e-06 -3.76066e-06 0.0593827)
(-1.88952e-05 -5.94618e-07 0.0943251)
(9.99468e-06 -4.49001e-06 0.0694437)
(1.2269e-05 -3.76582e-06 0.0949574)
(-1.25087e-05 1.55067e-06 0.0691442)
(-1.61106e-06 2.68946e-06 0.144546)
(-6.5788e-08 -1.49123e-06 0.144537)
(-2.11753e-06 -2.5372e-06 0.144578)
(-2.4191e-06 -5.43009e-07 0.144589)
(2.34839e-06 -4.38384e-08 0.144543)
(-3.08608e-06 2.42478e-06 0.14454)
(2.22089e-06 2.1983e-06 0.144569)
(2.91667e-05 3.34132e-07 0.11406)
(-1.21383e-05 5.56215e-06 0.0976679)
(4.88668e-06 -1.65697e-06 0.140024)
(3.70408e-06 2.05736e-06 0.134874)
(-2.32212e-05 -3.10008e-06 0.114767)
(1.80503e-05 -1.20482e-05 0.0971425)
(9.6506e-07 2.28607e-06 0.139966)
(-3.056e-06 -2.18314e-06 0.059468)
(-3.51477e-06 -4.3182e-06 0.0592479)
(-8.31403e-07 3.28719e-05 0.115216)
(-1.98361e-06 -4.69708e-08 0.140652)
(1.70547e-05 -1.51322e-05 0.0980315)
(2.16278e-06 5.93627e-07 0.135258)
(3.47365e-07 -3.41013e-05 0.115434)
(9.76676e-07 -3.40089e-06 0.140592)
(-1.96912e-05 1.9611e-05 0.0977773)
(6.27517e-06 -4.6954e-06 0.0825534)
(-8.49005e-06 9.96871e-07 0.0827161)
(0.000124765 0.000121947 0.129235)
(1.85439e-06 5.37767e-06 0.0821468)
(1.96686e-05 1.77564e-06 0.0824726)
(-7.25726e-08 -3.02357e-05 0.0953714)
(6.44372e-06 1.28351e-05 0.0696537)
(1.24895e-06 2.46511e-05 0.0955657)
(-3.81293e-06 -1.80349e-05 0.0695444)
(-6.39114e-06 5.85264e-07 0.0595097)
(6.06844e-06 -3.46053e-06 0.0594107)
(-1.67301e-05 8.29674e-07 0.0943292)
(8.65419e-06 -4.53186e-06 0.0694632)
(1.2616e-05 -2.62287e-06 0.094961)
(-1.23468e-05 1.79153e-06 0.0691614)
(-1.50627e-06 4.55364e-06 0.14454)
(1.71313e-06 -4.04323e-06 0.14454)
(-2.95511e-06 -5.35111e-06 0.144572)
(-3.66494e-06 -3.08278e-06 0.144582)
(4.78239e-06 -1.6543e-06 0.144537)
(-2.43653e-06 2.47478e-06 0.144536)
(3.53081e-06 3.32154e-06 0.144561)
(2.8351e-05 -7.99804e-07 0.114052)
(-1.32794e-05 3.36533e-06 0.0976733)
(6.64889e-06 -3.90516e-06 0.140033)
(3.69984e-06 2.58095e-06 0.134858)
(-2.49029e-05 -4.1603e-06 0.114758)
(1.65538e-05 -1.19283e-05 0.097147)
(-1.09114e-06 1.81224e-06 0.139939)
(-1.74643e-06 -7.48472e-07 0.0594737)
(-1.07271e-06 -9.56536e-07 0.0592562)
(-6.81389e-07 3.24021e-05 0.115207)
(-2.85468e-06 8.34717e-07 0.140658)
(1.60243e-05 -1.85552e-05 0.0980214)
(4.58666e-06 1.15086e-06 0.135248)
(-4.74744e-08 -3.64187e-05 0.115419)
(3.40358e-06 -5.66137e-06 0.140565)
(-2.00493e-05 1.78305e-05 0.0977711)
(3.70179e-06 -4.90545e-06 0.0825674)
(-1.20887e-05 1.26552e-06 0.0827246)
(0.000123575 0.000122623 0.129225)
(2.22021e-06 3.51414e-06 0.0821564)
(1.51371e-05 -1.05499e-06 0.0824764)
(1.52827e-07 -2.93079e-05 0.095371)
(4.65021e-06 1.37867e-05 0.0696674)
(-5.07948e-08 2.45066e-05 0.0955685)
(-5.95349e-06 -1.75377e-05 0.0695604)
(-7.80047e-06 3.32524e-07 0.0595245)
(5.71098e-06 -4.90362e-06 0.0594195)
(-1.47465e-05 -2.87896e-07 0.0943291)
(1.0036e-05 -5.23691e-06 0.0694765)
(1.38497e-05 -3.85759e-06 0.0949632)
(-1.14899e-05 8.97007e-07 0.0691754)
(-2.33737e-06 5.44221e-06 0.144539)
(4.68988e-06 -7.27427e-06 0.144539)
(-4.71167e-06 -6.39695e-06 0.14458)
(-6.02256e-06 -4.926e-06 0.144574)
(5.45472e-06 -4.5929e-06 0.14453)
(-4.84312e-06 6.39464e-06 0.144531)
(4.90567e-06 8.21432e-06 0.144562)
(2.62259e-05 1.43748e-06 0.114049)
(-1.39958e-05 4.91308e-06 0.097674)
(9.70294e-06 -6.35134e-06 0.140059)
(4.44998e-06 4.57743e-06 0.134848)
(-2.61875e-05 -2.87838e-06 0.114753)
(1.65859e-05 -1.14861e-05 0.0971502)
(-4.1114e-06 3.23658e-06 0.139909)
(-7.30619e-07 1.68977e-06 0.0594828)
(2.98087e-07 4.04181e-07 0.0592628)
(-1.38814e-08 3.28133e-05 0.115196)
(-3.96195e-06 5.39069e-06 0.140686)
(1.62907e-05 -1.75936e-05 0.0980211)
(8.31774e-06 1.58175e-06 0.135233)
(4.49677e-07 -3.39879e-05 0.115407)
(6.34653e-06 -8.84862e-06 0.140535)
(-1.81571e-05 1.90456e-05 0.0977733)
(2.34656e-06 -6.03918e-06 0.0825686)
(-1.55136e-05 7.72208e-08 0.0827238)
(0.000122177 0.000123921 0.129227)
(-2.23465e-06 4.04181e-06 0.0821595)
(1.15229e-05 2.35331e-06 0.0824762)
(-5.1026e-07 -2.83461e-05 0.0953782)
(5.26537e-06 1.55762e-05 0.0696769)
(1.66344e-07 2.66486e-05 0.0955672)
(-4.74371e-06 -1.62642e-05 0.0695713)
(-8.21699e-06 1.09754e-06 0.0595254)
(4.91491e-06 -2.96302e-06 0.0594271)
(-1.48615e-05 2.53451e-06 0.0943312)
(1.05897e-05 -3.93236e-06 0.0694839)
(1.4781e-05 -2.38224e-06 0.0949582)
(-1.20211e-05 3.42185e-06 0.0691862)
(-5.63022e-06 7.18005e-06 0.144537)
(6.92921e-06 -9.76407e-06 0.144543)
(-7.08671e-06 -7.38515e-06 0.144578)
(-9.66845e-06 -6.86707e-06 0.144563)
(7.67949e-06 -8.1389e-06 0.14452)
(-8.27825e-06 1.14135e-05 0.144522)
(9.15228e-06 1.33173e-05 0.144548)
(2.40104e-05 1.85162e-06 0.114049)
(-1.51586e-05 5.27447e-06 0.097675)
(1.44179e-05 -8.26369e-06 0.1401)
(6.56424e-06 8.4769e-06 0.134841)
(-2.77989e-05 -1.89867e-06 0.114749)
(1.45593e-05 -8.20122e-06 0.0971533)
(-1.26952e-05 6.61588e-06 0.139859)
(8.31117e-07 1.72053e-06 0.059479)
(1.19415e-07 -1.06869e-06 0.0592626)
(-1.05091e-06 3.093e-05 0.115191)
(-8.44799e-06 1.05451e-05 0.14073)
(1.85082e-05 -1.83013e-05 0.0980199)
(1.15204e-05 6.02165e-06 0.13522)
(-3.63026e-07 -3.42752e-05 0.115398)
(9.1162e-06 -1.60679e-05 0.140491)
(-1.71117e-05 1.82555e-05 0.0977757)
(-4.64321e-07 -4.46275e-06 0.0825646)
(-1.84835e-05 3.01709e-06 0.0827129)
(0.000121704 0.000123801 0.129235)
(-9.19724e-07 4.21598e-06 0.0821591)
(1.12117e-05 3.50661e-07 0.0824707)
(-1.40614e-06 -2.69356e-05 0.0953768)
(3.94975e-06 1.68155e-05 0.06968)
(-1.17668e-06 2.73448e-05 0.0955615)
(-5.54844e-06 -1.59129e-05 0.0695844)
(-6.98519e-06 2.53141e-06 0.0595245)
(5.98717e-06 -3.46543e-06 0.0594341)
(-1.42075e-05 3.73041e-06 0.0943394)
(1.1587e-05 -2.98346e-06 0.069485)
(1.58027e-05 -6.01031e-07 0.0949548)
(-1.17821e-05 3.3791e-06 0.0691964)
(-8.31365e-06 1.10049e-05 0.144542)
(1.03451e-05 -1.4134e-05 0.14455)
(-1.00837e-05 -1.13974e-05 0.144591)
(-1.43609e-05 -1.0651e-05 0.144543)
(1.12335e-05 -1.14037e-05 0.144504)
(-1.23732e-05 1.79691e-05 0.144505)
(1.37468e-05 1.93252e-05 0.144544)
(2.24853e-05 1.65778e-06 0.114061)
(-1.63371e-05 8.29732e-06 0.0976701)
(2.47335e-05 -1.12019e-05 0.140163)
(1.19248e-05 1.60811e-05 0.134831)
(-2.88359e-05 -2.06972e-06 0.114748)
(1.49408e-05 -5.96776e-06 0.0971637)
(-2.73522e-05 1.21246e-05 0.139775)
(2.01565e-06 3.42432e-06 0.0594761)
(3.0715e-07 5.64877e-07 0.0592771)
(-1.10827e-06 3.07016e-05 0.115197)
(-1.45164e-05 2.21818e-05 0.140796)
(1.64925e-05 -1.91088e-05 0.0980137)
(1.78682e-05 1.36663e-05 0.135207)
(-1.47973e-06 -3.51751e-05 0.115393)
(1.54593e-05 -2.8352e-05 0.140411)
(-1.7337e-05 1.84753e-05 0.0977839)
(4.15296e-07 -4.87842e-06 0.0825507)
(-1.62991e-05 3.62003e-07 0.0827017)
(0.00012177 0.00012336 0.129247)
(-1.97721e-06 3.83415e-06 0.0821642)
(1.10057e-05 2.73488e-06 0.0824786)
(-1.21332e-06 -2.63907e-05 0.0953866)
(2.82745e-06 1.89015e-05 0.069673)
(-1.13253e-06 2.80257e-05 0.0955392)
(-3.3875e-06 -1.69921e-05 0.0695992)
(-5.7978e-06 3.33041e-06 0.0595118)
(2.24654e-06 -4.1017e-06 0.0594476)
(-1.33649e-05 9.70072e-07 0.0943581)
(1.29291e-05 -4.40465e-06 0.0694754)
(1.59986e-05 -1.71654e-06 0.0949398)
(-1.22888e-05 5.55756e-06 0.0692037)
(-1.06386e-05 1.53261e-05 0.144552)
(1.44632e-05 -2.09223e-05 0.144563)
(-1.41028e-05 -1.91347e-05 0.144606)
(-1.56673e-05 -1.32203e-05 0.144513)
(1.27588e-05 -1.48042e-05 0.144479)
(-1.4727e-05 2.4303e-05 0.144475)
(1.67228e-05 2.3991e-05 0.144518)
(1.93106e-05 2.18879e-06 0.114077)
(-1.63355e-05 4.19745e-06 0.0976608)
(4.84161e-05 -1.73326e-05 0.140266)
(2.37819e-05 3.19332e-05 0.134823)
(-2.88913e-05 -2.47299e-06 0.114745)
(1.68498e-05 -5.16494e-06 0.0971769)
(-5.71353e-05 2.05834e-05 0.139648)
(1.35914e-06 1.68108e-06 0.0594736)
(-2.54169e-06 -4.51488e-06 0.0593002)
(6.43457e-07 2.75293e-05 0.11521)
(-2.53542e-05 4.40298e-05 0.1409)
(1.54235e-05 -1.96136e-05 0.0980089)
(3.3076e-05 2.83252e-05 0.135194)
(7.53148e-07 -3.54633e-05 0.115388)
(2.95727e-05 -5.69939e-05 0.140283)
(-1.35666e-05 2.02474e-05 0.0978009)
(-1.76703e-06 -6.41799e-07 0.0825276)
(-1.39509e-05 1.07624e-07 0.0826786)
(0.000120393 0.000121426 0.129257)
(3.77025e-07 3.02283e-06 0.0821847)
(1.02449e-05 2.13455e-06 0.0824987)
(-6.1226e-07 -2.68205e-05 0.0954189)
(-1.31505e-06 2.0705e-05 0.0696599)
(-2.00706e-06 2.90052e-05 0.0955115)
(1.27541e-06 -2.1568e-05 0.0696257)
(-3.65788e-06 5.47271e-06 0.0594785)
(-3.25425e-06 -9.76147e-06 0.0594737)
(-1.24008e-05 1.02692e-06 0.0943932)
(1.59224e-05 -9.54605e-06 0.0694489)
(1.61573e-05 -3.85447e-06 0.0949137)
(-1.57542e-05 8.00484e-06 0.0692263)
(-9.76587e-06 1.69026e-05 0.144577)
(1.69456e-05 -2.68359e-05 0.144589)
(-1.55293e-05 -2.39558e-05 0.144643)
(-4.5179e-07 -2.79693e-07 0.144448)
(-6.1154e-06 -1.93869e-06 0.144428)
(-2.5266e-06 1.92676e-05 0.14442)
(2.58283e-06 1.68196e-05 0.144469)
(1.28739e-05 2.29767e-06 0.114111)
(-1.93211e-05 2.14724e-06 0.09763)
(0.000102133 -3.10896e-05 0.140437)
(4.97447e-05 6.32823e-05 0.134819)
(-2.9051e-05 -2.30897e-06 0.114732)
(2.01309e-05 2.62248e-06 0.0972077)
(-0.000121054 3.95275e-05 0.139445)
(4.08186e-06 3.79291e-06 0.059448)
(-4.72027e-06 -8.94808e-06 0.0593321)
(1.55721e-06 2.18492e-05 0.115232)
(-4.68521e-05 9.52336e-05 0.141074)
(1.24673e-05 -2.21054e-05 0.0979771)
(6.39878e-05 5.76001e-05 0.135186)
(4.34178e-07 -3.67331e-05 0.115372)
(5.55463e-05 -0.000121412 0.14008)
(-6.79722e-06 2.55587e-05 0.0978245)
(-4.86767e-06 1.56407e-06 0.0824741)
(-9.5431e-06 -4.0451e-06 0.0826359)
(0.000118813 0.000120054 0.129285)
(1.99551e-06 -4.45239e-06 0.0822346)
(2.23013e-06 9.02847e-06 0.0825623)
(1.18515e-06 -2.72186e-05 0.0954812)
(-8.89245e-06 2.8082e-05 0.0696291)
(7.7976e-07 3.27479e-05 0.0954578)
(2.03621e-05 -3.16642e-05 0.0696429)
(8.58784e-06 1.54954e-05 0.0594101)
(-1.6908e-05 -1.70647e-05 0.0595402)
(-1.31491e-05 2.74206e-06 0.094464)
(2.22539e-05 -1.7911e-05 0.069412)
(2.02038e-05 -1.16976e-06 0.0948484)
(-2.56692e-05 2.31698e-05 0.0692426)
(1.68357e-05 -3.99381e-06 0.144631)
(-3.71713e-06 -1.40168e-05 0.144652)
(6.25645e-06 -8.11859e-06 0.144704)
(9.92545e-05 9.26557e-05 0.14432)
(-0.000111345 8.89659e-05 0.144308)
(8.69358e-05 -5.8953e-05 0.144294)
(-9.08374e-05 -6.78251e-05 0.144339)
(-1.20412e-07 2.33812e-06 0.114161)
(-2.66917e-05 -1.21497e-05 0.0975839)
(0.000227197 -6.65279e-05 0.140725)
(0.000105829 0.000131551 0.134847)
(-3.13057e-05 -4.12551e-06 0.114692)
(3.28104e-05 1.60053e-05 0.0972697)
(-0.000282566 8.54796e-05 0.139116)
(1.3482e-05 1.58618e-05 0.059374)
(-1.38599e-05 -2.19975e-05 0.0593923)
(1.61372e-06 1.10091e-05 0.115286)
(-9.63795e-05 0.000219936 0.141367)
(2.71632e-06 -2.85598e-05 0.0979312)
(0.000127719 0.000121453 0.135202)
(-8.59961e-07 -3.75208e-05 0.115332)
(0.000116179 -0.000279868 0.139752)
(1.18124e-05 3.8407e-05 0.0978753)
(-1.72441e-05 1.6712e-05 0.0823624)
(1.97953e-06 -1.40404e-05 0.0825394)
(0.00011368 0.00011474 0.12934)
(1.69799e-05 -2.21122e-05 0.0823633)
(-1.52513e-05 2.13345e-05 0.0827014)
(-7.75888e-06 -3.58579e-05 0.0955939)
(-3.76901e-05 4.62006e-05 0.0696273)
(4.35094e-06 3.74559e-05 0.0953675)
(6.39814e-05 -5.66253e-05 0.0695922)
(4.51254e-05 4.05924e-05 0.0592961)
(-7.0138e-05 -5.26318e-05 0.0596724)
(-2.18843e-05 -6.13384e-06 0.0945976)
(4.14763e-05 -4.58411e-05 0.0693856)
(2.79642e-05 2.81674e-06 0.0947284)
(-4.99233e-05 6.87102e-05 0.069183)
(0.000173928 -0.000145892 0.144766)
(-0.000144147 0.000110779 0.144794)
(0.000146565 0.00012177 0.144849)
(0.000560963 0.000543146 0.144026)
(-0.000596158 0.0005432 0.144031)
(0.00053129 -0.000487101 0.144002)
(-0.000544706 -0.000505048 0.144052)
(-3.24215e-05 1.38033e-06 0.114255)
(-4.66847e-05 -4.33522e-05 0.0975235)
(0.000561266 -0.000170079 0.141191)
(0.000252446 0.00025506 0.134985)
(-3.67367e-05 -4.76782e-06 0.114589)
(6.59007e-05 5.81425e-05 0.0973265)
(-0.000709222 0.000216818 0.138594)
(3.78352e-05 5.0298e-05 0.0592432)
(-4.70093e-05 -7.48604e-05 0.0595181)
(-6.0452e-07 -1.7951e-05 0.115369)
(-0.000220852 0.000556272 0.141826)
(-2.85108e-05 -4.71968e-05 0.0978887)
(0.000245275 0.000276545 0.135312)
(-1.44831e-06 -4.40103e-05 0.115264)
(0.000273265 -0.000710931 0.139223)
(5.1247e-05 7.49275e-05 0.097918)
(-4.58283e-05 5.07398e-05 0.08212)
(4.08319e-05 -4.55706e-05 0.0823206)
(0.000111264 0.000114779 0.129483)
(6.20079e-05 -7.8904e-05 0.082664)
(-7.19206e-05 7.02239e-05 0.0829978)
(-5.27246e-05 -0.000124617 0.0958451)
(-0.000132328 8.65761e-05 0.0698986)
(2.47865e-05 5.15328e-05 0.0952028)
(0.000171969 -0.000147866 0.0691678)
(0.000154214 0.000105118 0.0591627)
(-0.000213775 -0.000164904 0.0599091)
(-0.000113094 -5.31019e-05 0.0948954)
(8.16497e-05 -0.00013799 0.0696365)
(4.19031e-05 2.39303e-05 0.0945108)
(-0.000141108 0.000176854 0.0687679)
(0.000925658 -0.00085675 0.145029)
(-0.000842238 0.000790417 0.145072)
(0.000851066 0.000814583 0.145114)
(0.0024099 0.00240685 0.143317)
(-0.00250775 0.00241261 0.143346)
(0.00235375 -0.0023069 0.143286)
(-0.00238162 -0.00234673 0.143336)
(-6.66924e-05 -1.63925e-05 0.114466)
(-9.16244e-05 -0.000124107 0.0975817)
(0.001569 -0.000486417 0.141871)
(0.000797436 0.000310787 0.135469)
(-4.37975e-05 -1.22525e-06 0.114374)
(0.00020521 0.000127243 0.0971898)
(-0.00191149 0.00061821 0.137843)
(0.000104231 0.000161802 0.0590808)
(-0.000160601 -0.00021758 0.0597587)
(-2.26857e-05 -4.60797e-05 0.115484)
(-0.000562127 0.00157641 0.142479)
(-0.000108375 -9.13295e-05 0.0979944)
(0.000300441 0.000822774 0.135705)
(3.24908e-06 -5.20785e-05 0.115112)
(0.000694432 -0.00192105 0.138467)
(0.000115534 0.000211154 0.0977415)
(-0.00013977 0.000158693 0.0816166)
(0.00014163 -0.000132741 0.0818729)
(0.000183779 0.000184228 0.129902)
(0.000234767 -0.000182093 0.0833581)
(-0.00017283 0.000240218 0.0836704)
(-0.000258421 -0.00124711 0.0955233)
(-0.000405096 0.000105054 0.0716539)
(0.000116731 -9.10057e-05 0.0945797)
(0.000158461 -0.00115152 0.0669804)
(0.000459648 0.000195239 0.0595925)
(-0.000262733 -0.00115536 0.0610485)
(-0.001226 -0.000253683 0.0955191)
(0.000104149 -0.000398916 0.0714828)
(-9.52019e-05 0.000114642 0.0942787)
(-0.00114925 0.000168915 0.0669847)
(0.00442474 -0.00429856 0.144835)
(-0.00421331 0.00418216 0.144896)
(0.00424891 0.00423162 0.144931)
(0.00722417 0.00723786 0.13807)
(-0.00751487 0.00726472 0.138011)
(0.00706404 -0.00717609 0.138019)
(-0.00713484 -0.00726966 0.138091)
(0.000788455 -0.000140472 0.11422)
(5.06797e-05 -0.000380826 0.0987322)
(0.00540709 -0.00150859 0.142157)
(0.00414763 -0.00135479 0.13652)
(0.000258216 -5.01812e-06 0.113836)
(0.00125605 -0.000127352 0.0955528)
(-0.00485444 0.00154 0.136746)
(0.000200285 0.000451807 0.0595134)
(-0.0011466 -0.00026924 0.0610692)
(-0.000167787 0.000822724 0.114192)
(-0.00154493 0.00541429 0.142639)
(-0.000369817 5.64762e-05 0.0992038)
(-0.00130947 0.00408855 0.136145)
(6.02364e-06 0.000256344 0.114337)
(0.00151588 -0.00490875 0.136634)
(-0.000144296 0.00123664 0.0954287)
(-0.000240401 0.000356487 0.0810487)
(0.00034924 -0.000235686 0.081407)
(0.00142521 0.00142812 0.130637)
(0.00125498 0.00021145 0.084946)
(0.000220355 0.00125998 0.0849513)
(-0.00129912 -0.0252248 0.0992133)
(-0.000869309 -0.00386143 0.0452531)
(-0.000390079 -0.00643579 0.0872106)
(-0.00752817 -0.0166734 0.0867196)
(0.00021842 -0.00204807 0.0350727)
(0.00800511 -0.0156662 0.0845977)
(-0.0251746 -0.00130234 0.0992359)
(-0.00387128 -0.000871541 0.0452669)
(-0.00644712 -0.000397572 0.0872917)
(-0.0166736 -0.00755246 0.0867374)
(-0.00567481 -0.00559138 0.118281)
(-0.00422393 -0.0176692 0.137604)
(-0.0177993 -0.00440365 0.137654)
(-0.0241082 -0.0242513 0.124602)
(-0.00605819 -0.00599886 0.140659)
(-0.00489849 -0.0229936 0.122152)
(-0.0230432 -0.00498976 0.122183)
(0.0273782 -0.00241809 0.107287)
(0.00615113 -0.00312397 0.0861317)
(0.0244477 -0.00446828 0.130612)
(0.0305275 -0.0223413 0.119847)
(0.00631808 -0.000534563 0.106879)
(0.021044 -0.0100603 0.0988634)
(0.031204 -0.00486718 0.120283)
(-0.00205709 0.000205297 0.0350805)
(-0.0156683 0.00798228 0.0845962)
(-0.00260003 0.0271276 0.107262)
(-0.00436379 0.0245861 0.130566)
(-0.00312097 0.00611931 0.0861198)
(-0.0215939 0.0302051 0.119781)
(-0.000449449 0.00632935 0.106759)
(-0.00467243 0.0312551 0.120203)
(-0.0101075 0.0210569 0.0989081)
(0.00360909 0.00213905 0.0759748)
(0.00215592 0.00359822 0.0760539)
(0.0240001 0.0239126 0.116455)
(0.017822 0.00976335 0.0925794)
(0.0098146 0.0178231 0.0926024)
(-5.37396e-06 -1.10673e-06 0.0593343)
(8.70203e-06 6.39608e-06 0.0593318)
(-3.85168e-07 2.19062e-07 0.0591593)
(-4.89685e-07 -1.66707e-06 0.0593761)
(0.000117941 0.000120429 0.129427)
(-1.62595e-05 -2.04158e-06 0.0824784)
(-1.03232e-06 -6.61012e-06 0.082071)
(1.38292e-05 -1.67657e-06 0.0825757)
(-1.56197e-06 2.95206e-06 0.0824751)
(8.09091e-06 -1.86518e-05 0.0693369)
(-6.14391e-06 4.52158e-06 0.134928)
(1.98155e-05 -2.24299e-05 0.0973549)
(-7.0596e-07 2.11715e-05 0.0949059)
(-3.24804e-06 -1.77592e-05 0.0695218)
(4.76854e-06 1.87666e-05 0.0693878)
(-3.82176e-07 -3.66893e-05 0.0953567)
(-8.89843e-07 2.1499e-05 0.0949117)
(3.59267e-06 -1.74994e-05 0.0695736)
(-4.74553e-06 1.81003e-05 0.0694426)
(2.97168e-07 -3.67062e-05 0.0953631)
(-1.68783e-06 2.68366e-05 0.114742)
(-6.56609e-06 2.72778e-06 0.135341)
(-2.11142e-05 -2.19119e-05 0.0977546)
(-1.21197e-06 2.08374e-06 0.14069)
(1.5032e-05 1.60986e-05 0.0976047)
(-3.00056e-06 1.97029e-06 0.140651)
(-2.84833e-07 -3.7304e-05 0.115212)
(-1.799e-07 2.76863e-05 0.114734)
(5.35421e-06 3.47512e-06 0.135292)
(2.0742e-05 -2.13931e-05 0.0977603)
(-4.44711e-07 2.87145e-06 0.140667)
(-1.58839e-05 1.57537e-05 0.0976135)
(2.85416e-06 2.07717e-06 0.140629)
(1.03371e-06 -3.66421e-05 0.115205)
(0.000124464 -0.00011744 0.129209)
(1.75598e-05 2.13278e-06 0.0822601)
(-1.10336e-06 -3.81207e-06 0.0821738)
(8.7303e-07 1.59507e-06 0.0592355)
(6.35692e-06 -5.78763e-07 0.0593811)
(-9.03475e-06 6.9477e-06 0.0593788)
(-0.000117225 0.000121207 0.129371)
(1.64872e-05 -2.70387e-07 0.0824836)
(1.65075e-06 -6.18234e-06 0.0821799)
(-1.54348e-05 -1.29124e-06 0.0825883)