/*--------------------------------*- C++ -*----------------------------------*\
| =========                 |                                                 |
| \\      /  F ield         | OpenFOAM: The Open Source CFD Toolbox           |
|  \\    /   O peration     | Version:  2206                                  |
|   \\  /    A nd           | Website:  www.openfoam.com                      |
|    \\/     M anipulation  |                                                 |
\*---------------------------------------------------------------------------*/
FoamFile
{
    version     2.0;
    format      ascii;
    arch        "LSB;label=32;scalar=64";
    class       volVectorField;
    location    "130";
    object      wallShearStress;
}
// * * * * * * * * * * * * * * * * * * * * * * * * * * * * * * * * * * * * * //

dimensions      [0 2 -2 0 0 0 0];

internalField   uniform (0 0 0);

boundaryField
{
    topPatch
    {
        type            calculated;
        value           nonuniform List<vector> 0();
    }
    wall
    {
        type            calculated;
        value           nonuniform List<vector> 
7778
(
(-4.52627e-06 1.71747e-05 -0.00022037)
(-5.05614e-07 -6.10087e-06 -0.000119953)
(1.72011e-05 -4.53121e-06 -0.000220429)
(-6.08593e-06 -5.23635e-07 -0.000120005)
(4.50168e-06 1.71942e-05 -0.000220517)
(1.71499e-05 4.48382e-06 -0.000220472)
(-1.7159e-05 -4.57529e-06 -0.000220548)
(-1.71775e-05 4.54205e-06 -0.000220503)
(-4.4827e-06 -1.71684e-05 -0.000220406)
(-5.05156e-07 6.09937e-06 -0.000120053)
(4.47712e-06 -1.72038e-05 -0.00022038)
(9.1207e-06 4.50986e-05 -0.000188254)
(-1.88674e-05 7.32472e-07 -0.000274723)
(-6.07294e-06 7.82726e-06 -0.000222128)
(-2.76495e-05 3.52498e-05 -0.000216058)
(4.49813e-05 8.83197e-06 -0.000188137)
(7.50649e-07 -1.87794e-05 -0.00027471)
(7.84203e-06 -6.00423e-06 -0.000222128)
(3.52891e-05 -2.76131e-05 -0.000216048)
(1.86172e-05 7.53625e-07 -0.000273947)
(2.73697e-05 3.55663e-05 -0.000216016)
(5.60699e-06 8.04269e-06 -0.000222133)
(6.96379e-07 1.86249e-05 -0.00027414)
(3.54951e-05 2.74118e-05 -0.00021613)
(7.98349e-06 5.69125e-06 -0.000222288)
(-8.88534e-06 4.4981e-05 -0.000188254)
(-6.8612e-07 1.87612e-05 -0.00027461)
(-7.77664e-06 6.01269e-06 -0.000222034)
(-3.52006e-05 2.75979e-05 -0.000215888)
(4.5102e-05 -9.16362e-06 -0.000188301)
(-4.49911e-05 8.80922e-06 -0.000188057)
(-4.48686e-05 -8.5901e-06 -0.000187996)
(1.88873e-05 -6.70926e-07 -0.000274797)
(6.14337e-06 -7.72936e-06 -0.000222239)
(2.77166e-05 -3.51621e-05 -0.000216071)
(9.16031e-06 -4.50916e-05 -0.000188293)
(-8.87913e-06 -4.49751e-05 -0.000188166)
(-7.21631e-07 -1.8638e-05 -0.000274032)
(-3.55469e-05 -2.74215e-05 -0.000216098)
(-8.00465e-06 -5.62528e-06 -0.000222127)
(-1.87077e-05 -6.44932e-07 -0.000274126)
(-2.74505e-05 -3.54555e-05 -0.000216106)
(-5.78049e-06 -7.95475e-06 -0.000222249)
(-8.60682e-06 1.06448e-05 -0.00015418)
(-1.36768e-06 2.06385e-05 -0.000144859)
(1.06469e-05 -8.59966e-06 -0.000154223)
(8.61027e-06 1.06147e-05 -0.000154309)
(1.3686e-06 2.06449e-05 -0.000144981)
(1.05923e-05 8.59422e-06 -0.000154325)
(2.06404e-05 1.37293e-06 -0.000145008)
(-1.05983e-05 -8.56096e-06 -0.000154328)
(-1.55172e-05 1.01827e-05 -0.000158565)
(-1.06281e-05 8.5253e-06 -0.000154217)
(-8.59727e-06 -1.06106e-05 -0.000154247)
(1.01657e-05 -1.55251e-05 -0.000158481)
(8.54937e-06 -1.06445e-05 -0.000154148)
(5.08647e-07 -6.09678e-06 -0.000120094)
(-6.09625e-06 5.32145e-07 -0.000120151)
(1.01689e-05 1.54984e-05 -0.000158309)
(2.06493e-05 -1.37142e-06 -0.000144882)
(1.55089e-05 1.01537e-05 -0.000158348)
(1.55094e-05 -1.01625e-05 -0.000158512)
(6.09597e-06 -4.94472e-07 -0.000120158)
(-2.06512e-05 -1.34079e-06 -0.000145036)
(6.10857e-06 4.70398e-07 -0.000120045)
(-2.06417e-05 1.30647e-06 -0.000144875)
(-1.55e-05 -1.0204e-05 -0.000158349)
(-1.38085e-06 -2.06399e-05 -0.000144951)
(4.63211e-07 6.10925e-06 -0.000119936)
(1.32711e-06 -2.06263e-05 -0.000144847)
(2.76386e-06 1.73682e-05 -0.000160527)
(1.73619e-05 2.76919e-06 -0.000160602)
(-2.77086e-06 1.73558e-05 -0.000160624)
(-1.01792e-05 1.55089e-05 -0.000158481)
(1.73416e-05 -2.75323e-06 -0.000160684)
(-1.73278e-05 2.8e-06 -0.000160722)
(-1.73084e-05 -2.83638e-06 -0.000160683)
(2.7757e-06 -1.73584e-05 -0.000160578)
(-2.83664e-06 -1.73543e-05 -0.000160518)
(-1.02054e-05 -1.54979e-05 -0.000158327)
(-1.96407e-08 -7.41458e-09 -0.000110205)
(-1.96319e-08 3.95225e-09 -0.000103555)
(1.29402e-08 -2.24899e-09 -0.00010352)
(8.30782e-09 4.32303e-09 -0.000110181)
(-1.14296e-08 -2.35126e-09 -0.000110092)
(-2.82252e-09 5.63113e-09 -0.000103749)
(1.07636e-10 -5.75943e-10 -0.000103571)
(8.09573e-09 1.13176e-08 -0.000110404)
(8.88405e-09 1.4908e-08 -0.000110199)
(-2.20375e-08 3.8006e-09 -0.000103556)
(1.09765e-08 -7.55093e-10 -0.000103555)
(1.65134e-08 7.96181e-09 -0.000110191)
(-1.34356e-08 -6.78645e-09 -0.000110137)
(-3.57904e-09 5.3627e-09 -0.000103785)
(1.60083e-09 -9.37963e-10 -0.000103618)
(2.06449e-09 8.31563e-10 -0.000110429)
(-3.27622e-09 -1.33159e-09 -0.000110221)
(-1.26137e-08 2.61016e-09 -0.000103593)
(1.85627e-08 -3.76239e-09 -0.000103596)
(2.29841e-08 9.90773e-09 -0.000110232)
(-9.84589e-09 -2.21627e-09 -0.000110173)
(-5.74784e-10 7.75341e-09 -0.000103826)
(5.37307e-11 -4.92151e-10 -0.000103652)
(-2.3952e-09 -5.71534e-09 -0.000110455)
(-2.61326e-09 -5.81617e-09 -0.000110255)
(-1.51403e-08 2.04004e-09 -0.000103621)
(1.46308e-08 -2.35584e-09 -0.000103613)
(2.3215e-08 1.16665e-08 -0.000110249)
(-1.38541e-08 -5.39841e-09 -0.000110191)
(-2.44777e-09 2.92757e-09 -0.000103839)
(3.30471e-09 -6.54484e-09 -0.000103667)
(-1.99469e-10 -4.54193e-09 -0.000110459)
(-5.0296e-10 -2.10443e-10 -0.000110258)
(-1.03135e-08 1.50597e-09 -0.000103631)
(1.67264e-08 -2.71167e-09 -0.00010364)
(1.95208e-08 7.52636e-09 -0.000110253)
(-1.43796e-08 -4.90747e-09 -0.000110211)
(-7.69325e-10 2.33073e-09 -0.000103851)
(2.22566e-09 -4.24168e-09 -0.000103689)
(-5.8859e-09 -9.51136e-09 -0.000110454)
(-1.0004e-09 -2.78492e-09 -0.000110284)
(-1.2836e-08 -7.69527e-11 -0.000103626)
(1.61626e-08 -1.30767e-09 -0.000103655)
(1.74119e-08 8.78171e-09 -0.000110238)
(-9.07492e-09 -2.5489e-09 -0.000110221)
(-2.16914e-09 1.09017e-09 -0.000103839)
(3.66044e-09 -3.58436e-09 -0.000103698)
(1.01498e-09 1.80307e-09 -0.000110452)
(4.63553e-09 7.86522e-09 -0.000110315)
(-9.35138e-09 -1.30616e-09 -0.000103594)
(9.68664e-09 2.04557e-09 -0.000103689)
(1.82084e-08 8.33697e-09 -0.000110175)
(5.22464e-09 7.65284e-09 -0.000110264)
(-7.62576e-09 1.44352e-08 -0.000103793)
(4.39985e-09 -4.42466e-09 -0.000103722)
(-1.02281e-09 -3.27518e-09 -0.00011042)
(5.8416e-09 1.28356e-08 -0.000110367)
(-5.86238e-09 -5.97591e-09 -0.000103558)
(-2.19502e-08 1.59066e-08 -0.000103741)
(-8.02074e-09 -1.11967e-08 -0.00011008)
(2.15641e-08 1.69255e-08 -0.000110374)
(-1.25629e-08 1.70314e-08 -0.000103741)
(1.65077e-08 -2.65261e-08 -0.00010377)
(-1.88137e-08 -2.8686e-08 -0.000110301)
(1.973e-08 3.27246e-08 -0.000110464)
(4.55712e-08 -2.63024e-08 -0.000103528)
(-7.67123e-08 3.78941e-08 -0.000103764)
(-8.00593e-08 -5.55355e-08 -0.000109895)
(1.49234e-07 9.13657e-08 -0.000110622)
(-2.80172e-08 5.88946e-08 -0.000103688)
(4.2771e-08 -9.36161e-08 -0.000103781)
(-6.02762e-08 -9.4964e-08 -0.0001101)
(9.06914e-08 1.52441e-07 -0.000110705)
(2.27063e-07 -9.81042e-08 -0.00010378)
(-2.63663e-07 1.21731e-07 -0.000103746)
(-3.89485e-07 -2.29528e-07 -0.000109706)
(6.25764e-07 3.65968e-07 -0.000111364)
(-9.72583e-08 2.30141e-07 -0.000103909)
(1.28346e-07 -2.85345e-07 -0.000103776)
(-2.36241e-07 -4.06558e-07 -0.000109852)
(3.74479e-07 6.44167e-07 -0.000111452)
(7.72921e-07 -2.94344e-07 -0.000108226)
(-1.31526e-06 6.475e-07 -9.26635e-05)
(-1.6789e-06 -9.34332e-07 -0.000112677)
(2.43185e-06 8.9498e-07 -0.000106325)
(-2.78249e-07 7.17993e-07 -0.00010829)
(6.60671e-07 -1.35158e-06 -9.27131e-05)
(-9.08619e-07 -1.62643e-06 -0.000112821)
(8.91372e-07 2.4373e-06 -0.000106345)
(1.09651e-05 2.286e-05 -0.000112661)
(4.22447e-06 -2.55557e-06 -0.000121528)
(2.28837e-05 1.09909e-05 -0.000112693)
(-2.51259e-06 4.30843e-06 -0.000121506)
(1.79539e-08 -1.03061e-08 -0.000110029)
(-2.38929e-08 8.9557e-09 -0.000110149)
(-1.75692e-09 -1.4588e-09 -0.000110038)
(-4.09966e-09 6.63064e-09 -0.000110253)
(-1.0174e-08 -2.0765e-09 -0.0001037)
(9.11574e-09 2.97185e-09 -0.000103543)
(-2.42353e-08 6.82809e-09 -0.000103596)
(-1.17416e-08 2.40116e-09 -0.000103629)
(1.87347e-08 5.20895e-09 -0.000103685)
(-3.19988e-09 -4.82845e-09 -0.000110231)
(-2.80446e-08 -1.41295e-08 -0.000110112)
(2.13675e-08 9.15882e-09 -0.000110231)
(-1.09267e-10 -2.33673e-09 -0.000110192)
(1.39374e-10 1.36759e-09 -0.000110404)
(1.1813e-09 1.25395e-09 -0.000103564)
(-3.25775e-09 8.57439e-09 -0.00010376)
(9.06088e-09 1.61863e-08 -0.000103695)
(2.81867e-09 3.84355e-09 -0.00010389)
(-9.33844e-10 -7.01671e-09 -0.000103734)
(-4.90146e-10 6.58376e-09 -0.000103629)
(-2.46578e-09 -3.79711e-10 -0.000103691)
(-3.77558e-10 -5.89761e-11 -0.000103889)
(-6.85358e-09 1.00652e-08 -0.000103595)
(-1.64927e-09 2.71735e-09 -0.000103786)
(5.25897e-09 1.36328e-08 -0.000110195)
(-4.62154e-10 -1.1051e-09 -0.000110409)
(2.00023e-08 1.07435e-08 -0.000110133)
(-3.41293e-08 -1.41003e-08 -0.000110268)
(1.2098e-08 -9.75985e-10 -0.000103622)
(-2.69295e-08 -6.83935e-09 -0.000103685)
(-2.68347e-08 3.96859e-09 -0.00010361)
(1.02926e-08 -8.77876e-10 -0.000103663)
(-3.58041e-09 7.33857e-09 -0.000110114)
(-2.48743e-08 1.09905e-08 -0.000110166)
(-5.17829e-09 1.24334e-08 -0.00011008)
(-2.715e-09 5.90416e-09 -0.000110292)
(-3.45283e-08 1.89019e-08 -0.000110077)
(1.32518e-08 -3.2083e-09 -0.00011019)
(-1.46322e-08 6.33298e-09 -0.000110099)
(1.52127e-08 -5.62105e-09 -0.000110015)
(-1.61551e-09 5.15921e-09 -0.000110251)
(6.3771e-10 1.00673e-09 -0.000110052)
(1.08244e-08 -4.41004e-09 -0.000110036)
(-1.96398e-08 8.81323e-09 -0.000110089)
(1.59007e-10 -2.15137e-09 -0.000110071)
(-1.52347e-09 5.15585e-09 -0.00011026)
(1.68607e-08 4.37025e-09 -0.00010364)
(-1.42258e-08 -2.58078e-09 -0.000103598)
(1.24602e-08 2.64282e-10 -0.000103537)
(-1.78644e-08 5.58421e-09 -0.000103541)
(-2.41568e-08 -5.47137e-09 -0.00010361)
(1.22988e-08 2.66703e-09 -0.000103622)
(2.1402e-09 8.9568e-09 -0.000110406)
(2.82395e-09 8.04192e-09 -0.000110209)
(-1.5555e-08 -7.32779e-09 -0.000110107)
(2.42088e-08 1.15535e-08 -0.000110175)
(2.85367e-09 2.79086e-09 -0.000110217)
(4.32415e-09 1.09282e-08 -0.000110408)
(5.17524e-09 1.40264e-08 -0.000103877)
(7.65918e-09 1.97819e-08 -0.000103702)
(1.83703e-09 -6.99397e-10 -0.000103594)
(-7.1895e-10 4.72163e-09 -0.000103764)
(4.9524e-09 8.53565e-09 -0.000103729)
(6.07273e-09 1.16274e-08 -0.000103897)
(1.56763e-09 4.54509e-09 -0.000103876)
(9.09144e-10 4.10242e-09 -0.000103698)
(-2.52451e-09 6.17019e-09 -0.000103783)
(-2.76972e-09 4.87304e-09 -0.000103614)
(-1.84863e-09 6.97324e-10 -0.00010371)
(1.54774e-09 7.59479e-09 -0.000103885)
(-6.00856e-09 9.06123e-09 -0.000103636)
(-2.9229e-09 1.12631e-09 -0.000103805)
(-1.08165e-08 -4.43525e-09 -0.000110202)
(1.47803e-08 4.09743e-09 -0.000110132)
(3.40747e-09 9.20414e-09 -0.000110219)
(4.81401e-09 6.82747e-09 -0.000110404)
(1.841e-08 9.16766e-09 -0.000110158)
(-2.27915e-08 -1.08291e-08 -0.000110217)
(-1.65844e-08 -2.84685e-09 -0.000103636)
(1.95394e-08 4.80123e-09 -0.000103612)
(1.56716e-09 2.68201e-09 -0.000103624)
(-2.18523e-08 5.78692e-09 -0.000103594)
(2.39032e-08 4.765e-09 -0.000103632)
(-1.16439e-08 -2.67118e-09 -0.000103638)
(-1.98032e-08 2.84098e-09 -0.000103605)
(8.95411e-09 -1.5364e-09 -0.00010362)
(-6.57094e-09 8.35749e-09 -0.000110297)
(-1.40484e-09 1.0799e-09 -0.000110102)
(-5.8001e-09 4.76807e-09 -0.000110146)
(-2.14467e-08 7.72732e-09 -0.000110077)
(-4.84266e-09 1.03705e-08 -0.00011012)
(-4.39693e-09 6.35761e-09 -0.000110304)
(-2.17929e-08 1.03233e-08 -0.000110094)
(6.90572e-09 -1.9477e-09 -0.000110159)
(-2.17156e-08 1.08196e-08 -0.000110117)
(1.04304e-08 -4.65315e-09 -0.000110058)
(-1.28124e-09 5.89586e-09 -0.000110286)
(-3.24099e-10 -2.40288e-09 -0.000110096)
(1.53735e-08 -5.53003e-09 -0.000110079)
(-2.32957e-08 1.08791e-08 -0.000110137)
(2.17922e-09 -1.01479e-09 -0.000110123)
(-7.148e-10 2.20794e-09 -0.000110308)
(9.8398e-09 -3.75584e-10 -0.000103632)
(-1.45937e-08 -2.18474e-09 -0.000103637)
(1.65253e-08 -4.37259e-09 -0.000103568)
(-1.92323e-08 3.4822e-09 -0.000103574)
(-1.15611e-08 -2.69745e-09 -0.000103656)
(1.90009e-08 3.75646e-09 -0.00010366)
(4.22898e-09 1.0611e-08 -0.000110426)
(2.8328e-09 1.18372e-10 -0.000110232)
(-1.52185e-08 -5.16584e-09 -0.000110163)
(2.36886e-08 1.14137e-08 -0.000110222)
(-2.98027e-09 -2.72758e-09 -0.000110249)
(2.69677e-09 7.853e-09 -0.000110443)
(-7.22458e-10 2.28297e-10 -0.000103915)
(4.476e-10 1.01548e-09 -0.000103736)
(-8.1261e-10 -8.98376e-10 -0.00010363)
(-2.15473e-09 4.02924e-09 -0.000103804)
(-5.73626e-10 1.9177e-09 -0.000103749)
(-2.15775e-09 -5.5382e-09 -0.000103923)
(2.29125e-09 5.54172e-09 -0.000103894)
(-1.00476e-09 -4.92879e-10 -0.000103726)
(-2.89812e-09 7.11092e-09 -0.000103827)
(-4.66378e-09 8.77947e-09 -0.000103664)
(5.71726e-10 -4.30137e-10 -0.000103736)
(1.52954e-09 5.28199e-09 -0.000103913)
(-3.82562e-10 3.3811e-09 -0.00010368)
(-1.90025e-10 1.33739e-09 -0.000103853)
(-1.04311e-08 -3.47683e-09 -0.000110238)
(1.43782e-08 8.95258e-09 -0.000110179)
(-1.10716e-09 -3.77389e-09 -0.00011025)
(-5.07303e-09 -1.07784e-08 -0.000110429)
(1.23526e-08 2.53674e-09 -0.000110199)
(-2.4939e-08 -1.16021e-08 -0.000110264)
(-8.55089e-09 4.81498e-10 -0.000103651)
(2.0754e-08 5.47975e-09 -0.000103644)
(1.36469e-08 -1.31033e-09 -0.00010362)
(-1.61862e-08 2.13095e-09 -0.000103603)
(1.76071e-08 4.9116e-09 -0.000103654)
(-1.17956e-08 -1.61018e-09 -0.000103662)
(-1.43038e-08 4.14888e-09 -0.000103589)
(1.60375e-08 -3.4509e-09 -0.000103619)
(-6.04865e-09 7.38451e-09 -0.000110339)
(-3.50695e-09 1.15097e-08 -0.000110148)
(1.1435e-08 -4.87291e-09 -0.000110166)
(-1.55216e-08 8.47751e-09 -0.000110093)
(-3.40006e-09 3.94602e-09 -0.000110165)
(-3.58721e-09 5.24068e-09 -0.000110362)
(-1.23558e-08 3.99589e-09 -0.000110094)
(1.9416e-08 -9.07361e-09 -0.000110169)
(-1.64611e-08 7.57898e-09 -0.000110153)
(1.90095e-08 -8.31749e-09 -0.000110105)
(-1.52494e-09 5.32545e-09 -0.000110329)
(-7.69306e-11 -1.27833e-09 -0.000110143)
(1.64834e-08 -8.22791e-09 -0.000110116)
(-1.5534e-08 8.49034e-09 -0.00011018)
(5.69377e-10 -5.33095e-09 -0.000110152)
(1.13499e-09 3.48416e-09 -0.000110351)
(1.92027e-08 4.38164e-09 -0.000103677)
(-6.53279e-09 1.20442e-09 -0.000103671)
(1.7147e-08 -2.5132e-09 -0.00010361)
(-1.32771e-08 1.35678e-09 -0.000103615)
(-1.30169e-08 -3.63944e-10 -0.000103684)
(2.36749e-08 5.41432e-09 -0.000103695)
(2.05504e-09 4.81542e-09 -0.000110453)
(4.79438e-09 5.29406e-09 -0.000110267)
(-1.05232e-08 -4.91177e-09 -0.000110182)
(2.21133e-08 1.26031e-08 -0.000110259)
(7.50493e-10 -4.36022e-09 -0.000110271)
(3.57773e-09 1.03973e-08 -0.000110464)
(-1.20942e-09 -6.10456e-09 -0.000103941)
(6.47071e-12 -2.46894e-09 -0.00010376)
(2.34142e-09 -2.33261e-09 -0.000103662)
(-2.21403e-09 5.01415e-09 -0.000103839)
(1.66931e-09 -2.28118e-09 -0.000103767)
(-4.0355e-09 -8.48906e-09 -0.000103945)
(7.61047e-10 4.69196e-09 -0.000103928)
(2.68068e-10 9.6326e-10 -0.000103755)
(1.85366e-10 -4.25179e-09 -0.000103872)
(2.84166e-09 -4.71555e-09 -0.000103694)
(-4.30827e-09 -7.30158e-09 -0.000103761)
(2.52241e-09 3.36166e-09 -0.000103935)
(-2.3531e-09 2.27914e-09 -0.000103697)
(4.83304e-09 -7.4334e-09 -0.000103875)
(-2.13504e-08 -9.74259e-09 -0.000110271)
(4.77926e-09 9.49387e-10 -0.00011022)
(-2.91593e-09 -1.58261e-09 -0.000110259)
(-5.45508e-09 -1.53441e-08 -0.000110455)
(8.07721e-09 3.92549e-09 -0.000110227)
(-3.21961e-08 -1.69599e-08 -0.000110298)
(-1.48848e-08 -3.90813e-09 -0.000103681)
(9.5335e-09 1.22073e-10 -0.00010368)
(1.97109e-08 -5.8506e-09 -0.000103609)
(1.99574e-09 -3.16934e-09 -0.000103584)
(9.97086e-09 -7.42256e-10 -0.000103693)
(-2.46069e-08 -5.86938e-09 -0.000103697)
(-3.91298e-09 -3.02498e-09 -0.000103594)
(3.21462e-08 -7.61464e-09 -0.000103605)
(-2.27638e-09 6.73268e-10 -0.000110372)
(6.73852e-09 -8.75338e-09 -0.000110169)
(2.14604e-08 -9.57782e-09 -0.000110161)
(6.9109e-09 -5.29741e-09 -0.000110092)
(2.71647e-09 -4.47433e-10 -0.000110165)
(1.27135e-09 -5.84623e-09 -0.000110367)
(-9.04557e-10 -4.57978e-10 -0.00011009)
(3.14981e-08 -1.58968e-08 -0.000110169)
(-1.74051e-08 8.47687e-09 -0.000110186)
(1.51523e-08 -5.60431e-09 -0.000110124)
(7.03492e-10 8.77581e-10 -0.000110353)
(3.54979e-09 -6.918e-09 -0.000110162)
(1.45022e-08 -6.36283e-09 -0.000110138)
(-1.91461e-08 7.87036e-09 -0.000110183)
(4.10695e-09 -8.07967e-09 -0.000110176)
(1.53666e-09 -2.95054e-09 -0.000110355)
(1.93292e-08 4.19278e-09 -0.000103692)
(-1.36296e-08 -2.6479e-09 -0.000103685)
(1.75517e-08 -3.57279e-09 -0.000103625)
(-1.74296e-08 2.83388e-09 -0.000103622)
(-1.79969e-08 -3.83286e-09 -0.000103697)
(1.7635e-08 3.55056e-09 -0.000103697)
(5.54623e-11 2.13467e-09 -0.000110468)
(-3.19427e-09 -8.12778e-09 -0.000110266)
(-1.55309e-08 -6.71461e-09 -0.000110204)
(2.29725e-08 1.01467e-08 -0.000110254)
(-5.46774e-09 -1.04169e-08 -0.000110267)
(1.60458e-10 -6.65674e-10 -0.000110454)
(-2.69895e-09 -7.23653e-09 -0.00010394)
(-3.21002e-10 -7.49964e-10 -0.000103758)
(2.54388e-09 -6.71571e-09 -0.000103679)
(5.33882e-10 -3.06652e-09 -0.000103844)
(-3.8728e-09 -9.00672e-09 -0.000103766)
(-4.73946e-09 -9.25978e-09 -0.000103934)
(-1.27752e-09 -3.65289e-09 -0.000103936)
(-4.14067e-09 -8.95554e-09 -0.000103755)
(9.99625e-10 1.31223e-09 -0.000103873)
(-3.29978e-09 6.41689e-09 -0.000103697)
(-3.12132e-09 -8.70807e-09 -0.000103755)
(-2.10646e-10 -3.07959e-09 -0.000103929)
(-2.9346e-09 4.31553e-09 -0.000103702)
(6.84827e-10 -1.20352e-11 -0.000103873)
(-2.03236e-08 -9.51853e-09 -0.000110293)
(1.23079e-08 3.94639e-09 -0.000110238)
(-3.88959e-09 -4.93336e-09 -0.000110271)
(-5.13714e-09 -1.02185e-08 -0.000110446)
(1.93708e-08 7.86852e-09 -0.000110242)
(-2.36643e-08 -1.02199e-08 -0.000110303)
(-2.10055e-08 -5.30873e-09 -0.000103704)
(1.4459e-08 2.00751e-09 -0.000103701)
(2.62603e-08 -6.30241e-09 -0.000103604)
(-1.1278e-08 1.03169e-09 -0.000103597)
(1.46113e-08 2.39518e-09 -0.000103702)
(-1.87106e-08 -4.37692e-09 -0.000103712)
(-1.16339e-08 3.94884e-10 -0.0001036)
(1.89641e-08 -4.66813e-09 -0.000103608)
(-5.08978e-10 -1.94244e-09 -0.00011037)
(-1.06807e-09 4.33364e-09 -0.000110172)
(3.09407e-08 -1.50069e-08 -0.000110153)
(-8.55005e-09 2.96578e-09 -0.000110085)
(-2.53106e-09 5.37935e-09 -0.000110175)
(4.9432e-10 -1.21449e-09 -0.000110365)
(-1.00224e-08 3.35259e-09 -0.000110092)
(2.4688e-08 -1.07031e-08 -0.000110143)
(-1.81267e-08 7.42467e-09 -0.000110189)
(1.42128e-08 -4.77081e-09 -0.000110157)
(6.43192e-10 -1.06486e-09 -0.000110358)
(3.76882e-09 -6.05495e-09 -0.000110186)
(1.02367e-08 -3.87099e-09 -0.000110168)
(-1.76091e-08 7.60271e-09 -0.000110194)
(1.47343e-09 -2.80807e-09 -0.000110199)
(-1.14243e-09 3.08349e-09 -0.000110358)
(1.0167e-08 4.83164e-10 -0.000103698)
(-1.64481e-08 -3.17159e-09 -0.000103703)
(1.73943e-08 -1.539e-09 -0.000103652)
(-1.25648e-08 2.79053e-09 -0.000103637)
(-1.537e-08 6.80332e-10 -0.000103716)
(1.15505e-08 2.28408e-09 -0.000103704)
(-7.97658e-10 -1.02646e-09 -0.000110451)
(-2.34337e-09 -4.63011e-09 -0.000110272)
(-1.53915e-08 -5.89896e-09 -0.000110221)
(1.60467e-08 6.82523e-09 -0.00011026)
(-3.84996e-09 -8.87622e-09 -0.000110269)
(-9.43661e-12 7.7953e-10 -0.000110428)
(-6.85591e-09 -1.55669e-08 -0.000103937)
(-3.50436e-10 -1.42803e-09 -0.000103773)
(4.98778e-09 -5.71072e-09 -0.000103699)
(-1.14021e-09 2.69369e-09 -0.000103851)
(3.88388e-09 5.33689e-09 -0.000103787)
(-2.28178e-09 -7.34594e-09 -0.000103936)
(-2.02579e-09 -2.40739e-09 -0.000103929)
(-1.87536e-09 -5.21044e-09 -0.000103757)
(3.52821e-10 -2.22159e-09 -0.000103874)
(-1.72125e-11 2.69235e-09 -0.000103704)
(-4.05642e-09 -4.1701e-09 -0.000103757)
(8.06128e-10 3.1231e-10 -0.00010391)
(-3.17092e-09 5.00589e-09 -0.000103704)
(4.90723e-10 -2.15547e-09 -0.000103861)
(-1.18197e-08 -3.63695e-09 -0.000110287)
(1.21863e-08 4.65383e-09 -0.000110239)
(3.83459e-09 7.66419e-09 -0.000110304)
(-5.79779e-09 -1.01532e-08 -0.000110449)
(1.08955e-08 4.6724e-09 -0.000110243)
(-2.54427e-08 -1.185e-08 -0.000110282)
(-1.47705e-08 -4.09406e-09 -0.000103704)
(1.46634e-08 2.95491e-09 -0.000103697)
(2.11493e-08 -5.76663e-09 -0.000103602)
(-2.94381e-09 -2.00017e-09 -0.000103597)
(1.39255e-08 9.5563e-10 -0.000103701)
(-1.56757e-08 -2.79611e-09 -0.000103691)
(-1.36423e-08 -4.43639e-10 -0.000103602)
(2.37922e-08 -5.89339e-09 -0.000103596)
(-1.26443e-09 2.03862e-09 -0.000110358)
(1.57886e-09 -2.4769e-09 -0.000110176)
(2.04791e-08 -8.95575e-09 -0.000110139)
(-1.90746e-09 -1.45422e-09 -0.000110094)
(-1.55213e-09 1.78784e-09 -0.000110175)
(1.5292e-10 -6.29218e-10 -0.000110335)
(-1.09536e-08 3.77497e-09 -0.000110101)
(1.97621e-08 -8.89665e-09 -0.000110139)
(-1.88686e-08 7.18607e-09 -0.000110183)
(1.18723e-08 -3.91121e-09 -0.000110177)
(-3.50359e-09 7.33951e-09 -0.000110348)
(2.2591e-09 -2.10877e-09 -0.000110203)
(1.01198e-08 -3.85251e-09 -0.0001102)
(-1.34082e-08 5.24616e-09 -0.000110164)
(1.30489e-09 -4.83438e-09 -0.000110209)
(-4.77519e-09 9.97234e-09 -0.000110315)
(1.62124e-08 2.43014e-09 -0.000103688)
(-1.08397e-08 8.57379e-10 -0.000103712)
(1.27882e-08 5.36389e-10 -0.000103668)
(-1.01413e-08 -2.99379e-11 -0.000103613)
(-4.3822e-09 4.18452e-09 -0.000103721)
(1.70383e-08 2.29634e-09 -0.000103669)
(1.93005e-09 5.89457e-09 -0.00011042)
(-1.91056e-09 -3.52025e-09 -0.000110285)
(-4.87923e-09 -9.21417e-10 -0.000110236)
(1.96716e-08 8.51977e-09 -0.000110209)
(-7.38968e-09 -1.34728e-08 -0.000110304)
(6.07069e-09 1.03761e-08 -0.0001104)
(-1.81034e-09 -1.01684e-09 -0.00010393)
(5.60269e-09 8.90852e-09 -0.000103796)
(2.48547e-09 1.88591e-10 -0.000103703)
(-4.13887e-09 7.60149e-09 -0.000103816)
(6.93306e-09 1.10749e-08 -0.000103822)
(-1.49645e-09 -7.88586e-10 -0.000103922)
(2.39191e-09 4.46476e-09 -0.000103901)
(-3.00289e-09 -1.08491e-09 -0.000103767)
(4.08816e-10 -1.68277e-10 -0.000103852)
(-5.13151e-09 7.06754e-09 -0.000103715)
(-5.64314e-09 -7.36691e-09 -0.00010378)
(4.32984e-09 9.64218e-09 -0.00010389)
(-7.3368e-09 9.3286e-09 -0.000103731)
(3.53765e-09 -3.84318e-09 -0.000103836)
(-1.47416e-08 -5.4533e-09 -0.000110263)
(1.17987e-08 4.04172e-09 -0.000110264)
(5.24973e-09 1.22503e-08 -0.000110348)
(-3.52621e-09 -6.76445e-09 -0.000110432)
(3.68819e-09 -1.4175e-09 -0.000110278)
(-2.02693e-08 -7.60673e-09 -0.000110256)
(-1.66158e-08 -2.48149e-09 -0.000103681)
(8.30826e-09 -1.64845e-09 -0.000103716)
(1.2724e-08 -7.85949e-10 -0.000103579)
(-1.72654e-08 2.66649e-09 -0.000103607)
(4.60732e-09 -3.62184e-09 -0.000103722)
(-2.08298e-08 -4.27691e-09 -0.000103675)
(-1.12283e-08 1.34655e-10 -0.00010363)
(9.717e-09 8.36582e-10 -0.000103567)
(2.46696e-09 -5.34678e-09 -0.000110327)
(-1.89499e-09 3.81001e-09 -0.00011019)
(1.61605e-08 -6.54373e-09 -0.000110114)
(-1.18502e-08 4.08079e-09 -0.000110107)
(-3.56952e-09 8.19488e-09 -0.000110207)
(4.42847e-09 -9.13103e-09 -0.000110307)
(-5.27674e-09 5.62209e-10 -0.000110136)
(1.53726e-08 -5.7625e-09 -0.000110094)
(-8.93842e-09 2.17993e-09 -0.000110139)
(7.6436e-09 5.59736e-11 -0.00011024)
(-7.89029e-09 1.47222e-08 -0.000110281)
(4.44834e-09 -5.89265e-09 -0.000110244)
(-1.04901e-08 9.07257e-09 -0.000110295)
(-1.5173e-09 -2.7417e-09 -0.000110111)
(1.0878e-08 -2.00581e-08 -0.000110296)
(-1.35953e-08 2.29297e-08 -0.000110245)
(2.0276e-08 3.25107e-09 -0.000103648)
(2.69618e-09 5.71468e-09 -0.000103733)
(-4.81265e-09 8.68105e-09 -0.000103716)
(-5.57627e-09 -2.93503e-09 -0.000103583)
(-1.90808e-10 4.71339e-09 -0.000103757)
(1.23231e-08 3.18505e-10 -0.000103635)
(2.71619e-09 6.65321e-09 -0.000110377)
(-8.11122e-09 -1.65937e-08 -0.000110346)
(4.44081e-09 6.66796e-09 -0.000110313)
(1.10926e-08 2.69619e-09 -0.000110146)
(-1.46289e-08 -2.89296e-08 -0.000110382)
(7.43742e-09 1.21071e-08 -0.000110335)
(-3.29947e-09 -3.43496e-09 -0.000103914)
(6.05043e-09 1.19641e-08 -0.000103834)
(1.033e-08 -1.69087e-08 -0.000103746)
(-8.85581e-09 1.47098e-08 -0.000103774)
(8.39663e-09 1.30891e-08 -0.000103856)
(-7.63188e-09 -1.03284e-08 -0.000103886)
(3.39591e-09 4.76045e-09 -0.000103875)
(-7.14415e-09 -1.19804e-08 -0.000103809)
(4.00116e-09 -4.9354e-09 -0.000103821)
(-4.47796e-09 4.64766e-09 -0.000103741)
(-1.1299e-08 -2.01043e-08 -0.000103829)
(6.49026e-09 8.06606e-09 -0.000103857)
(-1.03633e-08 1.68826e-08 -0.000103754)
(9.81743e-09 -1.56098e-08 -0.000103788)
(-1.5195e-08 -5.4258e-09 -0.000110215)
(-1.87906e-09 -3.5279e-09 -0.000110307)
(1.07335e-08 1.9936e-08 -0.000110408)
(-1.31631e-08 -2.06403e-08 -0.000110362)
(-1.26502e-08 -8.73983e-09 -0.000110348)
(-1.41057e-08 -3.12909e-09 -0.000110187)
(-1.84138e-08 -2.86193e-09 -0.00010365)
(3.60366e-09 -2.54706e-09 -0.000103736)
(1.35249e-08 -1.03713e-09 -0.000103565)
(1.02422e-10 -4.11082e-09 -0.000103654)
(-6.05881e-09 -8.37021e-09 -0.000103756)
(-1.25722e-08 1.52149e-10 -0.000103636)
(5.26747e-10 -6.53656e-09 -0.000103682)
(8.89243e-09 1.80338e-09 -0.000103557)
(2.67061e-09 -7.33301e-09 -0.000110282)
(-1.65269e-09 4.39067e-09 -0.000110235)
(1.31828e-08 -4.5065e-09 -0.000110079)
(1.07934e-08 -1.08342e-08 -0.000110184)
(-9.20404e-09 1.77745e-08 -0.000110269)
(1.07501e-08 -1.95887e-08 -0.000110227)
(1.06017e-08 -8.30512e-09 -0.000110233)
(8.34732e-09 -9.55919e-10 -0.000110062)
(1.93898e-09 -7.68147e-09 -0.00011006)
(-3.0905e-08 2.61019e-08 -0.000110375)
(-2.10642e-08 3.20537e-08 -0.000110188)
(2.51836e-08 -3.56533e-08 -0.000110367)
(-6.80586e-08 4.60654e-08 -0.000110473)
(2.62358e-08 -2.00664e-08 -0.000109988)
(4.83988e-08 -7.67552e-08 -0.000110467)
(-3.33014e-08 5.45574e-08 -0.000110102)
(-1.16793e-09 -7.50636e-09 -0.000103605)
(8.65842e-09 8.5459e-09 -0.000103775)
(-3.90439e-08 2.25484e-08 -0.000103762)
(7.89428e-09 -1.06198e-08 -0.000103537)
(2.94093e-08 1.83824e-08 -0.000103795)
(-1.90095e-08 -1.61696e-08 -0.000103576)
(1.70546e-08 2.8075e-08 -0.000110273)
(-2.40636e-08 -4.07499e-08 -0.000110451)
(5.71955e-08 3.8349e-08 -0.000110473)
(-3.35238e-08 -2.79552e-08 -0.000109997)
(-5.04409e-08 -8.17415e-08 -0.000110557)
(3.54439e-08 5.68262e-08 -0.000110188)
(-1.31918e-08 -1.98693e-08 -0.000103852)
(1.28898e-08 2.22776e-08 -0.000103873)
(2.62419e-08 -5.16815e-08 -0.000103788)
(-1.64846e-08 3.2744e-08 -0.000103712)
(2.4967e-08 4.79866e-08 -0.000103899)
(-2.0536e-08 -3.57063e-08 -0.000103816)
(1.05673e-08 1.74551e-08 -0.000103829)
(-1.52024e-08 -3.01025e-08 -0.000103854)
(1.11202e-08 -1.72433e-08 -0.000103756)
(-1.46789e-08 2.81175e-08 -0.000103781)
(-2.402e-08 -5.25571e-08 -0.000103874)
(1.74438e-08 3.50915e-08 -0.000103801)
(-2.58161e-08 5.3441e-08 -0.000103794)
(1.91327e-08 -3.40345e-08 -0.000103724)
(3.26587e-09 6.94397e-09 -0.000110124)
(-3.81087e-08 -2.50268e-08 -0.000110418)
(4.56705e-08 7.50602e-08 -0.00011057)
(-3.87691e-08 -6.08986e-08 -0.000110203)
(-7.16111e-08 -4.76139e-08 -0.000110517)
(1.37565e-08 1.445e-08 -0.000110055)
(-6.23486e-09 3.14281e-09 -0.000103605)
(-1.92257e-08 -1.50034e-08 -0.000103777)
(-2.67843e-09 8.63403e-09 -0.000103528)
(9.61794e-09 -9.84504e-09 -0.0001037)
(-4.18644e-08 -2.45911e-08 -0.000103798)
(5.78939e-09 9.59172e-09 -0.000103579)
(3.90754e-08 -2.3561e-08 -0.000103719)
(-1.71082e-08 1.47428e-08 -0.000103499)
(2.03535e-08 -3.24709e-08 -0.000110168)
(-2.30439e-08 3.62403e-08 -0.000110343)
(-6.50639e-09 9.80852e-09 -0.000109998)
(2.67535e-08 -1.98099e-08 -0.000110296)
(-4.95298e-08 8.29055e-08 -0.000110437)
(3.52892e-08 -5.52533e-08 -0.000110077)
(6.66902e-08 -4.40575e-08 -0.000110398)
(-3.06119e-08 2.41204e-08 -0.000109915)
(7.58769e-08 -5.14437e-08 -0.000109882)
(-1.41778e-07 8.84995e-08 -0.000110615)
(-5.95491e-08 9.67119e-08 -0.000109985)
(9.60429e-08 -1.59225e-07 -0.000110605)
(-2.96717e-07 1.77435e-07 -0.000110851)
(1.82203e-07 -1.13052e-07 -0.00010975)
(1.85686e-07 -3.16607e-07 -0.000110843)
(-1.15717e-07 1.92681e-07 -0.000109835)
(-5.12625e-08 -2.94944e-08 -0.000103567)
(8.2246e-08 4.30466e-08 -0.000103799)
(-1.44e-07 6.57038e-08 -0.000103735)
(1.08282e-07 -5.52335e-08 -0.000103569)
(1.51573e-07 6.85664e-08 -0.000103771)
(-9.98471e-08 -4.88029e-08 -0.000103625)
(6.34368e-08 1.00739e-07 -0.000110078)
(-9.09054e-08 -1.52732e-07 -0.000110711)
(3.03863e-07 1.79261e-07 -0.000110858)
(-1.73282e-07 -1.07326e-07 -0.000109799)
(-1.88242e-07 -3.22213e-07 -0.000110964)
(1.20916e-07 2.01133e-07 -0.000109939)
(-3.06169e-08 -5.9317e-08 -0.000103802)
(4.52006e-08 9.21632e-08 -0.000103896)
(7.15903e-08 -1.62151e-07 -0.000103753)
(-5.39935e-08 1.16243e-07 -0.000103706)
(7.06981e-08 1.63618e-07 -0.000103858)
(-5.32566e-08 -1.1508e-07 -0.000103829)
(2.94105e-08 6.30415e-08 -0.000103786)
(-4.22942e-08 -8.79932e-08 -0.000103886)
(3.22446e-08 -6.253e-08 -0.000103702)
(-4.24352e-08 8.87681e-08 -0.000103806)
(-7.52566e-08 -1.71634e-07 -0.000103861)
(5.58004e-08 1.23646e-07 -0.000103818)
(-7.49448e-08 1.67475e-07 -0.00010378)
(5.70445e-08 -1.23517e-07 -0.000103739)
(7.12123e-08 4.91069e-08 -0.000109955)
(-1.49135e-07 -9.28864e-08 -0.000110668)
(1.82436e-07 3.13991e-07 -0.000110941)
(-1.19194e-07 -1.99221e-07 -0.000109952)
(-3.01178e-07 -1.80707e-07 -0.000110889)
(1.66812e-07 1.0326e-07 -0.000109853)
(3.53585e-08 2.17067e-08 -0.000103583)
(-8.20848e-08 -4.39737e-08 -0.000103811)
(-4.12692e-08 2.57229e-08 -0.000103491)
(8.95307e-08 -4.77086e-08 -0.000103728)
(-1.5096e-07 -7.03842e-08 -0.000103771)
(9.28044e-08 4.50899e-08 -0.000103636)
(1.60945e-07 -7.73576e-08 -0.000103706)
(-9.31336e-08 4.78533e-08 -0.000103542)
(5.99076e-08 -9.61021e-08 -0.00010996)
(-8.95317e-08 1.49504e-07 -0.000110591)
(-7.92824e-08 5.28448e-08 -0.000109816)
(1.60214e-07 -9.86706e-08 -0.000110551)
(-1.85398e-07 3.18118e-07 -0.000110837)
(1.20369e-07 -2.01483e-07 -0.000109819)
(3.12961e-07 -1.84235e-07 -0.000110799)
(-1.71443e-07 1.06512e-07 -0.000109711)
(4.02037e-07 -2.33494e-07 -0.000109654)
(-6.24591e-07 3.68095e-07 -0.000111378)
(-2.37108e-07 4.09136e-07 -0.000109729)
(3.8038e-07 -6.53583e-07 -0.000111388)
(-1.24199e-06 7.59626e-07 -0.000112642)
(8.70178e-07 -4.86103e-07 -0.00010988)
(7.70571e-07 -1.2575e-06 -0.000112692)
(-4.835e-07 8.69554e-07 -0.000109943)
(-2.12445e-07 -9.34494e-08 -0.000103835)
(2.69035e-07 1.24501e-07 -0.000103771)
(-4.16385e-07 2.27917e-07 -0.000104011)
(4.43913e-07 -1.74055e-07 -0.000104549)