/*--------------------------------*- C++ -*----------------------------------*\
| =========                 |                                                 |
| \\      /  F ield         | OpenFOAM: The Open Source CFD Toolbox           |
|  \\    /   O peration     | Version:  2206                                  |
|   \\  /    A nd           | Website:  www.openfoam.com                      |
|    \\/     M anipulation  |                                                 |
\*---------------------------------------------------------------------------*/
FoamFile
{
    version     2.0;
    format      ascii;
    arch        "LSB;label=32;scalar=64";
    class       volScalarField;
    location    "0.3";
    object      omega;
}
// * * * * * * * * * * * * * * * * * * * * * * * * * * * * * * * * * * * * * //

dimensions      [0 0 -1 0 0 0 0];

internalField   nonuniform List<scalar> 
66616
(
21.2014
21.4624
21.4622
21.654
20.3106
21.1609
21.0662
21.8265
20.1262
20.6054
20.5647
21.4057
20.1027
20.3514
20.321
20.9062
20.1021
20.3439
20.3125
20.8836
20.1014
20.3389
20.3077
20.8703
20.1012
20.3368
20.3054
20.8622
20.1013
20.337
20.3058
20.8608
20.1014
20.3384
20.307
20.8617
20.1015
20.3386
20.3074
20.8624
20.1015
20.339
20.3074
20.8623
20.1014
20.3388
20.2992
20.8639
21.8529
21.4855
21.4851
21.8529
21.4882
21.4845
21.4208
21.4205
21.4205
21.4204
21.4887
21.4852
21.8526
21.489
21.4884
21.8544
21.6474
21.692
21.4718
21.472
21.0244
21.0227
21.6471
21.6929
21.4628
21.4719
21.1246
21.1135
21.4715
21.1273
21.1157
21.6471
21.6944
21.4628
21.0381
21.0358
21.6957
21.8241
21.6162
21.0549
21.0511
20.7845
20.7825
21.8238
21.6154
21.1582
21.1472
20.844
20.8346
21.15
20.8409
20.8373
21.826
21.6088
21.0626
20.788
20.7852
21.6088
21.3994
20.928
20.5624
20.5609
20.3345
20.3333
21.4014
20.9319
20.6032
20.5993
20.3597
20.3622
20.6016
20.3621
20.3636
21.3934
20.9282
20.5598
20.3317
20.3287
20.9272
20.9045
20.8981
20.3253
20.3237
20.3176
20.3168
20.9073
20.9027
20.3504
20.3534
20.3432
20.3462
20.3547
20.3453
20.3474
20.9047
20.8985
20.3196
20.3143
20.3119
20.8962
20.8842
20.8842
20.3174
20.3166
20.3126
20.3115
20.8893
20.8874
20.3431
20.346
20.3384
20.3413
20.3472
20.3405
20.3425
20.8844
20.8838
20.3118
20.3091
20.3069
20.8821
20.8709
20.8756
20.3126
20.3109
20.3094
20.3088
20.8733
20.8799
20.3385
20.3412
20.3353
20.3381
20.3425
20.337
20.3394
20.8705
20.8753
20.3069
20.3059
20.3038
20.873
20.8632
20.8736
20.3102
20.3094
20.3092
20.3082
20.8682
20.8767
20.3362
20.339
20.3351
20.3379
20.3402
20.3371
20.3392
20.8628
20.8732
20.3045
20.3057
20.3037
20.871
20.8618
20.8746
20.3106
20.3089
20.3104
20.3098
20.8641
20.8787
20.3366
20.3393
20.3364
20.3391
20.3407
20.338
20.3404
20.8613
20.8742
20.3049
20.3069
20.3048
20.872
20.8628
20.8751
20.3116
20.3108
20.311
20.3098
20.8677
20.8783
20.3379
20.3405
20.3369
20.3398
20.3417
20.3389
20.341
20.8624
20.8748
20.3059
20.3074
20.3054
20.8725
20.8634
20.8748
20.3118
20.3104
20.3109
20.3104
20.8658
20.8792
20.3381
20.3409
20.3369
20.3397
20.3421
20.3387
20.3409
20.8629
20.8746
20.3064
20.3074
20.3055
20.8724
20.8633
20.8748
20.3117
20.3113
20.311
20.3101
20.8684
20.8775
20.3382
20.3408
20.3367
20.3395
20.3421
20.3387
20.3408
20.8631
20.8743
20.3064
20.3078
20.3055
20.8725
20.8638
20.3046
20.3029
20.8655
20.3375
20.3406
20.3416
20.8635
20.2986
21.7533
21.8099
21.7779
21.7778
23.8586
21.8918
75.3999
21.7983
23.8594
21.8923
21.7983
75.4831
22.128
169.253
169.715
88.8039
626.097
81.4664
434.877
539.64
559.764
88.7859
625.933
81.4255
434.792
21.2023
21.2022
21.2022
20.4483
20.4487
20.4486
20.4486
28.9983
114.026
21.2511
21.2007
27.0764
108.561
20.9701
539.564
559.709
29.0081
21.2521
114.069
21.2244
27.0807
20.9667
108.583
202.595
202.672
21.4298
192.058
192.274
96.8724
326.4
97.9504
293.318
430.921
406.676
100.508
328.863
101.658
295.84
20.3101
20.3101
20.3101
20.1515
20.1509
20.1509
20.1507
36.1354
111.781
20.434
21.1546
34.6267
105.289
20.392
432.895
408.694
34.6446
20.3829
109.114
21.0623
33.3363
20.3371
102.651
181.19
179.443
22.0363
163.615
161.97
69.3454
251.565
76.4331
243.523
385.64
382.767
72.3626
254.173
79.1854
246.426
20.1272
20.1272
20.127
20.1035
20.1034
20.1034
20.1033
28.6777
72.7426
20.2251
20.461
31.0019
64.5127
20.1868
387.593
384.845
27.8056
20.1989
71.0249
20.4271
30.1533
20.1675
62.6034
129.944
128.255
21.0649
122.144
120.201
66.4023
241.446
66.7144
241.158
383.048
383.257
69.4195
244.473
69.4738
244.261
20.1048
20.1048
20.1048
20.1023
20.1026
20.1025
20.1025
27.6516
61.5903
20.1547
20.3486
27.6137
61.5126
20.1558
385.144
385.405
26.8429
20.14
59.7827
20.3182
26.8895
20.1411
59.5668
119.489
117.54
20.9049
119.283
117.203
65.9105
241.412
66.0543
241.322
384.255
384.578
69.1212
244.417
68.9969
244.357
20.1042
20.1042
20.1041
20.1016
20.102
20.102
20.1019
27.618
61.2324
20.1532
20.3437
27.5487
61.2245
20.1547
386.347
386.644
26.7754
20.1386
59.3347
20.3122
26.7913
20.14
59.2281
119.126
116.988
20.8894
119.006
116.819
65.8584
241.666
65.9035
241.569
385.274
385.308
69.0538
244.72
68.8447
244.621
20.1036
20.1037
20.1036
20.1013
20.1017
20.1017
20.1016
27.5909
61.0763
20.1521
20.3386
27.5043
61.1166
20.1538
387.319
387.321
26.737
20.1374
59.1548
20.3078
26.7421
20.1391
59.1152
119.052
116.902
20.8779
118.969
116.759
65.8301
241.835
65.8951
241.659
385.604
385.469
69.0566
244.866
68.8417
244.695
20.1034
20.1034
20.1034
20.1013
20.1017
20.1017
20.1016
27.5968
61.059
20.1519
20.3379
27.4974
61.1297
20.1539
387.631
387.455
26.7383
20.1372
59.1422
20.3064
26.7286
20.1392
59.1149
119.053
116.888
20.8726
118.98
116.758
65.8718
241.82
65.8892
241.606
385.617
385.423
69.0379
244.884
68.8286
244.673
20.1035
20.1035
20.1034
20.1015
20.1018
20.1019
20.1017
27.6077
61.0592
20.1524
20.3378
27.509
61.1161
20.1546
387.622
387.415
26.7557
20.1376
59.1303
20.307
26.7479
20.1398
59.1114
119.052
116.89
20.8729
118.973
116.758
65.8656
241.838
65.8881
241.628
385.58
385.447
69.0266
244.84
68.811
244.652
20.1036
20.1037
20.1035
20.1016
20.1019
20.1019
20.1018
27.612
61.0522
20.153
20.3398
27.5171
61.1191
20.1551
387.59
387.411
26.7599
20.1384
59.1331
20.308
26.755
20.1403
59.1076
119.043
116.876
20.8737
118.975
116.74
65.865
241.789
65.8823
241.597
385.584
385.416
69.025
244.831
68.8069
244.655
20.1037
20.1037
20.1036
20.1016
20.102
20.102
20.1019
27.6116
61.0492
20.1534
20.3389
27.5176
61.1087
20.1551
387.596
387.434
26.7591
20.1385
59.1198
20.3081
26.755
20.1403
59.1049
119.042
116.875
20.8739
118.97
116.748
65.8622
241.782
65.8794
241.633
385.564
385.444
69.0248
244.819
68.8061
244.667
20.1037
20.1037
20.1037
20.1017
20.102
20.102
20.1019
27.6112
61.0496
20.1535
20.34
27.5177
61.1186
20.1553
387.588
387.465
26.7577
20.1385
59.1382
20.3081
26.755
20.1403
59.1116
119.03
116.873
20.8737
118.97
116.75
68.1956
241.793
65.9308
243.054
385.547
386.525
244.801
68.8917
20.1036
20.1036
20.1035
27.5951
61.0473
20.1535
20.352
27.5192
61.052
20.1603
387.583
27.5064
20.1341
59.1253
26.7093
20.1573
119.035
116.877
20.8691
118.912
117.386
22.1282
168.544
168.933
1177.97
494.461
1178.16
494.868
22.1415
264.59
264.94
171.719
172.015
23.8611
21.8917
75.2041
21.7983
23.8591
21.8919
75.3334
21.7985
39.9816
1575.23
355.784
89.8167
39.945
1575.27
355.889
89.806
25.4384
21.8332
204.663
21.5266
81.4958
21.7362
27.2238
25.4367
21.8331
204.709
21.5267
81.5786
21.7365
27.2216
22.1282
169.191
169.297
1178.08
495.001
22.1415
264.833
264.777
171.578
172.364
1178.2
495.46
23.8591
21.8921
75.269
21.7987
23.8584
21.8912
21.7994
75.3741
39.9664
1575.13
355.906
89.8065
25.4372
21.8321
204.774
21.5271
81.5592
21.7366
27.2234
39.9363
1575.24
356.069
89.8036
25.438
21.8325
21.5272
204.792
21.7373
81.6154
27.2236
21.754
21.81
21.7789
21.7779
21.7539
21.8099
21.7781
21.7778
21.7543
21.81
21.7781
21.7788
21.6655
21.722
21.4099
21.4097
21.6912
21.691
21.3862
21.6662
21.722
21.4098
21.4099
21.6918
21.6912
21.3864
21.6661
21.722
21.4095
21.4098
21.6912
21.691
21.3865
21.6664
21.7218
21.4093
21.4102
21.6911
21.6918
21.3865
23.857
21.8916
21.7994
75.3749
25.443
21.8315
204.84
21.5276
81.7011
21.7363
27.2312
40.0016
1575.18
356.254
89.8318
25.4405
21.8333
21.527
204.754
21.7373
81.6734
27.2282
39.9552
1575.17
356.255
89.8061
22.1281
169.29
169.411
1178.27
495.102
22.1414
264.917
264.739
171.654
172.434
1178.11
495.752
23.8579
21.8922
21.7994
75.5808
25.441
21.8319
21.5274
204.842
21.7362
81.7809
27.2276
25.4384
21.8324
21.5268
204.818
21.7372
81.8763
27.2238
39.996
1575.35
356.64
89.8095
39.934
1575.29
357.076
89.7665
22.1412
264.743
265.02
171.637
171.996
1178.25
495.066
1178.19
495.811
539.682
559.685
539.595
559.721
202.387
202.506
21.4303
192.042
192.237
443.249
526.247
444.77
526.306
21.4228
183.131
185.501
191.012
191.308
88.8291
626.178
81.1862
434.892
29.0127
113.831
21.2527
21.227
27.0138
108.609
20.9667
29.0099
113.858
21.2532
21.2274
27.012
108.621
20.9666
92.681
339.523
405.523
97.9438
92.6961
339.526
405.427
97.9341
30.1174
21.0605
109.474
20.4935
109.335
20.694
32.7928
30.1175
21.0596
109.461
20.4936
109.338
20.6944
32.7884
202.554
202.45
21.4305
192.285
192.074
539.645
559.709
443.325
526.315
21.4231
183.26
185.378
191.249
191.152
444.675
526.253
29
113.841
21.2519
21.2009
27.0062
108.604
20.9693
88.8141
626.021
81.1536
434.795
28.9986
21.2529
113.85
21.2025
27.007
20.9696
108.623
92.5981
342.181
405.518
100.603
30.0838
21.0892
112.253
20.5202
109.468
20.6859
33.7062
92.6191
342.183
405.419
100.632
30.085
21.0778
20.5239
112.276
20.6877
109.481
33.714
88.8388
626.055
81.1888
434.808
29.0028
21.2526
113.857
21.2021
27.0037
20.9694
108.615
88.8172
626.01
81.1722
434.794
30.087
21.0904
112.273
20.5198
109.441
20.6848
33.7213
92.6397
342.172
405.415
100.626
30.0806
21.0784
20.5235
112.268
20.6874
109.479
33.7093
92.6295
342.149
405.404
100.614
202.612
202.423
21.43
192.287
192.081
539.767
559.75
444.735
526.282
21.4224
185.519
183.199
191.343
191.081
443.265
526.282
29.0098
21.2526
113.925
21.225
27.0061
20.9661
108.634
88.8347
626.253
81.1989
434.89
88.802
626.204
81.1684
434.876
30.1145
21.0708
20.4908
109.48
20.6923
109.321
32.7952
30.1085
21.0697
20.4909
109.469
20.6932
109.351
32.785
92.6955
339.497
405.43
97.9255
92.6735
339.487
405.428
97.892
539.649
559.661
539.763
559.8
21.4225
185.32
183.382
191.119
191.338
444.625
526.199
443.33
526.347
430.881
406.644
432.963
408.835
179.058
181.299
22.0421
161.787
164.285
387.785
400.466
389.844
402.554
21.9988
133.237
135.511
153.552
155.852
96.8759
326.392
97.7961
293.434
34.6535
108.996
20.3869
21.0521
33.3134
102.684
20.3402
34.6456
108.977
20.3869
21.0488
33.3138
102.73
20.3401
93.9028
256.987
282.565
80.8301
93.8247
256.977
282.499
80.7833
34.3937
20.9927
76.3111
20.2492
95.9111
20.3018
31.4535
34.3859
20.9904
76.3277
20.2492
95.9431
20.3017
31.4572
179.188
181.177
22.0395
162.137
163.755
432.89
408.704
387.805
400.497
21.9954
133.483
135.219
153.853
155.352
389.702
402.452
36.1013
111.71
20.4336
21.1532
34.5936
105.453
20.3899
100.61
328.855
101.609
295.865
36.1161
20.4384
111.721
21.142
34.611
20.3946
105.396
97.0465
259.713
284.915
84.1357
35.6815
21.0809
78.4474
20.2856
98.2904
20.3478
32.6294
97.0699
259.668
284.747
84.0978
35.6924
21.0695
20.2872
78.3652
20.3509
98.1606
32.6283
100.69
328.826
101.625
295.856
36.116
20.4384
111.711
21.1449
34.5976
20.3951
105.355
100.626
328.826
101.601
295.844
35.7064
21.0791
78.3629
20.2852
98.1599
20.3464
32.6443
97.173
259.638
284.773
84.1097
35.6846
21.0724
20.2878
78.3626
20.3514
98.1483
32.631
97.1029
259.643
284.747
84.1073
181.279
179.143
22.0399
163.914
161.891
430.924
406.707
389.786
402.439
21.9948
135.296
133.262
155.479
153.655
387.76
400.544
34.63
20.383
108.984
21.0588
33.3039
20.336
102.717
96.9007
326.364
97.7895
293.499
96.841
326.365
97.7527
293.523
34.3796
21.0004
20.2482
76.3241
20.2975
95.9782
31.4894
34.3659
20.9974
20.2477
76.3358
20.2989
95.9627
31.4741
93.8714
256.992
282.614
80.8448
93.8129
257.024
282.619
80.8272
432.827
408.634
430.995
406.767
21.9914
135.209
133.457
155.381
153.929
389.668
402.443
387.779
400.642
385.482
382.768
387.531
384.888
127.77
129.894
21.0671
120.063
122.347
382.828
382.55
384.987
384.681
20.9841
117.623
119.973
118.508
120.78
69.3437
251.271
76.1334
243.552
27.7974
70.7847
20.1999
20.4298
30.0604
62.6393
20.1687
27.7985
70.789
20.1999
20.4291
30.0658
62.6438
20.1687
68.0344
241.676
242.329
67.0378
68.0025
241.667
242.349
66.9834
27.3421
20.3627
60.0385
20.1427
61.0868
20.1494
26.9711
27.3403
20.3619
60.0441
20.1426
61.0766
20.1493
26.9776
127.982
129.649
21.0747
120.175
122.207
387.466
384.827
382.875
382.535
20.9914
117.727
119.824
118.613
120.634
384.892
384.635
28.6815
72.5518
20.2258
20.4603
30.9278
64.5306
20.1878
72.3575
253.848
78.8873
246.472
28.6806
20.2269
72.4833
20.4604
30.9287
20.1887
64.5363
70.759
244.719
245.197
69.9869
28.0745
20.389
61.9573
20.1568
62.8523
20.165
27.785
70.7527
244.659
245.237
69.9144
28.0754
20.3907
20.1576
61.9793
20.1658
62.8576
27.7871
72.3547
253.856
78.8718
246.447
28.6796
20.2273
72.4685
20.462
30.9142
20.1887
64.5185
72.3567
253.842
78.8953
246.455
28.0595
20.3907
61.9745
20.157
62.8219
20.1657
27.7988
70.745
244.596
245.234
69.9063
28.0603
20.3922
20.1576
61.9661
20.1658
62.8361
27.7838
70.7511
244.617
245.22
69.9118
129.744
127.75
21.0653
122.282
120.058
385.504
382.784
384.966
384.636
20.9829
119.928
117.658
120.734
118.51
382.829
382.582
27.805
20.1989
70.7578
20.4252
30.0686
20.1678
62.6033
69.3714
251.291
76.1752
243.548
69.3621
251.295
76.1795
243.556
27.3362
20.3594
20.142
60.0777
20.1497
61.0427
26.9848
27.3341
20.3572
20.1418
60.0379
20.1484
61.0371
26.9773
68.0136
241.638
242.368
66.9894
68.0146
241.655
242.363
66.9941
387.454
384.832
385.548
382.836
20.9814
119.846
117.846
120.573
118.647
384.874
384.651
382.86
382.649
382.867
383.433
385.033
385.58
117.121
119.409
20.9058
117.062
119.516
384.04
383.46
386.186
385.621
20.8915
116.968
119.452
116.831
119.23
66.4353
241.396
66.5846
241.326
26.8383
59.6597
20.1428
20.3219
26.8661
59.578
20.1422
26.8455
59.6667
20.1428
20.3203
26.8678
59.6024
20.1422
66.1002
241.386
240.994
66.2054
66.1532
241.412
241.245
66.2274
26.7702
20.3193
59.4219
20.1398
59.3579
20.1404
26.8109
26.7821
20.3184
59.4115
20.1398
59.3919
20.1403
26.83
117.222
119.254
20.9062
117.13
119.475
384.965
385.554
384.047
383.503
20.8927
116.965
119.425
116.777
119.11
386.129
385.611
27.6446
61.4196
20.1564
20.347
27.5808
61.522
20.1557
69.4011
244.263
69.2924
244.446
27.6457
20.1573
61.4411
20.3501
27.5843
20.1565
61.5726
69.0671
244.486
244.038
69.3162
27.5216
20.3446
61.3801
20.1535
61.2128
20.1537
27.6565
69.0505
244.562
244.245
69.2654
27.5241
20.3476
20.1544
61.421
20.1546
61.2594
27.6615
69.4062
244.266
69.2854
244.436
27.644
20.1573
61.4183
20.3515
27.576
20.1566
61.5563
69.3984
244.263
69.2916
244.459
27.5257
20.3467
61.4378
20.1536
61.1864
20.1552
27.6692
69.0539
244.479
244.242
69.257
27.5196
20.349
20.1544
61.3969
20.1547
61.2409
27.6577
69.0491
244.534
244.25
69.2644
119.349
117.158
20.9062
119.446
117.145
382.909
383.446
386.161
385.618
20.892
119.404
117.001
119.171
116.911
384.055
383.52
26.8472
20.142
59.6273
20.3164
26.8614
20.1414
59.5912
66.4497
241.41
66.5841
241.362
66.4475
241.416
66.594
241.366
26.7739
20.3159
20.1389
59.4835
20.1404
59.3363
26.8405
26.7814
20.3136
20.1389
59.3635
20.1395
59.3662
26.8261
66.1615
241.477
241.241
66.2293
66.164
241.382
241.271
66.2431
384.96
385.548
382.958
383.506
20.8898
119.31
117.101
118.984
116.974
386.092
385.586
384.052
383.574
384.115
384.602
386.254
386.708
116.758
119.165
20.8905
116.953
119.422
385.09
384.711
387.177
386.819
20.8769
116.901
119.361
116.743
119.137
66.0781
241.301
66.0316
241.676
26.7683
59.2132
20.1412
20.3164
26.7501
59.3165
20.1409
26.7933
59.2008
20.1411
20.3157
26.771
59.3589
20.1408
65.7342
241.633
241.182
65.9426
65.9025
241.634
241.555
66.0282
26.71
20.3141
59.2394
20.1388
59.1216
20.1394
26.7612
26.7355
20.3134
59.2314
20.1388
59.1557
20.1393
26.7793
116.759
119.046
20.8968
116.98
119.205
386.216
386.666
385.112
384.749
20.8827
116.984
119.205
116.781
118.933
387.093
386.783
27.6156
61.0662
20.1549
20.3421
27.5266
61.271
20.1546
69.121
244.357
68.917
244.677
27.6229
20.156
61.104
20.3451
27.5348
20.1557
61.3355
68.7883
244.746
244.167
69.1221
27.4888
20.3398
61.2053
20.1526
60.9697
20.153
27.6103
68.7926
244.768
244.493
69.0743
27.4954
20.3427
20.1534
61.2448
20.1538
61.0279
27.6127
69.1209
244.362
68.9075
244.598
27.6174
20.1559
61.0698
20.3463
27.5264
20.1556
61.2885
69.12
244.34
68.9188
244.685
27.4873
20.3425
61.2521
20.1524
60.9254
20.154
27.6169
68.7905
244.713
244.422
69.0653
27.4875
20.344
20.1534
61.2147
20.1537
60.9816
27.6075
68.791
244.792
244.498
69.0703
119.114
116.785
20.8904
119.342
116.838
384.142
384.615
387.168
386.728
20.8765
119.316
116.85
119.067
116.627
385.077
384.702
26.7854
20.1403
59.1914
20.3109
26.7612
20.14
59.2369
66.0909
241.429
66.0248
241.514
66.0961
241.358
66.0442
241.484
26.7171
20.3108
20.1377
59.2723
20.1393
59.0329
26.7848
26.7264
20.3085
20.1379
59.153
20.1385
59.0385
26.7736
65.9095
241.645
241.422
66.011
65.9217
241.646
241.45
66.0363
386.173
386.732
384.158
384.648
20.875
119.19
116.96
118.738
116.608
387.08
386.829
385.094
384.765
385.149
385.354
387.249
387.473
116.7
119.094
20.8787
116.924
119.402
385.498
385.381
387.536
387.516
20.8657
116.91
119.369
116.726
119.131
65.9854
241.63
65.8645
241.744
26.7399
59.0463
20.1402
20.3117
26.7044
59.2177
20.14
26.7591
59.0433
20.1402
20.3102
26.7234
59.2432
20.1399
65.7027
241.812
241.443
65.9444
65.8639
241.897
241.66
65.9614
26.6873
20.3101
59.2097
20.1384
59.0415
20.1388
26.7462
26.7063
20.3095
59.192
20.1383
59.0625
20.1387
26.7584
116.802
118.923
20.8794
116.931
119.267
387.163
387.44
385.486
385.351
20.867
116.805
119.326
116.525
118.931
387.538
387.484
27.5886
60.9184
20.154
20.3377
27.4852
61.182
20.1537
69.0532
244.628
68.7577
244.797
27.5951
20.1548
60.9461
20.3404
27.49
20.1545
61.2155
68.7379
244.942
244.456
69.1104
27.4646
20.3359
61.1791
20.1522
60.9018
20.1523
27.6011
68.746
244.959
244.634
69.0646
27.4713
20.3387
20.153
61.2147
20.1531
60.9318
27.6032
69.0537
244.64
68.7476
244.803
27.5896
20.1547
60.9146
20.3418
27.4812
20.1545
61.1898
69.052
244.599
68.7567
244.892
27.4625
20.3375
61.2188
20.152
60.833
20.1533
27.6057
68.7438
244.873
244.642
69.0538
27.4629
20.34
20.1529
61.1844
20.1531
60.9035
27.5978
68.7447
244.907
244.704
69.0595
119.042
116.674
20.8784
119.309
116.792
385.144
385.355
387.516
387.393
20.8653
119.32
116.843
119.051
116.6
385.485
385.383
26.749
20.1393
58.9926
20.3062
26.7122
20.139
59.1501
65.993
241.558
65.846
241.791
66.0037
241.57
65.8703
241.865
26.685
20.3068
20.1373
59.2373
20.1385
58.9416
26.7627
26.6954
20.3046
20.1374
59.1225
20.1378
58.9671
26.7574
65.8534
241.898
241.652
65.9492
65.8499
241.869
241.759
66.0083
387.169
387.362
385.158
385.436
20.8641
119.191
116.942
118.715
116.561
387.532
387.396
385.494
385.473
385.515
385.488
387.576
387.599
116.709
119.102
20.8734
116.937
119.418
385.496
385.501
387.543
387.605
20.8613
116.911
119.371
116.734
119.139
65.9645
241.736
65.8061
241.828
26.7388
59.0282
20.14
20.3099
26.6945
59.2214
20.1399
26.7569
59.0142
20.1399
20.3092
26.7083
59.2414
20.1399
65.6708
241.804
241.539
65.9238
65.81
241.969
241.728
65.9703
26.6873
20.3092
59.2209
20.1388
59.0457
20.139
26.7572
26.7065
20.3085
59.2262
20.1387
59.062
20.1388
26.769
116.62
118.983
20.88
116.92
119.196
387.565
387.484
385.539
385.494
20.8673
116.986
119.217
116.735
118.932
387.466
387.505
27.595
60.8981
20.1537
20.336
27.4782
61.1868
20.1537
69.0559
244.771
68.7514
244.973
27.6013
20.1545
60.931
20.3388
27.4828
20.1545
61.2418
68.7336
244.966
244.53
69.0991
27.4713
20.335
61.1844
20.1526
60.9054
20.1526
27.6131
68.742
244.916
244.78
69.055
27.4779
20.3378
20.1534
61.2245
20.1534
60.9545
27.6155
69.0569
244.785
68.7396
244.862
27.5958
20.1545
60.8883
20.34
27.4736
20.1544
61.1858
69.055
244.709
68.7493
244.934
27.4691
20.3377
61.2265
20.1524
60.8498
20.1535
27.6181
68.7407
244.862
244.697
69.0438
27.4696
20.3391
20.1533
61.189
20.1533
60.9003
27.6102
68.7413
244.901
244.751
69.0501
119.045
116.671
20.8733
119.329
116.79
385.511
385.498
387.538
387.491
20.861
119.33
116.768
119.063
116.601
385.461
385.504
26.7521
20.1391
58.9661
20.3043
26.7017
20.1389
59.1459
65.9795
241.846
65.7909
241.816
65.9966
241.714
65.8535
241.936
26.6867
20.306
20.1377
59.2354
20.1387
58.9483
26.7809
26.6996
20.3037
20.1378
59.1358
20.138
58.9652
26.7708
65.8207
241.798
241.763
65.9802
65.8427
241.875
241.819
66.0003
387.538
387.517
385.501
385.571
20.8596
119.187
116.938
118.717
116.554
387.447
387.526
385.493
385.59
385.485
385.45
387.561
387.572
116.708
119.1
20.8736
116.927
119.409
385.478
385.453
387.524
387.574
20.8618
116.896
119.362
116.722
119.129
65.9685
241.833
65.8105
241.888
26.7609
59.0372
20.1405
20.3107
26.7063
59.2154
20.1405
26.7726
59.0499
20.1404
20.3095
26.7189
59.2565
20.1404
65.7108
241.809
241.481
65.9312
65.8111
241.824
241.749
65.9731
26.7097
20.3102
59.2081
20.1394
59.0381
20.1397
26.7703
26.7229
20.3097
59.1892
20.1393
59.0751
20.1395
26.7847
116.805
118.93
20.8741
116.988
119.278
387.479
387.541
385.48
385.434
20.863
116.862
119.32
116.742
118.93
387.526
387.547
27.6061
60.902
20.1543
20.3368
27.4896
61.1848
20.1543
69.0375
244.77
68.7384
244.814
27.6127
20.1551
60.9299
20.3395
27.4944
20.1551
61.2152
68.7133
244.92
244.509
69.0801
27.4821
20.3361
61.175
20.1533
60.9023
20.1534
27.6217
68.7219
244.862
244.647
69.0359
27.4887
20.3389
20.1541
61.2081
20.1542
60.9301
27.6235
69.0378
244.764
68.726
244.836
27.6068
20.1551
60.892
20.3409
27.4852
20.1551
61.1841
69.0356
244.699
68.7363
244.905
27.4798
20.3377
61.2143
20.153
60.8305
20.1542
27.6267
68.7201
244.846
244.672
69.0251
27.4802
20.3402
20.154
61.1841
20.1541
60.8981
27.6182
68.7201
244.911
244.723
69.0305
119.052
116.563
20.8731
119.32
116.795
385.455
385.462
387.482
387.431
20.8612
119.309
116.846
119.049
116.598
385.459
385.469
26.765
20.1395
58.9602
20.3052
26.7148
20.1396
59.1616
65.9844
241.713
65.8182
241.782
65.9842
241.692
65.8417
241.975
26.7032
20.3069
20.1384
59.2365
20.1393
58.9422
26.7899
26.7121
20.3048
20.1384
59.1189
20.1386
58.9754
26.7802
65.8207
241.832
241.692
65.9538
65.8273
241.825
241.817
65.9826
387.472
387.46
385.49
385.546
20.8602
119.18
116.932
118.71
116.554
387.432
387.47
385.471
385.551
385.452
385.526
387.544
387.568
116.696
119.089
20.8745
116.937
119.405
385.472
385.503
387.529
387.569
20.8627
116.901
119.362
116.732
119.124
65.9683
241.722
65.8134
241.918
26.767
59.0284
20.1411
20.3116
26.7179
59.221
20.1411
26.7806
59.0123
20.141
20.3111
26.7338
59.2549
20.141
65.7047
241.764
241.617
65.9244
65.8107
241.788
241.821
65.9707
26.7141
20.311
59.1988
20.1397
59.0506
20.14
26.7708
26.7284
20.3105
59.1969
20.1396
59.0702
20.1398
26.7859
116.67
118.97
20.8811
116.937
119.187
387.534
387.455
385.497
385.47
20.8687
116.98
119.213
116.745
118.921
387.455
387.471
27.6105
60.8917
20.155
20.3379
27.4977
61.1758
20.155
69.0265
244.736
68.7196
244.819
27.6168
20.1558
60.9171
20.3406
27.502
20.1558
61.2102
68.7032
244.912
244.488
69.075
27.4856
20.337
61.1714
20.1537
60.8943
20.1539
27.6223
68.7123
244.933
244.654
69.0319
27.4921
20.3398
20.1544
61.208
20.1546
60.9254
27.6245
69.0268
244.758
68.7078
244.818
27.611
20.1557
60.8879
20.3418
27.4928
20.1557
61.1823
69.025
244.72
68.7172
244.926
27.4833
20.3397
61.2149
20.1534
60.8392
20.1547
27.6276
68.7102
244.831
244.654
69.0203
27.4838
20.341
20.1544
61.1815
20.1546
60.8956
27.6193
68.711
244.908
244.736
69.0268
119.032
116.668
20.8743
119.315
116.784
385.46
385.459
387.505
387.446
20.8624
119.311
116.758
119.047
116.595
385.441
385.462
26.7704
20.1401
58.967
20.3061
26.7233
20.1401
59.1443
65.9676
241.65
65.7911
241.804
65.9734
241.732
65.8255
241.913
26.7064
20.3079
20.1385
59.2253
20.1397
58.9405
26.7909
26.7164
20.3056
20.1387
59.1165
20.139
58.9624
26.7812
65.805
241.812
241.694
65.9548
65.8167
241.817
241.794
65.9807
387.446
387.523
385.467
385.508
20.861
119.179
116.92
118.711
116.535
387.433
387.529
385.471
385.504
385.463
385.452
387.545
387.579
116.694
119.088
20.8746
116.918
119.404
385.492
385.441
387.548
387.557
20.8629
116.887
119.362
116.711
119.12
65.961
241.737
65.8111
241.765
26.7666
59.0201
20.1413
20.3118
26.7179
59.2053
20.1412
26.7811
59.0188
20.1413
20.3107
26.7347
59.2406
20.1412
65.7051
241.766
241.487
65.938
65.8309
241.785
241.759
65.9367
26.7143
20.3111
59.1894
20.1397
59.0342
20.1402
26.7703
26.7285
20.3108
59.1869
20.1397
59.0616
20.1401
26.7818
116.796
118.921
20.8753
116.983
119.277
387.457
387.55
385.486
385.424
20.8643
116.862
119.323
116.734
118.927
387.55
387.548
27.61
60.8887
20.1553
20.3381
27.4981
61.1734
20.1552
69.0244
244.739
68.7163
244.936
27.6163
20.156
60.9228
20.3408
27.5027
20.156
61.2301
68.7017
244.906
244.476
69.0749
27.4855
20.3371
61.1699
20.1537
60.892
20.154
27.6217
68.7101
244.91
244.735
69.0309
27.492
20.34
20.1544
61.2115
20.1547
60.9425
27.6236
69.0248
244.752
68.7039
244.829
27.6106
20.156
60.8856
20.3421
27.4937
20.1559
61.1815
69.0227
244.713
68.7142
244.925
27.4832
20.3387
61.2111
20.1534
60.8238
20.1547
27.6272
68.7085
244.855
244.657
69.0197
27.4836
20.3412
20.1544
61.1784
20.1547
60.8946
27.6185
68.7087
244.918
244.727
69.0257
119.031
116.551
20.8742
119.316
116.789
385.449
385.466
387.537
387.459
20.8625
119.321
116.853
119.046
116.589
385.48
385.477
26.7699
20.1404
58.9645
20.3064
26.7237
20.1403
59.143
65.9659
241.642
65.7939
241.837
65.973
241.724
65.8223
241.916
26.7058
20.308
20.1385
59.2361
20.1398
58.9367
26.7904
26.7161
20.3058
20.1388
59.1108
20.1391
58.962
26.7813
65.8032
241.884
241.684
65.9477
65.8161
241.821
241.801
65.9761
387.437
387.467
385.479
385.518
20.8613
119.169
116.922
118.704
116.541
387.448
387.475
385.487
385.52
385.454
385.56
387.533
387.607
116.683
119.084
20.8743
116.938
119.408
385.57
385.492
387.618
387.554
20.8631
116.901
119.37
116.727
119.119
65.9432
241.743
65.7773
241.777
26.7648
59.0118
20.1414
20.3116
26.7183
59.2046
20.1413
26.7746
59.0084
20.1413
20.3113
26.7304
59.2325
20.1412
65.7029
241.963
241.468
65.7419
65.7869
241.845
241.737
65.859
26.7134
20.3112
59.1794
20.1398
59.0333
20.1402
26.7529
26.7238
20.3106
59.1652
20.1397
59.0521
20.14
26.7659
116.668
118.965
20.881
116.938
119.185
387.514
387.488
385.638
385.447
20.869
116.98
119.213
116.747
118.909
387.548
387.491
27.6093
60.8872
20.1553
20.3379
27.4985
61.1733
20.1552
69.0254
244.692
68.7149
244.867
27.6157
20.1561
60.9208
20.3406
27.5029
20.1559
61.2112
68.6997
244.899
244.456
69.0866
27.4865
20.3372
61.171
20.1536
60.8901
20.154
27.6211
68.7096
244.925
244.646
69.0339
27.4932
20.34
20.1544
61.2032
20.1547
60.9236
27.6235
69.0252
244.742
68.7028
244.855
27.6102
20.156
60.882
20.3419
27.4938
20.1559
61.1801
69.0235
244.707
68.713
244.95
27.4843
20.3401
61.2152
20.1535
60.8382
20.1549
27.6275
68.7074
244.917
244.657
69.0219
27.4848
20.3414
20.1544
61.1796
20.1547
60.8935
27.6187
68.7083
244.923
244.727
69.0288
119.037
116.642
20.874
119.32
116.843
385.488
385.505
387.694
387.453
20.8627
119.324
116.859
119.041
116.635
385.53
385.476
26.7688
20.1405
58.9688
20.3064
26.7246
20.1403
59.1355
65.9649
241.811
65.7854
241.812
65.9739
241.706
65.8182
241.927
26.7167
20.3079
20.1392
59.2327
20.1395
58.9435
26.7456
26.7251
20.3059
20.1388
59.1085
20.1392
58.9575
26.7565
65.804
241.808
241.687
65.8757
65.8197
241.845
241.779
65.8913
387.447
387.575
385.474
385.573
20.8615
119.176
116.923
118.697
116.539
387.57
387.466
385.528
385.505
385.452
387.513
116.719
119.076
68.148
241.678
65.6835
243.239
27.4799
59.0535
20.1367
20.3251
26.6735
60.1903
20.1559
27.4784
59.0557
20.1367
20.3232
26.6844
60.1896
20.156
116.814
118.919
20.8709
117.733
119.096
387.466
387.651
60.8851
20.1545
27.5
244.659
68.7129
20.1549
60.9095
27.5055
69.0019
244.688
68.7016
244.905
27.5926
20.1554
60.8802
20.3545
27.4962
20.1604
61.1182
68.9978
244.669
68.7126
244.875
27.6376
20.1436
69.0387
27.6362
20.3121
20.1439
61.2012
69.0444
244.892
119.029
116.652
385.47
27.5075
20.1358
58.9861
20.3204
26.6604
20.1563
60.134
68.2253
241.689
65.6777
68.2092
241.708
65.6691
243.636
387.467
387.618
385.498
386.594
20.8748
118.918
118.118
387.658
387.298
33.6132
405.574
538.701
33.6019
405.731
538.86
537.922
538.454
33.5783
405.646
539.205
33.5731
405.867
33.6248
406.088
33.5835
406.084
539.529
33.6227
406.539
33.5701
407.023
538.762
539.687
21.7721
21.7709
21.7752
21.7899
21.7897
21.7777
21.7731
21.7816
21.775
21.7727
21.7814
21.774
29.6024
22.2291
22.2791
22.2078
21.8324
22.0374
30.7662
23.3102
22.6248
21.9339
21.8064
21.9497
22.2295
29.6014
22.2787
21.8315
22.2078
22.0374
21.9343
21.8062
21.9496
30.7656
23.3107
22.6247
9834.6
9835.21
139.284
22.9087
22.9007
32.4584
5946.39
24.4735
51.4369
5947.11
24.4721
51.4327
491.986
86.8067
382.658
138.947
378.834
138.007
468.728
676.448
415.535
496.238
1256.21
313.474
502.536
83.413
350.094
146.38
618.537
357.705
132.959
686.414
285.267
474.237
299.546
659.256
540.393
565.65
491.978
86.7868
138.942
382.578
137.998
378.809
468.731
676.832
415.373
496.183
1255.34
313.462
502.482
83.3966
146.37
350.046
618.481
132.944
357.682
686.616
285.255
474.224
299.576
659.316
540.374
565.627
218.719
482.241
481.014
468.856
467.59
221.171
75.6654
39.6253
314.238
193.374
71.5137
41.4732
316.956
75.7706
39.5903
315.107
193.546
72.5365
41.272
318.134
214.481
401.692
401.793
214.043
459.819
458.759
81.8443
325.573
194.383
45.0666
43.6253
323.692
84.8954
81.7195
326.951
194.568
45.0115
43.5032
324.846
84.9413
336.78
97.607
297.794
126.029
305.668
130.979
326.95
453.212
232.641
314.849
465.133
222.634
347.044
97.8259
322.595
136.632
359.498
313.561
134.746
444.424
199.716
303.869
211.517
436.014
421.208
413.546
340.329
101.436
131.052
301.624
135.776
309.28
330.74
456.109
236.414
317.344
467.352
226.82
350.627
102.174
141.026
325.6
362.284
139.795
317.472
447.698
203.84
306.151
215.25
439.379
423.296
415.661
208.645
407.815
407.217
412.091
411.502
204.633
98.6597
54.0842
297.233
176.646
98.2011
54.5949
291.047
98.3455
53.3371
297.587
174.787
97.936
53.8275
291.429
212.366
421.935
421.299
214.766
416.384
415.76
97.9611
279.566
169.956
53.9057
54.2642
284.989
97.3038
97.675
280.03