/*--------------------------------*- C++ -*----------------------------------*\
| =========                 |                                                 |
| \\      /  F ield         | OpenFOAM: The Open Source CFD Toolbox           |
|  \\    /   O peration     | Version:  2206                                  |
|   \\  /    A nd           | Website:  www.openfoam.com                      |
|    \\/     M anipulation  |                                                 |
\*---------------------------------------------------------------------------*/
FoamFile
{
    version     2.0;
    format      ascii;
    arch        "LSB;label=32;scalar=64";
    class       volScalarField;
    location    "0.3";
    object      p;
}
// * * * * * * * * * * * * * * * * * * * * * * * * * * * * * * * * * * * * * //

dimensions      [0 2 -2 0 0 0 0];

internalField   nonuniform List<scalar> 
66616
(
-0.000252297
-0.000238311
-0.000238495
-0.000211933
-0.000614787
-0.000623112
-0.000622758
-0.000604741
-0.000852075
-0.000853263
-0.000853185
-0.000841005
-0.00106316
-0.00106321
-0.00106331
-0.00105045
-0.00127317
-0.00127324
-0.00127324
-0.00126043
-0.00148648
-0.00148601
-0.00148606
-0.00147285
-0.00170831
-0.00170772
-0.00170774
-0.0016935
-0.0019393
-0.0019391
-0.00193916
-0.0019244
-0.00217401
-0.00217404
-0.00217408
-0.00215926
-0.00240946
-0.00240949
-0.00240953
-0.00239482
-0.00264483
-0.00264488
-0.00264486
-0.00263024
-0.00288022
-0.00288016
-0.00288003
-0.0028656
-0.000184833
-0.000189041
-0.000189085
-0.000184862
-0.00018898
-0.00018891
-0.000182988
-0.000182987
-0.000182919
-0.000182965
-0.000188988
-0.000188889
-0.000184816
-0.000189045
-0.000189056
-0.000184824
-0.000211892
-0.000559852
-0.000238705
-0.000238735
-0.000531514
-0.000531495
-0.000211937
-0.000559854
-0.000238306
-0.000238459
-0.00053275
-0.000532654
-0.000238458
-0.000532786
-0.000532663
-0.000211899
-0.000559875
-0.000238542
-0.000531912
-0.00053192
-0.000559871
-0.000604676
-0.00081497
-0.000622411
-0.000622338
-0.000802273
-0.000802317
-0.000604685
-0.000814954
-0.000623064
-0.000623112
-0.000802392
-0.000802401
-0.00062312
-0.000802415
-0.000802398
-0.000604763
-0.00081499
-0.000622741
-0.000802337
-0.000802346
-0.000814997
-0.000840972
-0.00102401
-0.000853129
-0.000853185
-0.00101034
-0.00101031
-0.00084098
-0.00102395
-0.000853252
-0.00085324
-0.00101043
-0.0010104
-0.000853234
-0.0010104
-0.00101039
-0.000841001
-0.00102402
-0.000853194
-0.00101053
-0.00101053
-0.00102403
-0.00105043
-0.00123407
-0.00106317
-0.00106311
-0.00122079
-0.00122085
-0.00105038
-0.00123418
-0.00106322
-0.00106319
-0.0012208
-0.00122077
-0.00106318
-0.00122087
-0.00122076
-0.00105044
-0.00123404
-0.00106331
-0.0012209
-0.0012209
-0.00123406
-0.00126043
-0.00144595
-0.00127314
-0.00127319
-0.00143234
-0.00143231
-0.00126057
-0.00144591
-0.00127317
-0.00127314
-0.00143239
-0.00143241
-0.00127313
-0.00143237
-0.0014324
-0.00126042
-0.00144594
-0.00127324
-0.00143242
-0.00143241
-0.00144594
-0.00147284
-0.00166514
-0.00148598
-0.00148595
-0.00165103
-0.00165107
-0.00147278
-0.00166527
-0.00148601
-0.00148605
-0.00165107
-0.00165104
-0.00148605
-0.00165115
-0.00165103
-0.00147286
-0.00166515
-0.00148605
-0.00165114
-0.00165114
-0.00166514
-0.00169349
-0.00189506
-0.00170764
-0.0017077
-0.00188068
-0.00188069
-0.00169359
-0.00189502
-0.00170767
-0.00170764
-0.00188072
-0.00188071
-0.00170762
-0.00188071
-0.00188071
-0.00169351
-0.00189506
-0.00170774
-0.00188066
-0.00188065
-0.00189506
-0.0019244
-0.00212968
-0.00193914
-0.00193916
-0.00211524
-0.00211522
-0.00192433
-0.00212967
-0.00193911
-0.00193909
-0.0021152
-0.00211518
-0.00193909
-0.00211521
-0.00211518
-0.00192441
-0.00212968
-0.00193915
-0.00211526
-0.00211526
-0.00212969
-0.00215925
-0.00236522
-0.00217406
-0.002174
-0.00235066
-0.00235067
-0.00215919
-0.00236521
-0.00217402
-0.002174
-0.00235065
-0.00235063
-0.002174
-0.00235066
-0.00235064
-0.00215925
-0.00236522
-0.00217408
-0.00235068
-0.00235068
-0.00236523
-0.00239481
-0.00260064
-0.00240952
-0.00240954
-0.00258605
-0.00258603
-0.00239478
-0.00260057
-0.00240949
-0.00240947
-0.00258607
-0.00258605
-0.00240948
-0.0025861
-0.00258606
-0.00239481
-0.00260063
-0.00240953
-0.00258606
-0.00258606
-0.00260065
-0.00263023
-0.0028359
-0.00264487
-0.00264483
-0.00282127
-0.00282126
-0.00263015
-0.00283591
-0.00264485
-0.00264482
-0.00282144
-0.00282139
-0.00264483
-0.00282145
-0.00282143
-0.00263022
-0.00283589
-0.00264487
-0.00282125
-0.00282127
-0.00283592
-0.00286559
-0.00288004
-0.00288003
-0.00286558
-0.00288017
-0.00288014
-0.00288017
-0.00286557
-0.00288005
-6.42361e-05
-6.06173e-05
-6.23607e-05
-6.21344e-05
-5.97944e-05
-5.66682e-05
-9.70496e-05
-5.89148e-05
-5.97205e-05
-5.66577e-05
-5.89226e-05
-9.70181e-05
-5.30101e-05
-0.000104843
-0.000104826
-0.000354806
-0.000103212
-0.000161414
-0.000372617
-0.000154852
-0.00036317
-0.000354493
-0.000103044
-0.000161089
-0.000372423
-0.000252306
-0.00025222
-0.000252267
-0.000523654
-0.00052365
-0.000523885
-0.000523886
-0.000356261
-0.000157633
-0.000238955
-0.000325291
-0.000181659
-0.000365742
-0.000324456
-0.000154699
-0.000362952
-0.000357117
-0.000239331
-0.00015763
-0.000325824
-0.000181959
-0.000325176
-0.000366208
-0.000170815
-0.000170728
-0.000356863
-0.000363781
-0.000364106
-0.000712836
-0.000629465
-0.000624814
-0.000712706
-0.000628026
-0.000713213
-0.000712863
-0.000629634
-0.000625913
-0.000712787
-0.000614785
-0.000614768
-0.000614761
-0.000801166
-0.000801184
-0.000801103
-0.000801102
-0.000709097
-0.000620753
-0.000619379
-0.000694056
-0.000612211
-0.000709703
-0.000691807
-0.000628129
-0.000713305
-0.00070832
-0.000618466
-0.000619858
-0.000693992
-0.00061014
-0.000691468
-0.000709668
-0.000623986
-0.000623853
-0.000707405
-0.000711174
-0.000711017
-0.000920569
-0.000843432
-0.000843598
-0.0009204
-0.000843667
-0.000920493
-0.000920411
-0.000843229
-0.000843447
-0.000920316
-0.000852099
-0.000852064
-0.000852063
-0.00100996
-0.00100992
-0.00100998
-0.00100997
-0.000919425
-0.000842519
-0.000852979
-0.000905011
-0.00084244
-0.000919316
-0.000904662
-0.000843557
-0.000920414
-0.000919091
-0.000852836
-0.000842666
-0.000905034
-0.000842499
-0.000904576
-0.00091948
-0.000843031
-0.000843088
-0.000918983
-0.000920226
-0.000920249
-0.00112882
-0.00105009
-0.00105037
-0.0011283
-0.00105007
-0.00112824
-0.00112874
-0.00104997
-0.00105013
-0.00112826
-0.00106313
-0.00106316
-0.00106316
-0.00122098
-0.00122102
-0.00122095
-0.00122095
-0.00112854
-0.0010498
-0.00106338
-0.00111589
-0.00104999
-0.00112796
-0.00111617
-0.00104995
-0.0011282
-0.00112835
-0.0010633
-0.00105001
-0.00111597
-0.00105024
-0.0011161
-0.00112813
-0.00104997
-0.00105005
-0.0011291
-0.00112841
-0.00112842
-0.00133875
-0.00125969
-0.00126022
-0.00133825
-0.0012596
-0.00133806
-0.00133875
-0.00125963
-0.00126005
-0.00133827
-0.0012732
-0.00127316
-0.00127316
-0.00143283
-0.00143281
-0.00143284
-0.00143283
-0.00133878
-0.00125971
-0.00127326
-0.00132587
-0.00126013
-0.0013381
-0.001326
-0.00125954
-0.00133805
-0.00133863
-0.00127327
-0.00125982
-0.00132591
-0.00126033
-0.00132599
-0.00133816
-0.00125961
-0.00125965
-0.00133947
-0.00133833
-0.00133832
-0.00155223
-0.00147084
-0.00147119
-0.0015518
-0.00147051
-0.00155156
-0.00155234
-0.00147082
-0.00147108
-0.00155187
-0.00148648
-0.00148651
-0.0014865
-0.00165174
-0.00165177
-0.00165166
-0.00165167
-0.00155284
-0.00147115
-0.00148635
-0.00154018
-0.00147183
-0.00155208
-0.00154056
-0.00147048
-0.00155161
-0.0015527
-0.0014864
-0.00147128
-0.00154026
-0.00147202
-0.0015406
-0.00155208
-0.0014709
-0.00147093
-0.00155406
-0.00155211
-0.00155207
-0.00177784
-0.00169154
-0.00169209
-0.00177746
-0.00169149
-0.00177751
-0.00177791
-0.00169156
-0.00169196
-0.00177753
-0.00170833
-0.00170823
-0.00170823
-0.00188102
-0.00188101
-0.00188101
-0.00188101
-0.00177824
-0.00169217
-0.00170796
-0.00176488
-0.00169273
-0.00177774
-0.00176509
-0.00169151
-0.00177758
-0.00177777
-0.00170788
-0.00169215
-0.00176484
-0.00169269
-0.00176499
-0.00177762
-0.00169176
-0.00169176
-0.00177907
-0.0017778
-0.00177774
-0.00201189
-0.00192384
-0.00192383
-0.00201204
-0.00192396
-0.00201209
-0.00201204
-0.00192388
-0.00192382
-0.00201214
-0.00193929
-0.00193929
-0.00193929
-0.00211521
-0.0021152
-0.0021152
-0.0021152
-0.00201187
-0.00192408
-0.00193916
-0.00199768
-0.00192418
-0.00201186
-0.00199772
-0.00192399
-0.00201218
-0.00201166
-0.00193925
-0.00192418
-0.00199778
-0.00192434
-0.00199788
-0.00201169
-0.0019239
-0.00192388
-0.00201214
-0.00201212
-0.00201205
-0.00224758
-0.00215959
-0.00215944
-0.0022477
-0.00215961
-0.00224768
-0.00224772
-0.00215962
-0.00215946
-0.00224774
-0.00217401
-0.002174
-0.00217401
-0.00235062
-0.00235062
-0.0023506
-0.0023506
-0.0022474
-0.00215964
-0.002174
-0.00223292
-0.00215947
-0.00224748
-0.00223286
-0.0021596
-0.0022477
-0.00224723
-0.00217408
-0.00215975
-0.00223295
-0.00215967
-0.00223293
-0.00224739
-0.00215949
-0.00215951
-0.00224745
-0.00224772
-0.00224768
-0.00248299
-0.00239497
-0.00239495
-0.00248301
-0.00239497
-0.00248298
-0.00248307
-0.00239496
-0.00239491
-0.00248302
-0.00240947
-0.00240946
-0.00240946
-0.00258603
-0.00258602
-0.00258601
-0.00258602
-0.00248285
-0.0023951
-0.00240945
-0.00246837
-0.00239502
-0.00248286
-0.00246834
-0.00239496
-0.002483
-0.00248266
-0.00240953
-0.00239523
-0.00246839
-0.00239522
-0.0024684
-0.00248273
-0.0023949
-0.00239492
-0.00248297
-0.00248305
-0.00248302
-0.00271827
-0.00263027
-0.00263028
-0.00271828
-0.00263029
-0.00271828
-0.00271834
-0.00263027
-0.00263023
-0.0027183
-0.00264483
-0.00264482
-0.00264484
-0.00282139
-0.00282139
-0.00282134
-0.00282138
-0.00271814
-0.00263043
-0.0026448
-0.00270378
-0.00263039
-0.00271813
-0.00270371
-0.00263027
-0.00271827
-0.00271794
-0.00264481
-0.00263053
-0.00270368
-0.00263053
-0.00270363
-0.00271799
-0.00263022
-0.00263023
-0.0027183
-0.00271834
-0.00271831
-0.00295339
-0.00286548
-0.00286557
-0.00295347
-0.00286555
-0.00295354
-0.00286559
-0.0028656
-0.00288023
-0.00288018
-0.00288021
-0.00295348
-0.00286579
-0.00288022
-0.00293909
-0.00286579
-0.00295346
-0.00293922
-0.0028656
-0.00295335
-0.00287982
-0.00286583
-0.00286609
-0.00293907
-0.00286555
-0.00286551
-0.00295351
-0.00295364
-0.00295354
-5.30818e-05
-0.000104728
-0.000104716
-0.000119853
-0.000152982
-0.00011996
-0.000152967
-8.99518e-05
-0.00014633
-0.000146173
-0.000136549
-0.000136534
-5.97551e-05
-5.66767e-05
-9.70534e-05
-5.90498e-05
-5.97456e-05
-5.66439e-05
-9.70673e-05
-5.90455e-05
-0.000116633
-0.000129728
-0.000151409
-0.000163767
-0.00011662
-0.00012967
-0.000151392
-0.000163765
-0.000104634
-8.94846e-05
-0.000168739
-0.000173015
-0.000128149
-9.17136e-05
-0.000164826
-0.000104623
-8.94359e-05
-0.000168564
-0.000173015
-0.000128206
-9.1709e-05
-0.000164818
-5.30491e-05
-0.000104871
-0.00010472
-0.000119756
-0.000152966
-8.99206e-05
-0.000146125
-0.00014636
-0.000136039
-0.000136548
-0.00012
-0.000152979
-5.97892e-05
-5.66794e-05
-9.70453e-05
-5.89259e-05
-5.97864e-05
-5.66189e-05
-5.893e-05
-9.70455e-05
-0.000116587
-0.000130195
-0.00015138
-0.000163612
-0.000104578
-8.96389e-05
-0.000168847
-0.000172574
-0.000128134
-9.15212e-05
-0.000164568
-0.000116585
-0.000130232
-0.000151348
-0.000163615
-0.00010457
-8.94141e-05
-0.000172622
-0.000168781
-9.15279e-05
-0.000128172
-0.000164575
-6.4247e-05
-6.06317e-05
-6.23712e-05
-6.21409e-05
-6.42522e-05
-6.06004e-05
-6.21446e-05
-6.214e-05
-6.42638e-05
-6.05458e-05
-6.21384e-05
-6.21427e-05
-9.57867e-05
-9.03072e-05
-0.000184333
-0.000183546
-9.31824e-05
-9.27691e-05
-0.000185197
-9.5805e-05
-9.03453e-05
-0.000184339
-0.000183557
-9.32095e-05
-9.27834e-05
-0.000185202
-9.58326e-05
-9.02991e-05
-0.000183699
-0.000183659
-9.28057e-05
-9.28389e-05
-0.000185135
-9.5851e-05
-9.01421e-05
-0.000183717
-0.000183671
-9.28003e-05
-9.28465e-05
-0.000185141
-5.97898e-05
-5.66432e-05
-5.89391e-05
-9.70566e-05
-0.00010459
-8.96173e-05
-0.000168933
-0.000172592
-0.000128144
-9.15086e-05
-0.000164586
-0.000116596
-0.000130226
-0.000151395
-0.000163636
-0.00010458
-8.9489e-05
-0.00017264
-0.000168855
-9.15504e-05
-0.000128184
-0.000164593
-0.000116594
-0.000130237
-0.00015136
-0.000163634
-5.30385e-05
-0.000104843
-0.000104688
-0.000119887
-0.00015293
-8.99e-05
-0.000146153
-0.000146295
-0.000136006
-0.000136521
-0.000119853
-0.000152944
-5.9711e-05
-5.66663e-05
-5.89394e-05
-9.70359e-05
-0.000104583
-8.95986e-05
-0.000172771
-0.000168673
-9.15562e-05
-0.000128117
-0.000164725
-0.000104572
-8.96235e-05
-0.000172773
-0.000168504
-9.15884e-05
-0.000128167
-0.000164719
-0.000116585
-0.000129676
-0.000151367
-0.000163703
-0.000116572
-0.00012962
-0.000151343
-0.000163699
-8.98885e-05
-0.000146299
-0.000146072
-0.00013602
-0.000136002
-0.000119901
-0.000152937
-0.000119748
-0.000152918
-0.000154848
-0.000363125
-0.000154676
-0.000362921
-0.000170807
-0.000170572
-0.000356891
-0.00036407
-0.000363767
-0.000594727
-0.000421253
-0.000594583
-0.0004211
-0.000414366
-0.000587979
-0.000588358
-0.000425941
-0.000425809
-0.00035482
-0.000103195
-0.000161414
-0.000372647
-0.000357114
-0.000157683
-0.000239574
-0.000325692
-0.000182046
-0.000366197
-0.000325315
-0.000357126
-0.000157635
-0.000239578
-0.000325724
-0.00018204
-0.000366223
-0.000325325
-0.000436151
-0.000595502
-0.000437976
-0.000590082
-0.000436158
-0.000595531
-0.000438002
-0.000590093
-0.000430607
-0.000427398
-0.000582694
-0.00052663
-0.000435071
-0.000424153
-0.000572606
-0.000430616
-0.000427418
-0.000582705
-0.000526628
-0.0004351
-0.000424154
-0.00057261
-0.000170783
-0.000170698
-0.000356889
-0.000364122
-0.000363745
-0.000154681
-0.000362916
-0.000594765
-0.000421299
-0.000414368
-0.000588074
-0.000588313
-0.000425995
-0.000425779
-0.000594582
-0.000421097
-0.000356248
-0.000157569
-0.000238944
-0.000325297
-0.000181646
-0.00036575
-0.000324452
-0.0003545
-0.000103094
-0.000161091
-0.000372451
-0.000356252
-0.000239069
-0.000157617
-0.00032522
-0.000181653
-0.000324602
-0.000365752
-0.000435883
-0.000595737
-0.000437853
-0.000591187
-0.000429538
-0.000427195
-0.000583542
-0.000528523
-0.000434665
-0.000423473
-0.000572749
-0.00043589
-0.000595744
-0.000437866
-0.000591198
-0.000429538
-0.00042709
-0.000528598
-0.000583542
-0.000423482
-0.000434641
-0.00057275
-0.000354503
-0.000103053
-0.000161108
-0.000372444
-0.000356267
-0.000239083
-0.000157665
-0.000325207
-0.000181667
-0.000324607
-0.000365742
-0.00035451
-0.000103081
-0.000161103
-0.000372481
-0.00042955
-0.000427207
-0.000583559
-0.000528534
-0.000434663
-0.000423478
-0.000572753
-0.000435893
-0.000595758
-0.000437873
-0.000591205
-0.00042955
-0.000427087
-0.000528599
-0.000583555
-0.000423485
-0.000434637
-0.000572757
-0.000435901
-0.000595752
-0.000437884
-0.000591208
-0.000170708
-0.000170749
-0.000356872
-0.000363809
-0.000364059
-0.000154816
-0.000363126
-0.000594591
-0.000421122
-0.000414363
-0.000588365
-0.000588005
-0.000425795
-0.00042598
-0.000594754
-0.000421268
-0.00035713
-0.000239337
-0.000157591
-0.000325863
-0.000181957
-0.000325193
-0.00036624
-0.000354816
-0.000103179
-0.000161367
-0.000372616
-0.000354829
-0.000103173
-0.000161367
-0.000372649
-0.000430641
-0.000427725
-0.000527225
-0.000582729
-0.000424334
-0.000435113
-0.000572664
-0.00043065
-0.00042775
-0.000527217
-0.000582757
-0.000424339
-0.000435145
-0.000572672
-0.000436166
-0.000595546
-0.000437985
-0.000590142
-0.000436174
-0.000595576
-0.000438018
-0.000590149
-0.000154686
-0.000362965
-0.000154831
-0.000363174
-0.000414355
-0.000588311
-0.000588088
-0.000425761
-0.000426029
-0.000594582
-0.000421125
-0.000594794
-0.000421315
-0.000627999
-0.000713217
-0.000628113
-0.000713282
-0.000623782
-0.000623953
-0.000707359
-0.000710981
-0.000711101
-0.00081781
-0.000739946
-0.000817737
-0.000739935
-0.000735772
-0.000817243
-0.000817229
-0.000738431
-0.000738454
-0.000712844
-0.000629491
-0.000624817
-0.000712734
-0.000708148
-0.000619816
-0.000617702
-0.000693894
-0.000610054
-0.000709545
-0.000690943
-0.000708155
-0.000619816
-0.000617709
-0.000693725
-0.000610057
-0.000709572
-0.000690957
-0.000739787
-0.000817562
-0.000739463
-0.00081782
-0.000739793
-0.00081758
-0.000739489
-0.000817831
-0.000737264
-0.000750969
-0.000816396
-0.000801958
-0.000737783
-0.000749779
-0.000816035
-0.000737277
-0.000750897
-0.000816422
-0.000801974
-0.000737793
-0.000749774
-0.000816039
-0.000623841
-0.000623954
-0.000707378
-0.000710909
-0.000711086
-0.000628134
-0.000713324
-0.000817821
-0.000739943
-0.000735755
-0.00081728
-0.000817235
-0.000738376
-0.000738434
-0.000817721
-0.000739961
-0.00070909
-0.000620749
-0.000619368
-0.000694016
-0.000612211
-0.000709737
-0.000691801
-0.000712872
-0.000629639
-0.000625927
-0.000712805
-0.000709107
-0.000619375
-0.00062077
-0.000694085
-0.00061223
-0.000691809
-0.000709777
-0.000739658
-0.0008175
-0.000739426
-0.000817822
-0.000737091
-0.000750989
-0.000816328
-0.000802163
-0.000737624
-0.000750187
-0.000816439
-0.000739661
-0.000817516
-0.000739439
-0.000817833
-0.000737097
-0.000751035
-0.000802176
-0.000816344
-0.00075019
-0.00073765
-0.000816445
-0.000712875
-0.000629651
-0.000625923
-0.000712811
-0.000709112
-0.000619384
-0.000620783
-0.000694087
-0.00061224
-0.000691817
-0.000709787
-0.000712882
-0.000629647
-0.00062593
-0.000712816
-0.0007371
-0.000751018
-0.000816388
-0.000802153
-0.000737623
-0.000750188
-0.000816439
-0.000739667
-0.000817502
-0.000739438
-0.000817831
-0.000737105
-0.000751035
-0.000802182
-0.000816338
-0.000750196
-0.000737656
-0.000816444
-0.000739671
-0.000817517
-0.000739444
-0.000817836
-0.000623979
-0.000623809
-0.000707402
-0.000711136
-0.000711028
-0.000628034
-0.000713275
-0.000817757
-0.000739962
-0.000735815
-0.000817251
-0.000817247
-0.000738462
-0.000738468
-0.000817815
-0.000739991
-0.000708327
-0.000618424
-0.000619877
-0.000693976
-0.000610152
-0.000691459
-0.000709652
-0.000712893
-0.000629511
-0.000624885
-0.000712757
-0.000712903
-0.000629539
-0.000624892
-0.000712771
-0.000737371
-0.000751049
-0.000801969
-0.000816401
-0.000750009
-0.000737852
-0.000816072
-0.000737373
-0.000751059
-0.000801968
-0.000816413
-0.000750011
-0.000737866
-0.000816074
-0.000739819
-0.000817554
-0.000739498
-0.000817824
-0.000739824
-0.000817557
-0.000739511
-0.000817823
-0.000628149
-0.000713334
-0.000628057
-0.000713277
-0.000735818
-0.000817262
-0.000817235
-0.000738493
-0.000738473
-0.000817774
-0.000740002
-0.000817808
-0.000739985
-0.000843651
-0.000920505
-0.000843543
-0.000920406
-0.000843088
-0.000843004
-0.000918957
-0.000920276
-0.000920217
-0.00102389
-0.000946405
-0.00102379
-0.000946273
-0.000945332
-0.00102396
-0.00102389
-0.000946168
-0.000946051
-0.000920573
-0.000843416
-0.000843603
-0.000920395
-0.00091909
-0.000842664
-0.000852834
-0.000904948
-0.000842469
-0.000919484
-0.0009045
-0.00091909
-0.000842677
-0.000852842
-0.000904971
-0.000842471
-0.000919484
-0.000904502
-0.000946444
-0.0010239
-0.000946316
-0.00102415
-0.000946442
-0.0010239
-0.000946314
-0.00102416
-0.000945788
-0.000957502
-0.00102343
-0.00101022
-0.000945843
-0.000957144
-0.00102341
-0.000945788
-0.000957502
-0.00102342
-0.00101021
-0.000945847
-0.00095713
-0.00102341
-0.000843134
-0.000842994
-0.000918949
-0.000920268
-0.000920207
-0.000843522
-0.000920396
-0.00102389
-0.000946402
-0.000945338
-0.00102396
-0.00102388
-0.000946167
-0.000946038
-0.00102379
-0.000946264
-0.000919431
-0.000842493
-0.000852998
-0.000905019
-0.000842442
-0.000919333
-0.000904678
-0.000920419
-0.000843247
-0.000843453
-0.000920318
-0.000919443
-0.000853019
-0.000842505
-0.000905004
-0.000842445
-0.000904694
-0.000919337
-0.000946177
-0.00102384
-0.000946176
-0.00102404
-0.000945553
-0.000957578
-0.00102327
-0.0010104
-0.000945621
-0.000957344
-0.00102359
-0.000946181
-0.00102384
-0.000946176
-0.00102405
-0.000945561
-0.000957562
-0.00101041
-0.00102327
-0.000957352
-0.000945623
-0.0010236
-0.000920408
-0.000843222
-0.000843448
-0.000920308
-0.000919438
-0.000853023
-0.000842502
-0.000904996
-0.000842445
-0.000904694
-0.000919325
-0.000920415
-0.000843246
-0.000843452
-0.000920312
-0.000945548
-0.000957559
-0.00102325
-0.0010104
-0.000945609
-0.000957333
-0.00102359
-0.000946172
-0.00102384
-0.000946168
-0.00102404
-0.000945558
-0.00095755
-0.00101041
-0.00102327
-0.000957351
-0.000945612
-0.0010236
-0.000946177
-0.00102384
-0.000946169
-0.00102404
-0.000843021
-0.000843094
-0.000918984
-0.000920229
-0.000920261
-0.000843666
-0.00092049
-0.0010238
-0.00094628
-0.000945361
-0.0010239
-0.00102395
-0.000946059
-0.000946156
-0.00102386
-0.00094639
-0.000919094
-0.000852836
-0.00084267
-0.00090504
-0.000842501
-0.000904577
-0.000919479
-0.00092056
-0.000843375
-0.000843596
-0.000920383
-0.000920557
-0.000843373
-0.000843596
-0.00092038
-0.00094579
-0.000957678
-0.00101032
-0.00102344
-0.000957263
-0.000945847
-0.00102341
-0.000945789
-0.000957676
-0.00101031
-0.00102344
-0.000957262
-0.000945844
-0.00102341
-0.000946431
-0.00102388
-0.000946311
-0.00102414
-0.000946429
-0.00102388
-0.000946306
-0.00102414
-0.000843566
-0.000920414
-0.000843658
-0.000920481
-0.000945354
-0.00102389
-0.00102393
-0.000946055
-0.000946149
-0.00102379
-0.000946276
-0.00102386
-0.00094638
-0.00105006
-0.00112826
-0.00104994
-0.0011282
-0.00105008
-0.00104996
-0.00112911
-0.00112846
-0.00112841
-0.00123319
-0.00115463
-0.00123316
-0.00115455
-0.00115549
-0.00123338
-0.00123334
-0.00115474
-0.00115465
-0.00112882
-0.0010501
-0.00105037
-0.00112831
-0.00112837
-0.00105
-0.00106326
-0.00111587
-0.00105024
-0.00112813
-0.00111608
-0.00112837
-0.00105
-0.00106323
-0.00111575
-0.00105024
-0.00112813
-0.00111607
-0.00115521
-0.00123327
-0.00115469
-0.00123381
-0.00115521
-0.00123328
-0.00115471
-0.00123382
-0.00115528
-0.00116842
-0.0012331
-0.00122098
-0.00115483
-0.00116868
-0.00123345
-0.00115528
-0.00116836
-0.00123313
-0.001221
-0.00115484
-0.00116868
-0.00123346
-0.00105009
-0.00104994
-0.00112915
-0.00112838
-0.00112845
-0.00104994
-0.00112822
-0.0012332
-0.00115462
-0.00115542
-0.00123341
-0.00123335
-0.00115469
-0.00115466
-0.00123313
-0.00115457
-0.00112854
-0.00104981
-0.00106338
-0.0011159
-0.00105
-0.00112801
-0.00111616
-0.00112874
-0.00104998
-0.00105013
-0.00112826
-0.00112855
-0.0010634
-0.00104982
-0.00111587
-0.00105
-0.00111619
-0.00112802
-0.001155
-0.00123327
-0.00115457
-0.00123379
-0.00115505
-0.00116844
-0.00123299
-0.00122099
-0.00115466
-0.0011687
-0.00123363
-0.001155
-0.00123327
-0.0011546
-0.00123379
-0.00115505
-0.00116841
-0.00122101
-0.00123299
-0.00116873
-0.00115467
-0.00123364
-0.00112874
-0.00104997
-0.00105012
-0.00112827
-0.00112854
-0.0010634
-0.00104981
-0.00111586
-0.00105
-0.00111619
-0.00112801
-0.00112874
-0.00104997
-0.00105013
-0.00112826
-0.00115505
-0.00116846
-0.00123303
-0.00122099
-0.00115465
-0.00116873
-0.00123363
-0.001155
-0.00123326
-0.00115459
-0.00123379
-0.00115505
-0.0011684
-0.00122101
-0.00123299
-0.00116873
-0.00115466
-0.00123363
-0.001155
-0.00123327
-0.0011546
-0.00123379
-0.00104997
-0.00105006
-0.0011291
-0.00112842
-0.00112843
-0.00105004
-0.00112823
-0.00123316
-0.00115456
-0.00115549
-0.00123335
-0.00123334
-0.00115466
-0.00115471
-0.00123316
-0.0011546
-0.00112835
-0.0010633
-0.00105001
-0.00111597
-0.00105024
-0.00111611
-0.00112813
-0.00112878
-0.00105007
-0.00105035
-0.00112827
-0.00112878
-0.00105007
-0.00105035
-0.00112827
-0.00115526
-0.00116853
-0.001221
-0.00123308
-0.0011687
-0.00115483
-0.00123343
-0.00115526
-0.00116854
-0.00122099
-0.00123308
-0.00116869
-0.00115483
-0.00123343
-0.00115518
-0.00123324
-0.00115466
-0.00123378
-0.00115517
-0.00123323
-0.00115466
-0.00123378
-0.00104994
-0.0011282
-0.00105003
-0.00112823
-0.00115549
-0.00123336
-0.00123332
-0.00115465
-0.00115471
-0.00123317
-0.00115456
-0.00123315
-0.0011546
-0.00125959
-0.00133807
-0.00125954
-0.00133805
-0.00125969
-0.0012596
-0.00133947
-0.00133835
-0.00133833
-0.00144362
-0.00136452
-0.00144362
-0.00136446
-0.0013661
-0.00144412
-0.0014441
-0.00136477
-0.0013647
-0.00133875
-0.0012597
-0.00126022
-0.00133825
-0.00133864
-0.00125982
-0.00127326
-0.0013258
-0.00126035
-0.00133818
-0.00132596
-0.00133865
-0.00125984
-0.00127326
-0.00132581
-0.00126035
-0.00133817
-0.00132596
-0.00136519
-0.00144395
-0.00136474
-0.00144431
-0.00136519
-0.00144395
-0.00136473
-0.00144431
-0.00136565
-0.00137893
-0.00144409
-0.00143272
-0.00136504
-0.00137922
-0.00144466
-0.00136565
-0.00137892
-0.00144408
-0.0014327
-0.00136504
-0.00137921
-0.00144466
-0.00125972
-0.00125958
-0.00133948
-0.00133835
-0.00133833
-0.0012595
-0.00133804
-0.00144362
-0.00136452
-0.00136611
-0.00144412
-0.00144409
-0.00136477
-0.0013647
-0.00144361
-0.00136446
-0.00133879
-0.00125969
-0.00127329
-0.00132587
-0.00126013
-0.00133811
-0.00132603
-0.00133875
-0.00125963
-0.00126005
-0.00133826
-0.00133879
-0.00127332
-0.00125969
-0.00132584
-0.00126013
-0.00132606
-0.00133811
-0.00136505
-0.00144394
-0.00136469
-0.00144434
-0.00136543
-0.001379
-0.00144401
-0.00143271
-0.00136489
-0.00137927
-0.00144477
-0.00136505
-0.00144395
-0.00136469
-0.00144435
-0.00136543
-0.00137897
-0.00143274
-0.00144402
-0.00137928
-0.0013649
-0.00144478
-0.00133875
-0.00125961
-0.00126005
-0.00133827
-0.00133879
-0.00127332
-0.00125969
-0.00132584
-0.00126013
-0.00132605
-0.00133811
-0.00133875
-0.00125963
-0.00126005
-0.00133826
-0.00136543
-0.00137899
-0.00144399
-0.00143271
-0.00136489
-0.00137925
-0.00144476
-0.00136504
-0.00144394
-0.00136469
-0.00144434
-0.00136543
-0.00137896
-0.00143273
-0.00144401
-0.00137928
-0.0013649
-0.00144477
-0.00136505
-0.00144394
-0.00136469
-0.00144434
-0.0012596
-0.00125966
-0.00133948
-0.00133833
-0.00133833
-0.00125956
-0.00133804
-0.00144361
-0.00136447
-0.00136615
-0.0014441
-0.0014441
-0.00136471
-0.00136475
-0.0014436
-0.0013645
-0.00133863
-0.00127327
-0.00125982
-0.00132591
-0.00126033
-0.00132599
-0.00133816
-0.00133872
-0.00125966
-0.00126018
-0.00133822
-0.00133872
-0.00125965
-0.00126018
-0.00133822
-0.00136564
-0.00137903
-0.00143273
-0.00144407
-0.00137924
-0.00136503
-0.00144465
-0.00136564
-0.00137902
-0.00143273
-0.00144407
-0.00137924
-0.00136503
-0.00144465
-0.00136517
-0.00144393
-0.00136471
-0.00144429
-0.00136517
-0.00144392
-0.00136471
-0.00144429
-0.00125955
-0.00133805
-0.00125955
-0.00133803
-0.00136609
-0.00144409
-0.00144409
-0.00136471
-0.00136474
-0.00144361
-0.00136447
-0.00144359
-0.00136449
-0.00147048
-0.00155156
-0.00147048
-0.00155162
-0.00147095
-0.0014709
-0.00155406
-0.00155209
-0.00155212
-0.00166287
-0.00157926
-0.00166297
-0.0015793
-0.00158162
-0.00166337
-0.00166337
-0.00157969
-0.00157967
-0.00155224
-0.00147083
-0.00147119
-0.00155182
-0.00155271
-0.00147129
-0.00148638
-0.00154016
-0.00147202
-0.00155209
-0.00154054
-0.00155271
-0.00147129
-0.00148637
-0.00154008
-0.00147202
-0.00155211
-0.00154053
-0.00157993
-0.001663
-0.00157947
-0.00166356
-0.00157993
-0.00166302
-0.00157948
-0.00166357
-0.0015808
-0.00159519
-0.00166333
-0.00165136
-0.00158006
-0.00159555
-0.00166378
-0.00158081
-0.00159518
-0.00166337
-0.00165137
-0.00158009
-0.00159553
-0.00166378
-0.00147097
-0.00147088
-0.00155385
-0.00155206
-0.00155214
-0.00147048
-0.00155162
-0.0016629
-0.00157926
-0.00158147
-0.00166339
-0.00166333
-0.00157967
-0.00157968
-0.00166293
-0.0015793
-0.00155285
-0.00147117
-0.00148636
-0.00154019
-0.00147184
-0.00155204
-0.00154057
-0.00155234
-0.0014708
-0.00147109
-0.00155186
-0.00155286
-0.00148639
-0.00147117
-0.00154022
-0.00147184
-0.00154058
-0.00155206
-0.00157986
-0.00166307
-0.00157949
-0.00166359
-0.00158067
-0.00159522
-0.00166335
-0.00165145
-0.00157995
-0.00159561
-0.00166407
-0.00157986
-0.00166308
-0.00157948
-0.0016636
-0.00158068
-0.00159522
-0.00165147
-0.00166336
-0.00159562
-0.00157996
-0.00166407
-0.00155233
-0.00147082
-0.00147107
-0.00155187
-0.00155285
-0.00148638
-0.00147117
-0.00154022
-0.00147183
-0.00154057
-0.00155205
-0.00155233
-0.00147079
-0.00147108
-0.00155185
-0.00158067
-0.00159524
-0.00166335
-0.00165146
-0.00157998
-0.00159562
-0.00166406
-0.00157985
-0.00166305
-0.00157948
-0.00166359
-0.00158067
-0.00159522
-0.00165146
-0.00166335
-0.00159561
-0.00157995
-0.00166406
-0.00157985
-0.00166307
-0.00157947
-0.00166359
-0.0014709
-0.00147093
-0.00155407
-0.00155212
-0.00155208
-0.00147046
-0.00155155
-0.00166298
-0.0015793
-0.00158165
-0.00166338
-0.00166334
-0.00157968
-0.00157968
-0.00166284
-0.00157924
-0.0015527
-0.0014864
-0.00147128
-0.00154025
-0.00147201
-0.0015406
-0.00155209
-0.00155221
-0.00147082
-0.00147117
-0.00155178
-0.00155221
-0.00147081
-0.00147117
-0.00155179
-0.0015808
-0.00159529
-0.0016514
-0.00166332
-0.00159562
-0.00158007
-0.00166378
-0.0015808
-0.00159529
-0.0016514
-0.00166335
-0.00159562
-0.00158007
-0.00166379
-0.00157991
-0.00166297
-0.00157946
-0.00166354
-0.00157991
-0.00166299
-0.00157946
-0.00166354
-0.00147047
-0.0015516
-0.00147047
-0.00155155
-0.00158164
-0.00166337
-0.00166333
-0.00157967
-0.00157968
-0.00166297
-0.00157929
-0.00166286
-0.00157924
-0.00169147
-0.00177752
-0.0016915
-0.00177758
-0.00169177
-0.00169175
-0.00177908
-0.00177773
-0.00177779
-0.00189436
-0.00180675
-0.00189443
-0.0018068
-0.00180805
-0.00189439
-0.00189448
-0.00180684
-0.00180686
-0.00177784
-0.00169155
-0.0016921
-0.00177746
-0.00177773
-0.00169215
-0.00170785
-0.00176486
-0.00169269
-0.00177763
-0.001765
-0.00177772
-0.00169217
-0.00170788
-0.00176487
-0.00169269
-0.00177763
-0.00176501
-0.00180695
-0.00189425
-0.00180666
-0.0018943
-0.00180695
-0.00189425
-0.00180666
-0.0018943
-0.00180758
-0.00182258
-0.0018941
-0.00188077
-0.00180715
-0.00182272
-0.00189427
-0.00180758
-0.00182257
-0.0018941
-0.00188076
-0.00180715
-0.00182271
-0.00189427
-0.0016918
-0.00169171
-0.00177907
-0.00177773
-0.00177777
-0.00169146
-0.00177756
-0.00189437
-0.00180675
-0.00180804
-0.0018944
-0.00189445
-0.00180683
-0.00180685
-0.00189442
-0.00180679
-0.00177824
-0.00169217
-0.00170798
-0.00176489
-0.00169273
-0.00177775
-0.00176511
-0.00177791
-0.00169156
-0.00169196
-0.00177753
-0.00177825
-0.001708
-0.00169217
-0.00176486
-0.00169273
-0.00176513
-0.00177776
-0.00180693
-0.00189433
-0.00180671
-0.0018944
-0.00180754
-0.00182261
-0.00189428