/*--------------------------------*- C++ -*----------------------------------*\
| =========                 |                                                 |
| \\      /  F ield         | OpenFOAM: The Open Source CFD Toolbox           |
|  \\    /   O peration     | Version:  2206                                  |
|   \\  /    A nd           | Website:  www.openfoam.com                      |
|    \\/     M anipulation  |                                                 |
\*---------------------------------------------------------------------------*/
FoamFile
{
    version     2.0;
    format      ascii;
    arch        "LSB;label=32;scalar=64";
    class       surfaceScalarField;
    location    "0.3";
    object      phi;
}
// * * * * * * * * * * * * * * * * * * * * * * * * * * * * * * * * * * * * * //

dimensions      [0 3 -1 0 0 0 0];

oriented        oriented;

internalField   nonuniform List<scalar> 
198849
(
-1.32176e-07
1.00462e-08
9.22518e-09
5.74398e-10
2.38616e-10
1.12092e-07
-2.67659e-08
1.70108e-09
-9.22667e-09
-5.40072e-09
1.12796e-07
1.90994e-09
1.47382e-09
8.02551e-10
2.93328e-09
2.12102e-09
3.65556e-09
1.4173e-09
-2.77049e-08
-3.14247e-08
-2.82876e-08
-2.67617e-08
1.70017e-09
-9.22631e-09
-5.38564e-09
1.12772e-07
1.9085e-09
1.47271e-09
8.02046e-10
2.93126e-09
2.12053e-09
3.65466e-09
1.41672e-09
-3.14202e-08
-2.77008e-08
-2.82836e-08
-2.73825e-08
-9.52367e-10
-1.71222e-09
1.65316e-09
2.01376e-09
2.63802e-08
-3.60672e-11
-4.35266e-11
-1.12102e-07
3.95962e-11
4.1097e-11
1.12101e-07
-1.08908e-07
-4.17694e-11
4.24636e-11
-8.36095e-13
1.08931e-07
2.52489e-11
2.99087e-11
-2.29655e-11
-6.88587e-11
3.97448e-11
3.25845e-11
-5.86967e-11
-1.09878e-07
-4.8386e-11
3.87228e-11
2.5357e-12
1.09889e-07
1.10503e-11
3.36025e-11
-1.51639e-11
-4.0011e-12
1.2882e-11
-1.87866e-11
-2.31589e-11
-2.69143e-08
3.29016e-11
4.80578e-11
3.89562e-11
2.2167e-11
2.67722e-08
5.11803e-11
5.39797e-11
-1.1201e-07
-3.1351e-11
-2.9946e-11
1.11967e-07
-1.08928e-07
-2.3102e-11
-5.36321e-11
-2.37032e-11
1.08901e-07
4.41827e-11
3.82781e-11
-2.39598e-11
-4.63574e-11
7.90796e-11
7.89564e-11
-4.28198e-11
-1.09882e-07
-2.80252e-11
-5.39196e-11
-2.27729e-11
1.09856e-07
3.03266e-11
4.25868e-11
-1.0738e-11
1.17886e-11
4.71244e-11
1.87999e-11
-9.3874e-12
-2.69032e-08
1.3117e-11
2.78835e-11
6.64524e-11
4.88491e-11
2.67469e-08
8.32432e-11
8.62137e-11
-1.11768e-07
-4.81674e-11
-4.65238e-11
1.11693e-07
-1.08777e-07
-1.44053e-11
-8.66891e-11
-4.3226e-11
1.08729e-07
5.16308e-11
4.71852e-11
-1.02464e-11
-3.65108e-11
8.77185e-11
9.06816e-11
-3.79599e-11
-1.09731e-07
-1.9355e-11
-8.64332e-11
-4.33345e-11
1.09683e-07
3.92255e-11
5.08573e-11
-1.47727e-12
2.05913e-11
5.63207e-11
3.09688e-11
5.01441e-13
-2.68552e-08
5.04227e-12
1.97484e-11
7.40259e-11
5.63776e-11
2.67e-08
9.1891e-11
9.54791e-11
-1.11463e-07
-5.24581e-11
-5.10167e-11
1.11379e-07
-1.08587e-07
-1.23941e-11
-9.65094e-11
-5.04764e-11
1.08532e-07
5.44453e-11
5.20271e-11
-1.04417e-11
-3.07955e-11
8.797e-11
9.21857e-11
-3.09961e-11
-1.09533e-07
-1.71011e-11
-9.5148e-11
-4.97603e-11
1.09477e-07
4.0297e-11
5.56226e-11
1.83384e-12
2.58274e-11
5.74034e-11
3.34434e-11
3.90804e-12
-2.68146e-08
3.15253e-12
1.75304e-11
7.5565e-11
5.81438e-11
2.66602e-08
1.06462e-10
1.08524e-10
-1.11092e-07
-5.92937e-11
-5.60959e-11
1.10993e-07
-1.08343e-07
-1.13058e-11
-1.09472e-10
-5.58971e-11
1.08277e-07
5.25141e-11
5.64307e-11
4.66779e-14
-2.38743e-11
8.9963e-11
9.44451e-11
-2.70081e-11
-1.09282e-07
-1.58865e-11
-1.09802e-10
-5.45976e-11
1.09217e-07
4.04275e-11
6.01608e-11
5.10696e-12
3.27914e-11
6.05976e-11
3.76116e-11
9.39848e-12
-2.67717e-08
2.12763e-12
1.63456e-11
7.63215e-11
5.97057e-11
2.66172e-08
6.28575e-11
6.2842e-11
-1.10729e-07
-3.31269e-11
-3.16198e-11
1.10668e-07
-1.08123e-07
-2.03681e-11
-6.32754e-11
-3.41741e-11
1.08091e-07
4.187e-11
4.94117e-11
-1.45933e-11
-3.79978e-11
7.26886e-11
7.77146e-11
-3.93956e-11
-1.09055e-07
-2.56886e-11
-6.46078e-11
-3.39641e-11
1.0902e-07
2.7799e-11
5.25193e-11
-1.23684e-12
2.04301e-11
4.32483e-11
1.96705e-11
-3.13234e-12
-2.67438e-08
1.10797e-11
2.62007e-11
6.47799e-11
4.8703e-11
2.6593e-08
-7.87858e-12
-7.88894e-12
-1.10594e-07
5.14777e-12
5.54678e-12
1.10599e-07
-1.08064e-07
-3.52178e-11
7.74089e-12
-3.51403e-12
1.08067e-07
2.74034e-11
3.68933e-11
-2.1051e-11
-5.94263e-11
5.10902e-11
5.41364e-11
-6.15679e-11
-1.08992e-07
-3.96363e-11
6.71792e-12
-3.09777e-12
1.08997e-07
1.46886e-11
4.10828e-11
-1.31836e-11
2.99343e-12
1.86163e-11
-5.91894e-12
-2.65778e-11
-2.67523e-08
2.56311e-11
4.01634e-11
4.93887e-11
3.29326e-11
2.66042e-08
-2.15799e-11
-1.76625e-11
-1.1065e-07
9.65845e-12
1.18952e-11
1.10668e-07
-1.08089e-07
-3.81034e-11
1.69575e-11
3.92489e-12
1.08092e-07
2.58379e-11
3.50922e-11
-2.76732e-11
-6.1276e-11
5.02644e-11
5.1614e-11
-5.96465e-11
-1.09015e-07
-4.30184e-11
2.07737e-11
6.69195e-12
1.09017e-07
1.1535e-11
3.85298e-11
-1.60042e-11
8.20753e-13
1.59032e-11
-8.83912e-12
-2.88014e-11
-2.67639e-08
2.87566e-11
4.35363e-11
4.72169e-11
3.04274e-11
2.66139e-08
-8.10558e-12
-4.32227e-12
-1.10701e-07
2.24192e-12
4.90833e-12
1.10706e-07
-1.08092e-07
-3.64988e-11
4.01793e-12
1.33956e-12
1.08089e-07
2.62534e-11
3.60894e-11
-2.22747e-11
-5.74684e-11
5.40491e-11
5.61663e-11
-5.90294e-11
-1.09017e-07
-4.12171e-11
7.27377e-12
2.96741e-12
1.09016e-07
1.28221e-11
4.00047e-11
-1.50651e-11
3.70031e-12
2.07259e-11
-5.29345e-12
-2.48347e-11
-2.67624e-08
2.70853e-11
4.17282e-11
4.92004e-11
3.2428e-11
2.66119e-08
-2.7771e-12
7.9353e-13
-1.10712e-07
-1.15774e-12
1.97897e-12
1.10713e-07
-1.08088e-07
-3.58186e-11
-1.53144e-12
-4.84886e-13
1.08088e-07
2.73086e-11
3.6852e-11
-2.68022e-11
-5.65568e-11
5.51757e-11
5.75513e-11
-5.57987e-11
-1.09014e-07
-4.034e-11
1.73498e-12
2.73747e-13
1.09013e-07
1.35652e-11
4.06065e-11
-1.45561e-11
4.639e-12
2.2266e-11
-4.14724e-12
-2.3652e-11
-2.67608e-08
2.63845e-11
4.0863e-11
4.98985e-11
3.30983e-11
2.66105e-08
-4.4e-12
2.02338e-12
-1.10713e-07
-6.5995e-12
5.41783e-12
1.10716e-07
-1.08088e-07
-3.61386e-11
-8.80849e-12
1.38877e-11
1.08084e-07
2.71625e-11
3.65357e-11
-2.76564e-11
-5.69172e-11
5.52255e-11
5.76321e-11
-5.62123e-11
-1.09005e-07
-4.01126e-11
-1.08188e-10
1.82797e-10
1.36853e-11
3.68094e-11
-1.34587e-11
6.67789e-12
2.23561e-11
-4.2369e-12
-2.30987e-11
1.08931e-07
-2.67606e-08
2.66484e-11
4.01355e-11
5.0125e-11
3.30741e-11
2.66106e-08
-2.42791e-09
-2.47614e-09
2.73863e-08
-2.79345e-08
2.9004e-09
2.55185e-09
-7.15651e-11
2.67325e-08
-3.22063e-08
3.2351e-09
-1.17628e-10
2.4298e-09
-7.2408e-11
2.67342e-08
-3.22069e-08
3.23361e-09
-1.18339e-10
-2.4756e-09
2.73865e-08
-2.79341e-08
2.88073e-09
2.5723e-09
2.91587e-11
2.67672e-08
-3.2257e-08
3.10378e-09
-1.19279e-10
-7.16816e-11
2.42951e-09
2.6729e-08
-3.22017e-08
-1.17356e-10
3.23226e-09
-9.21313e-10
-9.84253e-10
-3.26511e-08
-3.17259e-08
-3.23981e-08
-3.23974e-08
-2.83573e-10
-1.16109e-09
8.70256e-10
-2.73098e-10
-1.18472e-09
8.91405e-10
-2.88144e-11
1.32178e-07
-9.26451e-10
-9.83559e-10
-3.2651e-08
-3.17261e-08
-3.23982e-08
-3.23973e-08
-2.83916e-10
-1.16087e-09
8.69297e-10
-2.72145e-10
-1.18408e-09
8.92387e-10
-2.89121e-11
1.3215e-07
-9.16136e-10
-9.77968e-10
-3.26472e-08
-3.17218e-08
-3.23934e-08
-3.23944e-08
-2.84084e-10
-1.16149e-09
8.694e-10
-2.7316e-10
-1.18434e-09
8.91444e-10
7.15697e-11
-2.88861e-11
1.32157e-07
-9.16493e-10
-9.84501e-10
-3.26475e-08
-3.17228e-08
-3.23934e-08
-3.23949e-08
-2.70532e-10
-1.16076e-09
8.70982e-10
-2.85601e-10
-1.18471e-09
8.90515e-10
-3.22567e-08
3.10584e-09
-1.19444e-10
2.42534e-09
2.67275e-08
-3.21998e-08
-1.17952e-10
3.23645e-09
-2.47421e-09
2.73817e-08
-2.79298e-08
2.87992e-09
2.57192e-09
-3.22525e-08
-1.18308e-10
3.10596e-09
2.47806e-09
2.67645e-08
-3.22549e-08
-1.18934e-10
3.10236e-09
-2.793e-08
2.9131e-09
2.53779e-09
-9.5261e-10
-1.71209e-09
1.64904e-09
2.0186e-09
2.63834e-08
-1.22317e-11
-1.85269e-11
2.69052e-08
-2.67303e-08
-7.1043e-11
-7.30423e-11
-4.98979e-09
1.14298e-07
1.30238e-09
1.57365e-09
9.79507e-10
2.93098e-09
2.12989e-09
3.6533e-09
1.4161e-09
-2.78057e-08
-3.1415e-08
-2.8247e-08
9.52447e-10
-1.00503e-08
-4.99695e-09
1.14321e-07
1.31264e-09
1.57499e-09
9.84465e-10
2.93036e-09
2.11868e-09
3.65149e-09
1.41018e-09
-2.78063e-08
-3.14177e-08
-2.82505e-08
1.10897e-07
-6.70601e-10
-1.10589e-07
-7.06833e-10
-8.29933e-11
-2.70294e-11
4.25015e-11
3.37359e-10
8.29364e-11
2.47713e-10
4.57507e-10
1.22913e-11
1.10922e-07
-6.6995e-10
-1.10613e-07
-7.07825e-10
-8.30157e-11
-2.75117e-11
4.36463e-11
3.36719e-10
8.292e-11
2.46028e-10
4.57761e-10
1.6336e-09
2.02551e-09
2.63809e-08
-1.88074e-11
2.69054e-08
-2.67301e-08
-7.04805e-11
-7.36782e-11
-5.40301e-09
1.12805e-07
1.93236e-09
1.4631e-09
7.96244e-10
2.93173e-09
2.10951e-09
3.65329e-09
1.41043e-09
-2.77037e-08
-3.14263e-08
-2.82887e-08
9.53246e-10
-1.00405e-08
-4.98932e-09
1.14276e-07
1.31313e-09
1.57431e-09
9.83806e-10
2.93088e-09
2.11843e-09
3.65115e-09
1.41051e-09
-3.14099e-08
-2.77995e-08
-2.82428e-08
1.08918e-07
2.04055e-10
-1.08833e-07
5.58995e-11
-7.84788e-11
-4.44857e-11
-1.61551e-11
-2.61303e-11
-8.56288e-11
-1.75929e-11
-9.53242e-11
7.95288e-12
1.0992e-07
1.98827e-10
-1.09839e-07
7.18849e-11
-7.1985e-11
-4.04568e-11
-2.09358e-11
-4.85902e-11
-8.49216e-11
-1.89268e-11
-7.42714e-11
-1.004e-08
-4.99061e-09
1.1427e-07
1.30225e-09
1.57272e-09
9.78759e-10
2.93221e-09
2.12983e-09
1.41695e-09
3.65342e-09
-3.14093e-08
-2.77997e-08
-2.82411e-08
2.03563e-10
-1.08822e-07
5.61464e-11
-7.89715e-11
-4.38526e-11
-1.66848e-11
-2.63598e-11
-8.57573e-11
-9.49456e-11
-1.74336e-11
8.04593e-12
1.09916e-07
1.98013e-10
-1.09835e-07
7.19223e-11
-7.19432e-11
-3.97808e-11
-2.09735e-11
-4.84655e-11
-8.47337e-11
-1.87791e-11
-7.41932e-11
1.63355e-09
2.02487e-09
2.63767e-08
-2.12439e-11
2.69096e-08
-2.6735e-08
-8.14282e-11
-6.40132e-11
-9.22771e-09
-5.39651e-09
1.12798e-07
1.93232e-09
1.4618e-09
7.95467e-10
2.93008e-09
2.10935e-09
1.41023e-09
3.65282e-09
-3.14239e-08
-2.77026e-08
-2.82875e-08
-6.11539e-10
-1.09551e-07
-7.81335e-10
-8.83987e-11
-3.23294e-11
4.41245e-11
3.59313e-10
8.06085e-11
4.33914e-10
2.47505e-10
2.1261e-11
1.09911e-07
-6.1165e-10
-1.09583e-07
-7.82568e-10
-8.81763e-11
-3.31844e-11
4.53593e-11
3.58962e-10
8.05577e-11
2.46382e-10
4.34405e-10
-2.67401e-08
-8.1519e-11
-6.33629e-11
4.12923e-11
4.16152e-11
3.11635e-11
2.96099e-11
2.67615e-08
-3.10086e-11
-3.43161e-11
2.68937e-08
-2.67507e-08
-3.87555e-11
-3.8937e-11
3.33205e-12
1.10908e-07
7.26214e-12
2.55518e-11
-8.12175e-12
1.70582e-11
1.22254e-11
-4.3151e-11
-2.04972e-11
-4.11028e-11
3.59357e-11
3.37455e-12
1.10934e-07
7.85273e-12
2.62032e-11
-1.23448e-11
1.70937e-11
1.20837e-11
-4.35505e-11
-1.73572e-11
1.10899e-07
-4.71694e-11
-1.10907e-07
-2.61598e-11
-2.20451e-11
-7.64574e-12
2.58212e-11
-9.31923e-12
-1.08784e-11
4.449e-11
2.89899e-11
3.15871e-11
1.10926e-07
-4.59198e-11
-1.10937e-07
-2.65368e-11
-2.2375e-11
-7.54358e-12
3.13871e-11
-9.44662e-12
-1.12044e-11
4.1992e-11
2.92956e-11
3.04701e-11
3.03344e-11
2.67617e-08
-3.45134e-11
2.68947e-08
-2.67511e-08
-3.80237e-11
-3.94857e-11
-5.83124e-13
1.08943e-07
2.60153e-11
2.95728e-11
-2.90141e-11
-6.94856e-11
3.97436e-11
3.27882e-11
-5.6271e-11
-3.2935e-11
4.24223e-11
1.43e-12
1.0994e-07
2.32106e-11
1.99154e-11
-2.35826e-11
-4.83467e-11
3.87441e-11
1.42995e-11
-5.53845e-11
1.08937e-07
-4.58283e-11
-1.08948e-07
-2.3254e-11
-2.54971e-11
-2.74525e-11
4.2632e-11
7.55796e-11
-4.61701e-11
7.71054e-11
-5.1391e-11
2.46751e-11
1.09936e-07
-4.69133e-11
-1.09943e-07
-2.52792e-11
-1.63448e-11
-2.30504e-11
3.97891e-11
5.42441e-11
-4.55534e-11
7.57567e-11
-3.04996e-11
4.16488e-11
1.45913e-12
1.09937e-07
2.27685e-11
1.99116e-11
-2.2948e-11
-4.83103e-11
3.89796e-11
-5.54354e-11
1.43737e-11
-4.67282e-11
-1.08935e-07
-2.34917e-11
-2.62526e-11
-2.69763e-11
3.93821e-11
7.52478e-11
-4.65994e-11
-5.17011e-11
7.95297e-11
2.43728e-11
1.09932e-07
-4.66378e-11
-1.0994e-07
-2.51761e-11
-1.6128e-11
-2.27755e-11
3.96295e-11
5.46375e-11
-4.59052e-11
7.66946e-11
-3.07466e-11
3.86465e-11
2.3078e-11
2.67666e-08
-3.86663e-11
2.68976e-08
-2.67558e-08
-4.70876e-11
-3.13826e-11
3.88025e-11
1.9787e-12
1.09922e-07
1.18807e-11
3.36454e-11
-1.56529e-11
-3.62614e-12
1.24995e-11
-2.2857e-11
-1.94432e-11
-4.65916e-11
-1.09889e-07
-2.18754e-11
-3.12236e-11
-1.43222e-11
2.87982e-11
1.47139e-11
-1.35959e-11
7.66612e-12
4.51116e-11
3.85254e-11
1.09917e-07
-4.72494e-11
-1.09923e-07
-2.22573e-11
-3.10563e-11
-1.47506e-11
2.87898e-11
1.4675e-11
-1.32762e-11
4.48857e-11
7.61057e-12
-2.67615e-08
-4.77567e-11
-3.10193e-11
1.91256e-11
2.2773e-11
5.81617e-11
5.71615e-11
2.67365e-08
-4.36587e-11
-4.61778e-11
2.6845e-08
-2.67003e-08
-2.68595e-11
-2.79342e-11
-2.66646e-11
1.10871e-07
2.7284e-11
3.52703e-11
-3.82291e-12
3.35851e-11
4.61983e-11
-6.40627e-12
-6.94178e-12
-1.93925e-11
-5.30411e-11
-2.68701e-11
1.109e-07
2.80983e-11
3.55275e-11
-4.25027e-12
3.35368e-11
4.63165e-11
-6.6221e-12
-7.02397e-12
1.10744e-07
-8.06321e-11
-1.1079e-07
-4.4794e-11
-1.13373e-11
2.9807e-12
3.50229e-11
2.05339e-12
1.82381e-12
5.58355e-11
4.16931e-11
4.40393e-11
1.10774e-07
-8.04122e-11
-1.1082e-07
-4.56142e-11
-1.13787e-11
3.01769e-12
3.549e-11
1.46108e-12
1.99166e-12
5.52606e-11
4.2225e-11
5.72969e-11
5.77467e-11
2.67372e-08
-4.63132e-11
2.68458e-08
-2.67006e-08
-2.66566e-11
-2.82229e-11
-2.36736e-11
1.08913e-07
4.38394e-11
3.77664e-11
-2.45048e-11
-4.66983e-11
7.84594e-11
7.86375e-11
-4.27631e-11
-1.30779e-11
-5.35689e-11
-2.59307e-11
1.0991e-07
4.12968e-11
2.84928e-11
-1.97238e-11
-2.51712e-11
7.77093e-11
5.80394e-11
-4.18005e-11
1.08789e-07
-8.34465e-11
-1.08835e-07
-4.06319e-11
-1.51948e-11
-1.71559e-11
5.17122e-11
8.97102e-11
-3.57229e-11
8.70271e-11
-3.73522e-11
3.69728e-11
1.09786e-07
-8.2666e-11
-1.09832e-07
-4.39886e-11
-5.9239e-12
-1.20777e-11
4.89704e-11
6.86351e-11
-3.47705e-11
8.59348e-11
-1.57068e-11
-5.44343e-11
-2.60021e-11
1.09907e-07
4.08147e-11
2.84611e-11
-1.94668e-11
-2.54093e-11
7.83453e-11
-4.24565e-11
5.84425e-11
-8.39706e-11
-1.08822e-07
-4.07091e-11
-1.55552e-11
-1.60906e-11
5.09249e-11
8.97334e-11
-3.57304e-11
-3.72679e-11
8.73508e-11
3.69208e-11
1.09782e-07
-8.29114e-11
-1.09827e-07
-4.4092e-11
-5.99449e-12
-1.18855e-11
4.87379e-11
6.90544e-11
-3.51193e-11
8.66099e-11
-1.59441e-11
6.52628e-11
4.96388e-11
2.67416e-08
-4.99513e-11
2.68492e-08
-2.67054e-08
-3.63412e-11
-2.05407e-11
-5.33998e-11
-2.30813e-11
1.09891e-07
3.06035e-11
4.2677e-11
-1.08567e-11
1.19755e-11
4.66101e-11
-9.07555e-12
1.84407e-11
-8.36899e-11
-1.09776e-07
-4.1001e-11
-2.029e-11
-2.81305e-12
3.82347e-11
2.96093e-11
-1.17203e-13
1.95574e-11
5.58727e-11
5.06136e-11
1.09767e-07
-8.37015e-11
-1.09813e-07
-4.1329e-11
-2.06753e-11
-2.50521e-12
3.82037e-11
2.95617e-11
1.33485e-13
5.53359e-11
1.97586e-11
-2.67105e-08
-3.69535e-11
-2.02855e-11
1.02564e-11
1.41246e-11
6.63795e-11
6.44178e-11
2.66898e-08
-4.76043e-11
-5.00227e-11
2.6804e-08
-2.66598e-08
-2.25307e-11
-2.40255e-11
-4.78011e-11
1.10695e-07
3.61217e-11
4.46808e-11
3.61888e-12
4.27247e-11
5.67016e-11
4.05752e-12
2.26739e-12
-1.03714e-11
-8.26606e-11
-4.72923e-11
1.10725e-07
3.6052e-11
4.47943e-11
1.19752e-12
4.30182e-11
5.62339e-11
3.16643e-12
4.34283e-12
1.10544e-07
-8.74011e-11
-1.10596e-07
-5.21851e-11
-8.91016e-12
5.49128e-12
3.69033e-11
4.99432e-12
3.80504e-12
5.66644e-11
4.52879e-11
4.75865e-11
1.10574e-07
-8.77587e-11
-1.10629e-07
-5.23283e-11
-9.35153e-12
5.96259e-12
4.27639e-11
4.69138e-12
3.97299e-12
5.34266e-11
4.58184e-11
6.5435e-11
6.55589e-11
2.669e-08
-5.01331e-11
2.68051e-08
-2.66605e-08
-2.22061e-11
-2.46624e-11
-4.32148e-11
1.08743e-07
5.27945e-11
4.71655e-11
-1.60952e-11
-3.66014e-11
8.73647e-11
9.06222e-11
-3.53339e-11
-4.97043e-12
-8.53832e-11
-4.65656e-11
1.0974e-07
5.00647e-11
3.79477e-11
-1.10712e-11
-1.48989e-11
8.63278e-11
6.95481e-11
-3.43684e-11
1.08598e-07
-9.00475e-11
-1.08648e-07
-4.78734e-11
-1.2744e-11
-1.32384e-11
5.35453e-11
9.08309e-11
-3.34526e-11
8.65963e-11
-3.35238e-11
4.09354e-11
1.09595e-07
-8.95249e-11
-1.09645e-07
-5.13992e-11
-3.75092e-12
-8.48614e-12
5.05359e-11
6.98673e-11
-3.24092e-11
8.5614e-11
-1.15169e-11
-8.56233e-11
-4.66494e-11
1.09735e-07
4.98099e-11
3.79018e-11
-1.09206e-11
-1.51427e-11
8.70252e-11
-3.46962e-11
6.99738e-11
-9.08572e-11
-1.08636e-07
-4.82884e-11
-1.33358e-11
-1.12969e-11
4.99627e-11
9.08803e-11
-3.33833e-11
-3.34791e-11
8.9556e-11
4.08601e-11
1.09591e-07
-8.99196e-11
-1.09641e-07
-5.13532e-11
-3.83967e-12
-8.21716e-12
5.02772e-11
7.02764e-11
-3.27544e-11
8.62992e-11
-1.17887e-11
7.28118e-11
5.72187e-11
2.66948e-08
-5.37755e-11
2.68085e-08
-2.66651e-08
-3.2311e-11
-1.63893e-11
-8.64612e-11
-4.34844e-11
1.0972e-07
3.91825e-11
5.15028e-11
-1.29568e-12
2.05287e-11
5.5782e-11
7.43613e-13
3.06055e-11
-9.04797e-11
-1.09585e-07
-4.76675e-11
-1.79014e-11
7.02958e-13
3.99258e-11
3.15257e-11
2.18878e-12
2.31758e-11
5.62345e-11
5.43481e-11
1.09571e-07
-9.03989e-11
-1.09622e-07
-4.78484e-11
-1.83183e-11
9.78365e-13
3.98877e-11
3.14921e-11
2.36304e-12
5.56856e-11
2.33967e-11
-2.66703e-08
-3.29995e-11
-1.61774e-11
8.1692e-12
1.19922e-11
6.81726e-11
6.60379e-11
2.66496e-08
-5.39152e-11
-5.55772e-11
2.67609e-08
-2.66174e-08
-1.60057e-11
-1.80496e-11
-5.4562e-11
1.10486e-07
3.72341e-11
4.95215e-11
6.64383e-12
4.83177e-11
5.77408e-11
7.06598e-12
5.75052e-12
-8.65109e-12
-9.2158e-11
-5.42201e-11
1.10518e-07
3.85659e-11
4.96209e-11
6.48585e-12
4.81793e-11
5.70632e-11
6.23577e-12
5.61743e-12
1.10288e-07
-1.05819e-10
-1.10357e-07
-6.00463e-11
-6.36703e-12
9.87563e-12
3.81334e-11
1.16446e-11
1.12981e-11
6.0795e-11
5.48728e-11
5.4131e-11
1.10321e-07
-1.05335e-10
-1.10389e-07
-6.02094e-11
-6.55711e-12
9.85395e-12
3.83721e-11
1.14605e-11
1.08978e-11
6.06608e-11
5.47812e-11
6.71005e-11
6.68096e-11
2.66501e-08
-5.6074e-11
2.6762e-08
-2.66176e-08
-1.57117e-11
-1.84695e-11
-5.04721e-11
1.08544e-07
5.39343e-11
5.18371e-11
-1.16145e-11
-3.07566e-11
8.74664e-11
9.2155e-11
-3.09924e-11
-3.04144e-12
-9.47715e-11
-5.42905e-11
1.09541e-07
5.08276e-11
4.28941e-11
-6.62818e-12
-8.47771e-12
8.64641e-11
7.11656e-11
-2.99635e-11
1.08355e-07
-1.08686e-10
-1.08421e-07
-5.59972e-11
-1.02452e-11
-7.14905e-12
5.45421e-11
9.53733e-11
-2.43835e-11
9.0506e-11
-2.40037e-11
4.69975e-11
1.09351e-07
-1.08331e-10
-1.09417e-07
-6.06919e-11
-1.70182e-12
-1.17353e-12
5.15085e-11
7.42417e-11
-2.3501e-11
8.93106e-11
-8.88964e-13
-9.51915e-11
-5.42159e-11
1.09537e-07
5.05917e-11
4.28326e-11
-6.2863e-12
-8.77967e-12
8.71502e-11
-3.02958e-11
7.1555e-11
-1.09617e-10
-1.08409e-07
-5.61102e-11
-1.0821e-11
-5.8827e-12
5.36736e-11
9.54153e-11
-2.43534e-11
-2.39131e-11
9.08706e-11
4.70093e-11
1.09347e-07
-1.08716e-10
-1.09413e-07
-6.07674e-11
-1.75585e-12
-9.88731e-13
5.12825e-11
7.4624e-11
-2.38429e-11
8.99892e-11
-1.12918e-12
7.44144e-11
5.8986e-11
2.66549e-08
-5.9699e-11
2.67654e-08
-2.66226e-08
-2.6544e-11
-9.59669e-12
-9.50087e-11
-4.98046e-11
1.09515e-07
4.03021e-11
5.6164e-11
2.02677e-12
2.57717e-11
5.68493e-11
4.07009e-12
3.30955e-11
-1.08892e-10
-1.09349e-07
-5.47833e-11
-1.54418e-11
4.81328e-12
4.11822e-11
3.78846e-11
9.13772e-12
3.21756e-11
6.12279e-11
6.02515e-11
1.0932e-07
-1.08687e-10
-1.09387e-07
-5.48197e-11
-1.59021e-11
4.98197e-12
4.11793e-11
3.78522e-11
9.31348e-12
6.06492e-11
3.23957e-11
-2.66279e-08
-2.7319e-11
-9.18878e-12
6.86129e-12
1.06848e-11
6.9361e-11
6.75791e-11
2.66064e-08
-5.02269e-11
-5.24879e-11
2.67328e-08
-2.65845e-08
-2.15517e-11
-2.40912e-11
-5.98739e-11
1.10222e-07
3.72211e-11
5.43298e-11
1.01695e-11
5.51719e-11
6.01298e-11
1.09414e-11
1.15249e-11
-7.10691e-12
-1.06203e-10
-5.91038e-11
1.10255e-07
3.70884e-11
5.42941e-11
7.41191e-12
5.52176e-11
6.00887e-11
1.08798e-11
1.34428e-11
1.10059e-07
-8.12418e-11
-1.10104e-07
-4.75179e-11
-1.25532e-11
6.43218e-12
2.91595e-11
-1.00889e-12
4.82126e-12
4.93666e-11
4.7419e-11
5.03077e-11
1.10091e-07
-8.14877e-11
-1.10139e-07
-4.68671e-11
-1.29478e-11
6.49259e-12
3.47109e-11
-1.24006e-12
4.78084e-12
4.68559e-11
4.77413e-11
6.84477e-11
6.84014e-11
2.66068e-08
-5.29744e-11
2.67341e-08
-2.6585e-08
-2.1117e-11
-2.46982e-11
-5.59014e-11
1.08292e-07
5.38092e-11
5.61117e-11
-6.56043e-12
-2.39927e-11
8.96267e-11
9.43934e-11
-2.44138e-11
-2.1082e-12
-1.08057e-10
-6.03882e-11
1.09287e-07
5.07788e-11
4.75189e-11
-7.68756e-13
-9.61873e-13
8.84249e-11
7.3195e-11
-2.358e-11
1.08135e-07
-8.24062e-11
-1.08179e-07
-4.29002e-11
-1.60048e-11
-1.16443e-11
4.64311e-11
8.39856e-11
-3.33813e-11
7.871e-11
-3.20882e-11
4.38031e-11
1.09131e-07
-8.20409e-11
-1.09174e-07
-4.58608e-11
-7.08441e-12
-6.63084e-12
4.31319e-11
6.28875e-11
-3.2492e-11
7.76473e-11
-1.02711e-11
-1.08324e-10
-6.04913e-11
1.09283e-07
5.05103e-11
4.7532e-11
-5.50206e-13
-1.22023e-12
8.90941e-11
-2.39301e-11
7.3564e-11
-8.31688e-11
-1.08166e-07
-4.31844e-11
-1.66701e-11
-1.01423e-11
4.27704e-11
8.39876e-11
-3.3396e-11
-3.20939e-11
8.17017e-11
4.37972e-11
1.09126e-07
-8.19974e-11
-1.09169e-07
-4.57804e-11
-7.13363e-12
-6.49477e-12
4.30182e-11
6.31863e-11
-3.29702e-11
7.8186e-11
-1.06646e-11
7.52337e-11
6.04263e-11
2.66118e-08
-5.59983e-11
2.67375e-08
-2.659e-08
-3.21964e-11
-1.54879e-11
-1.09603e-10
-5.45289e-11
1.09255e-07
4.03895e-11
6.07098e-11
5.30824e-12
3.27397e-11
6.00302e-11
9.58138e-12
3.7271e-11
-8.40141e-11
-1.09101e-07
-4.23269e-11
-2.17448e-11
1.61928e-12
3.21714e-11
2.63592e-11
2.85904e-12
2.53157e-11
4.97285e-11
5.65149e-11
1.09093e-07
-8.4027e-11
-1.09139e-07
-4.22058e-11
-2.22929e-11
1.84178e-12
3.21161e-11
2.63889e-11
3.018e-12
4.92781e-11
2.55895e-11
-2.65953e-08
-3.29615e-11
-1.51337e-11
1.66083e-11
1.98335e-11
5.79433e-11
5.63368e-11
2.65821e-08
-3.60281e-11
-3.8642e-11
2.67411e-08
-2.65884e-08
-3.88895e-11
-3.92023e-11
-3.94711e-11
1.10025e-07
2.41777e-11
4.64363e-11
3.77596e-12
4.18538e-11
4.24964e-11
-5.89014e-12
3.69421e-14
-1.70827e-11
-6.32764e-11
-3.88833e-11
1.10057e-07
2.47124e-11
4.64926e-11
3.43859e-12
4.21246e-11
4.21865e-11
-6.1556e-12
-5.03777e-14
1.09995e-07
-5.7859e-12
-1.09995e-07
-1.01266e-11
-2.89447e-11
-5.11396e-12
1.18776e-11
-2.28847e-11
-2.14138e-11
2.15005e-11
2.56143e-11
3.61367e-11
1.10027e-07
-5.50917e-12
-1.10027e-07
-1.02106e-11
-2.91743e-11
-5.41198e-12
1.1999e-11
-2.31676e-11
-2.11265e-11
2.10018e-11
2.58794e-11
5.71251e-11
5.70437e-11
2.65825e-08
-3.91176e-11
2.67421e-08
-2.65888e-08
-3.82687e-11
-3.97933e-11
-3.40323e-11
1.08104e-07
4.19113e-11
4.88794e-11
-1.55035e-11
-3.79431e-11
7.24019e-11
7.77692e-11
-3.92708e-11
-1.10241e-11
-6.28178e-11
-3.62954e-11
1.09099e-07
3.85153e-11
4.01382e-11
-1.07327e-11
-1.63994e-11
7.14429e-11
5.67096e-11
-3.82773e-11
1.08076e-07
-3.82897e-12
-1.08076e-07
-9.07491e-12
-3.20736e-11
-2.50037e-11
3.03543e-11
5.83203e-11
-5.58001e-11
5.42944e-11
-5.57405e-11
3.00798e-11
1.09072e-07
-3.84326e-12
-1.09072e-07
-9.69141e-12
-2.29292e-11
-2.0768e-11
2.65163e-11
3.68553e-11
-5.48817e-11
5.32762e-11
-3.47624e-11
-6.27151e-11
-3.6136e-11
1.09095e-07
3.82301e-11
4.01168e-11
-1.05946e-11
-1.67703e-11
7.19723e-11
-3.8747e-11
5.70077e-11
-4.18753e-12
-1.08064e-07
-9.04123e-12
-3.2639e-11
-2.39356e-11
2.95881e-11
5.83257e-11
-5.59107e-11
-5.57185e-11
5.45275e-11
3.01011e-11
1.09068e-07
-3.85225e-12
-1.09068e-07
-9.78111e-12
-2.29495e-11
-2.05799e-11
2.62815e-11
3.72046e-11
-5.53574e-11
5.38022e-11
-3.50727e-11
6.37981e-11
4.93925e-11
2.65876e-08
-4.34796e-11
2.67461e-08
-2.65945e-08
-4.70295e-11
-3.10205e-11
-6.45998e-11
-3.3759e-11
1.09058e-07
2.76593e-11
5.30097e-11
-1.07706e-12
2.04048e-11
4.27819e-11
-2.67903e-12
1.93538e-11
-6.91878e-12
-1.08992e-07
-1.01419e-11
-3.67248e-11
-1.09718e-11
1.72517e-11
-2.83147e-12
-2.24941e-11
5.64393e-12
2.32907e-11
4.39834e-11
1.0903e-07
-6.8994e-12
-1.0903e-07
-1.00201e-11
-3.72496e-11
-1.08408e-11
1.71058e-11
-2.81804e-12
-2.21011e-11
2.28874e-11
5.8591e-12
-2.65998e-08
-4.79417e-11
-3.05135e-11
3.18941e-11
3.46534e-11
4.11356e-11
4.07918e-11
2.65927e-08
-3.08109e-11
-3.43743e-11
2.67526e-08
-2.66015e-08
-4.29881e-11
-4.28434e-11
-2.59122e-12
1.09999e-07
9.13441e-12
3.36264e-11
-7.54877e-12
2.22464e-11
1.69034e-11
-2.6802e-11
-2.54468e-11
-3.22498e-11
7.94675e-12
-1.76531e-12
1.10034e-07
8.82872e-12
3.33696e-11
-1.19956e-11
2.24613e-11
1.63288e-11
-2.71576e-11
-2.27184e-11
1.10017e-07
2.27065e-11
-1.10012e-07
8.97478e-12
-3.55057e-11
-1.06263e-11
5.54307e-12
-3.06314e-11
-2.84366e-11
1.31973e-11
1.91427e-11
3.09751e-11
1.10048e-07
2.28154e-11
-1.10045e-07
9.27791e-12
-3.57793e-11
-1.14403e-11
1.06623e-11
-3.10127e-11
-2.82843e-11
9.84418e-12
1.92694e-11
3.99252e-11
4.18546e-11
2.65929e-08
-3.49721e-11
2.67535e-08
-2.66019e-08
-4.20996e-11
-4.35497e-11
-3.57675e-12
1.08081e-07
2.83561e-11
3.66359e-11
-2.6617e-11
-5.94723e-11
5.08292e-11
5.40967e-11
-5.88915e-11
-2.56014e-11
8.01001e-12
-3.61317e-12
1.09078e-07
2.43945e-11
2.79763e-11
-2.2498e-11
-3.85549e-11
4.97816e-11
3.24816e-11
-5.79857e-11
1.08101e-07
2.02661e-11
-1.08096e-07
4.28415e-12
-3.76484e-11
-2.85419e-11
2.61843e-11
5.03926e-11
-6.07101e-11
4.86972e-11
-6.24155e-11
2.54964e-11
1.09098e-07
2.04544e-11
-1.09093e-07
4.84806e-12
-2.8827e-11
-2.46247e-11
2.19874e-11
2.86816e-11
-5.97699e-11
4.76606e-11
-4.14809e-11
7.99331e-12
-3.59305e-12
1.09073e-07
2.41594e-11
2.79825e-11
-2.23002e-11
-3.88655e-11
5.03125e-11
-5.84571e-11
3.28345e-11
1.97353e-11
-1.08083e-07
3.95082e-12
-3.84145e-11
-2.7587e-11
2.1929e-11
5.05325e-11
-6.06396e-11
-6.2261e-11
5.17082e-11
2.55351e-11
1.09094e-07
2.041e-11
-1.09088e-07
4.78372e-12
-2.88325e-11
-2.44177e-11
2.17739e-11
2.90267e-11
-6.02762e-11
4.81554e-11
-4.17957e-11
4.85047e-11
3.35036e-11
2.65989e-08
-3.84239e-11
2.67578e-08
-2.66079e-08
-5.08458e-11
-3.50792e-11
6.81665e-12
-2.88269e-12
1.09034e-07
1.45286e-11
4.15822e-11
-1.30468e-11
2.94278e-12
1.81643e-11
-2.62094e-11
-6.16037e-12
2.19299e-11
-1.0901e-07
6.78489e-12
-4.30825e-11
-1.59079e-11
1.15593e-11
-9.73141e-12
-2.96826e-11
-1.90052e-13
1.48077e-11
3.89435e-11
1.09052e-07
2.19889e-11
-1.09047e-07
6.86201e-12
-4.35982e-11
-1.57823e-11
1.13841e-11
-9.7288e-12
-2.92942e-11
1.43654e-11
6.632e-14
-2.66131e-08
-5.17687e-11
-3.45257e-11
3.54258e-11
3.75339e-11
3.86303e-11
3.87056e-11
2.66023e-08
-3.21103e-11
-3.54265e-11
2.67509e-08
-2.66009e-08
-4.11871e-11
-4.1242e-11
8.61599e-12
1.1002e-07
5.54608e-12
3.09308e-11
-1.06921e-11
1.97699e-11
1.43294e-11
-2.99108e-11
-2.75325e-11
-3.58775e-11
2.22576e-11
9.22054e-12
1.10052e-07
5.58963e-12
3.11081e-11
-1.14758e-11
1.99363e-11
1.36218e-11
-3.03354e-11
-2.73279e-11
1.1002e-07
1.03685e-11
-1.1002e-07
5.60506e-12
-3.39519e-11
-9.88608e-12
6.72166e-12
-2.66146e-11
-2.42309e-11
1.82904e-11
2.25266e-11
3.22866e-11
1.10051e-07
1.05748e-11
-1.10052e-07
5.50772e-12
-3.41602e-11
-1.01358e-11
6.85913e-12
-2.69409e-11
-2.39371e-11
1.7725e-11
2.27621e-11
3.7553e-11
3.93187e-11
2.66027e-08
-3.59258e-11
2.67519e-08
-2.66014e-08
-4.04874e-11
-4.18342e-11
4.33055e-12
1.08104e-07
2.62684e-11
3.45263e-11
-2.85189e-11
-6.14256e-11
4.98439e-11
5.1474e-11
-5.96901e-11
-2.87227e-11
1.78594e-11
4.96604e-12
1.09102e-07
2.2085e-11
2.56515e-11
-2.4585e-11
-4.04703e-11
4.88064e-11
2.98029e-11
-5.87478e-11
1.08104e-07
7.76027e-12
-1.08105e-07
2.50566e-12
-3.63427e-11
-2.80883e-11
2.69884e-11
5.51524e-11
-5.70723e-11
5.3015e-11
-5.83218e-11
2.66254e-11
1.09102e-07
8.17292e-12
-1.09103e-07
2.77333e-12
-2.7465e-11
-2.41004e-11
2.2871e-11
3.35565e-11
-5.61702e-11
5.19342e-11
-3.73439e-11
1.7809e-11
5.19859e-12
1.09097e-07
2.18367e-11
2.56546e-11
-2.43959e-11
-4.07892e-11
4.93052e-11
-5.92402e-11
3.01388e-11
7.38919e-12
-1.08093e-07
2.35845e-12
-3.6918e-11
-2.70207e-11
2.61955e-11
5.51943e-11
-5.71173e-11
-5.82383e-11
5.32783e-11
2.66772e-11
1.09098e-07
8.14285e-12
-1.09099e-07
2.68963e-12
-2.74789e-11
-2.38847e-11
2.26347e-11
3.38769e-11
-5.66729e-11
5.24146e-11
-3.76601e-11
4.63455e-11
3.09893e-11
2.66087e-08
-3.95989e-11
2.67563e-08
-2.66074e-08
-4.93107e-11
-3.33334e-11
2.09252e-11
6.77256e-12
1.09055e-07
1.13697e-11
3.90408e-11
-1.58515e-11
7.73326e-13
1.54527e-11
-2.84281e-11
-9.08741e-12
9.71847e-12
-1.09018e-07
4.92186e-12
-4.16763e-11
-1.53703e-11
1.24393e-11
-6.20313e-12
-2.55401e-11
2.98537e-12
1.9854e-11
4.01423e-11
1.09054e-07
9.68809e-12
-1.09055e-07
4.90992e-12
-4.21851e-11
-1.51948e-11
1.22903e-11
-6.1798e-12
-2.51335e-11
1.94284e-11
3.19392e-12
-2.66126e-08
-5.02026e-11
-3.27748e-11
3.35048e-11
3.5946e-11
4.06344e-11
4.0601e-11
2.66002e-08
-3.29493e-11
-3.61008e-11
2.67493e-08
-2.6599e-08
-4.0472e-11
-4.07565e-11
3.57153e-12
1.10019e-07
7.11917e-12
3.24932e-11
-9.59664e-12
2.31135e-11
1.91207e-11
-2.58679e-11
-2.35852e-11
-3.37654e-11
8.31239e-12
3.85459e-12
1.10053e-07
7.01103e-12
3.23825e-11
-1.38748e-11
2.33152e-11
1.85402e-11
-2.62188e-11
-2.07834e-11
1.10016e-07
1.86722e-12
-1.10017e-07
2.22332e-12
-3.2773e-11
-9.16939e-12
7.79093e-12
-2.46293e-11
-2.24098e-11
2.05429e-11
2.4203e-11
3.31036e-11
1.10048e-07
1.95988e-12
-1.10049e-07
2.13219e-12
-3.31494e-11
-9.84264e-12
1.28308e-11
-2.47231e-11
-2.21719e-11
1.73565e-11
2.41724e-11
3.96707e-11
4.15405e-11
2.66004e-08
-3.67225e-11
2.67503e-08
-2.65993e-08
-3.97948e-11
-4.13758e-11
1.52662e-12
1.08103e-07
2.72495e-11
3.57858e-11
-2.78608e-11
-5.75542e-11
5.37836e-11
5.61221e-11
-5.64323e-11
-2.7035e-11
4.70072e-12
1.77429e-12
1.09101e-07
2.31671e-11
2.70113e-11
-2.38464e-11
-3.65696e-11
5.27038e-11
3.45308e-11
-5.55347e-11
1.081e-07
9.40334e-13
-1.08101e-07
1.59554e-13
-3.53735e-11
-2.76912e-11
2.76301e-11
5.71859e-11
-5.59567e-11
5.45714e-11
-5.68147e-11
2.73395e-11
1.09099e-07
1.64571e-12
-1.091e-07
2.51759e-13
-2.64224e-11
-2.37008e-11
2.35466e-11
3.56073e-11
-5.51015e-11
5.34586e-11
-3.58627e-11
4.63855e-12
2.12027e-12
1.09097e-07
2.28834e-11
2.70196e-11
-2.36557e-11
-3.68831e-11
5.31946e-11
-5.6016e-11
3.48479e-11
6.51629e-13
-1.08089e-07
3.52969e-14
-3.61427e-11
-2.66714e-11
2.34831e-11
5.72394e-11
-5.59185e-11
-5.66887e-11
5.74938e-11
2.74439e-11
1.09095e-07
1.61088e-12
-1.09095e-07
-8.63906e-14
-2.64396e-11
-2.34139e-11
2.33052e-11
3.59129e-11
-5.55791e-11
5.39357e-11
-3.6148e-11
4.83282e-11
3.30033e-11
2.66067e-08
-4.04322e-11
2.67547e-08
-2.66055e-08
-4.87419e-11
-3.26367e-11
7.3706e-12
2.92509e-12
1.09053e-07
1.26793e-11
4.05445e-11
-1.48605e-11
3.6744e-12
2.02841e-11
-2.44477e-11
-5.51259e-12
1.30104e-12
-1.09014e-07
1.95044e-12
-4.05122e-11
-1.46789e-11
1.34126e-11
-4.41473e-12