/*--------------------------------*- C++ -*----------------------------------*\
| =========                 |                                                 |
| \\      /  F ield         | OpenFOAM: The Open Source CFD Toolbox           |
|  \\    /   O peration     | Version:  2206                                  |
|   \\  /    A nd           | Website:  www.openfoam.com                      |
|    \\/     M anipulation  |                                                 |
\*---------------------------------------------------------------------------*/
FoamFile
{
    version     2.0;
    format      ascii;
    arch        "LSB;label=32;scalar=64";
    class       volScalarField;
    location    "0.5";
    object      nut;
}
// * * * * * * * * * * * * * * * * * * * * * * * * * * * * * * * * * * * * * //

dimensions      [0 2 -1 0 0 0 0];

internalField   nonuniform List<scalar> 
66940
(
1.03416e-06
7.76376e-07
7.91366e-07
7.34643e-07
1.0352e-06
7.757e-07
7.90662e-07
7.32321e-07
1.03608e-06
7.74275e-07
7.89183e-07
7.33261e-07
1.03678e-06
7.72128e-07
7.86775e-07
7.32071e-07
1.03753e-06
7.69722e-07
7.84261e-07
7.34902e-07
1.03758e-06
7.65179e-07
7.79546e-07
7.33009e-07
1.03768e-06
7.58968e-07
7.73257e-07
7.33897e-07
1.03832e-06
7.50391e-07
7.64105e-07
7.32276e-07
1.03999e-06
7.38324e-07
7.51019e-07
7.33968e-07
8.50502e-07
7.11272e-07
7.24255e-07
7.32457e-07
4.95754e-07
6.38464e-07
6.41157e-07
6.16939e-07
3.10715e-07
3.83472e-07
3.29552e-07
4.47285e-07
7.33496e-07
7.89913e-07
7.89315e-07
7.327e-07
7.77227e-07
7.75658e-07
7.77135e-07
7.76228e-07
7.33387e-07
7.92154e-07
7.91759e-07
7.33426e-07
7.34634e-07
7.33442e-07
7.89e-07
7.88402e-07
7.90575e-07
7.89979e-07
7.33869e-07
7.32904e-07
7.76433e-07
7.74891e-07
7.77967e-07
7.76401e-07
7.74943e-07
7.77855e-07
7.76918e-07
7.34515e-07
7.33176e-07
7.90954e-07
7.92784e-07
7.91619e-07
7.31302e-07
7.34598e-07
7.33194e-07
7.88304e-07
7.87784e-07
7.91993e-07
7.91354e-07
7.34017e-07
7.32439e-07
7.75749e-07
7.7419e-07
7.79394e-07
7.7781e-07
7.73744e-07
7.79217e-07
7.7818e-07
7.34335e-07
7.32982e-07
7.90187e-07
7.94131e-07
7.93307e-07
7.31921e-07
7.34349e-07
7.33323e-07
7.86816e-07
7.86295e-07
7.94286e-07
7.93635e-07
7.33607e-07
7.32849e-07
7.74274e-07
7.72734e-07
7.81755e-07
7.80106e-07
7.7265e-07
7.81524e-07
7.80609e-07
7.34138e-07
7.32768e-07
7.88434e-07
7.9627e-07
7.94875e-07
7.308e-07
7.34588e-07
7.34937e-07
7.84517e-07
7.84144e-07
7.98515e-07
7.97755e-07
7.34082e-07
7.34292e-07
7.72028e-07
7.70395e-07
7.86005e-07
7.84126e-07
7.7001e-07
7.85596e-07
7.84496e-07
7.33946e-07
7.34025e-07
7.8624e-07
8.00368e-07
7.99547e-07
7.33394e-07
7.36356e-07
7.3556e-07
7.81863e-07
7.81562e-07
8.03068e-07
8.02108e-07
7.3571e-07
7.34879e-07
7.69483e-07
7.67693e-07
7.90805e-07
7.88706e-07
7.67541e-07
7.90074e-07
7.89067e-07
7.3547e-07
7.34622e-07
7.83424e-07
8.04772e-07
8.03321e-07
7.32051e-07
7.36456e-07
7.34547e-07
7.7688e-07
7.76895e-07
8.07588e-07
8.05985e-07
7.35756e-07
7.33841e-07
7.64572e-07
7.62836e-07
7.9552e-07
7.9285e-07
7.62468e-07
7.93996e-07
7.93299e-07
7.35511e-07
7.33501e-07
7.78963e-07
8.08626e-07
8.07864e-07
7.32582e-07
7.35963e-07
7.34147e-07
7.69987e-07
7.70465e-07
8.08505e-07
8.07156e-07
7.35257e-07
7.33459e-07
7.57618e-07
7.56395e-07
7.96952e-07
7.94241e-07
7.56383e-07
7.95347e-07
7.95784e-07
7.34898e-07
7.33149e-07
7.72428e-07
8.10325e-07
8.09312e-07
7.31104e-07
7.35045e-07
7.35698e-07
7.61852e-07
7.62411e-07
7.92771e-07
7.94355e-07
7.34745e-07
7.35065e-07
7.48988e-07
7.47935e-07
7.82573e-07
7.83765e-07
7.46009e-07
7.82726e-07
7.85498e-07
7.34268e-07
7.3455e-07
7.62967e-07
7.98477e-07
7.97956e-07
7.32959e-07
7.35783e-07
7.35713e-07
7.50667e-07
7.49753e-07
7.42533e-07
7.38023e-07
7.35193e-07
7.35204e-07
7.38143e-07
7.33602e-07
7.32846e-07
7.30862e-07
7.33698e-07
7.27872e-07
7.32068e-07
7.34591e-07
7.3503e-07
7.49742e-07
7.42187e-07
7.42278e-07
7.32728e-07
7.2151e-07
7.34209e-07
7.19154e-07
7.19059e-07
6.23104e-07
6.20937e-07
7.34817e-07
6.95493e-07
7.11026e-07
7.08944e-07
6.2061e-07
6.28156e-07
7.04764e-07
6.15036e-07
6.20091e-07
7.26223e-07
7.33832e-07
7.20642e-07
6.32477e-07
6.22865e-07
7.26535e-07
5.93439e-07
6.82241e-07
6.39515e-07
6.39895e-07
5.10242e-07
5.22313e-07
6.31343e-07
6.52199e-07
6.36327e-07
6.32318e-07
5.09993e-07
5.01004e-07
6.30549e-07
5.25548e-07
5.02071e-07
5.8773e-07
6.87801e-07
6.40908e-07
4.97676e-07
5.08364e-07
6.72692e-07
4.43624e-07
3.28387e-07
3.298e-07
5.49417e-07
3.31514e-07
3.34361e-07
3.08646e-07
3.11114e-07
3.11525e-07
3.14066e-07
4.78781e-07
3.155e-07
2.5374e-08
1.03401e-06
1.03378e-06
1.03377e-06
1.03378e-06
4.15373e-07
7.813e-07
2.11549e-07
9.83147e-07
7.33739e-07
1.0867e-07
1.09806e-07
2.17519e-07
5.50502e-08
2.17169e-07
5.48655e-08
2.56481e-08
2.56048e-08
2.09018e-07
5.30202e-08
2.07537e-07
5.293e-08
1.03393e-06
1.03394e-06
1.03368e-06
1.03489e-06
1.03467e-06
1.03446e-06
1.033e-06
4.15549e-07
2.1054e-07
9.83483e-07
7.77272e-07
4.17617e-07
2.11467e-07
9.83572e-07
2.50425e-08
2.50091e-08
4.33475e-07
9.94073e-07
2.16842e-07
7.92428e-07
4.35184e-07
9.94878e-07
2.17088e-07
1.08829e-07
1.11304e-07
7.32353e-07
1.08546e-07
1.11044e-07
2.17462e-07
5.47864e-08
2.17159e-07
5.47095e-08
2.55906e-08
2.5576e-08
2.09002e-07
5.29921e-08
2.07532e-07
5.29311e-08
1.03498e-06
1.03472e-06
1.03311e-06
1.03585e-06
1.03563e-06
1.03524e-06
1.03414e-06
4.1571e-07
2.10527e-07
9.83834e-07
7.78477e-07
4.17817e-07
2.11497e-07
9.83854e-07
2.50348e-08
2.50138e-08
4.33811e-07
9.97524e-07
2.16918e-07
7.93399e-07
4.35726e-07
9.97895e-07
2.17166e-07
1.08757e-07
1.1112e-07
7.31517e-07
1.08569e-07
1.11031e-07
2.17723e-07
5.47684e-08
2.17256e-07
5.47731e-08
2.56156e-08
2.56233e-08
2.0924e-07
5.30762e-08
2.07621e-07
5.30524e-08
1.03588e-06
1.03546e-06
1.03412e-06
1.03648e-06
1.03629e-06
1.03589e-06
1.03378e-06
4.1584e-07
2.1065e-07
9.84046e-07
7.80124e-07
4.17857e-07
2.1172e-07
9.83987e-07
2.5074e-08
2.50709e-08
4.34043e-07
9.99677e-07
2.17013e-07
7.95108e-07
4.35988e-07
9.9982e-07
2.17381e-07
1.08851e-07
1.11299e-07
7.31337e-07
1.08701e-07
1.11213e-07
2.18212e-07
5.48598e-08
2.17776e-07
5.48047e-08
2.56598e-08
2.56462e-08
2.09813e-07
5.32061e-08
2.08173e-07
5.31524e-08
1.03659e-06
1.03609e-06
1.03412e-06
1.03723e-06
1.03702e-06
1.03659e-06
1.03521e-06
4.16746e-07
2.11166e-07
9.84309e-07
7.8329e-07
4.18584e-07
2.12304e-07
9.84244e-07
2.51302e-08
2.51095e-08
4.34866e-07
1.00103e-06
2.17528e-07
7.98036e-07
4.36541e-07
1.00119e-06
2.17921e-07
1.09081e-07
1.11494e-07
7.31912e-07
1.08935e-07
1.11451e-07
2.18003e-07
5.47976e-08
2.1786e-07
5.47274e-08
2.56383e-08
2.56095e-08
2.09815e-07
5.32103e-08
2.0853e-07
5.31044e-08
1.03732e-06
1.03684e-06
1.03531e-06
1.03728e-06
1.03704e-06
1.03668e-06
1.0347e-06
4.17521e-07
2.11577e-07
9.85755e-07
7.87873e-07
4.1985e-07
2.12349e-07
9.85506e-07
2.51252e-08
2.50856e-08
4.35391e-07
1.00323e-06
2.17836e-07
8.02765e-07
4.37684e-07
1.00306e-06
2.17857e-07
1.09111e-07
1.11543e-07
7.33248e-07
1.08791e-07
1.11274e-07
2.17793e-07
5.47391e-08
2.17571e-07
5.47057e-08
2.56108e-08
2.56019e-08
2.09483e-07
5.3139e-08
2.08212e-07
5.30558e-08
1.03734e-06
1.03691e-06
1.03512e-06
1.03697e-06
1.03672e-06
1.03638e-06
1.03515e-06
4.16778e-07
2.1123e-07
9.86095e-07
7.92049e-07
4.19867e-07
2.12069e-07
9.85033e-07
2.50926e-08
2.50623e-08
4.34854e-07
1.00368e-06
2.17495e-07
8.0678e-07
4.37637e-07
1.00282e-06
2.17625e-07
1.08928e-07
1.11315e-07
7.32082e-07
1.08687e-07
1.11209e-07
2.17923e-07
5.47743e-08
2.17678e-07
5.47528e-08
2.56176e-08
2.56141e-08
2.09256e-07
5.31046e-08
2.08155e-07
5.30281e-08
1.03744e-06
1.03701e-06
1.03576e-06
1.03674e-06
1.03656e-06
1.03621e-06
1.03506e-06
4.16698e-07
2.11156e-07
9.86609e-07
7.95223e-07
4.20391e-07
2.11781e-07
9.85239e-07
2.50754e-08
2.50543e-08
4.35037e-07
1.004e-06
2.17481e-07
8.10177e-07
4.38305e-07
1.0026e-06
2.17559e-07
1.08851e-07
1.11359e-07
7.31774e-07
1.08566e-07
1.11209e-07
2.1794e-07
5.48156e-08
2.18048e-07
5.47857e-08
2.56295e-08
2.56395e-08
2.09055e-07
5.31025e-08
2.0831e-07
5.30295e-08
1.03814e-06
1.03765e-06
1.03658e-06
1.03698e-06
1.0368e-06
1.03641e-06
1.03576e-06
4.17121e-07
2.11079e-07
9.65725e-07
7.9237e-07
4.21071e-07
2.11816e-07
9.85898e-07
2.50736e-08
2.50587e-08
4.35854e-07
1.00286e-06
2.17493e-07
8.07446e-07
4.39699e-07
1.00252e-06
2.17728e-07
1.0882e-07
1.11333e-07
7.31993e-07
1.08655e-07
1.11276e-07
2.17299e-07
5.48247e-08
2.18979e-07
5.47821e-08
2.56011e-08
2.56626e-08
2.08477e-07
5.30721e-08
2.09094e-07
5.29928e-08
1.0398e-06
1.03922e-06
1.03861e-06
1.04121e-06
1.04108e-06
1.04052e-06
1.03997e-06
4.20779e-07
2.11024e-07
8.87322e-07
7.61765e-07
4.22327e-07
2.11546e-07
9.86248e-07
2.50475e-08
2.50556e-08
4.42168e-07
9.18098e-07
2.17388e-07
7.78823e-07
4.40561e-07
1.00238e-06
2.17436e-07
1.08749e-07
1.11348e-07
7.32769e-07
1.08677e-07
1.11248e-07
2.20025e-07
5.48857e-08
2.18295e-07
5.49442e-08
2.55581e-08
2.58499e-08
2.09324e-07
5.30325e-08
2.09177e-07
5.30688e-08
8.48931e-07
8.3954e-07
8.55219e-07
6.7401e-07
6.81508e-07
6.95342e-07
6.8304e-07
4.28541e-07
2.08627e-07
7.48066e-07
6.80942e-07
4.23641e-07
2.12397e-07
9.52254e-07
2.49621e-08
2.52285e-08
4.60173e-07
7.57456e-07
2.16119e-07
6.87472e-07
4.32852e-07
9.52106e-07
2.16398e-07
1.08276e-07
1.11082e-07
7.3337e-07
1.0867e-07
1.11422e-07
2.14604e-07
5.53285e-08
2.14103e-07
5.44284e-08
2.57295e-08
2.63781e-08
2.15874e-07
5.40794e-08
2.08883e-07
5.35865e-08
4.89374e-07
5.05128e-07
5.03616e-07
2.93004e-07
3.08159e-07
2.97403e-07
2.99573e-07
4.53045e-07
2.09741e-07
5.32803e-07
5.60527e-07
4.31711e-07
2.08202e-07
5.61631e-07
2.53916e-08
2.63471e-08
4.53136e-07
5.38991e-07
2.17655e-07
5.73304e-07
4.17426e-07
5.71111e-07
2.11623e-07
1.08383e-07
1.10778e-07
5.716e-07
1.07766e-07
1.09652e-07
1.80101e-07
2.28486e-09
1.31142e-07
9.92388e-09
2.17396e-09
9.53853e-09
1.57517e-07
2.36101e-09
1.28265e-07
1.21262e-08
2.80889e-07
2.15015e-07
2.15277e-07
3.29178e-07
2.44578e-07
2.42201e-07
2.45215e-07
3.90462e-07
7.89243e-08
4.63303e-07
3.93117e-07
3.51967e-07
7.54676e-08
2.89569e-07
2.13841e-09
6.71258e-09
3.92735e-07
4.70157e-07
8.21395e-08
3.75138e-07
3.52489e-07
2.89804e-07
7.70926e-08
3.95994e-08
3.99771e-08
4.83406e-07
2.61272e-08
2.52838e-08
2.56694e-08
2.54482e-08
2.50482e-08
2.50813e-08
7.34619e-07
1.11306e-07
1.08426e-07
1.1084e-07
1.08624e-07
5.39381e-08
7.80895e-07
2.13801e-07
2.13214e-07
5.50401e-08
5.41617e-08
2.17457e-07
2.13166e-07
5.49924e-08
5.41121e-08
2.17399e-07
4.26477e-07
7.82044e-07
2.1693e-07
9.92143e-07
2.14623e-07
9.89478e-07
4.33557e-07
4.26393e-07
7.81483e-07
2.16684e-07
9.92125e-07
2.14366e-07
9.89451e-07
4.33446e-07
7.32931e-07
1.09621e-07
1.08568e-07
2.50422e-08
2.56414e-08
2.54183e-08
7.33828e-07
1.11e-07
1.08546e-07
1.10526e-07
1.08737e-07
2.50356e-08
2.50681e-08
2.07594e-07
5.29521e-08
5.30449e-08
2.09001e-07
4.17659e-07
7.7671e-07
2.11537e-07
9.83663e-07
2.10606e-07
9.83544e-07
4.15517e-07
2.07556e-07
5.28962e-08
5.29894e-08
2.0896e-07
4.17649e-07
7.75136e-07
9.83055e-07
2.11348e-07
9.82917e-07
2.10435e-07
4.15517e-07
2.09045e-07
5.29435e-08
4.15422e-07
7.80063e-07
9.82702e-07
2.1158e-07
2.09035e-07
5.29421e-08
4.17563e-07
7.76615e-07
2.115e-07
9.83393e-07
2.10561e-07
9.83276e-07
4.1545e-07
2.07555e-07
5.29192e-08
5.30109e-08
2.08965e-07
4.17614e-07
7.74794e-07
9.82954e-07
2.11521e-07
9.82816e-07
2.10597e-07
4.15505e-07
2.07546e-07
5.29157e-08
5.301e-08
2.08953e-07
2.50184e-08
2.50498e-08
7.34497e-07
1.08349e-07
1.11322e-07
1.08577e-07
1.1082e-07
2.56952e-08
2.54744e-08
4.26373e-07
7.842e-07
9.93365e-07
2.17063e-07
9.90731e-07
2.14729e-07
4.33417e-07
4.26375e-07
7.84451e-07
9.93326e-07
2.16986e-07
9.90907e-07
2.14706e-07
4.33389e-07
2.13162e-07
5.50652e-08
5.41865e-08
2.1739e-07
2.13158e-07
5.50681e-08
5.41871e-08
2.17381e-07
2.5047e-08
2.54257e-08
7.34662e-07
1.08625e-07
1.11177e-07
1.08842e-07
1.1071e-07
2.50392e-08
2.50728e-08
2.56933e-08
2.54724e-08
2.5677e-08
2.56355e-08
2.50724e-08
2.50405e-08
1.11453e-07
1.08591e-07
7.33426e-07
1.11266e-07
1.08396e-07
2.56079e-08
2.56425e-08
2.50382e-08
2.50658e-08
7.34528e-07
1.11245e-07
1.08383e-07
1.11389e-07
1.08565e-07
2.17461e-07
5.50021e-08
2.17124e-07
5.48206e-08
4.33631e-07
2.16708e-07
9.92806e-07
7.90119e-07
4.35338e-07
2.16966e-07
9.9349e-07
4.33521e-07
2.16454e-07
9.92769e-07
7.89667e-07
4.35257e-07
2.16745e-07
9.93451e-07
2.17197e-07
5.47591e-08
5.48851e-08
2.17488e-07
2.17153e-07
5.4717e-08
5.48396e-08
2.17433e-07
4.35685e-07
7.88787e-07
2.17015e-07
9.95127e-07
2.16748e-07
9.94578e-07
4.33852e-07
4.35603e-07
7.88328e-07
2.16773e-07
9.9509e-07
2.165e-07
9.94542e-07
4.33745e-07
1.11146e-07
1.08714e-07
7.32804e-07
1.10952e-07
1.08452e-07
2.50606e-08
2.50316e-08
2.55812e-08
2.56122e-08
7.33963e-07
1.10932e-07
1.08488e-07
1.11068e-07
1.08648e-07
2.50275e-08
2.50554e-08
4.15613e-07
2.10581e-07
9.83769e-07
7.77472e-07
4.17686e-07
2.11522e-07
9.83856e-07
2.08976e-07
5.2964e-08
2.07492e-07
5.28728e-08
4.15611e-07
9.83113e-07
2.10391e-07
7.75858e-07
4.1768e-07
9.83221e-07
2.1133e-07
2.07547e-07
5.292e-08
5.29998e-08
2.08994e-07
4.17808e-07
7.76171e-07
2.11518e-07
9.84024e-07
2.10564e-07
9.83941e-07
4.15729e-07
2.07507e-07
5.28638e-08
5.29427e-08
2.08954e-07
4.17799e-07
7.74685e-07
9.83368e-07
2.11323e-07
9.83274e-07
2.10383e-07
4.15726e-07
2.08968e-07
5.29874e-08
2.07489e-07
5.28978e-08
4.15596e-07
9.831e-07
2.10555e-07
7.76681e-07
4.17668e-07
9.83077e-07
2.11474e-07
2.08956e-07
5.29838e-08
2.0748e-07
5.28931e-08
4.17726e-07
7.76105e-07
2.1148e-07
9.83717e-07
2.10519e-07
9.83659e-07
4.15625e-07
2.075e-07
5.28896e-08
5.29678e-08
2.08957e-07
4.17775e-07
7.74667e-07
9.83209e-07
2.11502e-07
9.83226e-07
2.10529e-07
4.15678e-07
2.0749e-07
5.28846e-08
5.29631e-08
2.08946e-07
1.08524e-07
1.11478e-07
7.33252e-07
1.0832e-07
1.113e-07
2.57021e-08
2.56597e-08
2.50077e-08
2.50325e-08
7.34305e-07
1.08304e-07
1.11243e-07
1.08513e-07
1.11394e-07
2.56272e-08
2.56662e-08
4.3344e-07
9.94116e-07
2.16788e-07
7.9155e-07
4.3519e-07
9.95018e-07
2.17049e-07
2.17441e-07
5.50742e-08
2.171e-07
5.4887e-08
2.1743e-07
5.50787e-08
2.17104e-07
5.48945e-08
4.35518e-07
7.91051e-07
9.96613e-07
2.17136e-07
9.96001e-07
2.16861e-07
4.33688e-07
4.35517e-07
7.90288e-07
9.96754e-07
2.17059e-07
9.95836e-07
2.16834e-07
4.33663e-07
2.17116e-07
5.47727e-08
5.49051e-08
2.17397e-07
2.1712e-07
5.47834e-08
5.49138e-08
2.17388e-07
2.50652e-08
2.5041e-08
2.57e-08
2.56463e-08
7.33348e-07
1.08567e-07
1.10979e-07
1.08777e-07
1.11171e-07
2.50391e-08
2.50644e-08
2.56146e-08
2.56535e-08
2.56175e-08
2.56011e-08
2.50655e-08
2.5048e-08
1.11367e-07
1.08555e-07
7.33302e-07
1.11249e-07
1.08397e-07
2.56179e-08
2.56163e-08
2.50749e-08
2.508e-08
7.34378e-07
1.1133e-07
1.0848e-07
1.11382e-07
1.08591e-07
2.17413e-07
5.47442e-08
2.17117e-07
5.46703e-08
4.33997e-07
2.168e-07
9.96015e-07
7.91214e-07
4.35904e-07
2.17069e-07
9.9638e-07
4.33895e-07
2.16553e-07
9.95962e-07
7.90606e-07
4.35827e-07
2.16838e-07
9.96325e-07
2.17147e-07
5.471e-08
5.47439e-08
2.17526e-07
2.17113e-07
5.46719e-08
5.47048e-08
2.17484e-07
4.36063e-07
7.87687e-07
2.17165e-07
9.97401e-07
2.16856e-07
9.97116e-07
4.34122e-07
4.35991e-07
7.87176e-07
2.1695e-07
9.97337e-07
2.16628e-07
9.97049e-07
4.34029e-07
1.11061e-07
1.08667e-07
7.32603e-07
1.10954e-07
1.08514e-07
2.50548e-08
2.50367e-08
2.55935e-08
2.55912e-08
7.33659e-07
1.1104e-07
1.08602e-07
1.11095e-07
1.08707e-07
2.50634e-08
2.50684e-08
4.15762e-07
2.10568e-07
9.84128e-07
7.78621e-07
4.17922e-07
2.11528e-07
9.84145e-07
2.08959e-07
5.2936e-08
2.07488e-07
5.28751e-08
4.15759e-07
9.8346e-07
2.10371e-07
7.76972e-07
4.17914e-07
9.83491e-07
2.11323e-07
2.07534e-07
5.29793e-08
5.30163e-08
2.0903e-07
4.17933e-07
7.75135e-07
2.11595e-07
9.84226e-07
2.10586e-07
9.84253e-07
4.15723e-07
2.07492e-07
5.29227e-08
5.29601e-08
2.0899e-07
4.17924e-07
7.73652e-07
9.83558e-07
2.1138e-07
9.83587e-07
2.1039e-07
4.15717e-07
2.08957e-07
5.29622e-08
2.07488e-07
5.29026e-08
4.15759e-07
9.83338e-07
2.10548e-07
7.77314e-07
4.17867e-07
9.83346e-07
2.1151e-07
2.08946e-07
5.29577e-08
2.07479e-07
5.28996e-08
4.17877e-07
7.75101e-07
2.11569e-07
9.83927e-07
2.10544e-07
9.83963e-07
4.15637e-07
2.0749e-07
5.29516e-08
5.29881e-08
2.08987e-07
4.1793e-07
7.73126e-07
9.83408e-07
2.11562e-07
9.83464e-07
2.10562e-07
4.15696e-07
2.07481e-07
5.29486e-08
5.29854e-08
2.08976e-07
1.08483e-07
1.11371e-07
7.33072e-07
1.08305e-07
1.1125e-07
2.56353e-08
2.56154e-08
2.50395e-08
2.50437e-08
7.34134e-07
1.08367e-07
1.1127e-07
1.08526e-07
1.11349e-07
2.56289e-08
2.56305e-08
4.3379e-07
9.97404e-07
2.16858e-07
7.92455e-07
4.35731e-07
9.97796e-07
2.17093e-07
2.17354e-07
5.47981e-08
2.17065e-07
5.47128e-08
2.17347e-07
5.48095e-08
2.17072e-07
5.4722e-08
4.35861e-07
7.89916e-07
9.98944e-07
2.1721e-07
9.98666e-07
2.16941e-07
4.33913e-07
4.35876e-07
7.89739e-07
9.99001e-07
2.17126e-07
9.98579e-07
2.16887e-07
4.33889e-07
2.17033e-07
5.47043e-08
5.47451e-08
2.17387e-07
2.17041e-07
5.47125e-08
5.47552e-08
2.1738e-07
2.50642e-08
2.50404e-08
2.56246e-08
2.56066e-08
7.32715e-07
1.08618e-07
1.11122e-07
1.08752e-07
1.11171e-07
2.50602e-08
2.50698e-08
2.56252e-08
2.56225e-08
2.5641e-08
2.56501e-08
2.51102e-08
2.51105e-08
1.11493e-07
1.08691e-07
7.33168e-07
1.11467e-07
1.08614e-07
2.56713e-08
2.56712e-08
2.51405e-08
2.51458e-08
7.3429e-07
1.11599e-07
1.08768e-07
1.11636e-07
1.08841e-07
2.1768e-07
5.47301e-08
2.17226e-07
5.47366e-08
4.34294e-07
2.16989e-07
9.98082e-07
7.92999e-07
4.36217e-07
2.17372e-07
9.98258e-07
4.34208e-07
2.16769e-07
9.98023e-07
7.92503e-07
4.36156e-07
2.17185e-07
9.98214e-07
2.17499e-07
5.48153e-08
5.4828e-08
2.18007e-07
2.17469e-07
5.47805e-08
5.47916e-08
2.17965e-07
4.36444e-07
7.85718e-07
2.17609e-07
9.98946e-07
2.17212e-07
9.9883e-07
4.34613e-07
4.36388e-07
7.85371e-07
2.17398e-07
9.98911e-07
2.16998e-07
9.98791e-07
4.34529e-07
1.11207e-07
1.08815e-07
7.32585e-07
1.11178e-07
1.08661e-07
2.50991e-08
2.51007e-08
2.56454e-08
2.56445e-08
7.33771e-07
1.11291e-07
1.08859e-07
1.11317e-07
1.08929e-07
2.51271e-08
2.51346e-08
4.1591e-07
2.10681e-07
9.84343e-07
7.80433e-07
4.1796e-07
2.1178e-07
9.84278e-07
2.09206e-07
5.30185e-08
2.07584e-07
5.29922e-08
4.15912e-07
9.83682e-07
2.10463e-07
7.7877e-07
4.17948e-07
9.83619e-07
2.11549e-07
2.07865e-07
5.31184e-08
5.31506e-08
2.09531e-07
4.18213e-07
7.73213e-07
2.12065e-07
9.84316e-07
2.10915e-07
9.84428e-07
4.16262e-07
2.07831e-07
5.30566e-08
5.30896e-08
2.09498e-07
4.18209e-07
7.71733e-07
9.83665e-07
2.11813e-07
9.83775e-07
2.10695e-07
4.1627e-07
2.09208e-07
5.30483e-08
2.07578e-07
5.30237e-08
4.1589e-07
9.83658e-07
2.10635e-07
7.794e-07
4.17913e-07
9.83455e-07
2.1171e-07
2.09198e-07
5.30453e-08
2.07571e-07
5.30193e-08
4.1814e-07
7.73254e-07
2.12027e-07
9.84038e-07
2.10869e-07
9.84143e-07
4.16202e-07
2.07833e-07
5.30897e-08
5.31219e-08
2.09504e-07
4.1819e-07
7.71638e-07
9.83354e-07
2.12014e-07
9.83584e-07
2.10857e-07
4.16256e-07
2.07827e-07
5.3081e-08
5.31166e-08
2.09496e-07
1.0858e-07
1.11438e-07
7.32873e-07
1.08489e-07
1.11438e-07
2.56517e-08
2.56663e-08
2.50996e-08
2.51041e-08
7.33932e-07
1.08619e-07
1.11565e-07
1.08746e-07
1.11575e-07
2.56953e-08
2.56916e-08
4.34026e-07
9.99515e-07
2.16954e-07
7.93923e-07
4.36002e-07
9.99815e-07
2.17337e-07
2.17565e-07
5.47648e-08
2.17108e-07
5.47828e-08
2.17561e-07
5.4773e-08
2.17117e-07
5.47905e-08
4.36168e-07
7.8793e-07
1.00049e-06
2.17656e-07
1.00037e-06
2.17221e-07
4.34328e-07
4.36185e-07
7.86957e-07
1.00039e-06
2.17569e-07
1.00014e-06
2.17189e-07
4.34322e-07
2.17346e-07
5.48469e-08
5.48453e-08
2.17891e-07
2.17357e-07
5.4853e-08
5.48531e-08
2.17889e-07
2.50957e-08
2.51015e-08
2.56499e-08
2.56532e-08
7.32502e-07
1.0887e-07
1.1132e-07
1.0897e-07
1.11388e-07
2.51264e-08
2.51331e-08
2.56799e-08
2.56794e-08
2.56861e-08
2.56722e-08
2.51717e-08
2.51535e-08
1.11752e-07
1.08984e-07
7.33965e-07
1.11676e-07
1.08874e-07
2.56569e-08
2.56823e-08
2.51472e-08
2.51793e-08
7.3527e-07
1.11638e-07
1.08896e-07
1.11807e-07
1.09064e-07
2.18176e-07
5.48258e-08
2.17748e-07
5.47739e-08
4.35046e-07
2.17457e-07
9.99512e-07
7.96123e-07
4.36842e-07
2.17815e-07
9.99682e-07
4.34966e-07
2.17242e-07
9.99474e-07
7.9545e-07
4.36787e-07
2.17604e-07
9.99645e-07
2.17927e-07
5.47678e-08
5.48356e-08
2.18207e-07
2.17905e-07
5.4735e-08
5.48041e-08
2.18182e-07
4.37342e-07
7.83396e-07
2.17881e-07
1.00073e-06
2.17641e-07
1.00058e-06
4.35323e-07
4.37292e-07
7.8307e-07
2.17675e-07
1.0007e-06
2.17428e-07
1.00054e-06
4.35252e-07
1.1145e-07
1.09076e-07
7.33358e-07
1.11371e-07
1.08972e-07
2.51577e-08
2.51383e-08
2.56311e-08
2.56558e-08
7.34645e-07
1.11334e-07
1.08994e-07
1.11504e-07
1.0916e-07
2.51315e-08
2.51636e-08
4.16798e-07
2.11211e-07
9.8459e-07
7.83597e-07
4.18648e-07
2.12342e-07
9.84523e-07
2.0978e-07
5.31435e-08
2.0814e-07
5.30882e-08
4.16806e-07
9.83941e-07
2.10952e-07
7.81781e-07
4.18648e-07
9.83876e-07
2.12074e-07
2.08426e-07
5.31435e-08
5.32265e-08
2.09961e-07
4.19278e-07
7.70896e-07
2.12527e-07
9.85146e-07
2.11473e-07
9.8517e-07
4.17325e-07
2.08393e-07
5.3079e-08
5.3162e-08
2.09929e-07
4.19277e-07
7.69243e-07
9.84494e-07
2.12247e-07
9.84518e-07
2.11218e-07
4.17331e-07
2.09791e-07
5.31769e-08
2.08145e-07
5.31221e-08
4.16805e-07
9.83748e-07
2.11143e-07
7.82143e-07
4.18637e-07
9.83696e-07
2.12261e-07
2.09782e-07
5.3167e-08
2.0814e-07
5.31098e-08
4.19223e-07
7.71049e-07
2.12484e-07
9.84869e-07
2.11425e-07
9.84892e-07
4.17279e-07
2.08403e-07
5.31109e-08
5.31957e-08
2.09943e-07
4.1928e-07
7.68743e-07
9.84298e-07
2.12409e-07
9.84355e-07
2.11379e-07
4.17335e-07
2.08396e-07
5.30945e-08
5.31823e-08
2.09933e-07
1.08841e-07
1.11727e-07
7.33087e-07
1.08716e-07
1.11678e-07
2.57106e-08
2.56998e-08
2.51039e-08
2.51335e-08
7.34341e-07
1.08725e-07
1.11613e-07
1.08936e-07
1.11778e-07
2.56837e-08
2.57108e-08
4.34858e-07
1.00097e-06
2.17456e-07
7.96994e-07
4.36568e-07
1.00115e-06
2.17835e-07
2.18196e-07
5.48976e-08
2.17693e-07
5.48662e-08
2.18195e-07
5.49031e-08
2.17706e-07
5.48611e-08
4.37168e-07
7.85542e-07
1.0023e-06
2.18046e-07
1.00212e-06
2.17754e-07
4.35329e-07
4.37197e-07
7.85311e-07
1.00213e-06
2.17928e-07
1.00206e-06
2.1768e-07
4.35319e-07
2.17941e-07
5.48273e-08
5.48973e-08
2.18308e-07
2.17954e-07
5.48174e-08
5.48912e-08
2.18307e-07
2.51535e-08
2.51256e-08
2.56988e-08
2.5686e-08
7.33399e-07
1.08908e-07
1.1145e-07
1.09116e-07
1.11583e-07
2.51115e-08
2.51482e-08
2.56742e-08
2.56972e-08
2.5665e-08
2.56401e-08
2.51682e-08
2.51294e-08
1.11747e-07
1.09058e-07
7.3586e-07
1.11552e-07
1.08811e-07
2.56307e-08
2.56486e-08
2.51155e-08
2.51497e-08
7.37088e-07
1.11489e-07
1.08733e-07
1.11665e-07
1.08974e-07
2.17973e-07
5.47643e-08
2.17846e-07
5.46935e-08
4.35229e-07
2.17659e-07
1.00149e-06
8.00879e-07
4.3767e-07
2.17681e-07
1.00128e-06
4.35165e-07
2.17449e-07
1.00145e-06
8.00138e-07
4.37629e-07
2.17496e-07
1.00125e-06
2.17677e-07
5.47021e-08
5.47584e-08
2.17865e-07
2.17659e-07
5.46649e-08
5.47234e-08
2.17832e-07
4.37598e-07
7.79617e-07
2.17517e-07
1.00128e-06
2.17451e-07
1.00184e-06
4.34895e-07
4.37563e-07
7.79566e-07
2.17304e-07
1.00126e-06
2.17242e-07
1.00181e-06
4.34829e-07
1.11443e-07
1.09155e-07
7.3522e-07
1.11234e-07
1.08855e-07
2.51532e-08
2.51177e-08
2.56018e-08
2.56189e-08
7.36447e-07
1.1117e-07
1.08824e-07
1.11339e-07
1.09036e-07
2.51015e-08
2.51365e-08
4.17563e-07
2.11633e-07
9.86014e-07
7.8852e-07
4.19895e-07
2.12436e-07
9.85758e-07
2.09784e-07
5.31457e-08
2.08498e-07
5.30382e-08
4.17567e-07
9.85354e-07
2.11352e-07
7.8651e-07
4.19891e-07
9.85099e-07
2.12161e-07
2.08364e-07
5.30723e-08
5.31692e-08
2.0962e-07
4.20189e-07
7.67308e-07
2.12198e-07
9.8573e-07
2.11479e-07
9.86414e-07
4.17244e-07
2.08333e-07
5.30045e-08
5.31028e-08
2.09591e-07
4.20182e-07
7.65607e-07
9.85072e-07
2.11925e-07
9.85748e-07
2.11216e-07
4.17248e-07
2.09801e-07
5.31774e-08
2.0851e-07
5.30702e-08
4.17566e-07
9.85151e-07
2.11493e-07
7.87007e-07
4.19899e-07
9.84907e-07
2.12239e-07
2.09789e-07
5.31608e-08
2.08502e-07
5.30518e-08
4.20151e-07
7.67697e-07
2.1214e-07
9.85472e-07
2.11407e-07
9.86161e-07
4.17193e-07
2.08346e-07
5.30379e-08
5.3135e-08
2.09609e-07
4.20189e-07
7.65479e-07
9.84801e-07
2.12045e-07
9.85518e-07
2.11297e-07
4.17233e-07
2.08337e-07
5.3018e-08
5.31166e-08
2.09599e-07
1.08899e-07
1.11727e-07
7.35007e-07
1.08662e-07
1.11545e-07
2.56914e-08
2.56664e-08
2.50716e-08
2.51037e-08
7.36198e-07
1.08573e-07
1.11462e-07
1.08833e-07
1.11633e-07
2.56556e-08
2.56758e-08
4.35377e-07
1.0031e-06
2.17732e-07
8.01504e-07
4.37707e-07
1.00293e-06
2.17751e-07
2.18126e-07
5.48572e-08
2.17983e-07
5.47866e-08
2.18121e-07
5.48475e-08
2.17994e-07
5.47747e-08
4.37765e-07
7.81985e-07
1.00309e-06
2.17688e-07
1.00365e-06
2.17619e-07
4.3506e-07
4.37784e-07
7.81042e-07
1.00291e-06
2.17541e-07
1.00353e-06
2.17523e-07
4.35045e-07
2.17797e-07
5.476e-08
5.48169e-08
2.1798e-07
2.17806e-07
5.47454e-08
5.48057e-08
2.17973e-07
2.51335e-08
2.51011e-08
2.56817e-08
2.56443e-08
7.34349e-07
1.08744e-07
1.11181e-07
1.0901e-07
1.11394e-07
2.50855e-08
2.51194e-08
2.56338e-08
2.56547e-08
2.56399e-08
2.56298e-08
2.51362e-08
2.51071e-08
1.11615e-07
1.08907e-07
7.34306e-07
1.11458e-07
1.08688e-07
2.5634e-08
2.56396e-08
2.51001e-08
2.51267e-08
7.35306e-07
1.11444e-07
1.08643e-07
1.11601e-07
1.08877e-07
2.17754e-07
5.47008e-08
2.17549e-07
5.46666e-08
4.34734e-07
2.17329e-07
1.00189e-06
8.05282e-07
4.37501e-07
2.17455e-07
1.00113e-06
4.34658e-07
2.17103e-07
1.00186e-06
8.04071e-07
4.37463e-07
2.1722e-07
1.0011e-06
2.17559e-07
5.47303e-08
5.47496e-08
2.17836e-07
2.1753e-07
5.46902e-08
5.47097e-08
2.17795e-07
4.37705e-07
7.73646e-07
2.1745e-07
1.00113e-06
2.17315e-07
1.00211e-06
4.3478e-07
4.37657e-07
7.73899e-07
2.17219e-07
1.00109e-06
2.1707e-07
1.00207e-06
4.34692e-07
1.113e-07
1.09001e-07
7.3365e-07
1.11146e-07
1.08796e-07
2.5122e-08
2.50931e-08
2.56075e-08
2.56117e-08
7.34657e-07
1.11152e-07
1.08769e-07
1.11291e-07
1.08982e-07
2.50875e-08
2.51128e-08
4.16829e-07
2.11292e-07
9.86371e-07
7.9312e-07
4.19905e-07
2.12117e-07
9.85317e-07
2.09454e-07
5.3071e-08
2.08181e-07
5.29857e-08
4.1683e-07
9.85704e-07
2.11013e-07
7.90778e-07
4.19896e-07
9.84657e-07
2.11833e-07
2.08146e-07
5.30391e-08
5.3123e-08
2.09409e-07
4.19886e-07
7.6134e-07
2.12063e-07
9.85245e-07
2.11289e-07
9.86327e-07
4.16868e-07
2.08114e-07
5.29688e-08
5.30528e-08
2.09376e-07
4.19871e-07
7.59906e-07
9.84582e-07
2.11775e-07
9.85655e-07
2.11004e-07
4.16861e-07
2.09478e-07
5.31045e-08
2.08198e-07
5.3021e-08
4.1682e-07
9.85451e-07
2.11131e-07
7.91088e-07
4.19904e-07
9.84343e-07
2.11962e-07
2.0947e-07
5.30845e-08
2.08189e-07
5.29992e-08
4.19861e-07
7.62302e-07
2.12022e-07
9.84965e-07
2.11233e-07
9.86032e-07
4.16818e-07
2.08137e-07
5.3004e-08
5.30882e-08
2.09404e-07
4.19902e-07
7.59458e-07
9.84324e-07
2.11891e-07
9.85367e-07
2.11117e-07
4.16863e-07
2.08131e-07
5.298e-08
5.30661e-08
2.09398e-07
1.08753e-07
1.11582e-07
7.33402e-07
1.08539e-07
1.1146e-07
2.56642e-08
2.5654e-08
2.50566e-08
2.50798e-08
7.34377e-07
1.08489e-07
1.11417e-07
1.08722e-07
1.11566e-07
2.56548e-08
2.56644e-08
4.34834e-07
1.00355e-06
2.17357e-07
8.05754e-07
4.37658e-07
1.00277e-06
2.17453e-07
2.17902e-07
5.4797e-08
2.17682e-07
5.47606e-08
2.17894e-07
5.47814e-08
2.1769e-07
5.47376e-08
4.37807e-07
7.76467e-07
1.00272e-06
2.17625e-07
1.00375e-06
2.17477e-07
4.34916e-07
4.37826e-07
7.76249e-07
1.00272e-06
2.17419e-07
1.00371e-06
2.17311e-07
4.34881e-07
2.17664e-07
5.47682e-08
5.48009e-08
2.17937e-07
2.17671e-07
5.47445e-08
5.47779e-08
2.17925e-07
2.51038e-08
2.50685e-08
2.56447e-08
2.56348e-08
7.3337e-07
1.08645e-07
1.11236e-07
1.08876e-07
1.11343e-07
2.50575e-08
2.50865e-08
2.56407e-08
2.56454e-08
2.56445e-08
2.56427e-08
2.51178e-08
2.50987e-08
1.11605e-07
1.0884e-07
7.34874e-07
1.1146e-07
1.08596e-07
2.56534e-08
2.56528e-08
2.51025e-08
2.51147e-08
7.35811e-07
1.115e-07
1.0862e-07
1.11647e-07
1.08828e-07
2.17883e-07
5.47345e-08
2.17651e-07
5.47144e-08
4.34927e-07
2.1734e-07
1.00246e-06
8.09085e-07
4.38208e-07
2.17432e-07
1.0011e-06
4.3485e-07
2.17103e-07
1.00241e-06
8.0735e-07
4.38155e-07
2.17259e-07
1.00107e-06
2.17842e-07
5.47758e-08
5.47964e-08
2.17977e-07
2.17817e-07
5.47326e-08
5.47563e-08
2.17934e-07
4.38847e-07
7.65929e-07
2.17459e-07
1.00104e-06
2.17393e-07
1.00287e-06
4.35213e-07
4.38801e-07
7.66897e-07
2.17241e-07
1.00103e-06
2.17173e-07
1.00284e-06
4.3515e-07
1.11298e-07
1.08957e-07
7.34324e-07
1.11199e-07
1.08664e-07
2.51061e-08
2.50907e-08
2.56228e-08
2.56243e-08
7.35259e-07
1.11185e-07
1.08751e-07
1.11335e-07
1.08917e-07
2.50932e-08
2.51068e-08
4.16767e-07
2.11213e-07
9.86894e-07
7.97247e-07
4.20408e-07
2.11848e-07
9.85487e-07
2.09222e-07
5.30346e-08
2.08119e-07
5.29575e-08
4.16753e-07
9.86221e-07
2.10913e-07
7.943e-07
4.20383e-07
9.84816e-07
2.11566e-07
2.0812e-07
5.30352e-08
5.30973e-08
2.09173e-07
4.20577e-07
7.53279e-07
2.11834e-07
9.8566e-07
2.11093e-07
9.87614e-07
4.16615e-07
2.08081e-07
5.2964e-08
5.30265e-08
2.09133e-07
4.20533e-07
7.52498e-07
9.8496e-07
2.11534e-07
9.8691e-07
2.10799e-07
4.16595e-07
2.0924e-07
5.30697e-08
2.08134e-07
5.2993e-08
4.16722e-07
9.8593e-07
2.11013e-07
7.95028e-07
4.20435e-07
9.84577e-07
2.11652e-07
2.09231e-07
5.30459e-08
2.08128e-07
5.29671e-08
4.20553e-07
7.5504e-07
2.11817e-07
9.85395e-07
2.11016e-07
9.87345e-07
4.16485e-07
2.08087e-07
5.30014e-08
5.30627e-08
2.09129e-07
4.20587e-07
7.52164e-07
9.84665e-07
2.11682e-07
9.8661e-07
2.10849e-07
4.16505e-07
2.08081e-07
5.2972e-08
5.3036e-08
2.09115e-07
1.08688e-07
1.11562e-07
7.33942e-07
1.08473e-07
1.11449e-07
2.56636e-08
2.56594e-08
2.50579e-08
2.50696e-08
7.34879e-07
1.08474e-07
1.11459e-07
1.08667e-07
1.1158e-07
2.56674e-08
2.56713e-08
4.35003e-07
1.00394e-06
2.17301e-07
8.08906e-07
4.38317e-07
1.00259e-06
2.17422e-07
2.17982e-07
5.48098e-08
2.17769e-07
5.47872e-08
2.17969e-07
5.4787e-08
2.17773e-07
5.47645e-08
4.38875e-07
7.68847e-07
1.00244e-06
2.17638e-07
1.00433e-06
2.17443e-07
4.35298e-07
4.38894e-07
7.67785e-07
1.00245e-06
2.1743e-07
1.00434e-06
2.1731e-07
4.35261e-07
2.17896e-07
5.48088e-08
5.48308e-08
2.18018e-07
2.179e-07
5.47872e-08
5.48091e-08
2.18002e-07
2.50765e-08
2.50624e-08
2.56508e-08
2.56391e-08
7.32936e-07
1.08628e-07
1.11199e-07
1.08809e-07
1.11332e-07
2.50642e-08
2.50793e-08
2.5644e-08
2.56505e-08
2.56547e-08
2.5667e-08
2.51159e-08
2.51017e-08
1.11674e-07
1.08868e-07
7.35403e-07
1.11562e-07
1.08633e-07
2.56759e-08
2.56509e-08
2.51096e-08
2.51116e-08
7.35658e-07
1.1156e-07
1.08643e-07
1.11621e-07