/*--------------------------------*- C++ -*----------------------------------*\
| =========                 |                                                 |
| \\      /  F ield         | OpenFOAM: The Open Source CFD Toolbox           |
|  \\    /   O peration     | Version:  2206                                  |
|   \\  /    A nd           | Website:  www.openfoam.com                      |
|    \\/     M anipulation  |                                                 |
\*---------------------------------------------------------------------------*/
FoamFile
{
    version     2.0;
    format      ascii;
    arch        "LSB;label=32;scalar=64";
    class       volScalarField;
    location    "0.5";
    object      omega;
}
// * * * * * * * * * * * * * * * * * * * * * * * * * * * * * * * * * * * * * //

dimensions      [0 0 -1 0 0 0 0];

internalField   nonuniform List<scalar> 
66940
(
20.3857
35.2057
34.4389
46.3383
20.3579
35.2113
34.4163
46.501
20.3352
35.2151
34.3966
46.3863
20.3209
35.2159
34.3845
46.5125
20.3119
35.199
34.3527
46.3664
20.3102
35.1967
34.3448
46.5076
20.3102
35.1823
34.3308
46.3816
20.3195
35.1697
34.3227
46.5104
20.3624
35.1977
34.3722
46.4084
20.5109
35.4526
34.6445
46.7615
21.057
36.1474
35.7492
47.3909
25.1896
41.055
40.6822
59.0683
46.4379
34.4789
34.4799
46.4388
35.2084
35.2194
35.2037
35.2105
46.446
34.4476
34.4348
46.4471
46.3361
46.4375
34.4726
34.4696
34.4599
34.4599
46.3365
46.4308
35.2099
35.2204
35.215
35.2242
35.2011
35.2095
35.2258
46.3439
46.4501
34.4404
34.4218
34.4036
46.613
46.3376
46.4433
34.4558
34.4557
34.4445
34.4441
46.3318
46.4441
35.2166
35.2253
35.2189
35.2261
35.2261
35.2148
35.23
46.349
46.4501
34.4018
34.403
34.3897
46.5014
46.3434
46.4478
34.4403
34.4376
34.4336
34.4322
46.3436
46.4402
35.2195
35.226
35.2218
35.2284
35.2189
35.2171
35.2474
46.349
46.4588
34.3984
34.39
34.3714
46.6246
46.3481
46.4308
34.4274
34.4257
34.4099
34.4073
46.3412
46.4278
35.2207
35.2276
35.2136
35.2217
35.2404
35.2092
35.2316
46.3598
46.4479
34.3682
34.3655
34.3526
46.4819
46.3255
46.41
34.3985
34.3957
34.3985
34.3973
46.3221
46.4078
35.204
35.2113
35.2073
35.2154
35.2119
35.2035
35.2579
46.3404
46.4247
34.3503
34.3523
34.3438
46.6139
46.3223
46.436
34.3907
34.3891
34.3919
34.3901
46.3202
46.4361
35.2013
35.2086
35.2059
35.2146
35.2381
35.2028
35.2362
46.3364
46.4537
34.3372
34.3464
34.3454
46.4916
46.3279
46.4298
34.3754
34.3733
34.3836
34.3808
46.3274
46.4398
35.1866
35.1951
35.1962
35.2047
35.2089
35.1927
35.2857
46.3447
46.4568
34.3252
34.3371
34.3258
46.6228
46.3805
46.3858
34.3655
34.3654
34.3878
34.3856
46.3572
46.3881
35.1719
35.1834
35.193
35.1991
35.2422
35.1903
35.2471
46.3618
46.4208
34.3155
34.3461
34.3462
46.5181
46.4045
46.4735
34.4159
34.4122
34.5244
34.5272
46.4058
46.489
35.1991
35.2142
35.2944
35.3152
35.2458
35.2999
35.4148
46.418
46.4943
34.3816
34.4819
34.4451
46.702
46.57
46.8963
34.7018
34.7048
34.8122
34.8375
46.5675
46.8977
35.4567
35.4677
35.7491
35.7601
35.5481
35.7878
35.8433
46.5944
46.8816
34.6471
34.7635
34.7905
46.9451
47.5067
53.4491
35.8171
35.8334
36.7923
36.9838
47.3419
54.2749
36.1429
36.1167
36.7313
36.8381
36.2094
36.895
36.957
47.5002
52.6334
35.7776
36.7325
36.6926
53.0678
59.399
40.672
40.719
60.5326
40.5444
40.7302
25.3945
25.196
24.9854
40.8961
59.0004
40.546
407.963
20.3921
20.3927
20.3936
20.3883
91.4101
35.2022
157.463
25.9548
46.441
206.76
206.495
164.073
300.903
163.922
300.852
407.064
406.94
167.686
302.884
167.411
302.792
20.3858
20.3877
20.3889
20.3671
20.3664
20.3747
20.4181
91.479
157.192
25.952
35.2069
91.1569
157.458
25.9525
408.568
408.373
87.8613
25.1497
154.819
34.433
87.6826
25.1324
154.971
206.718
205.398
46.5434
206.949
205.333
164.145
300.888
163.99
300.836
407.111
406.972
167.687
302.896
167.413
302.793
20.357
20.3674
20.4133
20.343
20.3417
20.3559
20.3881
91.4857
157.197
25.9521
35.2145
91.1662
157.459
25.9528
408.567
408.369
88.0022
25.0719
154.817
34.413
87.8273
25.0632
154.98
206.887
205.267
46.5489
206.818
205.235
164.196
300.878
164.053
300.829
407.104
406.942
167.673
302.89
167.404
302.788
20.3336
20.3485
20.3855
20.3299
20.328
20.3422
20.4075
91.4857
157.186
25.95
35.2164
91.1691
157.449
25.9521
408.563
408.369
88.0909
25.0192
154.825
34.3959
87.9334
25.0132
154.982
206.726
205.217
46.571
206.943
205.248
164.219
300.878
164.088
300.832
407.109
406.973
167.657
302.891
167.39
302.791
20.3191
20.3352
20.3963
20.323
20.321
20.3353
20.3786
91.48
157.179
25.9502
35.2171
91.1682
157.434
25.9547
408.575
408.381
88.1432
24.983
154.824
34.3825
88.0017
24.9811
154.976
206.877
205.23
46.5477
206.811
205.208
164.243
300.884
164.103
300.836
407.114
406.948
167.656
302.898
167.376
302.797
20.3101
20.3259
20.373
20.3259
20.3243
20.3375
20.4028
91.4303
157.156
25.9434
35.2021
91.1329
157.427
25.9519
408.587
408.388
88.106
24.9506
154.813
34.3535
87.9906
24.955
154.976
206.722
205.208
46.5458
206.954
205.249
164.255
300.887
164.134
300.833
407.113
406.979
167.682
302.905
167.408
302.8
20.3089
20.3237
20.3826
20.3355
20.3338
20.3462
20.387
91.5282
157.193
25.9367
35.208
91.1542
157.454
25.9586
408.589
408.395
88.1876
24.9363
154.834
34.3512
88.0467
24.9544
154.985
206.887
205.228
46.5491
206.843
205.225
164.243
300.886
164.123
300.831
407.11
406.971
167.686
302.907
167.403
302.803
20.3095
20.3239
20.365
20.3572
20.3537
20.365
20.4058
91.46
157.175
25.92
35.1972
91.1511
157.454
25.9588
408.585
408.414
88.1578
24.9271
154.823
34.341
88.0153
24.9662
154.969
206.725
205.209
46.5685
206.973
205.246
164.231
300.895
164.126
300.839
407.105
407.05
167.696
302.922
167.431
302.813
20.3196
20.3333
20.3712
20.4084
20.4032
20.4122
20.441
91.5102
157.197
25.8921
35.1889
91.2378
157.449
25.973
408.572
408.458
88.1613
24.9275
154.864
34.3371
88.0334
25.0089
154.888
206.896
205.232
46.5517
206.81
205.207
164.187
300.914
164.149
300.765
406.96
407.201
167.646
302.954
167.459
302.782
20.3608
20.3723
20.3939
20.548
20.5483
20.5547
20.5769
91.5817
157.236
25.8793
35.2152
91.2546
157.369
26.0592
408.461
408.649
88.0983
24.9495
154.916
34.3857
88.1058
25.1173
154.869
206.849
205.333
46.6306
206.968
205.211
163.791
301.027
164.343
300.178
406.682
406.308
167.273
302.942
167.673
302.293
20.5097
20.5134
20.5335
21.0669
21.0684
21.0463
21.082
91.4349
157.515
25.9605
35.4795
91.4704
157.106
26.343
408.564
407.438
87.9507
25.0537
154.999
34.6642
88.241
25.4211
154.749
207.189
205.407
46.743
206.956
205.264
167.095
301.171
166.371
299.299
407.03
402.436
166.961
301.894
167.116
299.341
21.0569
21.0382
21.0575
25.566
25.4476
25.4139
25.3797
92.009
156.541
26.3242
35.8127
91.0577
157.589
27.789
406.216
402.997
92.0099
25.7843
154.521
35.7993
89.9596
27.7718
156.47
207.206
205.671
48.3938
207.397
206.512
171.962
1556.2
229.325
763.794
1638.82
835.27
173.1
1545.46
230.294
693.458
20.4396
20.8643
20.8687
27.2349
18.711
22.8562
22.8079
91.3557
302.662
30.2688
37.0187
111.477
277.685
30.6486
1637.4
932.789
91.5927
30.2324
299.13
37.3271
111.38
30.6583
267.691
367.629
367.508
46.8271
497.824
492.005
406.845
407.952
408.377
408.53
46.3437
205.285
206.947
205.984
206.953
302.314
35.163
156.696
166.608
300.858
302.328
164.048
166.61
300.867
302.34
164.053
90.0927
34.4898
154.95
25.1266
156.284
25.2476
87.7429
90.0967
34.4893
155.009
25.1219
156.347
25.2426
87.746
46.4356
206.456
206.816
408.231
406.897
408.008
46.3422
205.442
206.801
206.142
206.812
408.323
408.476
167.407
302.777
302.835
167.687
91.1258
35.2076
157.504
25.9547
157.246
25.9548
91.479
167.404
302.791
302.849
167.684
91.1184
35.219
25.9605
157.491
25.96
157.233
91.4716
167.676
302.702
91.4036
35.2063
25.9636
157.437
167.671
302.712
91.1197
35.2028
157.456
25.953
157.2
25.9533
91.4769
167.407
302.765
302.824
167.686
91.113
35.2076
25.963
157.433
25.9627
157.174
91.4692
167.402
302.776
302.835
167.682
408.351
408.499
46.3521
206.934
205.421
206.934
206.025
406.904
407.98
90.1541
34.458
25.1663
154.984
25.288
156.308
87.8041
90.157
34.4594
25.1687
155.027
25.2854
156.355
87.8066
166.631
300.867
302.331
164.077
166.634
300.871
302.34
164.081
408.213
407.991
46.3453
206.769
205.477
206.747
206.182
408.303
408.457
406.935
408.035
407.005
406.915
408.586
408.383
205.186
206.95
46.4358
205.102
206.947
406.922
407.05
408.38
408.587
46.3377
205.045
206.945
205.072
206.95
164.077
300.913
163.926
300.86
87.807
154.784
25.1111
34.4689
87.6234
154.937
25.0974
87.81
154.844
25.1071
34.4699
87.6267
154.994
25.0937
163.954
300.843
300.897
164.107
163.957
300.851
300.907
164.111
87.6996
34.4642
154.936
25.0615
154.774
25.0723
87.8895
87.7029
34.4647
154.997
25.0584
154.834
25.0689
87.8926
205.337
206.806
46.4327
205.289
206.904
408.528
408.364
406.974
407.086
46.3323
205.212
206.838
205.262
206.879
408.333
408.561
91.4851
157.241
25.9532
35.2124
91.1591
157.503
25.954
167.683
302.9
167.408
302.809
91.4776
25.9608
157.228
35.2205
91.1517
25.9618
157.493
167.411
302.794
302.894
167.689
91.1646
35.2138
157.504
25.9542
157.241
25.9533
91.4906
167.408
302.809
302.91
167.686
91.1571
35.2234
25.9636
157.493
25.9624
157.23
91.4836
167.685
302.872
167.41
302.781
91.4728
25.9619
157.168
35.224
91.1497
25.9676
157.441
167.68
302.882
167.406
302.792
91.1583
35.2082
157.459
25.953
157.194
25.9518
91.488
167.409
302.783
302.883
167.687
91.1519
35.2132
25.9716
157.45
25.9659
157.178
91.4803
167.405
302.796
302.894
167.682
206.92
205.297
46.4458
206.923
205.17
407.056
406.949
408.355
408.561
46.3503
206.935
205.181
206.936
205.171
406.976
407.106
87.8637
25.1507
154.862
34.411
87.6851
25.1316
155.014
164.103
300.914
163.952
300.861
164.106
300.918
163.954
300.865
87.7521
34.4257
25.0935
154.976
25.1061
154.81
87.9389
87.7546
34.4236
25.0935
155.016
25.113
154.853
87.9413
163.984
300.854
300.909
164.136
163.985
300.853
300.911
164.139
408.504
408.38
407.101
406.952
46.4398
206.951
205.306
206.861
205.284
408.369
408.568
406.977
407.101
407.053
406.92
408.584
408.377
205.034
206.948
46.4411
205.024
206.941
406.916
407.05
408.374
408.581
46.3437
205.013
206.935
205.019
206.943
164.149
300.898
163.993
300.845
87.9553
154.776
25.0406
34.4539
87.7789
154.942
25.0325
87.9584
154.838
25.0379
34.4537
87.7823
155.002
25.03
164.026
300.831
300.882
164.174
164.029
300.84
300.892
164.178
87.8407
34.4486
154.944
25.0076
154.782
25.0147
88.007
87.844
34.4477
155.003
25.0056
154.842
25.0125
88.0101
205.194
206.828
46.4394
205.182
206.805
408.534
408.325
406.968
407.105
46.3431
205.17
206.791
205.171
206.805
408.322
408.528
91.492
157.243
25.9533
35.219
91.1689
157.505
25.9542
167.684
302.911
167.411
302.809
91.485
25.9634
157.232
35.2251
91.1621
25.9643
157.497
167.411
302.789
302.893
167.682
91.1706
35.2189
157.5
25.9534
157.242
25.9524
91.494
167.408
302.804
302.908
167.679
91.1636
35.2265
25.9643
157.491
25.9632
157.233
91.4875
167.686
302.884
167.411
302.781
91.4796
25.9692
157.19
35.2272
91.1589
25.9697
157.453
167.681
302.898
167.407
302.795
91.1644
35.2147
157.451
25.9519
157.195
25.9511
91.4918
167.409
302.777
302.881
167.68
91.158
35.2286
25.9678
157.442
25.9672
157.188
91.4842
167.405
302.789
302.895
167.676
206.921
205.147
46.4499
206.92
205.102
407.1
406.951
408.35
408.556
46.3536
206.928
205.147
206.932
205.115
406.966
407.101
88.0047
25.0791
154.855
34.3989
87.8297
25.0693
155.022
164.174
300.9
164.019
300.846
164.176
300.899
164.02
300.85
87.8867
34.4057
25.0375
154.985
25.0443
154.82
88.052
87.8893
34.3992
25.0404
155.024
25.0499
154.862
88.0543
164.055
300.841
300.893
164.201
164.056
300.845
300.896
164.204
408.556
408.32
407.123
407.007
46.4348
206.78
205.216
206.792
205.23
408.304
408.519
407.003
407.137
407.047
406.916
408.58
408.377
205.009
206.937
46.4455
205.006
206.931
406.918
407.048
408.383
408.585
46.3488
205.003
206.928
205.003
206.932
164.2
300.887
164.055
300.837
88.0486
154.783
24.9909
34.4395
87.8894
154.943
24.9856
88.0514
154.841
24.9889
34.4389
87.8927
154.999
24.9836
164.074
300.83
300.877
164.212
164.076
300.838
300.886
164.216
87.9292
34.4352
154.943
24.9685
154.782
24.9715
88.0819
87.9322
34.4341
155.002
24.9667
154.842
24.9696
88.0846
205.156
206.795
46.4422
205.203
206.89
408.523
408.36
406.971
407.085
46.3431
205.167
206.822
205.191
206.863
408.338
408.561
91.4922
157.237
25.9515
35.2211
91.1714
157.495
25.9535
167.67
302.905
167.401
302.804
91.4857
25.9628
157.228
35.226
91.1651
25.9649
157.489
167.396
302.788
302.89
167.667
91.1706
35.2207
157.488
25.9546
157.231
25.9512
91.4937
167.393
302.803
302.905
167.664
91.164
35.2274
25.9663
157.481
25.9628
157.224
91.4873
167.671
302.878
167.403
302.777
91.4799
25.9646
157.175
35.2443
91.162
25.9723
157.441
167.667
302.889
167.398
302.789
91.164
35.2158
157.444
25.9536
157.184
25.9499
91.4911
167.394
302.777
302.879
167.665
91.1579
35.2268
25.98
157.441
25.9699
157.176
91.4841
167.39
302.793
302.891
167.66
206.913
205.121
46.4516
206.912
205.083
407.089
406.944
408.358
408.56
46.3574
206.923
205.135
206.924
205.098
406.967
407.097
88.0934
25.0248
154.863
34.3716
87.9358
25.0164
155.022
164.221
300.888
164.08
300.837
164.223
300.892
164.081
300.84
87.9706
34.391
24.9948
154.985
24.9989
154.822
88.124
87.9732
34.3892
24.9993
155.022
25.0075
154.862
88.1263
164.098
300.838
300.886
164.236
164.099
300.837
300.888
164.239
408.501
408.376
407.139
406.95
46.4636
206.941
205.258
206.852
205.208
408.372
408.567
406.971
407.094
407.051
406.921
408.593
408.39
204.998
206.929
46.4453
205.002
206.928
406.923
407.055
408.395
408.6
46.3467
205.004
206.932
204.995
206.927
164.223
300.888
164.09
300.84
88.0988
154.782
24.9563
34.4253
87.9594
154.939
24.9545
88.1016
154.841
24.9545
34.4235
87.9624
154.997
24.9528
164.094
300.834
300.881
164.225
164.096
300.843
300.891
164.229
87.9699
34.4133
154.934
24.9392
154.776
24.9402
88.0876
87.973
34.411
154.993
24.9378
154.835
24.9387
88.0906
205.156
206.811
46.4415
205.159
206.791
408.544
408.339
406.975
407.11
46.3433
205.16
206.785
205.147
206.792
408.343
408.548
91.4857
157.224
25.951
35.2217
91.1706
157.479
25.9556
167.654
302.907
167.387
302.808
91.4788
25.9629
157.217
35.2277
91.1642
25.9675
157.476
167.38
302.794
302.895
167.65
91.1601
35.2151
157.469
25.9548
157.214
25.9492
91.4658
167.377
302.808
302.911
167.647
91.1532
35.2233
25.9669
157.464
25.9613
157.21
91.4596
167.656
302.88
167.388
302.779
91.4744
25.9717
157.178
35.24
91.1615
25.975
157.434
167.651
302.897
167.384
302.796
91.1545
35.2104
157.421
25.9536
157.167
25.9482
91.4634
167.379
302.782
302.883
167.648
91.1486
35.2331
25.9714
157.419
25.9674
157.167
91.4565
167.374
302.796
302.9
167.643
206.906
205.11
46.4617
206.911
205.077
407.093
406.949
408.37
408.575
46.3657
206.928
205.133
206.922
205.091
406.972
407.104
88.1453
24.9902
154.859
34.3667
88.004
24.9873
155.017
164.243
300.886
164.113
300.837
164.245
300.887
164.114
300.843
88.0141
34.3695
24.9661
154.973
24.9663
154.813
88.1286
88.0162
34.3595
24.975
155.011
24.9711
154.853
88.1302
164.116
300.841
300.889
164.242
164.117
300.846
300.893
164.244
408.565
408.332
407.119
407.009
46.4318
206.782
205.205
206.781
205.209
408.321
408.537
407.013
407.144
407.056
406.924
408.604
408.398
204.994
206.926
46.4041
205.012
206.941
406.925
407.056
408.401
408.607
46.3048
205.021
206.955
204.994
206.928
164.247
300.895
164.105
300.844
88.0836
154.775
24.9252
34.401
87.9536
154.943
24.9299
88.0861
154.832
24.9239
34.4005
87.9567
154.999
24.9285
164.123
300.835
300.887
164.258
164.125
300.845
300.897
164.262
87.9636
34.3933
154.953
24.9265
154.787
24.9162
88.1376
87.9663
34.3923
155.013
24.9253
154.848
24.915
88.1401
205.145
206.789
46.4012
205.202
206.9
408.548
408.381
406.977
407.091
46.3012
205.184
206.844
205.186
206.866
408.356
408.582
91.4386
157.206
25.9447
35.2067
91.1357
157.472
25.9532
167.653
302.914
167.372
302.814
91.4329
25.957
157.2
35.2131
91.1299
25.9654
157.469
167.386
302.8
302.903
167.677
91.1148
35.2001
157.494
25.9544
157.214
25.9399
91.4624
167.383
302.815
302.918
167.673
91.109
35.2085
25.9666
157.489
25.9523
157.21
91.4565
167.653
302.887
167.373
302.787
91.4259
25.9631
157.152
35.2467
91.1265
25.9733
157.426
167.648
302.899
167.369
302.801
91.1061
35.1954
157.451
25.9536
157.169
25.9387
91.4587
167.383
302.789
302.892
167.675
91.1015
35.2182
25.9783
157.456
25.9612
157.168
91.4529
167.379
302.806
302.906
167.67
206.907
205.11
46.4159
206.92
205.081
407.098
406.951
408.377
408.582
46.3183
206.949
205.142
206.929
205.091
406.974
407.105
88.108
24.9548
154.851
34.3436
87.9922
24.959
155.018
164.256
300.892
164.117
300.841
164.258
300.898
164.118
300.846
87.9818
34.3469
24.9529
154.991
24.9415
154.821
88.1594
87.9841
34.3459
24.9556
155.031
24.9443
154.865
88.1619
164.136
300.842
300.894
164.276
164.137
300.845
300.898
164.279
408.525
408.395
407.152
406.96
46.4413
206.965
205.269
206.859
205.207
408.388
408.587
406.98
407.104
407.055
406.928
408.607
408.405
204.987
206.925
46.454
205.028
206.965
406.936
407.053
408.413
408.605
46.3648
205.041
206.98
204.972
206.912
164.259
300.897
164.137
300.842
88.1451
154.794
24.9091
34.3987
88.0195
154.948
24.925
88.1479
154.855
24.9079
34.3969
88.0222
155.008
24.9238
164.128
300.832
300.885
164.246
164.13
300.841
300.896
164.25
88.0046
34.3845
154.94
24.9259
154.785
24.9007
88.1147
88.0078
34.3826
154.999
24.9248
154.846
24.8998
88.118
205.146
206.81
46.4506
205.184
206.825
408.558
408.355
406.987
407.109
46.3602
205.183
206.824
205.129
206.78
408.361
408.553
91.5323
157.238
25.9373
35.2116
91.1568
157.5
25.9592
167.679
302.921
167.404
302.817
91.527
25.9497
157.232
35.2179
91.1511
25.9713
157.496
167.408
302.801
302.905
167.674
91.2159
35.1977
157.483
25.9607
157.234
25.933
91.5002
167.404
302.815
302.922
167.671
91.2108
35.2067
25.9728
157.48
25.9454
157.23
91.4954
167.681
302.894
167.406
302.789
91.5242
25.9598
157.2
35.2443
91.1486
25.9807
157.46
167.676
302.912
167.401
302.806
91.2114
35.1931
157.435
25.9601
157.186
25.9326
91.497
167.406
302.789
302.894
167.672
91.2076
35.2291
25.9797
157.44
25.9538
157.193
91.4923
167.402
302.802
302.911
167.667
206.908
205.113
46.4654
206.928
205.087
407.098
406.955
408.389
408.582
46.3769
206.972
205.154
206.93
205.071
406.983
407.102
88.1893
24.9396
154.872
34.3431
88.0491
24.957
155.027
164.275
300.894
164.153
300.839
164.277
300.896
164.155
300.846
88.0469
34.339
24.958
154.978
24.9314
154.822
88.1463
88.0484
34.3307
24.9604
155.019
24.9336
154.864
88.1482
164.148
300.839
300.893
164.265
164.149
300.845
300.898
164.268
408.576
408.343
407.124
407.017
46.4371
206.81
205.213
206.772
205.2
408.335
408.539
407.027
407.145
407.052
406.953
408.603
408.428
204.954
206.895
46.4091
205.06
207.004
406.974
407.054
408.451
408.604
46.3259
205.066
207.022
204.934
206.874
164.248
300.897
164.125
300.839
88.1264
154.782
24.8941
34.3884
87.9869
154.935
24.9327
88.1294
154.843
24.8931
34.387
87.9904
154.99
24.9315
164.121
300.833
300.89
164.238
164.124
300.843
300.901
164.242
87.9966
34.3689
154.921
24.9471
154.782
24.8903
88.1203
87.9998
34.368
154.973
24.9456
154.841
24.8894
88.1222
205.125
206.767
46.4111
205.196
206.958
408.547
408.41
407.025
407.086
46.324
205.223
206.893
205.132
206.815
408.399
408.573
91.4681
157.224
25.9204
35.2008
91.1548
157.5
25.9597
167.682
302.924
167.4
302.819
91.4632
25.9328
157.221
35.2074
91.1501
25.9714
157.497
167.421
302.806
302.913
167.7
91.1687
35.1787
157.499
25.9651
157.246
25.906
91.5611
167.418
302.821
302.93
167.697
91.164
35.19
25.9768
157.495
25.9187
157.242
91.5571
167.684
302.896
167.4
302.793
91.4553
25.9415
157.177
35.2533
91.1462
25.9816
157.456
167.679
302.909
167.396
302.805
91.1602
35.1749
157.455
25.964
157.199
25.9059
91.5572
167.42
302.794
302.902
167.7
91.1555
35.2263
25.99
157.464
25.93
157.202
91.5538
167.415
302.811
302.917
167.695
206.887
205.088
46.4254
206.942
205.1
407.093
406.976
408.417
408.577
46.3377
206.995
205.153
206.928
205.048
407.013
407.101
88.1602
24.9256
154.861
34.332
88.0175
24.9625
155.01
164.263
300.894
164.141
300.836
164.266
300.902
164.142
300.843
88.0305
34.3245
24.982
154.932
24.9253
154.828
88.1592
88.0327
34.3205
24.9731
154.972
24.9187
154.868
88.1603
164.141
300.838
300.898
164.259
164.142
300.843
300.905
164.261
408.524
408.417
407.151
406.987
46.463
206.968
205.263
206.855
205.2
408.418
408.576
407.022
407.103
407.043
407.008
408.605
408.485
204.933
206.855
46.3802
205.082
207.033
407.077
406.973
408.525
408.595
46.3751
205.115
207.053
204.949
206.85
164.237
300.909
164.128
300.85
88.1262
154.786
24.891
34.3843
87.9953
154.893
24.972
88.1287
154.855
24.8898
34.3811
87.9973
154.936
24.9703
164.131
300.837
300.901
164.22
164.132
300.852
300.917
164.224
88.0199
34.3769
154.848
25.0116
154.827
24.8966
88.0989
88.0238
34.3774
154.915
25.0097
154.899
24.8951
88.0991
205.088
206.759
46.3918
205.23
206.861
408.554
408.418
407.113
407.056
46.3737
205.277
206.898
205.094
206.748
408.425
408.567
91.5097
157.24
25.8916
35.1922
91.2402
157.496
25.974
167.692
302.94
167.428
302.831
91.506
25.9062
157.238
35.1982
91.2366
25.9876
157.49
167.432
302.818
302.936
167.713
91.1866
35.1736
157.483
25.9994
157.255
25.8787
91.5431
167.429
302.835
302.955
167.71
91.1824
35.189
26.0135
157.436
25.8952
157.261
91.5387
167.695
302.913
167.431
302.797
91.5069
25.9188
157.211
35.2497
91.2349
25.9987
157.411
167.691
302.936
167.426
302.815
91.1855
35.1732
157.446
25.9999
157.214
25.8788
91.542
167.433
302.798
302.934
167.711
91.1818
35.2351
26.0244
157.334
25.9053
157.307
91.5372
167.429
302.797
302.965
167.707
206.865
205.092
46.4395
206.955
205.078
407.092
407.006
408.506
408.565
46.3596
207.041
205.184
206.904
205.081
407.013
407.113
88.1617
24.9205
154.907
34.3293
88.0344
25.0024
154.929
164.242
300.91
164.147
300.836
164.248
300.917
164.146
300.848
88.0534
34.336
25.051
154.893
24.9339
154.899
88.1328
88.056
34.3298
25.0464
154.91
24.9281
154.961
88.1296
164.162
300.82
300.93
164.229
164.158
300.822
300.945
164.227
408.55
408.368
407.112
407.066
46.4356
206.79
205.21
206.848
205.256
408.323
408.51
407.055
407.128
406.924
407.075
408.514
408.629
204.99
206.868
46.4021
205.1
207.086
406.851
406.869
408.656
408.396
46.4574
205.139
207.049
205.155
206.928
164.186
300.92
164.152
300.818
88.0675
154.907
24.9113
34.4293
88.0758
154.807
25.0764
88.0696
154.948
24.9093
34.4289
88.0788
154.883
25.0745
164.227
300.529
300.955
164.077
164.232
300.662
300.925
164.093
88.136
34.5143
154.797
25.1841
154.943
24.9437
88.0098
88.1368
34.5151
154.779
25.1823
155.012
24.9418
88.0231
205.15
206.761
46.4174
205.32
207.081
408.536
408.615
407.316
406.712
46.4608
205.304
206.905
205.234
206.909
408.579
408.357
91.5582
157.317
25.8807
35.2148
91.2631
157.385
26.0558
167.663
302.966
167.453
302.782
91.555
25.8975
157.336
35.2261
91.2575
26.0698
157.361
167.617
302.635
302.947
167.542
91.4347
35.2778
157.315
26.1612
157.379
25.902
91.4478
167.61
302.586
302.984
167.536
91.4306
35.2957
26.1767
157.276
25.9186
157.455
91.4448
167.644
302.949
167.467
302.777
91.5788
25.9067
157.389
35.3024
91.251
26.0877
157.334
167.641
303.017
167.463
302.719
91.3992
35.2749
157.245
26.1641
157.385
25.9016
91.5067
167.62
302.643
302.935
167.553
91.3997
35.3382
26.1958
157.317
25.9321
157.404
91.4838
167.621
302.509
303.049
167.547
206.858
205.147
46.4458
206.935
205.182
407.076
407.041
408.454
408.369
46.4662
206.971
205.281
207.032
205.196
406.999
406.953
88.1013
24.9412
155.001
34.3672
88.1077
25.107
154.889
164.201
300.952
164.184
300.753
164.2
300.997
164.189
300.743
88.1668
34.4673
25.2292
154.813
24.9835
154.927
88.0473
88.1657
34.4689
25.2124
154.846
24.9712
155.004
88.0562
164.247
300.608
300.988
164.104
164.251
300.65
301.038
164.108
408.599
408.31
407.219
406.885
46.5463
207.052
205.254
207.015
205.351
408.203
408.636
406.697
407.285
407.042
405.893
408.306
407.907
205.289
207.096
46.5789
205.377
207.107
404.706
406.922
406.691
408.038
46.9281
205.627
207.174
205.633
207.292
163.822
300.964
164.329
300.077
87.9069
154.86
25.0117
34.7109
88.2217
154.705
25.3643
87.9069
155.126
25.0111
34.7162
88.2092
154.667
25.3604
164.372
298.89
300.801
163.933
164.373
298.947
301.033
163.922
88.2254
34.9975
154.196
25.7315
154.757
25.1508
88.1294
88.2361
35.0211
154.204
25.7295
155.052
25.1551
88.1429
205.571
207.134
46.6309
205.275
206.783
408.255
407.485
403.355
407.012
46.8482
205.136
206.623
206.058
207.439
405.569
408.296
91.3595
157.479
25.957
35.4714
91.5161
157.167
26.345
167.252
303.022
167.686
302.187
91.3529
25.9741
157.505
35.4903
91.523
26.3625
157.216
167.664
301.001
302.779
166.334
91.5761
35.7625
156.529
26.6647
157.335
26.0927
90.8898
167.682
300.903
302.891
166.34
91.5832
35.7801
26.6616
156.721
26.1082
157.28
90.8959
167.384
302.943
167.645
302.152
91.4119
25.9915
157.395
35.5633
91.4778
26.3725
157.187
167.343
303.05
167.661
302.196
91.4794
35.7697
156.475
26.6628
157.402
26.0946
91.0125
167.532
300.851
302.877
166.66
91.5166
35.8424
26.6782
156.461
26.1174
157.359
90.9689
167.587
301.08
302.814
166.529
207.187
205.413
46.6163
207.088
205.32
406.904
406.494
405.63
408.227
46.926
207.129
205.17
207.308
205.577
404.884
406.49
87.9698
25.0409
155.025
34.6614
88.2281
25.4061
154.716
163.836
300.965
164.339
300.216
163.869
301.07
164.337
300.26
88.2643
34.9675
25.7895
154.023
25.2013
154.825
88.1269
88.2315
34.966
25.787
153.963
25.1911
154.873
88.1407
164.356
298.932
300.776
163.886
164.332
299.032
301.012
163.939
408.465
407.837
407.269
406.391
46.964
206.599
204.994
207.304
205.412
406.082
408.169
404.481
406.939
405.316
402.902
405.416
402.491
206.304
207.179
48.5668
207.263
207.781
638.591
408.907
633.173
407.506
50.4491
235.508
237.7
210.459
211.372
167.119
301.341
166.453
299.352
91.9689
154.307
25.707
35.819
89.7913
156.965
27.6866
92.0162
154.614
25.7109
35.8492
89.8442
157.606
27.6975
170.823
965.027
304.002
180.541
170.821
965.822
303.731
180.208
94.5318
38.7924
286.108
32.5921
157.754
27.4936
100.931
94.5553
38.8527
284.527
32.5599
157.378
27.5093
100.896
206.552
207.198
48.3543
207.273
207.513
407.384
400.894
632.733
405.829
50.2318
232.646
237.232
209.133
210.016
635.633
407.286
92.0008
156.456
26.3233
35.7911
91.2101
156.672
27.7772
167.068
301.962
167.103
299.408
92.013
26.3247
156.288
35.7704
91.175
27.7404
157.193
170.895
962.358
303.839
180.147
94.5578
38.7352
285.732
32.6868
158.441
27.6311
100.856
170.91
968.736
303.804
180.492
94.508
38.8417
32.6532
286.613
27.5365
158.478
100.902
167.142
302.234
166.836
299.41
91.9794
26.3312
156.66
35.8798
91.1162
27.7564
156.925
166.99
302.215
166.91
299.512
94.4298
38.7649
285.568
32.731
157.555
27.6456
100.979
170.768
961.568
304.049
181.045
94.4932
38.862
32.6692
285.596
27.555
157.633
100.942
170.74
963.736
304.243
180.368
207.302
205.733
48.6959
207.938
206.935
405.98
402.68
638.545
408.637
50.4845
236.018
235.105
211.733
210.4
637.866
409.6
92.0356
25.7868
154.687
35.754
89.8894
27.789
156.475
166.976
301.012
166.471
299.163
167.135
301.581
166.427
299.465
94.666
38.7555
32.7589
284.279
27.6265
158.369
101.152
94.5968
38.6784
32.6844
283.99
27.6399
157.66
101.018
171.135
962.226
304.158
180.766
171.123
959.75
304.034
180.362
407.004
402.299
406.772
401.684
50.2278
233.425
233.575
209.429
209.469
637.997
408.634
635.532
408.256
1630.98
1009.11
1627.41
843.533
366.467
370.435
47.168
493.978
385.903
47.7685
396.213
320.574
171.636
1545.38
230.51
688.256
90.367
300.889
30.1
37.3806
110.779
281.796
30.61
90.5278
301.861
30.1764
37.1489
111.037
261.174
30.6463
74.7682
38.9234
254.859
31.5318
75.0261
38.7287
236.642
31.5673
376.969
378.621
46.4939
415.247
459.67
1641.91
913.75
47.5286
336.552
390.418
90.2075
300.715
30.1973
37.189
110.745
266.19
30.6404
170.106
1567.01
229.717
708.955
89.8018
30.1789
300.511
37.419
110.732
30.6355
269.863
74.8287
38.5475
242.359
31.5627
74.8585
38.997
31.5616
244.72
20.4337
20.872
20.915
27.1985
18.7444
22.8595
22.8911
20.4674
20.8595
20.862
27.1029
18.763
22.8572
22.8614
20.4611
20.8601
20.8486
27.259
18.7191
22.8713
22.8262
20.6507
28.2656
23.8302
23.7936
20.6321
28.3162
23.8571
23.9102
20.6619
28.0374
23.8742
23.8661
20.6728
28.4407
23.8634
23.7793
175.524
1554.19
232.893
743.349
91.902
30.1152
300.303
37.4181
112.015
30.6184
287.232
178.457
1547.09
235.307
827.794
76.2641
38.7213
256.38
31.5814
76.4864
39.3765
31.6021
263.73
363.409
363.961
47.0944
449.241
421.267
1636.17
839.141
48.2679
355.121
336.459
91.4936
30.2124
299
37.1677
111.772
30.6653
277.913
177.626
1559.66
231.149
704.354
178.475
1575.52
233.539
684.304
75.6479
38.7526
31.5711
245.714
75.5555
39.1032
31.601
255.881
1635.06
1188.41
1638.51
950.691
48.2804
430.055
412.718
845.543
710.528
145.097
669.72
145.69
543.873
711.04
826.309
147.868
585.138
145.413
596.041
155.679
635.614
160.782
661.352
802.39
718.175
149.599
606.597
149.885
578.036
978.065
851.486
408.786
413.966
413.726
250.402
308.283
121.926
176.077
308.783
121.454
174.736
331.734
163.937
310.554
178.209
310.633
178.086
331.652
427.915
215.811
300.854
428.075
215.716
331.702
164.056
310.772
178.097
331.815
310.621
178.219
428.037
215.543
300.902
215.584
427.876
406.947
407.079
334.654
167.41
181.766
313.528
181.502
313.66
334.508
430.589
218.757
302.787
430.851
218.744
334.502
167.686
181.502
313.652
334.647
181.766
313.521
430.856
218.748
302.891
218.762
430.593
408.368
408.579
250.568
413.625
413.516
414.362
413.47
250.823
175.982
121.702
308.464
206.832
175.845
121.803
308.338
174.517
120.444
308.661
205.451
174.355
120.736
308.48
250.729
414.353
413.595
250.324
414.221
412.942
175.711
308.679
206.813
122.006
121.649
308.742
175.796
174.432
307.979
205.343
120.527
120.419
308.213
174.784
331.691
164.009
310.544
178.201
310.595
178.07
331.63
427.822
215.367
300.839
427.968
215.348
331.628
164.127
310.59
178.067
331.69
310.538
178.196
427.964
215.33
300.884
215.345
427.82
406.975
407.108
334.66
167.412
181.767
313.532
181.504
313.668
334.511
430.593
218.767
302.794
430.858
218.751
334.513
167.689
181.505
313.669
334.662
181.768
313.533
430.855
218.749
302.894
218.766
430.591
408.366
408.575
250.536
414.089
413.614
414.272
413.793
250.455
175.889
121.709
308.55
206.869
175.586
121.947
308.397
174.793
120.374
308.44
205.255
174.615
120.591
308.467
250.568
414.148
413.772
250.676
414.038
413.605
175.697
308.361
206.83
121.937
121.682
308.486
175.982
174.52
308.569
205.242
120.605
120.401
308.622
174.686