/*--------------------------------*- C++ -*----------------------------------*\
| =========                 |                                                 |
| \\      /  F ield         | OpenFOAM: The Open Source CFD Toolbox           |
|  \\    /   O peration     | Version:  2206                                  |
|   \\  /    A nd           | Website:  www.openfoam.com                      |
|    \\/     M anipulation  |                                                 |
\*---------------------------------------------------------------------------*/
FoamFile
{
    version     2.0;
    format      ascii;
    arch        "LSB;label=32;scalar=64";
    class       surfaceScalarField;
    location    "0.5";
    object      phi;
}
// * * * * * * * * * * * * * * * * * * * * * * * * * * * * * * * * * * * * * //

dimensions      [0 3 -1 0 0 0 0];

oriented        oriented;

internalField   nonuniform List<scalar> 
199822
(
1.18535e-12
2.51754e-12
-1.17999e-07
-1.70825e-12
-6.67296e-13
1.17998e-07
-1.12868e-07
-3.82887e-11
-3.47395e-12
-1.58136e-12
1.12868e-07
2.80779e-11
3.96494e-11
-2.29372e-11
-5.71531e-11
5.69635e-11
5.87366e-11
-5.98418e-11
-1.13937e-07
-4.36478e-11
-3.58809e-13
-9.71097e-14
1.13941e-07
1.33935e-11
4.33549e-11
-1.48603e-11
4.18778e-12
2.40109e-11
-3.99313e-12
-2.56064e-11
-2.75315e-08
-1.24372e-10
1.78175e-10
-7.35675e-11
1.72809e-10
2.73784e-08
4.63796e-12
7.45312e-12
-1.18001e-07
-4.9887e-12
-2.9831e-12
1.17997e-07
-1.12866e-07
-3.80192e-11
-7.81184e-12
-5.71954e-12
1.12872e-07
2.87514e-11
4.02096e-11
-2.72538e-11
-5.66776e-11
5.74643e-11
5.92308e-11
-5.67742e-11
-1.13938e-07
-4.26028e-11
-4.24623e-12
-4.57989e-12
1.13944e-07
1.45803e-11
4.41753e-11
-1.39389e-11
4.70099e-12
2.46987e-11
-3.44479e-12
-2.48051e-11
-2.7531e-08
4.96237e-11
2.40257e-11
6.27458e-11
1.61199e-11
2.73785e-08
1.55948e-11
1.83404e-11
-1.18003e-07
-1.36223e-11
-1.12578e-11
1.17994e-07
-1.12859e-07
-3.72502e-11
-1.90148e-11
-1.1749e-11
1.12875e-07
2.92776e-11
4.09109e-11
-2.15291e-11
-5.58502e-11
5.80941e-11
5.98213e-11
-5.84749e-11
-1.13933e-07
-4.19637e-11
-1.36448e-11
-1.38075e-11
1.13951e-07
1.54519e-11
4.5057e-11
-1.28623e-11
5.34306e-12
2.54965e-11
-2.96221e-12
-2.37756e-11
-2.75294e-08
-1.25626e-10
1.7699e-10
-7.35466e-11
1.73423e-10
2.73782e-08
3.60252e-11
3.97073e-11
-1.18006e-07
-3.15261e-11
-2.82049e-11
1.1799e-07
-1.12846e-07
-3.63257e-11
-4.01649e-11
-2.65482e-11
1.1289e-07
3.0985e-11
4.24839e-11
-2.44745e-11
-5.47943e-11
5.89249e-11
6.05212e-11
-5.46769e-11
-1.13922e-07
-4.10409e-11
-3.25535e-11
-2.67706e-11
1.13963e-07
1.68282e-11
4.63778e-11
-1.11055e-11
5.97535e-12
2.61538e-11
-2.55095e-12
-2.2728e-11
-2.75272e-08
4.80025e-11
2.25273e-11
6.23678e-11
1.60503e-11
2.73782e-08
7.42013e-11
7.94754e-11
-1.18013e-07
-6.56185e-11
-5.98509e-11
1.17984e-07
-1.12823e-07
-3.43484e-11
-8.09979e-11
-4.93787e-11
1.12914e-07
3.31327e-11
4.47821e-11
-1.66793e-11
-5.32386e-11
5.99726e-11
6.14526e-11
-5.55582e-11
-1.13901e-07
-3.93127e-11
-6.72677e-11
-5.33966e-11
1.13989e-07
1.91978e-11
4.87447e-11
-7.9644e-12
6.99414e-12
2.71331e-11
-1.75139e-12
-2.10591e-11
-2.75233e-08
-1.28395e-10
1.74635e-10
-7.40274e-11
1.73259e-10
2.73778e-08
1.40094e-10
1.49515e-10
-1.1802e-07
-1.28715e-10
-1.17476e-10
1.17977e-07
-1.12781e-07
-3.16245e-11
-1.50923e-10
-8.99054e-11
1.12966e-07
3.69294e-11
4.89147e-11
-1.65036e-11
-5.17967e-11
6.02331e-11
6.14452e-11
-5.12843e-11
-1.13862e-07
-3.65984e-11
-1.29343e-10
-9.32991e-11
1.14036e-07
2.27154e-11
5.25351e-11
-2.39647e-12
7.57644e-12
2.70436e-11
-2.40712e-12
-1.99481e-11
-2.7518e-08
4.3621e-11
1.8104e-11
6.14555e-11
1.53168e-11
2.73795e-08
2.58092e-10
2.75577e-10
-1.18021e-07
-2.56389e-10
-2.36326e-10
1.1798e-07
-1.12704e-07
-2.81317e-11
-2.71648e-10
-1.49798e-10
1.13056e-07
4.08345e-11
5.44937e-11
-3.33581e-12
-5.27898e-11
5.62898e-11
5.70921e-11
-5.48011e-11
-1.1379e-07
-3.32338e-11
-2.31301e-10
-1.5819e-10
1.14124e-07
2.70419e-11
5.82407e-11
3.60891e-12
5.47282e-12
2.22563e-11
-5.6338e-12
-2.23617e-11
-2.75106e-08
-1.34056e-10
1.69729e-10
-7.55087e-11
1.71876e-10
2.73785e-08
4.52185e-10
4.85827e-10
-1.17982e-07
-5.19233e-10
-4.8451e-10
1.18048e-07
-1.12564e-07
-2.4841e-11
-4.58462e-10
-2.25852e-10
1.13225e-07
4.48502e-11
6.02348e-11
-2.99602e-12
-6.37609e-11
3.67755e-11
3.66434e-11
-6.42321e-11
-1.13654e-07
-2.90507e-11
-3.94814e-10
-2.40021e-10
1.14286e-07
3.20093e-11
6.19381e-11
5.6314e-12
-8.11298e-12
-6.7326e-13
-2.30054e-11
-3.5615e-11
-2.7501e-08
3.75811e-11
1.16172e-11
5.89584e-11
1.17905e-11
2.7381e-08
6.90979e-10
7.5211e-10
-1.17819e-07
-9.84504e-10
-9.38759e-10
1.18299e-07
-1.12312e-07
-4.67048e-11
-7.49956e-10
-2.61025e-10
1.13531e-07
2.03855e-11
7.06543e-11
4.02189e-12
-9.60377e-11
-2.26369e-11
-2.9071e-11
-1.09368e-10
-1.13415e-07
-4.58537e-11
-6.42976e-10
-2.90333e-10
1.14583e-07
1.04774e-11
6.14526e-11
3.3963e-12
-4.54325e-11
-5.60728e-11
-8.50764e-11
-7.79102e-11
-2.7507e-08
-1.28646e-10
1.79054e-10
-8.09661e-11
1.65275e-10
2.73723e-08
1.03402e-09
1.12698e-09
-1.17351e-07
-1.98864e-09
-1.81364e-09
1.18992e-07
-1.11884e-07
-1.10953e-10
-1.17258e-09
-9.33745e-11
1.14018e-07
-2.3506e-11
5.46296e-11
-5.73039e-11
-1.78714e-10
-1.55746e-10
-1.7925e-10
-2.17187e-10
-1.12953e-07
-1.41795e-10
-1.08297e-09
-1.35087e-10
1.1511e-07
-6.33822e-11
6.83015e-11
-2.82145e-11
-1.50222e-10
-1.79508e-10
-2.29709e-10
-2.14625e-10
-2.75624e-08
1.33357e-10
1.16281e-10
-1.83099e-11
-3.70321e-11
2.73681e-08
1.29646e-09
2.19866e-09
-1.15786e-07
-4.20344e-09
-4.52421e-09
1.21019e-07
-1.10971e-07
-3.8177e-10
-2.42551e-09
6.28286e-10
1.14695e-07
-2.11162e-10
2.54062e-10
-7.47962e-12
-2.32099e-10
-3.671e-10
-5.16105e-10
-4.65516e-10
-1.12236e-07
-4.03877e-10
-1.13078e-09
1.49568e-09
1.15242e-07
-3.02043e-10
2.26529e-10
-6.44713e-11
-5.72987e-10
-5.42884e-10
-1.02726e-09
-6.83547e-10
-2.76523e-08
2.17612e-10
4.8157e-10
-3.06913e-10
-1.00847e-10
2.73609e-08
6.51778e-10
7.86656e-10
-1.25293e-07
-1.14514e-08
-1.16242e-08
3.16006e-08
3.13626e-08
3.01814e-08
3.02106e-08
2.07472e-09
5.48869e-09
4.16256e-09
2.14643e-09
5.3815e-09
4.32077e-09
-2.68832e-08
-3.86957e-09
-1.14939e-11
-4.325e-09
2.16045e-09
3.29288e-08
-2.56792e-08
-6.40517e-10
-3.5845e-09
1.563e-09
-4.21853e-09
3.25597e-08
-2.80048e-08
3.55971e-09
3.54838e-09
-3.59332e-09
-3.31233e-09
2.78024e-08
-3.53049e-11
-3.89756e-11
2.75187e-08
-2.73653e-08
-3.93541e-11
-3.97498e-11
1.14989e-07
1.30527e-12
-1.14991e-07
4.63869e-12
-3.56904e-11
-1.01738e-11
8.37827e-12
-2.44343e-11
-2.45275e-11
2.2621e-11
2.44205e-11
3.51545e-11
1.15024e-07
1.53438e-12
-1.15026e-07
4.59146e-12
-3.56309e-11
-1.0884e-11
8.95405e-12
-2.44866e-11
-2.44844e-11
2.24356e-11
2.43989e-11
-3.92292e-11
2.75202e-08
-2.73665e-08
-3.92658e-11
-4.00391e-11
1.1288e-07
4.65837e-13
-1.1288e-07
-2.66022e-15
-3.84713e-11
-2.82529e-11
2.79748e-11
5.82813e-11
-5.76802e-11
5.62751e-11
-5.77329e-11
2.97107e-11
1.13927e-07
1.24456e-12
-1.13928e-07
-4.10021e-13
-2.86869e-11
-2.45461e-11
2.83866e-11
3.63527e-11
-5.69094e-11
5.2482e-11
-3.65764e-11
1.86514e-13
-1.12868e-07
5.47536e-14
-3.87538e-11
-2.79014e-11
2.78607e-11
5.83039e-11
-5.77944e-11
-5.7675e-11
5.6552e-11
5.17855e-11
1.13871e-07
5.44771e-11
-1.13922e-07
-2.66184e-11
-2.72147e-11
-2.32889e-11
2.32441e-11
3.65153e-11
-5.62559e-11
5.55865e-11
-3.72173e-11
-4.31536e-11
2.75249e-08
-2.73723e-08
-4.79559e-11
-3.17595e-11
7.85782e-14
-1.13937e-07
4.18648e-12
-4.41265e-11
-1.50038e-11
9.1312e-12
-3.59124e-12
-2.56522e-11
4.00642e-12
2.71736e-11
2.41916e-11
1.14033e-07
-7.0495e-11
-1.13976e-07
3.75047e-11
-4.56283e-11
-1.43391e-11
1.32278e-11
-3.81605e-12
-2.65807e-11
2.42339e-11
4.41074e-12
-2.73786e-08
-6.28051e-11
-1.40245e-11
3.53776e-11
3.80613e-11
3.98987e-11
4.00784e-11
2.73652e-08
-3.54193e-11
-3.87656e-11
2.75179e-08
-2.73649e-08
-3.92693e-11
-3.95416e-11
1.13973e-12
1.14992e-07
8.58914e-12
3.57753e-11
-9.71848e-12
2.45202e-11
2.2394e-11
-2.50818e-11
-2.43533e-11
-3.53738e-11
-7.8347e-13
1.4227e-12
1.15029e-07
9.00713e-12
3.54135e-11
-1.45175e-11
2.44792e-11
2.21858e-11
-2.51705e-11
-2.15011e-11
1.14989e-07
5.86402e-12
-1.14994e-07
4.90516e-12
-3.54477e-11
-1.03239e-11
8.20779e-12
-2.51203e-11
-2.48568e-11
2.20887e-11
2.42262e-11
3.53236e-11
1.15024e-07
6.00866e-12
-1.15028e-07
4.92578e-12
-3.55839e-11
-1.14321e-11
8.78903e-12
-2.51863e-11
-2.48489e-11
2.18395e-11
2.42282e-11
3.96117e-11
4.07027e-11
2.73662e-08
-3.91526e-11
2.75195e-08
-2.73662e-08
-3.90799e-11
-3.97535e-11
-2.11929e-12
1.12882e-07
2.83057e-11
3.95285e-11
-2.77641e-11
-5.72679e-11
5.66509e-11
5.86741e-11
-5.72013e-11
-2.84616e-11
-1.60338e-12
-1.58787e-12
1.13929e-07
2.40553e-11
3.00857e-11
-2.40092e-11
-3.61194e-11
5.53767e-11
3.66919e-11
-5.64171e-11
1.12877e-07
2.72454e-12
-1.12882e-07
3.59385e-12
-3.84735e-11
-2.86925e-11
2.76627e-11
5.84561e-11
-5.77478e-11
5.6383e-11
-5.7722e-11
2.95277e-11
1.13925e-07
3.62955e-12
-1.13931e-07
3.01739e-12
-2.86993e-11
-2.49928e-11
2.80533e-11
3.65132e-11
-5.69774e-11
5.2554e-11
-3.65701e-11
4.61631e-10
-1.38655e-10
1.1312e-07
7.47839e-11
1.92763e-10
6.73066e-11
-3.91721e-11
5.58607e-11
-8.55153e-11
3.81084e-11
2.96815e-12
-1.12871e-07
2.29295e-12
-3.87166e-11
-2.85304e-11
2.78649e-11
5.85611e-11
-5.78115e-11
-5.76139e-11
5.67671e-11
-1.23516e-10
1.13867e-07
-4.59525e-10
-1.13121e-07
1.4312e-10
-1.90207e-10
-7.73523e-11
-6.49921e-11
3.98291e-11
-5.74438e-11
8.1737e-11
-3.79687e-11
4.77471e-11
3.2743e-11
2.73723e-08
-4.30695e-11
2.75238e-08
-2.73718e-08
-4.77721e-11
-3.16095e-11
-5.57615e-10
1.75349e-10
1.14837e-07
-3.15353e-11
-1.23809e-10
-1.2042e-10
6.98457e-12
2.36065e-11
6.57538e-12
-4.95645e-12
3.13493e-12
-1.13942e-07
5.78724e-12
-4.35425e-11
-1.53791e-11
9.39785e-12
-3.95434e-12
-2.58379e-11
4.06418e-12
2.66652e-11
1.78218e-10
1.14037e-07
5.56373e-10
-1.14839e-07
-1.71321e-10
1.246e-10
3.00396e-11
1.17233e-10
-6.8414e-12
-2.53559e-11
-5.6692e-12
4.99195e-12
-2.73784e-08
7.31803e-11
-1.71145e-10
3.46811e-11
3.77289e-11
3.9945e-11
4.03441e-11
2.73652e-08
-3.48038e-11
-3.82147e-11
2.75164e-08
-2.73645e-08
-3.9246e-11
-3.96187e-11
-4.29079e-12
1.14995e-07
9.36542e-12
3.65297e-11
-8.86263e-12
2.51399e-11
2.29841e-11
-2.44399e-11
-2.36557e-11
-3.47282e-11
-3.96383e-12
-3.77269e-12
1.1503e-07
9.9952e-12
3.64775e-11
-9.90813e-12
2.51214e-11
2.27529e-11
-2.45009e-11
-2.36559e-11
1.14983e-07
1.3971e-11
-1.14998e-07
1.0965e-11
-3.58143e-11
-1.12066e-11
7.54986e-12
-2.54375e-11
-2.54185e-11
2.17296e-11
2.37677e-11
3.46361e-11
1.15018e-07
1.38215e-11
-1.15033e-07
1.10207e-11
-3.57823e-11
-1.1933e-11
8.12473e-12
-2.54764e-11
-2.53374e-11
2.1568e-11
2.37803e-11
3.95978e-11
4.07309e-11
2.73664e-08
-3.85079e-11
2.75179e-08
-2.73657e-08
-3.91464e-11
-3.99222e-11
-5.40647e-12
1.12884e-07
2.86291e-11
3.98834e-11
-2.73997e-11
-5.67277e-11
5.71564e-11
5.91819e-11
-5.66523e-11
-2.81266e-11
-6.5971e-12
-4.20578e-12
1.13931e-07
2.43712e-11
3.04382e-11
-2.36622e-11
-3.55822e-11
5.58728e-11
3.72044e-11
-5.58813e-11
1.12871e-07
1.14371e-11
-1.12886e-07
8.99114e-12
-3.87887e-11
-2.94109e-11
2.71594e-11
5.80605e-11
-5.83643e-11
5.59668e-11
-5.82628e-11
2.90601e-11
1.13918e-07
1.26233e-11
-1.13934e-07
7.8855e-12
-2.89596e-11
-2.56503e-11
2.75918e-11
3.60757e-11
-5.76326e-11
5.21042e-11
-3.71755e-11
-5.84544e-11
2.19343e-11
1.13924e-07
2.33146e-11
2.9134e-11
-2.3654e-11
-3.59714e-11
5.51729e-11
-5.65806e-11
3.78584e-11
1.12359e-11
-1.12874e-07
8.63708e-12
-3.90504e-11
-2.90383e-11
2.7064e-11
5.80868e-11
-5.8495e-11
-5.82091e-11
5.62306e-11
5.13521e-11
1.13862e-07
6.48723e-11
-1.13926e-07
-1.81304e-11
-2.73048e-11
-2.47729e-11
2.19822e-11
3.63371e-11
-5.69418e-11
5.52232e-11
-3.77799e-11
4.8041e-11
3.28463e-11
2.73722e-08
-4.24765e-11
2.75224e-08
-2.73715e-08
-4.78407e-11
-3.15111e-11
6.34432e-11
-3.79787e-11
1.13985e-07
1.59506e-11
4.58942e-11
-1.28834e-11
4.79246e-12
2.54577e-11
-2.49286e-11
-3.97976e-12
1.06581e-11
-1.13945e-07
1.03133e-11
-4.38607e-11
-1.61564e-11
8.82693e-12
-4.14846e-12
-2.62755e-11
3.75721e-12
2.64357e-11
2.36374e-11
1.14031e-07
-6.02204e-11
-1.13986e-07
4.23961e-11
-4.58206e-11
-1.4636e-11
1.32682e-11
-4.2939e-12
-2.71346e-11
2.36717e-11
4.18209e-12
-2.73779e-08
-6.31137e-11
-1.33868e-11
3.4023e-11
3.70017e-11
4.00363e-11
4.03294e-11
2.7365e-08
-3.33895e-11
-3.68293e-11
2.75138e-08
-2.73639e-08
-3.96269e-11
-4.0036e-11
-1.1986e-11
1.15002e-07
1.0278e-11
3.74072e-11
-7.72202e-12
2.58873e-11
2.37691e-11
-2.38657e-11
-2.26368e-11
-3.40374e-11
-1.50108e-11
-1.20633e-11
1.15039e-07
1.06234e-11
3.70494e-11
-1.26249e-11
2.58188e-11
2.35465e-11
-2.39616e-11
-1.9783e-11
1.14971e-07
3.24558e-11
-1.15007e-07
2.34807e-11
-3.68034e-11
-1.30735e-11
5.95345e-12
-2.62103e-11
-2.67148e-11
2.06916e-11
2.27847e-11
3.32586e-11
1.15006e-07
3.21841e-11
-1.15041e-07
2.35338e-11
-3.69825e-11
-1.41676e-11
6.54367e-12
-2.62659e-11
-2.66618e-11
2.0472e-11
2.27931e-11
3.9712e-11
4.09205e-11
2.7366e-08
-3.72321e-11
2.75153e-08
-2.73651e-08
-3.9461e-11
-4.03109e-11
-1.27947e-11
1.12889e-07
2.95143e-11
4.082e-11
-2.63247e-11
-5.59034e-11
5.78314e-11
5.97972e-11
-5.57555e-11
-2.73742e-11
-1.76863e-11
-1.09543e-11
1.13936e-07
2.53058e-11
3.14004e-11
-2.25278e-11
-3.48047e-11
5.64917e-11
3.77806e-11
-5.50496e-11
1.12858e-07
3.08302e-11
-1.12894e-07
2.08162e-11
-3.97605e-11
-3.10862e-11
2.58484e-11
5.70746e-11
-5.96803e-11
5.49209e-11
-5.94999e-11
2.77093e-11
1.13906e-07
3.22936e-11
-1.13943e-07
1.90328e-11
-2.99057e-11
-2.73407e-11
2.62677e-11
3.5066e-11
-5.89296e-11
5.10637e-11
-3.84265e-11
4.48818e-10
-1.49023e-10
1.13124e-07
7.56355e-11
1.94181e-10
6.82213e-11
-3.77734e-11
5.70701e-11
-8.41337e-11
3.93527e-11
3.13215e-11
-1.12882e-07
1.91668e-11
-4.0007e-11
-3.09084e-11
2.60341e-11
5.71529e-11
-5.97774e-11
-5.94251e-11
5.52723e-11
-1.2546e-10
1.13848e-07
-4.34208e-10
-1.1313e-07
1.59729e-10
-1.91328e-10
-7.98461e-11
-6.67262e-11
3.83604e-11
-5.93876e-11
8.0215e-11
-3.98474e-11
4.79566e-11
3.30133e-11
2.73721e-08
-4.11342e-11
2.752e-08
-2.73711e-08
-4.81607e-11
-3.18779e-11
-5.68991e-10
1.61065e-10
1.14849e-07
-2.97891e-11
-1.22143e-10
-1.18271e-10
8.3022e-12
2.51793e-11
7.97627e-12
-3.82457e-12
2.66743e-11
-1.13955e-07
2.41953e-11
-4.47927e-11
-1.78597e-11
7.34467e-12
-4.75325e-12
-2.7445e-11
2.99699e-12
2.55146e-11
1.76085e-10
1.14021e-07
5.81867e-10
-1.14856e-07
-1.53407e-10
1.23093e-10
2.81687e-11
1.15782e-10
-7.64154e-12
-2.69208e-11
-6.45205e-12
3.93533e-12
-2.73777e-08
7.24781e-11
-1.71364e-10
3.31095e-11
3.60075e-11
3.97768e-11
4.00529e-11
2.73648e-08
-3.11678e-11
-3.47038e-11
2.75097e-08
-2.73632e-08
-4.00304e-11
-4.06111e-11
-2.59341e-11
1.15015e-07
1.17098e-11
3.87075e-11
-5.82712e-12
2.67382e-11
2.45617e-11
-2.33204e-11
-2.14375e-11
-3.31796e-11
-3.50035e-11
-2.53641e-11
1.1505e-07
1.23433e-11
3.86486e-11
-6.89893e-12
2.66856e-11
2.43019e-11
-2.34165e-11
-2.1478e-11
1.14949e-07
6.53259e-11
-1.15026e-07
4.55622e-11
-3.83619e-11
-1.59911e-11
3.18227e-12
-2.69862e-11
-2.81851e-11
1.95151e-11
2.17242e-11
3.10037e-11
1.14984e-07
6.45489e-11
-1.1506e-07
4.5638e-11
-3.83338e-11
-1.67144e-11
3.89299e-12
-2.69806e-11
-2.80001e-11
1.94239e-11
2.18004e-11
3.94238e-11
4.03965e-11
2.7366e-08
-3.50285e-11
2.75113e-08
-2.73644e-08
-3.9875e-11
-4.09586e-11
-2.64634e-11
1.12902e-07
3.0865e-11
4.21877e-11
-2.46114e-11
-5.48371e-11
5.86235e-11
6.04875e-11
-5.45573e-11
-2.64397e-11
-3.94004e-11
-2.35237e-11
1.13949e-07
2.6609e-11
3.26854e-11
-2.08609e-11
-3.3723e-11
5.72848e-11
3.84941e-11
-5.38628e-11
1.12835e-07
6.57763e-11
-1.12913e-07
4.13783e-11
-4.12357e-11
-3.36536e-11
2.38319e-11
5.58859e-11
-6.13036e-11
5.359e-11
-6.0981e-11
2.56273e-11
1.13883e-07
6.75715e-11
-1.13962e-07
3.90633e-11
-3.13617e-11
-2.99648e-11
2.41874e-11
3.38713e-11
-6.05334e-11
4.97449e-11
-3.99307e-11
-8.97178e-11
2.70054e-12
1.13941e-07
2.52038e-11
3.1349e-11
-2.11206e-11
-3.41264e-11
5.6548e-11
-5.45818e-11
3.912e-11
6.63059e-11
-1.12901e-07
4.04202e-11
-4.14831e-11
-3.32775e-11
2.37657e-11
5.59007e-11
-6.14746e-11
-6.09506e-11
5.38352e-11
4.78675e-11
1.13826e-07
1.19033e-10
-1.13952e-07
1.38484e-11
-2.97751e-11
-2.92651e-11
1.83492e-11
3.40885e-11
-6.00512e-11
5.27995e-11
-4.06543e-11
4.76599e-11
3.27339e-11
2.73721e-08
-3.90542e-11
2.75161e-08
-2.73706e-08
-4.86279e-11
-3.22271e-11
3.56525e-11
-6.04015e-11
1.14005e-07
1.83133e-11
4.79638e-11
-9.90701e-12
6.08664e-12
2.70083e-11
-2.28147e-11
-3.03603e-12
5.78776e-11
-1.13973e-07
4.41127e-11
-4.6226e-11
-2.0533e-11
4.88808e-12
-5.2947e-12
-2.86955e-11
2.03144e-12
2.45465e-11
2.01511e-11
1.13999e-07
-1.00784e-11
-1.14016e-07
7.59257e-11
-4.83353e-11
-1.89993e-11
9.72707e-12
-5.46856e-12
-2.9599e-11
2.1765e-11
2.64024e-12
-2.73769e-08
-6.42043e-11
-1.41675e-11
3.13863e-11
3.40646e-11
3.96276e-11
3.97746e-11
2.73649e-08
-2.78059e-11
-3.13012e-11
2.7504e-08
-2.73629e-08
-4.06779e-11
-4.13573e-11
-5.14927e-11
1.15041e-07
1.42024e-11
4.1047e-11
-2.02879e-12
2.80609e-11
2.57171e-11
-2.24781e-11
-1.96079e-11
-3.14437e-11
-7.29683e-11
-5.22857e-11
1.1508e-07
1.44194e-11
4.06515e-11
-7.70671e-12
2.79003e-11
2.54084e-11
-2.26279e-11
-1.68446e-11
1.14909e-07
1.21707e-10
-1.15062e-07
8.23286e-11
-4.07506e-11
-2.03459e-11
-4.92255e-13
-2.7483e-11
-2.91377e-11
1.87078e-11
2.11112e-11
2.77252e-11
1.14945e-07
1.19923e-10
-1.15096e-07
8.20702e-11
-4.09229e-11
-2.13221e-11
-2.44765e-14
-2.74317e-11
-2.88831e-11
1.86227e-11
2.12648e-11
3.92369e-11
4.03155e-11
2.7366e-08
-3.17635e-11
2.75058e-08
-2.73641e-08
-4.04772e-11
-4.16871e-11
-5.1018e-11
1.12928e-07
3.3338e-11
4.46939e-11
-2.14856e-11
-5.32721e-11
5.97204e-11
6.14327e-11
-5.28208e-11
-2.45425e-11
-7.95879e-11
-4.69339e-11
1.13974e-07
2.90926e-11
3.51544e-11
-1.77373e-11
-3.21425e-11
5.83705e-11
3.94604e-11
-5.21571e-11
1.12793e-07
1.2601e-10
-1.12949e-07
7.61262e-11
-4.37399e-11
-3.77404e-11
2.04651e-11
5.49436e-11
-6.25319e-11
5.24111e-11
-6.19834e-11
2.23823e-11
1.13842e-07
1.27873e-10
-1.13998e-07
7.34078e-11
-3.36929e-11
-3.40704e-11
2.08138e-11
3.29794e-11
-6.17265e-11
4.85944e-11
-4.09416e-11
3.89838e-10
-1.85542e-10
1.13161e-07
7.90768e-11
1.97891e-10
7.19566e-11
-3.50794e-11
5.88261e-11
-8.12616e-11
4.09579e-11
1.27881e-10
-1.12937e-07
7.35238e-11
-4.4004e-11
-3.74843e-11
2.06577e-11
5.50292e-11
-6.26602e-11
-6.19276e-11
5.27548e-11
-1.31418e-10
1.13783e-07
-3.38595e-10
-1.13182e-07
2.13564e-10
-1.95141e-10
-8.63316e-11
-7.11973e-11
3.60617e-11
-6.24444e-11
7.75311e-11
-4.25813e-11
4.73538e-11
3.26376e-11
2.73723e-08
-3.59163e-11
2.75106e-08
-2.73703e-08
-4.92664e-11
-3.27569e-11
-6.2411e-10
1.22567e-10
1.1489e-07
-2.67157e-11
-1.18139e-10
-1.1406e-10
1.01216e-11
2.68583e-11
1.00595e-11
-2.77835e-12
1.09811e-10
-1.14009e-07
8.14258e-11
-4.84691e-11
-2.45015e-11
8.32575e-13
-5.47926e-12
-2.93134e-11
2.11189e-12
2.40163e-11
1.70756e-10
1.13963e-07
6.62689e-10
-1.14912e-07
-9.62349e-11
1.19011e-10
2.29522e-11
1.11185e-10
-8.27374e-12
-2.85924e-11
-7.37965e-12
2.8941e-12
-2.73774e-08
7.12207e-11
-1.7251e-10
2.85795e-11
3.12459e-11
3.91831e-11
3.93642e-11
2.73657e-08
-2.32669e-11
-2.64084e-11
2.74956e-08
-2.73628e-08
-4.12842e-11
-4.18378e-11
-9.3133e-11
1.15091e-07
1.81272e-11
4.49727e-11
1.97446e-12
2.90403e-11
2.58754e-11
-2.25024e-11
-1.81024e-11
-2.88231e-11
-1.37158e-10
-9.1968e-11
1.15125e-07
1.8517e-11
4.47213e-11
1.50386e-12
2.87366e-11
2.53295e-11
-2.28241e-11
-1.84676e-11
1.1483e-07
2.22548e-10
-1.15131e-07
1.39724e-10
-4.42864e-11
-2.58156e-11
-3.87051e-12
-2.62806e-11
-2.69853e-11
2.00299e-11
2.31469e-11
2.33496e-11
1.14867e-07
2.15671e-10
-1.15164e-07
1.39087e-10
-4.42406e-11
-2.61672e-11
-3.54842e-12
-2.57956e-11
-2.61378e-11
2.05545e-11
2.37856e-11
3.88704e-11
3.96403e-11
2.73668e-08
-2.70363e-11
2.74975e-08
-2.73639e-08
-4.10548e-11
-4.2084e-11
-9.06748e-11
1.12977e-07
3.68705e-11
4.87669e-11
-1.65687e-11
-5.17805e-11
5.99294e-11
6.1408e-11
-5.11163e-11
-2.16251e-11
-1.49047e-10
-8.67729e-11
1.14024e-07
3.26508e-11
3.90706e-11
-1.27212e-11
-3.07829e-11
5.85218e-11
3.94331e-11
-5.05695e-11
1.12715e-07
2.32833e-10
-1.13017e-07
1.30493e-10
-4.76311e-11
-4.32098e-11
1.54448e-11
5.57074e-11
-6.08458e-11
5.29883e-11
-5.99127e-11
1.78209e-11
1.13765e-07
2.30101e-10
-1.14066e-07
1.28998e-10
-3.76307e-11
-3.93236e-11
1.54114e-11
3.42933e-11
-5.9754e-11
4.9582e-11
-3.85797e-11
-1.98503e-10
-5.97127e-11
1.14015e-07
3.11189e-11
3.74855e-11
-1.32131e-11
-3.13577e-11
5.76859e-11
-5.14698e-11
3.99393e-11
2.31559e-10
-1.13004e-07
1.27929e-10
-4.7814e-11
-4.25545e-11
1.53443e-11
5.59256e-11
-6.08304e-11
-5.96808e-11
5.34177e-11
4.03723e-11
1.13706e-07
2.81523e-10
-1.14053e-07
1.03629e-10
-3.61455e-11
-3.86141e-11
9.07119e-12
3.43531e-11
-5.95404e-11
5.24265e-11
-3.95372e-11
4.69883e-11
3.22833e-11
2.73731e-08
-3.1763e-11
2.75026e-08
-2.73702e-08
-4.96307e-11
-3.31359e-11
-6.34213e-11
-1.26959e-10
1.14081e-07
2.44332e-11
5.40945e-11
-8.6507e-13
7.69224e-12
2.79536e-11
-1.99895e-11
-2.53486e-12
2.00062e-10
-1.14073e-07
1.36099e-10
-5.19778e-11
-2.94151e-11
-2.92046e-12
-3.66911e-12
-2.65842e-11
3.87923e-12
2.58501e-11
1.3149e-11
1.13889e-07
1.30832e-10
-1.14118e-07
1.68698e-10
-5.41104e-11
-2.7599e-11
4.25479e-13
-3.5867e-12
-2.70902e-11
2.34503e-11
4.57685e-12
-2.73771e-08
-6.50345e-11
-1.49842e-11
2.50895e-11
2.76272e-11
3.79723e-11
3.83041e-11
2.73666e-08
-2.07482e-11
-2.25693e-11
2.74872e-08
-2.73644e-08
-3.94251e-11
-4.00393e-11
-1.59177e-10
1.15188e-07
2.29101e-11
5.07443e-11
7.07074e-12
2.7825e-11
2.15299e-11
-2.63118e-11
-1.94922e-11
-2.5626e-11
-2.48348e-10
-1.59566e-10
1.15222e-07
2.24013e-11
4.98861e-11
3.75559e-12
2.67856e-11
2.05574e-11
-2.70258e-11
-1.79411e-11
1.14678e-07
3.98493e-10
-1.15266e-07
2.18189e-10
-4.84142e-11
-2.78761e-11
-7.6199e-12
-1.89168e-11
-1.23806e-11
2.89351e-11
3.59825e-11
2.00639e-11
1.14726e-07
3.74744e-10
-1.15289e-07
2.1372e-10
-4.80857e-11
-2.95796e-11
-7.02493e-12
-1.79318e-11
-1.0298e-11
3.00022e-11
3.76452e-11
3.76494e-11
3.8778e-11
2.73673e-08
-2.20694e-11
2.74892e-08
-2.73651e-08
-4.0756e-11
-4.11725e-11
-1.52519e-10
1.13073e-07
4.14081e-11
5.49069e-11
-8.87645e-12
-5.22236e-11
5.62236e-11
5.72776e-11
-5.14831e-11
-1.82458e-11
-2.67412e-10
-1.50053e-10
1.14117e-07
3.67163e-11
4.51046e-11
-3.8708e-12
-3.21578e-11
5.4529e-11
3.49979e-11
-5.18337e-11
1.12564e-07
4.21496e-10
-1.13152e-07
2.06136e-10
-5.29362e-11
-4.65821e-11
9.10079e-12
6.21285e-11
-4.80228e-11
6.0028e-11
-4.61955e-11
1.32375e-11
1.13625e-07
3.96881e-10
-1.14193e-07
2.03619e-10
-4.17687e-11
-4.32884e-11
8.99364e-12
4.20423e-11
-4.57221e-11
5.75779e-11
-2.34148e-11
2.01942e-10
-2.85443e-10
1.13302e-07
8.62658e-11
2.08175e-10
8.25792e-11
-3.49626e-11
5.51273e-11
-8.0669e-11
3.6626e-11
4.01931e-10
-1.13129e-07
2.0112e-10
-5.26178e-11
-4.80818e-11
9.91648e-12
6.276e-11
-4.71355e-11
-4.52102e-11
6.0881e-11
-1.41397e-10
1.13568e-07
-6.66905e-11
-1.13374e-07
3.4192e-10
-2.05012e-10
-9.46948e-11
-8.28287e-11
4.40388e-11
-4.78739e-11
8.49741e-11
-2.59685e-11
4.59442e-11
3.10775e-11
2.73741e-08
-2.65085e-11
2.7494e-08
-2.73712e-08
-5.03534e-11
-3.27539e-11
-7.86418e-10
1.56472e-11
1.15029e-07
-2.029e-11
-1.07607e-10
-1.03168e-10
8.31423e-12
2.17892e-11
8.62124e-12
-6.67151e-12
3.46164e-10
-1.14193e-07
2.17549e-10
-5.58625e-11
-3.51522e-11
-6.25897e-12
6.30651e-12
-1.10288e-11
1.62911e-11
3.44455e-11
1.62617e-10
1.13758e-07
8.94056e-10
-1.15098e-07
3.94249e-11
1.10205e-10
1.65556e-11
1.00893e-10
3.24078e-12
-9.84577e-12
4.76677e-12
1.8337e-11
-2.73785e-08
7.07647e-11
-1.71979e-10
2.57336e-11
2.66722e-11
3.32018e-11
3.39876e-11
2.73676e-08
-3.59578e-11
-3.64142e-11
2.74935e-08
-2.73724e-08
-2.14107e-11
-2.73893e-11
-2.3487e-10
1.15367e-07
2.12548e-11
5.52169e-11
1.14186e-11
1.57315e-11
-8.6193e-13
-4.45793e-11
-3.43611e-11
-2.47373e-11
-4.23153e-10
-2.25817e-10
1.15385e-07
2.32601e-11
5.30056e-11
8.77951e-12
1.41709e-11
-2.19202e-12
-4.59983e-11
-3.58299e-11
1.14434e-07
6.30073e-10
-1.15498e-07
2.81026e-10
-5.11968e-11
-1.31511e-11
-5.86134e-12
7.78938e-12
3.91514e-11
5.12108e-11
8.89151e-11
3.37535e-11
1.14486e-07
6.01736e-10
-1.15512e-07
2.75704e-10
-5.20633e-11
-1.41982e-11
-7.08581e-12
9.30742e-12
3.71112e-11
5.30972e-11
8.82486e-11
3.58251e-11
3.55205e-11
2.73683e-08
-3.45224e-11
2.74927e-08
-2.73707e-08
-2.26065e-11
-3.10553e-11
-2.29689e-10
1.13255e-07
4.14763e-11
6.17426e-11
-8.27379e-14
-6.28397e-11
3.7343e-11
3.72737e-11
-6.34776e-11
-1.54777e-11
-4.51339e-10
-2.22489e-10
1.14285e-07
3.89367e-11
4.85743e-11
9.05893e-13
-4.37485e-11
3.49927e-11
1.39525e-11
-6.41059e-11
1.12315e-07
6.79065e-10
-1.13388e-07
2.75031e-10
-5.98876e-11
-3.13969e-11
6.33033e-12
7.87305e-11
2.59227e-12
7.98556e-11
6.15187e-12
2.43273e-11
1.13391e-07
6.34882e-10
-1.14409e-07
2.64854e-10
-4.64734e-11
-3.10794e-11
8.16661e-12
5.98626e-11
2.03884e-12
7.74353e-11
2.42596e-11
-4.89776e-10
-1.96543e-10
1.14264e-07
3.70094e-11
4.80682e-11
1.95385e-12
-4.3454e-11
3.47074e-11
-6.47332e-11
1.43448e-11
6.63699e-10
-1.13358e-07
2.6892e-10
-6.12594e-11
-3.56368e-11
7.67242e-12
7.94787e-11
6.33672e-13
5.81454e-12
8.19675e-11
3.4366e-11
1.13313e-07
7.01286e-10
-1.14398e-07
2.62205e-10
-4.03964e-11
-4.89542e-11
1.28055e-11
5.82346e-11
4.86571e-12
7.66e-11
2.39532e-11
4.57096e-11
2.92539e-11
2.73745e-08
-3.44796e-11
2.74983e-08
-2.73743e-08
-4.31491e-11
-2.20675e-11
-3.26536e-10
-2.67447e-10
1.14329e-07
3.06572e-11
6.33636e-11
8.41322e-12
-7.90711e-12
2.72889e-13
-3.62102e-11
-2.41691e-11
5.71419e-10
-1.14412e-07
3.01597e-10
-6.09395e-11
-2.65188e-11
-7.00984e-12
3.03133e-11
3.34528e-11
6.31977e-11
5.69616e-11
1.14925e-11
1.1351e-07
5.2177e-10
-1.14457e-07
3.12011e-10
-5.48404e-11
-3.57599e-11
1.05955e-11
2.90994e-11
3.48148e-11
5.28147e-11
6.4915e-11
-2.73794e-08
-6.68737e-11
-1.48175e-11
4.97549e-11
4.88882e-11
9.02387e-12
1.75107e-11
2.73683e-08
-1.0756e-10
-1.01429e-10
2.75542e-08
-2.73812e-08
2.4029e-11
1.1882e-11
-2.66177e-10
1.15663e-07
-3.56724e-12
5.3115e-11
4.3275e-12
-2.5086e-11
-6.36257e-11
-1.11086e-10
-7.57564e-11
-4.865e-11
-6.75323e-10
-2.54459e-10
1.15684e-07
-5.5051e-12
5.41769e-11
5.03882e-12
-2.54916e-11
-6.11675e-11
-1.10574e-10
-7.62081e-11
1.14035e-07
8.84814e-10
-1.15865e-07
2.57776e-10
-4.97574e-11
2.91002e-11
2.00249e-11
7.22856e-11
1.55072e-10
1.31583e-10
2.21087e-10
1.0399e-10
1.14063e-07
8.96606e-10
-1.15892e-07
2.38085e-10
-5.05858e-11
3.13032e-11
1.64038e-11
6.79829e-11
1.69973e-10
1.22939e-10
2.32364e-10
9.06065e-12
1.87381e-11
2.73695e-08
-9.89718e-11
2.7551e-08
-2.73798e-08
2.12954e-11
1.04574e-11
-2.69485e-10
1.13552e-07
1.64047e-11
6.87315e-11
1.11379e-12
-9.60414e-11
-2.40683e-11
-2.83009e-11
-1.04638e-10
-3.50301e-11
-7.1445e-10
-2.51619e-10
1.14575e-07
1.58001e-11
5.01462e-11
-2.85332e-12
-7.37742e-11
-2.39039e-11
-4.74169e-11
-1.01646e-10
1.11917e-07
9.67801e-10
-1.13759e-07
2.38788e-10
-6.69801e-11
1.27476e-11
2.30947e-11
1.39828e-10
1.22462e-10
1.58222e-10
1.44504e-10
9.38621e-11
1.12917e-07
9.88877e-10
-1.14829e-07
2.91526e-10
-5.057e-11
2.16206e-12
4.50147e-11
1.25298e-10
1.12935e-10
1.53467e-10
1.49484e-10
-2.70643e-10
-4.11301e-10
1.1378e-07
8.33946e-11
2.11395e-10
7.56989e-11
-8.04027e-11
-2.70733e-11
-1.30089e-10
-4.67042e-11
1.02117e-09
-1.13747e-07
2.249e-10
-6.56246e-11
-2.70669e-12
3.70881e-11
1.36086e-10
1.24272e-10
1.39986e-10
1.48962e-10
-6.39906e-11
1.12882e-07
5.15056e-10
-1.13986e-07
4.32554e-10
-2.29884e-10
-5.20914e-11
-6.35053e-11
1.26931e-10
1.14851e-10
1.75629e-10
1.4885e-10
3.28638e-11
1.17375e-11
2.73728e-08
-1.18181e-10
2.75592e-08
-2.7386e-08
1.00014e-11
2.88258e-11
-1.23347e-09
-9.38942e-11
1.15503e-07
-2.3512e-11
-1.10394e-10
-1.1904e-10
-4.29054e-11
-5.5603e-11
-5.05451e-11
-8.49234e-11
9.27708e-10
-1.14819e-07
2.65982e-10
-5.79258e-11
2.16768e-11
2.97052e-11
9.42521e-11
1.47519e-10
1.87681e-10
1.31814e-10
2.62192e-10
1.13072e-07
1.50314e-09
-1.15718e-07
5.52208e-11
9.89491e-11
7.34743e-11
1.22365e-10
8.71461e-11
1.42866e-10
1.09247e-10
1.92272e-10
-2.73726e-08
1.35631e-10
-1.27183e-10
1.22135e-10
1.13078e-10
-2.64439e-11
-1.76124e-11
2.73631e-08
-4.71809e-10
-4.53159e-10
2.76017e-08
-2.74709e-08
4.10243e-10
3.8397e-10
-1.24371e-10
1.16142e-07
-4.51247e-11
3.62448e-11
-6.23529e-11
-1.17927e-10
-1.76535e-10
-2.51394e-10
-2.08602e-10
-1.23663e-10
-1.04691e-09
-7.8071e-11
1.16152e-07
-5.33841e-11
2.99965e-11
-5.70096e-11
-1.15813e-10
-1.93783e-10
-2.57299e-10
-1.93058e-10
1.13166e-07
1.18936e-09
-1.16499e-07
-2.89569e-10
-1.34609e-10
3.95721e-10
3.50759e-12
2.26643e-10
4.86219e-10
3.71671e-10
6.1202e-10
3.79543e-10
1.13209e-07
1.20096e-09
-1.16531e-07
-2.80321e-10
-9.04304e-12
2.28655e-10
1.25382e-10
2.45868e-10
4.63285e-10
3.78966e-10
5.89203e-10
-2.5147e-11
-1.77706e-11
2.73593e-08
-3.89324e-10
2.76636e-08
-2.7464e-08
3.07736e-10
2.61546e-10
-9.98313e-11
1.14041e-07
-3.07703e-11
5.15819e-11
-6.05857e-11
-1.84684e-10
-1.49748e-10
-1.81032e-10
-2.29287e-10
-1.26675e-10
-1.14878e-09
-1.6437e-10
1.15131e-07
-4.67934e-11
6.05477e-11
-4.0503e-11
-1.70373e-10
-1.4658e-10
-1.93287e-10
-2.36861e-10
1.1104e-07
1.12353e-09
-1.14365e-07
-2.53026e-10
-1.5052e-10
3.95631e-10
-2.78004e-11
3.04983e-10
4.79014e-10
4.17876e-10
5.82899e-10
4.17835e-10
1.12098e-07
1.051e-09
-1.1539e-07
-1.34737e-10
-1.15989e-10
3.63624e-10
1.31225e-11
2.71046e-10
4.55187e-10
3.897e-10
5.81536e-10
-1.16929e-09
-1.1755e-10
1.15071e-07
-3.40587e-11
4.20576e-11
-5.66617e-11
-1.63771e-10
-1.48086e-10
-2.22588e-10
-1.86178e-10
1.32223e-09
-1.14383e-07
-2.79905e-10
-4.33273e-11
2.05816e-10
1.30781e-10
2.96384e-10
4.31014e-10
5.48925e-10
4.11422e-10
3.96019e-10
1.11921e-07
1.37095e-09
-1.1545e-07
-1.65104e-10
-5.32759e-11
2.30449e-10
9.38579e-11
2.57903e-10
4.44653e-10
3.84293e-10
5.69295e-10
-2.50612e-11
-4.32891e-11
2.73591e-08
-4.5894e-10
2.75874e-08
-2.74752e-08
4.14046e-10
3.50546e-10
-1.01657e-09
-1.312e-10
1.15118e-07
-5.15468e-11
5.67153e-11
-3.79256e-11
-1.42014e-10
-1.72767e-10
-2.06611e-10
-2.28305e-10
9.98181e-10
-1.15343e-07
-3.00275e-10
-1.27318e-10
3.72189e-10
9.9393e-12
2.49898e-10
4.70952e-10
5.93775e-10
3.80307e-10
3.73023e-10
1.12215e-07
1.0296e-09
-1.15463e-07
-1.7237e-10
-6.16712e-11
2.41902e-10
9.05196e-11
2.60733e-10
4.78539e-10
3.93852e-10
6.13436e-10
-2.74619e-08
2.56943e-10
3.21664e-10
4.2372e-10
4.05814e-10
-3.2757e-10
-3.03171e-10
2.74029e-08
-1.13089e-09
-3.22592e-10
2.77696e-08
-2.70261e-08