/*--------------------------------*- C++ -*----------------------------------*\
| =========                 |                                                 |
| \\      /  F ield         | OpenFOAM: The Open Source CFD Toolbox           |
|  \\    /   O peration     | Version:  2206                                  |
|   \\  /    A nd           | Website:  www.openfoam.com                      |
|    \\/     M anipulation  |                                                 |
\*---------------------------------------------------------------------------*/
FoamFile
{
    version     2.0;
    format      ascii;
    arch        "LSB;label=32;scalar=64";
    class       volVectorField;
    location    "0.5";
    object      U;
}
// * * * * * * * * * * * * * * * * * * * * * * * * * * * * * * * * * * * * * //

dimensions      [0 1 -1 0 0 0 0];

internalField   nonuniform List<vector> 
66940
(
(-3.25492e-06 -2.80512e-06 0.136779)
(2.00227e-06 -2.46524e-06 0.132529)
(3.3233e-06 -5.83899e-07 0.132735)
(-0.000208 -0.000212818 0.129203)
(-8.95791e-06 -6.94312e-06 0.136792)
(7.1232e-06 -6.51512e-06 0.13254)
(-4.2348e-06 3.79775e-06 0.132747)
(-0.00020898 -0.000205549 0.129195)
(-2.40597e-05 -2.24185e-05 0.136813)
(1.53108e-05 -1.74222e-05 0.132557)
(-1.47519e-05 1.18595e-05 0.132764)
(-0.000207259 -0.000211102 0.129197)
(-5.75948e-05 -5.53995e-05 0.136848)
(2.75968e-05 -3.58315e-05 0.132583)
(-3.28712e-05 2.17999e-05 0.13279)
(-0.000211892 -0.000206905 0.129186)
(-0.000126822 -0.000123246 0.136903)
(4.3203e-05 -6.77012e-05 0.132611)
(-6.37917e-05 3.4922e-05 0.132821)
(-0.000210536 -0.00021364 0.129183)
(-0.000267339 -0.00025985 0.136979)
(5.18428e-05 -0.000116438 0.132629)
(-0.000110738 3.83848e-05 0.132841)
(-0.000217051 -0.000211494 0.129162)
(-0.000566707 -0.000552519 0.137093)
(1.82958e-05 -0.000183541 0.132607)
(-0.000175724 -4.99521e-06 0.132826)
(-0.000219399 -0.000222401 0.129142)
(-0.00120846 -0.00118051 0.137281)
(-0.000177614 -0.000241432 0.132496)
(-0.000233135 -0.000207706 0.132741)
(-0.000228296 -0.000225167 0.129151)
(-0.00244438 -0.00240729 0.137538)
(-0.00084922 -0.000129738 0.13219)
(-0.000113827 -0.000885403 0.132491)
(-0.00023774 -0.000236891 0.129043)
(-0.00504609 -0.00489233 0.138019)
(-0.00266983 0.000594527 0.131598)
(0.000743844 -0.00277921 0.131882)
(-0.000495852 -0.000452994 0.128513)
(-0.0109108 -0.0109359 0.137762)
(-0.00697713 0.00293614 0.130359)
(0.00270655 -0.00702186 0.13095)
(-0.0012284 -0.00127904 0.127365)
(-0.0268246 -0.0271421 0.127163)
(-0.00632746 0.00816095 0.12283)
(0.00891191 -0.0077609 0.123119)
(-0.00290662 -0.00305887 0.122382)
(-0.000212512 -0.000215495 0.129062)
(7.15823e-06 4.9031e-06 0.132722)
(-7.12601e-06 5.05622e-06 0.132728)
(0.000211426 -0.000215401 0.129066)
(2.71244e-06 2.25071e-06 0.132517)
(3.79453e-06 -1.79978e-06 0.13252)
(-2.26485e-06 2.21501e-06 0.132516)
(-5.33265e-06 9.83091e-07 0.132493)
(-0.000211622 0.000215951 0.12906)
(7.21302e-06 -3.12839e-06 0.132723)
(-8.83197e-06 -3.11505e-06 0.132747)
(0.00021222 0.000217718 0.129049)
(0.000208236 0.000209415 0.129194)
(-0.000214182 -0.000216409 0.12906)
(2.72759e-06 1.14654e-06 0.132735)
(-3.48585e-06 1.65268e-06 0.132741)
(8.87872e-06 7.8726e-06 0.132712)
(-8.8044e-06 8.05133e-06 0.132719)
(-0.000206904 0.000209715 0.129197)
(0.000213453 -0.000217384 0.129064)
(-1.42888e-06 -2.17743e-06 0.132531)
(-3.4446e-07 1.63266e-06 0.132533)
(3.57604e-06 6.9885e-06 0.132508)
(4.46587e-06 -6.41926e-06 0.13251)
(1.53151e-06 -1.86159e-06 0.132554)
(-3.02986e-06 6.75062e-06 0.132507)
(-5.78974e-06 -4.27972e-06 0.132492)
(0.000208808 -0.000208157 0.129193)
(-0.000213679 0.000216894 0.129059)
(-3.6799e-06 -1.71091e-06 0.132714)
(9.03695e-06 -5.43313e-06 0.132713)
(-1.06772e-05 -5.51329e-06 0.132732)
(0.00021405 0.00021999 0.129058)
(0.000206788 0.000208943 0.129192)
(-0.000213963 -0.000216489 0.129058)
(-4.17135e-06 -3.28565e-06 0.132747)
(3.89109e-06 -2.65121e-06 0.132753)
(1.69935e-05 1.42668e-05 0.132696)
(-1.71221e-05 1.42152e-05 0.132703)
(-0.000206599 0.00020918 0.129196)
(0.000212838 -0.000216516 0.129062)
(-6.77201e-06 -6.56462e-06 0.132543)
(-5.70632e-06 5.65193e-06 0.132544)
(9.90971e-06 1.50055e-05 0.132489)
(1.10206e-05 -1.37056e-05 0.132492)
(5.4549e-06 3.13613e-06 0.132554)
(-9.53533e-06 1.46755e-05 0.132489)
(-1.28244e-05 -1.04034e-05 0.132464)
(0.000207119 -0.000207651 0.129191)
(-0.000213356 0.000217279 0.129057)
(5.21652e-06 3.1127e-06 0.132739)
(1.71255e-05 -1.09676e-05 0.132698)
(-1.91888e-05 -1.00599e-05 0.132725)
(0.000213342 0.000220073 0.129046)
(0.000207136 0.00020894 0.129188)
(-0.000212481 -0.000215244 0.129056)
(-1.438e-05 -1.18458e-05 0.132765)
(1.36093e-05 -1.1053e-05 0.132771)
(3.32072e-05 2.63294e-05 0.13267)
(-3.31954e-05 2.6129e-05 0.132677)
(-0.000205919 0.000209298 0.129191)
(0.000211529 -0.000216113 0.129059)
(-1.51449e-05 -1.74198e-05 0.132561)
(-1.38645e-05 1.60773e-05 0.132562)
(2.22947e-05 3.19108e-05 0.132461)
(2.33811e-05 -2.95647e-05 0.132464)
(1.53484e-05 1.28607e-05 0.132581)
(-2.18321e-05 3.13144e-05 0.132462)
(-2.4998e-05 -2.83916e-05 0.132444)
(0.000207454 -0.000207443 0.129187)
(-0.000212132 0.000216068 0.129056)
(1.43488e-05 1.22894e-05 0.132746)
(3.38281e-05 -2.17263e-05 0.132673)
(-3.54152e-05 -2.09333e-05 0.132695)
(0.000211591 0.000219242 0.129054)
(0.000208899 0.000210485 0.129182)
(-0.000210536 -0.000213943 0.129056)
(-3.20555e-05 -2.34364e-05 0.132792)
(3.19802e-05 -2.24337e-05 0.132796)
(6.01391e-05 4.08889e-05 0.132639)
(-6.03237e-05 4.01293e-05 0.132648)
(-0.000208883 0.000210752 0.129185)
(0.000209352 -0.000214089 0.12906)
(-2.73706e-05 -3.61056e-05 0.132588)
(-2.62301e-05 3.35123e-05 0.132589)
(3.8069e-05 5.96277e-05 0.132427)
(3.92029e-05 -5.59578e-05 0.132431)
(2.57065e-05 3.04727e-05 0.132597)
(-3.78208e-05 5.88531e-05 0.132432)
(-4.11706e-05 -5.3292e-05 0.132402)
(0.000209145 -0.000209093 0.129182)
(-0.000210608 0.000214987 0.129057)
(3.43453e-05 2.23096e-05 0.132785)
(6.06895e-05 -3.43757e-05 0.132644)
(-6.29864e-05 -3.28651e-05 0.132673)
(0.000210265 0.00021758 0.129046)
(0.000210729 0.000211658 0.129173)
(-0.000207989 -0.000211785 0.129065)
(-6.20293e-05 -3.87496e-05 0.132823)
(6.13299e-05 -3.69528e-05 0.132826)
(0.000102157 5.03527e-05 0.132614)
(-0.000101461 4.79919e-05 0.132625)
(-0.000209778 0.000211857 0.129176)
(0.000206857 -0.000212525 0.129069)
(-4.30655e-05 -6.82107e-05 0.132621)
(-4.18552e-05 6.38667e-05 0.132622)
(4.99415e-05 0.000103627 0.132398)
(5.07398e-05 -9.7973e-05 0.132403)
(4.39937e-05 6.18859e-05 0.132639)
(-4.94708e-05 0.000101959 0.132409)
(-5.40953e-05 -9.91492e-05 0.132382)
(0.000210982 -0.000210191 0.129173)
(-0.000208854 0.000213385 0.129066)
(6.45141e-05 3.63849e-05 0.132803)
(0.000102354 -4.06235e-05 0.132622)
(-0.000103315 -3.82444e-05 0.132645)
(0.000206502 0.000214968 0.129065)
(0.000213126 0.000214505 0.129157)
(-0.000205589 -0.000209127 0.129092)
(-0.000109432 -4.58662e-05 0.132847)
(0.000108049 -4.1889e-05 0.132847)
(0.000160899 2.94135e-05 0.132612)
(-0.000159316 2.13879e-05 0.132631)
(-0.000213383 0.000214575 0.12916)
(0.000204919 -0.000209904 0.129094)
(-5.2169e-05 -0.000117709 0.132648)
(-5.0161e-05 0.00011133 0.132647)
(3.31905e-05 0.00016648 0.13239)
(2.96683e-05 -0.000158738 0.132403)
(4.87569e-05 0.000106915 0.132652)
(-3.03584e-05 0.000163456 0.132419)
(-3.38289e-05 -0.000156783 0.132373)
(0.000212952 -0.000212176 0.129158)
(-0.000207921 0.000211864 0.129089)
(0.000113029 3.90994e-05 0.132838)
(0.00016069 -1.30393e-05 0.132627)
(-0.000162846 -8.44102e-06 0.132657)
(0.000208174 0.00021587 0.129079)
(0.000218197 0.000220764 0.12912)
(-0.000209984 -0.000213521 0.129171)
(-0.000174533 -1.05346e-05 0.132841)
(0.000170497 8.63954e-07 0.132832)
(0.000208309 -0.00011357 0.132686)
(-0.000207746 -0.000132767 0.132707)
(-0.000217743 0.000220676 0.129126)
(0.000204338 -0.000207962 0.129156)
(-2.28179e-05 -0.000186814 0.132647)
(-1.42818e-05 0.000178141 0.132636)
(-9.77686e-05 0.000226368 0.132457)
(-0.00011393 -0.000217606 0.132479)
(1.76387e-05 0.000177661 0.132652)
(0.000107158 0.000226103 0.132505)
(0.000102887 -0.000231973 0.132438)
(0.00021818 -0.000218882 0.129129)
(-0.000202739 0.000209044 0.129124)
(0.000179305 -6.33102e-06 0.132813)
(0.000222622 0.000132173 0.132694)
(-0.000217715 0.000145866 0.132716)
(0.00020284 0.000215959 0.129083)
(0.000234511 0.0002387 0.129039)
(-0.000247176 -0.000264772 0.129389)
(-0.000205529 0.000195272 0.132738)
(0.000205379 0.000215848 0.132733)
(0.000118485 -0.000646006 0.132937)
(-0.000141986 -0.000654333 0.132921)
(-0.000226895 0.000226954 0.129063)
(0.000242576 -0.000263345 0.129396)
(0.000167571 -0.000235805 0.132551)
(0.000185622 0.000227985 0.132539)
(-0.000599076 0.000162626 0.132717)
(-0.000604557 -0.000171338 0.13268)
(-0.000181891 0.000234229 0.132572)
(0.000604814 0.00018794 0.132758)
(0.000594354 -0.000214011 0.132601)
(0.000217437 -0.000222975 0.129094)
(-0.000230424 0.000247778 0.12928)
(0.000235234 -0.000214322 0.132744)
(0.00019139 0.000629736 0.132903)
(-0.000165575 0.000635718 0.132928)
(0.000189803 0.000194258 0.129171)
(0.000295119 0.00031559 0.128844)
(-0.000362246 -0.000371774 0.129734)
(-3.88078e-05 0.000918889 0.132453)
(5.73652e-05 0.000923785 0.132483)
(-0.000343745 -0.0020571 0.133367)
(0.000326104 -0.00209676 0.13338)
(-0.000300247 0.000315427 0.128837)
(0.000349545 -0.000367046 0.129702)
(0.000839474 -0.000101611 0.132251)
(0.000839113 0.000109825 0.132319)
(-0.00198877 -0.000302248 0.133167)
(-0.00201384 0.000269479 0.13312)
(-0.000842825 0.000155063 0.132354)
(0.00197632 -0.000281001 0.133285)
(0.00196552 0.000203135 0.133081)
(0.000270127 -0.000287269 0.128963)
(-0.0004136 0.000409731 0.129791)
(8.35153e-05 -0.000879361 0.132472)
(-0.000366515 0.00203581 0.133387)
(0.00037617 0.0020015 0.133391)
(0.00038907 0.000366496 0.129685)
(0.000431096 0.000437709 0.128499)
(-0.00179912 -0.00179536 0.131118)
(0.000683201 0.00276168 0.131994)
(-0.000687032 0.002809 0.131967)
(-0.00212337 -0.00562536 0.133893)
(0.00210987 -0.00571733 0.133868)
(-0.000430326 0.000441497 0.128552)
(0.00133818 -0.00147647 0.130789)
(0.0027021 0.000636973 0.131768)
(0.00274354 -0.000613448 0.131744)
(-0.00572352 -0.00215398 0.133754)
(-0.00558773 0.00186587 0.13368)
(-0.00266752 -0.000552976 0.131815)
(0.00561322 -0.00211902 0.133925)
(0.00545587 0.00189591 0.133589)
(0.000524182 -0.000542174 0.128395)
(-0.00182568 0.00171302 0.131187)
(-0.000671396 -0.00271023 0.131955)
(-0.00214895 0.00566698 0.133973)
(0.00209426 0.00579491 0.133942)
(0.00145582 0.00144155 0.130739)
(0.00159957 0.00160886 0.127073)
(-0.00799873 -0.00817053 0.127438)
(0.00278532 0.00701972 0.130912)
(-0.00290965 0.00718061 0.130933)
(-0.00873623 -0.0177437 0.130477)
(0.00824646 -0.0171955 0.130425)
(-0.00133241 0.00141286 0.127274)
(0.00739453 -0.00762142 0.127385)
(0.00700354 0.00288172 0.130615)
(0.00673622 -0.0025425 0.13084)
(-0.0178224 -0.00904501 0.130499)
(-0.0176278 0.00849725 0.130668)
(-0.00669406 -0.00266164 0.130719)
(0.0174575 -0.00824303 0.130993)
(0.0173813 0.00810828 0.130606)
(0.00158983 -0.0015558 0.126746)
(-0.00840268 0.0080902 0.128297)
(-0.00277204 -0.00724213 0.130823)
(-0.00880646 0.017782 0.130636)
(0.00841408 0.0172999 0.130599)
(0.00815838 0.00753771 0.127955)
(0.00254191 0.00269902 0.121149)
(0.0083709 0.0075091 0.122704)
(-0.00797378 0.00665428 0.123342)
(-0.00241694 0.00259812 0.121211)
(0.00710109 0.00852238 0.122877)
(0.00734682 -0.00903312 0.123177)
(0.0266868 -0.0261841 0.127391)
(-0.0258721 0.0260254 0.127232)
(0.0270903 0.0269868 0.127551)
(-0.00790376 -0.00898595 0.123297)
(0.00289591 -0.00318618 0.121476)
(-0.00863339 -0.00766608 0.123517)
(3.12197e-06 -3.70041e-06 0.0647385)
(-1.50504e-06 -1.21417e-06 0.136771)
(1.74714e-06 -8.05265e-07 0.136772)
(-7.38277e-07 2.4458e-06 0.136773)
(1.24266e-06 2.75266e-06 0.136769)
(6.0967e-05 -1.56452e-07 0.118223)
(-3.60783e-06 2.77245e-06 0.132521)
(4.51229e-05 -1.59866e-05 0.102723)
(-1.49411e-06 -1.22936e-06 0.134971)
(0.000213704 0.000220007 0.129054)
(1.30206e-05 1.4721e-05 0.0884007)
(1.20411e-05 1.02279e-05 0.0885817)
(7.2862e-08 -3.096e-05 0.101741)
(5.17012e-06 2.21378e-05 0.0756469)
(-3.68549e-08 2.80431e-05 0.101923)
(-2.09351e-06 -1.74942e-05 0.0755733)
(-5.51434e-06 8.57012e-06 0.0648947)
(5.82723e-06 -5.165e-06 0.0648222)
(-2.97697e-05 6.63841e-08 0.100659)
(1.88666e-05 2.677e-06 0.0753017)
(2.9906e-05 -3.65533e-07 0.101244)
(-1.89075e-05 -2.6982e-06 0.0750781)
(3.35818e-06 -2.57528e-06 0.136779)
(-2.53262e-06 2.15359e-06 0.136779)
(1.64261e-06 2.80573e-06 0.136782)
(2.60536e-06 5.30756e-06 0.136764)
(-2.51953e-06 5.30324e-06 0.136766)
(3.58949e-06 -3.32708e-06 0.136765)
(-4.11064e-06 -2.95148e-06 0.136764)
(5.93308e-05 -2.29168e-08 0.118228)
(-4.65691e-05 1.33493e-05 0.103165)
(5.63717e-06 -3.76962e-06 0.134983)
(-1.77666e-06 3.89753e-06 0.132512)
(-6.1839e-05 -1.36678e-06 0.118865)
(4.55344e-05 -1.55387e-05 0.102726)
(-2.15957e-06 -6.77777e-07 0.134966)
(6.76822e-06 -4.67523e-06 0.0647349)
(-6.188e-06 3.86972e-06 0.064584)
(3.68168e-07 5.69988e-05 0.119296)
(-6.36136e-07 -1.46701e-06 0.135258)
(1.61063e-05 -4.48879e-05 0.10359)
(8.64845e-06 -4.24904e-06 0.132717)
(-1.16713e-06 -6.38286e-05 0.119456)
(7.8853e-07 -8.36927e-06 0.135242)
(-1.65722e-05 4.27676e-05 0.10343)
(-1.32279e-05 -1.47192e-05 0.0887504)
(-1.8144e-05 -1.32012e-05 0.089003)
(0.000214278 0.000221387 0.129052)
(1.26941e-05 1.27299e-05 0.0884022)
(1.66675e-05 1.04039e-05 0.0887855)
(-2.38684e-07 -3.15812e-05 0.101742)
(2.51983e-06 2.24488e-05 0.0756439)
(-1.18236e-07 3.3244e-05 0.101925)
(-3.91382e-06 -1.87399e-05 0.0755733)
(-4.49351e-06 8.28239e-06 0.0648886)
(5.55886e-06 -5.54576e-06 0.0648217)
(-3.00697e-05 1.54599e-07 0.100662)
(1.83445e-05 3.08412e-06 0.0753035)
(2.9787e-05 -1.98498e-07 0.101247)
(-1.92704e-05 -2.47659e-06 0.0750805)
(9.00443e-06 -6.30185e-06 0.136792)
(-8.61381e-06 5.46704e-06 0.136792)
(8.24261e-06 5.24205e-06 0.136793)
(1.52274e-05 1.69458e-05 0.136745)
(-1.5185e-05 1.67261e-05 0.136747)
(1.64927e-05 -1.32967e-05 0.136747)
(-1.68094e-05 -1.26172e-05 0.136744)
(5.90026e-05 8.67816e-08 0.11823)
(-4.60183e-05 1.30479e-05 0.103168)
(1.21781e-05 -4.19395e-06 0.134994)
(-5.92185e-06 1.0169e-05 0.132499)
(-6.23778e-05 -1.26051e-06 0.118867)
(4.55989e-05 -1.56214e-05 0.102728)
(-9.9392e-06 2.47925e-06 0.134949)
(6.26941e-06 -4.86541e-06 0.0647369)
(-6.37429e-06 3.98209e-06 0.0645867)
(2.79285e-07 5.75129e-05 0.119294)
(-4.2852e-06 6.32901e-06 0.135269)
(1.62509e-05 -4.47819e-05 0.103589)
(1.24906e-05 -7.84081e-06 0.132707)
(-9.43179e-07 -6.25004e-05 0.119451)
(3.12078e-06 -1.61019e-05 0.135229)
(-1.72831e-05 4.28474e-05 0.103429)
(-1.32612e-05 -1.38658e-05 0.0887521)
(-1.75734e-05 -1.16159e-05 0.0890063)
(0.000212808 0.000219932 0.129052)
(1.33878e-05 1.42971e-05 0.0884012)
(1.65095e-05 1.2663e-05 0.0887925)
(-3.11715e-07 -3.21855e-05 0.101739)
(2.26776e-06 2.12893e-05 0.0756474)
(-1.8584e-07 3.22198e-05 0.101925)
(-3.73756e-06 -1.95074e-05 0.0755775)
(-4.88062e-06 7.5399e-06 0.0648901)
(5.02172e-06 -6.83576e-06 0.0648229)
(-3.01179e-05 1.32073e-07 0.100664)
(1.80851e-05 3.05427e-06 0.0753076)
(2.92799e-05 -1.2343e-07 0.101249)
(-1.93423e-05 -2.46262e-06 0.0750855)
(2.41543e-05 -2.1795e-05 0.136812)
(-2.4021e-05 1.95569e-05 0.136812)
(2.30042e-05 1.97945e-05 0.136815)
(4.4414e-05 4.53178e-05 0.136712)
(-4.47769e-05 4.47515e-05 0.136715)
(4.61627e-05 -3.92978e-05 0.136714)
(-4.66305e-05 -3.93774e-05 0.136714)
(5.81751e-05 3.49483e-08 0.11823)
(-4.55921e-05 1.29438e-05 0.103169)
(2.92992e-05 -9.27689e-06 0.135017)
(-1.5005e-05 2.15193e-05 0.132476)
(-6.20181e-05 -1.3192e-06 0.118867)
(4.58235e-05 -1.55411e-05 0.10273)
(-2.935e-05 7.76019e-06 0.134919)
(6.19605e-06 -4.74415e-06 0.0647407)
(-6.44359e-06 3.87157e-06 0.0645915)
(3.30456e-07 5.74693e-05 0.119291)
(-1.02536e-05 2.34071e-05 0.135291)
(1.5985e-05 -4.40602e-05 0.10359)
(2.44357e-05 -1.54019e-05 0.132686)
(-8.67569e-07 -6.14134e-05 0.11945)
(1.00937e-05 -3.49853e-05 0.1352)
(-1.72038e-05 4.3091e-05 0.103429)
(-1.28614e-05 -1.41081e-05 0.0887511)
(-1.72428e-05 -1.14782e-05 0.089012)
(0.000213529 0.000222113 0.129049)
(1.28955e-05 1.28803e-05 0.0884044)
(1.68473e-05 1.22969e-05 0.088795)
(-2.27301e-07 -3.13729e-05 0.101735)
(2.404e-06 2.17615e-05 0.075652)
(-2.39635e-07 3.28924e-05 0.101922)
(-2.97361e-06 -1.93343e-05 0.0755796)
(-5.49254e-06 7.37355e-06 0.0648938)
(4.1145e-06 -6.61582e-06 0.0648283)
(-2.91547e-05 1.06547e-07 0.100667)
(1.87881e-05 2.89077e-06 0.0753129)
(3.00306e-05 -1.61706e-07 0.10125)
(-1.88675e-05 -2.35783e-06 0.0750891)
(5.8234e-05 -5.44937e-05 0.136846)
(-5.7962e-05 4.98596e-05 0.136847)
(5.71778e-05 4.97748e-05 0.136849)
(0.000103338 0.00010227 0.136664)
(-0.000104767 0.00010139 0.136669)
(0.000105235 -9.33183e-05 0.136667)
(-0.00010516 -9.22799e-05 0.136664)
(5.54997e-05 1.34264e-07 0.118228)
(-4.65822e-05 1.24631e-05 0.10317)
(6.45674e-05 -1.76836e-05 0.135059)
(-2.96747e-05 4.35387e-05 0.132447)
(-6.37629e-05 -1.27002e-06 0.118864)
(4.45547e-05 -1.5094e-05 0.102732)
(-7.33063e-05 1.94223e-05 0.134868)
(6.82021e-06 -4.57012e-06 0.0647443)
(-6.0908e-06 3.87648e-06 0.0645945)
(3.41012e-07 5.4775e-05 0.119286)
(-2.17927e-05 5.69261e-05 0.135331)
(1.58012e-05 -4.4703e-05 0.103589)
(4.59057e-05 -2.81054e-05 0.132659)
(-8.86482e-07 -6.24197e-05 0.119447)
(2.43635e-05 -7.71881e-05 0.135152)
(-1.61598e-05 4.22303e-05 0.103427)
(-1.4007e-05 -1.36351e-05 0.0887529)
(-1.79366e-05 -1.0762e-05 0.0890145)
(0.000209953 0.000218294 0.129049)
(1.26237e-05 1.35911e-05 0.0884054)
(1.50376e-05 1.32304e-05 0.0888031)
(-1.51152e-08 -3.11382e-05 0.101734)
(2.78269e-06 2.20713e-05 0.0756535)
(-2.91991e-08 3.37743e-05 0.101921)
(-1.66083e-06 -2.01658e-05 0.0755781)
(-5.51207e-06 8.02384e-06 0.0648931)
(2.7995e-06 -8.03412e-06 0.0648276)
(-2.83009e-05 2.85275e-08 0.100671)
(1.97549e-05 2.5681e-06 0.0753139)
(3.17773e-05 6.11454e-09 0.101251)
(-1.89812e-05 -1.9387e-06 0.0750878)
(0.000128729 -0.00012215 0.136899)
(-0.000127557 0.000114106 0.136902)
(0.000126216 0.000115043 0.136905)
(0.000220297 0.000215858 0.136595)
(-0.000223541 0.000214056 0.136605)
(0.000221771 -0.00020239 0.136601)
(-0.000222188 -0.000202787 0.136602)
(5.15907e-05 2.422e-07 0.118232)
(-4.81506e-05 1.26417e-05 0.10317)
(0.000139514 -3.66749e-05 0.135129)
(-4.5192e-05 7.81297e-05 0.132418)
(-6.6156e-05 -1.11965e-06 0.118859)
(4.461e-05 -1.39459e-05 0.102735)
(-0.000161528 3.97676e-05 0.134785)
(7.71069e-06 -4.00392e-06 0.0647423)
(-6.35689e-06 3.49697e-06 0.064595)
(6.17147e-07 4.923e-05 0.119287)
(-4.42e-05 0.000128219 0.1354)
(1.62021e-05 -4.56279e-05 0.103589)
(7.97487e-05 -3.88658e-05 0.132631)
(-7.18585e-07 -6.27966e-05 0.119445)
(4.98231e-05 -0.000158969 0.135075)
(-1.43818e-05 4.23736e-05 0.103429)
(-1.53376e-05 -1.37497e-05 0.0887475)
(-1.77142e-05 -1.25652e-05 0.0890148)
(0.000209595 0.000218368 0.129053)
(1.24716e-05 1.16025e-05 0.0884107)
(1.4259e-05 1.31336e-05 0.0888075)
(-4.99304e-07 -3.207e-05 0.101742)
(1.98494e-06 2.25853e-05 0.0756555)
(1.57132e-07 3.49726e-05 0.101918)
(-1.10481e-07 -2.17846e-05 0.0755775)
(-4.7804e-06 8.58206e-06 0.0648899)
(1.14678e-06 -9.05202e-06 0.0648372)
(-2.87222e-05 -3.50244e-07 0.100681)
(2.07804e-05 1.72147e-06 0.075312)
(3.45215e-05 3.32528e-07 0.101244)
(-2.02941e-05 -6.54385e-07 0.075086)
(0.000270598 -0.00025792 0.136969)
(-0.000266624 0.000245108 0.136974)
(0.000265761 0.000244976 0.136976)
(0.00046512 0.00045573 0.136493)
(-0.000465113 0.000449168 0.13651)
(0.000459363 -0.000425997 0.136505)
(-0.000456351 -0.000425202 0.136502)
(4.53141e-05 4.68223e-07 0.118243)
(-5.03704e-05 1.15406e-05 0.103165)
(0.00029269 -6.90092e-05 0.135239)
(-4.67646e-05 0.000130843 0.132408)
(-7.14873e-05 -5.37999e-07 0.118851)
(4.66315e-05 -1.2272e-05 0.102742)
(-0.000340636 7.89909e-05 0.134659)
(8.81652e-06 -2.88265e-06 0.0647356)
(-7.68372e-06 2.0011e-06 0.0646003)
(6.14778e-07 4.1459e-05 0.119296)
(-8.48131e-05 0.000274011 0.135507)
(1.5267e-05 -4.68444e-05 0.103588)
(0.000129847 -3.38619e-05 0.132619)
(-2.82278e-07 -6.47404e-05 0.119444)
(9.70811e-05 -0.000329333 0.134958)
(-1.27794e-05 4.47752e-05 0.103434)
(-1.70265e-05 -1.19675e-05 0.0887311)
(-1.67439e-05 -1.23512e-05 0.0890029)
(0.000205997 0.000214447 0.12907)
(1.4498e-05 1.0764e-05 0.088425)
(1.18598e-05 1.63581e-05 0.0888307)
(-1.53738e-06 -3.38203e-05 0.101763)
(-2.74912e-07 2.45448e-05 0.0756615)
(1.15083e-06 4.11024e-05 0.101907)
(4.01135e-06 -2.52357e-05 0.0755753)
(-1.72938e-06 1.10421e-05 0.0648799)
(-2.97082e-06 -1.2992e-05 0.0648535)
(-2.9982e-05 -1.40531e-06 0.100709)
(2.31236e-05 -2.63201e-07 0.0753108)
(4.18866e-05 1.50617e-06 0.101224)
(-2.3653e-05 2.94265e-06 0.0750828)
(0.000561354 -0.000542567 0.137075)
(-0.000553786 0.000514031 0.13708)
(0.000544815 0.000514924 0.137085)
(0.000997081 0.000977174 0.136328)
(-0.000963333 0.000945564 0.136346)
(0.00095357 -0.000891692 0.136343)
(-0.000929512 -0.000892084 0.136329)
(3.71993e-05 9.90499e-07 0.11827)
(-5.41649e-05 1.08993e-05 0.103153)
(0.000606185 -0.000131131 0.135408)
(1.27728e-05 0.000198633 0.132448)
(-8.31795e-05 6.19888e-07 0.118828)
(5.51818e-05 -1.05013e-05 0.102756)
(-0.000702175 0.000149138 0.13447)
(1.10171e-05 -4.06134e-07 0.0647211)
(-1.03198e-05 -1.05281e-06 0.0646153)
(2.68719e-07 3.07349e-05 0.119314)
(-0.000157493 0.000572658 0.135666)
(1.46646e-05 -4.96831e-05 0.103584)
(0.000193497 3.58494e-05 0.13265)
(8.91745e-07 -7.27711e-05 0.119431)
(0.000180522 -0.0006746 0.13478)
(-1.29172e-05 5.22476e-05 0.103443)
(-2.12436e-05 -1.03479e-05 0.0886929)
(-1.34297e-05 -1.71061e-05 0.0889738)
(0.00020866 0.000219833 0.12909)
(1.66572e-05 9.86116e-06 0.0884662)
(1.20559e-05 1.94553e-05 0.0888722)
(-9.70356e-06 -4.5643e-05 0.101851)
(-7.03653e-06 3.18091e-05 0.0756745)
(5.39085e-06 5.97113e-05 0.10186)
(9.89339e-06 -3.32602e-05 0.0755643)
(2.58034e-06 1.66765e-05 0.0648472)
(-9.39522e-06 -2.26427e-05 0.0649167)
(-4.18598e-05 -8.28563e-06 0.100811)
(3.062e-05 -3.89299e-06 0.075314)
(6.0644e-05 5.37797e-06 0.101159)
(-3.1854e-05 6.60641e-06 0.0750677)
(0.00116038 -0.00113987 0.137268)
(-0.00114568 0.00107697 0.137271)
(0.00111539 0.00107952 0.137291)
(0.00204262 0.00200781 0.136115)
(-0.0020193 0.00195883 0.136103)
(0.00194094 -0.00188031 0.136094)
(-0.00196256 -0.00191973 0.136074)
(2.34556e-05 -4.63534e-06 0.118355)
(-6.76456e-05 1.20071e-05 0.103133)
(0.00123026 -0.000241768 0.135676)
(0.000289226 0.000234158 0.132602)
(-0.000110346 3.90532e-06 0.118762)
(8.42492e-05 -4.7761e-06 0.102776)
(-0.00141171 0.000283977 0.134192)
(1.38208e-05 -1.58467e-06 0.0646919)
(-1.63255e-05 -5.99871e-08 0.0646572)
(-6.51292e-06 1.69621e-05 0.119392)
(-0.00028929 0.00117344 0.135922)
(1.58003e-05 -6.4454e-05 0.103571)
(0.000233482 0.000314172 0.132772)
(3.77846e-06 -9.57241e-05 0.119383)
(0.000338272 -0.00135988 0.134518)
(2.22579e-08 8.80956e-05 0.103463)
(-1.13427e-05 -3.39102e-05 0.0886452)
(-3.47577e-05 -9.34674e-06 0.0889206)
(0.000186268 0.000199526 0.129074)
(-1.59863e-06 5.52877e-05 0.0884891)
(4.9023e-05 7.98309e-06 0.0889396)
(-4.93639e-05 -0.000140813 0.102483)
(-2.19938e-05 5.17339e-05 0.0756638)
(3.30781e-05 0.000106953 0.10153)
(2.17979e-05 -4.40688e-05 0.0755101)
(3.80725e-05 5e-05 0.0646324)
(-4.31033e-05 -5.37748e-05 0.0652023)
(-0.000121496 -5.73497e-05 0.101369)
(4.49696e-05 -9.50215e-06 0.0753118)
(0.000119238 2.90612e-05 0.100823)
(-4.35265e-05 8.33187e-06 0.075008)
(0.00244702 -0.00237634 0.137547)
(-0.00234503 0.00228805 0.137576)
(0.00238539 0.00234331 0.137569)
(0.00402638 0.00392568 0.135769)
(-0.00413039 0.00399976 0.135821)
(0.00407001 -0.00402041 0.135749)
(-0.00401591 -0.0040023 0.135783)
(3.45652e-05 -1.06986e-05 0.118641)
(-9.30146e-05 7.68301e-06 0.103083)
(0.00245677 -0.000454859 0.136032)
(0.00112059 3.49831e-05 0.132992)
(-0.000179374 1.52286e-05 0.118535)
(0.000153066 -1.1894e-05 0.102858)
(-0.0027859 0.000558857 0.133907)
(3.28184e-05 1.23091e-05 0.0645285)
(-2.44383e-05 1.25129e-05 0.0648505)
(-2.65053e-05 6.24549e-05 0.119809)
(-0.000537126 0.00235049 0.136289)
(2.10688e-05 -7.83651e-05 0.103569)
(2.10135e-05 0.00115205 0.133095)
(2.39417e-05 -0.000158564 0.119112)
(0.000663692 -0.00269426 0.134193)
(-2.9563e-05 0.000139007 0.10341)
(-7.05831e-05 -5.41277e-05 0.0884907)
(-6.57805e-05 -4.34896e-05 0.0888076)
(0.000256928 0.000240094 0.129386)
(0.00013265 1.26157e-05 0.0888756)
(5.89802e-05 7.43196e-05 0.0890094)
(-0.000202949 -0.000514933 0.103777)
(-4.00697e-05 5.50064e-05 0.0761036)
(6.86597e-05 0.000332715 0.10034)
(0.000212213 -0.000259471 0.0748385)
(6.2061e-05 9.47621e-05 0.064124)
(-0.000103475 -0.000218348 0.0658079)
(-0.000491921 -0.000129419 0.102784)
(5.95764e-05 -4.07816e-06 0.0754503)
(0.000320574 8.13869e-05 0.0997237)
(-0.000186164 9.03741e-05 0.0748072)
(0.00511804 -0.00497335 0.137927)
(-0.00508871 0.00502108 0.137935)
(0.00496224 0.00497061 0.137976)
(0.00789543 0.00790912 0.135316)
(-0.00818285 0.00804349 0.135255)
(0.00757081 -0.00763795 0.13535)
(-0.0079626 -0.00796818 0.1353)
(0.000169167 -6.42659e-05 0.11918)
(-0.000224918 3.1834e-06 0.103006)
(0.00498578 -0.000843337 0.136433)
(0.00335682 -0.000883577 0.133574)
(-0.000334838 4.11984e-05 0.118055)
(0.000367093 -0.00016752 0.102517)
(-0.00552058 0.00112819 0.133647)
(8.29011e-05 1.78509e-05 0.0640731)
(-0.000233369 -0.000151512 0.0654814)
(-0.00011901 0.000214607 0.120447)
(-0.00108787 0.00495494 0.13667)
(-1.21279e-05 -0.000173018 0.103773)
(-0.00106619 0.00346032 0.133785)
(1.53478e-05 -0.000368177 0.118466)
(0.00132505 -0.00542822 0.134051)
(-0.000195878 0.000230441 0.103063)
(-0.000215182 -5.67177e-05 0.0872492)
(-4.47369e-05 -0.000176617 0.0883865)
(0.000698464 0.000657449 0.130158)
(0.000347652 0.000244588 0.0904065)
(0.000198504 0.000257748 0.0898706)
(-0.000373309 -0.00203716 0.104847)
(-0.000237113 -6.28345e-05 0.078364)
(0.000113114 0.00050337 0.0989187)
(2.00195e-05 -0.00094166 0.0720305)
(0.000404212 0.000432362 0.0644697)
(3.58758e-05 -0.000815169 0.0653841)
(-0.00221666 -0.000593451 0.105518)
(9.22736e-05 -0.000234593 0.0773584)
(0.000700592 0.000235604 0.097735)
(-0.00093345 0.000138873 0.072269)
(0.011319 -0.0112477 0.137871)
(-0.0106179 0.0106091 0.137913)
(0.010874 0.0108564 0.137725)
(0.0123642 0.0123541 0.130532)
(-0.0121904 0.0118167 0.13082)
(0.0121182 -0.0123791 0.130835)
(-0.0121321 -0.0122863 0.130624)
(0.00181404 -0.000170422 0.119471)
(6.79242e-06 -0.000300732 0.104574)
(0.0110768 -0.0017677 0.136222)
(0.00963144 -0.00454604 0.134125)
(-0.000536681 9.62403e-06 0.117099)
(0.000917735 -0.000620209 0.0999982)
(-0.00992191 0.00205441 0.133491)
(0.000266673 0.000508261 0.0645501)
(-0.000916212 6.69213e-05 0.0656287)
(-0.000223037 0.00216455 0.120011)
(-0.00163888 0.0108037 0.136337)
(-3.00959e-05 0.000245612 0.105144)
(-0.00406478 0.00937949 0.133445)
(4.69397e-05 -0.000697061 0.116789)
(0.00180095 -0.00992303 0.133218)
(-0.00113701 0.0012406 0.100315)
(-0.000391554 -0.000694717 0.0857846)
(0.000107836 -0.00036902 0.0869338)
(0.00254317 0.00251745 0.130091)
(0.00131668 0.00107034 0.0912428)
(0.00152965 0.00153938 0.0920135)
(-0.00160956 -0.0237487 0.106312)
(-0.00192323 -0.00419277 0.0523624)
(-0.000260892 -0.00314756 0.0902029)
(-0.00657691 -0.00140273 0.0946729)
(0.00086055 -0.00195564 0.0373689)
(0.0151374 -0.0108131 0.101806)
(-0.0228582 -0.000766499 0.105246)
(-0.00541389 -0.00148279 0.0519405)
(-0.00271744 -0.000453302 0.089155)
(-0.00023966 -0.0101702 0.100264)
(-0.00399536 -0.00396502 0.11223)
(-0.00258545 -0.0150306 0.128292)
(-0.0150043 -0.00287063 0.128255)
(-0.021785 -0.0218371 0.120266)
(-0.0059694 -0.00588282 0.12707)
(-0.00259314 -0.0146861 0.114895)
(-0.0148769 -0.00296386 0.114998)
(0.0257935 -0.00213897 0.110881)
(0.00617725 -0.0021546 0.0909682)
(0.0290838 -0.00260153 0.127454)
(0.0287298 -0.0195697 0.117239)
(0.00165348 -0.000180894 0.111776)
(0.0145856 -0.0100325 0.1065)
(0.026691 -0.00328984 0.114816)
(-0.00214103 0.00016832 0.0370844)
(-0.00485107 0.0109363 0.0993373)
(-0.00257206 0.0250274 0.11102)
(-0.00315968 0.0294385 0.127134)
(-0.00314268 0.00711736 0.0920685)
(-0.0182879 0.0275388 0.117787)
(-5.45865e-05 0.00204148 0.111755)
(-0.00313247 0.0266156 0.114948)
(-0.0119269 0.0174061 0.108643)
(0.0016647 0.00112456 0.078655)
(0.00273707 0.00249908 0.0827911)
(0.0247331 0.0244427 0.117213)
(0.00861365 0.00841037 0.0994584)
(0.0136497 0.013945 0.101383)
(-3.34656e-06 -5.05994e-06 0.0648364)
(7.88713e-06 9.95129e-06 0.0648015)
(-6.42165e-06 -4.24393e-06 0.0645875)
(5.60446e-06 3.88208e-06 0.0647399)
(0.00020877 0.000208987 0.129194)
(-1.45363e-05 -1.18148e-05 0.0888287)
(-1.30754e-05 -1.39279e-05 0.0883588)
(1.67157e-05 1.44265e-05 0.0888993)
(1.29507e-05 1.34271e-05 0.0887121)
(5.39223e-06 -1.47466e-05 0.0753485)
(-3.1075e-06 5.7931e-06 0.132508)
(1.12563e-05 -4.33532e-05 0.103054)
(7.21042e-07 2.81996e-05 0.101329)
(-7.96107e-07 -1.83164e-05 0.0755755)
(3.37218e-06 1.96979e-05 0.0754142)
(9.74511e-08 -3.85618e-05 0.101734)
(-6.73707e-07 2.82309e-05 0.101329)
(7.88988e-07 -1.82296e-05 0.075569)
(-3.21929e-06 1.97959e-05 0.0754063)
(-2.88666e-08 -3.85868e-05 0.101733)
(-9.17009e-08 6.11198e-05 0.118925)
(3.23078e-06 5.38861e-06 0.132733)
(-1.72118e-05 -4.278e-05 0.103426)
(9.50895e-07 5.2087e-06 0.135259)
(1.41552e-05 4.6717e-05 0.103235)
(-4.69709e-07 5.2415e-06 0.135226)
(-1.44546e-07 -5.56229e-05 0.119296)
(4.17245e-08 6.11506e-05 0.118925)
(-3.62748e-06 5.91932e-06 0.132738)
(1.68201e-05 -4.2807e-05 0.103414)
(-1.31012e-06 5.30701e-06 0.135261)
(-1.42621e-05 4.66802e-05 0.103222)
(1.715e-07 5.52359e-06 0.135227)
(6.13276e-08 -5.56097e-05 0.119296)
(0.000213351 -0.000217936 0.129064)
(1.08658e-05 -1.00803e-05 0.0885835)
(1.33388e-05 -1.53524e-05 0.0883968)
(7.51713e-06 -5.27943e-06 0.0645903)
(3.08312e-06 -5.02941e-06 0.0648293)
(-7.9401e-06 1.01432e-05 0.0647921)
(-0.000208216 0.000209335 0.129197)
(1.36689e-05 -1.16609e-05 0.0887867)
(1.31361e-05 -1.47934e-05 0.0883978)
(-1.74273e-05 1.45502e-05 0.0888585)
(-1.28367e-05 1.29651e-05 0.0887492)
(6.47512e-06 -4.49636e-06 0.0645914)
(-5.46619e-06 3.89879e-06 0.0647442)
(2.93488e-05 -5.46243e-07 0.101242)
(-1.84974e-05 -2.97612e-06 0.0750776)
(1.76029e-05 1.60562e-06 0.0753014)