/*--------------------------------*- C++ -*----------------------------------*\
| =========                 |                                                 |
| \\      /  F ield         | OpenFOAM: The Open Source CFD Toolbox           |
|  \\    /   O peration     | Version:  2206                                  |
|   \\  /    A nd           | Website:  www.openfoam.com                      |
|    \\/     M anipulation  |                                                 |
\*---------------------------------------------------------------------------*/
FoamFile
{
    version     2.0;
    format      ascii;
    arch        "LSB;label=32;scalar=64";
    class       volScalarField;
    location    "100";
    object      k;
}
// * * * * * * * * * * * * * * * * * * * * * * * * * * * * * * * * * * * * * //

dimensions      [0 2 -2 0 0 0 0];

internalField   nonuniform List<scalar> 
66701
(
1.32906e-05
1.23969e-05
2.07554e-05
3.25207e-05
1.62927e-05
5.77984e-05
5.16499e-05
1.79522e-05
1.25949e-05
2.11636e-05
3.30234e-05
1.64574e-05
5.79086e-05
1.80125e-05
5.21101e-05
1.34576e-05
3.79456e-06
8.99839e-07
1.63526e-07
5.2352e-08
2.84485e-07
3.84909e-06
9.13049e-07
1.6571e-07
5.25295e-08
2.84244e-07
3.79424e-06
8.7908e-07
1.56642e-07
4.74915e-08
2.51873e-07
3.87177e-06
8.96836e-07
1.59631e-07
4.78176e-08
2.52211e-07
3.84442e-06
9.11968e-07
1.65657e-07
5.26125e-08
2.84877e-07
3.91482e-06
9.28581e-07
1.68462e-07
5.28345e-08
2.84534e-07
3.64661e-06
8.54284e-07
1.53578e-07
4.8188e-08
2.5959e-07
3.77216e-06
8.86174e-07
1.59771e-07
4.96772e-08
2.6656e-07
3.68443e-06
8.6234e-07
1.54804e-07
4.83191e-08
2.59798e-07
3.79616e-06
8.92281e-07
1.60765e-07
4.97774e-08
2.66635e-07
1.32132e-05
1.32321e-05
6.72539e-05
3.47298e-05
3.40524e-05
2.07644e-05
6.60558e-05
5.9297e-05
5.77938e-05
2.05582e-05
7.33677e-05
6.60791e-05
5.86766e-05
5.34253e-05
5.76129e-05
2.10422e-05
7.28209e-05
6.72652e-05
5.37749e-05
5.99064e-05
1.3382e-05
6.81632e-05
3.42599e-05
1.32011e-05
2.58336e-05
1.19917e-05
1.19427e-05
2.60083e-05
1.19786e-05
1.1943e-05
5.66124e-05
2.0917e-05
6.97148e-05
3.47286e-05
5.66184e-05
2.08307e-05
7.05562e-05
5.57727e-05
2.06696e-05
6.96895e-05
3.41606e-05
5.58342e-05
2.06496e-05
6.93445e-05
1.62121e-05
5.17752e-05
1.78723e-05
5.77935e-05
1.63051e-05
5.16532e-05
1.77489e-05
1.24156e-05
3.24744e-05
2.06622e-05
1.23839e-05
3.24546e-05
1.64563e-05
1.79404e-05
5.22899e-05
5.71712e-05
1.65243e-05
1.79483e-05
5.17669e-05
1.25213e-05
3.28953e-05
2.11028e-05
1.25967e-05
3.28371e-05
1.34039e-05
2.64139e-05
1.21133e-05
1.2144e-05
5.58298e-05
6.96479e-05
3.44752e-05
7.03149e-05
2.08207e-05
5.71862e-05
3.47502e-05
2.09787e-05
6.9693e-05
1.33014e-05
4.27602e-05
2.97053e-05
3.02422e-05
2.01706e-05
4.20077e-05
2.99659e-05
3.06648e-05
2.00633e-05
3.05397e-05
2.0284e-05
3.10151e-05
2.03958e-05
7.27889e-05
6.69945e-05
7.36325e-05
7.45779e-05
7.30981e-05
7.45824e-05
7.41599e-05
7.01819e-05
6.94032e-05
7.39312e-05
6.04139e-05
7.39378e-05
7.10087e-05
6.98159e-05
6.74392e-05
7.28068e-05
6.57045e-05
7.34189e-05
6.82781e-05
7.18647e-05
6.48429e-05
7.20906e-05
6.86705e-05
7.45272e-05
5.91942e-05
7.44491e-05
7.19848e-05
6.8997e-05
6.88311e-05
6.62083e-05
7.37702e-05
7.36721e-05
6.89225e-05
6.62965e-05
7.29543e-05
7.2236e-05
6.93638e-05
7.51422e-05
6.00442e-05
7.11298e-05
7.03683e-05
7.42534e-05
7.278e-05
6.67212e-05
7.58239e-05
7.55789e-05
7.41377e-05
3.77092e-06
8.94937e-07
1.62716e-07
5.22257e-08
2.84074e-07
3.80092e-06
9.0295e-07
1.64125e-07
5.24012e-08
2.84431e-07
3.78738e-06
8.77726e-07
1.56316e-07
4.7388e-08
2.51375e-07
3.7896e-06
8.80029e-07
1.56932e-07
4.75267e-08
2.51854e-07
3.88147e-06
9.00755e-07
1.60361e-07
4.7884e-08
2.52191e-07
3.8488e-06
9.15343e-07
1.66351e-07
5.26766e-08
2.84843e-07
3.78344e-06
8.9866e-07
1.63392e-07
5.22662e-08
2.8387e-07
3.64189e-06
8.54248e-07
1.5362e-07
4.80969e-08
2.5881e-07
3.79334e-06
8.93812e-07
1.61157e-07
4.98193e-08
2.66624e-07
3.66393e-06
8.59421e-07
1.54577e-07
4.82961e-08
2.59639e-07
3.76128e-06
8.85631e-07
1.59749e-07
4.95658e-08
2.65664e-07
3.78987e-06
8.78994e-07
1.56662e-07
4.74357e-08
2.51405e-07
3.67763e-06
8.61504e-07
1.54759e-07
4.8222e-08
2.59e-07
3.81376e-06
8.98924e-07
1.6208e-07
4.99205e-08
2.66697e-07
3.68642e-06
8.63466e-07
1.55117e-07
4.83638e-08
2.5985e-07
3.79258e-06
8.92738e-07
1.60911e-07
4.96851e-08
2.65743e-07
3.87016e-06
8.972e-07
1.59705e-07
4.77604e-08
2.51706e-07
3.83994e-06
9.1188e-07
1.65651e-07
5.25328e-08
2.84252e-07
3.93646e-06
9.12984e-07
1.62474e-07
4.83432e-08
2.54141e-07
3.79964e-06
9.03932e-07
1.64345e-07
5.2413e-08
2.84293e-07
3.55318e-06
8.40918e-07
1.52922e-07
5.0606e-08
2.78779e-07
3.90364e-06
9.03724e-07
1.60904e-07
4.81721e-08
2.53974e-07
3.90827e-06
9.06147e-07
1.61367e-07
4.82128e-08
2.53935e-07
3.54752e-06
8.39421e-07
1.52622e-07
5.05751e-08
2.78841e-07
3.88606e-06
8.99713e-07
1.60182e-07
4.80958e-08
2.53981e-07
3.88258e-06
8.9893e-07
1.60017e-07
4.80315e-08
2.53621e-07
3.55922e-06
8.42433e-07
1.53133e-07
5.05852e-08
2.785e-07
3.5554e-06
8.41373e-07
1.52937e-07
5.05507e-08
2.78409e-07
3.85619e-06
9.14511e-07
1.65956e-07
5.24822e-08
2.8365e-07
3.8488e-06
9.13523e-07
1.65883e-07
5.25546e-08
2.84247e-07
3.9026e-06
9.27423e-07
1.68375e-07
5.2757e-08
2.83912e-07
3.91526e-06
9.29475e-07
1.68675e-07
5.28605e-08
2.8455e-07
3.916e-06
9.06845e-07
1.61397e-07
4.82077e-08
2.53904e-07
3.60029e-06
8.52693e-07
1.54907e-07
5.07848e-08
2.78725e-07
3.60422e-06
8.53381e-07
1.55035e-07
5.08104e-08
2.78791e-07
4.88125e-05
5.23258e-05
3.31612e-05
5.01994e-05
4.98419e-05
5.37001e-05
3.4367e-05
5.38098e-05
5.1871e-05
5.63397e-05
3.47975e-05
5.35846e-05
5.24587e-05
5.88328e-05
3.58027e-05
5.67901e-05
5.54096e-05
5.94733e-05
3.56507e-05
5.93728e-05
5.77231e-05
6.10757e-05
3.67852e-05
5.94705e-05
5.89057e-05
6.25814e-05
3.84177e-05
5.81367e-05
6.02064e-05
6.41566e-05
3.90787e-05
6.03229e-05
5.962e-05
6.43452e-05
4.00198e-05
6.3484e-05
6.18987e-05
6.53163e-05
4.07288e-05
6.60597e-05
6.30375e-05
6.58362e-05
4.09173e-05
6.64787e-05
6.44712e-05
6.71784e-05
4.19884e-05
6.65279e-05
6.38373e-05
6.77299e-05
4.25666e-05
6.51834e-05
6.53442e-05
6.75309e-05
4.19471e-05
6.63146e-05
6.61611e-05
6.67681e-05
4.23295e-05
6.70717e-05
6.55339e-05
6.7795e-05
4.29463e-05
6.52093e-05
6.60622e-05
6.7269e-05
5.24076e-05
5.33322e-05
4.77252e-05
4.91924e-05
4.98047e-05
5.41906e-05
5.28505e-05
5.65123e-05
4.88493e-05
5.09422e-05
5.14553e-05
5.19599e-05
5.33338e-05
5.65972e-05
4.95876e-05
5.0475e-05
5.16472e-05
5.30832e-05
5.01165e-05
5.25404e-05
5.25171e-05
5.36891e-05
5.6038e-05
5.00849e-05
5.20029e-05
5.08369e-05
5.55539e-05
5.62637e-05
5.69962e-05
5.18268e-05
5.26645e-05
5.32986e-05
5.44129e-05
5.75201e-05
5.88221e-05
5.26222e-05
5.33265e-05
5.44814e-05
5.40425e-05
5.29132e-05
5.33747e-05
5.48235e-05
5.59583e-05
5.86756e-05
5.06161e-05
5.23855e-05
5.25309e-05
5.86517e-05
5.71409e-05
6.04989e-05
5.27058e-05
5.38629e-05
5.44483e-05
5.40917e-05
5.80898e-05
6.01919e-05
5.57018e-05
5.47238e-05
5.5171e-05
5.65058e-05
5.46028e-05
5.5935e-05
5.66261e-05
5.8787e-05
6.00137e-05
5.31322e-05
5.41134e-05
5.58524e-05
5.95508e-05
6.05685e-05
6.12013e-05
5.53005e-05
5.50412e-05
5.78395e-05
5.68641e-05
6.01851e-05
6.2399e-05
5.53888e-05
5.65517e-05
5.79759e-05
5.72039e-05
5.62632e-05
5.8022e-05
5.73541e-05
6.01257e-05
6.19675e-05
5.51622e-05
5.74428e-05
5.57562e-05
6.10873e-05
6.13213e-05
6.3475e-05
5.8239e-05
5.82863e-05
5.98942e-05
5.95775e-05
6.25971e-05
6.26739e-05
5.83336e-05
5.74535e-05
5.85916e-05
5.98594e-05
5.66745e-05
5.94144e-05
5.81318e-05
6.21939e-05
6.21958e-05
5.62903e-05
5.85625e-05
5.83719e-05
6.24525e-05
6.30454e-05
6.47152e-05
6.03488e-05
5.9576e-05
6.12988e-05
5.93767e-05
6.37326e-05
6.40116e-05
5.87809e-05
5.99175e-05
6.15426e-05
6.13514e-05
5.88631e-05
5.8129e-05
6.08041e-05
6.20608e-05
6.3619e-05
5.8647e-05
6.00396e-05
6.05796e-05
6.45216e-05
6.48506e-05
6.51699e-05
6.15769e-05
5.9775e-05
6.17559e-05
6.19639e-05
6.44165e-05
6.56808e-05
6.18144e-05
6.15329e-05
6.29097e-05
6.06819e-05
6.09156e-05
5.96262e-05
6.20097e-05
6.46793e-05
6.54227e-05
6.07835e-05
5.94149e-05
6.04447e-05
6.46173e-05
6.52616e-05
6.6012e-05
6.05634e-05
6.20145e-05
6.09274e-05
6.19875e-05
6.53546e-05
6.6037e-05
6.26328e-05
6.06566e-05
6.22383e-05
6.28166e-05
6.26732e-05
6.32427e-05
6.44757e-05
6.51966e-05
6.61216e-05
5.88802e-05
6.16783e-05
5.89738e-05
6.56289e-05
6.52226e-05
6.63145e-05
6.098e-05
6.23046e-05
6.24289e-05
6.28392e-05
6.61121e-05
6.65493e-05
6.16713e-05
6.42781e-05
6.23758e-05
6.43885e-05
6.45522e-05
6.48894e-05
6.47761e-05
6.52974e-05
6.65757e-05
5.9222e-05
6.36035e-05
6.04926e-05
6.569e-05
6.65421e-05
6.72425e-05
6.37378e-05
6.40558e-05
6.46881e-05
6.43517e-05
6.6054e-05
6.74979e-05
6.36325e-05
6.44317e-05
6.51397e-05
6.49622e-05
6.49012e-05
6.64805e-05
6.55241e-05
6.75549e-05
6.70847e-05
6.13102e-05
6.41393e-05
6.35648e-05
6.74389e-05
6.72802e-05
6.78473e-05
6.48231e-05
6.48153e-05
6.47245e-05
6.53689e-05
6.64808e-05
6.76892e-05
6.53613e-05
6.60267e-05
6.62619e-05
6.71404e-05
6.47872e-05
6.68613e-05
6.66868e-05
6.80135e-05
6.81899e-05
6.44709e-05
6.40434e-05
6.52962e-05
6.75962e-05
6.77201e-05
6.81375e-05
6.49952e-05
6.56288e-05
6.5818e-05
6.52021e-05
6.76097e-05
6.75852e-05
6.61721e-05
6.70927e-05
6.68142e-05
6.7427e-05
6.66704e-05
6.57218e-05
6.68856e-05
6.79955e-05
6.83371e-05
6.5248e-05
6.53486e-05
6.45894e-05
6.74371e-05
6.81426e-05
6.76572e-05
6.51056e-05
6.62352e-05
6.66095e-05
6.55499e-05
6.7838e-05
6.76767e-05
6.70379e-05
6.73939e-05
6.62939e-05
6.77258e-05
6.69184e-05
6.63508e-05
6.6311e-05
6.72827e-05
6.82454e-05
6.53464e-05
6.61744e-05
6.56484e-05
6.77746e-05
6.84792e-05
6.73853e-05
6.59422e-05
6.6372e-05
6.65088e-05
6.55997e-05
6.76159e-05
6.80892e-05
6.72436e-05
6.80406e-05
6.67899e-05
6.80547e-05
6.65281e-05
6.69799e-05
6.76105e-05
6.83241e-05
6.76749e-05
6.48685e-05
6.63291e-05
6.51956e-05
6.77026e-05
6.83278e-05
6.80293e-05
6.65641e-05
6.65602e-05
6.68368e-05
6.71862e-05
6.74813e-05
6.75536e-05
6.69017e-05
6.69528e-05
6.63603e-05
6.66697e-05
6.74578e-05
6.67668e-05
6.63188e-05
6.7323e-05
6.85361e-05
6.49772e-05
6.58046e-05
6.5816e-05
6.76832e-05
6.70551e-05
6.8451e-05
6.64721e-05
6.63673e-05
6.62183e-05
6.78324e-05
6.5588e-05
1.12591e-05
1.16625e-05
6.24997e-05
3.94568e-05
4.93498e-05
4.90304e-05
5.08971e-05
6.1431e-05
3.93112e-05
2.84135e-05
2.8832e-05
5.31461e-05
2.93727e-05
2.89475e-05
5.27835e-05
1.83678e-05
1.86234e-05
5.23482e-05
1.18341e-05
1.18585e-05
5.23022e-05
1.8534e-05
1.86547e-05
5.2291e-05
3.3365e-05
3.36239e-05
3.36148e-05
3.42096e-05
3.42547e-05
3.42446e-05
3.3987e-05
6.5347e-05
5.20942e-05
4.12019e-05
5.11018e-05
5.25776e-05
4.16963e-05
6.43102e-05
1.18239e-05
1.19506e-05
6.54653e-05
4.0043e-05
5.19208e-05
5.04734e-05
6.43691e-05
4.11652e-05
5.18522e-05
2.98933e-05
2.97206e-05
5.4351e-05
3.0466e-05
3.00769e-05
5.40627e-05
1.88905e-05
5.32481e-05
1.90917e-05
1.20809e-05
1.21101e-05
5.40467e-05
1.90581e-05
5.35322e-05
1.89169e-05
3.44682e-05
3.45159e-05
3.42248e-05
3.50367e-05
3.52662e-05
3.49833e-05
3.47919e-05
6.77568e-05
5.37429e-05
4.3055e-05
5.28791e-05
6.73426e-05
5.41676e-05
4.35666e-05
1.2238e-05
1.23437e-05
6.6994e-05
4.19655e-05
5.31919e-05
5.31016e-05
6.55967e-05
4.1848e-05
5.42534e-05
3.09758e-05
3.09316e-05
5.76169e-05
3.12826e-05
3.12901e-05
5.53171e-05
1.94549e-05
5.49722e-05
1.94453e-05
1.23751e-05
1.25307e-05
5.48137e-05
1.93092e-05
5.42487e-05
1.95264e-05
3.48681e-05
3.47412e-05
3.51935e-05
3.55857e-05
3.508e-05
3.50395e-05
3.60547e-05
6.92678e-05
5.53853e-05
4.48779e-05
5.40918e-05
6.88079e-05
5.59763e-05
4.54602e-05
1.26439e-05
1.27005e-05
6.92116e-05
4.32826e-05
5.52411e-05
5.29155e-05
6.77941e-05
4.35705e-05
5.52053e-05
3.17016e-05
3.1909e-05
5.8952e-05
3.18947e-05
3.21985e-05
5.62191e-05
1.98675e-05
5.60517e-05
2.00329e-05
1.27214e-05
1.28181e-05
5.59326e-05
1.98723e-05
5.56169e-05
1.99015e-05
3.54453e-05
3.48605e-05
3.61724e-05
3.5655e-05
3.66303e-05
3.57508e-05
3.61096e-05
7.02428e-05
5.57212e-05
4.5842e-05
5.73507e-05
7.0629e-05
5.61349e-05
4.54371e-05
1.28971e-05
1.298e-05
7.04357e-05
4.38788e-05
5.60077e-05
5.61796e-05
6.92819e-05
4.44852e-05
5.54789e-05
3.23269e-05
3.2487e-05
6.06472e-05
3.16019e-05
3.27549e-05
5.73692e-05
2.0242e-05
5.6538e-05
2.03247e-05
1.31147e-05
1.30925e-05
5.64369e-05
2.03485e-05
5.64698e-05
2.04083e-05
3.73469e-05
3.60553e-05
3.65908e-05
3.63367e-05
3.7851e-05
3.73792e-05
3.68738e-05
6.98557e-05
5.50929e-05
4.61978e-05
5.95752e-05
7.09785e-05
5.48038e-05
4.66716e-05
1.32103e-05
1.32842e-05
6.98741e-05
4.60671e-05
5.6344e-05
5.78564e-05
7.068e-05
4.60679e-05
5.5496e-05
3.18601e-05
3.31536e-05
6.15629e-05
3.21338e-05
3.3286e-05
5.7491e-05
2.05641e-05
5.76446e-05
2.06233e-05
1.33502e-05
1.33963e-05
5.71675e-05
2.07278e-05
5.69177e-05
2.07599e-05
3.77341e-05
3.74868e-05
3.71259e-05
3.80637e-05
3.71915e-05
3.83898e-05
3.8031e-05
7.02394e-05
5.46492e-05
4.84375e-05
5.79861e-05
7.08174e-05
5.56336e-05
4.82876e-05
1.3349e-05
1.33952e-05
7.11592e-05
4.68818e-05
5.5668e-05
5.90211e-05
7.11064e-05
4.71718e-05
5.53039e-05
3.23055e-05
3.33079e-05
6.35106e-05
3.26555e-05
3.39088e-05
5.81994e-05
2.10672e-05
5.80192e-05
2.11533e-05
1.34763e-05
1.35564e-05
5.7195e-05
2.08329e-05
5.68523e-05
2.08726e-05
3.7148e-05
3.81879e-05
3.87519e-05
3.9295e-05
3.82798e-05
3.79105e-05
3.87136e-05
7.33385e-05
5.76137e-05
4.9142e-05
5.84554e-05
7.19155e-05
5.85029e-05
5.00601e-05
1.35207e-05
1.35862e-05
7.26264e-05
4.82307e-05
5.7299e-05
5.91416e-05
7.18206e-05
4.83394e-05
5.86656e-05
3.37603e-05
3.40555e-05
6.40865e-05
3.39774e-05
3.43847e-05
5.91496e-05
2.10326e-05
5.85267e-05
2.13079e-05
1.35329e-05
1.35554e-05
5.82645e-05
2.09047e-05
5.81361e-05
2.09077e-05
3.87787e-05
3.74831e-05
3.86594e-05
3.97985e-05
3.97951e-05
3.81474e-05
3.92927e-05
7.43749e-05
6.01e-05
5.06345e-05
6.13339e-05
7.30718e-05
5.97227e-05
5.07684e-05
1.37578e-05
1.37328e-05
7.28984e-05
4.74582e-05
5.94423e-05
6.01798e-05
7.26796e-05
4.81456e-05
5.9385e-05
3.44771e-05
3.45037e-05
6.50131e-05
3.47936e-05
3.46451e-05
5.9128e-05
2.13138e-05
5.94046e-05
2.1077e-05
1.35431e-05
1.35165e-05
5.83238e-05
2.09011e-05
5.82955e-05
2.09838e-05
4.05007e-05
3.84169e-05
3.93082e-05
3.9944e-05
3.98158e-05
3.96561e-05
3.93405e-05
7.44848e-05
5.9573e-05
5.16419e-05
6.48382e-05
7.47074e-05
6.03555e-05
5.16327e-05
1.37574e-05
1.36208e-05
7.18754e-05
4.79752e-05
5.90657e-05
6.21846e-05
7.20869e-05
4.85051e-05
5.95912e-05
3.46262e-05
3.43434e-05
6.64119e-05
3.44113e-05
3.46413e-05
5.86372e-05
2.11942e-05
5.93157e-05
2.13395e-05
1.34991e-05
1.35679e-05
5.82284e-05
2.08898e-05
5.80194e-05
2.09086e-05
4.05301e-05
3.99122e-05
3.9382e-05
4.11203e-05
4.12181e-05
4.11587e-05
4.04454e-05
7.49817e-05
5.98658e-05
5.24997e-05
6.54056e-05
7.42767e-05
5.97805e-05
5.26474e-05
1.36678e-05
1.36521e-05
7.26608e-05
5.01062e-05
5.99561e-05
6.4245e-05
7.28293e-05
5.03248e-05
6.03077e-05
3.43776e-05
3.47048e-05
6.71706e-05
3.48251e-05
3.47173e-05
5.94014e-05
2.13569e-05
5.89934e-05
2.1103e-05
1.36252e-05
1.36491e-05
5.84731e-05
2.09861e-05
5.84529e-05
2.10508e-05
4.15305e-05
4.14425e-05
4.05751e-05
4.13507e-05
4.18771e-05
4.13173e-05
4.13314e-05
7.48469e-05
6.06845e-05
5.29513e-05
6.68233e-05
7.53927e-05
6.07004e-05
5.25578e-05
1.36705e-05
1.36749e-05
7.27372e-05
5.05738e-05
6.04128e-05
6.4365e-05
7.28855e-05
4.96375e-05
6.0348e-05
3.48498e-05
3.4605e-05
6.73176e-05
3.44959e-05
3.44547e-05
5.94224e-05
2.13912e-05
5.92928e-05
2.13849e-05
1.36252e-05
1.35865e-05
5.87861e-05
2.11457e-05
5.8601e-05
2.11233e-05
4.195e-05
4.20965e-05
4.12858e-05
4.24268e-05
4.20318e-05
4.23884e-05
4.2199e-05
7.52509e-05
6.0224e-05
5.38143e-05
6.65464e-05
7.50048e-05
5.99207e-05
5.35099e-05
1.36981e-05
1.35942e-05
7.37921e-05
4.97539e-05
6.00536e-05
6.50989e-05
7.32485e-05
4.99909e-05
5.98501e-05
3.4873e-05
3.49002e-05
6.78716e-05
3.49244e-05
3.48089e-05
5.91645e-05
2.12335e-05
5.89003e-05
2.14022e-05
1.36179e-05
1.36135e-05
5.87017e-05
2.09023e-05
5.88171e-05
2.07238e-05
4.2092e-05
4.16345e-05
4.19247e-05
4.21674e-05
4.13113e-05
4.16358e-05
4.24781e-05
7.43228e-05
6.02969e-05
5.36935e-05
6.59043e-05
7.374e-05
6.00527e-05
5.37211e-05
1.3825e-05
1.37124e-05
7.37732e-05
5.15134e-05
6.04843e-05
6.57719e-05
7.29934e-05
5.19267e-05
6.0125e-05
3.49078e-05
3.48763e-05
6.77666e-05
3.43054e-05
3.47031e-05
5.96241e-05
2.1318e-05
5.95952e-05
2.11464e-05
1.36208e-05
1.36001e-05
5.89426e-05
2.09788e-05
5.89624e-05
2.08753e-05
4.11447e-05
4.24276e-05
4.2259e-05
4.23517e-05
4.24209e-05
4.24692e-05
4.28667e-05
7.40394e-05
5.96377e-05
5.38401e-05
6.60365e-05
7.43501e-05
5.92343e-05
5.39824e-05
1.37394e-05
1.36988e-05
7.35123e-05
5.18676e-05
5.97112e-05
6.52772e-05
7.34963e-05
5.18367e-05
6.02448e-05
3.43682e-05
3.46305e-05
6.70047e-05
3.47143e-05
3.47365e-05
5.75734e-05
2.11229e-05
5.84358e-05
2.07054e-05
1.36282e-05
1.35093e-05
5.85885e-05
2.08305e-05
5.82857e-05
2.0918e-05
4.26232e-05
4.23188e-05
4.23057e-05
4.28175e-05
4.28147e-05
4.11319e-05
4.16774e-05
7.26403e-05
5.99564e-05
5.36321e-05
6.72802e-05
7.46015e-05
5.91857e-05
5.43675e-05
1.37003e-05
1.35722e-05
7.34732e-05
5.20785e-05
6.03936e-05
6.63691e-05
7.35014e-05
5.21504e-05
6.01173e-05
3.42826e-05
3.43943e-05
6.73083e-05
3.45303e-05
3.45371e-05
1.33377e-05
2.12661e-05
5.81315e-05
4.29457e-05
4.15417e-05
4.09262e-05
6.015e-05
5.30161e-05
7.41357e-05
1.36844e-05
5.20061e-05
6.01594e-05
7.34254e-05
3.46003e-05
3.42824e-05
2.89167e-05
2.92656e-05
5.25297e-05
3.01835e-05
2.98172e-05
1.14342e-05
1.16656e-05
1.17604e-05
1.16589e-05
5.21503e-05
3.00457e-05
3.03368e-05
3.0103e-05
2.98106e-05
1.18235e-05
1.17076e-05
6.24225e-05
3.88516e-05
4.96282e-05
4.82735e-05
5.01696e-05
6.01789e-05
3.90512e-05
5.21235e-05
1.81198e-05
1.84416e-05
5.09582e-05
5.19154e-05
1.79504e-05
1.81713e-05
5.10685e-05
6.25863e-05
4.87118e-05
3.98808e-05
5.18252e-05
5.18203e-05
6.37616e-05
3.93392e-05
6.28068e-05
4.89896e-05
3.96821e-05
5.0515e-05
4.99027e-05
6.34041e-05
3.93423e-05
5.24897e-05
1.84947e-05
1.8651e-05
5.21797e-05
5.27539e-05
1.83372e-05
1.81896e-05
5.30417e-05
1.12219e-05
1.14387e-05
1.13592e-05
1.13985e-05
5.31133e-05
2.98696e-05
2.95342e-05
2.93124e-05
2.92094e-05
1.17704e-05
1.15957e-05
1.15652e-05
1.14771e-05
1.17457e-05
1.19003e-05
1.17861e-05
1.18804e-05
3.0177e-05
2.97066e-05
5.44349e-05
3.05735e-05
3.03124e-05
1.19623e-05
1.19083e-05
1.20438e-05
1.19089e-05
5.4846e-05
3.09006e-05
3.0919e-05
3.06369e-05
3.04839e-05
5.24529e-05
1.87443e-05
1.88771e-05
5.23747e-05
6.4873e-05
5.16674e-05
4.00742e-05
4.95317e-05
5.20863e-05
4.01969e-05
6.26998e-05
6.46728e-05
5.24065e-05
4.01849e-05
5.09788e-05
5.29793e-05
4.02642e-05
6.37422e-05
5.31124e-05
1.8925e-05
1.86714e-05
5.30361e-05
5.32213e-05
1.89818e-05
1.88653e-05
5.34893e-05
6.429e-05
5.06806e-05
5.32542e-05
4.11582e-05
5.25858e-05
4.0556e-05
6.52442e-05
6.47793e-05
5.15088e-05
5.35996e-05
4.0957e-05
5.30827e-05
4.04867e-05
6.44693e-05
3.03764e-05
3.02896e-05
5.50155e-05
3.04266e-05
3.05748e-05
1.19364e-05
1.19759e-05
1.19744e-05
1.1981e-05
5.528e-05
3.10604e-05
3.0978e-05
3.09018e-05
3.07203e-05
1.21827e-05
1.20543e-05
6.53424e-05
5.17133e-05
4.07517e-05
5.03194e-05
5.19446e-05
4.12466e-05
6.35235e-05
5.22119e-05
1.84692e-05
1.86909e-05
5.21153e-05
6.46291e-05
4.08318e-05
5.16258e-05
5.22364e-05
4.12505e-05
5.18044e-05
6.37583e-05
5.30409e-05
1.88423e-05
1.87025e-05
5.33741e-05
6.56603e-05
5.10607e-05
5.28835e-05
4.27005e-05
5.27569e-05
4.1475e-05
6.67276e-05
5.25512e-05
1.89587e-05
1.88376e-05
5.36952e-05
6.56092e-05
5.25649e-05
4.24343e-05
5.32551e-05
4.16413e-05
5.21445e-05
6.66064e-05
5.31065e-05
1.87766e-05
1.88324e-05
5.25961e-05
6.63107e-05
4.08788e-05
5.18103e-05
5.0754e-05
4.1232e-05
5.22641e-05
6.54899e-05
5.32937e-05
1.87363e-05
1.8757e-05
5.25885e-05
6.54666e-05
5.20873e-05
5.30598e-05
4.26451e-05
5.24897e-05
4.20357e-05
6.7174e-05
5.35628e-05
1.91287e-05
1.89466e-05
5.40587e-05
6.58544e-05
5.18209e-05
4.23018e-05
5.34358e-05
4.18367e-05
5.31582e-05
6.62449e-05
5.34404e-05
1.906e-05
1.89962e-05
5.41744e-05
3.02738e-05
3.06039e-05
5.50227e-05
3.05223e-05
3.0717e-05
1.19119e-05
1.20006e-05
1.21881e-05
1.20245e-05
5.56749e-05
3.12013e-05
3.1172e-05
3.06802e-05
3.11365e-05
1.20268e-05
1.19978e-05
6.52017e-05
4.0334e-05
5.11682e-05
5.06437e-05
6.44737e-05
4.12413e-05
5.21407e-05
5.35932e-05
1.87269e-05
5.25901e-05
1.87468e-05
5.39092e-05
1.84229e-05
5.30811e-05
1.85925e-05
6.54286e-05
5.11852e-05
4.17553e-05
5.30574e-05
4.13939e-05
5.24837e-05
6.51882e-05
6.52903e-05
5.08688e-05
4.13495e-05
5.40084e-05
4.13577e-05
5.26918e-05
6.64036e-05
5.3745e-05
1.88904e-05
1.87282e-05
5.45104e-05
5.39595e-05
1.91381e-05
1.87954e-05
5.4579e-05
1.17919e-05
1.19321e-05
1.16585e-05
1.1748e-05
5.46576e-05
3.08329e-05
3.06541e-05
3.07413e-05
3.02165e-05
1.20289e-05
1.20047e-05
1.19936e-05
1.18092e-05
1.20817e-05
1.21787e-05
1.21194e-05
1.22169e-05
3.13223e-05
3.11958e-05
5.73882e-05
3.16907e-05
3.14508e-05
1.23291e-05
1.2285e-05
1.23437e-05
1.22775e-05
5.65142e-05
3.16939e-05
3.17065e-05
3.17563e-05
3.16919e-05
5.37685e-05
1.89622e-05
5.32661e-05
1.91138e-05
6.59104e-05
5.33728e-05
4.14814e-05
5.31359e-05
6.59171e-05
5.43361e-05
4.16706e-05
6.58202e-05
5.38956e-05
4.1253e-05
5.30629e-05
6.5398e-05
5.37707e-05
4.1868e-05
5.36998e-05
1.92272e-05
1.91627e-05
5.50369e-05
5.37906e-05
1.93136e-05
1.91167e-05
5.46738e-05
6.59253e-05
5.32457e-05
5.42998e-05
4.25871e-05
5.44933e-05
4.25455e-05
6.73376e-05
6.66753e-05
5.31854e-05
5.4322e-05
4.26242e-05
5.3287e-05
4.2452e-05
6.66649e-05
3.11664e-05
3.15428e-05
5.77537e-05
3.12879e-05
3.13898e-05
1.22278e-05
1.22911e-05
1.22808e-05
1.21568e-05
5.78772e-05
3.17407e-05
3.22227e-05
3.15014e-05
3.17023e-05
1.24845e-05
1.2386e-05
6.73084e-05
5.37105e-05
4.29251e-05
5.41502e-05
6.66897e-05
5.40236e-05
4.33357e-05
5.44912e-05
1.91522e-05
5.34725e-05
1.93381e-05
6.75101e-05
4.27234e-05
5.36483e-05
5.28226e-05
6.67163e-05
4.29815e-05
5.4402e-05
5.42216e-05
1.92097e-05
1.9197e-05
5.43909e-05
6.74139e-05
5.45176e-05
5.4937e-05
4.32611e-05
5.45901e-05
4.35269e-05
6.82771e-05
5.44211e-05
1.95095e-05
1.94953e-05
5.44829e-05
6.77407e-05
5.32155e-05
4.32393e-05
5.50491e-05
4.32838e-05
5.48729e-05
6.82514e-05
5.51823e-05
1.91979e-05
5.48789e-05
1.93723e-05
6.79422e-05
4.28553e-05
5.40317e-05
5.43316e-05
6.69759e-05
4.32698e-05
5.43965e-05
5.48362e-05
1.91783e-05
5.42321e-05
1.92441e-05
6.72065e-05
5.39007e-05
5.53327e-05
4.44899e-05
5.44967e-05
4.3996e-05
6.85516e-05
5.54016e-05
1.96111e-05
1.95646e-05
5.56257e-05
6.78868e-05
5.46444e-05
4.43924e-05
5.43502e-05
4.43085e-05
5.43226e-05
6.88774e-05
5.53967e-05
1.94482e-05
1.93605e-05
5.57081e-05
3.12903e-05
3.14126e-05
5.78279e-05
3.18224e-05
3.14012e-05
1.2155e-05
1.22071e-05
1.24849e-05
1.24397e-05
5.74591e-05
3.20571e-05
3.18605e-05
3.19568e-05
3.19004e-05
1.23377e-05
1.22582e-05
6.66862e-05
4.10955e-05
5.4351e-05
5.1144e-05
6.64638e-05
4.13071e-05
5.45375e-05
5.47218e-05
1.9111e-05
5.4418e-05
1.923e-05
5.47985e-05
1.92601e-05
5.43475e-05
1.92327e-05
6.73442e-05
5.31362e-05
4.25788e-05
5.45533e-05
4.21383e-05
5.45412e-05
6.78327e-05
6.72743e-05
5.16328e-05
4.21849e-05
5.49401e-05
4.17413e-05
5.45595e-05
6.79235e-05
5.51171e-05
1.9472e-05
1.92585e-05
5.56973e-05
5.4797e-05
1.93524e-05
1.92271e-05
5.48916e-05
1.20897e-05
1.21771e-05
1.21135e-05
1.21455e-05
5.75484e-05
3.16447e-05
3.17122e-05
3.14746e-05
3.17211e-05
1.23016e-05
1.22435e-05
1.23334e-05
1.22527e-05
1.24125e-05
1.25092e-05
1.23644e-05
1.24757e-05
3.22365e-05
3.19373e-05
5.8522e-05
3.25675e-05
3.20293e-05
1.25951e-05
1.25799e-05
1.26229e-05
1.24911e-05
5.88667e-05
3.28463e-05
3.25121e-05
3.2586e-05
3.21622e-05
5.54141e-05
1.96387e-05
5.50443e-05
1.96844e-05
6.81188e-05
5.533e-05
4.25651e-05
5.30914e-05
6.75015e-05
5.57791e-05
4.22695e-05
6.80452e-05
5.5398e-05
4.29607e-05
5.45568e-05
6.78069e-05
5.57867e-05
4.30416e-05
5.57299e-05
1.97851e-05
1.96955e-05
5.59666e-05
5.55097e-05
1.99413e-05
1.97161e-05
5.57629e-05
6.84253e-05
5.36641e-05
5.58498e-05
4.28317e-05
5.55545e-05
4.24306e-05
6.91626e-05
6.81297e-05
5.40377e-05
5.60565e-05
4.27097e-05
5.57691e-05
4.26732e-05
6.90465e-05
3.191e-05
3.22853e-05
5.9757e-05
3.24031e-05
3.26083e-05
1.26102e-05
1.2667e-05
1.26491e-05
1.25724e-05
5.97783e-05
3.26998e-05
3.29425e-05
3.23675e-05
3.27886e-05
1.27587e-05
1.27331e-05
6.901e-05
5.50207e-05
4.34394e-05
5.57156e-05
6.86614e-05
5.53642e-05
4.37514e-05
5.53059e-05
1.97395e-05
5.47237e-05
1.9876e-05
6.87494e-05
4.41399e-05
5.48338e-05
5.50157e-05
6.87091e-05
4.35063e-05
5.56429e-05
5.5137e-05
1.97755e-05
1.9549e-05
5.55438e-05
6.84334e-05
5.55364e-05
5.61241e-05
4.46729e-05
5.53219e-05
4.43045e-05
6.93324e-05
5.58455e-05
2.00423e-05
1.99772e-05
5.55797e-05
6.87251e-05
5.63706e-05
4.40824e-05
5.65406e-05
4.42252e-05
5.62272e-05
6.99494e-05
5.59226e-05
1.97478e-05
5.59789e-05
1.98028e-05
6.91727e-05
4.4679e-05
5.50692e-05
5.53527e-05
6.91504e-05
4.472e-05
5.53787e-05
5.60709e-05
1.95644e-05
5.61028e-05
1.95575e-05
7.01528e-05
5.50859e-05
5.64096e-05
4.58033e-05
5.57238e-05
4.55183e-05
7.04703e-05
5.54857e-05
1.99039e-05
1.98741e-05
5.64531e-05
6.95919e-05
5.61962e-05
4.42145e-05
5.60222e-05
4.4247e-05
5.53161e-05
6.99894e-05
5.5598e-05
1.95667e-05
1.96013e-05
5.5713e-05
3.25359e-05
3.23747e-05
5.94716e-05
3.26378e-05
3.21577e-05
1.24699e-05
1.24921e-05
1.27496e-05
1.26797e-05
5.94668e-05
3.26823e-05
3.26872e-05
3.26491e-05
3.26828e-05
1.2608e-05
1.25335e-05
6.879e-05
4.27432e-05
5.58573e-05
5.39607e-05
6.79676e-05
4.37431e-05
5.61255e-05
5.58463e-05
1.94974e-05
5.58339e-05
1.94923e-05
5.60047e-05
1.96647e-05
5.53805e-05
1.9815e-05
6.92491e-05
5.34801e-05
4.37413e-05
5.5979e-05
4.32943e-05
5.61908e-05
6.97097e-05
6.91436e-05
5.44867e-05
4.39399e-05
5.60833e-05
4.31647e-05
5.58793e-05
6.91756e-05
5.57885e-05
1.97969e-05
1.96723e-05
5.66961e-05
5.60989e-05
1.98233e-05
1.97943e-05
5.6527e-05
1.23178e-05
1.24068e-05
1.24157e-05
1.24864e-05
5.8689e-05
3.22916e-05
3.21552e-05
3.2137e-05
3.20547e-05
1.24386e-05
1.24617e-05
1.25651e-05
1.24946e-05
1.27103e-05
1.27223e-05
1.26609e-05
1.27782e-05
3.30146e-05
3.27176e-05
6.13819e-05
3.27582e-05
3.29341e-05
1.27844e-05
1.27904e-05
1.29672e-05
1.28865e-05
6.1573e-05
3.28816e-05
3.32853e-05
3.32349e-05
3.31549e-05
5.58105e-05
1.99234e-05
5.55502e-05
2.02576e-05
6.93372e-05
5.6844e-05
4.31741e-05
5.58421e-05
6.87609e-05
5.62289e-05
4.37052e-05
6.98245e-05
5.64058e-05
4.31043e-05
5.5753e-05
6.93866e-05
5.72994e-05
4.37582e-05
5.66011e-05
2.02155e-05
2.00489e-05
5.67139e-05
5.59965e-05
2.04319e-05
2.02662e-05
5.62928e-05
6.91432e-05
5.71577e-05
5.67709e-05
4.48001e-05
5.71765e-05
4.41389e-05
7.0303e-05
6.99029e-05
5.64933e-05
5.84496e-05
4.47411e-05
5.78439e-05
4.41195e-05
6.93612e-05
3.28089e-05
3.2988e-05
6.17834e-05
3.30359e-05
3.30827e-05
1.27858e-05
1.27878e-05
1.29845e-05
1.29234e-05
6.19185e-05
3.38591e-05
3.3293e-05
3.34199e-05
3.32673e-05
1.2767e-05
1.28096e-05
7.00107e-05
5.59502e-05
4.53274e-05
5.60867e-05
6.96347e-05
5.65965e-05
4.5603e-05
5.59509e-05
2.01339e-05
5.59506e-05
2.02233e-05
6.98396e-05
4.37373e-05
5.64035e-05
5.62014e-05
7.01959e-05
4.39155e-05
5.65035e-05
5.62107e-05
2.02757e-05
2.01352e-05
5.64391e-05
7.02929e-05
5.666e-05
5.73703e-05
4.65517e-05
5.67999e-05
4.6611e-05
7.0029e-05
5.62415e-05
2.05422e-05
2.04201e-05
5.6656e-05
7.08484e-05
5.63799e-05
4.4892e-05
5.77336e-05
4.43637e-05
5.76036e-05
7.04352e-05
5.6005e-05
1.99448e-05
5.61806e-05
1.98694e-05
7.00547e-05
4.44459e-05
5.59748e-05
5.74856e-05
6.938e-05
4.48196e-05
5.53114e-05
5.63312e-05
1.98277e-05
5.60871e-05
1.98045e-05
7.0071e-05
5.79348e-05
5.59232e-05
4.57085e-05
5.63941e-05
4.53822e-05
7.13048e-05
5.68737e-05
1.96252e-05
1.99413e-05
5.63208e-05
7.01757e-05
5.67246e-05
4.58746e-05
5.58092e-05
4.51961e-05
5.60769e-05
7.12084e-05
5.67582e-05
1.96809e-05
1.98072e-05
5.6787e-05
3.32615e-05
3.27209e-05
6.1329e-05
3.32472e-05
3.2704e-05
1.25978e-05
1.25943e-05
1.30424e-05
1.30624e-05
6.06297e-05
3.33121e-05
3.25239e-05
3.35406e-05
3.28427e-05
1.25803e-05
1.25997e-05
6.96636e-05
4.35527e-05
5.6871e-05
5.61715e-05
6.84368e-05
4.39135e-05
5.69375e-05
5.73033e-05
1.97928e-05
5.67017e-05
1.98429e-05
5.64603e-05
2.0078e-05
5.68465e-05
2.01752e-05
7.05824e-05
5.63518e-05
4.58572e-05
5.62832e-05
4.47978e-05
5.62387e-05
7.07153e-05
6.93475e-05
5.56405e-05
4.48918e-05
5.7526e-05
4.44355e-05
5.72698e-05
7.06089e-05
5.72862e-05
1.97731e-05
1.98848e-05
5.73776e-05
5.68302e-05
2.03224e-05
2.0085e-05
5.66424e-05
1.25104e-05
1.2429e-05
1.25785e-05
1.27575e-05
6.02558e-05
3.21716e-05
3.31501e-05
3.21476e-05
3.2644e-05
1.24351e-05
1.24426e-05
1.28709e-05
1.2685e-05
1.29272e-05
1.29942e-05
1.29146e-05
1.30605e-05
3.3281e-05
3.32449e-05
6.29841e-05
3.36836e-05
3.33014e-05
1.31201e-05
1.29695e-05
1.31539e-05
1.31178e-05
6.28752e-05
3.36764e-05
3.38241e-05
3.3479e-05
3.38685e-05
5.72669e-05
2.05747e-05
5.72025e-05
2.05999e-05
7.08276e-05
5.74673e-05
4.51738e-05
5.83305e-05
7.05484e-05
5.73617e-05
4.61544e-05
7.04078e-05
5.85053e-05
4.54465e-05
5.89289e-05
7.0329e-05
5.87355e-05
4.56741e-05
5.69075e-05
2.06045e-05
2.03255e-05
5.72036e-05
5.74587e-05
2.0904e-05
2.08057e-05
5.79752e-05
7.07211e-05
5.97422e-05
5.86412e-05
4.66963e-05
5.8427e-05
4.57865e-05
7.0685e-05
7.0394e-05
5.9265e-05
5.92294e-05
4.61078e-05
5.83895e-05
4.60138e-05
7.12872e-05
3.36985e-05
3.32327e-05
6.20217e-05
3.39966e-05
3.31982e-05
1.27775e-05
1.27474e-05
1.33378e-05
1.31357e-05
6.28466e-05
3.44556e-05
3.33598e-05
3.42909e-05
3.32689e-05
1.28971e-05
1.27115e-05
7.12962e-05
5.717e-05
4.67752e-05
5.88824e-05
6.95337e-05
5.7092e-05
4.67697e-05
5.63652e-05
2.06121e-05
5.68924e-05
2.05166e-05
7.15064e-05
4.52747e-05
5.83968e-05
5.92276e-05
7.0431e-05
4.58674e-05
5.83076e-05
5.67159e-05
2.06397e-05
2.05663e-05
5.70056e-05
7.13694e-05
5.91324e-05
5.77882e-05
4.62995e-05
5.82404e-05
4.67447e-05
7.14237e-05
5.60901e-05
2.06609e-05
2.07846e-05
5.67016e-05
7.07626e-05
5.95872e-05
4.68011e-05
5.81488e-05
4.62729e-05
5.84366e-05
7.14361e-05
5.69647e-05
1.98025e-05
5.64249e-05
1.97074e-05
7.12662e-05
4.63523e-05
5.53909e-05
5.68293e-05
7.13165e-05
4.7249e-05
5.54495e-05
5.70206e-05
1.97619e-05
5.70393e-05
1.96585e-05
7.08377e-05
5.97656e-05
5.46681e-05
4.82861e-05
5.4941e-05
4.72454e-05
7.02505e-05
5.65712e-05
1.97649e-05
1.97756e-05