/*--------------------------------*- C++ -*----------------------------------*\
| =========                 |                                                 |
| \\      /  F ield         | OpenFOAM: The Open Source CFD Toolbox           |
|  \\    /   O peration     | Version:  2206                                  |
|   \\  /    A nd           | Website:  www.openfoam.com                      |
|    \\/     M anipulation  |                                                 |
\*---------------------------------------------------------------------------*/
FoamFile
{
    version     2.0;
    format      ascii;
    arch        "LSB;label=32;scalar=64";
    class       volScalarField;
    location    "100";
    object      nut;
}
// * * * * * * * * * * * * * * * * * * * * * * * * * * * * * * * * * * * * * //

dimensions      [0 2 -1 0 0 0 0];

internalField   nonuniform List<scalar> 
66701
(
3.29926e-08
2.93923e-08
6.95423e-08
1.58965e-07
4.92089e-08
3.02635e-07
2.52772e-07
5.78755e-08
2.98718e-08
7.09577e-08
1.61559e-07
4.97053e-08
3.03293e-07
5.80687e-08
2.55243e-07
3.34353e-08
5.27336e-09
5.65716e-10
3.72769e-11
3.18694e-12
2.43333e-12
5.36802e-09
5.74277e-10
3.7787e-11
3.19917e-12
2.43277e-12
5.12152e-09
5.45764e-10
3.54442e-11
2.88179e-12
2.1564e-12
5.22764e-09
5.56801e-10
3.61209e-11
2.90157e-12
2.15908e-12
5.33895e-09
5.73266e-10
3.77651e-11
3.20324e-12
2.4371e-12
5.45945e-09
5.84035e-10
3.8414e-11
3.2177e-12
2.43499e-12
5.00578e-09
5.33641e-10
3.48774e-11
2.92988e-12
2.22343e-12
5.18611e-09
5.55442e-10
3.6373e-11
3.02442e-12
2.28363e-12
5.06009e-09
5.38639e-10
3.5156e-11
2.93796e-12
2.2253e-12
5.21964e-09
5.59224e-10
3.65997e-11
3.03056e-12
2.28431e-12
3.27878e-08
3.27766e-08
1.16165e-06
1.7872e-07
1.74315e-07
6.96907e-08
1.17374e-06
3.27047e-07
3.02631e-07
6.87994e-08
6.33283e-07
1.16343e-06
3.20423e-07
1.31368e-06
3.01788e-07
7.04393e-08
6.28795e-07
1.17975e-06
1.32165e-06
3.27781e-07
3.31527e-08
1.17426e-06
1.75415e-07
3.26111e-08
1.06689e-07
2.94826e-08
2.92983e-08
1.07583e-07
2.95484e-08
2.93845e-08
2.83207e-07
6.81049e-08
4.70253e-07
1.81706e-07
2.81899e-07
6.78799e-08
4.7658e-07
2.81837e-07
6.70798e-08
4.66862e-07
1.77597e-07
2.80429e-07
6.69901e-08
4.65168e-07
4.90345e-08
2.53411e-07
5.7638e-08
3.05315e-07
4.93081e-08
2.5505e-07
5.71501e-08
2.94813e-08
1.57786e-07
6.91989e-08
2.93834e-08
1.58922e-07
4.97706e-08
5.78379e-08
2.56143e-07
3.02145e-07
4.99535e-08
5.78432e-08
2.5584e-07
2.97335e-08
1.59401e-07
7.06468e-08
2.9891e-08
1.60937e-07
3.31061e-08
1.09224e-07
2.97788e-08
2.99089e-08
2.82622e-07
4.6664e-07
1.78695e-07
4.717e-07
6.76188e-08
2.86277e-07
1.81436e-07
6.84505e-08
4.72325e-07
3.3077e-08
1.68097e-06
1.79524e-06
1.80475e-06
1.28314e-06
1.65029e-06
1.81073e-06
1.84546e-06
1.28424e-06
1.82549e-06
1.30079e-06
1.85921e-06
1.30926e-06
5.40498e-07
1.12553e-06
7.23161e-07
7.34431e-07
5.44027e-07
7.23759e-07
7.17488e-07
8.31674e-07
4.71386e-07
6.46142e-07
3.35215e-07
6.45616e-07
8.36742e-07
4.75571e-07
8.52149e-07
5.80879e-07
9.46073e-07
6.32504e-07
8.81837e-07
5.72591e-07
9.08177e-07
8.29131e-07
4.60506e-07
6.43532e-07
3.25326e-07
6.35883e-07
8.4242e-07
4.63521e-07
8.7039e-07
9.54196e-07
5.89301e-07
6.34937e-07
8.90798e-07
9.29489e-07
5.82051e-07
8.33151e-07
4.65842e-07
6.52294e-07
3.30596e-07
8.34665e-07
4.73621e-07
6.3774e-07
5.41703e-07
1.1171e-06
7.39487e-07
7.24944e-07
7.27481e-07
5.23621e-09
5.6257e-10
3.70915e-11
3.17932e-12
2.42982e-12
5.27978e-09
5.676e-10
3.7413e-11
3.18993e-12
2.43288e-12
5.11309e-09
5.44887e-10
3.53694e-11
2.87538e-12
2.15192e-12
5.11498e-09
5.46314e-10
3.551e-11
2.88393e-12
2.15624e-12
5.23874e-09
5.5916e-10
3.62859e-11
2.90559e-12
2.15891e-12
5.34466e-09
5.75364e-10
3.79231e-11
3.20714e-12
2.43682e-12
5.25333e-09
5.64941e-10
3.72469e-11
3.18173e-12
2.42807e-12
5.00014e-09
5.33607e-10
3.48875e-11
2.92435e-12
2.21676e-12
5.21396e-09
5.60157e-10
3.66882e-11
3.03307e-12
2.28418e-12
5.0282e-09
5.36777e-10
3.51041e-11
2.93645e-12
2.22386e-12
5.16892e-09
5.55087e-10
3.63687e-11
3.01764e-12
2.27595e-12
5.11777e-09
5.45766e-10
3.54506e-11
2.87843e-12
2.1524e-12
5.05094e-09
5.38175e-10
3.51464e-11
2.93207e-12
2.21846e-12
5.24198e-09
5.63377e-10
3.68988e-11
3.03927e-12
2.28484e-12
5.06156e-09
5.39319e-10
3.52268e-11
2.94068e-12
2.22575e-12
5.21206e-09
5.59551e-10
3.66336e-11
3.02495e-12
2.27666e-12
5.22341e-09
5.57051e-10
3.61393e-11
2.89812e-12
2.15476e-12
5.3313e-09
5.73282e-10
3.77647e-11
3.1984e-12
2.43175e-12
5.31968e-09
5.67181e-10
3.67851e-11
2.93474e-12
2.17663e-12
5.27355e-09
5.68231e-10
3.74682e-11
3.19123e-12
2.43234e-12
4.94483e-09
5.27467e-10
3.48015e-11
3.07828e-12
2.38474e-12
5.27473e-09
5.61366e-10
3.64267e-11
2.92426e-12
2.17488e-12
5.2806e-09
5.62953e-10
3.65333e-11
2.92676e-12
2.17454e-12
4.93681e-09
5.26515e-10
3.47329e-11
3.07615e-12
2.38487e-12
5.25168e-09
5.5888e-10
3.62628e-11
2.91932e-12
2.17459e-12
5.25023e-09
5.5849e-10
3.62273e-11
2.91544e-12
2.1715e-12
4.95355e-09
5.28494e-10
3.4851e-11
3.07703e-12
2.38235e-12
4.94809e-09
5.27806e-10
3.48056e-11
3.07469e-12
2.38118e-12
5.37832e-09
5.75244e-10
3.78441e-11
3.19631e-12
2.42769e-12
5.36573e-09
5.74527e-10
3.78263e-11
3.2007e-12
2.43279e-12
5.44271e-09
5.83353e-10
3.8395e-11
3.213e-12
2.42967e-12
5.45806e-09
5.84545e-10
3.84621e-11
3.21928e-12
2.43513e-12
5.29429e-09
5.63377e-10
3.65404e-11
2.92633e-12
2.17426e-12
5.01331e-09
5.34893e-10
3.52518e-11
3.08875e-12
2.38394e-12
5.01527e-09
5.35299e-10
3.52814e-11
3.09045e-12
2.38478e-12
9.63098e-07
9.39522e-07
1.56126e-06
9.36787e-07
9.50622e-07
9.4717e-07
1.55661e-06
9.83499e-07
9.68141e-07
9.80066e-07
1.52289e-06
9.63354e-07
9.62566e-07
1.014e-06
1.52056e-06
1.00979e-06
1.0055e-06
1.01928e-06
1.47834e-06
1.04828e-06
1.04029e-06
1.04473e-06
1.49879e-06
1.04527e-06
1.05758e-06
1.07102e-06
1.54568e-06
1.02031e-06
1.07864e-06
1.09963e-06
1.55874e-06
1.05931e-06
1.06844e-06
1.10585e-06
1.58686e-06
1.11593e-06
1.11029e-06
1.12501e-06
1.60924e-06
1.16214e-06
1.13125e-06
1.13564e-06
1.61293e-06
1.16987e-06
1.15763e-06
1.15975e-06
1.65299e-06
1.17097e-06
1.14684e-06
1.1696e-06
1.67435e-06
1.14753e-06
1.17456e-06
1.16566e-06
1.64863e-06
1.16803e-06
1.18966e-06
1.15264e-06
1.66338e-06
1.18221e-06
1.17858e-06
1.1688e-06
1.68713e-06
1.16198e-06
1.19668e-06
1.17312e-06
9.33313e-07
9.15329e-07
9.31742e-07
9.468e-07
9.54e-07
9.31356e-07
9.30549e-07
9.57232e-07
9.28447e-07
9.67868e-07
9.61967e-07
9.71141e-07
9.41126e-07
9.59942e-07
9.248e-07
9.3881e-07
9.47742e-07
9.70557e-07
9.32864e-07
9.64891e-07
9.61746e-07
9.45717e-07
9.49146e-07
9.54166e-07
9.75478e-07
9.52877e-07
9.41447e-07
9.78038e-07
9.55695e-07
9.64133e-07
9.79588e-07
9.78306e-07
9.98674e-07
1.00114e-06
9.86986e-07
9.61044e-07
9.70284e-07
9.82179e-07
9.70827e-07
9.6445e-07
9.62923e-07
9.86726e-07
9.73006e-07
9.84017e-07
9.44173e-07
9.64687e-07
9.67256e-07
9.83979e-07
9.84023e-07
1.00954e-06
9.63885e-07
9.84855e-07
9.8684e-07
9.79824e-07
1.00097e-06
1.004e-06
1.00059e-06
9.79543e-07
9.81921e-07
1.00197e-06
9.79446e-07
9.96744e-07
1.0065e-06
1.01274e-06
1.0005e-06
9.74813e-07
9.84105e-07
1.01509e-06
9.92933e-07
1.03847e-06
1.01908e-06
1.00002e-06
9.94818e-07
1.04014e-06
1.02175e-06
1.03165e-06
1.03822e-06
9.83578e-07
1.00042e-06
1.02395e-06
1.00646e-06
9.97718e-07
1.02582e-06
1.01108e-06
1.03011e-06
1.03081e-06
1.00008e-06
1.03659e-06
1.00489e-06
1.01607e-06
1.04995e-06
1.05783e-06
1.04598e-06
1.04592e-06
1.07257e-06
1.06569e-06
1.07082e-06
1.0429e-06
1.02898e-06
1.00963e-06
1.03087e-06
1.04894e-06
9.97939e-07
1.04502e-06
1.02038e-06
1.0637e-06
1.03443e-06
1.01335e-06
1.05214e-06
1.04764e-06
1.03899e-06
1.0805e-06
1.08017e-06
1.08013e-06
1.0651e-06
1.09587e-06
1.06038e-06
1.09045e-06
1.06704e-06
1.03385e-06
1.04938e-06
1.08142e-06
1.07306e-06
1.03258e-06
1.02005e-06
1.06457e-06
1.06176e-06
1.06011e-06
1.05207e-06
1.07585e-06
1.08508e-06
1.07502e-06
1.11345e-06
1.08991e-06
1.10094e-06
1.06757e-06
1.10352e-06
1.10638e-06
1.10456e-06
1.0974e-06
1.08614e-06
1.07627e-06
1.10501e-06
1.06124e-06
1.06644e-06
1.04652e-06
1.08525e-06
1.10895e-06
1.09311e-06
1.08854e-06
1.06432e-06
1.0819e-06
1.07926e-06
1.12264e-06
1.10558e-06
1.08247e-06
1.10738e-06
1.08907e-06
1.10703e-06
1.12308e-06
1.10533e-06
1.10022e-06
1.06134e-06
1.0932e-06
1.09983e-06
1.09729e-06
1.11116e-06
1.12967e-06
1.12053e-06
1.10706e-06
1.05413e-06
1.10585e-06
1.05648e-06
1.09882e-06
1.12323e-06
1.11174e-06
1.09051e-06
1.11321e-06
1.11659e-06
1.12277e-06
1.13803e-06
1.11585e-06
1.0838e-06
1.12598e-06
1.09646e-06
1.12789e-06
1.13155e-06
1.14104e-06
1.13559e-06
1.12436e-06
1.11583e-06
1.06147e-06
1.14104e-06
1.08481e-06
1.10142e-06
1.14719e-06
1.12778e-06
1.14051e-06
1.14512e-06
1.15719e-06
1.15027e-06
1.13885e-06
1.13262e-06
1.11903e-06
1.12913e-06
1.14533e-06
1.13825e-06
1.13849e-06
1.16944e-06
1.14972e-06
1.16461e-06
1.1256e-06
1.10007e-06
1.15097e-06
1.14105e-06
1.13203e-06
1.16053e-06
1.13887e-06
1.16034e-06
1.15937e-06
1.15797e-06
1.16874e-06
1.14702e-06
1.13659e-06
1.14984e-06
1.15763e-06
1.16547e-06
1.17701e-06
1.13755e-06
1.1762e-06
1.17066e-06
1.17405e-06
1.14478e-06
1.15783e-06
1.14989e-06
1.17259e-06
1.13506e-06
1.16887e-06
1.14486e-06
1.16386e-06
1.17427e-06
1.17773e-06
1.16587e-06
1.16697e-06
1.13538e-06
1.16467e-06
1.1771e-06
1.1756e-06
1.18236e-06
1.17111e-06
1.15587e-06
1.17404e-06
1.17388e-06
1.14776e-06
1.17224e-06
1.1738e-06
1.15989e-06
1.13215e-06
1.17684e-06
1.13788e-06
1.16635e-06
1.18563e-06
1.19233e-06
1.17196e-06
1.17122e-06
1.13773e-06
1.18048e-06
1.183e-06
1.16657e-06
1.18776e-06
1.17564e-06
1.16736e-06
1.16378e-06
1.16243e-06
1.14676e-06
1.17425e-06
1.18897e-06
1.17851e-06
1.13807e-06
1.1819e-06
1.13534e-06
1.18223e-06
1.18858e-06
1.19077e-06
1.17308e-06
1.16628e-06
1.14704e-06
1.18452e-06
1.19514e-06
1.17529e-06
1.19344e-06
1.16935e-06
1.17884e-06
1.18614e-06
1.18061e-06
1.13735e-06
1.16536e-06
1.19154e-06
1.17021e-06
1.13666e-06
1.17699e-06
1.15262e-06
1.19436e-06
1.1928e-06
1.18113e-06
1.18611e-06
1.16203e-06
1.1452e-06
1.17891e-06
1.17632e-06
1.17385e-06
1.17533e-06
1.18555e-06
1.18165e-06
1.16926e-06
1.16206e-06
1.15822e-06
1.16755e-06
1.18631e-06
1.18508e-06
1.14365e-06
1.17643e-06
1.17742e-06
1.18355e-06
1.17754e-06
1.1746e-06
1.18498e-06
1.18643e-06
2.78616e-08
2.90023e-08
5.63649e-07
1.1743e-06
2.74442e-07
9.65588e-07
2.8427e-07
5.56326e-07
1.16446e-06
1.46419e-07
1.49462e-07
9.21462e-07
1.53417e-07
1.49533e-07
2.82692e-07
6.17891e-08
6.2751e-08
2.79436e-07
2.93148e-08
2.9508e-08
2.75984e-07
6.19611e-08
6.24407e-08
2.73422e-07
1.57057e-06
1.58086e-06
1.58356e-06
1.56395e-06
1.56643e-06
1.56154e-06
1.55324e-06
5.66947e-07
2.84791e-07
1.12768e-06
9.4839e-07
2.89351e-07
1.13233e-06
5.59755e-07
2.91944e-08
2.96355e-08
5.86967e-07
1.1453e-06
2.87754e-07
9.57367e-07
5.79338e-07
1.16539e-06
2.88289e-07
1.53287e-07
1.54192e-07
9.27251e-07
1.56473e-07
1.5622e-07
2.89596e-07
6.3645e-08
2.84306e-07
6.43982e-08
3.00392e-08
3.01254e-08
2.8531e-07
6.37601e-08
2.79985e-07
6.33399e-08
1.56196e-06
1.55945e-06
1.54985e-06
1.5456e-06
1.55716e-06
1.53901e-06
1.53501e-06
5.85535e-07
2.93741e-07
1.14338e-06
9.61815e-07
5.83536e-07
2.98029e-07
1.14889e-06
3.03337e-08
3.05983e-08
5.98185e-07
1.15994e-06
2.94666e-07
9.86301e-07
5.87585e-07
1.14845e-06
3.01534e-07
1.59173e-07
1.60586e-07
9.70735e-07
1.60627e-07
1.62352e-07
2.96357e-07
6.55888e-08
2.93583e-07
6.56064e-08
3.08116e-08
3.11918e-08
2.89495e-07
6.45861e-08
2.83867e-07
6.53715e-08
1.52701e-06
1.5159e-06
1.54033e-06
1.52161e-06
1.502e-06
1.49436e-06
1.54329e-06
5.97487e-07
3.02611e-07
1.16179e-06
9.69199e-07
5.94703e-07
3.07826e-07
1.17036e-06
3.13402e-08
3.14864e-08
6.1636e-07
1.16582e-06
3.0588e-07
9.67722e-07
6.05376e-07
1.16702e-06
3.06634e-07
1.62843e-07
1.65362e-07
9.85317e-07
1.637e-07
1.67162e-07
3.01252e-07
6.70072e-08
2.99382e-07
6.7608e-08
3.16551e-08
3.19065e-08
2.95493e-07
6.64966e-08
2.91175e-07
6.66412e-08
1.50729e-06
1.47697e-06
1.53814e-06
1.48611e-06
1.53086e-06
1.48844e-06
1.50854e-06
6.04991e-07
3.04232e-07
1.16423e-06
1.01735e-06
6.09439e-07
3.08396e-07
1.1495e-06
3.1891e-08
3.21982e-08
6.26502e-07
1.1591e-06
3.09887e-07
1.01723e-06
6.17559e-07
1.17047e-06
3.07942e-07
1.66117e-07
1.68491e-07
1.00942e-06
1.6229e-07
1.69916e-07
3.07572e-07
6.82926e-08
3.02112e-07
6.85781e-08
3.26706e-08
3.25985e-08
2.98177e-07
6.80926e-08
2.95678e-07
6.83547e-08
1.55283e-06
1.49386e-06
1.52048e-06
1.48586e-06
1.5524e-06
1.5281e-06
1.51106e-06
6.01558e-07
3.00671e-07
1.15846e-06
1.05023e-06
6.1202e-07
3.01174e-07
1.16724e-06
3.27582e-08
3.29449e-08
6.21385e-07
1.20075e-06
3.11645e-07
1.04141e-06
6.298e-07
1.19761e-06
3.08014e-07
1.63203e-07
1.71963e-07
1.02382e-06
1.65099e-07
1.72635e-07
3.08381e-07
6.93033e-08
3.08181e-07
6.95921e-08
3.31419e-08
3.33637e-08
3.02134e-07
6.94053e-08
2.98109e-07
6.95524e-08
1.54123e-06
1.52659e-06
1.5153e-06
1.5356e-06
1.50223e-06
1.54637e-06
1.53493e-06
6.05365e-07
2.98623e-07
1.20388e-06
1.01821e-06
6.1102e-07
3.06182e-07
1.19778e-06
3.30051e-08
3.32345e-08
6.33316e-07
1.21112e-06
3.08108e-07
1.05884e-06
6.34023e-07
1.21638e-06
3.07299e-07
1.65541e-07
1.73119e-07
1.0571e-06
1.67759e-07
1.75688e-07
3.12255e-07
7.10303e-08
3.10283e-07
7.13885e-08
3.35373e-08
3.37649e-08
3.02327e-07
6.97165e-08
2.97832e-07
6.99174e-08
1.4958e-06
1.53282e-06
1.55906e-06
1.57007e-06
1.52932e-06
1.50947e-06
1.5441e-06
6.32918e-07
3.15294e-07
1.21392e-06
1.02568e-06
6.2139e-07
3.22397e-07
1.23511e-06
3.34839e-08
3.37295e-08
6.47069e-07
1.23879e-06
3.17698e-07
1.05929e-06
6.40905e-07
1.24002e-06
3.26475e-07
1.73106e-07
1.76415e-07
1.06905e-06
1.74419e-07
1.78139e-07
3.17507e-07
7.09674e-08
3.13133e-07
7.19135e-08
3.35974e-08
3.37572e-08
3.07985e-07
6.99759e-08
3.04599e-07
7.00198e-08
1.54614e-06
1.48945e-06
1.53844e-06
1.57989e-06
1.5785e-06
1.50883e-06
1.55608e-06
6.42053e-07
3.29095e-07
1.24725e-06
1.07696e-06
6.31912e-07
3.29179e-07
1.24964e-06
3.40444e-08
3.4071e-08
6.49722e-07
1.21513e-06
3.29813e-07
1.07859e-06
6.48972e-07
1.23202e-06
3.30591e-07
1.76862e-07
1.7843e-07
1.0871e-06
1.78676e-07
1.79608e-07
3.17436e-07
7.18644e-08
3.17927e-07
7.11275e-08
3.37058e-08
3.36351e-08
3.08268e-07
6.99448e-08
3.0543e-07
7.02753e-08
1.60434e-06
1.51776e-06
1.55459e-06
1.5794e-06
1.57252e-06
1.56278e-06
1.5516e-06
6.42864e-07
3.26264e-07
1.27077e-06
1.13955e-06
6.46082e-07
3.32678e-07
1.26998e-06
3.41429e-08
3.37847e-08
6.40498e-07
1.22691e-06
3.27794e-07
1.11531e-06
6.43797e-07
1.24012e-06
3.31785e-07
1.77188e-07
1.77572e-07
1.11269e-06
1.76668e-07
1.79904e-07
3.14818e-07
7.14642e-08
3.17488e-07
7.20256e-08
3.35116e-08
3.37762e-08
3.07759e-07
6.98955e-08
3.03942e-07
7.00619e-08
1.59915e-06
1.57194e-06
1.55217e-06
1.62194e-06
1.62419e-06
1.61816e-06
1.59216e-06
6.47183e-07
3.27797e-07
1.29149e-06
1.15016e-06
6.42319e-07
3.29401e-07
1.29455e-06
3.3926e-08
3.38837e-08
6.47522e-07
1.28066e-06
3.32778e-07
1.15269e-06
6.50439e-07
1.28578e-06
3.35874e-07
1.76361e-07
1.79758e-07
1.12734e-06
1.79124e-07
1.80251e-07
3.18874e-07
7.20196e-08
3.1571e-07
7.11982e-08
3.39592e-08
3.3998e-08
3.09103e-07
7.0266e-08
3.06263e-07
7.05331e-08
1.63562e-06
1.62854e-06
1.59664e-06
1.62877e-06
1.6484e-06
1.62175e-06
1.62542e-06
6.45966e-07
3.32268e-07
1.3024e-06
1.17559e-06
6.52049e-07
3.34523e-07
1.29208e-06
3.38109e-08
3.38233e-08
6.48174e-07
1.2921e-06
3.35342e-07
1.15534e-06
6.50731e-07
1.26791e-06
3.36068e-07
1.78463e-07
1.79218e-07
1.13008e-06
1.77475e-07
1.78769e-07
3.19011e-07
7.20991e-08
3.17299e-07
7.21693e-08
3.38384e-08
3.38249e-08
3.10826e-07
7.08191e-08
3.07089e-07
7.07729e-08
1.65019e-06
1.65166e-06
1.62296e-06
1.66986e-06
1.65381e-06
1.66225e-06
1.6583e-06
6.49265e-07
3.29735e-07
1.32395e-06
1.17037e-06
6.48313e-07
3.30111e-07
1.31537e-06
3.39764e-08
3.37101e-08
6.57452e-07
1.2711e-06
3.33264e-07
1.16908e-06
6.53988e-07
1.27711e-06
3.33221e-07
1.79114e-07
1.80858e-07
1.13985e-06
1.79697e-07
1.80508e-07
3.1761e-07
7.16269e-08
3.15184e-07
7.22115e-08
3.39383e-08
3.39126e-08
3.10315e-07
6.99301e-08
3.08231e-07
6.94257e-08
1.6545e-06
1.63214e-06
1.64723e-06
1.65899e-06
1.62481e-06
1.63207e-06
1.66926e-06
6.40856e-07
3.29979e-07
1.32108e-06
1.15926e-06
6.37155e-07
3.30721e-07
1.32039e-06
3.41844e-08
3.40393e-08
6.57042e-07
1.31646e-06
3.35571e-07
1.18165e-06
6.51439e-07
1.32679e-06
3.34639e-07
1.79048e-07
1.80911e-07
1.13756e-06
1.76568e-07
1.80111e-07
3.20122e-07
7.18604e-08
3.18883e-07
7.13402e-08
3.39331e-08
3.38821e-08
3.11512e-07
7.02525e-08
3.08994e-07
6.99339e-08
1.61679e-06
1.6626e-06
1.66041e-06
1.66705e-06
1.66909e-06
1.66556e-06
1.68487e-06
6.38085e-07
3.26262e-07
1.32559e-06
1.16193e-06
6.41996e-07
3.25975e-07
1.32661e-06
3.4081e-08
3.39721e-08
6.54592e-07
1.32534e-06
3.31264e-07
1.1726e-06
6.55795e-07
1.32417e-06
3.35212e-07
1.76526e-07
1.79648e-07
1.12524e-06
1.78497e-07
1.80151e-07
3.07556e-07
7.11941e-08
3.12472e-07
6.9794e-08
3.39303e-08
3.35397e-08
3.09387e-07
6.96616e-08
3.05442e-07
7.00318e-08
1.67424e-06
1.65896e-06
1.66207e-06
1.67616e-06
1.6732e-06
1.62808e-06
1.65122e-06
6.25551e-07
3.2797e-07
1.32079e-06
1.18427e-06
6.44284e-07
3.2549e-07
1.33559e-06
3.39549e-08
3.36735e-08
6.54241e-07
1.33082e-06
3.35105e-07
1.19225e-06
6.55773e-07
1.33237e-06
3.34315e-07
1.75756e-07
1.78438e-07
1.13044e-06
1.77416e-07
1.79383e-07
3.31413e-08
7.14834e-08
3.05785e-07
1.68542e-06
1.65855e-06
1.63457e-06
3.30138e-07
1.32944e-06
6.46056e-07
3.40195e-08
1.32718e-06
3.34711e-07
6.5502e-07
1.78156e-07
1.77941e-07
1.49768e-07
1.52574e-07
9.44044e-07
1.58179e-07
1.55046e-07
2.84931e-08
2.90235e-08
2.91506e-08
2.88407e-08
9.42518e-07
1.55006e-07
1.58481e-07
1.57091e-07
1.54778e-07
2.94358e-08
2.91314e-08
5.62835e-07
1.15537e-06
2.74892e-07
9.3633e-07
2.78858e-07
5.44778e-07
1.15142e-06
2.79147e-07
6.13243e-08
6.24255e-08
2.72167e-07
2.78032e-07
6.05275e-08
6.1333e-08
2.72751e-07
5.64953e-07
9.48301e-07
1.15263e-06
2.88248e-07
2.88588e-07
5.72978e-07
1.14888e-06
5.66968e-07
9.44175e-07
1.14614e-06
2.80692e-07
2.7642e-07
5.69744e-07
1.14824e-06
2.80462e-07
6.24299e-08
6.31545e-08
2.79508e-07
2.81891e-07
6.18646e-08
6.141e-08
2.84118e-07
2.77405e-08
2.8359e-08
2.8189e-08
2.83544e-08
9.44831e-07
1.54039e-07
1.54125e-07
1.52206e-07
1.50426e-07
2.91886e-08
2.85861e-08
2.87861e-08
2.84583e-08
2.91192e-08
2.95935e-08
2.91648e-08
2.94297e-08
1.56405e-07
1.52098e-07
9.27739e-07
1.58734e-07
1.55585e-07
2.97629e-08
2.95456e-08
2.9848e-08
2.94316e-08
9.5931e-07
1.61245e-07
1.59043e-07
1.59345e-07
1.57097e-07
2.80929e-07
6.31159e-08
6.36408e-08
2.79627e-07
5.81629e-07
2.86461e-07
1.14884e-06
9.35901e-07
2.89685e-07
1.14254e-06
5.64213e-07
5.79608e-07
2.90383e-07
1.15229e-06
9.63001e-07
2.94477e-07
1.14475e-06
5.73509e-07
2.83566e-07
6.3783e-08
6.30022e-08
2.84051e-07
2.84174e-07
6.40377e-08
6.36906e-08
2.86527e-07
5.77127e-07
9.52481e-07
2.96099e-07
1.15104e-06
2.91428e-07
1.14316e-06
5.83675e-07
5.81349e-07
9.6781e-07
2.97795e-07
1.14575e-06
2.94015e-07
1.14153e-06
5.76658e-07
1.57656e-07
1.55317e-07
9.39452e-07
1.57895e-07
1.5719e-07
2.95612e-08
2.96702e-08
2.97989e-08
2.97665e-08
9.68469e-07
1.61534e-07
1.59687e-07
1.60478e-07
1.58533e-07
3.02452e-08
2.97813e-08
5.66678e-07
2.8248e-07
1.11559e-06
9.33164e-07
2.85543e-07
1.12017e-06
5.52772e-07
2.75589e-07
6.17059e-08
6.25552e-08
2.72588e-07
5.60652e-07
1.11663e-06
2.82256e-07
9.65632e-07
1.12021e-06
2.85066e-07
5.54996e-07
2.7737e-07
6.30965e-08
6.26764e-08
2.81703e-07
5.69931e-07
9.41796e-07
2.90644e-07
1.14201e-06
2.88043e-07
1.11758e-06
5.77557e-07
2.74896e-07
6.35044e-08
6.31539e-08
2.835e-07
5.69691e-07
9.66141e-07
1.13487e-06
2.93038e-07
1.12221e-06
2.85019e-07
5.76682e-07
2.80634e-07
6.2813e-08
6.30418e-08
2.75358e-07
5.75305e-07
1.1194e-06
2.83193e-07
9.3911e-07
1.12133e-06
2.87566e-07
5.70027e-07
2.81549e-07
6.26876e-08
6.28348e-08
2.75268e-07
5.68477e-07
9.61504e-07
2.92012e-07
1.14047e-06
2.86902e-07
1.13267e-06
5.81606e-07
2.80522e-07
6.41262e-08
6.34663e-08
2.85763e-07
5.71848e-07
9.53833e-07
1.13317e-06
2.9388e-07
1.1293e-06
2.90484e-07
5.7357e-07
2.79808e-07
6.38709e-08
6.36484e-08
2.86259e-07
1.56105e-07
1.59071e-07
9.37981e-07
1.57164e-07
1.60096e-07
2.95479e-08
2.9856e-08
3.01321e-08
2.97602e-08
9.73929e-07
1.61266e-07
1.62914e-07
1.5825e-07
1.61882e-07
2.99675e-08
2.97727e-08
5.84638e-07
1.15418e-06
2.83358e-07
9.59589e-07
5.80286e-07
1.16787e-06
2.89711e-07
2.87236e-07
6.32279e-08
2.80935e-07
6.32518e-08
2.88907e-07
6.21622e-08
2.83553e-07
6.2707e-08
5.87263e-07
9.65418e-07
1.1626e-06
2.94951e-07
1.16162e-06
2.90785e-07
5.83123e-07
5.86214e-07
9.58591e-07
1.1515e-06
3.00055e-07
1.16088e-06
2.91781e-07
5.94186e-07
2.87163e-07
6.37014e-08
6.32176e-08
2.92187e-07
2.88267e-07
6.45679e-08
6.34185e-08
2.92512e-07
2.91463e-08
2.95703e-08
2.89312e-08
2.92093e-08
9.57098e-07
1.59155e-07
1.60088e-07
1.58666e-07
1.56833e-07
2.98725e-08
2.96551e-08
2.98558e-08
2.92759e-08
3.00058e-08
3.03047e-08
2.99294e-08
3.02915e-08
1.6296e-07
1.60803e-07
9.6648e-07
1.64939e-07
1.61757e-07
3.06889e-08
3.05008e-08
3.05971e-08
3.03718e-08
9.76954e-07
1.65573e-07
1.6301e-07
1.65251e-07
1.63379e-07
2.88026e-07
6.40041e-08
2.84438e-07
6.44973e-08
5.8859e-07
2.95756e-07
1.15138e-06
9.83761e-07
5.9058e-07
3.02095e-07
1.14826e-06
5.87644e-07
2.98439e-07
1.1454e-06
9.82307e-07
5.85787e-07
2.98726e-07
1.15387e-06
2.86734e-07
6.48055e-08
6.47028e-08
2.94848e-07
2.87265e-07
6.51915e-08
6.45816e-08
2.92902e-07
5.89619e-07
9.81335e-07
3.01835e-07
1.15784e-06
3.01935e-07
1.16433e-06
6.00557e-07
5.96206e-07
9.80208e-07
3.01782e-07
1.15918e-06
2.95024e-07
1.16204e-06
5.94483e-07
1.61907e-07
1.6283e-07
9.73963e-07
1.62653e-07
1.61693e-07
3.02072e-08
3.04837e-08
3.05705e-08
3.01825e-08
1.00217e-06
1.65557e-07
1.66099e-07
1.63687e-07
1.63689e-07
3.09747e-08
3.06051e-08
5.81639e-07
2.93184e-07
1.13964e-06
9.84385e-07
5.77775e-07
2.96838e-07
1.14239e-06
2.87748e-07
6.42037e-08
2.79785e-07
6.48067e-08
5.83487e-07
1.13437e-06
2.93226e-07
9.56568e-07
5.78194e-07
1.1331e-06
2.99284e-07
2.83644e-07
6.43263e-08
6.43183e-08
2.87152e-07
5.83201e-07
9.86726e-07
3.01834e-07
1.12574e-06
2.97945e-07
1.13979e-06
5.89331e-07
2.84809e-07
6.54041e-08
6.54293e-08
2.87738e-07
5.86169e-07
9.59581e-07
1.12519e-06
3.02782e-07
1.13345e-06
2.99874e-07
5.89232e-07
2.91682e-07
6.43555e-08
2.87471e-07
6.49587e-08
5.87184e-07
1.13978e-06
2.95158e-07
9.85808e-07
5.80428e-07
1.14278e-06
2.99014e-07
2.89782e-07
6.42637e-08
2.84003e-07
6.44751e-08
5.81412e-07
9.76261e-07
3.04403e-07
1.15847e-06
2.97816e-07
1.15266e-06
5.9178e-07
2.9019e-07
6.57237e-08
6.55901e-08
2.94003e-07
5.87352e-07
9.8737e-07
1.15745e-06
2.98625e-07
1.16255e-06
2.96587e-07
5.94527e-07
2.90129e-07
6.52258e-08
6.48713e-08
2.94383e-07
1.61452e-07
1.63359e-07
9.74233e-07
1.64487e-07
1.63929e-07
3.02034e-08
3.03766e-08
3.09616e-08
3.07502e-08
9.93966e-07
1.65609e-07
1.66249e-07
1.6492e-07
1.65921e-07
3.07277e-08
3.04078e-08
5.95522e-07
1.13601e-06
3.00947e-07
9.49516e-07
5.95543e-07
1.13377e-06
3.0294e-07
2.93343e-07
6.44475e-08
2.90768e-07
6.48962e-08
2.93704e-07
6.50178e-08
2.90363e-07
6.48995e-08
6.02149e-07
9.82512e-07
1.15349e-06
3.03158e-07
1.14872e-06
3.02083e-07
6.04805e-07
6.01495e-07
9.54471e-07
1.14302e-06
3.0514e-07
1.13808e-06
3.02046e-07
6.05521e-07
2.94505e-07
6.56806e-08
6.49953e-08
2.98553e-07
2.92748e-07
6.53147e-08
6.48702e-08
2.94207e-07
2.99369e-08
3.00828e-08
3.00682e-08
3.02099e-08
9.95685e-07
1.64743e-07
1.65722e-07
1.62445e-07
1.64754e-07
3.05381e-08
3.03085e-08
3.07149e-08
3.03796e-08
3.08375e-08
3.11379e-08
3.05765e-08
3.0919e-08
1.67774e-07
1.64656e-07
9.78404e-07
1.69667e-07
1.6505e-07
3.13612e-08
3.12302e-08
3.1319e-08
3.08763e-08
1.01124e-06
1.71014e-07
1.67271e-07
1.69604e-07
1.65827e-07
2.96884e-07
6.63751e-08
2.93982e-07
6.64546e-08
6.06968e-07
3.06518e-07
1.15037e-06
9.67692e-07
6.02956e-07
3.10013e-07
1.13584e-06
6.06213e-07
3.0675e-07
1.16139e-06
9.93919e-07
6.05677e-07
3.09905e-07
1.15673e-06
2.97652e-07
6.67666e-08
6.65139e-08
2.99859e-07
2.96467e-07
6.73196e-08
6.66548e-08
2.9876e-07
6.10676e-07
9.75266e-07
3.1041e-07
1.13949e-06
3.0773e-07
1.13433e-06
6.15822e-07
6.0804e-07
9.81548e-07
3.11437e-07
1.13637e-06
3.08822e-07
1.14082e-06
6.14782e-07
1.65829e-07
1.66713e-07
9.9913e-07
1.69067e-07
1.68421e-07
3.12183e-08
3.14155e-08
3.14976e-08
3.12295e-08
1.02681e-06
1.70542e-07
1.70125e-07
1.68229e-07
1.69307e-07
3.16876e-08
3.14926e-08
5.95038e-07
3.00286e-07
1.12389e-06
9.97366e-07
5.93356e-07
3.04162e-07
1.12563e-06
2.92157e-07
6.62073e-08
2.8644e-07
6.66373e-08
5.9303e-07
1.14193e-06
2.99579e-07
9.81264e-07
5.93933e-07
1.11913e-06
3.06011e-07
2.88618e-07
6.61954e-08
6.55117e-08
2.93412e-07
5.90884e-07
9.91073e-07
3.08356e-07
1.1381e-06
3.0194e-07
1.13409e-06
5.97572e-07
2.92372e-07
6.72069e-08
6.70313e-08
2.93603e-07
5.93615e-07
1.00246e-06
1.12299e-06
3.10924e-07
1.13181e-06
3.07186e-07
6.03055e-07
2.9556e-07
6.61918e-08
2.932e-07
6.6345e-08
5.96404e-07
1.15828e-06
3.00506e-07
9.89483e-07
5.97537e-07
1.15282e-06
3.04163e-07
2.96268e-07
6.56544e-08
2.93799e-07
6.56119e-08
6.05805e-07
9.84286e-07
3.10116e-07
1.16802e-06
3.04355e-07
1.16598e-06
6.07289e-07
2.90603e-07
6.67455e-08
6.65907e-08
2.98364e-07
6.00912e-07
1.00173e-06
1.12891e-06
3.07651e-07
1.13494e-06
3.01779e-07
6.03104e-07
2.91128e-07
6.56208e-08
6.57563e-08
2.94372e-07
1.67932e-07
1.68405e-07
9.93907e-07
1.68604e-07
1.67711e-07
3.09668e-08
3.10982e-08
3.16467e-08
3.12913e-08
1.0212e-06
1.68894e-07
1.70415e-07
1.68522e-07
1.69989e-07
3.14298e-08
3.11204e-08
6.12652e-07
1.15149e-06
3.09178e-07
9.86454e-07
6.06852e-07
1.17174e-06
3.11665e-07
2.9929e-07
6.58202e-08
2.98309e-07
6.57623e-08
3.00157e-07
6.641e-08
2.95871e-07
6.69069e-08
6.17635e-07
9.75175e-07
1.16031e-06
3.10806e-07
1.15378e-06
3.11022e-07
6.20275e-07
6.16847e-07
9.93094e-07
1.16534e-06
3.11413e-07
1.15024e-06
3.09236e-07
6.15662e-07
2.98041e-07
6.68558e-08
6.64533e-08
3.03905e-07
2.99716e-07
6.69533e-08
6.68213e-08
3.02966e-07
3.04672e-08
3.07676e-08
3.0825e-08
3.10741e-08
1.00805e-06
1.68072e-07
1.67353e-07
1.65828e-07
1.66512e-07
3.08707e-08
3.08032e-08
3.12965e-08
3.0998e-08
3.15568e-08
3.16973e-08
3.13521e-08
3.16738e-08
1.71835e-07
1.6872e-07
1.02261e-06
1.70819e-07
1.69599e-07
3.18579e-08
3.18027e-08
3.21514e-08
3.18512e-08
1.05456e-06
1.717e-07
1.71525e-07
1.72977e-07
1.71e-07
2.99057e-07
6.73505e-08
2.9671e-07
6.84009e-08
6.17071e-07
3.14896e-07
1.14376e-06
1.00761e-06
6.13362e-07
3.12513e-07
1.15308e-06
6.21441e-07
3.12388e-07
1.14194e-06
1.00538e-06
6.18977e-07
3.18476e-07
1.15457e-06
3.0238e-07
6.82594e-08
6.76925e-08
3.03981e-07
2.99141e-07
6.89988e-08
6.85011e-08
3.01732e-07
6.16565e-07
1.02957e-06
3.1557e-07
1.17377e-06
3.16737e-07
1.16033e-06
6.25652e-07
6.23415e-07
1.01689e-06
3.24945e-07
1.1724e-06
3.20467e-07
1.15992e-06
6.1735e-07
1.70568e-07
1.7033e-07
1.02902e-06
1.7213e-07
1.70668e-07
3.16636e-08
3.17147e-08
3.23389e-08
3.21191e-08
1.06004e-06
1.76542e-07
1.71562e-07
1.73777e-07
1.71781e-07
3.17282e-08
3.15943e-08
6.03235e-07
3.05396e-07
1.14986e-06
9.93757e-07
6.01064e-07
3.10994e-07
1.1523e-06
2.95591e-07
6.75269e-08
2.92941e-07
6.77921e-08
6.01837e-07
1.1097e-06
3.08147e-07
9.92044e-07
6.0597e-07
1.10979e-06
3.10755e-07
2.94311e-07
6.78784e-08
6.75028e-08
2.98175e-07
6.06465e-07
1.00216e-06
3.15277e-07
1.16819e-06
3.10065e-07
1.17368e-06
6.03221e-07
2.94508e-07
6.88519e-08
6.85124e-08
2.99394e-07
6.11398e-07
9.93429e-07
1.12736e-06
3.17602e-07
1.11738e-06
3.14763e-07
6.06819e-07
2.96012e-07
6.6884e-08
2.94269e-07
6.66105e-08
6.03358e-07
1.13034e-06
3.05309e-07
1.017e-06
5.98607e-07
1.1354e-06
3.03694e-07
2.97636e-07
6.64726e-08
2.9366e-07
6.64227e-08
6.04302e-07
1.02606e-06
3.07261e-07
1.14914e-06
3.07792e-07
1.14435e-06
6.14061e-07
2.97922e-07
6.58117e-08
6.68874e-08
2.97755e-07
6.05246e-07
1.00169e-06
1.15458e-06
3.06351e-07
1.14104e-06
3.0583e-07
6.1327e-07
2.97252e-07
6.60215e-08
6.64025e-08
3.00133e-07
1.717e-07
1.7016e-07
1.02112e-06
1.71636e-07
1.70516e-07
3.13156e-08
3.1358e-08
3.23574e-08
3.23249e-08
1.03761e-06
1.7228e-07
1.69668e-07
1.73154e-07
1.70759e-07
3.13647e-08
3.12882e-08
6.19597e-07
1.1502e-06
3.14723e-07
1.01591e-06
6.10072e-07
1.15498e-06
3.16157e-07
3.07146e-07
6.68583e-08
3.02935e-07
6.70027e-08
3.02612e-07
6.7822e-08
3.03719e-07
6.81382e-08
6.28916e-07
1.01851e-06
1.19858e-06
3.12372e-07
1.17465e-06
3.1107e-07
6.28869e-07
6.17923e-07
1.00448e-06
1.17299e-06
3.19474e-07
1.16474e-06
3.1696e-07
6.28045e-07
3.06069e-07
6.67381e-08
6.71815e-08
3.07538e-07
3.03624e-07
6.8607e-08
6.78345e-08
3.03636e-07
3.0951e-08
3.08271e-08
3.12334e-08
3.17443e-08
1.03115e-06
1.65742e-07
1.72881e-07
1.65843e-07
1.69585e-07
3.08474e-08
3.07603e-08
3.20605e-08
3.1393e-08
3.21222e-08
3.23437e-08
3.18956e-08
3.23925e-08
1.73244e-07
1.71488e-07
1.04917e-06
1.75694e-07
1.71133e-07
3.26604e-08
3.2224e-08
3.26187e-08
3.24572e-08
1.07685e-06
1.75095e-07
1.74386e-07
1.74303e-07
1.74714e-07
3.07021e-07
6.95671e-08
3.05684e-07
6.95518e-08
6.30503e-07
3.18403e-07
1.18035e-06
1.04636e-06
6.29132e-07
3.18933e-07
1.20266e-06
6.26726e-07
3.24191e-07
1.18766e-06
1.05601e-06
6.27314e-07
3.26616e-07
1.19003e-06
3.04158e-07
6.94185e-08
6.86478e-08
3.06779e-07
3.07126e-07
7.06092e-08
7.0344e-08
3.1095e-07
6.30845e-07
1.07077e-06
3.26205e-07
1.21124e-06
3.2386e-07
1.19016e-06
6.29497e-07
6.27943e-07
1.06109e-06
3.29467e-07
1.19602e-06
3.23641e-07
1.1961e-06
6.34896e-07
1.75249e-07
1.71628e-07
1.03162e-06
1.77659e-07
1.71585e-07
3.1659e-08
3.16236e-08
3.32144e-08
3.25463e-08
1.07485e-06
1.79505e-07
1.71895e-07
1.78383e-07
1.71854e-07
3.20435e-08
3.13546e-08
6.14357e-07
3.12142e-07
1.17072e-06
1.03751e-06
5.99898e-07
3.13808e-07
1.16762e-06
2.97857e-07
6.9159e-08
2.97983e-07
6.87682e-08
6.16076e-07
1.13407e-06
3.19192e-07
1.03956e-06
6.07745e-07
1.14598e-06
3.20828e-07
2.96998e-07
6.91378e-08
6.89783e-08
3.0123e-07
6.16005e-07
1.041e-06
3.17675e-07
1.15117e-06
3.1805e-07
1.16446e-06
6.15542e-07
2.93766e-07
6.9274e-08
6.97343e-08
2.99668e-07
6.10676e-07
1.04494e-06
1.1647e-06
3.19995e-07
1.15372e-06
3.19461e-07
6.15638e-07
3.01279e-07
6.64343e-08
2.95666e-07
6.60661e-08
6.13823e-07
1.16341e-06
3.02079e-07
9.99268e-07
6.15092e-07
1.18274e-06
3.04447e-07
3.01475e-07
6.6302e-08
2.98813e-07
6.59372e-08
6.10937e-07
1.05249e-06
3.00637e-07
1.20238e-06
2.99977e-07
1.17903e-06
6.05194e-07
2.9656e-07