/*--------------------------------*- C++ -*----------------------------------*\
| =========                 |                                                 |
| \\      /  F ield         | OpenFOAM: The Open Source CFD Toolbox           |
|  \\    /   O peration     | Version:  2206                                  |
|   \\  /    A nd           | Website:  www.openfoam.com                      |
|    \\/     M anipulation  |                                                 |
\*---------------------------------------------------------------------------*/
FoamFile
{
    version     2.0;
    format      ascii;
    arch        "LSB;label=32;scalar=64";
    class       volScalarField;
    location    "100";
    object      omega;
}
// * * * * * * * * * * * * * * * * * * * * * * * * * * * * * * * * * * * * * //

dimensions      [0 0 -1 0 0 0 0];

internalField   nonuniform List<scalar> 
66701
(
402.834
421.773
298.458
204.578
331.093
139.486
158.174
310.186
421.634
298.257
204.404
331.1
139.772
310.193
158.112
402.497
719.572
1590.62
4386.8
16427
116912
717.042
1589.91
4385.36
16419.7
116840
740.841
1610.73
4419.38
16479.8
116802
740.635
1610.69
4419.34
16479.9
116814
720.07
1590.83
4386.51
16424.8
116892
717.072
1589.94
4385.44
16420
116852
728.481
1600.86
4403.36
16447.1
116752
727.358
1595.44
4392.57
16425.3
116727
728.134
1600.96
4403.36
16446.5
116747
727.284
1595.57
4392.53
16425.1
116725
402.992
403.706
28.5559
194.324
195.35
297.951
25.863
125.943
142.219
298.814
58.25
26.6186
129.95
21.4026
143.037
298.728
58.5306
26.4038
21.4529
130.216
403.649
28.5678
195.307
404.802
242.14
406.737
407.623
241.752
405.387
406.441
150.475
307.129
87.6232
190.606
149.054
306.876
84.152
150.072
308.135
87.6979
192.348
144.403
308.248
84.4129
330.626
160.843
310.077
137.958
330.678
158.254
310.567
421.135
205.813
298.591
421.46
204.217
330.643
310.184
160.437
139.033
330.794
310.292
158.374
421.119
206.368
298.709
421.423
204.036
404.877
241.832
406.776
406.034
150.823
88.2597
192.927
83.7357
307.913
149.505
191.529
306.48
85.09
402.135
18.2866
16.5467
16.757
15.7197
18.1375
16.5491
16.6163
15.6227
16.7296
15.5936
16.6818
15.5781
76.3346
26.9957
45.681
45.9648
72.1613
42.2197
43.5861
37.8297
76.6999
56.7956
122.735
52.2664
37.6786
75.0819
33.1044
65.0547
30.208
55.8204
31.4927
61.5272
28.9582
39.3486
87.3478
57.7559
123.593
55.8154
38.6607
84.5734
33.0409
30.6414
66.4158
56.4319
31.2089
29.2596
64.182
39.2254
86.5742
57.4783
125.456
36.8414
81.7486
54.9893
76.3944
27.2545
45.4309
43.1654
44.1676
720.162
1590.8
4386.87
16426.7
116912
719.901
1590.82
4386.84
16427.1
116912
740.722
1610.84
4419.54
16480.6
116814
740.883
1610.85
4419.38
16479.8
116802
740.916
1610.91
4419.38
16480
116814
720.121
1590.89
4386.54
16424.8
116892
720.197
1590.71
4386.73
16427
116912
728.357
1600.89
4403.3
16447.1
116752
727.535
1595.64
4392.61
16425.4
116727
728.676
1601.08
4403.4
16447.1
116752
727.672
1595.48
4392.5
16425.3
116727
740.532
1610.57
4419.15
16479.7
116802
728.108
1600.79
4403.28
16446.4
116747
727.543
1595.6
4392.55
16425.2
116725
728.317
1601.03
4403.38
16446.5
116747
727.654
1595.45
4392.44
16425.1
116725
740.926
1610.62
4419.15
16479.8
116814
720.263
1590.63
4386.39
16424.7
116892
739.981
1609.69
4416.83
16472.7
116759
720.508
1590.78
4386.26
16424.1
116881
718.563
1594.26
4394.13
16439.7
116901
740.065
1609.87
4417.2
16473.3
116776
740.118
1609.63
4416.98
16473.1
116776
718.584
1594.3
4394.18
16441
116921
739.966
1609.85
4417.26
16475
116795
739.507
1609.57
4417.02
16474.9
116795
718.52
1594.03
4393.95
16439.6
116901
718.54
1594.1
4394.04
16440.9
116921
716.989
1589.78
4385.25
16419.6
116840
717.294
1590.04
4385.39
16419.7
116840
717.033
1589.81
4385.33
16419.9
116852
717.335
1590.08
4385.48
16420
116852
739.665
1609.66
4416.96
16473.7
116777
718.147
1594.14
4394.31
16441.9
116918
718.649
1594.21
4394.23
16441.1
116904
24.6941
27.9348
18.0697
26.1181
25.4333
28.4226
18.1754
26.3359
25.6954
28.5164
18.1733
26.2498
25.7627
28.5327
18.0345
26.4012
25.991
28.6743
18.2062
26.4293
25.9397
28.6402
18.2674
26.2397
25.848
28.5805
18.258
26.2921
25.9932
28.8064
18.2355
26.5262
26.0854
28.5877
18.2291
26.3393
25.8814
28.7831
18.1725
26.3515
25.9056
28.1525
18.2523
26.547
25.8836
28.5401
18.2072
26.5518
25.8523
28.5329
18.2011
26.5236
25.8652
28.4399
18.1751
26.5539
25.8783
28.7612
18.2348
26.3697
25.7531
28.6449
18.0956
25.8269
25.7602
28.3442
27.6656
27.9351
25.3246
25.0421
25.5523
27.3234
28.5777
28.0634
25.56
25.6901
25.8765
25.8702
28.4044
28.1476
25.9271
25.7209
26.2411
26.0875
26.1712
25.2002
26.3944
27.1434
28.0562
24.4413
24.9362
25.67
28.2203
27.1287
28.0038
25.499
24.7599
25.9223
25.7838
27.6261
28.1766
25.7829
24.6406
26.1655
26.49
25.8778
24.9736
26.2475
26.5093
27.9236
24.837
24.5565
25.8264
28.2547
26.8228
28.1911
24.9354
25.091
25.9356
25.9523
26.5499
28.1415
25.5822
25.7431
26.3776
26.4736
25.5791
25.1327
26.3725
27.0272
28.0944
25.1451
24.8952
25.7679
28.4924
27.0371
28.2498
24.0424
25.0529
26.1061
25.8547
26.5391
28.1564
25.3479
25.62
26.4806
26.6047
25.4997
26.1256
26.4983
27.0336
28.4754
24.3847
25.5643
26.2162
28.3465
27.2741
28.1801
25.4238
24.2557
25.968
26.1024
27.0178
28.1148
24.5775
25.4575
26.6394
26.4751
25.5918
25.9084
26.4555
27.5303
28.291
25.6666
25.4961
26.1483
28.1313
27.4761
28.2329
25.0576
25.5757
25.9263
26.0883
26.5937
28.1642
25.9032
25.0714
26.4613
26.4659
24.8599
25.9429
26.6276
27.6922
28.2875
25.1064
24.8957
25.8935
27.7129
27.7325
28.437
25.0431
25.1646
25.9514
25.9787
27.3125
28.1982
25.539
25.4268
26.7261
26.3602
25.8575
25.2383
26.5174
26.9408
28.167
24.8978
25.0121
25.8941
28.304
26.6428
28.5202
24.2683
24.4557
26.0896
26.1613
27.6565
28.3688
25.5516
25.5288
26.4278
26.2444
25.6198
25.9902
26.5138
26.3581
28.2013
24.1523
24.6754
26.1251
27.7186
26.8153
28.2108
25.361
25.4111
26.026
26.1387
27.8075
28.3398
24.8201
25.5099
26.5901
26.3182
25.5584
25.3766
26.4987
26.4702
28.1054
25.4328
24.6946
25.9434
27.7565
27.2489
28.2817
25.1824
25.3252
26.0446
26.0459
27.4912
28.2703
25.9983
25.2289
26.5767
26.2548
25.5291
25.3828
26.3975
27.5974
27.984
24.3707
25.3628
26.0121
28.2723
27.4289
28.246
25.0848
25.0226
25.9059
26.0237
27.7792
28.1867
25.6679
25.2363
26.3166
26.2831
25.3176
25.4171
26.3685
26.7363
27.9735
24.4748
25.5785
25.8436
27.4211
27.3771
28.242
24.4054
24.3282
25.9589
26.0082
27.4629
28.0817
25.5952
24.7106
26.373
26.7
25.3516
25.3834
26.3512
26.8524
28.038
24.3083
24.6549
26.1344
28.1479
26.967
28.3116
24.8702
24.4882
25.9946
26.1155
27.0533
28.2069
24.7902
26.0852
26.5394
26.339
24.6862
25.3637
26.6149
26.8333
28.0947
24.5509
25.6099
25.9993
27.6511
26.6297
28.4256
24.36
24.4941
25.8819
25.9906
27.3728
28.0694
25.9575
24.5604
26.5809
26.6124
26.0717
25.0979
26.5092
26.4154
27.9826
25.4033
25.4317
25.894
28.3535
27.6218
28.2487
24.8089
25.2131
26.3972
26.3594
26.517
28.1608
24.5308
26.0566
26.3841
26.1857
26.0027
25.556
26.2015
27.0451
28.034
25.0921
25.3708
26.1127
28.2396
25.3378
27.1686
25.728
25.0199
25.7213
27.0281
24.3281
404.107
402.125
53.3626
20.5396
123.113
24.0243
124.407
54.4091
20.4788
193.462
191.957
28.0937
191.098
193.586
136.415
297.266
296.783
138.188
403.69
401.875
140.034
299.124
298.759
141.736
18.0822
18.083
18.0532
18.1303
18.0603
18.1485
18.1176
57.0383
130.481
21.2056
24.4648
129.936
20.612
57.8738
405.007
403.252
54.1212
20.7282
128.174
24.8754
54.6699
20.4031
127.191
195.016
192.451
28.2637
194.705
192.529
136.617
296.81
137.75
296.463
402.171
401.988
141.358
298.903
141.204
298.657
18.0366
18.0231
17.9421
18.1312
18.1754
18.2062
18.2035
57.1924
130.595
21.2538
25.7313
56.543
129.862
20.6147
403.446
403.411
54.0179
20.8518
128.449
25.2222
54.3226
20.2183
126.774
194.605
192.617
28.3613
194.753
192.73
136.692
296.62
136.861
296.394
401.637
401.73
141.291
298.968
141.219
298.699
18.0824
17.9867
18.0658
18.1961
18.2028
18.2242
18.1976
56.7169
129.743
21.3307
25.855
56.8894
129.888
20.8256
403.442
403.364
54.1901
20.9952
127.902
24.2235
55.2656
20.8016
127.318
194.676
192.964
28.4662
194.837
192.619
135.783
296.498
136.382
296.31
401.875
401.74
140.867
298.847
142.709
298.636
18.0607
18.1255
18.1098
18.172
18.0626
18.217
18.2425
56.5995
130.966
21.3905
25.7959
57.4875
130.002
21.1061
404.411
403.127
54.1335
20.9819
127.185
24.4259
54.4917
20.7985
126.931
194.604
192.811
28.538
194.724
192.771
135.624
296.401
136.592
296.373
401.422
401.629
140.498
298.835
141.741
298.564
18.1402
17.9818
18.1702
18.0807
18.207
18.2334
18.2551
57.3249
129.962
21.436
25.0616
57.8011
129.926
20.9625
403.267
403.226
54.3209
21.0952
127.319
24.8797
54.8324
20.6505
126.843
195.217
192.795
28.5826
194.633
192.811
136.391
296.727
137.67
296.346
402.82
401.525
141.417
298.649
142.286
298.479
18.0182
18.1008
18.0992
18.0814
18.1538
18.194
18.077
57.5092
130.712
21.4426
24.9764
57.556
129.779
21.0986
404.453
403.052
54.3551
20.9727
127.252
24.0353
55.4712
20.2247
126.832
195.151
192.345
28.4706
194.657
193.006
136.651
296.594
137.081
296.312
401.832
401.493
141.37
298.823
141.239
298.532
18.1024
18.1098
18.1897
18.2227
18.2399
18.0412
18.2562
57.0315
130.607
21.4737
25.4325
58.1506
129.997
20.6158
403.796
402.797
54.7706
21.0924
127.276
24.3161
55.0231
20.4398
126.569
195.027
193.042
28.577
194.804
193.022
136.654
296.369
136.482
296.299
402.796
401.556
141.076
298.742
142.074
298.597
18.0514
18.1958
18.042
18.0239
18.2387
18.2465
18.3025
56.9071
130.276
21.5263
25.3454
57.1845
129.416
21.1794
404.114
403.066
53.9045
21.1379
127.401
25.4784
55.3177
20.8305
126.618
194.937
193.373
28.4365
194.73
192.893
136.735
296.583
137.08
296.327
401.802
401.858
141.325
298.822
141.314
298.595
18.0938
17.9072
18.1015
18.2481
18.0442
18.0474
18.2438
57.3191
131.311
21.4654
25.4449
57.1795
129.811
21.0599
402.937
403.165
54.4079
21.0898
127.202
25.4525
54.6024
20.6259
126.884
195.42
193.405
28.5361
194.78
192.555
136.482
296.57
137.936
296.276
402.819
401.701
141.455
298.871
141.486
298.43
18.1862
18.1424
18.0688
18.0658
18.2354
18.181
18.2156
57.5304
131.265
21.4629
24.6573
57.7263
130.035
20.645
402.872
402.912
54.4897
21.0277
127.289
24.4847
55.4038
20.6979
127.013
194.928
193.064
28.3622
194.419
192.605
136.576
296.543
137.103
296.398
401.221
401.468
141.454
298.666
142.16
298.453
18.0569
18.0732
18.0204
18.2391
17.9871
18.121
18.2413
57.3363
130.305
21.5312
24.6986
58.0118
130.028
20.6725
404.321
404.305
53.9072
21.0067
127.868
24.9476
54.741
20.3038
126.83
195.278
193.089
28.3821
194.37
192.733
136.219
296.691
136.431
296.316
402.654
401.672
141.107
298.588
141.543
298.466
18.1395
17.8581
18.0639
18.1565
18.1932
18.0202
18.1323
57.1413
131.299
21.509
24.6758
57.3272
130.133
21.2312
403.166
403.267
53.8633
21.0953
126.898
25.052
53.6234
20.851
126.696
194.697
192.97
28.468
194.351
192.839
136.186
296.446
138.112
296.382
401.255
401.43
141.347
298.902
141.959
298.503
17.9332
18.1934
17.9124
18.2384
18.023
18.2305
18.1777
57.2457
130.491
21.4168
24.6666
57.5867
129.346
20.6794
404.424
402.84
53.9404
21.0208
127.766
25.3179
54.1477
20.793
126.929
194.963
192.781
28.4184
194.29
192.676
136.714
296.658
136.384
296.416
401.403
401.394
140.623
298.621
140.911
298.5
18.1618
18.0454
18.1351
18.2087
18.1904
18.2386
18.2572
57.2132
130.429
21.5447
25.9304
57.5913
130.051
21.2642
403.14
403.237
54.9363
21.0442
128.105
24.5877
55.5172
20.6709
127.154
194.692
192.768
28.5302
194.481
192.819
138.193
296.695
137.458
296.665
401.653
402.785
141.419
299.024
141.325
298.692
18.1172
17.9966
17.9379
18.3197
18.2426
17.9316
18.1285
56.9884
130.842
21.455
25.0846
56.8236
129.401
20.8807
403.485
403.053
54.3692
21.0263
128.105
24.7479
55.8183
20.4121
127.212
195.059
192.753
28.4983
194.63
192.533
402.448
297.497
141.311
18.1592
17.946
17.8309
129.492
20.4729
56.2242
402.252
21.1286
127.318
55.6428
194.213
192.661
192.935
190
27.4539
190.241
192.312
401.297
401.936
403.437
404.253
26.182
193.835
191.423
186.525
191.264
401.672
401.889
53.1661
20.562
126.233
24.0316
125.911
52.8418
20.1577
135.326
295.475
295.417
136.576
134.721
296.565
296.272
133.964
49.7123
24.6267
20.6029
122.839
118.718
51.5225
20.5461
48.3584
25.2728
20.7468
126.19
116.957
54.1286
20.6524
126.305
296.248
295.323
136.264
127.198
296.409
296.2
135.197
404.533
403.355
402.967
402
27.5371
193.909
190.926
186.753
191.139
403.251
405.64
401.762
403.293
403.364
402.125
404.12
403.688
192.941
195.312
28.3443
192.608
194.829
401.919
403.049
403.506
404.631
26.8133
191.637
194.406
190.403
189.286
136.246
296.981
296.619
137.972
53.973
128.183
20.7423
25.0681
127.361
20.2293
54.2911
53.8217
127.017
20.7587
24.2456
127.161
20.2728
54.791
128.011
296.709
296.361
136.999
129.767
296.415
296.203
136.013
52.5185
24.7067
125.598
20.8581
120.209
20.7541
53.9705
52.3844
25.5944
126.037
20.9016
124.556
20.8069
53.9705
192.676
195.018
28.2838
192.701
194.508
403.786
403.634
401.842
402.5
27.5916
192.284
193.992
187.151
189.125
402.798
404.762
56.5107
130.36
21.0779
25.4374
129.035
20.5116
57.0829
140.248
299.31
298.791
141.348
55.5109
20.9477
131.216
25.1996
20.6072
130.112
56.3268
131.835
298.627
298.398
139.523
52.9155
25.044
128.088
21.2265
122.528
21.0927
56.9431
133.995
298.541
298.282
140.533
52.497
24.8296
21.1218
128.766
20.54
126.584
56.4898
140.355
298.929
298.728
140.803
56.8071
21.2892
130.956
25.6817
20.6833
130.012
57.9966
140.81
298.883
298.513
141.758
54.5753
25.8195
125.55
21.063
127.114
21.1803
53.7201
132.221
298.298
298.53
140.081
52.8681
25.2039
21.3062
128.636
21.2267
126.756
56.4203
137.605
298.415
298.455
139.934
192.261
188.068
27.9773
194.206
191.866
403.138
401.951
404.488
404.047
27.4256
193.478
191.34
190.776
187.791
401.329
402.979
53.7021
20.4647
117.025
23.8947
49.2389
20.4023
126.709
136.258
296.182
127.181
296.384
136.174
296.369
125.5
296.498
51.1878
24.7178
20.7237
127.858
20.6083
119.179
53.4327
51.6459
25.4026
20.8567
126.608
20.6209
117.487
54.4916
128.044
296.546
296.25
137.256
133.544
296.403
296.371
136.238
404.575
403.515
402.974
402.199
26.5616
193.729
191.483
189.729
186.706
402.675
404.812
401.717
403.376
402.648
401.874
404.931
403.311
186.331
188.72
28.0425
192.135
194.432
401.746
402.775
403.428
404.24
26.7102
191.42
194.507
189.901
188.708
135.875
296.266
130.872
296.351
54.5364
119.77
20.3904
24.95
49.0293
125.483
20.2117
53.82
123.367
20.465
25.2319
50.7679
125.861
20.2457
132.487
296.691
296.165
133.522
131.784
296.259
296.008
136.453
52.242
24.7394
125.372
20.949
120.513
20.829
54.411
48.6047
25.3713
125.628
20.9605
123.144
20.8795
54.7793
190.524
188.418
28.1831
192.36
194.132
404.796
403.201
401.722
402.776
27.6143
191.721
193.997
190.702
188.484
403.055
404.704
57.0613
122.165
20.8289
25.1715
54.1265
128.712
20.6232
139.629
298.304
133.537
298.397
56.4662
20.6973
126.591
26.036
52.9759
21.32
128.051
137.002
298.629
298.469
138.961
54.5047
25.0571
129.725
21.4045
124.221
21.2773
57.1829
132.168
298.292
297.96
140.521
52.6727
25.2994
21.0056
128.287
21.4126
122.518
57.0698
140.102
298.31
135.288
298.225
56.8052
20.8112
120.119
25.2052
53.8125
21.0378
129.825
140.13
298.431
137.382
298.474
51.5316
25.2598
128.096
21.3421
124.902
21.226
56.2112
131.657
298.386
298.285
141.075
51.5274
25.413
21.3054
128.535
21.1318
125.487
57.7342
131.877
298.168
298.444
141.22
189.794
186.529
28.132
193.465
191.553
402.439
401.859
403.237
404.54
26.9213
193.57
191.643
190.151
188.981
401.519
403.126
54.2114
20.4738
123.275
24.5251
52.4001
20.2444
125.99
135.334
296.536
130.747
296.32
135.519
296.228
132.377
296.346
49.2272
24.8061
20.5445
126.391
20.771
122.154
54.3921
51.2892
25.3617
20.9798
125.833
20.8796
123.636
54.308
129.318
296.466
296.306
135.505
129.973
296.294
296.393
136.004
403.84
404.786
402.866
402.039
26.7185
191.171
189.959
193.094
191.075
402.828
403.963
401.545
403.319
402.512
401.735
404.377
403.496
186.016
192.092
28.1557
191.95
194.059
401.613
402.811
403.043
404.554
26.8108
192.068
194.368
186.884
189.572
135.684
295.875
131.975
296.209
54.0225
116.007
20.6159
24.1215
51.7605
126.479
20.5649
54.4238
117.369
20.3325
25.4643
49.3854
126.695
20.9148
128.591
296.333
296.111
134.841
131.573
296.219
295.794
136.095
52.5816
25.6816
125.36
21.0312
123.508
20.5571
54.0439
52.7964
25.6768
126.239
20.944
117.455
20.7384
54.1237
189.882
191.089
28.4034
191.658
193.612
403.936
403.208
401.588
402.582
27.7296
191.74
193.637
190.039
190.708
402.64
404.321
57.3747
127.523
20.6092
25.9503
50.904
129.628
21.2609
141.162
298.147
137.67
298.271
56.8788
21.3198
123.442
26.0647
54.0796
21.1036
128.948
133.275
298.744
298.405
142.313
54.6329
25.9897
129.999
21.5322
127.313
21.0278
57.0822
133.494
298.217
298.028
140.528
54.3785
26.0987
21.5389
128.524
21.0324
123.458
57.1437
140.944
298.343
131.606
298.482
57.4526
20.7328
122.341
26.0001
51.5602
21.3636
128.993
140.865
297.99
131.781
298.079
53.1983
25.3766
125.796
21.036
127.261
20.9363
57.1762
137.595
298.206
298.452
140.067
55.3187
26.021
21.4475
128.913
20.9536
124.013
57.002
137.638
298.179
298.09
140.176
190.007
188.073
28.0497
193.577
191.745
402.687
401.697
402.872
405.214
27.2476
193.508
191.809
190.277
186.937
401.148
402.74
53.8357
20.5344
118.219
24.6764
52.6022
20.3026
126.234
136.083
296.221
131.831
296.406
135.521
296.111
132.233
296.157
51.3489
25.5371
20.4802
125.597
20.6226
118.213
53.6026
49.3079
24.9594
21.0262
125.54
20.9417
120.759
53.7741
132.405
296.114
296.032
136.012
133.032
296.077
296.227
135.331
404.299
403.242
402.782
401.826
27.7146
191.315
192.14
189.577
188.439
402.926
404.56
401.485
403.076
402.774
401.369
403.83
403.431
188.715
190.962
28.2206
191.771
194.188
401.296
402.18
403.317
404.586
26.9692
191.506
194.056
187.638
191.138
134.983
295.816
130.585
296.16
53.3237
118.318
20.806
25.4719
50.3996
125.942
20.5298
53.2119
116.996
20.6035
25.4578
50.3364
126.479
20.7934
129.761
296.157
296.177
135.045
129.239
296.119
295.853
135.149
49.6769
24.9082
125.183
21.1413
120.39
21.1064
53.7974
49.9701
25.5433
126.078
20.9812
117.048
20.8549
54.2476
189.716
190.902
28.2634
191.924
193.843
403.802
403.213
401.511
402.358
27.4289
191.79
194.058
185.597
188.689
402.387
405.44
56.8529
124.779
21.2641
25.8987
53.5401
130.168
21.3944
139.907
298.16
134.039
298.313
57.2337
20.8733
122.887
25.4204
51.2558
21.5067
128.809
134.675
298.705
298.287
141.014
53.0094
26.1682
128.838
21.5526
123.422
21.4235
57.093
135.854
298.353
298.05
140.987
51.6305
25.3226
21.3489
129.626
21.5589
119.854
57.8475
140.025
298.2
136.159
298.292
56.2649
20.6656
125.881
25.135
52.56
21.2913
129.381
139.909
298.283
137.702
298.159
52.4942
26.0309
128.42
21.2961
120.948
21.2474
54.6015
134.269
298.202
298.133
140.016
52.8257
25.9774
21.5056
128.257
21.0028
123.632
56.7616
131.852
298.099
298.29
141.545
190.369
188.294
28.0198
193.708
191.794
402.284
401.629
403.074
404.097
26.5863
193.36
191.691
190.35
188.667
401.099
402.699
53.8521
20.5809
121.044
25.7802
50.8117
20.8002
126.114
135.529
296.042
133.267
296.151
136.276
296.039
126.934
296.092
51.3822
25.8086
20.6201
125.903
20.701
118.655
54.4366
51.4709
25.0678
21.0343
126.53
20.8786
117.207
54.299
127.304
296.279
295.987
136.913
133.682
296.215
296.088
136.67
404.2
403.184
402.727
401.883
28.0276
194.106
191.751
190.919
191.089
403.116
404.501
401.457
404.073
402.438
401.754
404.903
403.195
188.825
188.518
28.1873
191.717
194.594
401.712
402.479
403.262
404.156
27.4109
192.332
193.961
186.408
189.605
135.748
295.754
130.287
296.18
53.5081
119.298
20.3598
25.6559
50.1183
125.715
20.9338
54.943
117.02
20.6005
25.7371
52.9161
126.668
20.4865
131.15
296.816
296.084
136.439
131.969
296.052
295.771
136.673
50.0881
25.6497
126.061
21.0896
117.72
20.649
53.8782
52.7749
24.8903
125.698
21.1396
123.412
21.0953
54.1546
189.777
191.765
28.0675
191.359
193.48
403.598
403.099
401.565
403.6
27.0564
191.948
194.071
186.367
188.607
402.489
405.411
56.7894
122.969
20.6914
26.0609
53.1405
129.56
21.3627
141.736
298.039
138.764
298.345
57.5306
20.7629
120.918
24.5089
55.8339
21.5079
130.129
134.561
298.529
298.156
141.623
54.2653
25.4341
129.158
21.5914
119.429
21.0578
57.254
135.254
298.249
298.055
141.416
55.9225
26.2044
21.5315
128.6
21.4333
125.536
57.6469
140.147
298.077
134.909
298.299
56.7166
21.2054
122.424
25.984
53.068
21.3403
128.51
140.693
298.058
138.635
298.139
52.0021
24.7587
130.092
21.2829
126.622
21.1813
56.8077
136.349
298.345
298.221
140.638
52.8238
26.0641
21.505
128.213
21.3759
122.847
57.2307
138.273
298.015
298.079
140.481
189.999
189.709
28.1612
193.442
191.766
402.181
401.691
403.044
404.064
27.3323
193.594
191.989
190.356
185.828
402.612
402.697
53.9429
20.7712
123.177
24.874
52.4142
20.59
125.881
136.506
296.137
127.71
296.183
135.894
296.165
133.302
296.189
52.1489
25.3125
20.853
125.831
20.4241
118.619
52.4899
49.0169
25.8608
21.1544
125.892
21.039
123.451
54.9172
127.226
296.328
296.107
136.475
126.471
296.104
296.05
136.674
404.278
403.167
402.74
401.875
28.0209
193.935
189.912
190.88
191.273
402.724
404.262
401.35
404.077
402.793
401.673
404.405
403.318
188.657
190.919
28.1287
191.946
193.916
401.817
402.505
403.459
404.246
27.2213
192.235
194.115
188.756
191.557
135.577
296.046
134.206
296.189
53.7414
120.123
20.3953
25.4294
50.9215
124.963
20.9657
54.4119
123.145
20.7429
24.8652
49.1102
125.745
20.7033
132.722
296.543
296.002
135.36
132.118
296.029
295.849
136.216
48.7313
25.6583
125.464
21.1018
117.445
20.6517
54.486
49.5416
25.6816
125.597
21.0029
123.021
20.4791
54.2051
186.559
191.218
28.0958
192.407
193.523
403.662
403.06
401.637
402.534
27.0961
191.719
193.564
190.522
190.383
402.566
404.177
57.6033
121.317
21.3239
26.1406
51.6691
129.537
21.0242
141.362
297.934
131.535
298.212
56.9432
20.6056
122.25
24.4843
53.4859
21.283
128.697
132.071
299.034
298.428
139.81
55.3722
26.1217
129.105
21.4732
125.47
20.8942
56.8913
138.117
298.24
297.97
140.305
54.2733
26.1667
21.5463
127.978
21.0362
122.132
57.0658
139.874
298.196
134.548
298.186
57.085
20.6666
122.138
26.3589
54.1331
21.3541
128.804
139.906
298.1
137.427
297.961
55.1407
24.7437
125.567
21.3212
126.898
20.9353
55.1609
133.584
298.044
298.164
140.162
54.2812
25.3972
21.5782
128.328
21.0656
122.092
56.893
131.533
298.008
298.001
140.89
190.563
189.695
28.2013
194.078
191.812
402.129
401.197
403.092
404.169
26.573
193.588
191.326
191.066
188.114
400.99
401.835
54.0263
20.8
117.85
25.5148
53.0305
20.6103
127.008
136.23
296.19
127.075
296.15
136.338
296.037
127.49
296.233
51.3136
25.4568
20.6052
126.245
20.8488
120.449
54.355
51.4458
25.5519
21.0217
125.868
20.6325
123.959
54.0767
133.006
296.123
296.08
135.608
133.159
296.299
296.422
135.655
403.854
403.156
402.781
401.913
27.2054
194.101
192.121
191.757
191.265
402.543
405.608
401.488
404.167
403.459
401.661
404.467
403.246
190.535
188.562
28.2442
192.151
194.459
401.422
402.685
403.114
404.243
26.4022
191.87
194.202
186.303
188.711
135.82
295.828
125.922
296.15
54.353
120.06
20.5924
25.4499
48.9926
125.664
20.2222
53.7194
117.333
20.7616
25.5598
51.5417
126.731
20.8967
133.946
296.279
295.834
132.782
127.832
296.171
295.867
136.177
52.3498
25.6805
125.798
21.0147
115.561
20.9276
53.9144
51.5351
25.6285
126.351
21.0359
117.474
20.9193
54.6613
189.655
190.709
28.3113
191.766
193.777
403.724
403.138
401.586
402.481
27.8005
191.885
193.618
189.228
190.613
402.682
405.483
57.4725
119.424
21.2671
25.0616
51.4656
130.163
20.9899
140.506
297.991
130.869
298.051
57.1711
21.2322
122.738
25.8544
51.1564
21.355
128.006
138.754
298.572
298.443
140.788
55.4818
26.5428
128.848
21.4579
127.14
20.9543
57.2318
136.161
298.138
297.676
140.087
55.1363
26.0585
21.4812
129.189
21.3663
123.823
56.7739
139.601
298.067
133.678
298.236
56.6728
20.8143
122.462
26.1796
55.1172
21.4605
128.374
140.677
297.956
138.359
297.991
52.7693
25.318
129.314
20.9848
123.138
21.2861
55.9113
133.826
298.58
298.423
139.956
51.1994
26.173
21.5666
128.165
21.0917
122.845
57.547
135.458
297.947
298.014
140.108
190.078
186.908
28.1231
193.533
191.831
402.142
401.692
402.883
403.586
26.1227
193.299
191.356
189.462
189.104
401.313
402.98
53.9964
20.8381
117.716
25.3986
50.8925
20.6051
127.072
137.433
296.168
128.406
296.106
135.804
296.248
132.131
296.202
50.0209
25.6579
20.6529
126.482
21.0345
120.342
54.9584
50.5359
25.5156
21.0157
126.551
20.6622
119.023
54.4443
134.279
296.341
296.066
136.157
131.826
296.233
296.216
136.291
403.803
403.181
403.961
401.524
26.6871
194.375
191.64
190.006
191.015
402.671
405.596
401.252
403.868
402.135
401.733
403.956
403.239
186.079
188.586
28.4495
192.155
194.317
401.57
402.777
403.144
404.07
26.6327
192.053
194.298
186.374
188.605
136.238
295.834
131.647
296.217
54.1246
117.376
20.5179
25.6927
52.5386
126.784
20.7425
54.6817
117.379
20.5243
25.8833
53.0618
126.873
20.303
134.067
296.421
295.892
131.803
132.397
296.249
296.031
135.697
52.6987
24.898
126.52
20.9713
118.781
20.8099
54.1055
51.2234
24.9642
125.908
21.0958
124.087
20.996
54.2059
189.65
190.177
28.2653
191.873
193.596
403.849
403.135
401.806
403.702
27.3413
191.813
193.512
188.886
190.411
402.793
404.532
57.4488
120.555
20.7728
25.9955
55.8583
129.928
21.4477
140.43
298.14
136.115
298.121
57.2824
20.9687
123.602
25.0197
55.5561
21.193
128.602
133.917
298.809
298.226
140.029
52.1634
26.0652
126.836
21.6435
125.891
21.1456
57.0795
130.936
298.164
297.743
140.892
55.9073
25.5039
21.4286
127.978
21.264
121.941
57.2554
139.888
298.471
133.806
298.271
57.1531
21.0181
123.602
26.0208
55.6775
20.6005
128.797
140.671
298.026
136.394
298.231
53.9357
24.812
129.714
21.3346
121.567
21.2977
56.4108
135.634
298.503
298.381
139.986
53.9159
26.2245
21.4892
129.23
21.3999
119.775
56.9593
131.096
298.101
298.141
140.996
189.935
186.78
28.1982
193.994
191.299
402.435
401.605
403.057
404.329
27.5792
193.509
191.613
190.085
189.311
401.131
402.692
53.955
20.7499
122.533
25.5381
50.1639
20.8993
126.257
135.49
296.049
132.238
296.099
135.449
296.137
129.163
296.113
50.579
24.9567
20.9744
125.708
20.9571
119.981
51.2667
51.3718
24.9564
21.0638
126.345
20.9355
116.425
54.1069
132.878
296.121
296.219
135.832
128.702
296.1
295.855
137.703
404.121
403.236
402.451
401.845
27.2097
192.775
192.559
192.647
190.584
402.924
404.606
401.701
403.151
402.461
401.731
404.137
403.131
189.764
191.903
28.4915
191.478
194.183
401.648
403.334
403.348
404.179
27.1483
191.764
194.306
189.657
191.613
136.486
296.102
126.78
296.32
54.0997
122.203
20.5816
25.6531
52.584
125.871
20.785
54.3595
120.214
20.6111
25.7601
50.0234
125.904
20.8346
132.876
296.52
296.215
132.842
133.448
296.212
295.945
135.759
52.6249
25.6841
125.669
20.9932
120.633
20.8467
54.0469
52.4919
25.8998
125.436
21.0485
120.339
20.905
54.234
188.544
188.842
28.3113
192.136
193.456
403.987
403.022
401.72
402.835
26.4496
192.245
193.399
189.975
190.096
402.449
404.047
56.8773
123.813
20.7449
26.3204
53.0508
129.59
21.3901
140.804
298.087
131.486
298.206
57.4015
21.0741
122.863
25.922
51.8013
20.9074
128.172
132.644
298.938
298.443
140.009
50.9897
25.3716
129.179
21.5906
125.224
21.047
57.836
131.603
298.27
298.181
141.349
55.3183
25.951
21.4559
129.214
21.2009
124.03
57.0281
140.975
298.37
130.727
298.209
57.1024
20.906
121.14
25.9925
55.1206
21.1561
128.549
140.79
298.086
132.888
298.005
55.3959
25.2665
126.443
21.221
126.176
20.9553
54.407
132.465
298.156
298.233
141.817
55.3921
26.2134
21.4014
128.681
21.2367
124.185
56.8979
136.972
298.142
298.24
140.384
189.052
189.244
28.3089
193.838
191.498
402.237
401.432
404.143
404.111
27.6628
194.109
191.256
192.152
187.951
401.315
402.859
54.1909
20.7165
117.406
25.6477
49.3701
20.5303
126.741
135.812
295.969
127.807
296.04
135.841
295.988
133.3
296.069
49.3223
24.9903
20.8826
126.272
20.8121
120.311
55.139
50.6093
25.6422
21.1038
126.344
20.987
117.529
53.8885
131.37
296.118
295.818
135.876
129.843
296.028
295.955
135.411
404.208
403.264
402.773
401.831
26.8987
194.531
191.42
193.123
187.281
402.881
404.412
401.517
403.998
402.959
401.691
404.314
403.287
189.874
192.135
28.2964
191.635
193.984
401.578
402.63
403.074
404.364
27.6172
191.605
194.29
186.36
188.796
135.437
296.01
131.204
296.004
53.7756
116.431
20.256
25.5526
50.5979
126.649
20.8795
53.9138
119.643
20.6524
24.9388
52.7604
125.358
20.8522
131.369
296.358
296.148
132.035
131.095
296.06
295.749
136.004
51.1402
25.7812
125.404
21.1132
122.435
20.6279
54.0423
50.2914
24.7832
125.19
21.0453
120.092
20.9076
54.1098
190.88
191.07
28.1516
192.426
194.12
403.64
403.196
402.506
402.824
27.1778
191.62
194.149
190.004
188.821
402.935
404.264
57.4715
123.187
21.3202
25.2501
55.5995
129.054
21.3544
140.293
298.078
138.02
298.21
57.3066
21.1592
121.574
25.7619
51.744
20.9465
128.297
138.602
298.51
298.285
137.174
53.5628
26.2104
128.418
21.4655
122.652
21.3432
56.8826
137.647
298.176
298.064
140.35
51.5116
25.8897
21.4471
128.074
20.8929
122.323
57.6966
140.722
298.022
138.567
298.182
57.6661
20.7006
123.074
25.9524
51.486
21.4108
128.533
141.335
298.339
130.643
298.099
55.3042
26.0497
129.383
21.0042
123.106
21.3272
54.7579
137.896
298.291
298.312
140.309
55.4372
26.0217
21.4984
129.345
21.5047
119.132
57.3424
133.617
298.276
298.139
142.369
192.094
188.875
28.0612
193.976
192.093
402.465
401.729
403.145
403.549
27.0791
194.304
191.617
188.328
189.695
400.986
402.951
53.7595
20.6912
117.362
25.7974
50.6975
20.5078
126.87
135.702
295.964
127.512
296.026
135.077
295.847
129.792
296.065
52.2408
25.8097
20.7457
127.186
20.6028
123.7
51.6359
50.1842
24.8398
21.1699
126.192
21.1288
123.878
54.0407
132.649
296.325
296.362
136.279
130.767
296.19
296.164
136.448
404.082
403.211
402.79
401.795
26.6529
194.923
192.616
192.414
190.368
403.069
404.595
401.323
402.862
402.525
401.731
403.916
403.196
188.922
188.704
28.2187
191.757
194.551
401.583
402.557
403.205
404.198
27.2095
191.516
193.948
189.151
192.448
136.939
295.959
127.897
296.145
54.2588
119.338
20.8705
25.4472
48.5785
125.482
20.5974
53.6825
119.346
20.6483
24.1783
50.4176
125.434
20.8454
128.345
296.767
296.052
134.754
132.517
295.993
295.687
135.627
48.8666
25.5395
125.028
20.9857
119.131
20.5489
54.4969
50.7243
25.7774
124.972
21.0119
119.176
20.8847
53.8026
187.832
188.875
28.2492
191.282
194.432
404.121
403.234
401.584
402.389
27.5549
192.041
193.747
185.731
192.744
402.867
405.478
57.0038
124.542
20.9314
25.1617
54.4641