/*--------------------------------*- C++ -*----------------------------------*\
| =========                 |                                                 |
| \\      /  F ield         | OpenFOAM: The Open Source CFD Toolbox           |
|  \\    /   O peration     | Version:  2206                                  |
|   \\  /    A nd           | Website:  www.openfoam.com                      |
|    \\/     M anipulation  |                                                 |
\*---------------------------------------------------------------------------*/
FoamFile
{
    version     2.0;
    format      ascii;
    arch        "LSB;label=32;scalar=64";
    class       volScalarField;
    location    "100";
    object      p;
}
// * * * * * * * * * * * * * * * * * * * * * * * * * * * * * * * * * * * * * //

dimensions      [0 2 -2 0 0 0 0];

internalField   nonuniform List<scalar> 
66701
(
-0.00677338
-0.00677344
-0.00677334
-0.00677327
-0.00677338
-0.00677316
-0.00677319
-0.00677337
-0.00677345
-0.00677333
-0.00677325
-0.00677337
-0.00677315
-0.00677337
-0.00677315
-0.00677338
-0.00677343
-0.00677343
-0.00677343
-0.00677343
-0.00677343
-0.00677345
-0.00677345
-0.00677345
-0.00677345
-0.00677345
-0.00677348
-0.00677348
-0.00677348
-0.00677349
-0.00677349
-0.00677347
-0.00677347
-0.00677347
-0.00677347
-0.00677347
-0.00677342
-0.00677342
-0.00677342
-0.00677343
-0.00677343
-0.00677346
-0.00677345
-0.00677346
-0.00677346
-0.00677346
-0.00677341
-0.00677342
-0.00677342
-0.00677342
-0.00677342
-0.00677342
-0.00677342
-0.00677342
-0.00677342
-0.00677342
-0.0067734
-0.00677341
-0.00677341
-0.00677341
-0.00677341
-0.0067734
-0.0067734
-0.0067734
-0.0067734
-0.0067734
-0.00672823
-0.00672796
-0.0067279
-0.00672812
-0.00672794
-0.00672842
-0.00673887
-0.00672869
-0.00672768
-0.00672793
-0.00672818
-0.00673904
-0.00672822
-0.00673882
-0.0067277
-0.00672791
-0.00672818
-0.006739
-0.00673884
-0.00672826
-0.00672792
-0.0067277
-0.00672788
-0.00675055
-0.00675066
-0.00672812
-0.00672805
-0.00672787
-0.00675044
-0.00675048
-0.00675057
-0.00672821
-0.00672753
-0.00675022
-0.00672787
-0.0067503
-0.00675072
-0.00675059
-0.00672812
-0.00672737
-0.0067505
-0.00672778
-0.0067504
-0.00675084
-0.00675056
-0.0067277
-0.00672796
-0.00675082
-0.00672795
-0.0067508
-0.00675059
-0.00675049
-0.00672781
-0.0067506
-0.00672802
-0.00675064
-0.00675057
-0.00672795
-0.00672771
-0.00675084
-0.00672796
-0.00675059
-0.00675078
-0.00675052
-0.00672786
-0.00675058
-0.00672804
-0.00675067
-0.00675054
-0.00675064
-0.00675046
-0.00675041
-0.00675062
-0.00672746
-0.00675048
-0.00675083
-0.00675041
-0.00675056
-0.00675038
-0.0067503
-0.00675081
-0.00675037
-0.00673887
-0.00673901
-0.00673875
-0.00673919
-0.00673887
-0.00673889
-0.00673882
-0.0067391
-0.00673877
-0.00673909
-0.00673885
-0.00673914
-0.00674958
-0.00675058
-0.00672809
-0.00672802
-0.00672886
-0.00675029
-0.00675035
-0.00675041
-0.00672883
-0.00672743
-0.00674944
-0.00675076
-0.00672797
-0.00674924
-0.00675123
-0.00672824
-0.00672681
-0.00675017
-0.00672693
-0.00675017
-0.00675133
-0.00675117
-0.00672825
-0.00672699
-0.00675015
-0.00675124
-0.00672705
-0.00675011
-0.00675123
-0.00672681
-0.00672822
-0.00675019
-0.00672693
-0.00675133
-0.00675011
-0.00675112
-0.00672822
-0.00672701
-0.00675016
-0.00672698
-0.00675011
-0.00675124
-0.00674959
-0.00675053
-0.00672799
-0.00675028
-0.0067503
-0.00672819
-0.00672819
-0.0067282
-0.00672821
-0.00672822
-0.00672803
-0.00672804
-0.00672804
-0.00672804
-0.00672805
-0.00672831
-0.0067283
-0.00672831
-0.00672832
-0.00672833
-0.0067281
-0.00672811
-0.00672811
-0.00672811
-0.00672812
-0.00672807
-0.00672809
-0.00672809
-0.00672809
-0.00672809
-0.006728
-0.00672801
-0.00672802
-0.00672802
-0.00672802
-0.0067505
-0.00675049
-0.00675049
-0.00675049
-0.00675048
-0.00675053
-0.00675053
-0.00675053
-0.00675053
-0.00675053
-0.006728
-0.00672801
-0.00672801
-0.00672801
-0.00672801
-0.00672801
-0.00672801
-0.00672802
-0.00672802
-0.00672802
-0.00675056
-0.00675055
-0.00675055
-0.00675055
-0.00675056
-0.00675047
-0.00675046
-0.00675046
-0.00675046
-0.00675046
-0.00675055
-0.00675054
-0.00675054
-0.00675054
-0.00675054
-0.00672801
-0.00672802
-0.00672802
-0.00672802
-0.00672802
-0.00672802
-0.00672802
-0.00672802
-0.00672803
-0.00672803
-0.00675056
-0.00675055
-0.00675055
-0.00675055
-0.00675055
-0.00675047
-0.00675047
-0.00675047
-0.00675047
-0.00675046
-0.00675049
-0.00675048
-0.00675048
-0.00675048
-0.00675048
-0.00675034
-0.00675034
-0.00675034
-0.00675033
-0.00675033
-0.00675033
-0.00675032
-0.00675031
-0.00675031
-0.0067503
-0.00672812
-0.00672813
-0.00672813
-0.00672814
-0.00672814
-0.00672816
-0.00672817
-0.00672818
-0.00672818
-0.00672819
-0.00675032
-0.00675033
-0.00675033
-0.00675032
-0.00675032
-0.00672809
-0.00672809
-0.00672809
-0.00672809
-0.0067281
-0.00672811
-0.00672811
-0.00672811
-0.00672812
-0.00672812
-0.00675044
-0.00675044
-0.00675044
-0.00675043
-0.00675043
-0.00675041
-0.00675041
-0.00675041
-0.0067504
-0.0067504
-0.00675045
-0.00675044
-0.00675044
-0.00675043
-0.00675043
-0.00675047
-0.00675047
-0.00675047
-0.00675047
-0.00675047
-0.00672805
-0.00672805
-0.00672806
-0.00672806
-0.00672806
-0.0067505
-0.0067505
-0.0067505
-0.00675049
-0.00675049
-0.00672806
-0.00672806
-0.00672806
-0.00672806
-0.00672807
-0.00675044
-0.00675044
-0.00675044
-0.00675044
-0.00675043
-0.00675043
-0.00675042
-0.00675042
-0.00675042
-0.00675042
-0.00675039
-0.00675038
-0.00675038
-0.00675038
-0.00675037
-0.00369171
-0.00367949
-0.00388948
-0.00388994
-0.00388979
-0.00387763
-0.00408568
-0.00408593
-0.00408591
-0.00407378
-0.00427865
-0.00427893
-0.00427895
-0.00426709
-0.00446787
-0.00446828
-0.00446832
-0.0044566
-0.00465377
-0.0046542
-0.00465417
-0.00464267
-0.00483704
-0.00483724
-0.00483726
-0.00482599
-0.00501893
-0.00501893
-0.00501892
-0.00500766
-0.00520034
-0.00520037
-0.00520043
-0.005189
-0.0053813
-0.00538152
-0.00538154
-0.00537022
-0.00556239
-0.00556257
-0.00556258
-0.00555134
-0.00574333
-0.00574357
-0.00574353
-0.00573228
-0.00592434
-0.00592448
-0.00592452
-0.0059131
-0.00610527
-0.0061054
-0.00610543
-0.00609408
-0.00628637
-0.00628655
-0.00628648
-0.00627509
-0.00646755
-0.00646763
-0.00646762
-0.00645622
-0.00664864
-0.00664873
-0.00664872
-0.00663745
-0.00368019
-0.00385242
-0.00369188
-0.0038408
-0.00384063
-0.00385275
-0.00387734
-0.00404924
-0.00388973
-0.00389002
-0.00403718
-0.00403718
-0.00387766
-0.00404925
-0.00388955
-0.00388949
-0.00403714
-0.00403707
-0.00388991
-0.00403714
-0.00403712
-0.00387737
-0.00404913
-0.00388999
-0.00403716
-0.00403714
-0.00404919
-0.00407382
-0.00424293
-0.00408601
-0.00408597
-0.00423097
-0.00423097
-0.00407377
-0.00424292
-0.00408594
-0.00408586
-0.004231
-0.00423093
-0.00408592
-0.00423097
-0.00423098
-0.00407368
-0.00424294
-0.00408596
-0.00423096
-0.00423104
-0.00424301
-0.00426703
-0.00443303
-0.00427894
-0.00427895
-0.00442117
-0.00442118
-0.004267
-0.00443303
-0.00427896
-0.00427891
-0.00442116
-0.0044212
-0.004279
-0.00442123
-0.00442126
-0.00426701
-0.00443305
-0.00427905
-0.00442126
-0.00442128
-0.00443307
-0.0044566
-0.00461949
-0.00446826
-0.00446829
-0.00460784
-0.00460788
-0.00445661
-0.0046195
-0.00446823
-0.00446827
-0.00460782
-0.00460793
-0.00446834
-0.00460797
-0.0046079
-0.00445662
-0.00461958
-0.00446835
-0.00460797
-0.00460792
-0.00461955
-0.00464259
-0.00480306
-0.00465409
-0.00465414
-0.00479157
-0.00479159
-0.00464265
-0.00480308
-0.00465405
-0.00465417
-0.00479155
-0.00479156
-0.00465413
-0.00479161
-0.00479167
-0.00464269
-0.00480308
-0.00465415
-0.00479161
-0.00479161
-0.00480319
-0.00482591
-0.0049851
-0.00483728
-0.00483727
-0.00497365
-0.00497364
-0.00482588
-0.00498505
-0.00483731
-0.00483728
-0.00497363
-0.00497353
-0.00483731
-0.00497348
-0.00497354
-0.00482588
-0.00498494
-0.00483732
-0.00497348
-0.00497357
-0.00498497
-0.00500776
-0.00516645
-0.0050191
-0.00501912
-0.00515504
-0.00515506
-0.00500775
-0.00516641
-0.00501909
-0.00501898
-0.00515506
-0.00515501
-0.00501897
-0.00515496
-0.00515491
-0.00500761
-0.00516646
-0.00501905
-0.00515502
-0.00515499
-0.00516638
-0.00518906
-0.00534748
-0.00520044
-0.00520044
-0.00533612
-0.00533614
-0.00518909
-0.00534758
-0.00520043
-0.00520048
-0.00533613
-0.00533622
-0.00520035
-0.00533617
-0.00533617
-0.00518914
-0.00534768
-0.00520041
-0.0053362
-0.00533618
-0.0053476
-0.00537017
-0.00552864
-0.0053815
-0.00538149
-0.00551722
-0.00551722
-0.00537019
-0.00552862
-0.00538151
-0.00538157
-0.00551725
-0.00551725
-0.00538154
-0.00551723
-0.00551725
-0.00537026
-0.00552864
-0.00538157
-0.00551727
-0.00551727
-0.0055287
-0.00555131
-0.00570958
-0.0055626
-0.00556257
-0.00569818
-0.00569823
-0.0055512
-0.00570958
-0.00556261
-0.00556263
-0.00569818
-0.00569822
-0.00556261
-0.00569825
-0.00569826
-0.00555128
-0.00570962
-0.00556263
-0.00569824
-0.00569831
-0.0057097
-0.00573217
-0.00589053
-0.00574351
-0.00574356
-0.00587916
-0.00587918
-0.00573218
-0.00589051
-0.00574353
-0.00574356
-0.00587917
-0.00587916
-0.00574361
-0.00587918
-0.00587915
-0.00573221
-0.00589055
-0.00574364
-0.00587918
-0.00587916
-0.0058905
-0.00591318
-0.00607143
-0.0059245
-0.00592453
-0.00606005
-0.00606004
-0.00591313
-0.00607142
-0.00592448
-0.00592451
-0.00606007
-0.00606008
-0.00592447
-0.00606009
-0.00606007
-0.00591318
-0.00607148
-0.00592449
-0.00606011
-0.00606015
-0.00607146
-0.00609408
-0.00625243
-0.00610544
-0.00610544
-0.00624106
-0.00624108
-0.00609409
-0.00625244
-0.00610541
-0.00610545
-0.00624106
-0.00624107
-0.00610544
-0.00624113
-0.00624111
-0.00609408
-0.00625246
-0.00610553
-0.00624113
-0.00624112
-0.00625245
-0.00627515
-0.00643346
-0.00628652
-0.00628655
-0.00642213
-0.00642216
-0.00627517
-0.00643344
-0.0062865
-0.0062865
-0.00642219
-0.00642219
-0.00628653
-0.00642218
-0.00642213
-0.00627511
-0.00643351
-0.00628651
-0.00642222
-0.00642218
-0.00643351
-0.00645624
-0.00661438
-0.00646765
-0.00646771
-0.00660361
-0.00660359
-0.00645631
-0.00661444
-0.00646762
-0.00646765
-0.00660323
-0.00660328
-0.00646764
-0.00660336
-0.00660338
-0.00645615
-0.00661486
-0.00646764
-0.00660338
-0.00660342
-0.00661484
-0.00664843
-0.00663748
-0.0066486
-0.00664866
-0.00664873
-0.00663741
-0.00664884
-0.00368041
-0.00375433
-0.00375304
-0.00369198
-0.00368084
-0.00374199
-0.00375364
-0.00368092
-0.00374191
-0.00368013
-0.00368042
-0.00375379
-0.00375412
-0.00375464
-0.00395172
-0.00387865
-0.0039519
-0.00387851
-0.0038785
-0.00395186
-0.0039522
-0.00387847
-0.00395213
-0.00387811
-0.00388983
-0.0038895
-0.00388984
-0.00403694
-0.00403696
-0.00403699
-0.00403695
-0.00395114
-0.00387868
-0.00388988
-0.00393924
-0.00395148
-0.00393919
-0.00387848
-0.00387847
-0.00395204
-0.00395056
-0.00388979
-0.00387894
-0.00393928
-0.00387908
-0.00393921
-0.00395116
-0.0038782
-0.00387845
-0.00395134
-0.00395179
-0.00395172
-0.0041467
-0.0040745
-0.00407443
-0.00414682
-0.00407445
-0.00414678
-0.00414715
-0.00407431
-0.00407394
-0.00414702
-0.00408575
-0.00408573
-0.00408569
-0.00423074
-0.00423073
-0.00423069
-0.00423069
-0.00414627
-0.00407458
-0.00408584
-0.00413457
-0.00407445
-0.00414654
-0.00413448
-0.00407433
-0.00414697
-0.00414569
-0.00408583
-0.00407487
-0.00413455
-0.00407502
-0.00413444
-0.00414621
-0.00407422
-0.00407439
-0.00414654
-0.00414688
-0.00414672
-0.00433851
-0.00426756
-0.00426748
-0.00433865
-0.00426753
-0.00433862
-0.00433892
-0.0042673
-0.004267
-0.0043388
-0.00427874
-0.00427871
-0.00427873
-0.00442085
-0.00442083
-0.00442091
-0.00442099
-0.00433817
-0.00426772
-0.00427884
-0.00432664
-0.00426756
-0.00433835
-0.00432653
-0.00426736
-0.00433872
-0.00433754
-0.00427884
-0.00426797
-0.00432668
-0.00426823
-0.00432657
-0.00433806
-0.00426732
-0.00426748
-0.0043385
-0.00433872
-0.00433855
-0.00452663
-0.004457
-0.00445698
-0.00452671
-0.00445705
-0.00452674
-0.00452701
-0.00445679
-0.00445648
-0.0045269
-0.00446795
-0.00446799
-0.0044681
-0.00460753
-0.00460761
-0.00460757
-0.00460759
-0.00452632
-0.00445712
-0.00446816
-0.00451514
-0.00445691
-0.00452649
-0.00451499
-0.00445685
-0.0045269
-0.00452579
-0.00446817
-0.00445752
-0.00451517
-0.00445767
-0.00451499
-0.00452624
-0.00445676
-0.00445695
-0.0045267
-0.00452673
-0.00452669
-0.00471147
-0.00464298
-0.00464294
-0.00471158
-0.00464293
-0.00471156
-0.0047119
-0.00464271
-0.00464244
-0.00471172
-0.00465395
-0.00465387
-0.00465389
-0.00479136
-0.00479145
-0.00479134
-0.00479133
-0.00471117
-0.00464303
-0.00465408
-0.00470025
-0.00464295
-0.00471119
-0.00470014
-0.00464279
-0.00471164
-0.00471063
-0.00465403
-0.00464342
-0.00470022
-0.00464362
-0.00470005
-0.00471106
-0.00464276
-0.00464295
-0.00471171
-0.00471166
-0.00471151
-0.0048941
-0.00482623
-0.00482619
-0.00489417
-0.00482618
-0.00489409
-0.00489459
-0.00482604
-0.00482581
-0.00489438
-0.00483721
-0.00483715
-0.00483712
-0.00497348
-0.00497344
-0.00497356
-0.0049735
-0.0048939
-0.00482637
-0.00483722
-0.00488276
-0.00482623
-0.00489408
-0.00488272
-0.00482607
-0.00489428
-0.00489325
-0.00483717
-0.00482662
-0.00488277
-0.00482689
-0.00488273
-0.00489363
-0.00482607
-0.00482625
-0.00489417
-0.0048944
-0.00489415
-0.00507573
-0.00500812
-0.00500807
-0.00507576
-0.00500809
-0.00507578
-0.00507619
-0.00500792
-0.00500765
-0.00507592
-0.00501897
-0.00501906
-0.00501905
-0.00515498
-0.00515487
-0.00515488
-0.00515494
-0.00507554
-0.00500839
-0.00501888
-0.00506435
-0.00500827
-0.00507572
-0.00506429
-0.00500792
-0.00507589
-0.00507481
-0.00501898
-0.00500854
-0.00506439
-0.00500869
-0.00506441
-0.00507525
-0.00500805
-0.00500805
-0.00507574
-0.00507602
-0.00507567
-0.00525684
-0.00518937
-0.00518936
-0.0052569
-0.00518937
-0.00525685
-0.00525732
-0.00518917
-0.00518895
-0.00525711
-0.00520034
-0.00520032
-0.00520038
-0.00533601
-0.00533599
-0.00533597
-0.00533606
-0.0052568
-0.00518959
-0.00520025
-0.00524573
-0.0051895
-0.0052569
-0.00524562
-0.00518926
-0.00525711
-0.00525614
-0.00520035
-0.00518983
-0.00524574
-0.00519008
-0.00524565
-0.00525655
-0.00518927
-0.00518938
-0.00525707
-0.0052571
-0.00525692
-0.00543794
-0.00537042
-0.00537042
-0.00543799
-0.00537044
-0.00543799
-0.00543843
-0.00537029
-0.00537007
-0.0054382
-0.00538144
-0.00538143
-0.0053815
-0.00551708
-0.0055171
-0.0055171
-0.00551708
-0.00543785
-0.00537059
-0.00538147
-0.00542679
-0.0053705
-0.00543783
-0.00542677
-0.00537037
-0.00543815
-0.0054372
-0.00538146
-0.00537101
-0.0054269
-0.00537123
-0.00542677
-0.00543756
-0.00537034
-0.00537052
-0.00543819
-0.00543816
-0.00543804
-0.00561896
-0.00555149
-0.00555146
-0.00561903
-0.00555144
-0.00561894
-0.00561947
-0.0055513
-0.00555107
-0.00561923
-0.00556251
-0.0055625
-0.00556248
-0.00569808
-0.0056981
-0.00569813
-0.00569809
-0.00561882
-0.00555161
-0.00556249
-0.00560787
-0.00555162
-0.00561887
-0.00560778
-0.00555141
-0.00561917
-0.00561822
-0.00556251
-0.005552
-0.00560785
-0.00555226
-0.00560781
-0.0056186
-0.00555136
-0.00555155
-0.00561923
-0.00561921
-0.00561904
-0.00579983
-0.00573249
-0.00573249
-0.00579992
-0.00573243
-0.00579989
-0.00580037
-0.00573231
-0.00573204
-0.00580014
-0.00574348
-0.00574349
-0.00574351
-0.00587908
-0.00587915
-0.00587904
-0.00587908
-0.00579977
-0.00573253
-0.00574352
-0.00578879
-0.00573249
-0.00579977
-0.00578874
-0.00573234
-0.0058001
-0.00579917
-0.0057435
-0.00573295
-0.0057888
-0.00573319
-0.00578878
-0.00579954
-0.00573229
-0.00573247
-0.0058001
-0.00580009
-0.00579996
-0.00598081
-0.00591337
-0.00591337
-0.00598081
-0.00591335
-0.00598079
-0.00598124
-0.00591322
-0.00591302
-0.00598103
-0.00592452
-0.00592447
-0.00592447
-0.00606
-0.00606001
-0.00606003
-0.00606003
-0.00598066
-0.00591346
-0.00592444
-0.00596973
-0.00591343
-0.0059807
-0.00596969
-0.00591325
-0.00598102
-0.00598008
-0.00592442
-0.00591381
-0.00596975
-0.00591409
-0.00596966
-0.00598037
-0.00591322
-0.00591336
-0.00598104
-0.00598097
-0.00598081
-0.00616166
-0.00609434
-0.00609435
-0.0061617
-0.00609432
-0.00616175
-0.00616217
-0.00609409
-0.00609388
-0.00616191
-0.00610542
-0.00610542
-0.00610545
-0.00624102
-0.00624102
-0.006241
-0.00624106
-0.00616153
-0.00609449
-0.00610541
-0.00615066
-0.00609438
-0.0061616
-0.00615062
-0.00609411
-0.00616187
-0.00616096
-0.00610539
-0.00609474
-0.00615066
-0.00609497
-0.00615062
-0.00616133
-0.0060941
-0.00609423
-0.00616198
-0.00616193
-0.00616174
-0.00634266
-0.00627527
-0.00627532
-0.00634265
-0.00627536
-0.00634266
-0.00634319
-0.00627512
-0.00627483
-0.00634293
-0.00628645
-0.00628645
-0.00628646
-0.00642212
-0.0064221
-0.00642209
-0.00642209
-0.00634262
-0.00627542
-0.00628641
-0.00633173
-0.00627542
-0.00634272
-0.00633163
-0.00627514
-0.0063429
-0.00634201
-0.00628644
-0.00627582
-0.00633172
-0.006276
-0.00633168
-0.00634234
-0.00627511
-0.00627527
-0.00634298
-0.00634293
-0.00634277
-0.00652362
-0.00645644
-0.00645637
-0.00652342
-0.00645643
-0.00652356
-0.00652422
-0.00645619
-0.00645599
-0.00652404
-0.00646763
-0.00646764
-0.00646766
-0.00660335
-0.00660327
-0.00660318
-0.0066033
-0.00652359
-0.00645655
-0.0064676
-0.00651282
-0.00645651
-0.00652367
-0.00651276
-0.00645624
-0.00652397
-0.00652311
-0.00646754
-0.00645689
-0.00651286
-0.0064572
-0.00651284
-0.00652343
-0.00645619
-0.00645639
-0.006524
-0.00652403
-0.00652385
-0.00663763
-0.00663714
-0.00663684
-0.00664882
-0.00664883
-0.00664894
-0.00663741
-0.0066486
-0.00663752
-0.00663733
-0.00664883
-0.00663779
-0.00663833
-0.00663722
-0.00663743
-0.00368046
-0.00368057
-0.00375382
-0.0037541
-0.00375426
-0.0036805
-0.00375439
-0.00385368
-0.00377945
-0.00377979
-0.00385349
-0.00385326
-0.0037796
-0.00377951
-0.00385344
-0.00377963
-0.00375302
-0.00369194
-0.00368095
-0.00374163
-0.00375367
-0.00368089
-0.0037417
-0.00375417
-0.00368045
-0.00375434
-0.0036803
-0.00375422
-0.00368039
-0.00375435
-0.00368033
-0.00378032
-0.00379142
-0.00384062
-0.00385258
-0.00378015
-0.00385198
-0.00379119
-0.00378028
-0.00379121
-0.00384057
-0.00385271
-0.00378002
-0.00385199
-0.00379117
-0.00377965
-0.00385339
-0.00377957
-0.00385318
-0.00377964
-0.0038534
-0.00377962
-0.00385315
-0.0036803
-0.00375467
-0.00368041
-0.00375433
-0.00377875
-0.00385334
-0.00385335
-0.00377938
-0.00377965
-0.00385345
-0.00377961
-0.00385343
-0.00377958
-0.00387864
-0.00395193
-0.00387848
-0.00395208
-0.00387856
-0.0038784
-0.00395137
-0.00395183
-0.00395202
-0.00404974
-0.00397687
-0.00404987
-0.00397676
-0.0039761
-0.00404964
-0.0040498
-0.0039768
-0.00397669
-0.0039517
-0.0038785
-0.00395183
-0.00387843
-0.00395064
-0.00387905
-0.0038899
-0.00393922
-0.00395131
-0.00393929
-0.00387909
-0.00395062
-0.00387895
-0.00389002
-0.00393929
-0.00395126
-0.00393933
-0.00387906
-0.00397674
-0.00404971
-0.00397686
-0.00404958
-0.00397674
-0.00404968
-0.00397677
-0.00404958
-0.00397744
-0.00398832
-0.00404907
-0.00403713
-0.00397731
-0.00398831
-0.00404851
-0.0039774
-0.0039883
-0.00404905
-0.00403711
-0.00397726
-0.00398831
-0.00404855
-0.00387844
-0.00387827
-0.00395136
-0.00395177
-0.00395194
-0.0038783
-0.00395197
-0.0040497
-0.00397679
-0.00397603
-0.00404959
-0.0040497
-0.00397674
-0.0039766
-0.0040498
-0.00397666
-0.00395125
-0.00387873
-0.0038895
-0.00393917
-0.00395162
-0.0039392
-0.00387854
-0.00395222
-0.00387847
-0.00395212
-0.00387811
-0.00395123
-0.0038895
-0.00387876
-0.00393912
-0.00393922
-0.00395159
-0.00387854
-0.00397637
-0.0040499
-0.00397671
-0.00404998
-0.00397681
-0.00398831
-0.00404942
-0.00403707
-0.00397704
-0.0039883
-0.00404915
-0.00397637
-0.00404989
-0.00397666
-0.00404999
-0.00397679
-0.00398823
-0.00403712
-0.00404937
-0.00398834
-0.00397696
-0.00404912
-0.00395206
-0.00387823
-0.00395198
-0.00387794
-0.00395116
-0.00388991
-0.00387863
-0.00393922
-0.00393922
-0.00395141
-0.0038785
-0.00395204
-0.00387823
-0.00395193
-0.00387794
-0.0039767
-0.00398829
-0.0040493
-0.00403704
-0.00397689
-0.00398823
-0.00404906
-0.0039762
-0.00404984
-0.00397657
-0.00404992
-0.00397673
-0.00398828
-0.00403706
-0.00404928
-0.00398824
-0.00397681
-0.00404905
-0.00397619
-0.00404981
-0.00397648
-0.00404994
-0.00387835
-0.00387844
-0.00395131
-0.00395194
-0.0039517
-0.00387851
-0.00395179
-0.00404985
-0.0039767
-0.003976
-0.00404976
-0.00404952
-0.00397659
-0.00397665
-0.00404965
-0.00397672
-0.00395059
-0.0038899
-0.00387894
-0.00393922
-0.00387907
-0.00393918
-0.00395119
-0.00395161
-0.00387851
-0.0038784
-0.0039518
-0.00395168
-0.00387851
-0.00387838
-0.00395184
-0.00397733
-0.00398835
-0.00403707
-0.00404899
-0.00398827
-0.00397717
-0.00404846
-0.00397737
-0.00398823
-0.00403705
-0.00404898
-0.0039882
-0.00397716
-0.00404845
-0.00397665
-0.00404964
-0.00397674
-0.00404953
-0.00397671
-0.00404963
-0.00397679
-0.00404951
-0.00387827
-0.00395187
-0.00387851
-0.00395184
-0.00397602
-0.00404969
-0.00404955
-0.00397645
-0.0039767
-0.00404976
-0.00397655
-0.00404967
-0.00397678
-0.00407449
-0.00414683
-0.00407435
-0.00414697
-0.00407444
-0.00407428
-0.00414652
-0.00414675
-0.00414689
-0.00424321
-0.00417138
-0.0042433
-0.00417124
-0.0041708
-0.00424312
-0.00424325
-0.0041713
-0.00417115
-0.00414667
-0.00407445
-0.0040744
-0.00414679
-0.00414574
-0.0040749
-0.00408591
-0.00413462
-0.00407506
-0.00414626
-0.00413452
-0.0041457
-0.00407488
-0.0040859
-0.00413458
-0.00407508
-0.00414615
-0.0041345
-0.00417135
-0.0042432
-0.00417137
-0.00424306
-0.00417134
-0.0042432
-0.00417137
-0.00424309
-0.00417202
-0.00418288
-0.0042426
-0.0042309
-0.0041718
-0.00418281
-0.00424209
-0.004172
-0.00418289
-0.00424261
-0.00423092
-0.00417176
-0.00418278
-0.00424209
-0.0040744
-0.0040742
-0.00414652
-0.00414655
-0.00414705
-0.00407429
-0.00414699
-0.00424322
-0.00417139
-0.00417082
-0.00424313
-0.00424324
-0.0041713
-0.00417113
-0.0042433
-0.00417124
-0.00414631
-0.00407465
-0.00408584
-0.00413459
-0.00407445
-0.00414654
-0.00413445
-0.00414716
-0.00407428
-0.00407393
-0.00414701
-0.00414632
-0.00408587
-0.00407458
-0.00413447
-0.00407446
-0.00413446
-0.00414656
-0.00417089
-0.00424334
-0.00417119
-0.00424349
-0.00417144
-0.00418289
-0.00424287
-0.00423087
-0.0041715
-0.00418274
-0.00424268
-0.0041709
-0.00424332
-0.00417118
-0.0042435
-0.00417143
-0.00418278
-0.00423086
-0.00424286
-0.00418273
-0.0041715
-0.0042427
-0.00414712
-0.00407424
-0.00407383
-0.004147
-0.00414626
-0.00408588
-0.00407454
-0.0041345
-0.00407438
-0.00413449
-0.00414655
-0.0041471
-0.00407422
-0.00407388
-0.00414699
-0.00417141
-0.00418288
-0.00424293
-0.00423087
-0.0041715
-0.00418278
-0.00424275
-0.00417089
-0.00424336
-0.00417118
-0.00424355
-0.00417137
-0.00418281
-0.00423092
-0.0042429
-0.0041828
-0.00417152
-0.00424273
-0.00417089
-0.00424333
-0.00417119
-0.00424351
-0.00407424
-0.00407435
-0.00414646
-0.00414692
-0.00414675
-0.00407442
-0.00414682
-0.00424329
-0.00417125
-0.00417077
-0.00424324
-0.00424308
-0.00417118
-0.00417133
-0.00424318
-0.00417138
-0.0041457
-0.00408589
-0.00407486
-0.00413456
-0.00407498
-0.00413446
-0.00414625
-0.00414668
-0.00407443
-0.00407434
-0.00414679
-0.00414661
-0.00407442
-0.00407432
-0.00414681
-0.00417203
-0.00418287
-0.00423086
-0.0042426
-0.00418275
-0.0041718
-0.00424214
-0.00417203
-0.00418286
-0.00423084
-0.00424261
-0.0041827
-0.00417181
-0.00424214
-0.00417136
-0.00424315
-0.00417138
-0.00424308
-0.00417129
-0.00424319
-0.00417138
-0.0042431
-0.00407427
-0.00414694
-0.00407443
-0.00414681
-0.00417085
-0.00424325
-0.00424307
-0.00417117
-0.00417132
-0.00424331
-0.00417126
-0.00424319
-0.00417138
-0.00426755
-0.00433867
-0.00426736
-0.00433876
-0.00426751
-0.00426731
-0.00433849
-0.00433862
-0.00433871
-0.00443313
-0.00436275
-0.00443324
-0.00436257
-0.00436224
-0.00443309
-0.0044332
-0.00436269
-0.00436249
-0.00433852
-0.00426753
-0.00426744
-0.00433862
-0.00433755
-0.00426799
-0.0042789
-0.00432665
-0.00426815
-0.00433812
-0.00432657
-0.00433757
-0.00426798
-0.00427893
-0.00432663
-0.00426814
-0.00433807
-0.00432655
-0.00436271
-0.00443313
-0.00436275
-0.00443303
-0.00436269
-0.00443317
-0.0043627
-0.00443305
-0.00436334
-0.00437399
-0.0044326
-0.00442106
-0.00436316
-0.00437388
-0.00443214
-0.00436334
-0.00437397
-0.00443263
-0.00442105
-0.0043631
-0.00437384
-0.00443215
-0.00426749
-0.00426732
-0.0043385
-0.00433855
-0.00433867
-0.00426737
-0.00433872
-0.00443318
-0.0043627
-0.00436228
-0.00443314
-0.00443315
-0.00436262
-0.00436245
-0.00443317
-0.00436253
-0.00433814
-0.00426765
-0.00427887
-0.00432664
-0.00426748
-0.00433837
-0.00432657
-0.00433892
-0.00426732
-0.00426696
-0.00433877
-0.00433814
-0.0042789
-0.00426765
-0.00432663
-0.00426745
-0.00432656
-0.00433836
-0.00436222
-0.00443328
-0.00436251
-0.00443347
-0.00436271
-0.00437398
-0.00443285
-0.00442111
-0.0043628
-0.0043739
-0.00443269
-0.00436218
-0.00443328
-0.00436246
-0.00443347
-0.00436269
-0.00437398
-0.00442112
-0.00443285
-0.00437391
-0.00436276
-0.0044327
-0.00433896
-0.00426731
-0.004267
-0.00433876
-0.00433822
-0.00427891
-0.0042677
-0.00432667
-0.00426755
-0.00432655
-0.0043384
-0.00433898
-0.00426732
-0.00426698
-0.0043388
-0.00436273
-0.00437405
-0.0044328
-0.00442112
-0.00436282
-0.00437393
-0.00443267
-0.0043622
-0.00443319
-0.00436247
-0.00443338
-0.00436278
-0.00437403
-0.00442112
-0.00443283
-0.00437389
-0.00436282
-0.00443274
-0.00436223
-0.0044332
-0.0043625
-0.00443339
-0.00426731
-0.00426745
-0.00433852
-0.00433867
-0.00433853
-0.00426749
-0.00433859
-0.00443325
-0.00436252
-0.00436226
-0.00443321
-0.00443306
-0.00436245
-0.00436262
-0.00443311
-0.00436267
-0.00433757
-0.00427889
-0.00426797
-0.0043267
-0.0042682
-0.00432657
-0.00433811
-0.00433848
-0.0042675
-0.00426745
-0.00433859
-0.00433853
-0.00426753
-0.00426745
-0.00433861
-0.00436334
-0.00437409
-0.00442112
-0.00443263
-0.00437396
-0.00436312
-0.00443217
-0.00436337
-0.00437404
-0.00442113
-0.0044326
-0.00437391
-0.00436315
-0.00443217
-0.00436267
-0.00443309
-0.00436268
-0.00443305
-0.00436266
-0.0044331
-0.00436273
-0.00443302
-0.00426738
-0.00433874
-0.00426752
-0.00433861
-0.00436229
-0.00443317
-0.00443306
-0.00436249
-0.00436268
-0.00443319
-0.00436256
-0.00443312
-0.00436272
-0.00445698
-0.0045267
-0.00445684
-0.00452685
-0.00445694
-0.0044568
-0.00452675
-0.00452666
-0.00452682
-0.00461952
-0.00455033
-0.00461958
-0.0045502
-0.00455003
-0.00461949
-0.00461958
-0.00455028
-0.00455013
-0.00452664
-0.00445706
-0.00445694
-0.00452676
-0.00452575
-0.00445745
-0.00446816
-0.00451505
-0.00445762
-0.00452623
-0.00451494
-0.00452573
-0.00445748
-0.00446816
-0.00451511
-0.00445762
-0.00452619
-0.00451495
-0.00455036
-0.00461951
-0.00455035
-0.00461944
-0.00455034
-0.0046195
-0.00455041
-0.00461946
-0.00455097
-0.00456152
-0.00461901
-0.00460774
-0.00455076
-0.00456139
-0.00461858
-0.00455096
-0.00456154
-0.00461899
-0.00460777
-0.00455079
-0.00456138
-0.00461856
-0.00445703
-0.00445675
-0.00452676
-0.00452656
-0.00452697
-0.00445676
-0.00452682
-0.00461952
-0.00455042
-0.00455004
-0.00461948
-0.00461952
-0.00455038
-0.00455011
-0.00461948
-0.00455014
-0.00452634
-0.00445711
-0.00446814
-0.00451503
-0.00445701
-0.0045265
-0.00451493
-0.00452706
-0.00445679
-0.00445644
-0.00452695
-0.00452631
-0.00446819
-0.0044571
-0.00451506
-0.00445698
-0.00451495
-0.00452655
-0.00454981
-0.00461962
-0.00455015
-0.00461982
-0.00455037
-0.00456149
-0.00461925
-0.00460774
-0.00455044
-0.00456137
-0.00461909
-0.00454983
-0.00461968
-0.00455017
-0.00461984
-0.00455037
-0.00456154
-0.00460777
-0.00461926
-0.00456139
-0.00455044
-0.00461913
-0.00452703
-0.00445666
-0.00445635
-0.00452684
-0.0045263
-0.00446823
-0.00445708
-0.00451514
-0.00445699
-0.00451503
-0.00452644
-0.00452704
-0.00445669
-0.00445638
-0.00452677
-0.00455038
-0.00456164
-0.00461921
-0.00460784
-0.00455043
-0.00456148
-0.00461914
-0.00454983
-0.0046195
-0.00455009
-0.00461976
-0.00455036
-0.00456156
-0.00460782
-0.00461923
-0.00456147
-0.00455037
-0.00461917
-0.00454984
-0.00461956
-0.00455003
-0.00461978
-0.00445682
-0.00445698
-0.00452679
-0.00452688
-0.00452669
-0.00445699
-0.0045267
-0.00461964
-0.00455024
-0.00455002
-0.00461963
-0.00461941
-0.00455017
-0.00455032
-0.00461945
-0.00455034
-0.0045258
-0.00446824
-0.00445742
-0.00451511
-0.00445763
-0.00451498
-0.00452624
-0.00452664
-0.00445698
-0.00445694
-0.0045267
-0.00452665
-0.00445697
-0.00445689
-0.00452671
-0.00455109
-0.00456163
-0.0046078
-0.00461898
-0.00456146
-0.00455083
-0.00461853
-0.00455107
-0.00456154
-0.00460779
-0.00461898
-0.00456141
-0.0045508
-0.00461853
-0.00455035
-0.00461947
-0.00455036
-0.00461943
-0.00455037
-0.00461947
-0.00455035
-0.00461941
-0.00445675
-0.00452672
-0.00445697
-0.00452671
-0.00454997
-0.00461956
-0.00461946
-0.00455006
-0.00455035
-0.00461953
-0.0045501
-0.00461948
-0.00455035
-0.00464297
-0.00471158
-0.00464277
-0.00471165
-0.00464296
-0.00464274
-0.00471166
-0.00471157
-0.00471166
-0.00480305
-0.00473483
-0.00480318
-0.00473464
-0.00473454
-0.00480302
-0.00480319
-0.00473478
-0.00473459
-0.00471147
-0.00464294
-0.00464291
-0.00471155
-0.00471064
-0.00464338
-0.00465402
-0.00470013
-0.00464361
-0.00471109
-0.00470005
-0.00471064
-0.00464338
-0.00465409
-0.00470009
-0.00464359
-0.00471109
-0.00470005
-0.00473481
-0.00480304
-0.00473485
-0.00480298
-0.00473481
-0.00480301
-0.0047348
-0.00480299
-0.00473552
-0.0047459
-0.00480256
-0.0047915
-0.00473522
-0.00474578
-0.00480212
-0.0047355
-0.00474585
-0.00480253
-0.00479152
-0.0047352
-0.00474578
-0.00480211
-0.00464292
-0.00464268
-0.00471165
-0.00471153
-0.00471157
-0.00464266
-0.00471154
-0.00480301
-0.0047348
-0.00473452
-0.004803
-0.00480312
-0.00473476
-0.00473453
-0.00480313
-0.00473455
-0.00471122
-0.00464303
-0.00465401
-0.00470012
-0.00464293
-0.00471135
-0.00470002
-0.0047119
-0.00464273
-0.00464239
-0.00471169
-0.00471124
-0.00465404
-0.00464305
-0.00470017
-0.00464295
-0.00470004
-0.00471136
-0.00473433
-0.00480324
-0.00473461
-0.00480346
-0.00473491
-0.0047459
-0.00480287
-0.00479144
-0.00473489
-0.00474574
-0.00480277
-0.00473432
-0.00480323
-0.00473457
-0.00480348
-0.00473488
-0.00474591
-0.00479146
-0.0048029
-0.00474576
-0.00473487
-0.00480279
-0.00471182
-0.0046426
-0.00464233
-0.00471158
-0.00471119
-0.0046541
-0.00464305
-0.00470014
-0.00464295
-0.00470013
-0.00471134
-0.00471184
-0.00464267
-0.00464233
-0.00471167
-0.00473484
-0.004746
-0.00480276
-0.00479159
-0.0047348
-0.00474591
-0.00480264
-0.00473427