/*--------------------------------*- C++ -*----------------------------------*\
| =========                 |                                                 |
| \\      /  F ield         | OpenFOAM: The Open Source CFD Toolbox           |
|  \\    /   O peration     | Version:  2206                                  |
|   \\  /    A nd           | Website:  www.openfoam.com                      |
|    \\/     M anipulation  |                                                 |
\*---------------------------------------------------------------------------*/
FoamFile
{
    version     2.0;
    format      ascii;
    arch        "LSB;label=32;scalar=64";
    class       surfaceScalarField;
    location    "100";
    object      phi;
}
// * * * * * * * * * * * * * * * * * * * * * * * * * * * * * * * * * * * * * //

dimensions      [0 3 -1 0 0 0 0];

oriented        oriented;

internalField   nonuniform List<scalar> 
196491
(
-2.8978e-12
-7.82371e-13
-6.55251e-09
-3.47648e-12
-2.258e-12
-1.30265e-12
-5.40083e-09
-4.57766e-12
-1.08698e-12
-1.31017e-08
-7.04419e-12
-2.01264e-08
-1.18582e-11
-1.48972e-12
-3.97631e-13
-9.59335e-09
4.70187e-12
1.46441e-11
-1.53418e-13
-1.95937e-08
-1.85818e-08
-2.68092e-13
-3.87471e-13
-1.16449e-08
-3.53211e-12
-2.39666e-12
-1.27176e-12
-5.40039e-09
-4.36647e-12
2.78552e-12
-1.0756e-12
-1.31063e-08
-6.91021e-12
-2.01242e-08
-1.25593e-12
-1.2316e-11
-2.07034e-13
-9.59212e-09
1.48193e-11
4.47217e-12
-1.95911e-08
-3.28298e-13
-1.16438e-08
-1.85771e-08
-7.56355e-13
-6.55565e-09
-4.17975e-13
-2.42181e-13
-4.27572e-09
-1.68939e-13
-9.75446e-14
-2.29503e-09
-6.7394e-14
-3.19006e-14
-1.127e-09
-4.44183e-14
-2.96649e-15
-4.6621e-10
-3.35244e-15
-1.10867e-10
-7.53677e-13
3.90509e-13
-3.75067e-13
-4.27732e-09
-3.48448e-13
2.11319e-13
-2.08223e-13
-2.29402e-09
-1.39216e-13
1.06306e-13
-1.03164e-13
-1.12582e-09
-5.08435e-14
4.6799e-14
-4.1168e-14
-4.65525e-10
1.09002e-14
-1.26373e-14
-1.10676e-10
-6.24076e-13
-2.28762e-09
-3.00346e-13
-1.23028e-09
-1.20231e-13
-6.0388e-10
-3.07075e-14
-2.49359e-10
-5.90784e-11
-6.27488e-13
1.99912e-13
-3.34041e-13
-2.28867e-09
-3.24349e-13
8.84374e-14
-1.64343e-13
-1.23089e-09
-1.50858e-13
4.01011e-14
-6.9076e-14
-6.04137e-10
-5.34484e-14
1.56201e-14
-2.16872e-14
-2.49487e-10
2.77423e-15
-8.07749e-15
-5.90964e-11
-3.88936e-13
-4.27796e-09
-1.57002e-13
-2.29627e-09
-5.23169e-14
-1.12764e-09
-1.93434e-14
-4.66535e-10
-1.1094e-10
-7.48701e-13
-4.0069e-13
-4.27739e-09
-3.56618e-13
-2.33272e-13
-2.29414e-09
-1.37205e-13
-1.26846e-13
-1.12579e-09
-3.30989e-14
-5.97148e-14
-4.65573e-10
-1.35093e-14
-1.10659e-10
-2.22689e-13
-2.38871e-13
-2.61802e-09
-1.00575e-13
-1.36089e-13
-1.40743e-09
-3.77656e-14
-6.88112e-14
-6.91111e-10
-1.2103e-14
-2.84159e-14
-2.85624e-10
-7.98136e-15
-6.77792e-11
-2.30016e-13
-9.50967e-14
-2.85808e-09
-1.11499e-13
-5.76068e-14
-1.53578e-09
-4.66691e-14
-2.86368e-14
-7.54406e-10
-1.87344e-14
-1.04674e-14
-3.1202e-10
-4.33194e-15
-7.41499e-11
-1.04425e-13
-1.42643e-13
-2.61793e-09
-4.03247e-14
-7.6846e-14
-1.40735e-09
-1.57538e-14
-3.66113e-14
-6.91024e-10
-1.09384e-14
-1.4029e-14
-2.856e-10
-4.34153e-15
-6.77743e-11
-1.81551e-13
-2.85791e-09
-8.81378e-14
-1.5357e-09
-3.88743e-14
-7.5436e-10
-1.47012e-14
-3.11998e-10
-7.41443e-11
-2.83489e-11
-9.61239e-12
-3.81534e-12
-6.59259e-09
-4.60499e-12
-2.82014e-12
6.56089e-09
-8.59587e-13
-6.55261e-09
3.583e-11
2.92809e-11
2.74852e-08
4.33958e-11
4.33554e-11
-2.76371e-08
-5.25148e-11
1.77492e-11
-1.18149e-10
2.14738e-08
-2.13492e-08
-1.03887e-11
5.13687e-12
-2.24727e-11
2.1083e-08
-2.10598e-08
-7.87781e-11
-3.02699e-12
-1.31824e-08
-1.04511e-09
3.13198e-11
1.01995e-10
-1.94372e-11
5.1688e-10
3.44609e-10
1.09303e-10
4.47211e-10
-1.16901e-07
-6.82409e-11
-1.97499e-10
2.10605e-08
-2.09261e-08
-4.92434e-11
-1.46498e-14
4.70197e-12
1.45559e-11
1.9624e-08
-1.9594e-08
-1.25363e-11
-4.77118e-12
1.31177e-08
-1.27565e-12
-1.3102e-08
-1.31444e-13
1.09153e-11
-9.50002e-11
2.40366e-08
-2.40017e-08
-1.80033e-10
9.95957e-11
3.36713e-11
3.516e-11
-3.60909e-11
-6.35449e-11
5.9644e-11
-6.14288e-11
6.13592e-11
-1.14765e-07
-1.59601e-11
-3.02532e-11
2.08212e-08
-2.07979e-08
-3.64952e-11
9.34508e-11
-1.0179e-10
1.34005e-10
9.95987e-11
-1.34374e-10
-1.19453e-07
-4.92995e-11
1.45336e-11
4.45641e-12
1.96212e-08
-1.95909e-08
-1.28779e-11
2.52289e-12
-4.12114e-12
1.31226e-08
-1.27419e-12
-1.31068e-08
-9.49932e-11
1.02892e-11
2.40326e-08
-2.39973e-08
2.76033e-12
-8.15736e-11
-4.38261e-11
5.9846e-11
4.26179e-11
-6.17447e-11
8.21488e-11
1.35299e-11
-1.48939e-11
-1.15964e-07
-1.67459e-11
9.2669e-14
-8.33832e-11
1.33248e-10
8.27643e-11
-1.34204e-10
-1.20512e-07
1.01096e-11
-1.55883e-11
-3.04922e-11
2.08096e-08
-2.07865e-08
-5.20699e-12
6.56432e-09
-6.56739e-13
-6.55593e-09
2.76783e-08
9.41453e-11
-2.77335e-08
-1.39404e-10
1.88166e-11
-2.28886e-11
2.11382e-08
-2.11147e-08
4.3193e-12
5.3454e-12
2.09126e-12
9.32952e-13
-1.50069e-08
-3.67665e-12
-3.87824e-12
1.22548e-11
1.394e-11
-4.74398e-12
5.45361e-09
8.16687e-14
-1.88442e-12
-5.44706e-09
-3.25107e-12
5.42708e-09
-2.97434e-12
-7.05335e-13
-5.42015e-09
-1.18392e-11
-1.48653e-11
-1.49882e-08
1.39034e-12
1.14145e-12
1.86619e-12
1.20646e-12
-1.96107e-08
-7.67073e-12
1.79974e-11
1.97407e-11
-4.01896e-11
1.27692e-08
-1.64662e-12
-1.27094e-08
4.63378e-11
2.35775e-08
-1.48242e-10
-1.40501e-10
-2.34533e-08
-1.42862e-12
-3.45273e-11
-4.50787e-11
-2.01222e-11
-1.95963e-08
1.40672e-12
3.41544e-11
-1.25706e-11
-1.86171e-08
-9.95303e-12
2.32161e-11
1.81162e-11
-9.44393e-12
1.24428e-08
-1.00845e-12
-1.24302e-08
2.37049e-11
2.25628e-08
-4.01735e-11
-3.39e-11
-2.25349e-08
-3.64382e-12
2.30401e-11
9.54895e-12
-1.75357e-11
-1.86002e-08
1.1971e-12
4.06525e-11
3.32765e-11
-9.60568e-09
1.30956e-11
1.04556e-12
-1.85172e-12
3.29418e-14
1.18499e-11
1.86082e-08
7.12028e-12
-4.03837e-11
-1.85821e-08
1.46824e-12
1.16595e-08
-1.64638e-13
-5.2712e-13
-1.16458e-08
-4.50572e-12
-1.5973e-11
3.09617e-14
5.07584e-11
2.30018e-12
-4.25876e-13
-9.59423e-09
-6.81069e-12
4.18631e-11
-1.22135e-13
-1.85528e-13
-5.40807e-09
4.17247e-12
1.22372e-12
3.2172e-12
2.01528e-08
-2.60418e-11
-2.01277e-08
3.28278e-12
1.38002e-11
1.0206e-12
-1.38132e-12
-5.40117e-09
2.71309e-11
-9.60445e-09
1.10337e-12
1.30402e-11
-1.81541e-12
-9.521e-15
1.21874e-12
1.16585e-08
-5.40916e-13
-1.16449e-08
1.18282e-11
1.86037e-08
6.91035e-12
-4.08637e-11
-1.85771e-08
-1.59373e-11
-4.5795e-12
5.06507e-11
2.19145e-12
-5.06228e-13
-9.59308e-09
-1.74551e-13
-6.9022e-12
4.19429e-11
-5.40755e-09
4.48166e-12
8.74505e-13
3.16351e-12
2.01505e-08
-2.62379e-11
-2.01246e-08
3.86249e-12
-2.50625e-12
1.40401e-11
9.18668e-13
-1.53041e-12
-5.40066e-09
2.77148e-11
5.41096e-12
7.7649e-13
-3.75382e-12
-3.96318e-12
1.35759e-11
1.29432e-11
-1.50168e-08
2.25605e-12
9.65149e-13
-5.42962e-09
6.50998e-13
1.41865e-12
-5.45728e-09
1.73954e-11
-1.02006e-11
2.40205e-11
-1.86174e-08
2.2931e-08
-3.199e-11
-4.77627e-11
-2.28911e-08
1.70331e-11
2.36025e-11
-3.74045e-12
1.01868e-11
3.1646e-11
4.8841e-11
1.00433e-12
-1.2435e-08
-7.39892e-12
3.12332e-11
9.84483e-12
-1.96281e-08
-2.63765e-12
1.18569e-11
-2.42568e-12
-2.14969e-08
1.05613e-11
1.49494e-12
-1.27906e-08
-2.32411e-13
-2.32015e-08
6.67187e-11
2.43893e-12
-6.69259e-09
5.14986e-13
2.56054e-10
-4.98372e-10
-1.23696e-07
-3.53977e-10
4.61077e-10
-1.33205e-07
4.14577e-10
-4.20179e-11
-1.27935e-07
3.97762e-10
-6.41073e-12
-1.39633e-07
-4.03659e-10
1.34674e-11
-1.23529e-07
4.36606e-12
-1.3329e-07
-1.58424e-11
-7.56616e-12
-1.27014e-07
-9.31374e-13
-1.38876e-07
4.0043e-13
-1.31018e-07
-1.5763e-11
4.00894e-10
-1.39903e-07
1.6241e-11
-1.17393e-11
-1.30994e-07
-1.62096e-11
-1.38998e-07
-2.26809e-11
-2.2735e-08
2.11424e-11
2.79781e-11
-4.45373e-11
-4.26455e-11
2.06689e-11
2.5969e-08
-2.59925e-08
2.76529e-11
2.47114e-08
-2.47007e-08
-2.27244e-08
1.12721e-10
-2.62512e-08
4.07137e-10
-3.01552e-10
2.31136e-08
-2.29548e-08
2.49753e-08
-1.64165e-10
-2.48046e-08
-2.03529e-10
-8.45378e-11
-2.61308e-08
-2.60507e-08
-7.59973e-11
1.79416e-11
2.58807e-11
-7.4343e-11
2.32697e-08
1.46471e-11
-2.32394e-08
1.94093e-11
2.699e-08
6.81641e-12
-2.69772e-08
-9.94915e-12
9.62373e-11
-1.18571e-13
-2.07429e-11
-2.59853e-08
-1.38301e-11
-7.20293e-12
-3.73825e-11
-2.59463e-08
-5.16034e-11
-5.07535e-11
2.28297e-08
-2.28063e-08
2.46159e-08
-3.8822e-11
-2.45816e-08
3.20453e-11
1.49234e-11
-2.59952e-08
-2.60466e-08
2.16875e-11
-7.49347e-11
-2.94272e-11
2.16629e-11
2.69863e-08
-2.69629e-08
-7.40582e-11
2.32589e-08
1.68762e-11
-2.32323e-08
9.60225e-11
-1.03849e-11
2.93725e-11
-2.60456e-08
-1.68877e-11
-2.59134e-08
-5.16552e-11
-4.05315e-11
-5.0094e-11
2.28163e-08
-2.27912e-08
-4.15107e-11
2.4619e-08
-2.45801e-08
1.51099e-11
3.23586e-11
-2.5933e-08
-9.63084e-12
6.21194e-11
-2.27353e-08
-9.27266e-11
-1.81248e-11
1.30565e-10
2.58757e-08
-2.58048e-08
-1.10287e-11
1.96372e-10
-2.50108e-08
-1.8925e-12
3.69137e-13
-4.55513e-13
-4.27587e-09
-8.14714e-13
2.53349e-13
-2.94429e-13
-2.29532e-09
-2.53576e-13
1.35166e-13
-1.86034e-13
-1.12716e-09
-5.56046e-15
5.17668e-14
-1.02673e-13
-4.66347e-10
2.16398e-14
-1.76009e-14
-1.10879e-10
-4.31731e-13
-2.67891e-13
4.27523e-09
3.23494e-13
-4.2757e-09
-1.93617e-13
-1.21168e-13
2.29471e-09
1.97366e-13
-2.295e-09
-8.62483e-14
-4.74251e-14
1.12686e-09
1.12914e-13
-1.127e-09
-5.00016e-14
-1.11568e-14
4.66172e-10
5.72173e-14
-4.66221e-10
-3.84556e-15
1.10831e-10
1.14568e-14
-1.10864e-10
-1.52366e-12
-2.28728e-09
-7.05896e-13
-1.2301e-09
-2.77458e-13
-6.03761e-10
-8.13992e-14
-2.49304e-10
-5.90642e-11
-7.54112e-13
2.28724e-09
-4.47592e-13
-2.28759e-09
-3.77859e-13
1.23004e-09
-2.52446e-13
-1.23029e-09
-1.52444e-13
6.03751e-10
-1.29881e-13
-6.03901e-10
-3.52131e-14
2.49297e-10
-5.71967e-14
-2.49374e-10
5.90534e-11
-1.37041e-14
-5.90808e-11
-7.31203e-13
1.79673e-13
2.28833e-09
-3.58054e-13
-2.28869e-09
-3.65434e-13
7.34569e-14
1.23068e-09
-1.93513e-13
-1.23092e-09
-1.55757e-13
2.60041e-14
6.04037e-10
-9.24256e-14
-6.04163e-10
-4.97307e-14
5.14081e-15
2.49446e-10
-3.68377e-14
-2.495e-10
8.72172e-16
5.90742e-11
-9.36459e-15
-5.91011e-11
-2.77504e-13
4.27751e-09
-4.27794e-09
2.17622e-13
-8.42027e-14
2.29595e-09
-2.29621e-09
1.25927e-13
-1.41141e-14
1.12746e-09
-1.1276e-09
6.67609e-14
-1.10905e-14
4.66458e-10
-4.6651e-10
3.03707e-14
1.10907e-10
-1.10939e-10
8.25907e-15
4.44296e-13
-3.73534e-14
5.63272e-15
1.65769e-13
-4.94815e-14
-1.84063e-14
5.89107e-14
-3.25741e-14
-3.03665e-14
3.86256e-14
-1.80292e-14
-2.60664e-14
-3.01036e-15
-3.54983e-15
2.70439e-14
-2.61793e-09
7.98341e-14
-1.53738e-13
1.07774e-14
-1.40737e-09
6.00421e-14
-9.18726e-14
2.65866e-15
-6.9108e-10
4.33992e-14
-5.44725e-14
-2.08703e-16
-2.85609e-10
2.60457e-14
-2.67157e-14
-6.77678e-11
4.93652e-15
-8.52601e-15
-3.30344e-13
2.53521e-13
2.85802e-09
-5.61328e-14
-2.8584e-09
-1.69479e-13
1.49831e-13
1.53576e-09
-2.89398e-14
-1.53603e-09
-7.31661e-14
7.77825e-14
7.54409e-10
-1.08014e-14
-7.5456e-10
-2.79065e-14
3.38163e-14
3.12028e-10
-2.18305e-15
-3.12092e-10
8.12255e-15
7.41412e-11
-9.58756e-16
-7.41671e-11
-2.62178e-13
4.27242e-13
-2.61827e-09
-1.30364e-13
2.50884e-13
-1.4076e-09
-5.30129e-14
1.31195e-13
-6.91216e-10
-1.61362e-14
5.62651e-14
-2.85671e-10
1.54255e-14
-6.77907e-11
-1.39833e-13
-3.26065e-14
-8.6359e-14
-1.62416e-14
-3.665e-14
-5.173e-15
-1.67128e-15
3.70719e-16
-1.56012e-15
5.46058e-13
5.8862e-14
2.55097e-13
2.09793e-14
1.00885e-13
1.31545e-14
2.66198e-14
9.58628e-15
8.31756e-16
-2.71723e-14
-2.61787e-09
1.05188e-13
-1.4604e-13
-3.28103e-14
-1.40732e-09
6.56523e-14
-9.34228e-14
-1.36648e-14
-6.91025e-10
3.65318e-14
-5.89095e-14
9.22653e-15
-2.85611e-10
1.64966e-14
-3.19038e-14
-6.77645e-11
5.00845e-15
-7.23777e-15
-3.44471e-13
1.55784e-13
2.85788e-09
-2.85829e-09
-1.79506e-13
8.98616e-14
1.53569e-09
-1.53598e-09
-7.58138e-14
4.76858e-14
7.54369e-10
-7.5453e-10
-2.51489e-14
2.10582e-14
3.12011e-10
-3.12082e-10
5.75603e-15
7.41356e-11
-7.41631e-11
-3.39446e-13
3.6447e-13
-2.61824e-09
-1.77284e-13
2.08865e-13
-1.40759e-09
-7.31735e-14
1.08031e-13
-6.91181e-10
-2.27886e-14
4.57724e-14
-2.85679e-10
1.32427e-14
-6.77918e-11
-1.25083e-13
-7.71586e-14
-2.95095e-14
5.4514e-15
5.15885e-13
-7.06128e-14
1.26785e-13
2.50731e-13
-2.49527e-14
5.85332e-14
1.07188e-13
-1.69912e-14
3.1437e-14
3.42767e-14
-1.09993e-14
1.63538e-14
-7.97219e-16
3.4874e-15
3.88627e-13
-6.358e-14
1.4054e-13
-4.41145e-14
4.39445e-14
-2.95036e-14
2.09847e-14
-1.58041e-14
-4.66011e-15
8.00859e-13
-2.27406e-13
3.20285e-13
-2.27258e-09
3.96648e-13
-1.51791e-13
1.79432e-13
-1.22167e-09
1.71318e-13
-9.13215e-14
9.5641e-14
-5.99594e-10
5.41227e-14
-4.55211e-14
4.14828e-14
-2.47584e-10
-1.1076e-14
1.28427e-14
-5.86716e-11
1.34477e-12
-4.2748e-09
-6.91664e-14
6.22407e-13
-2.29438e-09
-7.13191e-14
2.31448e-13
-1.12669e-09
-4.47354e-14
5.06874e-14
-4.66082e-10
-1.90594e-14
-1.10833e-10
-1.00135e-14
-9.59917e-13
5.2352e-13
-4.51908e-13
4.07861e-09
-4.07963e-09
-4.13793e-13
2.75502e-13
-2.75702e-13
2.18928e-09
-2.18991e-09
-1.08286e-13
1.25195e-13
-1.60284e-13
1.0746e-09
-1.07498e-09
3.21701e-14
3.96785e-14
-8.22024e-14
4.4434e-10
-4.44557e-10
1.74282e-14
-1.48535e-14
1.05583e-10
-1.05636e-10
-8.19765e-13
2.2719e-09
-2.27259e-09
-3.85037e-13
1.22143e-09
-1.22177e-09
-1.66284e-13
5.99411e-10
-5.99563e-10
-7.18369e-14
2.47569e-10
-2.47618e-10
5.86446e-11
-5.86809e-11
8.09219e-13
1.34287e-13
4.05991e-13
4.06171e-14
1.80192e-13
6.70687e-17
7.37928e-14
-1.4834e-14
7.36068e-15
-4.27493e-13
-2.20484e-13
4.07946e-09
-4.07992e-09
-2.22078e-13
-1.31927e-13
2.18948e-09
-2.18977e-09
-1.13507e-13
-5.87195e-14
1.07485e-09
-1.07499e-09
-6.47929e-14
-1.67588e-14
4.44473e-10
-4.44519e-10
-7.16563e-15
1.05582e-10
-1.0562e-10
-5.69863e-13
2.27137e-09
-2.27173e-09
-2.9426e-13
1.22105e-09
-1.22128e-09
-1.20413e-13
5.9931e-10
-5.9946e-10
-2.12546e-14
2.47483e-10
-2.47568e-10
5.86318e-11
-5.86577e-11
6.30087e-13
1.25327e-13
2.99499e-13
5.74762e-14
1.13176e-13
3.18562e-14
1.89929e-14
1.96135e-14
-5.72464e-16
7.11595e-13
5.37593e-14
3.51849e-13
6.05076e-14
1.4551e-13
5.47185e-14
3.55608e-14
3.66721e-14
6.55271e-15
6.4549e-13
2.72523e-13
9.65284e-14
4.04232e-14
6.72464e-13
-4.27687e-09
3.10231e-13
-2.29374e-09
1.2229e-13
-1.12568e-09
4.41488e-14
-4.65472e-10
-1.10641e-10
-8.01481e-13
-4.27746e-09
-3.89686e-13
-2.29413e-09
-1.54854e-13
-1.12589e-09
-4.72132e-14
-4.65567e-10
-1.10683e-10
4.49589e-13
-4.27694e-09
1.87716e-13
-2.29388e-09
7.1967e-14
-1.12567e-09
3.09473e-14
-4.65521e-10
-1.10629e-10
-8.64903e-13
-4.27761e-09
-4.07532e-13
-2.29433e-09
-1.56961e-13
-1.12592e-09
-5.05615e-14
-4.65631e-10
-1.10676e-10
5.25289e-13
-1.16202e-14
-2.27242e-09
2.54869e-13
-3.76562e-14
-1.2217e-09
1.07929e-13
-3.33588e-14
-5.99637e-10
3.35859e-14
-2.06304e-14
-2.4762e-10
-4.30889e-15
-5.86691e-11
5.67639e-13
-1.83012e-13
-4.08153e-09
2.59938e-13
-1.18079e-13
-2.19068e-09
1.03589e-13
-6.95649e-14
-1.07536e-09
3.57222e-14
-3.35231e-14
-4.44626e-10
-9.35509e-15
-1.05641e-10
8.38079e-13
-4.08109e-09
4.01755e-13
-2.19045e-09
1.61281e-13
-1.07524e-09
4.40396e-14
-4.44552e-10
-1.05638e-10
2.99076e-10
3.07786e-10
1.1533e-07
1.8628e-10
2.48592e-10
1.19758e-10
6.18345e-13
2.12298e-10
4.25994e-11
7.05026e-11
-1.16099e-07
-7.18423e-10
-4.27177e-12
4.45338e-11
-4.34439e-12
2.75769e-08
-2.77364e-08
1.2366e-10
-9.27361e-11
-9.71466e-11
9.82023e-11
1.61892e-11
1.22156e-07
-1.22081e-07
-5.49845e-11
9.33482e-11
3.20795e-11
1.14964e-07
1.8503e-11
1.93121e-11
-4.8518e-11
-8.24705e-11
3.77383e-11
-7.98889e-11
3.88781e-11
-1.14938e-07
-1.15691e-07
-5.26742e-12
5.99431e-10
-7.9971e-10
1.16009e-07
1.01935e-11
2.35418e-11
-3.50958e-11
-2.78868e-11
5.47486e-12
-3.60813e-11
-5.24178e-11
-2.77358e-08
1.01944e-10
1.19582e-11
3.23883e-11
1.37814e-11
2.75757e-08
-8.25397e-11
-8.04371e-11
-1.22371e-07
4.79766e-11
4.88186e-11
1.22437e-07
-1.15014e-07
-5.19377e-11
7.93625e-11
3.92607e-11
1.15027e-07
2.14044e-11
2.16443e-11
-4.34467e-11
-8.03262e-11
4.03217e-11
4.1862e-11
-8.04789e-11
-1.16154e-07
-5.69178e-11
8.33782e-11
3.80067e-11
1.16168e-07
8.85149e-12
2.70783e-11
-3.4457e-11
-2.57966e-11
1.04064e-11
-1.43304e-11
-5.00305e-11
-2.7721e-08
4.22618e-11
5.73297e-11
3.47523e-11
1.94737e-11
2.75672e-08
-6.76169e-11
-6.41925e-11
-1.22616e-07
4.02702e-11
4.12446e-11
1.22666e-07
-1.15055e-07
-4.76468e-11
6.46587e-11
3.26444e-11
1.15059e-07
2.47724e-11
2.46514e-11
-4.46405e-11
-7.60058e-11
4.53341e-11
4.71586e-11
-7.42651e-11
-1.16198e-07
-5.27903e-11
6.83962e-11
3.21276e-11
1.16201e-07
1.21475e-11
2.9696e-11
-3.24952e-11
-2.16221e-11
1.54611e-11
-8.925e-12
-4.58801e-11
-2.77115e-08
3.7579e-11
5.3119e-11
3.92935e-11
2.39167e-11
2.75576e-08
-4.97519e-11
-4.74725e-11
-1.22792e-07
3.16134e-11
3.25999e-11
1.22825e-07
-1.15059e-07
-4.34189e-11
4.5262e-11
2.4773e-11
1.15056e-07
2.81799e-11
2.79364e-11
-3.82512e-11
-7.17516e-11
5.04525e-11
5.25011e-11
-7.2304e-11
-1.16203e-07
-4.84613e-11
4.8802e-11
2.43066e-11
1.162e-07
1.55988e-11
3.27706e-11
-2.98086e-11
-1.65635e-11
2.077e-11
-3.28318e-12
-4.16158e-11
-2.76982e-08
3.29504e-11
4.89302e-11
4.3672e-11
2.86336e-11
2.7544e-08
-3.27001e-11
-3.11476e-11
-1.22901e-07
2.32965e-11
2.36635e-11
1.22918e-07
-1.15045e-07
-3.91624e-11
2.78461e-11
1.5216e-11
1.15038e-07
3.16135e-11
3.1355e-11
-3.88921e-11
-6.75497e-11
5.47918e-11
5.74298e-11
-6.60707e-11
-1.16187e-07
-4.42535e-11
3.04336e-11
1.47667e-11
1.16179e-07
1.90735e-11
3.61698e-11
-2.6873e-11
-1.23607e-11
2.57566e-11
1.72916e-12
-3.71307e-11
-2.76837e-08
2.84119e-11
4.4963e-11
4.75844e-11
3.28696e-11
2.75299e-08
-1.99354e-11
-1.89044e-11
-1.22952e-07
1.63482e-11
1.61713e-11
1.22959e-07
-1.15009e-07
-3.52958e-11
1.92779e-11
8.32485e-12
1.14993e-07
3.50502e-11
3.43028e-11
-3.23831e-11
-6.53995e-11
5.76991e-11
6.06034e-11
-6.60727e-11
-1.16151e-07
-4.15211e-11
1.99099e-11
8.5321e-12
1.16139e-07
2.13666e-11
3.82728e-11
-2.49131e-11
-9.55303e-12
2.90032e-11
5.53093e-12
-3.4365e-11
-2.76706e-08
2.52591e-11
4.22972e-11
5.03086e-11
3.57024e-11
2.75171e-08
-1.17377e-11
-1.16156e-11
-1.22973e-07
1.01171e-11
1.03918e-11
1.22975e-07
-1.14945e-07
-3.36238e-11
1.50294e-11
1.54874e-12
1.14927e-07
3.63234e-11
3.54681e-11
-3.46248e-11
-6.37644e-11
6.01399e-11
6.28275e-11
-6.20892e-11
-1.16095e-07
-3.98358e-11
1.58683e-11
5.75331e-12
1.1608e-07
2.27975e-11
3.93605e-11
-2.39629e-11
-8.46963e-12
3.06171e-11
6.89298e-12
-3.34534e-11
-2.76589e-08
2.32312e-11
4.09688e-11
5.1852e-11
3.71292e-11
2.75058e-08
-7.71306e-12
-6.31258e-12
-1.22984e-07
6.95912e-12
6.64087e-12
1.22984e-07
-1.14884e-07
-3.38923e-11
1.07177e-11
1.11621e-12
1.14871e-07
3.57815e-11
3.50934e-11
-3.14484e-11
-6.36741e-11
6.04632e-11
6.33497e-11
-6.43723e-11
-1.16042e-07
-3.93317e-11
8.98242e-12
2.38121e-12
1.16032e-07
2.28218e-11
3.95027e-11
-2.4107e-11
-7.5395e-12
3.19224e-11
7.90295e-12
-3.27515e-11
-2.76511e-08
2.32096e-11
4.04513e-11
5.20089e-11
3.6943e-11
2.74985e-08
-4.7364e-12
-4.07014e-12
-1.22983e-07
5.00704e-12
6.00976e-12
1.22981e-07
-1.14846e-07
-3.40114e-11
3.86892e-12
1.03172e-12
1.1484e-07
3.55594e-11
3.45537e-11
-3.57815e-11
-6.29566e-11
6.1013e-11
6.39846e-11
-6.12232e-11
-1.16011e-07
-3.91208e-11
5.13834e-12
1.34289e-12
1.16005e-07
2.29164e-11
3.92871e-11
-2.42557e-11
-7.74631e-12
3.21045e-11
8.21904e-12
-3.2245e-11
-2.76482e-08
2.28797e-11
3.9912e-11
5.21774e-11
3.69629e-11
2.74963e-08
-3.14653e-12
-1.143e-12
-1.22976e-07
2.70895e-12
3.7633e-12
1.22974e-07
-1.14827e-07
-3.38979e-11
1.04021e-12
3.3885e-13
1.14824e-07
3.53244e-11
3.44555e-11
-3.22004e-11
-6.3287e-11
6.14633e-11
6.40165e-11
-6.35813e-11
-1.15994e-07
-3.90305e-11
3.25326e-12
1.09416e-12
1.1599e-07
2.30841e-11
3.95096e-11
-2.38559e-11
-7.84424e-12
3.17606e-11
8.29384e-12
-3.261e-11
-2.76479e-08
2.29375e-11
3.94896e-11
5.2667e-11
3.66872e-11
2.74961e-08
-3.522e-12
-1.13563e-12
-1.22971e-07
2.8637e-12
3.60276e-12
1.22969e-07
-1.14821e-07
-3.40768e-11
-5.00478e-13
7.84643e-13
1.14821e-07
3.50863e-11
3.44045e-11
-3.5879e-11
-6.28753e-11
6.09696e-11
6.40317e-11
-6.14917e-11
-1.15979e-07
-3.90719e-11
2.38485e-12
1.91361e-12
1.15976e-07
2.32181e-11
3.95183e-11
-2.39627e-11
-7.70716e-12
3.16813e-11
8.31417e-12
-3.27935e-11
-2.76492e-08
2.29929e-11
3.94651e-11
5.2455e-11
3.69423e-11
2.74974e-08
-3.2188e-12
5.15189e-13
-1.22967e-07
1.29824e-12
2.3879e-12
1.22966e-07
-1.1482e-07
-3.39864e-11
-1.03865e-12
4.13244e-13
1.1482e-07
3.53226e-11
3.43062e-11
-3.23596e-11
-6.32241e-11
6.08933e-11
6.35631e-11
-6.35479e-11
-1.15969e-07
-3.88988e-11
1.96724e-12
9.3271e-13
1.15968e-07
2.32209e-11
3.92986e-11
-2.3845e-11
-7.97501e-12
3.1494e-11
7.87544e-12
-3.31615e-11
-2.76488e-08
2.28773e-11
3.96966e-11
5.22664e-11
3.72103e-11
2.74968e-08
-4.09678e-12
4.51883e-13
-1.22964e-07
1.13841e-12
4.15759e-12
1.22962e-07
-1.14824e-07
-3.40229e-11
-1.34931e-13
1.60726e-12
1.14823e-07
3.53787e-11
3.43927e-11
-3.59636e-11
-6.32085e-11
6.07218e-11
6.35476e-11
-6.18697e-11
-1.15966e-07
-3.88057e-11
1.99526e-12
7.10826e-13
1.15965e-07
2.33402e-11
3.93725e-11
-2.38862e-11
-8.18335e-12
3.16674e-11
7.79829e-12
-3.31347e-11
-2.76491e-08
2.30074e-11
4.01988e-11
5.19716e-11
3.68209e-11
2.74971e-08
-2.94721e-12
3.44705e-13
-1.22963e-07
8.45196e-14
3.00393e-12
1.22963e-07
-1.14826e-07
-3.39397e-11
-1.01656e-12
3.19033e-13
1.14826e-07
3.56596e-11
3.41999e-11
-3.23209e-11
-6.34458e-11
6.07276e-11
6.35903e-11
-6.41983e-11
-1.15967e-07
-3.87133e-11
1.44961e-12
7.90272e-14
1.15968e-07
2.31448e-11
3.92745e-11
-2.44414e-11
-8.07259e-12
3.14606e-11
8.09031e-12
-3.32698e-11
-2.76498e-08
2.29354e-11
3.962e-11
5.23043e-11
3.67836e-11
2.74981e-08
-2.12313e-12
6.68433e-13
-1.22966e-07
-2.5539e-12
4.87536e-12
1.22965e-07
-1.1483e-07
-3.33406e-11
-3.52081e-13
-6.17491e-13
1.14831e-07
3.6184e-11
3.39639e-11
-3.60206e-11
-6.39161e-11
6.09147e-11
6.3456e-11
-6.18026e-11
-1.15972e-07
-3.89989e-11
9.98183e-13
-1.33208e-13
1.15974e-07
2.2941e-11
3.90347e-11
-2.43761e-11
-8.10748e-12
3.15274e-11
8.159e-12
-3.29958e-11
-2.76513e-08
2.29693e-11
3.99932e-11
5.18683e-11
3.67521e-11
2.74997e-08
-9.17159e-13
-1.23749e-07
1.96191e-12
1.64926e-12
-3.96017e-12
1.2375e-07
-1.15753e-07
-3.92904e-11
4.88437e-14
-2.15272e-12
1.03186e-10
3.99095e-11
-1.02629e-10
-4.67686e-10
3.45114e-10
4.68592e-10
-3.45073e-10
-1.16567e-07
2.63394e-10
1.27959e-12
2.82628e-12
1.97723e-10
-2.62077e-10
-1.98103e-10
-1.19402e-10
2.49026e-10
1.20063e-10
-2.49838e-10
1.16562e-07
-2.78276e-08
-2.86648e-10
-2.63782e-10
3.24016e-10
2.65784e-10
2.77883e-08
3.02996e-10
2.42813e-10
2.78555e-08
-2.79001e-08
-2.02161e-10
2.81648e-11
2.77305e-08
-2.75742e-08
-7.03892e-11
-4.9897e-11
-6.41193e-11
2.35433e-10
1.15524e-07
9.53921e-12
-3.42091e-11
-4.36118e-11
-1.127e-11
4.0974e-12
-4.88567e-11
-3.90668e-11
-1.15638e-07
3.82357e-11
-1.16081e-07
2.54385e-10
-3.99821e-10
-4.0735e-11
-2.0521e-10
-3.51947e-10
-5.22419e-11
-1.29234e-11
-2.56524e-10
1.48298e-09
-2.34294e-11
1.15681e-07
-1.15522e-07
-2.10059e-10
-8.30321e-12
-4.03229e-11
1.26504e-11
-3.97773e-11
-5.21293e-11
-1.60203e-13
-1.25352e-11
2.14378e-10
-2.75773e-08
-7.03065e-11
-4.86416e-11
-6.29872e-11
5.25679e-11
5.57381e-11
2.28287e-11
2.33163e-11
2.75627e-08
-2.77171e-08
-1.68889e-11
-2.04962e-11
2.77065e-08
-2.75545e-08
-5.85758e-11
-5.60416e-11
5.11459e-11
1.17185e-07
1.52051e-12
1.49033e-11
-3.23938e-11
-4.45536e-12
5.01143e-12
-5.14611e-11
-4.29855e-11
-1.17166e-07
-5.23343e-11
8.9664e-11
4.81556e-11
1.17215e-07
2.04138e-12
1.56243e-11
-3.25831e-11
-3.7228e-12
5.25119e-12
-5.06709e-11
-4.31036e-11
-1.17194e-07
1.17232e-07
8.59516e-11
-1.17218e-07
4.48684e-11
-5.00423e-11
-3.17007e-11
2.97411e-12
-3.9795e-11
-4.93426e-11
8.12018e-12
-2.35405e-12
1.69637e-11
1.1727e-07
8.521e-11
-1.17254e-07
4.38884e-11
-5.01829e-11
-3.24087e-11
3.51083e-12
-3.9991e-11
-4.88337e-11
7.82451e-12
-2.35545e-12
2.31394e-11
2.38732e-11
2.75595e-08
-2.77138e-08
-2.08817e-11
2.77066e-08
-2.75537e-08
-5.81178e-11
-5.69612e-11
3.61738e-11
1.14988e-07
1.84145e-11
1.82097e-11
-4.8734e-11
-8.28323e-11
3.65129e-11
-7.98588e-11
3.81158e-11
-1.14966e-07
-1.08947e-10
-2.62084e-10
7.39026e-10
1.16186e-07
1.03224e-11
9.22077e-12
-4.6034e-11
-6.40768e-11
3.62087e-11
-7.95164e-11
3.21968e-11
-1.16452e-07
1.15033e-07
8.4091e-11
-1.1502e-07
4.22354e-11
-5.30504e-11
-4.79399e-11
2.02403e-11
4.13455e-11
-7.83818e-11
3.92177e-11
-8.10228e-11
8.98211e-12
1.16105e-07
8.48011e-11
-1.16092e-07
4.64773e-11
-4.34715e-11
-4.57526e-11
1.61854e-11
2.08909e-11
-7.78638e-11
3.7997e-11
-6.10046e-11
-2.49158e-10
7.51262e-10
1.16187e-07
1.10876e-11
1.18549e-11
-4.56712e-11
-6.41454e-11
3.67345e-11
-8.00149e-11
3.32851e-11
-1.1649e-07
8.23636e-11
-1.14999e-07
4.05446e-11
-5.29624e-11
-4.73881e-11
2.0758e-11
4.10488e-11
-7.87399e-11
-8.12069e-11
3.94745e-11
9.2774e-12
1.16115e-07
8.36729e-11
-1.16099e-07
4.49286e-11
-4.34715e-11
-4.55524e-11
1.5667e-11
2.10785e-11
-7.80852e-11
3.84811e-11
-6.1698e-11
3.37775e-11
1.24297e-11
2.757e-08
-2.64582e-11
2.77116e-08
-2.75612e-08
-6.45078e-11
-5.049e-11
5.88522e-10
-8.29379e-10
1.16055e-07
9.45939e-12
1.99811e-11
-3.68536e-11
-2.90745e-11
4.9808e-12
-5.22655e-11
-3.73737e-11
8.57226e-11
-1.16138e-07
3.93405e-11
-5.80106e-11
-3.4784e-11
8.10638e-12
-1.57872e-11
-5.06327e-11
-2.65177e-11
9.34674e-12
2.69057e-11
1.16209e-07
8.68143e-11
-1.16193e-07
3.84306e-11
-5.82758e-11
-3.49092e-11
8.48514e-12
-1.59181e-11
-5.01159e-11
9.18648e-12
-2.65278e-11
-2.75693e-08
-6.5673e-11
-4.98558e-11
4.89033e-11
5.18595e-11
2.70676e-11
2.70319e-11
2.75516e-08
-1.9811e-11
-2.34615e-11
2.76934e-08
-2.75419e-08
-5.52096e-11
-5.30328e-11
4.28197e-11
1.17246e-07
3.81714e-12
1.76077e-11
-3.10699e-11
-1.65441e-12
8.96907e-12
-3.86983e-11
-4.89503e-11
-4.92407e-11
8.30136e-11
4.18212e-11
1.17286e-07
4.14337e-12
1.77058e-11
-3.56357e-11
-1.68846e-12
9.19825e-12
-3.87124e-11
-4.60272e-11
1.17273e-07
7.1579e-11
-1.17267e-07
3.72648e-11
-4.57076e-11
-2.91571e-11
6.57831e-12
-3.48083e-11
-4.56618e-11
1.27002e-11
1.44219e-12
2.04588e-11
1.17313e-07
7.14083e-11
-1.17306e-07
3.70566e-11
-4.56268e-11
-2.99788e-11
6.97414e-12
-3.50609e-11
-4.58282e-11
1.23161e-11
1.40284e-12
2.67048e-11
2.73493e-11
2.75514e-08
-2.40767e-11
2.76956e-08
-2.75431e-08
-5.45588e-11
-5.33421e-11
4.03547e-11
1.15045e-07
2.0972e-11
2.12775e-11
-4.75722e-11
-8.04147e-11
4.03053e-11
4.2143e-11
-7.78819e-11
-4.24681e-11
8.13537e-11
4.48454e-11
1.16116e-07
1.69547e-11
9.62389e-12
-4.52355e-11
-6.04495e-11
3.92325e-11
2.21077e-11
-7.69359e-11
1.1507e-07
6.84701e-11
-1.15065e-07
3.4513e-11
-4.87081e-11
-4.52767e-11
2.37035e-11
4.62141e-11
-7.48642e-11
4.39732e-11
-7.72054e-11
1.23148e-11
1.16135e-07
7.01416e-11
-1.16132e-07
3.94576e-11
-3.90597e-11
-4.30697e-11
1.95549e-11
2.59212e-11
-7.42499e-11
4.26844e-11
-5.73753e-11
7.99283e-11
4.36971e-11
1.16128e-07
1.66605e-11
1.00952e-11
-4.48074e-11
-6.11738e-11
3.96614e-11
-7.74462e-11
2.19178e-11
6.84293e-11
-1.15049e-07
3.45544e-11
-4.86898e-11
-4.50633e-11
2.39101e-11
4.56312e-11
-7.52799e-11
-7.74919e-11
4.37354e-11
1.26413e-11
1.16156e-07
6.83477e-11
-1.16149e-07
3.81424e-11
-3.88932e-11
-4.27648e-11
1.94407e-11
2.59855e-11
-7.47406e-11
4.29729e-11
-5.77515e-11
3.43928e-11
1.98526e-11
2.7558e-08
-2.90757e-11
2.76987e-08
-2.75487e-08
-6.14474e-11
-4.71379e-11
8.40922e-11
3.78413e-11
1.16223e-07
9.09819e-12
2.74606e-11
-3.45567e-11
-2.57302e-11
9.85455e-12
-4.98253e-11
-1.47751e-11
7.16633e-11
-1.1619e-07
3.35344e-11
-5.36301e-11
-3.29527e-11
1.14416e-11
-1.0326e-11
-4.71022e-11
-2.25653e-11
1.37865e-11
2.97127e-11
1.16252e-07
7.23737e-11
-1.16245e-07
3.25556e-11
-5.4247e-11
-3.27505e-11
1.1407e-11
-1.08607e-11
-4.6753e-11
1.34724e-11
-2.2628e-11
-2.75602e-08
-6.25164e-11
-4.63766e-11
4.44981e-11
4.73707e-11
3.16677e-11
3.13446e-11
2.75386e-08
-2.35323e-11
-2.74241e-11
2.76794e-08
-2.75282e-08
-5.08214e-11
-4.94263e-11
3.55768e-11
1.17277e-07
7.37211e-12
2.05784e-11
-2.86009e-11
2.45495e-12
1.4199e-11
-3.35263e-11
-4.4797e-11
-4.45641e-11
6.75622e-11
3.50766e-11
1.17318e-07
7.83371e-12
2.10034e-11
-2.91857e-11
2.49541e-12
1.38575e-11
-3.34336e-11
-4.49746e-11
1.17272e-07
5.45528e-11
-1.17276e-07
2.91001e-11
-4.11197e-11
-2.6326e-11
1.01386e-11
-2.89121e-11
-4.15125e-11
1.80435e-11
6.34282e-12
2.34493e-11
1.17315e-07
5.57676e-11
-1.17318e-07
2.9255e-11
-4.14196e-11
-2.71506e-11
1.05216e-11
-2.91599e-11
-4.14227e-11
1.79828e-11
5.90367e-12
3.13076e-11
3.18644e-11
2.75402e-08
-2.69861e-11
2.7682e-08
-2.75301e-08
-5.10206e-11
-5.04637e-11
3.26514e-11
1.15074e-07
2.49077e-11
2.43643e-11
-4.44958e-11
-7.62262e-11
4.5143e-11
4.74424e-11
-7.40725e-11
-3.77535e-11
6.5924e-11
3.69874e-11
1.16138e-07
2.08316e-11
1.33899e-11
-4.23792e-11
-5.68799e-11
4.37602e-11
2.6909e-11
-7.36025e-11
1.15067e-07
5.18161e-11
-1.15072e-07
2.75861e-11
-4.37741e-11
-4.20013e-11
2.77383e-11
5.13803e-11
-7.07636e-11
4.89387e-11
-7.29151e-11
1.64461e-11
1.16136e-07
5.14733e-11
-1.16138e-07
2.84793e-11
-3.38549e-11
-3.96808e-11
2.38623e-11
3.11829e-11
-7.01163e-11
4.77848e-11
-5.31997e-11
6.48619e-11
3.56576e-11
1.1616e-07
2.04469e-11
1.36565e-11
-4.1929e-11
-5.72059e-11
4.4052e-11
-7.38822e-11
2.70193e-11
4.96423e-11
-1.1506e-07
2.68197e-11
-4.45567e-11
-4.2603e-11
2.72595e-11
5.1669e-11
-7.06401e-11
-7.25263e-11
4.88869e-11
1.63909e-11
1.16164e-07
4.9931e-11
-1.16165e-07
2.77878e-11
-3.40333e-11
-3.91354e-11
2.36414e-11
3.14291e-11
-7.02134e-11
4.80514e-11
-5.32542e-11
3.84022e-11
2.434e-11
2.75454e-08
-3.20763e-11
2.76848e-08
-2.75352e-08
-5.79338e-11
-4.31218e-11
6.79976e-11
3.05893e-11
1.16258e-07
1.20708e-11
3.06829e-11
-3.25756e-11
-2.144e-11
1.49215e-11
-4.57763e-11
-9.31158e-12
5.37471e-11
-1.16204e-07
2.69999e-11
-4.96693e-11
-3.06015e-11
1.45631e-11
-4.4935e-12
-4.25259e-11
-1.78635e-11
1.9171e-11
3.30235e-11
1.16262e-07
5.38044e-11
-1.16263e-07
2.51119e-11
-4.99114e-11
-3.01836e-11
1.47365e-11
-4.65285e-12
-4.21737e-11
1.90815e-11
-1.75108e-11
-2.75476e-08
-5.85967e-11
-4.25542e-11
3.96943e-11
4.23503e-11
3.65877e-11
3.55541e-11
2.75252e-08
-2.65464e-11
-3.03871e-11
2.76664e-08
-2.75156e-08
-4.74749e-11
-4.64156e-11
2.7005e-11
1.17267e-07
1.11048e-11
2.42128e-11
-2.56201e-11
7.10607e-12
1.92283e-11
-2.75489e-11
-4.07936e-11
-4.02597e-11
5.16645e-11
2.66546e-11
1.17311e-07
1.13269e-11
2.43296e-11
-3.01499e-11
7.00388e-12
1.9187e-11
-2.78065e-11
-3.82476e-11
1.17244e-07
3.68153e-11
-1.17253e-07
2.02658e-11
-3.67824e-11