/*--------------------------------*- C++ -*----------------------------------*\
| =========                 |                                                 |
| \\      /  F ield         | OpenFOAM: The Open Source CFD Toolbox           |
|  \\    /   O peration     | Version:  2206                                  |
|   \\  /    A nd           | Website:  www.openfoam.com                      |
|    \\/     M anipulation  |                                                 |
\*---------------------------------------------------------------------------*/
FoamFile
{
    version     2.0;
    format      ascii;
    arch        "LSB;label=32;scalar=64";
    class       volVectorField;
    location    "100";
    object      U;
}
// * * * * * * * * * * * * * * * * * * * * * * * * * * * * * * * * * * * * * //

dimensions      [0 1 -1 0 0 0 0];

internalField   nonuniform List<vector> 
66701
(
(6.16307e-06 -3.8003e-07 0.0603757)
(5.35341e-06 -4.57747e-06 0.0585332)
(2.25594e-05 -3.60108e-06 0.0705944)
(2.57992e-05 -2.90702e-06 0.0822049)
(4.14472e-06 -4.69752e-06 0.0647017)
(3.5275e-05 -1.7563e-06 0.0966557)
(3.43886e-05 -3.89223e-06 0.093153)
(3.19827e-06 -2.60386e-06 0.0670023)
(4.97416e-06 5.14994e-06 0.0585664)
(2.14632e-05 2.67084e-06 0.0706408)
(2.66592e-05 2.24627e-06 0.0822361)
(2.52493e-06 4.95293e-06 0.0647284)
(3.45278e-05 5.22234e-07 0.0966604)
(2.54238e-06 -6.89251e-08 0.0670101)
(3.24056e-05 3.21325e-06 0.0931705)
(5.1547e-06 -2.75779e-07 0.0604127)
(2.09914e-06 -1.1127e-06 0.0425505)
(1.24065e-06 -9.18764e-07 0.0289385)
(6.82296e-07 -5.981e-07 0.0181213)
(4.29619e-07 -2.3008e-07 0.00960518)
(4.66049e-08 -1.59096e-07 0.0029368)
(3.9973e-06 -4.72048e-06 0.0425279)
(2.47543e-06 -3.76394e-06 0.0289243)
(1.37035e-06 -2.64219e-06 0.0181129)
(7.2575e-07 -1.50093e-06 0.00960099)
(1.40213e-07 -5.52532e-07 0.00293558)
(5.0202e-06 -2.65566e-06 0.0411743)
(2.6916e-06 -1.63928e-06 0.0278014)
(1.34073e-06 -9.46263e-07 0.0172861)
(4.94517e-07 -4.52847e-07 0.0091008)
(1.41225e-07 -1.81357e-07 0.00276201)
(4.63198e-06 1.82643e-06 0.0412057)
(2.52082e-06 9.66325e-07 0.0278226)
(1.3325e-06 4.39681e-07 0.0172992)
(5.96581e-07 1.22287e-07 0.00910748)
(1.22058e-07 8.89582e-08 0.00276381)
(1.78039e-06 6.58264e-07 0.0425775)
(1.04341e-06 6.92764e-07 0.0289567)
(5.44318e-07 4.80029e-07 0.0181327)
(2.34972e-07 2.07201e-07 0.00961144)
(7.73127e-08 1.4637e-07 0.00293872)
(4.05335e-06 5.09929e-06 0.0425534)
(2.52105e-06 3.94407e-06 0.0289409)
(1.36808e-06 2.71755e-06 0.0181229)
(6.114e-07 1.55077e-06 0.00960609)
(1.75262e-07 5.38731e-07 0.00293692)
(1.72519e-06 -3.84343e-06 0.0413075)
(1.01271e-06 -2.79226e-06 0.0279821)
(5.42164e-07 -1.80375e-06 0.0174516)
(2.31394e-07 -9.48287e-07 0.00921395)
(8.16861e-08 -3.63979e-07 0.00280492)
(1.18072e-06 -2.13805e-06 0.0415619)
(6.57175e-07 -1.63168e-06 0.0281966)
(3.45251e-07 -1.07387e-06 0.0176163)
(1.67827e-07 -5.58309e-07 0.00931804)
(2.29706e-08 -2.31931e-07 0.00284263)
(1.05063e-06 3.90852e-06 0.0413254)
(6.76278e-07 2.93695e-06 0.027994)
(4.22479e-07 2.02642e-06 0.0174588)
(2.65912e-07 1.18471e-06 0.00921775)
(6.20986e-08 3.77965e-07 0.00280607)
(7.85285e-07 -2.36881e-07 0.0415682)
(4.26714e-07 -2.76962e-07 0.0282008)
(2.24184e-07 -2.33269e-07 0.0176187)
(9.75491e-08 -1.40529e-07 0.00931922)
(1.79622e-08 -6.00073e-08 0.00284301)
(1.31963e-05 1.06911e-05 0.0603574)
(6.59483e-06 -2.9483e-07 0.0603742)
(0.00016144 0.000161172 0.129762)
(2.28869e-05 3.64394e-06 0.0842608)
(6.92875e-06 9.38509e-06 0.0841371)
(9.37201e-06 2.75371e-05 0.0705981)
(2.36309e-06 6.7826e-06 0.135108)
(2.62627e-05 2.59417e-05 0.0995118)
(3.59587e-05 -1.13896e-06 0.0966595)
(2.32559e-05 -3.46546e-06 0.0705968)
(4.36284e-05 -1.9517e-06 0.116225)
(2.54304e-06 3.56963e-06 0.134834)
(2.84982e-05 1.51259e-05 0.0995313)
(1.44025e-06 -5.00973e-07 0.138857)
(3.52218e-05 8.68039e-07 0.096662)
(2.304e-05 1.5574e-06 0.0706448)
(4.42629e-05 2.70283e-07 0.116219)
(4.62443e-06 -1.92267e-06 0.134825)
(2.44191e-06 1.14337e-06 0.138866)
(2.67943e-05 -1.56939e-05 0.0995398)
(5.21952e-06 -1.08812e-06 0.0604129)
(0.000161621 -0.000158272 0.129772)
(6.7018e-06 -1.15302e-05 0.0841779)
(-5.14258e-06 -2.76845e-06 0.0601983)
(-9.08814e-06 -7.26778e-06 0.076072)
(1.48228e-05 -3.76322e-06 0.0590515)
(3.03421e-06 1.81157e-06 0.0590302)
(1.22628e-05 2.47841e-06 0.0763859)
(-7.67736e-06 -3.20272e-07 0.0589272)
(-7.19823e-07 -7.28969e-06 0.0588746)
(-1.39477e-05 -4.57873e-05 0.0956807)
(1.64549e-05 3.09215e-06 0.0699991)
(2.31347e-05 4.75401e-05 0.108859)
(-1.92282e-05 -6.68952e-06 0.0841926)
(1.71162e-05 4.34729e-05 0.0960723)
(-9.43031e-06 -7.63562e-06 0.0698642)
(-1.68387e-05 -4.79928e-05 0.108529)
(-4.63988e-05 -6.86897e-06 0.0954172)
(8.69222e-06 1.70958e-06 0.069812)
(5.54852e-05 8.52689e-06 0.108658)
(-3.36803e-06 -1.22367e-05 0.0837597)
(5.17614e-05 4.38959e-06 0.0958842)
(-6.39842e-06 -6.97977e-06 0.0695853)
(-4.89435e-05 -1.02914e-05 0.108084)
(-2.06822e-07 1.88269e-06 0.0644343)
(3.45131e-05 -3.95964e-06 0.0931551)
(3.55954e-06 -1.99743e-06 0.0670071)
(-2.81306e-05 1.24977e-06 0.0960322)
(4.22424e-06 -5.01543e-06 0.0647075)
(-2.80431e-05 3.12876e-06 0.092579)
(1.09801e-06 2.04755e-07 0.0667062)
(-4.42605e-06 1.58944e-06 0.0583556)
(2.65039e-05 -3.73735e-06 0.0822116)
(-1.93726e-05 -1.6456e-06 0.0703359)
(6.04893e-06 -4.98383e-06 0.0585358)
(-2.20355e-05 1.10388e-06 0.0818106)
(-1.12044e-07 -1.54972e-06 0.0644605)
(3.8088e-06 5.1336e-07 0.0670166)
(3.37046e-05 3.1061e-06 0.0931717)
(-2.88864e-05 -1.05066e-06 0.0960348)
(4.8096e-06 4.01588e-06 0.0647338)
(1.24982e-06 -1.30043e-06 0.0667169)
(-2.85023e-05 -3.15386e-06 0.0925957)
(-3.23541e-06 -1.11587e-06 0.0583837)
(2.57879e-05 2.01032e-06 0.0822391)
(-1.84816e-05 -8.00033e-07 0.0703784)
(6.59483e-06 4.67503e-06 0.0585668)
(-2.11331e-05 -2.33119e-06 0.0818415)
(-5.23426e-06 1.11033e-06 0.0602326)
(-9.52906e-06 4.56408e-06 0.0761133)
(-1.27608e-06 4.95734e-06 0.0589061)
(-1.02058e-05 -1.01257e-06 0.0589671)
(-4.61366e-05 5.18681e-06 0.0954246)
(5.29014e-05 -9.8174e-06 0.108692)
(-3.57684e-06 9.81968e-06 0.0837963)
(-4.89526e-05 8.99891e-06 0.108123)
(-5.82786e-06 4.9643e-06 0.069608)
(-1.25046e-05 4.49895e-05 0.0957152)
(-1.79046e-05 5.32421e-06 0.0842348)
(-1.17819e-05 5.86821e-06 0.0699147)
(-1.37667e-05 4.84029e-05 0.108491)
(-6.79312e-06 8.88734e-06 0.0604397)
(-1.74649e-06 5.04744e-06 0.142536)
(-1.57507e-06 2.62889e-06 0.145409)
(1.40971e-08 4.25114e-06 0.145176)
(-2.07561e-06 3.58488e-06 0.147849)
(2.61529e-06 4.20521e-06 0.142535)
(9.61957e-07 2.76913e-06 0.145414)
(1.11883e-07 4.35262e-06 0.145171)
(1.23002e-06 3.55506e-06 0.147851)
(-4.39146e-07 -1.36365e-06 0.145205)
(-1.90089e-06 -3.73739e-07 0.147841)
(1.98999e-06 -1.62685e-08 0.145217)
(1.99288e-06 -1.91279e-08 0.147844)
(-5.24754e-05 -4.73984e-05 0.111199)
(-0.000163141 -0.000161519 0.129611)
(0.00016635 4.75474e-05 0.121833)
(5.09102e-05 0.000159087 0.121656)
(5.57481e-05 4.68874e-05 0.111623)
(-0.000161148 -4.27753e-05 0.121507)
(-4.86853e-05 -0.000159152 0.121241)
(-3.1688e-06 -0.000189503 0.123215)
(9.51379e-06 3.87183e-05 0.108437)
(1.51622e-05 0.000181403 0.117305)
(-2.50739e-05 -2.96952e-05 0.0996506)
(-1.1115e-05 -0.000178551 0.117292)
(6.3261e-06 0.000188584 0.122955)
(-1.07338e-05 -4.37944e-05 0.108594)
(-0.000191717 -1.16546e-07 0.125781)
(4.3774e-05 -1.82792e-06 0.113827)
(0.000196607 -2.36554e-06 0.127857)
(-3.58783e-05 -4.0002e-08 0.115496)
(0.000201659 -3.785e-06 0.126283)
(-3.60786e-05 -4.99857e-07 0.113151)
(-0.000189684 1.00078e-06 0.127292)
(-0.000195539 -2.68151e-06 0.122624)
(3.86493e-05 2.54564e-06 0.10851)
(0.000191179 4.48103e-06 0.11728)
(-2.0257e-05 -1.82995e-05 0.0990217)
(-0.000180353 -7.45974e-06 0.116749)
(0.000200039 -4.78949e-07 0.123068)
(-3.32381e-05 -5.32581e-06 0.107917)
(-0.000193181 -1.02322e-06 0.125754)
(0.000195744 1.39161e-06 0.127846)
(4.30116e-05 1.23593e-07 0.113813)
(-3.58618e-05 -3.58483e-07 0.115489)
(0.000199422 1.5316e-06 0.126258)
(-0.000188636 -1.33498e-06 0.127282)
(-3.62751e-05 -5.01896e-07 0.113135)
(-0.000191509 2.07383e-06 0.122576)
(4.02205e-05 -4.13949e-06 0.108494)
(0.000190608 -4.68026e-06 0.117249)
(-2.11917e-05 1.74201e-05 0.0990313)
(0.000198586 -1.53134e-07 0.123028)
(-3.11011e-05 4.52566e-06 0.107897)
(-0.000178283 8.07668e-06 0.116719)
(-4.96173e-05 4.83024e-05 0.1112)
(-0.000160634 0.000164227 0.129594)
(5.45305e-05 -0.000164055 0.121709)
(-4.54254e-05 0.000157409 0.121296)
(-0.000155754 4.61007e-05 0.121407)
(9.01654e-06 4.16108e-06 0.0425043)
(6.05044e-06 7.67669e-07 0.028912)
(3.90069e-06 -6.85622e-07 0.0181058)
(2.09905e-06 -1.06728e-06 0.00959712)
(7.37948e-07 -2.83008e-07 0.00293431)
(2.44654e-06 -1.43637e-06 0.0425483)
(1.46487e-06 -1.26937e-06 0.0289361)
(8.9141e-07 -8.70766e-07 0.0181195)
(5.60832e-07 -4.45098e-07 0.00960419)
(8.45812e-08 -1.64107e-07 0.0029364)
(7.65041e-06 8.91451e-06 0.0411218)
(5.87993e-06 3.40058e-06 0.0277724)
(4.00912e-06 7.78311e-07 0.0172697)
(2.3385e-06 3.50279e-10 0.00909212)
(7.0906e-07 -2.05272e-07 0.00275924)
(6.03537e-06 -2.79614e-06 0.0411733)
(3.34685e-06 -1.93907e-06 0.0278004)
(1.71612e-06 -1.22913e-06 0.0172855)
(6.25269e-07 -6.61719e-07 0.00910042)
(1.8685e-07 -2.20263e-07 0.00276183)
(5.50318e-06 1.63753e-06 0.0412052)
(2.89448e-06 1.02731e-06 0.0278218)
(1.42936e-06 5.44798e-07 0.0172987)
(5.6273e-07 2.13684e-07 0.00910715)
(1.19518e-07 7.66276e-08 0.0027637)
(1.45544e-06 6.476e-07 0.0425763)
(7.40804e-07 7.21118e-07 0.0289552)
(3.85311e-07 5.02097e-07 0.0181315)
(1.92562e-07 2.49628e-07 0.00961069)
(5.74643e-08 9.80625e-08 0.00293846)
(-1.05426e-06 -1.46789e-06 0.0424679)
(-3.68677e-07 -7.08997e-07 0.0288944)
(-1.88833e-07 -2.4412e-07 0.0180968)
(-2.14597e-07 -4.99287e-08 0.00959298)
(1.29372e-08 -2.05287e-09 0.00293322)
(-2.43604e-07 1.71741e-06 0.0412016)
(-2.43917e-07 1.54039e-06 0.0279261)
(-2.22441e-07 1.30302e-06 0.0174213)
(-1.15146e-07 9.10622e-07 0.00919913)
(-7.77895e-08 3.00076e-07 0.00280057)
(1.67394e-06 -1.7444e-06 0.0415656)
(9.72884e-07 -1.29053e-06 0.0281997)
(4.91753e-07 -8.09773e-07 0.0176184)
(2.36048e-07 -4.14245e-07 0.0093192)
(2.13155e-08 -1.38298e-07 0.00284295)
(1.99061e-06 -4.40793e-06 0.0413111)
(1.25307e-06 -3.39121e-06 0.0279848)
(7.0439e-07 -2.3064e-06 0.0174533)
(3.21663e-07 -1.29849e-06 0.00921479)
(9.61131e-08 -4.40151e-07 0.00280515)
(8.03755e-07 2.57901e-07 0.0414463)
(5.10979e-07 3.0197e-07 0.028134)
(2.11996e-07 3.3927e-07 0.0175819)
(2.66849e-08 3.10343e-07 0.00930108)
(-2.13546e-09 3.77558e-08 0.00283764)
(-3.19849e-06 -1.20465e-06 0.0410978)
(-1.31247e-06 -1.05012e-06 0.0277645)
(-5.39035e-07 -7.06976e-07 0.0172672)
(-1.31684e-07 -3.62475e-07 0.00909167)
(-1.68422e-08 -1.16224e-07 0.00275933)
(-3.972e-08 -1.6961e-06 0.0412186)
(-1.11063e-08 -1.44747e-06 0.0279368)
(-6.89908e-08 -1.12541e-06 0.0174276)
(-1.50044e-07 -7.22404e-07 0.00920244)
(-2.95053e-08 -2.40428e-07 0.00280152)
(1.68985e-06 2.89582e-07 0.0415726)
(9.57424e-07 2.44072e-07 0.0282041)
(4.80848e-07 2.24875e-07 0.017621)
(1.91584e-07 1.68905e-07 0.00932057)
(3.23598e-08 5.59619e-08 0.00284331)
(2.15276e-06 3.30454e-06 0.0413292)
(1.39098e-06 2.48981e-06 0.0279968)
(7.64936e-07 1.70683e-06 0.0174608)
(3.27162e-07 9.67977e-07 0.00921901)
(9.20122e-08 3.59602e-07 0.00280634)
(6.39096e-07 -1.10074e-06 0.0414542)
(4.21848e-07 -8.48072e-07 0.0281392)
(1.79709e-07 -5.58005e-07 0.0175849)
(-1.95405e-09 -2.80787e-07 0.00930258)
(-8.53076e-09 -1.37239e-07 0.00283804)
(-3.45475e-06 -2.4214e-07 0.0411257)
(-1.70225e-06 -5.73722e-08 0.0277831)
(-9.02385e-07 -1.27646e-07 0.0172786)
(-4.26741e-07 -1.74569e-07 0.00909751)
(-7.32928e-08 -2.50235e-08 0.00276089)
(-1.35334e-06 3.70373e-07 0.0424941)
(-6.35042e-07 -1.85137e-08 0.0289127)
(-3.44087e-07 -2.05617e-07 0.0181087)
(-2.16632e-07 -2.09759e-07 0.00959969)
(-4.21009e-08 -5.92452e-08 0.0029352)
(-5.96968e-06 2.79824e-06 0.0413125)
(-3.8057e-06 8.73082e-07 0.0279015)
(-2.33074e-06 -3.73333e-08 0.0173522)
(-1.24933e-06 -2.52524e-07 0.00913786)
(-3.97523e-07 -1.55903e-07 0.00277426)
(-4.46908e-06 3.36687e-06 0.0425037)
(-2.97116e-06 1.20007e-06 0.0289166)
(-1.87682e-06 1.59364e-07 0.0181101)
(-9.82724e-07 -2.03212e-07 0.00959994)
(-3.85676e-07 -1.30907e-07 0.00293547)
(9.40047e-06 -2.94173e-06 0.0423208)
(6.06256e-06 -2.77686e-06 0.0287477)
(3.61173e-06 -2.30486e-06 0.0179799)
(1.66316e-06 -1.66209e-06 0.0095193)
(6.64916e-07 -4.46139e-07 0.00290683)
(8.18211e-06 1.85361e-06 0.0413274)
(5.14632e-06 -1.41782e-08 0.0279022)
(3.17166e-06 -6.83159e-07 0.0173506)
(1.85833e-06 -4.40329e-07 0.00913668)
(4.74882e-07 -3.0232e-07 0.00277351)
(-3.44788e-06 -4.20841e-06 0.041295)
(-1.73157e-06 -2.37125e-06 0.0278903)
(-8.01336e-07 -1.11214e-06 0.0173452)
(-4.47427e-07 -5.72367e-07 0.00913417)
(-4.36059e-08 -1.39682e-08 0.00277292)
(2.41934e-06 -7.11567e-07 0.0423353)
(1.92708e-06 -9.514e-07 0.0287563)
(1.30501e-06 -7.63472e-07 0.0179853)
(8.4418e-07 -3.90772e-07 0.00952188)
(1.44377e-07 -1.62858e-07 0.0029074)
(5.37422e-06 -1.10966e-06 0.0413317)
(3.45909e-06 -1.38068e-06 0.0279037)
(1.96938e-06 -1.22132e-06 0.0173512)
(8.5543e-07 -8.75063e-07 0.00913651)
(3.07042e-07 -2.73937e-07 0.00277349)
(-3.54932e-06 -2.96442e-06 0.0412664)
(-1.80649e-06 -1.28329e-06 0.0278742)
(-8.5296e-07 -3.53014e-07 0.0173368)
(-2.61609e-07 8.50697e-08 0.00912965)
(-1.44586e-07 4.53312e-08 0.00277155)
(-4.21234e-06 4.1358e-07 0.0422701)
(-2.82473e-06 6.21707e-07 0.0287254)
(-1.79246e-06 7.23681e-07 0.0179691)
(-8.92189e-07 5.85459e-07 0.00951418)
(-4.42221e-07 2.71116e-07 0.00290539)
(-3.01387e-07 -3.54254e-06 0.0422666)
(-6.25359e-08 -1.75434e-06 0.0287219)
(2.80466e-08 -7.78874e-07 0.0179669)
(-8.14527e-09 -3.38268e-07 0.00951279)
(3.00278e-09 -4.42018e-08 0.00290483)
(-2.85963e-06 1.38815e-06 0.0424451)
(-1.56765e-06 1.09263e-06 0.0288813)
(-8.11712e-07 9.17097e-07 0.0180896)
(-4.03846e-07 6.44635e-07 0.00958949)
(-9.72194e-08 2.30635e-07 0.00293221)
(4.32958e-06 -5.49953e-06 0.042529)
(2.81062e-06 -4.56669e-06 0.0289246)
(1.62127e-06 -3.32228e-06 0.0181129)
(8.03728e-07 -1.97275e-06 0.00960094)
(2.24598e-07 -6.78062e-07 0.00293551)
(-2.01228e-06 -1.28218e-06 0.0424678)
(-1.06905e-06 -1.10916e-06 0.0288967)
(-5.82854e-07 -9.69448e-07 0.0180993)
(-3.45973e-07 -7.0315e-07 0.00959462)
(-7.07356e-08 -2.24033e-07 0.00293347)
(4.48204e-06 4.9811e-06 0.0425542)
(2.79056e-06 4.04966e-06 0.028942)
(1.52023e-06 2.86022e-06 0.0181239)
(7.12623e-07 1.63284e-06 0.00960674)
(1.98608e-07 5.86452e-07 0.00293707)
(-3.59752e-06 1.52351e-06 0.0412867)
(-2.04041e-06 3.31946e-07 0.0278877)
(-1.14104e-06 -2.00207e-07 0.0173449)
(-5.88346e-07 -3.07272e-07 0.00913416)
(-1.66291e-07 -1.14957e-07 0.00277297)
(-1.09737e-06 1.87849e-06 0.042291)
(-8.84483e-07 5.80444e-07 0.0287383)
(-6.3236e-07 -2.41946e-08 0.0179768)
(-3.93189e-07 -1.92092e-07 0.00951806)
(-1.22961e-07 -7.44103e-08 0.00290651)
(-6.1137e-06 -1.14777e-06 0.0422955)
(-3.92507e-06 -1.23702e-06 0.028741)
(-2.41393e-06 -1.12869e-06 0.0179783)
(-1.26345e-06 -7.82813e-07 0.00951893)
(-4.5135e-07 -3.00553e-07 0.00290688)
(7.10966e-05 -0.000120541 0.135332)
(-0.000267731 -0.000270808 0.130127)
(7.51477e-05 7.86296e-05 0.141547)
(-0.000104445 6.71465e-05 0.134969)
(6.55117e-05 -0.000112318 0.135225)
(-0.00025484 -0.000259658 0.130129)
(6.73128e-05 6.95916e-05 0.141883)
(-9.35397e-05 6.12364e-05 0.135047)
(6.04376e-05 -0.000100006 0.135314)
(-0.000239597 -0.000242464 0.130101)
(5.57172e-05 5.76992e-05 0.142158)
(-7.64988e-05 5.13799e-05 0.135088)
(5.16009e-05 -8.19843e-05 0.135359)
(-0.00021844 -0.0002198 0.130055)
(4.20086e-05 4.32969e-05 0.142352)
(-5.30675e-05 3.91585e-05 0.135088)
(3.97045e-05 -5.8469e-05 0.13536)
(-0.000198494 -0.00019876 0.129992)
(2.97936e-05 3.034e-05 0.142469)
(-3.25109e-05 2.47654e-05 0.135069)
(2.50223e-05 -3.59063e-05 0.135339)
(-0.000180223 -0.000178248 0.129924)
(2.0786e-05 2.06553e-05 0.142522)
(-1.95951e-05 1.11224e-05 0.135023)
(1.46134e-05 -2.08282e-05 0.135294)
(-0.000168886 -0.000164937 0.129862)
(1.40425e-05 1.41308e-05 0.142542)
(-1.0322e-05 1.2217e-06 0.134944)
(7.65511e-06 -1.28569e-05 0.135226)
(-0.00016286 -0.0001571 0.129808)
(9.51247e-06 9.65631e-06 0.142552)
(-7.80986e-06 2.13779e-06 0.134875)
(5.20462e-06 -6.45599e-06 0.135168)
(-0.000160832 -0.000157753 0.129773)
(5.66308e-06 6.90461e-06 0.14255)
(-1.89246e-06 2.37596e-06 0.134834)
(3.63305e-06 -3.00565e-06 0.135133)
(-0.000158995 -0.000156981 0.12976)
(2.94491e-06 4.08813e-06 0.142541)
(4.85761e-07 1.69549e-06 0.134813)
(3.21194e-06 -2.13143e-06 0.135114)
(-0.000157532 -0.000157538 0.129758)
(2.7477e-06 3.92227e-06 0.142534)
(4.67979e-07 2.30914e-06 0.134808)
(3.55141e-06 -1.7272e-06 0.135097)
(-0.000157368 -0.000157226 0.129765)
(7.73014e-07 2.21069e-06 0.14253)
(1.45033e-06 1.70448e-06 0.134804)
(3.42298e-06 -2.82317e-06 0.135085)
(-0.000158346 -0.000155949 0.129762)
(9.79523e-07 4.25305e-06 0.142525)
(5.60357e-08 2.77987e-06 0.134805)
(2.40548e-06 -3.01668e-06 0.13508)
(-0.000160288 -0.000157206 0.129763)
(1.65339e-07 3.17704e-06 0.142525)
(2.94121e-07 2.85131e-06 0.134807)
(2.12507e-06 -2.18171e-06 0.13508)
(-0.000157591 -0.000156586 0.129763)
(1.29812e-06 2.76817e-06 0.142528)
(9.27792e-07 -2.74262e-07 0.134804)
(2.24655e-06 -2.22875e-06 0.135081)
(-0.000159364 -0.000157193 0.129759)
(1.79096e-06 3.29737e-06 0.142535)
(2.28164e-06 -1.395e-06 0.135133)
(1.54439e-06 8.22842e-07 0.135339)
(-0.000158967 -0.000157818 0.130026)
(0.000261494 -0.00026261 0.130137)
(-0.000103264 9.77478e-05 0.12998)
(-6.78278e-05 -0.000123982 0.135137)
(6.68974e-05 -0.000116501 0.135205)
(-6.58959e-05 -0.00011444 0.135225)
(0.000108062 0.000103332 0.12997)
(0.000259021 0.000263717 0.130138)
(-0.000114876 -0.00011223 0.129933)
(6.70927e-05 0.00011444 0.135245)
(-6.60171e-05 0.000113358 0.135248)
(6.47153e-05 0.000104543 0.135306)
(-6.42474e-05 0.000104231 0.135314)
(-0.000256308 0.000258972 0.13012)
(0.000112585 -0.000111696 0.129931)
(0.000108898 6.97071e-05 0.134982)
(0.00011153 -6.88113e-05 0.134995)
(9.88011e-05 6.5603e-05 0.135042)
(0.000100003 -6.61887e-05 0.13505)
(-0.000107378 -6.80719e-05 0.134996)
(-9.6834e-05 6.3044e-05 0.135031)
(-9.83197e-05 -6.51045e-05 0.135062)
(0.000259142 -0.000263364 0.130134)
(-0.000113897 0.000110343 0.12993)
(-6.35289e-05 -0.000111258 0.135251)
(6.23675e-05 -0.000102699 0.135298)
(-6.20336e-05 -0.000103425 0.135318)
(0.000114047 0.000111674 0.129943)
(0.000239544 0.000241377 0.130085)
(-0.000125981 -0.000124231 0.129873)
(6.26464e-05 0.000101832 0.13532)
(-6.18653e-05 0.000101501 0.135331)
(5.42845e-05 8.65536e-05 0.135358)
(-5.43105e-05 8.6427e-05 0.135369)
(-0.000239716 0.000240659 0.130084)
(0.000127452 -0.000125975 0.12988)
(9.62582e-05 6.33231e-05 0.135055)
(9.6583e-05 -6.41593e-05 0.135063)
(8.06618e-05 5.37933e-05 0.13509)
(8.34757e-05 -5.73975e-05 0.13509)
(-9.53765e-05 -6.28729e-05 0.135078)
(-8.07127e-05 5.41635e-05 0.135085)
(-8.08223e-05 -5.52259e-05 0.135115)
(0.000239023 -0.000242583 0.130083)
(-0.000125696 0.00012438 0.129871)
(-6.11253e-05 -0.00010169 0.135334)
(5.35268e-05 -8.5345e-05 0.135353)
(-5.3566e-05 -8.70974e-05 0.135373)
(0.000125913 0.000125397 0.1299)
(0.000218969 0.0002195 0.130024)
(-0.000140687 -0.000140763 0.129809)
(5.18981e-05 8.23506e-05 0.135363)
(-5.09067e-05 8.16884e-05 0.135374)
(4.27384e-05 6.57141e-05 0.135362)
(-4.2915e-05 6.6513e-05 0.135378)
(-0.000217668 0.000219211 0.130032)
(0.000138669 -0.000137435 0.129818)
(7.57658e-05 5.05362e-05 0.135094)
(7.8403e-05 -5.30588e-05 0.135093)
(6.03583e-05 4.12108e-05 0.135092)
(5.97127e-05 -4.14487e-05 0.135095)
(-7.73839e-05 -5.23582e-05 0.135119)
(-5.81512e-05 4.22652e-05 0.135094)
(-5.81816e-05 -4.08309e-05 0.135129)
(0.000220057 -0.000220179 0.130024)
(-0.000138833 0.000140279 0.129806)
(-5.06214e-05 -8.20163e-05 0.13538)
(4.4084e-05 -6.47247e-05 0.135364)
(-4.11734e-05 -6.37413e-05 0.13539)
(0.000139604 0.000139958 0.12984)
(0.00019664 0.000195023 0.12996)
(-0.000151905 -0.000152061 0.129749)
(3.9877e-05 6.08864e-05 0.135356)
(-3.91109e-05 6.23652e-05 0.135369)
(2.96146e-05 4.30453e-05 0.135333)
(-2.89378e-05 4.33444e-05 0.135347)
(-0.000197758 0.000198813 0.129968)
(0.000151548 -0.000151333 0.129754)
(5.5753e-05 3.77022e-05 0.135084)
(5.7319e-05 -3.81277e-05 0.13509)
(3.89199e-05 2.72861e-05 0.135056)
(4.07772e-05 -2.7443e-05 0.135066)
(-5.46103e-05 -3.79836e-05 0.135126)
(-3.62204e-05 2.81862e-05 0.13508)
(-3.79682e-05 -2.77528e-05 0.135114)
(0.000198994 -0.000196465 0.129959)
(-0.00015177 0.000153728 0.129744)
(-3.78882e-05 -5.87485e-05 0.135386)
(2.81009e-05 -3.95106e-05 0.135348)
(-2.86434e-05 -4.18445e-05 0.135366)
(0.000151487 0.000153881 0.129772)
(0.000180068 0.000178464 0.129898)
(-0.000161003 -0.000161989 0.129692)
(2.58621e-05 3.84718e-05 0.135321)
(-2.57603e-05 3.94535e-05 0.135333)
(1.67545e-05 2.32145e-05 0.135283)
(-1.74433e-05 2.34904e-05 0.135292)
(-0.000179241 0.000178949 0.129902)
(0.000159353 -0.00016402 0.129692)
(3.46867e-05 2.31102e-05 0.135042)
(3.65293e-05 -2.37939e-05 0.135056)
(2.18346e-05 1.4444e-05 0.135001)
(2.13215e-05 -1.45178e-05 0.135019)
(-3.50143e-05 -2.57146e-05 0.135101)
(-2.07918e-05 1.38479e-05 0.135042)
(-2.32007e-05 -1.7211e-05 0.135063)
(0.000179831 -0.00017771 0.129896)
(-0.000160704 0.000161997 0.129688)
(-2.58455e-05 -3.71347e-05 0.135352)
(1.74736e-05 -2.36723e-05 0.135308)
(-1.6671e-05 -2.15421e-05 0.135313)
(0.000159943 0.000163598 0.129711)
(0.000167721 0.000166058 0.129843)
(-0.000164035 -0.000166269 0.129653)
(1.49917e-05 2.14285e-05 0.135268)
(-1.56526e-05 2.05843e-05 0.135275)
(9.16853e-06 1.25966e-05 0.135233)
(-1.24502e-05 1.11022e-05 0.135236)
(-0.000167658 0.000161982 0.12984)
(0.000162485 -0.000169574 0.129645)
(1.88641e-05 1.19292e-05 0.134985)
(1.85486e-05 -1.24553e-05 0.135003)
(9.81656e-06 5.74567e-06 0.134947)
(9.85208e-06 -8.18467e-06 0.134957)
(-2.17508e-05 -1.41557e-05 0.135044)
(-1.07872e-05 1.82249e-06 0.134968)
(-1.32129e-05 -5.56857e-06 0.134993)
(0.000167787 -0.000166091 0.129838)
(-0.000164856 0.000164187 0.129635)
(-1.48983e-05 -1.97275e-05 0.135297)
(8.04218e-06 -1.24982e-05 0.135247)
(-1.01827e-05 -9.54024e-06 0.135254)
(0.000163357 0.000169636 0.129657)
(0.000162255 0.00015981 0.129806)
(-0.00016486 -0.000165936 0.129628)
(7.85355e-06 1.06982e-05 0.135218)
(-1.12483e-05 1.03105e-05 0.135222)
(4.92139e-06 6.47334e-06 0.135192)
(-7.29618e-06 3.8218e-06 0.135193)
(-0.000163643 0.000156966 0.129794)
(0.000164591 -0.00016756 0.129615)
(9.95843e-06 5.85567e-06 0.134932)
(9.53079e-06 -7.42837e-06 0.134936)
(4.00398e-06 2.05873e-06 0.134905)
(5.68487e-06 -5.57865e-06 0.134897)
(-1.23942e-05 -4.42728e-06 0.13497)
(-6.19759e-06 3.67405e-07 0.134894)
(-6.48737e-06 -2.16706e-06 0.134917)
(0.00016094 -0.00016089 0.129787)
(-0.000164815 0.000166205 0.129605)
(-9.48019e-06 -9.2371e-06 0.135238)
(6.06164e-06 -7.40564e-06 0.135181)
(-6.70763e-06 -4.3999e-06 0.135202)
(0.000163474 0.000167864 0.129619)
(0.000160108 0.000157428 0.129782)
(-0.00016447 -0.000166656 0.129614)
(5.39302e-06 6.47403e-06 0.135179)
(-6.10286e-06 3.73489e-06 0.135183)
(4.86039e-06 3.71461e-06 0.135158)
(-5.80968e-06 4.2079e-06 0.135163)
(-0.000160519 0.000157849 0.129766)
(0.000163881 -0.00016495 0.129598)
(3.86509e-06 1.57783e-06 0.134894)
(6.79374e-06 -5.16639e-06 0.134883)
(1.81472e-06 1.65191e-06 0.134876)
(2.74606e-06 -2.32563e-06 0.134862)
(-6.69304e-06 -2.87227e-06 0.134897)
(-2.67232e-06 2.02156e-06 0.134846)
(-1.44052e-06 -9.0002e-07 0.134869)
(0.000159271 -0.000156826 0.129761)
(-0.000164262 0.000165969 0.129592)
(-6.64829e-06 -5.23168e-06 0.135188)
(3.47996e-06 -2.62994e-06 0.135144)
(-4.69752e-06 -3.29994e-06 0.135165)
(0.000164017 0.000166484 0.129604)
(0.000159454 0.000156443 0.129769)
(-0.000165882 -0.000165469 0.129604)
(4.86227e-06 3.94089e-06 0.135147)
(-5.7072e-06 5.6683e-06 0.135151)
(3.64427e-06 2.14009e-06 0.135136)
(-3.42962e-06 3.80086e-06 0.135138)
(-0.000158306 0.000158106 0.129751)
(0.000165916 -0.000165202 0.129591)
(3.60708e-06 2.99088e-06 0.134866)
(3.01699e-06 -1.60902e-06 0.134852)
(1.24529e-07 1.00728e-06 0.134854)
(9.35513e-07 -1.51339e-06 0.134844)
(-1.80941e-06 -9.86221e-07 0.134856)
(5.34321e-07 1.5924e-06 0.134823)
(3.42729e-07 -9.62797e-07 0.134847)
(0.000158589 -0.00015617 0.129749)
(-0.000163349 0.000165619 0.129583)
(-4.70785e-06 -5.06482e-06 0.135154)
(3.12717e-06 -8.42748e-07 0.135122)
(-3.32816e-06 -3.12895e-06 0.135141)
(0.000164641 0.000165163 0.129602)
(0.000158163 0.000157515 0.129759)
(-0.000165151 -0.000162626 0.129599)
(3.92341e-06 3.91021e-06 0.135126)
(-3.75148e-06 4.74266e-06 0.135125)
(2.9654e-06 2.25072e-06 0.135123)
(-2.56319e-06 4.46539e-06 0.135125)
(-0.00015665 0.000157483 0.129744)
(0.000164952 -0.000163486 0.12959)
(8.70353e-07 8.12472e-07 0.134845)
(2.58302e-06 -2.05116e-06 0.134834)
(-8.01525e-07 1.43095e-06 0.134842)
(-8.98697e-07 4.27534e-07 0.134831)
(-7.77701e-07 -6.59944e-07 0.134837)
(3.43893e-06 4.78325e-07 0.134814)
(4.89621e-08 -1.81752e-06 0.134839)
(0.000158214 -0.000155828 0.129737)
(-0.000162739 0.000164622 0.129577)
(-2.37018e-06 -4.06817e-06 0.135132)
(3.5183e-06 -1.40107e-06 0.135106)
(-1.36108e-06 -8.17697e-07 0.135129)
(0.000164639 0.000165422 0.129608)
(0.000156592 0.00015808 0.129753)
(-0.000164573 -0.000161746 0.129594)
(4.62917e-06 4.51925e-06 0.13511)
(-2.4295e-06 5.43714e-06 0.135113)
(2.32211e-06 3.68149e-06 0.135112)
(-1.66903e-06 2.78221e-06 0.135119)
(-0.000156987 0.000158062 0.129742)
(0.000164846 -0.000163947 0.129594)
(7.54711e-07 2.59024e-06 0.134831)
(2.32488e-06 -1.6432e-06 0.134819)
(-2.37032e-06 1.20056e-07 0.134836)
(-2.52558e-07 -3.64441e-07 0.13482)
(-1.2042e-06 -1.79091e-06 0.134829)
(2.16309e-06 1.04574e-06 0.134814)
(7.95415e-07 -6.33866e-07 0.134838)
(0.000158063 -0.000155299 0.129732)
(-0.00016424 0.00016479 0.129575)
(-1.58768e-06 -2.28522e-06 0.135122)
(4.25957e-06 -1.48086e-06 0.135094)
(-1.91422e-06 -1.08651e-07 0.135125)
(0.000163379 0.000166333 0.129608)
(0.000156752 0.000158113 0.129747)
(-0.000163981 -0.000161799 0.129599)
(3.82613e-06 5.50851e-06 0.135097)
(-3.03739e-06 4.80719e-06 0.135107)
(4.30013e-07 2.96445e-06 0.135108)
(-1.56832e-06 3.19175e-06 0.135119)
(-0.000157735 0.000158014 0.129745)
(0.00016401 -0.000162685 0.1296)
(-7.46067e-07 1.06993e-06 0.134826)
(3.08619e-07 -4.91891e-07 0.134805)
(-2.4431e-06 1.1095e-06 0.134835)
(-1.70212e-06 -2.04018e-07 0.134815)
(-9.57793e-07 -2.09422e-06 0.134824)
(2.1594e-06 9.9717e-07 0.134822)
(1.14481e-06 1.37285e-07 0.134837)
(0.000157182 -0.000155518 0.12973)
(-0.000163814 0.000164115 0.129577)
(-2.35874e-06 -1.59841e-06 0.135117)
(2.56675e-06 -9.7306e-07 0.135092)
(-3.47586e-06 -1.03156e-06 0.135124)
(0.000162451 0.000165803 0.129609)
(0.000156064 0.000156459 0.129745)
(-0.00016276 -0.000161565 0.129612)
(2.90645e-06 5.51072e-06 0.13509)
(-3.09864e-06 4.06488e-06 0.135099)
(1.41581e-06 3.45423e-06 0.135108)
(-2.36216e-06 3.33767e-06 0.13512)
(-0.000157519 0.000158143 0.129746)
(0.000161576 -0.000160502 0.129612)
(-8.52892e-07 2.34664e-06 0.13482)
(3.73644e-07 -9.14931e-07 0.134798)
(-4.15747e-07 1.78788e-06 0.134835)
(4.46062e-07 -1.20096e-06 0.134821)
(-3.90338e-07 -7.19537e-07 0.134821)
(1.63836e-06 1.72801e-06 0.134825)
(-3.86933e-07 -1.20736e-06 0.134845)
(0.000156802 -0.000155953 0.12973)
(-0.000163944 0.000163573 0.129587)
(-4.1773e-06 -2.78387e-06 0.135115)
(2.30997e-06 -1.52254e-06 0.135094)
(-1.47516e-06 1.33197e-06 0.135133)
(0.000163256 0.000164495 0.129615)
(0.000156539 0.00015586 0.129746)
(-0.000161502 -0.000160104 0.129645)
(3.41139e-06 4.29843e-06 0.135084)
(-4.4594e-06 4.95876e-06 0.135096)
(4.06905e-06 4.96242e-06 0.135121)
(-3.55256e-06 3.06256e-06 0.135126)
(-0.000157309 0.000157137 0.129743)
(0.000160515 -0.000160551 0.129639)
(6.83674e-07 2.50532e-06 0.134813)
(2.04073e-06 -2.56333e-06 0.134795)
(-8.54972e-07 6.12956e-07 0.134844)
(-4.83963e-08 -1.48514e-06 0.134835)
(-9.02678e-07 -1.3248e-06 0.134821)
(-3.09326e-07 1.16583e-06 0.134836)
(-1.79056e-06 -1.75568e-06 0.13486)
(0.000156218 -0.000156291 0.129738)
(-0.000161325 0.000162655 0.129603)
(-2.74274e-06 -2.74296e-06 0.135121)
(3.0655e-06 -3.00107e-06 0.135104)
(-3.63237e-06 -1.90068e-06 0.135142)
(0.00016185 0.000164673 0.129633)
(0.000157061 0.000156605 0.129729)
(-0.000158659 -0.000161447 0.129645)
(2.7602e-06 3.42448e-06 0.135086)
(-3.47345e-06 3.98852e-06 0.135094)
(9.85163e-06 4.27636e-06 0.134795)
(-1.13827e-05 4.92371e-06 0.134795)
(-0.000157073 0.000155543 0.12972)
(0.000158725 -0.000161121 0.129643)
(-1.55448e-06 7.38338e-07 0.134812)
(-1.3074e-06 -5.23988e-07 0.134799)
(4.74692e-06 5.01404e-06 0.134856)
(5.85373e-06 -5.06816e-06 0.134849)
(-2.28666e-07 -6.39462e-07 0.134824)
(-3.71154e-06 3.84426e-06 0.134847)
(-5.61327e-06 -3.87014e-06 0.134878)
(0.000157567 -0.000156144 0.129732)
(-0.000161605 0.000164718 0.129625)
(-3.6593e-06 -2.78487e-06 0.135121)
(4.82001e-06 -4.86594e-06 0.135114)
(-3.84962e-06 -4.08688e-06 0.135154)
(0.000163236 0.000166037 0.129667)
(-2.21653e-06 4.06888e-06 0.134782)
(-0.000159925 0.000157717 0.12971)
(-2.39484e-07 -8.6683e-07 0.135137)
(-1.71161e-07 1.90848e-06 0.135174)
(3.16348e-06 4.0945e-06 0.135204)
(0.000159983 -0.000159089 0.130005)
(-1.39779e-06 -4.85783e-07 0.13538)
(2.81577e-05 -7.96253e-06 0.0611007)
(5.7117e-06 3.27841e-06 0.0610537)
(5.58052e-07 -3.37889e-05 0.117513)
(2.57273e-05 -0.000136998 0.138742)
(3.51293e-05 -9.05015e-05 0.100889)
(7.17484e-05 -0.000120486 0.135353)
(-2.17268e-05 -3.14772e-05 0.10078)
(2.3358e-06 -0.000135468 0.117733)
(2.33075e-05 -0.000136851 0.138747)
(-3.76556e-05 -2.65649e-05 0.0849564)
(-2.90308e-05 -4.48052e-05 0.0851696)
(0.000106975 9.98912e-05 0.129973)
(1.90864e-05 -3.0449e-05 0.0848776)
(-2.18946e-05 -4.44593e-06 0.0845077)
(-1.63098e-06 -6.14635e-06 0.0977663)
(1.16422e-06 5.46537e-05 0.071399)
(-1.24472e-05 -1.81155e-06 0.0712688)
(-8.22033e-07 8.86913e-05 0.0980159)
(-7.39127e-06 2.71398e-05 0.0609629)
(9.45637e-06 1.14256e-05 0.0608433)
(2.73663e-06 -6.56831e-07 0.0966554)
(4.91441e-05 -8.66798e-06 0.0711556)
(9.23277e-07 -5.39915e-06 0.070826)
(8.02345e-05 -1.9514e-06 0.0973772)
(-7.55189e-05 7.80073e-05 0.141545)
(7.49448e-05 -7.68704e-05 0.141547)
(-7.44154e-05 -7.78673e-05 0.14156)
(6.99575e-05 7.26345e-05 0.141806)