/*--------------------------------*- C++ -*----------------------------------*\
| =========                 |                                                 |
| \\      /  F ield         | OpenFOAM: The Open Source CFD Toolbox           |
|  \\    /   O peration     | Version:  2206                                  |
|   \\  /    A nd           | Website:  www.openfoam.com                      |
|    \\/     M anipulation  |                                                 |
\*---------------------------------------------------------------------------*/
FoamFile
{
    version     2.0;
    format      ascii;
    arch        "LSB;label=32;scalar=64";
    class       volVectorField;
    location    "100";
    object      wallShearStress;
}
// * * * * * * * * * * * * * * * * * * * * * * * * * * * * * * * * * * * * * //

dimensions      [0 2 -2 0 0 0 0];

internalField   uniform (0 0 0);

boundaryField
{
    topPatch
    {
        type            calculated;
        value           nonuniform List<vector> 0();
    }
    wall
    {
        type            calculated;
        value           nonuniform List<vector> 
7718
(
(-1.58292e-09 6.26056e-09 -0.000112269)
(-5.58864e-09 2.11497e-08 -0.000112187)
(-6.4931e-09 6.55275e-09 -0.000105537)
(-5.88706e-09 -2.96849e-09 -0.000105611)
(-3.006e-09 -5.58681e-09 -0.000112332)
(-7.33672e-09 -2.0536e-08 -0.000112245)
(-3.55123e-09 1.39067e-08 -0.000107154)
(-1.1266e-09 8.89694e-09 -0.000108583)
(-2.33212e-09 -1.4498e-08 -0.000107196)
(-8.82818e-10 2.29347e-09 -0.000108596)
(-2.93432e-08 9.08264e-09 -0.000112174)
(-3.44141e-09 6.24303e-09 -0.000112253)
(-2.79973e-08 5.98107e-09 -0.000105437)
(-8.9399e-09 7.76354e-09 -0.00010553)
(-6.28943e-09 -2.29601e-09 -0.000105607)
(-2.41616e-09 -3.63885e-09 -0.000112322)
(-4.8026e-10 4.95554e-11 -0.000112132)
(3.09592e-09 -1.15082e-08 -0.000106988)
(-1.4524e-09 5.29093e-09 -0.000108595)
(-4.31126e-09 1.68287e-08 -0.000107163)
(-4.17753e-10 -1.51723e-09 -0.000108392)
(1.57807e-09 4.82493e-09 -0.000105435)
(8.14483e-10 9.27429e-09 -0.000107022)
(-2.12868e-09 -2.13897e-09 -0.000108608)
(-4.49964e-09 -1.36663e-08 -0.000107206)
(-3.48205e-11 5.27449e-09 -0.000108406)
(3.66626e-09 6.47967e-10 -0.0001055)
(1.80747e-09 2.19787e-09 -0.000112198)
(1.61225e-08 4.76895e-09 -0.000105985)
(1.53855e-08 4.01611e-09 -0.000112203)
(-2.63527e-08 1.60915e-08 -0.000111118)
(-1.86057e-08 1.11587e-08 -0.000105965)
(2.22716e-09 1.27903e-09 -0.000105942)
(-5.57811e-09 6.31333e-09 -0.000111149)
(-1.28879e-08 9.71747e-09 -0.000105973)
(6.69637e-09 -9.52531e-10 -0.000105898)
(1.76485e-08 -9.49947e-09 -0.000111063)
(2.37611e-10 1.93444e-09 -0.000111051)
(4.41121e-09 -8.66962e-09 -0.000112059)
(-9.62821e-09 2.57599e-08 -0.000112185)
(2.86036e-09 8.60852e-09 -0.000112113)
(-8.83579e-09 -2.21655e-08 -0.000112251)
(7.17905e-09 3.88194e-09 -0.000105945)
(5.14797e-09 2.54569e-09 -0.000111113)
(1.79198e-08 1.08713e-08 -0.000111121)
(-1.0747e-08 -6.07129e-09 -0.000114462)
(-9.19042e-09 -2.29071e-08 -0.000114156)
(1.34461e-08 -1.65295e-08 -0.000107106)
(4.42181e-08 -1.41017e-08 -0.000107016)
(-1.24678e-09 -9.84683e-09 -0.000113891)
(-3.60397e-08 -1.90294e-08 -0.000113735)
(-1.75207e-08 2.40033e-08 -0.000107263)
(-6.7778e-09 2.03743e-08 -0.000107016)
(-9.44308e-09 -5.16805e-09 -0.000114045)
(-1.67196e-09 1.64874e-10 -0.000113776)
(2.37849e-09 -1.04281e-08 -0.000106666)
(3.79046e-08 -1.27057e-08 -0.000106573)
(3.4024e-09 -5.79049e-09 -0.000113436)
(-1.98983e-08 -9.45734e-09 -0.000113283)
(-1.4939e-08 1.89241e-08 -0.000106841)
(-6.37724e-09 1.56456e-08 -0.00010658)
(-1.18653e-08 -1.13501e-08 -0.000113626)
(-7.69466e-09 -1.08221e-08 -0.000113342)
(-1.20516e-09 -9.82901e-09 -0.000106236)
(3.42497e-08 -1.19765e-08 -0.000106151)
(7.82021e-09 -3.91889e-09 -0.000113015)
(-1.95198e-08 -1.05609e-08 -0.000112876)
(-1.47803e-08 2.02545e-08 -0.00010643)
(-7.16335e-09 1.71341e-08 -0.000106183)
(-1.26606e-08 -1.27893e-08 -0.000113196)
(-8.30687e-09 -1.22765e-08 -0.000112921)
(-4.90176e-09 -7.4412e-09 -0.000105869)
(2.62039e-08 -7.00675e-09 -0.000105825)
(1.41395e-08 -1.56156e-09 -0.000112649)
(-1.38092e-08 -5.96963e-09 -0.000112543)
(-1.16752e-08 1.47687e-08 -0.00010608)
(-5.06687e-09 1.18865e-08 -0.000105857)
(-1.19756e-08 -1.1746e-08 -0.000112828)
(-2.43984e-09 -7.09383e-10 -0.000112583)
(-6.33962e-09 -4.93026e-09 -0.000105614)
(2.25068e-08 -6.07327e-09 -0.000105611)
(1.6372e-08 3.10676e-09 -0.000112397)
(-1.34453e-08 -6.61782e-09 -0.000112339)
(-9.20357e-09 1.20434e-08 -0.000105822)
(-1.05066e-09 5.83927e-09 -0.00010564)
(-1.08935e-08 -1.11393e-08 -0.000112562)
(-9.10274e-10 -2.86711e-09 -0.000112376)
(-1.52165e-08 -6.30225e-10 -0.000105492)
(1.76186e-08 -3.0607e-09 -0.000105525)
(2.08658e-08 5.40708e-09 -0.00011227)
(-1.1213e-08 -2.30072e-09 -0.000112242)
(-4.71179e-09 2.88242e-09 -0.000105663)
(1.19723e-09 1.19592e-09 -0.000105521)
(-5.24732e-09 -3.54235e-09 -0.000112427)
(1.46661e-09 2.76495e-10 -0.000112272)
(-1.95898e-08 1.71789e-09 -0.000105457)
(1.51599e-08 -5.91574e-10 -0.000105515)
(1.62255e-08 4.91485e-09 -0.000112225)
(-1.41523e-08 -4.58698e-09 -0.000112213)
(-6.12666e-09 5.18315e-09 -0.000105602)
(3.9374e-10 3.84514e-09 -0.000105487)
(-3.6706e-09 -3.05784e-09 -0.000112374)
(3.58002e-09 5.24931e-09 -0.000112235)
(-1.85422e-08 2.23219e-09 -0.000105452)
(1.89021e-08 -1.68129e-09 -0.000105515)
(1.62668e-08 4.15305e-09 -0.000112206)
(-1.50905e-08 -3.38465e-09 -0.000112209)
(-4.94368e-09 2.7033e-09 -0.00010558)
(1.88955e-09 2.39373e-09 -0.000105467)
(-7.38521e-09 -8.85474e-09 -0.000112356)
(-1.68638e-09 -4.47579e-09 -0.000112228)
(-1.53759e-08 1.31243e-09 -0.000105468)
(2.55325e-08 -4.98015e-09 -0.000105522)
(9.79184e-09 1.88875e-09 -0.000112215)
(-1.8367e-08 -5.30191e-09 -0.000112219)
(-2.08735e-09 -2.22372e-09 -0.000105569)
(2.78409e-09 8.44652e-10 -0.000105454)
(-1.01654e-09 -5.37733e-10 -0.000112342)
(4.6215e-09 3.82118e-09 -0.000112208)
(-1.10639e-08 -4.85611e-10 -0.000105459)
(2.79494e-08 -5.86647e-09 -0.000105512)
(1.13937e-08 3.48106e-09 -0.000112205)
(-1.10968e-08 -8.13745e-10 -0.000112201)
(6.93373e-10 -4.83177e-09 -0.000105556)
(5.36549e-09 -3.90936e-09 -0.00010545)
(-1.91305e-09 -7.34903e-10 -0.000112334)
(6.10565e-09 7.75829e-09 -0.000112203)
(-8.36301e-09 -2.58795e-09 -0.00010544)
(2.54509e-08 -3.7791e-09 -0.000105502)
(1.78491e-08 6.59095e-09 -0.000112179)
(-1.30476e-08 -2.19038e-09 -0.000112183)
(-3.57314e-10 -5.41488e-09 -0.000105553)
(5.02899e-09 -6.21596e-09 -0.000105445)
(-1.92691e-09 -1.02563e-09 -0.000112329)
(5.24011e-09 5.21075e-09 -0.0001122)
(-1.49894e-08 1.32717e-10 -0.000105434)
(1.60448e-08 -3.18576e-10 -0.000105503)
(2.55683e-08 9.75591e-09 -0.000112158)
(2.61519e-10 5.07371e-09 -0.000112169)
(1.08749e-09 -1.02325e-08 -0.000105551)
(2.71113e-09 -1.2199e-09 -0.000105444)
(2.34674e-09 7.48357e-09 -0.000112325)
(5.41865e-09 7.72873e-09 -0.000112197)
(-1.80327e-08 -2.45213e-10 -0.000105406)
(1.79559e-08 -8.76716e-10 -0.0001055)
(1.57698e-08 3.70046e-09 -0.000112133)
(-2.05632e-08 -6.43686e-09 -0.000112179)
(-2.79188e-09 -1.02122e-09 -0.000105541)
(2.87892e-09 3.04741e-10 -0.000105448)
(-3.10141e-09 -3.85445e-09 -0.000112327)
(5.40224e-09 6.99184e-09 -0.000112215)
(-1.96733e-08 7.49434e-10 -0.000105384)
(8.39789e-09 3.29842e-09 -0.000105507)
(1.99881e-08 4.27992e-09 -0.000112116)
(-1.16638e-08 -2.32195e-11 -0.0001122)
(-5.5941e-09 1.12692e-09 -0.000105538)
(4.59414e-09 -4.30705e-09 -0.000105462)
(-3.51124e-09 -1.11267e-09 -0.000112313)
(-1.6189e-10 -2.45357e-09 -0.00011221)
(-1.83193e-09 -7.25336e-09 -0.000105334)
(4.18694e-08 -9.51791e-09 -0.000105482)
(1.15137e-08 -8.15255e-10 -0.00011208)
(-3.26238e-08 -1.16035e-08 -0.000112181)
(-5.57811e-09 1.49029e-09 -0.000105537)
(3.86806e-09 -5.36694e-10 -0.000105444)
(-5.49529e-09 -4.06243e-09 -0.000112309)
(1.16611e-09 -3.537e-09 -0.000112203)
(3.56509e-08 1.28215e-08 -0.000112168)
(-7.20152e-09 2.12163e-09 -0.00010547)
(-5.91659e-09 7.00022e-10 -0.000112253)
(1.25368e-08 1.89184e-08 -0.00011436)
(3.96256e-08 1.99692e-08 -0.000114235)
(-4.21137e-09 -4.9004e-09 -0.000114005)
(-1.91433e-08 -2.78263e-08 -0.000114236)
(3.80828e-08 2.06916e-08 -0.00011402)
(-2.5425e-09 6.52271e-09 -0.000114137)
(2.02572e-08 2.06321e-08 -0.00010758)
(5.13518e-08 1.66419e-08 -0.000107517)
(-1.06416e-08 1.56041e-08 -0.000107594)
(-4.21766e-08 1.20021e-08 -0.000107494)
(4.02115e-08 1.28427e-08 -0.00010729)
(3.09362e-09 1.13781e-08 -0.00010736)
(-3.86381e-08 1.32576e-08 -0.000107266)
(-3.18691e-09 1.05515e-08 -0.00010736)
(6.26678e-09 -1.1232e-10 -0.000114473)
(-9.06483e-10 3.7769e-09 -0.000114229)
(-1.18286e-08 1.57271e-08 -0.000114369)
(-4.21725e-08 2.04751e-08 -0.000114202)
(5.50539e-09 -8.96597e-09 -0.000113986)
(1.25858e-08 -9.04348e-09 -0.000114269)
(-2.58702e-08 1.3826e-08 -0.000113985)
(-1.48621e-09 8.54268e-09 -0.000114127)
(6.40714e-09 -1.25868e-08 -0.000113897)
(3.87696e-08 -1.93552e-08 -0.000113755)
(-1.73463e-08 2.04524e-08 -0.000114014)
(-8.90058e-09 1.39477e-08 -0.000113747)
(3.18791e-08 -1.71326e-08 -0.000113521)
(6.66159e-09 -1.11524e-08 -0.000113681)
(-8.74324e-09 1.37482e-08 -0.000113518)
(-1.56996e-08 1.49167e-08 -0.000113801)
(-4.96921e-09 -1.17417e-08 -0.000107122)
(-3.71403e-08 -1.28354e-08 -0.00010702)
(3.91172e-08 -1.33141e-08 -0.000106789)
(9.71791e-09 -1.31525e-08 -0.000106889)
(-3.39423e-08 -1.15411e-08 -0.000106789)
(-1.40806e-09 -9.84034e-09 -0.00010689)
(2.07331e-08 2.99717e-08 -0.000114089)
(1.4952e-08 2.35531e-08 -0.000113811)
(-3.21292e-08 -1.65567e-08 -0.000113506)
(-1.6041e-09 -9.4826e-09 -0.000113659)
(9.62045e-09 1.44115e-08 -0.000113581)
(2.1435e-08 2.80698e-08 -0.000113862)
(-1.31199e-08 -1.30188e-08 -0.000107294)
(-5.53184e-09 -1.21139e-08 -0.000107041)
(-7.05422e-09 2.0186e-08 -0.000106796)
(-1.52896e-08 1.75527e-08 -0.000107051)
(-5.82969e-09 -1.5056e-08 -0.000106835)
(-1.09742e-08 -1.09555e-08 -0.000107089)
(1.55923e-08 2.50068e-08 -0.000107342)
(1.03362e-08 2.93081e-08 -0.000107088)
(1.31734e-08 -1.4607e-08 -0.000107304)
(5.07335e-09 -1.2849e-08 -0.000107045)
(9.32151e-09 2.36608e-08 -0.000106861)
(1.8324e-08 2.79913e-08 -0.00010712)
(6.57467e-09 -1.42833e-08 -0.000106816)
(1.24348e-08 -1.43501e-08 -0.000107085)
(3.73242e-09 1.05942e-08 -0.000113926)
(3.18003e-08 1.64078e-08 -0.000113779)
(-4.31972e-09 -5.08997e-09 -0.000113563)
(-8.25535e-09 -4.11958e-09 -0.000113838)
(3.3529e-08 1.68995e-08 -0.000113549)
(-7.81622e-11 7.70984e-09 -0.000113701)
(3.57553e-09 1.1602e-08 -0.000107136)
(3.50263e-08 1.11256e-08 -0.000107041)
(-1.20567e-09 1.09032e-08 -0.000107133)
(-3.46702e-08 1.22998e-08 -0.000107034)
(3.92231e-08 1.27807e-08 -0.000106821)
(5.16338e-10 1.06954e-08 -0.000106911)
(-3.94144e-08 1.24174e-08 -0.000106815)
(1.89527e-10 1.06597e-08 -0.000106904)
(1.50086e-08 -1.55643e-08 -0.000114044)
(7.39617e-09 -1.10685e-08 -0.000113764)
(7.48311e-09 4.59531e-09 -0.000113902)
(-2.19807e-08 1.12932e-08 -0.000113749)
(7.90342e-09 -1.08345e-08 -0.000113522)
(1.5029e-08 -1.74804e-08 -0.000113816)
(-2.86366e-08 1.53439e-08 -0.000113525)
(9.8142e-09 4.05021e-09 -0.000113669)
(-4.72274e-11 -7.25626e-09 -0.000113454)
(3.17734e-08 -1.62301e-08 -0.000113304)
(-1.43882e-08 1.6899e-08 -0.000113583)
(-7.248e-09 9.34028e-09 -0.000113297)
(2.68688e-08 -1.46134e-08 -0.000113084)
(-1.44166e-09 -7.43518e-09 -0.000113235)
(-6.76391e-09 8.41887e-09 -0.000113086)
(-1.25308e-08 1.3582e-08 -0.000113363)
(3.2729e-10 -9.16552e-09 -0.000106666)
(-3.03934e-08 -8.52107e-09 -0.000106571)
(3.20753e-08 -1.04441e-08 -0.000106358)
(2.86104e-09 -1.00554e-08 -0.000106453)
(-3.51378e-08 -1.19524e-08 -0.00010636)
(3.62075e-09 -8.20354e-09 -0.000106457)
(1.81715e-08 2.21028e-08 -0.000113643)
(1.25425e-08 1.93222e-08 -0.000113366)
(-2.24347e-08 -1.26194e-08 -0.000113071)
(1.29536e-08 -7.22501e-10 -0.00011323)
(7.19541e-09 8.05177e-09 -0.000113139)
(1.65205e-08 1.94449e-08 -0.000113415)
(-1.28669e-08 -1.48671e-08 -0.000106882)
(-7.329e-09 -1.85085e-08 -0.000106622)
(-7.28711e-09 1.93124e-08 -0.000106376)
(-1.32831e-08 1.55643e-08 -0.000106627)
(-7.18963e-09 -1.83028e-08 -0.000106412)
(-1.3561e-08 -1.6957e-08 -0.000106668)
(1.6733e-08 2.2845e-08 -0.000106901)
(9.85827e-09 2.54628e-08 -0.000106648)
(1.22606e-08 -1.2913e-08 -0.000106857)
(5.96569e-09 -1.33828e-08 -0.000106582)
(7.63383e-09 1.50042e-08 -0.000106421)
(1.45128e-08 1.96685e-08 -0.000106686)
(7.61784e-09 -1.88121e-08 -0.000106359)
(1.43465e-08 -1.6058e-08 -0.000106622)
(2.11001e-09 9.26302e-09 -0.000113471)
(3.34726e-08 1.82046e-08 -0.000113318)
(-6.97487e-09 -9.12516e-09 -0.000113125)
(-1.42495e-08 -1.43008e-08 -0.000113403)
(2.88667e-08 1.66372e-08 -0.000113087)
(-6.91418e-10 7.89653e-09 -0.000113245)
(6.62908e-09 1.28882e-08 -0.000106692)
(3.8475e-08 1.25476e-08 -0.000106596)
(-4.00571e-09 1.08675e-08 -0.000106692)
(-3.51628e-08 1.26702e-08 -0.000106596)
(3.60977e-08 1.27251e-08 -0.000106367)
(1.66199e-09 9.96494e-09 -0.000106469)
(-3.07498e-08 1.07002e-08 -0.000106378)
(5.03786e-10 9.92292e-09 -0.000106475)
(1.48189e-08 -1.65353e-08 -0.000113578)
(6.56073e-09 -7.67992e-09 -0.000113282)
(3.43176e-09 7.0778e-09 -0.000113452)
(-2.43242e-08 1.28521e-08 -0.000113306)
(8.60121e-09 -1.13072e-08 -0.000113049)
(1.40331e-08 -1.34036e-08 -0.000113335)
(-2.34164e-08 1.26094e-08 -0.000113085)
(9.05258e-09 3.43864e-09 -0.000113234)
(-5.05805e-09 -6.19381e-09 -0.000113016)
(2.39072e-08 -1.31332e-08 -0.000112874)
(-1.37059e-08 1.43822e-08 -0.000113158)
(-6.93222e-09 7.9589e-09 -0.000112889)
(2.15383e-08 -1.12838e-08 -0.000112691)
(-7.88607e-09 -4.4306e-09 -0.000112811)
(-5.82056e-09 7.771e-09 -0.000112714)
(-1.27068e-08 1.20539e-08 -0.000112961)
(-1.11471e-09 -9.86797e-09 -0.000106248)
(-3.26747e-08 -1.05547e-08 -0.000106167)
(3.02352e-08 -9.62429e-09 -0.000105975)
(5.98376e-10 -9.60302e-09 -0.000106036)
(-3.26246e-08 -1.14044e-08 -0.000105995)
(1.82798e-09 -8.41974e-09 -0.000106058)
(1.50909e-08 1.65301e-08 -0.000113203)
(1.034e-08 1.47451e-08 -0.000112924)
(-2.16839e-08 -1.2073e-08 -0.000112703)
(1.43809e-08 -5.5535e-11 -0.000112822)
(1.26911e-08 2.15773e-08 -0.000112734)
(2.00584e-08 2.54481e-08 -0.000112989)
(-1.44973e-08 -1.83668e-08 -0.000106465)
(-6.70161e-09 -1.63727e-08 -0.00010621)
(-5.90899e-09 1.67348e-08 -0.000106014)
(-1.33782e-08 1.46741e-08 -0.000106237)
(-6.69625e-09 -1.65886e-08 -0.000106036)
(-1.19504e-08 -1.60979e-08 -0.00010627)
(1.30956e-08 1.47251e-08 -0.000106468)
(8.32155e-09 1.75591e-08 -0.000106205)
(1.34967e-08 -1.75886e-08 -0.000106406)
(7.02704e-09 -1.40234e-08 -0.00010614)
(7.88994e-09 2.04378e-08 -0.000106015)
(1.50428e-08 2.06468e-08 -0.000106255)
(8.58527e-09 -2.14643e-08 -0.000105956)
(1.28908e-08 -1.45728e-08 -0.000106194)
(-3.56984e-09 6.17424e-09 -0.000113024)
(2.63347e-08 1.35632e-08 -0.000112878)
(-5.32686e-09 -7.51965e-09 -0.000112745)
(-1.38674e-08 -1.76501e-08 -0.000112998)
(2.61247e-08 1.39259e-08 -0.000112676)
(-2.76719e-09 5.99449e-09 -0.000112812)
(-3.02344e-09 7.87176e-09 -0.00010625)
(2.54994e-08 7.83302e-09 -0.000106157)
(1.91545e-09 9.30141e-09 -0.000106259)
(-2.88825e-08 8.06267e-09 -0.000106175)
(3.09369e-08 9.7633e-09 -0.000105961)
(-6.62576e-09 5.9849e-09 -0.000106041)
(-2.93155e-08 8.38304e-09 -0.000105992)
(6.18409e-09 6.81269e-09 -0.000106061)
(1.53766e-08 -1.54809e-08 -0.00011311)
(6.71538e-09 -7.77466e-09 -0.000112827)
(7.51288e-09 4.75223e-09 -0.000113018)
(-2.22773e-08 1.12122e-08 -0.000112881)
(1.18228e-08 -1.86817e-08 -0.000112634)
(1.4925e-08 -1.56863e-08 -0.000112895)
(-2.05118e-08 1.00423e-08 -0.00011269)
(1.06277e-08 1.89631e-09 -0.00011282)
(-1.17813e-08 -1.1648e-09 -0.00011264)
(1.88844e-08 -8.16491e-09 -0.000112542)
(-1.12464e-08 1.16076e-08 -0.000112798)
(-2.05025e-09 1.541e-09 -0.000112557)
(1.98959e-08 -1.04899e-08 -0.000112417)
(-1.17202e-08 6.99491e-10 -0.0001125)
(-4.99591e-09 8.51645e-09 -0.000112438)
(-8.31478e-09 6.43076e-09 -0.000112645)
(2.72017e-09 -9.46931e-09 -0.000105888)
(-2.43203e-08 -6.52764e-09 -0.000105838)
(3.0392e-08 -9.08184e-09 -0.000105702)
(-7.70868e-09 -5.4306e-09 -0.00010573)
(-2.62599e-08 -7.15908e-09 -0.000105719)
(9.91794e-09 -4.30572e-09 -0.000105747)
(2.19753e-08 3.10424e-08 -0.000112815)
(1.51358e-08 2.53167e-08 -0.000112581)
(-1.59819e-08 -7.75454e-09 -0.000112426)
(1.66887e-08 2.02446e-09 -0.00011251)
(7.94599e-09 1.552e-08 -0.000112436)
(1.8648e-08 2.4372e-08 -0.000112649)
(-1.21762e-08 -1.61127e-08 -0.000106104)
(-6.93748e-09 -1.56619e-08 -0.000105876)
(-3.85822e-09 1.38382e-08 -0.000105742)
(-1.08704e-08 1.09236e-08 -0.000105927)
(-6.0611e-09 -1.56651e-08 -0.000105753)
(-1.24826e-08 -1.54671e-08 -0.000105949)
(1.32188e-08 1.9753e-08 -0.000106078)
(7.52964e-09 2.09806e-08 -0.000105855)
(1.48132e-08 -2.21536e-08 -0.000106024)
(4.59663e-09 -1.29578e-08 -0.000105806)
(2.87448e-09 1.27351e-08 -0.000105714)
(1.3018e-08 1.65029e-08 -0.00010591)
(5.3382e-09 -1.7918e-08 -0.000105682)
(9.70135e-09 -1.07963e-08 -0.00010588)
(-5.40244e-09 6.24519e-09 -0.000112618)
(1.90251e-08 9.68975e-09 -0.000112508)
(-3.59958e-09 -4.84725e-09 -0.00011246)
(-8.11066e-09 -5.21352e-09 -0.000112672)
(1.81183e-08 8.03454e-09 -0.000112372)
(-1.29865e-08 2.83155e-10 -0.00011246)
(-4.12656e-09 7.83192e-09 -0.00010585)
(2.24639e-08 6.89848e-09 -0.000105794)
(5.08137e-09 6.75678e-09 -0.000105891)
(-2.90731e-08 8.86568e-09 -0.000105838)
(1.80163e-08 4.26193e-09 -0.000105664)
(-1.19958e-08 5.02224e-09 -0.000105694)
(-2.08499e-08 4.65546e-09 -0.000105719)
(6.86066e-09 5.07407e-09 -0.000105743)
(1.85769e-08 -2.54372e-08 -0.000112716)
(7.25268e-09 -1.24773e-08 -0.000112482)
(1.05429e-08 1.41455e-09 -0.000112641)
(-2.08077e-08 1.03195e-08 -0.000112539)
(9.11772e-09 -1.67319e-08 -0.000112359)
(1.31073e-08 -1.63352e-08 -0.000112574)
(-1.70967e-08 7.31691e-09 -0.000112423)
(1.22178e-08 3.55388e-10 -0.000112496)
(-1.38131e-08 5.25083e-10 -0.000112383)
(1.08263e-08 -4.73227e-09 -0.000112327)
(-1.02909e-08 1.17187e-08 -0.000112536)
(-3.14968e-11 5.42849e-10 -0.000112338)
(1.39631e-08 -4.78883e-09 -0.000112275)
(-2.29599e-08 6.0417e-09 -0.000112302)
(8.1419e-10 -1.33087e-09 -0.000112262)
(-4.46756e-09 3.7776e-09 -0.000112441)
(1.07105e-08 -2.24286e-09 -0.000105637)
(-2.20679e-08 -5.81655e-09 -0.000105631)
(1.65245e-08 -1.9469e-09 -0.000105562)
(-1.40298e-08 -2.92703e-09 -0.000105531)
(-1.51146e-08 -1.79044e-09 -0.000105582)
(1.44761e-08 -7.67012e-10 -0.000105557)
(1.4032e-08 1.95836e-08 -0.000112534)
(4.33711e-09 8.96906e-09 -0.000112353)
(-1.29316e-08 -3.56797e-09 -0.000112289)
(1.96904e-08 4.56058e-09 -0.000112314)
(-6.9948e-09 -1.13397e-08 -0.000112312)
(9.48281e-09 1.3554e-08 -0.000112462)
(-1.16756e-08 -1.65474e-08 -0.000105839)
(-1.58547e-09 -7.51131e-09 -0.000105667)
(-1.101e-11 3.03644e-09 -0.00010557)
(-6.12497e-09 4.46303e-09 -0.000105725)
(-3.08839e-10 -4.44135e-09 -0.000105603)
(-5.82442e-09 -6.01903e-09 -0.000105755)
(9.97651e-09 1.28775e-08 -0.000105794)
(3.2391e-09 1.62516e-08 -0.000105631)
(1.30612e-08 -1.91521e-08 -0.000105758)
(7.28931e-09 -2.01381e-08 -0.00010558)
(2.79979e-09 1.19012e-08 -0.000105592)
(8.42866e-09 1.66183e-08 -0.000105724)
(3.03243e-09 -1.64837e-08 -0.000105543)
(1.16113e-08 -1.69408e-08 -0.00010567)
(-1.41998e-08 -1.35234e-09 -0.000112335)
(1.80424e-08 6.5162e-09 -0.000112284)
(1.06389e-09 5.83788e-10 -0.000112316)
(-5.53558e-09 -5.82056e-09 -0.000112482)
(1.63576e-08 4.8121e-09 -0.000112244)
(-1.4047e-08 -3.33478e-09 -0.000112262)
(-1.52774e-08 2.34529e-09 -0.000105573)
(1.62932e-08 1.04455e-09 -0.000105581)
(1.35948e-08 2.69078e-09 -0.000105628)
(-2.05369e-08 4.61393e-09 -0.000105621)
(2.39741e-08 3.45686e-09 -0.000105534)
(-1.88764e-08 -1.55207e-09 -0.000105502)
(-2.41857e-08 4.90349e-09 -0.000105565)
(1.36094e-08 1.78803e-09 -0.000105542)
(1.59504e-08 -2.21881e-08 -0.000112458)
(6.91639e-09 -1.06605e-08 -0.000112268)
(1.50761e-08 -2.06961e-09 -0.000112383)
(-1.50829e-08 6.04806e-09 -0.00011232)
(2.18081e-10 -4.20066e-09 -0.000112241)
(1.06272e-08 -1.35329e-08 -0.000112377)
(-1.81142e-08 7.02487e-09 -0.000112263)
(1.78053e-08 -3.59252e-09 -0.000112292)
(-1.70899e-08 5.08945e-09 -0.000112259)
(7.75971e-09 -1.54086e-09 -0.000112235)
(-4.82651e-09 3.27048e-09 -0.000112371)
(3.45142e-09 -4.73323e-09 -0.000112212)
(7.27896e-09 1.54127e-10 -0.000112226)
(-2.5335e-08 8.51895e-09 -0.000112221)
(8.79297e-11 4.57783e-10 -0.000112189)
(-2.60544e-09 -9.12761e-11 -0.000112328)
(1.75723e-08 -6.17784e-10 -0.000105508)
(-1.55363e-08 -1.18723e-09 -0.000105538)
(1.27712e-08 -4.5531e-11 -0.00010552)
(-1.94202e-08 9.95741e-10 -0.000105461)
(-1.89168e-08 -1.84151e-09 -0.000105533)
(1.5784e-08 1.02963e-09 -0.000105477)
(-6.70916e-10 -8.14444e-09 -0.000112427)
(-9.8434e-09 -1.91529e-08 -0.000112282)
(-1.75012e-08 -4.84716e-09 -0.000112237)
(1.54634e-08 4.61614e-09 -0.000112239)
(-1.5036e-08 -2.75279e-08 -0.000112264)
(-6.04448e-09 -1.64368e-08 -0.000112387)
(-6.64564e-09 -4.98768e-09 -0.000105695)
(1.91058e-09 -1.42507e-09 -0.000105561)
(-3.50637e-12 4.01545e-09 -0.000105499)
(-4.29547e-09 2.14646e-09 -0.00010562)
(2.32336e-09 -1.1055e-09 -0.000105543)
(-4.03887e-09 -1.7763e-09 -0.000105662)
(7.89307e-09 7.20915e-09 -0.000105691)
(-2.65604e-09 -5.19833e-09 -0.000105566)
(9.90508e-09 -1.70876e-08 -0.000105646)
(-1.80846e-09 6.172e-10 -0.000105522)
(-5.48608e-09 -1.08763e-08 -0.000105551)
(7.05162e-10 -8.83884e-09 -0.000105662)
(-8.27987e-09 1.43345e-08 -0.000105513)
(2.04468e-09 4.09013e-09 -0.000105627)
(-1.65474e-08 -4.44307e-09 -0.000112227)
(1.35148e-08 4.20473e-09 -0.000112227)
(2.79091e-09 7.95279e-10 -0.000112249)
(-3.32136e-09 -2.47044e-09 -0.000112389)
(8.53489e-09 2.99667e-09 -0.000112219)
(-2.14488e-08 -6.8543e-09 -0.000112215)
(-4.95336e-09 3.79643e-09 -0.000105464)
(3.0985e-08 6.84041e-09 -0.000105518)
(1.29129e-08 1.99559e-09 -0.000105489)
(-1.72713e-08 2.64372e-09 -0.000105523)
(2.6027e-08 7.41819e-09 -0.000105506)
(-7.28581e-09 3.77703e-09 -0.000105449)
(-2.07397e-08 3.17834e-09 -0.000105505)
(1.84796e-08 -1.54033e-09 -0.000105457)
(5.53454e-09 -5.2853e-09 -0.000112359)
(-7.05176e-09 1.1984e-08 -0.000112216)
(1.48465e-08 -2.23059e-09 -0.000112241)
(-1.55881e-08 5.54551e-09 -0.000112223)
(-1.41742e-08 2.29583e-08 -0.000112205)
(-3.26841e-09 1.00277e-08 -0.000112338)
(-1.92239e-08 7.10598e-09 -0.000112201)
(1.39789e-08 -3.41265e-09 -0.000112208)
(-2.4633e-08 9.05719e-09 -0.000112214)
(9.65064e-09 -1.67125e-09 -0.000112214)
(-5.33992e-09 6.13106e-09 -0.000112315)
(1.0532e-09 1.58749e-10 -0.000112183)
(1.12089e-08 -3.03298e-09 -0.000112209)
(-2.19172e-08 7.47927e-09 -0.000112206)
(2.76835e-09 -2.20223e-09 -0.000112179)
(-4.01106e-09 4.39107e-09 -0.000112305)
(1.38428e-08 4.03706e-10 -0.000105468)
(-1.73899e-08 -3.20801e-09 -0.000105507)
(1.61134e-08 -1.39086e-09 -0.000105512)
(-1.88557e-08 1.45453e-09 -0.000105452)
(-1.80081e-08 -1.6928e-09 -0.000105513)
(1.82806e-08 1.23852e-09 -0.000105445)
(-5.71486e-09 -1.71957e-08 -0.000112379)
(-7.97551e-09 -1.36177e-08 -0.000112256)
(-1.77835e-08 -6.03302e-09 -0.000112218)
(1.76715e-08 5.82966e-09 -0.000112202)
(-1.13247e-08 -1.60958e-08 -0.000112258)
(3.58935e-11 -3.74744e-09 -0.000112374)
(-2.59686e-09 1.88485e-10 -0.00010565)
(1.42638e-09 -1.61028e-09 -0.000105526)
(1.86521e-09 2.37605e-09 -0.00010548)
(-3.697e-09 2.58249e-09 -0.00010559)
(-9.4872e-10 -7.60279e-09 -0.000105521)
(-6.25669e-09 -5.10434e-09 -0.000105629)
(2.29482e-09 -7.56536e-09 -0.000105648)
(-4.98332e-09 -7.53454e-09 -0.000105544)
(-2.42405e-09 1.44903e-08 -0.000105617)
(-4.78533e-09 9.27219e-09 -0.000105503)
(-6.22886e-09 -7.99419e-09 -0.000105546)
(-3.47769e-11 -6.34224e-09 -0.000105649)
(-3.32522e-09 3.56857e-09 -0.000105511)
(1.06995e-09 4.86214e-09 -0.000105613)
(-2.03832e-08 -5.41106e-09 -0.000112211)
(1.47375e-08 4.0703e-09 -0.000112222)
(-1.77153e-10 -1.55285e-09 -0.00011223)
(-2.41077e-09 1.85169e-09 -0.000112355)
(1.71391e-08 6.45595e-09 -0.000112219)
(-1.90663e-08 -5.42199e-09 -0.000112212)
(-9.65185e-09 3.15183e-09 -0.000105446)
(2.01742e-08 2.79858e-09 -0.000105514)
(1.44833e-08 -5.07967e-10 -0.000105443)
(-2.11536e-08 2.80379e-09 -0.0001055)
(2.29947e-08 3.8115e-09 -0.00010551)
(-1.34071e-08 1.1269e-09 -0.00010545)
(-2.75593e-08 6.14358e-09 -0.000105501)
(1.29559e-08 -3.68659e-10 -0.000105438)
(-8.14274e-09 1.87577e-08 -0.000112327)
(-1.13245e-08 1.9945e-08 -0.000112195)
(1.38205e-08 -4.12759e-09 -0.000112191)
(-1.70325e-08 5.17563e-09 -0.000112193)
(-7.20305e-09 1.09247e-08 -0.000112195)
(-3.78528e-09 1.11848e-08 -0.000112318)
(-1.89641e-08 6.90936e-09 -0.000112192)
(1.56179e-08 -5.36523e-09 -0.000112182)
(-2.05444e-08 7.03478e-09 -0.000112206)
(1.39025e-08 -3.7854e-09 -0.000112214)
(-3.46531e-09 2.02017e-09 -0.000112301)
(2.17934e-09 -1.78614e-10 -0.000112171)
(1.76498e-08 -5.01002e-09 -0.000112227)
(-1.96306e-08 6.52175e-09 -0.000112207)
(1.787e-09 -2.20375e-09 -0.000112165)
(-9.18824e-10 5.11417e-10 -0.000112295)
(1.31295e-08 -7.56118e-10 -0.000105449)
(-2.01758e-08 -2.52294e-09 -0.000105506)
(1.57723e-08 -2.17518e-10 -0.000105526)
(-1.82982e-08 1.11961e-09 -0.000105454)
(-2.3723e-08 -3.66633e-09 -0.000105519)
(1.07071e-08 -5.99605e-10 -0.000105452)
(-2.29834e-09 -7.99645e-09 -0.00011238)
(-3.63818e-09 -4.77737e-09 -0.000112254)
(-2.12142e-08 -6.46065e-09 -0.00011222)
(1.47639e-08 4.66362e-09 -0.000112209)
(-3.23797e-09 -3.44919e-09 -0.000112248)
(1.62271e-09 -1.88127e-10 -0.000112365)
(-7.08104e-09 -7.04542e-09 -0.00010563)
(-1.56432e-10 -5.22348e-09 -0.000105513)
(3.9049e-09 -3.68949e-09 -0.000105463)
(-2.79386e-09 -2.289e-10 -0.00010557)
(2.82729e-09 -1.90481e-09 -0.000105508)
(-5.41764e-09 -3.57111e-09 -0.000105616)
(1.10569e-09 -4.88404e-09 -0.000105651)
(-3.4109e-09 -1.76808e-09 -0.000105546)
(1.38226e-09 4.74036e-09 -0.000105622)
(-4.50392e-09 6.56483e-09 -0.000105514)
(-3.50096e-09 -8.6546e-10 -0.000105544)
(1.37894e-09 -5.14201e-09 -0.000105645)
(-3.83065e-09 1.65542e-09 -0.000105514)
(1.00149e-09 5.14863e-09 -0.00010562)
(-1.45677e-08 -3.74484e-09 -0.000112213)
(1.4184e-08 4.5529e-09 -0.000112227)
(2.36281e-09 1.06246e-09 -0.000112218)
(-5.46525e-09 -7.05536e-09 -0.000112348)
(1.26831e-08 2.66507e-09 -0.000112227)
(-1.95963e-08 -5.64895e-09 -0.000112216)
(-1.26084e-08 -5.05522e-10 -0.00010545)
(1.94029e-08 2.62396e-09 -0.000105515)
(8.37296e-09 2.99275e-09 -0.000105438)
(-1.57167e-08 8.4565e-10 -0.000105498)
(1.78969e-08 1.78365e-09 -0.000105511)
(-1.74865e-08 -5.92786e-10 -0.000105451)
(-1.53751e-08 -2.50666e-10 -0.000105494)
(1.98256e-08 -1.25369e-09 -0.000105433)
(-6.28187e-11 3.1731e-09 -0.000112327)
(-3.75693e-09 4.38276e-09 -0.000112203)
(1.24837e-08 -1.88886e-09 -0.000112182)
(-1.5073e-08 4.27728e-09 -0.000112191)
(-4.5646e-09 4.75417e-09 -0.000112201)
(3.66478e-09 -2.98244e-09 -0.000112321)
(-1.42952e-08 3.60429e-09 -0.000112183)
(1.91676e-08 -5.96588e-09 -0.000112175)
(-1.34133e-08 4.21095e-09 -0.000112225)
(2.08132e-08 -7.84371e-09 -0.000112222)
(-3.1267e-09 2.99632e-09 -0.000112294)
(2.273e-09 -1.27468e-09 -0.00011216)
(1.86589e-08 -5.52251e-09 -0.000112215)
(-1.27381e-08 2.25491e-09 -0.000112209)
(8.59893e-09 -1.04739e-08 -0.000112154)
(-2.05434e-09 8.95541e-10 -0.000112277)
(7.7914e-09 -1.80364e-09 -0.000105462)
(-2.15869e-08 -3.17147e-09 -0.000105519)
(2.27194e-08 -2.94759e-09 -0.000105519)
(-1.12334e-08 -1.9194e-09 -0.000105457)
(-1.70691e-08 -1.11813e-09 -0.000105514)
(1.05347e-08 -1.04627e-09 -0.000105456)
(2.50165e-09 3.0694e-09 -0.000112372)
(-4.20029e-09 -3.59186e-09 -0.000112253)
(-2.14812e-08 -7.23124e-09 -0.000112213)
(1.52891e-08 4.75424e-09 -0.000112206)
(-7.91784e-09 -1.14308e-08 -0.000112239)
(1.09886e-09 -5.14093e-10 -0.000112368)
(-3.02074e-09 -1.79651e-09 -0.000105614)
(3.199e-09 2.35919e-10 -0.0001055)
(6.39432e-09 -9.11612e-09 -0.000105445)
(-2.48088e-09 -2.2092e-10 -0.000105554)
(3.55521e-09 2.22165e-09 -0.000105505)
(-1.44621e-09 1.57693e-09 -0.000105609)
(1.61654e-09 -2.13699e-09 -0.000105649)
(-4.2816e-09 -1.39244e-09 -0.000105548)
(2.19838e-09 3.79299e-10 -0.00010562)
(4.5175e-10 -5.80521e-09 -0.000105509)
(-5.71423e-09 -6.23241e-09 -0.000105534)
(1.59961e-09 -3.93291e-09 -0.000105648)
(-1.70514e-09 -2.05434e-09 -0.000105506)
(5.5207e-09 -7.33516e-09 -0.000105615)
(-1.89165e-08 -5.91092e-09 -0.000112217)
(1.81018e-08 4.87536e-09 -0.000112234)
(3.85223e-09 4.61078e-09 -0.00011221)
(1.1354e-11 1.64163e-10 -0.000112336)
(1.25653e-08 2.41865e-09 -0.000112234)
(-1.60703e-08 -5.48744e-09 -0.000112222)
(-1.73519e-08 -1.16247e-09 -0.000105449)
(1.92502e-08 1.37846e-09 -0.00010552)
(1.76294e-08 -1.42731e-09 -0.000105431)
(-1.97611e-08 2.72754e-09 -0.000105484)
(1.54419e-08 1.0899e-09 -0.000105519)
(-1.52456e-08 -1.5341e-09 -0.000105459)
(-2.02939e-08 1.91725e-09 -0.000105481)
(1.36046e-08 -5.64718e-10 -0.000105421)
(7.70106e-10 5.37219e-10 -0.000112324)
(-3.4408e-09 4.6004e-09 -0.000112198)
(1.71273e-08 -5.36139e-09 -0.000112174)
(-1.41419e-08 4.21532e-09 -0.000112173)
(-5.36471e-09 6.35817e-09 -0.000112195)
(3.51157e-09 -2.66429e-09 -0.00011232)
(-1.60106e-08 4.03128e-09 -0.000112166)
(1.49269e-08 -4.81429e-09 -0.00011216)
(-1.1491e-08 3.44914e-09 -0.000112211)
(2.41322e-08 -9.00569e-09 -0.000112212)
(2.83783e-09 -4.80035e-09 -0.000112282)
(7.13076e-09 -1.03485e-08 -0.000112153)
(2.36339e-08 -7.70152e-09 -0.000112214)
(-9.43781e-09 1.59969e-09 -0.000112198)
(7.43195e-09 -8.45463e-09 -0.00011215)
(1.86555e-09 -6.16712e-09 -0.000112272)
(1.39461e-08 1.09906e-09 -0.000105453)
(-1.72402e-08 -7.99299e-10 -0.000105504)
(2.30182e-08 -2.95062e-09 -0.000105508)
(-8.98877e-09 -1.41361e-09 -0.000105445)
(-1.6742e-08 -1.53911e-10 -0.000105494)
(1.82319e-08 1.31882e-09 -0.000105438)
(-1.00661e-09 -3.35385e-09 -0.000112362)
(-4.31059e-09 -4.49619e-09 -0.000112244)
(-1.53003e-08 -3.42656e-09 -0.000112191)
(2.40894e-08 8.81988e-09 -0.000112191)
(-7.3998e-09 -8.79051e-09 -0.000112234)
(-5.29308e-10 -2.07402e-09 -0.000112353)
(-1.65881e-09 8.33079e-10 -0.000105613)
(4.26657e-09 4.4439e-09 -0.000105496)
(6.25331e-09 -7.3791e-09 -0.000105446)
(-1.0091e-10 -5.9384e-09 -0.000105551)
(3.50877e-09 2.97325e-09 -0.000105495)
(-1.67173e-10 4.78436e-09 -0.000105602)
(-7.00646e-10 -6.60438e-09 -0.000105639)
(-5.06583e-09 -2.74851e-09 -0.000105535)
(2.69978e-09 -4.68144e-10 -0.000105616)
(-1.4016e-09 -1.7036e-09 -0.000105499)
(-5.29494e-09 -4.71396e-09 -0.000105528)