/*--------------------------------*- C++ -*----------------------------------*\
| =========                 |                                                 |
| \\      /  F ield         | OpenFOAM: The Open Source CFD Toolbox           |
|  \\    /   O peration     | Version:  2206                                  |
|   \\  /    A nd           | Website:  www.openfoam.com                      |
|    \\/     M anipulation  |                                                 |
\*---------------------------------------------------------------------------*/
FoamFile
{
    version     2.0;
    format      ascii;
    arch        "LSB;label=32;scalar=64";
    class       volScalarField;
    location    "0.3";
    object      k;
}
// * * * * * * * * * * * * * * * * * * * * * * * * * * * * * * * * * * * * * //

dimensions      [0 2 -2 0 0 0 0];

internalField   nonuniform List<scalar> 
66621
(
2.48064e-05
4.19064e-05
2.43086e-05
3.5553e-05
4.03111e-05
2.28634e-05
1.5833e-05
3.52961e-05
2.4485e-05
2.26868e-05
4.06709e-05
2.66692e-05
3.20293e-05
3.24958e-05
1.60768e-05
1.58551e-05
2.66593e-05
3.23711e-05
3.198e-05
2.4486e-05
4.05528e-05
3.19807e-05
1.58315e-05
3.55585e-05
2.46492e-05
4.03679e-05
2.28696e-05
4.19031e-05
2.42705e-05
3.55524e-05
2.46415e-05
2.28652e-05
4.03208e-05
4.18788e-05
2.4247e-05
3.55501e-05
2.46451e-05
2.28646e-05
4.03229e-05
4.18767e-05
2.42492e-05
2.66488e-05
3.19616e-05
3.24879e-05
1.6177e-05
3.52963e-05
2.44953e-05
2.2686e-05
4.07044e-05
4.25701e-05
2.49461e-05
4.2571e-05
2.49588e-05
1.58283e-05
1.61954e-05
3.2899e-05
1.44547e-05
1.90387e-05
4.09694e-05
2.07496e-05
4.18824e-05
4.09394e-05
2.07438e-05
1.90408e-05
1.41569e-05
3.22036e-05
2.42796e-05
3.21735e-05
1.41772e-05
1.58039e-05
2.44737e-05
1.36364e-05
1.37103e-05
1.36113e-05
1.36835e-05
2.44828e-05
3.86095e-05
2.34396e-05
3.20048e-05
3.76814e-05
3.76592e-05
2.34108e-05
3.86384e-05
3.83375e-05
2.35245e-05
3.24661e-05
3.76829e-05
3.76655e-05
2.34901e-05
3.83671e-05
1.58255e-05
2.44588e-05
1.37093e-05
1.36031e-05
1.36834e-05
1.35828e-05
2.44495e-05
3.86957e-05
2.36618e-05
3.76781e-05
2.36565e-05
3.87062e-05
3.82003e-05
2.3218e-05
3.19509e-05
3.76178e-05
2.31884e-05
3.82216e-05
3.75975e-05
1.36666e-05
2.46557e-05
2.34422e-05
3.75979e-05
3.84009e-05
1.90292e-05
2.07436e-05
4.0951e-05
4.18772e-05
2.07371e-05
4.09173e-05
1.90314e-05
1.41414e-05
3.21571e-05
2.42399e-05
3.21258e-05
1.41622e-05
4.09216e-05
2.07244e-05
1.90097e-05
3.21367e-05
1.41443e-05
2.07219e-05
4.09179e-05
1.9009e-05
3.21338e-05
1.41446e-05
2.45522e-05
1.36422e-05
1.3755e-05
1.36255e-05
1.37377e-05
2.4558e-05
3.81547e-05
2.32314e-05
3.19322e-05
3.76057e-05
2.32069e-05
3.75788e-05
3.81495e-05
3.8532e-05
2.37159e-05
3.24599e-05
3.76346e-05
3.76105e-05
2.3696e-05
3.85702e-05
1.61414e-05
1.94334e-05
4.17215e-05
2.12309e-05
4.25521e-05
4.17006e-05
2.12099e-05
1.94576e-05
1.45434e-05
3.30494e-05
2.49008e-05
3.30028e-05
1.45755e-05
1.94361e-05
4.17306e-05
2.12326e-05
4.25524e-05
4.17033e-05
2.12097e-05
1.94607e-05
1.45458e-05
3.30584e-05
2.49162e-05
3.30114e-05
1.45776e-05
1.6161e-05
2.19939e-05
2.16273e-05
2.16537e-05
2.15431e-05
2.19937e-05
2.16288e-05
2.16539e-05
2.15436e-05
2.20036e-05
2.16543e-05
2.16293e-05
2.15447e-05
2.20055e-05
2.16545e-05
2.16275e-05
2.15446e-05
2.9066e-05
3.69418e-05
2.80529e-05
3.55131e-05
3.69049e-05
2.80162e-05
2.91007e-05
3.88263e-05
3.43946e-05
3.09971e-05
2.88046e-05
2.77012e-05
3.67723e-05
3.5282e-05
2.76983e-05
3.67574e-05
2.88054e-05
3.0758e-05
3.88732e-05
4.06542e-05
3.43075e-05
3.42925e-05
3.88612e-05
3.07572e-05
3.64777e-05
2.66695e-05
3.15277e-05
3.14928e-05
3.14962e-05
3.14674e-05
3.65035e-05
3.64598e-05
2.66563e-05
3.14618e-05
3.15288e-05
3.64809e-05
3.1435e-05
3.14986e-05
3.88586e-05
3.44045e-05
3.09922e-05
2.90749e-05
3.69564e-05
2.80565e-05
3.55172e-05
3.69196e-05
2.80188e-05
2.91096e-05
3.09852e-05
3.8858e-05
4.03504e-05
3.44264e-05
3.88367e-05
3.43921e-05
3.10141e-05
2.90659e-05
2.80534e-05
3.6938e-05
3.55113e-05
2.80161e-05
3.69007e-05
2.91005e-05
3.09686e-05
3.88237e-05
4.03016e-05
3.43812e-05
3.88037e-05
3.09973e-05
3.43472e-05
2.90653e-05
2.80522e-05
3.69355e-05
3.55105e-05
2.80156e-05
3.68992e-05
2.90994e-05
3.09669e-05
3.88205e-05
4.03065e-05
3.43829e-05
3.4349e-05
3.88018e-05
3.09954e-05
3.6395e-05
2.66497e-05
3.15003e-05
3.14413e-05
3.14144e-05
3.14731e-05
3.64231e-05
2.88085e-05
2.77016e-05
3.67752e-05
3.52821e-05
2.76988e-05
3.67601e-05
2.88091e-05
3.07719e-05
3.88864e-05
4.06881e-05
3.43535e-05
3.43389e-05
3.88743e-05
3.07711e-05
4.76208e-06
1.12877e-06
2.0689e-07
7.35854e-08
4.15743e-07
4.68889e-06
1.11169e-06
2.03915e-07
7.32334e-08
4.15281e-07
4.62447e-06
1.10767e-06
2.05295e-07
7.79737e-08
4.51407e-07
4.67729e-06
1.12027e-06
2.07489e-07
7.82458e-08
4.51777e-07
4.63056e-06
1.10904e-06
2.05515e-07
7.79904e-08
4.51398e-07
4.62519e-06
1.10794e-06
2.05358e-07
7.80174e-08
4.51652e-07
4.68198e-06
1.11011e-06
2.03649e-07
7.31956e-08
4.1524e-07
4.67755e-06
1.10922e-06
2.03516e-07
7.32162e-08
4.15438e-07
4.67817e-06
1.10932e-06
2.03546e-07
7.32295e-08
4.15484e-07
4.68605e-06
1.12209e-06
2.07771e-07
7.82234e-08
4.5145e-07
4.75679e-06
1.12763e-06
2.06661e-07
7.34869e-08
4.15179e-07
4.75942e-06
1.12826e-06
2.06777e-07
7.34877e-08
4.15136e-07
4.62445e-06
1.10781e-06
2.05333e-07
7.79925e-08
4.51526e-07
4.69133e-06
1.12329e-06
2.07957e-07
7.82128e-08
4.51302e-07
4.43775e-06
1.0563e-06
1.9522e-07
7.46401e-08
4.32893e-07
4.54984e-06
1.08469e-06
2.00504e-07
7.59909e-08
4.39496e-07
4.54412e-06
1.08331e-06
2.00275e-07
7.59897e-08
4.39664e-07
4.44334e-06
1.05769e-06
1.95457e-07
7.46502e-08
4.32787e-07
4.68109e-06
1.1098e-06
2.03584e-07
7.31626e-08
4.14969e-07
4.61548e-06
1.10571e-06
2.04967e-07
7.7929e-08
4.51301e-07
4.64891e-06
1.10093e-06
2.02073e-07
7.35725e-08
4.19353e-07
4.64183e-06
1.09929e-06
2.01795e-07
7.35374e-08
4.19289e-07
4.65994e-06
1.10348e-06
2.02503e-07
7.35853e-08
4.19122e-07
4.65218e-06
1.10171e-06
2.022e-07
7.35296e-08
4.18912e-07
4.62138e-06
1.10705e-06
2.05182e-07
7.79433e-08
4.51278e-07
4.20432e-06
1.00909e-06
1.88293e-07
7.64041e-08
4.51896e-07
4.65092e-06
1.10137e-06
2.02174e-07
7.36128e-08
4.19561e-07
4.43586e-06
1.05584e-06
1.95146e-07
7.46352e-08
4.32909e-07
4.54856e-06
1.08439e-06
2.00451e-07
7.59841e-08
4.39482e-07
4.54262e-06
1.08297e-06
2.00216e-07
7.59819e-08
4.39649e-07
4.44148e-06
1.05724e-06
1.95384e-07
7.46459e-08
4.32807e-07
4.67395e-06
1.10817e-06
2.03309e-07
7.31246e-08
4.14933e-07
4.54418e-06
1.08339e-06
2.00296e-07
7.59611e-08
4.39519e-07
4.43583e-06
1.05598e-06
1.95168e-07
7.46161e-08
4.32811e-07
4.5436e-06
1.08326e-06
2.00261e-07
7.59575e-08
4.39492e-07
4.43594e-06
1.056e-06
1.95166e-07
7.46211e-08
4.32823e-07
4.22763e-06
1.01486e-06
1.89295e-07
7.64882e-08
4.51766e-07
4.68664e-06
1.10982e-06
2.03623e-07
7.37341e-08
4.19347e-07
4.68074e-06
1.10847e-06
2.0339e-07
7.36832e-08
4.19122e-07
4.6766e-06
1.12007e-06
2.07431e-07
7.81455e-08
4.51088e-07
4.46602e-06
1.06296e-06
1.96331e-07
7.45868e-08
4.31658e-07
4.58099e-06
1.09202e-06
2.01731e-07
7.59551e-08
4.38334e-07
4.57536e-06
1.09077e-06
2.0152e-07
7.59213e-08
4.3823e-07
4.47231e-06
1.06439e-06
1.96578e-07
7.46395e-08
4.31885e-07
4.74741e-06
1.12545e-06
2.06276e-07
7.33732e-08
4.14565e-07
4.46652e-06
1.06309e-06
1.96361e-07
7.45873e-08
4.31669e-07
4.58125e-06
1.09206e-06
2.0175e-07
7.59561e-08
4.38352e-07
4.57535e-06
1.09076e-06
2.0153e-07
7.59214e-08
4.38248e-07
4.47291e-06
1.06453e-06
1.96611e-07
7.46389e-08
4.31884e-07
4.75043e-06
1.12616e-06
2.06405e-07
7.33766e-08
4.14532e-07
4.68189e-06
1.12126e-06
2.07617e-07
7.81365e-08
4.50954e-07
4.19862e-06
1.00779e-06
1.88059e-07
7.63439e-08
4.51645e-07
4.2102e-06
1.0105e-06
1.88521e-07
7.6383e-08
4.5161e-07
4.56314e-06
1.0938e-06
2.02932e-07
7.75202e-08
4.49583e-07
4.4757e-06
1.07264e-06
1.99193e-07
7.69174e-08
4.47697e-07
4.48391e-06
1.07458e-06
1.99531e-07
7.69665e-08
4.47827e-07
4.19887e-06
1.00782e-06
1.88058e-07
7.6335e-08
4.51555e-07
4.62333e-06
1.09523e-06
2.01128e-07
7.3472e-08
4.19239e-07
4.61804e-06
1.09399e-06
2.00917e-07
7.34513e-08
4.1924e-07
4.19035e-06
1.00595e-06
1.87751e-07
7.63122e-08
4.51631e-07
4.20169e-06
1.00861e-06
1.88204e-07
7.63438e-08
4.51543e-07
4.21129e-06
1.01075e-06
1.88567e-07
7.63806e-08
4.51594e-07
4.67829e-06
1.1076e-06
2.03219e-07
7.36922e-08
4.19375e-07
4.67039e-06
1.10577e-06
2.02907e-07
7.36394e-08
4.19198e-07
4.18624e-06
1.00481e-06
1.87546e-07
7.62846e-08
4.51598e-07
4.61956e-06
1.09414e-06
2.00925e-07
7.34473e-08
4.19249e-07
4.61196e-06
1.0924e-06
2.00631e-07
7.34105e-08
4.19185e-07
4.20319e-06
1.009e-06
1.88276e-07
7.63503e-08
4.51579e-07
4.17868e-06
1.0031e-06
1.87258e-07
7.62583e-08
4.51613e-07
4.47057e-06
1.07139e-06
1.98981e-07
7.68851e-08
4.47662e-07
4.47894e-06
1.07338e-06
1.99325e-07
7.69355e-08
4.47796e-07
4.47333e-06
1.07222e-06
1.99136e-07
7.69377e-08
4.47934e-07
4.47366e-06
1.07229e-06
1.99151e-07
7.69505e-08
4.47982e-07
4.19301e-06
1.00649e-06
1.87836e-07
7.63182e-08
4.51595e-07
4.22216e-06
1.01357e-06
1.89076e-07
7.64512e-08
4.51641e-07
4.55362e-06
1.09123e-06
2.02443e-07
7.73351e-08
4.48495e-07
4.56348e-06
1.0935e-06
2.02844e-07
7.74482e-08
4.49089e-07
4.55446e-06
1.09149e-06
2.02487e-07
7.7335e-08
4.48488e-07
4.56424e-06
1.09373e-06
2.02883e-07
7.74441e-08
4.49054e-07
1.60815e-05
1.5851e-05
2.66761e-05
3.23632e-05
3.19796e-05
4.19247e-05
2.43054e-05
3.55689e-05
2.45241e-05
4.03764e-05
2.2747e-05
4.192e-05
2.42683e-05
3.5563e-05
2.44984e-05
2.27428e-05
4.03273e-05
2.45016e-05
4.03321e-05
2.42529e-05
1.58271e-05
2.66753e-05
3.19517e-05
3.25035e-05
1.61756e-05
3.53067e-05
2.43897e-05
2.26684e-05
4.0691e-05
3.5307e-05
2.44014e-05
2.26698e-05
4.07222e-05
4.26007e-05
2.49468e-05
4.26012e-05
2.49603e-05
2.66953e-05
3.20292e-05
3.25007e-05
1.58305e-05
1.61924e-05
1.37096e-05
1.36053e-05
2.4481e-05
2.36443e-05
3.77052e-05
3.87112e-05
2.32185e-05
3.76228e-05
3.8229e-05
1.91735e-05
4.09703e-05
2.0757e-05
4.19446e-05
1.90482e-05
4.10191e-05
2.08855e-05
1.42614e-05
3.21981e-05
2.44351e-05
1.41737e-05
3.23049e-05
1.91644e-05
2.07513e-05
4.09496e-05
4.1939e-05
1.90386e-05
2.08806e-05
4.09975e-05
1.42475e-05
3.21525e-05
2.44e-05
1.41589e-05
3.22623e-05
1.42432e-05
3.21339e-05
2.43975e-05
1.41453e-05
3.22526e-05
1.59088e-05
2.48161e-05
1.36416e-05
1.37602e-05
2.46118e-05
1.37109e-05
1.38346e-05
3.81637e-05
2.32519e-05
3.75993e-05
3.20544e-05
3.75908e-05
3.80665e-05
2.33624e-05
3.85393e-05
2.37232e-05
3.76413e-05
3.25798e-05
3.86057e-05
2.38655e-05
3.76108e-05
1.62422e-05
1.95139e-05
4.17543e-05
2.12482e-05
4.26094e-05
1.9465e-05
4.17806e-05
2.12628e-05
1.46325e-05
3.30537e-05
2.50448e-05
1.45732e-05
3.3131e-05
1.95149e-05
4.17596e-05
2.12488e-05
4.26099e-05
1.94683e-05
4.17802e-05
2.12644e-05
1.46328e-05
3.30637e-05
2.50603e-05
1.45766e-05
3.31395e-05
2.46284e-05
1.36329e-05
1.37074e-05
2.4487e-05
1.3692e-05
1.37637e-05
3.86873e-05
2.34378e-05
3.76854e-05
3.21301e-05
3.86303e-05
3.7665e-05
2.35557e-05
3.84146e-05
2.35242e-05
3.76882e-05
3.25845e-05
3.83606e-05
3.76731e-05
2.36282e-05
1.59275e-05
1.62569e-05
2.19994e-05
2.16609e-05
2.16235e-05
2.15452e-05
2.19987e-05
2.16619e-05
2.16234e-05
2.15454e-05
2.19468e-05
2.16204e-05
2.16203e-05
2.15409e-05
2.19485e-05
2.16208e-05
2.162e-05
2.15409e-05
3.1555e-05
3.15363e-05
3.64893e-05
2.89289e-05
3.69652e-05
2.80785e-05
3.54301e-05
2.91369e-05
3.68539e-05
2.78903e-05
3.08703e-05
3.88632e-05
3.44392e-05
4.03944e-05
3.43018e-05
3.1039e-05
3.88334e-05
2.89198e-05
2.80756e-05
3.69472e-05
3.54244e-05
2.91269e-05
2.78874e-05
3.68365e-05
3.08547e-05
3.88291e-05
3.43928e-05
4.03472e-05
3.10226e-05
3.87994e-05
3.4257e-05
3.0853e-05
3.88259e-05
3.43962e-05
4.0351e-05
3.10208e-05
3.87963e-05
3.42597e-05
3.63812e-05
2.65589e-05
3.15205e-05
3.14621e-05
3.1375e-05
3.64434e-05
3.1334e-05
2.87575e-05
2.77117e-05
3.67806e-05
3.53108e-05
2.88248e-05
2.77002e-05
3.67541e-05
3.06771e-05
3.88843e-05
3.4323e-05
4.07002e-05
3.07816e-05
3.42232e-05
3.88633e-05
2.87628e-05
2.7712e-05
3.6783e-05
3.53112e-05
2.88281e-05
2.77007e-05
3.67577e-05
3.06923e-05
3.88965e-05
3.4367e-05
4.07334e-05
3.07951e-05
3.88754e-05
3.42674e-05
3.64534e-05
2.65791e-05
3.15457e-05
3.15102e-05
3.65146e-05
3.14006e-05
3.13822e-05
2.19853e-05
2.46068e-05
2.19853e-05
2.46068e-05
2.44657e-05
2.66578e-05
2.66475e-05
2.66638e-05
2.44635e-05
2.44641e-05
2.44628e-05
2.44626e-05
2.66377e-05
2.66519e-05
2.46163e-05
2.46091e-05
2.46145e-05
2.46072e-05
2.46069e-05
2.46048e-05
2.46052e-05
2.6648e-05
2.44635e-05
2.44632e-05
2.66358e-05
2.46166e-05
2.46093e-05
2.46072e-05
2.6652e-05
2.44723e-05
4.25529e-05
2.48968e-05
2.4891e-05
4.25564e-05
1.61129e-05
1.61097e-05
4.18589e-05
2.42643e-05
2.42451e-05
4.18691e-05
2.19849e-05
2.19861e-05
2.19865e-05
2.19854e-05
2.1985e-05
2.19863e-05
2.19867e-05
3.55508e-05
4.03008e-05
2.28255e-05
2.46055e-05
4.02913e-05
2.28252e-05
3.55078e-05
4.25554e-05
2.49016e-05
4.25534e-05
2.4895e-05
1.61188e-05
1.61113e-05
4.18589e-05
2.42662e-05
4.18682e-05
2.42482e-05
2.19848e-05
2.1986e-05
2.19865e-05
3.55513e-05
4.02995e-05
2.28256e-05
2.46042e-05
3.55069e-05
4.02982e-05
2.28249e-05
1.57985e-05
1.57887e-05
3.52819e-05
2.26812e-05
4.06427e-05
2.44651e-05
2.26808e-05
4.06422e-05
3.52691e-05
3.19863e-05
3.24469e-05
2.66743e-05
3.1967e-05
3.24372e-05
1.6111e-05
1.61059e-05
1.58143e-05
1.58006e-05
3.24047e-05
3.19293e-05
2.66648e-05
3.23942e-05
3.19145e-05
1.61076e-05
1.61168e-05
1.58027e-05
1.58201e-05
2.6648e-05
3.24041e-05
3.1922e-05
3.24121e-05
3.19372e-05
4.25346e-05
2.48748e-05
2.48708e-05
4.2535e-05
3.52889e-05
4.0607e-05
2.26748e-05
2.44629e-05
4.06078e-05
2.26747e-05
3.52719e-05
3.52812e-05
4.06146e-05
2.26739e-05
2.44632e-05
4.06154e-05
2.26738e-05
3.5263e-05
4.25566e-05
2.48931e-05
2.49048e-05
4.25512e-05
4.25406e-05
2.48742e-05
2.48847e-05
4.254e-05
3.52712e-05
2.44636e-05
4.06125e-05
2.26747e-05
4.06145e-05
2.26747e-05
3.52898e-05
3.52638e-05
2.44636e-05
4.06202e-05
2.26738e-05
4.06221e-05
2.26739e-05
3.52829e-05
3.23886e-05
3.19487e-05
2.66541e-05
3.23835e-05
3.19309e-05
1.58012e-05
1.57857e-05
1.61105e-05
1.61204e-05
2.6637e-05
3.23915e-05
3.19372e-05
3.24013e-05
3.19536e-05
1.57868e-05
1.58052e-05
3.55552e-05
4.03287e-05
2.28279e-05
2.46149e-05
4.03267e-05
2.28276e-05
3.55099e-05
4.18535e-05
2.42225e-05
4.18638e-05
2.42077e-05
3.55489e-05
2.28263e-05
4.02875e-05
2.46077e-05
2.28259e-05
3.55049e-05
4.02862e-05
4.18666e-05
2.42472e-05
2.42676e-05
4.18613e-05
3.55105e-05
2.46164e-05
4.0328e-05
2.28275e-05
4.03362e-05
2.2828e-05
3.55536e-05
4.18613e-05
2.42152e-05
4.18557e-05
2.42326e-05
3.55044e-05
2.46092e-05
2.28258e-05
4.02887e-05
2.28263e-05
3.55485e-05
4.02961e-05
4.18571e-05
2.4225e-05
2.4208e-05
4.18673e-05
3.55479e-05
2.28259e-05
4.02845e-05
2.46056e-05
2.28256e-05
3.55051e-05
4.0284e-05
4.18551e-05
2.42192e-05
4.18645e-05
2.42035e-05
3.55062e-05
2.46068e-05
4.02918e-05
2.2825e-05
4.02989e-05
2.28256e-05
3.5551e-05
4.18649e-05
2.42155e-05
2.42327e-05
4.1858e-05
3.55032e-05
2.46072e-05
2.28255e-05
4.02848e-05
2.2826e-05
3.55485e-05
4.02928e-05
4.18632e-05
2.42128e-05
4.1857e-05
2.4229e-05
1.61162e-05
1.61077e-05
1.5819e-05
1.58036e-05
3.24194e-05
3.19451e-05
2.66658e-05
3.24062e-05
3.1928e-05
4.25438e-05
2.48851e-05
4.25443e-05
2.48751e-05
3.52825e-05
4.06182e-05
2.26747e-05
2.44628e-05
3.52718e-05
4.06132e-05
2.26743e-05
3.52766e-05
4.06265e-05
2.26738e-05
2.44629e-05
3.52652e-05
4.06222e-05
2.26735e-05
3.24059e-05
3.19597e-05
2.66537e-05
3.23891e-05
3.19373e-05
1.58045e-05
1.57915e-05
3.55569e-05
4.03374e-05
2.2828e-05
2.46139e-05
3.55102e-05
4.03332e-05
2.28271e-05
4.18583e-05
2.42367e-05
4.18633e-05
2.42165e-05
3.55506e-05
2.28263e-05
4.0298e-05
2.46066e-05
3.55048e-05
2.28254e-05
4.0293e-05
4.18606e-05
2.42374e-05
4.18651e-05
2.42183e-05
3.55492e-05
2.28259e-05
4.02946e-05
2.46041e-05
3.55049e-05
2.28252e-05
4.02899e-05
4.18596e-05
2.42345e-05
4.18641e-05
2.42164e-05
3.19177e-05
3.24599e-05
2.66703e-05
3.19018e-05
3.24505e-05
1.61306e-05
1.61276e-05
3.2466e-05
1.61393e-05
3.52807e-05
2.26821e-05
4.06778e-05
2.4471e-05
2.26816e-05
4.06772e-05
3.52678e-05
4.25428e-05
2.48761e-05
2.48741e-05
4.25294e-05
4.2538e-05
2.4892e-05
2.48914e-05
4.25244e-05
3.5251e-05
4.06503e-05
3.525e-05
4.06845e-05
4.25169e-05
2.4891e-05
4.25124e-05
2.49076e-05
1.58056e-05
1.57939e-05
1.61405e-05
1.61385e-05
3.24538e-05
1.61482e-05
1.94367e-05
2.11972e-05
4.17069e-05
4.25562e-05
2.12075e-05
4.17129e-05
1.94265e-05
1.45409e-05
2.48867e-05
3.30189e-05
3.30087e-05
1.45471e-05
1.4547e-05
3.3011e-05
2.49007e-05
3.30201e-05
1.45417e-05
1.9426e-05
4.25534e-05
2.12075e-05
4.1713e-05
2.11964e-05
4.17059e-05
1.94386e-05
1.61054e-05
1.61187e-05
1.9018e-05
4.09023e-05
2.06999e-05
4.18672e-05
4.09198e-05
2.07249e-05
1.89924e-05
1.41306e-05
2.42433e-05
3.21559e-05
3.21352e-05
1.41495e-05
1.4149e-05
3.21357e-05
2.42658e-05
3.21579e-05
1.41311e-05
1.89929e-05
4.18603e-05
4.09213e-05
2.07238e-05
4.09055e-05
2.0699e-05
1.90204e-05
1.94395e-05
4.25574e-05
2.12085e-05
4.17147e-05
2.12112e-05
4.17164e-05
1.94352e-05
1.45418e-05
3.30198e-05
2.48917e-05
1.4547e-05
3.30108e-05
1.94285e-05
4.25513e-05
2.12086e-05
4.1713e-05
1.94403e-05
2.11988e-05
4.17077e-05
1.45465e-05
3.30156e-05
2.4904e-05
3.30217e-05
1.45469e-05
1.61123e-05
1.61202e-05
1.9018e-05
4.18664e-05
4.09034e-05
2.07016e-05
4.09196e-05
2.07249e-05
1.89926e-05
1.41322e-05
3.21559e-05
2.42463e-05
1.41475e-05
3.21364e-05
1.89938e-05
4.18605e-05
4.0921e-05
2.0724e-05
1.90199e-05
4.09061e-05
2.07e-05
1.41463e-05
3.21375e-05
2.42674e-05
3.2158e-05
1.41318e-05
1.5786e-05
1.58028e-05
2.45843e-05
1.3626e-05
1.37125e-05
1.36541e-05
1.37298e-05
2.45219e-05
3.8369e-05
3.76225e-05
3.19666e-05
2.34124e-05
3.76319e-05
2.33779e-05
3.83719e-05
3.82785e-05
3.7631e-05
3.24337e-05
2.3523e-05
3.76394e-05
2.35049e-05
3.82875e-05
3.84149e-05
2.33653e-05
3.19866e-05
3.76331e-05
3.76209e-05
2.3393e-05
3.84132e-05
3.83036e-05
2.35016e-05
3.24495e-05
3.76448e-05
3.76316e-05
2.35197e-05
3.82961e-05
2.45679e-05
1.36785e-05
1.37315e-05
1.36485e-05
1.37196e-05
2.46455e-05
1.61028e-05
1.61155e-05
1.57982e-05
1.58188e-05
2.44322e-05
1.36614e-05
1.35585e-05
1.36737e-05
1.35729e-05
2.4401e-05
3.86566e-05
3.76602e-05
3.23914e-05
2.36229e-05
2.36074e-05
3.76701e-05
3.86722e-05
3.81648e-05
3.75875e-05
3.19105e-05
2.31668e-05
2.31471e-05
3.75968e-05
3.81852e-05
3.86718e-05
2.36129e-05
3.24069e-05
3.76695e-05
2.36274e-05
3.86576e-05
3.76607e-05
3.81817e-05
2.31518e-05
3.19339e-05
3.75957e-05
2.3171e-05
3.81631e-05
3.75868e-05
2.44023e-05
1.36713e-05
1.35708e-05
1.36601e-05
1.35574e-05
2.44357e-05
1.61174e-05
1.61079e-05
1.58202e-05
1.58029e-05
2.44025e-05
1.36754e-05
1.35743e-05
2.44337e-05
1.36636e-05
1.35606e-05
3.86724e-05
3.76724e-05
3.24169e-05
2.36194e-05
2.36355e-05
3.7662e-05
3.86594e-05
3.81811e-05
3.75962e-05
3.19406e-05
2.31584e-05
2.3178e-05
3.75865e-05
3.81654e-05
3.8658e-05
2.36333e-05
3.76604e-05
3.24006e-05
3.86731e-05
2.36179e-05
3.76702e-05
3.8163e-05
2.31761e-05
3.75861e-05
3.1918e-05
3.81813e-05
2.31564e-05
3.75956e-05
2.44352e-05
1.36636e-05
1.3561e-05
1.36758e-05
1.35747e-05
2.44049e-05
1.94224e-05
2.11903e-05
4.1672e-05
4.25371e-05
2.11997e-05
4.16779e-05
1.94127e-05
1.45225e-05
2.48649e-05
3.29748e-05
3.29653e-05
1.45283e-05
1.45293e-05
3.29706e-05
2.48794e-05
3.29781e-05
1.45248e-05
1.94109e-05
4.25326e-05
2.11962e-05
4.16774e-05
2.11863e-05
4.16706e-05
1.94234e-05
1.94284e-05
2.12092e-05
4.17152e-05
4.25541e-05
1.94393e-05
2.11998e-05
4.17098e-05
1.45455e-05
2.49058e-05
3.30127e-05
1.45411e-05
3.30244e-05
1.45412e-05
3.3023e-05
2.48948e-05
1.45473e-05
3.30143e-05
1.94404e-05
4.25569e-05
2.11993e-05
4.17089e-05
1.94294e-05
2.12109e-05
4.17167e-05
1.94161e-05
2.12038e-05
4.16825e-05
4.25387e-05
1.94266e-05
2.11945e-05
4.16776e-05
1.45313e-05
2.48856e-05
3.29807e-05
3.29894e-05
1.45272e-05
1.4526e-05
3.29854e-05
2.48744e-05
1.45313e-05
3.29775e-05
1.94288e-05
4.25435e-05
2.1195e-05
4.1679e-05
2.12063e-05
4.16856e-05
1.94177e-05
2.45463e-05
1.36918e-05
1.36157e-05
1.3711e-05
1.36409e-05
2.4491e-05
3.82188e-05
3.76066e-05
3.23769e-05
2.34875e-05
2.34643e-05
3.76161e-05
3.8228e-05
3.836e-05
3.75692e-05
3.19287e-05
2.34044e-05
3.75784e-05
2.33731e-05
3.83639e-05
3.82453e-05
2.34568e-05
3.2395e-05
3.76192e-05
2.34785e-05
3.76091e-05
3.82364e-05
3.84061e-05
2.33658e-05
3.19507e-05
3.75766e-05
3.75671e-05
2.33916e-05
3.84012e-05
2.45283e-05
1.37173e-05
1.36596e-05
1.37012e-05
1.36323e-05
2.4601e-05
1.5784e-05
1.58042e-05
1.61196e-05
1.6111e-05
2.44647e-05
1.37013e-05
1.36258e-05
2.45138e-05
1.36817e-05
1.36046e-05
3.826e-05
3.76286e-05
3.24048e-05
2.34416e-05
3.7618e-05
2.34632e-05
3.8249e-05
3.84623e-05
3.75783e-05
3.19567e-05
2.33587e-05
2.33815e-05
3.7567e-05
3.84553e-05
3.82428e-05
2.34712e-05
3.76129e-05
3.23894e-05
3.76241e-05
3.82563e-05
2.34496e-05
3.84318e-05
2.33857e-05
3.75661e-05
3.19346e-05
3.84407e-05
2.33621e-05
3.75767e-05
2.44895e-05
1.36709e-05
1.35951e-05
1.36902e-05
1.36146e-05
2.44465e-05
1.5804e-05
1.57865e-05
1.90068e-05
2.06931e-05
4.18615e-05
4.08791e-05
2.07176e-05
4.08947e-05
1.89815e-05
1.41137e-05
3.21032e-05
2.42027e-05
3.20835e-05
1.41323e-05
1.89814e-05
4.18545e-05
2.07149e-05
4.08959e-05
2.06905e-05
4.08794e-05
1.90086e-05
1.41324e-05
3.20856e-05
2.42268e-05
3.21069e-05
1.41149e-05
1.89937e-05
4.0917e-05
2.07256e-05
4.18604e-05
1.90191e-05
4.09026e-05
2.07013e-05
1.41465e-05
2.4269e-05
3.21357e-05
1.41322e-05
3.21576e-05
1.41303e-05
3.21576e-05
2.42476e-05
1.41478e-05
3.2136e-05
1.90203e-05
4.18687e-05
4.09051e-05
2.07007e-05
1.89949e-05
4.09192e-05
2.07263e-05
1.89831e-05
2.07192e-05
4.18548e-05
4.08954e-05
1.90084e-05
2.06949e-05
4.08811e-05
1.4132e-05
3.20952e-05
2.42355e-05
3.21143e-05
1.41182e-05
1.90095e-05
4.18628e-05
2.06949e-05
4.08817e-05
2.072e-05
4.08969e-05
1.89844e-05
1.41152e-05
3.21091e-05
2.42132e-05
1.4132e-05
3.20898e-05
1.90084e-05
4.0886e-05
2.06952e-05
4.1865e-05
4.0901e-05
2.07199e-05
1.89833e-05
1.41145e-05
2.42041e-05
3.21097e-05
3.20895e-05
1.41328e-05
1.41326e-05
3.20906e-05
2.42272e-05
3.21119e-05
1.41155e-05
1.89835e-05
4.1858e-05
4.09008e-05
2.07174e-05
4.08851e-05
2.06931e-05
1.90103e-05
1.90074e-05
2.06928e-05
4.18626e-05
4.08813e-05
2.07171e-05
4.08964e-05
1.89822e-05
1.41141e-05
3.21038e-05
2.41987e-05
3.20835e-05
1.41328e-05
1.89824e-05
4.18556e-05
2.07141e-05
4.08964e-05
2.069e-05
4.08807e-05
1.90093e-05
1.41327e-05
3.20848e-05
2.42225e-05
3.21064e-05
1.41151e-05
1.89846e-05
4.09019e-05
2.07211e-05
4.18584e-05
1.90098e-05
4.08872e-05
2.06968e-05
1.41319e-05
2.42355e-05
3.21003e-05
3.21195e-05
1.41185e-05
1.41157e-05
3.21141e-05
2.42132e-05
1.41322e-05
3.20954e-05
1.90106e-05
4.18658e-05
4.08866e-05
2.06967e-05
4.09021e-05
2.07219e-05
1.89858e-05
1.89835e-05
2.07186e-05
4.1857e-05
4.08972e-05
1.90088e-05
2.06946e-05
4.08828e-05
1.41323e-05
3.20949e-05
2.42325e-05
3.2114e-05
1.41185e-05
1.90096e-05
4.18644e-05
2.06945e-05
4.0883e-05
2.07194e-05
4.08981e-05
1.89846e-05
1.41155e-05
3.21085e-05
2.42098e-05
1.41323e-05
3.20894e-05
1.61074e-05
1.6116e-05
1.58039e-05
1.58183e-05
2.4436e-05
1.36615e-05
1.35603e-05
1.36742e-05
1.35736e-05
2.44047e-05
3.86601e-05
3.76644e-05
2.36365e-05
3.24063e-05
3.86752e-05
2.36202e-05
3.76742e-05
3.81679e-05
3.75878e-05
2.31798e-05
3.19272e-05
3.81853e-05
2.31602e-05
3.75982e-05
2.4405e-05
1.36758e-05
1.35749e-05
2.44369e-05
1.3664e-05
1.3562e-05
3.86751e-05
2.36191e-05
3.242e-05
3.76759e-05
2.36358e-05
3.86631e-05
3.76647e-05
3.81868e-05
2.31603e-05
3.1948e-05
3.76036e-05
2.31802e-05
3.81723e-05
3.75896e-05
1.94283e-05
4.25438e-05
2.12017e-05
4.16824e-05
2.1206e-05
4.16861e-05
1.94231e-05
1.45285e-05
3.2992e-05
2.48746e-05
1.45334e-05
3.2983e-05
1.9417e-05
4.25402e-05
2.12058e-05
4.16865e-05
2.11948e-05
1.94292e-05
4.16795e-05
1.4533e-05
3.29833e-05
2.48854e-05
3.29921e-05
1.45331e-05
2.45674e-05
1.36781e-05
1.36128e-05
1.3684e-05
1.36169e-05
2.45662e-05
3.8231e-05
3.76214e-05
2.34548e-05
3.23927e-05
2.34428e-05
3.82641e-05
3.76338e-05
3.84824e-05
3.75714e-05
2.33791e-05
3.1945e-05
3.7585e-05
3.8488e-05
2.3357e-05
2.44556e-05
1.36801e-05
1.3605e-05
1.36633e-05
2.44706e-05
1.35927e-05
3.81758e-05
2.34701e-05
3.23976e-05
3.76208e-05
2.34863e-05
3.76214e-05
3.81773e-05
3.85424e-05
2.33788e-05
3.1972e-05
3.75834e-05
3.75804e-05
2.33797e-05
3.83734e-05
1.57887e-05
1.5806e-05
1.90095e-05
4.18635e-05
2.06957e-05
4.08889e-05
2.07196e-05
4.09009e-05
1.89846e-05
1.41194e-05
3.2119e-05
2.42167e-05
1.41343e-05
3.20997e-05
1.89845e-05
4.18564e-05
2.07197e-05
4.0898e-05
2.06953e-05
1.901e-05
4.08846e-05
1.41338e-05
3.20989e-05
2.42368e-05
3.21206e-05
1.41195e-05
1.90108e-05
4.18654e-05
4.08943e-05
2.06978e-05
4.09059e-05
2.07218e-05
1.89863e-05
1.41197e-05
3.21233e-05
2.42177e-05
3.2104e-05
1.41341e-05
1.8986e-05
4.1858e-05
4.09026e-05
2.07214e-05
4.08895e-05
1.90111e-05
2.06974e-05
1.41337e-05
3.21034e-05
2.42381e-05
3.21244e-05
1.412e-05
1.90096e-05
4.18643e-05
2.06953e-05
4.08899e-05
2.07192e-05
4.0902e-05
1.89848e-05
1.41195e-05
3.21184e-05
2.4215e-05
1.41345e-05
3.20989e-05
1.89846e-05
4.1857e-05
2.07193e-05
4.08992e-05
1.90101e-05
2.06949e-05
4.08858e-05
1.41339e-05
3.20979e-05
2.42358e-05
3.21196e-05
1.41196e-05
2.4441e-05
1.35559e-05
1.36787e-05
1.35664e-05
1.36876e-05
2.44327e-05
3.81597e-05
3.76118e-05
3.19007e-05
2.31451e-05
2.31264e-05
3.76213e-05
3.81791e-05
3.86805e-05
3.76578e-05
3.24462e-05
2.36689e-05
3.76681e-05
2.3653e-05
3.86975e-05
3.81729e-05
2.31361e-05
3.19234e-05
3.76164e-05
2.31482e-05
3.76118e-05
3.81306e-05
3.86972e-05
2.36568e-05
3.24605e-05
3.76647e-05
3.76605e-05
2.36721e-05
3.86802e-05
2.44113e-05
1.35651e-05
1.36848e-05
1.35537e-05
1.36747e-05
2.44442e-05
1.61235e-05
1.61345e-05
1.37061e-05
2.36831e-05
1.94186e-05
4.16864e-05
2.12055e-05
4.25309e-05
4.16808e-05
2.11931e-05
1.94264e-05
1.45247e-05
2.48671e-05
3.29749e-05
3.29659e-05
1.45299e-05
1.45293e-05
3.2974e-05
2.48811e-05
3.29779e-05
1.45325e-05
1.94092e-05
4.25264e-05
4.16808e-05
2.11914e-05
4.16737e-05
2.11815e-05
1.94212e-05
1.94202e-05
4.16855e-05
2.12037e-05
4.25262e-05
4.16801e-05
2.1191e-05
1.94279e-05
1.45272e-05
2.48837e-05
3.299e-05
3.29812e-05
1.45324e-05
1.45333e-05
3.29902e-05
2.48987e-05
3.29941e-05
1.45363e-05
1.94096e-05
4.25213e-05
4.16799e-05
2.11883e-05
4.16723e-05
2.11784e-05
1.94219e-05
4.16746e-05
2.11594e-05
1.94017e-05
3.29816e-05
1.45214e-05
4.16751e-05
2.11585e-05
1.94035e-05
3.29988e-05
1.45256e-05
1.57918e-05
1.58075e-05
1.61342e-05
1.61459e-05
1.37234e-05
2.35149e-05
2.16255e-05
2.16414e-05
2.19854e-05
2.16255e-05
2.16415e-05
2.15456e-05
2.15456e-05
2.16255e-05
2.16414e-05
2.19856e-05
2.16256e-05
2.16411e-05
2.15451e-05
2.15456e-05
3.64634e-05
3.14974e-05
3.14654e-05
2.66747e-05
3.15318e-05
3.14944e-05
3.64491e-05
3.64683e-05
3.1433e-05
3.14923e-05
2.66652e-05
3.14651e-05
3.15304e-05
3.64481e-05
3.64452e-05
2.66473e-05
3.14636e-05
3.15279e-05
3.14322e-05
3.14911e-05
3.64662e-05
3.64168e-05
3.14342e-05
3.14591e-05
2.66551e-05
3.14957e-05
3.14642e-05
3.64005e-05
3.63933e-05
2.66358e-05
3.14565e-05
3.14884e-05
3.14261e-05
3.14522e-05
3.64142e-05
3.64675e-05
3.14336e-05
3.1492e-05
2.66655e-05
3.64476e-05
3.14654e-05
3.15299e-05
3.64201e-05
3.14256e-05
3.14521e-05
2.6653e-05
3.14923e-05
3.63967e-05
3.1455e-05
3.64748e-05
3.14967e-05
3.14373e-05
2.66697e-05
3.14694e-05
3.1535e-05
3.64548e-05
2.16258e-05
2.16417e-05
2.1985e-05
2.16258e-05
2.16418e-05
2.1546e-05
2.15459e-05
2.1641e-05
2.16268e-05
2.19862e-05
2.1641e-05
2.16269e-05
2.1546e-05
2.1546e-05
2.1641e-05
2.16268e-05
2.19866e-05
2.16411e-05
2.16268e-05
2.15459e-05
2.15459e-05
2.19853e-05
2.16255e-05
2.16415e-05
2.16255e-05
2.16414e-05
2.15456e-05
2.15456e-05
2.19848e-05
2.16258e-05
2.16418e-05
2.16257e-05
2.16417e-05
2.1546e-05
2.1546e-05
2.19861e-05
2.16411e-05
2.16269e-05
2.16409e-05
2.16268e-05
2.1546e-05
2.1546e-05
2.19865e-05
2.16411e-05
2.16268e-05
2.1641e-05
2.16268e-05
2.15459e-05
2.15459e-05
2.90621e-05
3.69337e-05
2.8058e-05
3.55071e-05
3.68978e-05
2.80126e-05
2.9104e-05
3.09971e-05
3.43517e-05
4.02931e-05
3.87977e-05
3.43892e-05
3.88104e-05
3.09619e-05
3.09628e-05
3.88116e-05
4.03005e-05
3.43874e-05
3.43512e-05
3.87999e-05
3.09978e-05
2.9104e-05
3.55523e-05
3.68977e-05
2.80122e-05
3.69328e-05
2.80587e-05
2.90621e-05
2.16258e-05
2.16417e-05
2.1985e-05
2.16258e-05
2.16415e-05
2.15454e-05
2.1546e-05
2.1641e-05
2.16268e-05
2.19863e-05
2.16407e-05
2.16269e-05
2.15455e-05
2.1546e-05
2.1641e-05
2.16268e-05
2.19867e-05
2.16412e-05
2.16269e-05
2.15454e-05
2.15459e-05
2.90618e-05
3.55063e-05
3.69354e-05
2.80582e-05
3.68978e-05
2.80127e-05
2.91038e-05
3.09954e-05
3.43454e-05
3.87978e-05
4.02943e-05
3.09604e-05
3.43836e-05
3.88112e-05
2.91031e-05
3.55507e-05
3.68971e-05
2.80121e-05
2.90615e-05
3.69319e-05
2.80584e-05
3.09621e-05
3.8817e-05
4.03048e-05
3.43887e-05
3.43495e-05
3.88019e-05
3.09979e-05
2.88044e-05
2.77012e-05
3.67553e-05
3.52689e-05
2.76877e-05
3.67424e-05
2.88047e-05
3.07615e-05
3.4291e-05
4.06396e-05
3.88587e-05
3.43143e-05
3.8865e-05
3.07582e-05
3.07598e-05
3.88641e-05
4.06459e-05
3.43125e-05
3.42919e-05
3.8859e-05
3.07593e-05
2.8807e-05
3.52868e-05
2.76881e-05
3.67427e-05
2.77005e-05
3.67577e-05
2.88034e-05
3.64403e-05
2.66571e-05
3.15276e-05
3.14922e-05
3.14916e-05
3.14615e-05
3.64601e-05
3.64479e-05
2.66482e-05
3.14644e-05
3.15293e-05
3.64665e-05
3.14339e-05
3.14929e-05
3.64644e-05
2.66647e-05
3.14325e-05
3.14915e-05
3.64453e-05
3.14632e-05
3.15285e-05
2.87872e-05
3.67589e-05
2.76958e-05
3.52709e-05
3.67434e-05
2.76835e-05
2.87936e-05
3.07491e-05
3.42564e-05
4.06046e-05
3.88545e-05
3.8861e-05
3.42797e-05
3.07369e-05
3.07363e-05
3.8862e-05
4.06112e-05
3.42794e-05
3.88552e-05
3.42567e-05
3.07479e-05
2.87945e-05
3.52895e-05
3.67446e-05
2.76841e-05
3.67592e-05
2.76964e-05
2.8787e-05
2.87825e-05
3.67437e-05
2.76933e-05
3.52628e-05
3.6728e-05
2.76809e-05
2.87889e-05
3.07488e-05
3.42669e-05
4.06118e-05
3.88415e-05
3.88484e-05
3.42902e-05
3.07363e-05
3.07361e-05
3.88495e-05
4.06188e-05
3.42896e-05
3.88428e-05
3.07474e-05
3.42671e-05
2.87899e-05
3.5281e-05
3.67278e-05
2.76814e-05
3.67433e-05
2.76937e-05
2.8782e-05
2.87936e-05
3.67442e-05
2.76835e-05
3.52898e-05
2.87878e-05
3.67603e-05
2.76965e-05
3.07395e-05
3.42808e-05
4.06162e-05
3.88642e-05
3.42577e-05
3.88577e-05
3.07457e-05
3.07471e-05
3.88571e-05