/*--------------------------------*- C++ -*----------------------------------*\
| =========                 |                                                 |
| \\      /  F ield         | OpenFOAM: The Open Source CFD Toolbox           |
|  \\    /   O peration     | Version:  2206                                  |
|   \\  /    A nd           | Website:  www.openfoam.com                      |
|    \\/     M anipulation  |                                                 |
\*---------------------------------------------------------------------------*/
FoamFile
{
    version     2.0;
    format      ascii;
    arch        "LSB;label=32;scalar=64";
    class       volVectorField;
    location    "0.3";
    object      U;
}
// * * * * * * * * * * * * * * * * * * * * * * * * * * * * * * * * * * * * * //

dimensions      [0 1 -1 0 0 0 0];

internalField   nonuniform List<vector> 
66621
(
(-1.10374e-05 -2.20221e-05 0.0843729)
(-2.80253e-05 4.94105e-07 0.107611)
(-1.92533e-05 -1.86848e-06 0.0841308)
(5.9763e-05 8.66276e-07 0.120203)
(4.87142e-05 -1.37567e-05 0.109258)
(4.65784e-06 -2.45202e-06 0.127725)
(-7.12417e-06 4.71753e-06 0.0730356)
(-4.57845e-07 6.37452e-05 0.120664)
(3.9167e-06 8.2166e-07 0.12694)
(-1.72418e-06 -2.56534e-06 0.12787)
(-1.6416e-05 4.69456e-05 0.109733)
(0.000202149 0.00020489 0.125539)
(1.40113e-05 1.36339e-05 0.0972243)
(1.56913e-05 1.33256e-05 0.0975297)
(-1.01073e-05 -1.05757e-05 0.0731596)
(-8.03088e-06 -4.11603e-06 0.0730403)
(-0.000205013 -0.000205265 0.125516)
(-1.69547e-05 -1.20835e-05 0.0974195)
(-1.49639e-05 -1.31544e-05 0.0971856)
(-2.45239e-06 1.87766e-06 0.126977)
(-1.47564e-05 -4.50057e-05 0.109476)
(1.53297e-05 -1.32416e-05 0.0972095)
(8.32624e-06 -4.44943e-06 0.0730405)
(-6.02422e-05 8.15058e-07 0.120202)
(-7.81214e-07 1.10037e-06 0.126842)
(-4.92865e-05 -1.38431e-05 0.109257)
(-4.3813e-06 -1.79626e-06 0.127727)
(-2.81159e-05 -3.6371e-07 0.107612)
(-1.88969e-05 2.76132e-06 0.0841282)
(-6.03184e-05 -8.11149e-07 0.120203)
(-8.94054e-07 -1.48242e-06 0.126832)
(-3.21883e-06 1.7438e-06 0.127722)
(-4.90801e-05 1.44063e-05 0.109255)
(2.77893e-05 4.84893e-07 0.107606)
(1.96576e-05 -2.35673e-06 0.0841276)
(5.98177e-05 -6.44209e-07 0.120203)
(1.6353e-06 -7.67764e-07 0.126829)
(3.68594e-06 1.96048e-06 0.127721)
(4.8526e-05 1.45542e-05 0.109262)
(2.7831e-05 -3.0148e-07 0.107607)
(1.88501e-05 3.18431e-06 0.084127)
(-0.000200466 0.000205297 0.12554)
(-1.40865e-05 1.29156e-05 0.0971939)
(-1.63915e-05 1.31672e-05 0.0975547)
(-5.59875e-06 7.31851e-06 0.073252)
(4.63238e-08 6.38134e-05 0.120663)
(-3.24339e-06 7.59417e-07 0.126942)
(1.18297e-06 -2.83736e-06 0.127871)
(1.64741e-05 4.78507e-05 0.109727)
(-4.66841e-07 3.48337e-05 0.108303)
(-3.14158e-06 2.02348e-05 0.0845672)
(3.28272e-07 3.48911e-05 0.108302)
(3.37748e-06 2.0616e-05 0.0845639)
(7.5704e-06 5.23736e-06 0.0730374)
(5.65297e-06 7.25698e-06 0.0732504)
(-1.73235e-06 -2.29905e-05 0.0957924)
(1.88539e-06 -1.64421e-05 0.0707343)
(1.14834e-05 -9.18505e-07 0.0786307)
(-2.79904e-05 1.21267e-06 0.104766)
(-7.63705e-06 1.03767e-06 0.0813257)
(3.03483e-05 -1.33226e-07 0.107661)
(3.06065e-05 3.6617e-07 0.104798)
(1.09627e-05 -2.94165e-07 0.0813342)
(-8.23695e-06 2.74898e-06 0.0786309)
(1.12158e-05 -4.43068e-07 0.0705013)
(-2.32456e-05 -4.57874e-08 0.0954448)
(2.12332e-05 4.4626e-06 0.0840779)
(2.39541e-05 1.8663e-06 0.0954308)
(-9.14973e-06 2.48284e-06 0.0705232)
(1.00475e-05 -6.52184e-06 0.0730082)
(-1.26656e-05 -1.18915e-05 0.0897422)
(6.03873e-06 4.86699e-06 0.071852)
(5.5989e-06 5.4017e-06 0.0719029)
(-7.27601e-06 -5.96268e-06 0.0718345)
(-6.64824e-06 -6.63805e-06 0.0718786)
(1.1587e-05 1.13789e-05 0.0897514)
(-4.03763e-05 -1.78861e-05 0.106297)
(1.06881e-05 5.55216e-06 0.0834193)
(-1.49741e-05 -1.49129e-05 0.0972203)
(5.7512e-05 3.25043e-05 0.115361)
(-5.92586e-05 -3.13539e-05 0.115364)
(-1.16348e-05 -6.87425e-06 0.0833973)
(3.94763e-05 1.93824e-05 0.106309)
(-1.76759e-05 -3.94167e-05 0.10633)
(6.42448e-06 9.85907e-06 0.0834782)
(-1.75757e-05 -1.34939e-05 0.0974852)
(2.97403e-05 6.00258e-05 0.115516)
(-3.16821e-05 -5.84e-05 0.115486)
(-7.68304e-06 -1.08599e-05 0.0834346)
(1.71563e-05 3.99647e-05 0.106357)
(8.84265e-06 7.09762e-06 0.0730132)
(1.21932e-05 1.15559e-05 0.0897949)
(-6.81768e-06 -5.02549e-06 0.0718963)
(-6.54002e-06 -4.46929e-06 0.0718317)
(5.39799e-06 5.52351e-06 0.0719013)
(6.14277e-06 5.58506e-06 0.0718437)
(-1.28785e-05 -1.18131e-05 0.0896929)
(1.94947e-05 4.03082e-05 0.106467)
(-9.688e-06 -9.53389e-06 0.0835445)
(-2.85116e-05 -5.47495e-05 0.115461)
(4.69457e-06 1.11981e-05 0.0835818)
(-1.88707e-05 -4.09967e-05 0.106349)
(4.08353e-05 1.67642e-05 0.106274)
(-1.18101e-05 -5.05702e-06 0.0833065)
(1.37698e-05 1.54706e-05 0.0971835)
(-5.99727e-05 -3.06071e-05 0.115305)
(1.08495e-05 6.57085e-06 0.0832963)
(-4.22464e-05 -1.82194e-05 0.106189)
(5.91942e-05 3.07741e-05 0.115324)
(6.88236e-06 -4.78634e-06 0.0718451)
(1.27504e-05 -1.24485e-05 0.0896966)
(1.26857e-05 -6.3947e-06 0.0834011)
(5.92749e-05 -3.13473e-05 0.115335)
(4.21228e-05 -2.13781e-05 0.106268)
(1.11498e-05 1.46093e-06 0.0786305)
(-7.67888e-06 -7.98649e-07 0.0813256)
(-2.87089e-05 -7.36476e-07 0.104768)
(3.01829e-05 2.68985e-07 0.107662)
(1.08986e-05 5.74815e-07 0.0813337)
(2.97892e-05 1.7525e-07 0.104799)
(-8.56874e-06 -2.21808e-06 0.0786314)
(1.12916e-05 1.28415e-06 0.0705024)
(-2.31272e-05 9.86177e-07 0.0954442)
(2.15079e-05 -3.75072e-06 0.0840763)
(2.41167e-05 -9.68302e-07 0.0954298)
(-9.14804e-06 -1.59748e-06 0.0705248)
(2.78274e-05 1.19038e-06 0.104763)
(8.20935e-06 1.01244e-06 0.0813215)
(8.82173e-06 2.60726e-06 0.0786275)
(2.33917e-05 -8.57179e-08 0.0954413)
(9.8103e-06 2.39552e-06 0.0705219)
(8.24238e-06 -7.35236e-07 0.081321)
(2.83799e-05 -6.3698e-07 0.104762)
(9.1293e-06 -2.03763e-06 0.078627)
(2.29455e-05 1.09117e-06 0.0954396)
(9.74244e-06 -1.48668e-06 0.070523)
(1.21826e-05 -1.276e-05 0.0897402)
(-7.78193e-06 3.69859e-06 0.0718337)
(-5.95319e-06 5.45935e-06 0.0719193)
(6.55047e-06 -6.8192e-06 0.0718323)
(5.74349e-06 -6.87778e-06 0.0718793)
(-1.31443e-05 9.35391e-06 0.0897551)
(4.1049e-05 -1.79407e-05 0.106222)
(-9.99324e-06 4.47385e-06 0.083293)
(1.5041e-05 -1.54916e-05 0.0971837)
(-5.88303e-05 3.1671e-05 0.11534)
(1.20561e-05 -7.83252e-06 0.0832957)
(6.13343e-05 -3.17135e-05 0.115333)
(-3.73513e-05 1.71978e-05 0.106251)
(1.85111e-05 -3.8495e-05 0.106407)
(-6.69381e-06 1.00398e-05 0.0835943)
(1.79109e-05 -1.33239e-05 0.0975197)
(-3.04083e-05 5.99541e-05 0.115542)
(3.17501e-05 -5.74531e-05 0.115523)
(7.48266e-06 -1.07856e-05 0.083532)
(-1.7578e-05 3.64093e-05 0.106422)
(7.37796e-06 -8.08751e-06 0.0731987)
(-1.93632e-06 -1.01784e-05 0.0790044)
(-5.65818e-07 3.28591e-05 0.105482)
(5.51404e-07 9.62905e-06 0.0817415)
(-2.22595e-07 -3.29729e-05 0.108363)
(3.53332e-07 -3.24748e-05 0.105481)
(-8.08004e-07 -9.64593e-06 0.081748)
(2.17196e-06 9.39031e-06 0.0790296)
(-9.2646e-07 -1.01482e-05 0.0708536)
(-2.24706e-06 2.49474e-05 0.0961286)
(4.18706e-06 -2.2422e-05 0.0844686)
(1.98749e-06 -2.44261e-05 0.0960464)
(1.11443e-06 9.13485e-06 0.070917)
(1.80233e-06 -1.01035e-05 0.0790074)
(4.82296e-07 3.31021e-05 0.105481)
(-6.42839e-07 9.6501e-06 0.0817431)
(9.6267e-08 -3.29286e-05 0.108362)
(-3.98666e-07 -3.2352e-05 0.105484)
(7.13118e-07 -9.61719e-06 0.081749)
(-2.22667e-06 9.50453e-06 0.0790298)
(9.43361e-07 -1.0024e-05 0.070855)
(2.25288e-06 2.5349e-05 0.0961252)
(-3.94258e-06 -2.22012e-05 0.0844683)
(-1.90994e-06 -2.43744e-05 0.0960494)
(-1.14915e-06 9.27669e-06 0.0709138)
(-7.05157e-06 -8.50781e-06 0.0731964)
(3.44191e-06 2.02714e-06 0.128321)
(3.18211e-06 3.48234e-06 0.12865)
(-6.76652e-07 -2.91453e-07 0.128596)
(-1.75522e-06 -3.8451e-06 0.128767)
(-2.10747e-06 1.60799e-06 0.128322)
(-4.35333e-06 1.93193e-06 0.12865)
(2.52337e-06 -4.13947e-07 0.128595)
(9.80017e-08 -2.89351e-06 0.128767)
(-1.85109e-06 1.90706e-06 0.128294)
(-4.14309e-07 7.42909e-07 0.128592)
(-1.4589e-06 -2.37377e-06 0.128629)
(1.71032e-07 -1.64736e-06 0.128756)
(2.03921e-06 1.77241e-06 0.128294)
(3.74126e-07 4.07473e-07 0.128591)
(1.01083e-06 -2.47619e-06 0.128628)
(-2.46925e-07 1.38865e-07 0.128755)
(-0.000245123 -5.54349e-07 0.124356)
(6.07113e-05 1.74757e-06 0.118828)
(0.000230752 1.04412e-08 0.124992)
(-6.26248e-05 -1.43814e-06 0.120231)
(-6.3834e-05 -1.78993e-06 0.118839)
(-0.000230862 -8.31516e-07 0.124987)
(0.000240745 -2.07927e-06 0.124383)
(5.98278e-05 -2.01801e-06 0.115465)
(0.000249357 -1.47151e-05 0.120171)
(0.000260984 -3.58745e-06 0.123081)
(-4.09219e-06 -0.000237458 0.124621)
(4.67561e-08 0.000227343 0.12526)
(-4.12598e-08 6.34551e-05 0.119331)
(-1.28145e-06 -6.06781e-05 0.120702)
(-1.66359e-06 -0.000225093 0.125263)
(-1.09861e-06 -6.11315e-05 0.119314)
(2.20673e-07 0.000235755 0.124661)
(-2.54859e-06 -0.000247951 0.123278)
(-3.99603e-06 6.00594e-05 0.115985)
(1.57636e-05 -4.78281e-05 0.109619)
(-1.06656e-05 0.000248064 0.120435)
(1.09003e-05 -0.000247949 0.120356)
(2.13865e-06 -5.76278e-05 0.11589)
(-5.48769e-07 0.000257153 0.123362)
(-5.41348e-05 -5.31562e-05 0.1171)
(-0.000191999 -0.000192986 0.125493)
(5.24266e-05 0.000222304 0.122319)
(0.000217015 5.39799e-05 0.122344)
(-5.23776e-05 -0.000219287 0.122275)
(-0.000214552 -5.03366e-05 0.122291)
(5.67317e-05 5.77103e-05 0.117152)
(5.45783e-05 5.32755e-05 0.11716)
(0.000192901 0.000195322 0.125514)
(-0.000220454 -5.37249e-05 0.122343)
(-5.29994e-05 -0.000217705 0.122245)
(-5.58231e-05 -5.7141e-05 0.117083)
(0.000218392 5.22923e-05 0.122378)
(5.06706e-05 0.000216792 0.122258)
(4.80054e-07 -6.03471e-05 0.115664)
(-1.52057e-05 -0.000245309 0.120287)
(-4.10342e-06 -0.000258411 0.1232)
(0.000244921 -1.67689e-08 0.124356)
(-6.12026e-05 1.62021e-06 0.118826)
(-0.000230155 6.78854e-08 0.124992)
(6.19446e-05 -1.42779e-06 0.120231)
(6.29248e-05 -1.89886e-06 0.11884)
(0.000230714 -6.16737e-07 0.124988)
(-0.000240309 -1.58476e-06 0.124383)
(0.000255291 7.88433e-07 0.123033)
(-6.07796e-05 -2.23741e-06 0.115465)
(4.95935e-05 1.32574e-05 0.109209)
(-0.000250137 -1.47016e-05 0.120166)
(5.9564e-05 7.16213e-07 0.115446)
(0.00025372 1.23498e-05 0.120132)
(-0.000261996 -3.06914e-06 0.123077)
(0.000240959 4.25344e-07 0.124357)
(-0.000229462 3.15613e-08 0.124989)
(-6.23898e-05 -1.20102e-06 0.118826)
(6.18478e-05 1.25998e-06 0.120232)
(0.000230315 1.00605e-06 0.124986)
(6.1992e-05 2.34134e-06 0.118842)
(-0.000242772 1.42186e-06 0.12438)
(0.000254782 -6.7026e-07 0.123031)
(-6.11529e-05 3.14631e-06 0.115464)
(5.00321e-05 -1.27433e-05 0.109208)
(-0.000248374 1.53784e-05 0.120167)
(6.02474e-05 1.5252e-07 0.115447)
(-0.000259361 3.11962e-06 0.123071)
(0.000252796 -1.26503e-05 0.120132)
(-0.00024085 7.34663e-07 0.124357)
(0.000229948 2.90258e-07 0.124989)
(6.17517e-05 -8.69879e-07 0.118827)
(-6.24719e-05 1.32825e-06 0.120231)
(-0.000230258 1.16666e-06 0.124986)
(-6.27184e-05 2.47733e-06 0.118841)
(0.00024323 1.97967e-06 0.12438)
(-0.000255057 -4.0381e-07 0.12303)
(6.04216e-05 3.44569e-06 0.115467)
(-5.05162e-05 -1.27658e-05 0.109215)
(0.000248393 1.63991e-05 0.12017)
(-0.00025272 -1.26669e-05 0.120136)
(-6.0964e-05 2.39365e-07 0.115448)
(0.000258984 3.80842e-06 0.123071)
(5.47433e-05 -5.3794e-05 0.117106)
(0.000192115 -0.000191914 0.125494)
(-5.17221e-05 0.000224403 0.122319)
(-0.000220195 5.43375e-05 0.122352)
(0.000215553 -4.91696e-05 0.122297)
(5.31259e-05 -0.000219696 0.122273)
(-5.704e-05 5.86697e-05 0.117158)
(3.49308e-06 -0.00023748 0.124622)
(-6.16509e-07 0.000227507 0.12526)
(-3.52612e-07 6.36558e-05 0.119329)
(9.28999e-07 -6.06249e-05 0.120702)
(1.09574e-06 -0.000225065 0.125264)
(7.9301e-07 -6.09314e-05 0.119315)
(-1.16708e-06 0.000235894 0.124661)
(1.9761e-06 -0.000247857 0.123278)
(3.74762e-06 6.0796e-05 0.115982)
(-1.56432e-05 -4.72676e-05 0.109613)
(1.01373e-05 0.000248065 0.120429)
(-1.08901e-05 -0.000247934 0.120349)
(-2.29844e-06 -5.72398e-05 0.115891)
(-5.19592e-07 0.000257524 0.123361)
(-5.11386e-06 -9.09308e-06 0.0510745)
(-2.95017e-06 -3.25607e-06 0.0350419)
(-1.78433e-06 -7.70037e-07 0.0220053)
(-1.01148e-06 1.50743e-08 0.0116598)
(-3.55847e-07 8.89877e-08 0.00355574)
(-5.89527e-06 3.45594e-07 0.0510536)
(-2.63624e-06 6.68582e-07 0.0350303)
(-1.17328e-06 5.8165e-07 0.0219974)
(-4.36101e-07 3.70835e-07 0.0116546)
(-9.93445e-08 1.22454e-07 0.00355376)
(-2.93335e-06 2.26301e-06 0.0527563)
(-1.10632e-06 1.13075e-06 0.0363166)
(-3.48114e-07 6.14753e-07 0.0228596)
(-3.88065e-08 3.06697e-07 0.0121335)
(1.58248e-08 1.00429e-07 0.00370645)
(-5.10687e-06 -4.95073e-06 0.0527677)
(-2.26159e-06 -1.7707e-06 0.0363235)
(-8.84125e-07 -5.14516e-07 0.0228644)
(-2.69267e-07 -1.14717e-07 0.0121369)
(-4.00062e-08 -1.85519e-08 0.003708)
(-3.65915e-06 -1.59157e-06 0.05276)
(-1.57467e-06 -4.91728e-07 0.0363189)
(-6.48571e-07 -1.29469e-07 0.0228606)
(-2.06058e-07 -1.82988e-08 0.0121336)
(-3.76583e-08 -4.29142e-09 0.00370641)
(3.71883e-06 -1.8109e-06 0.0527614)
(1.51013e-06 -6.77681e-07 0.0363215)
(5.4321e-07 -3.07807e-07 0.0228634)
(1.2315e-07 -1.48963e-07 0.012136)
(5.59795e-09 -5.4851e-08 0.00370751)
(-5.55102e-06 5.24963e-07 0.0510531)
(-2.34786e-06 8.23256e-08 0.0350305)
(-9.65531e-07 -3.49741e-08 0.0219977)
(-3.15099e-07 -5.26492e-08 0.0116544)
(-5.90355e-08 -1.85168e-08 0.00355359)
(6.2057e-06 7.43552e-08 0.0510538)
(2.7309e-06 4.47421e-07 0.0350323)
(1.1546e-06 3.95622e-07 0.0219998)
(3.94212e-07 2.43078e-07 0.0116564)
(7.80756e-08 7.43664e-08 0.00355449)
(5.89613e-06 6.40999e-07 0.0510543)
(2.4987e-06 8.91483e-08 0.0350321)
(1.00567e-06 -5.752e-08 0.0219998)
(3.18023e-07 -6.64687e-08 0.0116566)
(5.52692e-08 -1.90036e-08 0.00355468)
(-3.00205e-06 2.79926e-06 0.0527578)
(-1.71163e-06 8.16873e-07 0.0363163)
(-1.00118e-06 1.23934e-07 0.0228591)
(-5.2025e-07 -7.87e-08 0.0121333)
(-1.68965e-07 -4.86008e-08 0.0037066)
(-1.26886e-06 5.13635e-06 0.0510493)
(-8.01535e-07 2.02408e-06 0.0350261)
(-5.10205e-07 7.45619e-07 0.0219944)
(-2.77181e-07 1.8883e-07 0.0116531)
(-9.5805e-08 1.95621e-08 0.00355328)
(1.52484e-06 5.22397e-06 0.051048)
(1.02892e-06 2.03434e-06 0.0350253)
(6.70119e-07 7.27161e-07 0.0219942)
(3.64278e-07 1.68168e-07 0.0116527)
(1.22115e-07 1.04422e-08 0.00355309)
(3.42388e-06 2.40185e-06 0.0527593)
(1.32498e-06 1.05993e-06 0.0363197)
(4.48464e-07 4.80542e-07 0.0228622)
(9.37437e-08 1.9413e-07 0.0121351)
(4.78677e-09 5.39565e-08 0.00370697)
(3.29087e-06 2.57817e-06 0.0527567)
(2.00786e-06 6.60215e-07 0.0363153)
(1.24536e-06 4.85279e-09 0.0228579)
(6.7619e-07 -1.57888e-07 0.0121323)
(2.24129e-07 -7.82194e-08 0.00370597)
(4.82636e-06 -8.94545e-07 0.0519111)
(2.42932e-06 -7.6298e-07 0.0356756)
(1.13823e-06 -6.07268e-07 0.022428)
(4.12105e-07 -4.05263e-07 0.0118924)
(8.44247e-08 -1.51377e-07 0.00362913)
(-2.51114e-06 8.48559e-07 0.0522167)
(-9.61291e-07 6.90773e-07 0.0359073)
(-3.76734e-07 4.98258e-07 0.0225834)
(-1.2047e-07 2.96531e-07 0.0119789)
(-2.79042e-08 9.99853e-08 0.00365683)
(4.24777e-06 -2.43877e-07 0.052215)
(2.06273e-06 -2.06801e-07 0.0359081)
(9.3279e-07 -1.65107e-07 0.0225852)
(3.15966e-07 -1.11775e-07 0.0119806)
(5.76993e-08 -4.24587e-08 0.00365761)
(-3.23228e-06 2.33166e-06 0.0519174)
(-1.43525e-06 1.86585e-06 0.0356779)
(-6.55895e-07 1.33159e-06 0.022428)
(-2.58564e-07 7.90687e-07 0.0118916)
(-6.79824e-08 2.67377e-07 0.00362861)
(6.74752e-06 1.90263e-06 0.0510168)
(3.07809e-06 1.16038e-06 0.0350081)
(1.28034e-06 6.63063e-07 0.0219857)
(3.83743e-07 3.07727e-07 0.0116494)
(5.1403e-08 8.65335e-08 0.00355248)
(4.56477e-06 -3.71586e-06 0.0527343)
(2.02547e-06 -2.16266e-06 0.0363044)
(7.38308e-07 -1.22465e-06 0.0228538)
(1.33922e-07 -5.9789e-07 0.0121313)
(-2.0038e-08 -1.79428e-07 0.00370607)
(3.37178e-06 1.55938e-06 0.0513119)
(1.39014e-06 5.27057e-07 0.0352064)
(5.79773e-07 1.30846e-07 0.0221075)
(2.14835e-07 -1.7403e-08 0.0117124)
(5.65888e-08 -2.44374e-08 0.00357126)
(-4.12701e-06 -2.44944e-06 0.0512932)
(-1.9383e-06 -1.19422e-06 0.0351963)
(-8.68937e-07 -5.10671e-07 0.0221029)
(-3.16797e-07 -1.34512e-07 0.0117108)
(-7.38772e-08 -1.42154e-09 0.00357105)
(2.62025e-06 2.62388e-06 0.0512993)
(1.48641e-06 7.68267e-07 0.0351969)
(8.50479e-07 1.02581e-07 0.0221012)
(4.25002e-07 -8.39676e-08 0.0117091)
(1.32422e-07 -4.87578e-08 0.00357027)
(-3.16855e-06 -3.47045e-06 0.0512704)
(-1.74735e-06 -1.49463e-06 0.0351804)
(-9.02441e-07 -5.69294e-07 0.0220928)
(-3.83587e-07 -1.35769e-07 0.0117055)
(-9.92216e-08 -6.93982e-09 0.00356943)
(3.76623e-06 4.18499e-06 0.0527377)
(1.52357e-06 2.58027e-06 0.0363063)
(4.55728e-07 1.54829e-06 0.0228546)
(-1.55299e-09 7.94803e-07 0.0121313)
(-5.7425e-08 2.46215e-07 0.00370598)
(3.13033e-06 -1.23586e-06 0.0528142)
(1.47583e-06 7.81003e-08 0.036355)
(8.09499e-07 4.53789e-07 0.022881)
(4.49479e-07 4.04271e-07 0.0121427)
(1.68621e-07 1.62425e-07 0.00370858)
(3.94307e-06 -9.97961e-07 0.0513174)
(1.72024e-06 -9.68407e-09 0.0352107)
(7.3231e-07 1.38908e-07 0.0221111)
(2.45257e-07 9.64524e-08 0.0117149)
(4.9791e-08 2.17541e-08 0.00357219)
(4.74403e-06 1.37318e-06 0.0519119)
(2.41638e-06 1.16528e-06 0.0356759)
(1.15262e-06 8.98138e-07 0.0224282)
(4.29291e-07 5.74786e-07 0.0118927)
(9.20623e-08 2.07192e-07 0.0036292)
(-2.54307e-06 -5.83142e-07 0.0522165)
(-9.73242e-07 -4.59694e-07 0.0359071)
(-3.78083e-07 -3.31738e-07 0.0225831)
(-1.18635e-07 -2.01338e-07 0.0119787)
(-2.6567e-08 -6.95063e-08 0.00365678)
(4.23533e-06 5.28158e-07 0.0522146)
(2.06077e-06 4.56481e-07 0.0359077)
(9.36155e-07 3.49746e-07 0.0225849)
(3.19745e-07 2.20329e-07 0.0119804)
(5.94912e-08 7.82042e-08 0.00365754)
(-3.3408e-06 -1.85522e-06 0.0519185)
(-1.46248e-06 -1.46962e-06 0.0356784)
(-6.48304e-07 -1.05036e-06 0.0224283)
(-2.44317e-07 -6.30056e-07 0.011892)
(-6.11811e-08 -2.1581e-07 0.0036287)
(7.07197e-06 -1.21274e-06 0.0510167)
(3.34139e-06 -5.53883e-07 0.0350086)
(1.46971e-06 -2.07838e-07 0.0219861)
(4.94872e-07 -3.39481e-08 0.0116493)
(8.80777e-08 6.33621e-09 0.00355232)
(2.9132e-06 8.23051e-07 0.0522171)
(1.13401e-06 6.69875e-07 0.0359085)
(4.26033e-07 4.83879e-07 0.022585)
(1.2655e-07 2.88937e-07 0.0119801)
(2.52707e-08 9.80117e-08 0.00365697)
(3.63924e-06 2.25224e-06 0.0519171)
(1.59939e-06 1.80839e-06 0.0356787)
(6.92803e-07 1.28519e-06 0.0224293)
(2.56727e-07 7.58577e-07 0.0118925)
(6.31877e-08 2.55316e-07 0.00362876)
(2.93219e-06 -5.4604e-07 0.0522162)
(1.13847e-06 -4.35559e-07 0.035908)
(4.23396e-07 -3.13667e-07 0.0225842)
(1.22997e-07 -1.88276e-07 0.0119795)
(2.36172e-08 -6.39012e-08 0.00365686)
(3.7364e-06 -1.77252e-06 0.0519174)
(1.61959e-06 -1.4238e-06 0.0356788)
(6.8188e-07 -1.01381e-06 0.022429)
(2.40981e-07 -6.00434e-07 0.0118924)
(5.57394e-08 -2.01859e-07 0.00362882)
(-3.76137e-06 2.74815e-06 0.0528227)
(-2.02387e-06 8.27958e-07 0.0363559)
(-1.0634e-06 9.15324e-08 0.0228794)
(-4.84858e-07 -1.19191e-07 0.0121414)
(-1.36818e-07 -7.17983e-08 0.00370797)
(-2.96243e-06 3.3567e-06 0.0513074)
(-1.49943e-06 1.23171e-06 0.0352015)
(-6.65635e-07 3.66126e-07 0.0221043)
(-2.39002e-07 7.30901e-08 0.0117112)
(-4.97354e-08 8.27435e-09 0.00357122)
(3.19602e-06 -3.24584e-06 0.0512729)
(1.86494e-06 -1.32174e-06 0.035183)
(1.0558e-06 -4.45818e-07 0.0220951)
(5.01692e-07 -5.33163e-08 0.0117073)
(1.46222e-07 2.43916e-08 0.00357031)
(4.47584e-06 -3.11297e-06 0.0527198)
(2.85339e-06 -1.10039e-06 0.0362938)
(1.75193e-06 -2.26452e-07 0.022847)
(9.1413e-07 1.0085e-07 0.0121277)
(2.86255e-07 8.11131e-08 0.00370516)
(-1.55239e-06 -3.79969e-06 0.0518357)
(-1.3005e-06 -1.90102e-06 0.0356243)
(-1.03584e-06 -9.35119e-07 0.022396)
(-6.82366e-07 -3.74395e-07 0.0118756)
(-2.51643e-07 -9.41481e-08 0.0036239)
(2.73495e-07 2.4226e-06 0.0521382)
(1.77798e-07 8.83587e-07 0.0358569)
(1.28509e-07 3.33911e-07 0.0225528)
(8.4356e-08 1.08739e-07 0.0119629)
(3.11406e-08 3.16735e-08 0.00365196)
(-6.15787e-07 -2.89364e-06 0.0521284)
(-5.20059e-07 -1.34613e-06 0.0358496)
(-4.09009e-07 -6.28327e-07 0.0225487)
(-2.63833e-07 -2.29771e-07 0.0119611)
(-9.51223e-08 -5.39211e-08 0.00365159)
(1.4274e-06 3.08716e-06 0.0518576)
(1.05376e-06 1.28238e-06 0.0356385)
(7.72279e-07 5.54918e-07 0.0224039)
(4.88009e-07 2.14428e-07 0.0118791)
(1.75603e-07 6.14187e-08 0.00362479)
(1.92233e-06 -6.49078e-06 0.0509921)
(1.23019e-06 -2.90569e-06 0.0349909)
(7.17112e-07 -1.19896e-06 0.0219746)
(3.3815e-07 -3.56933e-07 0.0116437)
(9.75695e-08 -4.82079e-08 0.00355068)
(1.45894e-06 -3.72994e-06 0.0518372)
(1.21384e-06 -1.86116e-06 0.0356254)
(9.61497e-07 -9.13326e-07 0.022397)
(6.32477e-07 -3.63871e-07 0.011876)
(2.33168e-07 -9.1094e-08 0.00362394)
(-4.05408e-07 2.44031e-06 0.0521392)
(-3.1342e-07 8.94928e-07 0.0358575)
(-2.41254e-07 3.40649e-07 0.0225535)
(-1.56224e-07 1.1239e-07 0.0119635)
(-5.64445e-08 3.28585e-08 0.00365203)
(5.1598e-07 -2.8799e-06 0.0521294)
(4.19007e-07 -1.33707e-06 0.0358501)
(3.2287e-07 -6.22126e-07 0.0225494)
(2.07359e-07 -2.26237e-07 0.0119617)
(7.46517e-08 -5.27255e-08 0.00365166)
(-1.53301e-06 3.13053e-06 0.0518581)
(-1.16153e-06 1.31272e-06 0.035639)
(-8.60996e-07 5.74273e-07 0.0224045)
(-5.43863e-07 2.24446e-07 0.0118795)
(-1.94815e-07 6.43475e-08 0.00362479)
(-1.62639e-06 -6.45642e-06 0.0509919)
(-9.49184e-07 -2.93826e-06 0.0349906)
(-4.98747e-07 -1.25212e-06 0.0219747)
(-2.04687e-07 -3.99624e-07 0.0116434)
(-5.17099e-08 -6.54348e-08 0.00355054)
(-4.06308e-06 -3.46805e-06 0.052719)
(-2.43559e-06 -1.39152e-06 0.0362931)
(-1.41399e-06 -4.34226e-07 0.0228461)
(-7.02973e-07 -2.02733e-08 0.0121269)
(-2.12982e-07 4.10523e-08 0.00370459)
(2.85991e-06 2.09414e-06 0.0528148)
(1.17963e-06 8.54937e-07 0.0363523)
(4.50141e-07 3.29994e-07 0.0228775)
(1.30605e-07 9.94312e-08 0.0121402)
(2.18712e-08 2.04574e-08 0.0037075)
(2.8945e-06 2.18544e-06 0.0528156)
(1.54444e-06 5.86949e-07 0.0363522)
(8.29425e-07 1.6085e-08 0.0228775)
(3.93451e-07 -1.2372e-07 0.01214)
(1.19233e-07 -6.20148e-08 0.00370734)
(7.73505e-07 -1.07273e-05 0.0525296)
(1.1793e-06 -5.04773e-06 0.0361913)
(1.12983e-06 -2.08371e-06 0.0227941)
(7.39838e-07 -7.03806e-07 0.0121039)
(2.50731e-07 -1.25987e-07 0.00369893)
(6.42223e-06 -5.80525e-07 0.0524086)
(3.33094e-06 -6.13237e-07 0.0361111)
(1.55104e-06 -5.72301e-07 0.0227451)
(5.69325e-07 -4.185e-07 0.0120783)
(1.20155e-07 -1.6299e-07 0.00369119)
(-5.24825e-06 2.71091e-06 0.0524309)
(-2.6076e-06 2.3329e-06 0.0361241)
(-1.25983e-06 1.72543e-06 0.0227514)
(-5.23494e-07 1.04284e-06 0.0120807)
(-1.37934e-07 3.55609e-07 0.00369165)
(-3.14819e-06 9.5522e-07 0.0528067)
(-1.46018e-06 1.44033e-07 0.0363471)
(-6.95245e-07 -1.29262e-07 0.0228746)
(-2.97666e-07 -1.50919e-07 0.0121387)
(-8.53162e-08 -5.67667e-08 0.00370713)
(-2.38304e-06 6.47851e-07 0.0512984)
(-1.02383e-06 1.43447e-07 0.0351988)
(-4.5065e-07 5.72758e-08 0.0221034)
(-1.42717e-07 2.48478e-08 0.0117106)
(-2.66676e-08 1.61125e-08 0.00357079)
(3.92725e-06 -3.1253e-06 0.0512891)
(1.69305e-06 -1.77775e-06 0.0351929)
(6.03458e-07 -9.6248e-07 0.022101)
(1.1362e-07 -4.39275e-07 0.01171)
(-1.07735e-08 -1.22722e-07 0.00357085)
(-3.70944e-06 -3.06276e-06 0.0527997)
(-1.79445e-06 -1.58279e-06 0.0363445)
(-7.77356e-07 -7.16064e-07 0.0228744)
(-2.53929e-07 -2.38016e-07 0.0121394)
(-4.53721e-08 -4.00711e-08 0.00370751)
(-3.5887e-06 -3.21053e-06 0.0527965)
(-1.96009e-06 -1.44459e-06 0.0363421)
(-9.69861e-07 -5.48926e-07 0.022873)
(-3.86775e-07 -1.2389e-07 0.0121384)
(-9.2473e-08 -1.14106e-09 0.00370714)
(-3.05786e-06 -2.49012e-06 0.0528096)
(-1.36079e-06 -8.95651e-07 0.03635)
(-5.23736e-07 -2.57444e-07 0.0228769)
(-1.57663e-07 -6.03215e-08 0.01214)
(-2.99812e-08 -1.44169e-08 0.00370728)
(-3.81154e-06 -3.60457e-06 0.0513038)
(-1.90591e-06 -1.18257e-06 0.0352009)
(-8.95429e-07 -2.39962e-07 0.0221048)
(-3.65994e-07 1.11006e-08 0.0117116)
(-9.35595e-08 1.96008e-08 0.00357135)
(1.31686e-06 3.03927e-06 0.0512876)
(4.82438e-07 1.50888e-06 0.0351898)
(2.63375e-08 8.80625e-07 0.0220985)
(-1.8558e-07 4.53028e-07 0.0117087)
(-1.24177e-07 1.54485e-07 0.00357064)
(-3.49862e-06 -1.55626e-06 0.0528095)
(-1.65451e-06 -4.22056e-07 0.0363499)
(-7.35385e-07 -5.80208e-08 0.0228769)
(-2.65793e-07 3.45744e-08 0.01214)
(-5.92128e-08 1.67299e-08 0.00370731)
(-3.98374e-06 -9.88227e-07 0.0513038)
(-1.81838e-06 -8.81805e-08 0.0352016)
(-8.27728e-07 1.39248e-07 0.0221051)
(-3.21158e-07 1.41975e-07 0.0117111)
(-7.98688e-08 5.28714e-08 0.00357084)
(3.77651e-06 2.60012e-06 0.0512874)
(1.70179e-06 1.44427e-06 0.0351923)
(6.68798e-07 7.75865e-07 0.0221007)
(1.66043e-07 3.47209e-07 0.0117096)
(9.14776e-09 9.61333e-08 0.00357062)
(2.96149e-06 2.66865e-06 0.0528039)
(1.65916e-06 1.21333e-06 0.0363456)
(8.17338e-07 4.8238e-07 0.0228748)
(3.09391e-07 1.3058e-07 0.0121393)
(6.42737e-08 1.76861e-08 0.00370727)
(3.2473e-06 2.72993e-06 0.0528047)
(1.53026e-06 1.47759e-06 0.0363459)
(5.9133e-07 7.6747e-07 0.0228753)
(1.30822e-07 3.35021e-07 0.0121397)
(-3.0189e-09 9.37121e-08 0.00370744)
(6.57238e-06 1.38765e-06 0.0524097)
(3.48005e-06 1.28113e-06 0.0361119)
(1.66739e-06 1.05017e-06 0.0227457)
(6.40563e-07 6.95187e-07 0.0120786)
(1.44461e-07 2.53429e-07 0.00369104)
(-5.14474e-06 -1.87335e-06 0.0524323)
(-2.48396e-06 -1.65349e-06 0.0361251)
(-1.15598e-06 -1.24991e-06 0.0227522)
(-4.5747e-07 -7.72596e-07 0.0120811)
(-1.14814e-07 -2.68574e-07 0.00369152)
(5.63848e-06 2.58741e-06 0.0524311)
(2.75745e-06 2.2308e-06 0.0361258)
(1.28571e-06 1.64536e-06 0.0227535)
(5.14044e-07 9.90742e-07 0.0120823)
(1.298e-07 3.3704e-07 0.00369215)
(5.48644e-06 -1.78233e-06 0.0524326)
(2.60767e-06 -1.60629e-06 0.0361266)
(1.17469e-06 -1.21708e-06 0.0227538)
(4.48144e-07 -7.46724e-07 0.0120826)
(1.07392e-07 -2.55802e-07 0.00369235)
(2.89223e-06 -3.76766e-06 0.0528004)
(1.06647e-06 -2.24241e-06 0.0363434)
(2.43883e-07 -1.24054e-06 0.0228733)
(-5.8779e-08 -5.67789e-07 0.0121387)
(-5.86304e-08 -1.56185e-07 0.00370736)
(2.66708e-06 -3.75997e-06 0.0527959)
(1.24393e-06 -1.95063e-06 0.0363421)
(5.0123e-07 -9.07685e-07 0.022873)
(1.38153e-07 -3.26245e-07 0.012139)
(1.76239e-08 -6.68495e-08 0.00370752)
(-8.48978e-07 -6.04173e-06 0.0524645)
(-8.89776e-07 -3.15728e-06 0.0361461)
(-8.31658e-07 -1.50812e-06 0.022766)
(-6.01019e-07 -5.8763e-07 0.0120891)
(-2.31638e-07 -1.39422e-07 0.00369444)
(1.02491e-06 5.28949e-06 0.0525157)
(8.84281e-07 2.4401e-06 0.0361781)
(6.9916e-07 1.06532e-06 0.0227841)
(4.57616e-07 3.95652e-07 0.0120978)
(1.65678e-07 9.66973e-08 0.00369684)
(9.37214e-07 -5.89303e-06 0.0524652)
(9.59893e-07 -3.09125e-06 0.0361469)
(8.74318e-07 -1.48634e-06 0.0227666)
(6.21052e-07 -5.83345e-07 0.0120894)
(2.36759e-07 -1.39822e-07 0.00369441)
(-1.05733e-06 5.2864e-06 0.0525139)
(-9.13769e-07 2.45068e-06 0.0361776)
(-7.34386e-07 1.0776e-06 0.022784)
(-4.87507e-07 4.03976e-07 0.0120977)
(-1.78409e-07 9.97558e-08 0.00369669)
(2.91397e-06 3.37126e-06 0.0730811)
(7.27068e-06 6.64276e-06 0.0730033)
(0.000192511 0.000197712 0.125497)
(1.46561e-05 1.30518e-05 0.0973527)
(1.29646e-05 1.50161e-05 0.0971547)
(2.97802e-05 -1.11489e-07 0.10762)
(2.00868e-05 3.7621e-06 0.0840519)
(6.11257e-05 -1.40125e-06 0.120192)
(1.30961e-07 4.34369e-06 0.126994)
(4.87621e-05 1.28708e-05 0.109169)
(1.64903e-06 2.50078e-06 0.127867)
(2.96451e-05 3.1583e-07 0.10762)
(2.02611e-05 -3.01064e-06 0.0840502)
(6.10924e-05 1.3438e-06 0.120192)
(1.079e-06 -2.28457e-06 0.127001)
(-1.13952e-06 -2.8564e-06 0.127866)
(4.89516e-05 -1.19646e-05 0.109167)
(7.70989e-07 -1.45682e-06 0.126999)
(-4.87082e-05 -1.24856e-05 0.109176)
(-2.01046e-05 -3.61693e-06 0.0840559)
(8.3001e-06 -5.91995e-06 0.0729975)
(0.000193828 -0.000191356 0.125462)
(1.49118e-05 -1.30771e-05 0.0971503)
(2.04498e-05 -1.30989e-05 0.0975047)
(7.05999e-06 -7.5805e-06 0.0731923)
(-2.08513e-06 -5.79264e-05 0.120698)
(-3.67734e-06 1.5298e-07 0.127053)
(-2.1883e-06 1.73602e-06 0.127895)
(1.61571e-05 -4.84476e-05 0.109595)
(1.65435e-06 -5.78766e-05 0.120698)
(2.13015e-06 -8.60156e-08 0.127055)
(8.64883e-07 3.16293e-06 0.127895)
(-1.5912e-05 -4.62418e-05 0.109589)
(-1.94426e-08 -3.26616e-05 0.108362)
(3.57387e-06 -2.23841e-05 0.0844526)
(-1.54062e-07 -3.25985e-05 0.108361)
(-3.40026e-06 -2.20546e-05 0.0844524)
(-0.000193441 -0.000195314 0.125462)
(-1.32288e-05 -1.49883e-05 0.0971922)
(-1.77867e-05 -1.2739e-05 0.0974655)
(-7.62537e-06 -6.69099e-06 0.0730049)
(-6.68627e-06 -7.39227e-06 0.0731902)
(2.96813e-06 4.3524e-06 0.0718934)
(5.16988e-06 4.68347e-06 0.0718366)
(1.12681e-05 1.08299e-05 0.0897854)
(3.5079e-06 9.96394e-06 0.0835)
(3.37641e-05 5.8049e-05 0.115428)
(1.87999e-05 3.8794e-05 0.1064)
(9.9831e-06 5.4919e-06 0.0832737)
(5.82065e-05 3.02773e-05 0.115284)
(3.91397e-05 1.57094e-05 0.106246)
(-5.29994e-06 3.3226e-06 0.0786561)
(3.00535e-05 7.31269e-08 0.104755)
(9.64442e-06 -3.15272e-07 0.081311)
(-2.48423e-05 5.96698e-07 0.107654)
(1.00439e-05 -1.24126e-06 0.0786072)
(-2.44621e-05 1.93424e-06 0.104811)
(-4.82283e-06 1.10705e-06 0.0813502)
(-6.08674e-06 2.78482e-06 0.0705305)
(2.32172e-05 1.58691e-06 0.0953985)
(-1.46074e-05 -6.47101e-08 0.0841581)
(9.71553e-06 -8.65392e-07 0.0704919)
(-1.94031e-05 -1.42181e-07 0.0954783)
(-5.64218e-06 -2.75297e-06 0.078657)
(9.60742e-06 6.05058e-07 0.0813106)
(2.92856e-05 4.80734e-07 0.104756)
(-2.48791e-05 -4.963e-07 0.107655)
(9.75026e-06 1.85644e-06 0.078607)
(-4.87962e-06 -8.38513e-07 0.0813501)
(-2.50775e-05 -1.45156e-06 0.104813)
(-6.12952e-06 -1.91847e-06 0.0705323)
(2.33292e-05 -7.09932e-07 0.0953975)
(-1.44318e-05 8.86496e-07 0.0841558)
(9.7502e-06 1.75405e-06 0.0704931)
(-1.92522e-05 1.0584e-06 0.0954779)
(5.97622e-06 -1.94572e-06 0.0705323)
(-2.32378e-05 -8.00724e-07 0.0954016)
(1.41905e-05 7.30265e-07 0.0841594)
(-1.05494e-05 1.47748e-06 0.0704946)
(1.917e-05 1.06652e-06 0.0954795)
(-4.59654e-06 3.35308e-06 0.0730418)
(-1.00903e-05 9.49053e-06 0.0897932)
(4.7395e-06 -6.97785e-06 0.0718437)
(3.6725e-06 -5.55048e-06 0.0718607)
(1.22472e-05 -1.02196e-05 0.0897171)
(-4.22558e-06 3.22437e-06 0.0718438)
(-4.14601e-06 2.83398e-06 0.071917)
(-3.41495e-05 1.28445e-05 0.106279)
(1.00105e-05 -7.67854e-06 0.083298)
(5.99115e-05 -2.98871e-05 0.115288)
(-1.16434e-05 1.14299e-05 0.0972187)
(-5.26482e-05 2.98826e-05 0.115366)
(4.0528e-05 -2.0234e-05 0.106167)
(-8.37843e-06 1.96323e-06 0.0833422)
(-1.74134e-05 3.86589e-05 0.106481)
(6.60295e-06 -9.63832e-06 0.0834911)
(3.49299e-05 -5.95769e-05 0.1155)
(-1.20784e-05 1.0867e-05 0.0975832)
(1.69882e-05 -3.68032e-05 0.106391)
(-5.07046e-06 9.00048e-06 0.0835949)
(-2.85417e-05 5.15458e-05 0.11558)
(-4.58198e-06 4.55001e-06 0.0732606)