/*--------------------------------*- C++ -*----------------------------------*\
| =========                 |                                                 |
| \\      /  F ield         | OpenFOAM: The Open Source CFD Toolbox           |
|  \\    /   O peration     | Version:  2206                                  |
|   \\  /    A nd           | Website:  www.openfoam.com                      |
|    \\/     M anipulation  |                                                 |
\*---------------------------------------------------------------------------*/
FoamFile
{
    version     2.0;
    format      ascii;
    arch        "LSB;label=32;scalar=64";
    class       volVectorField;
    location    "0.3";
    object      wallShearStress;
}
// * * * * * * * * * * * * * * * * * * * * * * * * * * * * * * * * * * * * * //

dimensions      [0 2 -2 0 0 0 0];

internalField   uniform (0 0 0);

boundaryField
{
    topPatch
    {
        type            calculated;
        value           nonuniform List<vector> 0();
    }
    wall
    {
        type            calculated;
        value           nonuniform List<vector> 
7709
(
(1.41617e-08 -1.945e-09 -0.000135854)
(4.6207e-09 -4.39138e-09 -0.00013579)
(-1.65982e-10 -4.08728e-09 -0.000141679)
(1.9252e-09 1.32674e-09 -0.00014172)
(1.94146e-09 4.18168e-10 -0.000141689)
(-7.40781e-10 2.37996e-09 -0.000141708)
(3.10518e-09 3.86462e-10 -0.000135791)
(-3.92715e-09 -2.4966e-09 -0.000135806)
(-3.01014e-09 3.89746e-10 -0.000135808)
(6.67606e-09 1.51257e-09 -0.000141678)
(3.96547e-09 -1.49188e-09 -0.000135768)
(-5.0018e-09 -1.20859e-09 -0.000135765)
(-6.70384e-10 -2.32615e-09 -0.000141699)
(-8.81363e-09 2.62226e-09 -0.000141673)
(-4.64833e-09 5.60995e-09 -0.00013864)
(1.23709e-09 -3.836e-09 -0.000139683)
(-3.44365e-09 1.57254e-09 -0.000139713)
(2.94595e-09 -1.0226e-08 -0.000138621)
(-3.75361e-09 -4.02489e-09 -0.000135741)
(-7.05942e-10 7.67687e-09 -0.000141664)
(-2.48584e-09 7.03801e-10 -0.000136455)
(3.88527e-09 7.9295e-10 -0.000136447)
(-5.31435e-09 1.56902e-09 -0.000136417)
(4.51489e-09 1.25563e-09 -0.000136385)
(8.73033e-10 -1.01568e-08 -0.000141673)
(-6.48208e-09 -6.23497e-09 -0.000141767)
(-2.14285e-09 -6.75856e-10 -0.00013648)
(-4.89887e-09 -7.76062e-09 -0.00013864)
(1.20853e-09 2.66327e-09 -0.00013968)
(-3.49483e-09 -2.94724e-09 -0.00013971)
(2.73637e-09 8.23656e-09 -0.000138621)
(-5.19259e-09 4.71292e-10 -0.000135742)
(-1.25927e-09 -3.75368e-09 -0.000139702)
(-2.85796e-09 -9.74932e-09 -0.000138639)
(-1.2121e-09 2.44138e-09 -0.000139697)
(-2.60979e-09 7.68905e-09 -0.000138639)
(5.7786e-09 2.14035e-09 -0.000141745)
(2.25891e-09 -7.74674e-10 -0.000136432)
(-6.29404e-09 4.01279e-11 -0.000136397)
(-1.15932e-08 -1.96599e-09 -0.000141623)
(9.53591e-09 4.50949e-09 -0.000138451)
(-1.20859e-09 -1.18336e-09 -0.00013951)
(3.62851e-09 2.67202e-09 -0.000139495)
(-6.72095e-09 -2.531e-09 -0.000138485)
(-4.39458e-09 3.49893e-09 -0.000135669)
(-8.83085e-09 4.37444e-09 -0.000138455)
(2.17975e-09 -1.22949e-09 -0.000139513)
(-2.84232e-09 2.62384e-09 -0.000139499)
(7.45722e-09 -2.65374e-09 -0.000138487)
(2.6124e-09 4.11007e-09 -0.000135667)
(8.80397e-09 -3.93317e-10 -0.00014162)
(-1.19549e-09 -1.07053e-09 -0.000141735)
(-4.84632e-09 2.06537e-09 -0.000141731)
(-9.06024e-09 6.95753e-09 -0.000141357)
(-6.39181e-09 5.76631e-09 -0.000141064)
(6.03698e-09 -1.34429e-08 -0.000141082)
(3.43354e-09 2.04505e-09 -0.00014172)
(1.1437e-09 -7.08932e-10 -0.000136426)
(-6.85432e-10 5.49852e-09 -0.000136429)
(2.80861e-09 2.44718e-09 -0.000141735)
(4.44195e-09 1.07763e-09 -0.000141723)
(1.33008e-09 7.36663e-10 -0.000141735)
(3.89791e-09 -2.96844e-10 -0.000136447)
(4.30592e-09 -6.57215e-09 -0.00013642)
(2.62614e-09 -3.34017e-10 -0.000141729)
(3.43653e-09 -1.75966e-09 -0.000136439)
(-1.37241e-09 -4.4284e-09 -0.00013643)
(-3.19927e-09 -1.57613e-09 -0.000141735)
(-7.79007e-10 -4.36849e-09 -0.000141734)
(-7.29876e-09 -9.24556e-09 -0.000141066)
(5.19729e-09 1.00885e-08 -0.000141084)
(-5.84772e-09 -1.26943e-08 -0.000141101)
(-4.99185e-09 9.57619e-09 -0.000141103)
(1.28252e-09 6.81862e-09 -0.000141729)
(-1.52464e-09 3.53708e-09 -0.000141727)
(8.47662e-09 6.8615e-09 -0.000141186)
(-6.1566e-09 -4.43697e-09 -0.000141278)
(-8.68846e-09 6.82787e-09 -0.000141187)
(6.64127e-09 -4.56216e-09 -0.000141274)
(-2.22591e-08 8.77907e-09 -0.000141628)
(1.82632e-09 -6.33871e-09 -0.000141677)
(-2.1526e-09 -1.62805e-09 -0.000135744)
(-2.82902e-09 -3.39042e-10 -0.000135746)
(3.13751e-09 1.04154e-09 -0.000135749)
(1.29484e-09 5.18834e-09 -0.000141667)
(-1.40716e-08 -5.17334e-09 -0.00014162)
(-5.54185e-09 1.12158e-09 -0.000135663)
(5.29919e-09 1.03299e-09 -0.000135663)
(-2.18058e-09 8.18986e-09 -0.000141674)
(1.01492e-08 -3.42692e-09 -0.000141616)
(7.01936e-10 -7.94635e-09 -0.000138593)
(-9.6791e-10 1.77349e-09 -0.00013972)
(-2.06087e-09 6.79037e-09 -0.00013865)
(-1.43296e-10 -1.98733e-09 -0.000139655)
(4.56705e-09 -1.65452e-08 -0.000141061)
(4.25068e-09 -6.89994e-09 -0.000135764)
(5.19926e-10 6.04677e-09 -0.000138595)
(-9.92315e-10 -2.98566e-09 -0.000139717)
(-2.27766e-09 -8.73168e-09 -0.000138651)
(-1.96511e-10 5.29848e-10 -0.000139652)
(3.67739e-09 5.25744e-09 -0.000135768)
(-3.68904e-09 1.30074e-08 -0.000141061)
(-3.12852e-09 3.93802e-09 -0.000135766)
(3.93676e-10 -6.81779e-10 -0.000141662)
(-1.37903e-09 -7.9909e-10 -0.000141747)
(-1.25936e-08 -7.5587e-09 -0.000136406)
(4.42059e-09 2.60955e-09 -0.000136426)
(1.00601e-08 4.41884e-09 -0.000141661)
(-1.98452e-09 -2.0865e-09 -0.000138485)
(2.0049e-09 1.45989e-09 -0.00013948)
(5.17771e-09 2.37635e-09 -0.000138441)
(1.32831e-09 -1.96833e-09 -0.000139516)
(5.80577e-09 -2.51488e-10 -0.000135754)
(3.84037e-09 -2.40286e-09 -0.000138489)
(-6.94988e-10 1.38703e-09 -0.000139484)
(-3.8771e-09 2.13907e-09 -0.000138445)
(2.57657e-10 -2.06359e-09 -0.00013952)
(6.31355e-09 -3.94393e-09 -0.000141271)
(-4.23531e-09 -1.04931e-09 -0.000135753)
(2.19559e-10 -5.61969e-10 -0.000141723)
(-4.01425e-09 3.01825e-09 -0.000141721)
(-7.89854e-10 3.52286e-09 -0.000136447)
(-8.67766e-10 1.20753e-10 -0.000136433)
(5.83167e-09 -2.16637e-09 -0.000136384)
(-5.37293e-09 2.5953e-09 -0.000136402)
(7.61055e-10 -2.45512e-09 -0.000141665)
(-9.41833e-09 3.64179e-09 -0.00014166)
(2.93576e-09 5.41183e-09 -0.000141726)
(3.03406e-11 1.28175e-09 -0.000141741)
(4.73768e-09 -2.80105e-09 -0.000141728)
(-1.30506e-08 9.68467e-09 -0.000141729)
(-1.2228e-08 6.30394e-09 -0.000136425)
(-4.75197e-09 3.64699e-09 -0.000141734)
(-2.63663e-09 1.3466e-09 -0.000136432)
(-4.04978e-09 8.46439e-09 -0.000141076)
(3.92753e-09 1.38871e-08 -0.000141065)
(-4.73329e-09 -1.11996e-08 -0.000141078)
(5.53131e-09 -1.07514e-08 -0.000141078)
(-2.72621e-09 -1.3215e-09 -0.000136421)
(2.38851e-09 1.21619e-09 -0.000136408)
(-2.94201e-09 -5.40367e-09 -0.000141712)
(-1.40738e-09 -5.12577e-10 -0.000141736)
(-4.86799e-09 -3.44249e-09 -0.000141271)
(4.97434e-09 3.8961e-09 -0.000141184)
(-4.23244e-09 3.5591e-09 -0.000141184)
(-4.05691e-10 -4.08967e-09 -0.000135662)
(2.42789e-09 2.98306e-09 -0.000135763)
(5.84088e-09 -2.34932e-10 -0.000141602)
(-7.88306e-09 -1.39431e-09 -0.000141666)
(-3.22336e-09 -2.20046e-09 -0.000135758)
(4.25415e-09 -8.27924e-10 -0.000135801)
(1.61909e-09 -4.94821e-09 -0.000135641)
(2.12808e-09 4.36862e-09 -0.00013579)
(7.39516e-09 5.04342e-10 -0.00014158)
(-5.92645e-09 1.46317e-09 -0.000141695)
(-3.055e-09 -3.19237e-09 -0.000135734)
(5.51603e-09 -1.15232e-09 -0.000135834)
(2.20523e-09 1.05127e-08 -0.000141654)
(2.28782e-09 -3.754e-09 -0.000141731)
(-7.95285e-09 1.1168e-09 -0.000141608)
(7.19607e-09 -1.02675e-09 -0.000141668)
(1.7208e-09 -9.02212e-09 -0.000141683)
(3.85391e-10 4.94503e-09 -0.000141703)
(7.8105e-09 -1.3647e-09 -0.000141683)
(-8.08232e-09 1.26413e-09 -0.000141596)
(4.72672e-10 4.79693e-09 -0.000141718)
(2.02265e-09 -9.52579e-09 -0.00014167)
(-1.4207e-09 -4.82211e-09 -0.000135657)
(-3.74599e-09 2.52532e-09 -0.00013576)
(1.51257e-09 3.38415e-09 -0.000135776)
(2.45115e-10 -4.31331e-09 -0.000135651)
(-2.27921e-09 2.99888e-09 -0.000135773)
(-1.48816e-09 -4.73512e-09 -0.000135647)
(-3.47707e-09 -1.18378e-08 -0.000141686)
(-1.16858e-09 3.46776e-09 -0.000141704)
(-8.42048e-09 -1.66253e-09 -0.000141684)
(8.18065e-09 1.2793e-09 -0.00014159)
(-8.51955e-10 4.10431e-09 -0.000141717)
(-2.2892e-09 -1.00039e-08 -0.000141673)
(-3.37393e-09 1.84488e-09 -0.000135759)
(4.2245e-09 8.14594e-10 -0.000135803)
(4.36377e-09 -8.8726e-10 -0.000135816)
(-3.09346e-09 -2.57291e-09 -0.000135745)
(4.29491e-09 9.93488e-10 -0.000135818)
(-3.24529e-09 2.20096e-09 -0.000135746)
(2.33446e-09 -4.41793e-09 -0.000135756)
(-4.89329e-09 -2.55245e-09 -0.000135799)
(2.91032e-09 2.92181e-09 -0.000135761)
(-2.94483e-09 -2.31107e-09 -0.000135804)
(-4.59612e-09 -1.7725e-09 -0.000135814)
(2.48018e-09 -4.08475e-09 -0.000135744)
(-4.63899e-09 1.61136e-09 -0.000135818)
(5.02703e-09 -2.24481e-09 -0.000135747)
(-7.96737e-09 9.77634e-10 -0.000141582)
(8.2382e-09 -2.02905e-11 -0.000141696)
(2.14179e-09 -1.01989e-08 -0.000141658)
(2.02668e-09 4.38299e-09 -0.000141734)
(-2.46339e-09 -5.2393e-09 -0.000135636)
(-1.13781e-11 5.21569e-09 -0.000135789)
(-2.42681e-09 -1.05728e-08 -0.000141658)
(-2.58812e-10 7.23203e-09 -0.000141734)
(-3.26039e-09 2.7498e-09 -0.000135733)
(5.46193e-09 1.06026e-09 -0.000135835)
(2.78011e-09 -3.81069e-09 -0.00013573)
(-4.5045e-09 1.4338e-09 -0.000135832)
(2.06541e-09 5.54132e-09 -0.000135736)
(-6.31109e-09 3.25549e-09 -0.00013584)
(-8.71053e-09 -1.34189e-09 -0.000141598)
(7.9248e-09 2.42861e-10 -0.000141707)
(-4.86786e-09 -9.14254e-12 -0.000141608)
(1.21178e-12 4.36059e-09 -0.00013565)
(9.05902e-10 -4.43495e-09 -0.000135797)
(-1.85786e-09 5.11324e-09 -0.000135646)
(-2.39062e-09 -3.86795e-09 -0.000135791)
(5.10215e-10 3.04941e-09 -0.000135654)
(-3.67756e-10 2.91305e-09 -0.000135649)
(-4.50552e-09 1.40785e-08 -0.000141662)
(-2.81873e-09 -2.81299e-09 -0.00014174)
(5.92167e-09 4.45488e-10 -0.000141592)
(-8.05155e-09 3.52071e-10 -0.000141696)
(4.73841e-09 -1.55478e-10 -0.000141598)
(9.09784e-09 -3.41778e-09 -0.00013845)
(-2.29079e-09 1.86941e-09 -0.000139526)
(2.06773e-09 -1.88497e-09 -0.00013948)
(-8.68796e-09 3.29977e-09 -0.000138494)
(2.79609e-09 2.76737e-09 -0.000135757)
(-4.34754e-11 -4.00532e-09 -0.000135657)
(-8.54753e-09 -1.97055e-09 -0.000141659)
(7.0368e-09 8.16816e-10 -0.000141595)
(-3.13355e-09 6.7427e-09 -0.000138658)
(1.80318e-09 -2.63474e-09 -0.000139693)
(-1.93444e-09 2.20219e-09 -0.000139729)
(3.41637e-09 -1.00462e-08 -0.000138629)
(6.29879e-09 -1.25434e-08 -0.000141094)
(4.10261e-09 -7.42509e-10 -0.000135793)
(-5.4663e-09 8.71219e-09 -0.000141071)
(-3.03212e-09 -2.13368e-09 -0.000135751)
(7.44064e-09 -2.65252e-09 -0.000138436)
(-4.20789e-09 2.66162e-09 -0.000139554)
(2.32998e-09 -1.41068e-09 -0.000139466)
(-1.21973e-08 4.57982e-09 -0.000138521)
(-1.02821e-08 5.6001e-09 -0.00014129)
(4.22445e-10 3.5896e-09 -0.000135777)
(1.25403e-08 -6.10825e-09 -0.000141185)
(2.31217e-09 -4.66827e-09 -0.000135632)
(-7.62627e-09 -1.293e-09 -0.000141683)
(4.89098e-09 -1.40263e-10 -0.00014157)
(-3.17082e-09 6.26561e-09 -0.000138626)
(2.92732e-09 -2.98935e-09 -0.000139729)
(-2.00007e-09 2.45092e-09 -0.000139698)
(4.5563e-09 -1.01951e-08 -0.000138665)
(6.35849e-09 -1.2463e-08 -0.00014112)
(4.36654e-09 -1.38309e-09 -0.000135818)
(-2.55691e-09 -3.34217e-09 -0.000135723)
(4.8889e-10 -4.54431e-09 -0.000141719)
(1.99797e-09 9.39963e-09 -0.000141643)
(-1.09559e-09 5.82021e-09 -0.000136456)
(-2.07145e-09 -1.20334e-09 -0.000136491)
(4.03582e-09 3.83093e-10 -0.000136367)
(-4.26961e-09 -8.18459e-11 -0.000136405)
(-3.35692e-09 -1.06611e-09 -0.000136494)
(-1.67157e-09 6.6675e-09 -0.000136435)
(-3.18531e-09 -1.4225e-09 -0.00013642)
(3.77562e-09 2.21452e-10 -0.000136374)
(4.95374e-09 -3.29687e-09 -0.000141746)
(9.14437e-09 -4.02792e-09 -0.000141706)
(6.94066e-09 -9.91253e-10 -0.000141662)
(-7.67362e-09 1.24861e-09 -0.000141602)
(3.16287e-10 4.8206e-09 -0.000141695)
(1.89984e-09 -8.86442e-09 -0.000141677)
(-7.6101e-09 1.14481e-09 -0.000141593)
(7.49916e-09 -9.47622e-10 -0.000141673)
(2.05181e-09 -9.37167e-09 -0.000141668)
(6.49758e-10 4.94273e-09 -0.000141708)
(-9.80335e-09 -3.50353e-09 -0.000138452)
(1.79085e-09 1.84063e-09 -0.000139528)
(-2.66755e-09 -1.91579e-09 -0.000139484)
(8.20827e-09 3.2379e-09 -0.000138495)
(-4.5002e-09 2.10557e-09 -0.000135753)
(-1.36558e-08 -6.98367e-09 -0.00014119)
(-1.74713e-09 -4.67352e-09 -0.000135651)
(-8.23711e-09 3.2633e-09 -0.0001385)
(2.32897e-09 -2.02869e-09 -0.000139473)
(9.17634e-09 -3.29754e-09 -0.000138445)
(-2.03117e-09 2.00657e-09 -0.000139528)
(1.09538e-09 -4.43301e-09 -0.000135648)
(1.97338e-09 3.36365e-09 -0.000135767)
(7.95378e-09 3.23777e-09 -0.000138501)
(-2.57893e-09 -2.02293e-09 -0.000139476)
(-9.58725e-09 -3.33591e-09 -0.000138447)
(1.77066e-09 2.00622e-09 -0.000139531)
(-1.32665e-08 -6.83807e-09 -0.000141188)
(-1.92479e-09 -4.80314e-09 -0.000135645)
(-2.91037e-09 3.0238e-09 -0.000135765)
(5.60146e-10 -3.09517e-09 -0.000136467)
(-1.41066e-09 2.37884e-09 -0.000136457)
(-1.33765e-09 2.34045e-09 -0.000136458)
(1.50298e-11 -4.07614e-09 -0.000136455)
(5.39799e-09 3.5958e-09 -0.000141752)
(-1.82452e-09 2.21514e-09 -0.000141697)
(-2.8366e-09 -1.05074e-08 -0.000141681)
(7.98895e-09 1.31744e-09 -0.000141589)
(-8.00676e-09 -1.19064e-09 -0.000141673)
(1.83669e-09 -1.51788e-09 -0.000141741)
(-1.52439e-09 2.40393e-09 -0.000136469)
(1.36832e-10 -4.1681e-09 -0.000136436)
(-3.84417e-12 -4.36258e-09 -0.000136442)
(-1.56377e-09 2.53449e-09 -0.000136461)
(7.04466e-10 -2.96296e-09 -0.00014173)
(-2.12951e-09 -9.50637e-09 -0.000141669)
(-1.09233e-09 4.06052e-09 -0.000141708)
(-3.06303e-09 -6.61074e-09 -0.000138658)
(1.84452e-09 3.41824e-09 -0.00013969)
(-1.897e-09 -1.55965e-09 -0.000139725)
(3.52418e-09 1.03794e-08 -0.000138628)
(4.16226e-09 9.46345e-10 -0.000135795)
(-5.68789e-09 -9.46625e-09 -0.000141074)
(-3.12832e-09 1.92798e-09 -0.000135753)
(3.47993e-09 -9.95909e-09 -0.000138637)
(-2.13279e-09 2.44896e-09 -0.00013972)
(-3.10882e-09 6.92786e-09 -0.000138651)
(1.9781e-09 -2.5982e-09 -0.000139698)
(-2.93816e-09 -2.54699e-09 -0.000135742)
(4.51727e-09 -9.52796e-10 -0.000135806)
(3.5924e-09 1.02154e-08 -0.000138637)
(-2.06961e-09 -1.72078e-09 -0.000139717)
(-3.04309e-09 -6.87929e-09 -0.00013865)
(2.0385e-09 3.39172e-09 -0.000139694)
(-3.04928e-09 2.43667e-09 -0.000135743)
(4.5102e-09 9.87551e-10 -0.000135808)
(3.02761e-09 5.96889e-09 -0.000138655)
(-1.83739e-09 -3.35454e-09 -0.000139694)
(1.90957e-09 1.6037e-09 -0.000139729)
(-3.52981e-09 -1.07904e-08 -0.000138627)
(-5.0055e-09 -3.0795e-09 -0.000135792)
(5.18752e-09 7.45541e-09 -0.000141069)
(2.17412e-09 -4.35703e-09 -0.00013575)
(3.15969e-09 -7.20292e-09 -0.000138656)
(-1.80267e-09 2.64952e-09 -0.000139689)
(1.92842e-09 -2.12639e-09 -0.000139724)
(-3.38183e-09 9.36282e-09 -0.000138626)
(-4.29033e-09 1.2521e-09 -0.000135797)
(5.88749e-09 -1.01252e-08 -0.000141074)
(3.21747e-09 1.76915e-09 -0.000135756)
(-3.54366e-09 -1.02819e-08 -0.000138636)
(2.09425e-09 2.01909e-09 -0.00013972)
(3.03474e-09 6.49237e-09 -0.000138648)
(-2.00168e-09 -2.9443e-09 -0.000139698)
(2.56578e-09 -3.63048e-09 -0.00013574)
(-4.93468e-09 -2.10446e-09 -0.000135805)
(-3.50291e-09 9.52534e-09 -0.000138635)
(2.08234e-09 -2.25581e-09 -0.000139715)
(3.16301e-09 -7.88362e-09 -0.000138648)
(-2.03118e-09 3.10962e-09 -0.000139693)
(3.6865e-09 5.26766e-10 -0.000135741)
(-2.48857e-09 -4.24596e-09 -0.000135805)
(7.60293e-09 -1.1591e-09 -0.000141685)
(-6.94623e-09 8.23528e-10 -0.000141575)
(8.57976e-10 4.12205e-09 -0.000141719)
(2.51763e-09 -1.00288e-08 -0.00014165)
(-7.27266e-09 -2.59759e-09 -0.000138439)
(4.27843e-09 2.66451e-09 -0.000139558)
(-2.1477e-09 -1.3728e-09 -0.00013947)
(1.25027e-08 4.60601e-09 -0.000138523)
(-8.17865e-10 3.53986e-09 -0.000135774)
(-1.21832e-08 -6.01894e-09 -0.000141183)
(-2.25477e-09 -4.5069e-09 -0.000135628)
(-4.21354e-09 -1.43884e-09 -0.000141771)
(-7.36038e-10 -5.53991e-09 -0.000136427)
(-1.9249e-09 1.89504e-09 -0.000136473)
(-2.12717e-10 5.11527e-09 -0.000136493)
(-3.33628e-09 -8.17977e-09 -0.00013643)
(-4.71868e-10 4.93761e-09 -0.000141721)
(-2.51617e-09 -1.03416e-08 -0.000141652)
(-3.0789e-09 -6.16093e-09 -0.000138626)
(2.9569e-09 3.78971e-09 -0.000139726)
(-1.93305e-09 -1.70453e-09 -0.000139694)
(4.65554e-09 1.05688e-08 -0.000138665)
(4.15822e-09 7.05355e-10 -0.00013582)
(-5.45071e-09 -8.45098e-09 -0.000141045)
(-2.92961e-09 2.44605e-09 -0.000135723)
(3.27589e-09 7.16118e-09 -0.000138624)
(-2.86026e-09 -2.11993e-09 -0.00013973)
(2.01736e-09 3.36517e-09 -0.000139699)
(-4.40256e-09 -9.22231e-09 -0.000138664)
(-4.41672e-09 -1.30208e-09 -0.000135818)
(5.41554e-09 8.23918e-09 -0.00014104)
(2.88605e-09 -2.62967e-09 -0.000135721)
(2.85369e-09 -4.64553e-09 -0.000138625)
(-2.99299e-09 4.80742e-09 -0.000139725)
(1.87967e-09 -5.45367e-10 -0.000139694)
(-4.8124e-09 1.1713e-08 -0.000138664)
(-5.32829e-09 3.69126e-09 -0.000135824)
(4.87247e-09 -6.23474e-09 -0.000141046)
(1.64912e-09 5.65033e-09 -0.000135728)
(-3.36893e-09 7.88486e-10 -0.000136398)
(3.39735e-09 -7.94924e-10 -0.00013644)
(2.31608e-09 -2.04568e-09 -0.000136446)
(-3.83342e-09 3.40138e-10 -0.000136394)
(-1.70917e-09 1.70902e-09 -0.000141717)
(7.28975e-09 7.0334e-10 -0.000141702)
(-9.0659e-09 -1.3766e-09 -0.000141589)
(6.3303e-09 7.85695e-09 -0.000141732)
(-1.00737e-09 9.46047e-10 -0.000136412)
(5.5576e-09 3.06626e-09 -0.000138428)
(-4.60419e-09 -2.1142e-09 -0.000139547)
(1.74041e-09 2.04857e-09 -0.000139461)
(-1.43078e-08 -4.31279e-09 -0.00013851)
(-2.74742e-10 -4.24071e-09 -0.000135792)
(9.55822e-09 6.01298e-09 -0.000141176)
(2.99412e-10 4.48002e-09 -0.00013564)
(-6.31924e-09 3.18246e-09 -0.000138431)
(4.06221e-09 -2.09356e-09 -0.00013955)
(-2.57913e-09 2.10147e-09 -0.000139464)
(1.3722e-08 -4.23517e-09 -0.000138513)
(-2.12801e-09 -3.29217e-09 -0.000135787)
(-1.04534e-08 6.22864e-09 -0.000141174)
(-1.94385e-09 5.12342e-09 -0.000135635)
(2.91957e-10 1.02296e-09 -0.00013947)
(-2.30834e-09 8.6265e-10 -0.000138433)
(-3.85903e-10 1.04761e-09 -0.000139473)
(2.333e-09 8.53429e-10 -0.000138435)
(-2.45778e-09 -1.12417e-09 -0.000141726)
(-3.57672e-09 1.20116e-08 -0.000141655)
(-1.00909e-08 2.35915e-09 -0.000141694)
(7.99393e-09 -6.87718e-10 -0.00014158)
(-1.79089e-09 3.23603e-09 -0.000136389)
(-1.71741e-09 -2.27858e-09 -0.000135799)
(1.1663e-08 -4.721e-10 -0.000135856)
(-1.09578e-09 -3.21518e-09 -0.000141697)
(-3.46784e-08 -1.567e-08 -0.000141725)
(-3.75296e-09 -9.92165e-10 -0.000135775)
(5.46957e-09 -4.55708e-09 -0.000135779)
(-1.69938e-09 2.98513e-09 -0.0001417)
(-1.20273e-09 -6.97788e-09 -0.000141675)
(8.24473e-09 -8.32346e-09 -0.00013568)
(6.92829e-09 6.12888e-10 -0.00013573)
(-4.86125e-09 -6.61994e-09 -0.000141627)
(-1.02367e-08 -3.13098e-09 -0.000141646)
(-2.47575e-09 -3.58792e-09 -0.000135786)
(4.03167e-09 -6.50229e-10 -0.000135792)
(8.97534e-10 7.27365e-09 -0.000141702)
(1.36684e-10 -4.92993e-09 -0.000141687)
(-5.24849e-09 -2.34196e-09 -0.000135637)
(-3.97052e-09 5.34907e-09 -0.000135711)
(1.35664e-08 3.84594e-09 -0.000141594)
(3.43962e-09 4.73342e-09 -0.000141628)
(-5.00431e-09 2.80253e-09 -0.00013579)
(1.90413e-09 4.75376e-09 -0.000135793)
(1.70702e-09 8.81661e-09 -0.000141709)
(1.014e-09 -3.30033e-09 -0.000141691)
(-1.19654e-08 5.78997e-10 -0.000135642)
(-6.69719e-09 6.62123e-09 -0.000135726)
(1.68678e-08 5.8199e-09 -0.000141597)
(2.52485e-09 4.26884e-09 -0.000141643)
(-5.56988e-09 4.24987e-09 -0.000135789)
(2.27252e-09 3.74901e-09 -0.000135791)
(2.08936e-09 9.5385e-09 -0.00014171)
(8.27981e-10 -3.62634e-09 -0.00014169)
(-5.36074e-09 -1.95434e-09 -0.000135663)
(2.43916e-09 3.03505e-09 -0.000135746)
(1.2655e-08 3.63164e-09 -0.000141615)
(-3.72005e-09 1.00785e-09 -0.000141653)
(-4.08959e-09 2.66351e-10 -0.000135785)
(4.15253e-09 -1.19449e-09 -0.000135786)
(1.3198e-09 8.21957e-09 -0.000141706)
(4.07092e-11 -4.94307e-09 -0.000141684)
(1.16704e-09 -4.59604e-09 -0.000135676)
(6.23856e-09 1.44984e-09 -0.000135752)
(2.85802e-09 -1.79917e-09 -0.000141616)
(-1.14038e-08 -3.37147e-09 -0.000141655)
(-2.51355e-09 -3.81514e-09 -0.000135778)
(5.08033e-09 -3.58192e-09 -0.00013578)
(9.80682e-10 7.61319e-09 -0.000141698)
(-6.27153e-11 -5.15294e-09 -0.000141677)
(7.91956e-10 -4.49519e-09 -0.000135675)
(4.56838e-09 2.06679e-09 -0.00013575)
(5.36096e-09 -4.22013e-10 -0.000141615)
(-6.32572e-09 -4.66812e-10 -0.000141651)
(-2.64805e-09 -3.4114e-09 -0.000135774)
(4.6417e-09 -2.38759e-09 -0.000135777)
(1.19031e-09 7.89123e-09 -0.000141694)
(2.50718e-10 -4.70903e-09 -0.000141676)
(-8.76917e-10 -3.87619e-09 -0.000135673)
(3.53187e-09 2.47784e-09 -0.000135748)
(5.40077e-09 -4.5997e-10 -0.000141612)
(-8.10408e-09 -1.59338e-09 -0.000141651)
(-3.108e-09 -2.19491e-09 -0.000135774)
(4.27079e-09 -1.41532e-09 -0.000135777)
(1.42599e-09 8.28518e-09 -0.000141695)
(4.24458e-10 -4.4037e-09 -0.000141676)
(-1.13684e-09 -3.76855e-09 -0.000135672)
(3.4243e-09 2.50994e-09 -0.000135748)
(7.93185e-09 9.85858e-10 -0.000141613)
(-4.53875e-09 4.85409e-10 -0.000141649)
(-3.25716e-09 -1.82218e-09 -0.000135773)
(4.20421e-09 -1.24967e-09 -0.000135777)
(1.47493e-09 8.38203e-09 -0.000141695)
(4.17964e-10 -4.40204e-09 -0.000141676)
(-1.26646e-09 -3.72297e-09 -0.000135671)
(3.34614e-09 2.55505e-09 -0.000135748)
(5.96833e-09 -1.4462e-10 -0.000141611)
(-7.90893e-09 -1.48415e-09 -0.00014165)
(-3.25346e-09 -1.80923e-09 -0.000135773)
(4.2082e-09 -1.24896e-09 -0.000135777)
(1.45225e-09 8.33762e-09 -0.000141695)
(3.89711e-10 -4.46483e-09 -0.000141676)
(-1.1458e-09 -3.7544e-09 -0.000135671)
(3.43553e-09 2.51101e-09 -0.000135748)
(7.87358e-09 9.64382e-10 -0.000141613)
(-4.60898e-09 4.57344e-10 -0.000141649)
(-3.26308e-09 -1.79348e-09 -0.000135773)
(4.21625e-09 -1.27191e-09 -0.000135777)
(1.42469e-09 8.28614e-09 -0.000141695)
(3.74575e-10 -4.49428e-09 -0.000141676)
(-1.18731e-09 -3.75088e-09 -0.000135672)
(3.37334e-09 2.54194e-09 -0.000135748)
(5.99012e-09 -1.2871e-10 -0.000141611)
(-7.90593e-09 -1.4786e-09 -0.00014165)
(-3.25197e-09 -1.81288e-09 -0.000135773)
(4.21144e-09 -1.25295e-09 -0.000135777)
(1.46254e-09 8.35731e-09 -0.000141695)
(4.22463e-10 -4.40529e-09 -0.000141676)
(-1.07288e-09 -3.78879e-09 -0.000135672)
(3.45082e-09 2.50771e-09 -0.000135748)
(7.83021e-09 9.36974e-10 -0.000141613)
(-4.58475e-09 4.70054e-10 -0.000141649)
(-3.26464e-09 -1.81627e-09 -0.000135773)
(4.21383e-09 -1.24876e-09 -0.000135777)
(1.46261e-09 8.36808e-09 -0.000141694)
(3.90851e-10 -4.46698e-09 -0.000141676)
(-1.10252e-09 -3.79125e-09 -0.000135671)
(3.22271e-09 2.60861e-09 -0.000135749)
(5.91648e-09 -1.79203e-10 -0.000141611)
(-7.82687e-09 -1.43207e-09 -0.000141651)
(-3.23481e-09 -1.8911e-09 -0.000135772)
(4.20961e-09 -1.20001e-09 -0.000135779)
(1.46309e-09 8.39335e-09 -0.000141693)
(4.19782e-10 -4.43528e-09 -0.000141678)
(-8.8161e-10 -3.87508e-09 -0.000135669)
(3.07231e-09 2.67351e-09 -0.000135752)
(7.76172e-09 8.9084e-10 -0.000141611)
(-4.45362e-09 5.57954e-10 -0.000141654)
(-3.24262e-09 -1.9597e-09 -0.000135769)
(4.19444e-09 -1.04807e-09 -0.000135785)
(1.48239e-09 8.47742e-09 -0.000141689)
(4.19161e-10 -4.54802e-09 -0.000141685)
(1.6134e-09 8.8913e-09 -0.000141677)
(4.83084e-10 -4.72816e-09 -0.000141702)
(2.83557e-09 1.59835e-09 -0.000141751)
(-3.88839e-10 6.78429e-09 -0.000141684)
(3.09656e-09 2.68293e-09 -0.000135894)
(8.1793e-09 -7.56358e-09 -0.000135725)
(-4.3097e-09 2.23933e-09 -0.000135891)
(-8.07762e-09 -7.47991e-09 -0.000135742)
(-5.2428e-09 5.34937e-10 -0.000141753)
(1.97885e-08 7.29944e-09 -0.000141645)
(-1.62135e-09 3.38734e-09 -0.000141683)
(-5.18304e-10 -5.92711e-09 -0.000141679)
(4.19632e-09 6.60614e-10 -0.000135782)
(3.08495e-09 -3.55245e-09 -0.000135788)
(-4.84383e-09 -1.47493e-09 -0.000135779)
(3.57489e-09 -3.82111e-10 -0.000135743)
(-3.14256e-09 -3.2086e-09 -0.000135786)
(-2.29841e-09 -1.07598e-08 -0.000141684)
(5.273e-09 -5.97607e-10 -0.00014167)
(1.87376e-09 -3.78562e-09 -0.000135764)
(-1.24037e-09 -4.08615e-09 -0.000135768)
(1.0454e-09 -8.47617e-09 -0.000141683)
(-7.47298e-09 5.58204e-10 -0.000141677)
(2.97272e-10 -2.55336e-09 -0.000141701)
(3.6952e-08 -1.70648e-08 -0.00014173)
(1.62464e-09 -8.98944e-09 -0.000141697)
(3.65444e-09 -1.70711e-09 -0.000141682)
(2.16327e-08 -9.70691e-09 -0.000141678)
(1.97795e-08 -1.42722e-08 -0.000141683)
(2.29027e-09 9.31561e-10 -0.000141691)
(4.71137e-09 -1.42274e-08 -0.0001417)
(3.79966e-11 -3.02436e-09 -0.000135793)
(-1.06011e-08 -7.71661e-11 -0.000135852)
(1.37662e-08 -2.6435e-09 -0.000135772)
(1.28372e-08 -1.01292e-08 -0.00013576)
(-1.45354e-08 -3.08085e-09 -0.000135769)
(-1.18293e-08 -9.66885e-09 -0.000135756)
(-3.02241e-09 -1.12888e-08 -0.000141701)
(-1.92144e-09 1.36873e-09 -0.000141685)
(-2.39012e-08 -1.10589e-08 -0.00014168)
(-2.015e-08 -1.42188e-08 -0.000141676)
(-4.07986e-09 -1.96885e-09 -0.000141689)
(-4.66461e-09 -1.43509e-08 -0.000141704)
(-5.71084e-09 -4.1656e-09 -0.000135781)
(1.99149e-09 -4.08962e-09 -0.000135782)
(5.32934e-09 -3.84825e-09 -0.000135789)
(-1.84427e-09 -5.11224e-09 -0.000135775)
(3.11576e-09 -1.52822e-09 -0.000135788)
(-4.97661e-09 -2.85111e-09 -0.000135776)
(2.92498e-09 -3.14164e-09 -0.000135772)
(-5.05372e-09 -3.55108e-09 -0.000135778)
(5.20077e-09 -2.85058e-09 -0.00013578)
(-2.52801e-09 -2.68115e-09 -0.000135782)
(-5.72753e-09 -5.0463e-09 -0.000135784)
(2.18242e-09 -4.39029e-09 -0.000135773)
(-3.50635e-09 -5.91654e-10 -0.000135788)
(4.43659e-09 -1.39908e-09 -0.000135777)
(-1.15769e-08 -3.20032e-09 -0.000141633)
(5.81159e-09 4.13392e-10 -0.00014167)
(-3.1858e-10 -5.81884e-09 -0.000141683)
(2.79789e-10 6.16974e-09 -0.000141691)
(7.30039e-09 1.04785e-09 -0.000141674)
(-9.54466e-09 -2.10341e-09 -0.000141631)
(-3.50235e-09 2.84128e-09 -0.000135684)
(1.79267e-09 -3.13989e-09 -0.000135762)
(2.7677e-09 3.22233e-09 -0.000135688)
(-3.13571e-09 -2.55065e-09 -0.00013576)
(2.19813e-09 -3.15397e-09 -0.000135766)
(-3.32922e-09 2.83065e-09 -0.00013568)
(-2.68757e-09 -2.93825e-09 -0.000135764)
(2.29002e-09 3.27473e-09 -0.000135679)
(2.41078e-10 5.37268e-09 -0.000141699)
(6.2862e-10 -5.97681e-09 -0.000141678)
(9.74929e-09 -2.04885e-09 -0.00014164)
(-6.46334e-09 8.45028e-10 -0.000141668)
(-1.13456e-11 -5.17783e-09 -0.000141684)
(-5.6935e-10 6.58937e-09 -0.000141694)
(-7.06931e-09 9.34824e-10 -0.000141672)
(9.42379e-09 -2.00188e-09 -0.00014163)
(2.99226e-09 -5.36318e-09 -0.000141632)
(9.71367e-09 -2.87257e-09 -0.000141647)
(2.87476e-09 -1.08052e-08 -0.000141709)
(1.22058e-10 5.09794e-09 -0.000141696)
(2.63237e-09 1.02824e-09 -0.000141634)
(-7.55652e-09 6.40902e-10 -0.000141607)
(-2.02831e-09 8.88309e-09 -0.000141698)
(7.34447e-10 -6.72142e-09 -0.000141713)
(-1.01315e-08 -9.08515e-09 -0.000135673)
(-7.60314e-09 3.92349e-10 -0.000135726)
(4.60986e-10 3.44866e-09 -0.000135716)
(1.06907e-09 -4.97348e-09 -0.000135646)
(-1.11393e-09 3.12086e-09 -0.000135713)
(-1.81237e-09 -5.2169e-09 -0.000135642)
(-4.85707e-09 -1.40406e-08 -0.000141713)
(-1.16627e-09 3.1008e-09 -0.000141697)
(-3.78624e-09 4.70713e-10 -0.000141637)
(8.0243e-09 8.40709e-10 -0.0001416)
(1.10782e-09 7.14014e-09 -0.000141697)
(-1.26938e-09 -7.71595e-09 -0.000141718)
(-4.12087e-09 -5.1753e-10 -0.000135783)
(3.77668e-09 2.44831e-11 -0.000135791)
(2.74131e-09 2.74245e-09 -0.000135795)
(-3.74513e-09 -3.0121e-10 -0.000135786)
(4.02353e-09 9.35386e-10 -0.000135793)
(-3.52068e-09 9.15571e-10 -0.000135786)
(1.4348e-09 -6.13407e-09 -0.000135782)
(-4.8194e-09 -2.78483e-09 -0.000135791)
(3.80576e-09 2.11916e-10 -0.000135784)
(-3.88422e-09 3.30913e-10 -0.000135792)
(-3.20204e-09 1.21288e-09 -0.000135793)
(2.91745e-09 -2.37908e-09 -0.000135786)
(-4.29321e-09 1.62732e-09 -0.000135795)
(3.34694e-09 1.34003e-09 -0.000135788)
(-8.33654e-09 -1.50831e-09 -0.000141637)
(7.79501e-09 1.30438e-09 -0.000141677)
(4.52579e-10 -4.31728e-09 -0.000141691)
(1.41854e-09 8.10423e-09 -0.000141704)
(7.70073e-09 1.35668e-09 -0.000141679)
(-8.16128e-09 -1.4095e-09 -0.00014164)
(-2.71525e-09 3.04569e-09 -0.000135686)
(2.76294e-09 -2.93437e-09 -0.00013577)
(2.09126e-09 3.29987e-09 -0.000135685)
(-3.10904e-09 -2.7916e-09 -0.000135767)
(2.82991e-09 -2.81521e-09 -0.000135771)
(-2.42442e-09 3.16237e-09 -0.000135688)
(-3.06762e-09 -2.72108e-09 -0.000135769)
(2.06409e-09 3.312e-09 -0.000135687)
(-1.00096e-09 7.28554e-09 -0.000141702)
(-3.93741e-10 -4.51716e-09 -0.000141689)
(8.78673e-09 -1.72481e-09 -0.000141637)
(-7.53474e-09 1.17939e-09 -0.000141676)
(-8.37718e-10 -3.55344e-09 -0.000141692)
(-1.48427e-09 8.12991e-09 -0.000141706)
(-7.52129e-09 1.2667e-09 -0.000141679)
(8.62268e-09 -1.63369e-09 -0.00014164)
(-1.38176e-08 4.16133e-09 -0.000141597)
(-1.40677e-09 3.45389e-09 -0.00014163)
(-1.30702e-09 -3.06637e-09 -0.000141715)
(-3.20724e-09 1.12125e-08 -0.000141697)
(-3.93969e-09 4.88748e-09 -0.000141636)
(-1.73754e-08 6.28645e-09 -0.000141596)
(-3.45439e-09 1.15432e-08 -0.000141695)
(-2.22114e-09 -1.2777e-09 -0.000141713)
(4.42026e-09 -2.66205e-09 -0.000135631)
(5.67369e-09 6.01463e-09 -0.000135709)
(-7.33722e-09 6.81853e-09 -0.000135718)
(-9.26159e-09 -5.50508e-10 -0.000135633)
(5.81464e-09 6.06658e-09 -0.000135715)
(1.04438e-08 -5.19306e-11 -0.00013563)
(7.32423e-10 -4.0057e-09 -0.000141717)
(5.23948e-09 1.47649e-08 -0.000141697)
(9.84212e-10 3.15464e-09 -0.000141638)
(1.66872e-08 6.13271e-09 -0.000141591)
(2.08196e-09 9.44302e-09 -0.000141692)
(2.51432e-09 -9.9245e-10 -0.000141715)
(-3.25969e-09 1.77464e-09 -0.000135787)
(4.52782e-09 2.04957e-09 -0.000135793)
(1.88414e-09 4.85539e-09 -0.000135794)
(-5.62435e-09 4.48766e-09 -0.000135787)
(4.54019e-09 2.31246e-09 -0.000135794)
(-2.79654e-09 2.7908e-09 -0.000135788)
(4.50965e-09 1.59139e-09 -0.000135787)
(-1.10751e-09 6.76378e-09 -0.000135792)
(2.98286e-09 2.4272e-09 -0.00013579)
(-4.73392e-09 2.58376e-09 -0.000135796)
(-2.01691e-09 4.31407e-09 -0.000135789)
(6.33161e-09 6.2004e-09 -0.000135785)
(-4.85654e-09 3.06504e-09 -0.000135796)
(2.52146e-09 3.46549e-09 -0.00013579)
(-8.23377e-09 -1.38059e-09 -0.000141641)
(7.50021e-09 1.16527e-09 -0.00014168)
(1.02672e-09 -3.2617e-09 -0.000141693)
(2.24725e-09 9.67004e-09 -0.000141708)
(7.38615e-09 1.17724e-09 -0.000141682)
(-8.47001e-09 -1.56845e-09 -0.000141642)
(-2.26497e-09 3.27285e-09 -0.000135689)
(2.82187e-09 -2.89308e-09 -0.000135772)
(1.88827e-09 3.44531e-09 -0.000135688)
(-3.08405e-09 -2.78415e-09 -0.000135769)
(2.49966e-09 -2.9623e-09 -0.000135773)