/*--------------------------------*- C++ -*----------------------------------*\
| =========                 |                                                 |
| \\      /  F ield         | OpenFOAM: The Open Source CFD Toolbox           |
|  \\    /   O peration     | Version:  2206                                  |
|   \\  /    A nd           | Website:  www.openfoam.com                      |
|    \\/     M anipulation  |                                                 |
\*---------------------------------------------------------------------------*/
FoamFile
{
    version     2.0;
    format      ascii;
    arch        "LSB;label=32;scalar=64";
    class       volScalarField;
    location    "80";
    object      k;
}
// * * * * * * * * * * * * * * * * * * * * * * * * * * * * * * * * * * * * * //

dimensions      [0 2 -2 0 0 0 0];

internalField   nonuniform List<scalar> 
66621
(
1.38383e-05
3.75092e-05
1.35958e-05
4.53334e-05
3.82376e-05
3.43845e-05
8.94684e-06
4.48071e-05
4.03069e-05
3.36644e-05
3.74429e-05
4.08281e-05
2.205e-05
2.24401e-05
8.777e-06
8.58411e-06
4.0263e-05
2.25129e-05
2.1773e-05
4.08462e-05
3.80563e-05
2.24948e-05
8.93489e-06
4.51035e-05
4.08744e-05
3.68016e-05
3.42982e-05
3.81333e-05
1.41438e-05
4.51953e-05
4.13693e-05
3.44316e-05
3.8534e-05
3.77513e-05
1.40624e-05
4.46676e-05
4.06133e-05
3.42291e-05
3.7803e-05
3.74842e-05
1.3797e-05
4.06562e-05
2.26305e-05
2.24252e-05
8.7931e-06
4.48244e-05
4.05375e-05
3.39567e-05
3.78173e-05
3.78793e-05
1.38655e-05
3.83423e-05
1.39908e-05
8.69415e-06
8.78851e-06
2.10022e-05
8.06147e-06
1.07827e-05
3.39622e-05
1.18873e-05
3.76527e-05
3.40288e-05
1.18095e-05
1.07759e-05
8.18016e-06
2.11567e-05
1.36035e-05
2.11621e-05
8.20358e-06
8.95535e-06
1.71491e-05
7.88488e-06
7.83368e-06
7.86558e-06
7.86237e-06
1.71494e-05
3.61208e-05
1.36319e-05
2.20575e-05
4.38301e-05
4.37711e-05
1.35595e-05
3.62862e-05
3.53399e-05
1.36502e-05
2.22095e-05
4.32253e-05
4.33041e-05
1.35285e-05
3.55931e-05
8.61865e-06
1.69487e-05
7.88231e-06
7.78278e-06
7.87588e-06
7.77716e-06
1.68462e-05
3.58891e-05
1.38183e-05
4.33795e-05
1.38379e-05
3.59898e-05
3.48116e-05
1.33587e-05
2.18849e-05
4.27281e-05
1.33541e-05
3.48665e-05
4.32241e-05
7.97829e-06
1.72493e-05
1.38674e-05
4.36581e-05
3.62502e-05
1.10758e-05
1.20623e-05
3.48182e-05
3.80048e-05
1.2116e-05
3.49743e-05
1.10163e-05
8.4151e-06
2.15977e-05
1.42458e-05
2.18816e-05
8.40965e-06
3.42383e-05
1.20242e-05
1.08666e-05
2.17445e-05
8.34917e-06
1.19335e-05
3.38471e-05
1.08017e-05
2.10451e-05
8.1771e-06
1.73872e-05
7.93819e-06
7.98253e-06
7.98918e-06
7.99675e-06
1.73517e-05
3.6191e-05
1.36818e-05
2.27705e-05
4.37681e-05
1.37901e-05
4.43333e-05
3.58139e-05
3.63808e-05
1.39209e-05
2.2411e-05
4.34274e-05
4.27494e-05
1.39098e-05
3.64327e-05
8.78437e-06
1.09725e-05
3.46001e-05
1.20919e-05
3.83148e-05
3.43961e-05
1.20937e-05
1.09717e-05
8.28849e-06
2.14534e-05
1.38484e-05
2.17009e-05
8.28393e-06
1.08679e-05
3.44342e-05
1.20905e-05
3.84741e-05
3.44554e-05
1.20566e-05
1.09121e-05
8.2583e-06
2.16437e-05
1.40136e-05
2.1709e-05
8.26855e-06
8.77922e-06
2.77324e-05
2.10864e-05
2.17493e-05
1.52946e-05
2.79612e-05
2.11188e-05
2.17739e-05
1.53206e-05
2.78005e-05
2.16669e-05
2.10693e-05
1.53255e-05
2.76403e-05
2.17534e-05
2.10185e-05
1.53405e-05
4.22582e-05
4.48426e-05
4.09702e-05
4.54811e-05
4.49074e-05
4.11024e-05
4.14968e-05
4.38119e-05
4.55883e-05
4.39295e-05
4.087e-05
3.97677e-05
4.44392e-05
4.41205e-05
3.9682e-05
4.47975e-05
4.06884e-05
4.28134e-05
4.26365e-05
3.78527e-05
4.46149e-05
4.50534e-05
4.25936e-05
4.29191e-05
4.39704e-05
4.08104e-05
4.49388e-05
4.48254e-05
4.50368e-05
4.42532e-05
4.44753e-05
4.40585e-05
4.078e-05
4.44803e-05
4.45635e-05
4.37336e-05
4.46012e-05
4.43604e-05
4.28133e-05
4.46308e-05
4.22511e-05
4.16392e-05
4.46739e-05
4.00221e-05
4.49604e-05
4.49112e-05
4.024e-05
4.11972e-05
4.33228e-05
4.28995e-05
3.73674e-05
4.47282e-05
4.26987e-05
4.42877e-05
4.33183e-05
4.14862e-05
4.08365e-05
4.54676e-05
4.51945e-05
4.07714e-05
4.5383e-05
4.21011e-05
4.36775e-05
4.34865e-05
3.86193e-05
4.46718e-05
4.40604e-05
4.33043e-05
4.50494e-05
4.14109e-05
4.09243e-05
4.44175e-05
4.48586e-05
4.04224e-05
4.43795e-05
4.19495e-05
4.29778e-05
4.28714e-05
3.73754e-05
4.4876e-05
4.42669e-05
4.28359e-05
4.35699e-05
4.48248e-05
4.0875e-05
4.54128e-05
4.48557e-05
4.47825e-05
4.56588e-05
4.49088e-05
4.12667e-05
3.97648e-05
4.45022e-05
4.47601e-05
3.96436e-05
4.45928e-05
4.11258e-05
4.29615e-05
4.32295e-05
3.83443e-05
4.44615e-05
4.44974e-05
4.3218e-05
4.24592e-05
2.52991e-06
5.88548e-07
1.08221e-07
4.6061e-08
2.76224e-07
2.50202e-06
5.82008e-07
1.07112e-07
4.58732e-08
2.75573e-07
2.55671e-06
6.07968e-07
1.14072e-07
5.11065e-08
3.11608e-07
2.50433e-06
5.96745e-07
1.12222e-07
5.09799e-08
3.11925e-07
2.46384e-06
5.87004e-07
1.10553e-07
5.07288e-08
3.11263e-07
2.56255e-06
6.10325e-07
1.14523e-07
5.11946e-08
3.11917e-07
2.60431e-06
6.05269e-07
1.10973e-07
4.62645e-08
2.7585e-07
2.58048e-06
5.99583e-07
1.10026e-07
4.62025e-08
2.76021e-07
2.53183e-06
5.88652e-07
1.08224e-07
4.60104e-08
2.75811e-07
2.50059e-06
5.95403e-07
1.11998e-07
5.09171e-08
3.11622e-07
2.5257e-06
5.87444e-07
1.07914e-07
4.5963e-08
2.75767e-07
2.53949e-06
5.89801e-07
1.08309e-07
4.599e-08
2.75704e-07
2.49144e-06
5.93118e-07
1.11539e-07
5.08518e-08
3.11499e-07
2.49201e-06
5.92748e-07
1.11459e-07
5.08298e-08
3.11436e-07
2.41042e-06
5.65672e-07
1.05052e-07
4.66376e-08
2.83326e-07
2.5019e-06
5.89284e-07
1.09652e-07
4.80451e-08
2.90993e-07
2.49648e-06
5.88563e-07
1.09564e-07
4.80345e-08
2.90975e-07
2.41086e-06
5.65783e-07
1.051e-07
4.66563e-08
2.83417e-07
2.4983e-06
5.80854e-07
1.06888e-07
4.58051e-08
2.75214e-07
2.55668e-06
6.07889e-07
1.14044e-07
5.10764e-08
3.1141e-07
2.56194e-06
5.95513e-07
1.09379e-07
4.64078e-08
2.78161e-07
2.55782e-06
5.94705e-07
1.0928e-07
4.63511e-08
2.77777e-07
2.55328e-06
5.922e-07
1.08767e-07
4.63395e-08
2.78103e-07
2.5438e-06
5.90702e-07
1.0854e-07
4.62347e-08
2.77437e-07
2.4666e-06
5.87306e-07
1.10572e-07
5.07035e-08
3.11076e-07
2.37276e-06
5.63498e-07
1.06051e-07
4.96302e-08
3.06007e-07
2.61968e-06
6.08882e-07
1.11718e-07
4.66886e-08
2.78562e-07
2.46898e-06
5.78726e-07
1.07237e-07
4.687e-08
2.83537e-07
2.54345e-06
5.99975e-07
1.1149e-07
4.82319e-08
2.91087e-07
2.54875e-06
6.00028e-07
1.11482e-07
4.82313e-08
2.91084e-07
2.46818e-06
5.79231e-07
1.07381e-07
4.69007e-08
2.83638e-07
2.60981e-06
6.05888e-07
1.11026e-07
4.62213e-08
2.75493e-07
2.53744e-06
5.98125e-07
1.1114e-07
4.81937e-08
2.9114e-07
2.4396e-06
5.73448e-07
1.0649e-07
4.6815e-08
2.83621e-07
2.51935e-06
5.94401e-07
1.10554e-07
4.81353e-08
2.91077e-07
2.41552e-06
5.67105e-07
1.05338e-07
4.66887e-08
2.83512e-07
2.37206e-06
5.62595e-07
1.05861e-07
4.96012e-08
3.05909e-07
2.60112e-06
6.03769e-07
1.10806e-07
4.65815e-08
2.78382e-07
2.59183e-06
6.01482e-07
1.10392e-07
4.64499e-08
2.77663e-07
2.49674e-06
5.94607e-07
1.11853e-07
5.0818e-08
3.10948e-07
2.41572e-06
5.66903e-07
1.05281e-07
4.65881e-08
2.82758e-07
2.5134e-06
5.91991e-07
1.10135e-07
4.80852e-08
2.90949e-07
2.50677e-06
5.90979e-07
1.0997e-07
4.80012e-08
2.90414e-07
2.41731e-06
5.67824e-07
1.05452e-07
4.66958e-08
2.83487e-07
2.52121e-06
5.86425e-07
1.07779e-07
4.58383e-08
2.7486e-07
2.39334e-06
5.61914e-07
1.04451e-07
4.6498e-08
2.82694e-07
2.50602e-06
5.90142e-07
1.09794e-07
4.80416e-08
2.9091e-07
2.49995e-06
5.88737e-07
1.09561e-07
4.79539e-08
2.90379e-07
2.40155e-06
5.63639e-07
1.04737e-07
4.66136e-08
2.83404e-07
2.53644e-06
5.89269e-07
1.08196e-07
4.58661e-08
2.74807e-07
2.48862e-06
5.92042e-07
1.1133e-07
5.0732e-08
3.10759e-07
2.34228e-06
5.55495e-07
1.04659e-07
4.94552e-08
3.05707e-07
2.32988e-06
5.52913e-07
1.04225e-07
4.94196e-08
3.05744e-07
2.51407e-06
5.99376e-07
1.12688e-07
5.09933e-08
3.11707e-07
2.53775e-06
6.03309e-07
1.13252e-07
5.09125e-08
3.10651e-07
2.54378e-06
6.04724e-07
1.13494e-07
5.0974e-08
3.10954e-07
2.3686e-06
5.62385e-07
1.05837e-07
4.95731e-08
3.0574e-07
2.59156e-06
6.02184e-07
1.10527e-07
4.65163e-08
2.78138e-07
2.59691e-06
6.02645e-07
1.10548e-07
4.64799e-08
2.7786e-07
2.33786e-06
5.54475e-07
1.04439e-07
4.93926e-08
3.05402e-07
2.33059e-06
5.52557e-07
1.04104e-07
4.93522e-08
3.05334e-07
2.34032e-06
5.55199e-07
1.04584e-07
4.94225e-08
3.05552e-07
2.59045e-06
6.01489e-07
1.10405e-07
4.65257e-08
2.78286e-07
2.58838e-06
6.00858e-07
1.10283e-07
4.64409e-08
2.77715e-07
2.31602e-06
5.49495e-07
1.03619e-07
4.9332e-08
3.05542e-07
2.52079e-06
5.85437e-07
1.07658e-07
4.62072e-08
2.779e-07
2.51713e-06
5.84468e-07
1.07495e-07
4.61504e-08
2.77571e-07
2.33834e-06
5.54778e-07
1.04501e-07
4.9384e-08
3.05316e-07
2.31399e-06
5.49143e-07
1.03557e-07
4.93052e-08
3.0539e-07
2.61688e-06
6.22251e-07
1.16455e-07
5.12439e-08
3.10904e-07
2.61588e-06
6.22274e-07
1.16465e-07
5.12811e-08
3.11182e-07
2.58999e-06
6.15717e-07
1.15405e-07
5.12005e-08
3.11291e-07
2.54276e-06
6.05016e-07
1.13599e-07
5.10087e-08
3.11109e-07
2.37484e-06
5.62861e-07
1.05844e-07
4.95452e-08
3.05548e-07
2.36912e-06
5.61459e-07
1.05615e-07
4.95152e-08
3.05439e-07
2.5421e-06
6.0417e-07
1.13371e-07
5.08504e-08
3.10079e-07
2.54282e-06
6.04623e-07
1.13491e-07
5.09992e-08
3.11163e-07
2.53353e-06
6.02039e-07
1.12992e-07
5.08042e-08
3.10025e-07
2.53622e-06
6.02915e-07
1.13176e-07
5.09553e-08
3.11087e-07
8.73497e-06
8.54894e-06
4.07265e-05
2.23802e-05
2.17407e-05
3.76269e-05
1.36201e-05
4.45476e-05
4.03307e-05
3.72283e-05
3.39523e-05
3.80163e-05
1.41072e-05
4.47095e-05
4.04571e-05
3.40742e-05
3.86224e-05
3.99412e-05
3.78335e-05
1.38143e-05
8.92695e-06
4.10757e-05
2.25687e-05
2.24118e-05
8.76763e-06
4.49115e-05
4.0343e-05
3.38968e-05
3.7411e-05
4.43887e-05
4.04449e-05
3.36641e-05
3.81808e-05
3.85249e-05
1.37671e-05
3.79818e-05
1.39021e-05
4.05516e-05
2.20515e-05
2.25076e-05
8.67209e-06
8.76649e-06
7.86789e-06
7.77916e-06
1.70349e-05
1.37574e-05
4.3358e-05
3.59983e-05
1.32891e-05
4.29954e-05
3.47343e-05
1.09294e-05
3.39469e-05
1.18964e-05
3.76948e-05
1.07108e-05
3.4209e-05
1.20072e-05
8.29073e-06
2.119e-05
1.38202e-05
8.20565e-06
2.15798e-05
1.11736e-05
1.20014e-05
3.49925e-05
3.78693e-05
1.09947e-05
1.22307e-05
3.50692e-05
8.51434e-06
2.19122e-05
1.43362e-05
8.41437e-06
2.21891e-05
8.24639e-06
2.11494e-05
1.39556e-05
8.17801e-06
2.1458e-05
8.99087e-06
1.72649e-05
8.03392e-06
7.95979e-06
1.74264e-05
7.99305e-06
8.06462e-06
3.62343e-05
1.38743e-05
4.44074e-05
2.29799e-05
4.40107e-05
3.6398e-05
1.38905e-05
3.60938e-05
1.38353e-05
4.34948e-05
2.26707e-05
3.65244e-05
1.40758e-05
4.36677e-05
8.85358e-06
1.10796e-05
3.45684e-05
1.2085e-05
3.81303e-05
1.09129e-05
3.48723e-05
1.2137e-05
8.33193e-06
2.16186e-05
1.40585e-05
8.27431e-06
2.18332e-05
1.09525e-05
3.43098e-05
1.20889e-05
3.83808e-05
1.0822e-05
3.48471e-05
1.20836e-05
8.30416e-06
2.15052e-05
1.41349e-05
8.25557e-06
2.18817e-05
1.71898e-05
7.88058e-06
7.85733e-06
1.71642e-05
7.90123e-06
7.88075e-06
3.65115e-05
1.3571e-05
4.38644e-05
2.22363e-05
3.63729e-05
4.34245e-05
1.38089e-05
3.56874e-05
1.36536e-05
4.35042e-05
2.25894e-05
3.57322e-05
4.30701e-05
1.36719e-05
8.73757e-06
8.8411e-06
2.769e-05
2.16557e-05
2.09763e-05
1.54172e-05
2.79973e-05
2.17235e-05
2.11844e-05
1.53744e-05
2.72758e-05
2.0983e-05
2.07706e-05
1.51018e-05
2.68894e-05
2.08367e-05
2.09413e-05
1.50815e-05
4.41651e-05
4.43543e-05
4.40227e-05
4.17147e-05
4.43668e-05
4.05825e-05
4.505e-05
4.17406e-05
4.51144e-05
4.06056e-05
4.34706e-05
4.25172e-05
4.4604e-05
3.72375e-05
4.44431e-05
4.29394e-05
4.32011e-05
4.16552e-05
4.05597e-05
4.53885e-05
4.44211e-05
4.20503e-05
4.01462e-05
4.55131e-05
4.339e-05
4.41742e-05
4.54485e-05
3.86582e-05
4.33602e-05
4.40188e-05
4.53872e-05
4.34168e-05
4.3174e-05
4.49151e-05
3.76712e-05
4.343e-05
4.29673e-05
4.47611e-05
4.47536e-05
4.11626e-05
4.48078e-05
4.46282e-05
4.4237e-05
4.49847e-05
4.42327e-05
4.134e-05
3.97424e-05
4.42029e-05
4.49778e-05
4.12917e-05
3.9883e-05
4.48832e-05
4.31409e-05
4.25139e-05
4.51153e-05
3.78895e-05
4.30716e-05
4.49823e-05
4.32545e-05
4.12324e-05
3.94728e-05
4.47062e-05
4.50161e-05
4.12342e-05
3.99927e-05
4.47806e-05
4.31708e-05
4.34939e-05
4.43525e-05
3.80318e-05
4.31231e-05
4.34029e-05
4.50879e-05
4.46799e-05
4.02605e-05
4.45225e-05
4.47834e-05
4.46561e-05
4.50991e-05
4.43652e-05
2.76737e-05
4.13059e-05
2.75758e-05
4.14176e-05
4.03299e-05
4.04042e-05
4.10262e-05
4.06791e-05
4.0278e-05
4.05651e-05
4.04565e-05
4.08074e-05
4.1304e-05
4.05301e-05
4.03382e-05
4.17012e-05
4.08144e-05
4.16727e-05
4.11008e-05
4.13988e-05
4.04552e-05
4.08554e-05
4.06308e-05
4.03546e-05
4.09326e-05
4.08617e-05
4.11975e-05
4.10405e-05
4.09527e-05
4.01071e-05
3.82409e-05
1.41651e-05
1.40964e-05
3.87147e-05
9.00123e-06
8.96411e-06
3.76023e-05
1.36578e-05
1.36524e-05
3.70575e-05
2.77409e-05
2.77124e-05
2.78389e-05
2.77243e-05
2.79359e-05
2.79619e-05
2.75472e-05
4.53909e-05
3.79693e-05
3.45432e-05
4.08282e-05
3.84332e-05
3.44369e-05
4.54073e-05
3.80219e-05
1.41113e-05
3.81874e-05
1.40614e-05
8.93936e-06
8.90114e-06
3.75423e-05
1.37122e-05
3.75556e-05
1.3693e-05
2.79778e-05
2.77685e-05
2.77663e-05
4.52792e-05
3.8289e-05
3.46579e-05
4.13864e-05
4.50415e-05
3.85121e-05
3.43047e-05
8.97549e-06
9.01044e-06
4.53665e-05
3.42274e-05
3.82098e-05
4.05917e-05
3.39343e-05
3.82443e-05
4.51206e-05
2.2154e-05
2.22878e-05
4.06891e-05
2.21822e-05
2.23174e-05
8.88994e-06
8.84614e-06
8.68588e-06
8.69912e-06
2.26522e-05
2.20588e-05
4.03854e-05
2.26141e-05
2.21658e-05
8.82222e-06
8.8642e-06
8.66705e-06
8.73623e-06
4.07582e-05
2.25336e-05
2.21166e-05
2.24272e-05
2.22772e-05
3.8727e-05
1.43832e-05
1.42923e-05
3.87218e-05
4.50755e-05
3.83513e-05
3.3927e-05
4.04596e-05
3.80093e-05
3.40106e-05
4.52117e-05
4.51025e-05
3.8866e-05
3.40252e-05
4.04557e-05
3.87787e-05
3.38343e-05
4.47337e-05
3.78312e-05
1.41327e-05
1.4153e-05
3.82165e-05
3.83811e-05
1.42804e-05
1.42619e-05
3.81471e-05
4.50354e-05
4.04834e-05
3.83102e-05
3.39931e-05
3.85015e-05
3.39716e-05
4.49984e-05
4.5155e-05
4.02772e-05
3.84633e-05
3.41093e-05
3.84342e-05
3.41963e-05
4.47337e-05
2.27781e-05
2.24876e-05
4.12185e-05
2.26989e-05
2.25827e-05
8.91885e-06
8.89019e-06
8.97253e-06
8.9538e-06
4.11317e-05
2.27316e-05
2.2545e-05
2.28155e-05
2.26947e-05
8.95353e-06
8.9437e-06
4.48912e-05
3.74125e-05
3.41112e-05
4.08495e-05
3.74859e-05
3.43272e-05
4.48203e-05
3.73894e-05
1.41523e-05
3.77071e-05
1.40822e-05
4.45249e-05
3.45173e-05
3.84577e-05
4.13949e-05
3.47152e-05
4.47293e-05
3.80303e-05
3.77978e-05
1.3725e-05
1.3644e-05
3.7377e-05
4.51149e-05
4.0385e-05
3.74437e-05
3.44554e-05
3.72999e-05
3.4487e-05
4.44377e-05
3.80033e-05
1.41868e-05
3.78755e-05
1.41564e-05
4.52676e-05
4.11426e-05
3.47925e-05
3.88185e-05
3.47721e-05
4.45615e-05
3.87185e-05
3.803e-05
1.40723e-05
1.40086e-05
3.83116e-05
4.49419e-05
3.45615e-05
3.78463e-05
4.10541e-05
3.44702e-05
4.54834e-05
3.7734e-05
3.77643e-05
1.37246e-05
3.77258e-05
1.37047e-05
4.54366e-05
4.1387e-05
3.85601e-05
3.46817e-05
3.8401e-05
3.4738e-05
4.528e-05
3.74806e-05
1.4147e-05
1.41373e-05
3.79048e-05
4.53884e-05
4.07052e-05
3.46846e-05
3.79528e-05
3.45946e-05
4.5164e-05
3.79081e-05
3.74683e-05
1.38086e-05
3.78742e-05
1.37732e-05
8.88597e-06
8.87313e-06
8.72689e-06
8.708e-06
2.25858e-05
2.21264e-05
4.04346e-05
2.24278e-05
2.21036e-05
3.82084e-05
1.41985e-05
3.80862e-05
1.41436e-05
4.50712e-05
3.80034e-05
3.39137e-05
4.06411e-05
4.49847e-05
3.82486e-05
3.39865e-05
4.44105e-05
3.86516e-05
3.37664e-05
4.06572e-05
4.54123e-05
3.81337e-05
3.41123e-05
2.26773e-05
2.28567e-05
4.07958e-05
2.2593e-05
2.26111e-05
8.96305e-06
8.90067e-06
4.51673e-05
3.7349e-05
3.45281e-05
4.08091e-05
4.49473e-05
3.77278e-05
3.44676e-05
3.75152e-05
1.4249e-05
3.80406e-05
1.41878e-05
4.50496e-05
3.47137e-05
3.89222e-05
4.16681e-05
4.45018e-05
3.43832e-05
3.83775e-05
3.80383e-05
1.4169e-05
3.80346e-05
1.4041e-05
4.52166e-05
3.4685e-05
3.79818e-05
4.06133e-05
4.46055e-05
3.4315e-05
3.76407e-05
3.79196e-05
1.38456e-05
3.78858e-05
1.38066e-05
2.28974e-05
2.25968e-05
4.11729e-05
2.27794e-05
2.28167e-05
8.91301e-06
8.96902e-06
2.2856e-05
8.97413e-06
4.50234e-05
3.3454e-05
3.84133e-05
4.06745e-05
3.38569e-05
3.80645e-05
4.46934e-05
3.82775e-05
1.41101e-05
1.42265e-05
3.86908e-05
3.80348e-05
1.41146e-05
1.40918e-05
3.85402e-05
4.53824e-05
3.85227e-05
4.51639e-05
3.83055e-05
3.83858e-05
1.42337e-05
3.79359e-05
1.40245e-05
8.68308e-06
8.70941e-06
8.76564e-06
8.82933e-06
2.23799e-05
8.75559e-06
1.09231e-05
1.20922e-05
3.48538e-05
3.86349e-05
1.21022e-05
3.48673e-05
1.10219e-05
8.40015e-06
1.41685e-05
2.19479e-05
2.19957e-05
8.39022e-06
8.35109e-06
2.18512e-05
1.40852e-05
2.1795e-05
8.31784e-06
1.0946e-05
3.82733e-05
1.21044e-05
3.45644e-05
1.21738e-05
3.47996e-05
1.10163e-05
9.00942e-06
8.94378e-06
1.08004e-05
3.38615e-05
1.19388e-05
3.76279e-05
3.39606e-05
1.19477e-05
1.07821e-05
8.14584e-06
1.36868e-05
2.1112e-05
2.10441e-05
8.20185e-06
8.21776e-06
2.10832e-05
1.37372e-05
2.12643e-05
8.16058e-06
1.08267e-05
3.73815e-05
3.38871e-05
1.19098e-05
3.3599e-05
1.18748e-05
1.07964e-05
1.09303e-05
3.84785e-05
1.20636e-05
3.46138e-05
1.20907e-05
3.48093e-05
1.09989e-05
8.35651e-06
2.16673e-05
1.41269e-05
8.3477e-06
2.17982e-05
1.10005e-05
3.79471e-05
1.19885e-05
3.43607e-05
1.09961e-05
1.20426e-05
3.46404e-05
8.33142e-06
2.17666e-05
1.40384e-05
2.16014e-05
8.34095e-06
8.88106e-06
8.94661e-06
1.07751e-05
3.73814e-05
3.39645e-05
1.178e-05
3.37762e-05
1.19046e-05
1.07286e-05
8.17521e-06
2.13124e-05
1.35886e-05
8.22051e-06
2.11424e-05
1.08634e-05
3.76452e-05
3.37388e-05
1.19521e-05
1.07838e-05
3.40626e-05
1.19485e-05
8.24418e-06
2.13745e-05
1.37597e-05
2.13903e-05
8.23983e-06
9.03872e-06
8.97452e-06
1.68977e-05
7.84931e-06
7.84182e-06
7.86799e-06
7.84969e-06
1.67339e-05
3.58118e-05
4.34271e-05
2.19721e-05
1.3715e-05
4.31055e-05
1.37127e-05
3.57566e-05
3.5522e-05
4.30576e-05
2.2121e-05
1.3595e-05
4.26704e-05
1.34917e-05
3.5533e-05
3.57877e-05
1.35764e-05
2.22161e-05
4.30121e-05
4.30633e-05
1.36853e-05
3.54576e-05
3.5568e-05
1.36294e-05
2.23794e-05
4.31283e-05
4.33136e-05
1.36403e-05
3.55368e-05
1.6908e-05
7.83872e-06
7.85779e-06
7.88245e-06
7.85111e-06
1.6933e-05
8.83174e-06
8.90445e-06
8.7015e-06
8.71252e-06
1.66437e-05
7.805e-06
7.76079e-06
7.79242e-06
7.77906e-06
1.67227e-05
3.59709e-05
4.38734e-05
2.24314e-05
1.37631e-05
1.38451e-05
4.39969e-05
3.5787e-05
3.52584e-05
4.33527e-05
2.2134e-05
1.3481e-05
1.35063e-05
4.28116e-05
3.50727e-05
3.60561e-05
1.37651e-05
2.27154e-05
4.31321e-05
1.37618e-05
3.59495e-05
4.34794e-05
3.52484e-05
1.34899e-05
2.22362e-05
4.29604e-05
1.35393e-05
3.52081e-05
4.32532e-05
1.67815e-05
7.80558e-06
7.80055e-06
7.8497e-06
7.77328e-06
1.68077e-05
8.87581e-06
8.8904e-06
8.69163e-06
8.69997e-06
1.67852e-05
7.83299e-06
7.7832e-06
1.68208e-05
7.83186e-06
7.79163e-06
3.57819e-05
4.30389e-05
2.25897e-05
1.38214e-05
1.38031e-05
4.36097e-05
3.5876e-05
3.50799e-05
4.28923e-05
2.20096e-05
1.3521e-05
1.34372e-05
4.3404e-05
3.52775e-05
3.58042e-05
1.38162e-05
4.33554e-05
2.26392e-05
3.59873e-05
1.37388e-05
4.2937e-05
3.52168e-05
1.35129e-05
4.28339e-05
2.22706e-05
3.5158e-05
1.35398e-05
4.32281e-05
1.68528e-05
7.86757e-06
7.79689e-06
7.80793e-06
7.80878e-06
1.68532e-05
1.1033e-05
1.21834e-05
3.51261e-05
3.88064e-05
1.2216e-05
3.52176e-05
1.11322e-05
8.48962e-06
1.43818e-05
2.21961e-05
2.22291e-05
8.47916e-06
8.42586e-06
2.20938e-05
1.42249e-05
2.20311e-05
8.4729e-06
1.10392e-05
3.83618e-05
1.21943e-05
3.47495e-05
1.20912e-05
3.50606e-05
1.10949e-05
1.09976e-05
1.20923e-05
3.4975e-05
3.815e-05
1.09885e-05
1.20875e-05
3.49414e-05
8.38104e-06
1.40342e-05
2.19452e-05
8.38398e-06
2.19698e-05
8.37931e-06
2.19586e-05
1.41234e-05
8.37243e-06
2.17538e-05
1.09819e-05
3.82552e-05
1.20823e-05
3.47425e-05
1.10101e-05
1.20654e-05
3.4666e-05
1.10836e-05
1.21741e-05
3.5186e-05
3.8745e-05
1.11021e-05
1.21913e-05
3.47021e-05
8.46478e-06
1.42778e-05
2.21543e-05
2.21537e-05
8.47418e-06
8.47207e-06
2.20068e-05
1.43124e-05
8.45571e-06
2.21755e-05
1.10561e-05
3.84488e-05
1.21523e-05
3.50916e-05
1.21548e-05
3.5056e-05
1.1032e-05
1.70532e-05
7.93639e-06
7.90062e-06
7.90441e-06
7.95362e-06
1.69211e-05
3.57539e-05
4.40049e-05
2.28331e-05
1.37085e-05
1.37471e-05
4.41539e-05
3.5625e-05
3.59612e-05
4.33432e-05
2.25954e-05
1.38712e-05
4.40406e-05
1.38602e-05
3.58004e-05
3.5946e-05
1.36964e-05
2.26758e-05
4.35318e-05
1.37996e-05
4.41411e-05
3.58691e-05
3.62093e-05
1.39197e-05
2.26473e-05
4.39023e-05
4.39353e-05
1.39467e-05
3.63164e-05
1.7092e-05
7.92298e-06
7.94137e-06
7.93518e-06
7.96525e-06
1.70084e-05
8.90004e-06
8.9128e-06
8.97594e-06
8.98361e-06
1.71002e-05
7.92448e-06
7.97983e-06
1.71606e-05
7.93595e-06
7.96552e-06
3.5512e-05
4.32076e-05
2.27746e-05
1.37904e-05
4.38392e-05
1.3717e-05
3.5764e-05
3.62162e-05
4.31096e-05
2.27657e-05
1.39199e-05
1.4008e-05
4.38551e-05
3.60613e-05
3.58845e-05
1.38076e-05
4.40037e-05
2.28506e-05
4.38673e-05
3.55866e-05
1.38362e-05
3.62762e-05
1.39943e-05
4.38584e-05
2.27174e-05
3.63823e-05
1.39793e-05
4.39759e-05
1.71857e-05
7.93799e-06
7.96151e-06
7.95969e-06
7.98769e-06
1.71417e-05
8.96143e-06
8.93724e-06
1.09271e-05
1.19737e-05
3.76235e-05
3.43735e-05
1.19971e-05
3.44135e-05
1.09783e-05
8.39625e-06
2.16368e-05
1.41772e-05
2.18121e-05
8.39621e-06
1.09934e-05
3.77373e-05
1.19794e-05
3.44319e-05
1.19335e-05
3.44887e-05
1.09332e-05
8.38139e-06
2.14951e-05
1.41226e-05
2.17607e-05
8.36657e-06
1.08083e-05
3.40294e-05
1.19898e-05
3.7531e-05
1.08358e-05
3.3934e-05
1.19724e-05
8.24444e-06
1.36447e-05
2.13253e-05
8.23128e-06
2.11765e-05
8.19094e-06
2.13773e-05
1.37239e-05
8.23984e-06
2.12528e-05
1.08883e-05
3.78688e-05
3.39919e-05
1.19828e-05
1.08355e-05
3.40908e-05
1.20207e-05
1.08961e-05
1.2029e-05
3.79586e-05
3.40504e-05
1.08645e-05
1.20213e-05
3.43958e-05
8.38784e-06
2.1514e-05
1.42188e-05
2.17476e-05
8.36154e-06
1.09799e-05
3.8023e-05
1.20264e-05
3.43343e-05
1.20656e-05
3.44771e-05
1.09364e-05
8.31592e-06
2.17802e-05
1.41032e-05
8.35718e-06
2.17569e-05
1.10593e-05
3.42934e-05
1.2048e-05
3.81955e-05
3.48021e-05
1.21157e-05
1.10272e-05
8.428e-06
1.39416e-05
2.18941e-05
2.18907e-05
8.41807e-06
8.38113e-06
2.18213e-05
1.41017e-05
2.17328e-05
8.4208e-06
1.09551e-05
3.8286e-05
3.46746e-05
1.21124e-05
3.43396e-05
1.19699e-05
1.10041e-05
1.09235e-05
1.20055e-05
3.79831e-05
3.42672e-05
1.20425e-05
3.43614e-05
1.08794e-05
8.19495e-06
2.13669e-05
1.38109e-05
2.11695e-05
8.22065e-06
1.08833e-05
3.79184e-05
1.20297e-05
3.40435e-05
1.18889e-05
3.42141e-05
1.0863e-05
8.25679e-06
2.135e-05
1.36992e-05
2.14223e-05
8.24546e-06
1.09952e-05
3.46284e-05
1.20705e-05
3.77672e-05
1.09657e-05
3.45976e-05
1.20488e-05
8.40618e-06
1.41577e-05
2.17504e-05
2.18078e-05
8.37929e-06
8.32209e-06
2.16881e-05
1.40241e-05
8.38754e-06
2.14818e-05
1.09901e-05
3.79538e-05
3.45321e-05
1.19028e-05
3.43382e-05
1.19695e-05
1.09992e-05
1.09068e-05
1.20267e-05
3.80277e-05
3.44177e-05
1.09329e-05
1.19871e-05
3.42193e-05
8.23196e-06
2.1302e-05
1.3826e-05
2.1339e-05
8.21362e-06
1.09225e-05
3.79219e-05
1.20212e-05
3.39826e-05
1.2037e-05
3.39941e-05
1.08489e-05
8.18045e-06
2.11877e-05
1.37747e-05
8.22259e-06
2.12306e-05
8.82041e-06
8.86718e-06
8.72138e-06
8.71082e-06
1.68316e-05
7.81157e-06
7.7471e-06
7.84639e-06
7.79795e-06
1.66624e-05
3.57345e-05
4.33126e-05
1.37321e-05
2.2566e-05
3.57496e-05
1.38097e-05
4.29838e-05
3.52776e-05
4.34304e-05
1.34469e-05
2.22101e-05
3.53432e-05
1.35487e-05
4.35293e-05
1.68641e-05
7.85567e-06
7.81342e-06
1.68656e-05
7.85639e-06
7.81748e-06
3.57204e-05
1.37375e-05
2.26286e-05
4.28334e-05
1.37713e-05
3.55494e-05
4.36168e-05
3.53442e-05
1.34223e-05
2.20486e-05
4.32131e-05
1.35152e-05
3.52812e-05
4.32937e-05
1.11457e-05
3.85632e-05
1.20791e-05
3.51679e-05
1.21624e-05
3.5288e-05
1.10678e-05
8.44878e-06
2.21021e-05
1.43075e-05
8.45373e-06
2.21139e-05
1.11127e-05
3.8383e-05
1.20646e-05
3.51334e-05
1.20856e-05
1.11377e-05
3.49391e-05
8.44287e-06
2.2086e-05
1.42507e-05
2.20715e-05
8.45531e-06
1.70214e-05
7.86881e-06
7.96471e-06
7.92926e-06
7.9664e-06
1.68526e-05
3.55483e-05
4.25584e-05
1.38253e-05
2.26752e-05
1.38016e-05
3.57788e-05
4.29133e-05
3.57217e-05
4.36042e-05
1.40271e-05
2.28562e-05
4.37818e-05
3.59847e-05
1.40042e-05
1.70642e-05
7.9427e-06
7.92421e-06
7.9365e-06
1.70266e-05
7.97472e-06
3.58208e-05
1.3786e-05
2.26966e-05
4.31852e-05
1.38236e-05
4.25548e-05
3.5629e-05
3.58033e-05
1.3982e-05
2.27985e-05
4.3155e-05
4.37039e-05
1.39695e-05
3.55886e-05
8.96862e-06
8.94862e-06
1.08926e-05
3.79365e-05
1.19473e-05
3.44075e-05
1.19709e-05
3.44175e-05
1.09688e-05
8.38847e-06
2.18111e-05
1.42104e-05
8.38807e-06
2.178e-05
1.08872e-05
3.76079e-05
1.20632e-05
3.44726e-05
1.2041e-05
1.09167e-05
3.41161e-05
8.36157e-06
2.16039e-05
1.42591e-05
2.17514e-05
8.4083e-06
1.08966e-05
3.82113e-05
3.40342e-05
1.19619e-05
3.42627e-05
1.20604e-05
1.09304e-05
8.41351e-06
2.16284e-05
1.40988e-05
2.18525e-05
8.34384e-06
1.09628e-05
3.807e-05
3.42122e-05
1.20317e-05
3.44228e-05
1.09776e-05
1.20159e-05
8.38086e-06
2.1553e-05
1.41915e-05
2.1818e-05
8.37023e-06
1.07972e-05
3.76606e-05
1.20014e-05
3.40844e-05
1.19486e-05
3.41093e-05
1.07335e-05
8.22288e-06
2.13798e-05
1.38068e-05
8.21904e-06
2.13563e-05
1.08492e-05
3.79713e-05
1.20535e-05
3.40192e-05
1.07835e-05
1.20408e-05
3.40042e-05
8.20676e-06
2.1403e-05
1.38577e-05
2.14095e-05
8.26111e-06
1.72285e-05
8.03082e-06
8.02833e-06
8.01573e-06
8.02376e-06
1.72411e-05
3.63814e-05
4.45053e-05
2.2942e-05
1.38849e-05
1.39845e-05
4.44491e-05
3.64032e-05
3.68461e-05
4.4244e-05
2.27174e-05
1.39867e-05
4.37255e-05
1.40956e-05
3.68515e-05
3.61087e-05
1.3886e-05
2.27593e-05
4.45706e-05
1.38698e-05
4.45732e-05
3.58906e-05
3.65488e-05
1.39638e-05
2.28222e-05
4.41402e-05
4.42107e-05
1.40543e-05
3.66213e-05
1.7386e-05
8.07543e-06
8.07494e-06
8.07441e-06
8.08351e-06
1.74186e-05
8.9407e-06
8.9403e-06
8.02459e-06
1.38745e-05
1.10475e-05
3.49229e-05
1.22078e-05
3.84291e-05
3.48049e-05
1.22045e-05
1.11423e-05
8.48536e-06
1.41985e-05
2.20781e-05
2.21271e-05
8.43105e-06
8.41814e-06
2.21087e-05
1.42255e-05
2.19599e-05
8.4841e-06
1.11378e-05
3.87864e-05
3.50517e-05
1.21647e-05
3.5176e-05
1.22074e-05
1.10255e-05
1.09181e-05
3.47737e-05
1.20697e-05
3.86845e-05
3.48826e-05
1.21606e-05
1.10179e-05
8.34343e-06
1.41232e-05
2.17788e-05
2.17766e-05
8.3514e-06
8.3332e-06
2.18106e-05
1.40832e-05
2.17869e-05
8.3561e-06
1.09812e-05
3.81836e-05
3.45689e-05
1.20819e-05
3.48161e-05
1.21241e-05
1.09574e-05
3.47094e-05
1.20797e-05
1.10504e-05
2.19402e-05
8.41236e-06
3.45693e-05
1.18434e-05
1.09493e-05
2.1659e-05
8.28388e-06
8.70451e-06
8.70718e-06
8.78021e-06
8.74351e-06
7.82597e-06
1.35964e-05
2.10091e-05
2.15067e-05
2.77624e-05
2.11784e-05
2.16682e-05
1.52719e-05
1.53132e-05
2.1146e-05
2.1609e-05
2.78696e-05
2.10599e-05
2.15636e-05
1.53382e-05
1.53291e-05
4.43725e-05
4.47886e-05
4.40502e-05
4.0836e-05
4.48317e-05
4.45365e-05
4.42751e-05
4.37319e-05
4.48085e-05
4.42706e-05
4.10157e-05
4.49708e-05
4.48646e-05
4.42052e-05
4.42763e-05
4.05644e-05
4.45281e-05
4.4898e-05
4.44381e-05
4.47573e-05
4.43532e-05
4.40807e-05
4.51071e-05
4.50875e-05
4.13017e-05
4.52061e-05
4.50013e-05
4.45352e-05
4.45624e-05
4.11389e-05
4.40863e-05
4.47837e-05
4.43449e-05
4.51051e-05
4.44936e-05
4.39927e-05
4.41322e-05
4.48549e-05
4.0944e-05
4.37357e-05
4.48584e-05
4.48617e-05
4.46061e-05
4.47476e-05
4.49618e-05
4.11092e-05
4.51982e-05
4.41043e-05
4.4206e-05
4.53058e-05
4.58876e-05
4.55861e-05
4.15766e-05
4.55077e-05
4.55239e-05
4.52408e-05
2.10652e-05
2.17505e-05
2.7725e-05
2.1217e-05
2.1758e-05
1.53548e-05
1.53216e-05
2.1504e-05
2.116e-05
2.80266e-05
2.16939e-05
2.12142e-05
1.53017e-05
1.53317e-05
2.15842e-05
2.12858e-05
2.78013e-05
2.15925e-05
2.12987e-05
1.53702e-05
1.53672e-05
2.775e-05
2.11764e-05
2.15054e-05
2.11648e-05
2.16746e-05
1.53114e-05
1.53233e-05
2.79622e-05
2.12338e-05
2.17043e-05
2.12009e-05
2.17631e-05
1.53159e-05
1.53179e-05
2.78794e-05
2.16915e-05
2.1276e-05
2.16666e-05
2.12411e-05
1.53487e-05
1.53464e-05
2.78222e-05
2.15036e-05
2.13092e-05
2.15628e-05
2.13014e-05
1.53675e-05
1.53675e-05
4.22145e-05
4.54731e-05
4.0757e-05
4.50681e-05
4.553e-05
4.06479e-05
4.22792e-05
4.39695e-05
4.56707e-05
3.82348e-05
4.4001e-05
4.57568e-05
4.40831e-05
4.40507e-05
4.34966e-05
4.39988e-05
3.84372e-05
4.54633e-05
4.57429e-05
4.39826e-05
4.41306e-05
4.21852e-05
4.54821e-05
4.50356e-05
4.05061e-05
4.56116e-05
4.0742e-05
4.2224e-05
2.1195e-05
2.14844e-05
2.77846e-05
2.10774e-05
2.16234e-05
1.53557e-05
1.53001e-05
2.14693e-05
2.12832e-05
2.80527e-05
2.16103e-05
2.11652e-05
1.53586e-05
1.53527e-05
2.14898e-05
2.12474e-05
2.78517e-05
2.16122e-05
2.12529e-05
1.53521e-05
1.53443e-05
4.21324e-05
4.5235e-05
4.48711e-05
4.05235e-05
4.50818e-05
4.0506e-05
4.21909e-05
4.38165e-05
4.49294e-05
4.39782e-05
3.84805e-05
4.40312e-05
4.56759e-05
4.41227e-05
4.16699e-05
4.45704e-05
4.5375e-05
4.00149e-05
4.21135e-05
4.52091e-05
4.04794e-05
4.3603e-05
4.39606e-05
3.85353e-05
4.49047e-05
4.55511e-05
4.3582e-05
4.42021e-05
4.12446e-05
3.95854e-05
4.54686e-05
4.53315e-05
4.01197e-05
4.54573e-05
4.17341e-05
4.25991e-05
4.52097e-05
3.83384e-05
4.37189e-05
4.54232e-05
4.36745e-05
4.29671e-05
4.30438e-05
4.37165e-05
3.83281e-05
4.48614e-05
4.54483e-05
4.31654e-05
4.32778e-05
4.16652e-05
4.52894e-05
3.96811e-05
4.54356e-05
3.95911e-05
4.49832e-05
4.16597e-05
4.42475e-05
4.08146e-05
4.43943e-05
4.43877e-05
4.46638e-05
4.46507e-05
4.37419e-05
4.35352e-05
4.10114e-05
4.39432e-05
4.44289e-05
4.42624e-05
4.46773e-05
4.49055e-05
4.37791e-05
4.09097e-05
4.44415e-05
4.49611e-05
4.42518e-05
4.46197e-05
4.4302e-05
4.12945e-05
4.4531e-05
3.96665e-05
4.50089e-05
4.48474e-05
3.92618e-05
4.08925e-05
4.30635e-05
4.51158e-05
3.79457e-05
4.37861e-05
4.34713e-05
4.45183e-05
4.32203e-05
4.30749e-05
4.30877e-05
3.84764e-05
4.48143e-05
4.34916e-05
4.50177e-05
4.32202e-05
4.14583e-05
4.51726e-05
4.51779e-05
4.03403e-05
4.51463e-05
3.96872e-05
4.09794e-05
4.12064e-05
4.5566e-05
4.00391e-05
4.53465e-05
4.56117e-05
4.05019e-05
4.17242e-05
4.32457e-05
4.48503e-05
3.85542e-05
4.38858e-05
4.40489e-05
4.55293e-05
4.3664e-05
4.29058e-05
4.41246e-05
3.89408e-05
4.50981e-05
4.36335e-05
4.35323e-05
4.56537e-05
4.17412e-05
4.51804e-05
4.58032e-05
4.05435e-05
4.5855e-05
4.01094e-05
4.18504e-05
4.1214e-05
4.52493e-05
3.98688e-05
4.51404e-05
4.1417e-05
4.46629e-05
3.99755e-05
4.29493e-05
4.53101e-05
3.81951e-05
4.31938e-05
4.53098e-05
4.34608e-05
4.26422e-05
4.31335e-05
4.3693e-05