/*--------------------------------*- C++ -*----------------------------------*\
| =========                 |                                                 |
| \\      /  F ield         | OpenFOAM: The Open Source CFD Toolbox           |
|  \\    /   O peration     | Version:  2206                                  |
|   \\  /    A nd           | Website:  www.openfoam.com                      |
|    \\/     M anipulation  |                                                 |
\*---------------------------------------------------------------------------*/
FoamFile
{
    version     2.0;
    format      ascii;
    arch        "LSB;label=32;scalar=64";
    class       volScalarField;
    location    "0.9";
    object      Co;
}
// * * * * * * * * * * * * * * * * * * * * * * * * * * * * * * * * * * * * * //

dimensions      [0 0 0 0 0 0 0];

internalField   nonuniform List<scalar> 
184150
(
0.0865669
0.0862136
0.0858581
0.0851349
0.0854434
0.0863308
0.0863494
0.0875233
0.0862189
0.0870118
0.0860422
0.0851114
0.0861669
0.086496
0.0858843
0.0858013
0.0863528
0.0860905
0.0857704
0.0852172
0.0855365
0.0851844
0.0858423
0.0859103
0.0851349
0.0855854
0.0849738
0.0861408
0.0870709
0.0863641
0.0856564
0.0857281
0.0865098
0.0853221
0.0866409
0.0868099
0.0859137
0.0867564
0.0879654
0.0865211
0.0862959
0.0857286
0.086049
0.085766
0.086271
0.0859618
0.0856413
0.0853791
0.0862078
0.0862415
0.086039
0.0863462
0.086372
0.0862334
0.0851475
0.0869359
0.0859087
0.0854086
0.0862865
0.085485
0.0851363
0.0861469
0.0861088
0.086421
0.0862689
0.0862635
0.0862835
0.0852963
0.0861277
0.0859817
0.0859144
0.0855049
0.0856977
0.0863349
0.0856253
0.0862735
0.085299
0.0858033
0.0858658
0.0854692
0.0861194
0.0842208
0.0852612
0.0860695
0.0852359
0.0861302
0.0855759
0.0859595
0.0861914
0.0853299
0.0854314
0.0855499
0.0856373
0.0863447
0.0854916
0.0851855
0.0861766
0.0863321
0.0859463
0.0860573
0.0864381
0.0851845
0.0857905
0.0852515
0.0855373
0.0863168
0.0858282
0.0861019
0.0861496
0.0858122
0.0859459
0.0862217
0.0857869
0.0854117
0.0856977
0.085715
0.0860278
0.0861559
0.0853587
0.0867992
0.0861259
0.0861488
0.085743
0.0863746
0.0851456
0.0869272
0.0857579
0.0865451
0.0852482
0.0865376
0.0854113
0.086062
0.0863436
0.0863723
0.0856575
0.0863484
0.0856144
0.0868908
0.0857986
0.0859153
0.0854662
0.0857524
0.0855443
0.0860904
0.0856976
0.0857657
0.0858201
0.0861102
0.0858484
0.0860419
0.0857279
0.0857283
0.0863863
0.0861017
0.0856676
0.086539
0.0857226
0.0856894
0.0856106
0.0855664
0.0856291
0.0851932
0.0859404
0.0860569
0.086036
0.085787
0.0864773
0.0864667
0.0857124
0.0857721
0.0866683
0.0862054
0.085443
0.0857243
0.0886061
0.0864219
0.0863535
0.086681
0.085728
0.0861314
0.0858158
0.0861634
0.0850794
0.0857615
0.0861818
0.0860451
0.0858238
0.0860864
0.0862748
0.0856177
0.0857423
0.0856711
0.0862816
0.0866011
0.0856775
0.0864562
0.0861066
0.0867754
0.0862725
0.086266
0.0861352
0.0856677
0.0857525
0.0858843
0.085705
0.0865325
0.0866407
0.0861247
0.0864095
0.0858334
0.0854542
0.0856914
0.0864416
0.0862943
0.0860894
0.085664
0.0863091
0.0860763
0.0863539
0.0860956
0.0854762
0.0856069
0.086205
0.0862844
0.0855863
0.0854893
0.0875789
0.0858881
0.0850821
0.085299
0.0853758
0.0850273
0.0854676
0.086349
0.0861429
0.0863673
0.0862772
0.0848744
0.0860394
0.0855213
0.0864794
0.085436
0.0858596
0.086685
0.0862338
0.0859692
0.0864063
0.0860021
0.0856743
0.0853744
0.0863867
0.0853008
0.085197
0.0860147
0.0863586
0.0858378
0.0860673
0.0858218
0.0861149
0.0860809
0.0861244
0.0855217
0.0857479
0.0867865
0.0864374
0.0858977
0.0857925
0.086351
0.0862184
0.0861048
0.0866546
0.0864634
0.0860663
0.0863084
0.085075
0.0859361
0.0867568
0.0851755
0.0863365
0.0859736
0.0854661
0.0851751
0.0848743
0.0860869
0.0863392
0.0842633
0.0865095
0.0857767
0.0854577
0.0859002
0.0855523
0.0857151
0.0858231
0.0864396
0.0859091
0.086507
0.0873448
0.0864275
0.08684
0.0855737
0.0860376
0.0854248
0.0859996
0.0853268
0.085418
0.0860529
0.0859247
0.0853957
0.0857093
0.0856092
0.0852158
0.0854441
0.0869273
0.0854247
0.0853632
0.0865399
0.0855593
0.0861314
0.0863783
0.0863308
0.0861408
0.0857664
0.0864499
0.0864885
0.085484
0.0853692
0.0859183
0.0853363
0.0857018
0.0856933
0.0853966
0.0853668
0.0863491
0.0858201
0.0862416
0.0853943
0.0861365
0.0853633
0.0860089
0.0865317
0.0863927
0.0860017
0.0860998
0.0864361
0.0864145
0.0864458
0.0860277
0.0860531
0.0862484
0.0865805
0.0863678
0.0867312
0.086513
0.0851852
0.0860271
0.0860298
0.0857226
0.08659
0.0860009
0.0856152
0.0851845
0.0859604
0.0858985
0.086039
0.0864235
0.0857608
0.0856429
0.0864502
0.0871152
0.0856226
0.0855678
0.0859094
0.0859804
0.0856236
0.0854676
0.0852804
0.0842313
0.085384
0.0861475
0.0852853
0.0867652
0.0868531
0.0869923
0.0864036
0.0860996
0.0863076
0.0863376
0.0853068
0.0860865
0.0856784
0.085755
0.0860856
0.0862503
0.0863311
0.0864158
0.0861987
0.0861365
0.0860306
0.0857642
0.0863028
0.0854595
0.0864939
0.0857788
0.0865708
0.0864885
0.0857304
0.08639
0.0863
0.0866771
0.0857221
0.0858211
0.0864945
0.0855877
0.0856743
0.0855741
0.0859899
0.0858155
0.0857843
0.0856267
0.0859103
0.0866255
0.0864939
0.086599
0.0864495
0.0860247
0.0855551
0.0865344
0.0862835
0.0852971
0.085892
0.0851218
0.0851874
0.0856122
0.0861228
0.086214
0.0851386
0.0850324
0.0853787
0.0854159
0.0864044
0.0854346
0.0864244
0.0852165
0.0851109
0.0850948
0.0861513
0.08664
0.0850349
0.0866652
0.0866425
0.0864866
0.0861247
0.0853795
0.0863979
0.085214
0.0859187
0.0856462
0.0862654
0.0856954
0.0856287
0.0852179
0.0857901
0.0854636
0.0850488
0.085389
0.0854396
0.0858425
0.0855261
0.0852829
0.0853125
0.0853039
0.0865427
0.0863931
0.0863527
0.0854129
0.0863917
0.0863418
0.0864812
0.0852144
0.0853763
0.0866653
0.0854887
0.0862654
0.0864937
0.0850469
0.0864452
0.0857208
0.0856381
0.0872216
0.0851831
0.0853799
0.0861241
0.0853417
0.0861564
0.0866866
0.08557
0.0859451
0.0864442
0.0865516
0.086491
0.0858353
0.0865937
0.0867943
0.0870517
0.0854964
0.0864744
0.0855094
0.0854735
0.0857837
0.0862436
0.0857149
0.0853594
0.0865167
0.086598
0.0864305
0.0861665
0.0864658
0.0863014
0.0852414
0.0855974
0.0852558
0.0858307
0.0857235
0.0852807
0.0864825
0.0860241
0.0866356
0.0863981
0.0865339
0.0849302
0.0870277
0.0867848
0.0859491
0.0867749
0.0867749
0.086219
0.0861634
0.0862514
0.0862879
0.086155
0.086146
0.0863705
0.0861357
0.0861046
0.0860008
0.0860009
0.0863313
0.0863313
0.0871311
0.0871311
0.0883929
0.0883929
0.0876442
0.0864026
0.0869007
0.0864867
0.0862541
0.0864486
0.0856356
0.0853315
0.0853315
0.0855541
0.0855541
0.085881
0.085881
0.0873369
0.0859099
0.0869448
0.0860993
0.0866421
0.0862975
0.0866563
0.0861719
0.0863251
0.0863499
0.0864223
0.0864129
0.0864736
0.0863292
0.0862467
0.086205
0.0861757
0.0861551
0.0861007
0.0860511
0.0860623
0.0860565
0.0862142
0.086156
0.0864048
0.0863825
0.0863825
0.086198
0.0862791
0.0860434
0.0860054
0.0858852
0.0860024
0.0860535
0.0860434
0.0861838
0.0861866
0.085976
0.0860643
0.086219
0.0862857
0.0863553
0.0863552
0.086239
0.0861985
0.086356
0.0862247
0.0863561
0.0864379
0.0866623
0.0864562
0.0864834
0.0864136
0.0865907
0.0865294
0.0866009
0.0863424
0.0863872
0.0864008
0.0864008
0.0861082
0.08585
0.0860867
0.085578
0.08578
0.08578
0.0859935
0.0859713
0.085918
0.0858111
0.0859583
0.0860033
0.0861755
0.0858834
0.0859388
0.0860242
0.0860032
0.0861
0.0859814
0.0861306
0.0860101
0.0860441
0.0860998
0.0860141
0.0862557
0.0859388
0.0858252
0.0859775
0.085912
0.0858998
0.0859001
0.0858057
0.0858213
0.0858622
0.0860977
0.0862656
0.0861049
0.0860036
0.0860192
0.0860192
0.0859662
0.0862498
0.0863393
0.086473
0.0864267
0.086159
0.0863183
0.0863042
0.0862228
0.0862697
0.0862087
0.0860307
0.0859922
0.0860088
0.0857813
0.0858368
0.0858302
0.0865197
0.0860633
0.0877454
0.0877455
0.0861024
0.0859268
0.0855559
0.085457
0.0854569
0.0852703
0.0852702
0.0848075
0.0848075
0.0849224
0.0937711
0.088698
0.0910666
0.0885076
0.0893658
0.0878542
0.0886595
0.0878491
0.0879968
0.0873049
0.0873194
0.0870897
0.0868782
0.0867353
0.0867594
0.08653
0.0866008
0.0866009
0.0862305
0.0862305
0.0861309
0.0858409
0.0858285
0.0859883
0.0859992
0.0859803
0.0858918
0.0858601
0.0860872
0.08598
0.0859891
0.0857452
0.0857096
0.085717
0.0857644
0.0859555
0.0861257
0.0861292
0.0864466
0.0864438
0.0867381
0.0868437
0.0863002
0.0865763
0.086443
0.0866418
0.086214
0.0862188
0.0862828
0.0862827
0.0861614
0.0862032
0.0863575
0.0863987
0.0861556
0.0863926
0.0863741
0.0863918
0.0862357
0.0862027
0.086347
0.0864111
0.0864063
0.0859879
0.0859088
0.0859256
0.0858051
0.0859438
0.0859113
0.0859506
0.086127
0.0860614
0.0859746
0.0860123
0.0860906
0.0860781
0.085995
0.0861807
0.0860028
0.0859912
0.0859912
0.0860592
0.0858929
0.085864
0.0859926
0.0859244
0.0860202
0.0860534
0.0859497
0.0858793
0.0856686
0.0858128
0.0858128
0.0858981
0.0857807
0.0858177
0.085823
0.0860442
0.0861001
0.0860525
0.0861671
0.0860897
0.0860498
0.0861171
0.0861718
0.0864026
0.0865767
0.0866159
0.0862097
0.0865337
0.0863544
0.0863688
0.0863718
0.0862746
0.0860605
0.0861697
0.0860197
0.0860305
0.0859117
0.0861413
0.0860582
0.0860788
0.08653
0.0861575
0.0857918
0.0858501
0.0859976
0.0858947
0.0864168
0.0859479
0.0868285
0.0861583
0.084679
0.0869509
0.0884979
0.0894775
0.0887712
0.0892125
0.0879789
0.0886339
0.0878285
0.0881997
0.0874129
0.0876607
0.0872144
0.0874724
0.0866615
0.0867436
0.0863758
0.0864218
0.0866669
0.0862589
0.0861058
0.085995
0.0859636
0.0858192
0.0860437
0.0861138
0.0863106
0.0862377
0.0860665
0.0862285
0.0859844
0.0859183
0.0859053
0.0858128
0.0857259
0.0858671
0.0857274
0.0858481
0.0858712
0.0859814
0.0861548
0.0860333
0.0865458
0.0864521
0.086227
0.0866435
0.0861823
0.0861831
0.0862207
0.0860927
0.0859978
0.0859603
0.0858979
0.0859885
0.0862396
0.0862695
0.0859498
0.0861084
0.0860393
0.0861842
0.0862613
0.0861047
0.0860532
0.0862484
0.0862222
0.0861019
0.0859937
0.085927
0.0860702
0.0860674
0.0860674
0.0861012
0.0861011
0.0861358
0.086073
0.0860757
0.0860646
0.0860407
0.0863748
0.0862617
0.0862617
0.0861308
0.0861897
0.0860419
0.0860364
0.0858847
0.0858847
0.0858909
0.0860253
0.0860487
0.0861006
0.0860713
0.0859198
0.0859508
0.0862276
0.0860547
0.0860888
0.0860224
0.086071
0.0861699
0.0861699
0.0861044
0.0861215
0.0861023
0.0861024
0.0862056
0.0862371
0.0861591
0.0863031
0.0863031
0.0862597
0.0864344
0.0863387
0.0863862
0.0864116
0.0864115
0.0862008
0.0861523
0.0860378
0.0860243
0.0860414
0.0860414
0.0859188
0.0859522
0.0858665
0.0855316
0.085406
0.0854172
0.0854172
0.0853474
0.085469
0.0856861
0.0869782
0.0869781
0.0877277
0.0892759
0.0883293
0.0883184
0.0889091
0.0882467
0.0878471
0.0873339
0.0876042
0.087162
0.0870348
0.0868076
0.0871309
0.0866912
0.0862846
0.0864002
0.0861357
0.0865491
0.0862748
0.0862748
0.0860834
0.0861895
0.0859271
0.085927
0.0859181
0.0861666
0.0861611
0.0860989
0.0862321
0.086115
0.0860588
0.0861045
0.0860823
0.0859941
0.0859283
0.0858806
0.0859667
0.0859677
0.0859838
0.0859836
0.0859836
0.085988
0.0861518
0.0858489
0.0862537
0.0859265
0.0858633
0.0861046
0.0860087
0.0860895
0.0859182
0.0859231
0.086018
0.0862163
0.0861298
0.0860999
0.0861326
0.0860905
0.0861481
0.0862885
0.0862884
0.0862283
0.086119
0.0861605
0.0863867
0.0862322
0.0862322
0.0861033
0.0863742
0.0863532
0.0865062
0.0864612
0.0862469
0.0861672
0.0861964
0.0861543
0.0861542
0.0860026
0.0861283
0.0863024
0.0862763
0.0862266
0.0861745
0.0861754
0.0861207
0.0861877
0.0860757
0.086226
0.0862855
0.0864678
0.086501
0.0862479
0.0861513
0.0860883
0.0861649
0.0863143
0.086292
0.0861967
0.0863094
0.0863066
0.0861472
0.0861104
0.0859888
0.0858562
0.0859353
0.0859668
0.0859668
0.0858419
0.0860745
0.0861451
0.0862495
0.0863175
0.0862667
0.0860321
0.0861824
0.0860648
0.0861348
0.0860189
0.0858928
0.0859049
0.0857961
0.0858671
0.0859305
0.0859144
0.0857734
0.0856306
0.0856307
0.085682
0.0855509
0.0854978
0.085498
0.0855726
0.0864614
0.0859419
0.0881435
0.0881435
0.0873806
0.0877111
0.0876647
0.0874252
0.0871481
0.0867061
0.0869882
0.0864893
0.0863778
0.0861558
0.086553
0.0860525
0.0860116
0.0860422
0.0861672
0.0864329
0.0862818
0.0862818
0.0861763
0.0860768
0.0859612
0.0859612
0.086063
0.0861291
0.0860452
0.0859373
0.0859588
0.0858651
0.0858099
0.0858868
0.0858867
0.0859178
0.0858011
0.0858324
0.085854
0.085851
0.0858382
0.085916
0.0858314
0.0858614
0.0858614
0.0858278
0.0860212
0.0859896
0.0855861
0.0857603
0.0858494
0.0859757
0.0860248
0.0860861
0.0859606
0.0860362
0.0860362
0.0859899
0.0860003
0.0862766
0.08617
0.0862597
0.0862514
0.0861581
0.0861793
0.0861211
0.0863256
0.0863168
0.0861833
0.0860812
0.0861987
0.086278
0.0862624
0.0862634
0.0861919
0.0862137
0.0862211
0.0863559
0.0862151
0.0861763
0.0861378
0.0863513
0.0862223
0.086215
0.0862348
0.086198
0.0861894
0.0861569
0.0860214
0.0861023
0.0864428
0.0864589
0.0860604
0.0863347
0.0860275
0.0862743
0.0861984
0.0861727
0.0860696
0.0860229
0.0860548
0.0860262
0.0859455
0.0858726
0.0858691
0.0857036
0.0858455
0.0858602
0.0858602
0.0859013
0.0859392
0.0860286
0.0859714
0.0860859
0.0861197
0.0858367
0.0858711
0.0859265
0.085842
0.0859173
0.0858806
0.0857803
0.0857008
0.0855978
0.0857895
0.0857895
0.0858345
0.0858681
0.0858209
0.0860508
0.0857804
0.0857805
0.085776
0.0857759
0.0857558
0.0857558
0.0853558
0.0874101
0.0874102
0.0872778
0.0874564
0.0870822
0.0869116
0.0867309
0.0868277
0.0866123
0.0865353
0.08636
0.086434
0.0863259
0.0863259
0.0864847
0.0864848
0.086791
0.0870186
0.0861001
0.0862819
0.0861979
0.0860401
0.0858958
0.0859345
0.086162
0.086162
0.0859548
0.0858907
0.0857258
0.0856756
0.0856754
0.0858331
0.0856442
0.0857309
0.0857051
0.0858043
0.0858042
0.0858506
0.0857925
0.085932
0.0859452
0.0860594
0.0861865
0.0860648
0.0861571
0.0860989
0.0859541
0.0860074
0.0859494
0.0861791
0.0862427
0.086353
0.0861728
0.0862344
0.086196
0.085997
0.0860737
0.0862508
0.0862592
0.0864148
0.0861853
0.0861287
0.0861172
0.0861178
0.0861899
0.0862063
0.086125
0.0861251
0.0861881
0.0861502
0.0861072
0.0860099
0.0860381
0.0860848
0.0861251
0.0860231
0.0859707
0.0859736
0.0860964
0.0861825
0.0860134
0.0859459
0.0858973
0.0859425
0.0858757
0.0858666
0.0859272
0.0857247
0.086286
0.086099
0.0859664
0.0858622
0.0859271
0.0861286
0.0860385
0.0858714
0.0858763
0.0858038
0.0859383
0.0858372
0.0857208
0.085828
0.0857797
0.0858703
0.0856589
0.085837
0.0859433
0.0859716
0.0859716
0.0860177
0.0858257
0.0857779
0.0860904
0.0857978
0.085627
0.0857344
0.0857184
0.0857812
0.0857423
0.0858515
0.0857107
0.08583
0.0856703
0.0857404
0.0857404
0.0858117
0.0857179
0.0857971
0.0857972
0.0857432
0.085748
0.085772
0.0859052
0.0858802
0.0858802
0.0855901
0.0868624
0.0867426
0.0871241
0.0874277
0.0870917
0.0870296
0.0867977
0.086884
0.0865578
0.0864271
0.086453
0.0864063
0.0861874
0.0860655
0.0863956
0.0863445
0.0869132
0.0867864
0.0861378
0.0862054
0.0859805
0.0858562
0.0858796
0.0859144
0.0861531
0.0859623
0.0860324
0.085945
0.0857853
0.0857855
0.0859718
0.0859646
0.0861748
0.0860727
0.0863518
0.0861755
0.0862795
0.0861308
0.0862666
0.0861981
0.0862933
0.0863148
0.0863148
0.0862256
0.0863847
0.0863014
0.0864157
0.0863785
0.0862764
0.0865654
0.0865607
0.0863417
0.0863831
0.0863951
0.0863952
0.0864241
0.0861417
0.0863553
0.0865414
0.0863393
0.0863098
0.0861271
0.086127
0.0860704
0.086271
0.085932
0.0858389
0.0859887
0.0861843
0.0861329
0.0859398
0.08583
0.0858403
0.0857211
0.0859356
0.0857354
0.0857377
0.0857852
0.0860325
0.0860053
0.0858899
0.0858801
0.0859554
0.0859801
0.0860734
0.0859898
0.0859898
0.0860445
0.0861282
0.0860112
0.086179
0.086179
0.0863028
0.0863027
0.0859886
0.0860607
0.0859626
0.0860284
0.0861471
0.0861732
0.0859079
0.0860929
0.0860005
0.0860185
0.0860062
0.0860767
0.0863239
0.0862591
0.0862034
0.0863722
0.0857759
0.0858271
0.0858271
0.0858019
0.0858198
0.0859118
0.0859361
0.0858852
0.0858853
0.0858778
0.0859279
0.0858258
0.0858257
0.0857915
0.0857916
0.0857934
0.0859105
0.0858831
0.0858832
0.0858144
0.0856881
0.0857397
0.0859748
0.0859958
0.0858906
0.0859677
0.0865913
0.0865191
0.087062
0.0873033
0.086794
0.0865401
0.0867664
0.0866108
0.0864102
0.0863744
0.0864867
0.0863765
0.0862303
0.0860761
0.0863857
0.0859578
0.0865244
0.0859882
0.0860651
0.0862868
0.0860742
0.0862026
0.0861321
0.0863488
0.086023
0.0859765
0.0859675
0.0859505
0.0859619
0.0860351
0.08613
0.0863463
0.0862019
0.0862556
0.0862115
0.0861866
0.0861463
0.086128
0.0861519
0.0861097
0.0862092
0.0862873
0.0863811
0.0862411
0.0861694
0.0861112
0.0862561
0.0862603
0.0862112
0.0866128
0.0864189
0.0865024
0.0864597
0.0866242
0.0866102
0.0863405
0.0862851
0.086448
0.0864819
0.0864818
0.0863566
0.0862737
0.0861905
0.0861455
0.0861454
0.085915
0.0859697
0.0861249
0.0862894
0.0861278
0.0858428
0.0858867
0.0858866
0.0860039
0.0858672
0.0859165
0.0858188
0.0859239
0.0860878
0.0859321
0.0859138
0.0859946
0.0859684
0.0860937
0.0860621
0.0860669
0.0861947
0.0863929
0.0862144
0.0860734
0.0860368
0.0858971
0.0862146
0.0861329
0.0859823
0.0859299
0.0858478
0.0859638
0.0861986
0.0859963
0.0860102
0.0858851
0.0859783
0.0860022
0.0859315
0.0862191
0.0863497
0.0865548
0.0867472
0.0867176
0.0858257
0.085892
0.0859142
0.085881
0.0858649
0.0860067
0.0858575
0.0858857
0.0858834
0.0859137
0.0859083
0.0859159
0.0857618
0.085756
0.0858009
0.0858178
0.0858179
0.0858548
0.0858548
0.0858219
0.0858217
0.0859443
0.0860588
0.0860948
0.0860673
0.0860731
0.0864693
0.0864397
0.0870112
0.0868819
0.0864994
0.0862319
0.0863517
0.0862072
0.0862096
0.0861023
0.0860526
0.086021
0.0858585
0.0859105
0.0860489
0.0859526
0.0860275
0.0858074
0.086131
0.0860088
0.0860904
0.0861007
0.086262
0.0863379
0.0857815
0.0857853
0.0856875
0.0857787
0.0858576
0.0861615
0.0859787
0.0859195
0.0858773
0.0859537
0.0860211
0.086018
0.0859423
0.0860015
0.0860757
0.0860051
0.0861427
0.0863659
0.0863159
0.0863159
0.0860732
0.0860672
0.0860487
0.0861154
0.0863095
0.0863095
0.0861534
0.0862576
0.0862948
0.0861642
0.0862082
0.0864194
0.0863651
0.0867912
0.0864546
0.0863648
0.0863768
0.0863131
0.0861652
0.0862024
0.0862024
0.0860278
0.0860278
0.0862682
0.0862957
0.0862903
0.0859489
0.0861759
0.0862252
0.0861528
0.0862297
0.0861644
0.0863917
0.0863676
0.0862787
0.0862648
0.0862998
0.0865187
0.086242
0.086176
0.0861759
0.0860436
0.0862379
0.0862417
0.0862835
0.0863739
0.0858701
0.085837
0.0859945
0.0859799
0.0858392
0.085828
0.0856824
0.0857322
0.0857967
0.0858558
0.0858103
0.0858882
0.0858746
0.0859081
0.0859339
0.0861858
0.0863471
0.086378
0.0863781
0.0857321
0.0858016
0.0857712
0.0858865
0.0859177
0.085845
0.0857496
0.0858541
0.0859876
0.0859655
0.0859819
0.0859932
0.0858938
0.0857133
0.0858014
0.0858701
0.08587
0.0858882
0.0858858
0.0858873
0.0859235
0.0860554
0.0861312
0.0860366
0.0859921
0.086318
0.0863364
0.0862218
0.0865934
0.0865662
0.0865172
0.086326
0.0862815
0.0862297
0.0863637
0.0862334
0.0861022
0.0860733
0.0859868
0.0859013
0.0858956
0.0858883
0.0857319
0.0857852
0.0859962
0.0856838
0.0858351
0.0855332
0.086101
0.0855785
0.0855978
0.0858109
0.0858425
0.0861244
0.0860526
0.0859806
0.0859806
0.0861538
0.0858871
0.0859688
0.0858963
0.0859928
0.0858885
0.0859384
0.0859329
0.0859445
0.0859778
0.0860241
0.0862232
0.0859004
0.0859279
0.0859819
0.0858654
0.0860424
0.0863466
0.0863467
0.0861295
0.0861295
0.0860159
0.0859707
0.0863178
0.0860827
0.0862886
0.0864318
0.0861836
0.0862114
0.0863475
0.0860892
0.0860809
0.086192
0.0864022
0.0863534
0.0861892
0.0865008
0.0861948
0.0859846
0.0860094
0.0861688
0.0861515
0.0862321
0.0862006
0.0860931
0.0861973
0.086514
0.0864108
0.0863041
0.086434
0.086434
0.0862506
0.0864076
0.0861805
0.0860687
0.086053
0.0861218
0.0861114
0.0859234
0.0858215
0.0857755
0.0857567
0.085781
0.0856067
0.0856949
0.085567
0.0857055
0.0856722
0.0858209
0.0857726
0.0857344
0.0856151
0.085725
0.0856891
0.0860505
0.0860505
0.0862849
0.0860027
0.0860048
0.0860991
0.0860884
0.0860884
0.08596
0.086093
0.0862021
0.0861586
0.0862249
0.0862678
0.0861608
0.0861144
0.0860635
0.0858533
0.0859257
0.0861053
0.0860215
0.0860394
0.0859824
0.0862726
0.0861613
0.086265
0.086221
0.0863494
0.0865781
0.0861968
0.0864098
0.0863726
0.0866467
0.0864741
0.0864733
0.0862959
0.0862689
0.0861931
0.0861249
0.0861589
0.0860703
0.0860703
0.0859807
0.0859436
0.0857608
0.0857033
0.08571
0.0857842
0.0857147
0.0857652
0.0859061
0.0856491
0.0855976
0.0857999
0.0857324
0.0860012
0.0857994
0.08595
0.0862553
0.086338
0.086111
0.0861294
0.086088
0.0861457
0.0860321
0.0861279
0.0860623
0.0860623
0.0860295
0.0860569
0.0861088
0.0861296
0.0860309
0.0861475
0.0858163
0.0858047
0.0860338
0.0859354
0.0859353
0.0861494
0.0861493
0.0858929
0.0859828
0.0860849
0.0861597
0.0862873
0.0859564
0.085996
0.0861533
0.0861148
0.0861194
0.0859808
0.0859673
0.0861198
0.0859587
0.086323
0.0863232
0.0859326
0.0858702
0.0860097
0.0859412
0.0857978
0.0859245
0.085936
0.0861351
0.0862153
0.086069
0.0860162
0.0861149
0.0863469
0.0861659
0.0862556
0.0861949
0.0861264
0.0860922
0.0861026
0.0861317
0.0860676
0.0858174
0.0858174
0.0857788
0.0858299
0.0857897
0.0859382
0.0859173
0.085992
0.0860368
0.0860381
0.0859939
0.0859939
0.0860099
0.085863
0.0859863
0.086017
0.0862372
0.0862515
0.0862241
0.0859963
0.0860221
0.0861132
0.0860649
0.0860714
0.0860294
0.0861318
0.0861382
0.0862215
0.0863724
0.0860845
0.0860812
0.0860318
0.0859735
0.0858478
0.0858885
0.0859554
0.0859855
0.0859404
0.0859307
0.0859307
0.0860311
0.086119
0.0861698
0.0863548
0.0863075
0.0861646
0.0861647
0.0863032
0.0861276
0.0862817
0.0862823
0.0861395
0.0860241
0.0860542
0.0861117
0.0857727
0.0858285
0.0858286
0.0858401
0.0858401
0.0857811
0.0856478
0.0857701
0.085719
0.0857307
0.0859159
0.085889
0.0855976
0.0857196
0.0857294
0.0859167
0.0859199
0.0858335
0.0859055
0.0862857
0.0860496
0.0860911
0.0860187
0.0860956
0.0860636
0.085952
0.08603
0.0860828
0.086143
0.0860833
0.0861477
0.0861737
0.0862209
0.0861835
0.0859959
0.0859779
0.0860359
0.0859199
0.0857527
0.0859766
0.0859392
0.0858905
0.0858829
0.0860522
0.0861465
0.0861343
0.0860654
0.0860539
0.0859949
0.086176
0.086176
0.0860883
0.0860945
0.0860725
0.086045
0.0861659
0.0861509
0.0861177
0.0858339
0.0857757
0.0858778
0.0859012
0.0858261
0.0858381
0.0857628
0.0859739
0.0860876
0.0860601
0.0861405
0.0861404
0.0860051
0.0860883
0.086277
0.0860875
0.0860436
0.0862596
0.0863756
0.0863125
0.086186
0.0860061
0.0860781
0.0860364
0.0860405
0.0859931
0.0860576
0.0860421
0.0861721
0.0862878
0.0861645
0.0860413
0.0861054
0.0859896
0.0862345
0.0862057
0.0864345
0.0863605
0.0863565
0.0862475
0.0857642
0.0858766
0.08589
0.0860326
0.0858522
0.0858938
0.0860102
0.086009
0.0861801
0.086115
0.0859758
0.0858544
0.0857566
0.0858301
0.0858915
0.0859528
0.0860679
0.0860879
0.0858048
0.0861081
0.0859809
0.0862012
0.0860808
0.0860629
0.0860956
0.0860743
0.0860942
0.0861403
0.0860681
0.0860941
0.0861735
0.0862831
0.0862254
0.0861624
0.0859802
0.0859797
0.0859415
0.0859944
0.0858812
0.0858945
0.0858945
0.0858166
0.0858405
0.0858345
0.0856827
0.0856848
0.0856657
0.0856881
0.0857075
0.0856295
0.0856522
0.0855604
0.0855718
0.0856766
0.0858451
0.0859058
0.0858126
0.0857807
0.0858758
0.0860321
0.0859386
0.0859363
0.0858789
0.0860202
0.0861249
0.0860829
0.086083
0.0861064
0.0861063
0.0861633
0.0859091
0.0859918
0.0859805
0.0860041
0.0857389
0.0857318
0.0857395
0.0857942
0.0858224
0.0860019
0.0860802
0.0859791
0.0860908
0.0861649
0.0861849
0.0864867
0.0866514
0.0864983
0.0863059
0.0864679
0.0863507
0.086253
0.0861508
0.086037
0.0859998
0.0858973
0.0859587
0.0859361
0.0860975
0.086046
0.0860012
0.0861444
0.0862008
0.0861634
0.0861297
0.0860284
0.0859845
0.0860436
0.0860436
0.0861888
0.0861836
0.0861411
0.0860238
0.0860479
0.0859913
0.0859969
0.0860104
0.0860105
0.0858833
0.0859429
0.0860047
0.0860046
0.0860487
0.0860087
0.0859637
0.0858937
0.0858937
0.0859105
0.0858895
0.085967
0.0859594
0.0862821
0.0861389
0.0860959
0.0859033
0.0858586
0.0859208
0.0859384
0.085973
0.0861198
0.086043
0.0860309
0.0863086
0.0861729
0.0858651
0.0859063
0.0859063
0.0859213
0.0859833
0.0859518
0.0859518
0.0860855
0.0861008
0.0859676
0.0860977
0.0860989
0.0859805
0.0859915
0.0860051
0.0859246
0.0860275
0.0859797
0.0860165
0.086137
0.0863724
0.0860748
0.0861871
0.086107
0.0859422
0.086017
0.0860558
0.0861441
0.0861292
0.0862476
0.0859473
0.0859213
0.0860034
0.0858766
0.0856668
0.0855867
0.0856386
0.0855906
0.0857362
0.0856232
0.0856667
0.0856317
0.0855085
0.0855999
0.0858873
0.085898
0.085898
0.0859257
0.0860487
0.0859573
0.0859915
0.0859815
0.0860194
0.0859901
0.0860371
0.0861616
0.0860854
0.0860922
0.0860923
0.0859921
0.086041
0.0859375
0.0860052
0.0860204
0.0858971
0.0858499
0.0859329
0.0858455
0.0860967
0.0860569
0.0860648
0.0862557
0.0863275
0.0863274
0.0865444
0.0868755
0.0861934
0.0862973
0.0864701
0.0863917
0.0860099
0.0860328
0.0859588
0.0859522
0.0859523
0.0860555
0.0860943
0.0859065
0.0860702
0.0861646
0.0861645
0.0862515
0.0862515
0.086505
0.0862346
0.0860902
0.0858579
0.0859196
0.0861054
0.0860595
0.0861204
0.086063
0.0861464
0.0859602
0.0859167
0.0859918
0.0860659
0.0860819
0.0858495
0.0858088
0.0857276
0.0858363
0.0858363
0.0860326
0.0858804
0.0857878
0.0858014
0.0858377
0.0857463
0.085961
0.0860024
0.0857836
0.0858021
0.0858729
0.0862778
0.0859937
0.0860945
0.0860586
0.0862135
0.0862052
0.08585
0.0861013
0.0861636
0.0860015
0.0856918
0.0859442
0.0858677
0.0858673
0.0859964
0.0861192
0.0862357
0.0860925
0.0861965
0.0861965
0.0860854
0.0860843
0.0861297
0.086278
0.0860638
0.0860844
0.0862137
0.0863928
0.0863506
0.0866848
0.0863666
0.0862512
0.0862835
0.0861851
0.0860625
0.0866345
0.0867357
0.0871926
0.0869581
0.0866714
0.0865237
0.0863213
0.0863307
0.0861687
0.0860035
0.0858815
0.085885
0.0857552
0.0857715
0.0857923
0.0859034
0.085841
0.085841
0.0857846
0.0859492
0.0862539
0.0861743
0.0861836
0.0861475
0.086113
0.0859938
0.0859953
0.0859988
0.0860302
0.0861063
0.0860612
0.086095
0.0860862
0.0860543
0.0860422
0.0860423
0.0859467
0.0859737
0.0860268
0.0860268
0.0859451
0.0858986
0.0858511
0.0858311
0.0860223
0.0860223
0.0860041
0.0860115
0.0860792
0.0866604
0.0867361
0.0859276
0.0858327
0.0858326
0.0860787
0.0859494
0.0860645
0.0858474
0.0859179
0.0859982
0.0861785
0.0861785
0.0863497
0.0861133
0.0863622
0.0864147
0.0866224
0.0864132
0.0864514
0.0864514
0.0861913
0.086172
0.0861663
0.086196
0.0861978
0.0863263
0.0863612
0.0862526
0.0861883
0.0861223
0.0861849
0.0859789
0.0859303
0.0859333
0.0859878
0.0859878
0.0859586
0.0859759
0.0860405
0.0860405
0.085963
0.085963
0.0858924
0.0860274
0.0860254
0.0860254
0.0860437
0.086052
0.0861694
0.0861024
0.0859146
0.0858157
0.0859624
0.0862665
0.0860986
0.0857405
0.0859004
0.0856779
0.085719
0.0856199
0.0855131
0.0855104
0.0857489
0.0859108
0.0857243
0.0857321
0.0860218
0.0860613
0.0861143
0.0860237
0.0861825
0.0862105
0.0861442
0.086062
0.0861241
0.0863955
0.0862774
0.0864794
0.0867395
0.0863979
0.086585
0.086469
0.0864691
0.0865813
0.0872386
0.0874079
0.0874078
0.0869063
0.0874528
0.0867552
0.0872521
0.0867709
0.0869796
0.0864656
0.0866652
0.0862211
0.0863802
0.0861137
0.0859988
0.0860145
0.0861781
0.0860016
0.0859895
0.0861116
0.0862467
0.0861394
0.0863216
0.0861671
0.0861218
0.0860924
0.0860923
0.085958
0.0861142
0.086135
0.0862403
0.0860856
0.0860985
0.0860645
0.086085
0.086085
0.0860737
0.0860414
0.0860876
0.0860761
0.0860552
0.0861691
0.0860832
0.0860914
0.0862002
0.0862159
0.0862641
0.0862642
0.0862726
0.0862725
0.0863745
0.0861381
0.086209
0.0860839
0.0861564
0.0861564
0.086235
0.0861002
0.0860387
0.0862043
0.086258
0.0862949
0.0861556
0.0861545
0.0861798
0.0864108
0.0862823
0.0861847
0.0863109
0.0862886
0.0862084
0.0860032
0.0860905
0.086065
0.0861674
0.086146
0.0862444
0.0861079
0.0861028
0.0862372
0.0860061
0.0858201
0.0858969
0.0861181
0.0861455
0.0860779
0.0859741
0.0860489
0.086128
0.0862337
0.0861277
0.0860425
0.0859835
0.0859311
0.0860017
0.0861155
0.0860535
0.0860984
0.086081
0.0856699
0.0854931
0.085637
0.0855843
0.0857915
0.0858725
0.0860936
0.0856864
0.0855297
0.0854496
0.0854577
0.0855419
0.0855863
0.0856564
0.0857495
0.0860051
0.085665
0.0855512
0.086016
0.0860444
0.0859814
0.0862718
0.0863155
0.0861703
0.0862233
0.0860957
0.086275
0.08624
0.0862922
0.0867404
0.0865074
0.0864188
0.0864188
0.0870891
0.0870891
0.0878944
0.0878943
0.0873079
0.0863613
0.0868022
0.0866141
0.0867312
0.0863427
0.0864135
0.086248
0.0861519
0.0861519
0.08606
0.0860858
0.0859461
0.0859104
0.0859292
0.0859886
0.0858519
0.0859055
0.0861395
0.0861889
0.0862266
0.0860267
0.0858168
0.0858803
0.0859641
0.0859582
0.0859158
0.0860361
0.0862859
0.086286
0.0861014
0.0862389
0.0860989
0.0861663
0.0861074
0.0861464
0.0860201
0.0860637
0.0859855
0.086041
0.0861065
0.0861884
0.0861927
0.0862602
0.0862601
0.0863127
0.0862595
0.0862795
0.0862233
0.0861784
0.0863442
0.08628
0.0863506
0.0862974
0.0863067
0.0862113
0.0862113
0.0861584
0.0861282
0.0860513
0.0859698
0.0859595
0.0861688
0.0860491
0.0862014
0.0860105
0.0859071
0.0863087
0.0860726
0.0859978
0.0860345
0.0860068
0.0859699
0.0859053
0.0861062
0.085937
0.0857602
0.0858942
0.0858764
0.0860883
0.0858111
0.0859607
0.0858188
0.0859072
0.0858656
0.0858484
0.0858572
0.0858289
0.0859859
0.0859984
0.0857741
0.0858354
0.0858221
0.0859172
0.085938
0.0860449
0.0860963
0.0861811
0.0857321
0.0856666
0.085958
0.0859302
0.0862558
0.0863671
0.0863893
0.0859692
0.0859881
0.08594
0.0858096
0.0856372
0.0857841
0.0856905
0.085761
0.0860196
0.0860234
0.0860234
0.0858949
0.0860416
0.0858047
0.0860464
0.0861994
0.0862206
0.0861948
0.0860717
0.0860594
0.0862719
0.0862433
0.0864318
0.0863216
0.0862416
0.0863172
0.086238
0.086288
0.0861313
0.0880057
0.0880058
0.0862307
0.0858166
0.0859784
0.0858351
0.0861703
0.0857864
0.0859972
0.0854967
0.0856477
0.085459
0.085781
0.0856835
0.0856732
0.0855314
0.0856847
0.0858022
0.0857672
0.0859887
0.0862352
0.0863612
0.0862413
0.0862386
0.085966
0.0863131
0.0861776
0.0864329
0.0862198
0.0865509
0.0866299
0.0863834
0.0862984
0.0863439
0.0861839
0.0863161
0.0863218
0.086283
0.0862704
0.0863681
0.0861922
0.0862285
0.0863984
0.0862228
0.0862542
0.0863605
0.0863605
0.0863517
0.0862973
0.0861874
0.0861874
0.086074
0.0860739
0.0861228
0.0861229
0.0861945
0.086224
0.0861732
0.0863151
0.0861357
0.0861357
0.0861479
0.0860981
0.0860556
0.0860356
0.0860385
0.0859846
0.0861424
0.0861392
0.085981
0.0859498
0.086018
0.0860596
0.0860069
0.0859681
0.0860508
0.0860371
0.0860112
0.0860054
0.0860637
0.0862309
0.0860551
0.0862208