/*--------------------------------*- C++ -*----------------------------------*\
| =========                 |                                                 |
| \\      /  F ield         | OpenFOAM: The Open Source CFD Toolbox           |
|  \\    /   O peration     | Version:  2206                                  |
|   \\  /    A nd           | Website:  www.openfoam.com                      |
|    \\/     M anipulation  |                                                 |
\*---------------------------------------------------------------------------*/
FoamFile
{
    version     2.0;
    format      ascii;
    arch        "LSB;label=32;scalar=64";
    class       volScalarField;
    location    "0.9";
    object      k;
}
// * * * * * * * * * * * * * * * * * * * * * * * * * * * * * * * * * * * * * //

dimensions      [0 2 -2 0 0 0 0];

internalField   nonuniform List<scalar> 
184150
(
7.11207e-09
7.07566e-09
6.92436e-09
6.941e-09
6.91816e-09
6.91453e-09
7.08608e-09
7.08674e-09
6.7771e-09
7.10879e-09
7.07508e-09
6.90365e-09
7.09166e-09
6.87202e-09
7.02765e-09
7.01699e-09
6.84778e-09
6.88337e-09
7.00291e-09
6.70706e-09
6.98002e-09
6.92943e-09
6.8478e-09
7.04163e-09
6.81797e-09
6.77067e-09
6.89e-09
6.88387e-09
6.88691e-09
6.88399e-09
6.76535e-09
6.80811e-09
6.86437e-09
6.94337e-09
6.96474e-09
7.12325e-09
6.85217e-09
6.89215e-09
7.06767e-09
7.11133e-09
6.81879e-09
6.74332e-09
7.06377e-09
6.83145e-09
6.83326e-09
7.06649e-09
6.94668e-09
6.94618e-09
7.08724e-09
7.10274e-09
6.91247e-09
7.09701e-09
6.83942e-09
6.90518e-09
6.91189e-09
6.86464e-09
7.05248e-09
6.93354e-09
6.8753e-09
6.78131e-09
6.71118e-09
6.85225e-09
7.07383e-09
6.9099e-09
7.10069e-09
7.06158e-09
7.09072e-09
6.73521e-09
7.07807e-09
6.8491e-09
7.05385e-09
6.92732e-09
6.97826e-09
6.84798e-09
6.81011e-09
6.81859e-09
6.75747e-09
6.97292e-09
6.99759e-09
6.96058e-09
6.85017e-09
6.62132e-09
6.72954e-09
6.86754e-09
6.91466e-09
7.09074e-09
6.8012e-09
6.83611e-09
6.87929e-09
6.76751e-09
6.93061e-09
6.74026e-09
6.78045e-09
7.0319e-09
6.72265e-09
6.93344e-09
7.101e-09
7.09508e-09
6.77965e-09
7.05526e-09
6.84358e-09
6.92908e-09
6.9763e-09
6.72122e-09
6.72722e-09
6.89359e-09
7.01555e-09
7.02545e-09
6.90409e-09
7.00144e-09
6.84841e-09
7.08053e-09
7.01935e-09
6.77862e-09
6.82109e-09
6.81227e-09
7.05419e-09
7.01141e-09
6.70587e-09
6.87944e-09
6.88113e-09
6.85237e-09
7.01507e-09
7.0853e-09
6.9157e-09
6.85334e-09
6.80265e-09
6.90932e-09
6.9188e-09
7.09147e-09
6.73273e-09
6.87479e-09
6.84732e-09
6.84033e-09
6.99068e-09
7.06892e-09
6.79422e-09
6.92025e-09
7.05164e-09
6.82847e-09
6.78283e-09
7.02911e-09
6.80069e-09
6.86449e-09
6.82466e-09
6.82122e-09
7.01948e-09
7.05816e-09
7.04401e-09
6.88459e-09
7.04852e-09
6.83014e-09
6.84114e-09
6.87875e-09
6.95817e-09
6.8528e-09
6.82726e-09
6.96921e-09
6.97996e-09
6.9691e-09
6.82736e-09
6.74809e-09
7.06499e-09
7.07981e-09
6.87768e-09
6.97427e-09
7.09564e-09
7.06578e-09
6.81488e-09
6.85383e-09
7.09567e-09
6.91948e-09
6.70723e-09
6.80967e-09
6.92555e-09
7.09652e-09
7.07626e-09
6.89329e-09
6.83425e-09
7.10456e-09
6.95402e-09
7.09589e-09
6.69015e-09
6.82287e-09
6.90052e-09
7.06145e-09
7.00736e-09
7.01742e-09
6.90477e-09
7.00011e-09
6.9913e-09
7.00825e-09
7.09449e-09
6.86786e-09
6.80887e-09
7.12235e-09
7.07855e-09
6.86775e-09
6.89543e-09
6.872e-09
6.88478e-09
6.9726e-09
6.81035e-09
6.873e-09
7.00478e-09
7.10265e-09
6.8508e-09
6.8806e-09
6.84064e-09
6.82786e-09
6.7563e-09
6.81931e-09
7.09189e-09
7.08328e-09
6.86026e-09
6.96939e-09
7.09625e-09
7.09444e-09
7.07558e-09
6.8639e-09
6.7136e-09
6.93632e-09
7.08928e-09
6.89233e-09
6.76297e-09
6.79545e-09
7.05599e-09
7.03264e-09
6.78291e-09
6.93532e-09
6.94202e-09
6.72445e-09
6.7195e-09
6.85094e-09
6.87707e-09
6.84897e-09
6.93798e-09
6.7255e-09
6.85099e-09
6.93415e-09
6.85048e-09
6.75913e-09
6.86383e-09
6.87416e-09
7.0912e-09
6.8963e-09
7.0991e-09
6.871e-09
6.80394e-09
6.76246e-09
6.94424e-09
6.77878e-09
6.72483e-09
7.05343e-09
6.91417e-09
6.83795e-09
6.86639e-09
7.05757e-09
6.85522e-09
7.07839e-09
6.86465e-09
6.79312e-09
6.98224e-09
6.703e-09
6.79115e-09
6.79006e-09
7.00422e-09
6.8538e-09
7.04077e-09
7.08828e-09
6.84681e-09
7.11572e-09
7.08124e-09
6.9109e-09
6.70817e-09
6.845e-09
6.84007e-09
6.69303e-09
6.8369e-09
7.00753e-09
6.93526e-09
6.72271e-09
6.87398e-09
7.08403e-09
7.09524e-09
6.59574e-09
6.86394e-09
7.01124e-09
6.76314e-09
6.99648e-09
6.79359e-09
6.82432e-09
6.8203e-09
7.09472e-09
6.82577e-09
6.85895e-09
6.87797e-09
6.87165e-09
6.84189e-09
6.80332e-09
6.86264e-09
6.9282e-09
6.99023e-09
6.73572e-09
6.93891e-09
7.08347e-09
7.05652e-09
6.94333e-09
6.79807e-09
6.80718e-09
6.72063e-09
6.73156e-09
7.00074e-09
6.7707e-09
6.7526e-09
6.93064e-09
6.9803e-09
6.88654e-09
6.8277e-09
7.1189e-09
7.08801e-09
6.76098e-09
6.84032e-09
6.84287e-09
6.98128e-09
6.7007e-09
7.00011e-09
6.76418e-09
6.96733e-09
6.98215e-09
6.71626e-09
6.94179e-09
7.03037e-09
6.81264e-09
6.90636e-09
6.78712e-09
7.0691e-09
6.95486e-09
7.05645e-09
6.84078e-09
6.84257e-09
7.05758e-09
7.08111e-09
6.84393e-09
7.09322e-09
6.85486e-09
7.05007e-09
7.05884e-09
6.83515e-09
6.85503e-09
6.8477e-09
6.90395e-09
6.87726e-09
6.73079e-09
6.87066e-09
6.88283e-09
7.01486e-09
7.09132e-09
6.86813e-09
6.97343e-09
6.73275e-09
6.95816e-09
7.05241e-09
6.85419e-09
6.86396e-09
6.99845e-09
6.98018e-09
7.11893e-09
7.0887e-09
6.94216e-09
6.79435e-09
7.06096e-09
6.8276e-09
6.97603e-09
6.79144e-09
6.91934e-09
6.6275e-09
6.94805e-09
6.89482e-09
6.91872e-09
6.86698e-09
7.11793e-09
6.88918e-09
7.08922e-09
7.02699e-09
7.09986e-09
6.89076e-09
6.93139e-09
6.86419e-09
6.93459e-09
7.00199e-09
6.89769e-09
7.09188e-09
7.09036e-09
7.17342e-09
7.06824e-09
6.88627e-09
7.07068e-09
6.83281e-09
7.04526e-09
6.92304e-09
6.85599e-09
6.80834e-09
7.08801e-09
7.06876e-09
6.8259e-09
6.85072e-09
6.85149e-09
7.09615e-09
7.00601e-09
7.02481e-09
7.11841e-09
6.80489e-09
6.9906e-09
6.92568e-09
7.01273e-09
6.82095e-09
6.98681e-09
6.98377e-09
6.99762e-09
6.86623e-09
7.1024e-09
6.87274e-09
7.09183e-09
7.0633e-09
6.79411e-09
6.86263e-09
6.8376e-09
6.89575e-09
6.75987e-09
6.89831e-09
6.73547e-09
6.72957e-09
7.06805e-09
7.08622e-09
6.70548e-09
6.89412e-09
6.70573e-09
6.69043e-09
7.0909e-09
6.91143e-09
7.09013e-09
6.91233e-09
6.91548e-09
6.71032e-09
7.02444e-09
7.08274e-09
6.8782e-09
7.10718e-09
7.12695e-09
7.11287e-09
7.10334e-09
6.68295e-09
7.07237e-09
6.87749e-09
6.98484e-09
6.7914e-09
6.83999e-09
6.75246e-09
6.7042e-09
6.898e-09
6.84266e-09
6.70736e-09
6.88918e-09
6.91106e-09
6.72767e-09
6.7783e-09
6.76064e-09
6.91788e-09
6.72775e-09
6.91732e-09
6.85185e-09
7.09758e-09
7.10467e-09
6.73223e-09
7.08511e-09
7.08477e-09
6.83334e-09
6.9279e-09
6.72404e-09
6.83285e-09
6.94715e-09
7.08219e-09
7.10534e-09
6.89168e-09
7.08561e-09
6.96506e-09
6.75652e-09
6.88743e-09
6.8937e-09
6.95462e-09
7.07925e-09
6.74932e-09
7.08459e-09
6.893e-09
6.95269e-09
7.06045e-09
7.10059e-09
6.86319e-09
7.11557e-09
6.77683e-09
6.86165e-09
7.11471e-09
6.94963e-09
6.9693e-09
6.8254e-09
6.73893e-09
6.94947e-09
6.99681e-09
7.07579e-09
6.74288e-09
6.92313e-09
6.84062e-09
6.8656e-09
7.0896e-09
7.07451e-09
6.86553e-09
7.06151e-09
6.93552e-09
6.73079e-09
6.91183e-09
6.69742e-09
6.90608e-09
6.93614e-09
7.11239e-09
6.73607e-09
6.85342e-09
7.08926e-09
6.83867e-09
6.86627e-09
6.89387e-09
7.13394e-09
6.63574e-09
6.97864e-09
6.7515e-09
6.92254e-09
6.88612e-09
7.08955e-09
6.91012e-09
7.06027e-09
6.87948e-09
7.0714e-09
6.90819e-09
7.05275e-09
6.87728e-09
7.024e-09
6.8772e-09
6.9949e-09
6.87793e-09
7.00985e-09
6.92278e-09
7.16293e-09
6.85084e-09
7.05103e-09
6.90438e-09
7.05522e-09
6.86539e-09
7.058e-09
6.81721e-09
7.04113e-09
6.76744e-09
7.01558e-09
6.85369e-09
7.00597e-09
6.92398e-09
7.06597e-09
6.87098e-09
7.09923e-09
6.87477e-09
7.1044e-09
6.92023e-09
7.0857e-09
6.90137e-09
7.06561e-09
6.92664e-09
7.08681e-09
6.9223e-09
7.08561e-09
6.9002e-09
7.07948e-09
6.9035e-09
7.07027e-09
6.87561e-09
7.03885e-09
6.87758e-09
7.0439e-09
6.88199e-09
7.04394e-09
6.87996e-09
7.06514e-09
6.92055e-09
7.05597e-09
6.89188e-09
7.05511e-09
6.88065e-09
7.05098e-09
6.86273e-09
7.0506e-09
6.90271e-09
7.05534e-09
6.90075e-09
7.08464e-09
6.85699e-09
7.06327e-09
6.91311e-09
7.09882e-09
6.93502e-09
7.10492e-09
6.91071e-09
7.09772e-09
6.9017e-09
7.06671e-09
6.90987e-09
7.09274e-09
6.94294e-09
7.1189e-09
6.92757e-09
7.11221e-09
6.94711e-09
7.11273e-09
6.94462e-09
7.09056e-09
6.89057e-09
7.0999e-09
6.929e-09
7.02209e-09
6.82448e-09
7.00774e-09
6.81292e-09
7.01923e-09
6.86789e-09
7.03668e-09
6.84811e-09
7.02964e-09
6.85467e-09
7.04335e-09
6.88506e-09
7.04975e-09
6.86724e-09
7.03843e-09
6.86833e-09
7.05351e-09
6.89456e-09
7.05086e-09
6.88963e-09
7.05783e-09
6.88709e-09
7.05212e-09
6.88957e-09
7.05021e-09
6.85718e-09
7.01481e-09
6.85964e-09
7.04005e-09
6.86791e-09
7.0207e-09
6.8622e-09
7.03922e-09
6.84995e-09
7.05151e-09
6.92663e-09
7.07044e-09
6.87749e-09
7.06621e-09
6.88455e-09
7.04603e-09
6.89825e-09
7.06824e-09
6.97362e-09
7.14292e-09
6.87231e-09
7.08286e-09
6.91419e-09
7.06395e-09
6.88113e-09
7.05481e-09
6.8754e-09
7.06007e-09
6.86074e-09
7.03593e-09
6.8324e-09
7.03646e-09
6.84426e-09
6.99898e-09
6.93994e-09
7.06469e-09
6.7992e-09
7.02714e-09
6.81689e-09
7.05853e-09
6.77482e-09
7.0876e-09
6.68829e-09
7.04028e-09
6.63464e-09
6.69503e-09
7.05588e-09
7.26711e-09
7.10369e-09
7.25526e-09
7.06914e-09
7.23933e-09
7.04184e-09
7.22156e-09
7.02856e-09
7.19457e-09
6.97659e-09
7.14233e-09
6.96416e-09
7.11872e-09
6.9417e-09
7.11531e-09
6.932e-09
7.07027e-09
6.88928e-09
7.05451e-09
6.85613e-09
7.00364e-09
6.84634e-09
7.01441e-09
6.84806e-09
7.01732e-09
6.81282e-09
7.02202e-09
6.85441e-09
7.00748e-09
6.82949e-09
6.99012e-09
6.83332e-09
7.01376e-09
6.84275e-09
7.03315e-09
6.90006e-09
7.05635e-09
6.92703e-09
7.07576e-09
6.90195e-09
7.11583e-09
6.91411e-09
7.10392e-09
6.97207e-09
7.1031e-09
6.9012e-09
7.0775e-09
6.90695e-09
7.07054e-09
6.89158e-09
7.06611e-09
6.91828e-09
7.08556e-09
6.89663e-09
7.08841e-09
6.93414e-09
7.09504e-09
6.90647e-09
7.06922e-09
6.88982e-09
7.11271e-09
6.93383e-09
7.051e-09
6.86399e-09
7.04642e-09
6.85089e-09
7.04348e-09
6.86482e-09
7.0481e-09
6.88587e-09
7.06702e-09
6.86854e-09
7.05435e-09
6.89207e-09
7.06757e-09
6.88409e-09
7.07424e-09
6.87509e-09
7.05699e-09
6.88199e-09
7.04238e-09
6.86104e-09
7.02552e-09
6.86578e-09
7.03915e-09
6.87038e-09
7.05843e-09
6.84793e-09
7.01098e-09
6.8099e-09
7.02174e-09
6.86137e-09
7.0311e-09
6.84791e-09
7.04681e-09
6.84948e-09
7.05737e-09
6.90442e-09
7.07032e-09
6.89256e-09
7.083e-09
6.87733e-09
7.07356e-09
6.90346e-09
7.06714e-09
6.95734e-09
7.14275e-09
6.86132e-09
7.07826e-09
6.92012e-09
7.08742e-09
6.90241e-09
7.07111e-09
6.86578e-09
7.04949e-09
6.88253e-09
7.04854e-09
6.84766e-09
7.06195e-09
6.85875e-09
7.02742e-09
6.90939e-09
6.99785e-09
6.80888e-09
6.98934e-09
6.84162e-09
6.99085e-09
6.83739e-09
7.0029e-09
6.75318e-09
7.03568e-09
6.59078e-09
6.89164e-09
7.07838e-09
7.16229e-09
7.05295e-09
7.14858e-09
6.98992e-09
7.14469e-09
6.99365e-09
7.12724e-09
6.97997e-09
7.1337e-09
6.9552e-09
7.10486e-09
6.93258e-09
7.0947e-09
6.90391e-09
7.10002e-09
6.91988e-09
7.0604e-09
6.85507e-09
7.04126e-09
6.86382e-09
7.01908e-09
6.85667e-09
7.04826e-09
6.89685e-09
7.06799e-09
6.85666e-09
7.05166e-09
6.8717e-09
7.05053e-09
6.85424e-09
7.01724e-09
6.84236e-09
7.01786e-09
6.8343e-09
7.03102e-09
6.8692e-09
7.0542e-09
6.88624e-09
7.04761e-09
6.87856e-09
7.04092e-09
6.86812e-09
7.04788e-09
6.92153e-09
7.08596e-09
6.89869e-09
7.04838e-09
6.87241e-09
7.04375e-09
6.85345e-09
7.0451e-09
6.89504e-09
7.04744e-09
6.85349e-09
7.05119e-09
6.89355e-09
7.08497e-09
6.89939e-09
7.05089e-09
6.87613e-09
7.08961e-09
6.91721e-09
7.06853e-09
6.8729e-09
7.0524e-09
6.87538e-09
7.0861e-09
6.88494e-09
7.07274e-09
6.90038e-09
7.07747e-09
6.88412e-09
7.06787e-09
6.88452e-09
7.05667e-09
6.90188e-09
7.10315e-09
6.91456e-09
7.08172e-09
6.89242e-09
7.07809e-09
6.86327e-09
7.03675e-09
6.85384e-09
7.02711e-09
6.86587e-09
7.05466e-09
6.87615e-09
7.05944e-09
6.83376e-09
7.03643e-09
6.89253e-09
7.06918e-09
6.8917e-09
7.06934e-09
6.88081e-09
7.08526e-09
6.90909e-09
7.06787e-09
6.8954e-09
7.07654e-09
6.90008e-09
7.07226e-09
6.89718e-09
7.03485e-09
6.88798e-09
7.0302e-09
6.87227e-09
7.06877e-09
6.91119e-09
7.05589e-09
6.9072e-09
7.07222e-09
6.86437e-09
7.02679e-09
6.87056e-09
7.03646e-09
6.8566e-09
7.04067e-09
6.84958e-09
7.03199e-09
6.8552e-09
6.99021e-09
6.78999e-09
6.98459e-09
6.81268e-09
6.96192e-09
6.81305e-09
6.96051e-09
6.81549e-09
6.9043e-09
6.61094e-09
7.01078e-09
6.94663e-09
7.08817e-09
6.98753e-09
7.07538e-09
6.87622e-09
7.06221e-09
6.89652e-09
7.03631e-09
6.88277e-09
7.05125e-09
6.8918e-09
7.00763e-09
6.85757e-09
7.03569e-09
6.87156e-09
7.06533e-09
6.92278e-09
7.0712e-09
6.85452e-09
7.03538e-09
6.86714e-09
7.0399e-09
6.84832e-09
7.05138e-09
6.87768e-09
7.05323e-09
6.87217e-09
7.04276e-09
6.87484e-09
7.07032e-09
6.89282e-09
7.05188e-09
6.86888e-09
7.04331e-09
6.86205e-09
7.04862e-09
6.87609e-09
7.05872e-09
6.87643e-09
7.05775e-09
6.84031e-09
7.01741e-09
6.83593e-09
6.98552e-09
6.83347e-09
7.04967e-09
6.89612e-09
7.05356e-09
6.86701e-09
7.04741e-09
6.85594e-09
7.07541e-09
6.90714e-09
7.07703e-09
6.88637e-09
7.06492e-09
6.88625e-09
7.10321e-09
6.92395e-09
7.07675e-09
6.89083e-09
7.06897e-09
6.90448e-09
7.09699e-09
6.9112e-09
7.06872e-09
6.90171e-09
7.08713e-09
6.91796e-09
7.09813e-09
6.9197e-09
7.08766e-09
6.89884e-09
7.09613e-09
6.88881e-09
7.05877e-09
6.88063e-09
7.08662e-09
6.92517e-09
7.07935e-09
6.90097e-09
7.07141e-09
6.88282e-09
7.05913e-09
6.86552e-09
7.04416e-09
6.89071e-09
7.05984e-09
6.90302e-09
7.09135e-09
6.87024e-09
7.05897e-09
6.90531e-09
7.07075e-09
6.91292e-09
7.06762e-09
6.89472e-09
7.07631e-09
6.89734e-09
7.05597e-09
6.8712e-09
7.02638e-09
6.87259e-09
7.05704e-09
6.87553e-09
7.03756e-09
6.86501e-09
7.09554e-09
6.86783e-09
7.06173e-09
6.87875e-09
7.03583e-09
6.87351e-09
7.04368e-09
6.85436e-09
7.02607e-09
6.84017e-09
7.01619e-09
6.8521e-09
7.03707e-09
6.85586e-09
7.02893e-09
6.84307e-09
7.0179e-09
6.82671e-09
7.02075e-09
6.8114e-09
7.00637e-09
6.82094e-09
7.00462e-09
6.84685e-09
6.93529e-09
6.70442e-09
7.01732e-09
6.85147e-09
7.06523e-09
6.96272e-09
7.0703e-09
6.85504e-09
7.04967e-09
6.86865e-09
7.01808e-09
6.83478e-09
7.03503e-09
6.85754e-09
6.98905e-09
6.81389e-09
7.01091e-09
6.83631e-09
7.03038e-09
6.89708e-09
7.03627e-09
6.8538e-09
7.00632e-09
6.852e-09
7.02972e-09
6.85345e-09
7.04668e-09
6.86107e-09
7.02789e-09
6.85817e-09
7.02339e-09
6.85677e-09
7.037e-09
6.87134e-09
7.03334e-09
6.84936e-09
7.03098e-09
6.85787e-09
7.03287e-09
6.85963e-09
7.031e-09
6.85878e-09
7.04367e-09
6.85005e-09
7.03809e-09
6.85127e-09
7.00168e-09
6.80672e-09
7.0141e-09
6.86439e-09
7.05735e-09
6.88523e-09
7.05322e-09
6.86252e-09
7.06749e-09
6.88528e-09
7.05382e-09
6.89926e-09
7.07467e-09
6.90101e-09
7.09451e-09
6.91784e-09
7.0823e-09
6.89794e-09
7.05735e-09
6.89591e-09
7.08572e-09
6.90682e-09
7.07623e-09
6.87504e-09
7.06053e-09
6.88849e-09
7.04926e-09
6.90063e-09
7.05852e-09
6.88929e-09
7.06585e-09
6.90742e-09
7.06794e-09
6.88207e-09
7.07114e-09
6.91725e-09
7.06753e-09
6.90855e-09
7.04775e-09
6.88066e-09
7.0339e-09
6.84324e-09
7.00979e-09
6.8766e-09
7.03366e-09
6.85833e-09
7.04465e-09
6.8612e-09
7.05251e-09
6.89828e-09
7.05011e-09
6.8765e-09
7.04203e-09
6.86222e-09
7.02636e-09
6.85446e-09
7.03687e-09
6.85598e-09
7.00853e-09
6.84274e-09
7.04333e-09
6.85863e-09
7.01974e-09
6.89657e-09
7.09584e-09
7.01887e-09
6.84379e-09
7.01937e-09
6.84654e-09
7.03272e-09
6.85387e-09
7.01815e-09
6.84061e-09
7.01236e-09
6.82336e-09
6.99651e-09
6.82693e-09
7.02227e-09
6.85545e-09
7.02259e-09
6.83527e-09
7.03219e-09
6.86618e-09
7.05128e-09
6.84615e-09
7.04985e-09
6.85656e-09
7.0352e-09
6.8558e-09
6.98031e-09
6.80605e-09
7.05908e-09
6.84837e-09
7.09601e-09
6.95509e-09
7.08998e-09
6.8956e-09
7.09361e-09
6.91181e-09
7.05864e-09
6.88231e-09
7.05505e-09
6.90529e-09
7.02135e-09
6.85387e-09
7.03442e-09
6.85705e-09
7.06583e-09
6.86608e-09
7.04356e-09
6.86934e-09
7.00785e-09
6.83349e-09
7.01386e-09
6.85546e-09
7.04201e-09
6.85009e-09
7.02094e-09
6.8371e-09
7.01428e-09
6.83186e-09
7.00662e-09
6.82937e-09
7.02319e-09
6.82825e-09
7.0341e-09
6.84633e-09
7.03519e-09
6.84636e-09
7.05603e-09
6.87091e-09
7.07178e-09
6.88411e-09
7.06759e-09
6.90264e-09
7.07986e-09
6.86387e-09
7.05342e-09
6.86262e-09
7.07087e-09
6.92992e-09
7.08586e-09
6.88986e-09
7.10385e-09
6.89204e-09
7.06065e-09
6.88792e-09
7.09109e-09
6.92726e-09
7.09274e-09
6.89426e-09
7.0599e-09
6.89182e-09
7.04111e-09
6.87724e-09
7.03462e-09
6.8891e-09
7.05612e-09
6.87265e-09
7.03991e-09
6.85768e-09
7.02146e-09
6.86652e-09
7.0402e-09
6.86095e-09
7.01615e-09
6.87206e-09
7.04109e-09
6.86124e-09
7.04729e-09
6.87204e-09
7.04052e-09
6.86799e-09
7.03107e-09
6.84287e-09
7.02547e-09
6.81345e-09
6.99966e-09
6.85091e-09
6.99774e-09
6.81234e-09
7.00788e-09
6.81952e-09
7.03007e-09
6.85911e-09
7.02111e-09
6.8393e-09
7.02104e-09
6.84184e-09
7.01981e-09
6.83326e-09
7.02321e-09
6.85499e-09
7.01629e-09
6.8345e-09
7.03809e-09
6.87355e-09
7.06562e-09
6.88102e-09
7.05757e-09
6.83364e-09
7.02248e-09
6.8313e-09
6.99347e-09
6.81732e-09
7.00899e-09
6.84478e-09
7.01697e-09
6.84576e-09
7.0149e-09
6.83821e-09
7.01866e-09
6.82977e-09
7.01903e-09
6.8506e-09
7.02859e-09
6.8344e-09
7.03405e-09
6.85532e-09
7.02076e-09
6.84301e-09
7.03325e-09
6.87161e-09
7.05531e-09
6.86546e-09
7.00095e-09
6.85374e-09
7.04317e-09
6.85158e-09
7.10597e-09
6.95913e-09
7.08952e-09
6.90627e-09
7.10046e-09
6.90304e-09
7.07226e-09
6.89199e-09
7.0652e-09
6.87705e-09
7.04113e-09
6.84634e-09
7.0272e-09
6.86805e-09
7.01819e-09
6.83019e-09
7.03144e-09
6.84895e-09
7.02639e-09
6.82882e-09
7.0395e-09
6.8551e-09
7.04547e-09
6.86085e-09
7.03145e-09
6.84882e-09
7.03251e-09
6.85031e-09
7.05376e-09
6.87992e-09
7.06819e-09
6.88904e-09
7.08247e-09
6.89701e-09
7.08204e-09
6.8984e-09
7.08652e-09
6.90904e-09
7.11482e-09
6.92154e-09
7.0683e-09
6.9157e-09
7.09031e-09
6.90886e-09
7.11007e-09
6.88905e-09
7.1002e-09
6.96066e-09
7.11811e-09
6.92584e-09
7.12297e-09
6.9301e-09
7.08347e-09
6.87786e-09
7.09628e-09
6.94131e-09
7.12619e-09
6.89134e-09
7.0868e-09
6.88464e-09
7.07221e-09
6.86443e-09
7.00768e-09
6.85327e-09
7.04468e-09
6.87037e-09
7.03446e-09
6.8277e-09
7.00999e-09
6.82863e-09
7.02363e-09
6.82838e-09
7.00859e-09
6.8248e-09
7.02695e-09
6.85122e-09
7.03653e-09
6.86229e-09
7.04437e-09
6.86889e-09
7.06477e-09
6.87942e-09
7.07843e-09
6.86386e-09
7.07082e-09
6.8749e-09
7.03531e-09
6.86364e-09
7.04839e-09
6.86456e-09
7.05139e-09
6.86553e-09
7.04311e-09
6.8603e-09
7.04779e-09
6.87669e-09
7.05381e-09
6.8492e-09
7.03507e-09
6.86568e-09
7.05406e-09
6.86721e-09
7.07198e-09
6.90882e-09
7.11649e-09
6.89569e-09
7.13497e-09
6.8462e-09
7.0391e-09
6.84968e-09
7.04178e-09
6.83712e-09
7.03477e-09
6.86753e-09
7.04089e-09
6.85748e-09
7.0355e-09
6.85934e-09
7.03821e-09
6.84536e-09
7.02614e-09
6.85447e-09
7.03265e-09
6.84824e-09
7.05462e-09
6.8579e-09
7.02472e-09
6.83713e-09
7.01189e-09
6.87724e-09
7.05404e-09
6.87138e-09
7.0234e-09
6.87827e-09
7.03975e-09
6.8459e-09
7.10317e-09
6.91507e-09
7.07373e-09
6.91176e-09
7.0795e-09
6.8884e-09
7.06685e-09
6.91032e-09
7.07007e-09
6.88004e-09
7.06309e-09
6.85177e-09
7.02712e-09
6.84749e-09
6.98146e-09
6.80705e-09
7.00052e-09
6.85293e-09
7.01903e-09
6.84971e-09
7.05268e-09
6.87006e-09
7.04212e-09
6.87259e-09
7.05256e-09
6.88208e-09
7.05387e-09
6.87646e-09
7.07305e-09
6.90272e-09
7.0779e-09
6.91e-09
7.06965e-09
6.89673e-09
7.07535e-09
6.89842e-09
7.05749e-09
6.89602e-09
7.10023e-09
6.92729e-09
7.06609e-09
6.89436e-09
7.04689e-09
6.88982e-09
7.07383e-09
6.87541e-09
7.07017e-09
6.93198e-09
7.09079e-09
6.93226e-09
7.10059e-09
6.93995e-09
7.11276e-09
6.90389e-09
7.10705e-09
6.9544e-09
7.12042e-09
6.91415e-09
7.09918e-09
6.89507e-09
7.09327e-09
6.88708e-09
7.04634e-09
6.86819e-09
7.07207e-09
6.90158e-09
7.0479e-09
6.84553e-09
7.04656e-09
6.86854e-09
7.04266e-09
6.85549e-09
7.0411e-09
6.84193e-09
7.0465e-09
6.8692e-09
7.03102e-09
6.86237e-09
7.05097e-09
6.88532e-09
7.05799e-09
6.89342e-09
7.05412e-09
6.89704e-09
7.07388e-09
6.88938e-09
7.0516e-09
6.83844e-09
7.02481e-09
6.86724e-09
7.03539e-09
6.84287e-09
7.0267e-09
6.84176e-09
7.03587e-09
6.87266e-09
7.03332e-09
6.84747e-09
7.03049e-09
6.87006e-09
7.05949e-09
6.87638e-09
7.08531e-09
6.93911e-09
7.10728e-09
6.96278e-09
7.21754e-09
6.86307e-09
7.03345e-09
6.86102e-09
7.05246e-09
6.84337e-09
7.02476e-09
6.86589e-09
7.03503e-09
6.86267e-09
7.04127e-09
6.86284e-09
7.02567e-09
6.8316e-09
7.01681e-09
6.84853e-09
7.03388e-09
6.85415e-09
7.04968e-09
6.85742e-09
7.05633e-09
6.85066e-09
7.05104e-09
6.90022e-09
7.08225e-09
6.88128e-09
7.06399e-09
6.91729e-09
7.07378e-09
6.88117e-09
7.09467e-09
6.87833e-09
7.06062e-09
6.89081e-09
7.05778e-09
6.86959e-09
7.03453e-09
6.86577e-09
7.02436e-09
6.85292e-09
7.04018e-09
6.86614e-09
7.03182e-09
6.84646e-09
7.00046e-09
6.80942e-09
6.98311e-09
6.83645e-09
6.99751e-09
6.84058e-09
7.01843e-09
6.83713e-09
7.01545e-09
6.847e-09
7.01765e-09
6.86572e-09
7.02447e-09
6.84649e-09
7.03363e-09
6.85501e-09
7.04616e-09
6.88213e-09
7.0479e-09
6.87255e-09
7.05468e-09
6.88856e-09
7.04147e-09
6.8847e-09
7.07875e-09
6.92779e-09
7.05752e-09
6.88075e-09
7.02366e-09
6.87075e-09
7.02707e-09
6.85711e-09
7.05359e-09
6.86564e-09
7.05395e-09
6.89216e-09
7.05201e-09
6.89342e-09
7.06787e-09
6.8879e-09
7.10928e-09
6.94331e-09
7.10236e-09
6.91732e-09
7.08064e-09
6.8967e-09
7.09398e-09
6.9055e-09
7.07729e-09
6.8693e-09
7.08733e-09
6.92828e-09
7.06023e-09
6.85421e-09
7.06853e-09
6.90883e-09
7.08637e-09
6.90085e-09
7.0766e-09
6.88993e-09
7.09854e-09
6.91867e-09
7.07997e-09
6.88968e-09
7.09934e-09
6.91273e-09
7.09596e-09
6.89619e-09
7.05604e-09
6.88911e-09
7.07057e-09
6.91787e-09
7.04588e-09
6.83484e-09
7.01207e-09
6.85934e-09
7.00815e-09
6.83125e-09
6.99943e-09
6.82117e-09
7.00465e-09
6.86571e-09
7.01816e-09
6.84459e-09
7.03352e-09
6.86725e-09
7.04404e-09
6.87392e-09
7.08252e-09
6.93851e-09
7.08627e-09
6.99742e-09
6.83879e-09
7.02205e-09
6.8407e-09
7.0245e-09
6.83717e-09
6.99318e-09
6.82801e-09
7.0228e-09
6.86332e-09
7.05108e-09
6.87326e-09
7.05629e-09
6.84568e-09
7.01737e-09
6.83635e-09
7.04255e-09
6.8627e-09
7.04713e-09
6.86747e-09
7.05698e-09
6.86534e-09
7.07625e-09
6.90135e-09
7.08518e-09
6.86929e-09
7.08179e-09
6.93059e-09
7.09032e-09
6.92315e-09
7.1259e-09
6.92074e-09
7.09644e-09
6.92151e-09
7.08431e-09
6.91012e-09
7.07549e-09
6.87535e-09
7.05059e-09
6.85979e-09
7.02537e-09
6.8583e-09
7.02013e-09
6.83156e-09
7.00393e-09
6.80297e-09
6.97389e-09
6.78504e-09
6.98269e-09
6.79645e-09
6.95391e-09
6.79399e-09
7.00173e-09
6.83014e-09
7.01966e-09
6.87163e-09
7.05395e-09
6.88556e-09
7.05205e-09
6.85656e-09
7.03648e-09
6.86754e-09
7.05097e-09
6.85417e-09
7.04841e-09
6.8651e-09
7.04026e-09
6.85842e-09
7.06574e-09
6.88268e-09
7.03658e-09
6.8459e-09
7.01322e-09
6.84598e-09
7.02542e-09
6.8809e-09
7.05076e-09
6.86096e-09
7.0451e-09
6.86348e-09
7.05381e-09
6.88068e-09
7.03964e-09
6.86395e-09
7.0606e-09
6.90943e-09
7.08687e-09
6.90695e-09
7.04703e-09
6.88442e-09
7.04937e-09
6.92013e-09
7.06471e-09
6.87224e-09
7.08125e-09
6.91148e-09
7.05891e-09
6.86959e-09
7.04789e-09
6.891e-09
7.0848e-09
6.90907e-09
7.07763e-09
6.8874e-09
7.0866e-09
6.9266e-09
7.07331e-09
6.90486e-09
7.07878e-09
6.89709e-09
7.09279e-09
6.89693e-09
7.06648e-09
6.87133e-09
7.05537e-09
6.88556e-09
7.0226e-09
6.83387e-09
7.00779e-09
6.83538e-09
7.00199e-09
6.81202e-09
7.00085e-09
6.80915e-09
7.00391e-09
6.84336e-09
7.02461e-09
6.83627e-09
7.01856e-09
6.83179e-09
7.0256e-09
6.85e-09
7.06289e-09
6.91423e-09
7.065e-09
6.85821e-09
7.06256e-09
6.87539e-09
7.073e-09
6.88522e-09
7.05616e-09
6.86173e-09
7.05959e-09
6.87695e-09
7.06567e-09
6.89392e-09
7.0746e-09
6.88997e-09
7.04261e-09
6.84224e-09
7.04023e-09
6.87703e-09
7.06071e-09
6.89143e-09
7.05664e-09
6.89306e-09
7.08708e-09
6.9221e-09
7.08779e-09
6.89813e-09
7.09116e-09
6.91996e-09
7.08574e-09
6.9212e-09
7.11169e-09
6.93794e-09
7.10173e-09
6.91159e-09
7.06816e-09
6.90372e-09
7.06028e-09
6.8685e-09
7.06709e-09
6.87044e-09
7.03295e-09
6.85459e-09
7.00892e-09
6.82766e-09
7.00957e-09
6.84324e-09
7.01157e-09
6.82441e-09
7.0238e-09
6.81861e-09
7.01079e-09
6.82154e-09
7.02232e-09
6.83558e-09
6.99954e-09
6.83688e-09
7.06352e-09
6.91589e-09
7.08861e-09
6.88651e-09
7.06973e-09
6.89334e-09
7.06293e-09
6.88213e-09
7.06672e-09
6.88879e-09
7.05737e-09
6.87796e-09
7.08435e-09
6.89236e-09
7.05731e-09
6.84815e-09
7.01869e-09
6.81863e-09
7.01258e-09
6.86708e-09
7.04164e-09
6.87831e-09
7.04967e-09
6.8553e-09
7.05255e-09
6.8949e-09
7.06594e-09
6.86053e-09
7.04141e-09
6.88193e-09
7.07799e-09
6.89478e-09
7.05854e-09
6.85305e-09
7.04021e-09
6.88782e-09
7.02876e-09
6.86829e-09
7.05045e-09
6.86452e-09
7.03805e-09
6.85726e-09
7.01717e-09
6.84561e-09
7.03022e-09
6.8848e-09
7.05856e-09
6.87182e-09
7.04796e-09
6.8856e-09
7.07902e-09
6.8988e-09
7.07288e-09
6.8826e-09
7.05934e-09
6.88438e-09
7.07979e-09
6.88074e-09
7.0726e-09
6.86374e-09
7.02487e-09
6.83491e-09
7.01319e-09
6.83861e-09
7.02613e-09
6.84102e-09
7.05651e-09
6.85838e-09
7.06817e-09
6.88201e-09
7.06455e-09
6.88642e-09
7.06277e-09
6.85437e-09
7.06744e-09
6.88605e-09
7.09745e-09
6.92645e-09
7.10323e-09
6.87063e-09
7.05309e-09
6.89266e-09
7.05649e-09
6.88989e-09
7.04945e-09
6.87215e-09
7.04552e-09
6.87048e-09
7.05521e-09
6.88421e-09
7.03525e-09
6.88282e-09
7.0456e-09
6.84595e-09
7.03125e-09
6.87334e-09
7.03993e-09
6.85912e-09
7.05096e-09
6.88022e-09
7.063e-09
6.90706e-09
7.0569e-09
6.90063e-09
7.05524e-09
6.88225e-09
7.068e-09
6.88761e-09
7.0592e-09
6.90435e-09
7.07293e-09
6.87923e-09
7.04562e-09
6.86791e-09
7.02168e-09
6.83291e-09
7.02127e-09
6.84653e-09
7.03035e-09
6.8496e-09
7.01228e-09
6.82007e-09
7.00716e-09
6.84223e-09
6.99991e-09
6.84464e-09
6.99215e-09
6.80731e-09
6.99735e-09
6.82348e-09
7.0237e-09
6.85523e-09
7.01266e-09
6.8368e-09
7.04855e-09
6.89881e-09
7.06148e-09
6.88152e-09
7.06523e-09
6.89106e-09
7.0421e-09
6.86309e-09
7.06174e-09
6.89846e-09
7.0716e-09
6.89459e-09
7.07829e-09
6.91968e-09
7.0711e-09
6.86881e-09
7.04846e-09
6.83238e-09
7.0244e-09
6.84546e-09
7.03519e-09
6.87537e-09
7.05012e-09
6.86157e-09
7.05737e-09
6.89964e-09
7.0782e-09
6.88507e-09
7.07459e-09
6.86955e-09
7.08037e-09
6.91133e-09
7.08044e-09
6.87868e-09
7.06384e-09
6.88827e-09
7.05296e-09
6.86418e-09
7.03898e-09
6.84192e-09
7.01946e-09
6.85649e-09
7.03862e-09
6.83812e-09
7.0132e-09
6.84281e-09
7.04919e-09
6.8837e-09
7.04787e-09
6.88324e-09
7.06241e-09
6.89166e-09
7.0859e-09
6.89286e-09
7.04699e-09
6.87856e-09
7.05992e-09
6.89656e-09
7.08418e-09
6.89168e-09
7.04713e-09
6.8736e-09
7.04309e-09
6.86447e-09
7.04153e-09
6.87188e-09
7.06064e-09
6.88476e-09
7.08664e-09
6.90235e-09
7.05959e-09
6.90259e-09
7.06479e-09
6.8874e-09
7.08098e-09
6.91056e-09
7.11021e-09
6.94295e-09
7.09854e-09
6.85321e-09
7.0306e-09
6.87396e-09
7.0335e-09
6.85599e-09
7.02404e-09
6.85489e-09
7.03798e-09
6.85042e-09
7.03899e-09
6.84945e-09
7.01093e-09
6.84974e-09
7.03047e-09
6.85754e-09
7.04724e-09
6.87615e-09
7.02987e-09
6.82985e-09
7.05127e-09
6.87361e-09
7.08055e-09
6.90403e-09
7.07189e-09
6.90866e-09
7.06748e-09
6.88015e-09
7.07299e-09
6.88221e-09
7.06473e-09
6.89612e-09
7.06038e-09
6.89282e-09
7.06088e-09
6.86206e-09
7.05454e-09
6.85317e-09
7.03139e-09
6.85298e-09
7.03654e-09
6.85536e-09
7.02723e-09
6.8391e-09
7.01016e-09
6.83054e-09
6.99839e-09
6.83997e-09
7.00462e-09
6.81007e-09
6.98709e-09
6.80113e-09
6.97825e-09
6.82841e-09
7.00184e-09
6.82891e-09
7.02276e-09
6.84551e-09
7.02202e-09
6.85957e-09
7.03879e-09
6.87634e-09
7.04476e-09
6.85397e-09
7.04685e-09
6.88449e-09
7.07935e-09
6.8887e-09
7.06614e-09
6.91165e-09
7.05308e-09
6.86203e-09
7.03854e-09
6.84401e-09
7.01705e-09
6.82222e-09
7.01166e-09
6.85467e-09
7.02762e-09
6.85808e-09
7.06e-09
6.88679e-09
7.05148e-09
6.88758e-09
7.06779e-09
6.87613e-09
7.08426e-09
6.94758e-09
7.09577e-09
6.90146e-09
7.07703e-09
6.90005e-09
7.08454e-09
6.88867e-09
7.07092e-09
6.85898e-09
7.02989e-09
6.86424e-09
7.0388e-09
6.87057e-09
7.06107e-09
6.86352e-09
7.06802e-09
6.90892e-09
7.07207e-09
6.87575e-09
7.04132e-09
6.87556e-09
7.06405e-09
6.89527e-09
7.06622e-09
6.87865e-09
7.03774e-09
6.86477e-09
7.03783e-09
6.87089e-09
7.02649e-09
6.8686e-09
7.02598e-09
6.84955e-09
7.01785e-09
6.86558e-09
7.04559e-09
6.87688e-09
7.06023e-09
6.87625e-09
7.04132e-09
6.87732e-09
7.0346e-09
6.87228e-09
7.04709e-09
6.86685e-09
7.05734e-09
6.91243e-09
7.06019e-09
6.85552e-09
7.0312e-09
6.8615e-09
7.05328e-09
6.85825e-09
7.03914e-09
6.86598e-09
7.05968e-09
6.88376e-09
7.03984e-09
6.85002e-09
7.04336e-09
6.87417e-09
7.03966e-09
6.87412e-09
7.05079e-09
6.87837e-09
7.05354e-09
6.85716e-09
7.04111e-09
6.86722e-09
7.06505e-09
6.88389e-09
7.0569e-09
6.89071e-09
7.05828e-09
6.87244e-09
7.05794e-09
6.87219e-09
7.0822e-09
6.8958e-09
7.05342e-09
6.89195e-09
7.04677e-09
6.84169e-09
7.05569e-09
6.87495e-09
7.06929e-09
6.88579e-09
7.05116e-09
6.84949e-09
7.03898e-09
6.84301e-09
7.01503e-09
6.81076e-09
6.98533e-09
6.82145e-09
6.99341e-09
6.81923e-09
7.01647e-09
6.81047e-09
6.9927e-09
6.81423e-09
7.00175e-09
6.84049e-09
7.05717e-09
6.86364e-09
7.05233e-09
6.87588e-09
7.04145e-09
6.8691e-09
7.06454e-09
6.86759e-09
7.059e-09
6.87968e-09
7.07337e-09
6.89637e-09
7.07509e-09
6.89546e-09
7.0553e-09
6.88333e-09
7.05114e-09
6.87163e-09
7.05342e-09
6.85494e-09
7.02793e-09
6.86904e-09
7.02391e-09
6.87059e-09
7.05735e-09
6.90225e-09
7.03579e-09
6.89546e-09
7.0401e-09
6.86726e-09
7.10066e-09
6.89477e-09
7.07488e-09
6.91805e-09
7.0475e-09
6.86564e-09
7.04974e-09
6.8758e-09
7.07012e-09
6.86329e-09
7.07518e-09
6.88799e-09
7.05141e-09
6.86828e-09
7.09981e-09
6.8895e-09
7.08295e-09
6.92444e-09
7.08125e-09
6.8851e-09
7.0417e-09
6.85511e-09
7.03743e-09
6.87155e-09
7.0669e-09
6.87939e-09
7.0809e-09
6.86441e-09
7.04949e-09
6.85011e-09
7.03595e-09
6.86981e-09
7.01912e-09
6.82848e-09
7.00785e-09
6.83693e-09
7.03032e-09
6.86515e-09
7.04941e-09
6.85741e-09
7.02187e-09
6.85837e-09
7.02279e-09
6.85196e-09
7.04722e-09
6.84183e-09
7.02881e-09
6.86076e-09
7.05251e-09
6.89131e-09
7.04287e-09
6.88349e-09
7.06203e-09
6.8748e-09
7.03655e-09
6.83802e-09
7.03768e-09
6.88253e-09
7.01485e-09
6.82627e-09
7.02458e-09
6.868e-09
7.02728e-09
6.86174e-09
7.01692e-09
6.87606e-09
7.07147e-09
6.89935e-09
7.07753e-09
6.8662e-09
7.06842e-09
6.89533e-09
7.07732e-09
6.90711e-09
7.07357e-09
6.89613e-09
7.07823e-09
6.89332e-09
7.106e-09
6.9258e-09
7.07793e-09
6.89806e-09