/*--------------------------------*- C++ -*----------------------------------*\
| =========                 |                                                 |
| \\      /  F ield         | OpenFOAM: The Open Source CFD Toolbox           |
|  \\    /   O peration     | Version:  2206                                  |
|   \\  /    A nd           | Website:  www.openfoam.com                      |
|    \\/     M anipulation  |                                                 |
\*---------------------------------------------------------------------------*/
FoamFile
{
    version     2.0;
    format      ascii;
    arch        "LSB;label=32;scalar=64";
    class       volScalarField;
    location    "0.9";
    object      nut;
}
// * * * * * * * * * * * * * * * * * * * * * * * * * * * * * * * * * * * * * //

dimensions      [0 2 -1 0 0 0 0];

internalField   nonuniform List<scalar> 
184150
(
5.03268e-16
5.00692e-16
4.89986e-16
4.91163e-16
4.89547e-16
4.8929e-16
5.01429e-16
5.01476e-16
4.79565e-16
5.03036e-16
5.00651e-16
4.8852e-16
5.01824e-16
4.86282e-16
4.97295e-16
4.96541e-16
4.84567e-16
4.87085e-16
4.95544e-16
4.74609e-16
4.93924e-16
4.90344e-16
4.84568e-16
4.98284e-16
4.82457e-16
4.7911e-16
4.87554e-16
4.8712e-16
4.87336e-16
4.87129e-16
4.78734e-16
4.81759e-16
4.8574e-16
4.91331e-16
4.92843e-16
5.04059e-16
4.84877e-16
4.87707e-16
5.00126e-16
5.03216e-16
4.82515e-16
4.77175e-16
4.9985e-16
4.83411e-16
4.83539e-16
5.00043e-16
4.91565e-16
4.91529e-16
5.01512e-16
5.02608e-16
4.89144e-16
5.02203e-16
4.83975e-16
4.88628e-16
4.89103e-16
4.8576e-16
4.99051e-16
4.90635e-16
4.86514e-16
4.79863e-16
4.74901e-16
4.84883e-16
5.00562e-16
4.88962e-16
5.02463e-16
4.99696e-16
5.01758e-16
4.76601e-16
5.00862e-16
4.8466e-16
4.99149e-16
4.90195e-16
4.938e-16
4.8458e-16
4.81901e-16
4.82501e-16
4.78176e-16
4.93421e-16
4.95167e-16
4.92548e-16
4.84736e-16
4.68542e-16
4.762e-16
4.85965e-16
4.89299e-16
5.01759e-16
4.8127e-16
4.83741e-16
4.86796e-16
4.78886e-16
4.90428e-16
4.76958e-16
4.79802e-16
4.97596e-16
4.75712e-16
4.90628e-16
5.02485e-16
5.02066e-16
4.79745e-16
4.99248e-16
4.84269e-16
4.9032e-16
4.93661e-16
4.75611e-16
4.76035e-16
4.87808e-16
4.96439e-16
4.97139e-16
4.88551e-16
4.9544e-16
4.84611e-16
5.01036e-16
4.96707e-16
4.79672e-16
4.82678e-16
4.82054e-16
4.99173e-16
4.96146e-16
4.74524e-16
4.86807e-16
4.86926e-16
4.84892e-16
4.96404e-16
5.01374e-16
4.89373e-16
4.8496e-16
4.81373e-16
4.88921e-16
4.89592e-16
5.0181e-16
4.76425e-16
4.86477e-16
4.84534e-16
4.8404e-16
4.94678e-16
5.00215e-16
4.80777e-16
4.89695e-16
4.98992e-16
4.832e-16
4.7997e-16
4.97398e-16
4.81234e-16
4.85749e-16
4.82931e-16
4.82687e-16
4.96716e-16
4.99453e-16
4.98452e-16
4.87171e-16
4.98771e-16
4.83318e-16
4.84097e-16
4.86758e-16
4.92378e-16
4.84922e-16
4.83114e-16
4.93159e-16
4.9392e-16
4.93151e-16
4.83122e-16
4.77512e-16
4.99937e-16
5.00985e-16
4.86682e-16
4.93517e-16
5.02106e-16
4.99993e-16
4.82238e-16
4.84994e-16
5.02108e-16
4.8964e-16
4.74621e-16
4.8187e-16
4.9007e-16
5.02168e-16
5.00734e-16
4.87787e-16
4.83609e-16
5.02737e-16
4.92085e-16
5.02123e-16
4.73412e-16
4.82804e-16
4.88299e-16
4.99686e-16
4.95859e-16
4.96571e-16
4.88599e-16
4.95346e-16
4.94722e-16
4.95922e-16
5.02024e-16
4.85988e-16
4.81813e-16
5.03996e-16
5.00896e-16
4.8598e-16
4.87938e-16
4.86281e-16
4.87185e-16
4.93399e-16
4.81918e-16
4.86351e-16
4.95676e-16
5.02602e-16
4.8478e-16
4.86889e-16
4.84061e-16
4.83157e-16
4.78093e-16
4.82552e-16
5.01841e-16
5.01231e-16
4.85449e-16
4.93172e-16
5.02149e-16
5.02021e-16
5.00686e-16
4.85707e-16
4.75072e-16
4.90832e-16
5.01655e-16
4.87719e-16
4.78565e-16
4.80863e-16
4.993e-16
4.97648e-16
4.79976e-16
4.90761e-16
4.91235e-16
4.75839e-16
4.75489e-16
4.8479e-16
4.86639e-16
4.84651e-16
4.9095e-16
4.75914e-16
4.84794e-16
4.90679e-16
4.84757e-16
4.78293e-16
4.85702e-16
4.86433e-16
5.01791e-16
4.88e-16
5.02351e-16
4.8621e-16
4.81465e-16
4.78529e-16
4.91392e-16
4.79684e-16
4.75867e-16
4.99119e-16
4.89265e-16
4.83871e-16
4.85883e-16
4.99411e-16
4.85093e-16
5.00885e-16
4.8576e-16
4.80699e-16
4.94081e-16
4.74321e-16
4.80559e-16
4.80482e-16
4.95637e-16
4.84992e-16
4.98223e-16
5.01585e-16
4.84498e-16
5.03526e-16
5.01087e-16
4.89033e-16
4.74687e-16
4.8437e-16
4.84021e-16
4.73616e-16
4.83797e-16
4.95871e-16
4.90757e-16
4.75717e-16
4.8642e-16
5.01284e-16
5.02078e-16
4.66732e-16
4.8571e-16
4.96133e-16
4.78577e-16
4.95089e-16
4.80732e-16
4.82907e-16
4.82622e-16
5.02041e-16
4.83009e-16
4.85357e-16
4.86703e-16
4.86256e-16
4.8415e-16
4.81421e-16
4.85618e-16
4.90257e-16
4.94646e-16
4.76637e-16
4.91015e-16
5.01245e-16
4.99338e-16
4.91328e-16
4.81049e-16
4.81693e-16
4.75569e-16
4.76342e-16
4.95391e-16
4.79112e-16
4.77831e-16
4.9043e-16
4.93944e-16
4.87309e-16
4.83146e-16
5.03751e-16
5.01565e-16
4.78424e-16
4.84039e-16
4.84219e-16
4.94014e-16
4.74159e-16
4.95346e-16
4.78651e-16
4.93026e-16
4.94075e-16
4.7526e-16
4.91219e-16
4.97487e-16
4.8208e-16
4.88712e-16
4.80274e-16
5.00228e-16
4.92143e-16
4.99332e-16
4.84071e-16
4.84198e-16
4.99413e-16
5.01078e-16
4.84294e-16
5.01934e-16
4.85068e-16
4.98881e-16
4.99502e-16
4.83673e-16
4.8508e-16
4.84561e-16
4.88541e-16
4.86653e-16
4.76288e-16
4.86185e-16
4.87046e-16
4.9639e-16
5.018e-16
4.86006e-16
4.93458e-16
4.76427e-16
4.92377e-16
4.99046e-16
4.8502e-16
4.85711e-16
4.95228e-16
4.93936e-16
5.03754e-16
5.01615e-16
4.91245e-16
4.80786e-16
4.99652e-16
4.83138e-16
4.93642e-16
4.80579e-16
4.8963e-16
4.68979e-16
4.91662e-16
4.87895e-16
4.89586e-16
4.85925e-16
5.03683e-16
4.87496e-16
5.01651e-16
4.97248e-16
5.02405e-16
4.87607e-16
4.90483e-16
4.85728e-16
4.9071e-16
4.95478e-16
4.88098e-16
5.0184e-16
5.01732e-16
5.0761e-16
5.00167e-16
4.8729e-16
5.00339e-16
4.83507e-16
4.98541e-16
4.89892e-16
4.85147e-16
4.81775e-16
5.01566e-16
5.00204e-16
4.83018e-16
4.84775e-16
4.84829e-16
5.02142e-16
4.95763e-16
4.97094e-16
5.03717e-16
4.81532e-16
4.94673e-16
4.90079e-16
4.96239e-16
4.82668e-16
4.94404e-16
4.9419e-16
4.9517e-16
4.85872e-16
5.02584e-16
4.86333e-16
5.01836e-16
4.99817e-16
4.80769e-16
4.85618e-16
4.83847e-16
4.87961e-16
4.78346e-16
4.88142e-16
4.76619e-16
4.76202e-16
5.00153e-16
5.01439e-16
4.74497e-16
4.87846e-16
4.74515e-16
4.73432e-16
5.01771e-16
4.89071e-16
5.01716e-16
4.89135e-16
4.89357e-16
4.7484e-16
4.97068e-16
5.01193e-16
4.86719e-16
5.02922e-16
5.04321e-16
5.03325e-16
5.02651e-16
4.72903e-16
5.00459e-16
4.86669e-16
4.94265e-16
4.80577e-16
4.84015e-16
4.77821e-16
4.74406e-16
4.8812e-16
4.84204e-16
4.7463e-16
4.87496e-16
4.89044e-16
4.76067e-16
4.7965e-16
4.784e-16
4.89527e-16
4.76073e-16
4.89487e-16
4.84854e-16
5.02243e-16
5.02745e-16
4.7639e-16
5.0136e-16
5.01337e-16
4.83545e-16
4.90236e-16
4.75811e-16
4.8351e-16
4.91598e-16
5.01154e-16
5.02792e-16
4.87673e-16
5.01396e-16
4.92866e-16
4.78109e-16
4.87372e-16
4.87816e-16
4.92127e-16
5.00946e-16
4.776e-16
5.01324e-16
4.87766e-16
4.9199e-16
4.99615e-16
5.02456e-16
4.85657e-16
5.03516e-16
4.79546e-16
4.85548e-16
5.03456e-16
4.91773e-16
4.93165e-16
4.82983e-16
4.76864e-16
4.91762e-16
4.95112e-16
5.00701e-16
4.77144e-16
4.89898e-16
4.8406e-16
4.85828e-16
5.01679e-16
5.00611e-16
4.85823e-16
4.99691e-16
4.90775e-16
4.76288e-16
4.89099e-16
4.73927e-16
4.88692e-16
4.90819e-16
5.03291e-16
4.76661e-16
4.84965e-16
5.01654e-16
4.83922e-16
4.85875e-16
4.87828e-16
5.04816e-16
4.69562e-16
4.93826e-16
4.77753e-16
4.89857e-16
4.87279e-16
5.01675e-16
4.88978e-16
4.99603e-16
4.8681e-16
5.0039e-16
4.88841e-16
4.9907e-16
4.86654e-16
4.97036e-16
4.86648e-16
4.94977e-16
4.867e-16
4.96035e-16
4.89874e-16
5.06867e-16
4.84783e-16
4.98949e-16
4.88572e-16
4.99245e-16
4.85812e-16
4.99443e-16
4.82403e-16
4.98249e-16
4.78882e-16
4.96441e-16
4.84985e-16
4.95761e-16
4.89959e-16
5.00006e-16
4.86208e-16
5.0236e-16
4.86477e-16
5.02726e-16
4.89693e-16
5.01402e-16
4.88358e-16
4.9998e-16
4.90147e-16
5.01481e-16
4.8984e-16
5.01396e-16
4.88276e-16
5.00962e-16
4.8851e-16
5.00311e-16
4.86536e-16
4.98087e-16
4.86675e-16
4.98444e-16
4.86987e-16
4.98448e-16
4.86844e-16
4.99948e-16
4.89716e-16
4.99298e-16
4.87687e-16
4.99238e-16
4.86892e-16
4.98946e-16
4.85625e-16
4.98919e-16
4.88453e-16
4.99254e-16
4.88315e-16
5.01328e-16
4.85218e-16
4.99815e-16
4.89189e-16
5.02331e-16
4.9074e-16
5.02763e-16
4.89019e-16
5.02253e-16
4.88382e-16
5.00059e-16
4.8896e-16
5.019e-16
4.913e-16
5.03752e-16
4.90213e-16
5.03278e-16
4.91595e-16
5.03315e-16
4.91419e-16
5.01746e-16
4.87594e-16
5.02407e-16
4.90314e-16
4.96901e-16
4.82918e-16
4.95886e-16
4.82099e-16
4.96699e-16
4.85989e-16
4.97934e-16
4.8459e-16
4.97435e-16
4.85054e-16
4.98406e-16
4.87205e-16
4.98859e-16
4.85944e-16
4.98058e-16
4.86021e-16
4.99124e-16
4.87876e-16
4.98937e-16
4.87528e-16
4.9943e-16
4.87348e-16
4.99026e-16
4.87523e-16
4.98891e-16
4.85232e-16
4.96386e-16
4.85406e-16
4.98172e-16
4.85991e-16
4.96803e-16
4.85587e-16
4.98113e-16
4.8472e-16
4.98983e-16
4.90146e-16
5.00323e-16
4.86669e-16
5.00023e-16
4.87168e-16
4.98595e-16
4.88138e-16
5.00167e-16
4.93471e-16
5.05451e-16
4.86302e-16
5.01202e-16
4.89266e-16
4.99864e-16
4.86926e-16
4.99217e-16
4.86521e-16
4.99589e-16
4.85484e-16
4.97881e-16
4.83478e-16
4.97918e-16
4.84317e-16
4.95266e-16
4.91088e-16
4.99916e-16
4.81129e-16
4.97258e-16
4.82381e-16
4.9948e-16
4.79404e-16
5.01537e-16
4.7328e-16
4.98189e-16
4.69484e-16
4.73757e-16
4.99292e-16
5.1424e-16
5.02675e-16
5.13401e-16
5.0023e-16
5.12274e-16
4.98299e-16
5.11016e-16
4.97359e-16
5.09106e-16
4.93681e-16
5.0541e-16
4.92802e-16
5.03739e-16
4.91213e-16
5.03498e-16
4.90526e-16
5.0031e-16
4.87503e-16
4.99195e-16
4.85158e-16
4.95596e-16
4.84465e-16
4.96358e-16
4.84587e-16
4.96564e-16
4.82093e-16
4.96896e-16
4.85036e-16
4.95867e-16
4.83272e-16
4.94639e-16
4.83543e-16
4.96312e-16
4.84211e-16
4.97684e-16
4.88266e-16
4.99325e-16
4.90174e-16
5.00699e-16
4.884e-16
5.03534e-16
4.8926e-16
5.02692e-16
4.93361e-16
5.02634e-16
4.88347e-16
5.00822e-16
4.88753e-16
5.00329e-16
4.87666e-16
5.00016e-16
4.89556e-16
5.01393e-16
4.88023e-16
5.01594e-16
4.90678e-16
5.02063e-16
4.88719e-16
5.00236e-16
4.87542e-16
5.03314e-16
4.90656e-16
4.98947e-16
4.85714e-16
4.98623e-16
4.84787e-16
4.98415e-16
4.85773e-16
4.98742e-16
4.87262e-16
5.0008e-16
4.86036e-16
4.99184e-16
4.87701e-16
5.0012e-16
4.87136e-16
5.00591e-16
4.86499e-16
4.99371e-16
4.86988e-16
4.98337e-16
4.85505e-16
4.97144e-16
4.8584e-16
4.98108e-16
4.86166e-16
4.99473e-16
4.84577e-16
4.96115e-16
4.81886e-16
4.96876e-16
4.85528e-16
4.97539e-16
4.84576e-16
4.98651e-16
4.84687e-16
4.99398e-16
4.88575e-16
5.00314e-16
4.87736e-16
5.01211e-16
4.86658e-16
5.00543e-16
4.88507e-16
5.00089e-16
4.92319e-16
5.05439e-16
4.85524e-16
5.00876e-16
4.89685e-16
5.01524e-16
4.88432e-16
5.0037e-16
4.8584e-16
4.9884e-16
4.87025e-16
4.98773e-16
4.84558e-16
4.99722e-16
4.85343e-16
4.97279e-16
4.88926e-16
4.95186e-16
4.81814e-16
4.94584e-16
4.8413e-16
4.9469e-16
4.83831e-16
4.95543e-16
4.77873e-16
4.97863e-16
4.66381e-16
4.8767e-16
5.00885e-16
5.06822e-16
4.99085e-16
5.05852e-16
4.94625e-16
5.05576e-16
4.94889e-16
5.04342e-16
4.93921e-16
5.04799e-16
4.92168e-16
5.02758e-16
4.90567e-16
5.02039e-16
4.88539e-16
5.02416e-16
4.89669e-16
4.99612e-16
4.85082e-16
4.98257e-16
4.85702e-16
4.96688e-16
4.85196e-16
4.98753e-16
4.88039e-16
5.00149e-16
4.85195e-16
4.98994e-16
4.86259e-16
4.98913e-16
4.85024e-16
4.96558e-16
4.84183e-16
4.96602e-16
4.83613e-16
4.97533e-16
4.86082e-16
4.99174e-16
4.87288e-16
4.98707e-16
4.86745e-16
4.98233e-16
4.86006e-16
4.98726e-16
4.89785e-16
5.01421e-16
4.88169e-16
4.98762e-16
4.86309e-16
4.98434e-16
4.84967e-16
4.9853e-16
4.87911e-16
4.98695e-16
4.8497e-16
4.9896e-16
4.87805e-16
5.01351e-16
4.88219e-16
4.98939e-16
4.86572e-16
5.01679e-16
4.8948e-16
5.00187e-16
4.86344e-16
4.99046e-16
4.86519e-16
5.01431e-16
4.87196e-16
5.00485e-16
4.88289e-16
5.0082e-16
4.87138e-16
5.0014e-16
4.87166e-16
4.99348e-16
4.88395e-16
5.02637e-16
4.89292e-16
5.01121e-16
4.87725e-16
5.00864e-16
4.85662e-16
4.97939e-16
4.84995e-16
4.97256e-16
4.85847e-16
4.99206e-16
4.86574e-16
4.99544e-16
4.83574e-16
4.97916e-16
4.87734e-16
5.00233e-16
4.87675e-16
5.00245e-16
4.86904e-16
5.01371e-16
4.88905e-16
5.00141e-16
4.87936e-16
5.00754e-16
4.88268e-16
5.00451e-16
4.88062e-16
4.97804e-16
4.87411e-16
4.97475e-16
4.86299e-16
5.00205e-16
4.89053e-16
4.99293e-16
4.88771e-16
5.00449e-16
4.85741e-16
4.97234e-16
4.86179e-16
4.97918e-16
4.85191e-16
4.98216e-16
4.84694e-16
4.97602e-16
4.85091e-16
4.94645e-16
4.80477e-16
4.94247e-16
4.82083e-16
4.92643e-16
4.82109e-16
4.92544e-16
4.82282e-16
4.88566e-16
4.67807e-16
4.96101e-16
4.91561e-16
5.01577e-16
4.94456e-16
5.00672e-16
4.86579e-16
4.9974e-16
4.88015e-16
4.97907e-16
4.87043e-16
4.98964e-16
4.87681e-16
4.95878e-16
4.85259e-16
4.97864e-16
4.8625e-16
4.99961e-16
4.89874e-16
5.00377e-16
4.85043e-16
4.97842e-16
4.85936e-16
4.98161e-16
4.84605e-16
4.98974e-16
4.86682e-16
4.99105e-16
4.86292e-16
4.98364e-16
4.86481e-16
5.00314e-16
4.87754e-16
4.99009e-16
4.8606e-16
4.98403e-16
4.85576e-16
4.98779e-16
4.8657e-16
4.99493e-16
4.86593e-16
4.99425e-16
4.84038e-16
4.9657e-16
4.83728e-16
4.94313e-16
4.83554e-16
4.98853e-16
4.87987e-16
4.99128e-16
4.85927e-16
4.98693e-16
4.85144e-16
5.00674e-16
4.88767e-16
5.00789e-16
4.87297e-16
4.99932e-16
4.87288e-16
5.02641e-16
4.89957e-16
5.00769e-16
4.87613e-16
5.00218e-16
4.88579e-16
5.02201e-16
4.89054e-16
5.00201e-16
4.88382e-16
5.01503e-16
4.89532e-16
5.02282e-16
4.89656e-16
5.01541e-16
4.8818e-16
5.0214e-16
4.8747e-16
4.99497e-16
4.86891e-16
5.01467e-16
4.90043e-16
5.00953e-16
4.8833e-16
5.00391e-16
4.87046e-16
4.99522e-16
4.85822e-16
4.98463e-16
4.87604e-16
4.99572e-16
4.88475e-16
5.01802e-16
4.86156e-16
4.99511e-16
4.88638e-16
5.00345e-16
4.89176e-16
5.00123e-16
4.87888e-16
5.00738e-16
4.88074e-16
4.99298e-16
4.86224e-16
4.97205e-16
4.86322e-16
4.99374e-16
4.8653e-16
4.97995e-16
4.85786e-16
5.02099e-16
4.85985e-16
4.99706e-16
4.86758e-16
4.97874e-16
4.86387e-16
4.98429e-16
4.85032e-16
4.97183e-16
4.84028e-16
4.96484e-16
4.84872e-16
4.97961e-16
4.85138e-16
4.97385e-16
4.84233e-16
4.96605e-16
4.83075e-16
4.96806e-16
4.81992e-16
4.95789e-16
4.82667e-16
4.95665e-16
4.84501e-16
4.90759e-16
4.74422e-16
4.96563e-16
4.84828e-16
4.99954e-16
4.927e-16
5.00313e-16
4.8508e-16
4.98853e-16
4.86043e-16
4.96617e-16
4.83647e-16
4.97817e-16
4.85257e-16
4.94563e-16
4.82169e-16
4.9611e-16
4.83755e-16
4.97488e-16
4.88055e-16
4.97904e-16
4.84992e-16
4.95785e-16
4.84865e-16
4.97441e-16
4.84968e-16
4.98641e-16
4.85507e-16
4.97312e-16
4.85302e-16
4.96993e-16
4.85202e-16
4.97956e-16
4.86233e-16
4.97697e-16
4.84678e-16
4.9753e-16
4.8528e-16
4.97664e-16
4.85405e-16
4.97532e-16
4.85345e-16
4.98428e-16
4.84727e-16
4.98034e-16
4.84814e-16
4.95457e-16
4.81661e-16
4.96336e-16
4.85742e-16
4.99396e-16
4.87216e-16
4.99104e-16
4.85609e-16
5.00114e-16
4.8722e-16
4.99147e-16
4.88209e-16
5.00622e-16
4.88333e-16
5.02026e-16
4.89524e-16
5.01162e-16
4.88116e-16
4.99396e-16
4.87973e-16
5.01404e-16
4.88745e-16
5.00732e-16
4.86496e-16
4.99621e-16
4.87447e-16
4.98823e-16
4.88307e-16
4.99479e-16
4.87504e-16
4.99998e-16
4.88787e-16
5.00146e-16
4.86993e-16
5.00372e-16
4.89482e-16
5.00116e-16
4.88867e-16
4.98717e-16
4.86894e-16
4.97737e-16
4.84245e-16
4.96031e-16
4.86606e-16
4.9772e-16
4.85313e-16
4.98498e-16
4.85516e-16
4.99053e-16
4.8814e-16
4.98884e-16
4.86599e-16
4.98312e-16
4.85589e-16
4.97203e-16
4.85039e-16
4.97947e-16
4.85147e-16
4.95941e-16
4.8421e-16
4.98404e-16
4.85334e-16
4.96735e-16
4.88019e-16
5.0212e-16
4.96673e-16
4.84284e-16
4.96709e-16
4.84478e-16
4.97653e-16
4.84997e-16
4.96622e-16
4.8406e-16
4.96213e-16
4.82839e-16
4.95091e-16
4.83091e-16
4.96914e-16
4.8511e-16
4.96936e-16
4.83681e-16
4.97616e-16
4.85868e-16
4.98967e-16
4.84452e-16
4.98865e-16
4.85188e-16
4.97829e-16
4.85134e-16
4.93945e-16
4.81614e-16
4.99519e-16
4.84608e-16
5.02132e-16
4.9216e-16
5.01706e-16
4.8795e-16
5.01962e-16
4.89098e-16
4.99488e-16
4.8701e-16
4.99234e-16
4.88636e-16
4.96849e-16
4.84998e-16
4.97774e-16
4.85223e-16
4.99996e-16
4.85862e-16
4.98421e-16
4.86092e-16
4.95893e-16
4.83556e-16
4.96319e-16
4.8511e-16
4.98311e-16
4.8473e-16
4.9682e-16
4.83811e-16
4.96348e-16
4.8344e-16
4.95807e-16
4.83263e-16
4.96979e-16
4.83184e-16
4.97751e-16
4.84464e-16
4.97828e-16
4.84466e-16
4.99303e-16
4.86203e-16
5.00417e-16
4.87137e-16
5.00121e-16
4.88448e-16
5.00989e-16
4.85705e-16
4.99118e-16
4.85617e-16
5.00353e-16
4.90379e-16
5.01414e-16
4.87544e-16
5.02687e-16
4.87699e-16
4.9963e-16
4.87407e-16
5.01784e-16
4.90191e-16
5.019e-16
4.87856e-16
4.99577e-16
4.87683e-16
4.98247e-16
4.86651e-16
4.97788e-16
4.87491e-16
4.99309e-16
4.86326e-16
4.98162e-16
4.85267e-16
4.96856e-16
4.85892e-16
4.98183e-16
4.85499e-16
4.96481e-16
4.86285e-16
4.98246e-16
4.85519e-16
4.98684e-16
4.86284e-16
4.98205e-16
4.85996e-16
4.97536e-16
4.84219e-16
4.9714e-16
4.82137e-16
4.95314e-16
4.84788e-16
4.95178e-16
4.82059e-16
4.95896e-16
4.82567e-16
4.97466e-16
4.85368e-16
4.96832e-16
4.83966e-16
4.96827e-16
4.84146e-16
4.9674e-16
4.83539e-16
4.9698e-16
4.85077e-16
4.96491e-16
4.83626e-16
4.98034e-16
4.8639e-16
4.99982e-16
4.86919e-16
4.99412e-16
4.83566e-16
4.96929e-16
4.834e-16
4.94876e-16
4.82411e-16
4.95974e-16
4.84354e-16
4.96539e-16
4.84424e-16
4.96392e-16
4.83889e-16
4.96658e-16
4.83292e-16
4.96684e-16
4.84766e-16
4.97361e-16
4.8362e-16
4.97748e-16
4.851e-16
4.96807e-16
4.84229e-16
4.97691e-16
4.86253e-16
4.99252e-16
4.85817e-16
4.95405e-16
4.84988e-16
4.98393e-16
4.84835e-16
5.02837e-16
4.92446e-16
5.01673e-16
4.88706e-16
5.02447e-16
4.88477e-16
5.00451e-16
4.87695e-16
4.99952e-16
4.86638e-16
4.98248e-16
4.84465e-16
4.97263e-16
4.86001e-16
4.96625e-16
4.83322e-16
4.97563e-16
4.8465e-16
4.97205e-16
4.83225e-16
4.98133e-16
4.85084e-16
4.98556e-16
4.85491e-16
4.97563e-16
4.8464e-16
4.97638e-16
4.84745e-16
4.99142e-16
4.86841e-16
5.00163e-16
4.87486e-16
5.01173e-16
4.8805e-16
5.01144e-16
4.88149e-16
5.0146e-16
4.88902e-16
5.03463e-16
4.89786e-16
5.00171e-16
4.89373e-16
5.01728e-16
4.88889e-16
5.03127e-16
4.87487e-16
5.02429e-16
4.92554e-16
5.03696e-16
4.9009e-16
5.0404e-16
4.90392e-16
5.01244e-16
4.86695e-16
5.02151e-16
4.91185e-16
5.04267e-16
4.87649e-16
5.0148e-16
4.87175e-16
5.00448e-16
4.85745e-16
4.95881e-16
4.84955e-16
4.985e-16
4.86165e-16
4.97777e-16
4.83146e-16
4.96045e-16
4.83212e-16
4.9701e-16
4.83194e-16
4.95946e-16
4.82941e-16
4.97245e-16
4.8481e-16
4.97923e-16
4.85593e-16
4.98477e-16
4.8606e-16
4.99921e-16
4.86806e-16
5.00888e-16
4.85704e-16
5.00349e-16
4.86486e-16
4.97836e-16
4.85689e-16
4.98762e-16
4.85754e-16
4.98974e-16
4.85822e-16
4.98389e-16
4.85452e-16
4.9872e-16
4.86612e-16
4.99146e-16
4.84667e-16
4.9782e-16
4.85833e-16
4.99164e-16
4.85941e-16
5.00432e-16
4.88886e-16
5.03581e-16
4.87957e-16
5.04889e-16
4.84455e-16
4.98105e-16
4.84701e-16
4.98294e-16
4.83812e-16
4.97798e-16
4.85964e-16
4.98231e-16
4.85253e-16
4.9785e-16
4.85385e-16
4.98042e-16
4.84395e-16
4.97188e-16
4.8504e-16
4.97648e-16
4.84599e-16
4.99203e-16
4.85282e-16
4.97087e-16
4.83813e-16
4.96179e-16
4.86651e-16
4.99162e-16
4.86236e-16
4.96994e-16
4.86724e-16
4.98151e-16
4.84433e-16
5.02638e-16
4.89328e-16
5.00555e-16
4.89094e-16
5.00964e-16
4.87441e-16
5.00068e-16
4.88992e-16
5.00296e-16
4.8685e-16
4.99802e-16
4.84849e-16
4.97257e-16
4.84546e-16
4.94026e-16
4.81684e-16
4.95375e-16
4.84931e-16
4.96685e-16
4.84703e-16
4.99066e-16
4.86143e-16
4.98318e-16
4.86322e-16
4.99058e-16
4.86994e-16
4.9915e-16
4.86596e-16
5.00507e-16
4.88454e-16
5.0085e-16
4.88969e-16
5.00267e-16
4.8803e-16
5.0067e-16
4.8815e-16
4.99406e-16
4.8798e-16
5.02431e-16
4.90193e-16
5.00015e-16
4.87862e-16
4.98656e-16
4.87542e-16
5.00563e-16
4.86522e-16
5.00304e-16
4.90525e-16
5.01762e-16
4.90545e-16
5.02456e-16
4.91089e-16
5.03317e-16
4.88537e-16
5.02913e-16
4.92112e-16
5.03859e-16
4.89263e-16
5.02356e-16
4.87913e-16
5.01938e-16
4.87348e-16
4.98617e-16
4.8601e-16
5.00438e-16
4.88374e-16
4.98728e-16
4.84407e-16
4.98633e-16
4.86035e-16
4.98357e-16
4.85112e-16
4.98246e-16
4.84153e-16
4.98629e-16
4.86082e-16
4.97533e-16
4.85599e-16
4.98945e-16
4.87223e-16
4.99442e-16
4.87796e-16
4.99168e-16
4.88052e-16
5.00566e-16
4.8751e-16
4.98989e-16
4.83906e-16
4.97094e-16
4.85943e-16
4.97842e-16
4.84219e-16
4.97227e-16
4.8414e-16
4.97876e-16
4.86327e-16
4.97696e-16
4.84545e-16
4.97495e-16
4.86143e-16
4.99548e-16
4.8659e-16
5.01375e-16
4.91029e-16
5.0293e-16
4.92704e-16
5.10731e-16
4.85649e-16
4.97705e-16
4.85504e-16
4.9905e-16
4.84254e-16
4.9709e-16
4.85848e-16
4.97817e-16
4.8562e-16
4.98259e-16
4.85632e-16
4.97154e-16
4.83421e-16
4.96528e-16
4.8462e-16
4.97735e-16
4.85017e-16
4.98853e-16
4.85249e-16
4.99324e-16
4.8477e-16
4.9895e-16
4.88277e-16
5.01158e-16
4.86937e-16
4.99866e-16
4.89485e-16
5.00559e-16
4.86929e-16
5.02037e-16
4.86728e-16
4.99627e-16
4.87612e-16
4.99427e-16
4.8611e-16
4.97782e-16
4.8584e-16
4.97061e-16
4.8493e-16
4.98181e-16
4.85866e-16
4.97589e-16
4.84473e-16
4.95371e-16
4.81852e-16
4.94143e-16
4.83764e-16
4.95162e-16
4.84057e-16
4.96642e-16
4.83813e-16
4.96431e-16
4.84511e-16
4.96587e-16
4.85836e-16
4.97069e-16
4.84475e-16
4.97718e-16
4.85078e-16
4.98604e-16
4.86997e-16
4.98728e-16
4.8632e-16
4.99207e-16
4.87452e-16
4.98272e-16
4.87179e-16
5.00911e-16
4.90229e-16
4.99409e-16
4.86899e-16
4.97012e-16
4.86192e-16
4.97254e-16
4.85226e-16
4.9913e-16
4.8583e-16
4.99156e-16
4.87707e-16
4.99018e-16
4.87796e-16
5.00141e-16
4.87405e-16
5.03071e-16
4.91327e-16
5.02581e-16
4.89487e-16
5.01045e-16
4.88028e-16
5.01988e-16
4.88651e-16
5.00807e-16
4.86089e-16
5.01518e-16
4.90263e-16
4.996e-16
4.85021e-16
5.00188e-16
4.88886e-16
5.01449e-16
4.88322e-16
5.00758e-16
4.87549e-16
5.02311e-16
4.89583e-16
5.00997e-16
4.87532e-16
5.02367e-16
4.89162e-16
5.02129e-16
4.87992e-16
4.99304e-16
4.87491e-16
5.00332e-16
4.89526e-16
4.98585e-16
4.8365e-16
4.96192e-16
4.85384e-16
4.95915e-16
4.83397e-16
4.95297e-16
4.82684e-16
4.95667e-16
4.85836e-16
4.96623e-16
4.84341e-16
4.9771e-16
4.85944e-16
4.98455e-16
4.86416e-16
5.01177e-16
4.90987e-16
5.01443e-16
4.95156e-16
4.8393e-16
4.96898e-16
4.84066e-16
4.97072e-16
4.83816e-16
4.94855e-16
4.83168e-16
4.96951e-16
4.85666e-16
4.98953e-16
4.8637e-16
4.99321e-16
4.84418e-16
4.96567e-16
4.83758e-16
4.98349e-16
4.85622e-16
4.98673e-16
4.8596e-16
4.9937e-16
4.85809e-16
5.00734e-16
4.88357e-16
5.01365e-16
4.86089e-16
5.01125e-16
4.90426e-16
5.01729e-16
4.899e-16
5.04247e-16
4.89729e-16
5.02163e-16
4.89784e-16
5.01304e-16
4.88978e-16
5.0068e-16
4.86517e-16
4.98918e-16
4.85417e-16
4.97133e-16
4.85311e-16
4.96763e-16
4.83419e-16
4.95616e-16
4.81396e-16
4.93491e-16
4.80127e-16
4.94113e-16
4.80934e-16
4.92076e-16
4.8076e-16
4.95461e-16
4.83319e-16
4.96729e-16
4.86254e-16
4.99156e-16
4.8724e-16
4.99021e-16
4.85188e-16
4.97919e-16
4.85965e-16
4.98945e-16
4.85019e-16
4.98763e-16
4.85792e-16
4.98187e-16
4.8532e-16
4.9999e-16
4.87036e-16
4.97926e-16
4.84434e-16
4.96274e-16
4.84439e-16
4.97137e-16
4.8691e-16
4.9893e-16
4.85499e-16
4.98529e-16
4.85677e-16
4.99146e-16
4.86895e-16
4.98143e-16
4.85711e-16
4.99626e-16
4.88929e-16
5.01485e-16
4.88753e-16
4.98666e-16
4.8716e-16
4.98831e-16
4.89686e-16
4.99917e-16
4.86298e-16
5.01088e-16
4.89074e-16
4.99506e-16
4.8611e-16
4.98727e-16
4.87625e-16
5.01339e-16
4.88903e-16
5.00832e-16
4.8737e-16
5.01466e-16
4.90144e-16
5.00526e-16
4.88605e-16
5.00913e-16
4.88056e-16
5.01904e-16
4.88045e-16
5.00042e-16
4.86233e-16
4.99256e-16
4.8724e-16
4.96937e-16
4.83582e-16
4.95889e-16
4.83689e-16
4.95479e-16
4.82036e-16
4.95398e-16
4.81833e-16
4.95615e-16
4.84254e-16
4.9708e-16
4.83752e-16
4.96651e-16
4.83435e-16
4.97149e-16
4.84724e-16
4.99788e-16
4.89269e-16
4.99938e-16
4.85305e-16
4.99765e-16
4.8652e-16
5.00504e-16
4.87216e-16
4.99312e-16
4.85554e-16
4.99555e-16
4.86631e-16
4.99985e-16
4.87831e-16
5.00617e-16
4.87552e-16
4.98353e-16
4.84174e-16
4.98185e-16
4.86636e-16
4.99634e-16
4.87655e-16
4.99346e-16
4.8777e-16
5.015e-16
4.89826e-16
5.01551e-16
4.8813e-16
5.01789e-16
4.89674e-16
5.01405e-16
4.89762e-16
5.03242e-16
4.90947e-16
5.02537e-16
4.89082e-16
5.00161e-16
4.88525e-16
4.99604e-16
4.86033e-16
5.00086e-16
4.8617e-16
4.97669e-16
4.85048e-16
4.95969e-16
4.83143e-16
4.96015e-16
4.84245e-16
4.96157e-16
4.82913e-16
4.97022e-16
4.82502e-16
4.96102e-16
4.8271e-16
4.96917e-16
4.83703e-16
4.95306e-16
4.83795e-16
4.99833e-16
4.89387e-16
5.01609e-16
4.87307e-16
5.00272e-16
4.87791e-16
4.99791e-16
4.86997e-16
5.0006e-16
4.87469e-16
4.99398e-16
4.86702e-16
5.01307e-16
4.87721e-16
4.99394e-16
4.84593e-16
4.96661e-16
4.82504e-16
4.96228e-16
4.85932e-16
4.98285e-16
4.86727e-16
4.98853e-16
4.85099e-16
4.99057e-16
4.87901e-16
5.00004e-16
4.85468e-16
4.98268e-16
4.86983e-16
5.00857e-16
4.87893e-16
4.99481e-16
4.8494e-16
4.98184e-16
4.874e-16
4.97373e-16
4.86018e-16
4.98908e-16
4.85751e-16
4.9803e-16
4.85238e-16
4.96553e-16
4.84413e-16
4.97476e-16
4.87186e-16
4.99482e-16
4.86268e-16
4.98732e-16
4.87243e-16
5.0093e-16
4.88177e-16
5.00495e-16
4.87031e-16
4.99537e-16
4.87157e-16
5.00984e-16
4.86899e-16
5.00476e-16
4.85696e-16
4.97098e-16
4.83656e-16
4.96272e-16
4.83918e-16
4.97187e-16
4.84088e-16
4.99337e-16
4.85317e-16
5.00162e-16
4.86989e-16
4.99906e-16
4.87301e-16
4.9978e-16
4.85033e-16
5.0011e-16
4.87275e-16
5.02234e-16
4.90133e-16
5.02643e-16
4.86183e-16
4.99095e-16
4.87742e-16
4.99335e-16
4.87546e-16
4.98837e-16
4.86291e-16
4.98559e-16
4.86173e-16
4.99245e-16
4.87144e-16
4.97833e-16
4.87046e-16
4.98565e-16
4.84437e-16
4.97549e-16
4.86375e-16
4.98164e-16
4.85369e-16
4.98944e-16
4.86862e-16
4.99796e-16
4.88761e-16
4.99365e-16
4.88307e-16
4.99247e-16
4.87006e-16
5.0015e-16
4.87385e-16
4.99527e-16
4.8857e-16
5.00498e-16
4.86792e-16
4.98566e-16
4.85991e-16
4.96872e-16
4.83514e-16
4.96843e-16
4.84478e-16
4.97486e-16
4.84695e-16
4.96207e-16
4.82606e-16
4.95845e-16
4.84174e-16
4.95332e-16
4.84344e-16
4.94783e-16
4.81703e-16
4.95151e-16
4.82847e-16
4.97015e-16
4.85094e-16
4.96234e-16
4.8379e-16
4.98773e-16
4.88177e-16
4.99688e-16
4.86954e-16
4.99954e-16
4.87629e-16
4.98317e-16
4.8565e-16
4.99707e-16
4.88153e-16
5.00405e-16
4.87879e-16
5.00878e-16
4.89654e-16
5.00369e-16
4.86055e-16
4.98768e-16
4.83477e-16
4.97064e-16
4.84403e-16
4.97828e-16
4.86519e-16
4.98885e-16
4.85542e-16
4.99398e-16
4.88236e-16
5.00872e-16
4.87205e-16
5.00616e-16
4.86107e-16
5.01025e-16
4.89064e-16
5.0103e-16
4.86753e-16
4.99856e-16
4.87432e-16
4.99086e-16
4.85727e-16
4.98097e-16
4.84152e-16
4.96715e-16
4.85183e-16
4.98071e-16
4.83883e-16
4.96272e-16
4.84215e-16
4.98819e-16
4.87109e-16
4.98725e-16
4.87076e-16
4.99755e-16
4.87672e-16
5.01416e-16
4.87757e-16
4.98663e-16
4.86745e-16
4.99578e-16
4.88018e-16
5.01295e-16
4.87673e-16
4.98673e-16
4.86393e-16
4.98387e-16
4.85747e-16
4.98277e-16
4.86272e-16
4.99629e-16
4.87184e-16
5.01469e-16
4.88428e-16
4.99555e-16
4.88445e-16
4.99922e-16
4.87371e-16
5.01069e-16
4.89009e-16
5.03137e-16
4.91301e-16
5.02311e-16
4.84951e-16
4.97503e-16
4.86419e-16
4.97708e-16
4.85147e-16
4.97039e-16
4.8507e-16
4.98025e-16
4.84754e-16
4.98097e-16
4.84685e-16
4.96112e-16
4.84705e-16
4.97494e-16
4.85257e-16
4.98681e-16
4.86574e-16
4.97451e-16
4.83298e-16
4.98966e-16
4.86394e-16
5.01038e-16
4.88547e-16
5.00425e-16
4.88875e-16
5.00113e-16
4.86857e-16
5.00503e-16
4.87003e-16
4.99918e-16
4.87987e-16
4.99611e-16
4.87753e-16
4.99646e-16
4.85577e-16
4.99197e-16
4.84948e-16
4.97559e-16
4.84934e-16
4.97924e-16
4.85103e-16
4.97265e-16
4.83953e-16
4.96057e-16
4.83346e-16
4.95224e-16
4.84014e-16
4.95665e-16
4.81898e-16
4.94424e-16
4.81266e-16
4.93799e-16
4.83196e-16
4.95469e-16
4.83231e-16
4.96949e-16
4.84406e-16
4.96896e-16
4.85401e-16
4.98083e-16
4.86587e-16
4.98505e-16
4.85005e-16
4.98653e-16
4.87164e-16
5.00953e-16
4.87462e-16
5.00018e-16
4.89086e-16
4.99094e-16
4.85575e-16
4.98065e-16
4.843e-16
4.96545e-16
4.82758e-16
4.96163e-16
4.85054e-16
4.97292e-16
4.85295e-16
4.99584e-16
4.87327e-16
4.98981e-16
4.87383e-16
5.00135e-16
4.86573e-16
5.01301e-16
4.91628e-16
5.02115e-16
4.88365e-16
5.00789e-16
4.88265e-16
5.0132e-16
4.8746e-16
5.00356e-16
4.85359e-16
4.97453e-16
4.85731e-16
4.98083e-16
4.86179e-16
4.9966e-16
4.8568e-16
5.00151e-16
4.88893e-16
5.00438e-16
4.86546e-16
4.98262e-16
4.86532e-16
4.9987e-16
4.87927e-16
5.00024e-16
4.86751e-16
4.98008e-16
4.85769e-16
4.98015e-16
4.86202e-16
4.97213e-16
4.8604e-16
4.97176e-16
4.84692e-16
4.96601e-16
4.85826e-16
4.98564e-16
4.86626e-16
4.996e-16
4.86581e-16
4.98262e-16
4.86657e-16
4.97787e-16
4.863e-16
4.9867e-16
4.85916e-16
4.99395e-16
4.89141e-16
4.99597e-16
4.85114e-16
4.97546e-16
4.85538e-16
4.99108e-16
4.85307e-16
4.98108e-16
4.85855e-16
4.99561e-16
4.87112e-16
4.98157e-16
4.84725e-16
4.98406e-16
4.86434e-16
4.98144e-16
4.8643e-16
4.98932e-16
4.86731e-16
4.99127e-16
4.85231e-16
4.98247e-16
4.85942e-16
4.99941e-16
4.87122e-16
4.99365e-16
4.87604e-16
4.99462e-16
4.86311e-16
4.99438e-16
4.86294e-16
5.01155e-16
4.87964e-16
4.99118e-16
4.87692e-16
4.98647e-16
4.84136e-16
4.99279e-16
4.86489e-16
5.00241e-16
4.87256e-16
4.98958e-16
4.84688e-16
4.98096e-16
4.84229e-16
4.96401e-16
4.81947e-16
4.943e-16
4.82703e-16
4.94872e-16
4.82546e-16
4.96503e-16
4.81926e-16
4.94822e-16
4.82193e-16
4.95462e-16
4.84051e-16
4.99383e-16
4.85689e-16
4.99041e-16
4.86555e-16
4.98271e-16
4.86075e-16
4.99905e-16
4.85968e-16
4.99513e-16
4.86824e-16
5.0053e-16
4.88005e-16
5.00651e-16
4.87941e-16
4.99251e-16
4.87082e-16
4.98957e-16
4.86254e-16
4.99118e-16
4.85073e-16
4.97314e-16
4.86071e-16
4.9703e-16
4.86181e-16
4.99396e-16
4.88421e-16
4.97871e-16
4.8794e-16
4.98175e-16
4.85945e-16
5.02461e-16
4.87892e-16
5.00637e-16
4.89539e-16
4.98699e-16
4.8583e-16
4.98857e-16
4.86549e-16
5.003e-16
4.85664e-16
5.00658e-16
4.87412e-16
4.98976e-16
4.86017e-16
5.02401e-16
4.87519e-16
5.01208e-16
4.89992e-16
5.01088e-16
4.87208e-16
4.98289e-16
4.85085e-16
4.97986e-16
4.86248e-16
5.00072e-16
4.86803e-16
5.01063e-16
4.85743e-16
4.9884e-16
4.84731e-16
4.97882e-16
4.86126e-16
4.96691e-16
4.83201e-16
4.95893e-16
4.83799e-16
4.97483e-16
4.85796e-16
4.98835e-16
4.85248e-16
4.96886e-16
4.85316e-16
4.96951e-16
4.84863e-16
4.98679e-16
4.84146e-16
4.97376e-16
4.85485e-16
4.99054e-16
4.87647e-16
4.98372e-16
4.87093e-16
4.99728e-16
4.86478e-16
4.97925e-16
4.83875e-16
4.98004e-16
4.87025e-16
4.96388e-16
4.83044e-16
4.97078e-16
4.85997e-16
4.97268e-16
4.85554e-16
4.96535e-16
4.86568e-16
5.00395e-16
4.88215e-16
5.00824e-16
4.8587e-16
5.0018e-16
4.87931e-16
5.0081e-16
4.88765e-16
5.00544e-16
4.87988e-16
5.00874e-16