/*--------------------------------*- C++ -*----------------------------------*\
| =========                 |                                                 |
| \\      /  F ield         | OpenFOAM: The Open Source CFD Toolbox           |
|  \\    /   O peration     | Version:  2206                                  |
|   \\  /    A nd           | Website:  www.openfoam.com                      |
|    \\/     M anipulation  |                                                 |
\*---------------------------------------------------------------------------*/
FoamFile
{
    version     2.0;
    format      ascii;
    arch        "LSB;label=32;scalar=64";
    class       volVectorField;
    location    "0.9";
    object      wallShearStress;
}
// * * * * * * * * * * * * * * * * * * * * * * * * * * * * * * * * * * * * * //

dimensions      [0 2 -2 0 0 0 0];

internalField   uniform (0 0 0);

boundaryField
{
    wall
    {
        type            calculated;
        value           nonuniform List<vector> 
7990
(
(5.83432e-08 7.58193e-09 -0.000179469)
(1.74188e-08 -8.77473e-09 -0.000179461)
(-1.39127e-10 -9.27431e-09 -0.000179241)
(-1.11848e-07 -4.0861e-08 -0.00017959)
(-1.55863e-07 -5.56455e-08 -0.000179551)
(-7.03958e-08 -3.29151e-08 -0.000179584)
(-1.85987e-07 -6.45358e-08 -0.000179137)
(-2.79349e-07 -8.69496e-08 -0.000179286)
(-1.75875e-07 -5.80509e-08 -0.000179349)
(-3.75634e-07 -1.19725e-07 -0.000179296)
(-3.82495e-07 -1.21002e-07 -0.00017918)
(-2.17624e-07 -7.51457e-08 -0.000179757)
(-2.88523e-07 -9.48765e-08 -0.000179652)
(3.25372e-07 7.52109e-08 -0.00018012)
(1.095e-06 2.80729e-07 -0.000179738)
(4.90106e-07 1.05284e-07 -0.000179687)
(3.45372e-07 7.22461e-08 -0.000179927)
(4.54299e-07 1.07731e-07 -0.00017966)
(2.20987e-07 4.25156e-08 -0.000179576)
(6.91996e-08 3.57435e-09 -0.00017944)
(3.19888e-07 6.44805e-08 -0.000179553)
(3.03558e-07 6.44178e-08 -0.000179312)
(6.14024e-07 1.52183e-07 -0.000178727)
(5.57606e-07 1.36965e-07 -0.00017902)
(4.84101e-07 1.21244e-07 -0.000179138)
(1.70953e-07 3.36497e-08 -0.000179072)
(-2.1738e-08 -2.02783e-08 -0.000179127)
(2.93183e-07 6.34465e-08 -0.000179439)
(3.92254e-07 8.62879e-08 -0.000179188)
(1.45817e-07 1.90022e-08 -0.000179309)
(1.32285e-07 1.47776e-08 -0.000179771)
(5.00674e-08 -5.7781e-09 -0.000179609)
(1.63573e-07 2.75247e-08 -0.000179846)
(8.57022e-08 1.51436e-08 -0.000179705)
(1.94605e-07 3.83214e-08 -0.000180371)
(1.88198e-07 4.04586e-08 -0.000179728)
(3.8991e-07 9.39002e-08 -0.000179571)
(7.66645e-07 1.95855e-07 -0.000179424)
(2.78003e-07 5.9161e-08 -0.000179545)
(3.67214e-07 8.02338e-08 -0.000179874)
(9.08308e-08 1.3633e-08 -0.000179878)
(1.26221e-07 2.8359e-08 -0.000179809)
(1.58075e-07 3.34934e-08 -0.000180646)
(2.14103e-07 4.10129e-08 -0.000180306)
(2.31343e-08 -1.1065e-08 -0.000179952)
(-1.31566e-08 -2.01167e-08 -0.000180119)
(-3.08695e-07 -9.3312e-08 -0.000179619)
(4.11468e-08 9.63797e-09 -0.000180492)
(-2.19425e-07 -7.55078e-08 -0.000179327)
(-1.41362e-07 -5.50381e-08 -0.000180081)
(-1.37183e-07 -4.7054e-08 -0.000180024)
(-1.50472e-07 -4.73674e-08 -0.000179932)
(7.6107e-08 9.85916e-09 -0.000180333)
(-1.49249e-07 -5.05616e-08 -0.000179843)
(-1.17253e-07 -4.78247e-08 -0.000180165)
(-1.58501e-07 -5.81071e-08 -0.000179962)
(-3.5995e-07 -1.03211e-07 -0.000179929)
(1.68155e-07 3.82981e-08 -0.00018044)
(1.55576e-07 2.97712e-08 -0.000179241)
(2.52215e-07 5.18804e-08 -0.000179593)
(3.39883e-07 7.62378e-08 -0.000179047)
(2.13616e-07 3.53735e-08 -0.000178875)
(2.29777e-07 4.14371e-08 -0.000179445)
(1.94439e-07 4.1229e-08 -0.00017905)
(2.08738e-07 3.79748e-08 -0.000179363)
(9.93997e-08 1.1034e-08 -0.000179404)
(3.01597e-07 6.05502e-08 -0.000180378)
(7.91837e-08 3.90969e-09 -0.000181081)
(-2.29135e-08 8.18665e-09 -0.000181202)
(8.25114e-08 3.42883e-08 -0.000181421)
(9.0841e-08 4.1186e-08 -0.000181087)
(-2.14611e-07 -4.40458e-08 -0.000181226)
(-3.17021e-07 -7.07214e-08 -0.000181314)
(-2.73889e-07 -6.07742e-08 -0.00018114)
(4.23881e-08 2.31134e-08 -0.000180964)
(-2.61295e-07 -5.51597e-08 -0.000181162)
(-2.1894e-07 -4.72662e-08 -0.000181357)
(-3.76276e-07 -9.04156e-08 -0.000181328)
(-3.7591e-07 -8.82078e-08 -0.000181257)
(1.78293e-07 6.19513e-08 -0.000181687)
(1.77861e-07 5.63343e-08 -0.000181444)
(4.97297e-07 1.40124e-07 -0.000181641)
(6.63111e-07 1.77027e-07 -0.000182109)
(1.33494e-07 4.64367e-08 -0.00018158)
(-4.54441e-08 -1.72339e-09 -0.000181537)
(-2.81517e-07 -6.36558e-08 -0.00018128)
(-2.26468e-07 -4.80172e-08 -0.000181147)
(8.51191e-08 3.33725e-08 -0.00018134)
(8.02119e-08 3.09307e-08 -0.000181135)
(4.05395e-08 1.79199e-08 -0.000180678)
(5.57802e-07 1.60271e-07 -0.000180467)
(6.52217e-07 1.89491e-07 -0.000180616)
(9.27763e-07 2.6302e-07 -0.000180858)
(1.79378e-07 5.98429e-08 -0.000180822)
(-1.03784e-07 -1.42789e-08 -0.000180821)
(-5.39459e-07 -1.38013e-07 -0.000180951)
(-2.10595e-07 -5.18105e-08 -0.000181111)
(-1.10469e-07 -2.04506e-08 -0.000181303)
(-1.38269e-07 -2.95534e-08 -0.000181367)
(-1.23163e-08 8.79818e-09 -0.000181425)
(1.39606e-07 4.72415e-08 -0.000181226)
(2.77969e-07 9.50228e-08 -0.0001818)
(4.30151e-07 1.25849e-07 -0.000181412)
(4.23316e-07 1.24621e-07 -0.000180995)
(1.96376e-07 6.21979e-08 -0.000181053)
(2.83072e-07 8.7812e-08 -0.000181439)
(1.49184e-07 5.15738e-08 -0.000181438)
(1.93594e-07 6.0116e-08 -0.000181371)
(4.60851e-07 1.39684e-07 -0.00018159)
(5.0333e-07 1.55479e-07 -0.000182182)
(4.01825e-08 2.37781e-08 -0.000182188)
(2.37854e-07 7.33832e-08 -0.000181842)
(-7.58146e-08 -3.17779e-09 -0.00018199)
(-2.92745e-07 -6.14659e-08 -0.000181776)
(-1.98382e-07 -2.93931e-08 -0.00018192)
(2.42236e-09 9.16762e-09 -0.000181596)
(1.4872e-07 5.11935e-08 -0.000181615)
(-1.66643e-10 1.01498e-08 -0.000181892)
(1.43911e-07 5.71359e-08 -0.000181811)
(2.77008e-07 9.44305e-08 -0.000182103)
(2.32106e-07 7.20959e-08 -0.000181813)
(3.54225e-07 1.12388e-07 -0.000182094)
(9.51749e-08 3.57592e-08 -0.000182048)
(5.51108e-08 2.85051e-08 -0.000181543)
(3.12471e-07 1.03119e-07 -0.000181837)
(2.48255e-07 7.62302e-08 -0.000181501)
(-7.11559e-08 -1.67531e-09 -0.000181008)
(-4.69357e-08 -5.5951e-09 -0.000180877)
(9.05679e-09 1.41459e-08 -0.000180714)
(-1.00406e-08 9.36161e-09 -0.000180685)
(2.82517e-09 6.05211e-09 -0.000180764)
(2.23707e-07 7.18851e-08 -0.000180973)
(5.58147e-08 1.9363e-08 -0.000181068)
(-9.81772e-10 9.63705e-09 -0.00018166)
(-3.413e-08 -1.47577e-08 -0.000181776)
(-5.2614e-08 -1.95358e-08 -0.000179124)
(2.4719e-08 -1.20335e-08 -0.000179227)
(3.84737e-07 4.68793e-08 -0.000179193)
(-1.58418e-07 -3.64467e-08 -0.000179057)
(-2.53893e-07 -5.37616e-08 -0.000179556)
(-2.4072e-07 -4.69592e-08 -0.000179695)
(1.8477e-08 -9.93339e-09 -0.000179303)
(-3.34673e-07 -6.38051e-08 -0.000179103)
(-1.78404e-07 -3.95846e-08 -0.000179467)
(-1.18375e-07 -3.71248e-08 -0.000179452)
(-1.27203e-08 -1.60713e-08 -0.000179448)
(1.4008e-07 1.12181e-08 -0.000179856)
(-7.33617e-08 -2.74966e-08 -0.000179458)
(-6.41403e-08 -2.98899e-08 -0.000180349)
(2.63898e-07 2.71594e-08 -0.000180309)
(3.79703e-07 4.29241e-08 -0.000180246)
(-7.56651e-08 -3.1077e-08 -0.000180356)
(-2.53585e-08 -1.42923e-08 -0.000180307)
(-1.87417e-07 -4.09286e-08 -0.000179804)
(1.14972e-08 -8.74844e-09 -0.000179637)
(9.70591e-08 4.12558e-09 -0.000179501)
(1.68518e-08 -7.71201e-09 -0.00017913)
(5.28726e-07 6.95093e-08 -0.000178693)
(4.93718e-07 6.00315e-08 -0.000178308)
(6.63031e-07 7.51875e-08 -0.000178467)
(1.8637e-07 1.77472e-08 -0.000178403)
(-3.03171e-07 -6.11314e-08 -0.000178926)
(-5.72974e-07 -9.86932e-08 -0.000179555)
(-1.22585e-08 -6.30096e-09 -0.000179797)
(8.4509e-08 2.2496e-09 -0.000179376)
(-5.75609e-08 -2.19156e-08 -0.000179571)
(4.85261e-09 -1.76913e-08 -0.000179367)
(6.74309e-08 -8.36899e-09 -0.000179524)
(2.07203e-07 2.03423e-08 -0.00017935)
(1.60612e-07 7.46885e-09 -0.000179739)
(5.20732e-09 -1.42466e-08 -0.000179237)
(-2.22093e-07 -4.46009e-08 -0.000179199)
(5.211e-07 7.57279e-08 -0.000179752)
(5.25908e-07 7.06254e-08 -0.000179412)
(2.74453e-07 2.81324e-08 -0.000179419)
(5.34425e-07 6.77319e-08 -0.000179637)
(5.66448e-07 7.57183e-08 -0.000179413)
(2.57535e-07 2.85934e-08 -0.00018008)
(2.90463e-07 2.71393e-08 -0.000180099)
(1.5985e-07 1.0721e-08 -0.000179768)
(3.31499e-07 4.50473e-08 -0.000180329)
(1.77845e-07 1.76585e-08 -0.000179668)
(-1.67495e-07 -4.39214e-08 -0.00018023)
(1.5985e-07 1.5346e-08 -0.000179534)
(-1.28727e-07 -3.17332e-08 -0.00017983)
(1.17166e-07 6.27015e-09 -0.000180099)
(6.42902e-08 -3.19085e-10 -0.000179862)
(2.61422e-07 2.50117e-08 -0.000180404)
(3.9889e-07 5.32276e-08 -0.000180075)
(-3.36457e-08 -1.34438e-08 -0.000179953)
(1.94466e-08 -7.1109e-09 -0.00018001)
(-1.59975e-07 -3.45821e-08 -0.000179746)
(-3.41412e-07 -6.4211e-08 -0.000180055)
(-2.75308e-08 -1.20233e-08 -0.000179293)
(-1.69226e-07 -3.95702e-08 -0.000179269)
(-1.14446e-07 -3.48217e-08 -0.00017879)
(3.02664e-08 -1.21742e-08 -0.000178716)
(-6.26344e-08 -2.91878e-08 -0.000179159)
(1.64519e-07 7.08783e-09 -0.00017894)
(-7.19334e-08 -2.83368e-08 -0.000178853)
(-4.13958e-08 -1.61973e-08 -0.000179099)
(-2.82028e-09 -1.45082e-08 -0.000180055)
(-3.26603e-07 -3.85267e-08 -0.00018108)
(-3.34363e-07 -4.1176e-08 -0.000181105)
(-2.26584e-07 -2.69089e-08 -0.000180676)
(-1.26347e-07 -4.96289e-09 -0.000181102)
(-1.41469e-07 -8.45243e-09 -0.000181445)
(-2.29502e-07 -2.13243e-08 -0.000181529)
(-2.20019e-07 -2.26924e-08 -0.000180965)
(-1.67823e-07 -1.07256e-08 -0.000181263)
(-3.40216e-07 -4.27928e-08 -0.000181339)
(-4.28803e-07 -5.82526e-08 -0.000181338)
(-3.71651e-07 -4.97514e-08 -0.000181624)
(-1.12111e-07 -4.53294e-09 -0.000181765)
(-5.75679e-08 1.19584e-08 -0.000181746)
(4.19143e-08 1.88521e-08 -0.000181917)
(2.89596e-07 4.87599e-08 -0.000182471)
(-1.36697e-08 6.33575e-09 -0.000182103)
(3.90947e-08 1.57534e-08 -0.00018195)
(7.62318e-08 2.29846e-08 -0.00018191)
(-1.92964e-07 -1.41452e-08 -0.00018159)
(6.80279e-08 2.57883e-08 -0.000181235)
(2.43698e-07 5.42715e-08 -0.000181028)
(-6.02276e-08 2.80663e-10 -0.000180742)
(-2.2472e-08 -3.51039e-10 -0.000180343)
(-1.44058e-08 6.3583e-09 -0.000180454)
(-6.2772e-08 -7.92977e-09 -0.000179928)
(2.85932e-07 5.81986e-08 -0.000180663)
(3.76157e-07 7.77002e-08 -0.000180899)
(-2.08325e-07 -1.58147e-08 -0.000181401)
(-1.92631e-07 -1.64952e-08 -0.000181429)
(-1.99785e-07 -1.85198e-08 -0.000181213)
(-1.55589e-07 -1.32864e-08 -0.000181426)
(-4.15948e-07 -5.34306e-08 -0.000181354)
(-2.88256e-07 -3.99192e-08 -0.000181198)
(-6.88504e-08 1.59968e-09 -0.000181618)
(2.92644e-08 1.63001e-08 -0.000181181)
(3.82069e-07 7.5724e-08 -0.000180853)
(5.12264e-07 9.91844e-08 -0.000181009)
(4.78808e-07 8.34911e-08 -0.00018137)
(2.52929e-07 4.92345e-08 -0.000181283)
(1.08974e-07 2.88911e-08 -0.000181341)
(9.6317e-08 2.46582e-08 -0.000181167)
(5.02732e-07 9.28094e-08 -0.000181442)
(-3.63829e-09 1.20706e-08 -0.000181889)
(2.73497e-08 1.2929e-08 -0.000181362)
(2.29355e-07 5.0795e-08 -0.000181382)
(2.85567e-07 5.46568e-08 -0.00018161)
(1.66247e-07 4.48431e-08 -0.000181854)
(-5.88135e-08 -2.38832e-09 -0.000181477)
(2.39598e-07 5.36103e-08 -0.000181322)
(2.11119e-07 4.7465e-08 -0.000181792)
(-1.61724e-08 1.16191e-08 -0.000181763)
(3.41031e-07 7.09565e-08 -0.000181906)
(1.58125e-08 8.55223e-09 -0.000181688)
(4.31432e-07 7.66735e-08 -0.000181814)
(3.6626e-07 7.60059e-08 -0.000182013)
(-1.31105e-07 -3.21296e-09 -0.000181722)
(2.40066e-08 2.47455e-08 -0.000181694)
(1.5493e-07 3.69463e-08 -0.00018121)
(1.25872e-07 3.5858e-08 -0.000180996)
(-2.58895e-07 -3.2359e-08 -0.000180831)
(-3.69802e-07 -4.65884e-08 -0.000180731)
(-2.54656e-07 -2.83262e-08 -0.000180726)
(-1.48849e-07 -1.74495e-08 -0.000180919)
(-1.63462e-07 -1.58968e-08 -0.0001808)
(-2.99477e-07 -3.54998e-08 -0.000180858)
(-2.40241e-07 -2.23412e-08 -0.000181423)
(-3.21534e-07 -4.61575e-08 -0.000181483)
(-2.37492e-07 -2.45335e-08 -0.00017937)
(-2.93095e-07 -2.86548e-08 -0.000179709)
(-7.47045e-08 -1.97067e-08 -0.000179874)
(-8.632e-08 -1.33432e-08 -0.000179569)
(-2.33981e-07 -2.2359e-08 -0.000179796)
(-3.08819e-07 -2.84704e-08 -0.000180034)
(8.21858e-08 -1.64125e-08 -0.000179939)
(-1.4674e-07 -2.20721e-08 -0.00017925)
(-2.49885e-07 -2.67069e-08 -0.000179688)
(-1.78129e-07 -2.74972e-08 -0.000179796)
(-6.15021e-08 -1.2825e-08 -0.000179827)
(1.77653e-07 1.37572e-10 -0.000180181)
(4.70136e-07 2.1314e-08 -0.000179865)
(2.07613e-08 -9.44419e-09 -0.000180227)
(-2.13293e-07 -2.18854e-08 -0.00018037)
(1.64519e-07 5.7655e-10 -0.000180617)
(-4.55308e-08 -1.49539e-08 -0.000180283)
(-9.47697e-08 -1.82181e-08 -0.000180273)
(-3.49909e-07 -2.94643e-08 -0.000179723)
(-4.60763e-08 -1.56479e-08 -0.000179795)
(5.50543e-08 -1.27323e-08 -0.000179448)
(-2.88238e-07 -3.16855e-08 -0.000179017)
(6.91203e-09 -1.37878e-08 -0.000179246)
(1.28544e-07 -4.41061e-09 -0.0001789)
(1.36503e-08 -1.67129e-08 -0.000178803)
(3.0931e-07 3.17604e-09 -0.000178819)
(4.81458e-07 9.6484e-09 -0.000178993)
(-5.24908e-07 -3.98929e-08 -0.000179039)
(-4.10019e-07 -3.38331e-08 -0.000180246)
(-2.52908e-07 -2.26078e-08 -0.000179821)
(-2.53862e-07 -2.43297e-08 -0.000179954)
(-2.28429e-07 -2.30989e-08 -0.000179788)
(-1.59283e-07 -1.91057e-08 -0.000179883)
(-3.42644e-08 -1.24176e-08 -0.000179655)
(1.60325e-07 -6.98631e-09 -0.000179864)
(3.66462e-07 5.63306e-09 -0.000179283)
(8.57713e-09 -1.48786e-08 -0.000178801)
(-4.52771e-08 -1.36326e-08 -0.000179525)
(3.52325e-07 9.16908e-09 -0.000179645)
(1.12549e-07 -6.05295e-09 -0.000179309)
(2.62179e-07 1.98848e-09 -0.000179831)
(4.65493e-07 6.46772e-09 -0.000179362)
(9.27673e-08 -1.05819e-08 -0.000179677)
(1.74058e-07 -6.10736e-09 -0.000179921)
(1.08242e-07 -1.04269e-08 -0.000179314)
(2.04483e-07 -6.90285e-09 -0.000179825)
(6.24044e-07 2.34576e-08 -0.000179639)
(2.10277e-08 -1.99151e-08 -0.000179512)
(3.5009e-07 6.0634e-09 -0.000179335)
(1.33525e-07 -5.10039e-09 -0.000179187)
(1.58515e-07 -3.37307e-09 -0.000179723)
(4.00251e-07 1.03477e-08 -0.000179617)
(-2.78753e-08 -1.39459e-08 -0.000179767)
(2.71472e-07 -7.02239e-09 -0.000179942)
(2.96892e-07 7.53772e-10 -0.000179736)
(3.79717e-08 -9.07788e-09 -0.00017977)
(1.44572e-07 1.74784e-09 -0.000179829)
(-2.27409e-07 -2.81508e-08 -0.000179694)
(-1.19985e-07 -1.89223e-08 -0.00017931)
(-3.57489e-07 -3.32357e-08 -0.000179301)
(-4.24867e-07 -3.5112e-08 -0.000179217)
(-3.52183e-07 -3.06477e-08 -0.000179402)
(-3.57868e-07 -2.96743e-08 -0.000179779)
(-1.08673e-07 -1.79616e-08 -0.000179701)
(-3.3952e-07 -3.38283e-08 -0.000179223)
(-2.52911e-07 -2.98987e-08 -0.000179678)
(-5.29683e-07 -4.41748e-08 -0.0001803)
(-1.06285e-07 7.52575e-09 -0.000181582)
(-1.64894e-07 6.91718e-09 -0.000181777)
(-7.63832e-08 6.07292e-09 -0.000181547)
(1.76109e-07 2.52587e-08 -0.000181651)
(1.37582e-07 2.42031e-08 -0.00018174)
(1.20913e-07 1.92152e-08 -0.000181819)
(-1.98983e-07 -5.45126e-09 -0.000181326)
(-4.37457e-08 9.25127e-09 -0.000181274)
(-2.18752e-08 1.2179e-08 -0.000181561)
(-2.25743e-07 4.46741e-10 -0.000181362)
(1.18225e-07 1.77492e-08 -0.000181758)
(1.56769e-07 1.94846e-08 -0.000181751)
(2.89238e-07 3.1472e-08 -0.000181853)
(8.52149e-08 2.29667e-08 -0.0001819)
(4.17041e-07 3.75572e-08 -0.000182319)
(2.44001e-07 2.46108e-08 -0.000182236)
(9.03544e-08 2.1204e-08 -0.000181817)
(1.77554e-07 2.02147e-08 -0.000181717)
(1.1575e-07 2.3762e-08 -0.000181776)
(-1.04049e-07 2.58614e-09 -0.0001813)
(8.51398e-08 1.43117e-08 -0.000180896)
(1.0166e-07 1.85161e-08 -0.000180822)
(1.74631e-07 1.71761e-08 -0.000180816)
(2.47078e-07 2.53623e-08 -0.000180998)
(-5.1978e-09 8.17733e-09 -0.000180733)
(5.14806e-08 1.13839e-08 -0.000180922)
(8.51522e-08 1.37828e-08 -0.000180616)
(1.20017e-07 2.62886e-08 -0.000181554)
(1.26472e-07 1.75082e-08 -0.000181924)
(1.00558e-08 1.59241e-08 -0.000181696)
(7.0884e-08 1.87568e-08 -0.00018162)
(-1.57419e-07 6.78847e-09 -0.000181647)
(-2.34895e-07 -9.23552e-10 -0.000181494)
(-3.56511e-09 1.28652e-08 -0.000181853)
(-2.32763e-07 4.84691e-10 -0.000181465)
(-1.70481e-08 1.04875e-08 -0.000180945)
(3.34858e-07 3.56707e-08 -0.00018083)
(3.58902e-07 2.99731e-08 -0.000181232)
(3.09793e-07 2.58503e-08 -0.000181357)
(4.60447e-08 1.61808e-08 -0.000181366)
(6.32494e-09 1.43786e-08 -0.000181548)
(3.31219e-08 1.24254e-08 -0.000181186)
(-2.36585e-08 7.51997e-09 -0.000181715)
(-1.59995e-07 -2.105e-09 -0.000181503)
(-7.24142e-08 1.3327e-08 -0.000181269)
(-8.56217e-08 1.00582e-08 -0.000181133)
(3.75123e-07 3.06073e-08 -0.000181467)
(-1.24018e-07 3.56594e-09 -0.000181147)
(-1.87642e-07 -1.01096e-09 -0.000180883)
(6.01783e-08 1.61991e-08 -0.000181044)
(-4.49121e-08 1.04237e-08 -0.000181436)
(1.38884e-07 1.66495e-08 -0.000181321)
(-1.13576e-08 1.27469e-08 -0.000181747)
(-5.92193e-08 -4.64614e-10 -0.000181654)
(2.61422e-07 1.93934e-08 -0.000181509)
(5.00843e-08 1.58529e-08 -0.000181823)
(-2.39296e-07 4.96711e-09 -0.000181858)
(-4.13598e-07 -8.12119e-09 -0.000181204)
(-1.46108e-07 5.34876e-09 -0.00018105)
(-1.64294e-07 3.93121e-09 -0.000181177)
(-1.59495e-07 8.59787e-09 -0.000181513)
(-9.11279e-08 1.51792e-08 -0.000181644)
(-3.33681e-08 8.56647e-09 -0.000181554)
(-1.14867e-07 3.67283e-09 -0.000181465)
(-3.78952e-07 -8.09493e-09 -0.000181519)
(-3.33027e-07 -2.82146e-09 -0.000181956)
(-2.85236e-07 -4.03604e-09 -0.000182078)
(-1.0616e-07 -5.5021e-09 -0.000179532)
(1.05604e-07 -1.47363e-08 -0.000179944)
(5.55743e-08 -1.61921e-08 -0.000179935)
(3.21208e-07 -2.80764e-08 -0.000179721)
(2.31705e-07 -1.77885e-08 -0.000179696)
(1.08899e-07 -1.62333e-08 -0.000179872)
(-1.14382e-07 -4.92859e-09 -0.000179784)
(9.71552e-08 -1.78657e-08 -0.000179312)
(1.64139e-07 -2.1751e-08 -0.000179667)
(-1.90632e-07 -8.58347e-09 -0.000179362)
(-1.11507e-08 -1.43508e-08 -0.000179632)
(1.879e-07 -2.6153e-08 -0.000179952)
(7.13942e-07 -4.9244e-08 -0.000179848)
(4.34349e-07 -2.9511e-08 -0.000179656)
(2.81454e-07 -2.7495e-08 -0.000179865)
(2.29683e-07 -1.95937e-08 -0.000180134)
(2.13262e-07 -1.94766e-08 -0.000179776)
(1.32537e-07 -2.19247e-08 -0.000179724)
(-3.20525e-08 -1.21161e-08 -0.000179182)
(-1.72179e-07 -5.13731e-09 -0.000179416)
(1.10182e-08 -1.19167e-08 -0.000179391)
(-1.01822e-07 -7.19587e-09 -0.000178869)
(-1.80779e-08 -1.47107e-08 -0.000179224)
(4.56437e-07 -3.60373e-08 -0.000179199)
(1.56379e-07 -1.87099e-08 -0.000178666)
(4.24809e-08 -1.53068e-08 -0.000178888)
(4.63746e-07 -3.86573e-08 -0.000179249)
(2.97119e-07 -2.10577e-08 -0.000178964)
(-6.97374e-08 -5.85081e-09 -0.000179953)
(-7.22953e-08 -3.36658e-09 -0.000179743)
(4.33678e-08 -1.44042e-08 -0.000179923)
(-2.73327e-07 3.62507e-09 -0.00017953)
(-2.21808e-07 -4.42519e-09 -0.000180024)
(-1.18493e-07 -7.63634e-09 -0.000179922)
(5.51955e-08 -1.67415e-08 -0.000180227)
(1.86618e-07 -2.19715e-08 -0.000179571)
(3.68767e-07 -3.19747e-08 -0.000179017)
(-1.80707e-07 -2.48733e-09 -0.000179182)
(-3.41188e-08 -1.14933e-08 -0.000179633)
(7.43072e-08 -1.78006e-08 -0.000179436)
(-8.31516e-08 -6.99696e-09 -0.000179959)
(1.27465e-07 -1.96602e-08 -0.00017974)
(-2.5372e-07 -4.44225e-11 -0.000179529)
(-7.81234e-08 -9.34812e-09 -0.000180179)
(2.2049e-07 -2.28236e-08 -0.000179774)
(7.84949e-08 -1.71926e-08 -0.000179838)
(2.24339e-07 -2.54901e-08 -0.000179588)
(-8.52998e-08 -1.17912e-08 -0.000179231)
(-1.32926e-07 -5.66709e-09 -0.000179351)
(1.88649e-07 -2.00709e-08 -0.000179146)
(-2.56335e-07 2.94065e-09 -0.000179165)
(2.70984e-07 -3.14614e-08 -0.00017979)
(1.78584e-07 -1.7065e-08 -0.000179739)
(1.78688e-08 -1.6169e-08 -0.000179762)
(3.31066e-07 -3.33379e-08 -0.000179843)
(1.00589e-07 -1.60024e-08 -0.000179648)
(-2.45561e-08 -4.33372e-09 -0.000180027)
(-9.99967e-08 -4.60983e-09 -0.000180071)
(-8.02901e-08 -6.98518e-09 -0.00017983)
(-1.32546e-07 -5.63858e-09 -0.000179674)
(1.45368e-08 -1.35617e-08 -0.000179674)
(1.60294e-08 -1.17952e-08 -0.000179783)
(-1.12192e-07 -9.00999e-09 -0.000180067)
(-2.10235e-07 -5.2168e-09 -0.000179966)
(-2.41385e-07 -7.66341e-10 -0.000179728)
(-3.21771e-07 6.56225e-09 -0.000180107)
(-2.1973e-07 1.66488e-09 -0.000180584)
(1.04583e-07 1.07951e-08 -0.000181424)
(1.62627e-08 1.36757e-08 -0.000181563)
(6.82291e-08 9.43711e-09 -0.000181443)
(2.34532e-07 -8.28706e-10 -0.000181401)
(4.67377e-07 -9.69505e-09 -0.000181563)
(2.04121e-07 1.47895e-09 -0.000181257)
(1.98945e-08 1.36193e-08 -0.000181318)
(-1.65449e-07 2.0072e-08 -0.000181138)
(1.02622e-07 2.54849e-09 -0.000181283)
(2.6486e-08 1.17087e-08 -0.000181326)
(-3.41381e-09 1.36904e-08 -0.00018144)
(7.88181e-09 7.01209e-09 -0.000181304)
(2.09719e-07 -2.73598e-09 -0.000181306)
(1.23062e-07 8.59013e-09 -0.00018162)
(6.65308e-08 1.07176e-08 -0.000181556)
(2.70625e-07 -1.1686e-10 -0.00018175)
(-1.46746e-07 2.60557e-08 -0.000181444)
(-3.92648e-07 2.81826e-08 -0.000181144)
(-9.78794e-08 1.94408e-08 -0.000181142)
(-7.99671e-08 1.69164e-08 -0.000181207)
(-6.73983e-08 1.43469e-08 -0.000180928)
(1.106e-07 1.35259e-08 -0.000180815)
(-1.81619e-08 1.01056e-08 -0.000180655)
(5.08073e-08 4.97621e-09 -0.000180563)
(1.94439e-07 4.06855e-09 -0.000180614)
(2.87801e-07 -4.05995e-09 -0.000180908)
(2.63395e-08 4.60316e-09 -0.000180709)
(2.36903e-07 7.25184e-09 -0.0001813)
(2.1477e-07 3.17207e-09 -0.000181507)
(9.15802e-08 1.30606e-08 -0.000181615)
(-1.17833e-07 1.79173e-08 -0.00018132)
(5.71153e-08 1.21762e-08 -0.000181588)
(-9.69329e-08 1.48577e-08 -0.000181697)
(1.59119e-07 2.50797e-09 -0.000181773)
(-7.51185e-09 1.32245e-08 -0.000181646)
(-7.72458e-08 1.44131e-08 -0.000181342)
(9.9218e-08 8.2522e-09 -0.000180984)
(1.82158e-07 8.91837e-09 -0.000181142)
(1.16706e-07 5.74062e-09 -0.000181347)
(-3.0832e-08 1.49044e-08 -0.000181466)
(1.47404e-07 5.14426e-09 -0.00018176)
(-6.52014e-09 1.83165e-08 -0.000181714)
(-3.5185e-07 3.95047e-08 -0.000181828)
(-3.61727e-07 3.3904e-08 -0.000181865)
(-5.1949e-08 1.19455e-08 -0.000181624)
(-2.57865e-07 2.59543e-08 -0.00018147)
(-3.67635e-08 1.10395e-08 -0.000181338)
(-1.04747e-07 1.35761e-08 -0.000180985)
(-2.97837e-08 1.3753e-08 -0.000181205)
(-3.84816e-07 3.19796e-08 -0.000180889)
(-1.15821e-07 2.19292e-08 -0.000181366)
(1.47085e-07 -1.54916e-09 -0.000181315)
(3.49849e-07 -7.34873e-09 -0.000181523)
(-1.22172e-07 1.87697e-08 -0.000181777)
(-2.30013e-07 1.62357e-08 -0.000181294)
(2.3065e-07 1.00079e-09 -0.000181555)
(2.82098e-07 3.37164e-09 -0.000181978)
(-1.43357e-07 2.2958e-08 -0.000181483)
(1.08898e-07 7.5505e-09 -0.000181437)
(1.08844e-07 5.53298e-09 -0.000181378)
(1.06083e-08 1.05009e-08 -0.00018159)
(1.47644e-07 1.02488e-08 -0.000181885)
(-1.07062e-08 9.91471e-09 -0.000181481)
(4.40161e-08 5.46301e-09 -0.000181499)
(8.49439e-08 9.61357e-09 -0.000181765)
(1.83091e-07 8.38109e-09 -0.000182167)
(-1.56384e-07 2.49631e-08 -0.000182041)
(-4.86037e-08 -6.31285e-09 -0.000179337)
(1.39153e-07 -2.94409e-08 -0.000179667)
(1.12337e-09 -1.22283e-08 -0.000179433)
(3.01313e-07 -6.2621e-08 -0.000179446)
(4.15909e-07 -7.96956e-08 -0.000179367)
(2.48357e-07 -5.76241e-08 -0.000179325)
(-1.83031e-07 1.08275e-08 -0.00017929)
(4.04168e-08 -2.24335e-08 -0.000179446)
(3.2987e-07 -6.34189e-08 -0.000179687)
(-1.7936e-08 -1.12424e-08 -0.000178978)
(-1.19096e-07 1.05643e-09 -0.000179516)
(-2.38044e-07 2.07636e-08 -0.000179919)
(1.22939e-08 -1.50802e-08 -0.000179983)
(1.15791e-07 -2.61837e-08 -0.000179642)
(1.47679e-07 -3.39944e-08 -0.000179762)
(6.78383e-08 -2.52576e-08 -0.000180019)
(6.37876e-08 -1.97761e-08 -0.000179907)
(-3.89004e-07 5.16514e-08 -0.000179598)
(-1.14521e-07 5.12102e-09 -0.000179474)
(-9.49579e-08 3.95647e-10 -0.000179483)
(-6.55962e-08 -4.80824e-09 -0.000179498)
(1.85322e-07 -4.32371e-08 -0.000179169)
(-2.03735e-07 1.53906e-08 -0.000179063)
(-1.28507e-07 4.83055e-09 -0.000179184)
(2.5816e-07 -5.51768e-08 -0.000178711)
(2.57383e-07 -5.36675e-08 -0.000178572)
(1.22804e-07 -3.27914e-08 -0.000178862)
(5.45005e-07 -9.63939e-08 -0.000178852)
(1.52555e-07 -3.62171e-08 -0.000179164)
(1.3194e-07 -3.04103e-08 -0.000179408)
(6.69817e-08 -2.26438e-08 -0.000179678)
(7.22989e-09 -7.60614e-09 -0.000179387)
(-1.92916e-07 2.4354e-08 -0.00017978)
(-9.29734e-08 9.99912e-10 -0.000179826)
(-8.95889e-08 -6.31212e-10 -0.000180111)
(-1.27636e-08 -8.03892e-09 -0.000179495)
(4.45511e-07 -8.68744e-08 -0.000179197)
(1.84579e-07 -4.74333e-08 -0.000178865)
(4.66772e-08 -2.51047e-08 -0.000179328)
(2.05831e-07 -4.44711e-08 -0.000179395)
(1.84421e-07 -4.34581e-08 -0.000179803)
(2.95261e-07 -5.72768e-08 -0.000179807)
(6.57456e-08 -1.50103e-08 -0.000179656)
(7.70074e-08 -1.21694e-08 -0.000180759)
(6.63371e-08 -1.86942e-08 -0.00018014)
(-3.27749e-07 4.04671e-08 -0.000180092)
(-2.72967e-07 3.36822e-08 -0.000179971)
(-1.29049e-07 9.01432e-09 -0.000179507)
(-3.29884e-07 3.90486e-08 -0.000179491)
(-1.71321e-07 1.66513e-08 -0.000179614)
(-2.65783e-07 3.63654e-08 -0.000179499)
(1.11948e-07 -3.35093e-08 -0.000180154)
(5.08739e-08 -2.3712e-08 -0.000179677)
(-9.68532e-08 -4.02338e-10 -0.000179584)
(6.59576e-09 -2.06775e-08 -0.000179909)
(3.27255e-07 -6.82729e-08 -0.000179692)
(1.46819e-07 -3.55343e-08 -0.000179568)
(9.28719e-08 -2.35688e-08 -0.000179754)
(2.06428e-07 -4.12807e-08 -0.000179705)
(1.32027e-07 -3.42931e-08 -0.000179414)
(1.56614e-07 -3.29797e-08 -0.000179515)
(2.71608e-07 -6.1677e-08 -0.000179612)
(-1.70082e-08 -1.75778e-08 -0.000179636)
(4.18015e-09 -2.06289e-08 -0.000179628)
(2.01746e-07 -4.9463e-08 -0.000179494)
(-5.67167e-09 -1.59787e-08 -0.000179519)
(2.24801e-09 -1.4552e-08 -0.000180157)
(4.11874e-08 5.58872e-09 -0.000181095)
(-2.464e-08 1.4868e-08 -0.000181228)
(3.88482e-08 7.2293e-09 -0.000181114)
(2.82711e-08 5.73053e-09 -0.000181262)
(3.57687e-07 -4.79083e-08 -0.000181269)
(-9.53031e-08 1.98988e-08 -0.000180889)
(-7.62211e-09 1.19652e-08 -0.000181117)
(-7.87041e-08 2.44299e-08 -0.000181316)
(-2.0032e-07 3.75139e-08 -0.00018113)
(1.75534e-07 -1.41208e-08 -0.000181349)
(7.80554e-08 4.71237e-09 -0.000181677)
(1.61458e-08 1.08565e-08 -0.000181551)
(2.0967e-07 -1.94021e-08 -0.000181503)
(2.47551e-07 -2.38397e-08 -0.000181675)
(1.46705e-08 1.08722e-08 -0.000181655)
(3.40712e-07 -4.52962e-08 -0.000181571)
(2.67259e-07 -2.65907e-08 -0.000181613)
(-3.31265e-07 6.45287e-08 -0.000181563)
(-4.01452e-07 7.50828e-08 -0.000181293)
(-6.88518e-08 2.70848e-08 -0.000181336)
(-8.22052e-08 2.4063e-08 -0.000181153)
(1.48152e-07 -9.46036e-09 -0.000180881)
(1.11425e-07 -3.66775e-09 -0.000180677)
(6.51302e-08 -1.34315e-09 -0.000180748)
(-6.92409e-08 2.29683e-08 -0.000180482)
(7.73114e-08 -2.67801e-11 -0.000180317)
(8.20082e-08 -3.40734e-09 -0.000180556)
(-9.22367e-08 2.60942e-08 -0.000180916)
(-7.05623e-08 2.43646e-08 -0.000180941)
(1.39747e-07 -6.55327e-09 -0.000181218)
(-4.5068e-08 2.24143e-08 -0.000181311)
(1.34664e-07 -4.59133e-09 -0.00018136)
(1.1863e-07 -1.09411e-09 -0.000181782)
(-5.09214e-08 2.24195e-08 -0.000181606)
(-7.14333e-08 2.26662e-08 -0.000181409)
(-2.28731e-07 4.82897e-08 -0.000181236)
(-3.17491e-07 5.6676e-08 -0.000180909)
(-9.11079e-08 2.64072e-08 -0.000180815)
(-1.5552e-07 3.73943e-08 -0.00018102)
(-1.8899e-07 4.36015e-08 -0.000181478)
(-1.50952e-07 3.48503e-08 -0.000181382)
(1.03723e-08 1.27633e-08 -0.000181588)
(-3.13209e-08 3.05015e-08 -0.000181888)
(2.72999e-07 -3.00937e-08 -0.000182097)
(2.6529e-07 -2.46493e-08 -0.000181906)
(1.85722e-07 -1.31714e-08 -0.00018194)
(1.82743e-08 1.01783e-08 -0.000181761)
(-1.95991e-07 4.09447e-08 -0.000181191)
(2.26619e-07 -1.94476e-08 -0.000181229)
(-6.27162e-08 2.3458e-08 -0.00018156)
(2.00701e-08 1.67734e-08 -0.00018171)
(-7.13839e-08 2.32653e-08 -0.000181698)
(2.1192e-07 -2.52334e-08 -0.000181275)
(-1.94634e-08 1.58501e-08 -0.00018155)
(-3.50783e-07 6.04301e-08 -0.000181571)
(-2.14584e-07 3.96918e-08 -0.000181276)
(2.62942e-07 -2.66173e-08 -0.000181341)
(9.26041e-08 -2.72917e-10 -0.000181172)
(2.21491e-07 -2.32148e-08 -0.00018114)
(2.61329e-07 -3.38817e-08 -0.000180954)
(2.62763e-07 -3.08518e-08 -0.000181333)
(4.17209e-09 8.47772e-09 -0.000181475)
(-9.06325e-08 2.26744e-08 -0.000181196)
(-2.56272e-07 4.51725e-08 -0.000181067)
(-4.0634e-08 1.61914e-08 -0.000181293)
(3.0506e-07 -3.44177e-08 -0.000181441)
(6.13056e-09 1.23343e-08 -0.000181492)
(-1.06163e-07 1.17523e-08 -0.000179415)
(-1.69412e-07 3.66e-08 -0.00017952)
(-1.90587e-07 3.92084e-08 -0.0001795)
(-6.65616e-08 6.75543e-09 -0.000179644)
(3.70261e-07 -1.14594e-07 -0.000179812)
(-5.35868e-08 2.4075e-10 -0.000179243)
(-4.59846e-08 -2.00952e-09 -0.000179613)
(-1.82403e-07 3.07624e-08 -0.00017966)
(-1.39667e-07 2.30952e-08 -0.000179707)
(3.91174e-07 -1.16977e-07 -0.000179427)
(3.26117e-07 -1.00344e-07 -0.000179471)
(1.10328e-07 -4.18409e-08 -0.000179694)
(-1.539e-09 -1.00928e-08 -0.000179762)
(1.01266e-07 -3.23943e-08 -0.000179551)
(1.03001e-07 -2.87972e-08 -0.000179599)
(2.965e-07 -9.25789e-08 -0.000179991)
(2.59109e-07 -8.45495e-08 -0.000179831)
(-4.65588e-07 1.16446e-07 -0.00017924)
(-4.30956e-07 1.02627e-07 -0.000179778)
(1.20315e-07 -4.88058e-08 -0.000180006)
(-4.76221e-08 -1.00795e-08 -0.000179462)
(3.23019e-07 -1.0599e-07 -0.000179278)
(8.18386e-08 -3.64543e-08 -0.000178795)
(-1.87183e-07 3.89343e-08 -0.000178978)
(-6.85703e-08 7.02482e-09 -0.000178884)
(1.94903e-07 -6.87227e-08 -0.000178728)
(-1.53209e-07 2.48205e-08 -0.000178683)
(-8.40051e-08 1.34733e-08 -0.000179009)
(7.05504e-08 -2.81427e-08 -0.000179441)
(2.6957e-07 -8.061e-08 -0.000179609)
(7.46962e-10 -1.02955e-08 -0.000179564)
(1.33383e-07 -5.22436e-08 -0.000179553)
(-5.39777e-08 -1.04544e-09 -0.000179714)
(1.9025e-08 -1.98639e-08 -0.000179933)
(-3.60878e-07 7.88904e-08 -0.000179901)
(-3.22828e-07 7.11589e-08 -0.000179795)
(-2.30793e-07 4.86736e-08 -0.000179598)
(1.60683e-08 -1.49858e-08 -0.000179382)
(-3.80994e-08 1.14715e-09 -0.000179565)
(-1.6072e-08 -3.76777e-09 -0.000179611)
(2.22298e-07 -7.07753e-08 -0.000180065)
(5.1512e-07 -1.40943e-07 -0.000179972)
(5.04705e-07 -1.31698e-07 -0.000179511)
(-2.14733e-07 4.13134e-08 -0.000179945)
(5.07907e-07 -1.45022e-07 -0.000180328)
(1.74803e-07 -6.08931e-08 -0.000179505)
(-1.65253e-07 2.5402e-08 -0.000179663)
(-2.59792e-07 5.3107e-08 -0.000179463)
(1.07077e-08 -2.15348e-08 -0.000179793)
(-3.68228e-07 8.81473e-08 -0.000179514)
(-1.57153e-07 3.13534e-08 -0.00017988)
(-5.32257e-09 -1.3666e-08 -0.000180399)
(1.88065e-07 -6.49067e-08 -0.000179882)
(2.71825e-09 -1.55558e-08 -0.000179347)
(-3.46579e-07 8.4026e-08 -0.000179667)
(-1.93898e-07 3.82629e-08 -0.000179824)
(9.01147e-08 -3.79565e-08 -0.000179608)
(-1.31124e-07 2.40344e-08 -0.000179424)
(2.1965e-07 -6.79954e-08 -0.000179666)
(1.68225e-07 -6.47749e-08 -0.000179032)