/*--------------------------------*- C++ -*----------------------------------*\
| =========                 |                                                 |
| \\      /  F ield         | OpenFOAM: The Open Source CFD Toolbox           |
|  \\    /   O peration     | Version:  2206                                  |
|   \\  /    A nd           | Website:  www.openfoam.com                      |
|    \\/     M anipulation  |                                                 |
\*---------------------------------------------------------------------------*/
FoamFile
{
    version     2.0;
    format      ascii;
    arch        "LSB;label=32;scalar=64";
    class       volScalarField;
    location    "400";
    object      div(phi);
}
// * * * * * * * * * * * * * * * * * * * * * * * * * * * * * * * * * * * * * //

dimensions      [0 0 -1 0 0 0 0];

internalField   nonuniform List<scalar> 
10720
(
1.46681e-06
-1.31922e-06
6.74861e-07
-8.01903e-07
3.11598e-07
1.38565e-08
4.0771e-07
3.77007e-07
2.31916e-07
2.56396e-09
-7.50552e-08
-2.78889e-07
-2.98331e-07
-3.41793e-07
-2.20101e-07
-2.1136e-07
-9.57697e-08
-1.51652e-07
2.36865e-08
-9.68951e-08
3.27608e-07
2.06513e-07
3.30324e-09
2.14239e-07
1.06573e-05
6.09801e-06
-1.94717e-05
6.65702e-06
1.70298e-05
7.12917e-06
-9.37195e-06
6.20615e-06
2.31056e-06
-1.69571e-05
2.07406e-05
2.03849e-05
-2.20726e-06
3.36955e-05
0.00039036
-1.33858e-06
8.48835e-07
-4.75937e-07
1.24146e-07
4.11379e-08
-3.75466e-08
3.25097e-08
6.17453e-08
-7.62422e-08
7.69061e-08
6.10915e-08
1.91174e-07
1.58903e-07
2.18173e-07
1.60783e-07
1.95832e-07
1.30396e-07
1.80022e-07
7.34201e-08
1.38265e-07
-8.21786e-08
-4.03566e-08
-5.348e-07
-6.57238e-07
-6.40209e-07
-6.10111e-07
-4.59051e-07
-5.86421e-07
5.14445e-08
-5.9824e-07
-5.69068e-07
-1.75693e-06
1.98879e-07
4.60487e-06
-5.02655e-06
-1.34954e-05
1.43271e-05
-2.13704e-06
-7.62963e-06
6.79039e-07
-4.08355e-07
5.06707e-07
-5.83688e-07
4.24296e-07
1.04705e-07
4.58432e-07
3.03947e-07
1.32934e-07
-2.61168e-08
-1.24668e-07
-2.98718e-07
-2.88509e-07
-3.23009e-07
-2.01377e-07
-2.10804e-07
-8.95594e-08
-1.14691e-07
2.9184e-08
1.71636e-10
3.09918e-07
4.12142e-07
5.98221e-07
4.36183e-07
2.38934e-06
2.39823e-06
-4.13151e-06
1.78837e-06
6.62674e-06
4.34227e-06
-6.14757e-06
7.54025e-06
4.39954e-06
-6.68008e-06
1.23424e-05
1.38288e-05
-5.92651e-07
3.23047e-05
0.000231957
-6.28392e-08
4.31573e-07
-1.86378e-07
1.69813e-07
-1.39395e-07
1.23271e-07
4.46116e-08
-1.54143e-08
-5.02577e-08
2.35068e-08
5.34797e-08
1.49828e-07
1.37959e-07
1.94675e-07
1.48918e-07
1.90511e-07
1.33904e-07
1.74106e-07
8.70949e-08
1.09004e-07
-6.58034e-08
-1.11961e-07
-5.25143e-07
-6.73757e-07
-7.78359e-07
-6.93693e-07
-6.07922e-07
-5.66983e-07
-2.0594e-07
-7.64029e-07
-7.48242e-07
-1.81092e-06
-9.36119e-07
2.90635e-06
-2.85315e-06
-1.04665e-05
1.29058e-05
-5.53258e-06
-4.88498e-06
-1.47805e-06
1.02247e-06
-9.11314e-07
6.43216e-07
-1.05676e-07
4.81196e-07
3.5043e-07
2.18254e-07
2.85806e-08
-4.57685e-08
-2.24641e-07
-2.57181e-07
-3.53779e-07
-2.71722e-07
-2.65389e-07
-1.77185e-07
-1.60765e-07
-1.2142e-07
-9.35548e-08
-8.10176e-08
2.31639e-08
1.09755e-07
-3.77718e-08
6.83752e-08
4.30725e-06
2.37559e-06
-1.12569e-05
3.44696e-06
1.0678e-05
4.15408e-06
-5.21091e-06
1.94005e-06
-1.23225e-07
-1.10751e-05
1.14771e-05
9.47861e-06
-6.75656e-07
7.272e-06
0.000114682
1.05236e-06
-4.50895e-07
2.85305e-07
-1.36371e-07
1.50991e-07
-3.29606e-08
7.4367e-08
-4.93058e-08
2.11897e-08
5.35997e-10
1.24291e-07
1.09574e-07
1.87436e-07
1.48356e-07
1.81318e-07
1.39403e-07
1.52209e-07
1.21243e-07
1.11915e-07
7.6879e-08
1.07603e-08
-6.64945e-08
-3.00096e-07
-4.41286e-07
-4.48278e-07
-4.22751e-07
-4.07058e-07
-4.58018e-07
6.65473e-08
-3.42739e-07
-3.80753e-07
-1.71146e-06
7.39355e-07
5.51679e-06
-5.49269e-06
-1.45123e-05
1.54757e-05
-1.91436e-06
-5.36724e-06
9.39393e-07
-4.92429e-07
3.60525e-07
-7.00362e-08
4.01136e-07
4.04629e-07
2.64287e-07
1.20838e-07
-1.18107e-08
-1.06602e-07
-2.51429e-07
-2.79022e-07
-3.4475e-07
-2.49126e-07
-2.73288e-07
-1.56552e-07
-1.89969e-07
-7.30696e-08
-9.46022e-08
3.76589e-08
1.44629e-07
4.14454e-07
3.69593e-07
5.50269e-07
1.86883e-06
1.97444e-06
-2.08631e-06
1.3141e-06
4.47896e-06
3.55048e-06
-4.44677e-06
6.00313e-06
3.95636e-06
-4.37478e-06
9.33263e-06
1.00446e-05
-4.80964e-07
2.22087e-05
0.000121612
-3.26483e-07
1.32122e-07
-7.54312e-08
3.93969e-09
-2.43271e-08
1.93187e-07
1.73943e-08
-1.67309e-08
-1.92519e-08
1.87712e-08
8.54839e-08
1.025e-07
1.58241e-07
1.27804e-07
1.70025e-07
1.21049e-07
1.60537e-07
1.03089e-07
1.24808e-07
4.19926e-08
5.37604e-09
-1.46606e-07
-3.35035e-07
-5.45198e-07
-6.18624e-07
-6.58053e-07
-5.90703e-07
-5.79635e-07
-2.82095e-07
-6.4512e-07
-7.43797e-07
-1.87928e-06
-1.05025e-06
3.19435e-06
-2.95954e-06
-1.17629e-05
1.50842e-05
-7.3312e-06
-4.26482e-06
6.87677e-07
5.25524e-08
1.31646e-07
2.7973e-07
3.63842e-07
3.2154e-07
2.1353e-07
2.88525e-08
-2.67828e-08
-1.99311e-07
-2.12946e-07
-3.3252e-07
-2.63021e-07
-2.95138e-07
-2.02827e-07
-2.15378e-07
-1.38124e-07
-1.48316e-07
-9.98902e-08
-1.09316e-07
-1.37224e-08
1.43503e-07
-2.80499e-08
1.76747e-07
3.35352e-06
1.51267e-06
-1.02843e-05
2.07376e-06
1.1453e-05
4.27559e-06
-6.36997e-06
1.72703e-06
-3.89823e-07
-1.31146e-05
1.09868e-05
8.67315e-06
-1.06269e-06
2.8476e-06
5.81783e-05
-1.62199e-07
3.44467e-08
-1.9693e-07
1.06132e-08
1.88008e-07
3.42235e-08
2.32881e-08
4.10042e-09
-3.06724e-08
6.50856e-08
6.23625e-08
1.52021e-07
1.19105e-07
1.71741e-07
1.22188e-07
1.54716e-07
1.05787e-07
1.3065e-07
7.84006e-08
9.16708e-08
8.16245e-09
-1.12664e-08
-1.91846e-07
-2.2688e-07
-3.3944e-07
-2.88176e-07
-3.49099e-07
-3.41106e-07
3.45962e-08
-1.43941e-08
-2.66293e-07
-1.5745e-06
9.15344e-07
6.34522e-06
-5.48218e-06
-1.65184e-05
1.78427e-05
-3.76112e-06
-3.59887e-06
2.5195e-08
2.25043e-07
3.67378e-07
1.94673e-07
3.44331e-07
2.63645e-07
1.02718e-07
2.42839e-08
-9.45367e-08
-2.03818e-07
-2.44559e-07
-3.05284e-07
-2.4903e-07
-2.73118e-07
-1.80956e-07
-2.12978e-07
-1.14437e-07
-1.53247e-07
-4.40783e-08
-5.61309e-08
1.75158e-07
2.72687e-07
3.24256e-07
4.16537e-07
1.56953e-06
1.62207e-06
-1.0371e-06
1.09212e-06
3.8111e-06
3.47839e-06
-4.19006e-06
5.89821e-06
4.21949e-06
-4.62573e-06
9.7993e-06
1.04087e-05
-1.26148e-06
1.93564e-05
7.95102e-05
2.04142e-08
-1.59878e-07
-1.38488e-07
3.99277e-08
9.30548e-08
1.62931e-07
3.28304e-08
-2.21153e-08
-3.29356e-09
3.25305e-08
7.64585e-08
1.20542e-07
1.19746e-07
1.42611e-07
1.14761e-07
1.3367e-07
1.00668e-07
1.13589e-07
7.39642e-08
5.60207e-08
-1.04217e-08
-1.00942e-07
-2.3867e-07
-3.97193e-07
-4.96251e-07
-5.85172e-07
-5.66484e-07
-5.9574e-07
-3.19131e-07
-5.45051e-07
-6.95454e-07
-1.76853e-06
-1.05053e-06
2.9452e-06
-2.57217e-06
-1.11848e-05
1.49774e-05
-8.40039e-06
-3.41122e-06
-5.13438e-07
5.35717e-07
1.03967e-07
3.22628e-07
2.59539e-07
1.63345e-07
7.77753e-08
-3.43016e-09
-1.56695e-07
-1.68662e-07
-2.83934e-07
-2.23201e-07
-2.73237e-07
-1.9053e-07
-2.17505e-07
-1.45414e-07
-1.60396e-07
-1.03479e-07
-1.21552e-07
-8.65595e-08
-1.94965e-08
1.45917e-07
-4.81319e-08
4.03575e-08
1.99189e-06
9.15469e-07
-8.48043e-06
1.30373e-06
1.1579e-05
4.56152e-06
-7.18823e-06
1.90992e-06
-1.30562e-06
-1.50901e-05
1.20482e-05
9.97299e-06
-3.90779e-06
1.73777e-06
3.41066e-05
1.92038e-07
-4.19957e-07
-7.3632e-08
8.33472e-08
1.78706e-07
5.72178e-08
4.64396e-08
-2.14024e-08
1.12171e-08
2.17521e-08
1.05896e-07
9.41235e-08
1.50738e-07
1.06186e-07
1.41732e-07
9.1063e-08
1.21824e-07
6.97737e-08
1.021e-07
3.4634e-08
6.68229e-08
-4.40612e-08
-2.81542e-08
-1.82034e-07
-1.22497e-07
-2.65268e-07
-1.69051e-07
-3.14493e-07
1.99653e-07
2.06844e-07
-9.50735e-08
-1.49817e-06
1.06024e-06
6.42437e-06
-5.31056e-06
-1.65551e-05
1.942e-05
-4.86097e-06
-2.04558e-06
1.24949e-06
1.85846e-07
4.25519e-07
2.71925e-07
1.77609e-07
1.27974e-07
5.77348e-08
-2.80441e-08
-1.33095e-07
-1.93787e-07
-2.44294e-07
-2.11242e-07
-2.35299e-07
-1.67778e-07
-1.98608e-07
-1.15218e-07
-1.56631e-07
-7.19333e-08
-1.19212e-07
7.85315e-09
7.75847e-08
2.61483e-07
1.40309e-07
3.21805e-07
1.13926e-06
1.2195e-06
-4.55576e-07
8.89631e-07
2.85551e-06
3.00612e-06
-3.3553e-06
5.17221e-06
4.11466e-06
-4.12948e-06
9.51497e-06
1.09497e-05
-2.36141e-06
1.88256e-05
5.79687e-05
-5.03701e-07
-5.46052e-09
-9.3555e-08
4.66738e-08
1.06607e-07
1.40322e-07
1.8569e-08
-9.70279e-09
-9.07136e-09
3.89503e-08
7.61826e-08
1.1284e-07
1.17882e-07
1.17926e-07
1.05232e-07
1.00492e-07
8.38647e-08
8.34115e-08
5.42285e-08
4.46226e-08
-1.39332e-08
-6.46395e-08
-1.71503e-07
-2.79219e-07
-3.85153e-07
-4.82492e-07
-5.22341e-07
-5.68343e-07
-3.47009e-07
-4.89545e-07
-6.83724e-07
-1.60942e-06
-1.00875e-06
2.61446e-06
-2.23559e-06
-1.00496e-05
1.3998e-05
-8.43378e-06
-2.67207e-06
-2.65495e-07
5.2118e-07
3.2899e-07
2.02492e-07
1.60787e-07
9.1366e-08
8.02377e-08
-7.56572e-08
-1.01487e-07
-2.23866e-07
-1.68927e-07
-2.27891e-07
-1.48653e-07
-1.93882e-07
-1.18792e-07
-1.54375e-07
-8.46637e-08
-1.21239e-07
-6.95292e-08
-1.01373e-07
3.51266e-08
8.17541e-08
-2.65767e-08
-1.92408e-07
1.29476e-06
2.98671e-07
-5.52302e-06
1.23749e-06
1.0078e-05
5.48451e-06
-7.53382e-06
1.85176e-06
-1.43265e-06
-1.58511e-05
1.12255e-05
1.0599e-05
-6.35567e-06
1.43858e-06
2.07328e-05
1.19533e-07
-2.48157e-07
-1.04638e-07
1.00784e-07
1.52223e-07
6.4436e-08
2.68258e-08
-5.43058e-09
-8.2917e-09
4.67537e-08
6.90984e-08
1.22104e-07
1.01199e-07
1.23241e-07
8.4335e-08
1.00839e-07
6.20853e-08
8.29162e-08
4.05686e-08
6.6445e-08
1.18817e-08
3.40261e-08
-4.10479e-08
-2.52773e-08
-9.63474e-08
-7.12444e-08
-1.31335e-07
-1.01532e-07
2.49968e-07
3.84326e-07
3.12249e-08
-1.36731e-06
9.48461e-07
6.50276e-06
-4.89168e-06
-1.69972e-05
1.97981e-05
-5.83001e-06
-8.95964e-07
4.72819e-07
3.65073e-07
2.73125e-07
1.87378e-07
1.03563e-07
1.20856e-07
1.14418e-08
-3.14531e-08
-1.40032e-07
-1.79981e-07
-1.7087e-07
-1.78676e-07
-1.39709e-07
-1.54886e-07
-1.06618e-07
-1.23136e-07
-7.24856e-08
-1.00557e-07
-6.08415e-08
-3.45192e-08
9.57336e-08
1.58584e-07
6.05112e-08
1.97135e-07
8.26585e-07
8.82331e-07
-1.65895e-07
6.83784e-07
2.01238e-06
2.57498e-06
-2.67428e-06
4.48096e-06
3.79143e-06
-3.24885e-06
8.10723e-06
9.94833e-06
-2.93319e-06
1.76968e-05
4.44182e-05
-1.12714e-07
-2.3117e-07
-1.43047e-09
9.37114e-08
1.21052e-07
1.05911e-07
2.23201e-08
-1.59968e-08
1.71293e-09
2.62431e-08
8.91203e-08
9.39389e-08
1.22257e-07
8.88244e-08
1.01203e-07
6.29458e-08
7.93418e-08
4.1777e-08
5.71438e-08
1.1725e-08
9.88706e-09
-6.16891e-08
-9.88728e-08
-2.11807e-07
-2.67266e-07
-3.9176e-07
-4.27724e-07
-5.18466e-07
-3.51641e-07
-4.83243e-07
-6.60487e-07
-1.47427e-06
-9.314e-07
2.32144e-06
-1.98508e-06
-8.99078e-06
1.2711e-05
-8.13535e-06
-2.18935e-06
5.08744e-07
3.47718e-07
2.05068e-07
1.24219e-07
1.31055e-07
6.96156e-08
3.2328e-08
-4.41958e-08
-1.5844e-07
-1.28658e-07
-1.8458e-07
-1.09468e-07
-1.56206e-07
-8.35561e-08
-1.3108e-07
-5.67949e-08
-1.07584e-07
-3.59928e-08
-1.08403e-07
-7.05845e-09
-2.0491e-08
1.53829e-07
-1.42262e-07
-8.92615e-08
7.30284e-07
5.13395e-07
-2.99536e-06
1.20644e-06
8.34851e-06
6.46257e-06
-8.1608e-06
1.8359e-06
-2.08555e-06
-1.5304e-05
1.033e-05
1.02288e-05
-8.93131e-06
5.68161e-07
1.5433e-05
-2.4649e-07
-3.81386e-08
-9.07903e-09
1.23357e-07
1.42096e-07
6.43726e-08
2.58878e-08
-7.74605e-09
-9.19658e-11
3.59316e-08
7.83427e-08
1.00197e-07
1.02576e-07
9.18424e-08
7.74323e-08
6.4854e-08
5.53906e-08
4.44525e-08
4.20669e-08
2.90803e-08
3.26394e-08
1.16834e-08
2.01394e-08
-1.18034e-08
1.41033e-08
-2.16288e-08
2.08938e-08
-4.19693e-09
3.41976e-07
4.59332e-07
1.4573e-07
-1.30743e-06
9.83891e-07
6.3401e-06
-4.83306e-06
-1.67999e-05
2.08652e-05
-6.28531e-06
-2.92717e-07
1.28249e-07
1.79793e-07
1.38808e-07
1.27095e-07
8.0548e-08
8.91622e-08
2.82144e-08
-5.99663e-08
-1.05959e-07
-1.46821e-07
-1.32263e-07
-1.25051e-07
-1.01328e-07
-9.78444e-08
-7.48427e-08
-7.5809e-08
-4.79362e-08
-6.98292e-08
-4.10636e-08
-2.90387e-08
9.48023e-08
8.87178e-08
2.04474e-08
1.11848e-07
6.497e-07
6.47156e-07
-3.48989e-08
3.93962e-07
1.58919e-06
1.97602e-06
-1.92577e-06
3.79648e-06
3.53605e-06
-2.22935e-06
6.90489e-06
8.54003e-06
-3.10863e-06
1.52924e-05
3.20591e-05
8.37981e-08
-5.76442e-08
5.81491e-08
1.25023e-07
1.18532e-07
9.02221e-08
1.61022e-08
-8.11185e-09
-7.95247e-09
4.48667e-08
6.61766e-08
1.09021e-07
8.59583e-08
9.64971e-08
5.89722e-08
6.98217e-08
3.5759e-08
5.21688e-08
1.80014e-08
3.25643e-08
-1.21214e-08
-1.57274e-08
-8.26108e-08
-1.23254e-07
-2.04189e-07
-2.73464e-07
-3.50943e-07
-4.17777e-07
-3.60137e-07
-4.5231e-07
-6.6871e-07
-1.30088e-06
-8.58643e-07
1.91886e-06
-1.79003e-06
-7.79684e-06
1.14735e-05
-7.56033e-06
-1.87531e-06
2.52921e-07
1.20644e-07
1.05101e-07
8.08734e-08
1.13957e-07
6.22599e-08
4.18034e-08
-4.68918e-08
-9.09047e-08
-1.4911e-07
-1.04649e-07
-1.23295e-07
-6.78513e-08
-9.37035e-08
-4.28795e-08
-7.45678e-08
-2.20335e-08
-7.33139e-08
-1.58383e-08
-5.61161e-08
8.43576e-08
4.01589e-08
-3.38732e-08
-1.29854e-07
6.63944e-07
5.926e-07
-1.33358e-06
1.05422e-06
6.50401e-06
5.60662e-06
-6.88845e-06
8.17836e-07
-2.52162e-06
-1.48802e-05
9.20062e-06
1.02452e-05
-1.02346e-05
5.75688e-07
8.7362e-06
-4.6938e-10
3.55655e-08
9.34178e-08
1.33994e-07
1.30614e-07
5.66966e-08
2.21805e-08
-7.12349e-09
7.48218e-09
3.08491e-08
7.9012e-08
7.89184e-08
9.6316e-08
6.31321e-08
7.01956e-08
3.81396e-08
4.74027e-08
2.31721e-08
3.28196e-08
1.69225e-08
2.5062e-08
1.57007e-08
2.48983e-08
1.89257e-08
4.30572e-08
3.89155e-08
8.22164e-08
8.86087e-08
3.36333e-07
4.37966e-07
1.60035e-07
-9.7916e-07
1.01539e-06
6.09833e-06
-4.41624e-06
-1.6425e-05
2.07871e-05
-6.65624e-06
4.31234e-08
1.01956e-07
7.94917e-08
6.84972e-08
9.82258e-08
6.25812e-08
1.00015e-07
2.47347e-08
-2.42652e-08
-1.12589e-07
-1.0755e-07
-1.31998e-07
-7.41915e-08
-9.3838e-08
-3.76284e-08
-7.12177e-08
-1.34595e-08
-5.92497e-08
-6.27736e-09
-6.22155e-08
3.43816e-08
4.1047e-08
9.60262e-08
-4.49443e-08
1.44142e-07
4.75833e-07
5.26954e-07
-8.70247e-08
3.05974e-07
1.1348e-06
1.50069e-06
-1.20712e-06
3.281e-06
3.17512e-06
-1.31351e-06
5.6946e-06
7.28827e-06
-3.04808e-06
1.27332e-05
2.09121e-05
5.88116e-08
8.09207e-08
1.06191e-07
1.39388e-07
1.07423e-07
7.26751e-08
1.65561e-08
-1.23223e-08
9.03158e-09
3.2113e-08
7.58297e-08
7.8716e-08
8.42884e-08
6.23826e-08
5.95851e-08
3.74859e-08
4.20806e-08
2.17161e-08
3.21215e-08
9.32975e-09
1.48275e-08
-1.83074e-08
-3.34666e-08
-8.80756e-08
-1.25569e-07
-2.00151e-07
-2.55621e-07
-3.36793e-07
-3.33884e-07
-4.40341e-07
-6.19608e-07
-1.13757e-06
-7.512e-07
1.56385e-06
-1.55043e-06
-6.69369e-06
1.00172e-05
-6.94947e-06
-1.62956e-06
8.50754e-08
3.64115e-08
6.49803e-08
6.14599e-08
1.13372e-07
5.51258e-08
4.93074e-08
-3.38486e-08
-1.00041e-07
-1.21815e-07
-1.07693e-07
-8.6508e-08
-6.12525e-08
-4.93362e-08
-3.67129e-08
-2.89848e-08
-2.85094e-08
-2.5536e-08
-3.51939e-08
8.59552e-09
3.68257e-08
6.63513e-08
-7.66086e-08
-5.53245e-09
4.74922e-07
6.2835e-07
-6.14924e-07
7.58055e-07
4.17931e-06
4.48718e-06
-5.82421e-06
-8.79305e-08
-2.92505e-06
-1.48806e-05
8.09601e-06
9.94325e-06
-1.1507e-05
4.00793e-07
3.79652e-06
6.97901e-08
8.59065e-08
1.24992e-07
1.26872e-07
1.15259e-07
4.9879e-08
1.70101e-08
1.84751e-09
2.31749e-09
4.16687e-08
4.88798e-08
8.16359e-08
5.34078e-08
6.83904e-08
3.27288e-08
4.76309e-08
1.68012e-08
3.27458e-08
8.50527e-09
2.38845e-08
6.34043e-09
2.2206e-08
1.17546e-08
3.36208e-08
3.49644e-08
6.66459e-08
7.86507e-08
1.25706e-07
2.44958e-07
3.37776e-07
1.67149e-07
-6.33291e-07
9.70244e-07
6.03529e-06
-4.38696e-06
-1.55277e-05
2.0704e-05
-6.63759e-06
1.95636e-07
4.58046e-08
4.29855e-08
4.48326e-08
8.62019e-08
5.03311e-08
1.04566e-07
3.55667e-08
-5.15032e-08
-8.1238e-08
-1.32788e-07
-8.50635e-08
-9.56338e-08
-3.41855e-08
-5.9711e-08
-4.48065e-09
-4.40123e-08
8.08138e-09
-4.61074e-08
1.71828e-08
-1.07561e-08
9.07588e-08
1.33692e-08
1.89471e-08
8.28484e-08
4.37284e-07
3.19648e-07
-2.15683e-08
8.84933e-08
9.59276e-07
9.96267e-07
-5.0239e-07
2.74104e-06
2.76807e-06
-5.86005e-07
4.64274e-06
5.78193e-06
-2.95898e-06
1.02604e-05
1.30176e-05
5.83432e-08
1.02898e-07
1.06229e-07
1.35075e-07
9.51568e-08
6.51167e-08
8.55009e-09
4.9362e-10
5.17375e-09
3.98708e-08
5.61843e-08
6.55597e-08
5.84318e-08
5.06327e-08
3.91332e-08
3.39102e-08
2.35483e-08
2.53675e-08
1.51333e-08
2.07794e-08
5.50105e-09
5.59505e-09
-2.42304e-08
-4.20514e-08
-8.9676e-08
-1.27425e-07
-1.9764e-07
-2.54453e-07
-3.1646e-07
-3.84009e-07
-5.70207e-07
-9.4784e-07
-6.05273e-07
1.23246e-06
-1.34043e-06
-5.32736e-06
8.67712e-06
-6.20299e-06
-1.42956e-06
3.59582e-08
7.31192e-09
5.1279e-08
4.83702e-08
1.14696e-07
6.03573e-08
2.73631e-08
-7.94444e-09
-1.10434e-07
-9.98068e-08
-1.15983e-07
-5.43265e-08
-6.62711e-08
-1.5718e-08
-4.00321e-08
-2.18997e-09
-3.2444e-08
-6.96632e-09
-3.00067e-08
1.58889e-08
2.77929e-08
2.9538e-08
-6.1097e-08
8.26129e-09
3.50112e-07
4.30851e-07
-3.29855e-07
2.07045e-07
2.46811e-06
2.78856e-06
-4.38284e-06
-6.43498e-07
-3.60641e-06
-1.23665e-05
6.38149e-06
9.739e-06
-1.19419e-05
7.51186e-07
8.76772e-07
6.87652e-08
8.61938e-08
1.23921e-07
1.15246e-07
1.04744e-07
4.07145e-08
1.79877e-08
-3.74634e-09
1.40131e-08
1.90633e-08
5.21795e-08
3.86423e-08
5.64827e-08
2.91654e-08
4.38328e-08
1.62025e-08
3.13797e-08
7.27455e-09
2.13598e-08
1.77645e-09
1.38979e-08
2.46702e-10
1.30207e-08
9.16964e-09
2.92788e-08
3.46511e-08
6.06745e-08
7.39906e-08
1.4527e-07
2.11037e-07
1.36817e-07
-3.88892e-07
1.04845e-06
4.82471e-06
-4.39782e-06
-1.43072e-05
1.9745e-05
-6.40285e-06
2.22569e-07
2.02606e-08
3.6033e-08
3.14296e-08
8.02898e-08
4.99413e-08
9.51055e-08
4.33001e-08
-4.08377e-08
-9.04058e-08
-9.71055e-08
-9.8815e-08
-5.35051e-08
-5.29375e-08
-1.35055e-08
-3.09391e-08
4.89332e-09
-2.76421e-08
1.00884e-08
-2.05661e-08
5.06148e-08
2.81309e-08
5.40803e-08
-2.29078e-08
1.40286e-07
2.87609e-07
2.68276e-07
-9.13142e-08
1.00923e-07
7.1437e-07
7.42544e-07
-1.44936e-08
2.30002e-06
2.28642e-06
1.36948e-07
3.63079e-06
4.38564e-06
-2.78431e-06
8.15354e-06
7.91381e-06
5.148e-08
9.77451e-08
9.70001e-08
1.24233e-07
8.41914e-08
4.52188e-08
1.21337e-08
-4.3092e-09
1.53858e-08
2.86614e-08
4.45967e-08
4.4319e-08
4.07315e-08
3.57705e-08
2.82169e-08
2.30762e-08
1.86817e-08
1.34462e-08
1.56248e-08
8.39608e-09
1.23783e-08
-1.1403e-09
-5.5375e-09
-3.29819e-08
-5.28556e-08
-9.79975e-08
-1.41501e-07
-2.14411e-07
-2.62773e-07
-3.40135e-07
-4.78882e-07
-7.67009e-07
-4.49136e-07
8.5907e-07
-1.11572e-06
-4.0174e-06
7.26364e-06
-5.50221e-06
-1.26388e-06
2.64326e-08
-1.65302e-09
4.40578e-08
4.75118e-08
1.12075e-07
4.5669e-08
4.35184e-08
-2.20577e-08
-6.99714e-08
-1.1942e-07
-6.26102e-08
-7.86871e-08
-1.58669e-08
-4.47662e-08
5.48241e-09
-3.29279e-08
6.87253e-09
-3.44815e-08
7.85851e-09
-1.23952e-08
3.89077e-08
-1.75291e-08
-3.24607e-08
-5.2582e-09
2.34702e-07
2.04749e-07
-2.54415e-07
-1.7252e-07
1.30831e-06
1.23396e-06
-2.75221e-06
-1.05199e-06
-2.9545e-06
-9.66848e-06
4.54755e-06
9.75188e-06
-1.16517e-05
8.23462e-07
-6.242e-07
6.16115e-08
7.88287e-08
1.15038e-07
1.00723e-07
8.12851e-08
4.23893e-08
6.63094e-09
2.67261e-09
-1.24432e-09
2.44446e-08
1.89119e-08
3.94689e-08
2.13778e-08
3.63007e-08
1.45886e-08
2.78485e-08
6.29522e-09
1.97127e-08
3.85832e-10
1.04791e-08
-6.50401e-09
2.70907e-10
-1.17158e-08
-2.22756e-09
-7.19136e-09
6.18338e-09
3.04299e-09
1.64447e-08
3.86503e-08
1.06135e-07
5.59218e-08
-2.13895e-07
7.29165e-07
3.31778e-06
-3.83221e-06
-1.38677e-05
1.80114e-05
-5.83084e-06
2.30151e-07
1.82478e-08
3.12139e-08
2.91476e-08
7.64694e-08
3.24931e-08
1.04547e-07
3.55363e-08
-4.43807e-08
-7.10094e-08
-8.77386e-08
-6.52728e-08
-5.25017e-08
-2.35756e-08
-2.3666e-08
-2.26595e-10
-1.50677e-08
8.05015e-09
-1.47861e-08
2.56705e-08
1.52145e-08
6.51744e-08
8.37408e-09
4.32517e-08
8.87881e-08
2.60158e-07
1.42181e-07
-2.31014e-08
6.59226e-08
5.94581e-07
5.51835e-07
3.72093e-07
1.86171e-06
1.88565e-06
4.84054e-07
2.84611e-06
3.08343e-06
-2.58677e-06
6.26592e-06
4.82054e-06
4.50015e-08
8.91136e-08
8.49254e-08
1.08088e-07
7.46265e-08
3.05165e-08
5.60059e-09
3.45246e-09
9.67375e-09
2.49433e-08
2.89032e-08
2.90914e-08
2.8468e-08
2.35291e-08
2.07522e-08
1.36084e-08
1.07071e-08
7.59612e-09
4.73749e-09
5.39403e-09
-4.72321e-10
-1.96125e-10
-1.339e-08
-2.19566e-08
-4.80975e-08
-7.1942e-08
-1.21448e-07
-1.69429e-07
-2.26799e-07
-2.727e-07
-4.04919e-07
-5.99628e-07
-3.5126e-07
6.13894e-07
-1.00754e-06
-2.74915e-06
5.91858e-06
-4.6856e-06
-1.09826e-06
1.91599e-08
-8.02002e-09
4.1324e-08
3.66331e-08
1.1366e-07
4.44535e-08
2.15167e-08
1.82716e-08
-8.578e-08
-5.83937e-08
-7.89471e-08
-2.18388e-08
-4.33373e-08
7.03685e-09
-2.63822e-08
1.52878e-08
-2.48052e-08
1.39225e-08
-2.03536e-08
3.08819e-08
-2.96929e-09
1.38939e-08
-4.7354e-08
3.50993e-08
1.06226e-07
1.08782e-07
-2.68901e-07
-2.25455e-07
4.61396e-07
5.90857e-07
-1.72519e-06
-6.93458e-07
-2.16967e-06
-6.47835e-06
3.43223e-06
8.0948e-06
-1.08021e-05
1.10202e-06
-9.72829e-07
5.54992e-08
7.06991e-08
1.04946e-07
8.75294e-08
6.66637e-08
3.78652e-08
6.51018e-09
-1.13774e-08
6.06621e-09
2.40033e-09
2.18736e-08
1.19115e-08
2.7732e-08
1.01705e-08
2.35042e-08
2.49256e-09
1.52617e-08
-1.22128e-09
9.31578e-09
-6.99093e-09
-2.25909e-09
-1.86577e-08
-1.70175e-08
-2.94373e-08
-2.6125e-08
-3.70558e-08
-3.57511e-08
-4.84474e-08
-2.58644e-08
4.94739e-09
-1.22055e-08
-2.26209e-07
3.388e-07
2.013e-06
-3.78152e-06
-1.1223e-05
1.56233e-05
-5.03682e-06
1.48525e-07
9.58497e-09
3.17625e-08
2.15778e-08
7.26146e-08
3.19414e-08
9.40474e-08
5.6128e-08
-4.17227e-08
-3.86855e-08
-5.30962e-08
-4.78669e-08
-2.77519e-08
-1.78988e-08
-6.714e-10
-2.85278e-09
1.0907e-08
-3.5301e-10
1.88901e-08
1.33925e-08
5.07169e-08
3.84851e-08
5.15116e-08
3.22775e-08
1.21021e-07
1.72091e-07
1.32793e-07
-1.00509e-08
1.13743e-07
4.68687e-07
5.11365e-07
5.36047e-07
1.51532e-06
1.504e-06
7.08782e-07
2.24219e-06
1.88768e-06
-2.32882e-06
4.78875e-06
2.95287e-06
3.98665e-08
8.0194e-08
7.48148e-08
9.60684e-08
6.38796e-08
1.15393e-08
3.12816e-09
1.42635e-09
8.16707e-09
1.72154e-08
1.85013e-08
2.17678e-08
1.69659e-08
2.12431e-08
5.44433e-09
9.45463e-09
2.57692e-09
1.89337e-09
-1.90036e-09
-3.78476e-09
-6.06834e-09
-1.21098e-08
-1.67827e-08
-2.94777e-08
-4.33453e-08
-6.89252e-08
-1.01844e-07
-1.45875e-07
-1.82216e-07
-2.27973e-07
-3.33768e-07
-4.86969e-07
-2.5946e-07
3.54023e-07
-9.21514e-07
-1.47011e-06
4.64244e-06
-3.8966e-06
-9.31632e-07
1.78739e-08
-9.9667e-09
3.69121e-08
3.70599e-08
1.09818e-07
3.79053e-08
3.78724e-08
2.69857e-08
-2.4356e-08
-6.01118e-08
-2.2839e-08
-3.97111e-08
7.77279e-09
-1.63881e-08
2.40661e-08
-8.99519e-09
2.69455e-08
-7.33236e-09
3.46957e-08
6.08839e-09
4.58143e-08
-8.34548e-09
2.20531e-08
1.28881e-08
1.08766e-07
1.28999e-08
-1.47803e-07
-2.46353e-07
2.09639e-07
2.05604e-07
-8.15963e-07
-3.54631e-07
-1.19378e-06
-3.65926e-06
2.21077e-06
5.83833e-06
-8.82791e-06
1.11012e-06
-1.05877e-06
4.92111e-08
6.26216e-08
9.56026e-08
7.07271e-08
4.80723e-08
3.71095e-08
-8.01078e-09
-6.88726e-09
-7.37322e-09
7.23439e-09
4.36674e-09
1.73195e-08
1.18016e-08
1.12633e-08
1.24698e-09
7.39201e-09
-9.08227e-09
6.51644e-09
-4.75584e-09
1.77397e-09
-1.31825e-08
-1.53403e-08
-3.15273e-08
-3.52985e-08
-4.95088e-08
-5.44313e-08
-7.16214e-08
-7.58602e-08
-7.78867e-08
-4.83035e-08
-1.03316e-07
-2.51193e-07
4.02769e-08
9.41974e-07
-3.0212e-06
-7.98259e-06
1.20696e-05
-4.2046e-06
6.59007e-08
1.15203e-08
2.81515e-08
2.14581e-08
6.83157e-08
1.9553e-08
1.02795e-07
5.82192e-08
-1.42986e-08
-1.15686e-08
-2.59885e-08
-2.6892e-08
-1.19716e-08
-2.80802e-09
1.07592e-08
1.42932e-08
1.97847e-08
2.11342e-08
2.74236e-08
3.78888e-08
5.20453e-08
6.20801e-08
5.75773e-08
6.78371e-08
1.11834e-07
1.48823e-07
1.10516e-07
4.03844e-08
1.42382e-07
4.02956e-07
4.62168e-07
6.01926e-07
1.20012e-06
1.2106e-06
7.27914e-07
1.75102e-06
1.02032e-06
-1.8927e-06
3.58543e-06
1.82911e-06
3.38286e-08
7.16855e-08
6.06643e-08
8.33805e-08
5.36265e-08
-6.1639e-09
3.62545e-09
-1.1092e-09
7.8729e-09
1.00771e-08
1.64052e-08
1.58977e-08
1.29329e-08
5.12264e-09
5.14185e-10
-1.62272e-08
1.52588e-08
-1.54479e-08
-5.14803e-10
-7.04564e-09
-8.64163e-09
-1.67524e-08
-2.37217e-08
-3.39037e-08
-4.68133e-08
-6.60968e-08
-9.25724e-08
-1.23419e-07
-1.51647e-07
-1.91103e-07
-2.86865e-07
-3.905e-07
-2.21497e-07
1.88932e-07
-8.26897e-07
-5.14138e-07
3.37564e-06
-3.10354e-06
-7.62977e-07
1.28e-08
-1.3091e-08
3.48551e-08
2.8217e-08
1.08919e-07
4.06071e-08
3.84378e-08
6.60522e-08
-1.91744e-08
-1.29416e-08
-3.17782e-08
2.21866e-10
-7.90894e-09
2.49933e-08
9.21402e-09
3.57209e-08
1.50607e-08
4.20091e-08
2.42358e-08
5.71797e-08
3.15564e-08
5.18305e-08
2.20873e-08
7.40337e-08
6.98786e-08
5.61258e-08
-9.15435e-08
-9.59013e-08
8.41621e-08
1.57312e-07
-2.98818e-07
-9.45984e-09
-4.61233e-07
-2.0308e-06
1.3752e-06
3.49609e-06
-7.15323e-06
1.2838e-06
-7.88048e-07
4.3694e-08
5.30304e-08
8.57181e-08
5.70971e-08
3.44046e-08
3.53072e-08
-9.62171e-09
-1.34206e-08
-4.22558e-09
-1.71011e-10
1.00316e-08
6.48648e-09
1.08357e-08
-7.20848e-09
-1.87447e-08
2.13687e-08
-2.01272e-08
-3.16869e-09
-1.47402e-08
-4.03059e-09
-4.66171e-09
-1.74644e-08
-2.71327e-08
-4.28166e-08
-5.18339e-08
-6.74603e-08
-7.81339e-08
-9.38924e-08
-9.04964e-08
-9.64492e-08
-1.41946e-07
-2.72386e-07
-1.00235e-07
4.60596e-07
-2.09285e-06
-4.76869e-06
9.1197e-06
-3.40143e-06
-8.72627e-08
5.06171e-09
2.86197e-08
1.53779e-08
6.36066e-08
2.0594e-08
9.82861e-08
7.79997e-08
-2.41488e-09
1.79892e-08
-1.05773e-08
-8.56941e-09
-8.90109e-09
1.34906e-08
1.52438e-08
3.28301e-08
2.80499e-08
4.19431e-08
3.8804e-08
5.80083e-08
5.97994e-08
7.88548e-08
7.22494e-08
9.22761e-08
1.10271e-07
1.35167e-07
1.06338e-07
8.1526e-08
1.63318e-07
3.40103e-07
4.13395e-07
5.72719e-07
9.43382e-07
8.98311e-07
6.33543e-07
1.3524e-06
4.19461e-07
-1.46453e-06
2.71508e-06
1.18677e-06
2.85093e-08
6.27985e-08
4.95573e-08
7.22638e-08
4.37748e-08
-1.49339e-08
5.93314e-10
-2.28626e-10
3.75972e-09
1.09033e-08
1.15157e-08
1.6066e-08
-4.34786e-09
-1.80796e-08
1.57072e-08
-1.03807e-08
6.99482e-09
-3.58518e-08
-7.861e-09
-1.94731e-08
-1.25846e-08
-1.51783e-08
-2.5634e-08
-3.51945e-08
-4.8595e-08
-6.33931e-08
-8.45124e-08
-1.05659e-07
-1.29298e-07
-1.67091e-07
-2.46052e-07
-3.20354e-07
-1.62223e-07
5.91378e-08
-6.837e-07
1.34702e-07
2.37864e-06
-2.39339e-06
-6.18136e-07
1.17864e-08
-1.32616e-08
3.06662e-08
2.88516e-08
1.03116e-07
3.82482e-08
5.15007e-08
7.33451e-08
1.41477e-08
-1.13011e-08
-9.00756e-09
-7.90925e-09
1.29562e-08
1.91371e-08
3.48004e-08
3.39741e-08
4.53559e-08
4.35937e-08
5.72916e-08
5.70848e-08
6.89079e-08
5.81929e-08
7.00762e-08
7.73309e-08
9.92012e-08
6.51392e-08
1.1533e-08
-7.01806e-09
1.02076e-07
1.3763e-07
1.53908e-08
1.61767e-07
-1.24119e-07
-1.1176e-06
8.49027e-07
1.34192e-06
-5.22143e-06
1.28696e-06
-4.88552e-07
3.7776e-08
4.41841e-08
7.60921e-08
4.13282e-08
2.46618e-08
3.02986e-08
-1.32899e-08
-1.34709e-08
-5.08786e-09
1.54254e-09
9.01762e-09
5.33442e-10
-1.14076e-08
7.52383e-09
-1.18282e-08
2.18258e-08
-3.5444e-08
-7.96829e-09
-4.86008e-08
-1.25521e-08
-2.08931e-08
-1.66017e-08
-2.64411e-08
-3.86063e-08
-5.2163e-08
-6.41478e-08
-7.87439e-08
-8.957e-08
-9.89192e-08
-1.11184e-07
-1.66346e-07
-2.37332e-07
-1.22504e-07
2.98918e-07
-1.38635e-06
-1.8512e-06
6.23043e-06
-2.67761e-06
-1.89819e-07
7.44646e-09
2.50199e-08
1.56034e-08
5.80374e-08
1.25627e-08
1.00624e-07
7.67269e-08
1.35346e-08
2.78801e-08
3.75627e-09
-8.68737e-09
1.75735e-09
1.02738e-08
2.88903e-08
3.34139e-08
4.53009e-08
4.60754e-08
5.74618e-08
6.13067e-08
7.55182e-08
7.95515e-08
9.18066e-08
9.68021e-08
1.15402e-07
1.18945e-07
1.10404e-07
1.01119e-07
1.66899e-07
2.75965e-07
3.53428e-07
4.93644e-07
7.01063e-07
6.18182e-07
5.40764e-07
9.85881e-07
6.18173e-08
-9.85803e-07
2.05382e-06
8.21718e-07
2.26915e-08
5.44365e-08
3.58255e-08
6.20456e-08
3.32842e-08
-1.9524e-08
-5.22272e-10
-2.33965e-10
2.96872e-09
9.55085e-09
1.05339e-08
3.61611e-09
-6.0632e-10
-7.71323e-09
2.00348e-08
-1.08996e-08
-5.16404e-09
-4.61613e-08
-1.61821e-08
-3.71554e-08
-2.66941e-08
-2.37863e-08
-2.53237e-08
-3.46365e-08
-4.59778e-08
-5.982e-08
-7.49637e-08
-9.2488e-08
-1.12733e-07
-1.50303e-07
-2.09662e-07
-2.5585e-07
-1.11423e-07
-6.34647e-08
-4.8812e-07
4.63067e-07
1.52162e-06
-1.78598e-06
-4.97278e-07
7.60307e-09
-1.51278e-08
2.84438e-08
2.17212e-08
9.85093e-08
3.89236e-08
4.97507e-08
8.7518e-08
1.78591e-08
1.35632e-09
-9.54491e-09
-2.91664e-09
1.20805e-08
2.59756e-08
3.70451e-08
4.4457e-08
5.05853e-08
5.64148e-08
6.28743e-08
6.97787e-08
7.56297e-08
7.75033e-08
8.06594e-08
9.28519e-08
1.01645e-07
9.05434e-08
6.30823e-08
6.3889e-08
1.12759e-07
1.48795e-07
1.38662e-07
2.03547e-07
-1.20151e-08
-5.54714e-07
4.32976e-07
1.81151e-07
-3.69346e-06
1.22066e-06
-1.85527e-07
3.2655e-08
3.51895e-08
6.59002e-08
2.99447e-08
1.84969e-08
2.70084e-08
-1.4052e-08
-1.14763e-08
-4.88932e-09
2.67966e-09
6.46931e-09
-4.70418e-09
1.35703e-09
7.8611e-09
9.22127e-09
-3.86502e-09
-1.79197e-08
-1.26946e-08
-3.5936e-08
-3.58754e-08
-3.56131e-08
-1.93953e-08
-2.32249e-08
-3.36376e-08
-4.60451e-08
-5.82733e-08
-7.05338e-08
-8.28164e-08
-9.55806e-08
-1.17726e-07
-1.5899e-07
-1.98594e-07
-8.40161e-08
1.28298e-07
-7.32318e-07
-3.19489e-07
4.07954e-06
-1.9586e-06
-2.56409e-07
2.28347e-09
2.48976e-08
1.03747e-08
5.27026e-08
1.32486e-08
9.31098e-08
8.21007e-08
1.83719e-08
3.58932e-08
8.89387e-09
-5.35086e-09
1.88062e-10
1.37125e-08
2.74665e-08
3.85117e-08
4.58495e-08
5.25137e-08
5.83488e-08
6.60807e-08
7.35605e-08
8.17318e-08
9.0542e-08
9.85884e-08
1.0538e-07
1.08387e-07
1.02535e-07
1.06163e-07
1.48397e-07
2.17387e-07
2.84517e-07
3.87423e-07
4.91346e-07
4.17583e-07
4.57574e-07
6.89384e-07
-1.00073e-07
-6.0026e-07
1.54974e-06
6.31304e-07
1.82554e-08
4.59933e-08
2.63653e-08
5.26281e-08
2.65358e-08
-2.10632e-08
1.13055e-09
-2.01419e-09
3.30598e-09
7.30057e-09
7.24439e-09
5.47997e-10
-3.75175e-09
1.4116e-08
6.08737e-09
-4.0567e-09
-7.31285e-09
-1.68301e-08
-2.95184e-08
-4.98204e-08
-2.37391e-08
-2.97529e-08
-2.46863e-08
-3.02835e-08
-4.11573e-08
-5.31711e-08
-6.61668e-08
-8.07285e-08
-1.01376e-07
-1.33397e-07
-1.77973e-07
-1.96959e-07
-9.88276e-08
-1.48375e-07
-3.17701e-07
5.07366e-07
9.1598e-07
-1.28165e-06
-4.10108e-07
6.66831e-09
-1.47573e-08
2.43191e-08
2.19304e-08
9.04612e-08
3.34603e-08
5.32462e-08
8.31699e-08
2.7617e-08
2.99679e-09
-6.85667e-09
-2.72616e-09
1.1166e-08
2.52999e-08
3.62521e-08
4.45327e-08
5.06167e-08
5.66569e-08
6.22363e-08
6.84732e-08
7.50272e-08
7.85541e-08