/*--------------------------------*- C++ -*----------------------------------*\
| =========                 |                                                 |
| \\      /  F ield         | OpenFOAM: The Open Source CFD Toolbox           |
|  \\    /   O peration     | Version:  2206                                  |
|   \\  /    A nd           | Website:  www.openfoam.com                      |
|    \\/     M anipulation  |                                                 |
\*---------------------------------------------------------------------------*/
FoamFile
{
    version     2.0;
    format      ascii;
    arch        "LSB;label=32;scalar=64";
    class       volScalarField;
    location    "400";
    object      magR;
}
// * * * * * * * * * * * * * * * * * * * * * * * * * * * * * * * * * * * * * //

dimensions      [0 2 -2 0 0 0 0];

internalField   nonuniform List<scalar> 
10720
(
0.023538
0.0274622
0.0324771
0.0392891
0.0473598
0.0576333
0.0707697
0.0870426
0.107706
0.134069
0.16813
0.213099
0.273425
0.356422
0.474563
0.647437
0.913675
1.32394
2.04425
3.16552
5.6924
9.51382
22.274
43.4781
48.1776
46.0917
45.2955
46.1289
47.1579
47.4175
46.7874
45.3885
43.1302
40.0421
36.0554
31.2632
24.7593
18.2989
4.26578
0.0200321
0.0171884
0.0140008
0.0112669
0.00868558
0.00635914
0.00448041
0.00335174
0.0035062
0.00474346
0.0070551
0.0106247
0.0158802
0.0234977
0.0343389
0.0497158
0.0718252
0.104785
0.156208
0.239903
0.383333
0.637034
1.121
2.05261
4.08369
8.35115
18.6656
38.4623
54.5033
61.3871
63.3398
63.6592
63.2926
62.3973
61.0191
59.2336
56.6217
53.5799
43.8852
0.00360469
0.0035844
0.00354304
0.00344051
0.00328197
0.00309976
0.00288482
0.00264314
0.00240399
0.0021695
0.00194594
0.00179066
0.0017693
0.00194391
0.00252448
0.00397255
0.00758996
0.0159158
0.03847
0.0943179
0.279557
0.771818
2.37173
7.60695
14.8793
22.3677
29.4139
34.4163
35.417
32.4978
27.6973
22.837
18.8948
15.8729
13.5511
11.7093
10.4221
9.07997
9.7495
0.0035722
0.00352403
0.00342528
0.00327883
0.00307843
0.00281403
0.00250372
0.0022027
0.00192412
0.00164764
0.00138453
0.00115676
0.000964328
0.000801119
0.000662816
0.000546301
0.000447472
0.00036386
0.000290609
0.000223737
0.000157664
9.31613e-05
3.22831e-05
5.26512e-06
1.34226e-05
0.00191622
0.0103749
0.0836539
0.281745
0.551418
0.824376
1.06463
1.26669
1.44422
1.61011
1.7808
1.9613
2.36381
3.28787
0.00241978
0.00240068
0.00234654
0.00226375
0.00217717
0.00208202
0.00198581
0.00189929
0.00182488
0.00176716
0.00172253
0.00169696
0.00169019
0.00170482
0.00171004
0.00165872
0.00140743
0.00125692
0.000392607
2.61185e-07
0.0154019
0.000686173
0.00844217
0.0194994
0.219582
0.786972
2.01037
4.56418
9.02093
14.9
20.2153
22.8269
22.3157
20.0376
17.3846
14.8936
12.9418
10.7141
12.0386
0.00243863
0.00243561
0.00242913
0.00238586
0.00230911
0.00218026
0.00200263
0.00179981
0.00161135
0.00141748
0.00120888
0.00100688
0.000826098
0.00067042
0.000541888
0.000438106
0.000357222
0.00029587
0.000251244
0.000219186
0.000197101
0.000182769
0.000174901
0.000170576
0.000170353
0.000169185
0.000179941
0.000106714
0.000756697
0.00502245
0.0142336
0.0299796
0.0675789
0.141401
0.250396
0.383842
0.528978
0.633179
1.08073
0.00204215
0.00204636
0.00203608
0.00201912
0.00198413
0.00193205
0.00186712
0.00178607
0.00169343
0.00159096
0.00148086
0.00136465
0.00124346
0.00111949
0.000993886
0.000862031
0.000729172
0.000619718
0.000475461
0.000266687
3.46179e-05
9.28875e-05
0
0.00481488
0.0259183
0.0541523
0.0299291
0.0142963
0.0463954
0.448048
1.9644
5.33916
10.0008
13.874
15.5423
15.3169
14.404
12.6068
13.5765
0.00202024
0.00198706
0.00193497
0.00187223
0.00179357
0.00169056
0.00157029
0.00144231
0.00130906
0.00116444
0.00101496
0.000874827
0.000751019
0.000644317
0.000554162
0.000478581
0.000416398
0.000365753
0.000325104
0.000292011
0.000265121
0.000242534
0.000222291
0.000201004
0.00017913
0.000160942
0.000147193
0.000137313
0.000125329
0.000109902
8.25003e-05
5.19088e-05
0.000414672
0.000704907
0.00263499
0.0141267
0.046679
0.117927
0.429262
0.0015321
0.00152939
0.00151745
0.00149615
0.0014632
0.00141852
0.00136452
0.00130202
0.00123305
0.00116185
0.00109069
0.00102244
0.000960141
0.000905693
0.000860406
0.000822357
0.000782245
0.000732067
0.000681588
0.000605687
0.000492594
0.000289193
3.08185e-05
8.33133e-06
0
0
0.0107968
0.0134722
0.0301851
0.014873
0.0366622
0.0654935
0.411236
2.39854
6.1553
9.97384
12.3866
12.839
14.2908
0.00152813
0.00151732
0.0014958
0.00146134
0.00141275
0.0013439
0.00126153
0.00117308
0.00107878
0.000975267
0.000867585
0.000762215
0.000663259
0.000572435
0.000490963
0.000419361
0.000357802
0.000306016
0.000263399
0.000228655
0.000200605
0.000177734
0.000158416
0.000139991
0.000121266
0.000103972
9.02367e-05
8.07407e-05
7.65756e-05
7.07207e-05
8.65957e-05
2.03304e-05
0.000134571
0.000652928
0.00163605
0.00138191
0.00195711
0.00363892
0.0832943
0.0012558
0.00126116
0.00126065
0.00125615
0.00124381
0.00122381
0.00119703
0.0011624
0.00112064
0.00107288
0.00101954
0.000961856
0.00090121
0.000838671
0.000775348
0.000709722
0.000638183
0.000564812
0.000496821
0.00043485
0.000392121
0.000345802
0.000295689
0.000106751
1.41251e-05
6.58426e-06
2.38004e-06
0
0
0.00202308
0.00875465
0.0456377
0.00878175
0.111368
0.243376
2.2807
6.36735
10.2643
13.6361
0.00124442
0.0012287
0.00120582
0.00117563
0.00113689
0.00108596
0.00102734
0.000964449
0.000896061
0.00082046
0.000741285
0.00066248
0.000587067
0.000516804
0.000452913
0.000396189
0.000346882
0.000304851
0.000269606
0.000240243
0.000215733
0.000194776
0.00017593
0.000157178
0.000137706
0.000119166
0.000102994
8.94591e-05
7.81058e-05
6.86644e-05
6.05696e-05
5.32716e-05
4.27193e-05
2.99713e-05
6.09754e-07
0.000202186
0.000334856
0.000835332
0.00944509
0.00101587
0.00102033
0.00102104
0.00101846
0.00101034
0.000996296
0.00097665
0.000950828
0.000919056
0.000882212
0.000840925
0.000796229
0.000749502
0.000702073
0.000655049
0.000610002
0.000569164
0.000531106
0.00049236
0.000451771
0.000411801
0.000376938
0.000358635
0.000311492
0.000212194
0.000116255
3.57018e-05
6.96601e-06
3.75903e-06
3.0939e-07
0
0
0.00113544
0.0351522
0.0265828
0.156862
1.04507
5.23292
10.9394
0.00100752
0.000996226
0.000979795
0.000957167
0.000927813
0.000890147
0.00084782
0.000801683
0.000750874
0.000695161
0.000636603
0.000577412
0.000519381
0.000463748
0.000411553
0.000363628
0.000320435
0.000282254
0.000249085
0.000220536
0.000196058
0.000174833
0.000155813
0.000137535
0.000119233
0.000101891
8.66466e-05
7.38158e-05
6.31341e-05
5.44619e-05
4.79752e-05
4.37548e-05
4.12113e-05
3.72446e-05
2.78634e-05
3.55685e-06
1.59531e-06
7.02898e-08
0.000260807
0.000841976
0.000847724
0.000851137
0.000852512
0.000850178
0.000843802
0.000833637
0.000818937
0.0007997
0.000776333
0.000748805
0.000717647
0.000683474
0.000646845
0.000608411
0.000568959
0.000527995
0.000484451
0.000440368
0.000398748
0.000361494
0.000331212
0.000309838
0.00029678
0.00027251
0.000230941
0.00017662
0.00011649
6.86138e-05
4.88057e-06
3.47849e-06
1.32514e-07
0
0
0.00383619
0.0662671
0.121559
1.18843
6.55343
0.00083334
0.000822931
0.000808981
0.000790464
0.000767262
0.00073851
0.000707098
0.000672473
0.000634133
0.000592539
0.000548627
0.000503774
0.000459085
0.000415399
0.000373568
0.000334403
0.000298396
0.000265982
0.00023732
0.000212244
0.000190353
0.00017103
0.000153436
0.000136467
0.000119547
0.000103401
8.89176e-05
7.63435e-05
6.54156e-05
5.58907e-05
4.77007e-05
4.06879e-05
3.46842e-05
2.95468e-05
2.60488e-05
2.36389e-05
1.78499e-05
1.84104e-06
1.74152e-05
0.000702353
0.000707889
0.000711922
0.00071444
0.000714348
0.000711283
0.000705316
0.000695787
0.000682615
0.000665918
0.000645646
0.000622082
0.000595645
0.000566758
0.000536049
0.000504011
0.000471377
0.000439413
0.000408229
0.000377823
0.000348665
0.000321908
0.000298131
0.000277909
0.000257751
0.000232762
0.000205521
0.000177181
0.000148787
0.000106521
6.92671e-05
2.66208e-06
1.87072e-06
0
0
0
0.0381263
0.160799
2.6097
0.000694767
0.000685984
0.000674636
0.000659564
0.000641189
0.000619003
0.000595089
0.0005686
0.00053931
0.000507822
0.000474579
0.000440363
0.000405839
0.000371521
0.000338
0.000305892
0.000275677
0.000247756
0.000222379
0.000199583
0.000179196
0.000160828
0.000143893
0.000127649
0.000111692
9.64875e-05
8.2767e-05
7.0808e-05
6.04561e-05
5.15339e-05
4.40019e-05
3.79099e-05
3.32641e-05
3.00195e-05
2.81302e-05
2.83649e-05
3.05954e-05
3.23373e-05
1.2141e-06
0.000592105
0.00059753
0.000602055
0.000605556
0.000607185
0.000606763
0.000604233
0.000599033
0.000591079
0.000580363
0.000566712
0.000550259
0.000531199
0.000509743
0.000486231
0.000461003
0.000434583
0.000406926
0.000378221
0.000349702
0.000322891
0.000298876
0.000277707
0.000257755
0.000236647
0.000212976
0.000188918
0.000167622
0.000150662
0.000136576
0.000122674
8.88421e-05
3.74892e-05
3.3155e-06
0
0
0.000191251
0.0198946
0.685825
0.000585158
0.000577505
0.000567969
0.000555439
0.000540625
0.000523311
0.000504678
0.000484053
0.00046146
0.000437335
0.0004119
0.000385623
0.000358848
0.000331847
0.000305058
0.000278931
0.000253834
0.000230172
0.0002082
0.000188046
0.000169671
0.000152839
0.000137148
0.000122106
0.000107406
9.3387e-05
8.06237e-05
6.93633e-05
5.94944e-05
5.0855e-05
4.33839e-05
3.70491e-05
3.17619e-05
2.76069e-05
2.45704e-05
2.39699e-05
2.36302e-05
3.97397e-05
1.63717e-05
0.000502712
0.000507792
0.000512347
0.000516192
0.000518656
0.000519673
0.000519069
0.000516458
0.000511668
0.000504668
0.000495243
0.000483426
0.000469289
0.00045292
0.000434563
0.000414489
0.000393
0.000370586
0.000347752
0.00032495
0.000302916
0.000282236
0.000263108
0.000244461
0.000224289
0.000201629
0.000178049
0.0001568
0.000139701
0.000127206
0.000117869
0.000112279
9.83988e-05
5.73095e-05
3.79536e-06
0
0
0.00630176
0.175544
0.00049649
0.000489865
0.000481863
0.000471376
0.000459293
0.000445617
0.000430844
0.000414548
0.000396941
0.000378277
0.000358624
0.00033828
0.000317429
0.000296192
0.00027481
0.000253602
0.00023284
0.000212838
0.000193866
0.00017608
0.000159506
0.00014404
0.000129442
0.000115398
0.000101729
8.86925e-05
7.6732e-05
6.60864e-05
5.67082e-05
4.84909e-05
4.14017e-05
3.54509e-05
3.06357e-05
2.70238e-05
2.45537e-05
2.42474e-05
2.41346e-05
3.42712e-05
4.26479e-05
0.000429701
0.000434433
0.000438878
0.000442835
0.000445807
0.00044774
0.000448488
0.000447694
0.000445229
0.000441028
0.000434876
0.000426753
0.000416651
0.000404593
0.000390696
0.000375119
0.000358099
0.000339984
0.000320904
0.000301279
0.000281975
0.000263655
0.000246476
0.000229664
0.000211625
0.000191437
0.000170145
0.000150234
0.00013341
0.000119889
0.00010885
0.000101648
9.82313e-05
9.47436e-05
6.19918e-05
3.05399e-06
0
0.000996474
0.0604132
0.000424133
0.000418329
0.000411551
0.000402717
0.000392756
0.00038179
0.000369917
0.000356896
0.000343032
0.000328429
0.000313118
0.000297271
0.000280961
0.000264195
0.000247138
0.000229976
0.000212876
0.000196091
0.000179831
0.000164282
0.000149525
0.00013553
0.00012215
0.000109203
9.66291e-05
8.46181e-05
7.35211e-05
6.35527e-05
5.47038e-05
4.68994e-05
4.01069e-05
3.43329e-05
2.95493e-05
2.58227e-05
2.3178e-05
2.24907e-05
2.27388e-05
2.92295e-05
4.66841e-05
0.000369348
0.000373706
0.000377932
0.000381825
0.000384995
0.000387418
0.000388978
0.000389351
0.000388422
0.00038612
0.000382243
0.000376747
0.000369577
0.000360693
0.000350163
0.000338081
0.000324583
0.00030997
0.000294464
0.000278362
0.00026219
0.000246434
0.000231202
0.000216012
0.000199784
0.000181817
0.000162853
0.000144807
0.000129168
0.000116052
0.000104838
9.5475e-05
8.89424e-05
8.64955e-05
9.12007e-05
4.67968e-05
3.57992e-08
0.000318029
0.0201414
0.000364394
0.000359296
0.000353503
0.000346033
0.000337756
0.000328837
0.000319185
0.000308676
0.000297649
0.000286127
0.0002741
0.000261659
0.000248829
0.000235578
0.000221951
0.000208068
0.000194029
0.000180011
0.000166175
0.000152675
0.000139615
0.000127011
0.000114805
0.000102924
9.13659e-05
8.03022e-05
7.00065e-05
6.06749e-05
5.23316e-05
4.49337e-05
3.84671e-05
3.29544e-05
2.83957e-05
2.48583e-05
2.23687e-05
2.16338e-05
2.19411e-05
2.69076e-05
4.29077e-05
0.000319052
0.000323029
0.00032699
0.000330731
0.000333941
0.000336632
0.000338678
0.000339807
0.000339938
0.000338978
0.000336765
0.00033322
0.000328294
0.000321925
0.000314117
0.000304911
0.000294379
0.000282752
0.000270178
0.000256831
0.000243106
0.000229487
0.000216071
0.00020252
0.000188065
0.000172172
0.000155372
0.000139167
0.000124863
0.000112661
0.000102125
9.29128e-05
8.51656e-05
7.94395e-05
7.8312e-05
9.5806e-05
2.97148e-06
3.22595e-05
0.00509232
0.000314624
0.000310149
0.000305147
0.000298802
0.00029188
0.000284526
0.000276586
0.000268051
0.000259195
0.000250018
0.000240489
0.000230668
0.000220532
0.000210009
0.000199122
0.000187905
0.0001764
0.000164734
0.000153022
0.000141384
0.000129909
0.000118653
0.000107612
9.67916e-05
8.62358e-05
7.60917e-05
6.65895e-05
5.79012e-05
5.0072e-05
4.30867e-05
3.69422e-05
3.16665e-05
2.72594e-05
2.37873e-05
2.12884e-05
2.04294e-05
2.06114e-05
2.49126e-05
3.85944e-05
0.000276794
0.0002804
0.000284081
0.000287602
0.000290744
0.000293541
0.000295838
0.000297434
0.000298261
0.000298223
0.000297184
0.000295075
0.000291815
0.000287339
0.000281614
0.00027466
0.000266518
0.000257313
0.000247212
0.00023633
0.000224877
0.000213271
0.000201596
0.000189617
0.000176813
0.000162792
0.000147934
0.00013341
0.000120343
0.00010904
9.92187e-05
9.06728e-05
8.31681e-05
7.7546e-05
6.98233e-05
8.75293e-05
4.13928e-05
4.66874e-07
0.00036327
0.000272827
0.00026889
0.000264551
0.000259126
0.000253302
0.000247166
0.00024058
0.000233592
0.000226421
0.000219051
0.000211449
0.000203635
0.000195578
0.000187198
0.000178473
0.000169411
0.000160008
0.000150328
0.000140449
0.000130463
0.000120454
0.000110484
0.000100575
9.07623e-05
8.11442e-05
7.18709e-05
6.31266e-05
5.50614e-05
4.77355e-05
4.1156e-05
3.53326e-05
3.03014e-05
2.60736e-05
2.27191e-05
2.02753e-05
1.93462e-05
1.94145e-05
2.30486e-05
3.48101e-05
0.000241036
0.000244305
0.000247696
0.000250974
0.000253997
0.00025678
0.000259193
0.000261065
0.000262342
0.000262938
0.00026273
0.000261649
0.00025963
0.000256592
0.000252511
0.000247361
0.000241156
0.000233956
0.000225921
0.00021709
0.000207578
0.00019773
0.000187642
0.00017716
0.000165906
0.0001536
0.000140521
0.000127572
0.000115696
0.000105251
9.60851e-05
8.81108e-05
8.10808e-05
7.58823e-05
6.90766e-05
7.00203e-05
8.38976e-05
1.76412e-07
2.54289e-05
0.000237494
0.000234006
0.00023023
0.000225566
0.000220638
0.000215469
0.000209957
0.000204191
0.000198336
0.000192369
0.000186255
0.000180006
0.000173571
0.000166865
0.00015986
0.000152521
0.000144835
0.000136822
0.000128524
0.000120002
0.000111319
0.000102538
9.36963e-05
8.48654e-05
7.61551e-05
6.77128e-05
5.96945e-05
5.22359e-05
4.5406e-05
3.92289e-05
3.37244e-05
2.89344e-05
2.48756e-05
2.16182e-05
1.92026e-05
1.81845e-05
1.81483e-05
2.11943e-05
3.1381e-05
0.000210594
0.000213557
0.000216656
0.000219694
0.000222555
0.000225257
0.000227687
0.000229701
0.000231243
0.00023225
0.000232615
0.000232274
0.000231176
0.000229237
0.000226415
0.000222676
0.000218013
0.000212448
0.000206108
0.000199012
0.000191205
0.000182931
0.000174299
0.000165213
0.000155401
0.000144656
0.000133192
0.000121703
0.00011097
0.000101367
9.28418e-05
8.5353e-05
7.88079e-05
7.35151e-05
6.94091e-05
6.12117e-05
9.20948e-05
4.63337e-07
4.36238e-10
0.000207438
0.000204343
0.000201031
0.000197006
0.000192812
0.000188419
0.000183773
0.000178982
0.000174165
0.000169296
0.000164344
0.000159306
0.000154132
0.000148746
0.0001431
0.000137154
0.000130869
0.000124248
0.000117297
0.000110057
0.000102568
9.48775e-05
8.70335e-05
7.91227e-05
7.12702e-05
6.36086e-05
5.62819e-05
4.94088e-05
4.30621e-05
3.72797e-05
3.20902e-05
2.75396e-05
2.36521e-05
2.04989e-05
1.81221e-05
1.70274e-05
1.68956e-05
1.94203e-05
2.82036e-05
0.00018454
0.000187219
0.000190039
0.000192845
0.000195517
0.000198104
0.000200482
0.000202541
0.000204234
0.000205505
0.000206259
0.000206453
0.00020602
0.000204894
0.000203033
0.000200396
0.000196965
0.000192731
0.000187783
0.000182134
0.000175789
0.00016889
0.000161569
0.000153767
0.00014528
0.000135957
0.000125957
0.000115817
0.000106177
9.74024e-05
8.95206e-05
8.25041e-05
7.64088e-05
7.10782e-05
6.80509e-05
5.95268e-05
7.80074e-05
2.9554e-05
6.1392e-07
0.000181723
0.000178975
0.000176058
0.000172567
0.00016898
0.000165217
0.000161275
0.000157265
0.000153271
0.000149266
0.000145226
0.00014114
0.000136958
0.000132606
0.000128039
0.000123207
0.000118064
0.000112593
0.000106786
0.000100651
9.42196e-05
8.75299e-05
8.06198e-05
7.35676e-05
6.65056e-05
5.95802e-05
5.29111e-05
4.66011e-05
4.07242e-05
3.53277e-05
3.04478e-05
2.61329e-05
2.24141e-05
1.93617e-05
1.70197e-05
1.58509e-05
1.56307e-05
1.77214e-05
2.52572e-05
0.000162134
0.000164546
0.000167117
0.000169686
0.000172174
0.000174615
0.000176909
0.000178946
0.000180704
0.000182126
0.000183134
0.000183685
0.000183732
0.000183208
0.000182081
0.000180299
0.000177838
0.000174682
0.00017087
0.000166423
0.000161318
0.00015562
0.000149471
0.000142836
0.000135556
0.000127515
0.000118836
0.000109934
0.00010133
9.33629e-05
8.61176e-05
7.959e-05
7.38849e-05
6.8802e-05
6.55448e-05
5.99565e-05
6.37421e-05
5.99323e-05
7.40341e-06
0.000159616
0.00015717
0.000154592
0.000151556
0.000148463
0.000145226
0.000141859
0.000138481
0.000135144
0.000131828
0.000128508
0.000125169
0.000121767
0.000118231
0.000114519
0.000110582
0.000106367
0.000101845
9.69969e-05
9.18194e-05
8.63171e-05
8.05143e-05
7.44462e-05
6.81958e-05
6.18868e-05
5.56512e-05
4.95991e-05
4.3824e-05
3.83987e-05
3.33763e-05
2.87986e-05
2.47149e-05
2.11632e-05
1.82114e-05
1.5906e-05
1.46711e-05
1.43697e-05
1.6097e-05
2.25337e-05
0.000142778
0.000144951
0.000147287
0.000149636
0.000151936
0.000154223
0.000156399
0.000158381
0.000160142
0.000161636
0.000162798
0.000163593
0.000163981
0.000163906
0.000163327
0.000162204
0.000160502
0.000158203
0.000155306
0.000151849
0.000147791
0.000143139
0.000138021
0.000132429
0.000126234
0.000119346
0.000111857
0.000104085
9.6451e-05
8.92632e-05
8.26385e-05
7.6608e-05
7.12571e-05
6.65554e-05
6.2859e-05
5.95688e-05
5.6245e-05
6.44256e-05
3.02117e-05
0.000140527
0.000138344
0.000136063
0.000133416
0.000130726
0.000127928
0.000125039
0.000122171
0.000119364
0.000116598
0.00011385
0.000111103
0.000108316
0.000105429
0.000102399
9.91771e-05
9.57145e-05
9.19762e-05
8.79302e-05
8.35633e-05
7.88731e-05
7.38661e-05
6.85641e-05
6.30447e-05
5.74267e-05
5.18298e-05
4.63559e-05
4.10883e-05
3.60966e-05
3.14363e-05
2.71527e-05
2.32954e-05
1.99081e-05
1.70551e-05
1.47864e-05
1.34913e-05
1.31158e-05
1.45508e-05
2.00384e-05
0.000125993
0.000127953
0.000130069
0.000132213
0.000134329
0.000136458
0.000138503
0.0001404
0.000142125
0.000143637
0.000144883
0.000145834
0.000146453
0.000146694
0.000146522
0.000145899
0.000144786
0.000143163
0.000141013
0.000138376
0.000135193
0.000131439
0.000127223
0.000122553
0.000117328
0.000111467
0.000105043
9.82961e-05
9.15646e-05
8.51212e-05
7.90983e-05
7.35587e-05
6.85572e-05
6.42112e-05
6.03624e-05
5.79143e-05
5.32949e-05
5.79426e-05
4.69931e-05
0.000123979
0.000122029
0.000120007
0.00011769
0.00011534
0.000112907
0.000110417
0.000107968
0.000105591
0.000103267
0.000100973
9.86951e-05
9.6398e-05
9.4026e-05
9.154e-05
8.88936e-05
8.60392e-05
8.29431e-05
7.95692e-05
7.58926e-05
7.18983e-05
6.75899e-05
6.29794e-05
5.81267e-05
5.31372e-05
4.81298e-05
4.31963e-05
3.84078e-05
3.38294e-05
2.95166e-05
2.55174e-05
2.18804e-05
1.86538e-05
1.58978e-05
1.36666e-05
1.2319e-05
1.18765e-05
1.30778e-05
1.77551e-05
0.000111386
0.000113151
0.000115071
0.00011702
0.000118966
0.000120934
0.000122843
0.000124639
0.000126301
0.000127794
0.00012907
0.00013011
0.000130881
0.000131343
0.000131471
0.000131221
0.000130565
0.000129477
0.000127929
0.000125951
0.000123487
0.000120499
0.000117065
0.000113203
0.000108835
0.000103889
9.84118e-05
9.2591e-05
8.66933e-05
8.09542e-05
7.55119e-05
7.04483e-05
6.5807e-05
6.17535e-05
5.80164e-05
5.55698e-05
5.17722e-05
5.1428e-05
5.08441e-05
0.000109587
0.000107839
0.000106042
0.000104009
0.000101947
9.98233e-05
9.76664e-05
9.55633e-05
9.35361e-05
9.15676e-05
8.96422e-05
8.77417e-05
8.58332e-05
8.38699e-05
8.18167e-05
7.9634e-05
7.72745e-05
7.47032e-05
7.18847e-05
6.87903e-05
6.5399e-05
6.16996e-05
5.76979e-05
5.34437e-05
4.9033e-05
4.457e-05
4.0136e-05
3.57956e-05
3.16073e-05
2.76261e-05
2.39003e-05
2.04778e-05
1.74077e-05
1.47469e-05
1.25537e-05
1.11603e-05
1.06599e-05
1.16805e-05
1.56767e-05
9.86356e-05
0.000100227
0.000101964
0.000103735
0.000105518
0.000107331
0.000109105
0.000110789
0.000112372
0.000113818
0.000115092
0.000116173
0.000117038
0.000117651
0.000117989
0.000118018
0.000117707
0.000117032
0.000115962
0.000114513
0.000112643
0.000110302
0.000107539
0.00010438
0.000100763
9.66207e-05
9.19826e-05
8.69924e-05
8.18588e-05
7.67814e-05
7.18938e-05
6.72876e-05
6.30092e-05
5.92119e-05
5.56959e-05
5.3056e-05
5.01241e-05
4.71809e-05
4.8317e-05
9.70281e-05
9.54602e-05
9.38604e-05
9.20698e-05
9.02533e-05
8.83939e-05
8.65151e-05
8.46996e-05
8.29606e-05
8.1283e-05
7.96517e-05
7.80535e-05
7.64565e-05
7.48227e-05
7.31195e-05
7.13075e-05
6.93481e-05
6.72081e-05
6.48501e-05
6.22436e-05
5.93651e-05
5.61961e-05
5.2733e-05
4.90159e-05
4.51269e-05
4.11607e-05
3.71853e-05
3.32612e-05
2.94405e-05
2.57751e-05
2.23118e-05
1.90965e-05
1.61783e-05
1.36108e-05
1.14558e-05
1.00227e-05
9.4715e-06
1.03592e-05
1.37957e-05
8.74756e-05
8.89082e-05
9.04788e-05
9.20892e-05
9.37161e-05
9.53813e-05
9.70212e-05
9.85927e-05
0.000100083
0.000101467
0.000102709
0.000103799
0.000104711
0.00010542
0.000105905
0.000106136
0.000106086
0.000105728
0.000105036
0.000104014
0.000102627
0.00010083
9.86361e-05
9.60815e-05
9.31145e-05
8.96727e-05
8.57728e-05
8.1523e-05
7.70835e-05
7.26217e-05
6.82602e-05
6.40933e-05
6.01707e-05
5.662e-05
5.333e-05
5.05824e-05
4.80485e-05
4.43876e-05
4.44389e-05
8.6035e-05
8.46325e-05
8.3204e-05
8.16229e-05
8.00184e-05
7.83837e-05
7.67412e-05
7.51636e-05
7.36621e-05
7.22222e-05
7.08331e-05
6.94801e-05
6.81356e-05
6.67642e-05
6.53389e-05
6.38277e-05
6.21942e-05
6.04067e-05
5.843e-05
5.62338e-05
5.37917e-05
5.10805e-05
4.80895e-05
4.48479e-05
4.14262e-05
3.79069e-05
3.43548e-05
3.08164e-05
2.73399e-05
2.39733e-05
2.07605e-05
1.77446e-05
1.49744e-05
1.24986e-05
1.03817e-05
8.914e-06
8.31937e-06
9.11228e-06
1.20967e-05
7.76817e-05
7.89714e-05
8.03901e-05
8.18537e-05
8.33358e-05
8.48618e-05
8.63718e-05
8.78291e-05
8.92253e-05
9.05343e-05
9.17304e-05
9.28025e-05
9.37306e-05
9.44951e-05
9.50751e-05
9.54488e-05
9.559e-05
9.54746e-05
9.50781e-05
9.4392e-05
9.33984e-05
9.20458e-05
9.03292e-05
8.82881e-05
8.58829e-05
8.3051e-05
7.97979e-05
7.62034e-05
7.23905e-05
6.84945e-05
6.46275e-05
6.08787e-05
5.73003e-05
5.3998e-05
5.09116e-05
4.81727e-05
4.57188e-05
4.21057e-05
4.09045e-05
7.63902e-05
7.51346e-05
7.3857e-05
7.24582e-05
7.10374e-05
6.95944e-05
6.8154e-05
6.67777e-05
6.54735e-05
6.42305e-05
6.30381e-05
6.18825e-05
6.07401e-05
5.95831e-05
5.83853e-05
5.71165e-05
5.5747e-05
5.42482e-05
5.25876e-05
5.07331e-05
4.86591e-05
4.634e-05
4.37609e-05
4.09404e-05
3.79384e-05
3.48233e-05
3.16553e-05
2.84717e-05
2.53159e-05
2.22298e-05
1.92551e-05
1.64314e-05
1.38047e-05
1.14193e-05
9.33987e-06
7.84106e-06
7.20879e-06
7.94375e-06
1.0573e-05
6.90658e-05
7.02284e-05
7.15096e-05
7.28366e-05
7.41862e-05
7.55804e-05
7.69671e-05
7.8312e-05
7.96126e-05
8.08416e-05
8.19802e-05
8.30174e-05
8.39396e-05
8.47266e-05
8.5365e-05
8.58354e-05
8.61141e-05
8.618e-05
8.60098e-05
8.55888e-05
8.49088e-05
8.39225e-05
8.26052e-05
8.09998e-05
7.90716e-05
7.67623e-05
7.40686e-05
7.10494e-05
6.77979e-05
6.44197e-05
6.10122e-05
5.76584e-05
5.44111e-05
5.13526e-05
4.84572e-05
4.57898e-05
4.33181e-05
3.98973e-05
3.78856e-05
6.79099e-05
6.6784e-05
6.56392e-05
6.44e-05
6.31392e-05
6.18616e-05
6.05945e-05
5.93873e-05
5.82492e-05
5.71692e-05
5.61396e-05
5.51466e-05
5.41698e-05
5.31849e-05
5.21704e-05
5.11004e-05
4.99468e-05
4.86835e-05
4.72834e-05
4.57159e-05
4.39534e-05
4.19689e-05
3.97442e-05
3.72919e-05
3.46607e-05
3.19116e-05
2.90909e-05
2.62335e-05
2.3375e-05
2.05523e-05
1.78039e-05
1.51648e-05
1.2677e-05
1.03811e-05
8.33969e-06
6.8118e-06
6.14588e-06
6.85428e-06
9.2116e-06
6.14715e-05
6.25191e-05
6.36768e-05
6.48782e-05
6.61051e-05
6.73772e-05
6.86459e-05
6.98847e-05
7.10892e-05
7.2237e-05
7.33104e-05
7.43023e-05
7.52008e-05
7.59897e-05
7.66587e-05
7.71894e-05
7.75626e-05
7.7761e-05
7.77615e-05
7.75484e-05
7.71165e-05
7.64241e-05
7.54394e-05
7.4197e-05
7.26713e-05
7.08076e-05
6.85967e-05
6.60796e-05
6.33252e-05
6.04161e-05
5.74325e-05
5.44482e-05
5.15152e-05
4.86998e-05
4.59851e-05
4.3417e-05
4.09401e-05
3.76738e-05
3.52126e-05
6.04373e-05
5.94278e-05
5.84007e-05
5.73005e-05
5.61796e-05
5.50452e-05
5.39267e-05
5.28652e-05
5.18672e-05
5.09234e-05
5.00277e-05
4.91688e-05
4.83282e-05
4.74848e-05
4.6619e-05
4.571e-05
4.47329e-05
4.36658e-05
4.24805e-05
4.11508e-05
3.96509e-05
3.7953e-05
3.60352e-05
3.39059e-05
3.16029e-05
2.91787e-05
2.66722e-05
2.41117e-05
2.15269e-05
1.89507e-05
1.64157e-05
1.39535e-05
1.16013e-05
9.3944e-06
7.39112e-06
5.8342e-06
5.13613e-06
5.84707e-06
8.00423e-06
5.47659e-05
5.57087e-05
5.67551e-05
5.78414e-05
5.89558e-05
6.01149e-05
6.1273e-05
6.24113e-05
6.35214e-05
6.45881e-05
6.55931e-05
6.65326e-05
6.73946e-05
6.81697e-05
6.88464e-05
6.94103e-05
6.9847e-05
7.01379e-05
7.02663e-05
7.02131e-05
6.99767e-05
6.95177e-05
6.88047e-05
6.78617e-05
6.66724e-05
6.51869e-05
6.33888e-05
6.13069e-05
5.899e-05
5.65007e-05
5.39052e-05
5.12658e-05
4.86264e-05
4.60488e-05
4.35133e-05
4.10559e-05
3.86066e-05
3.54631e-05
3.27617e-05
5.38389e-05
5.29343e-05
5.20131e-05
5.10341e-05
5.00362e-05
4.9028e-05
4.80371e-05
4.71001e-05
4.6221e-05
4.53921e-05
4.46085e-05
4.38604e-05
4.31315e-05
4.24047e-05
4.16624e-05
4.08856e-05
4.00537e-05
3.91461e-05
3.81395e-05
3.70089e-05
3.57291e-05
3.42743e-05
3.26211e-05
3.07724e-05
2.87589e-05
2.66237e-05
2.43992e-05
2.21088e-05
1.97765e-05
1.74301e-05
1.50972e-05
1.2805e-05
1.05859e-05
8.46869e-06
6.50469e-06
4.91679e-06
4.18367e-06
4.92516e-06
6.94102e-06
4.88338e-05
4.96832e-05
5.06271e-05
5.16098e-05
5.26204e-05
5.36741e-05
5.47307e-05
5.57726e-05
5.67932e-05
5.7779e-05
5.87152e-05
5.95974e-05
6.0418e-05
6.11673e-05
6.18368e-05
6.24152e-05
6.28888e-05
6.32429e-05
6.34629e-05
6.35302e-05
6.34429e-05
6.31684e-05
6.26738e-05
6.19788e-05
6.10675e-05
5.98967e-05
5.84485e-05
5.67406e-05
5.48062e-05
5.26906e-05
5.04458e-05
4.81243e-05
4.57633e-05
4.34099e-05
4.10552e-05
3.87112e-05
3.63186e-05
3.3294e-05
3.04743e-05
4.80025e-05
4.71928e-05
4.63665e-05
4.5493e-05
4.4604e-05
4.3707e-05
4.28271e-05
4.19973e-05
4.12198e-05
4.0489e-05
3.98003e-05
3.91447e-05
3.8509e-05
3.78777e-05
3.72371e-05
3.65697e-05
3.58574e-05
3.50824e-05
3.42239e-05
3.32595e-05
3.21661e-05
3.09176e-05
2.94912e-05
2.7886e-05
2.61254e-05
2.42471e-05
2.22758e-05
2.02305e-05
1.813e-05
1.59971e-05
1.38554e-05
1.17266e-05
9.6384e-06
7.6127e-06
5.69112e-06
4.06922e-06
3.29257e-06
4.09419e-06
6.01443e-06
4.35779e-05
4.43436e-05
4.51944e-05
4.60828e-05
4.69988e-05
4.79548e-05
4.89176e-05
4.9869e-05
5.08054e-05
5.17132e-05
5.25813e-05
5.34051e-05
5.41789e-05
5.4894e-05
5.55454e-05
5.61214e-05
5.66135e-05
5.70081e-05
5.72916e-05
5.74469e-05
5.74727e-05
5.73411e-05
5.70215e-05
5.65261e-05
5.58431e-05
5.49342e-05
5.37806e-05
5.23907e-05
5.07869e-05
4.90007e-05
4.70711e-05
4.50391e-05
4.29367e-05
4.08e-05
3.86204e-05
3.63992e-05
3.40835e-05
3.11897e-05
2.83354e-05
4.28328e-05
4.21077e-05
4.13671e-05
4.05863e-05
3.97939e-05
3.89948e-05
3.82122e-05
3.74751e-05
3.67857e-05
3.61382e-05
3.55296e-05
3.49531e-05
3.43959e-05
3.38443e-05
3.32877e-05
3.27105e-05
3.20975e-05
3.14333e-05
3.06986e-05
2.98731e-05
2.89361e-05
2.78628e-05
2.66308e-05
2.52369e-05
2.36991e-05
2.20471e-05
2.03025e-05
1.84784e-05
1.65903e-05
1.46558e-05
1.26945e-05
1.07236e-05
8.76532e-06
6.83537e-06
4.96246e-06
3.30408e-06
2.46614e-06
3.36183e-06
5.21821e-06
3.89153e-05
3.96047e-05
4.03718e-05
4.11739e-05
4.20033e-05
4.28709e-05
4.37458e-05
4.46134e-05
4.54705e-05
4.63041e-05
4.71052e-05
4.78704e-05
4.85946e-05
4.92712e-05
4.9896e-05
5.04609e-05
5.09567e-05
5.13724e-05
5.16964e-05
5.19145e-05
5.20239e-05
5.20016e-05
5.182e-05
5.14846e-05
5.09858e-05
5.02921e-05
4.93841e-05
4.8263e-05
4.69427e-05
4.54442e-05
4.37949e-05
4.20263e-05
4.01618e-05
3.82301e-05
3.62219e-05
3.41319e-05
3.19071e-05
2.91531e-05
2.63323e-05
3.82473e-05
3.75976e-05
3.6934e-05
3.62362e-05
3.55289e-05
3.48163e-05
3.41195e-05
3.34633e-05
3.28502e-05
3.22747e-05
3.17356e-05
3.12249e-05
3.07335e-05
3.02504e-05
2.97645e-05
2.9263e-05
2.87325e-05
2.81601e-05
2.75287e-05
2.682e-05
2.6015e-05
2.50914e-05
2.40263e-05
2.28144e-05
2.14712e-05
2.00197e-05
1.84773e-05
1.68534e-05
1.51595e-05
1.34095e-05
1.16185e-05
9.80094e-06
7.97275e-06
6.14449e-06
4.33079e-06
2.63874e-06
1.70566e-06
2.74012e-06
4.54632e-06
3.47733e-05
3.53941e-05
3.6085e-05
3.6809e-05
3.75592e-05
3.83452e-05
3.91396e-05
3.99292e-05
4.07119e-05
4.14751e-05
4.22121e-05
4.29197e-05
4.35938e-05
4.42295e-05
4.4823e-05
4.53677e-05
4.58562e-05
4.62792e-05
4.66277e-05
4.68888e-05
4.70577e-05
4.71171e-05
4.70411e-05
4.68315e-05
4.64806e-05
4.5962e-05
4.52561e-05
4.43607e-05
4.3282e-05
4.20323e-05
4.063e-05
3.90976e-05
3.74525e-05
3.5713e-05
3.38717e-05
3.19148e-05
2.97977e-05
2.71956e-05
2.44551e-05
3.41745e-05
3.35928e-05
3.29979e-05
3.23741e-05
3.17426e-05
3.11069e-05
3.04857e-05
2.9901e-05
2.93545e-05
2.88417e-05
2.83617e-05
2.79087e-05
2.74738e-05
2.70476e-05
2.66212e-05
2.61834e-05
2.5723e-05
2.52278e-05
2.4683e-05
2.40732e-05
2.33803e-05
2.25834e-05
2.16615e-05
2.06079e-05
1.94341e-05
1.81598e-05
1.67975e-05
1.53541e-05
1.38377e-05
1.22594e-05
1.06302e-05
8.96092e-06
7.26397e-06
5.5454e-06
3.80753e-06
2.10014e-06
1.01358e-06
2.24611e-06
3.99381e-06
3.10896e-05
3.16483e-05
3.227e-05
3.29234e-05
3.36013e-05
3.43128e-05
3.50333e-05
3.57512e-05
3.64641e-05
3.71619e-05
3.78379e-05
3.84898e-05
3.91141e-05
3.97072e-05
4.02659e-05
4.07854e-05
4.12593e-05
4.16804e-05
4.20401e-05
4.23268e-05
4.25359e-05
4.26542e-05
4.26587e-05
4.25463e-05
4.23122e-05
4.19337e-05
4.13933e-05
4.0685e-05
3.981e-05
3.87741e-05
3.75881e-05
3.62665e-05