/*--------------------------------*- C++ -*----------------------------------*\
| =========                 |                                                 |
| \\      /  F ield         | OpenFOAM: The Open Source CFD Toolbox           |
|  \\    /   O peration     | Version:  2206                                  |
|   \\  /    A nd           | Website:  www.openfoam.com                      |
|    \\/     M anipulation  |                                                 |
\*---------------------------------------------------------------------------*/
FoamFile
{
    version     2.0;
    format      ascii;
    arch        "LSB;label=32;scalar=64";
    class       volVectorField;
    location    "400";
    object      momentError;
}
// * * * * * * * * * * * * * * * * * * * * * * * * * * * * * * * * * * * * * //

dimensions      [0 1 -2 0 0 0 0];

internalField   nonuniform List<vector> 
10720
(
(9.50671e-06 0.000180285 -4.16093e-15)
(3.90931e-05 0.000136922 -2.46499e-15)
(8.01365e-05 -5.27933e-05 -2.15845e-14)
(4.79299e-05 -4.127e-05 9.99153e-14)
(3.19778e-05 -6.25734e-05 7.47322e-14)
(1.45128e-05 -7.84243e-05 -1.85119e-13)
(-5.57754e-06 -9.96894e-05 -1.39561e-13)
(-2.53938e-05 -0.000113871 -1.07605e-13)
(-4.58211e-05 -0.000119682 2.15489e-14)
(-6.38671e-05 -0.000120563 5.47612e-15)
(-7.67301e-05 -0.000113376 -1.55953e-14)
(-9.55445e-05 -0.000116325 6.73758e-14)
(-0.000108259 -0.000110689 -2.19364e-13)
(-0.000119899 -0.000108094 -4.01235e-13)
(-0.000134537 -0.000110377 7.43284e-14)
(-0.000151396 -0.000115528 -1.06086e-13)
(-0.000204698 -0.000133793 1.15543e-13)
(-0.00026837 -0.000151692 8.86573e-13)
(-0.000274685 -0.000138598 2.34707e-13)
(-0.000665641 -0.000226557 -4.66658e-13)
(-0.00110689 -0.000339742 -2.31245e-13)
(-0.00095839 -0.000712531 9.5875e-14)
(-0.00472258 -0.00137302 3.38088e-13)
(-0.0192192 -0.0030477 -2.47237e-13)
(-0.0261523 -0.00554634 4.59093e-14)
(-0.00648307 -0.00416491 -4.01633e-14)
(0.0104744 -0.000733418 -6.94603e-14)
(0.0121957 0.00179451 1.3129e-14)
(0.0057782 0.00230407 1.00926e-14)
(-1.30718e-06 0.00166981 2.09897e-13)
(-0.00382219 0.000866708 1.5502e-13)
(-0.00388686 0.000386845 -1.77283e-13)
(-0.00077047 -3.3229e-05 -1.33396e-13)
(0.000620248 -0.000162169 -2.39295e-13)
(0.000758495 -3.61185e-05 -1.59705e-13)
(3.58238e-05 0.00121021 1.54549e-13)
(0.00139457 0.0114661 -1.08658e-14)
(0.0531045 0.0721068 -5.77663e-16)
(1.09153 -0.12024 -6.35192e-14)
(1.06467e-05 0.000155252 8.10913e-15)
(4.41063e-06 0.000142038 -2.00083e-14)
(2.05559e-05 0.000122528 2.29203e-14)
(2.76085e-05 0.000117571 1.04293e-13)
(3.53414e-05 0.000110746 3.60746e-14)
(-2.28085e-05 0.000161776 -2.84893e-13)
(-3.09529e-05 0.000135395 -1.55795e-13)
(-9.89163e-05 0.000181998 1.61066e-13)
(-0.00011953 0.000110521 -6.37561e-14)
(-9.26004e-05 5.91101e-05 5.91478e-14)
(-4.60549e-05 -7.03597e-06 -8.07544e-14)
(1.6464e-05 -4.0386e-05 -1.38034e-13)
(4.03061e-05 -4.37545e-05 3.60444e-14)
(5.316e-05 -4.0831e-05 7.11213e-14)
(5.93397e-05 -3.57582e-05 -1.17393e-13)
(6.12231e-05 -3.015e-05 -1.01456e-13)
(5.99709e-05 -2.49351e-05 -7.23975e-14)
(5.71036e-05 -2.05407e-05 -8.85834e-14)
(5.3724e-05 -1.71255e-05 -3.26374e-14)
(5.02257e-05 -1.43837e-05 -2.83419e-15)
(4.68403e-05 -1.25009e-05 3.10517e-14)
(4.39146e-05 -1.09789e-05 6.26776e-14)
(4.15654e-05 -1.03007e-05 -2.99155e-14)
(4.12062e-05 -9.63423e-06 -2.12858e-14)
(4.24247e-05 -8.45915e-06 2.58179e-14)
(4.34371e-05 -6.64902e-06 -4.02067e-15)
(4.40509e-05 -5.02341e-06 -9.91148e-16)
(4.44012e-05 -5.34887e-06 -2.05134e-15)
(4.42381e-05 -4.65912e-06 4.71591e-16)
(4.18786e-05 -4.10167e-06 1.09804e-16)
(4.21959e-05 -2.29792e-06 4.97826e-16)
(5.31115e-05 -1.03998e-06 -1.3295e-15)
(8.2634e-05 2.7249e-06 -2.52112e-15)
(6.6641e-05 4.75512e-06 -4.07269e-15)
(1.17832e-05 -7.22022e-07 -5.36127e-15)
(0.000196882 2.06393e-05 -2.34834e-15)
(0.000221451 5.65617e-06 1.28088e-14)
(0.000406538 -0.000155518 -3.38229e-15)
(0.00190375 -0.00152413 -5.83465e-14)
(0.000153642 6.26016e-05 -3.87953e-15)
(0.000173963 1.84674e-05 2.20517e-15)
(0.000179923 -0.000115673 -2.05116e-17)
(0.000156951 -0.000112709 -7.5592e-15)
(0.000141406 -0.000118836 9.99722e-15)
(0.000127273 -0.00013457 6.71978e-14)
(0.000108458 -0.000147346 8.02701e-14)
(9.01784e-05 -0.000150446 2.64618e-14)
(6.97326e-05 -0.000150542 -8.61514e-14)
(5.25877e-05 -0.000143508 -4.18872e-14)
(3.68454e-05 -0.00013488 -2.56347e-13)
(3.07951e-05 -0.000105936 -4.7214e-13)
(3.11441e-05 -7.91821e-05 -2.36367e-14)
(3.7788e-05 -5.48324e-05 -2.07029e-14)
(3.82134e-05 -2.63261e-05 -8.27851e-14)
(4.67511e-05 -7.44227e-07 8.65153e-14)
(1.64722e-05 3.04962e-05 3.88937e-13)
(1.7177e-05 4.25428e-05 -6.8735e-13)
(0.000653209 -9.37174e-05 -5.72201e-13)
(-0.000935892 0.000208323 -3.58388e-13)
(0.0136132 -0.00358596 2.15281e-13)
(-0.00197985 0.00107057 2.96334e-13)
(-0.0608221 -0.0226007 -3.8572e-13)
(-0.00555274 -0.00323797 5.93685e-14)
(0.0561271 0.00188991 -2.10278e-15)
(0.0781928 0.00766116 -1.16444e-14)
(0.0459109 0.00856893 -4.08334e-15)
(-0.00563697 0.00472951 1.23245e-14)
(-0.0143036 0.00285073 -2.74915e-14)
(-0.00593645 0.00194293 -1.02218e-14)
(-0.00461574 0.000496097 9.33513e-15)
(-0.00212423 -0.000394643 -5.55788e-15)
(-0.000992415 -0.000465068 -1.14721e-13)
(0.000311831 -0.000368321 -7.19282e-14)
(0.000961794 -0.000219931 1.60268e-13)
(0.000480587 0.000208352 2.84512e-14)
(-0.00046742 0.0021356 6.35421e-14)
(-0.0315304 0.0142645 -1.17506e-14)
(-0.892667 0.108726 -3.26043e-14)
(0.000147699 6.39487e-05 -1.63937e-14)
(0.000143113 5.89512e-05 1.50207e-13)
(0.000138217 6.59509e-05 -4.7148e-14)
(0.000132868 8.41913e-05 -1.15849e-13)
(0.000112348 0.000106424 8.28567e-14)
(7.13343e-05 0.000126679 6.69343e-14)
(4.08215e-05 0.000123388 2.90909e-14)
(-9.94138e-06 0.000123066 1.54085e-13)
(-4.88513e-05 7.11317e-05 -2.99405e-15)
(-5.05274e-05 2.27188e-05 -4.39997e-14)
(-2.92126e-05 -2.45385e-05 7.29925e-14)
(4.93806e-06 -4.50819e-05 -9.49627e-14)
(2.6144e-05 -4.87114e-05 1.99597e-14)
(3.94343e-05 -4.6967e-05 1.04082e-14)
(4.74625e-05 -4.24158e-05 2.46884e-14)
(5.12397e-05 -3.64537e-05 2.76952e-14)
(5.18902e-05 -3.05839e-05 4.69668e-14)
(5.04414e-05 -2.55003e-05 -1.40527e-14)
(4.81331e-05 -2.13707e-05 3.03485e-15)
(4.53189e-05 -1.82406e-05 -7.01878e-15)
(4.25699e-05 -1.57903e-05 1.82706e-14)
(4.00127e-05 -1.40667e-05 5.30079e-14)
(3.82056e-05 -1.28518e-05 -8.85943e-16)
(3.7885e-05 -1.2492e-05 -1.76476e-14)
(3.91362e-05 -1.12442e-05 -1.49691e-14)
(4.03512e-05 -9.50266e-06 2.14083e-14)
(4.15622e-05 -7.56536e-06 6.1547e-15)
(4.31427e-05 -5.52499e-06 -1.60835e-15)
(4.35423e-05 -3.20856e-06 4.65889e-17)
(4.23742e-05 -9.42414e-07 -1.06149e-16)
(4.32805e-05 -9.37368e-07 -1.99657e-16)
(4.90126e-05 1.26383e-06 -4.30428e-16)
(4.98385e-05 3.41023e-06 2.17615e-15)
(4.26008e-05 1.53526e-06 2.41753e-15)
(6.29758e-05 -4.04131e-06 2.74984e-15)
(0.00010247 9.09999e-06 -7.42693e-15)
(0.000177824 2.87949e-05 7.85899e-16)
(0.000104187 3.29777e-06 1.33742e-14)
(0.00137225 0.000171642 1.57993e-14)
(8.57917e-05 2.08325e-05 2.1028e-15)
(9.13491e-05 -1.61141e-05 -1.43474e-15)
(8.72676e-05 -0.000108676 -2.62739e-15)
(6.38222e-05 -0.000106258 1.35774e-15)
(5.10973e-05 -0.000107778 5.77421e-14)
(3.59781e-05 -0.000122253 -6.42716e-14)
(2.06363e-05 -0.000128178 -8.81757e-14)
(5.6264e-06 -0.000128721 1.60613e-13)
(-9.98607e-06 -0.000126821 6.5611e-14)
(-2.29285e-05 -0.000122424 8.88349e-14)
(-3.23044e-05 -0.000114454 2.04931e-14)
(-3.9496e-05 -0.000107936 -7.65907e-16)
(-4.31413e-05 -0.000100692 3.55632e-13)
(-4.18674e-05 -9.27853e-05 1.2017e-14)
(-3.02249e-05 -8.86326e-05 2.16429e-13)
(-1.17452e-05 -8.91117e-05 1.20401e-15)
(1.93171e-05 -9.83586e-05 -6.83819e-13)
(7.16896e-05 3.76436e-05 4.11915e-13)
(-0.00027004 0.000175403 9.19856e-13)
(-0.000289526 0.00239599 1.65781e-13)
(-0.00739228 0.0112778 -2.66422e-14)
(0.000825671 -0.000253094 -6.79464e-14)
(0.096657 0.0504142 1.64832e-13)
(0.00525825 -0.00215677 1.19028e-13)
(0.00986099 -0.00338326 -9.77458e-14)
(-0.00589516 -0.00127259 -2.18472e-14)
(-0.0499246 -0.00214525 -5.62719e-14)
(-0.0744328 -0.00140956 3.08544e-14)
(-0.024287 0.000971321 -2.82693e-14)
(-0.00839811 0.00125087 -1.56281e-13)
(-0.0026359 -0.000809481 -7.78645e-15)
(0.00451996 -0.00156741 2.3731e-13)
(0.00294598 -0.00138681 3.59788e-14)
(0.00174701 -0.000865754 1.12192e-13)
(0.00089818 -0.000331064 1.33271e-13)
(-0.00021731 0.000156303 2.20501e-14)
(-0.00225071 0.00122745 -8.48608e-14)
(-0.0161594 0.00209442 8.4853e-15)
(-0.113233 0.00979466 1.56877e-14)
(9.32203e-05 3.01329e-05 2.43134e-14)
(0.000100081 2.98045e-05 -3.70471e-14)
(0.00010845 3.75601e-05 -4.65106e-14)
(0.00010946 5.60894e-05 -1.31007e-14)
(0.000100759 7.47788e-05 1.1287e-14)
(8.1777e-05 8.73439e-05 -1.20767e-13)
(6.10568e-05 8.65273e-05 2.34737e-14)
(2.43906e-05 7.92682e-05 -1.49195e-13)
(-8.90541e-06 4.75159e-05 -1.2496e-13)
(-1.92508e-05 1.39061e-05 -1.15754e-13)
(-8.77234e-06 -1.58833e-05 1.18262e-13)
(1.05776e-05 -3.14016e-05 1.03767e-13)
(2.65381e-05 -3.68934e-05 -6.46438e-14)
(3.77347e-05 -3.7366e-05 -1.48448e-13)
(4.4957e-05 -3.48997e-05 4.05276e-14)
(4.88087e-05 -3.06448e-05 6.98167e-14)
(4.99614e-05 -2.61457e-05 -1.89662e-14)
(4.90994e-05 -2.20809e-05 -9.26358e-14)
(4.72054e-05 -1.86737e-05 -2.68353e-14)
(4.47499e-05 -1.59456e-05 2.52984e-15)
(4.22091e-05 -1.39601e-05 -2.0701e-14)
(3.97752e-05 -1.26097e-05 -4.1392e-14)
(3.80009e-05 -1.20067e-05 9.12867e-15)
(3.76026e-05 -1.16446e-05 -6.39723e-16)
(3.86303e-05 -1.03395e-05 2.87543e-15)
(3.97037e-05 -8.50203e-06 -9.68778e-15)
(4.05125e-05 -6.64883e-06 -1.78534e-14)
(4.17431e-05 -5.25402e-06 3.97401e-15)
(4.23552e-05 -3.56573e-06 7.5349e-16)
(4.12654e-05 -3.00988e-06 -1.713e-16)
(4.14993e-05 -1.65074e-06 1.19202e-16)
(4.89627e-05 -8.10857e-07 4.71225e-16)
(6.46589e-05 3.73327e-06 -7.56783e-16)
(5.9138e-05 9.0468e-06 -1.4323e-15)
(5.4564e-05 1.67283e-05 6.41936e-16)
(0.000204399 3.5798e-05 -1.15942e-15)
(0.000117331 3.25721e-06 8.74915e-15)
(0.000184848 7.58945e-05 8.12913e-15)
(0.00105297 0.000190258 -8.31847e-14)
(0.000101512 -1.44381e-05 1.05194e-14)
(0.000101894 -5.05702e-05 2.79079e-15)
(9.19055e-05 -0.000116031 1.0752e-15)
(7.57654e-05 -0.000118838 -6.51952e-15)
(6.59759e-05 -0.000122262 1.03413e-15)
(5.09272e-05 -0.000135404 -1.45221e-14)
(3.6751e-05 -0.000140426 1.04185e-13)
(2.2251e-05 -0.000138717 3.08576e-14)
(7.80903e-06 -0.000136591 -2.52685e-13)
(-4.26992e-06 -0.000131619 8.50902e-14)
(-1.32371e-05 -0.000123297 2.72084e-13)
(-2.05709e-05 -0.00011438 3.41575e-13)
(-2.49876e-05 -0.000101722 7.87846e-14)
(-2.62515e-05 -8.77713e-05 -3.85238e-13)
(-2.70582e-05 -7.33746e-05 -9.78807e-14)
(-3.37466e-05 -5.52652e-05 -9.90238e-14)
(-3.21161e-05 -3.49266e-05 -1.7903e-13)
(-6.47426e-05 5.29515e-06 -3.6212e-13)
(-3.09222e-06 -0.000165663 -6.29133e-13)
(0.000243701 0.000164281 1.59051e-13)
(-0.00456702 -0.00650045 -1.26896e-13)
(0.00113239 0.00157051 -1.78369e-13)
(-0.0473085 -0.0254437 2.43713e-15)
(-0.0013169 -0.00252328 -2.52322e-13)
(-0.00986719 -0.00157189 -4.64053e-14)
(-0.00624335 -0.000802853 4.39836e-14)
(-0.00550383 0.00930498 5.28166e-14)
(0.0957085 -0.002434 -2.40935e-14)
(-0.0374473 0.00146359 3.35189e-14)
(-0.0570962 0.00495332 6.48404e-14)
(0.019456 -0.00563777 -5.63501e-14)
(0.0136785 -0.00191695 1.21545e-14)
(0.0115758 -0.00207615 1.7746e-13)
(0.00524264 -0.000919793 8.07525e-14)
(0.000780207 -0.000200082 -3.26382e-14)
(-0.000970002 0.000258896 -1.08666e-13)
(-0.00171972 0.00072525 -2.72123e-14)
(-0.00682211 -7.05998e-05 -1.9716e-14)
(-0.0337271 0.00910203 5.50592e-14)
(0.000107808 -3.32607e-06 -1.74214e-15)
(0.000111286 1.61993e-06 -3.89805e-14)
(0.000112483 1.31666e-05 -3.45707e-14)
(0.000108402 3.24692e-05 -2.81679e-14)
(9.81602e-05 4.91002e-05 1.13971e-13)
(8.35591e-05 5.8577e-05 2.05741e-13)
(6.45398e-05 6.03139e-05 1.17494e-14)
(3.49747e-05 5.57155e-05 1.41483e-13)
(1.19703e-05 3.48002e-05 5.35995e-16)
(2.00525e-06 1.05138e-05 -3.11184e-14)
(6.26288e-06 -1.20119e-05 -9.01097e-14)
(1.64179e-05 -2.5764e-05 -2.98119e-14)
(2.72952e-05 -3.23904e-05 -1.54225e-14)
(3.6e-05 -3.41728e-05 7.44051e-14)
(4.209e-05 -3.29746e-05 -3.90149e-14)
(4.57046e-05 -2.99728e-05 -1.3229e-13)
(4.71787e-05 -2.62773e-05 -1.6807e-14)
(4.68056e-05 -2.2604e-05 8.63531e-14)
(4.53714e-05 -1.94467e-05 -2.61242e-15)
(4.3313e-05 -1.67984e-05 -2.43509e-14)
(4.10858e-05 -1.47962e-05 -6.56387e-14)
(3.89122e-05 -1.32945e-05 2.67981e-14)
(3.73251e-05 -1.2505e-05 3.5215e-14)
(3.69706e-05 -1.19758e-05 -6.07081e-15)
(3.78844e-05 -1.0757e-05 -2.76233e-15)
(3.89829e-05 -9.0312e-06 6.02175e-15)
(3.98503e-05 -7.30898e-06 8.65951e-15)
(4.10974e-05 -5.88047e-06 -2.03033e-15)
(4.17449e-05 -4.14232e-06 -7.46281e-16)
(4.08645e-05 -2.84609e-06 1.85038e-16)
(4.07049e-05 -2.68487e-06 -1.01421e-16)
(4.64607e-05 -6.21725e-06 -1.6531e-16)
(4.82947e-05 -4.88118e-05 6.50347e-17)
(-1.4322e-05 -0.000228439 -2.6177e-16)
(0.000113116 0.000278013 -2.03131e-15)
(-0.000267341 -0.00108187 1.47356e-14)
(0.000683488 0.00194081 -2.20948e-14)
(0.000182596 -0.000339987 -5.54814e-14)
(0.000903039 0.000217213 -3.03393e-14)
(8.07901e-05 -3.19256e-05 -8.9277e-15)
(7.40421e-05 -6.24e-05 4.80227e-15)
(6.09584e-05 -0.00011193 4.18996e-15)
(4.68655e-05 -0.000114315 -1.73958e-14)
(3.55348e-05 -0.000116295 -1.48374e-14)
(2.00838e-05 -0.000125775 3.5227e-14)
(4.84409e-06 -0.000126395 -1.29234e-14)
(-9.41754e-06 -0.000121878 1.36912e-14)
(-2.30018e-05 -0.000118179 -9.40589e-14)
(-3.37447e-05 -0.000111537 -2.87264e-13)
(-4.15458e-05 -0.000102409 -1.03063e-14)
(-4.7508e-05 -9.2749e-05 -1.25278e-13)
(-5.02863e-05 -8.1612e-05 -8.11741e-14)
(-5.01861e-05 -7.11652e-05 -1.43819e-14)
(-4.69314e-05 -6.31125e-05 -3.30096e-13)
(-4.09509e-05 -5.99189e-05 2.99775e-13)
(-2.91962e-05 -5.64827e-05 1.71945e-13)
(-2.41013e-05 -4.56749e-05 -3.86694e-13)
(1.05321e-05 -9.41155e-06 1.22221e-13)
(2.13305e-05 -2.00769e-05 -2.00975e-13)
(-3.63785e-05 -0.000206375 -1.39519e-13)
(0.000449211 2.08068e-05 2.51196e-13)
(0.000957484 -0.000139414 6.0912e-15)
(0.000569813 -0.00209805 2.21505e-13)
(0.000984391 -0.00373789 1.01111e-13)
(-0.00525121 0.000410909 -2.0469e-14)
(0.018223 0.00233984 6.24726e-15)
(-0.0487916 0.0124482 2.47232e-14)
(0.016512 -0.00549266 -3.01273e-14)
(0.00636183 -0.00282454 -5.40569e-14)
(0.0065057 0.00189705 2.18191e-14)
(-0.00282331 -0.00320193 -5.2762e-14)
(0.00901054 -0.000966507 -3.99973e-14)
(0.00552977 -0.000497333 -1.49108e-13)
(0.00138309 5.25546e-05 -2.39487e-13)
(-0.00186391 0.000388577 4.13576e-14)
(-0.00171841 0.000575686 -1.05412e-14)
(-0.00424554 -0.000451141 -9.3311e-15)
(-0.0204304 0.00938832 -1.94196e-14)
(8.74161e-05 -2.05008e-05 2.0044e-14)
(9.47305e-05 -1.40973e-05 3.82118e-14)
(9.76407e-05 -3.59095e-06 -5.04889e-14)
(9.56059e-05 1.46488e-05 -1.94964e-14)
(8.85207e-05 2.9142e-05 7.47184e-14)
(7.82629e-05 3.80054e-05 -1.50772e-13)
(6.26334e-05 4.24727e-05 -9.96702e-14)
(4.0514e-05 3.85138e-05 2.05194e-13)
(2.3739e-05 2.3744e-05 1.92426e-13)
(1.5904e-05 6.6352e-06 -8.41538e-15)
(1.71715e-05 -9.39292e-06 -5.58726e-14)
(2.27308e-05 -2.02122e-05 -3.47738e-14)
(2.98905e-05 -2.62058e-05 1.17142e-13)
(3.63815e-05 -2.83958e-05 -5.81125e-14)
(4.12413e-05 -2.79988e-05 -1.3047e-14)
(4.43229e-05 -2.58976e-05 9.83205e-14)
(4.57976e-05 -2.3107e-05 -4.4403e-14)
(4.56653e-05 -2.00432e-05 4.07386e-14)
(4.45703e-05 -1.72917e-05 2.43684e-14)
(4.27915e-05 -1.49195e-05 4.24636e-15)
(4.07954e-05 -1.31959e-05 6.83438e-14)
(3.8799e-05 -1.19005e-05 -2.56249e-14)
(3.73034e-05 -1.13151e-05 -4.7724e-14)
(3.68781e-05 -1.08896e-05 -7.62213e-15)
(3.76406e-05 -9.8986e-06 1.90808e-14)
(3.86824e-05 -8.24937e-06 6.49138e-16)
(3.9606e-05 -6.47821e-06 9.25361e-15)
(4.08847e-05 -4.92933e-06 -1.73579e-15)
(4.15957e-05 -3.16735e-06 1.12324e-16)
(4.0734e-05 -2.42813e-06 -2.76165e-16)
(4.05747e-05 -1.55521e-06 -5.07167e-16)
(4.80312e-05 7.78181e-06 4.14254e-17)
(6.5985e-05 7.77075e-05 3.84365e-17)
(8.43275e-05 0.000314509 4.79783e-16)
(-2.02897e-05 -0.000458648 -1.39274e-15)
(0.000329954 0.00125878 5.36533e-15)
(0.000210685 -0.00252438 1.73438e-15)
(0.00010132 0.000527614 -1.14578e-14)
(0.000885977 0.000116633 4.31167e-14)
(7.399e-05 -4.59645e-05 2.18001e-15)
(6.74435e-05 -7.13365e-05 -4.30828e-16)
(5.37043e-05 -0.000109394 2.42882e-15)
(4.27764e-05 -0.000114568 -3.35109e-15)
(3.17527e-05 -0.000116818 1.12897e-14)
(1.68501e-05 -0.000124597 -1.49622e-15)
(2.6483e-06 -0.000124877 -4.2021e-14)
(-1.03448e-05 -0.000120846 7.85318e-14)
(-2.25572e-05 -0.000117907 1.69724e-13)
(-3.20554e-05 -0.000112011 -1.05787e-13)
(-3.89033e-05 -0.000104021 -1.08078e-13)
(-4.39031e-05 -9.57528e-05 6.48633e-14)
(-4.61074e-05 -8.64493e-05 -1.49791e-13)
(-4.57547e-05 -7.74396e-05 -2.84999e-14)
(-4.34501e-05 -7.02236e-05 -4.61246e-14)
(-4.10089e-05 -6.27416e-05 1.98241e-14)
(-3.90705e-05 -4.8567e-05 4.02797e-14)
(-2.81539e-05 -4.11857e-05 4.46982e-13)
(-8.92391e-06 -4.17034e-05 3.53052e-13)
(1.60091e-05 -7.51879e-05 -1.57619e-13)
(1.83052e-05 -0.000116106 2.26013e-13)
(0.000121354 -4.61693e-05 1.87443e-14)
(0.00053394 -0.000451546 -5.70799e-14)
(0.000443294 -0.00211269 -1.18264e-13)
(-0.00169049 -0.00316525 9.30048e-15)
(-0.00465925 -0.00067833 3.23161e-14)
(-0.00984993 0.00438545 4.00203e-14)
(0.000983242 0.00505906 -3.78605e-14)
(0.0135379 0.00148093 9.83871e-15)
(0.0329463 -0.00526803 7.59869e-14)
(-0.0215612 -0.00013829 -2.97424e-14)
(-0.00155878 -0.00205662 -1.67231e-13)
(-0.00395083 -0.000173117 -8.93894e-14)
(0.00100677 0.000160848 -6.14233e-14)
(0.000894002 0.000235127 6.35034e-14)
(-0.00103728 -0.000103568 5.72915e-14)
(-0.0017484 0.000664701 5.81228e-14)
(-0.00395798 -0.000307212 6.38932e-14)
(-0.0173199 0.00992081 -1.02226e-15)
(8.08315e-05 -3.47382e-05 -9.13893e-15)
(8.67065e-05 -2.66274e-05 -1.05374e-14)
(8.82675e-05 -1.62197e-05 2.56521e-15)
(8.6465e-05 1.10593e-06 3.37494e-14)
(8.09923e-05 1.43097e-05 2.23688e-14)
(7.32451e-05 2.18101e-05 -1.94163e-13)
(6.0288e-05 2.74123e-05 -1.16773e-13)
(4.37767e-05 2.53649e-05 -1.8451e-13)
(3.16392e-05 1.53066e-05 2.24461e-14)
(2.55945e-05 3.109e-06 2.06536e-14)
(2.53921e-05 -8.34603e-06 -5.19207e-14)
(2.83422e-05 -1.67571e-05 4.96175e-15)
(3.27923e-05 -2.19663e-05 -2.45833e-14)
(3.73126e-05 -2.43737e-05 -4.58441e-14)
(4.08986e-05 -2.46895e-05 -1.42141e-13)
(4.32985e-05 -2.3455e-05 -1.19728e-14)
(4.45379e-05 -2.14528e-05 8.6315e-14)
(4.44834e-05 -1.90467e-05 -1.33704e-14)
(4.35758e-05 -1.67478e-05 1.66973e-14)
(4.2028e-05 -1.46956e-05 -3.05232e-14)
(4.02463e-05 -1.31217e-05 -4.68579e-14)
(3.84246e-05 -1.20114e-05 -4.22999e-15)
(3.70569e-05 -1.14449e-05 1.76736e-14)
(3.65943e-05 -1.09957e-05 1.90787e-14)
(3.72422e-05 -1.00657e-05 -5.85364e-16)
(3.8241e-05 -8.59236e-06 -1.00548e-14)
(3.92243e-05 -6.85028e-06 -1.69472e-14)
(4.05431e-05 -5.34219e-06 3.28141e-15)
(4.13288e-05 -3.53727e-06 -1.92976e-16)
(4.06125e-05 -2.55354e-06 3.04059e-16)
(4.06447e-05 -2.18388e-06 4.82938e-16)
(4.91114e-05 -2.76906e-06 -4.14141e-17)
(7.07852e-05 -1.55106e-05 2.04963e-16)
(8.45574e-05 -7.60794e-05 -9.88078e-16)
(-4.28655e-05 0.000210829 3.269e-16)
(0.000265514 -5.46544e-05 -1.44651e-14)
(-0.00015567 0.000831474 2.26172e-14)
(0.000302168 -0.000241856 5.79045e-14)
(0.00116285 -0.000460607 -2.15305e-14)
(6.16311e-05 -5.34208e-05 9.78893e-16)
(5.42826e-05 -7.63377e-05 -2.75262e-16)
(4.21334e-05 -0.00010502 6.46587e-16)
(3.18262e-05 -0.00011081 3.38154e-15)
(2.06773e-05 -0.000112399 -9.01438e-15)
(5.74829e-06 -0.000118356 -1.90842e-14)
(-8.27757e-06 -0.000117104 4.55209e-14)
(-2.0713e-05 -0.00011291 -8.9192e-15)
(-3.24832e-05 -0.000109327 5.05043e-14)
(-4.14219e-05 -0.000102958 1.03017e-13)
(-4.78599e-05 -9.48382e-05 2.22671e-14)
(-5.25885e-05 -8.66088e-05 3.44752e-14)
(-5.45667e-05 -7.7796e-05 2.16523e-13)
(-5.43229e-05 -6.95424e-05 3.67191e-13)
(-5.26202e-05 -6.25832e-05 3.32829e-13)
(-4.84248e-05 -5.70481e-05 -5.40275e-15)
(-4.23119e-05 -5.26866e-05 4.05361e-13)
(-3.44329e-05 -5.13971e-05 2.67816e-14)
(-2.06742e-05 -5.35123e-05 -1.19161e-13)
(1.65247e-06 -7.72204e-05 1.57427e-13)
(-5.13029e-09 -9.76655e-05 -2.60851e-13)
(9.36745e-05 -1.4594e-05 1.10134e-13)
(0.000370592 -0.000215237 1.10507e-13)
(5.99856e-05 -0.00126163 4.4883e-14)
(-0.00138987 -0.00202878 1.20484e-13)
(-0.00262131 -0.0005796 -4.94971e-14)
(-0.00123044 0.00199045 -4.27907e-14)
(0.000709623 0.0031793 6.31791e-15)
(0.00313438 0.00185062 2.63855e-14)
(0.00135357 -5.36336e-05 -7.03063e-14)
(-0.000603398 -0.00133189 -6.8711e-14)
(-0.00256295 -0.0014599 1.40183e-13)
(-0.00327646 -0.000408819 3.15588e-14)
(-0.000757661 0.000184687 -6.03461e-14)
(0.00266031 -8.46374e-05 -4.97301e-16)
(0.0234634 -0.00727009 -1.43328e-13)
(-0.00767713 0.00314761 -5.09405e-14)
(-0.00307826 -0.000405459 -1.97409e-14)
(-0.0137997 0.00914995 -3.18971e-14)
(7.01989e-05 -4.22621e-05 -6.63898e-15)
(7.58084e-05 -3.50819e-05 -1.26862e-14)
(7.84346e-05 -2.4655e-05 6.04158e-15)
(7.76904e-05 -8.47822e-06 8.31816e-14)
(7.44258e-05 3.45112e-06 3.54649e-14)
(6.73497e-05 1.09299e-05 7.07878e-16)
(5.6633e-05 1.64741e-05 1.82773e-13)
(4.51206e-05 1.51041e-05 -8.38918e-14)
(3.67031e-05 8.29874e-06 -1.35035e-13)
(3.22991e-05 -3.51283e-07 4.91428e-14)
(3.15672e-05 -8.26375e-06 9.80662e-14)
(3.30437e-05 -1.44877e-05 -2.41897e-14)
(3.57508e-05 -1.85852e-05 6.85658e-14)
(3.87459e-05 -2.07509e-05 9.30814e-15)
(4.12551e-05 -2.12441e-05 3.53117e-14)
(4.29788e-05 -2.05175e-05 1.24892e-14)
(4.39064e-05 -1.90321e-05 -3.93438e-14)
(4.38048e-05 -1.71522e-05 3.24361e-14)
(4.2998e-05 -1.52381e-05 -2.44821e-14)
(4.16235e-05 -1.35165e-05 4.50138e-15)
(4.00191e-05 -1.21144e-05 6.51071e-14)
(3.83537e-05 -1.11612e-05 -2.25276e-14)
(3.70707e-05 -1.06343e-05 -3.04272e-14)
(3.65588e-05 -1.02189e-05 6.58052e-15)
(3.70516e-05 -9.37075e-06 -1.63338e-15)
(3.79701e-05 -8.02803e-06 2.98721e-15)
(3.89451e-05 -6.3674e-06 8.56715e-15)
(4.03002e-05 -4.75518e-06 -1.47177e-15)
(4.11449e-05 -2.88569e-06 -1.40856e-16)
(4.0523e-05 -1.71252e-06 1.95106e-16)
(4.03593e-05 -1.02987e-06 1.43993e-15)
(4.75106e-05 7.84804e-08 1.806e-16)
(6.22474e-05 4.2871e-06 -9.8716e-16)
(5.096e-05 1.21215e-05 -1.77741e-16)
(1.36424e-05 1.32127e-05 -4.28342e-16)
(2.24557e-05 -0.000178593 4.32544e-15)
(0.000181095 -0.000101647 -8.9713e-15)
(0.000170554 0.000115633 -1.42505e-14)
(0.00054445 0.000391887 -5.28115e-14)
(5.52788e-05 -5.76079e-05 2.71827e-15)
(4.73676e-05 -7.88906e-05 -3.05072e-15)
(3.52511e-05 -0.000102286 -6.56489e-17)
(2.59852e-05 -0.000107383 2.66466e-15)
(1.48123e-05 -0.000109142 -2.03461e-15)
(4.10648e-07 -0.000113518 2.54473e-15)
(-1.26979e-05 -0.000112346 8.73268e-15)
(-2.42775e-05 -0.000108561 -1.09189e-13)
(-3.51556e-05 -0.000105293 -1.4697e-14)
(-4.35024e-05 -9.94622e-05 1.70476e-13)
(-4.93923e-05 -9.19593e-05 -7.21105e-14)
(-5.37718e-05 -8.4823e-05 -1.53075e-13)
(-5.55881e-05 -7.72269e-05 -2.98874e-13)
(-5.55662e-05 -7.02452e-05 -2.46503e-13)
(-5.40298e-05 -6.45371e-05 -1.6944e-13)
(-5.04204e-05 -5.97788e-05 -6.17303e-14)
(-4.61859e-05 -5.50169e-05 -2.26995e-13)
(-4.23502e-05 -5.31716e-05 -3.15547e-13)
(-3.18209e-05 -5.64213e-05 -1.39069e-13)
(-1.89744e-05 -7.39345e-05 3.57506e-13)
(-1.76165e-05 -9.40944e-05 3.28292e-13)
(5.44196e-05 -5.43938e-05 -2.15568e-14)
(0.000223012 -0.000225834 -5.04571e-14)
(-7.4536e-05 -0.000955488 -1.59409e-13)
(-0.00128017 -0.00136855 -9.28601e-14)
(-0.00240399 -8.82396e-05 4.27697e-14)
(-0.00191802 0.00204038 3.30665e-14)
(5.99801e-05 0.00275552 3.72119e-15)
(0.00222938 0.0016273 -1.98409e-14)
(0.00306844 -0.000254037 7.40298e-14)
(0.0011911 -0.00132882 1.54703e-13)
(-0.000459743 -0.00126259 -1.04788e-14)
(-0.00163179 -0.000500323 2.72346e-14)
(-0.00106615 0.000322667 4.73952e-14)
(8.77493e-05 0.00245989 -1.85009e-14)
(-0.0134219 0.0024204 1.74085e-13)
(-0.0032427 -0.00092672 7.9453e-14)
(-0.00352951 0.00263012 -6.40085e-14)
(-0.0104895 0.0070974 -1.89378e-14)
(6.16417e-05 -4.83189e-05 1.65633e-14)
(6.76154e-05 -4.07384e-05 2.03053e-14)
(7.00703e-05 -3.04762e-05 8.21885e-15)
(7.00572e-05 -1.5633e-05 9.76999e-14)
(6.78862e-05 -4.68168e-06 -1.73046e-13)
(6.18734e-05 3.30248e-06 8.97389e-14)
(5.31989e-05 8.34543e-06 1.5156e-13)
(4.54051e-05 6.96234e-06 6.6242e-14)
(3.98983e-05 2.44607e-06 -3.67947e-14)
(3.69406e-05 -3.39792e-06 -3.43624e-14)
(3.61827e-05 -8.77306e-06 2.17045e-14)
(3.68953e-05 -1.31139e-05 3.71884e-14)
(3.84728e-05 -1.61436e-05 -8.99177e-14)
(4.03458e-05 -1.79068e-05 6.45166e-14)
(4.19514e-05 -1.84544e-05 1.64818e-14)
(4.30559e-05 -1.80304e-05 -1.11059e-14)
(4.36018e-05 -1.70262e-05 -5.77501e-14)
(4.33759e-05 -1.55986e-05 -5.77494e-14)
(4.25772e-05 -1.40827e-05 4.89963e-14)
(4.13061e-05 -1.26635e-05 1.42858e-14)
(3.98194e-05 -1.15019e-05 4.90984e-15)
(3.82844e-05 -1.06612e-05 5.15996e-14)
(3.70519e-05 -1.01579e-05 2.09198e-14)
(3.64988e-05 -9.70333e-06 -2.44622e-15)
(3.68543e-05 -8.94419e-06 6.82625e-15)
(3.76844e-05 -7.69745e-06 -4.74811e-15)
(3.8646e-05 -6.16147e-06 -9.33754e-15)
(4.00148e-05 -4.53274e-06 1.37019e-15)
(4.08838e-05 -2.67572e-06 -1.20135e-15)
(4.03731e-05 -1.29832e-06 -4.10682e-16)
(4.0211e-05 -6.1842e-07 -1.06077e-15)
(4.71555e-05 8.90279e-07 1.15084e-15)
(6.18544e-05 5.86303e-06 2.86143e-15)
(5.19245e-05 1.10959e-05 2.42058e-15)
(2.83047e-05 1.03507e-06 1.38495e-15)
(0.00011706 -1.35856e-05 -5.26342e-15)
(0.000190913 5.44382e-05 3.20828e-15)
(0.000151347 0.000124715 3.60455e-14)
(0.000160966 0.000590016 4.11095e-14)
(4.79458e-05 -6.16031e-05 7.45409e-16)
(4.08537e-05 -7.89858e-05 1.78231e-15)
(2.92062e-05 -9.77013e-05 -2.5684e-15)
(2.02491e-05 -0.000103463 3.64668e-15)
(8.74762e-06 -0.000104546 -7.18442e-15)
(-5.0983e-06 -0.000108025 1.08664e-14)
(-1.75004e-05 -0.000106884 -1.31811e-14)
(-2.85746e-05 -0.000103239 -2.47124e-14)
(-3.89496e-05 -9.99367e-05 -3.28608e-14)
(-4.68986e-05 -9.42171e-05 -4.65139e-14)
(-5.26533e-05 -8.70336e-05 1.86693e-14)
(-5.70923e-05 -8.02763e-05 1.77961e-13)
(-5.91278e-05 -7.32591e-05 2.41112e-13)
(-5.94413e-05 -6.68104e-05 3.87507e-14)
(-5.84848e-05 -6.15103e-05 4.9163e-15)
(-5.5747e-05 -5.68833e-05 1.13682e-14)
(-5.12477e-05 -5.38634e-05 -4.05339e-14)
(-4.82494e-05 -5.4292e-05 1.28419e-13)
(-4.38304e-05 -5.77129e-05 1.17378e-13)
(-3.54171e-05 -6.97494e-05 -2.70504e-13)
(-3.34417e-05 -9.01784e-05 -2.75394e-14)
(6.50057e-06 -8.77197e-05 5.69525e-14)
(8.35892e-05 -0.000226331 -7.35859e-14)
(-0.000171825 -0.000712015 7.80076e-14)
(-0.00106035 -0.00093425 1.13771e-15)
(-0.00182462 8.02145e-05 -1.45174e-14)
(-0.00128046 0.00173653 -4.25892e-14)
(0.000473099 0.00229135 1.7529e-15)
(0.00194498 0.00134343 -4.28796e-17)
(0.00204392 -0.00015325 3.50212e-14)
(0.00106688 -0.00110801 1.70217e-14)
(-0.000126045 -0.00107798 -7.45386e-14)
(-0.00103435 -0.00048763 -3.44043e-14)
(-0.00116478 0.000162564 1.72303e-13)
(-0.00126888 0.000758562 2.68259e-14)
(-0.00909723 0.0058098 -1.2764e-13)
(0.00546455 -0.00171208 -4.21403e-14)
(-0.0117778 0.00581285 5.05027e-14)
(-0.0050297 0.00153693 -1.73556e-15)
(5.44806e-05 -5.2059e-05 3.43914e-15)
(5.9999e-05 -4.43742e-05 -4.8742e-14)
(6.24647e-05 -3.48203e-05 2.41587e-14)
(6.29073e-05 -2.08262e-05 2.13206e-14)
(6.14341e-05 -1.08431e-05 4.61673e-14)
(5.70792e-05 -2.8641e-06 -1.54634e-14)
(5.07549e-05 1.49062e-06 -3.71498e-14)
(4.54648e-05 5.5202e-07 -3.7874e-15)
(4.19193e-05 -2.34098e-06 -2.62791e-15)
(4.01273e-05 -6.04135e-06 1.39788e-14)
(3.95757e-05 -9.51302e-06 4.01249e-14)
(3.99575e-05 -1.23359e-05 6.60048e-14)
(4.08436e-05 -1.43925e-05 -4.6263e-15)
(4.19647e-05 -1.55979e-05 -1.34747e-13)
(4.28641e-05 -1.60245e-05 2.62857e-14)
(4.34542e-05 -1.57561e-05 7.69863e-14)
(4.36313e-05 -1.50365e-05 5.91136e-14)
(4.32268e-05 -1.39475e-05 2.68665e-14)
(4.24002e-05 -1.27582e-05 -2.22931e-14)
(4.11764e-05 -1.15507e-05 -5.94894e-15)
(3.97804e-05 -1.05669e-05 -2.35505e-14)
(3.83361e-05 -9.80621e-06 -4.32073e-14)
(3.71501e-05 -9.29714e-06 1.77986e-14)
(3.65337e-05 -8.81833e-06 1.67717e-14)
(3.67634e-05 -8.09923e-06 2.99203e-15)
(3.74695e-05 -6.95328e-06 1.6989e-14)
(3.83957e-05 -5.49015e-06 5.94041e-15)
(3.97306e-05 -3.87846e-06 -1.00105e-15)
(4.06435e-05 -1.89993e-06 1.12607e-15)
(4.02185e-05 -3.83526e-07 4.59684e-16)
(4.00409e-05 3.82434e-07 -1.28751e-15)
(4.67512e-05 1.48745e-06 -1.52272e-15)
(6.10639e-05 5.78425e-06 -7.61854e-16)
(5.04564e-05 1.32352e-05 -4.20737e-16)
(2.64413e-05 9.88753e-06 2.76723e-15)
(0.000109286 -3.56738e-06 -4.82074e-16)
(0.000187008 2.93483e-05 1.16826e-14)
(0.000168819 8.42458e-05 -1.28355e-14)
(0.000519462 0.000182713 -6.19245e-15)
(4.1803e-05 -6.25134e-05 3.83316e-15)
(3.47768e-05 -7.91399e-05 -1.38069e-15)
(2.4502e-05 -9.39893e-05 -2.60879e-15)
(1.57385e-05 -9.90533e-05 -3.57698e-15)
(4.33233e-06 -0.000100151 1.34918e-14)
(-8.92129e-06 -0.000102934 -1.80149e-14)
(-2.06899e-05 -0.000101939 -5.31744e-15)
(-3.11736e-05 -9.85999e-05 3.49403e-14)
(-4.09846e-05 -9.54979e-05 1.94606e-14)
(-4.85934e-05 -9.00861e-05 3.56096e-14)
(-5.42135e-05 -8.35052e-05 8.00844e-14)
(-5.86236e-05 -7.7378e-05 6.46418e-14)
(-6.08861e-05 -7.10946e-05 -1.52414e-13)
(-6.15573e-05 -6.53272e-05 -2.45573e-13)
(-6.11774e-05 -6.05191e-05 4.21369e-14)
(-5.90555e-05 -5.66193e-05 3.12378e-13)
(-5.55715e-05 -5.39826e-05 6.40582e-14)
(-5.40608e-05 -5.33067e-05 -1.77644e-13)
(-5.37541e-05 -5.685e-05 -3.3632e-14)
(-4.85598e-05 -6.65925e-05 3.07004e-14)
(-4.86793e-05 -8.56341e-05 -6.90806e-14)
(-3.09211e-05 -0.000102534 -8.936e-14)
(-9.32138e-06 -0.00022358 1.02187e-14)
(-0.00022955 -0.00055839 6.91387e-14)
(-0.000887676 -0.000664372 6.00084e-14)
(-0.00144507 0.000143283 -3.41336e-15)
(-0.000981529 0.00145345 3.58797e-14)
(0.000446048 0.0019235 6.43401e-15)
(0.00161089 0.00112412 6.16358e-14)
(0.00160371 -0.00016813 -4.58642e-14)
(0.000722277 -0.000985125 -1.60001e-13)
(-0.000209715 -0.000968278 -5.10124e-14)
(-0.00084323 -0.000471355 2.84608e-14)
(-0.000979205 8.25086e-05 1.5449e-14)
(-0.000655816 0.00038992 -4.28517e-15)
(0.000594575 -0.000479001 5.12172e-15)
(4.96147e-05 -0.00100186 1.81879e-14)
(0.00579188 -0.00579951 4.46101e-15)
(0.00493951 0.00365182 2.44922e-14)
(4.82634e-05 -5.38765e-05 -8.58976e-15)
(5.30839e-05 -4.71104e-05 -7.71769e-15)
(5.59004e-05 -3.74492e-05 -1.34545e-14)
(5.68017e-05 -2.45816e-05 -1.72127e-14)
(5.60874e-05 -1.58411e-05 2.98369e-14)
(5.29857e-05 -8.08285e-06 -4.30609e-14)
(4.86561e-05 -4.15193e-06 -1.7219e-14)
(4.53108e-05 -4.51222e-06 6.62143e-14)