/*--------------------------------*- C++ -*----------------------------------*\
| =========                 |                                                 |
| \\      /  F ield         | OpenFOAM: The Open Source CFD Toolbox           |
|  \\    /   O peration     | Version:  2206                                  |
|   \\  /    A nd           | Website:  www.openfoam.com                      |
|    \\/     M anipulation  |                                                 |
\*---------------------------------------------------------------------------*/
FoamFile
{
    version     2.0;
    format      ascii;
    arch        "LSB;label=32;scalar=64";
    class       volScalarField;
    location    "400";
    object      turbulenceProperties:k;
}
// * * * * * * * * * * * * * * * * * * * * * * * * * * * * * * * * * * * * * //

dimensions      [0 2 -2 0 0 0 0];

internalField   nonuniform List<scalar> 
10720
(
0.0199781
0.0232533
0.0274179
0.03305
0.0396728
0.0480533
0.0587087
0.0718507
0.0885052
0.109757
0.137256
0.17364
0.222542
0.28991
0.385878
0.526366
0.742768
1.07626
1.6618
2.57328
4.62739
7.73379
18.1065
35.3432
39.1632
37.4676
36.8203
37.4978
38.3343
38.5453
38.0331
36.8959
35.0602
32.5499
29.3091
25.4136
20.1267
14.8751
3.46761
0.0170386
0.0146483
0.011955
0.00963849
0.00744357
0.00545906
0.00385212
0.00288488
0.00301492
0.00406984
0.00603132
0.0090331
0.0133979
0.0196371
0.028419
0.0408174
0.0586627
0.0853447
0.12707
0.195059
0.311628
0.517849
0.911259
1.66856
3.31961
6.78862
15.1732
31.2659
44.3055
49.9012
51.4885
51.7482
51.4501
50.7223
49.6019
48.1505
46.0273
43.5547
35.6739
0.00310761
0.00309044
0.0030551
0.00296698
0.00283057
0.00267373
0.0024886
0.00228038
0.00207426
0.0018721
0.00167936
0.00154523
0.00152589
0.00167373
0.00216394
0.00336943
0.00632335
0.0130716
0.0313818
0.0767643
0.227336
0.627466
1.92799
6.18363
12.0953
18.1827
23.9105
27.9769
28.7903
26.4173
22.5149
18.5641
15.3595
12.903
11.0156
9.51847
8.47206
7.3812
7.92627
0.00307934
0.00303751
0.00295211
0.00282555
0.00265253
0.00242442
0.00215683
0.00189734
0.00165748
0.00141947
0.001193
0.000996945
0.000831307
0.000690807
0.000571732
0.000471398
0.00038628
0.00031425
0.000251124
0.000193457
0.000136416
8.06514e-05
2.79567e-05
4.55972e-06
1.16242e-05
0.00159574
0.00854117
0.0688304
0.231449
0.451774
0.673431
0.867774
1.03115
1.1749
1.30944
1.44803
1.59465
1.92189
2.67272
0.00208395
0.00206749
0.00202087
0.0019496
0.00187507
0.00179316
0.00171036
0.00163591
0.00157187
0.0015222
0.00148378
0.00146172
0.00145578
0.00146816
0.00147255
0.00142872
0.00121391
0.00108481
0.000339877
2.26193e-07
0.0125481
0.000591705
0.0068638
0.0158576
0.178514
0.639749
1.63424
3.7102
7.33304
12.1121
16.4328
18.5558
18.1403
16.2884
14.1318
12.1069
10.5203
8.70941
9.78614
0.00210019
0.00209761
0.00209204
0.00205481
0.00198873
0.00187779
0.00172483
0.00155016
0.00138784
0.00122084
0.00104116
0.000867171
0.000711458
0.000577374
0.000466677
0.000377302
0.000307653
0.000254829
0.00021641
0.000188813
0.0001698
0.000157462
0.000150685
0.000146971
0.000146801
0.00014586
0.000155153
9.22768e-05
0.00063575
0.0041763
0.0118341
0.0247092
0.0551199
0.115001
0.203556
0.312023
0.430002
0.514707
0.878588
0.00175895
0.00176259
0.00175374
0.00173914
0.00170901
0.00166416
0.00160825
0.00153845
0.00145868
0.00137045
0.00127564
0.00117557
0.00107122
0.000964465
0.000856293
0.000742726
0.000628359
0.000534151
0.000410348
0.000230701
2.99796e-05
8.04372e-05
0
0.00398214
0.0210748
0.0440285
0.0243356
0.0116312
0.0377214
0.364219
1.59684
4.34016
8.12953
11.2781
12.6342
12.451
11.7089
10.248
11.0363
0.00174008
0.00171149
0.00166663
0.00161258
0.00154482
0.0014561
0.0013525
0.00124228
0.00112751
0.00100294
0.000874202
0.000753504
0.000646868
0.000554966
0.000477315
0.000412218
0.000358662
0.000315044
0.000280036
0.000251537
0.000228379
0.000208929
0.000191498
0.000173167
0.000154333
0.000138679
0.000126853
0.000118356
0.000108054
9.47724e-05
7.11873e-05
4.48265e-05
0.000343751
0.000593095
0.00214665
0.0114838
0.037951
0.0958643
0.349009
0.0013196
0.00131727
0.00130698
0.00128864
0.00126026
0.00122178
0.00117527
0.00112144
0.00106205
0.00100073
0.000939449
0.000880675
0.000827033
0.000780149
0.000741153
0.000708379
0.000673805
0.000630566
0.000586982
0.000521691
0.000424712
0.000250021
2.66892e-05
7.21513e-06
0
0
0.00878643
0.0109577
0.0245384
0.0120933
0.0298027
0.0532401
0.334292
1.94975
5.00359
8.10765
10.069
10.4367
11.617
0.00131619
0.00130687
0.00128834
0.00125865
0.0012168
0.00115751
0.00108656
0.00101038
0.000929161
0.000840006
0.000747258
0.000656502
0.00057127
0.000493043
0.00042287
0.000361198
0.000308178
0.000263574
0.000226869
0.000196944
0.000172786
0.000153088
0.000136452
0.000120584
0.00010446
8.95691e-05
7.77461e-05
6.95793e-05
6.59978e-05
6.09871e-05
7.45265e-05
1.75987e-05
0.000114543
0.000534713
0.00133453
0.00112481
0.00159169
0.00295821
0.0677368
0.00108163
0.00108624
0.00108581
0.00108193
0.0010713
0.00105408
0.00103101
0.00100118
0.00096522
0.000924085
0.000878138
0.000828461
0.000776231
0.000722371
0.000667837
0.000611322
0.000549708
0.000486512
0.000427929
0.000374534
0.000337621
0.000297778
0.000254864
9.23882e-05
1.22326e-05
5.70213e-06
2.06117e-06
0
0
0.00167437
0.00712059
0.0370987
0.00714177
0.0905298
0.197839
1.85396
5.17597
8.3438
11.0848
0.00107183
0.00105829
0.00103858
0.00101258
0.000979211
0.000935344
0.000884859
0.000830688
0.000771786
0.00070667
0.000638476
0.000570601
0.000505647
0.000445129
0.000390098
0.000341242
0.000298773
0.000262571
0.000232215
0.000206924
0.000185814
0.000167764
0.000151532
0.000135381
0.00011861
0.000102643
8.87155e-05
7.706e-05
6.72851e-05
5.91583e-05
5.21942e-05
4.59114e-05
3.68404e-05
2.58762e-05
5.28061e-07
0.000166837
0.000273843
0.000680339
0.00768136
0.000874972
0.000878815
0.000879428
0.000877203
0.000870216
0.000858117
0.000841196
0.000818955
0.000791589
0.000759855
0.000724295
0.000685798
0.000645552
0.000604702
0.000564202
0.000525405
0.000490233
0.000457453
0.000424076
0.000389112
0.000354668
0.000324595
0.000308663
0.0002682
0.000183116
0.000100533
3.09128e-05
6.03269e-06
3.25541e-06
2.67939e-07
0
0
0.000945886
0.028575
0.021609
0.127512
0.849527
4.25381
8.89261
0.000867788
0.000858058
0.000843905
0.000824415
0.000799132
0.00076669
0.000730234
0.000690496
0.000646735
0.000598749
0.000548313
0.000497331
0.000447348
0.000399431
0.000354475
0.000313196
0.000275994
0.000243108
0.000214539
0.00018995
0.000168866
0.000150585
0.000134203
0.00011846
0.000102697
8.77605e-05
7.46306e-05
6.358e-05
5.43808e-05
4.69131e-05
4.13287e-05
3.76968e-05
3.55078e-05
3.21069e-05
2.40606e-05
3.08016e-06
1.38157e-06
6.08728e-08
0.000218
0.0007252
0.00073015
0.00073309
0.000734275
0.000732265
0.000726772
0.000718018
0.000705357
0.000688787
0.000668662
0.000644951
0.000618115
0.000588682
0.000557133
0.00052403
0.00049005
0.000454769
0.000417264
0.000379295
0.000343445
0.00031136
0.000285276
0.000266837
0.000255491
0.000234545
0.000198816
0.000152196
0.00010056
5.93278e-05
4.22665e-06
3.01244e-06
1.14761e-07
0
0
0.00311992
0.053868
0.0988153
0.966072
5.32733
0.000717762
0.000708798
0.000696782
0.000680834
0.000660849
0.000636084
0.00060903
0.000579207
0.000546185
0.00051036
0.000472538
0.000433905
0.000395415
0.000357788
0.000321758
0.000288024
0.000257012
0.000229093
0.000204406
0.000182808
0.000163953
0.00014731
0.000132156
0.000117541
0.000102967
8.90608e-05
7.65858e-05
6.57558e-05
5.63437e-05
4.81402e-05
4.10867e-05
3.50478e-05
2.98777e-05
2.5455e-05
2.24385e-05
2.03679e-05
1.54084e-05
1.59436e-06
1.5075e-05
0.000604942
0.00060971
0.000613183
0.000615352
0.000615273
0.000612633
0.000607494
0.000599287
0.000587941
0.000573561
0.0005561
0.000535805
0.000513034
0.000488153
0.000461703
0.000434109
0.000406
0.00037847
0.00035161
0.00032542
0.000300306
0.000277261
0.000256787
0.000239354
0.00022195
0.000200385
0.000176881
0.000152471
0.000128067
9.18509e-05
5.98378e-05
2.30542e-06
1.62009e-06
0
0
0
0.0309928
0.130719
2.12152
0.000598408
0.000590844
0.00058107
0.000568089
0.000552261
0.000533152
0.000512555
0.00048974
0.000464513
0.000437393
0.00040876
0.000379289
0.000349554
0.000319994
0.000291123
0.000263468
0.000237444
0.000213395
0.000191537
0.000171903
0.000154343
0.000138523
0.000123936
0.000109945
9.62016e-05
8.31056e-05
7.1288e-05
6.09876e-05
5.20714e-05
4.43867e-05
3.78995e-05
3.26527e-05
2.86514e-05
2.58572e-05
2.42297e-05
2.44303e-05
2.63407e-05
2.78894e-05
1.05144e-06
0.000509984
0.000514657
0.000518554
0.00052157
0.000522973
0.00052261
0.000520431
0.000515952
0.000509101
0.000499872
0.000488114
0.000473943
0.000457526
0.000439046
0.000418796
0.000397067
0.000374311
0.000350489
0.000325765
0.000301202
0.000278109
0.000257424
0.000239192
0.00022201
0.000203826
0.000183427
0.000162685
0.000144317
0.00012968
0.000117523
0.000105543
7.65895e-05
3.24311e-05
2.87128e-06
0
0
0.000162004
0.0161729
0.557645
0.000504001
0.00049741
0.000489197
0.000478405
0.000465645
0.000450732
0.000434684
0.000416919
0.00039746
0.000376681
0.000354774
0.000332141
0.00030908
0.000285824
0.00026275
0.000240246
0.00021863
0.00019825
0.000179324
0.000161966
0.00014614
0.000131642
0.000118127
0.000105171
9.251e-05
8.04352e-05
6.94419e-05
5.97433e-05
5.12431e-05
4.38019e-05
3.7367e-05
3.19108e-05
2.7357e-05
2.37783e-05
2.11633e-05
2.06444e-05
2.03576e-05
3.41525e-05
1.41708e-05
0.00043299
0.000437365
0.000441288
0.0004446
0.000446723
0.000447598
0.000447079
0.00044483
0.000440704
0.000434675
0.000426557
0.000416379
0.000404203
0.000390105
0.000374293
0.000357003
0.000338495
0.000319189
0.000299521
0.000279882
0.000260903
0.000243092
0.000226617
0.000210556
0.000193183
0.000173667
0.000153356
0.000135048
0.000120312
0.000109531
0.000101459
9.65874e-05
8.46778e-05
4.94941e-05
3.28683e-06
0
0
0.00512312
0.142801
0.000427631
0.000421925
0.000415033
0.000406001
0.000395593
0.000383814
0.00037109
0.000357054
0.000341889
0.000325814
0.000308887
0.000291364
0.000273405
0.000255113
0.000236697
0.00021843
0.000200548
0.00018332
0.000166979
0.00015166
0.000137384
0.000124063
0.000111489
9.93931e-05
8.76204e-05
7.63917e-05
6.609e-05
5.69208e-05
4.88433e-05
4.17656e-05
3.56596e-05
3.05342e-05
2.63868e-05
2.32758e-05
2.11486e-05
2.08834e-05
2.07918e-05
2.94919e-05
3.67896e-05
0.000370105
0.000374181
0.000378009
0.000381418
0.000383978
0.000385642
0.000386287
0.000385603
0.00038348
0.000379861
0.000374562
0.000367566
0.000358865
0.00034848
0.00033651
0.000323094
0.000308434
0.000292832
0.000276398
0.000259494
0.000242867
0.000227088
0.000212291
0.000197811
0.000182274
0.000164886
0.000146548
0.000129399
0.000114909
0.000103261
9.37486e-05
8.7522e-05
8.45306e-05
8.1489e-05
5.34906e-05
2.64481e-06
0
0.000811076
0.0491456
0.000365309
0.00036031
0.000354473
0.000346864
0.000338285
0.000328839
0.000318613
0.000307398
0.000295457
0.00028288
0.000269692
0.000256043
0.000241995
0.000227554
0.000212862
0.000198081
0.000183352
0.000168895
0.00015489
0.000141498
0.000128787
0.000116734
0.000105209
9.40577e-05
8.32275e-05
7.28823e-05
6.33244e-05
5.47385e-05
4.71169e-05
4.03949e-05
3.45444e-05
2.95712e-05
2.5451e-05
2.22413e-05
1.99634e-05
1.93712e-05
1.95859e-05
2.51736e-05
4.02094e-05
0.000318123
0.000321876
0.000325516
0.000328869
0.0003316
0.000333687
0.00033503
0.000335351
0.000334551
0.000332569
0.00032923
0.000324496
0.00031832
0.000310669
0.000301599
0.000291193
0.000279567
0.00026698
0.000253625
0.000239756
0.000225827
0.000212256
0.000199137
0.000186053
0.000172076
0.0001566
0.000140266
0.000124723
0.000111254
9.99582e-05
9.03008e-05
8.22361e-05
7.65982e-05
7.44563e-05
7.83927e-05
4.04329e-05
3.10031e-08
0.000263892
0.0163821
0.000313856
0.000309465
0.000304476
0.000298042
0.000290913
0.00028323
0.000274917
0.000265865
0.000256368
0.000246445
0.000236086
0.00022537
0.00021432
0.000202906
0.000191169
0.000179211
0.00016712
0.000155046
0.000143128
0.000131501
0.000120252
0.000109396
9.88831e-05
8.86492e-05
7.86943e-05
6.91651e-05
6.02972e-05
5.22599e-05
4.50737e-05
3.87018e-05
3.3132e-05
2.83839e-05
2.44574e-05
2.14107e-05
1.92663e-05
1.86333e-05
1.88979e-05
2.31769e-05
3.69536e-05
0.000274802
0.000278228
0.00028164
0.000284861
0.000287626
0.000289945
0.000291706
0.000292679
0.000292792
0.000291965
0.000290059
0.000287006
0.000282762
0.000277277
0.000270552
0.000262623
0.000253552
0.000243537
0.000232707
0.000221211
0.00020939
0.00019766
0.000186104
0.000174432
0.000161982
0.000148293
0.000133823
0.000119865
0.000107544
9.70355e-05
8.7961e-05
8.00286e-05
7.33574e-05
6.84235e-05
6.74177e-05
8.22237e-05
2.57335e-06
2.79028e-05
0.00414135
0.000270988
0.000267134
0.000262826
0.000257361
0.000251399
0.000245065
0.000238226
0.000230875
0.000223247
0.000215343
0.000207136
0.000198677
0.000189946
0.000180883
0.000171506
0.000161844
0.000151935
0.000141887
0.0001318
0.000121776
0.000111892
0.000102197
9.26872e-05
8.33675e-05
7.42758e-05
6.55385e-05
5.73542e-05
4.98709e-05
4.31275e-05
3.7111e-05
3.18187e-05
2.72746e-05
2.34788e-05
2.04882e-05
1.83359e-05
1.7596e-05
1.77526e-05
2.14579e-05
3.32418e-05
0.000238405
0.000241511
0.000244682
0.000247714
0.000250421
0.000252829
0.000254808
0.000256183
0.000256895
0.000256862
0.000255968
0.000254151
0.000251343
0.000247488
0.000242557
0.000236567
0.000229554
0.000221626
0.000212926
0.000203554
0.000193689
0.000183692
0.000173636
0.000163319
0.000152291
0.000140214
0.000127417
0.000114907
0.000103652
9.3916e-05
8.5457e-05
7.80966e-05
7.16348e-05
6.67909e-05
6.01631e-05
7.51896e-05
3.57691e-05
4.04325e-07
0.000302001
0.000234988
0.000231597
0.00022786
0.000223188
0.000218171
0.000212887
0.000207214
0.000201195
0.000195019
0.000188671
0.000182123
0.000175393
0.000168453
0.000161236
0.000153721
0.000145915
0.000137817
0.000129479
0.000120971
0.000112369
0.000103749
9.51611e-05
8.6626e-05
7.81745e-05
6.98903e-05
6.19031e-05
5.43716e-05
4.74249e-05
4.1115e-05
3.54481e-05
3.04323e-05
2.60988e-05
2.24574e-05
1.95681e-05
1.74633e-05
1.66631e-05
1.67219e-05
1.9852e-05
2.99832e-05
0.000207607
0.000210422
0.000213343
0.000216166
0.00021877
0.000221168
0.000223245
0.000224858
0.000225958
0.000226471
0.000226292
0.000225361
0.000223622
0.000221005
0.000217491
0.000213054
0.00020771
0.000201509
0.000194588
0.000186981
0.000178789
0.000170306
0.000161618
0.000152589
0.000142896
0.000132297
0.000121032
0.000109879
9.96495e-05
9.06532e-05
8.27582e-05
7.58895e-05
6.98356e-05
6.53546e-05
5.95109e-05
6.02921e-05
7.20487e-05
1.52777e-07
2.20088e-05
0.000204555
0.000201551
0.000198299
0.000194282
0.000190038
0.000185585
0.000180838
0.000175872
0.000170829
0.00016569
0.000160423
0.000155041
0.000149499
0.000143723
0.000137689
0.000131368
0.000124748
0.000117846
0.000110699
0.000103359
9.58807e-05
8.83172e-05
8.07016e-05
7.30954e-05
6.55932e-05
5.83217e-05
5.14154e-05
4.49913e-05
3.91086e-05
3.37882e-05
2.90471e-05
2.49215e-05
2.14256e-05
1.86199e-05
1.65394e-05
1.56625e-05
1.56313e-05
1.82548e-05
2.70296e-05
0.000181386
0.000183939
0.000186608
0.000189225
0.000191689
0.000194016
0.000196109
0.000197844
0.000199172
0.000200039
0.000200353
0.00020006
0.000199114
0.000197444
0.000195014
0.000191793
0.000187776
0.000182984
0.000177523
0.000171411
0.000164686
0.00015756
0.000150126
0.000142299
0.000133848
0.000124594
0.000114719
0.000104823
9.5579e-05
8.73078e-05
7.9965e-05
7.35146e-05
6.78774e-05
6.33181e-05
5.97782e-05
5.27599e-05
7.89343e-05
4.01261e-07
3.77793e-10
0.000178668
0.000176003
0.00017315
0.000169683
0.000166071
0.000162287
0.000158285
0.000154159
0.00015001
0.000145816
0.000141552
0.000137212
0.000132756
0.000128117
0.000123253
0.000118133
0.000112719
0.000107016
0.00010103
9.47929e-05
8.83428e-05
8.1719e-05
7.49629e-05
6.81492e-05
6.13857e-05
5.47867e-05
4.84761e-05
4.25563e-05
3.70898e-05
3.21093e-05
2.76396e-05
2.37201e-05
2.03717e-05
1.76559e-05
1.56088e-05
1.46659e-05
1.45524e-05
1.67269e-05
2.42927e-05
0.000158946
0.000161253
0.000163683
0.000166099
0.0001684
0.000170629
0.000172678
0.000174451
0.000175909
0.000177004
0.000177653
0.00017782
0.000177447
0.000176478
0.000174875
0.000172603
0.000169647
0.000166001
0.000161739
0.000156874
0.000151408
0.000145467
0.000139161
0.000132441
0.000125131
0.000117101
0.000108488
9.97538e-05
9.14511e-05
8.38932e-05
7.71045e-05
7.1061e-05
6.58106e-05
6.12213e-05
5.86025e-05
5.13059e-05
6.70013e-05
2.5556e-05
5.3167e-07
0.00015652
0.000154153
0.00015164
0.000148634
0.000145544
0.000142303
0.000138908
0.000135454
0.000132014
0.000128564
0.000125085
0.000121566
0.000117964
0.000114215
0.000110281
0.00010612
0.00010169
9.6978e-05
9.19756e-05
8.66914e-05
8.11524e-05
7.53904e-05
6.94387e-05
6.33645e-05
5.72819e-05
5.1317e-05
4.55728e-05
4.0138e-05
3.50761e-05
3.04281e-05
2.6225e-05
2.25085e-05
1.93055e-05
1.66764e-05
1.46592e-05
1.36525e-05
1.34629e-05
1.52636e-05
2.17548e-05
0.000139647
0.000141725
0.00014394
0.000146152
0.000148295
0.000150397
0.000152373
0.000154128
0.000155642
0.000156867
0.000157735
0.000158209
0.00015825
0.000157798
0.000156828
0.000155293
0.000153173
0.000150455
0.000147172
0.000143342
0.000138944
0.000134037
0.000128741
0.000123026
0.000116756
0.00010983
0.000102355
9.46873e-05
8.72761e-05
8.0414e-05
7.41735e-05
6.85513e-05
6.36369e-05
5.92609e-05
5.64475e-05
5.16569e-05
5.48635e-05
5.15874e-05
6.411e-06
0.000137479
0.000135372
0.000133152
0.000130537
0.000127873
0.000125084
0.000122185
0.000119275
0.000116401
0.000113545
0.000110686
0.00010781
0.000104879
0.000101834
9.86364e-05
9.52456e-05
9.16147e-05
8.77201e-05
8.35445e-05
7.90851e-05
7.43459e-05
6.93478e-05
6.41213e-05
5.87378e-05
5.33038e-05
4.79329e-05
4.27202e-05
3.7746e-05
3.30732e-05
2.87474e-05
2.48045e-05
2.12872e-05
1.8228e-05
1.56856e-05
1.37e-05
1.26364e-05
1.23768e-05
1.38645e-05
1.94089e-05
0.000122976
0.000124848
0.00012686
0.000128883
0.000130864
0.000132834
0.000134708
0.000136415
0.000137932
0.000139219
0.000140219
0.000140905
0.000141238
0.000141173
0.000140675
0.000139707
0.000138242
0.000136261
0.000133766
0.000130789
0.000127294
0.000123287
0.000118879
0.000114062
0.000108726
0.000102793
9.63433e-05
8.96495e-05
8.3074e-05
7.68829e-05
7.11769e-05
6.59829e-05
6.13738e-05
5.7325e-05
5.41388e-05
5.13083e-05
4.84538e-05
5.53792e-05
2.6123e-05
0.000121037
0.000119157
0.000117192
0.000114912
0.000112596
0.000110186
0.000107698
0.000105227
0.000102809
0.000100427
9.80599e-05
9.56944e-05
9.32936e-05
9.08074e-05
8.81971e-05
8.54224e-05
8.24401e-05
7.92202e-05
7.57353e-05
7.1974e-05
6.79343e-05
6.36217e-05
5.9055e-05
5.4301e-05
4.94623e-05
4.46415e-05
3.99268e-05
3.53897e-05
3.10904e-05
2.70763e-05
2.33869e-05
2.00646e-05
1.7147e-05
1.46897e-05
1.27356e-05
1.16202e-05
1.12968e-05
1.25327e-05
1.72595e-05
0.000108519
0.000110207
0.00011203
0.000113876
0.000115699
0.000117533
0.000119294
0.000120928
0.000122414
0.000123716
0.00012479
0.000125609
0.000126142
0.000126349
0.000126201
0.000125664
0.000124706
0.000123307
0.000121456
0.000119184
0.000116443
0.000113209
0.000109578
0.000105556
0.000101055
9.60078e-05
9.0474e-05
8.46632e-05
7.88652e-05
7.33155e-05
6.81278e-05
6.33565e-05
5.90486e-05
5.53053e-05
5.19907e-05
4.98782e-05
4.59179e-05
4.98445e-05
4.05281e-05
0.000106785
0.000105105
0.000103363
0.000101368
9.93434e-05
9.72479e-05
9.51031e-05
9.29944e-05
9.09469e-05
8.89453e-05
8.69694e-05
8.50073e-05
8.30287e-05
8.09857e-05
7.88445e-05
7.65651e-05
7.41066e-05
7.14399e-05
6.85339e-05
6.53672e-05
6.19269e-05
5.82159e-05
5.42449e-05
5.00652e-05
4.57677e-05
4.14547e-05
3.72054e-05
3.30811e-05
2.91376e-05
2.5423e-05
2.19783e-05
1.88458e-05
1.60667e-05
1.3693e-05
1.17712e-05
1.06105e-05
1.02293e-05
1.1264e-05
1.52928e-05
9.59378e-05
9.74584e-05
9.91122e-05
0.000100791
0.000102466
0.000104162
0.000105806
0.000107353
0.000108785
0.00011007
0.00011117
0.000112065
0.000112729
0.000113127
0.000113237
0.000113022
0.000112457
0.00011152
0.000110187
0.000108483
0.000106361
0.000103787
0.000100829
9.75027e-05
9.37408e-05
8.94803e-05
8.47629e-05
7.97494e-05
7.46696e-05
6.97264e-05
6.50388e-05
6.06775e-05
5.66799e-05
5.31884e-05
4.99704e-05
4.78594e-05
4.45999e-05
4.42761e-05
4.37908e-05
9.43886e-05
9.28824e-05
9.13351e-05
8.95843e-05
8.78079e-05
8.59789e-05
8.41211e-05
8.23097e-05
8.05637e-05
7.88682e-05
7.72098e-05
7.5573e-05
7.39292e-05
7.22382e-05
7.04697e-05
6.85898e-05
6.65575e-05
6.43428e-05
6.19152e-05
5.92499e-05
5.6329e-05
5.31426e-05
4.96959e-05
4.60317e-05
4.22327e-05
3.83887e-05
3.45696e-05
3.08311e-05
2.72237e-05
2.37946e-05
2.05856e-05
1.76377e-05
1.49934e-05
1.27017e-05
1.08126e-05
9.61248e-06
9.1815e-06
1.00605e-05
1.35026e-05
8.49558e-05
8.63263e-05
8.78228e-05
8.93482e-05
9.0884e-05
9.2445e-05
9.39734e-05
9.54239e-05
9.67873e-05
9.80327e-05
9.91295e-05
0.000100061
0.000100806
0.000101334
0.000101625
0.00010165
0.000101382
0.000100801
9.98787e-05
9.86313e-05
9.70204e-05
9.50044e-05
9.26247e-05
8.99034e-05
8.67885e-05
8.32202e-05
7.92253e-05
7.49272e-05
7.05056e-05
6.61324e-05
6.19226e-05
5.79552e-05
5.42702e-05
5.09993e-05
4.79714e-05
4.56959e-05
4.31745e-05
4.06349e-05
4.1605e-05
8.35712e-05
8.22207e-05
8.08429e-05
7.93007e-05
7.77361e-05
7.61346e-05
7.45164e-05
7.29528e-05
7.1455e-05
7.001e-05
6.8605e-05
6.72284e-05
6.58529e-05
6.44457e-05
6.29787e-05
6.1418e-05
5.97303e-05
5.78872e-05
5.58562e-05
5.36112e-05
5.11318e-05
4.84024e-05
4.54196e-05
4.2218e-05
3.88683e-05
3.54522e-05
3.20281e-05
2.86482e-05
2.53574e-05
2.22003e-05
1.92174e-05
1.6448e-05
1.39345e-05
1.17231e-05
9.86699e-06
8.63266e-06
8.1579e-06
8.92244e-06
1.18824e-05
7.53436e-05
7.65776e-05
7.79304e-05
7.93174e-05
8.07187e-05
8.21529e-05
8.35654e-05
8.49189e-05
8.62027e-05
8.73945e-05
8.84646e-05
8.94031e-05
9.01883e-05
9.07993e-05
9.12174e-05
9.14157e-05
9.13727e-05
9.10647e-05
9.04688e-05
8.95882e-05
8.83936e-05
8.68455e-05
8.49561e-05
8.27559e-05
8.02004e-05
7.72358e-05
7.38768e-05
7.02164e-05
6.63926e-05
6.25496e-05
5.8793e-05
5.52039e-05
5.18254e-05
4.8767e-05
4.59334e-05
4.35665e-05
4.13842e-05
3.82328e-05
3.82698e-05
7.41028e-05
7.28948e-05
7.16645e-05
7.03027e-05
6.89207e-05
6.75127e-05
6.6098e-05
6.47392e-05
6.3446e-05
6.22059e-05
6.10094e-05
5.98441e-05
5.86861e-05
5.75048e-05
5.62772e-05
5.49756e-05
5.35686e-05
5.20291e-05
5.03265e-05
4.84349e-05
4.63315e-05
4.39962e-05
4.142e-05
3.8628e-05
3.56808e-05
3.26496e-05
2.95902e-05
2.65425e-05
2.35482e-05
2.06484e-05
1.78812e-05
1.52836e-05
1.28976e-05
1.07652e-05
8.94184e-06
7.67771e-06
7.16556e-06
7.84849e-06
1.04191e-05
6.69081e-05
6.80189e-05
6.92409e-05
7.05015e-05
7.1778e-05
7.30924e-05
7.43929e-05
7.56481e-05
7.68506e-05
7.79781e-05
7.90083e-05
7.99317e-05
8.0731e-05
8.13895e-05
8.18891e-05
8.22109e-05
8.23326e-05
8.22331e-05
8.18916e-05
8.13006e-05
8.04449e-05
7.92799e-05
7.78014e-05
7.60433e-05
7.39717e-05
7.15325e-05
6.87305e-05
6.56346e-05
6.23505e-05
5.89948e-05
5.56641e-05
5.24352e-05
4.93531e-05
4.65087e-05
4.38504e-05
4.14914e-05
3.93772e-05
3.62669e-05
3.52296e-05
6.57957e-05
6.47142e-05
6.36138e-05
6.2409e-05
6.11853e-05
5.99424e-05
5.87018e-05
5.75164e-05
5.63931e-05
5.53225e-05
5.42955e-05
5.33002e-05
5.23162e-05
5.13197e-05
5.0288e-05
4.91952e-05
4.80156e-05
4.67246e-05
4.52943e-05
4.3697e-05
4.19106e-05
3.99132e-05
3.76918e-05
3.52624e-05
3.26767e-05
2.99937e-05
2.7265e-05
2.4523e-05
2.18048e-05
1.91468e-05
1.65846e-05
1.41525e-05
1.18901e-05
9.83555e-06
8.04452e-06
6.75358e-06
6.209e-06
6.84202e-06
9.10665e-06
5.94871e-05
6.04884e-05
6.1592e-05
6.27349e-05
6.38973e-05
6.50982e-05
6.62925e-05
6.74509e-05
6.85711e-05
6.96296e-05
7.06104e-05
7.15037e-05
7.22979e-05
7.29758e-05
7.35257e-05
7.39308e-05
7.41708e-05
7.42276e-05
7.4081e-05
7.37184e-05
7.31327e-05
7.22832e-05
7.11486e-05
6.97658e-05
6.81051e-05
6.6116e-05
6.37959e-05
6.11954e-05
5.83948e-05
5.54852e-05
5.25502e-05
4.96615e-05
4.68646e-05
4.42302e-05
4.17364e-05
3.94389e-05
3.73097e-05
3.43639e-05
3.26309e-05
5.84915e-05
5.75217e-05
5.65357e-05
5.54684e-05
5.43825e-05
5.32821e-05
5.21907e-05
5.1151e-05
5.01708e-05
4.92406e-05
4.83537e-05
4.74984e-05
4.66572e-05
4.58088e-05
4.49351e-05
4.40134e-05
4.30198e-05
4.19317e-05
4.07258e-05
3.93757e-05
3.78576e-05
3.61483e-05
3.42321e-05
3.21199e-05
2.98537e-05
2.74858e-05
2.50563e-05
2.25952e-05
2.01331e-05
1.77019e-05
1.53347e-05
1.30616e-05
1.09189e-05
8.94136e-06
7.18306e-06
5.86706e-06
5.29351e-06
5.90365e-06
7.93406e-06
5.29461e-05
5.38484e-05
5.48455e-05
5.58803e-05
5.6937e-05
5.80327e-05
5.91254e-05
6.01924e-05
6.12298e-05
6.22184e-05
6.3143e-05
6.39973e-05
6.47711e-05
6.54506e-05
6.60268e-05
6.6484e-05
6.68053e-05
6.69762e-05
6.69767e-05
6.67931e-05
6.64211e-05
6.58248e-05
6.49766e-05
6.39065e-05
6.25924e-05
6.09872e-05
5.90829e-05
5.69148e-05
5.45424e-05
5.20368e-05
4.9467e-05
4.68966e-05
4.43704e-05
4.19454e-05
3.96072e-05
3.73953e-05
3.52617e-05
3.24485e-05
3.03287e-05
5.20552e-05
5.11857e-05
5.03011e-05
4.93535e-05
4.83881e-05
4.7411e-05
4.64477e-05
4.55335e-05
4.46739e-05
4.3861e-05
4.30895e-05
4.23497e-05
4.16257e-05
4.08993e-05
4.01535e-05
3.93706e-05
3.8529e-05
3.76099e-05
3.6589e-05
3.54437e-05
3.41518e-05
3.26894e-05
3.10375e-05
2.92036e-05
2.722e-05
2.5132e-05
2.2973e-05
2.07676e-05
1.85413e-05
1.63224e-05
1.4139e-05
1.20183e-05
9.99232e-06
8.09149e-06
6.36605e-06
5.02505e-06
4.4238e-06
5.03614e-06
6.89414e-06
4.71705e-05
4.79825e-05
4.88838e-05
4.98194e-05
5.07793e-05
5.17776e-05
5.27751e-05
5.37555e-05
5.47116e-05
5.56303e-05
5.6496e-05
5.73051e-05
5.80476e-05
5.87152e-05
5.92981e-05
5.97837e-05
6.01598e-05
6.04104e-05
6.0521e-05
6.04752e-05
6.02715e-05
5.98762e-05
5.92621e-05
5.84499e-05
5.74255e-05
5.6146e-05
5.45973e-05
5.28041e-05
5.08085e-05
4.86644e-05
4.64289e-05
4.41556e-05
4.18822e-05
3.96621e-05
3.74782e-05
3.53616e-05
3.3252e-05
3.05444e-05
2.82177e-05
4.6372e-05
4.55928e-05
4.47994e-05
4.39563e-05
4.30967e-05
4.22284e-05
4.13749e-05
4.05679e-05
3.98107e-05
3.90967e-05
3.84219e-05
3.77775e-05
3.71497e-05
3.65237e-05
3.58843e-05
3.52153e-05
3.44988e-05
3.37171e-05
3.285e-05
3.18762e-05
3.07739e-05
2.95209e-05
2.8097e-05
2.65047e-05
2.47704e-05
2.29313e-05
2.10153e-05
1.90426e-05
1.70337e-05
1.50127e-05
1.30034e-05
1.10291e-05
9.11774e-06
7.29417e-06
5.60256e-06
4.23488e-06
3.60344e-06
4.24208e-06
5.97838e-06
4.2061e-05
4.27927e-05
4.36057e-05
4.44521e-05
4.53225e-05
4.623e-05
4.71401e-05
4.80375e-05
4.89165e-05
4.97656e-05
5.05719e-05
5.13318e-05
5.20385e-05
5.2684e-05
5.32606e-05
5.37587e-05
5.41667e-05
5.44717e-05
5.46611e-05
5.47191e-05
5.46439e-05
5.44075e-05
5.39815e-05
5.33829e-05
5.2598e-05
5.15895e-05
5.03422e-05
4.88711e-05
4.7205e-05
4.53828e-05
4.34493e-05
4.14498e-05
3.94162e-05
3.73892e-05
3.5361e-05
3.33421e-05
3.12813e-05
2.86761e-05
2.62475e-05
4.1345e-05
4.06476e-05
3.9936e-05
3.91837e-05
3.84179e-05
3.76454e-05
3.68875e-05
3.61728e-05
3.55032e-05
3.48737e-05
3.42805e-05
3.37158e-05
3.31683e-05
3.26245e-05
3.20728e-05
3.1498e-05
3.08844e-05
3.02169e-05
2.94775e-05
2.86469e-05
2.77051e-05
2.66297e-05
2.54012e-05
2.40186e-05
2.25021e-05
2.08843e-05
1.91864e-05
1.74248e-05
1.56156e-05
1.37785e-05
1.19338e-05
1.01002e-05
8.30165e-06
6.5569e-06
4.90182e-06
3.50486e-06
2.83593e-06
3.52637e-06
5.18029e-06
3.75341e-05
3.81936e-05
3.89264e-05
3.96916e-05
4.04806e-05
4.1304e-05
4.21332e-05
4.29527e-05
4.37592e-05
4.45411e-05
4.52888e-05
4.59983e-05
4.66648e-05
4.72807e-05
4.78417e-05
4.83378e-05
4.87617e-05
4.91015e-05
4.93457e-05
4.94795e-05
4.95017e-05
4.93884e-05
4.91131e-05
4.86864e-05
4.80981e-05
4.73153e-05
4.63217e-05
4.51245e-05
4.37431e-05
4.22047e-05
4.05427e-05
3.87925e-05
3.69816e-05
3.51412e-05
3.32639e-05
3.13508e-05
2.93562e-05
2.68638e-05
2.44052e-05
3.68924e-05
3.62678e-05
3.56299e-05
3.49575e-05
3.42749e-05
3.35867e-05
3.29126e-05
3.22777e-05
3.1684e-05
3.11263e-05
3.06021e-05
3.01055e-05
2.96256e-05
2.91506e-05
2.86711e-05
2.8174e-05
2.7646e-05
2.70739e-05
2.64411e-05
2.57301e-05
2.4923e-05
2.39986e-05
2.29375e-05
2.17368e-05
2.04123e-05
1.89895e-05
1.74868e-05
1.59157e-05
1.42895e-05
1.26232e-05
1.09339e-05
9.2364e-06
7.54967e-06
5.88737e-06
4.27422e-06
2.84584e-06
2.12412e-06
2.89558e-06
4.4945e-06
3.35181e-05
3.41119e-05
3.47727e-05
3.54636e-05
3.61779e-05
3.69251e-05
3.76787e-05
3.84259e-05
3.91642e-05
3.98822e-05
4.05721e-05
4.12312e-05
4.1855e-05
4.24377e-05
4.29759e-05
4.34624e-05
4.38895e-05
4.42475e-05
4.45265e-05
4.47144e-05
4.48086e-05
4.47894e-05
4.4633e-05
4.43441e-05
4.39145e-05
4.33169e-05
4.25349e-05
4.15692e-05
4.04321e-05
3.91414e-05
3.77208e-05
3.61975e-05
3.45916e-05
3.29278e-05
3.11981e-05
2.93979e-05
2.74817e-05
2.51097e-05
2.268e-05
3.29428e-05
3.23833e-05
3.18116e-05
3.12107e-05
3.06014e-05
2.99877e-05
2.93875e-05
2.88224e-05
2.82943e-05
2.77987e-05
2.73343e-05
2.68944e-05
2.64712e-05
2.6055e-05
2.56366e-05
2.52046e-05
2.47477e-05
2.42546e-05
2.37108e-05
2.31004e-05
2.24071e-05
2.16115e-05
2.06941e-05
1.96503e-05
1.84934e-05
1.72432e-05
1.59148e-05
1.4516e-05
1.3057e-05
1.15497e-05
1.00072e-05
8.44166e-06
6.86702e-06
5.29232e-06
3.73016e-06
2.27277e-06
1.4691e-06
2.36009e-06
3.9158e-06
2.99506e-05
3.04853e-05
3.10804e-05
3.1704e-05
3.23501e-05
3.30272e-05
3.37113e-05
3.43914e-05
3.50655e-05
3.57229e-05
3.63577e-05
3.69672e-05
3.75477e-05
3.80953e-05
3.86064e-05
3.90756e-05
3.94963e-05
3.98607e-05
4.01608e-05
4.03857e-05
4.05312e-05
4.05823e-05
4.05169e-05
4.03364e-05
4.00341e-05
3.95874e-05
3.89795e-05
3.82082e-05
3.7279e-05
3.62027e-05
3.49949e-05
3.3675e-05
3.2258e-05
3.07598e-05
2.91739e-05
2.74883e-05
2.56649e-05
2.34237e-05
2.10632e-05
2.94348e-05
2.89339e-05
2.84214e-05
2.78842e-05
2.73403e-05
2.67928e-05
2.62577e-05
2.57541e-05
2.52834e-05
2.48417e-05
2.44283e-05
2.40382e-05
2.36635e-05
2.32964e-05
2.29292e-05
2.25521e-05
2.21555e-05
2.1729e-05
2.12598e-05
2.07345e-05
2.01378e-05
1.94514e-05
1.86573e-05
1.77499e-05
1.67388e-05
1.56413e-05
1.44679e-05
1.32246e-05
1.19186e-05
1.05591e-05
9.15592e-06
7.71814e-06
6.25654e-06
4.77632e-06
3.27947e-06
1.80888e-06
8.7301e-07
1.93459e-06
3.43991e-06
2.67778e-05
2.7259e-05
2.77945e-05
2.83573e-05
2.89412e-05
2.9554e-05
3.01745e-05
3.07928e-05
3.14069e-05
3.20079e-05
3.25901e-05
3.31516e-05
3.36894e-05
3.42002e-05
3.46814e-05
3.51289e-05
3.5537e-05
3.58997e-05
3.62095e-05
3.64564e-05
3.66365e-05
3.67384e-05
3.67423e-05
3.66455e-05
3.64438e-05
3.61178e-05
3.56523e-05
3.50423e-05