/*--------------------------------*- C++ -*----------------------------------*\
| =========                 |                                                 |
| \\      /  F ield         | OpenFOAM: The Open Source CFD Toolbox           |
|  \\    /   O peration     | Version:  2206                                  |
|   \\  /    A nd           | Website:  www.openfoam.com                      |
|    \\/     M anipulation  |                                                 |
\*---------------------------------------------------------------------------*/
FoamFile
{
    version     2.0;
    format      ascii;
    arch        "LSB;label=32;scalar=64";
    class       volScalarField;
    location    "0.3";
    object      omega;
}
// * * * * * * * * * * * * * * * * * * * * * * * * * * * * * * * * * * * * * //

dimensions      [0 0 -1 0 0 0 0];

internalField   nonuniform List<scalar> 
66928
(
20.8773
20.3336
20.3659
20.3694
20.8821
20.3365
20.8677
20.8737
20.1355
20.1354
384.542
385.398
115.596
117.356
240.803
58.5014
241.751
67.4621
60.1276
20.1867
27.454
241.706
67.4521
20.1877
60.1625
27.4535
385.419
117.306
114.992
383.852
58.1415
239.499
384.799
385.149
385.68
386.892
115.377
117.109
20.8787
115.96
118.108
385.302
385.182
387.291
386.934
20.8655
116.276
118.507
115.758
117.867
384.138
74.4821
37.2206
115.312
250.249
249.809
37.0417
74.8263
74.9369
37.7794
117.019
252.524
252.136
37.5891
75.2785
175.391
393.013
393.932
393.042
393.944
175.779
240.279
127.864
127.893
409.597
129.113
412.089
79.6633
259.676
289.298
129.124
412.049
259.679
79.6852
289.351
75.0807
37.7845
116.962
252.56
37.5916
252.165
75.4092
74.5767
37.1966
114.641
250.204
249.796
37.0323
74.9016
175.664
393.922
393.013
393.93
393.017
176.008
383.748
239.094
125.394
125.016
408.677
384.914
385.152
386.039
386.706
176.696
393.867
394.813
393.877
394.818
176.888
75.3003
37.1086
250.173
115.604
74.8882
250.625
37.2925
75.7465
37.6276
252.412
117.499
75.3226
252.873
37.8257
176.613
393.138
394.056
176.09
393.418
394.348
75.0476
251.483
115.723
37.3929
251.248
75.3606
37.2551
75.4668
253.728
117.773
37.9033
253.458
75.8109
37.7358
385.332
385.184
387.296
387.069
177.202
393.9
394.841
176.895
393.966
394.904
75.4878
37.4442
116.008
252.198
251.97
37.3077
75.6498
75.8453
37.9282
118.189
254.36
254.098
37.7604
76.0354
75.6725
251.354
37.26
115.94
75.3705
251.661
37.3954
76.0853
253.589
37.7273
118.166
75.7707
253.891
37.895
176.952
394.151
395.088
394.18
395.112
177.257
33.3359
20.8659
23.7515
23.8598
23.7027
23.8041
33.488
33.4477
20.8711
23.8722
23.7613
23.8169
23.7115
33.5889
33.6111
23.7145
23.8115
20.8803
33.465
23.7661
23.8686
33.5821
20.8641
23.7842
23.8734
23.743
23.824
33.6658
20.1231
20.1244
22.556
26.3995
58.2675
36.6487
26.3379
36.5183
22.5594
22.7801
26.8323
59.8189
37.7917
26.7428
37.5956
22.8097
21.5412
27.3388
29.7036
21.1854
29.5681
21.1629
21.5658
22.7839
26.8401
59.8544
37.8065
37.6136
26.7513
22.8142
21.5433
27.34
21.186
29.712
21.1636
29.5777
21.568
22.4551
26.3566
57.8924
36.3138
26.2982
36.1827
22.4645
33.4918
20.8696
23.7812
23.8791
33.6407
23.739
23.8293
33.7103
20.8752
23.7363
23.822
33.5809
23.7805
23.8723
20.1353
20.3603
20.337
20.8764
20.1201
20.3414
20.3192
20.8644
20.1011
20.3387
20.3071
20.8623
20.1017
20.3389
20.3075
20.8626
20.1015
20.3387
20.3076
20.8626
20.1014
20.3389
20.3074
20.8625
20.1016
20.3386
20.3074
20.8624
20.1014
20.339
20.3075
20.8624
20.1015
20.3385
20.3074
20.8625
20.1015
20.339
20.3074
20.8624
20.1015
20.3385
20.3074
20.8624
20.1015
20.339
20.3073
20.8624
20.1016
20.3386
20.3074
20.8624
20.1015
20.3389
20.3074
20.8623
20.1014
20.3386
20.3075
20.8624
20.1016
20.3389
20.3074
20.8623
20.1015
20.3386
20.3074
20.8624
20.3354
20.3409
20.331
20.3286
20.8753
20.8809
20.3663
20.3698
20.3553
20.3587
20.371
20.3459
20.3565
20.8724
20.8743
20.3348
20.328
20.3278
20.8767
20.8603
20.8738
20.3242
20.3197
20.3109
20.3096
20.869
20.8784
20.3469
20.3501
20.3367
20.3396
20.3489
20.3392
20.3411
20.8603
20.8742
20.3201
20.3073
20.3057
20.8726
20.8625
20.8753
20.3114
20.3101
20.3109
20.3104
20.8656
20.8794
20.3375
20.3404
20.3371
20.34
20.3419
20.3389
20.3412
20.8628
20.8752
20.3063
20.3076
20.3056
20.8729
20.8634
20.8754
20.3119
20.3112
20.3111
20.31
20.8683
20.8784
20.3383
20.3408
20.3372
20.34
20.3421
20.3392
20.3412
20.8632
20.8751
20.3064
20.3077
20.3056
20.873
20.8635
20.8752
20.3119
20.3105
20.311
20.3105
20.8658
20.8794
20.3383
20.341
20.3371
20.34
20.342
20.3388
20.3412
20.8631
20.875
20.3064
20.3075
20.3056
20.8728
20.8633
20.8754
20.3118
20.3112
20.3111
20.31
20.8682
20.8783
20.3382
20.3409
20.3371
20.3399
20.3422
20.3391
20.3412
20.863
20.8749
20.3065
20.3075
20.3056
20.8728
20.8635
20.8751
20.3119
20.3105
20.311
20.3105
20.8656
20.8793
20.3383
20.341
20.3371
20.34
20.3421
20.3388
20.3412
20.863
20.8749
20.3064
20.3076
20.3056
20.8727
20.8633
20.8753
20.3118
20.3113
20.3111
20.31
20.8681
20.8782
20.3383
20.3411
20.3371
20.3399
20.3423
20.339
20.3411
20.863
20.8749
20.3064
20.3076
20.3057
20.8728
20.8634
20.8751
20.3118
20.3105
20.311
20.3105
20.8656
20.8793
20.3382
20.341
20.337
20.3399
20.3421
20.3388
20.3411
20.863
20.875
20.3065
20.3075
20.3056
20.8727
20.8632
20.8753
20.3117
20.3112
20.3111
20.31
20.8682
20.8783
20.3382
20.3408
20.3371
20.3399
20.3421
20.339
20.3411
20.863
20.8749
20.3064
20.3075
20.3056
20.8728
20.8634
20.8752
20.312
20.3105
20.3111
20.3106
20.8657
20.8794
20.3383
20.3409
20.337
20.3399
20.3421
20.3388
20.3411
20.8629
20.8749
20.3064
20.3075
20.3056
20.8726
20.8633
20.8753
20.3119
20.3113
20.3111
20.3101
20.8682
20.8786
20.3382
20.3409
20.337
20.3399
20.3422
20.3391
20.3411
20.8629
20.8748
20.3064
20.3075
20.3056
20.8728
20.8634
20.8751
20.3118
20.3106
20.311
20.3105
20.8661
20.8793
20.3382
20.341
20.337
20.3399
20.342
20.3388
20.3411
20.8629
20.8749
20.3065
20.3075
20.3055
20.8726
20.8632
20.8752
20.3117
20.3113
20.311
20.31
20.8681
20.8781
20.3382
20.3408
20.337
20.3398
20.3422
20.3391
20.3411
20.8629
20.8749
20.3064
20.3075
20.3056
20.8728
20.8633
20.8751
20.3118
20.3104
20.311
20.3105
20.8655
20.8794
20.3382
20.3409
20.337
20.3399
20.342
20.3388
20.3411
20.8629
20.875
20.3064
20.3075
20.3055
20.8726
20.8633
20.8751
20.3117
20.3113
20.311
20.31
20.8682
20.8782
20.3383
20.341
20.3371
20.3399
20.3422
20.339
20.3411
20.863
20.875
20.3064
20.3076
20.3056
20.8728
20.8632
20.3118
20.3105
20.8655
20.3382
20.3409
20.3421
20.3417
20.863
20.3064
20.3064
20.8736
65.8141
240.746
65.9462
241.348
385.189
385.153
68.347
242.009
67.4742
243.73
20.1361
20.1353
20.1354
20.1295
20.1313
20.1293
20.1315
27.4802
60.2997
20.1817
20.358
60.6724
20.1799
27.3764
385.728
386.888
26.6139
20.1694
57.9943
20.3355
20.1708
58.5334
26.5266
117.745
115.227
20.8857
118.236
115.819
65.8111
241.639
65.7933
241.52
385.513
385.398
68.801
244.517
68.2788
244.56
20.1224
20.1208
20.1229
20.1014
20.1022
20.1019
20.1021
27.6129
60.9034
20.1578
20.3408
27.4684
61.0711
20.1568
387.415
387.339
26.7263
20.1581
58.7576
20.3134
26.6195
20.15
58.9416
118.781
116.568
20.8732
118.8
116.725
65.8728
241.809
65.8912
241.63
385.517
385.353
69.0372
244.701
68.781
244.577
20.1035
20.1035
20.1035
20.102
20.102
20.102
20.1019
27.6146
61.0479
20.1534
20.3391
27.5148
61.104
20.155
387.591
387.418
26.7566
20.1384
59.1142
20.3081
26.7511
20.1402
59.1054
119.003
116.9
20.874
118.945
116.761
65.8672
241.791
65.8868
241.595
385.539
385.404
69.0243
244.839
68.805
244.643
20.1038
20.1038
20.1037
20.1016
20.102
20.102
20.1019
27.6127
61.0473
20.1534
20.3402
27.5178
61.1171
20.1553
387.608
387.406
26.7561
20.1388
59.1384
20.3083
26.7525
20.1404
59.113
119.034
116.888
20.8744
118.967
116.767
65.8574
241.802
65.8843
241.589
385.573
385.389
69.0243
244.831
68.8059
244.644
20.1037
20.1038
20.1037
20.1015
20.102
20.102
20.1018
27.6122
61.0479
20.1535
20.3391
27.5177
61.1077
20.1553
387.601
387.419
26.7589
20.1385
59.1365
20.3083
26.755
20.1402
59.1166
119.032
116.893
20.874
118.956
116.752
65.7886
241.796
65.8425
241.607
385.559
385.413
69.0233
244.854
68.8058
244.652
20.1037
20.1037
20.1036
20.1017
20.1019
20.102
20.1019
27.612
61.0488
20.1534
20.3401
27.5174
61.117
20.1551
387.61
387.407
26.7539
20.1386
59.1386
20.3082
26.7498
20.1404
59.1126
119.038
116.881
20.8742
118.961
116.747
65.8293
241.798
65.8563
241.587
385.568
385.389
69.0243
244.834
68.8058
244.646
20.1037
20.1037
20.1037
20.1015
20.102
20.102
20.1019
27.6116
61.0479
20.1534
20.339
27.517
61.1078
20.1552
387.601
387.421
26.7541
20.1386
59.1364
20.3081
26.7484
20.1404
59.1063
119.033
116.875
20.8739
118.956
116.743
65.8697
241.797
65.8897
241.6
385.565
385.416
69.0234
244.847
68.8059
244.648
20.1038
20.1038
20.1037
20.1016
20.102
20.102
20.1019
27.6117
61.0492
20.1534
20.3402
27.517
61.1172
20.1552
387.611
387.409
26.7584
20.1386
59.1355
20.3082
26.7526
20.1402
59.1138
119.039
116.877
20.8742
118.969
116.768
65.8584
241.806
65.8827
241.59
385.578
385.39
69.0252
244.832
68.8063
244.646
20.1037
20.1038
20.1037
20.1015
20.102
20.102
20.1019
27.6117
61.0483
20.1534
20.3389
27.5169
61.1081
20.1552
387.603
387.422
26.7612
20.1386
59.1307
20.3081
26.7578
20.1404
59.1143
119.032
116.889
20.874
118.956
116.755
65.7927
241.796
65.8509
241.627
385.557
385.41
69.024
244.847
68.8061
244.647
20.1038
20.1037
20.1037
20.1016
20.102
20.102
20.1019
27.6117
61.0488
20.1534
20.3402
27.517
61.1184
20.1552
387.611
387.41
26.7606
20.1385
59.1345
20.3081
26.7573
20.1402
59.1111
119.039
116.881
20.8741
118.969
116.746
65.8562
241.808
65.8619
241.592
385.609
385.408
69.0247
244.851
68.8063
244.665
20.1037
20.1038
20.1037
20.1016
20.102
20.102
20.1019
27.6116
61.0483
20.1534
20.3389
27.517
61.1079
20.1551
387.605
387.409
26.7594
20.1386
59.1365
20.3082
26.7574
20.1404
59.1068
119.032
116.863
20.8738
118.955
116.738
65.8616
241.793
65.8819
241.604
385.58
385.438
69.0237
244.8
68.8062
244.627
20.1038
20.1037
20.1037
20.1017
20.102
20.102
20.1019
27.6117
61.0491
20.1534
20.3402
27.517
61.1174
20.1552
387.595
387.409
26.7528
20.1385
59.1362
20.3081
26.7482
20.1402
59.1069
119.039
116.877
20.8742
118.964
116.743
65.8338
241.805
65.8767
241.587
385.593
385.424
69.0246
244.835
68.8062
244.646
20.1037
20.1037
20.1037
20.1016
20.102
20.102
20.1019
27.6117
61.0487
20.1533
20.339
27.5169
61.1084
20.155
387.603
387.421
26.7545
20.1386
59.1209
20.3082
26.7496
20.1402
59.1059
119.033
116.865
20.8738
118.956
116.733
65.8599
241.813
65.8677
241.619
385.581
385.449
69.024
244.847
68.8063
244.649
20.1037
20.1037
20.1037
20.1015
20.102
20.102
20.1019
27.6118
61.0492
20.1534
20.3402
27.517
61.1174
20.1552
387.611
387.409
26.7572
20.1385
59.1387
20.3081
26.7531
20.1402
59.1134
119.038
116.877
20.8742
118.962
116.744
65.8733
241.792
65.8842
241.59
385.584
385.406
69.0248
244.833
68.8063
244.646
20.1037
20.1038
20.1037
20.1016
20.102
20.102
20.1019
27.6116
61.048
20.1534
20.339
27.5169
61.1075
20.1553
387.603
387.423
26.7569
20.1387
59.1391
20.3083
26.7519
20.1405
59.1083
119.037
116.865
20.8738
118.964
116.738
65.7973
241.792
65.8569
241.61
385.587
385.441
69.0238
244.838
68.8062
244.647
20.1038
20.1038
20.1037
20.1016
20.102
20.102
20.1019
27.6117
61.0493
20.1534
20.3402
27.517
61.1174
20.1552
387.61
387.409
26.7598
20.1385
59.1362
20.3082
26.7561
20.1402
59.1126
119.043
116.876
20.8742
118.966
116.743
65.867
241.8
65.8664
241.602
385.595
385.405
69.0248
244.832
68.8063
244.645
20.1037
20.1038
20.1037
20.1031
27.6117
61.0482
20.1534
20.3391
27.517
61.1057
20.1552
387.606
387.407
26.7588
20.1386
59.1268
20.3082
26.7568
20.1403
59.1193
119.035
116.865
20.8738
118.962
116.736
65.7959
241.263
241.181
65.927
26.756
58.3572
20.1735
20.3351
20.1726
26.7782
58.8496
26.7546
59.0417
20.1742
20.3395
58.9189
20.1731
26.7817
65.6395
241.56
65.8024
241.267
65.6204
241.577
241.04
65.7671
26.6831
20.3338
58.9035
20.1629
20.1698
26.7324
58.6876
26.683
20.3365
58.9701
20.1623
58.7438
20.17
26.7334
116.519
117.794
20.8829
116.339
118.434
387.046
387.13
385.376
385.178
20.8705
116.627
119.066
116.022
118.154
387.373
387.194
27.4843
59.9165
20.1866
20.3637
20.1853
27.3469
60.5141
68.3327
241.946
243.707
67.4531
27.4821
20.1875
59.9387
20.3671
20.1861
60.5324
27.3467
68.0548
244.361
68.4989
243.56
27.3556
20.3609
60.6458
20.1791
20.183
27.4579
60.2657
68.047
244.256
243.537
68.4803
27.3546
20.3642
20.1798
60.6509
20.1838
60.2731
27.4608
68.5289
243.739
244.248
68.0862
27.4757
20.1871
60.4033
20.3687
20.1856
60.7013
27.3782
68.47
243.655
244.14
68.0413
27.3605
20.3519
60.9666
20.1649
60.4131
20.174
27.5572
68.2463
244.572
244.087
68.8138
27.3532
20.3644
20.1734
60.8838
20.182
60.4337
27.5357
68.1899
244.579
243.978
68.7475
117.067
114.802
20.8822
118.09
115.566
384.095
384.93
387.276
386.927
20.8682
118.498
116.142
117.852
115.37
385.293
384.939
26.6141
20.1695
58.2434
20.3341
20.1704
58.4325
26.5328
65.2543
239.427
240.613
64.7217
65.2414
239.863
240.812
64.7582
26.559
20.3318
20.1667
58.7003
20.1696
58.3686
26.6402
26.5619
20.3317
20.1665
58.6953
20.1693
58.2802
26.6454
65.0975
241.332
240.511
65.4348
65.0928
241.458
240.704
65.4307
386.915
387.087
384.28
384.969
20.8708
118.799
116.4
117.984
115.607
387.328
387.117
385.325
385
385.303
385.365
387.335
387.443
116.084
118.268
20.8694
116.639
119.023
385.422
385.378
387.558
387.469
20.8584
116.803
119.256
116.449
118.782
65.8805
241.455
65.6047
241.702
26.7485
58.7589
20.1529
20.3188
26.6827
59.1063
20.1468
26.7557
58.8214
20.1523
20.3154
26.6866
59.1667
20.1465
65.6469
241.787
241.381
65.9201
65.7256
241.717
241.66
65.9502
26.7006
20.3127
59.1612
20.1393
58.9559
20.1402
26.7717
26.7091
20.3107
59.1861
20.1393
59.0019
20.1402
26.7823
116.429
118.811
20.881
116.822
119.212
387.392
387.447
385.429
385.409
20.8688
116.948
119.211
116.634
118.942
387.536
387.464
27.5115
60.4017
20.17
20.3419
27.3347
60.9185
20.163
68.7358
244.078
68.1891
244.615
27.5084
20.1707
60.4009
20.345
27.3398
20.1637
60.9417
68.5141
244.685
244.411
69.0288
27.4107
20.3372
61.1128
20.1535
60.6798
20.1552
27.6065
68.4589
244.857
244.471
68.9756
27.4082
20.3402
20.1543
61.1519
20.1558
60.6942
27.6059
68.9884
244.448
68.5264
244.789
27.6016
20.1646
60.6242
20.3453
27.4259
20.16
61.0977
68.962
244.438
68.4692
244.777
27.4874
20.3401
61.2121
20.1535
60.8035
20.1556
27.6256
68.6836
244.854
244.642
69.0185
27.4824
20.3416
20.1542
61.1619
20.1548
60.8281
27.6196
68.6679
244.814
244.614
69.024
118.256
115.98
20.8692
118.968
116.686
385.302
385.444
387.485
387.374
20.8583
119.231
116.835
118.732
116.492
385.443
385.449
26.7141
20.1589
58.5347
20.3146
26.5959
20.1508
58.9832
65.8018
241.393
65.2889
241.921
65.8008
241.31
65.2892
241.648
26.6754
20.3086
20.1388
59.1758
20.1424
58.7808
26.7768
26.6657
20.3078
20.1391
59.1055
20.1416
58.8301
26.7712
65.6417
241.744
241.705
65.8927
65.6486
241.878
241.569
65.9054
387.359
387.446
385.346
385.485
20.8606
119.11
116.942
118.546
116.519
387.404
387.464
385.474
385.498
385.42
385.429
387.554
387.493
116.614
119
20.8751
116.884
119.383
385.458
385.436
387.53
387.51
20.8631
116.888
119.357
116.69
119.108
65.9713
241.682
65.7936
241.758
26.7662
58.9919
20.1409
20.3114
26.7185
59.207
20.1409
26.7803
59.0136
20.141
20.3104
26.7314
59.238
20.141
65.7124
241.755
241.593
65.9271
65.8139
241.916
241.667
65.9736
26.713
20.3109
59.1921
20.1399
59.0379
20.1402
26.7701
26.7283
20.3105
59.2044
20.1398
59.0603
20.14
26.7859
116.77
118.917
20.8754
116.969
119.259
387.552
387.467
385.441
385.373
20.8642
116.851
119.312
116.731
118.908
387.553
387.481
27.6195
60.8475
20.155
20.3377
27.4909
61.1643
20.1549
69.0344
244.695
68.6776
244.925
27.6261
20.1558
60.8901
20.3407
27.4946
20.1558
61.2445
68.7148
244.909
244.412
69.0729
27.4932
20.337
61.1728
20.1536
60.8852
20.1537
27.6216
68.7224
244.883
244.743
69.0304
27.5001
20.34
20.1545
61.2145
20.1546
60.9549
27.6235
69.0234
244.754
68.7025
244.801
27.6118
20.1559
60.8724
20.3421
27.4919
20.1559
61.1694
69.0212
244.725
68.7116
244.795
27.4851
20.3387
61.2071
20.1534
60.819
20.1546
27.6276
68.7074
244.834
244.643
69.0191
27.4848
20.3413
20.1545
61.1712
20.1547
60.8831
27.62
68.7079
244.833
244.633
69.0251
118.975
116.63
20.8753
119.324
116.852
385.463
385.469
387.517
387.458
20.8631
119.321
116.862
119.057
116.653
385.462
385.471
26.7687
20.1403
58.9808
20.3063
26.7173
20.1401
59.1251
65.9476
241.671
65.7353
241.924
65.9541
241.771
65.7557
241.835
26.7049
20.3079
20.1389
59.234
20.1399
58.9381
26.7896
26.7153
20.3057
20.1389
59.1101
20.139
58.9505
26.7798
65.8155
241.82
241.718
65.9223
65.8335
241.779
241.777
65.9344
387.414
387.496
385.486
385.522
20.8612
119.167
116.939
118.684
116.558
387.413
387.52
385.467
385.534
385.456
385.453
387.531
387.567
116.689
119.086
20.875
116.914
119.402
385.475
385.457
387.524
387.577
20.8631
116.892
119.358
116.715
119.122
65.9678
241.813
65.8143
241.784
26.7663
59.0152
20.1415
20.3119
26.717
59.2106
20.1414
26.7803
59.0271
20.1414
20.3113
26.7343
59.2355
20.1413
65.707
241.77
241.596
65.9211
65.8108
241.919
241.688
65.97
26.7134
20.3111
59.1979
20.1398
59.0427
20.1402
26.7705
26.7278
20.3106
59.2133
20.1397
59.0555
20.14
26.7856
116.662
118.971
20.8813
116.93
119.184
387.55
387.448
385.489
385.421
20.8688
116.977
119.207
116.746
118.918
387.446
387.475
27.6113
60.8915
20.1552
20.3382
27.4963
61.1729
20.1552
69.0252
244.741
68.7153
244.809
27.6184
20.156
60.9189
20.3409
27.5006
20.156
61.208
68.7014
244.903
244.486
69.0735
27.486
20.3372
61.1702
20.1538
60.8919
20.154
27.6226
68.7115
244.924
244.651
69.0305
27.4934
20.34
20.1546
61.2083
20.1548
60.924
27.6248
69.0247
244.75
68.7032
244.809
27.6117
20.1561
60.8756
20.3423
27.4937
20.1561
61.1758
69.0224
244.645
68.7131
244.888
27.4833
20.34
61.214
20.1535
60.8375
20.1549
27.6281
68.7086
244.825
244.65
69.0192
27.4838
20.3413
20.1545
61.1794
20.1548
60.8902
27.6197
68.7087
244.9
244.713
69.025
119.042
116.679
20.8747
119.315
116.789
385.473
385.458
387.496
387.428
20.8626
119.309
116.838
119.047
116.59
385.458
385.46
26.7667
20.1405
58.9802
20.3065
26.7219
20.1405
59.1279
65.9404
241.767
65.765
241.867
65.9485
241.776
65.7817
241.783
26.7019
20.308
20.1385
59.234
20.14
58.9419
26.7883
26.7124
20.3059
20.1389
59.1214
20.1392
58.9499
26.7826
65.78
241.864
241.648
65.9243
65.7977
241.906
241.686
65.9691
387.417
387.509
385.466
385.499
20.8616
119.17
116.953
118.704
116.564
387.423
387.531
385.483
385.515
385.484
385.464
387.524
387.566
116.694
119.088
20.875
116.911
119.396
385.479
385.474
387.527
387.574
20.863
116.881
119.356
116.708
119.116
65.9583
241.802
65.8111
241.774
26.767
59.0201
20.1414
20.3119
26.7173
59.2103
20.1413
26.7807
59.0375
20.1413
20.3108
26.7341
59.2429
20.1412
65.7216
241.759
241.582
65.9012
65.8308
241.748
241.742
65.9296
26.7158
20.3112
59.1903
20.1398
59.0403
20.1402
26.7668
26.7276
20.3108
59.1812
20.1397
59.0609
20.14
26.781
116.795
118.916
20.8754
116.976
119.268
387.466
387.531
385.45
385.382
20.8641
116.854
119.317
116.73
118.92
387.522
387.543
27.6108
60.8879
20.1553
20.3383
27.4978
61.1733
20.1553
69.0241
244.741
68.7154
244.92
27.6172
20.1561
60.923
20.341
27.5023
20.1561
61.2303
68.7015
244.927
244.487
69.0738
27.4854
20.3372
61.1714
20.1538
60.8922
20.154
27.6226
68.7104
244.881
244.736
69.0308
27.492
20.34
20.1545
61.2128
20.1547
60.9431
27.6248
69.024
244.735
68.703
244.813
27.6113
20.156
60.8835
20.3422
27.4935
20.156
61.1796
69.0219
244.715
68.7128
244.906
27.4829
20.3387
61.21
20.1534
60.8228
20.1548
27.6278
68.7081
244.837
244.657
69.0191
27.4834
20.3412
20.1545
61.1777
20.1547
60.893
27.6194
68.7083
244.865
244.721
69.0249
119.031
116.631
20.8747
119.316
116.838
385.476
385.466
387.517
387.459
20.8626
119.318
116.854
119.048
116.637
385.466
385.465
26.7714
20.1405
58.9988
20.3066
26.7258
20.1404
59.123
65.9552
241.793
65.7669
241.871
65.9723
241.814
65.8159
241.794
26.7062
20.3081
20.1387
59.2365
20.1398
58.9454
26.787
26.7166
20.3059
20.1389
59.1186
20.1392
58.95
26.7806
65.8122
241.866
241.648
65.9146
65.8187
241.814
241.785
65.9635
387.431
387.441
385.499
385.488
20.8612
119.172
116.933
118.693
116.548
387.422
387.458
385.468
385.508
385.49
385.468
387.525
387.562
116.682
119.086
20.875
116.914
119.404
385.483
385.473
387.52
387.568
20.863
116.894
119.36
116.713
119.125
65.9345
241.74
65.771
241.744
26.7532
59.0124
20.1413
20.3118
26.7126
59.2083
20.1413
26.7737
59.0029
20.1413
20.3113
26.729
59.2293
20.1412
65.6269
241.768
241.552
65.8693
65.778
241.752
241.692
65.9466
26.6998
20.3112
59.199
20.1398
59.0403
20.1401
26.7658
26.7212
20.3105
59.1947
20.1397
59.0497
20.14
26.7796
116.663
118.971
20.8813
116.928
119.181
387.536
387.449
385.474
385.426
20.8688
116.975
119.206
116.738
118.914
387.447
387.475
27.6103
60.89
20.1553
20.3382
27.4978
61.1763
20.1553
69.0239
244.742
68.7156
244.813
27.617
20.1561
60.9186
20.3409
27.5023
20.156
61.2078
68.7006
244.91
244.495
69.0735
27.4848
20.3371
61.1706
20.1538
60.8947
20.154
27.6222
68.7102
244.926
244.653
69.0306
27.4917
20.3399
20.1545
61.2076
20.1547
60.9233
27.6245
69.0244
244.754
68.703
244.813
27.611
20.156
60.8803
20.3423
27.4932
20.156
61.1749
69.022
244.671
68.7127
244.887
27.4827
20.3399
61.2136
20.1534
60.8374
20.1547
27.6274
68.7085
244.827
244.654
69.0193
27.4831
20.3412
20.1545
61.1789
20.1547
60.8894
27.6191
68.7085
244.903
244.711
69.0251
119.04
116.674
20.8745
119.309
116.785
385.476
385.458
387.497
387.429
20.8625
119.307
116.828
119.04
116.586
385.46
385.459
26.7688
20.1405
58.9657
20.3066
26.7232
20.1404
59.1434
65.9303
241.794
65.7568
241.872
65.96
241.727
65.8092
241.91
26.7015
20.308
20.1387
59.2336
20.1399
58.9414
26.7847
26.7143
20.3059
20.1389
59.1142
20.1392
58.9619
26.78
65.7955
241.862
241.65
65.9032
65.8079
241.802
241.794
65.9626
387.448
387.439
385.488
385.507
20.8614
119.17
116.931
118.698
116.543
387.429
387.465
385.469
385.507
385.491
385.464
387.52
387.564
116.694
119.088
20.8748
116.912
119.401
385.479
385.474
387.524
387.572
20.8628
116.879
119.357
116.708
119.121
65.9546
241.745
65.7869
241.771
26.7628
59.0202
20.1414
20.3119
26.7138
59.2092
20.1413
26.7777
59.0183
20.1413
20.3108
26.7283
59.2375
20.1412
65.6672
241.758
241.556
65.9154
65.7988
241.919
241.68
65.976
26.7107
20.3112
59.1906
20.1398
59.0388
20.1402
26.7727
26.7264
20.3107
59.2027
20.1397
59.0591
20.14
26.7865
116.792
118.916
20.8752
116.978
119.269
387.468
387.535
385.464
385.383
20.864
116.857
119.318
116.734
118.921
387.524
387.547
27.6103
60.888
20.1553
20.3382
27.4974
61.173
20.1552
69.0239
244.742
68.7155
244.922
27.6166
20.1561
60.9225
20.341
27.5021
20.156
61.23
68.7016
244.928
244.488
69.0738
27.4848
20.3371
61.171
20.1537
60.892
20.154
27.622
68.7102
244.883
244.737
69.0307
27.4914
20.34
20.1545
61.2129
20.1547
60.9428
27.6242
69.0243
244.737
68.7032
244.816
27.6107
20.156
60.883
20.3422
27.4929
20.156
61.1798
69.0222
244.717
68.713
244.915
27.4824
20.3386
61.2103
20.1534
60.823
20.1547
27.6273
68.7084
244.838
244.659
69.0195
27.4828
20.3412
20.1545
61.1806
20.1547
60.8934
27.6189
68.7087
244.905
244.731
69.0254
119.03
116.653
20.8745
119.316
116.773
385.471
385.452
387.519
387.459
20.8624
119.319
116.831
119.049
116.574
385.459
385.461
26.7684
20.1404
58.9604
20.3065
26.7227
20.1404
59.1365
65.9345
241.816
65.7459
241.786
65.9608
241.707
65.8083
241.897
26.7003
20.3079
20.1386
59.234
20.1398
58.9362
26.7871
26.7139
20.3058
20.1388
59.1336
20.1391
58.956
26.7796
65.7752
241.882
241.689
65.9277
65.8083
241.848
241.782
65.9648
387.456
387.443
385.466
385.53
20.8611
119.173
116.93
118.694
116.539
387.43
387.467
385.464
385.526
385.488
385.467
387.523
387.565
116.68
119.087
20.8748
116.91
119.397
385.483
385.476
387.522
387.573
20.8629
116.894
119.357
116.712
119.117
65.9637
241.818
65.8175
241.789
26.7672
59.0127
20.1414
20.3118
26.7193
59.2094
20.1413
26.7799
59.0253
20.1413
20.3114
26.7344
59.2361
20.1412
65.7094
241.774
241.59
65.917
65.8057
241.923
241.693
65.9591
26.7138
20.3111
59.1986
20.1398
59.0412
20.1402
26.7698
26.727
20.3106
59.2141
20.1397
59.0556
20.14
26.782
116.666
118.971
20.8813
116.934
119.179
387.539
387.45
385.494
385.436
20.8688
116.978
119.206
116.748
118.912
387.448
387.476
27.6097
60.8894
20.1552
20.3383
27.4971
61.1747
20.1552
69.0233
244.744
68.7155
244.815
27.6163
20.1561
60.9188
20.341
27.5018
20.156
61.2081
68.7007
244.905
244.49
69.0739
27.4843
20.3371
61.1697
20.1537
60.8931
20.1539
27.6218
68.7095
244.928
244.654
69.0308
27.491
20.3399
20.1545
61.2082
20.1547
60.9238
27.624
69.0247
244.755
68.7034
244.814
27.6107
20.156
60.8846
20.3423
27.4928
20.156
61.1815
69.0225
244.718
68.7132
244.921
27.4824
20.34
61.2139
20.1534
60.8376
20.1548
27.6273
68.7088
244.828
244.654
69.0195
27.4829
20.3412
20.1545
61.1799
20.1547
60.8947
27.6189
68.7089
244.903
244.736
69.0253
119.04
116.625
20.8745
119.315
116.83
385.478
385.467
387.501
387.422
20.8625
119.312
116.851
119.047
116.63
385.458
385.469
26.7691
20.1404
58.9498
20.3066
26.7223
20.1403
59.1779
65.9654
241.795
65.7683
241.87
65.9694
241.668
65.8107
241.75
26.7054
20.3081
20.1386
59.2322
20.1398
58.942
26.7938
26.7152
20.306
20.1389
59.1287
20.1392
58.9973
26.784
65.8069
241.793
241.653
65.968
65.8179
241.788
241.747
65.9847
387.45
387.519
385.46
385.507
20.8614
119.17
116.943
118.706
116.565
387.425
387.533
385.469
385.508
385.491
385.465
387.522
387.564
116.694
119.087
20.8748
116.912
119.403
385.479
385.474
387.525
387.573
20.8628
116.88
119.36
116.709
119.124
65.9585
241.805
65.7989
241.776
26.7667
59.0202
20.1414
20.3119
26.7166
59.2108
20.1413
26.7782
59.0378
20.1413
20.3108
26.7301
59.2433
20.1412
65.7108
241.76
241.585
65.9312
65.8036
241.749
241.743
65.9705
26.7155
20.3111
59.1906
20.1398
59.0405
20.1402
26.768
26.7268
20.3108
59.1813
20.1397
59.0612
20.14
26.7857
116.796
118.919
20.8752
116.976
119.272
387.469
387.535
385.45
385.382
20.864
116.854
119.317
116.732
118.924
387.532
387.548
27.6102
60.8876
20.1552
20.3382
27.4971
61.1736
20.1552
69.0254
244.744
68.7159
244.923
27.6168
20.1561
60.923
20.3409
27.5017
20.156
61.2304
68.7024
244.928
244.487
69.0741
27.4848
20.3371
61.1716
20.1537
60.8926
20.154
27.6221
68.7117
244.883
244.738
69.0317
27.4916
20.3399
20.1545
61.2133
20.1547
60.9433
27.6244
69.0244
244.737
68.7034
244.816
27.6107
20.156
60.8834
20.3421
27.4927
20.156
61.1798
69.0224
244.717
68.7132
244.914
27.4824
20.3386
61.2102
20.1534
60.8233
20.1547
27.6273
68.7085
244.836
244.659
69.0195
27.4829
20.3412
20.1545
61.1808
20.1547
60.8934
27.6189
68.7089
244.906
244.73
69.0258
119.034
116.67
20.8746
119.317
116.784
385.466
385.463
387.52
387.46
20.8625
119.32
116.828
119.049
116.585
385.459
385.464
26.7711
20.1404
59.0008
20.3066
26.7267
20.1404
59.1315
65.9759
241.68
65.8101
241.911
65.9751
241.696
65.8325
241.896
26.7076
20.308
20.1385
59.2291
20.1398
58.9436
26.7936
26.7163
20.3058
20.1388
59.1152
20.1392
58.9568
26.7809
65.8161
241.832
241.719
65.965
65.8219
241.841
241.782
65.9707
387.433
387.442
385.467
385.532
20.8611
119.173
116.931
118.694
116.551
387.43
387.467
385.47
385.549
385.488
385.464
387.523
387.565
116.68
119.089
20.8748
116.91
119.404
385.492
385.463
387.582
387.575
20.8629
116.868
119.376
116.712
119.127
65.9564
241.741
65.8126
241.767
26.754
59.0125
20.1414
20.3118
26.7135
59.2077
20.1413
26.7788
59.003
20.1413
20.3113
26.7336
59.2297
20.1412
65.6315
241.79
241.506
65.8792
65.799
241.787
241.705
65.9598
26.7007
20.3111
59.2091
20.1398
59.0354
20.1401
26.7673
26.726
20.3106
59.1925
20.1397
59.0533
20.14
26.7822
116.663
118.966
20.8813
116.932
119.191
387.528
387.518
385.543
385.418
20.8688
116.992
119.207
116.745
118.925
387.449
387.542
27.6099
60.89
20.1553
20.3382
27.4972
61.1755
20.1552
69.0247
244.744
68.7166
244.798
27.6167
20.1561
60.9192
20.3409
27.502
20.156
61.2076
68.7012
244.912
244.494
69.074
27.4845
20.3371
61.1716
20.1537
60.8942
20.154
27.6219
68.7109
244.859
244.638
69.0309
27.4914
20.3399
20.1545
61.2058
20.1547
60.9233
27.6242
69.0248
244.742
68.7035
244.825
27.6108
20.156
60.8849
20.3422
27.4928
20.156
61.1817
69.0227
244.719
68.7136
244.922
27.4825
20.34
61.2148
20.1534
60.8385
20.1548
27.6273
68.7089
244.828
244.663
69.0195
27.483
20.3412
20.1545
61.1799
20.1547
60.8948
27.6189
68.7091
244.903
244.736
69.0257
119.041
116.653
20.8744
119.316
116.772
385.472
385.455
387.509
387.448
20.8624
119.317
116.828
119.048
116.574
385.462
385.461
26.7689
20.1404
58.9694
20.3065
26.7235
20.1403
59.1371
65.9741
241.777
65.8069
241.872
65.9621
241.674
65.8174
241.902
26.7071
20.3079
20.1387
59.2336
20.1398
58.9404
26.7936
26.7153
20.3058
20.1389
59.1161
20.1392
58.9581
26.7808
65.8151
241.863
241.652
65.9688
65.8424
241.842
241.786
65.9435
387.451
387.519
385.468
385.523
20.8614
119.17
116.924
118.706
116.543
387.425
387.533
385.467
385.523
385.464
385.504
387.589
387.508
116.728
119.1
20.8748
116.858
119.387
385.466
385.487
387.526
387.533
20.8628
116.877
119.353
116.663
119.107
65.9495
241.704
65.8015
241.783
26.7656
59.0269
20.1414
20.312
26.715
59.2027
20.1413
26.7782
59.0186
20.1413
20.3108
26.7304
59.2401
20.1412
65.6966
241.763
241.48
65.9185
65.8253
241.939
241.694
65.9338
26.713
20.3112
59.195
20.1398
59.0292
20.1402
26.7704
26.726
20.3108
59.2084
20.1397
59.0631
20.14
26.7819
116.81
118.917
20.8753
116.986
119.268
387.455
387.533
385.477
385.402
20.8641
116.858
119.316
116.742
118.92
387.524
387.547
27.6101
60.8899
20.1553
20.3382
27.4972
61.1772
20.1552
69.0243
244.737
68.7158
244.796
27.6165
20.1561
60.9153
20.3409
27.5018
20.156
61.2091
68.702
244.919
244.505
69.0741
27.4847
20.3371
61.1737
20.1537
60.8959
20.154
27.6221
68.7105
244.858
244.636
69.031
27.4913
20.3399
20.1545
61.2059
20.1547
60.9244
27.6242
69.0244
244.737
68.7034
244.816
27.6107
20.156
60.8834
20.3421
27.4928
20.156
61.1796
69.0225
244.717
68.7136
244.914
27.4824
20.3386
61.2103
20.1534
60.8227
20.1547
27.6273
68.7085
244.838
244.659
69.0195
27.4829
20.3412
20.1545
61.1802
20.1547
60.8932
27.6189
68.7089
244.904
244.729
69.0257
119.038
116.653
20.8745
119.316
116.772
385.474
385.45
387.486
387.43
20.8624
119.311
116.827
119.047
116.574
385.462
385.461
26.7665
20.1404
58.9589
20.3065
26.7229
20.1403
59.1353
65.9625
241.817
65.8086
241.786
65.9462
241.666
65.7907
241.889
26.7061
20.308
20.1385
59.2344
20.1399
58.938
26.7855
26.7125
20.3058
20.1388
59.1188
20.1391
58.955
26.7749
65.8176
241.876
241.69
65.9094
65.8211
241.842