/*--------------------------------*- C++ -*----------------------------------*\
| =========                 |                                                 |
| \\      /  F ield         | OpenFOAM: The Open Source CFD Toolbox           |
|  \\    /   O peration     | Version:  2206                                  |
|   \\  /    A nd           | Website:  www.openfoam.com                      |
|    \\/     M anipulation  |                                                 |
\*---------------------------------------------------------------------------*/
FoamFile
{
    version     2.0;
    format      ascii;
    arch        "LSB;label=32;scalar=64";
    class       volScalarField;
    location    "0.3";
    object      p;
}
// * * * * * * * * * * * * * * * * * * * * * * * * * * * * * * * * * * * * * //

dimensions      [0 2 -2 0 0 0 0];

internalField   nonuniform List<scalar> 
66928
(
-0.00730646
-0.00729184
-0.00729198
-0.00729188
-0.0073065
-0.00729204
-0.00733607
-0.00754199
-0.00729183
-0.00729176
-0.00730651
-0.00730676
-0.00730664
-0.00730681
-0.00730645
-0.0073062
-0.00730678
-0.00730685
-0.00730662
-0.00729211
-0.00730659
-0.00730683
-0.00730685
-0.0072921
-0.00730665
-0.0073066
-0.00730682
-0.00730687
-0.00730685
-0.0073068
-0.00730657
-0.00730682
-0.00733613
-0.00742432
-0.00733626
-0.00742429
-0.00733608
-0.00733615
-0.00742426
-0.00742434
-0.00742434
-0.00754205
-0.00745395
-0.00754196
-0.00745388
-0.00745382
-0.00754207
-0.00754202
-0.00745389
-0.00745383
-0.0072773
-0.00727739
-0.0073067
-0.00727733
-0.00730668
-0.00727741
-0.00727723
-0.00730667
-0.00727744
-0.00730678
-0.00727745
-0.00730674
-0.00727746
-0.00727736
-0.0073067
-0.00727738
-0.00730666
-0.00730669
-0.00727744
-0.00727746
-0.00730675
-0.00727729
-0.00730646
-0.00727717
-0.00730643
-0.00730682
-0.00730675
-0.00730684
-0.00730685
-0.00730683
-0.00730684
-0.00730678
-0.00730686
-0.00730685
-0.00730685
-0.00727764
-0.00730682
-0.00727753
-0.00730682
-0.00727751
-0.00727758
-0.00730678
-0.00727763
-0.00730684
-0.00727758
-0.00730684
-0.00727761
-0.00727736
-0.00730681
-0.00727756
-0.00730679
-0.0073068
-0.0072776
-0.00727762
-0.00730686
-0.00727761
-0.00727762
-0.00730684
-0.00727761
-0.00730674
-0.0073654
-0.00739504
-0.00736543
-0.00739502
-0.00739496
-0.0074243
-0.00742428
-0.00739505
-0.00739503
-0.00742436
-0.00736537
-0.00733602
-0.00733616
-0.0073654
-0.00733612
-0.00736541
-0.00736542
-0.0073654
-0.00733603
-0.00733618
-0.00736546
-0.00733612
-0.00736544
-0.00736549
-0.00736546
-0.00733619
-0.0073362
-0.00733609
-0.00736541
-0.00736541
-0.00739499
-0.00742432
-0.00739498
-0.00742433
-0.00739503
-0.00742427
-0.00739487
-0.00739499
-0.00742431
-0.00739496
-0.00742437
-0.00739501
-0.0074243
-0.00739487
-0.0075128
-0.00748318
-0.0075127
-0.00748312
-0.0074832
-0.00745393
-0.00745389
-0.00745382
-0.00748315
-0.00748313
-0.00751274
-0.00754208
-0.00751274
-0.00754203
-0.00751276
-0.00751265
-0.00754201
-0.00751271
-0.00754207
-0.00751265
-0.007542
-0.00751271
-0.00751257
-0.00754201
-0.00748314
-0.00745391
-0.00745378
-0.00748319
-0.00745385
-0.00748317
-0.00748321
-0.00748314
-0.00745387
-0.00745373
-0.00748316
-0.00745384
-0.00748314
-0.00748321
-0.00751268
-0.00754201
-0.00754198
-0.00751277
-0.00751273
-0.00754206
-0.00727787
-0.00727728
-0.00730644
-0.00730649
-0.0072774
-0.00727745
-0.00730612
-0.00727832
-0.00727761
-0.00730658
-0.0073064
-0.00727778
-0.00727712
-0.00730625
-0.00736487
-0.00733623
-0.00733615
-0.00736539
-0.00733661
-0.0073652
-0.00736529
-0.00751321
-0.00751272
-0.00754182
-0.00754186
-0.00751281
-0.00751272
-0.00754148
-0.00729202
-0.00729199
-0.00727737
-0.00730676
-0.00727753
-0.00730596
-0.00727701
-0.00727714
-0.00730652
-0.00727725
-0.00730689
-0.00727769
-0.00730656
-0.00727719
-0.00727769
-0.0073068
-0.00727726
-0.00727763
-0.00730658
-0.00730682
-0.00727767
-0.00727726
-0.00730677
-0.00727734
-0.00730691
-0.00727775
-0.00730658
-0.00727773
-0.00727728
-0.00730678
-0.00727732
-0.00727765
-0.00730682
-0.00730658
-0.00727728
-0.00727769
-0.00730678
-0.00727739
-0.00730697
-0.00727795
-0.00730645
-0.00727714
-0.00727798
-0.0073068
-0.00739546
-0.00739498
-0.00742407
-0.00742415
-0.00742375
-0.00739504
-0.007395
-0.00748263
-0.00748314
-0.00745392
-0.00745386
-0.00745433
-0.00748296
-0.00748302
-0.00735061
-0.00735076
-0.00735068
-0.0073361
-0.00758619
-0.00758622
-0.00758617
-0.00757149
-0.00782149
-0.00782151
-0.00782147
-0.0078068
-0.00805673
-0.00805678
-0.00805674
-0.00804207
-0.00829195
-0.00829198
-0.008292
-0.00827733
-0.00852726
-0.00852734
-0.00852734
-0.00851267
-0.00876262
-0.00876265
-0.00876268
-0.00874801
-0.00899795
-0.008998
-0.00899799
-0.00898332
-0.00923324
-0.00923326
-0.00923328
-0.00921861
-0.00946853
-0.00946859
-0.00946857
-0.00945389
-0.00970382
-0.00970384
-0.00970386
-0.00968918
-0.00993911
-0.00993917
-0.00993915
-0.00992448
-0.0101744
-0.0101744
-0.0101744
-0.0101598
-0.0104097
-0.0104098
-0.0104097
-0.0103951
-0.010645
-0.010645
-0.010645
-0.0106304
-0.0108803
-0.0108803
-0.0108803
-0.0108656
-0.0111156
-0.0111156
-0.0111156
-0.0111009
-0.00735055
-0.00735065
-0.00752739
-0.00752736
-0.007336
-0.0075419
-0.00735078
-0.0073507
-0.00752734
-0.00752731
-0.00735075
-0.00752736
-0.0075273
-0.00733605
-0.00754193
-0.0073506
-0.00752733
-0.00752735
-0.00754194
-0.00757155
-0.00777733
-0.00758626
-0.00758623
-0.00776273
-0.00776274
-0.00757146
-0.00777731
-0.00758619
-0.00758614
-0.0077627
-0.00776263
-0.00758614
-0.0077627
-0.00776263
-0.00757149
-0.00777724
-0.00758618
-0.00776265
-0.00776264
-0.00777725
-0.00780687
-0.00801257
-0.00782154
-0.00782157
-0.00799796
-0.00799793
-0.00780683
-0.00801248
-0.00782152
-0.00782146
-0.00799794
-0.0079979
-0.00782145
-0.00799796
-0.0079979
-0.0078068
-0.00801251
-0.00782147
-0.00799792
-0.00799792
-0.00801252
-0.0080421
-0.00824777
-0.00805676
-0.00805672
-0.00823315
-0.00823317
-0.00804202
-0.00824775
-0.00805676
-0.00805672
-0.00823316
-0.00823315
-0.00805672
-0.00823316
-0.00823315
-0.00804207
-0.00824776
-0.00805674
-0.00823318
-0.00823318
-0.00824778
-0.0082773
-0.00848306
-0.00829196
-0.00829199
-0.00846844
-0.00846842
-0.00827726
-0.008483
-0.00829198
-0.00829197
-0.00846846
-0.00846847
-0.00829198
-0.00846851
-0.00846848
-0.00827732
-0.00848309
-0.008292
-0.0084685
-0.00846851
-0.00848311
-0.00851261
-0.00871842
-0.00852728
-0.00852724
-0.00870381
-0.00870382
-0.00851254
-0.0087184
-0.0085273
-0.00852731
-0.00870383
-0.00870383
-0.00852732
-0.00870382
-0.00870382
-0.00851265
-0.00871845
-0.00852735
-0.00870386
-0.00870386
-0.00871846
-0.00874797
-0.00895376
-0.00876265
-0.00876267
-0.00893915
-0.00893912
-0.00874793
-0.00895367
-0.00876266
-0.00876266
-0.00893916
-0.00893914
-0.00876265
-0.00893918
-0.00893914
-0.00874801
-0.00895376
-0.00876268
-0.00893917
-0.00893917
-0.00895377
-0.00898331
-0.00918906
-0.00899798
-0.00899793
-0.00917445
-0.00917446
-0.00898322
-0.00918903
-0.00899798
-0.00899797
-0.00917445
-0.00917444
-0.00899796
-0.00917445
-0.00917443
-0.00898332
-0.00918905
-0.00899799
-0.00917447
-0.00917446
-0.00918906
-0.0092186
-0.00942435
-0.00923327
-0.0092333
-0.00940974
-0.00940972
-0.00921855
-0.00942427
-0.00923327
-0.00923326
-0.00940974
-0.00940972
-0.00923326
-0.00940977
-0.00940973
-0.0092186
-0.00942434
-0.00923328
-0.00940975
-0.00940975
-0.00942435
-0.00945389
-0.00965964
-0.00946856
-0.00946852
-0.00964503
-0.00964504
-0.00945381
-0.00965961
-0.00946856
-0.00946854
-0.00964503
-0.00964501
-0.00946855
-0.00964503
-0.00964501
-0.00945389
-0.00965963
-0.00946857
-0.00964504
-0.00964504
-0.00965964
-0.00968918
-0.00989493
-0.00970385
-0.00970387
-0.00988032
-0.00988029
-0.00968913
-0.00989484
-0.00970385
-0.00970383
-0.00988032
-0.00988031
-0.00970383
-0.00988035
-0.00988031
-0.00968918
-0.00989492
-0.00970386
-0.00988033
-0.00988033
-0.00989493
-0.00992447
-0.0101302
-0.00993914
-0.0099391
-0.0101156
-0.0101156
-0.00992439
-0.0101302
-0.00993914
-0.00993913
-0.0101156
-0.0101156
-0.00993913
-0.0101156
-0.0101156
-0.00992448
-0.0101302
-0.00993915
-0.0101156
-0.0101156
-0.0101302
-0.0101598
-0.0103655
-0.0101744
-0.0101745
-0.0103509
-0.0103509
-0.0101597
-0.0103654
-0.0101744
-0.0101744
-0.0103509
-0.0103509
-0.0101744
-0.0103509
-0.0103509
-0.0101598
-0.0103655
-0.0101744
-0.0103509
-0.0103509
-0.0103655
-0.0103951
-0.0106008
-0.0104097
-0.0104097
-0.0105862
-0.0105862
-0.010395
-0.0106008
-0.0104097
-0.0104097
-0.0105862
-0.0105862
-0.0104097
-0.0105862
-0.0105862
-0.0103951
-0.0106008
-0.0104097
-0.0105862
-0.0105862
-0.0106008
-0.0106303
-0.0108361
-0.010645
-0.010645
-0.0108215
-0.0108215
-0.0106303
-0.010836
-0.010645
-0.010645
-0.0108215
-0.0108215
-0.010645
-0.0108215
-0.0108215
-0.0106303
-0.0108361
-0.010645
-0.0108215
-0.0108215
-0.0108361
-0.0108656
-0.0110714
-0.0108803
-0.0108803
-0.0110568
-0.0110568
-0.0108655
-0.0110714
-0.0108803
-0.0108803
-0.0110568
-0.0110568
-0.0108803
-0.0110568
-0.0110568
-0.0108656
-0.0110714
-0.0108803
-0.0110568
-0.0110568
-0.0110714
-0.0111009
-0.0111156
-0.0111156
-0.0111009
-0.0111156
-0.0111156
-0.0111156
-0.0112921
-0.0111009
-0.0111156
-0.0112921
-0.0113067
-0.00742424
-0.00733608
-0.00733609
-0.00742431
-0.00733615
-0.00742429
-0.00742436
-0.00733629
-0.00733629
-0.00742431
-0.00735059
-0.00735049
-0.0073504
-0.00752734
-0.00752733
-0.00752732
-0.00752733
-0.00742414
-0.00733635
-0.00735091
-0.00740961
-0.00742412
-0.00740968
-0.00733633
-0.0073363
-0.00742428
-0.00742392
-0.00735055
-0.00733651
-0.00740957
-0.00740948
-0.00742399
-0.0073365
-0.00733615
-0.00733619
-0.00742428
-0.00742431
-0.00742429
-0.00765975
-0.00757166
-0.00757169
-0.00765973
-0.00757167
-0.00765972
-0.00765966
-0.00757154
-0.00757148
-0.00765964
-0.0075862
-0.00758615
-0.00758617
-0.00776268
-0.00776268
-0.00776261
-0.0077626
-0.00765947
-0.0075717
-0.00758613
-0.00764507
-0.00757162
-0.00765948
-0.00764499
-0.0075715
-0.00765957
-0.00765926
-0.00758615
-0.00757177
-0.007645
-0.0075718
-0.00764497
-0.0076593
-0.00757145
-0.00757147
-0.00765961
-0.00765963
-0.00765959
-0.00789502
-0.00780698
-0.00780701
-0.00789501
-0.00780698
-0.00789497
-0.00789497
-0.00780687
-0.0078068
-0.00789494
-0.00782149
-0.00782143
-0.00782143
-0.00799793
-0.00799791
-0.00799789
-0.00799789
-0.00789476
-0.00780703
-0.00782146
-0.00788032
-0.00780695
-0.00789478
-0.00788028
-0.00780682
-0.00789488
-0.00789456
-0.00782142
-0.0078071
-0.00788029
-0.00780713
-0.00788024
-0.00789461
-0.00780677
-0.00780679
-0.0078949
-0.00789493
-0.0078949
-0.00813018
-0.00804218
-0.0080422
-0.00813018
-0.00804219
-0.00813015
-0.00813021
-0.00804211
-0.00804206
-0.00813016
-0.00805673
-0.00805671
-0.00805671
-0.00823315
-0.00823315
-0.00823313
-0.00823313
-0.00813
-0.00804227
-0.00805671
-0.00811558
-0.0080422
-0.00812999
-0.00811552
-0.0080421
-0.00813014
-0.00812982
-0.0080567
-0.00804237
-0.00811555
-0.00804239
-0.0081155
-0.00812987
-0.00804204
-0.00804206
-0.00813015
-0.00813018
-0.00813015
-0.00836536
-0.00827734
-0.00827735
-0.00836537
-0.00827734
-0.00836534
-0.00836547
-0.00827733
-0.00827729
-0.0083654
-0.00829196
-0.00829196
-0.00829196
-0.00846844
-0.00846844
-0.00846845
-0.00846846
-0.00836528
-0.00827749
-0.00829195
-0.0083508
-0.00827745
-0.00836526
-0.00835079
-0.00827735
-0.00836541
-0.00836512
-0.00829196
-0.00827764
-0.00835083
-0.00827767
-0.00835078
-0.00836516
-0.0082773
-0.00827733
-0.00836544
-0.00836547
-0.00836545
-0.00860069
-0.00851262
-0.00851262
-0.0086007
-0.00851264
-0.0086007
-0.00860082
-0.00851264
-0.00851261
-0.00860075
-0.00852727
-0.00852728
-0.00852729
-0.0087038
-0.0087038
-0.0087038
-0.0087038
-0.00860062
-0.00851282
-0.00852727
-0.00858616
-0.00851278
-0.0086006
-0.00858611
-0.00851268
-0.00860077
-0.00860047
-0.0085273
-0.00851298
-0.00858618
-0.008513
-0.00858613
-0.00860052
-0.00851264
-0.00851267
-0.00860079
-0.00860082
-0.0086008
-0.00883607
-0.008748
-0.00874801
-0.00883608
-0.00874801
-0.00883605
-0.00883617
-0.00874801
-0.00874798
-0.00883611
-0.00876263
-0.00876263
-0.00876263
-0.00893913
-0.00893912
-0.00893912
-0.00893912
-0.00883596
-0.00874817
-0.00876262
-0.00882148
-0.00874813
-0.00883594
-0.00882146
-0.00874804
-0.0088361
-0.00883579
-0.00876264
-0.00874832
-0.00882152
-0.00874835
-0.00882147
-0.00883584
-0.00874798
-0.00874801
-0.00883612
-0.00883615
-0.00883612
-0.00907139
-0.00898334
-0.00898335
-0.0090714
-0.00898336
-0.00907139
-0.00907147
-0.00898333
-0.00898329
-0.00907141
-0.00899794
-0.00899794
-0.00899794
-0.00917443
-0.00917443
-0.00917442
-0.00917442
-0.00907126
-0.00898348
-0.00899793
-0.00905682
-0.00898344
-0.00907124
-0.00905676
-0.00898334
-0.0090714
-0.00907108
-0.00899794
-0.00898362
-0.00905682
-0.00898365
-0.00905677
-0.00907113
-0.00898328
-0.00898331
-0.00907142
-0.00907144
-0.00907142
-0.00930668
-0.00921864
-0.00921865
-0.00930669
-0.00921865
-0.00930666
-0.00930675
-0.00921862
-0.00921858
-0.0093067
-0.00923324
-0.00923324
-0.00923324
-0.00940972
-0.00940971
-0.00940971
-0.00940971
-0.00930655
-0.00921878
-0.00923323
-0.00929208
-0.00921873
-0.00930655
-0.00929206
-0.00921863
-0.00930669
-0.00930636
-0.00923324
-0.00921891
-0.0092921
-0.00921893
-0.00929208
-0.00930641
-0.00921858
-0.0092186
-0.00930671
-0.00930674
-0.00930671
-0.00954197
-0.00945393
-0.00945394
-0.00954198
-0.00945395
-0.00954197
-0.00954205
-0.00945391
-0.00945387
-0.009542
-0.00946853
-0.00946853
-0.00946853
-0.00964501
-0.00964501
-0.00964499
-0.00964499
-0.00954184
-0.00945407
-0.00946852
-0.0095274
-0.00945402
-0.00954183
-0.00952734
-0.00945392
-0.00954198
-0.00954165
-0.00946853
-0.00945419
-0.00952739
-0.00945422
-0.00952737
-0.0095417
-0.00945387
-0.00945389
-0.009542
-0.00954203
-0.009542
-0.00977726
-0.00968922
-0.00968923
-0.00977727
-0.00968923
-0.00977723
-0.00977734
-0.0096892
-0.00968916
-0.00977728
-0.00970382
-0.00970381
-0.00970381
-0.0098803
-0.00988029
-0.00988029
-0.00988029
-0.00977713
-0.00968936
-0.00970381
-0.00976266
-0.00968931
-0.00977712
-0.00976264
-0.00968921
-0.00977727
-0.00977695
-0.00970381
-0.00968949
-0.00976268
-0.00968951
-0.00976264
-0.009777
-0.00968916
-0.00968918
-0.00977729
-0.00977732
-0.00977729
-0.0100126
-0.00992451
-0.00992452
-0.0100126
-0.00992453
-0.0100126
-0.0100126
-0.0099245
-0.00992446
-0.0100126
-0.00993911
-0.00993911
-0.00993911
-0.0101156
-0.0101156
-0.0101156
-0.0101156
-0.0100124
-0.00992465
-0.0099391
-0.00999798
-0.00992461
-0.0100124
-0.00999792
-0.0099245
-0.0100126
-0.0100122
-0.00993911
-0.00992479
-0.00999798
-0.00992481
-0.00999794
-0.0100123
-0.00992445
-0.00992448
-0.0100126
-0.0100126
-0.0100126
-0.0102478
-0.0101598
-0.0101598
-0.0102479
-0.0101598
-0.0102478
-0.0102479
-0.0101598
-0.0101597
-0.0102479
-0.0101744
-0.0101744
-0.0101744
-0.0103509
-0.0103509
-0.0103509
-0.0103509
-0.0102477
-0.0101599
-0.0101744
-0.0102332
-0.0101599
-0.0102477
-0.0102332
-0.0101598
-0.0102479
-0.0102475
-0.0101744
-0.0101601
-0.0102333
-0.0101601
-0.0102332
-0.0102476
-0.0101597
-0.0101598
-0.0102479
-0.0102479
-0.0102479
-0.0104831
-0.0103951
-0.0103951
-0.0104831
-0.0103951
-0.0104831
-0.0104832
-0.0103951
-0.010395
-0.0104832
-0.0104097
-0.0104097
-0.0104097
-0.0105862
-0.0105862
-0.0105862
-0.0105862
-0.010483
-0.0103952
-0.0104097
-0.0104686
-0.0103952
-0.010483
-0.0104685
-0.0103951
-0.0104831
-0.0104828
-0.0104097
-0.0103954
-0.0104686
-0.0103954
-0.0104685
-0.0104829
-0.010395
-0.0103951
-0.0104832
-0.0104832
-0.0104832
-0.0107184
-0.0106304
-0.0106304
-0.0107184
-0.0106304
-0.0107184
-0.0107185
-0.0106304
-0.0106303
-0.0107185
-0.010645
-0.010645
-0.010645
-0.0108215
-0.0108215
-0.0108215
-0.0108215
-0.0107183
-0.0106305
-0.010645
-0.0107038
-0.0106305
-0.0107183
-0.0107038
-0.0106304
-0.0107184
-0.0107181
-0.010645
-0.0106306
-0.0107038
-0.0106307
-0.0107038
-0.0107182
-0.0106303
-0.0106303
-0.0107185
-0.0107185
-0.0107185
-0.0109537
-0.0108657
-0.0108657
-0.0109537
-0.0108657
-0.0109537
-0.0109538
-0.0108657
-0.0108656
-0.0109537
-0.0108803
-0.0108803
-0.0108803
-0.0110568
-0.0110567
-0.0110567
-0.0110567
-0.0109536
-0.0108658
-0.0108803
-0.0109391
-0.0108658
-0.0109536
-0.0109391
-0.0108657
-0.0109537
-0.0109534
-0.0108803
-0.0108659
-0.0109391
-0.010866
-0.0109391
-0.0109534
-0.0108656
-0.0108656
-0.0109537
-0.0109538
-0.0109537
-0.011189
-0.011101
-0.011101
-0.011189
-0.011101
-0.011189
-0.0111891
-0.011101
-0.0111009
-0.0111891
-0.0111156
-0.0111155
-0.0111156
-0.0112921
-0.0111889
-0.0111011
-0.0111156
-0.0111744
-0.0111011
-0.0111889
-0.0111744
-0.011101
-0.011189
-0.0111887
-0.0111156
-0.0111012
-0.0111744
-0.0111013
-0.0111744
-0.0111888
-0.0111009
-0.0111009
-0.011189
-0.0111891
-0.011189
-0.00742424
-0.00733609
-0.0074243
-0.00733609
-0.00742391
-0.0073363
-0.00735038
-0.00740952
-0.00740926
-0.0073365
-0.00742404
-0.00742391
-0.00733635
-0.00735043
-0.00740954
-0.00742404
-0.00740927
-0.0073365
-0.00745388
-0.00754205
-0.00754204
-0.00745394
-0.00745388
-0.00754206
-0.00745392
-0.00754205
-0.00745412
-0.00746848
-0.00754179
-0.00752735
-0.00746832
-0.00754171
-0.00745418
-0.00745412
-0.00746847
-0.00754178
-0.00752734
-0.00745416
-0.0074683
-0.00754171
-0.00733617
-0.0073361
-0.00742434
-0.00742425
-0.00742436
-0.00733619
-0.0074243
-0.00754206
-0.00745392
-0.00745393
-0.0075421
-0.00754199
-0.00745383
-0.00745386
-0.00754193
-0.00745389
-0.00742416
-0.00733636
-0.00735095
-0.00740967
-0.00740975
-0.00733637
-0.00742414
-0.00742436
-0.00733632
-0.0074243
-0.00733629
-0.00742416
-0.00735093
-0.00733637
-0.00740964
-0.00740974
-0.00742413
-0.00733637
-0.00745384
-0.00754197
-0.00754199
-0.00745388
-0.00745399
-0.00746851
-0.00754181
-0.00752726
-0.00746848
-0.00754179
-0.00745404
-0.00745383
-0.00754194
-0.00745386
-0.00754199
-0.00745398
-0.0074685
-0.00752726
-0.00754178
-0.00746848
-0.00745402
-0.00754179
-0.00742435
-0.00733621
-0.00742431
-0.00733619
-0.00742414
-0.00735091
-0.00733636
-0.00740961
-0.00740967
-0.00742412
-0.00733633
-0.00742435
-0.00733623
-0.00742429
-0.0073362
-0.00745396
-0.00746849
-0.0075418
-0.00752728
-0.00745403
-0.00746847
-0.00754179
-0.00745382
-0.00754196
-0.00745387
-0.00754199
-0.00745396
-0.00746847
-0.00752728
-0.00754177
-0.00746846
-0.00745401
-0.00754179
-0.00745382
-0.00754193
-0.00745385
-0.00754199
-0.00733618
-0.00733622
-0.00742427
-0.00742433
-0.00742429
-0.00733628
-0.00742427
-0.00754192
-0.00745387
-0.00745383
-0.00754197
-0.00754194
-0.00745382
-0.00745383
-0.0075419
-0.00745387
-0.00742392
-0.00735052
-0.00733644
-0.00740956
-0.00740949
-0.00742398
-0.00733648
-0.00742425
-0.00733626
-0.00742428
-0.00733623
-0.00742425
-0.00733624
-0.00742427
-0.00733622
-0.00745414
-0.00746847
-0.00752731
-0.00754164
-0.00746842
-0.00745412
-0.00754159
-0.00745414
-0.00746849
-0.00752731
-0.00754164
-0.00746843
-0.00745411
-0.00754158
-0.00745387
-0.00754191
-0.00745387
-0.0075419
-0.00745387
-0.00754191
-0.00745386
-0.00754189
-0.00733623
-0.00742427
-0.00733625
-0.00742426
-0.00745383
-0.00754196
-0.00754193
-0.0074538
-0.00745382
-0.00754191
-0.00745385
-0.00754189
-0.00745385
-0.00757166
-0.00765972
-0.00757155
-0.00765963
-0.00757161
-0.00757151
-0.00765969
-0.00765975
-0.00765969
-0.00777738
-0.00768933
-0.00777729
-0.00768922
-0.00768923
-0.00777741
-0.00777736
-0.00768928
-0.00768918
-0.00765976
-0.00757167
-0.00757169
-0.00765974
-0.00765942
-0.00757192
-0.00758626
-0.0076451
-0.00757194
-0.00765948
-0.00764511
-0.00765942
-0.00757191
-0.00758627
-0.00764509
-0.00757193
-0.00765948
-0.00764512
-0.00768937
-0.00777739
-0.00768933
-0.00777739
-0.00768937
-0.00777739
-0.00768933
-0.0077774
-0.00768962
-0.00770393
-0.00777713
-0.0077627
-0.00768959
-0.00770391
-0.00777706
-0.00768962
-0.00770393
-0.00777713
-0.0077627
-0.0076896
-0.00770392
-0.00777707
-0.00757165
-0.00757147
-0.00765969
-0.00765975
-0.00765968
-0.00757152
-0.00765963
-0.00777738
-0.00768933
-0.00768924
-0.00777742
-0.00777734
-0.00768929
-0.00768918
-0.00777729
-0.00768922
-0.00765946
-0.00757171
-0.00758611
-0.00764505
-0.00757162
-0.00765948
-0.00764499
-0.00765966
-0.0075715
-0.00757147
-0.00765959
-0.00765946
-0.00758612
-0.00757166
-0.00764499
-0.00757161
-0.00764499
-0.00765943
-0.00768914
-0.0077773
-0.00768921
-0.00777732
-0.00768929
-0.00770389
-0.00777715
-0.00776265
-0.00768938
-0.00770383
-0.00777713
-0.00768913
-0.00777726
-0.00768916
-0.00777732
-0.00768929
-0.00770382
-0.00776265
-0.0077771
-0.00770384
-0.00768932
-0.00777713
-0.00765967
-0.00757153
-0.00757147
-0.00765964
-0.00765947
-0.00758613
-0.00757167
-0.00764499
-0.00757162
-0.007645
-0.00765944
-0.00765967
-0.0075715
-0.00757147
-0.0076596
-0.0076893
-0.0077039
-0.00777715
-0.00776265
-0.00768938
-0.00770383
-0.00777713
-0.00768915
-0.00777731
-0.00768921
-0.00777733
-0.0076893
-0.00770382
-0.00776265
-0.0077771
-0.00770384
-0.00768933
-0.00777713
-0.00768914
-0.00777726
-0.00768916
-0.00777732
-0.00757145
-0.00757147
-0.0076596
-0.00765962
-0.00765959
-0.0075715
-0.00765955
-0.00777724
-0.00768916
-0.00768915
-0.00777729
-0.00777726
-0.00768911
-0.00768913
-0.00777722
-0.00768916
-0.00765925
-0.00758616
-0.00757178
-0.00764501
-0.0075718
-0.00764498
-0.0076593
-0.00765956
-0.0075715
-0.00757152
-0.00765956
-0.00765956
-0.0075715
-0.00757152
-0.00765956
-0.00768947
-0.00770383
-0.0077626
-0.00777697
-0.0077038
-0.00768944
-0.00777692
-0.00768947
-0.00770383
-0.0077626
-0.00777697
-0.0077038
-0.00768944
-0.00777691
-0.00768918
-0.00777723
-0.00768916
-0.00777722
-0.00768918
-0.00777723
-0.00768916
-0.00777721
-0.0075715
-0.00765958
-0.0075715
-0.00765955
-0.00768915
-0.00777729
-0.00777725
-0.00768912
-0.00768913
-0.00777724
-0.00768916
-0.00777721
-0.00768916
-0.00780698
-0.007895
-0.00780688
-0.00789493
-0.00780693
-0.00780684
-0.00789497
-0.00789502
-0.00789499
-0.00801259
-0.00792459
-0.00801255
-0.00792451
-0.0079245
-0.00801262
-0.00801261
-0.00792454
-0.00792447
-0.00789502
-0.00780698
-0.00780701
-0.007895
-0.00789468
-0.00780724
-0.00782151
-0.00788037
-0.00780726
-0.00789474
-0.00788034
-0.00789468
-0.00780724
-0.0078215
-0.0078804
-0.00780726
-0.00789476
-0.00788032
-0.00792462
-0.0080126
-0.00792459
-0.0080126
-0.00792462
-0.00801261
-0.00792458
-0.0080126
-0.00792486
-0.00793917
-0.00801233
-0.00799794
-0.00792484
-0.00793915
-0.00801227
-0.00792486
-0.00793917
-0.00801233
-0.00799794
-0.00792484
-0.00793914
-0.00801226
-0.00780696
-0.00780682
-0.00789505
-0.00789495
-0.00789503
-0.00780687
-0.00789495
-0.0080126
-0.00792456
-0.0079246
-0.00801264
-0.00801258
-0.00792449
-0.00792451
-0.00801252
-0.00792453
-0.00789477
-0.00780704
-0.00782147
-0.00788034
-0.00780696
-0.00789479
-0.00788028
-0.00789497
-0.00780682
-0.0078068
-0.0078949
-0.00789477
-0.00782147
-0.00780699
-0.00788028
-0.00780695
-0.00788028
-0.00789475
-0.00792444
-0.00801256
-0.0079245
-0.00801258
-0.00792459
-0.00793915
-0.0080124
-0.00799789
-0.00792467
-0.00793909
-0.00801239
-0.00792443
-0.00801254
-0.00792446
-0.00801259
-0.00792458
-0.0079391
-0.0079979
-0.00801238
-0.00793909
-0.00792463
-0.00801239
-0.00789497
-0.00780687
-0.0078068
-0.00789495
-0.00789476
-0.00782146
-0.00780699
-0.00788028
-0.00780695
-0.00788027
-0.00789474
-0.00789496
-0.00780682
-0.0078068
-0.0078949
-0.00792458
-0.00793914
-0.00801239
-0.0079979
-0.00792467
-0.00793909
-0.00801238
-0.00792443
-0.00801254
-0.00792451
-0.00801258
-0.00792458
-0.00793909
-0.0079979
-0.00801237
-0.00793909
-0.00792462
-0.00801238
-0.00792443
-0.00801253
-0.00792446
-0.00801258
-0.00780677
-0.00780679
-0.00789489
-0.00789494
-0.0078949
-0.00780682
-0.00789486
-0.00801252
-0.00792447
-0.00792444
-0.00801257
-0.00801254
-0.00792442
-0.00792443
-0.0080125
-0.00792447
-0.00789456
-0.00782142
-0.0078071
-0.0078803
-0.00780712
-0.00788025
-0.00789461
-0.00789487
-0.00780682
-0.00780684
-0.00789488
-0.00789487
-0.00780682
-0.00780684
-0.00789487
-0.00792477
-0.00793911
-0.00799788
-0.00801224
-0.00793908
-0.00792474
-0.00801219
-0.00792477
-0.00793911
-0.00799788
-0.00801224
-0.00793907
-0.00792474
-0.00801219
-0.00792448
-0.00801251
-0.00792447
-0.00801249
-0.00792448
-0.00801251
-0.00792447
-0.00801249
-0.00780682
-0.00789488
-0.00780682
-0.00789486
-0.00792443
-0.00801256
-0.00801253
-0.00792441
-0.00792443
-0.00801251
-0.00792446
-0.0080125
-0.00792446
-0.00804217
-0.00813016
-0.00804212
-0.00813015
-0.00804213
-0.00804208
-0.00813018
-0.00813019
-0.00813021
-0.00824774
-0.00815974
-0.00824776
-0.00815972
-0.0081597
-0.00824778
-0.00824781
-0.0081597
-0.00815968
-0.00813018
-0.00804218
-0.0080422
-0.00813018
-0.00812984
-0.00804243
-0.00805674
-0.00811557
-0.00804245
-0.0081299
-0.00811555
-0.00812985
-0.00804242
-0.00805674
-0.00811554
-0.00804244
-0.00812989
-0.00811556
-0.00815977
-0.00824776
-0.00815975
-0.00824774
-0.00815977
-0.00824777
-0.00815975
-0.00824775
-0.00816002
-0.00817436
-0.00824749
-0.00823313
-0.00816
-0.00817435
-0.00824743
-0.00816003
-0.00817436
-0.0082475
-0.00823314
-0.00816
-0.00817436
-0.00824743
-0.00804216
-0.00804204
-0.00813017
-0.00813019
-0.00813019
-0.00804209
-0.00813013
-0.00824775
-0.00815974
-0.00815971
-0.0082478
-0.0082478
-0.0081597
-0.00815966
-0.00824776
-0.00815971
-0.00813001
-0.00804228
-0.00805671
-0.00811557
-0.00804221
-0.00813
-0.00811553
-0.00813021
-0.00804209
-0.00804206
-0.00813016
-0.00813001
-0.00805673
-0.00804226
-0.00811554
-0.0080422
-0.00811554
-0.00813
-0.00815967
-0.00824777
-0.00815971
-0.00824782
-0.00815982
-0.00817437
-0.00824762
-0.00823312
-0.00815988
-0.00817433
-0.00824762
-0.00815967
-0.00824779
-0.00815971
-0.00824783
-0.00815982
-0.00817435
-0.00823314
-0.00824763
-0.00817434
-0.00815988
-0.00824763
-0.0081302
-0.00804209
-0.00804205
-0.00813015
-0.00813
-0.00805672
-0.00804225
-0.00811554
-0.0080422
-0.00811554
-0.00812999
-0.0081302
-0.00804209
-0.00804205
-0.00813015
-0.00815982
-0.00817437
-0.00824761
-0.00823313
-0.00815987
-0.00817432
-0.00824763
-0.00815967
-0.00824778
-0.0081597
-0.00824783
-0.00815982
-0.00817434
-0.00823315
-0.00824763
-0.00817434
-0.00815987
-0.00824763
-0.00815967
-0.00824779
-0.00815971
-0.00824783
-0.00804205
-0.00804207
-0.00813015
-0.00813019
-0.00813016
-0.0080421
-0.00813013
-0.00824777
-0.00815972
-0.00815969
-0.00824782
-0.0082478
-0.00815967
-0.00815969
-0.00824776
-0.00815973
-0.00812982
-0.0080567
-0.00804237
-0.00811556
-0.00804239
-0.00811552
-0.00812987
-0.00813013
-0.0080421
-0.00804211
-0.00813014
-0.00813013
-0.0080421
-0.00804211
-0.00813013
-0.00816003
-0.00817437
-0.00823312
-0.00824751
-0.00817434
-0.00816
-0.00824746
-0.00816002
-0.00817437
-0.00823314
-0.00824751
-0.00817433
-0.00815999
-0.00824745
-0.00815974
-0.00824778
-0.00815973
-0.00824776
-0.00815974
-0.00824777
-0.00815972
-0.00824776
-0.00804209
-0.00813013
-0.00804209
-0.00813012
-0.00815969
-0.00824782
-0.00824779
-0.00815966
-0.00815969
-0.00824777
-0.00815971
-0.00824776
-0.00815972
-0.00827733
-0.00836535
-0.00827733
-0.00836539
-0.00827729
-0.00827729
-0.00836541
-0.00836539
-0.00836544
-0.00848301
-0.00839495
-0.00848305
-0.00839497
-0.00839495
-0.00848305
-0.0084831
-0.00839492
-0.00839492
-0.00836536
-0.00827735
-0.00827735
-0.00836537
-0.00836504
-0.00827759
-0.00829194
-0.00835079
-0.00827762
-0.0083651
-0.00835078
-0.00836504
-0.0082776
-0.00829193
-0.00835083
-0.00827762
-0.00836514
-0.00835076
-0.00839497
-0.00848302
-0.00839496
-0.00848299
-0.00839497
-0.00848303
-0.00839496
-0.008483
-0.00839524
-0.00840962
-0.00848276
-0.00846843
-0.00839522
-0.00840961
-0.00848269
-0.00839524
-0.00840964
-0.00848277
-0.00846843
-0.00839523
-0.0084096
-0.00848269
-0.00827734
-0.00827727
-0.00836551
-0.00836534
-0.00836549
-0.00827734
-0.00836543
-0.00848304
-0.00839494
-0.00839508
-0.0084831
-0.0084831
-0.00839489
-0.00839498
-0.00848305
-0.00839501
-0.00836526
-0.0082775
-0.00829194
-0.00835081
-0.00827744
-0.00836524
-0.00835078
-0.00836547
-0.00827734
-0.0082773
-0.00836543
-0.00836527
-0.00829197
-0.00827751
-0.00835081
-0.00827744
-0.0083508
-0.00836527
-0.00839494
-0.00848307
-0.00839497
-0.00848313
-0.00839509
-0.00840964
-0.00848291
-0.00846843
-0.00839513
-0.00840961
-0.00848293
-0.00839495
-0.0084831
-0.008395
-0.00848314
-0.0083951
-0.00840964
-0.00846846
-0.00848295
-0.00840964
-0.00839516
-0.00848294
-0.00836548
-0.00827733
-0.0082773
-0.00836543
-0.00836529
-0.00829197
-0.00827751
-0.00835082
-0.00827745
-0.00835081
-0.00836528
-0.00836549
-0.00827735
-0.0082773
-0.00836544
-0.00839511
-0.00840966
-0.00848293
-0.00846845
-0.00839516
-0.00840963
-0.00848296
-0.00839496
-0.00848308
-0.008395
-0.00848315
-0.00839512
-0.00840966
-0.00846847
-0.00848296
-0.00840965
-0.00839518
-0.00848296
-0.00839497
-0.00848312
-0.00839501
-0.00848316
-0.0082773
-0.00827733
-0.00836543
-0.00836547
-0.00836545
-0.00827736
-0.00836541
-0.00848309
-0.008395
-0.00839499
-0.00848314
-0.00848312
-0.00839495
-0.00839498
-0.00848309
-0.00839502
-0.00836511
-0.00829196
-0.00827764
-0.00835084
-0.00827766
-0.0083508
-0.00836516
-0.00836542
-0.00827737
-0.00827738
-0.00836543
-0.00836542
-0.00827737
-0.00827738
-0.00836542
-0.00839533
-0.00840968
-0.00846845
-0.00848284
-0.00840965
-0.0083953
-0.00848279
-0.00839533
-0.00840968
-0.00846846
-0.00848284
-0.00840964
-0.0083953
-0.00848278
-0.00839504
-0.0084831
-0.00839502
-0.00848309
-0.00839504
-0.0084831
-0.00839502
-0.00848308
-0.00827735
-0.00836543
-0.00827736
-0.00836541
-0.00839499
-0.00848315
-0.00848312
-0.00839497
-0.00839499
-0.0084831
-0.00839502
-0.00848309
-0.00839502
-0.00851262
-0.0086007
-0.00851264
-0.00860074
-0.00851259
-0.00851259
-0.00860075
-0.00860074
-0.00860078
-0.00871839
-0.00863031
-0.00871842
-0.00863033
-0.0086303
-0.00871844
-0.00871848
-0.00863028
-0.00863028
-0.00860069
-0.00851263
-0.00851263
-0.0086007
-0.00860038
-0.00851289
-0.00852726
-0.00858612
-0.0085129
-0.00860045
-0.00858611
-0.00860038
-0.0085129
-0.00852727
-0.0085861
-0.0085129
-0.00860045
-0.00858612
-0.00863031
-0.0087184
-0.00863031
-0.00871838
-0.00863031
-0.0087184
-0.00863031
-0.00871838
-0.00863059
-0.00864498
-0.00871816
-0.00870379
-0.00863059
-0.00864496
-0.00871807
-0.00863059
-0.00864498
-0.00871816
-0.00870379
-0.00863059
-0.00864496
-0.00871808
-0.00851264
-0.00851258
-0.00860075
-0.00860074
-0.00860078
-0.00851264
-0.00860074
-0.0087184
-0.00863032
-0.00863031
-0.00871845