/*--------------------------------*- C++ -*----------------------------------*\
| =========                 |                                                 |
| \\      /  F ield         | OpenFOAM: The Open Source CFD Toolbox           |
|  \\    /   O peration     | Version:  2206                                  |
|   \\  /    A nd           | Website:  www.openfoam.com                      |
|    \\/     M anipulation  |                                                 |
\*---------------------------------------------------------------------------*/
FoamFile
{
    version     2.0;
    format      ascii;
    arch        "LSB;label=32;scalar=64";
    class       surfaceScalarField;
    location    "0.3";
    object      phi;
}
// * * * * * * * * * * * * * * * * * * * * * * * * * * * * * * * * * * * * * //

dimensions      [0 3 -1 0 0 0 0];

oriented        oriented;

internalField   nonuniform List<scalar> 
197159
(
-3.24266e-11
-3.64567e-11
2.67491e-08
-2.65989e-08
-4.06363e-11
-4.0688e-11
-6.78253e-12
-3.37483e-11
-1.00565e-11
7.16491e-12
-2.47452e-11
-2.26539e-11
2.00915e-11
2.37925e-11
1.10017e-07
2.32212e-11
6.53918e-12
-1.34569e-11
-3.57704e-11
-2.72815e-11
2.75015e-11
5.70576e-11
-5.55022e-11
5.44534e-11
-5.64088e-11
1.08098e-07
2.91114e-11
5.05042e-11
-3.79292e-12
-9.37108e-12
-2.2752e-11
2.74259e-11
3.48807e-11
-5.49992e-11
5.27338e-11
-3.58035e-11
1.09099e-07
-2.88697e-11
-2.66239e-08
-5.10792e-11
-2.34249e-11
2.67564e-08
-3.30472e-11
-1.00891e-10
-2.64972e-11
-4.34588e-11
-4.02446e-12
-2.23394e-11
3.37998e-11
4.49409e-12
1.09005e-07
-1.4686e-11
4.09048e-11
4.07963e-11
2.65985e-08
3.32392e-11
3.57077e-11
-2.65987e-08
-4.07107e-11
-4.0286e-11
-3.33159e-11
-3.60412e-11
2.6749e-08
-4.91703e-11
1.10712e-07
6.97591e-11
-9.30994e-12
1.10988e-07
-1.31182e-11
4.54824e-12
1.26036e-12
8.0972e-09
-8.1037e-09
6.85807e-13
5.25941e-12
2.41292e-12
7.93722e-09
1.86052e-12
6.38437e-12
2.48932e-08
1.65796e-11
-2.49087e-08
-2.93918e-12
1.1265e-11
2.43813e-08
2.30374e-11
-2.44054e-08
-4.93683e-12
6.31231e-12
-1.59973e-08
2.12262e-12
1.59893e-08
8.15903e-13
3.01969e-12
-2.32768e-08
9.15843e-12
2.32774e-08
1.3236e-11
3.5014e-12
1.56381e-08
1.57834e-12
5.12214e-11
1.33753e-13
-4.70623e-12
-1.64458e-11
2.18902e-08
2.36466e-11
-2.29032e-08
1.70203e-11
2.28871e-08
3.34338e-14
6.62532e-12
9.72252e-11
-1.30186e-10
1.31397e-10
-9.67307e-11
1.09694e-07
-2.4822e-14
-2.49356e-08
-1.08327e-11
9.27804e-11
2.49049e-08
1.35037e-11
-2.04416e-12
2.93185e-12
1.56335e-08
1.54131e-12
5.12561e-11
-1.64569e-11
-4.42288e-12
2.18866e-08
4.59594e-12
7.89703e-11
-1.29801e-10
1.30716e-10
-7.80869e-11
1.10858e-07
-1.11251e-11
2.40589e-11
-2.28882e-08
1.66422e-11
2.28721e-08
-2.49328e-08
9.29445e-11
-1.05866e-11
2.49017e-08
5.76606e-12
7.93596e-09
1.78596e-12
2.34852e-11
-2.44581e-08
-4.37493e-12
2.44337e-08
-3.02613e-12
6.57981e-12
1.53079e-11
-2.48585e-08
-2.96582e-12
2.48426e-08
1.16924e-12
-8.10403e-09
8.09806e-09
1.77648e-12
-5.27569e-12
1.30421e-12
-2.3287e-08
9.85656e-12
2.32877e-08
-1.60032e-08
2.12528e-12
1.59955e-08
1.54904e-12
-1.63357e-12
8.10296e-09
-1.07035e-12
-3.05818e-12
4.29359e-12
8.09612e-09
-8.1024e-09
7.98946e-13
1.18887e-12
-6.15678e-12
7.94709e-09
-1.80597e-12
-1.90588e-12
4.90245e-12
7.93774e-09
-7.94728e-09
2.54319e-12
2.09344e-12
-1.48416e-11
3.07609e-12
2.491e-08
-6.64463e-12
-2.3418e-11
3.93442e-12
2.44056e-08
-1.10007e-11
2.6749e-08
-2.65986e-08
-4.08139e-11
-4.04263e-11
-3.31238e-11
-3.59999e-11
2.4894e-08
-2.28348e-12
-2.49102e-08
1.65494e-11
6.26779e-12
2.43808e-08
-5.05522e-12
-2.44053e-08
2.30146e-11
1.14138e-11
3.95912e-12
-8.10174e-09
6.43702e-13
8.09561e-09
1.52271e-12
-1.75865e-12
8.102e-09
-1.38511e-12
-2.73174e-12
4.97976e-12
-7.94769e-09
2.49551e-12
7.93812e-09
2.08967e-12
-6.11351e-12
7.9475e-09
-1.80838e-12
-1.83502e-12
2.65986e-08
4.0771e-11
4.11889e-11
3.27195e-11
3.56941e-11
1.63599e-11
-2.49107e-08
-2.28967e-12
6.10738e-12
2.48945e-08
2.29774e-11
-2.44053e-08
-4.97149e-12
1.13686e-11
2.43809e-08
3.42917e-12
-1.50543e-11
2.49105e-08
-6.70451e-12
3.84319e-12
-2.35227e-11
2.44054e-08
-1.09443e-11
-2.03985e-12
-5.50144e-13
-3.48687e-12
-8.09762e-09
9.01051e-12
-1.71133e-11
2.17625e-08
1.31948e-11
-2.13596e-11
-2.50399e-08
-1.74708e-11
2.50173e-08
3.30836e-11
2.36605e-11
2.55669e-12
-1.50705e-11
-5.74252e-12
-1.52552e-08
9.9743e-12
-2.51262e-12
1.52444e-08
4.52826e-13
2.34889e-12
-1.60152e-12
-3.15954e-11
-2.2093e-11
-1.30764e-11
2.17463e-08
2.17835e-11
1.17383e-11
-2.14084e-11
2.06735e-08
1.40554e-11
-2.02635e-11
-2.40055e-08
-2.14586e-11
2.39779e-08
4.02319e-11
3.18824e-11
4.27775e-12
-2.32065e-11
-1.11461e-11
-1.48703e-08
1.1534e-11
-3.34706e-12
1.48561e-08
9.86815e-13
2.71737e-12
-9.48922e-13
-4.01982e-11
-3.20074e-11
-1.44318e-11
2.06579e-08
2.00281e-11
2.79161e-12
3.90453e-12
1.76663e-08
-6.64642e-09
3.88424e-12
6.63902e-09
1.01171e-12
-6.61307e-09
3.37016e-12
6.60489e-09
1.46383e-12
-2.21786e-12
-1.65645e-12
1.76461e-08
-8.56795e-12
-3.28019e-11
-2.85156e-12
-1.59536e-08
-2.40504e-08
9.87569e-12
1.09502e-11
2.4031e-08
6.82759e-13
-1.40588e-10
3.96191e-11
-2.3923e-08
-3.50156e-11
6.72091e-09
9.62087e-13
-6.71013e-09
-1.8684e-12
-3.80984e-12
7.13418e-12
2.67772e-11
2.34236e-08
2.22115e-12
6.5163e-09
2.01671e-12
-1.33675e-11
4.23643e-11
2.0966e-08
-1.31659e-12
1.62095e-13
1.41654e-08
8.11307e-13
1.1682e-08
8.22012e-13
-4.13137e-12
6.72487e-12
2.69322e-11
2.34121e-08
1.91524e-12
6.51248e-09
2.01354e-12
-9.99969e-13
1.4162e-08
8.09574e-13
-1.3356e-11
4.22484e-11
2.09571e-08
1.16758e-08
8.44879e-13
-2.27729e-11
1.14657e-11
2.06716e-08
1.37833e-11
-1.91092e-11
-2.43796e-08
-2.09175e-11
4.29055e-11
3.08565e-11
2.43502e-08
-2.29546e-11
4.76591e-12
-1.16553e-11
-1.48547e-08
1.1906e-11
-2.86472e-12
1.48404e-08
8.83819e-13
-4.01901e-11
-3.19229e-11
2.90761e-12
-1.01548e-12
-1.38267e-11
2.05935e-11
2.06558e-08
9.28818e-12
-1.51559e-11
2.17736e-08
1.26218e-11
-2.28425e-11
-2.46554e-08
-1.7217e-11
2.96059e-11
2.52277e-11
2.46331e-08
2.70522e-12
-1.63069e-11
2.94954e-12
-4.67352e-12
-1.52719e-08
9.37632e-12
-2.61485e-12
1.52612e-08
9.13293e-13
2.25312e-12
-1.06964e-12
-4.51595e-11
-5.01281e-12
-1.31109e-11
2.11958e-11
2.17577e-08
3.51499e-12
3.06292e-12
1.76699e-08
-6.61253e-09
3.77071e-12
6.60445e-09
1.44914e-12
-6.64703e-09
3.13599e-12
6.63982e-09
1.46201e-12
-1.65656e-12
-1.71123e-12
1.76499e-08
-9.35018e-13
-2.17954e-12
-2.05567e-12
-5.02617e-12
-1.77907e-12
-2.40591e-08
6.23265e-14
9.62156e-12
2.40479e-08
3.65978e-12
-9.94197e-12
-2.02208e-13
-3.37629e-12
6.72461e-09
2.17879e-12
-6.72798e-09
1.24846e-12
8.09662e-09
4.30161e-12
1.00698e-12
1.03808e-12
-1.69256e-12
-1.23633e-12
-2.85531e-12
7.93754e-09
4.87319e-12
2.50484e-12
2.16559e-12
-6.14173e-12
-1.88237e-12
-1.71471e-12
2.74362e-12
4.14087e-12
1.76663e-08
-1.76458e-08
-1.34316e-11
-1.39616e-11
-6.64634e-09
3.72608e-12
2.14071e-12
6.63898e-09
1.49271e-12
-6.61324e-09
3.13869e-12
3.33058e-12
6.60505e-09
1.71468e-12
-6.63897e-09
-2.74132e-12
-1.88457e-12
-6.60497e-09
-2.61082e-12
-1.51619e-12
1.2801e-11
1.44667e-11
1.76459e-08
-2.17624e-08
-1.00835e-11
1.74564e-11
-1.29782e-11
2.17459e-08
2.2024e-11
1.67898e-11
2.50395e-08
-3.18073e-11
-2.20364e-11
-9.01957e-12
1.52554e-08
2.57003e-12
-1.47199e-12
-2.4391e-12
1.66429e-11
2.48938e-08
6.30205e-12
1.3249e-11
-2.15306e-11
-2.20166e-12
1.52444e-08
6.98737e-13
2.5017e-08
3.32702e-11
2.3258e-11
-2.06736e-08
-1.14214e-11
2.16202e-11
-1.44847e-11
2.06577e-08
2.01704e-11
2.13564e-11
2.40057e-08
-4.04286e-11
-3.21723e-11
-1.20027e-11
1.48704e-08
2.58064e-12
-8.7411e-13
-4.98344e-12
2.30537e-11
2.4381e-08
1.13758e-11
1.39803e-11
-2.02973e-11
-3.30058e-12
1.48561e-08
1.14944e-12
2.39779e-08
4.03541e-11
3.21453e-11
-1.76664e-08
-3.74488e-12
-3.11602e-12
-2.75505e-12
6.64636e-09
-2.02279e-12
-4.14843e-12
6.61315e-09
-1.53535e-12
1.44553e-12
1.76986e-12
9.01085e-12
2.1762e-08
-1.72199e-11
-2.12297e-11
-1.52554e-08
1.00137e-11
1.52444e-08
7.87177e-13
3.39192e-12
-1.48969e-11
-6.59275e-12
-1.71585e-11
-2.50388e-08
2.50166e-08
3.28561e-11
2.30557e-11
-1.33253e-12
2.17459e-08
2.17163e-11
-3.15834e-11
-2.23056e-11
1.19565e-11
2.06736e-08
-2.13779e-11
-2.03662e-11
-1.48703e-08
1.13466e-11
1.48562e-08
1.09265e-12
3.95976e-12
-2.33902e-11
-1.09867e-11
-2.15887e-11
-2.40056e-08
2.39778e-08
4.02632e-11
3.21678e-11
-8.92901e-13
2.06578e-08
1.99957e-11
-4.04262e-11
-3.20658e-11
-8.09581e-09
-1.97172e-12
-1.4912e-12
-2.46753e-12
4.11027e-12
6.61498e-13
1.41519e-12
-7.93796e-09
-6.11187e-12
-1.87748e-12
-1.74125e-12
4.87238e-12
2.54552e-12
2.12612e-12
-1.76664e-08
-3.58574e-12
-3.12965e-12
1.27587e-11
1.44077e-11
1.76459e-08
-2.88697e-12
6.6464e-09
-2.73091e-12
-1.80467e-12
-4.19871e-12
6.61335e-09
-2.58521e-12
-1.51523e-12
-1.35641e-11
-1.40211e-11
2.10641e-12
6.63909e-09
1.62553e-12
3.25385e-12
6.60519e-09
1.77642e-12
9.17624e-12
-1.73609e-11
2.17616e-08
-2.17456e-08
1.35428e-11
-2.13629e-11
-2.50382e-08
-1.7112e-11
3.26669e-11
2.50161e-08
2.28898e-11
3.50401e-12
-1.50951e-11
-2.48943e-08
-6.80075e-12
-1.52557e-08
9.87412e-12
-2.17923e-12
1.52448e-08
9.26199e-13
-1.52446e-08
2.75544e-12
-1.14377e-12
-2.50163e-08
-3.18044e-11
-2.25113e-11
-1.28127e-11
2.15763e-11
2.17456e-08
1.20153e-11
-2.14261e-11
2.06735e-08
-2.06576e-08
1.40885e-11
-2.05446e-11
-2.40056e-08
-2.14786e-11
4.01509e-11
2.39778e-08
3.21e-11
3.96669e-12
-2.35066e-11
-2.43809e-08
-1.09838e-11
-1.48706e-08
1.12678e-11
-3.21061e-12
1.48565e-08
1.0671e-12
-1.48563e-08
2.67124e-12
-9.15947e-13
-2.39778e-08
-4.06071e-11
-3.20886e-11
-1.43504e-11
1.98886e-11
2.06577e-08
-2.17617e-08
-9.92351e-12
1.71409e-11
2.16791e-11
-9.18336e-12
1.52555e-08
-1.24403e-12
1.72804e-11
2.50385e-08
-3.17757e-11
-2.24292e-11
-2.22444e-12
1.64599e-11
6.13854e-12
-2.13092e-11
9.01944e-13
3.27575e-11
2.2973e-11
-2.06735e-08
-1.12393e-11
2.15753e-11
1.99406e-11
-1.21249e-11
1.48705e-08
-9.26457e-13
2.1321e-11
2.40056e-08
-4.06015e-11
-3.20607e-11
-5.0539e-12
2.29855e-11
1.1416e-11
-2.05187e-11
1.10804e-12
4.01903e-11
3.21793e-11
2.95046e-12
4.07913e-12
1.76665e-08
-6.64649e-09
3.49931e-12
6.63916e-09
1.66062e-12
-6.61345e-09
3.26314e-12
6.60525e-09
1.72749e-12
-1.70288e-12
-1.50718e-12
1.76461e-08
-1.46351e-11
-2.23603e-11
2.38915e-08
4.04176e-11
4.05617e-11
-2.61126e-08
-1.52277e-11
2.61102e-08
-2.48711e-08
-2.18343e-11
2.48652e-08
2.38963e-08
-3.48315e-11
-8.20458e-13
2.38829e-08
3.16229e-11
8.49665e-11
-2.59607e-08
-1.70632e-11
2.59468e-08
-2.5006e-08
-1.94435e-11
2.50051e-08
2.38882e-08
-2.38914e-08
1.52539e-11
2.21136e-11
2.38963e-08
1.46599e-11
2.61121e-08
-7.4627e-12
2.23156e-11
2.48709e-08
-2.7643e-11
-4.0681e-11
-4.05887e-11
2.67489e-08
-3.2891e-11
-3.62279e-11
2.61103e-08
9.73629e-12
2.48652e-08
2.75229e-11
-1.51735e-11
-2.21953e-11
2.38916e-08
-2.38961e-08
4.08007e-11
4.12781e-11
-2.6749e-08
3.26011e-11
3.56101e-11
-2.61123e-08
-1.48259e-11
9.03342e-12
2.611e-08
-2.48711e-08
-2.21069e-11
2.77623e-11
2.48653e-08
-2.61101e-08
-8.37761e-12
-2.48653e-08
-2.73351e-11
2.38961e-08
1.65955e-12
1.12559e-07
5.35549e-11
1.16026e-07
-5.02592e-15
2.37284e-11
9.61393e-11
2.63148e-08
-3.33765e-11
-2.56324e-08
2.74685e-11
2.5609e-08
-6.16699e-13
-2.21841e-11
-2.48308e-08
5.50412e-12
2.48358e-08
9.61844e-12
-5.39731e-11
2.63627e-08
8.92897e-12
3.74351e-11
4.56048e-11
2.59893e-08
2.50451e-11
-2.52752e-08
3.67093e-11
2.52385e-08
-2.29364e-11
-1.78115e-11
-2.43516e-08
4.46734e-11
1.51606e-11
2.43356e-08
-1.56502e-11
-2.59394e-11
2.60402e-08
7.20996e-11
-1.80164e-11
2.57054e-08
1.09725e-11
-9.36643e-11
1.77973e-13
-2.43603e-08
7.16123e-11
2.43354e-08
-2.6442e-08
-1.78844e-11
-6.95702e-12
2.64294e-08
7.04648e-12
2.56365e-08
4.42463e-11
4.07417e-11
2.59639e-08
-2.97316e-11
-2.52819e-08
3.9379e-11
2.52424e-08
-1.81061e-11
-2.27288e-11
-2.43412e-08
4.41011e-11
1.76776e-11
2.4323e-08
-1.9055e-11
2.82151e-11
2.59834e-08
-2.15799e-11
7.1131e-11
2.57064e-08
-9.32826e-11
1.12626e-11
-2.64401e-08
-2.06595e-11
2.6417e-08
-2.43526e-08
7.04195e-11
2.43315e-08
2.57063e-08
1.98336e-11
4.78349e-12
2.63349e-08
5.20885e-11
-2.56159e-08
2.27325e-11
2.55973e-08
-1.70826e-12
-9.96488e-12
-2.48287e-08
3.73573e-12
2.48375e-08
6.92824e-12
-6.36881e-12
2.64191e-08
-5.31765e-11
2.38917e-08
-1.48459e-11
-2.21794e-11
4.07859e-11
4.09517e-11
3.29257e-11
3.55937e-11
-1.49969e-11
-2.61125e-08
2.61102e-08
9.34369e-12
-2.21879e-11
-2.4871e-08
2.48653e-08
2.7744e-11
2.38962e-08
-7.88035e-12
-2.74149e-11
-2.38916e-08
1.4888e-11
2.2201e-11
-4.07822e-11
-4.03079e-11
-3.32926e-11
-3.59766e-11
1.50641e-11
2.61123e-08
-8.22386e-12
2.21437e-11
2.4871e-08
-2.73007e-11
9.1029e-12
2.78221e-11
-2.06995e-12
1.09128e-12
1.68743e-12
-1.03824e-12
1.10712e-07
-3.59179e-11
-1.34499e-12
3.72717e-13
1.08086e-07
2.6413e-11
3.65176e-11
-2.21194e-11
-5.62689e-11
5.48434e-11
-5.81586e-11
5.73492e-11
-1.08087e-07
-4.18458e-11
2.92933e-13
-2.80041e-12
1.09011e-07
1.19125e-11
4.0977e-11
-1.42569e-11
4.67018e-12
2.2287e-11
-2.32146e-11
-4.05301e-12
2.61806e-11
4.08141e-11
4.95604e-11
3.33303e-11
2.66106e-08
-2.67604e-08
-2.28678e-12
1.79195e-12
-1.10714e-07
-1.28364e-12
1.68116e-12
1.10714e-07
-1.08088e-07
-3.60819e-11
-2.06176e-12
2.89997e-13
1.08088e-07
2.698e-11
3.66836e-11
-2.69217e-11
-5.6109e-11
5.51698e-11
5.75782e-11
-5.54133e-11
-1.09013e-07
-4.02775e-11
-4.40746e-13
7.12267e-14
1.09013e-07
1.36324e-11
4.08446e-11
-1.42689e-11
4.75817e-12
2.25962e-11
-3.8706e-12
-2.30908e-11
-2.67605e-08
2.62017e-11
4.08315e-11
4.98237e-11
3.32944e-11
2.66103e-08
-1.14718e-12
1.42076e-12
-1.10714e-07
-9.70882e-13
8.4306e-13
1.10714e-07
-1.08088e-07
-3.57786e-11
-1.59868e-12
-5.35783e-13
1.08086e-07
2.67279e-11
3.66972e-11
-2.18573e-11
-5.62161e-11
5.50718e-11
5.75012e-11
-5.80473e-11
-1.09013e-07
-4.03227e-11
7.0131e-14
1.86373e-13
1.09013e-07
1.35916e-11
4.08155e-11
-1.43031e-11
4.69782e-12
2.24822e-11
-3.94559e-12
-2.31996e-11
-2.67605e-08
2.63056e-11
4.08373e-11
4.98224e-11
3.31974e-11
2.66104e-08
2.18408e-13
1.11505e-12
-1.10714e-07
-7.8613e-13
-2.26448e-13
1.10713e-07
-1.08087e-07
-3.54901e-11
-1.21098e-12
-1.69439e-12
1.08086e-07
2.76215e-11
3.72329e-11
-2.63144e-11
-5.63268e-11
5.50421e-11
5.74013e-11
-5.55883e-11
-1.09012e-07
-4.02988e-11
4.7881e-13
2.35475e-13
1.09012e-07
1.36285e-11
4.081e-11
-1.42952e-11
4.63671e-12
2.24214e-11
-3.98665e-12
-2.32857e-11
-2.67603e-08
2.63705e-11
4.0864e-11
4.9814e-11
3.31613e-11
2.66101e-08
9.23416e-13
3.14851e-13
-1.10713e-07
-3.95457e-13
-6.35988e-13
1.10713e-07
-1.08086e-07
-3.54226e-11
-3.38957e-13
-1.95705e-12
1.08084e-07
2.71517e-11
3.70498e-11
-2.14272e-11
-5.65401e-11
5.46728e-11
5.71446e-11
-5.84274e-11
-1.09011e-07
-4.03849e-11
8.59937e-13
4.37575e-13
1.09011e-07
1.35295e-11
4.07277e-11
-1.43872e-11
4.57192e-12
2.22848e-11
-4.06622e-12
-2.33982e-11
-2.67599e-08
2.64805e-11
4.09548e-11
4.9707e-11
3.30399e-11
2.66097e-08
-1.16617e-13
-9.39813e-14
-1.10713e-07
-8.38058e-14
9.43846e-14
1.10713e-07
-1.08086e-07
-3.56235e-11
-5.04185e-13
-1.37365e-12
1.08086e-07
2.7431e-11
3.70907e-11
-2.65093e-11
-5.65023e-11
5.4713e-11
5.71309e-11
-5.58111e-11
-1.09011e-07
-4.0497e-11
7.97771e-13
7.35042e-13
1.09011e-07
1.33933e-11
4.06412e-11
-1.44926e-11
4.54616e-12
2.21916e-11
-4.11117e-12
-2.34662e-11
-2.67599e-08
2.64945e-11
4.09879e-11
4.96653e-11
3.29732e-11
2.66097e-08
-1.489e-12
6.14769e-13
-1.10714e-07
-3.64646e-13
1.09889e-12
1.10714e-07
-1.08087e-07
-3.59336e-11
-1.57326e-12
-3.65601e-13
1.08085e-07
2.65548e-11
3.65443e-11
-2.20178e-11
-5.61726e-11
5.50084e-11
5.74601e-11
-5.80303e-11
-1.09012e-07
-4.04248e-11
1.89238e-13
5.0692e-13
1.09012e-07
1.34773e-11
4.07292e-11
-1.43929e-11
4.66465e-12
2.23748e-11
-4.0065e-12
-2.32576e-11
-2.67601e-08
2.63701e-11
4.08489e-11
4.98287e-11
3.30796e-11
2.661e-08
-1.2792e-12
1.23191e-12
-1.10714e-07
-7.377e-13
1.0247e-12
1.10714e-07
-1.08088e-07
-3.58638e-11
-1.81066e-12
-5.61863e-13
1.08088e-07
2.72027e-11
3.6901e-11
-2.66783e-11
-5.61576e-11
5.50816e-11
5.74841e-11
-5.54631e-11
-1.09012e-07
-4.03186e-11
-2.80352e-13
2.02022e-13
1.09012e-07
1.35925e-11
4.08365e-11
-1.42758e-11
4.74322e-12
2.25025e-11
-3.92796e-12
-2.31372e-11
-2.67602e-08
2.62737e-11
4.08334e-11
4.98244e-11
3.3199e-11
2.66101e-08
-1.06504e-12
1.20256e-12
-1.10713e-07
-7.73976e-13
7.93847e-13
1.10713e-07
-1.08088e-07
-3.58464e-11
-1.18804e-12
-5.12139e-13
1.08086e-07
2.66608e-11
3.66514e-11
-2.18896e-11
-5.62601e-11
5.49153e-11
5.73726e-11
-5.81253e-11
-1.09012e-07
-4.03289e-11
7.66019e-15
1.89378e-13
1.09013e-07
1.35799e-11
4.08276e-11
-1.42871e-11
4.70534e-12
2.24271e-11
-3.97246e-12
-2.32053e-11
-2.67604e-08
2.63009e-11
4.0881e-11
4.97797e-11
3.31782e-11
2.66102e-08
-9.81502e-13
8.99597e-13
-1.10713e-07
-5.91774e-13
7.20242e-13
1.10713e-07
-1.08088e-07
-3.58112e-11
-1.34918e-12
-7.70778e-13
1.08088e-07
2.72461e-11
3.69499e-11
-2.66363e-11
-5.62447e-11
5.49967e-11
5.73866e-11
-5.55351e-11
-1.09013e-07
-4.03764e-11
1.76953e-13
3.33972e-13
1.09013e-07
1.35309e-11
4.07849e-11
-1.43309e-11
4.6825e-12
2.23938e-11
-4.00046e-12
-2.32334e-11
-2.67605e-08
2.63454e-11
4.08933e-11
4.97751e-11
3.31378e-11
2.66103e-08
-9.87144e-13
8.80142e-13
-1.10712e-07
-5.46524e-13
6.27038e-13
1.10712e-07
-1.08088e-07
-3.58392e-11
-1.08633e-12
-6.01091e-13
1.08086e-07
2.66699e-11
3.66601e-11
-2.18785e-11
-5.62743e-11
5.48961e-11
5.73496e-11
-5.8136e-11
-1.09013e-07
-4.03744e-11
2.11561e-13
3.46245e-13
1.09013e-07
1.35353e-11
4.07867e-11
-1.43274e-11
4.67604e-12
2.23778e-11
-4.00632e-12
-2.32491e-11
-2.67605e-08
2.63512e-11
4.08938e-11
4.97755e-11
3.31307e-11
2.66103e-08
-9.46371e-13
8.41307e-13
-1.10712e-07
-5.46845e-13
6.91241e-13
1.10712e-07
-1.08087e-07
-3.58197e-11
-1.34064e-12
-7.84091e-13
1.08087e-07
2.75671e-11
3.69589e-11
-2.69507e-11
-5.6255e-11
5.49927e-11
5.73722e-11
-5.55566e-11
-1.09013e-07
-4.03775e-11
2.24979e-13
3.52771e-13
1.09013e-07
1.35319e-11
4.07846e-11
-1.43299e-11
4.67452e-12
2.23833e-11
-4.0049e-12
-2.32462e-11
-2.67605e-08
2.63526e-11
4.08865e-11
4.97851e-11
3.31293e-11
2.66103e-08
-9.60049e-13
8.33191e-13
-1.10712e-07
-5.27481e-13
6.92368e-13
1.10712e-07
-1.08087e-07
-3.58406e-11
-1.09776e-12
-6.02769e-13
1.08085e-07
2.69868e-11
3.66543e-11
-2.22024e-11
-5.62726e-11
5.49095e-11
5.7353e-11
-5.81444e-11
-1.09013e-07
-4.03776e-11
2.16111e-13
3.51033e-13
1.09013e-07
1.35307e-11
4.07832e-11
-1.4332e-11
4.67841e-12
2.23865e-11
-4.00537e-12
-2.32393e-11
-2.67605e-08
2.63534e-11
4.08934e-11
4.9777e-11
3.31304e-11
2.66103e-08
-9.49535e-13
8.29173e-13
-1.10712e-07
-5.3533e-13
6.97323e-13
1.10712e-07
-1.08087e-07
-3.58184e-11
-1.34855e-12
-7.93421e-13
1.08087e-07
2.75712e-11
3.696e-11
-2.6948e-11
-5.62522e-11
5.49979e-11
5.73758e-11
-5.55526e-11
-1.09013e-07
-4.03764e-11
2.27368e-13
3.43926e-13
1.09013e-07
1.35323e-11
4.0785e-11
-1.43281e-11
4.67672e-12
2.23856e-11
-4.00631e-12
-2.32408e-11
-2.67605e-08
2.63524e-11
4.08879e-11
4.9782e-11
3.31306e-11
2.66103e-08
-9.63239e-13
8.37382e-13
-1.10712e-07
-5.29793e-13
6.89652e-13
1.10712e-07
-1.08087e-07
-3.58392e-11
-1.11919e-12
-6.20813e-13
1.08085e-07
2.69921e-11
3.66549e-11
-2.22035e-11
-5.6272e-11
5.49121e-11
5.73545e-11
-5.81436e-11
-1.09013e-07
-4.03761e-11
2.48214e-13
3.4195e-13
1.09013e-07
1.35253e-11
4.07855e-11
-1.43201e-11
4.67464e-12
2.23812e-11
-4.00823e-12
-2.32402e-11
-2.67605e-08
2.63549e-11
4.08923e-11
4.9778e-11
3.31283e-11
2.66103e-08
-9.34397e-13
8.27225e-13
-1.10712e-07
-5.32889e-13
6.82801e-13
1.10712e-07
-1.08087e-07
-3.58109e-11
-1.38385e-12
-8.29668e-13
1.08087e-07
2.75921e-11
3.69625e-11
-2.69575e-11
-5.62524e-11
5.50024e-11
5.73799e-11
-5.55538e-11
-1.09013e-07
-4.03738e-11
2.63029e-13
3.71183e-13
1.09013e-07
1.34631e-11
4.07682e-11
-1.42573e-11
4.67328e-12
2.236e-11
-4.01358e-12
-2.32315e-11
-2.67605e-08
2.63526e-11
4.08872e-11
4.97833e-11
3.31304e-11
2.66103e-08
-8.82455e-13
9.10199e-13
-1.10712e-07
-5.14888e-13
6.58016e-13
1.10712e-07
-1.08087e-07
-3.58097e-11
-1.18827e-12
-6.69737e-13
1.08085e-07
2.70722e-11
3.66552e-11
-2.23102e-11
-5.62752e-11
5.49182e-11
5.73595e-11
-5.8157e-11
-1.09013e-07
-4.02164e-11
2.04261e-13
4.24537e-13
1.09011e-07
1.30392e-11
4.04672e-11
-9.03501e-12
4.67245e-12
2.23565e-11
-4.01405e-12
-2.59603e-11
-2.67605e-08
2.63518e-11
4.08932e-11
4.97807e-11
3.31348e-11
2.66103e-08
3.7058e-12
1.10019e-07
2.39695e-11
1.9744e-11
-2.56973e-11
-2.28034e-11
-3.35957e-11
1.96997e-12
3.43411e-12
1.10051e-07
6.42328e-12
3.26562e-11
-1.38356e-11
2.392e-11
1.91603e-11
-1.96563e-11
-2.58311e-11
-1.10046e-07
1.10019e-07
2.61773e-12
-1.10019e-07
9.65751e-13
-2.49066e-11
-2.25987e-11
2.4033e-11
2.01192e-11
3.34401e-11
1.10048e-07
2.82087e-12
-1.1005e-07
6.46066e-13
-3.29476e-11
-9.03833e-12
1.30621e-11
-2.52281e-11
-2.22996e-11
1.6664e-11
2.43095e-11
3.99382e-11
4.17131e-11
2.65994e-08
-2.67506e-08
-3.66114e-11
2.67507e-08
-2.65995e-08
-4.00946e-11
-4.09818e-11
-1.10532e-13
1.08098e-07
-5.62886e-11
5.46812e-11
5.74198e-11
-5.5496e-11
-2.61767e-11
9.94424e-13
-1.18398e-12
1.09098e-07
2.38249e-11
2.74469e-11
-2.31634e-11
-3.53347e-11
5.32085e-11
-5.46288e-11
3.57156e-11
1.08099e-07
-1.91873e-12
-1.08099e-07
7.44657e-13
5.75192e-11
-5.5322e-11
-5.6113e-11
5.48104e-11
2.77014e-11
1.09098e-07
-8.20093e-13
-1.09098e-07
-9.22177e-13
-2.62318e-11
-2.33293e-11
2.3699e-11
3.58267e-11
-5.45602e-11
5.36088e-11
-3.52347e-11
3.1536e-13
-6.92415e-13
1.09094e-07
2.35432e-11
2.77985e-11
-2.3107e-11
-3.58457e-11
5.40947e-11
-5.5611e-11
3.58853e-11
-1.09094e-07
-2.1385e-12
-1.08087e-07
5.56293e-13
-3.63285e-11
-2.67952e-11
2.31825e-11
5.75312e-11
-5.53927e-11
-5.61073e-11
5.7688e-11
2.7789e-11
1.09094e-07
-6.90866e-13
-1.09094e-07
-9.85935e-13
-2.6176e-11
-2.31351e-11
2.34843e-11
3.6135e-11
-5.50961e-11
5.40712e-11
-3.56066e-11
4.88027e-11
3.42884e-11
2.66053e-08
-4.0883e-11
2.67545e-08
-2.66053e-08
-4.83078e-11
-3.23218e-11
2.00732e-14
1.41808e-12
1.09051e-07
1.32389e-11
4.09996e-11
-1.42149e-11
4.9381e-12
2.17891e-11
-2.28235e-11
-4.27436e-12
-1.09051e-07
-4.83764e-13
-1.09013e-07
1.34163e-13
-4.0246e-11
-1.4231e-11
1.3631e-11
-3.85966e-12
-2.30315e-11
4.79454e-12
2.26145e-11
4.13697e-11
1.0905e-07
-6.48547e-13
-1.0905e-07
2.42872e-13
-4.07817e-11
-1.40543e-11
1.35486e-11
-4.06459e-12
-2.26456e-11
2.2187e-11
5.01187e-12
-2.66103e-08
-4.92807e-11
-3.17177e-11
3.26369e-11
3.55545e-11
4.08981e-11
4.13089e-11
2.65986e-08
-3.31837e-11
-3.62887e-11
2.6749e-08
-2.65987e-08
-4.03732e-11
-4.04713e-11
9.95536e-13
1.10019e-07
8.36081e-12
3.32665e-11
-9.11031e-12
2.40777e-11
2.01923e-11
-2.48244e-11
-2.25712e-11
-3.31032e-11
2.74052e-12
1.2834e-12
1.10049e-07
7.70545e-12
3.34377e-11
-9.19185e-12
2.43822e-11
1.96183e-11
-2.51256e-11
-2.22336e-11
1.10019e-07
1.55176e-12
-1.10019e-07
1.34306e-12
-3.27139e-11
-9.24363e-12
8.20125e-12
-2.46128e-11
-2.23155e-11
2.04168e-11
2.43198e-11
3.33921e-11
1.10049e-07
1.68789e-12
-1.10049e-07
8.87503e-13
-3.2849e-11
-8.70757e-12
7.73014e-12
-2.48996e-11
-2.1938e-11
1.99276e-11
2.46076e-11
3.9898e-11
4.18922e-11
2.65997e-08
-3.6803e-11
2.67506e-08
-2.65997e-08
-3.97066e-11
-4.09968e-11
3.73624e-13
1.08099e-07
2.7411e-11
3.61082e-11
-2.77072e-11
-5.61056e-11
5.48721e-11
5.75692e-11
-5.53174e-11
-2.62295e-11
-5.27705e-13
-1.02284e-12
1.09098e-07
2.36997e-11
2.77068e-11
-2.33434e-11
-3.52548e-11
5.36336e-11
3.58579e-11
-5.45737e-11
1.081e-07
-1.2917e-12
-1.081e-07
-7.93258e-14
-3.53482e-11
-2.75315e-11
2.75859e-11
5.73994e-11
-5.54582e-11
5.47357e-11
-5.62771e-11
2.76226e-11
1.09098e-07
-1.57467e-13
-1.09098e-07
-5.07403e-13
-2.6291e-11
-2.34472e-11
2.35974e-11
3.57456e-11
-5.46836e-11
5.35152e-11
-3.5358e-11
-4.11536e-13
-1.01681e-12
1.09094e-07
2.34787e-11
2.77617e-11
-2.3142e-11
-3.5625e-11
5.40932e-11
-5.51023e-11
3.61632e-11
-1.65256e-12
-1.08088e-07
-2.03863e-13
-3.58725e-11
-2.6464e-11
2.68262e-11
5.74316e-11
-5.55185e-11
-5.62434e-11
5.50019e-11
2.76697e-11
1.09094e-07
-2.3348e-13
-1.09094e-07
-4.96161e-13
-2.62773e-11
-2.32607e-11
2.33779e-11
3.61056e-11
-5.51717e-11
5.40224e-11
-3.5676e-11
4.9017e-11
3.37844e-11
2.66052e-08
-4.07776e-11
2.67545e-08
-2.66052e-08
-4.84221e-11
-3.24157e-11
-4.97845e-13
1.61436e-13
1.0905e-07
1.35008e-11
4.13193e-11
-1.41039e-11
4.96128e-12
2.21622e-11
-2.27024e-11
-4.08379e-12
3.19165e-14
-1.09013e-07
3.76308e-13
-4.03433e-11
-1.43343e-11
1.35497e-11
-3.97448e-12
-2.32311e-11
4.68245e-12
2.24372e-11
4.13166e-11
1.0905e-07
4.54972e-14
-1.09051e-07
4.11042e-13
-4.08362e-11
-1.41497e-11
1.34466e-11
-4.18458e-12
-2.28128e-11
2.20122e-11
4.88747e-12
-2.66104e-08
-4.93374e-11
-3.18468e-11
3.26876e-11
3.52696e-11
4.12815e-11
4.11492e-11
2.65986e-08
-3.32694e-11
-3.66132e-11
2.67488e-08
-2.65985e-08
-3.9931e-11
-4.0491e-11
9.54854e-13
1.10018e-07
8.2531e-12
3.32333e-11
-9.20149e-12
2.44515e-11
2.06221e-11
-2.44502e-11
-2.21422e-11
-3.29248e-11
1.31197e-12
1.33119e-12
1.10051e-07
7.46178e-12
3.30965e-11
-1.31643e-11
2.46974e-11
2.00934e-11
-2.47734e-11
-1.8934e-11
1.10018e-07
1.2523e-13
-1.10018e-07
7.7283e-13
-3.26114e-11
-9.18503e-12
8.28411e-12
-2.42031e-11
-2.1786e-11
2.0992e-11
2.46944e-11
3.33528e-11
1.10047e-07
3.39382e-13
-1.10049e-07
7.43594e-13
-3.29826e-11
-9.20935e-12
1.29703e-11
-2.45292e-11
-2.15166e-11
1.75311e-11
2.49625e-11
4.04363e-11
4.20631e-11
2.65994e-08
-3.71769e-11
2.67503e-08
-2.65993e-08
-3.93074e-11
-4.12017e-11
-4.78093e-13
1.081e-07
2.7692e-11
3.63848e-11
-2.74389e-11
-5.62478e-11
5.47918e-11
5.74538e-11
-5.54216e-11
-2.63098e-11
-3.05734e-13
-3.71349e-13
1.09098e-07
2.35894e-11
2.76115e-11
-2.34735e-11
-3.53324e-11
5.35647e-11
3.5804e-11
-5.46568e-11
1.08099e-07
-1.19189e-12
-1.08099e-07
-1.25488e-12
-3.50122e-11
-2.7166e-11
2.79575e-11
5.73997e-11
-5.54487e-11
5.4752e-11
-5.6294e-11
2.75476e-11
1.09097e-07
-2.70975e-13
-1.09098e-07
7.0936e-14
-2.63475e-11
-2.35427e-11
2.35153e-11
3.57967e-11
-5.46331e-11
5.35676e-11
-3.53223e-11
-3.18898e-13
-3.77391e-13
1.09093e-07
2.3362e-11
2.76437e-11
-2.32748e-11
-3.56653e-11
5.4067e-11
-5.51465e-11
3.61526e-11
-1.26985e-12
-1.08087e-07
-1.37284e-12
-3.57485e-11
-2.62039e-11
2.37946e-11
5.73958e-11
-5.55197e-11
-5.62954e-11
5.76153e-11
2.76045e-11
1.09093e-07
-3.02164e-14
-1.09093e-07
3.41005e-14
-2.63255e-11
-2.33327e-11
2.33189e-11
3.60839e-11
-5.51934e-11
5.40122e-11
-3.57134e-11
4.89466e-11
3.3719e-11
2.66052e-08
-4.08138e-11
2.67543e-08
-2.66051e-08
-4.8368e-11
-3.24657e-11
6.15928e-14
1.53856e-13
1.0905e-07
1.34682e-11
4.13154e-11
-1.41316e-11
4.89759e-12
2.20663e-11
-2.27814e-11
-4.14963e-12
3.13492e-13
-1.09013e-07
3.08235e-13
-4.02863e-11
-1.4282e-11
1.36221e-11
-3.98413e-12
-2.32605e-11
4.65413e-12
2.24234e-11
4.12978e-11
1.0905e-07
2.63414e-13
-1.0905e-07
5.07889e-13
-4.08303e-11
-1.41646e-11
1.3455e-11
-4.18223e-12
-2.28195e-11
2.20242e-11
4.87066e-12
-2.66102e-08
-4.93413e-11
-3.18824e-11
3.26192e-11
3.49574e-11
4.17344e-11
4.1124e-11
2.65983e-08
-3.32217e-11
-3.67531e-11
2.67484e-08
-2.65981e-08
-3.97038e-11
-4.06264e-11
5.79503e-13
1.10017e-07
8.27786e-12
3.32783e-11
-9.20347e-12
2.47896e-11
2.11485e-11
-2.40839e-11
-2.16456e-11
-3.31379e-11
2.50153e-13
1.22514e-12
1.10047e-07
7.58465e-12
3.33852e-11
-9.33968e-12
2.50815e-11
2.05395e-11
-2.43961e-11
-2.13519e-11
1.10016e-07
-7.66561e-13
-1.10017e-07
8.69799e-13
-3.26591e-11
-9.30697e-12
8.1489e-12
-2.39779e-11
-2.14246e-11
2.13584e-11
2.4905e-11
3.33204e-11
1.10047e-07
-5.41225e-13
-1.10047e-07
8.39198e-13
-3.29124e-11
-8.93436e-12
7.50068e-12
-2.42798e-11
-2.108e-11
2.08175e-11
2.51831e-11
4.07211e-11
4.16823e-11
2.65993e-08
-3.72351e-11
2.67499e-08
-2.6599e-08
-3.90702e-11
-4.12643e-11
-1.59244e-12
1.08099e-07
2.80537e-11
3.66757e-11
-2.7095e-11
-5.63018e-11
5.47657e-11
5.74174e-11
-5.54716e-11
-2.63843e-11
-2.0246e-13
2.10728e-13
1.09097e-07
2.3496e-11
2.75109e-11
-2.35883e-11
-3.53339e-11
5.35943e-11
3.58234e-11
-5.46464e-11
1.08098e-07
-4.46011e-13
-1.08098e-07
-1.8241e-12
-3.48566e-11
-2.70003e-11
2.81433e-11
5.72069e-11
-5.56678e-11
5.45341e-11
-5.64772e-11
2.7433e-11
1.09096e-07
6.04966e-14
-1.09096e-07
5.5557e-13
-2.64656e-11
-2.36704e-11
2.33782e-11
3.56832e-11
-5.47256e-11
5.34755e-11
-3.54332e-11
5.15893e-14
1.79043e-13
1.09092e-07
2.32925e-11
2.7553e-11
-2.3367e-11
-3.57383e-11
5.40229e-11
-5.52104e-11
3.60939e-11
-4.93069e-13
-1.08086e-07
-1.87542e-12
-3.54263e-11
-2.59594e-11
2.73375e-11
5.71169e-11
-5.58447e-11
-5.65458e-11
5.46699e-11
2.74857e-11
1.09091e-07
2.71876e-13
-1.09091e-07
5.42427e-13
-2.64496e-11
-2.34612e-11
2.3179e-11
3.59342e-11
-5.53069e-11
5.38864e-11
-3.58485e-11
4.89982e-11
3.36654e-11
2.66049e-08
-4.07347e-11
2.67538e-08
-2.66047e-08
-4.84469e-11
-3.25701e-11
4.1362e-13
3.33445e-13
1.09049e-07
1.34435e-11
4.12626e-11
-1.41812e-11
4.84803e-12
2.20304e-11
-2.28428e-11
-4.17935e-12
8.52279e-13
-1.09011e-07
4.92991e-13
-4.03594e-11
-1.4362e-11
1.35463e-11
-4.07822e-12
-2.3407e-11
4.56588e-12
2.22669e-11
4.12098e-11
1.09049e-07
8.09953e-13
-1.09049e-07
7.49232e-13
-4.09187e-11
-1.42679e-11
1.33503e-11
-4.28079e-12
-2.29666e-11
2.187e-11
4.77866e-12
-2.66098e-08
-4.94352e-11
-3.19968e-11
3.2697e-11
3.48663e-11
4.19178e-11
4.09622e-11
2.65979e-08
-3.31009e-11
-3.65835e-11
2.67482e-08
-2.65979e-08
-3.99535e-11
-4.0733e-11
7.81492e-13
1.10016e-07
8.10676e-12
3.32087e-11
-9.34857e-12
2.49355e-11
2.14318e-11
-2.3922e-11
-2.13856e-11
-3.30312e-11
-6.48467e-13
1.39278e-12
1.10049e-07
7.17459e-12
3.29985e-11
-1.34036e-11
2.51663e-11
2.08657e-11
-2.42604e-11
-1.81897e-11
1.10016e-07
-2.71584e-13
-1.10016e-07
1.26653e-12
-3.28044e-11
-9.45394e-12
7.94898e-12
-2.41234e-11
-2.1664e-11
2.11678e-11
2.4732e-11
3.32706e-11
1.10046e-07
-8.28577e-14
-1.10047e-07
9.5329e-13
-3.31191e-11
-9.41175e-12
1.26783e-11
-2.44752e-11
-2.14164e-11
1.76732e-11
2.49769e-11
4.09646e-11
4.17667e-11
2.65987e-08
-3.7173e-11
2.675e-08
-2.65989e-08
-3.92929e-11
-4.13663e-11
-1.9671e-12
1.08097e-07
2.81497e-11
3.67601e-11
-2.70111e-11
-5.64961e-11
5.45151e-11
5.72033e-11
-5.57009e-11
-2.64804e-11
1.05868e-13
5.47089e-13
1.09096e-07
2.33796e-11
2.74341e-11
-2.36796e-11
-3.54486e-11
5.34849e-11
3.56939e-11
-5.47404e-11
1.08097e-07
1.71124e-13
-1.08097e-07
-1.33695e-12
-3.50094e-11
-2.72253e-11
2.7935e-11
5.70265e-11
-5.58493e-11
5.43195e-11
-5.6621e-11
2.74303e-11
1.09096e-07
3.64169e-13
-1.09096e-07
4.3457e-13
-2.64869e-11
-2.36697e-11
2.33548e-11
3.55272e-11
-5.48535e-11
5.33353e-11
-3.55673e-11
2.89376e-13