/*--------------------------------*- C++ -*----------------------------------*\
| =========                 |                                                 |
| \\      /  F ield         | OpenFOAM: The Open Source CFD Toolbox           |
|  \\    /   O peration     | Version:  2206                                  |
|   \\  /    A nd           | Website:  www.openfoam.com                      |
|    \\/     M anipulation  |                                                 |
\*---------------------------------------------------------------------------*/
FoamFile
{
    version     2.0;
    format      ascii;
    arch        "LSB;label=32;scalar=64";
    class       volScalarField;
    location    "0.1";
    object      k;
}
// * * * * * * * * * * * * * * * * * * * * * * * * * * * * * * * * * * * * * //

dimensions      [0 2 -2 0 0 0 0];

internalField   nonuniform List<scalar> 
66616
(
3.45306e-05
3.4723e-05
3.47196e-05
3.49806e-05
3.26598e-05
3.26521e-05
3.26578e-05
3.2874e-05
3.11976e-05
3.08242e-05
3.08479e-05
3.04999e-05
3.09965e-05
3.07849e-05
3.08018e-05
3.04804e-05
3.0996e-05
3.08418e-05
3.08564e-05
3.05857e-05
3.09961e-05
3.08432e-05
3.08582e-05
3.05891e-05
3.09961e-05
3.08435e-05
3.08582e-05
3.05891e-05
3.09961e-05
3.08432e-05
3.08582e-05
3.05891e-05
3.09961e-05
3.08435e-05
3.08581e-05
3.0589e-05
3.09961e-05
3.08432e-05
3.08581e-05
3.05891e-05
3.09961e-05
3.08435e-05
3.08582e-05
3.05891e-05
3.09962e-05
3.08432e-05
3.08607e-05
3.05888e-05
3.52875e-05
3.50323e-05
3.50321e-05
3.52872e-05
3.50318e-05
3.50306e-05
3.49762e-05
3.4976e-05
3.49759e-05
3.49762e-05
3.50319e-05
3.50309e-05
3.52868e-05
3.50327e-05
3.5033e-05
3.5287e-05
3.49811e-05
3.32263e-05
3.472e-05
3.47195e-05
3.32369e-05
3.32365e-05
3.49809e-05
3.32264e-05
3.47229e-05
3.47226e-05
3.32364e-05
3.32362e-05
3.47228e-05
3.32363e-05
3.32363e-05
3.49806e-05
3.32261e-05
3.47195e-05
3.32364e-05
3.32366e-05
3.32266e-05
3.28733e-05
3.06639e-05
3.26586e-05
3.26586e-05
3.10987e-05
3.11e-05
3.28736e-05
3.06641e-05
3.26526e-05
3.2653e-05
3.10735e-05
3.10763e-05
3.26529e-05
3.10728e-05
3.10755e-05
3.28734e-05
3.06635e-05
3.26582e-05
3.10963e-05
3.10981e-05
3.06644e-05
3.04983e-05
3.04366e-05
3.08506e-05
3.08518e-05
3.07594e-05
3.07599e-05
3.04985e-05
3.04361e-05
3.08241e-05
3.08282e-05
3.07387e-05
3.07422e-05
3.08272e-05
3.07391e-05
3.07412e-05
3.04989e-05
3.04383e-05
3.08495e-05
3.07584e-05
3.07593e-05
3.0438e-05
3.04791e-05
3.0582e-05
3.08016e-05
3.0802e-05
3.08526e-05
3.08528e-05
3.0478e-05
3.05812e-05
3.07851e-05
3.07869e-05
3.08394e-05
3.08393e-05
3.0786e-05
3.08386e-05
3.08387e-05
3.04803e-05
3.05811e-05
3.08026e-05
3.08535e-05
3.08545e-05
3.05816e-05
3.05859e-05
3.05876e-05
3.08555e-05
3.08558e-05
3.08571e-05
3.08572e-05
3.0585e-05
3.05853e-05
3.08425e-05
3.08422e-05
3.08443e-05
3.0844e-05
3.08417e-05
3.08432e-05
3.08435e-05
3.0585e-05
3.05867e-05
3.08573e-05
3.08581e-05
3.0859e-05
3.05871e-05
3.05893e-05
3.05874e-05
3.08571e-05
3.08573e-05
3.08571e-05
3.08573e-05
3.0587e-05
3.05865e-05
3.08442e-05
3.08439e-05
3.08443e-05
3.0844e-05
3.08434e-05
3.08435e-05
3.08434e-05
3.05885e-05
3.05868e-05
3.0859e-05
3.08582e-05
3.08591e-05
3.05869e-05
3.05893e-05
3.05875e-05
3.08571e-05
3.08574e-05
3.08571e-05
3.08573e-05
3.05883e-05
3.05854e-05
3.08442e-05
3.0844e-05
3.08443e-05
3.0844e-05
3.08434e-05
3.08432e-05
3.08435e-05
3.05886e-05
3.05867e-05
3.0859e-05
3.08581e-05
3.08591e-05
3.0587e-05
3.05893e-05
3.05874e-05
3.08571e-05
3.08573e-05
3.08571e-05
3.08573e-05
3.05871e-05
3.05865e-05
3.08442e-05
3.0844e-05
3.08443e-05
3.0844e-05
3.08434e-05
3.08435e-05
3.08434e-05
3.05885e-05
3.05867e-05
3.0859e-05
3.08581e-05
3.08591e-05
3.05869e-05
3.05892e-05
3.05874e-05
3.08571e-05
3.08573e-05
3.08571e-05
3.08573e-05
3.05883e-05
3.05853e-05
3.08442e-05
3.0844e-05
3.08443e-05
3.0844e-05
3.08434e-05
3.08432e-05
3.08434e-05
3.05886e-05
3.05867e-05
3.0859e-05
3.08581e-05
3.08591e-05
3.0587e-05
3.05893e-05
3.05874e-05
3.08571e-05
3.08573e-05
3.08571e-05
3.08572e-05
3.0587e-05
3.05864e-05
3.08442e-05
3.08439e-05
3.08443e-05
3.0844e-05
3.08434e-05
3.08434e-05
3.08434e-05
3.05885e-05
3.05867e-05
3.0859e-05
3.08581e-05
3.08591e-05
3.05869e-05
3.05892e-05
3.05877e-05
3.08571e-05
3.08573e-05
3.08572e-05
3.08573e-05
3.05883e-05
3.05854e-05
3.08442e-05
3.0844e-05
3.08443e-05
3.0844e-05
3.08434e-05
3.08432e-05
3.08434e-05
3.05886e-05
3.05869e-05
3.0859e-05
3.08582e-05
3.08591e-05
3.05871e-05
3.05889e-05
3.08596e-05
3.08598e-05
3.05868e-05
3.08442e-05
3.0844e-05
3.08434e-05
3.05883e-05
3.08612e-05
3.56664e-05
3.57311e-05
3.56915e-05
3.56914e-05
3.69878e-05
3.58382e-05
4.33035e-05
3.57389e-05
3.69875e-05
3.5838e-05
3.57387e-05
4.3294e-05
3.60458e-05
4.44932e-05
4.44143e-05
3.73822e-05
1.77875e-05
4.04667e-05
1.44561e-05
2.08314e-05
1.26378e-05
3.73648e-05
1.77898e-05
4.04747e-05
1.44425e-05
3.45302e-05
3.453e-05
3.45303e-05
3.31732e-05
3.31729e-05
3.31726e-05
3.31729e-05
3.50021e-05
3.92807e-05
3.46466e-05
3.42154e-05
3.62803e-05
3.42895e-05
3.41514e-05
2.08098e-05
1.26257e-05
3.50094e-05
3.46444e-05
3.92712e-05
3.422e-05
3.62784e-05
3.41544e-05
3.42921e-05
3.4603e-05
3.46068e-05
3.43114e-05
2.91003e-05
2.90869e-05
2.5407e-05
9.28846e-06
2.94266e-05
8.71825e-06
7.40866e-06
7.09817e-06
2.50579e-05
9.10578e-06
2.93189e-05
8.57548e-06
3.26595e-05
3.26593e-05
3.26596e-05
3.14035e-05
3.14034e-05
3.14034e-05
3.14035e-05
2.99922e-05
2.61606e-05
3.27061e-05
3.20428e-05
3.20961e-05
2.2963e-05
3.21693e-05
7.33446e-06
7.01209e-06
3.01787e-05
3.27043e-05
2.63442e-05
3.20558e-05
3.21546e-05
3.21749e-05
2.32352e-05
2.0512e-05
2.064e-05
3.18363e-05
1.75332e-05
1.76774e-05
2.37395e-05
1.01377e-05
2.2998e-05
1.34863e-05
8.0582e-06
1.0101e-05
2.34255e-05
1.00168e-05
2.26709e-05
1.32758e-05
3.11976e-05
3.11976e-05
3.11977e-05
3.10033e-05
3.10034e-05
3.10035e-05
3.10035e-05
2.79121e-05
2.16063e-05
3.11088e-05
3.07277e-05
2.79228e-05
2.29631e-05
3.09857e-05
7.97898e-06
9.99918e-06
2.81166e-05
3.11322e-05
2.18285e-05
3.075e-05
2.81311e-05
3.10089e-05
2.31533e-05
1.67743e-05
1.69073e-05
3.0331e-05
1.86901e-05
1.88489e-05
2.70324e-05
1.86296e-05
2.63778e-05
1.95603e-05
1.27362e-05
1.31907e-05
2.67542e-05
1.83817e-05
2.61437e-05
1.9267e-05
3.09965e-05
3.09966e-05
3.09966e-05
3.09957e-05
3.09957e-05
3.09958e-05
3.09958e-05
2.93263e-05
2.6417e-05
3.09368e-05
3.08153e-05
2.90262e-05
2.71292e-05
3.0945e-05
1.26109e-05
1.30337e-05
2.94671e-05
3.09513e-05
2.6576e-05
3.0831e-05
2.91495e-05
3.09571e-05
2.73184e-05
2.2245e-05
2.24379e-05
3.05526e-05
2.29319e-05
2.31602e-05
2.73022e-05
1.98394e-05
2.7291e-05
1.98511e-05
1.33229e-05
1.33315e-05
2.70218e-05
1.95503e-05
2.70183e-05
1.956e-05
3.09959e-05
3.09959e-05
3.0996e-05
3.09961e-05
3.0996e-05
3.09961e-05
3.09961e-05
2.94654e-05
2.7392e-05
3.09541e-05
3.08429e-05
2.94629e-05
2.74005e-05
3.09546e-05
1.31714e-05
1.31763e-05
2.96009e-05
3.09649e-05
2.75779e-05
3.08575e-05
2.95949e-05
3.09652e-05
2.75891e-05
2.31944e-05
2.34296e-05
3.05868e-05
2.32067e-05
2.34423e-05
2.73052e-05
1.98579e-05
2.73123e-05
1.98547e-05
1.33331e-05
1.33326e-05
2.70183e-05
1.95667e-05
2.70389e-05
1.95595e-05
3.0996e-05
3.0996e-05
3.09961e-05
3.09961e-05
3.0996e-05
3.09961e-05
3.09961e-05
2.94633e-05
2.74132e-05
3.09547e-05
3.08432e-05
2.94743e-05
2.73997e-05
3.09547e-05
1.31804e-05
1.31776e-05
2.96037e-05
3.09655e-05
2.76006e-05
3.08581e-05
2.96071e-05
3.09655e-05
2.75946e-05
2.32216e-05
2.34529e-05
3.0587e-05
2.32088e-05
2.3446e-05
2.73063e-05
1.9857e-05
2.73125e-05
1.98543e-05
1.33313e-05
1.33335e-05
2.70208e-05
1.95655e-05
2.70381e-05
1.95605e-05
3.0996e-05
3.0996e-05
3.09961e-05
3.09961e-05
3.0996e-05
3.09961e-05
3.09961e-05
2.94646e-05
2.74147e-05
3.09547e-05
3.08434e-05
2.9474e-05
2.74022e-05
3.09547e-05
1.31826e-05
1.31766e-05
2.9604e-05
3.09655e-05
2.76008e-05
3.08582e-05
2.96074e-05
3.09655e-05
2.75938e-05
2.3222e-05
2.34534e-05
3.05871e-05
2.321e-05
2.34474e-05
2.73039e-05
1.98562e-05
2.73103e-05
1.98546e-05
1.33328e-05
1.33319e-05
2.7021e-05
1.95649e-05
2.70373e-05
1.95607e-05
3.0996e-05
3.0996e-05
3.09961e-05
3.0996e-05
3.0996e-05
3.09961e-05
3.09961e-05
2.94646e-05
2.7413e-05
3.09547e-05
3.08432e-05
2.94738e-05
2.74004e-05
3.09547e-05
1.31808e-05
1.31775e-05
2.96035e-05
3.09655e-05
2.76003e-05
3.08581e-05
2.9607e-05
3.09655e-05
2.75939e-05
2.32217e-05
2.34521e-05
3.0587e-05
2.3208e-05
2.34463e-05
2.73042e-05
1.98558e-05
2.73105e-05
1.98528e-05
1.33304e-05
1.33321e-05
2.70208e-05
1.95647e-05
2.7037e-05
1.95602e-05
3.0996e-05
3.0996e-05
3.09961e-05
3.0996e-05
3.0996e-05
3.09961e-05
3.09961e-05
2.94646e-05
2.74142e-05
3.09547e-05
3.08434e-05
2.94736e-05
2.74021e-05
3.09547e-05
1.31827e-05
1.31774e-05
2.96036e-05
3.09655e-05
2.76002e-05
3.08581e-05
2.96071e-05
3.09655e-05
2.75935e-05
2.32193e-05
2.34525e-05
3.0587e-05
2.3207e-05
2.3447e-05
2.73037e-05
1.98565e-05
2.73099e-05
1.98544e-05
1.33321e-05
1.33318e-05
2.70209e-05
1.95647e-05
2.70371e-05
1.95606e-05
3.0996e-05
3.0996e-05
3.09961e-05
3.0996e-05
3.0996e-05
3.09961e-05
3.09961e-05
2.94646e-05
2.74127e-05
3.09547e-05
3.08432e-05
2.94736e-05
2.74003e-05
3.09547e-05
1.31819e-05
1.31765e-05
2.96036e-05
3.09655e-05
2.76004e-05
3.08581e-05
2.96071e-05
3.09655e-05
2.75939e-05
2.32213e-05
2.34519e-05
3.0587e-05
2.32084e-05
2.34462e-05
2.73042e-05
1.98602e-05
2.731e-05
1.98578e-05
1.33306e-05
1.33334e-05
2.70211e-05
1.9565e-05
2.70373e-05
1.95607e-05
3.0996e-05
3.0996e-05
3.09961e-05
3.09961e-05
3.0996e-05
3.0996e-05
3.09961e-05
2.94647e-05
2.7414e-05
3.09547e-05
3.08434e-05
2.94737e-05
2.7402e-05
3.09547e-05
1.31807e-05
1.31779e-05
2.96037e-05
3.09655e-05
2.76001e-05
3.08581e-05
2.96073e-05
3.09655e-05
2.75932e-05
2.3223e-05
2.34527e-05
3.05871e-05
2.321e-05
2.34469e-05
2.71626e-05
1.98587e-05
2.73013e-05
1.98106e-05
1.33334e-05
1.3309e-05
1.95648e-05
2.70369e-05
3.09961e-05
3.09962e-05
3.09962e-05
2.94665e-05
2.74131e-05
3.09547e-05
3.08389e-05
2.94739e-05
2.74035e-05
3.09514e-05
1.3181e-05
2.95347e-05
3.09681e-05
2.75978e-05
2.96084e-05
3.09591e-05
2.32206e-05
2.3449e-05
3.05876e-05
2.32115e-05
2.34175e-05
3.60457e-05
4.45338e-05
4.45051e-05
8.75975e-06
3.3503e-05
8.75526e-06
3.34524e-05
3.58912e-05
3.48116e-05
3.47983e-05
4.55028e-05
4.54713e-05
3.69878e-05
3.58389e-05
4.33293e-05
3.57389e-05
3.69876e-05
3.58387e-05
4.33201e-05
3.5738e-05
3.99402e-05
4.35727e-06
3.84878e-05
4.14065e-05
3.99411e-05
4.35642e-06
3.8468e-05
4.14006e-05
3.7087e-05
3.56697e-05
4.03733e-05
3.51373e-05
4.43673e-05
3.55956e-05
3.66953e-05
3.70866e-05
3.56694e-05
4.03706e-05
3.5137e-05
4.43519e-05
3.55949e-05
3.66947e-05
3.60456e-05
4.44821e-05
4.44419e-05
8.73724e-06
3.34156e-05
3.58909e-05
3.47601e-05
3.4777e-05
4.54668e-05
4.54059e-05
8.74105e-06
3.3345e-05
3.6987e-05
3.58379e-05
4.33278e-05
3.57395e-05
3.69876e-05
3.5838e-05
3.5739e-05
4.3311e-05
3.99415e-05
4.35787e-06
3.8478e-05
4.14007e-05
3.70863e-05
3.56688e-05
4.03729e-05
3.51357e-05
4.43633e-05
3.55955e-05
3.66943e-05
3.99427e-05
4.35309e-06
3.84266e-05
4.14039e-05
3.70869e-05
3.56691e-05
3.51354e-05
4.03653e-05
3.5595e-05
4.43404e-05
3.66951e-05
3.56668e-05
3.57309e-05
3.56903e-05
3.56911e-05
3.56665e-05
3.57306e-05
3.56902e-05
3.56899e-05
3.56669e-05
3.5731e-05
3.56905e-05
3.56908e-05
3.54622e-05
3.55375e-05
3.4952e-05
3.49511e-05
3.54975e-05
3.54971e-05
3.49159e-05
3.54624e-05
3.55374e-05
3.49513e-05
3.49508e-05
3.54966e-05
3.54969e-05
3.49157e-05
3.54623e-05
3.55372e-05
3.49502e-05
3.49514e-05
3.54961e-05
3.54964e-05
3.49156e-05
3.54627e-05
3.55374e-05
3.49508e-05
3.49519e-05
3.54965e-05
3.54971e-05
3.49159e-05
3.69877e-05
3.58384e-05
3.57384e-05
4.33235e-05
3.70868e-05
3.5669e-05
4.03574e-05
3.51351e-05
4.43331e-05
3.55949e-05
3.66943e-05
3.99387e-05
4.35357e-06
3.8409e-05
4.13886e-05
3.70868e-05
3.56696e-05
3.51354e-05
4.03706e-05
3.55946e-05
4.4354e-05
3.66946e-05
3.99407e-05
4.35702e-06
3.84518e-05
4.13984e-05
3.60453e-05
4.44586e-05
4.44222e-05
8.7327e-06
3.33773e-05
3.58907e-05
3.47467e-05
3.47749e-05
4.54417e-05
4.53889e-05
8.73591e-06
3.33015e-05
3.69877e-05
3.58383e-05
3.57381e-05
4.32838e-05
3.70865e-05
3.56685e-05
3.51371e-05
4.03472e-05
3.55954e-05
4.43198e-05
3.66943e-05
3.70869e-05
3.56687e-05
3.5137e-05
4.03444e-05
3.5595e-05
4.43046e-05
3.66947e-05
3.99394e-05
4.34545e-06
3.83571e-05
4.14e-05
3.99434e-05
4.34305e-06
3.83017e-05
4.14105e-05
3.58909e-05
3.47601e-05
3.47308e-05
4.54733e-05
4.53961e-05
8.73626e-06
3.34249e-05
8.71819e-06
3.32681e-05
2.08607e-05
1.26419e-05
2.08462e-05
1.26435e-05
3.46465e-05
3.46327e-05
3.43117e-05
2.9091e-05
2.91154e-05
7.70479e-06
1.04475e-05
7.63445e-06
1.04651e-05
3.4022e-05
2.19654e-05
2.17901e-05
2.72259e-05
2.72054e-05
3.73784e-05
1.77866e-05
4.04663e-05
1.44511e-05
3.50105e-05
3.92927e-05
3.46445e-05
3.42201e-05
3.62801e-05
3.43057e-05
3.41543e-05
3.50095e-05
3.92902e-05
3.4644e-05
3.42194e-05
3.62794e-05
3.43051e-05
3.41539e-05
3.60507e-05
9.7381e-06
1.26892e-05
3.09794e-05
3.60495e-05
9.73739e-06
1.26918e-05
3.09783e-05
3.45285e-05
3.37502e-05
2.77253e-05
3.32264e-05
3.25271e-05
3.37068e-05
3.27538e-05
3.45277e-05
3.37498e-05
2.77304e-05
3.32259e-05
3.25295e-05
3.37064e-05
3.27533e-05
3.4626e-05
3.46152e-05
3.43115e-05
2.9094e-05
2.90929e-05
2.08194e-05
1.26224e-05
7.70947e-06
1.04466e-05
3.40217e-05
2.19678e-05
2.17843e-05
2.72307e-05
2.71825e-05
7.62402e-06
1.045e-05
3.50032e-05
3.92938e-05
3.46471e-05
3.42153e-05
3.62814e-05
3.42981e-05
3.41519e-05
3.73681e-05
1.77883e-05
4.04811e-05
1.44382e-05
3.50038e-05
3.46464e-05
3.9288e-05
3.42149e-05
3.62824e-05
3.41514e-05
3.42934e-05
3.60707e-05
9.53235e-06
1.27065e-05
3.0877e-05
3.45365e-05
3.37541e-05
2.7531e-05
3.32317e-05
3.25366e-05
3.37076e-05
3.27081e-05
3.60757e-05
9.53149e-06
1.27086e-05
3.08748e-05
3.45376e-05
3.37532e-05
3.32312e-05
2.75254e-05
3.37075e-05
3.25323e-05
3.27078e-05
3.73587e-05
1.77834e-05
4.04683e-05
1.44342e-05
3.50027e-05
3.46465e-05
3.92912e-05
3.42152e-05
3.62814e-05
3.41515e-05
3.42944e-05
3.73641e-05
1.77892e-05
4.04757e-05
1.44378e-05
3.45355e-05
3.37539e-05
2.75228e-05
3.32312e-05
3.25252e-05
3.37072e-05
3.27062e-05
3.60665e-05
9.52868e-06
1.27059e-05
3.08665e-05
3.45367e-05
3.37534e-05
3.32314e-05
2.75242e-05
3.37076e-05
3.25313e-05
3.27074e-05
3.60717e-05
9.53128e-06
1.27094e-05
3.08737e-05
3.46018e-05
3.46288e-05
3.43113e-05
2.90995e-05
2.90786e-05
2.08262e-05
1.26293e-05
7.6283e-06
1.04517e-05
3.40216e-05
2.17829e-05
2.19549e-05
2.71915e-05
2.72138e-05
7.70205e-06
1.04405e-05
3.50104e-05
3.46442e-05
3.92694e-05
3.42197e-05
3.62795e-05
3.41544e-05
3.42917e-05
3.73774e-05
1.77787e-05
4.04655e-05
1.44455e-05
3.73841e-05
1.77792e-05
4.04744e-05
1.44456e-05
3.45272e-05
3.37503e-05
3.32259e-05
2.77193e-05
3.37065e-05
3.25137e-05
3.27539e-05
3.45284e-05
3.37503e-05
3.32258e-05
2.77249e-05
3.37064e-05
3.25175e-05
3.27553e-05
3.60491e-05
9.73311e-06
1.26855e-05
3.09777e-05
3.60553e-05
9.73433e-06
1.26861e-05
3.09859e-05
2.08036e-05
1.26185e-05
2.0798e-05
1.26284e-05
3.40217e-05
2.17892e-05
2.19571e-05
2.71853e-05
2.72157e-05
7.62328e-06
1.04458e-05
7.70726e-06
1.04416e-05
7.40653e-06
7.09215e-06
7.34125e-06
7.0097e-06
2.0658e-05
2.05063e-05
3.18357e-05
1.76902e-05
1.75082e-05
7.63559e-06
7.13241e-06
7.51648e-06
7.05193e-06
3.14452e-05
1.678e-05
1.6588e-05
1.71224e-05
1.69533e-05
2.541e-05
9.28882e-06
2.94311e-05
8.71923e-06
3.01786e-05
2.63531e-05
3.27041e-05
3.20569e-05
3.21546e-05
2.3241e-05
3.21741e-05
3.01786e-05
2.63583e-05
3.27037e-05
3.20575e-05
3.21545e-05
2.32432e-05
3.21737e-05
2.441e-05
9.55299e-06
8.80364e-06
2.30133e-05
2.44168e-05
9.55448e-06
8.80615e-06
2.30213e-05
2.95787e-05
3.15121e-05
2.17977e-05
3.1358e-05
2.25681e-05
3.17088e-05
2.82985e-05
2.95792e-05
3.15131e-05
2.18001e-05
3.1358e-05
2.25718e-05
3.17087e-05
2.83002e-05
2.06568e-05
2.05056e-05
3.1836e-05
1.76718e-05
1.75385e-05
7.33238e-06
7.00858e-06
7.63926e-06
7.13801e-06
3.14454e-05
1.67546e-05
1.66383e-05
1.71087e-05
1.69817e-05
7.53032e-06
7.05431e-06
2.99951e-05
2.61695e-05
3.27065e-05
3.2044e-05
3.2099e-05
2.29604e-05
3.21697e-05
2.50557e-05
9.10692e-06
2.93186e-05
8.58037e-06
2.99941e-05
3.27056e-05
2.61671e-05
3.20444e-05
3.20986e-05
3.21684e-05
2.29641e-05
2.40854e-05
9.39026e-06
8.68438e-06
2.26706e-05
2.94118e-05
3.14921e-05
2.15425e-05
3.13395e-05
2.23201e-05
3.16967e-05
2.80676e-05
2.40862e-05
9.40642e-06
8.69214e-06
2.26716e-05
2.94112e-05
3.14935e-05
3.13379e-05
2.15601e-05
3.1695e-05
2.23262e-05
2.80678e-05
2.50453e-05
9.10527e-06
2.93088e-05
8.57611e-06
2.99945e-05
3.27057e-05
2.61647e-05
3.20438e-05
3.20983e-05
3.21685e-05
2.29628e-05
2.50545e-05
9.10715e-06
2.93172e-05
8.58e-06
2.94092e-05
3.1491e-05
2.15569e-05
3.13391e-05
2.23235e-05
3.16963e-05
2.80632e-05
2.40768e-05
9.39803e-06
8.68706e-06
2.26587e-05
2.94118e-05
3.14927e-05
3.13378e-05
2.15578e-05
3.1695e-05
2.23249e-05
2.80664e-05
2.40859e-05
9.40357e-06
8.69131e-06
2.26671e-05
2.05101e-05
2.06465e-05
3.18356e-05
1.75279e-05
1.76814e-05
7.40442e-06
7.08993e-06
7.53651e-06
7.0564e-06
3.14452e-05
1.66293e-05
1.6774e-05
1.69803e-05
1.71145e-05
7.63108e-06
7.13015e-06
3.01807e-05
3.27042e-05
2.63531e-05
3.2057e-05
3.21567e-05
3.21749e-05
2.32401e-05
2.54075e-05
9.2856e-06
2.94312e-05
8.70962e-06
2.54147e-05
9.28683e-06
2.94403e-05
8.7109e-06
2.95788e-05
3.15107e-05
3.13591e-05
2.17935e-05
3.17101e-05
2.25616e-05
2.82985e-05
2.95809e-05
3.15121e-05
3.13593e-05
2.17983e-05
3.17101e-05
2.25673e-05
2.83009e-05
2.44134e-05
9.53932e-06
8.795e-06
2.30147e-05
2.44212e-05
9.54027e-06
8.79681e-06
2.30227e-05
7.33116e-06
7.00464e-06
7.40965e-06
7.09575e-06
3.14459e-05
1.663e-05
1.67696e-05
1.69821e-05
1.71082e-05
7.5259e-06
7.04905e-06
7.63561e-06
7.13622e-06
8.06032e-06
1.00945e-05
7.95433e-06
9.97033e-06
1.69196e-05
1.67284e-05
3.03284e-05
1.88535e-05
1.86361e-05
1.24036e-05
1.08273e-05
1.22747e-05
1.07243e-05
3.03336e-05
2.19184e-05
2.1725e-05
1.97816e-05
1.9597e-05
2.37465e-05
1.01423e-05
2.30071e-05
1.34932e-05
2.81207e-05
2.1834e-05
3.11314e-05
3.07523e-05
2.81326e-05
2.31612e-05
3.10085e-05
2.81223e-05
2.18356e-05
3.11314e-05
3.07532e-05
2.81344e-05
2.31588e-05
3.10086e-05
2.43434e-05
1.79954e-05
1.48543e-05
2.5965e-05
2.43523e-05
1.8001e-05
1.48665e-05
2.59678e-05
2.83013e-05
3.07427e-05
2.60826e-05
3.09497e-05
2.39895e-05
3.0959e-05
2.89694e-05
2.83028e-05
3.07434e-05
2.60882e-05
3.09497e-05
2.39898e-05
3.09591e-05
2.89702e-05
1.68906e-05
1.6786e-05
3.0329e-05
1.88238e-05
1.87111e-05
7.97339e-06
9.98938e-06
1.24253e-05
1.08332e-05
3.03341e-05
2.19284e-05
2.17448e-05
1.97583e-05
1.96577e-05
1.22705e-05
1.07381e-05
2.79148e-05
2.15911e-05
3.11089e-05
3.0727e-05
2.79279e-05
2.29344e-05
3.09856e-05
2.34336e-05
1.00458e-05
2.26731e-05
1.33165e-05
2.79181e-05
3.11077e-05
2.16108e-05
3.07318e-05
2.79288e-05
3.09849e-05
2.29698e-05
2.40961e-05
1.77305e-05
1.46596e-05
2.56899e-05
2.81361e-05
3.07194e-05
2.58995e-05
3.09335e-05
2.38134e-05
3.09396e-05
2.88068e-05
2.41059e-05
1.77432e-05
1.47009e-05
2.56967e-05
2.8141e-05
3.07237e-05
3.09333e-05
2.59136e-05
3.09393e-05
2.38465e-05
2.88102e-05
2.34214e-05
1.00332e-05
2.26595e-05
1.32963e-05
2.79148e-05
3.11075e-05
2.1608e-05
3.07308e-05
2.79264e-05
3.09846e-05
2.2962e-05
2.34263e-05
1.00406e-05
2.2668e-05
1.33064e-05
2.81364e-05
3.07201e-05
2.59095e-05
3.09338e-05
2.38373e-05
3.09398e-05
2.88097e-05
2.40981e-05
1.77329e-05
1.468e-05
2.56974e-05
2.8138e-05
3.07226e-05
3.09332e-05
2.59061e-05
3.09391e-05
2.38371e-05
2.881e-05
2.4101e-05
1.77375e-05
1.46914e-05
2.56966e-05
1.67765e-05
1.69133e-05
3.03306e-05
1.87005e-05
1.88579e-05
8.05427e-06
1.0099e-05
1.22843e-05
1.0747e-05
3.03357e-05
2.17459e-05
2.19355e-05
1.9651e-05
1.97903e-05
1.24159e-05
1.0835e-05
2.8119e-05
3.11323e-05
2.1834e-05
3.07511e-05
2.81339e-05
3.1009e-05
2.31557e-05
2.37323e-05
1.01229e-05
2.29997e-05
1.34641e-05
2.3738e-05
1.01238e-05
2.30076e-05
1.34623e-05
2.82948e-05
3.07409e-05
3.09498e-05
2.60871e-05
3.09591e-05
2.39835e-05
2.89646e-05
2.82966e-05
3.07419e-05
3.09499e-05
2.60911e-05
3.09592e-05
2.39863e-05
2.89655e-05
2.43371e-05
1.79924e-05
1.48407e-05
2.59579e-05
2.43419e-05
1.79935e-05
1.48413e-05
2.5959e-05
7.96985e-06
9.98099e-06
8.0582e-06
1.01015e-05
3.03359e-05
2.17359e-05
2.19356e-05
1.96353e-05
1.97789e-05
1.22655e-05
1.07301e-05
1.24221e-05
1.08389e-05
1.27263e-05
1.31754e-05
1.26099e-05
1.3033e-05
2.24272e-05
2.2248e-05
3.05527e-05
2.31434e-05
2.29353e-05
1.3304e-05
1.32426e-05
1.31599e-05
1.31098e-05
3.05669e-05
2.33775e-05
2.3163e-05
2.32767e-05
2.30739e-05
2.70299e-05
1.86373e-05
2.63827e-05
1.95577e-05
2.94682e-05
2.65752e-05
3.09511e-05
3.08303e-05
2.91529e-05
2.73153e-05
3.09568e-05
2.94679e-05
2.65802e-05
3.09511e-05
3.08307e-05
2.91536e-05
2.73211e-05
3.09568e-05
2.71489e-05
1.98227e-05
1.96904e-05
2.72691e-05
2.71461e-05
1.9817e-05
1.96852e-05
2.72609e-05
2.95231e-05
3.08456e-05
2.75529e-05
3.09636e-05
2.74396e-05
3.09613e-05
2.95852e-05
2.95226e-05
3.08456e-05
2.75569e-05
3.09636e-05
2.74433e-05
3.09613e-05
2.95837e-05
2.24335e-05
2.2261e-05
3.05517e-05
2.31535e-05
2.29331e-05
1.26057e-05
1.30232e-05
1.33139e-05
1.32536e-05
3.05661e-05
2.33854e-05
2.31607e-05
2.32783e-05
2.30762e-05
1.315e-05
1.31015e-05
2.93252e-05
2.64172e-05
3.09366e-05
3.08159e-05
2.9023e-05
2.7135e-05
3.09449e-05
2.67583e-05
1.839e-05
2.61487e-05
1.92582e-05
2.9326e-05
3.09363e-05
2.64251e-05
3.08166e-05
2.90256e-05
3.09446e-05
2.71318e-05
2.6889e-05
1.95243e-05
1.94132e-05
2.69836e-05
2.93962e-05
3.0832e-05
2.73684e-05
3.0953e-05
2.72722e-05
3.09503e-05
2.94432e-05
2.68925e-05
1.9508e-05
1.94022e-05
2.69831e-05
2.93967e-05
3.08321e-05
3.09526e-05
2.73614e-05
3.09499e-05
2.72671e-05
2.94429e-05
2.67594e-05
1.83821e-05
2.615e-05
1.92548e-05
2.93264e-05
3.09362e-05
2.64181e-05
3.08158e-05
2.90257e-05
3.09445e-05
2.71264e-05
2.67588e-05
1.83858e-05
2.61491e-05
1.92548e-05
2.93969e-05
3.08313e-05
2.73636e-05
3.09529e-05
2.72665e-05
3.09503e-05
2.94432e-05
2.68933e-05
1.95072e-05
1.93992e-05
2.69832e-05
2.9397e-05
3.08315e-05
3.09525e-05
2.73584e-05
3.09499e-05
2.72625e-05
2.94432e-05
2.6893e-05
1.95053e-05
1.93992e-05
2.69832e-05
2.22613e-05
2.24407e-05
3.05524e-05
2.29377e-05
2.31498e-05
1.2736e-05
1.31808e-05
1.31567e-05
1.31099e-05
3.05665e-05
2.31619e-05
2.33892e-05
2.30745e-05
2.32792e-05
1.33094e-05
1.32476e-05
2.9467e-05
3.09514e-05
2.65845e-05
3.08318e-05
2.91499e-05
3.09571e-05
2.73263e-05
2.70276e-05
1.86311e-05
2.63754e-05
1.95541e-05
2.70267e-05
1.86346e-05
2.63759e-05
1.95592e-05
2.95219e-05
3.08465e-05
3.09639e-05
2.75566e-05
3.09617e-05
2.74422e-05
2.95843e-05
2.95218e-05
3.08473e-05
3.0964e-05
2.75656e-05
3.09617e-05
2.74501e-05
2.95839e-05
2.7145e-05
1.98136e-05
1.96861e-05
2.72616e-05
2.71438e-05
1.98205e-05
1.96877e-05
2.72602e-05
1.25987e-05
1.30169e-05
1.27445e-05
1.31918e-05
3.05669e-05
2.31653e-05
2.34043e-05
2.30731e-05
2.32918e-05
1.31454e-05
1.30944e-05
1.33235e-05
1.32597e-05
1.33157e-05
1.33201e-05
1.31765e-05
1.31793e-05
2.34054e-05
2.31947e-05
3.05872e-05
2.34127e-05
2.32003e-05
1.33221e-05
1.33256e-05
1.31806e-05
1.31878e-05
3.0589e-05
2.34178e-05
2.32056e-05
2.34238e-05
2.32156e-05
2.72954e-05
1.98367e-05
2.72855e-05
1.98437e-05
2.96016e-05
2.7577e-05
3.09645e-05
3.08565e-05
2.95959e-05
2.75846e-05
3.09648e-05
2.96e-05
2.75797e-05
3.09645e-05
3.08568e-05
2.95943e-05
2.75867e-05
3.09648e-05
2.73107e-05
1.98541e-05
1.98581e-05
2.73074e-05
2.73047e-05
1.98486e-05
1.98512e-05
2.73027e-05
2.96057e-05
3.08569e-05
2.7587e-05
3.09651e-05
2.75941e-05
3.0965e-05
2.96035e-05
2.96042e-05
3.08572e-05
2.75892e-05
3.09651e-05
2.75962e-05
3.0965e-05
2.96023e-05
2.34149e-05
2.31915e-05
3.05857e-05
2.34232e-05
2.31992e-05
1.31653e-05
1.31674e-05
1.33336e-05
1.33368e-05
3.05873e-05
2.34269e-05
2.32014e-05
2.3434e-05
2.32142e-05
1.31681e-05
1.31756e-05
2.94658e-05
2.7401e-05
3.09541e-05
3.08437e-05
2.94631e-05
2.74075e-05
3.09546e-05
2.7023e-05
1.95371e-05
2.70182e-05
1.95434e-05
2.94653e-05
3.09537e-05
2.73934e-05
3.08434e-05
2.94626e-05
3.09542e-05
2.73996e-05
2.70394e-05
1.95609e-05
1.95724e-05
2.70269e-05
2.94769e-05
3.08442e-05
2.74097e-05
3.09548e-05
2.74234e-05
3.09548e-05
2.94673e-05
2.70409e-05
1.95501e-05
1.9556e-05
2.70276e-05
2.94765e-05
3.08439e-05
3.09543e-05
2.74032e-05
3.09543e-05
2.74157e-05
2.94668e-05
2.70229e-05
1.9536e-05
2.70182e-05
1.95443e-05
2.94656e-05
3.09537e-05
2.73907e-05
3.08429e-05
2.94628e-05
3.09541e-05
2.73978e-05
2.7023e-05
1.95352e-05
2.70182e-05
1.95417e-05
2.94766e-05
3.08432e-05
2.7404e-05
3.09547e-05
2.74168e-05
3.09547e-05
2.94669e-05
2.70409e-05
1.95493e-05
1.95571e-05
2.7028e-05
2.94767e-05
3.08434e-05
3.09543e-05
2.74027e-05
3.09543e-05
2.74141e-05
2.9467e-05
2.7041e-05
1.9549e-05
1.95548e-05
2.7028e-05
2.31935e-05
2.34181e-05
3.05862e-05
2.31992e-05
2.343e-05
1.33223e-05
1.33278e-05
1.31751e-05
1.31846e-05
3.05881e-05
2.32043e-05
2.3439e-05
2.32144e-05
2.34424e-05
1.33318e-05
1.33336e-05
2.96005e-05
3.09649e-05
2.75891e-05
3.08584e-05
2.95947e-05
3.09653e-05
2.75993e-05
2.7297e-05
1.98348e-05
2.72863e-05
1.98458e-05
2.72951e-05
1.98402e-05
2.72851e-05
1.98511e-05
2.96052e-05
3.08579e-05
3.09655e-05
2.75941e-05
3.09654e-05
2.75993e-05
2.96038e-05
2.96048e-05
3.08589e-05
3.09655e-05
2.76038e-05
3.09654e-05
2.76094e-05
2.96034e-05
2.73071e-05
1.98511e-05
1.9853e-05
2.7306e-05
2.73052e-05
1.9855e-05
1.98581e-05
2.73043e-05
1.31627e-05
1.31635e-05
1.3336e-05
1.33411e-05
3.05887e-05
2.3213e-05
2.34479e-05
2.32234e-05
2.34543e-05
1.31696e-05
1.3173e-05
1.33435e-05
1.33467e-05
1.3326e-05
1.33214e-05
1.31863e-05
1.31771e-05
2.34259e-05
2.32164e-05
3.05875e-05
2.34149e-05
2.32009e-05
1.33222e-05
1.33261e-05
1.31789e-05
1.31849e-05
3.0589e-05
2.34158e-05
2.32034e-05
2.34235e-05
2.32137e-05
2.73002e-05
1.98536e-05
2.73089e-05
1.98498e-05
2.96032e-05
2.75947e-05
3.0965e-05
3.08571e-05
2.96067e-05
2.75872e-05
3.0965e-05
2.96021e-05
2.75965e-05
3.0965e-05
3.08572e-05
2.96056e-05
2.75898e-05
3.0965e-05
2.73118e-05
1.98531e-05
1.98603e-05
2.73068e-05
2.73065e-05
1.98495e-05
1.98558e-05
2.73029e-05
2.96065e-05
3.08571e-05
2.7586e-05
3.09651e-05
2.75949e-05
3.09651e-05
2.96035e-05
2.96054e-05
3.08571e-05
2.75905e-05
3.09651e-05
2.75977e-05
3.09651e-05
2.96026e-05
2.34343e-05
2.32115e-05
3.05861e-05
2.34219e-05
2.31995e-05
1.3174e-05
1.31674e-05
1.33302e-05
1.33355e-05
3.05877e-05
2.34233e-05
2.32003e-05
2.34278e-05
2.32145e-05
1.3169e-05
1.31766e-05
2.94634e-05
2.74204e-05
3.09547e-05
3.08442e-05
2.94746e-05
2.7406e-05
3.09547e-05
2.70201e-05
1.95585e-05
2.70394e-05
1.95496e-05
2.9463e-05
3.09543e-05
2.74144e-05
3.08439e-05
2.9474e-05
3.09542e-05
2.74003e-05
2.70329e-05
1.95584e-05
1.95707e-05
2.70233e-05
2.94728e-05
3.08442e-05
2.74076e-05
3.09548e-05
2.74197e-05
3.09547e-05
2.94653e-05
2.70351e-05
1.9551e-05
1.95608e-05
2.70238e-05
2.94725e-05
3.08439e-05
3.09543e-05
2.74023e-05
3.09542e-05
2.74139e-05
2.94649e-05
2.70212e-05
1.95573e-05
2.70399e-05
1.95466e-05
2.94635e-05
3.09542e-05
2.74139e-05
3.08434e-05
2.94743e-05
3.09542e-05
2.73991e-05
2.70211e-05
1.95582e-05
2.70399e-05
1.95467e-05
2.94729e-05
3.08433e-05
2.74032e-05
3.09547e-05
2.74145e-05
3.09547e-05
2.94653e-05
2.70362e-05
1.95479e-05
1.95573e-05
2.70244e-05
2.9473e-05
3.08434e-05
3.09543e-05
2.74012e-05
3.09542e-05
2.74123e-05
2.94653e-05
2.70361e-05
1.95515e-05
1.9557e-05
2.70243e-05
2.32155e-05
2.34479e-05
3.05868e-05
2.32017e-05
2.34409e-05
1.33363e-05
1.3333e-05
1.31775e-05
1.31857e-05
3.05884e-05
2.32045e-05
2.34423e-05
2.32146e-05
2.34495e-05
1.33328e-05
1.33373e-05
2.96033e-05
3.09655e-05
2.76108e-05
3.0859e-05
2.96068e-05
3.09655e-05
2.76033e-05
2.73042e-05
1.98568e-05
2.73125e-05
1.98529e-05
2.73022e-05
1.98603e-05
2.73109e-05
1.98527e-05
2.96069e-05
3.08581e-05
3.09655e-05
2.75946e-05
3.09655e-05
2.7603e-05
2.96042e-05
2.96065e-05
3.0859e-05
3.09656e-05
2.76031e-05
3.09655e-05
2.76114e-05
2.96036e-05
2.73104e-05
1.985e-05
1.98584e-05
2.73068e-05
2.73083e-05
1.98535e-05
1.98583e-05
2.73038e-05
1.31762e-05
1.3168e-05
1.33476e-05
1.33424e-05
3.05886e-05
2.32124e-05
2.34483e-05
2.32225e-05
2.3456e-05
1.31677e-05
1.31759e-05
1.33432e-05
1.33472e-05
1.33264e-05
1.33216e-05
1.31856e-05
1.31781e-05
2.34243e-05
2.32156e-05
3.05876e-05
2.3415e-05
2.32024e-05
1.33225e-05
1.33263e-05
1.31785e-05
1.31855e-05
3.05891e-05
2.34158e-05
2.32031e-05
2.34237e-05
2.32148e-05
2.73045e-05
1.98541e-05
2.73101e-05
1.98501e-05
2.96035e-05
2.75939e-05
3.09651e-05
3.08571e-05
2.96067e-05
2.75871e-05
3.09651e-05
2.9603e-05
2.75979e-05
3.09651e-05
3.08574e-05
2.9606e-05
2.759e-05
3.09651e-05
2.73128e-05
1.98524e-05
1.98599e-05
2.73058e-05
2.7311e-05
1.98474e-05
1.9856e-05
2.73055e-05
2.96069e-05
3.08571e-05
2.75854e-05
3.09651e-05
2.75947e-05
3.09651e-05
2.96036e-05
2.96063e-05
3.08573e-05
2.75887e-05
3.09651e-05
2.75977e-05
3.09651e-05
2.96033e-05
2.34328e-05
2.32125e-05
3.05861e-05
2.34273e-05
2.32039e-05
1.31751e-05
1.31689e-05
1.33333e-05
1.33382e-05
3.05874e-05
2.34266e-05
2.31998e-05
2.34362e-05
2.32161e-05
1.31675e-05
1.3176e-05
2.94647e-05
2.74201e-05
3.09547e-05
3.08442e-05
2.94743e-05
2.7407e-05
3.09547e-05
2.70231e-05
1.95586e-05
2.70382e-05
1.95458e-05
2.94644e-05
3.09543e-05
2.74149e-05
3.08439e-05
2.94737e-05
3.09542e-05
2.74003e-05
2.70344e-05
1.95575e-05
1.95715e-05
2.70224e-05
2.94735e-05
3.08442e-05
2.74074e-05
3.09548e-05
2.74201e-05
3.09547e-05
2.94649e-05
2.70372e-05
1.95491e-05
1.95562e-05
2.7023e-05
2.94734e-05
3.08439e-05
3.09543e-05
2.74013e-05
3.09543e-05
2.74129e-05
2.94646e-05
2.70241e-05
1.95564e-05
2.70386e-05
1.95479e-05
2.94647e-05
3.09542e-05
2.74141e-05
3.08434e-05
2.9474e-05
3.09542e-05
2.74002e-05
2.70241e-05
1.95604e-05
2.70385e-05
1.9549e-05
2.94738e-05
3.08433e-05
2.74022e-05
3.09547e-05
2.74159e-05
3.09547e-05
2.94651e-05
2.70385e-05
1.95477e-05
1.95587e-05
2.70239e-05
2.94739e-05
3.08434e-05
3.09543e-05
2.7402e-05
3.09542e-05
2.74131e-05
2.94651e-05
2.70386e-05
1.95524e-05
1.95596e-05
2.70238e-05
2.32167e-05
2.345e-05
3.05868e-05
2.32023e-05
2.34407e-05
1.33367e-05
1.3332e-05
1.31749e-05
1.31842e-05
3.05883e-05
2.32027e-05
2.34434e-05
2.3214e-05
2.34491e-05
1.33321e-05
1.3336e-05
2.96034e-05
3.09656e-05
2.76102e-05
3.0859e-05
2.96069e-05
3.09655e-05
2.76034e-05
2.7306e-05
1.9855e-05
2.73137e-05
1.98485e-05
2.73031e-05
1.98587e-05
2.73106e-05
1.98525e-05
2.96071e-05
3.08581e-05
3.09655e-05
2.75938e-05