/*--------------------------------*- C++ -*----------------------------------*\
| =========                 |                                                 |
| \\      /  F ield         | OpenFOAM: The Open Source CFD Toolbox           |
|  \\    /   O peration     | Version:  2206                                  |
|   \\  /    A nd           | Website:  www.openfoam.com                      |
|    \\/     M anipulation  |                                                 |
\*---------------------------------------------------------------------------*/
FoamFile
{
    version     2.0;
    format      ascii;
    arch        "LSB;label=32;scalar=64";
    class       volScalarField;
    location    "0.1";
    object      omega;
}
// * * * * * * * * * * * * * * * * * * * * * * * * * * * * * * * * * * * * * //

dimensions      [0 0 -1 0 0 0 0];

internalField   nonuniform List<scalar> 
66616
(
21.2117
21.3699
21.3699
21.4206
20.6136
21.1254
21.0734
21.5316
20.559
20.6622
20.65
20.9299
20.5576
20.6364
20.6243
20.8721
20.5578
20.6368
20.6246
20.8718
20.5578
20.6366
20.6245
20.8717
20.5578
20.6367
20.6245
20.8717
20.5578
20.6367
20.6245
20.8718
20.5578
20.6367
20.6246
20.8718
20.5578
20.6367
20.6245
20.8718
20.5578
20.6367
20.6245
20.8718
20.5577
20.6365
20.6203
20.8721
21.5253
21.4317
21.4314
21.5253
21.4339
21.431
21.4792
21.4789
21.4789
21.4789
21.4333
21.4315
21.5253
21.4337
21.434
21.5257
21.4205
21.5373
21.3763
21.3766
21.0841
21.0821
21.4205
21.5346
21.3703
21.3767
21.1511
21.142
21.3763
21.152
21.143
21.4206
21.5356
21.3706
21.0949
21.0931
21.5335
21.5345
20.9791
21.065
21.0628
20.7012
20.7005
21.531
20.9837
21.1253
21.1164
20.7147
20.7137
21.1176
20.7154
20.7146
21.5318
20.9772
21.0721
20.7016
20.6999
20.977
20.9294
20.875
20.6515
20.6511
20.6256
20.6249
20.9349
20.8748
20.6622
20.6625
20.6357
20.6369
20.6632
20.6365
20.6375
20.9283
20.8751
20.6494
20.6246
20.6235
20.8757
20.875
20.8748
20.6271
20.6264
20.6262
20.6259
20.8748
20.8788
20.6372
20.6384
20.6362
20.6374
20.6391
20.637
20.6379
20.8748
20.8746
20.6249
20.6251
20.6239
20.875
20.8745
20.8747
20.6275
20.6273
20.6261
20.6254
20.8785
20.8751
20.6376
20.6388
20.6362
20.6374
20.6393
20.6369
20.6379
20.8741
20.8744
20.6253
20.6249
20.6238
20.8751
20.8744
20.8747
20.6275
20.6268
20.6261
20.6259
20.8748
20.8789
20.6375
20.6387
20.6362
20.6374
20.6392
20.6367
20.6379
20.874
20.8745
20.6252
20.6249
20.6238
20.875
20.8745
20.8748
20.6275
20.6272
20.6262
20.6255
20.8781
20.8752
20.6376
20.6388
20.6362
20.6374
20.6392
20.637
20.6379
20.8741
20.8743
20.6252
20.6248
20.6238
20.8752
20.8745
20.8747
20.6275
20.6268
20.6261
20.6259
20.8749
20.8789
20.6376
20.6387
20.6362
20.6374
20.6392
20.6367
20.6379
20.874
20.8745
20.6252
20.6251
20.6238
20.8751
20.8745
20.8748
20.6275
20.6273
20.6262
20.6255
20.8782
20.8752
20.6376
20.6388
20.6362
20.6374
20.6392
20.637
20.6379
20.8741
20.8745
20.6252
20.6249
20.6238
20.8751
20.8745
20.8747
20.6275
20.6268
20.626
20.6259
20.8751
20.8789
20.6375
20.6388
20.6362
20.6374
20.6393
20.6368
20.6379
20.8741
20.8744
20.6252
20.6248
20.6238
20.875
20.8744
20.8748
20.6275
20.6272
20.6265
20.6259
20.878
20.8748
20.6375
20.6387
20.6361
20.6374
20.6392
20.6368
20.6379
20.874
20.8745
20.6252
20.6254
20.6241
20.875
20.8747
20.6231
20.6223
20.8745
20.6368
20.6383
20.6386
20.8742
20.621
21.8436
21.8752
21.8652
21.8651
22.2634
21.8971
47.8391
21.8774
22.2631
21.8977
21.8774
47.9254
21.9548
113.817
114.296
73.084
689.94
63.815
443.862
535.44
569.386
73.0143
689.898
63.8008
443.806
21.2123
21.2122
21.2122
20.6631
20.6626
20.6625
20.6626
26.7733
100.034
21.2245
21.185
24.4312
98.1809
20.9625
535.491
569.371
26.8074
21.2245
100.056
21.1892
24.4289
20.9623
98.1706
181.577
181.653
21.3239
175.506
175.572
66.7558
301.618
79.6503
238.618
407.107
358.034
69.4777
304.389
81.3477
241.164
20.6141
20.6141
20.6141
20.5627
20.5624
20.5624
20.5621
29.1186
94.8007
20.6824
21.0049
30.661
68.7447
20.6513
409.526
360.51
28.3032
20.6558
92.2811
20.9748
29.8553
20.6316
67.0268
149.169
147.988
21.3557
117.043
115.631
47.7473
194.373
49.2563
191.604
337.043
336.88
49.7107
196.992
51.0227
194.453
20.5609
20.5609
20.5609
20.5579
20.5577
20.5578
20.5577
24.4331
45.7968
20.579
20.6444
24.8036
44.3088
20.5772
339.41
339.443
23.9839
20.5733
44.6327
20.6327
24.4083
20.5723
43.0098
88.8012
87.1597
20.8798
86.7019
84.9044
47.3347
191.015
47.3913
190.778
336.901
336.662
49.4482
193.818
49.2251
193.636
20.5596
20.5597
20.5596
20.5582
20.5582
20.5582
20.5581
24.3702
44.0172
20.574
20.638
24.3023
44.0639
20.5762
339.309
339.136
23.8978
20.5692
42.7446
20.6258
23.9058
20.5711
42.7256
86.1784
84.3849
20.8708
86.1027
84.2493
47.3241
191.059
47.33
190.807
336.882
336.672
49.4557
193.798
49.2323
193.675
20.5599
20.5599
20.5598
20.5581
20.5582
20.5582
20.5581
24.3707
44.0259
20.5742
20.6382
24.3087
44.07
20.5759
339.299
339.151
23.8921
20.5695
42.733
20.6259
23.8976
20.5712
42.7141
86.0953
84.2614
20.8709
86.0627
84.1929
47.3135
191.056
47.3239
190.805
336.881
336.663
49.4553
193.789
49.2327
193.663
20.5599
20.5599
20.5598
20.5581
20.5582
20.5582
20.5581
24.3697
44.0135
20.574
20.6379
24.3085
44.0563
20.5759
339.281
339.127
23.8914
20.5693
42.7287
20.6259
23.8964
20.5711
42.7121
86.0974
84.2354
20.8708
86.0478
84.1663
47.3214
191.056
47.3277
190.814
336.885
336.675
49.4556
193.791
49.2324
193.663
20.5599
20.5599
20.5598
20.5581
20.5582
20.5582
20.558
24.3697
44.0243
20.5741
20.6381
24.3085
44.0692
20.5759
339.295
339.15
23.8943
20.5693
42.7301
20.6259
23.8933
20.5711
42.7185
86.0887
84.2351
20.8709
86.0536
84.1694
47.3228
191.011
47.3501
190.79
336.886
336.668
49.4558
193.789
49.2327
193.664
20.5599
20.5599
20.5598
20.5581
20.5581
20.5582
20.5581
24.3698
44.0134
20.5741
20.638
24.3086
44.0562
20.5759
339.281
339.133
23.8917
20.5693
42.7296
20.6259
23.897
20.5711
42.715
86.1043
84.2347
20.8709
86.0588
84.1668
47.32
191.064
47.3468
190.809
336.901
336.69
49.456
193.794
49.233
193.664
20.5599
20.5599
20.5598
20.5582
20.5581
20.5582
20.5581
24.3699
44.0247
20.574
20.6383
24.3087
44.07
20.5761
339.292
339.129
23.8919
20.5694
42.7299
20.6259
23.8968
20.5711
42.7147
86.0988
84.2362
20.8709
86.0632
84.1703
47.3213
191.048
47.3478
190.794
336.896
336.666
49.4559
193.79
49.2329
193.664
20.5599
20.5599
20.5598
20.5581
20.5582
20.5582
20.5581
24.3698
44.014
20.5741
20.6379
24.3086
44.0567
20.5759
339.297
339.151
23.8917
20.5693
42.7294
20.6259
23.8964
20.5711
42.7147
86.0959
84.2351
20.8708
86.0479
84.1672
47.319
191.046
47.3466
190.813
336.885
336.675
49.4554
193.791
49.2322
193.664
20.5599
20.5599
20.5599
20.5582
20.5582
20.5582
20.5581
24.3698
44.0244
20.5741
20.6381
24.3085
44.07
20.576
339.279
339.139
23.8925
20.5693
42.7311
20.6259
23.8966
20.5711
42.7178
86.0916
84.2378
20.8709
86.0563
84.1721
49.0545
190.986
47.4035
192.193
336.859
337.993
193.772
49.3166
20.5598
20.5599
20.5597
24.3563
44.0148
20.574
20.6431
24.3087
44.0048
20.5773
339.263
24.3301
20.5678
42.7269
23.8736
20.5776
86.1004
84.2369
20.871
85.99
84.7259
21.9546
113.281
113.674
1196.04
401.118
1196.1
401.822
21.8771
241.812
242.131
113.272
113.622
22.2627
21.8985
47.6662
21.8775
22.2623
21.8981
47.7634
21.8777
28.5518
1693.04
264.667
70.0007
28.532
1693.12
264.849
69.9954
22.4095
21.8267
173.775
21.5388
49.9974
21.7941
23.9468
22.409
21.8264
173.817
21.5391
50.0766
21.7943
23.9459
21.955
113.831
114.074
1196.21
402.202
21.8771
242.212
242.012
113.28
114.033
1196.1
402.887
22.2624
21.8979
47.6992
21.878
22.2623
21.8975
21.8788
47.8145
28.5388
1692.99
264.865
69.9875
22.4092
21.826
173.845
21.5391
50.0546
21.7945
23.9453
28.5263
1693.17
265.161
69.9775
22.4087
21.8258
21.5395
173.857
21.7951
50.1106
23.9446
21.8445
21.8756
21.8663
21.8652
21.8444
21.8756
21.8654
21.8651
21.8448
21.8754
21.8653
21.8661
21.7349
21.7741
21.4753
21.4749
21.7598
21.7596
21.4535
21.7356
21.774
21.4752
21.4752
21.7604
21.7598
21.4535
21.7355
21.7739
21.4749
21.475
21.7598
21.7596
21.4534
21.7357
21.7738
21.4748
21.4755
21.7597
21.7605
21.4534
22.2623
21.8983
21.8788
47.7836
22.4124
21.8252
173.891
21.5396
50.2059
21.7944
23.955
28.573
1693.09
265.451
70.038
22.4099
21.8265
21.5393
173.824
21.7951
50.1613
23.9519
28.5455
1693.1
265.458
70.0001
21.9549
113.864
114.182
1196.26
402.298
21.8771
242.312
241.976
113.337
114.104
1196.15
403.326
22.2621
21.898
21.8788
47.9937
22.4114
21.8258
21.5397
173.943
21.7945
50.2748
23.954
22.4089
21.826
21.5392
173.956
21.795
50.3407
23.9493
28.5683
1693.2
266.04
70.0179
28.5218
1693.16
266.774
69.9625
21.8766
242.159
242.427
113.308
113.72
1196.23
402.22
1196.27
403.515
535.486
569.325
535.52
569.349
181.307
181.429
21.3235
175.462
175.518
430.153
538.676
432.69
538.683
21.3764
157.536
159.912
174.546
174.514
73.1085
690.033
63.6524
443.956
26.8044
99.9182
21.2249
21.1904
24.4201
98.1387
20.9615
26.8056
99.934
21.2253
21.1907
24.4202
98.1338
20.9616
77.0277
325.638
411.456
81.3138
77.0125
325.681
411.272
81.2203
27.9915
21.1097
96.317
20.696
99.6564
20.7897
29.9322
27.988
21.1082
96.2983
20.696
99.6221
20.7899
29.9164
181.539
181.387
21.3241
175.528
175.568
535.554
569.38
430.253
538.753
21.3768
157.731
159.37
174.598
174.548
432.533
538.642
26.7731
99.9472
21.2253
21.1847
24.4196
98.1342
20.9616
73.0374
690.016
63.6365
443.88
26.7728
21.2258
99.95
21.1796
24.4199
20.9616
98.1706
77.1426
328.586
411.418
82.2243
28.0505
21.1411
98.3361
20.7165
99.646
20.7868
30.5725
77.1663
328.558
411.25
82.2865
28.0539
21.1339
20.7195
98.3169
20.789
99.6629
30.5885
73.0426
690.049
63.6824
443.903
26.7715
21.2255
99.9662
21.1796
24.4217
20.9615
98.1727
73.029
690.014
63.656
443.871
28.0494
21.142
98.3152
20.7175
99.6778
20.7855
30.62
77.1592
328.504
411.229
82.3962
28.0435
21.1343
20.7197
98.3074
20.7887
99.6602
30.5912
77.1466
328.517
411.188
82.2915
181.621
181.348
21.3238
175.636
175.513
535.545
569.389
432.639
538.721
21.3777
159.525
157.675
174.608
174.603
430.178
538.682
26.8047
21.2251
100.017
21.1895
24.4173
20.9616
98.1581
73.1166
690.091
63.6677
443.971
73.0901
690.071
63.6265
443.966
27.9882
21.1226
20.6938
96.3517
20.7876
99.6654
29.9237
27.9808
21.1209
20.6935
96.2994
20.7885
99.6399
29.9005
77.0173
325.661
411.258
81.2471
76.982
325.678
411.25
81.143
535.577
569.311
535.576
569.411
21.3775
159.328
157.773
174.466
174.694
432.497
538.598
430.198
538.745
406.92
358.167
409.569
360.678
147.466
149.704
21.3624
115.53
117.566
337.484
348.315
339.97
350.507
21.2318
89.4188
91.2076
105.479
107.205
66.7241
301.551
79.4812
238.665
28.278
92.1589
20.6585
20.9698
29.8445
67.0188
20.6333
28.2764
92.2043
20.6585
20.968
29.8308
67.0513
20.6333
61.3534
197.149
222.147
50.9871
61.2719
197.171
222.028
50.9558
27.1587
20.8068
46.3387
20.5831
59.0826
20.6039
24.8187
27.1518
20.8056
46.3365
20.5831
59.0626
20.6038
24.8186
147.931
148.854
21.358
115.813
117.016
409.397
360.558
337.467
348.213
21.2279
89.4895
91.1854
105.712
106.765
339.917
350.427
29.0984
94.8355
20.6819
21.0068
30.593
68.881
20.6519
69.4594
304.18
81.3431
241.101
29.0926
20.6844
94.7627
20.9988
30.6117
20.6533
68.7696
63.4499
199.948
224.448
52.9918
27.7754
20.8278
47.6157
20.5912
60.469
20.6168
25.3166
63.3905
199.966
224.286
52.9496
27.7635
20.8237
20.5916
47.6143
20.6174
60.3577
25.315
69.5369
304.158
81.4704
241.165
29.1017
20.685
94.7431
21.0004
30.6079
20.6537
68.7699
69.484
304.155
81.3601
241.123
27.7675
20.8253
47.6206
20.5912
60.3524
20.6158
25.3154
63.4049
199.934
224.362
52.9302
27.7583
20.8249
20.5919
47.628
20.6177
60.3636
25.3142
63.3955
199.947
224.295
52.948
149.115
147.63
21.3555
117.107
115.536
407.006
358.156
339.959
350.43
21.2262
91.1397
89.3738
106.913
105.401
337.413
348.28
28.2948
20.6562
92.1801
20.9739
29.8089
20.632
67.0654
66.8247
301.628
79.5143
238.812
66.7788
301.658
79.4121
238.863
27.1712
20.8073
20.5832
46.3057
20.6033
59.0393
24.8298
27.1622
20.8075
20.5826
46.2934
20.6031
59.0533
24.8264
61.3555
197.125
222.14
50.9882
61.328
197.149
222.136
50.9845
409.391
360.587
407.044
358.162
21.2258
91.1483
89.4366
106.927
105.585
339.891
350.526
337.397
348.325
336.79
336.995
339.156
339.518
86.8853
88.5921
20.8812
84.8785
86.7531
336.86
336.796
339.331
339.261
20.8763
84.3458
86.2958
84.4699
86.2966
47.7301
194.028
49.0797
191.639
23.9813
44.5251
20.5753
20.6342
24.3751
43.0222
20.5726
23.9814
44.5162
20.5754
20.6339
24.3772
43.0133
20.5726
47.4905
190.983
191.196
47.491
47.4799
191.083
191.242
47.4499
23.9279
20.6265
42.7058
20.5696
42.8104
20.5696
23.9135
23.9276
20.6259
42.7167
20.5696
42.7944
20.5697
23.9188
86.9231
88.589
20.8851
84.8456
86.7303
339.151
339.495
336.814
336.724
20.8778
84.3478
86.2556
84.4526
86.2066
339.259
339.237
24.4339
45.6547
20.5808
20.6441
24.7763
44.2927
20.5772
49.6761
196.658
50.8655
194.546
24.4317
20.5811
45.6558
20.6451
24.7796
20.5775
44.3248
49.2887
193.906
193.952
49.4014
24.3261
20.6365
44.065
20.5738
44.0038
20.5739
24.3507
49.2703
193.957
194.052
49.3778
24.3244
20.6377
20.5742
44.1029
20.5742
44.028
24.353
49.6764
196.649
50.8502
194.537
24.4305
20.5811
45.647
20.6456
24.7726
20.5775
44.3165
49.6715
196.65
50.8676
194.542
24.3234
20.6383
44.1268
20.574
43.9951
20.5758
24.3574
49.2696
193.859
194.048
49.3799
24.3214
20.6383
20.5742
44.1034
20.5742
44.02
24.3527
49.2673
193.917
194.027
49.3782
88.5531
86.8505
20.881
86.7199
84.8765
336.775
336.981
339.272
339.199
20.8761
86.2523
84.4225
86.2602
84.4458
336.84
336.805
23.9828
20.5749
44.4594
20.632
24.3762
20.5721
42.988
47.7473
194.017
49.0961
191.669
47.7355
194.017
49.1031
191.675
23.9264
20.6265
20.5693
42.8025
20.5712
42.7736
23.9235
23.9258
20.6243
20.5693
42.7078
20.5693
42.7575
23.9157
47.4828
191.047
191.262
47.4567
47.4836
191.065
191.248
47.4589
339.149
339.528
336.793
337.029
20.8752
86.3272
84.5148
86.1775
84.4568
339.266
339.251
336.862
336.852
336.665
336.74
339.219
339.207
84.1144
86.0383
20.8735
84.3084
86.3082
336.77
336.71
339.25
339.181
20.8735
84.3285
86.2959
84.1552
86.0784
47.4066
190.882
47.332
190.908
23.8959
42.6118
20.5715
20.6271
23.8846
42.765
20.5715
23.9081
42.6409
20.5717
20.6264
23.8917
42.7627
20.5715
47.2614
191.063
190.758
47.3236
47.298
190.944
190.862
47.4088
23.8759
20.6264
42.7406
20.57
42.6546
20.5706
23.9034
23.8849
20.6263
42.7367
20.5699
42.6499
20.5704
23.9132
84.1247
85.9959
20.8744
84.3291
86.2649
339.155
339.172
336.784
336.675
20.8745
84.2528
86.3438
84.1486
85.9583
339.212
339.167
24.367
43.865
20.5759
20.6372
24.2874
44.086
20.5757
49.4235
193.758
49.1664
193.83
24.3687
20.5762
43.9031
20.6384
24.2919
20.5761
44.1249
49.1972
193.787
193.419
49.4066
24.3009
20.6364
44.0787
20.5743
43.9002
20.5747
24.3602
49.1969
193.918
193.657
49.4071
24.304
20.6376
20.5746
44.1195
20.5749
43.9333
24.3678
49.4233
193.73
49.1672
193.81
24.3673
20.5762
43.9036
20.639
24.2909
20.5761
44.1153
49.4222
193.764
49.1684
193.838
24.301
20.6377
44.1351
20.5745
43.8656
20.5759
24.3685
49.1948
193.828
193.641
49.4047
24.3002
20.638
20.5747
44.1073
20.575
43.9176
24.3662
49.1964
193.86
193.655
49.4075
85.9934
84.2291
20.8736
86.2685
84.3326
336.687
336.738
339.248
339.055
20.8734
86.2462
84.2524
86.0415
84.1602
336.734
336.683
23.904
20.5713
42.6102
20.6249
23.8866
20.5711
42.7231
47.394
190.874
47.3372
190.887
47.4006
190.897
47.3409
190.896
23.8815
20.6257
20.57
42.7884
20.5711
42.6063
23.9097
23.8848
20.6241
20.5696
42.6941
20.57
42.6014
23.9042
47.2822
191.008
190.828
47.3991
47.2898
190.916
190.897
47.405
339.138
339.164
336.708
336.746
20.8712
86.2213
84.2911
85.8687
84.0928
339.158
339.164
336.73
336.681
336.741
336.724
339.172
339.187
84.1672
86.061
20.8735
84.3487
86.3146
336.767
336.67
339.251
339.168
20.8735
84.328
86.2886
84.1862
86.0807
47.3951
190.874
47.2977
190.973
23.8953
42.6484
20.5717
20.6274
23.8761
42.7759
20.5716
23.9058
42.6618
20.5717
20.6271
23.8867
42.7709
20.5715
47.2464
191.06
190.763
47.3206
47.2876
190.932
190.795
47.404
23.8773
20.6263
42.7401
20.5699
42.6601
20.5704
23.9034
23.883
20.6258
42.7429
20.5699
42.6522
20.5703
23.9123
84.0941
86.0723
20.8765
84.3263
86.2312
339.174
339.163
336.784
336.627
20.8757
84.3407
86.2165
84.1752
85.9967
339.174
339.142
24.3682
43.8726
20.576
20.6374
24.2951
44.0943
20.5759
49.4215
193.706
49.1852
193.836
24.369
20.5763
43.9178
20.6387
24.3027
20.5763
44.1288
49.2096
193.782
193.473
49.4085
24.3025
20.6363
44.0845
20.5743
43.906
20.5748
24.3611
49.1942
193.819
193.713
49.4069
24.3037
20.6376
20.5747
44.1054
20.5751
43.9309
24.3681
49.4204
193.716
49.1811
193.786
24.3673
20.5763
43.8986
20.6392
24.2994
20.5763
44.1115
49.4182
193.664
49.1861
193.87
24.3018
20.6378
44.1285
20.574
43.8741
20.5755
24.3688
49.1925
193.799
193.614
49.4048
24.3002
20.6381
20.5747
44.1053
20.5751
43.9131
24.3663
49.1917
193.825
193.661
49.4071
86.0068
84.0904
20.8732
86.2688
84.2144
336.675
336.715
339.237
339.029
20.873
86.2394
84.2389
86.0449
84.0446
336.721
336.635
23.8998
20.5713
42.6276
20.6251
23.8776
20.5712
42.6827
47.3645
190.808
47.2931
190.88
47.3786
190.912
47.2996
190.888
23.8777
20.6256
20.5695
42.7779
20.5708
42.5979
23.9069
23.882
20.624
20.5695
42.6879
20.5699
42.5673
23.9027
47.2551
190.883
190.862
47.387
47.2673
190.921
190.887
47.3952
339.114
339.25
336.698
336.734
20.8713
86.2268
84.2348
85.8327
84.0199
339.137
339.047
336.723
336.693
336.761
336.729
339.14
339.246
84.1632
86.0597
20.8735
84.3556
86.3146
336.76
336.666
339.25
339.133
20.8735
84.3312
86.2872
84.1867
86.0799
47.381
190.904
47.2933
190.886
23.894
42.6468
20.5717
20.6274
23.8758
42.7766
20.5716
23.9057
42.6589
20.5717
20.6268
23.8859
42.7648
20.5715
47.238
191.06
190.751
47.3191
47.3026
190.933
190.787
47.3603
23.8762
20.6263
42.7416
20.57
42.661
20.5705
23.9028
23.8817
20.6263
42.7396
20.5699
42.6506
20.5704
23.9072
84.1883
85.9588
20.8745
84.3026
86.2244
339.128
339.232
336.786
336.673
20.8746
84.2376
86.3353
84.0351
85.9194
339.245
339.059
24.3681
43.8773
20.576
20.6374
24.2953
44.0927
20.576
49.4199
193.659
49.1847
193.781
24.3686
20.5764
43.9026
20.6386
24.3027
20.5763
44.1203
49.209
193.785
193.452
49.4079
24.3023
20.6364
44.0849
20.5743
43.9049
20.5749
24.361
49.1924
193.9
193.62
49.4054
24.3034
20.6375
20.5747
44.1162
20.5751
43.9284
24.3677
49.4158
193.711
49.1803
193.779
24.3667
20.5763
43.8974
20.6391
24.2993
20.5763
44.1086
49.4155
193.636
49.1853
193.841
24.3007
20.6375
44.1316
20.5743
43.8583
20.5756
24.3684
49.1874
193.807
193.615
49.4034
24.2995
20.6381
20.5747
44.0971
20.5751
43.9102
24.366
49.1888
193.78
193.675
49.406
85.9984
84.0744
20.8732
86.268
84.1976
336.668
336.699
339.243
339.064
20.873
86.2356
84.2297
86.0373
84.0275
336.726
336.68
23.8994
20.5712
42.6235
20.6251
23.8763
20.5711
42.6843
47.3552
190.866
47.2831
190.881
47.3769
190.879
47.291
190.983
23.8784
20.6256
20.5697
42.7846
20.5709
42.5965
23.9052
23.8816
20.6239
20.5695
42.6871
20.5699
42.5669
23.9027
47.2774
191.007
190.829
47.3459
47.265
190.915
190.811
47.3892
339.081
339.154
336.635
336.728
20.8712
86.2127
84.2305
85.8163
83.9917
339.221
339.068
336.721
336.662
336.757
336.729
339.14
339.246
84.1663
86.059
20.8736
84.3591
86.3165
336.757
336.67
339.25
339.132
20.8736
84.3284
86.2877
84.1904
86.0816
47.3491
190.899
47.2598
190.882
23.8935
42.6489
20.5717
20.6274
23.8756
42.7778
20.5716
23.8983
42.6524
20.5716
20.627
23.882
42.7709
20.5715
47.2221
190.954
190.775
47.3956
47.244
191.022
190.853
47.3858
23.8766
20.6263
42.7455
20.57
42.6674
20.5705
23.9067
23.8769
20.6258
42.7461
20.5699
42.6563
20.5703
23.9102
84.0806
86.0741
20.8765
84.3236
86.23
339.123
339.158
336.79
336.666
20.8757
84.3387
86.2149
84.17
85.9957
339.173
339.138
24.3681
43.8778
20.576
20.6375
24.2952
44.093
20.576
49.4206
193.691
49.1836
193.828
24.3689
20.5764
43.9154
20.6387
24.3025
20.5763
44.1279
49.2094
193.783
193.451
49.4083
24.3024
20.6364
44.0853
20.5743
43.9048
20.5748
24.3611
49.1936
193.819
193.708
49.4066
24.3037
20.6376
20.5747
44.106
20.5751
43.9303
24.3682
49.4162
193.705
49.1796
193.783
24.3669
20.5763
43.8913
20.6391
24.2992
20.5763
44.1088
49.4167
193.598
49.1848
193.832
24.3007
20.6378
44.1283
20.5742
43.8736
20.5756
24.3685
49.1878
193.797
193.612
49.4035
24.2998
20.6381
20.5747
44.0999
20.5751
43.9112
24.3662
49.19
193.776
193.671
49.406
85.9974
84.0671
20.8733
86.2712
84.1953
336.668
336.71
339.237
339.024
20.8731
86.2432
84.2051
86.0466
84.042
336.71
336.68
23.8997
20.5713
42.6228
20.6251
23.8762
20.5711
42.6843
47.3866
190.796
47.2417
190.968
47.3788
190.874
47.2861
190.981
23.8799
20.6255
20.5695
42.7768
20.5709
42.6001
23.9088
23.882
20.624
20.5695
42.6874
20.5699
42.567
23.9031
47.2774
190.892
190.873
47.3965
47.2681
190.916
190.811
47.3957
339.031
339.239
336.634
336.728
20.8713
86.2193
84.2325
85.8236
83.995
339.134
339.039
336.722
336.662
336.718
336.722
339.14
339.247
84.164
86.059
20.8736
84.3531
86.3153
336.76
336.656
339.252
339.134
20.8736
84.3271
86.2881
84.1875
86.0806
47.3909
190.86
47.2803
190.991
23.8928
42.6435
20.5717
20.6274
23.8794
42.7769
20.5716
23.9046
42.6658
20.5717
20.6268
23.8845
42.762
20.5715
47.2225
191.071
190.763
47.3854
47.2838
190.995
190.777
47.4055
23.8763
20.6264
42.7422
20.57
42.6618
20.5705
23.9069
23.8821
20.6264
42.7448
20.5699
42.6462
20.5703
23.9124
84.1809
85.9573
20.8745
84.3194
86.2229
339.127
339.232
336.804
336.621
20.8746
84.2522
86.3341
84.1439
85.9178
339.244
339.06
24.3682
43.8776
20.576
20.6375
24.2953
44.093
20.576
49.4202
193.659
49.1844
193.745
24.3687
20.5764
43.9031
20.6386
24.3028
20.5763
44.1206
49.2096
193.787
193.453
49.4086
24.3024
20.6364
44.0853
20.5743
43.9053
20.5749
24.3611
49.193
193.817
193.685
49.4069
24.3035
20.6376
20.5747
44.1059
20.5751
43.9263
24.368
49.416
193.711
49.1796
193.78
24.3667
20.5763
43.8941
20.6391
24.2994
20.5763
44.1105
49.4155
193.596
49.1845
193.846
24.3007
20.6375
44.1317
20.5741
43.8583
20.5755
24.3686
49.1876
193.808
193.616
49.4038
24.2995
20.638
20.5746
44.1039
20.575
43.9122
24.3662
49.189
193.826
193.645
49.4067
86.0016
84.033
20.8733
86.269
84.224
336.693
336.71
339.238
339.039
20.8731
86.238
84.2332
86.0389
84.0504
336.717
336.66
23.8994
20.5712
42.6229
20.6251
23.8767
20.5711
42.6843
47.3597
190.879
47.2942
190.885
47.3764
190.874
47.292
190.983
23.8778
20.6257
20.5698
42.7788
20.571
42.5989
23.9071
23.8818
20.6239
20.5695
42.6907
20.5698
42.567
23.9032
47.2519
190.896
190.875
47.3831
47.2661
190.976
190.809
47.3956
339.091
339.135
336.635
336.727
20.8712
86.2174
84.2315
85.8291
83.9923
339.149
339.08
336.726
336.673
336.742
336.782
339.142
339.248
84.1701
86.06
20.8735
84.3656
86.3179
336.757
336.643
339.251
339.135
20.8736
84.3233
86.2885
84.1921
86.083
47.3932
190.899
47.2954
190.988
23.8927
42.6506
20.5717
20.6274
23.8796
42.7772
20.5716
23.9051
42.6654
20.5716
20.6271
23.886
42.7751
20.5715
47.2198
191.025
190.756
47.3853
47.2863
190.943
190.8
47.4076
23.8762
20.6264
42.7405
20.5699
42.6621
20.5705
23.9068
23.8828
20.6258
42.7463
20.5699
42.6549
20.5703
23.913
84.0941
86.0739
20.8766
84.3266
86.2379
339.126
339.163
336.8
336.644
20.8758
84.3415
86.2204
84.1736
86.002
339.176
339.143
24.3682
43.8784
20.576
20.6375
24.2954
44.0935
20.576
49.4214
193.658
49.185
193.788
24.3689
20.5764
43.903
20.6387
24.3027
20.5763
44.1213
49.2098
193.782
193.454
49.4086
24.3024
20.6364
44.0848
20.5744
43.9054
20.5749
24.3611
49.1941
193.902
193.626
49.4066
24.3037
20.6376
20.5747
44.1172
20.5751
43.9293
24.368
49.4164
193.707
49.18
193.785
24.367
20.5763
43.8965
20.6392
24.2994
20.5763
44.1105
49.417
193.637
49.1854
193.858
24.3008
20.6378
44.1289
20.5744
43.8742
20.5757
24.3686
49.188
193.799
193.614
49.4037
24.2999
20.6381
20.5747
44.1051
20.5751
43.9122
24.3662
49.1904
193.825
193.649
49.4064
85.9991
84.0713
20.8734
86.272
84.1961
336.691
336.709
339.247
339.115
20.8732
86.2359
84.2065
86.0403
84.0427
336.717
336.651
23.8996
20.5712
42.6244
20.6251
23.8768
20.5711
42.6855
47.361
190.868
47.2813
190.891
47.3779
190.853
47.2918
190.991
23.8778
20.6256
20.5696
42.7772
20.5708
42.5975
23.9069
23.8818
20.624
20.5695
42.6907
20.5699
42.5677
23.903
47.2525
190.895
190.872
47.3823
47.267
190.972
190.8
47.3954
339.11
339.249
336.686
336.728
20.8713
86.2242
84.2328
85.8331
83.9959
339.137
339.047
336.728
336.675
336.749
336.717
339.141
339.247
84.1543
86.0597
20.8734
84.3273
86.3148
336.762
336.661
339.251
339.134
20.8735
84.3226
86.287
84.1577
86.08
47.3838
190.913
47.2975
190.912
23.893
42.6446
20.5717
20.6274
23.8797
42.7688
20.5716
23.9064
42.6607
20.5717
20.6268
23.8867
42.7661
20.5716
47.2209
191.049
190.74
47.393
47.3053
190.936
190.841
47.3652
23.8761
20.6263
42.7357
20.57
42.6541
20.5705
23.9062
23.882
20.6263
42.743
20.5699
42.6503
20.5703
23.9079
84.1846
85.9621
20.8745
84.3256
86.2285
339.129
339.233
336.791
336.679
20.8746
84.2547
86.3371
84.1485
85.9234
339.246
339.061
24.3681
43.8776
20.576
20.6374
24.2953
44.0929
20.576
49.4204
193.694
49.1844
193.83
24.3687
20.5764
43.9162
20.6387
24.3027
20.5763
44.1282
49.2097
193.786
193.452
49.4081
24.3024
20.6363
44.0849
20.5743
43.9051
20.5749
24.361
49.1931
193.818
193.71
49.4069
24.3035
20.6376
20.5747
44.1052
20.5751
43.9304
24.368
49.4162
193.711
49.1799
193.78
24.3668
20.5763
43.8975
20.6392
24.2994
20.5763
44.1089
49.4162
193.636
49.1849
193.854
24.3007
20.6375
44.1318
20.5743
43.8587
20.5756
24.3685
49.1877
193.808
193.615
49.4036
24.2997
20.638
20.5747
44.1024
20.5751
43.9101
24.3662
49.1896
193.826
193.648
49.4067
85.9975
84.0342
20.8733
86.2702
84.2249
336.705
336.717
339.237
339.028
20.8731
86.2418
84.2339
86.0451
84.0512
336.723
336.652
23.8997
20.5713
42.6241
20.6251
23.8767
20.5711
42.6847
47.3606
190.877
47.2802
190.884
47.3779
190.851
47.2914
190.983
23.8777
20.6255
20.5696
42.7867
20.5708
42.5983
23.9071
23.882
20.624
20.5695
42.688
20.5699
42.567
23.9034
47.252
191.011
190.826
47.3874
47.2667
190.919
190.812
47.3941
339.082
339.133
336.68
336.73
20.8712
86.2042
84.2348
85.8172
83.9923
339.146
339.076
336.723
336.668
336.742
336.795
339.14
339.25
84.1663
86.0587
20.8735
84.3715
86.317
336.775
336.653
339.267
339.125
20.8735
84.3144
86.2886
84.199
86.0814
47.35
190.898
47.2627
190.9
23.8921
42.6435
20.5717
20.6273
23.8789
42.7791
20.5716
23.897
42.6527
20.5716
20.6271
23.8825
42.7751
20.5715
47.2203
190.956
190.81
47.2566
47.2426
190.981
190.839
47.3268
23.8773
20.6264
42.7289
20.57
42.6626
20.5705
23.8941
23.8794
20.626
42.7396
20.5699
42.6542
20.5703
23.899
84.0958
86.0741
20.8765
84.3317
86.2361
339.123
339.169
336.813
336.684
20.8748
84.344
86.2145
84.177
86
339.203
339.134
24.368
43.8777
20.576
20.6374
24.2952
44.0931
20.576
49.4218
193.656
49.1849
193.749
24.369
20.5764
43.9022
20.6386
24.3027
20.5763
44.1209
49.2091
193.772
193.448
49.4156
24.3023
20.6363
44.0838
20.5743
43.9048
20.5748
24.3611
49.1943
193.829
193.682
49.4069
24.3038
20.6376
20.5747
44.1047
20.5751
43.9266
24.3681
49.4163
193.704
49.1796
193.787
24.3671
20.5763
43.8954
20.6391
24.2994
20.5763
44.1103
49.4177
193.636
49.1852
193.85
24.3008
20.6377
44.1281
20.5741
43.8741
20.5756
24.3686
49.1876
193.836
193.613
49.4038
24.2999
20.6381
20.5747
44.0995
20.5751
43.9124
24.3662
49.1907
193.787
193.672
49.4066
86.0008
84.0599
20.8733
86.2665
84.2296
336.693
336.727
339.24
338.97
20.8731
86.2427
84.2349
86.0396
84.0544
336.737
336.644
23.9032
20.5713
42.6228
20.6251
23.877
20.5711
42.6865
47.3635
190.808
47.2835
190.888
47.4018
190.869
47.289
190.979
23.8781
20.6254
20.5702
42.7827
20.5705
42.6002
23.8899
23.8851
20.6241
20.5695
42.6946
20.5699
42.5687
23.8926
47.2533
190.897
190.851
47.3348
47.292
190.945
190.821
47.3459
339.106
339.25
336.633
336.737
20.8713
86.2295
84.2366
85.8249
83.9967
339.223
339.044
336.743
336.697
336.713
339.138
84.1871
86.053
48.9805
190.834
47.2372
192.19
24.3357
42.6678
20.57
20.635
23.8549
43.5066
20.5782
24.3279
42.6748
20.57
20.634
23.8595
43.4749
20.5781
84.2015
85.9686
20.8733
84.9714
86.0944
339.1
339.222
43.8758
20.5756
24.2953
193.614
49.1836
20.576
43.908
24.303
49.3856
193.655
49.1798
193.792
24.354
20.5761
43.8951
20.6435
24.2995
20.5772
44.0443
49.3833
193.593
49.1851
193.765
24.389
20.5712
49.4527
24.3877
20.6258
20.5709
44.1391
49.455
193.797
86.0035
84.0672
336.703
24.3289
20.5697
42.6203
20.6328
23.8502
20.5776
43.4433
49.0134
190.87
47.2427
49.0002
190.857
47.2427
192.489
339.102
339.213
336.672
337.802
20.8775
86.0079
85.3563
339.194
338.601
25.3442
312.501
431.945
25.336
312.752
432.077
430.421
431.3
25.3283
312.676
432.634
25.3268
313.082
25.3558
313.428
25.3358
313.37
433.1
25.3547
314.045
25.323
314.845
431.886
433.402
21.861
21.8597
21.8636
21.8697
21.8696
21.864
21.8618
21.8674
21.8632
21.8614
21.8673
21.862
23.0541
22.0466
22.0273
21.9971
21.8824
21.9589
23.4295
22.0916
22.0783
21.9559
21.8808
21.9568
22.0472
23.053
22.027
21.8815
21.9973
21.9591
21.9564
21.8807
21.9568
23.4308
22.0917
22.0783
9849.09
9849.7
90.8021
22.0782
22.076
24.824
5977.72
22.237
34.9604
5978.54
22.2372
34.9425
491.253
70.404
365.389
123.225
363.121
121.924
478.237
666.659
447.639
514.771
1262.04
329.124
491.917
66.4333
337.361
132.268
650.185
342.529
118.846
716.878
289.95
482.867
309.825
693.579
536.41
571.052
491.259
70.3872
123.27
365.471
121.96
363.012
478.305
666.622
447.63
514.741
1262.11
329.065
491.937
66.4186
132.311
337.333
650.264
118.866
342.511
716.86
289.939
482.893
309.909
693.539
536.448
571.065
189.362
467.992
466.438
446.522
444.924
191.931
59.527
32.9475
303.432
176.024
54.7986
35.594
300.791
59.7145
32.9154
304.152
176.129
55.4456
35.3886
301.786
186.735
368.17
368.151
186.266
431.671
430.389
64.9585
302.492
177.287
39.9618
38.1027
301.963
68.7941
65.1105
303.891
177.38
39.8336
38.0118
302.954
68.9593
290.229
71.9134
247.63
83.719
261.976
93.2236
273.523
419.213
205.209
278.683
443.706
183.654
309.019
76.6333
293.059
111.105
331.724
277.117
102.874
400.731
143.396
257.549
162.703
385.422
387.242
371.041
293.927
74.6839
87.1124
251.55
96.7568
265.509
277.549
423.318
209.135
281.49
447.036
187.954
313.34
79.7272
115.705
295.768
335.121
107.522
281.205
404.616
147.344
259.741
166.529
389.595
389.872
373.529
167.408
367.9
367.052
375.836
375.098
159.601
74.5858
43.8724
257.85
138.452
76.0114
42.7593
246.973
74.6263
43.4553
258.609
137.141
76.0609
42.4079
247.631
175.42
395.537
394.883
182.72
385.084
384.342
70.6864
226.593
127.032
38.2871
40.4048
236.083
67.1938
70.7388
227.171
125.853