/*--------------------------------*- C++ -*----------------------------------*\
| =========                 |                                                 |
| \\      /  F ield         | OpenFOAM: The Open Source CFD Toolbox           |
|  \\    /   O peration     | Version:  2206                                  |
|   \\  /    A nd           | Website:  www.openfoam.com                      |
|    \\/     M anipulation  |                                                 |
\*---------------------------------------------------------------------------*/
FoamFile
{
    version     2.0;
    format      ascii;
    arch        "LSB;label=32;scalar=64";
    class       volScalarField;
    location    "0.1";
    object      p;
}
// * * * * * * * * * * * * * * * * * * * * * * * * * * * * * * * * * * * * * //

dimensions      [0 2 -2 0 0 0 0];

internalField   nonuniform List<scalar> 
66616
(
-0.000308541
-0.000290012
-0.000290237
-0.000256653
-0.000796206
-0.000801522
-0.000800646
-0.000780178
-0.00110066
-0.00109986
-0.00109975
-0.00108085
-0.00144062
-0.00144008
-0.00144017
-0.00141811
-0.00179251
-0.00179252
-0.00179248
-0.00177051
-0.00214505
-0.00214502
-0.00214504
-0.00212309
-0.0024976
-0.00249763
-0.0024976
-0.00247564
-0.00285014
-0.00285012
-0.00285014
-0.00282819
-0.0032027
-0.00320272
-0.0032027
-0.00318074
-0.00355525
-0.00355522
-0.00355524
-0.0035333
-0.00390779
-0.00390782
-0.00390778
-0.00388586
-0.00426042
-0.0042604
-0.00426014
-0.00423842
-0.000219451
-0.000226314
-0.000226336
-0.000219493
-0.000226392
-0.000226189
-0.000218506
-0.000218518
-0.000218385
-0.000218395
-0.000226403
-0.000226249
-0.000219438
-0.000226415
-0.000226433
-0.000219504
-0.000256607
-0.000722192
-0.000290454
-0.000290471
-0.000682663
-0.000682626
-0.000256659
-0.000722161
-0.00028999
-0.000290137
-0.000683788
-0.000683645
-0.000290153
-0.000683859
-0.000683706
-0.00025661
-0.000722344
-0.000290262
-0.00068317
-0.000683161
-0.00072236
-0.000779962
-0.00104243
-0.000800077
-0.000800028
-0.00102331
-0.00102341
-0.000779896
-0.00104256
-0.000801449
-0.000801546
-0.00102352
-0.00102344
-0.000801595
-0.00102353
-0.00102341
-0.000780184
-0.00104244
-0.000800632
-0.00102336
-0.00102336
-0.00104243
-0.0010809
-0.00137398
-0.00109963
-0.00109968
-0.00135296
-0.00135288
-0.00108101
-0.00137399
-0.00109985
-0.00109982
-0.00135264
-0.00135264
-0.00109969
-0.00135267
-0.00135267
-0.0010809
-0.00137404
-0.00109973
-0.00135286
-0.00135287
-0.00137409
-0.00141804
-0.00172611
-0.00144033
-0.00144018
-0.00170444
-0.00170424
-0.00141806
-0.00172616
-0.00144006
-0.00144003
-0.00170431
-0.00170431
-0.00144005
-0.00170438
-0.00170432
-0.00141808
-0.0017262
-0.00144018
-0.00170434
-0.00170435
-0.00172622
-0.00177039
-0.00207871
-0.00179258
-0.00179252
-0.00205703
-0.00205701
-0.00177046
-0.0020787
-0.00179244
-0.00179244
-0.00205687
-0.00205686
-0.00179246
-0.00205689
-0.00205687
-0.0017705
-0.00207879
-0.00179249
-0.0020569
-0.00205691
-0.0020788
-0.00212298
-0.00243126
-0.00214516
-0.00214518
-0.00240957
-0.00240936
-0.002123
-0.00243129
-0.00214501
-0.002145
-0.00240942
-0.00240941
-0.00214501
-0.00240948
-0.00240943
-0.00212308
-0.00243134
-0.00214505
-0.00240946
-0.00240946
-0.00243135
-0.00247553
-0.00278382
-0.00249771
-0.00249764
-0.00276212
-0.00276211
-0.00247559
-0.0027838
-0.00249756
-0.00249755
-0.00276197
-0.00276196
-0.00249756
-0.00276199
-0.00276197
-0.00247563
-0.00278389
-0.0024976
-0.00276201
-0.00276201
-0.0027839
-0.00282808
-0.00313637
-0.00285026
-0.00285028
-0.00311467
-0.00311446
-0.0028281
-0.00313639
-0.00285011
-0.0028501
-0.00311452
-0.00311452
-0.00285011
-0.00311458
-0.00311453
-0.00282818
-0.00313644
-0.00285015
-0.00311456
-0.00311457
-0.00313645
-0.00318063
-0.00348892
-0.00320281
-0.00320274
-0.00346723
-0.00346722
-0.00318069
-0.0034889
-0.00320266
-0.00320265
-0.00346708
-0.00346707
-0.00320266
-0.0034671
-0.00346708
-0.00318073
-0.00348899
-0.00320271
-0.00346711
-0.00346712
-0.00348901
-0.00353319
-0.00384146
-0.00355536
-0.00355539
-0.00381976
-0.00381957
-0.00353321
-0.0038415
-0.00355521
-0.0035552
-0.00381963
-0.00381962
-0.00355521
-0.0038197
-0.00381964
-0.00353329
-0.00384154
-0.00355525
-0.00381965
-0.00381966
-0.00384156
-0.00388575
-0.00419397
-0.00390789
-0.00390782
-0.00417218
-0.00417205
-0.0038858
-0.00419406
-0.00390775
-0.00390774
-0.00417224
-0.00417219
-0.00390776
-0.00417226
-0.00417224
-0.00388584
-0.00419404
-0.00390779
-0.00417205
-0.00417208
-0.00419406
-0.00423832
-0.00426027
-0.00426014
-0.0042384
-0.00426039
-0.00426037
-0.0042604
-0.00423839
-0.00426017
-8.42844e-05
-7.95924e-05
-8.17481e-05
-8.16549e-05
-6.92654e-05
-7.58175e-05
-0.000119967
-7.92861e-05
-6.92665e-05
-7.58038e-05
-7.92948e-05
-0.000119963
-6.9708e-05
-0.000132132
-0.00013213
-0.000447183
-6.3972e-05
-0.000185593
-0.000479633
-0.00014616
-0.000469371
-0.00044681
-6.37978e-05
-0.000185291
-0.000479461
-0.000308552
-0.00030845
-0.000308471
-0.000677085
-0.00067708
-0.000677064
-0.000677064
-0.000452919
-0.000154426
-0.000293792
-0.000407821
-0.000215957
-0.000470416
-0.000409226
-0.000146016
-0.000469233
-0.000453629
-0.000294172
-0.000154553
-0.00040842
-0.000216184
-0.000409926
-0.000470792
-0.00018787
-0.000187761
-0.000449182
-0.000464709
-0.000464987
-0.000911692
-0.000819974
-0.000809185
-0.00091383
-0.000817094
-0.000912433
-0.000911909
-0.000820526
-0.000810849
-0.000913766
-0.0007962
-0.000796269
-0.00079626
-0.00102325
-0.00102328
-0.00102322
-0.0010232
-0.000905976
-0.000801136
-0.000797405
-0.000887908
-0.000789696
-0.00090796
-0.0008852
-0.000817669
-0.000912486
-0.000905795
-0.000796276
-0.00080081
-0.000887245
-0.000787475
-0.00088475
-0.000907575
-0.000808102
-0.000808136
-0.000903338
-0.000909775
-0.000909685
-0.0011969
-0.00107352
-0.00107555
-0.00119611
-0.00107314
-0.00119617
-0.00119704
-0.00107336
-0.00107541
-0.00119623
-0.00110067
-0.00110069
-0.00110064
-0.00135365
-0.00135363
-0.00135361
-0.00135361
-0.00119872
-0.0010759
-0.00110022
-0.00118192
-0.00107791
-0.00119755
-0.0011825
-0.00107301
-0.00119619
-0.00119863
-0.0011004
-0.00107607
-0.0011819
-0.00107819
-0.00118274
-0.00119761
-0.00107552
-0.00107556
-0.00120256
-0.00119753
-0.00119762
-0.00154944
-0.00141711
-0.00141696
-0.00154952
-0.00141737
-0.00154962
-0.00154953
-0.00141727
-0.00141716
-0.00154958
-0.00144057
-0.00144056
-0.00144057
-0.0017044
-0.00170439
-0.00170436
-0.00170437
-0.00154927
-0.00141763
-0.00144033
-0.00152804
-0.00141805
-0.00154939
-0.00152817
-0.00141746
-0.00154966
-0.00154889
-0.00144041
-0.00141762
-0.00152806
-0.00141819
-0.00152818
-0.00154918
-0.0014174
-0.00141734
-0.00154988
-0.00154971
-0.00154965
-0.0019024
-0.00177045
-0.00177055
-0.0019024
-0.00177054
-0.00190238
-0.00190237
-0.00177043
-0.00177051
-0.00190236
-0.0017925
-0.00179247
-0.00179247
-0.00205691
-0.00205691
-0.00205686
-0.00205686
-0.00190198
-0.00177077
-0.00179243
-0.00188062
-0.00177096
-0.00190216
-0.00188057
-0.00177053
-0.0019024
-0.0019017
-0.00179245
-0.00177089
-0.00188062
-0.00177125
-0.00188058
-0.00190206
-0.00177049
-0.00177049
-0.00190252
-0.00190248
-0.00190247
-0.00225496
-0.00212306
-0.00212316
-0.00225496
-0.00212311
-0.00225497
-0.00225492
-0.00212302
-0.0021231
-0.00225492
-0.00214504
-0.00214499
-0.002145
-0.00240946
-0.00240944
-0.0024094
-0.00240941
-0.00225454
-0.00212334
-0.00214499
-0.00223314
-0.00212352
-0.00225473
-0.00223313
-0.00212311
-0.00225496
-0.00225427
-0.00214499
-0.00212349
-0.00223318
-0.00212384
-0.00223313
-0.00225462
-0.00212307
-0.00212308
-0.00225508
-0.00225504
-0.00225503
-0.00260752
-0.00247561
-0.00247572
-0.00260752
-0.00247568
-0.0026075
-0.00260748
-0.00247557
-0.00247565
-0.00260747
-0.00249759
-0.00249754
-0.00249754
-0.00276201
-0.00276201
-0.00276195
-0.00276196
-0.00260709
-0.0024759
-0.00249753
-0.00258573
-0.00247608
-0.00260727
-0.00258567
-0.00247566
-0.00260751
-0.00260682
-0.00249754
-0.00247604
-0.00258573
-0.00247639
-0.00258568
-0.00260717
-0.00247562
-0.00247564
-0.00260763
-0.0026076
-0.00260758
-0.00296006
-0.00282816
-0.00282827
-0.00296007
-0.00282821
-0.00296007
-0.00296003
-0.00282812
-0.0028282
-0.00296002
-0.00285014
-0.00285009
-0.00285009
-0.00311456
-0.00311454
-0.0031145
-0.00311451
-0.00295964
-0.00282844
-0.00285009
-0.00293824
-0.00282863
-0.00295983
-0.00293822
-0.00282821
-0.00296006
-0.00295937
-0.00285009
-0.00282859
-0.00293828
-0.00282894
-0.00293823
-0.00295972
-0.00282817
-0.00282819
-0.00296018
-0.00296014
-0.00296013
-0.00331262
-0.00318071
-0.00318082
-0.00331262
-0.00318078
-0.0033126
-0.00331258
-0.00318067
-0.00318075
-0.00331258
-0.00320269
-0.00320264
-0.00320264
-0.00346711
-0.00346711
-0.00346706
-0.00346707
-0.00331219
-0.003181
-0.00320263
-0.00329083
-0.00318118
-0.00331237
-0.00329077
-0.00318076
-0.00331261
-0.00331192
-0.00320265
-0.00318114
-0.00329084
-0.00318149
-0.00329078
-0.00331228
-0.00318072
-0.00318074
-0.00331273
-0.0033127
-0.00331268
-0.00366517
-0.00353327
-0.00353338
-0.00366518
-0.00353332
-0.00366518
-0.00366514
-0.00353323
-0.00353331
-0.00366514
-0.00355525
-0.0035552
-0.00355521
-0.00381967
-0.00381965
-0.00381962
-0.00381962
-0.00366476
-0.00353355
-0.00355519
-0.00364336
-0.00353374
-0.00366494
-0.00364334
-0.00353332
-0.00366517
-0.00366447
-0.0035552
-0.0035337
-0.00364338
-0.00353405
-0.00364333
-0.00366483
-0.00353328
-0.00353329
-0.00366528
-0.00366526
-0.00366524
-0.00401768
-0.00388582
-0.00388592
-0.0040177
-0.0038859
-0.00401771
-0.00401769
-0.00388579
-0.00388587
-0.00401768
-0.00390779
-0.00390775
-0.00390777
-0.00417228
-0.00417225
-0.00417217
-0.00417222
-0.00401733
-0.00388613
-0.00390773
-0.00399597
-0.00388631
-0.0040175
-0.00399592
-0.00388588
-0.00401771
-0.00401697
-0.00390774
-0.00388625
-0.00399588
-0.00388659
-0.00399582
-0.00401734
-0.00388584
-0.00388585
-0.00401782
-0.0040178
-0.00401777
-0.00437007
-0.00423826
-0.00423847
-0.00437017
-0.00423841
-0.00437024
-0.00423841
-0.00423851
-0.0042604
-0.00426033
-0.00426037
-0.00437001
-0.00423876
-0.00426048
-0.00434852
-0.00423896
-0.00437013
-0.00434865
-0.00423847
-0.00437016
-0.00426001
-0.00423874
-0.0042395
-0.00434853
-0.00423844
-0.00423837
-0.00437038
-0.00437037
-0.00437028
-6.97795e-05
-0.000131987
-0.000131959
-0.00010256
-0.000197349
-0.000102477
-0.000197311
-0.000107761
-0.0001457
-0.000145422
-0.000170803
-0.00017077
-6.93199e-05
-7.57345e-05
-0.000119999
-7.93913e-05
-6.93156e-05
-7.57233e-05
-0.000120002
-7.93911e-05
-0.000132579
-7.58119e-05
-0.000197893
-0.00017351
-0.000132567
-7.58033e-05
-0.000197857
-0.000173502
-0.000120509
-0.00011021
-0.000159134
-0.000206086
-0.000157906
-0.000113152
-0.00018456
-0.000120497
-0.000110207
-0.000159081
-0.000206088
-0.00015791
-0.000113152
-0.000184551
-6.97592e-05
-0.000132158
-0.000131962
-0.000102611
-0.000197241
-0.000107735
-0.000145711
-0.000145583
-0.000170464
-0.000170771
-0.00010249
-0.000197312
-6.92548e-05
-7.58161e-05
-0.000119959
-7.92819e-05
-6.92574e-05
-7.56807e-05
-7.92832e-05
-0.000119963
-0.000132481
-7.56936e-05
-0.000197832
-0.000173317
-0.000120399
-0.000110359
-0.000158904
-0.000205656
-0.000157861
-0.000112968
-0.000184296
-0.000132483
-7.57872e-05
-0.00019781
-0.000173323
-0.000120403
-0.00011013
-0.000205684
-0.000158978
-0.00011297
-0.000157867
-0.000184305
-8.42854e-05
-7.95992e-05
-8.17491e-05
-8.16587e-05
-8.42591e-05
-7.95594e-05
-8.16497e-05
-8.1647e-05
-8.42601e-05
-7.95634e-05
-8.16523e-05
-8.16471e-05
-0.000122905
-0.000112781
-0.000223499
-0.000222991
-0.000117486
-0.000117309
-0.000229787
-0.000122906
-0.000112799
-0.000223502
-0.000222998
-0.000117487
-0.000117314
-0.000229791
-0.000122879
-0.000112737
-0.000223105
-0.000222933
-0.000117304
-0.000117318
-0.000229604
-0.00012288
-0.000112745
-0.000223112
-0.000222936
-0.000117308
-0.000117318
-0.000229607
-6.9266e-05
-7.56763e-05
-7.92884e-05
-0.00011997
-0.000120414
-0.000110371
-0.000158991
-0.00020567
-0.000157868
-0.000112973
-0.000184318
-0.000132495
-7.56978e-05
-0.000197847
-0.000173342
-0.000120412
-0.000110128
-0.000205696
-0.000159058
-0.000112976
-0.00015788
-0.000184328
-0.000132492
-7.57993e-05
-0.000197823
-0.000173348
-6.97408e-05
-0.000132124
-0.000131955
-0.000102571
-0.000197194
-0.000107704
-0.000145636
-0.000145627
-0.000170423
-0.000170773
-0.00010255
-0.000197308
-6.92666e-05
-7.58226e-05
-7.92948e-05
-0.00011997
-0.00012045
-0.000110372
-0.000205851
-0.000159059
-0.000113003
-0.000157869
-0.000184454
-0.000120447
-0.000110423
-0.000205858
-0.000159017
-0.000113004
-0.000157882
-0.000184448
-0.000132525
-7.57662e-05
-0.000197845
-0.000173432
-0.00013252
-7.57601e-05
-0.000197821
-0.00017343
-0.000107669
-0.000145782
-0.000145647
-0.000170436
-0.000170435
-0.000102581
-0.000197206
-0.000102607
-0.0001972
-0.000146099
-0.000469369
-0.00014595
-0.000469221
-0.000187816
-0.000187469
-0.000449192
-0.000464898
-0.00046472
-0.000774593
-0.0005444
-0.000774339
-0.000544317
-0.00052416
-0.000759973
-0.00076046
-0.000545925
-0.000545875
-0.000447192
-6.40008e-05
-0.000185593
-0.00047964
-0.000453723
-0.000154614
-0.000294501
-0.000408021
-0.000216292
-0.000470738
-0.000410381
-0.000453731
-0.000154615
-0.000294504
-0.000408051
-0.000216288
-0.000470747
-0.000410381
-0.000557801
-0.000774841
-0.000568772
-0.000764232
-0.000557814
-0.000774842
-0.000568786
-0.000764235
-0.00055071
-0.000544234
-0.000751298
-0.000677844
-0.000559602
-0.000542363
-0.000738142
-0.000550718
-0.000544243
-0.000751287
-0.000677845
-0.000559618
-0.000542365
-0.000738145
-0.000187831
-0.000187651
-0.000449205
-0.000464933
-0.000464725
-0.000145952
-0.000469304
-0.000774594
-0.000544426
-0.000524162
-0.000760014
-0.00076047
-0.000546016
-0.000545853
-0.000774384
-0.000544354
-0.000452891
-0.00015437
-0.000293771
-0.000407836
-0.00021593
-0.000470396
-0.000409193
-0.000446823
-6.3855e-05
-0.000185301
-0.00047945
-0.000452922
-0.000293883
-0.00015446
-0.000407426
-0.000215941
-0.000409488
-0.000470343
-0.000557477
-0.000775387
-0.000568647
-0.000765566
-0.000549396
-0.000544
-0.00075139
-0.000680656
-0.000559013
-0.000542321
-0.00073819
-0.000557494
-0.000775392
-0.000568634
-0.000765574
-0.000549431
-0.000543677
-0.000680502
-0.000751402
-0.000542281
-0.000558977
-0.000738181
-0.000446836
-6.37903e-05
-0.000185319
-0.00047952
-0.00045295
-0.000293905
-0.000154513
-0.000407425
-0.000215968
-0.000409516
-0.000470358
-0.000446853
-6.38591e-05
-0.000185326
-0.000479504
-0.000549419
-0.000544013
-0.000751429
-0.000680676
-0.000559037
-0.000542339
-0.000738209
-0.000557503
-0.00077542
-0.0005687
-0.000765587
-0.000549455
-0.000543696
-0.000680523
-0.000751424
-0.00054229
-0.000559
-0.000738199
-0.000557523
-0.000775401
-0.000568677
-0.000765593
-0.000187701
-0.000187743
-0.000449171
-0.000464692
-0.00046494
-0.00014608
-0.0004694
-0.000774383
-0.000544306
-0.000524116
-0.000760565
-0.000760009
-0.000545843
-0.000546009
-0.000774663
-0.000544455
-0.000453637
-0.000294178
-0.000154559
-0.000408469
-0.000216179
-0.000409921
-0.000470806
-0.000447143
-6.39571e-05
-0.000185525
-0.000479655
-0.000447151
-6.39904e-05
-0.000185524
-0.000479663
-0.000550675
-0.00054469
-0.000678659
-0.000751362
-0.000542548
-0.000559668
-0.000738301
-0.000550682
-0.000544712
-0.000678662
-0.000751355
-0.00054255
-0.00055968
-0.000738305
-0.000557788
-0.000774915
-0.000568814
-0.000764341
-0.000557797
-0.000774915
-0.000568824
-0.000764343
-0.000146021
-0.000469295
-0.000146159
-0.000469412
-0.000524134
-0.000760522
-0.00076005
-0.000545823
-0.000546085
-0.000774371
-0.000544342
-0.000774664
-0.000544468
-0.000817073
-0.00091249
-0.000817649
-0.000912429
-0.000808066
-0.000808003
-0.00090319
-0.00090965
-0.000909645
-0.00103636
-0.000942258
-0.00103614
-0.000942062
-0.000937411
-0.00103868
-0.0010385
-0.000940824
-0.00094077
-0.000911691
-0.00081998
-0.000809187
-0.000913829
-0.000905621
-0.000800715
-0.000795411
-0.000886947
-0.00078728
-0.000907454
-0.000884382
-0.000905618
-0.000800702
-0.00079543
-0.000886905
-0.000787282
-0.000907429
-0.000884384
-0.00094155
-0.00103692
-0.000942906
-0.00103852
-0.000941547
-0.00103691
-0.000942931
-0.00103852
-0.000938915
-0.000955048
-0.00103849
-0.00102362
-0.000939071
-0.000954468
-0.00103986
-0.000938911
-0.000955109
-0.0010385
-0.0010236
-0.000939129
-0.000954446
-0.00103986
-0.000808118
-0.000807983
-0.0009027
-0.000909407
-0.000909641
-0.000817683
-0.000912405
-0.00103637
-0.000942182
-0.000937101
-0.00103868
-0.00103852
-0.000940588
-0.00094043
-0.00103616
-0.000941987
-0.000905986
-0.000801124
-0.000797371
-0.000887808
-0.000789679
-0.000907906
-0.000885201
-0.000911911
-0.00082053
-0.000810857
-0.000913814
-0.00090598
-0.000797407
-0.000801178
-0.00088774
-0.000789701
-0.000885283
-0.000907978
-0.00094136
-0.00103667
-0.000942666
-0.00103831
-0.000938726
-0.000955409
-0.00103839
-0.0010236
-0.000939122
-0.000954727
-0.00103945
-0.000941364
-0.00103668
-0.000942718
-0.00103832
-0.000938736
-0.000955326
-0.00102364
-0.0010384
-0.000954784
-0.000939151
-0.00103947
-0.000911914
-0.00082055
-0.000810862
-0.000913795
-0.000906013
-0.000797468
-0.000801188
-0.000887747
-0.000789721
-0.000885301
-0.000907996
-0.000911927
-0.000820535
-0.000810873
-0.000913826
-0.000938733
-0.00095545
-0.0010384
-0.00102359
-0.000939155
-0.000954715
-0.00103946
-0.000941368
-0.0010367
-0.000942673
-0.00103833
-0.000938753
-0.00095531
-0.00102363
-0.00103845
-0.000954781
-0.000939183
-0.0010395
-0.000941379
-0.00103673
-0.000942743
-0.00103835
-0.000808116
-0.000808144
-0.00090333
-0.00090973
-0.000909732
-0.000817153
-0.000912579
-0.00103616
-0.000942088
-0.000937473
-0.00103853
-0.00103876
-0.000940844
-0.000940897
-0.00103646
-0.000942348
-0.000905793
-0.000796275
-0.000800806
-0.000887248
-0.000787478
-0.000884745
-0.00090756
-0.000911818
-0.000820056
-0.000809328
-0.000913931
-0.000911816
-0.000820055
-0.000809329
-0.000913925
-0.000939021
-0.000955125
-0.00102362
-0.00103852
-0.000954474
-0.00093919
-0.00103993
-0.000939019
-0.000955132
-0.00102361
-0.00103853
-0.000954469
-0.000939177
-0.00103993
-0.000941652
-0.00103696
-0.000943013
-0.00103859
-0.00094165
-0.00103697
-0.000943006
-0.00103859
-0.00081768
-0.000912506
-0.000817148
-0.000912569
-0.000937483
-0.00103858
-0.00103876
-0.000940931
-0.000940863
-0.00103623
-0.000942123
-0.00103645
-0.000942338
-0.00107316
-0.00119617
-0.001073
-0.00119619
-0.00107552
-0.00107541
-0.00120247
-0.00119751
-0.00119738
-0.00137269
-0.00124024
-0.00137282
-0.00124038
-0.00124481
-0.00137276
-0.00137286
-0.00124094
-0.00124102
-0.0011969
-0.00107352
-0.00107555
-0.00119612
-0.00119849
-0.001076
-0.00110036
-0.00118175
-0.0010781
-0.00119751
-0.00118265
-0.00119849
-0.00107601
-0.00110033
-0.00118174
-0.0010781
-0.00119752
-0.00118264
-0.0012405
-0.00137252
-0.00123996
-0.00137225
-0.0012405
-0.00137255
-0.00123998
-0.00137226
-0.00124265
-0.00126673
-0.00137221
-0.00135341
-0.00124129
-0.00126739
-0.00137236
-0.00124265
-0.00126668
-0.00137228
-0.00135339
-0.00124131
-0.00126737
-0.00137237
-0.00107549
-0.00107547
-0.0012025
-0.00119752
-0.00119743
-0.00107303
-0.00119625
-0.00137274
-0.00124026
-0.00124485
-0.00137284
-0.00137293
-0.00124096
-0.00124105
-0.00137289
-0.00124043
-0.00119868
-0.00107587
-0.00110024
-0.0011819
-0.0010779
-0.0011975
-0.00118251
-0.00119705
-0.00107336
-0.00107542
-0.00119622
-0.00119868
-0.00110029
-0.00107588
-0.00118204
-0.00107792
-0.00118259
-0.00119747
-0.00124062
-0.00137267
-0.00124026
-0.00137248
-0.00124272
-0.00126643
-0.00137252
-0.00135316
-0.00124137
-0.00126715
-0.00137273
-0.00124062
-0.0013727
-0.00124025
-0.00137249
-0.00124273
-0.00126651
-0.00135317
-0.00137256
-0.00126719
-0.00124135
-0.00137273
-0.00119709
-0.00107339
-0.00107544
-0.00119629
-0.00119873
-0.00110024
-0.00107595
-0.00118175
-0.00107795
-0.00118252
-0.0011976
-0.0011971
-0.00107343
-0.00107545
-0.00119635
-0.00124276
-0.00126645
-0.00137258
-0.00135316
-0.00124141
-0.00126714
-0.00137278
-0.00124066
-0.00137273
-0.00124031
-0.00137254
-0.00124277
-0.00126651
-0.00135319
-0.00137262
-0.00126718
-0.00124145
-0.00137278
-0.00124067
-0.00137276
-0.00124035
-0.00137255
-0.00107544
-0.00107556
-0.00120238
-0.00119738
-0.00119753
-0.00107321
-0.00119621
-0.00137286
-0.00124038
-0.0012448
-0.00137291
-0.00137283
-0.00124101
-0.00124099
-0.00137275
-0.00124031
-0.00119863
-0.0011004
-0.00107608
-0.00118189
-0.00107819
-0.00118274
-0.00119765
-0.00119699
-0.00107357
-0.00107562
-0.00119618
-0.00119699
-0.00107358
-0.00107562
-0.00119621
-0.00124277
-0.0012666
-0.0013533
-0.0013723
-0.00126718
-0.00124139
-0.0013724
-0.00124277
-0.00126656
-0.0013533
-0.0013723
-0.00126717
-0.00124142
-0.00137241
-0.00124059
-0.00137257
-0.00124006
-0.0013723
-0.00124059
-0.00137261
-0.00124009
-0.00137231
-0.00107309
-0.00119632
-0.00107321
-0.00119626
-0.00124491
-0.00137299
-0.00137286
-0.00124115
-0.00124105
-0.00137293
-0.00124052
-0.00137278
-0.00124035
-0.00141729
-0.00154952
-0.00141741
-0.00154957
-0.00141721
-0.00141728
-0.00154974
-0.00154951
-0.00154958
-0.001726
-0.00159402
-0.001726
-0.00159405
-0.00159406
-0.00172602
-0.00172604
-0.00159392
-0.00159395
-0.00154945
-0.00141717
-0.00141697
-0.0015496
-0.00154888
-0.00141753
-0.0014405
-0.00152816
-0.00141806
-0.00154909
-0.00152826
-0.00154889
-0.00141762
-0.00144044
-0.00152811
-0.00141809
-0.00154916
-0.0015282
-0.00159404
-0.00172606
-0.00159399
-0.00172605
-0.00159405
-0.00172613
-0.00159408
-0.00172605
-0.0015948
-0.00161628
-0.00172565
-0.00170439
-0.00159433
-0.0016163
-0.00172538
-0.0015948
-0.00161613
-0.00172572
-0.00170439
-0.00159442
-0.00161626
-0.00172538
-0.00141734
-0.00141734
-0.00155
-0.00154961
-0.00154973
-0.00141748
-0.00154969
-0.00172611
-0.00159412
-0.00159405
-0.00172614
-0.00172611
-0.00159403
-0.00159411
-0.00172607
-0.00159418
-0.00154922
-0.00141756
-0.00144032
-0.00152803
-0.00141799
-0.00154929
-0.00152815
-0.00154954
-0.00141731
-0.00141717
-0.00154965
-0.00154923
-0.00144034
-0.0014176
-0.00152803
-0.001418
-0.00152818
-0.00154937
-0.00159407
-0.00172604
-0.00159403
-0.00172605
-0.00159453
-0.00161617
-0.00172577
-0.00170431
-0.00159427
-0.00161621
-0.00172564
-0.00159408
-0.00172611
-0.0015941
-0.00172606
-0.00159454
-0.00161617
-0.00170434
-0.00172585
-0.00161625
-0.00159435
-0.00172566
-0.00154959
-0.00141734
-0.00141722
-0.00154968
-0.00154928
-0.00144035
-0.00141766
-0.00152804
-0.00141805
-0.0015282
-0.0015494
-0.00154959
-0.00141737
-0.00141722
-0.00154969
-0.00159459
-0.0016162
-0.00172585
-0.00170433
-0.00159439
-0.00161624
-0.00172569
-0.00159413
-0.00172611
-0.00159413
-0.0017261
-0.00159459
-0.00161618
-0.00170436
-0.00172588
-0.00161626
-0.00159439
-0.0017257
-0.00159413
-0.00172614
-0.00159414
-0.0017261
-0.00141735
-0.0014173
-0.00154986
-0.00154968
-0.00154964
-0.00141737
-0.00154963
-0.00172609
-0.00159415
-0.00159418
-0.00172614
-0.00172613
-0.00159405
-0.00159405
-0.00172609
-0.00159412
-0.0015489
-0.00144042
-0.00141764
-0.00152808
-0.0014182
-0.00152819
-0.0015492
-0.00154947
-0.00141719
-0.00141703
-0.0015496
-0.00154947
-0.00141721
-0.00141703
-0.00154962
-0.00159481
-0.0016162
-0.00170434
-0.00172572
-0.00161624
-0.00159442
-0.00172538
-0.00159481
-0.00161621
-0.00170434
-0.00172573
-0.00161624
-0.00159443
-0.00172538
-0.00159406
-0.00172611
-0.00159406
-0.00172605
-0.00159407
-0.00172612
-0.00159408
-0.00172605
-0.00141752
-0.0015497
-0.0014174
-0.00154964
-0.0015942
-0.00172617
-0.00172614
-0.00159409
-0.00159407
-0.00172612
-0.00159418
-0.0017261
-0.00159414
-0.00177045
-0.00190234
-0.00177044
-0.00190232
-0.00177038
-0.00177036
-0.00190243
-0.00190237
-0.00190236
-0.00207863
-0.00194677
-0.0020786
-0.00194675
-0.0019467
-0.00207865
-0.00207865
-0.0019467
-0.00194667
-0.0019024
-0.0017705
-0.00177056
-0.00190243
-0.00190172
-0.00177081
-0.00179251
-0.00188073
-0.00177123
-0.001902
-0.00188065
-0.00190172
-0.00177087
-0.00179252
-0.00188069
-0.00177124
-0.00190204
-0.00188066
-0.00194688
-0.00207869
-0.00194677
-0.00207869
-0.00194688
-0.00207872
-0.0019468
-0.00207869
-0.00194756
-0.00196888
-0.00207829
-0.00205694
-0.00194714
-0.0019688
-0.00207801
-0.00194756
-0.00196886
-0.00207833
-0.00205694
-0.00194718
-0.00196879
-0.00207801
-0.00177049
-0.00177041
-0.00190248
-0.00190242
-0.00190244
-0.0017705
-0.00190239
-0.00207867
-0.00194681
-0.00194675
-0.00207871
-0.0020787
-0.00194675
-0.00194673
-0.00207866
-0.00194681
-0.00190194
-0.00177069
-0.00179243
-0.00188058
-0.00177091
-0.00190209
-0.00188056
-0.00190238
-0.0017705
-0.00177052
-0.00190243
-0.00190196
-0.00179246
-0.00177077
-0.00188058
-0.00177092
-0.00188059
-0.00190217
-0.00194682
-0.00207864
-0.00194674
-0.00207865
-0.00194721
-0.00196873
-0.00207837
-0.00205684
-0.001947
-0.0019687
-0.00207823
-0.00194683
-0.00207871
-0.0019468
-0.00207866
-0.00194722
-0.00196872
-0.00205686
-0.00207845
-0.00196873
-0.00194707
-0.00207824
-0.00190241
-0.0017705
-0.00177056
-0.00190243
-0.00190199
-0.00179248
-0.0017708
-0.00188059
-0.00177096
-0.00188061
-0.00190219
-0.00190241
-0.00177053
-0.00177057
-0.00190245
-0.00194724
-0.00196874
-0.00207843
-0.00205685
-0.00194706
-0.00196872
-0.00207826
-0.00194686
-0.0020787
-0.0019468
-0.00207869
-0.00194725
-0.00196874
-0.00205688
-0.00207847
-0.00196874
-0.00194709
-0.00207827
-0.00194686
-0.00207873
-0.00194683
-0.00207869
-0.00177047
-0.00177048
-0.0019025
-0.00190246
-0.00190246
-0.00177054
-0.00190241
-0.00207868
-0.00194683
-0.0019468
-0.00207874
-0.00207874
-0.00194677
-0.00194679
-0.0020787
-0.00194685
-0.00190171
-0.00179246
-0.00177089
-0.00188063
-0.00177125
-0.00188058
-0.00190207
-0.00190239
-0.00177051
-0.00177056
-0.00190245
-0.00190239
-0.00177052
-0.00177056
-0.00190245
-0.00194755
-0.00196876
-0.00205686
-0.00207834
-0.00196872
-0.0019472
-0.00207799
-0.00194755
-0.00196877
-0.00205686
-0.00207835
-0.00196872
-0.00194721
-0.00207799
-0.00194688
-0.00207873
-0.00194682
-0.00207868
-0.00194688
-0.00207874
-0.00194683
-0.00207868
-0.00177056
-0.00190243
-0.00177055
-0.00190242
-0.00194681
-0.00207876
-0.00207875
-0.00194679
-0.0019468
-0.0020787
-0.00194686
-0.0020787
-0.00194686
-0.00212306
-0.00225491
-0.00212303
-0.00225488
-0.00212298
-0.00212295
-0.00225499
-0.00225493
-0.00225493
-0.00243118
-0.00229933
-0.00243115
-0.0022993
-0.00229926
-0.00243121
-0.0024312
-0.00229926
-0.00229923
-0.00225497
-0.00212309
-0.00212317
-0.00225501
-0.00225428
-0.00212343
-0.00214507
-0.0022333
-0.00212384
-0.00225457
-0.00223321
-0.00225429
-0.00212349
-0.00214505
-0.00223324
-0.00212384
-0.00225461
-0.00223316
-0.00229944
-0.00243124
-0.00229933
-0.00243124
-0.00229944
-0.0024313
-0.00229939
-0.00243125
-0.00230011
-0.00232143
-0.00243084
-0.00240947
-0.0022997
-0.00232134
-0.00243056
-0.00230011
-0.00232126
-0.0024309
-0.00240947
-0.00229977
-0.00232131
-0.00243056
-0.00212307
-0.00212299
-0.00225522
-0.00225499
-0.00225506
-0.00212308
-0.00225497
-0.00243127
-0.0022994
-0.00229923
-0.00243131
-0.00243126
-0.00229932
-0.00229937
-0.00243121
-0.00229941
-0.0022545
-0.00212328
-0.00214498
-0.00223314
-0.00212349
-0.00225465
-0.00223311
-0.00225493
-0.00212308
-0.00212311
-0.00225498
-0.00225451
-0.002145
-0.00212335
-0.00223314
-0.0021235
-0.00223314
-0.00225473
-0.00229937
-0.00243119
-0.00229929
-0.0024312
-0.00229976
-0.00232128
-0.00243092
-0.00240939
-0.00229956
-0.00232125
-0.00243078
-0.00229938
-0.00243126
-0.00229936
-0.00243121
-0.00229977
-0.00232127
-0.00240941
-0.002431
-0.00232127
-0.00229963
-0.00243079
-0.00225497
-0.00212307
-0.00212313
-0.002255
-0.00225455
-0.00214501
-0.00212337
-0.00223315
-0.00212353
-0.00223315
-0.00225475
-0.00225497
-0.00212311
-0.00212314
-0.00225501
-0.00229981
-0.0023213
-0.00243099
-0.0024094
-0.00229965
-0.00232127
-0.00243082
-0.00229942
-0.00243126
-0.00229937
-0.00243124
-0.00229981
-0.00232128
-0.00240942
-0.00243102
-0.00232128
-0.00229965
-0.00243083
-0.00229942
-0.00243128
-0.00229938
-0.00243125
-0.00212305
-0.00212307
-0.00225507
-0.00225502
-0.00225502
-0.00212313
-0.00225498
-0.00243123
-0.00229939
-0.00229935
-0.0024313
-0.0024313
-0.00229933
-0.00229935
-0.00243125
-0.0022994
-0.00225427
-0.00214499
-0.00212349
-0.00223319
-0.00212384
-0.00223313
-0.00225463
-0.00225496
-0.0021231
-0.00212316
-0.00225501
-0.00225496
-0.00212311
-0.00212316
-0.00225501
-0.00230011
-0.00232132
-0.0024094
-0.0024309
-0.00232126
-0.00229976
-0.00243054
-0.00230011
-0.00232132
-0.0024094
-0.00243091
-0.00232127
-0.00229977
-0.00243055
-0.00229944
-0.00243128
-0.00229938
-0.00243123
-0.00229944
-0.00243129
-0.00229939
-0.00243123
-0.00212313
-0.00225498
-0.00212313
-0.00225498
-0.00229936
-0.00243132
-0.0024313
-0.00229935
-0.00229936
-0.00243125
-0.00229941
-0.00243126
-0.00229941
-0.00247561
-0.00260746
-0.00247558
-0.00260743
-0.00247553
-0.00247551
-0.00260754
-0.00260748
-0.00260748
-0.00278374
-0.00265188
-0.0027837
-0.00265186
-0.00265181
-0.00278376
-0.00278375
-0.00265181
-0.00265178
-0.00260752
-0.00247565
-0.00247572
-0.00260755
-0.00260684
-0.00247598
-0.00249761
-0.00258585
-0.00247638
-0.00260712
-0.00258576
-0.00260684
-0.00247602
-0.00249762
-0.0025858
-0.00247639
-0.00260716
-0.00258576
-0.00265199
-0.00278379
-0.00265189
-0.00278379
-0.00265199
-0.00278382
-0.00265191
-0.0027838
-0.00265267
-0.00267399
-0.0027834
-0.00276204
-0.00265226
-0.0026739
-0.00278311
-0.00265267
-0.00267397
-0.00278343
-0.00276204
-0.00265228
-0.00267389
-0.00278312
-0.00247564
-0.00247554
-0.0026076
-0.00260754
-0.00260755
-0.00247563
-0.0026075
-0.00278377
-0.00265192
-0.00265186
-0.00278381
-0.0027838
-0.00265186
-0.00265184
-0.00278376
-0.00265192
-0.00260706
-0.00247583
-0.00249753
-0.0025857
-0.00247604
-0.0026072
-0.00258566
-0.00260749
-0.00247564
-0.00247566
-0.00260754
-0.00260707
-0.00249755
-0.0024759
-0.00258569
-0.00247605
-0.00258569
-0.00260728
-0.00265192
-0.00278375
-0.00265185
-0.00278375
-0.00265231
-0.00267384
-0.00278348
-0.00276194
-0.00265211
-0.0026738
-0.00278333
-0.00265193
-0.00278381
-0.00265191
-0.00278376
-0.00265232
-0.00267383
-0.00276196
-0.00278355
-0.00267382
-0.00265218
-0.00278334
-0.00260751
-0.00247562
-0.00247569
-0.00260753
-0.0026071
-0.00249756
-0.00247593
-0.0025857
-0.00247608
-0.00258571
-0.0026073
-0.00260752