/*--------------------------------*- C++ -*----------------------------------*\
| =========                 |                                                 |
| \\      /  F ield         | OpenFOAM: The Open Source CFD Toolbox           |
|  \\    /   O peration     | Version:  2206                                  |
|   \\  /    A nd           | Website:  www.openfoam.com                      |
|    \\/     M anipulation  |                                                 |
\*---------------------------------------------------------------------------*/
FoamFile
{
    version     2.0;
    format      ascii;
    arch        "LSB;label=32;scalar=64";
    class       volVectorField;
    location    "0.1";
    object      wallShearStress;
}
// * * * * * * * * * * * * * * * * * * * * * * * * * * * * * * * * * * * * * //

dimensions      [0 2 -2 0 0 0 0];

internalField   uniform (0 0 0);

boundaryField
{
    topPatch
    {
        type            calculated;
        value           uniform (0 0 0);
    }
    wall
    {
        type            calculated;
        value           nonuniform List<vector> 
7742
(
(2.34306e-05 1.0359e-05 -0.000163775)
(1.9638e-05 5.6158e-05 -6.99573e-05)
(-2.34307e-05 1.03714e-05 -0.000163834)
(1.03645e-05 2.34325e-05 -0.000163792)
(5.61614e-05 1.96473e-05 -6.994e-05)
(1.03609e-05 -2.34289e-05 -0.000163764)
(-1.03585e-05 2.34288e-05 -0.000163769)
(-1.03652e-05 -2.34304e-05 -0.000163786)
(2.34274e-05 -1.03667e-05 -0.000163775)
(1.96354e-05 -5.61529e-05 -6.99828e-05)
(-2.34265e-05 -1.03615e-05 -0.000163779)
(-1.96341e-05 -5.61426e-05 -6.99857e-05)
(-3.27297e-06 1.66317e-05 -0.000189075)
(3.07701e-05 3.28798e-05 -0.000128105)
(-3.78336e-06 -5.34446e-06 -0.000218545)
(1.66294e-05 -3.26308e-06 -0.000189046)
(3.28774e-05 3.07783e-05 -0.000128078)
(-5.35161e-06 -3.77941e-06 -0.000218514)
(9.28136e-06 -2.72235e-06 -0.000166026)
(-9.26791e-06 -2.72312e-06 -0.000166078)
(3.39733e-06 1.65785e-05 -0.000189059)
(3.74582e-06 -5.34655e-06 -0.000218497)
(-3.05349e-05 3.29627e-05 -0.000128692)
(-1.66328e-05 -3.265e-06 -0.000189063)
(-3.28804e-05 3.07823e-05 -0.000128085)
(5.34848e-06 -3.78069e-06 -0.000218534)
(-2.72106e-06 9.27892e-06 -0.000166045)
(-2.72103e-06 -9.2815e-06 -0.000166022)
(2.72851e-06 9.28213e-06 -0.000166021)
(2.7231e-06 -9.27556e-06 -0.000166053)
(1.65819e-05 3.39321e-06 -0.00018904)
(-5.3503e-06 3.74939e-06 -0.000218483)
(3.29615e-05 -3.05361e-05 -0.000128692)
(-3.26627e-06 -1.66308e-05 -0.00018908)
(3.07774e-05 -3.28793e-05 -0.000128093)
(-3.78044e-06 5.34754e-06 -0.000218548)
(9.27733e-06 2.72231e-06 -0.000166044)
(-9.27771e-06 2.72678e-06 -0.000166046)
(-1.65783e-05 3.39261e-06 -0.00018904)
(5.35002e-06 3.74622e-06 -0.000218476)
(-3.29543e-05 -3.0534e-05 -0.000128693)
(3.38803e-06 -1.65862e-05 -0.000189052)
(3.74752e-06 5.34976e-06 -0.000218504)
(-3.05395e-05 -3.29618e-05 -0.000128684)
(1.76704e-05 -9.05864e-06 -0.000188971)
(-1.76695e-05 -9.06666e-06 -0.000189009)
(-8.73863e-06 -7.90767e-06 -0.000175798)
(-9.06731e-06 1.76907e-05 -0.000188944)
(-5.71182e-06 -8.01837e-06 -0.000167996)
(-9.05815e-06 -1.76765e-05 -0.00018893)
(-7.89669e-06 -8.7483e-06 -0.000175741)
(9.06319e-06 1.76877e-05 -0.000188925)
(9.05835e-06 -1.76783e-05 -0.000188944)
(7.89833e-06 -8.75447e-06 -0.000175742)
(5.71359e-06 8.0265e-06 -0.000168003)
(1.76792e-05 9.06202e-06 -0.000188969)
(8.7618e-06 7.91182e-06 -0.000175763)
(-1.76746e-05 9.05797e-06 -0.000188958)
(-1.9636e-05 5.61456e-05 -7.00067e-05)
(5.61714e-05 -1.96486e-05 -6.99161e-05)
(-5.61708e-05 -1.96497e-05 -6.99315e-05)
(8.74825e-06 -7.9051e-06 -0.000175781)
(-7.90906e-06 8.76379e-06 -0.000175736)
(-5.61659e-05 1.9648e-05 -6.99207e-05)
(7.90544e-06 8.76257e-06 -0.000175732)
(5.71421e-06 -8.021e-06 -0.000168006)
(-8.01966e-06 5.71837e-06 -0.000168014)
(-8.75278e-06 7.89928e-06 -0.000175759)
(8.02412e-06 5.71186e-06 -0.000168024)
(9.35218e-06 -2.03573e-05 -0.000262669)
(-8.02661e-06 -5.71497e-06 -0.000168032)
(-9.34809e-06 -2.0369e-05 -0.000262773)
(8.0317e-06 -5.71542e-06 -0.000168031)
(-2.03742e-05 9.35739e-06 -0.000262711)
(-2.03619e-05 -9.35671e-06 -0.000262641)
(-5.71626e-06 8.03286e-06 -0.000168006)
(2.03715e-05 9.3526e-06 -0.000262677)
(2.03647e-05 -9.35879e-06 -0.000262673)
(9.35329e-06 2.03633e-05 -0.000262688)
(-9.34522e-06 2.03672e-05 -0.000262694)
(-2.54123e-06 7.32762e-08 -0.00037)
(-3.04304e-06 -2.75542e-06 -0.000243492)
(7.1375e-06 -3.47226e-05 -0.000246988)
(-2.59539e-06 -2.62556e-06 -0.000235826)
(5.77149e-08 -2.53731e-06 -0.00036998)
(-2.75609e-06 -3.03079e-06 -0.000243498)
(-3.47206e-05 7.12217e-06 -0.000246965)
(-2.63342e-06 -2.61448e-06 -0.000235822)
(-3.32531e-06 1.13385e-06 -0.000186592)
(-1.96932e-06 8.61456e-07 -0.00018995)
(3.02384e-06 1.49837e-06 -0.000200654)
(2.42783e-06 1.39468e-06 -0.000200927)
(1.13533e-06 -3.33352e-06 -0.000186627)
(8.52226e-07 -1.93673e-06 -0.000190122)
(1.50794e-06 3.04765e-06 -0.000200729)
(1.38282e-06 2.40523e-06 -0.000201028)
(2.45758e-07 -3.99364e-09 -0.000201364)
(2.41989e-07 -6.21291e-08 -0.000203737)
(-3.8281e-07 -1.2496e-07 -0.000209017)
(-3.15409e-07 -1.42802e-07 -0.000211279)
(-1.32257e-08 2.65631e-07 -0.000201608)
(-6.16072e-08 2.37968e-07 -0.000203954)
(-1.36182e-07 -4.02637e-07 -0.000209154)
(-1.42247e-07 -3.13059e-07 -0.000211378)
(3.3498e-08 -2.10822e-08 -0.000203671)
(1.24267e-08 7.03714e-10 -0.000203803)
(-2.09373e-08 -1.80611e-08 -0.000211474)
(-1.61981e-08 -4.52071e-09 -0.000211593)
(-1.7982e-08 2.48965e-08 -0.000203858)
(3.42936e-09 5.59598e-09 -0.000203997)
(-1.05573e-08 -6.88952e-09 -0.000211547)
(-8.29342e-10 -9.66273e-09 -0.000211671)
(-2.52792e-09 -5.6866e-09 -0.000203576)
(5.30015e-09 4.16002e-09 -0.000203767)
(7.32438e-09 -1.40631e-09 -0.000211418)
(-8.46635e-09 1.33323e-10 -0.000211573)
(-4.232e-09 -6.12198e-09 -0.000203771)
(5.27616e-09 2.82843e-09 -0.00020397)
(2.08366e-09 1.3635e-08 -0.000211505)
(-1.65461e-10 -9.60683e-09 -0.000211652)
(-2.83323e-09 -5.41019e-09 -0.000203569)
(4.94786e-09 4.35819e-09 -0.000203766)
(1.03391e-08 -9.5295e-11 -0.000211421)
(-1.02951e-08 -7.8714e-10 -0.00021157)
(-4.38798e-09 -5.41753e-09 -0.000203767)
(5.20933e-09 3.11263e-09 -0.000203969)
(1.94378e-09 1.31569e-08 -0.000211502)
(-2.29246e-10 -9.80875e-09 -0.000211651)
(-3.03678e-09 -5.32678e-09 -0.000203569)
(4.81873e-09 4.41712e-09 -0.000203766)
(7.77976e-09 -1.01366e-09 -0.000211415)
(-8.4079e-09 3.63188e-10 -0.000211569)
(-4.38874e-09 -5.40227e-09 -0.000203768)
(5.22566e-09 3.06766e-09 -0.00020397)
(1.90396e-09 1.30724e-08 -0.000211502)
(-2.24427e-10 -9.78663e-09 -0.000211652)
(-2.62518e-09 -5.4865e-09 -0.00020357)
(5.28442e-09 4.2455e-09 -0.000203766)
(9.67805e-09 4.25253e-11 -0.00021142)
(-1.03466e-08 -7.31259e-10 -0.000211568)
(-4.40322e-09 -5.37314e-09 -0.000203768)
(5.20894e-09 3.12317e-09 -0.00020397)
(1.935e-09 1.31433e-08 -0.000211502)
(-2.09371e-10 -9.77383e-09 -0.000211652)
(-2.78922e-09 -5.42807e-09 -0.000203569)
(5.32152e-09 4.21185e-09 -0.000203766)
(7.77169e-09 -1.02409e-09 -0.000211414)
(-8.545e-09 3.57086e-10 -0.000211569)
(-4.40218e-09 -5.37961e-09 -0.000203768)
(5.20232e-09 3.10713e-09 -0.00020397)
(1.92899e-09 1.31345e-08 -0.000211502)
(-2.24752e-10 -9.78516e-09 -0.000211652)
(-2.57549e-09 -5.49199e-09 -0.00020357)
(4.29752e-09 4.57556e-09 -0.000203764)
(9.49582e-09 -4.96279e-11 -0.00021142)
(-1.00155e-08 -5.81983e-10 -0.000211567)
(-4.37903e-09 -5.43519e-09 -0.000203768)
(5.27919e-09 2.92132e-09 -0.000203969)
(1.92151e-09 1.31086e-08 -0.000211502)
(-1.00558e-10 -9.57334e-09 -0.000211652)
(-1.23347e-09 -5.93148e-09 -0.000203572)
(4.84703e-09 4.25174e-09 -0.000203762)
(6.79077e-09 -2.1348e-09 -0.000211416)
(-9.68031e-09 -2.77573e-10 -0.000211569)
(-4.31141e-09 -5.60883e-09 -0.000203769)
(5.73156e-09 1.94277e-09 -0.000203972)
(2.03625e-09 1.33682e-08 -0.000211503)
(8.26977e-10 -8.03998e-09 -0.000211656)
(-2.35254e-10 -4.61735e-09 -0.000203579)
(1.88602e-08 -2.11908e-09 -0.000203826)
(3.81159e-09 -2.36761e-09 -0.000211421)
(-2.82667e-09 2.74606e-09 -0.000211603)
(-3.4319e-09 -8.28105e-09 -0.000203769)
(3.18491e-09 1.60556e-08 -0.000211499)
(-8.9311e-06 1.07211e-05 -0.000229562)
(1.07325e-05 -8.9011e-06 -0.00022956)
(1.05661e-05 4.84427e-05 -0.000116321)
(-1.05711e-05 4.84505e-05 -0.000116325)
(8.88373e-06 1.07273e-05 -0.000229559)
(-1.07254e-05 -8.90412e-06 -0.000229554)
(4.84318e-05 1.05844e-05 -0.00011632)
(4.84493e-05 -1.05862e-05 -0.000116314)
(-4.84348e-05 1.05826e-05 -0.000116322)
(-4.84484e-05 -1.05855e-05 -0.000116311)
(1.07328e-05 8.87217e-06 -0.00022952)
(-8.91673e-06 -1.07261e-05 -0.000229556)
(1.05797e-05 -4.84355e-05 -0.000116345)
(-1.05816e-05 -4.84399e-05 -0.000116353)
(-1.07236e-05 8.87583e-06 -0.000229504)
(8.87159e-06 -1.07343e-05 -0.000229543)
(-7.16687e-06 -3.47063e-05 -0.000246977)
(2.59618e-06 -2.62597e-06 -0.000235823)
(-3.4721e-05 -7.14461e-06 -0.000246988)
(-2.62743e-06 2.60279e-06 -0.000235847)
(-2.6564e-06 1.09971e-06 -0.00020411)
(-1.12777e-06 -2.08599e-06 -0.000239868)
(1.11184e-06 -2.67584e-06 -0.000204177)
(-2.08527e-06 -1.12528e-06 -0.000239922)
(2.53196e-06 7.6802e-08 -0.000370016)
(3.03823e-06 -2.75647e-06 -0.000243498)
(-3.34878e-06 9.36671e-07 -0.000189693)
(-2.71495e-06 -2.12345e-06 -0.000231958)
(3.34789e-06 9.35728e-07 -0.000189689)
(2.71344e-06 -2.12561e-06 -0.000231958)
(3.47157e-05 -7.14751e-06 -0.000246981)
(2.63392e-06 2.61476e-06 -0.000235824)
(2.66379e-06 1.10285e-06 -0.000204113)
(1.13074e-06 -2.08386e-06 -0.000239877)
(-1.10745e-06 -2.66517e-06 -0.000204161)
(2.09126e-06 -1.11297e-06 -0.000239907)
(6.3951e-08 2.53436e-06 -0.000370009)
(-2.7602e-06 3.02727e-06 -0.000243503)
(9.42391e-07 -3.36719e-06 -0.00018974)
(-2.12635e-06 -2.70583e-06 -0.000231988)
(9.41138e-07 3.3642e-06 -0.000189748)
(-2.12553e-06 2.70479e-06 -0.000231998)
(-5.83933e-08 -2.54201e-06 -0.00036999)
(2.75862e-06 -3.02814e-06 -0.000243497)
(-6.1943e-08 2.52981e-06 -0.000370001)
(2.76061e-06 3.02294e-06 -0.000243502)
(-9.42527e-07 -3.36698e-06 -0.000189738)
(2.12712e-06 -2.70301e-06 -0.000231996)
(-9.42752e-07 3.36842e-06 -0.00018975)
(2.12779e-06 2.70136e-06 -0.000232)
(-7.16102e-06 3.47094e-05 -0.000246987)
(2.59674e-06 2.6269e-06 -0.000235842)
(1.11179e-06 2.67532e-06 -0.000204179)
(-2.08772e-06 1.12027e-06 -0.000239911)
(-2.64886e-06 -1.0947e-06 -0.000204127)
(-1.12141e-06 2.08812e-06 -0.000239886)
(-2.53965e-06 -6.72877e-08 -0.000370002)
(-3.04048e-06 2.75563e-06 -0.000243502)
(2.53487e-06 -7.50631e-08 -0.000370014)
(3.03634e-06 2.75897e-06 -0.000243507)
(-3.34751e-06 -9.36362e-07 -0.000189707)
(-2.7115e-06 2.12609e-06 -0.000231966)
(3.34388e-06 -9.34953e-07 -0.000189705)
(2.71106e-06 2.12443e-06 -0.000231974)
(3.47157e-05 7.1252e-06 -0.000246938)
(2.63829e-06 -2.62396e-06 -0.000235802)
(7.13135e-06 3.47224e-05 -0.000246993)
(-2.59786e-06 2.62726e-06 -0.000235842)
(-1.1095e-06 2.67039e-06 -0.000204169)
(2.09417e-06 1.10701e-06 -0.000239887)
(2.65185e-06 -1.09614e-06 -0.000204126)
(1.1263e-06 2.08633e-06 -0.000239893)
(-3.02347e-06 1.49906e-06 -0.000200654)
(-2.44052e-06 1.40023e-06 -0.000200919)
(1.50889e-06 -3.0493e-06 -0.000200725)
(1.38462e-06 -2.40836e-06 -0.000201024)
(1.88387e-07 1.07174e-08 -0.000207802)
(-1.68757e-06 1.01419e-06 -0.000202328)
(-8.32002e-09 2.24763e-07 -0.00020795)
(9.93929e-07 -1.64799e-06 -0.000202452)
(3.322e-06 1.13255e-06 -0.000186586)
(1.97163e-06 8.62919e-07 -0.000189947)
(9.85224e-08 8.88053e-08 -0.000199964)
(-1.29229e-06 6.2098e-07 -0.00019244)
(-9.68273e-08 8.94362e-08 -0.00019996)
(1.29516e-06 6.22563e-07 -0.000192441)
(-1.50725e-06 -3.04523e-06 -0.000200717)
(-1.37281e-06 -2.38626e-06 -0.000201019)
(-1.96539e-07 6.83771e-09 -0.000207815)
(1.67076e-06 1.00647e-06 -0.000202343)
(6.61773e-09 2.21113e-07 -0.000207953)
(-9.8387e-07 -1.6289e-06 -0.000202453)
(1.13407e-06 3.32958e-06 -0.000186637)
(8.50568e-07 1.93273e-06 -0.000190129)
(7.71349e-08 1.30945e-07 -0.000200216)
(6.07393e-07 -1.25104e-06 -0.000192639)
(7.60736e-08 -1.33542e-07 -0.00020022)
(6.0614e-07 1.24798e-06 -0.000192644)
(-1.13673e-06 -3.33635e-06 -0.000186625)
(-8.54577e-07 -1.94182e-06 -0.000190128)
(-1.13605e-06 3.33426e-06 -0.00018664)
(-8.51867e-07 1.93587e-06 -0.000190134)
(-7.79809e-08 1.28127e-07 -0.000200213)
(-6.09923e-07 -1.25711e-06 -0.000192642)
(-7.54308e-08 -1.352e-07 -0.000200222)
(-6.06736e-07 1.24959e-06 -0.000192649)
(-3.01701e-06 -1.49519e-06 -0.00020067)
(-2.43918e-06 -1.39877e-06 -0.00020093)
(-9.80218e-09 -2.27666e-07 -0.000207953)
(9.92579e-07 1.64537e-06 -0.000202456)
(1.87729e-07 -1.10485e-08 -0.000207809)
(-1.68755e-06 -1.01358e-06 -0.000202336)
(-3.32358e-06 -1.13403e-06 -0.000186604)
(-1.96943e-06 -8.61712e-07 -0.00018996)
(3.32003e-06 -1.13237e-06 -0.000186601)
(1.96765e-06 -8.61023e-07 -0.000189956)
(9.82918e-08 -8.89263e-08 -0.000199965)
(-1.29348e-06 -6.2143e-07 -0.000192444)
(-9.61867e-08 -8.97414e-08 -0.000199964)
(1.29242e-06 -6.21085e-07 -0.000192442)
(-1.50798e-06 3.04674e-06 -0.000200724)
(-1.38248e-06 2.40536e-06 -0.000201019)
(3.0182e-06 -1.49538e-06 -0.000200667)
(2.4394e-06 -1.39944e-06 -0.000200936)
(1.09828e-08 -2.28761e-07 -0.000207942)
(-9.91148e-07 1.64407e-06 -0.000202447)
(-1.86021e-07 -1.25781e-08 -0.000207815)
(1.68831e-06 -1.0147e-06 -0.000202341)
(3.80201e-07 -1.2404e-07 -0.000209009)
(3.18536e-07 -1.44787e-07 -0.000211267)
(-1.35002e-07 4.00346e-07 -0.00020915)
(-1.41376e-07 3.11515e-07 -0.000211377)
(6.14286e-08 -2.99883e-08 -0.000211626)
(2.09095e-07 -1.07449e-07 -0.000211344)
(-2.40568e-08 5.03136e-08 -0.000211704)
(-1.00735e-07 1.94137e-07 -0.000211438)
(-2.43708e-07 -3.28377e-09 -0.000201357)
(-2.39643e-07 -6.12258e-08 -0.000203734)
(6.32594e-08 -1.96913e-08 -0.000203904)
(1.79869e-07 -6.38232e-08 -0.000203705)
(-6.33629e-08 -1.97525e-08 -0.000203901)
(-1.79368e-07 -6.36475e-08 -0.000203702)
(1.32857e-07 3.95854e-07 -0.000209152)
(1.42083e-07 3.12389e-07 -0.000211373)
(-6.16175e-08 -2.99586e-08 -0.000211636)
(-2.07881e-07 -1.06847e-07 -0.000211349)
(2.48442e-08 5.17456e-08 -0.0002117)
(9.98006e-08 1.92297e-07 -0.000211436)
(-1.3992e-08 -2.675e-07 -0.000201612)
(-6.2049e-08 -2.39172e-07 -0.000203956)
(-1.69535e-08 5.63175e-08 -0.000204095)
(-6.25881e-08 1.73217e-07 -0.000203908)
(-1.76431e-08 -5.78207e-08 -0.0002041)
(-6.29573e-08 -1.74459e-07 -0.000203912)
(1.24145e-08 2.63507e-07 -0.000201607)
(6.22539e-08 2.39382e-07 -0.000203954)
(1.4663e-08 -2.69272e-07 -0.000201614)
(6.28819e-08 -2.412e-07 -0.000203958)
(1.70656e-08 5.65316e-08 -0.000204094)
(6.26496e-08 1.73216e-07 -0.000203907)
(1.78515e-08 -5.83536e-08 -0.000204101)
(6.35767e-08 -1.76061e-07 -0.000203914)
(3.78617e-07 1.23106e-07 -0.000209015)
(3.14921e-07 1.42746e-07 -0.000211277)
(-2.4653e-08 -5.14261e-08 -0.000211707)
(-1.0153e-07 -1.95681e-07 -0.000211439)
(5.98882e-08 2.89399e-08 -0.000211635)
(2.05049e-07 1.05337e-07 -0.00021135)
(2.44633e-07 3.5655e-09 -0.000201363)
(2.38239e-07 6.07634e-08 -0.000203739)
(-2.42466e-07 2.69565e-09 -0.000201363)
(-2.37374e-07 6.04694e-08 -0.00020374)
(6.08403e-08 1.86103e-08 -0.000203906)
(1.75341e-07 6.22964e-08 -0.000203704)
(-6.05856e-08 1.85589e-08 -0.000203906)
(-1.75111e-07 6.22427e-08 -0.000203704)
(1.37141e-07 -4.03791e-07 -0.000209144)
(1.42896e-07 -3.13909e-07 -0.000211371)
(-3.76741e-07 1.21658e-07 -0.000209021)
(-3.14541e-07 1.42462e-07 -0.00021128)
(2.46359e-08 -5.12813e-08 -0.000211701)
(1.02213e-07 -1.96716e-07 -0.000211433)
(-6.02068e-08 2.90772e-08 -0.000211636)
(-2.04889e-07 1.05227e-07 -0.000211352)
(2.00995e-08 -1.74133e-08 -0.000211468)
(1.51115e-08 -3.99126e-09 -0.000211586)
(-1.01517e-08 6.20554e-09 -0.000211544)
(-3.46524e-10 8.84551e-09 -0.000211669)
(9.85809e-09 -7.32352e-10 -0.000211569)
(-7.21088e-09 -1.60203e-09 -0.000211432)
(6.11113e-10 7.9049e-09 -0.000211655)
(2.4408e-09 -1.48555e-08 -0.000211513)
(-3.40971e-08 -2.13263e-08 -0.000203667)
(-1.29844e-08 5.36281e-10 -0.000203801)
(5.56419e-09 3.92557e-09 -0.000203776)
(9.45634e-10 -7.37269e-09 -0.000203595)
(-8.26788e-09 2.7849e-09 -0.000203769)
(-1.42698e-09 -7.64951e-09 -0.000203593)
(9.35956e-09 5.05235e-09 -0.000211542)
(1.00274e-09 1.0398e-08 -0.000211671)
(-1.48002e-08 -3.48536e-09 -0.000211573)
(6.70307e-09 -1.926e-09 -0.000211439)
(-2.6989e-09 4.14876e-09 -0.000211652)
(-1.62245e-09 -1.33713e-08 -0.000211516)
(-1.83516e-08 -2.56946e-08 -0.000203862)
(2.94461e-09 -6.7695e-09 -0.000204)
(5.62058e-09 1.64525e-09 -0.000203975)
(-4.97468e-09 -5.23932e-09 -0.000203785)
(5.02625e-09 -2.95189e-09 -0.000203978)
(-5.33969e-09 4.34394e-09 -0.000203789)
(1.75933e-08 2.39566e-08 -0.000203856)
(-3.48927e-09 5.44704e-09 -0.000203996)
(1.83913e-08 -2.58426e-08 -0.000203864)
(-2.84076e-09 -7.03589e-09 -0.000204001)
(-5.73431e-09 1.07738e-09 -0.000203973)
(5.18797e-09 -4.75332e-09 -0.000203784)
(-5.08688e-09 -2.80716e-09 -0.00020398)
(5.37824e-09 4.23272e-09 -0.00020379)
(1.87635e-08 1.66525e-08 -0.000211477)
(1.5228e-08 3.99391e-09 -0.000211597)
(4.91084e-11 -8.99869e-09 -0.000211657)
(1.98545e-09 1.40629e-08 -0.000211515)
(1.07592e-08 1.08898e-09 -0.00021158)
(-7.20875e-09 1.66965e-09 -0.000211441)
(3.11718e-08 2.01621e-08 -0.000203671)
(1.27258e-08 -6.85593e-10 -0.000203806)
(-3.09546e-08 2.00836e-08 -0.000203671)
(-1.26748e-08 -7.26969e-10 -0.000203807)
(6.04855e-09 -3.84953e-09 -0.00020378)
(1.15503e-09 7.47749e-09 -0.000203596)
(-5.89947e-09 -3.89377e-09 -0.000203781)
(-1.12899e-09 7.46161e-09 -0.000203597)
(1.06191e-08 -7.11236e-09 -0.000211542)
(6.44722e-10 -9.25473e-09 -0.000211665)
(-1.86366e-08 1.6559e-08 -0.000211477)
(-1.56146e-08 4.18385e-09 -0.000211598)
(-3.7941e-10 -8.28388e-09 -0.000211653)
(-1.98704e-09 1.40573e-08 -0.00021151)
(-1.07391e-08 1.06778e-09 -0.000211581)
(7.36771e-09 1.59247e-09 -0.000211442)
(-1.0092e-08 2.64582e-10 -0.000211418)
(9.56309e-09 -3.79907e-10 -0.000211563)
(2.4605e-09 -1.43215e-08 -0.000211503)
(7.18356e-11 9.20981e-09 -0.00021165)
(9.21101e-09 -1.95569e-10 -0.000211562)
(-1.04075e-08 5.89946e-10 -0.000211415)
(1.99393e-10 8.96072e-09 -0.00021165)
(2.17913e-09 -1.3569e-08 -0.000211499)
(-7.2602e-10 -6.89668e-09 -0.000203568)
(-5.40376e-09 4.21317e-09 -0.000203765)
(5.18279e-09 4.26841e-09 -0.000203766)
(-2.91803e-09 -5.39443e-09 -0.000203569)
(-5.11506e-09 4.26867e-09 -0.000203764)
(2.16594e-09 -5.65302e-09 -0.000203567)
(-4.67041e-09 -1.82437e-08 -0.000211501)
(6.00993e-10 1.02543e-08 -0.000211647)
(-8.94191e-09 4.58172e-11 -0.000211572)
(1.05089e-08 5.8239e-10 -0.00021142)
(5.58391e-10 1.03973e-08 -0.000211646)
(-3.03346e-09 -1.51773e-08 -0.000211497)
(-4.48587e-09 5.56064e-09 -0.000203774)
(4.99965e-09 -3.48557e-09 -0.000203973)
(5.4475e-09 2.51624e-09 -0.000203969)
(-4.34147e-09 -5.5722e-09 -0.000203767)
(4.9768e-09 -3.50197e-09 -0.000203973)
(-4.51261e-09 5.15196e-09 -0.000203771)
(3.49872e-09 -8.03188e-09 -0.00020377)
(-5.14363e-09 3.02332e-09 -0.000203969)
(4.33919e-09 5.89164e-09 -0.000203776)
(-4.89649e-09 -3.72175e-09 -0.000203975)
(-5.47344e-09 2.43983e-09 -0.000203968)
(4.03536e-09 -6.48091e-09 -0.000203765)
(-5.04244e-09 -3.35688e-09 -0.000203974)
(4.53312e-09 5.10235e-09 -0.000203772)
(-9.66872e-09 -5.17535e-11 -0.000211428)
(9.87646e-09 4.61893e-10 -0.000211574)
(-1.66236e-10 -9.68396e-09 -0.000211652)
(1.97823e-09 1.32159e-08 -0.000211501)
(9.71424e-09 3.62124e-10 -0.000211573)
(-1.05224e-08 -6.11661e-10 -0.000211424)
(-2.84742e-09 5.52785e-09 -0.000203578)
(5.50324e-09 -4.21739e-09 -0.000203773)
(2.9035e-09 5.52629e-09 -0.000203578)
(-5.51725e-09 -4.21398e-09 -0.000203773)
(5.28339e-09 -4.31615e-09 -0.000203772)
(-3.27725e-09 5.27858e-09 -0.000203572)
(-5.19477e-09 -4.34723e-09 -0.000203772)
(3.05385e-09 5.36775e-09 -0.000203573)
(-2.21422e-09 1.37924e-08 -0.000211501)
(-4.06042e-12 -9.23875e-09 -0.000211648)
(1.01289e-08 -3.01235e-10 -0.000211429)
(-1.01814e-08 6.08474e-10 -0.000211575)
(8.72367e-12 -9.31703e-09 -0.000211648)
(-1.93356e-09 1.31296e-08 -0.000211497)
(-9.98365e-09 4.88686e-10 -0.000211574)
(1.06136e-08 -6.38993e-10 -0.000211424)
(-1.06503e-08 7.09532e-10 -0.000211415)
(8.90754e-09 -6.28542e-10 -0.000211562)
(2.17288e-09 -1.35676e-08 -0.000211499)
(-2.18217e-11 9.45842e-09 -0.000211649)
(8.93432e-09 -3.39451e-11 -0.000211562)
(-1.02763e-08 1.06676e-09 -0.000211415)
(1.89404e-10 9.0001e-09 -0.00021165)
(2.13345e-09 -1.34303e-08 -0.000211498)
(2.96459e-09 -5.35708e-09 -0.000203566)
(-5.38311e-09 4.2282e-09 -0.000203765)
(4.80189e-09 4.42937e-09 -0.000203767)
(-2.95522e-09 -5.33805e-09 -0.000203568)
(-7.66797e-09 3.23337e-09 -0.000203761)
(2.73114e-09 -5.50653e-09 -0.000203567)
(-2.90021e-09 -1.45317e-08 -0.000211497)
(6.75207e-10 1.10019e-08 -0.000211651)
(-1.40179e-08 -2.88472e-09 -0.000211567)
(9.7894e-09 2.93013e-10 -0.00021142)
(-2.13541e-09 5.50638e-09 -0.000211648)
(-1.25715e-09 -1.18063e-08 -0.000211501)
(-4.53597e-09 5.11215e-09 -0.00020377)
(4.96077e-09 -3.69358e-09 -0.000203972)
(5.44247e-09 2.55713e-09 -0.00020397)
(-4.38427e-09 -5.3717e-09 -0.000203766)
(4.96565e-09 -3.57886e-09 -0.000203973)
(-4.52719e-09 5.02715e-09 -0.000203771)
(3.87148e-09 -6.63627e-09 -0.000203765)
(-5.31485e-09 2.87877e-09 -0.000203969)
(4.40624e-09 5.39989e-09 -0.000203772)
(-4.82053e-09 -4.0278e-09 -0.000203974)
(-5.5991e-09 1.90092e-09 -0.000203968)
(4.5265e-09 -5.00878e-09 -0.000203766)
(-5.03809e-09 -3.3981e-09 -0.000203975)
(4.55021e-09 4.95573e-09 -0.000203772)
(-1.03743e-08 -5.5913e-10 -0.000211424)
(9.72651e-09 3.28727e-10 -0.000211573)
(-2.34143e-10 -9.84165e-09 -0.000211652)
(1.92864e-09 1.30688e-08 -0.000211501)
(9.7184e-09 3.39091e-10 -0.000211574)
(-1.05623e-08 -6.6688e-10 -0.000211423)
(-3.2872e-09 5.23668e-09 -0.000203572)
(5.42021e-09 -4.29777e-09 -0.000203771)
(3.23569e-09 5.2673e-09 -0.000203573)
(-5.44529e-09 -4.294e-09 -0.000203772)
(5.1449e-09 -4.38153e-09 -0.000203772)
(-3.16183e-09 5.28777e-09 -0.000203572)
(-5.09928e-09 -4.39676e-09 -0.000203773)
(3.17374e-09 5.2799e-09 -0.000203572)
(-1.90224e-09 1.29762e-08 -0.000211498)
(1.58436e-10 -9.61853e-09 -0.000211647)
(1.0584e-08 -6.73828e-10 -0.000211424)
(-1.01007e-08 5.11706e-10 -0.000211574)
(5.69017e-12 -9.32005e-09 -0.000211648)
(-1.82092e-09 1.28438e-08 -0.000211497)
(-9.90412e-09 4.30343e-10 -0.000211574)
(1.06841e-08 -7.18091e-10 -0.000211424)
(-1.07351e-08 7.63947e-10 -0.000211414)
(8.96718e-09 -1.7157e-10 -0.000211563)
(2.19071e-09 -1.35929e-08 -0.000211499)
(1.85604e-11 9.37751e-09 -0.00021165)
(9.15474e-09 -1.97358e-10 -0.000211565)
(-1.12259e-08 5.9077e-10 -0.000211415)
(1.86558e-10 8.99253e-09 -0.00021165)
(2.15669e-09 -1.34814e-08 -0.000211499)
(-5.40296e-10 -6.68266e-09 -0.000203562)
(-5.48938e-09 4.2274e-09 -0.000203764)
(5.50829e-09 4.15085e-09 -0.000203767)
(-3.25451e-09 -5.24319e-09 -0.000203568)
(-5.40373e-09 4.16218e-09 -0.000203765)
(1.92851e-09 -5.7059e-09 -0.000203566)
(-4.28126e-09 -1.73009e-08 -0.000211498)
(7.66477e-10 1.06353e-08 -0.000211647)
(-9.10291e-09 -6.98843e-12 -0.000211571)
(1.05558e-08 6.47391e-10 -0.000211416)
(6.45864e-10 1.05741e-08 -0.000211646)
(-2.92405e-09 -1.49206e-08 -0.000211498)
(-4.56496e-09 5.03018e-09 -0.000203771)
(4.94322e-09 -3.7264e-09 -0.000203973)
(5.42066e-09 2.59698e-09 -0.00020397)
(-4.39442e-09 -5.36387e-09 -0.000203767)
(4.95712e-09 -3.5616e-09 -0.000203973)
(-4.57322e-09 4.93414e-09 -0.000203771)
(3.66639e-09 -7.27803e-09 -0.000203766)
(-5.04032e-09 3.38353e-09 -0.000203969)
(4.43063e-09 5.32939e-09 -0.000203773)
(-4.84607e-09 -3.95403e-09 -0.000203975)
(-5.44871e-09 2.51906e-09 -0.000203969)
(4.10234e-09 -6.23687e-09 -0.000203765)
(-5.02933e-09 -3.40425e-09 -0.000203975)
(4.57722e-09 4.91774e-09 -0.000203773)
(-1.0422e-08 -5.91195e-10 -0.000211424)
(9.74044e-09 3.40059e-10 -0.000211573)
(-1.91086e-10 -9.73592e-09 -0.000211652)
(1.92563e-09 1.30754e-08 -0.000211501)
(9.75191e-09 3.6984e-10 -0.000211574)
(-1.05603e-08 -6.65996e-10 -0.000211424)
(-3.38815e-09 5.19042e-09 -0.000203573)
(5.4817e-09 -4.26997e-09 -0.000203772)
(3.42175e-09 5.18622e-09 -0.000203573)
(-5.48391e-09 -4.27751e-09 -0.000203772)
(5.3131e-09 -4.31163e-09 -0.000203772)
(-3.18719e-09 5.28189e-09 -0.000203572)
(-5.26081e-09 -4.32692e-09 -0.000203773)
(3.03317e-09 5.33838e-09 -0.000203573)
(-1.92561e-09 1.30315e-08 -0.000211498)
(9.67782e-11 -9.50046e-09 -0.000211647)
(1.06959e-08 -7.42573e-10 -0.000211425)
(-1.00813e-08 5.03185e-10 -0.000211574)
(2.07594e-11 -9.35112e-09 -0.000211648)
(-1.8618e-09 1.29527e-08 -0.000211497)
(-1.00173e-08 4.96666e-10 -0.000211574)
(1.0653e-08 -6.9378e-10 -0.000211424)
(-1.07006e-08 8.26922e-10 -0.000211419)
(9.49025e-09 -2.79321e-10 -0.000211566)
(2.1559e-09 -1.35341e-08 -0.000211499)
(-2.98968e-11 9.47721e-09 -0.00021165)
(9.04665e-09 -1.39888e-10 -0.000211566)
(-1.05826e-08 7.16894e-10 -0.000211418)
(1.82538e-10 9.00076e-09 -0.00021165)
(2.13551e-09 -1.34407e-08 -0.000211499)
(2.25029e-09 -5.63336e-09 -0.000203567)
(-5.31749e-09 4.26118e-09 -0.000203765)
(5.05099e-09 4.3257e-09 -0.000203767)
(-3.01586e-09 -5.32026e-09 -0.000203568)
(-7.55582e-09 3.27258e-09 -0.000203761)
(2.85638e-09 -5.45732e-09 -0.000203567)
(-2.88999e-09 -1.45027e-08 -0.000211498)
(6.02076e-10 1.08667e-08 -0.000211652)
(-1.40343e-08 -2.88497e-09 -0.000211567)
(9.87591e-09 3.75376e-10 -0.00021142)
(-2.18564e-09 5.39139e-09 -0.000211648)
(-1.33076e-09 -1.1952e-08 -0.000211502)
(-4.54482e-09 5.08329e-09 -0.000203771)
(4.95704e-09 -3.70523e-09 -0.000203973)
(5.43142e-09 2.56776e-09 -0.00020397)
(-4.39249e-09 -5.35865e-09 -0.000203767)
(4.96053e-09 -3.56239e-09 -0.000203974)
(-4.53105e-09 5.02361e-09 -0.000203771)
(3.89298e-09 -6.57786e-09 -0.000203766)
(-5.31943e-09 2.86098e-09 -0.000203969)
(4.40252e-09 5.39065e-09 -0.000203773)
(-4.8267e-09 -4.01004e-09 -0.000203975)
(-5.60837e-09 1.85423e-09 -0.000203968)
(4.51155e-09 -5.05909e-09 -0.000203766)
(-5.02669e-09 -3.40459e-09 -0.000203975)
(4.55334e-09 4.95907e-09 -0.000203773)
(-1.03288e-08 -5.4126e-10 -0.000211424)
(9.69886e-09 3.17453e-10 -0.000211573)
(-1.94789e-10 -9.75025e-09 -0.000211653)
(1.94388e-09 1.31013e-08 -0.000211501)
(9.67404e-09 3.25956e-10 -0.000211574)
(-1.06154e-08 -6.89761e-10 -0.000211424)
(-3.20284e-09 5.26586e-09 -0.000203573)
(5.409e-09 -4.29822e-09 -0.000203772)
(3.28927e-09 5.243e-09 -0.000203573)
(-5.45674e-09 -4.28981e-09 -0.000203772)
(5.18889e-09 -4.35442e-09 -0.000203772)
(-3.19502e-09 5.28343e-09 -0.000203572)
(-5.16666e-09 -4.36185e-09 -0.000203773)
(3.04782e-09 5.33135e-09 -0.000203573)
(-1.89344e-09 1.29521e-08 -0.000211498)
(1.54461e-10 -9.60799e-09 -0.000211647)
(1.05938e-08 -6.82491e-10 -0.000211425)
(-1.00929e-08 5.08855e-10 -0.000211574)
(1.70418e-11 -9.33373e-09 -0.000211648)
(-1.82813e-09 1.2869e-08 -0.000211497)
(-9.96142e-09 4.67558e-10 -0.000211575)
(1.06787e-08 -7.12306e-10 -0.000211424)
(-1.06169e-08 7.62114e-10 -0.000211418)
(9.38045e-09 -2.34649e-10 -0.000211565)
(2.18547e-09 -1.35927e-08 -0.000211499)
(2.88961e-12 9.40054e-09 -0.00021165)
(8.94551e-09 -4.60281e-11 -0.000211566)
(-1.0498e-08 6.72515e-10 -0.000211418)
(2.06721e-10 8.95167e-09 -0.00021165)
(2.14993e-09 -1.34696e-08 -0.000211499)
(-4.61498e-10 -6.65459e-09 -0.000203562)
(-5.44841e-09 4.24378e-09 -0.000203764)
(5.01376e-09 4.32889e-09 -0.000203766)
(-2.85449e-09 -5.38736e-09 -0.000203568)
(-5.2138e-09 4.22608e-09 -0.000203764)
(2.08476e-09 -5.64212e-09 -0.000203566)
(-4.32016e-09 -1.73827e-08 -0.000211498)
(7.48448e-10 1.05946e-08 -0.000211647)
(-8.93162e-09 7.15696e-11 -0.000211571)
(1.05595e-08 6.81028e-10 -0.000211417)
(6.10414e-10 1.05059e-08 -0.000211646)
(-2.96342e-09 -1.49937e-08 -0.000211498)
(-4.56776e-09 5.03587e-09 -0.000203771)
(4.95324e-09 -3.69818e-09 -0.000203973)
(5.45234e-09 2.5018e-09 -0.00020397)
(-4.33333e-09 -5.51668e-09 -0.000203767)
(4.9918e-09 -3.48329e-09 -0.000203973)
(-4.54673e-09 4.9991e-09 -0.000203771)
(3.64348e-09 -7.34827e-09 -0.000203767)
(-5.07082e-09 3.30295e-09 -0.000203969)
(4.42652e-09 5.36049e-09 -0.000203773)
(-4.84812e-09 -3.93551e-09 -0.000203975)
(-5.46017e-09 2.48633e-09 -0.000203969)
(4.06964e-09 -6.32231e-09 -0.000203765)
(-5.05253e-09 -3.34401e-09 -0.000203975)
(4.57038e-09 4.93784e-09 -0.000203773)
(-1.0398e-08 -5.75414e-10 -0.000211424)
(9.70634e-09 3.30733e-10 -0.000211573)
(-2.2177e-10 -9.80486e-09 -0.000211652)
(1.93279e-09 1.30915e-08 -0.000211501)
(9.58073e-09 2.83124e-10 -0.000211573)
(-1.05274e-08 -6.47467e-10 -0.000211424)
(-3.29864e-09 5.22703e-09 -0.000203573)
(5.51094e-09 -4.25046e-09 -0.000203772)
(3.27108e-09 5.25264e-09 -0.000203573)
(-5.43316e-09 -4.28874e-09 -0.000203772)
(5.06125e-09 -4.39408e-09 -0.000203772)
(-3.14187e-09 5.29944e-09 -0.000203572)
(-5.00699e-09 -4.41491e-09 -0.000203772)
(3.01559e-09 5.34752e-09 -0.000203573)
(-1.92545e-09 1.30324e-08 -0.000211499)
(1.26675e-10 -9.54439e-09 -0.000211648)
(1.06381e-08 -7.06223e-10 -0.000211425)
(-1.00438e-08 4.9264e-10 -0.000211574)
(2.43914e-12 -9.32174e-09 -0.000211648)
(-1.8558e-09 1.29437e-08 -0.000211497)
(-9.85714e-09 4.1354e-10 -0.000211574)
(1.06396e-08 -6.86811e-10 -0.000211424)
(-1.03809e-08 5.74963e-10 -0.000211418)
(8.67198e-09 1.25007e-10 -0.000211564)
(2.17901e-09 -1.35769e-08 -0.000211499)
(9.59496e-11 9.24093e-09 -0.00021165)
(7.77547e-09 -3.40446e-12 -0.000211566)
(-9.82427e-09 3.19738e-10 -0.000211417)
(5.85587e-10 8.27793e-09 -0.000211651)
(2.20469e-09 -1.3566e-08 -0.000211499)
(1.96003e-09 -5.73275e-09 -0.000203567)
(-5.00298e-09 4.34508e-09 -0.000203763)
(3.58604e-09 4.80397e-09 -0.000203763)
(-2.4818e-09 -5.46603e-09 -0.000203569)
(-7.13363e-09 3.34207e-09 -0.000203757)
(1.81493e-09 -5.80805e-09 -0.000203569)
(-2.92517e-09 -1.45679e-08 -0.000211498)
(4.55847e-10 1.05895e-08 -0.000211652)
(-1.40736e-08 -2.39287e-09 -0.000211565)
(8.92252e-09 -1.12168e-10 -0.00021142)
(-2.90893e-09 4.10565e-09 -0.000211649)
(-1.31622e-09 -1.19131e-08 -0.000211502)
(-4.50624e-09 5.17846e-09 -0.000203771)
(5.03519e-09 -3.48535e-09 -0.000203973)
(5.64666e-09 2.01757e-09 -0.00020397)
(-4.35385e-09 -5.43895e-09 -0.000203767)
(5.16019e-09 -3.02957e-09 -0.000203973)
(-4.504e-09 5.08311e-09 -0.000203771)
(3.87953e-09 -6.61617e-09 -0.000203766)
(-5.3837e-09 2.68889e-09 -0.000203969)
(4.38031e-09 5.44557e-09 -0.000203773)
(-4.90753e-09 -3.78711e-09 -0.000203975)
(-5.88394e-09 1.12109e-09 -0.000203969)
(4.50357e-09 -5.06856e-09 -0.000203767)
(-5.27757e-09 -2.74997e-09 -0.000203976)