/*--------------------------------*- C++ -*----------------------------------*\
| =========                 |                                                 |
| \\      /  F ield         | OpenFOAM: The Open Source CFD Toolbox           |
|  \\    /   O peration     | Version:  2206                                  |
|   \\  /    A nd           | Website:  www.openfoam.com                      |
|    \\/     M anipulation  |                                                 |
\*---------------------------------------------------------------------------*/
FoamFile
{
    version     2.0;
    format      ascii;
    arch        "LSB;label=32;scalar=64";
    class       volVectorField;
    location    "0.2";
    object      U;
}
// * * * * * * * * * * * * * * * * * * * * * * * * * * * * * * * * * * * * * //

dimensions      [0 1 -1 0 0 0 0];

internalField   nonuniform List<vector> 
66701
(
(7.31687e-06 8.3542e-06 0.0803071)
(9.99576e-06 -1.1869e-08 0.0778528)
(2.22536e-05 5.45271e-06 0.0916333)
(2.80486e-05 4.03731e-06 0.102244)
(1.11392e-05 -9.87546e-07 0.0863168)
(3.91616e-05 8.98504e-07 0.111633)
(3.79552e-05 1.86051e-06 0.109571)
(1.09213e-05 1.18082e-07 0.0891393)
(1.06038e-05 2.21246e-06 0.077854)
(2.32613e-05 -3.50021e-06 0.091633)
(2.9166e-05 -1.85176e-06 0.102243)
(1.12235e-05 2.90484e-06 0.0863168)
(3.9225e-05 6.64837e-07 0.111633)
(1.09939e-05 1.4748e-06 0.0891388)
(3.79392e-05 7.79129e-08 0.109572)
(8.68216e-06 -6.18608e-06 0.0803051)
(1.70018e-06 5.80045e-06 0.0590376)
(-2.03282e-07 4.31419e-06 0.041056)
(-7.03156e-07 2.98816e-06 0.0259781)
(-6.21998e-07 1.71362e-06 0.0138206)
(-2.43778e-07 5.72248e-07 0.00422503)
(4.88875e-06 -3.77124e-07 0.0588286)
(2.28245e-06 -3.22005e-07 0.0409496)
(1.00887e-06 -2.67878e-07 0.0259264)
(3.60016e-07 -1.92504e-07 0.0137987)
(8.40197e-08 -7.31342e-08 0.00421983)
(5.16495e-06 2.48317e-06 0.0570704)
(1.99543e-06 1.85348e-06 0.0395548)
(6.73507e-07 1.27879e-06 0.0249683)
(1.07619e-07 7.18545e-07 0.0132596)
(-1.59623e-08 2.37932e-07 0.00404638)
(6.05788e-06 -3.30269e-07 0.0570716)
(2.76644e-06 8.43703e-08 0.039556)
(1.2504e-06 1.83894e-07 0.0249691)
(4.54947e-07 1.60638e-07 0.0132596)
(1.01068e-07 5.85455e-08 0.00404622)
(3.12243e-06 -3.24867e-06 0.059037)
(1.14663e-06 -1.93091e-06 0.041056)
(3.34247e-07 -1.13532e-06 0.0259784)
(4.0739e-09 -5.75931e-07 0.0138212)
(-3.18081e-08 -1.82376e-07 0.00422529)
(5.50776e-06 2.58883e-06 0.0588298)
(2.83253e-06 2.21882e-06 0.0409504)
(1.40864e-06 1.66663e-06 0.0259269)
(5.92814e-07 1.0242e-06 0.0137989)
(1.60805e-07 3.52266e-07 0.00421959)
(2.90946e-06 -3.96209e-07 0.0582802)
(1.28501e-06 -2.56566e-08 0.0404629)
(5.69236e-07 6.36187e-08 0.0255692)
(1.96129e-07 4.18948e-08 0.0135885)
(4.79439e-08 1.22361e-08 0.00414947)
(2.52031e-06 3.29312e-07 0.0585542)
(1.10822e-06 3.81403e-07 0.040663)
(4.95698e-07 3.04648e-07 0.025703)
(1.71389e-07 1.80328e-07 0.013664)
(4.3006e-08 5.9325e-08 0.00417429)
(3.16103e-06 2.18856e-06 0.0582809)
(1.50969e-06 1.55379e-06 0.040463)
(7.3535e-07 1.05754e-06 0.0255692)
(2.95225e-07 6.22662e-07 0.0135887)
(8.13086e-08 2.10296e-07 0.0041495)
(2.61458e-06 1.24666e-06 0.0585538)
(1.18377e-06 9.89837e-07 0.0406626)
(5.51424e-07 7.13941e-07 0.0257026)
(2.04123e-07 4.28414e-07 0.0136638)
(5.37769e-08 1.45911e-07 0.00417422)
(4.88095e-06 1.36702e-05 0.0803518)
(6.67494e-06 6.90052e-06 0.0803043)
(0.000220105 0.000216083 0.12171)
(1.98405e-05 2.3442e-05 0.103794)
(1.65373e-05 1.81964e-05 0.103677)
(9.29882e-07 2.7189e-05 0.0917296)
(9.41492e-06 6.01112e-06 0.122317)
(1.93263e-05 6.1865e-05 0.112726)
(3.74134e-05 5.44908e-07 0.111633)
(2.09384e-05 4.27421e-06 0.0916334)
(6.66996e-05 1.22495e-07 0.119213)
(1.75803e-06 -1.44995e-06 0.122286)
(5.5694e-05 1.62953e-05 0.112693)
(-2.86958e-06 -2.58493e-06 0.122606)
(3.73801e-05 4.66088e-07 0.111633)
(2.15167e-05 -3.00206e-06 0.0916336)
(6.67006e-05 1.14219e-06 0.119214)
(4.36511e-06 2.68652e-07 0.122284)
(-5.0523e-07 5.61284e-06 0.122606)
(5.63554e-05 -1.52743e-05 0.112692)
(7.31462e-06 -5.62529e-06 0.080303)
(0.000218847 -0.000215417 0.121713)
(1.71461e-05 -1.69534e-05 0.103682)
(-1.10448e-05 -4.70255e-06 0.0802557)
(-1.61165e-05 -1.17283e-05 0.0968299)
(6.13592e-06 9.11874e-06 0.0794222)
(5.66443e-06 6.27203e-06 0.0793696)
(1.49438e-05 1.65401e-05 0.0969923)
(-6.71918e-06 -3.04835e-06 0.0793776)
(-8.81409e-06 -4.18308e-06 0.0793123)
(-2.25519e-05 -4.4034e-05 0.110396)
(8.87662e-06 1.60496e-05 0.0910325)
(3.88737e-05 7.14653e-05 0.11668)
(-1.68429e-05 -1.17012e-05 0.103804)
(2.60948e-05 4.97174e-05 0.110565)
(-7.51674e-06 -9.8264e-06 0.0909716)
(-3.14073e-05 -6.07189e-05 0.116605)
(-4.7892e-05 -2.19334e-05 0.110247)
(1.25231e-05 7.42073e-06 0.0908344)
(6.56395e-05 3.37706e-05 0.116595)
(-1.98634e-05 -1.67484e-05 0.103513)
(4.83444e-05 2.0925e-05 0.110447)
(-1.46948e-05 -6.8994e-06 0.0907294)
(-6.66878e-05 -3.39051e-05 0.116437)
(-1.33541e-05 3.1569e-06 0.0862039)
(3.62359e-05 1.38716e-06 0.109571)
(1.0169e-05 -1.40677e-07 0.0891382)
(-4.17779e-05 2.70447e-07 0.111402)
(1.04838e-05 -1.47275e-06 0.0863136)
(-4.06689e-05 -4.9165e-07 0.109342)
(-1.33605e-05 1.26038e-06 0.0890166)
(-1.25077e-05 3.16982e-06 0.0778047)
(2.62248e-05 3.67693e-06 0.102245)
(-2.52773e-05 -3.91665e-06 0.0915453)
(8.49264e-06 -2.31738e-07 0.0778514)
(-3.16701e-05 -1.73161e-06 0.102085)
(-1.34082e-05 -1.49356e-06 0.0862041)
(1.01484e-05 1.29167e-06 0.0891377)
(3.59207e-05 1.78289e-07 0.109572)
(-4.17011e-05 9.56193e-07 0.111402)
(1.03161e-05 3.02284e-06 0.0863138)
(-1.33048e-05 8.32473e-08 0.0890161)
(-4.09126e-05 2.09547e-06 0.109343)
(-1.20359e-05 -1.15953e-06 0.0778065)
(2.69619e-05 -1.86469e-06 0.102244)
(-2.42874e-05 5.65378e-06 0.0915451)
(8.95066e-06 2.08408e-06 0.077853)
(-3.08446e-05 3.80836e-06 0.102085)
(-1.00396e-05 6.42694e-06 0.080254)
(-1.57189e-05 1.52648e-05 0.0968435)
(-7.70692e-06 6.66593e-06 0.0793131)
(-7.22196e-06 7.41362e-06 0.0793846)
(-4.85097e-05 2.3716e-05 0.110247)
(6.46276e-05 -3.51012e-05 0.116606)
(-1.87673e-05 1.83211e-05 0.103517)
(-6.60799e-05 3.49919e-05 0.11645)
(-1.38206e-05 8.653e-06 0.090724)
(-2.22897e-05 4.9205e-05 0.110404)
(-1.92961e-05 1.67528e-05 0.103841)
(-8.90749e-06 1.37089e-05 0.0909948)
(-3.0397e-05 6.35936e-05 0.116587)
(-6.22794e-06 9.1561e-06 0.0804588)
(1.13473e-06 -3.23887e-06 0.122752)
(1.14931e-06 -3.8892e-06 0.122825)
(3.85111e-06 8.59793e-07 0.122822)
(2.16161e-06 3.21008e-06 0.122849)
(-5.56525e-07 -5.35549e-07 0.122752)
(-1.02446e-06 -3.10008e-06 0.122825)
(-3.23761e-06 1.5831e-06 0.122822)
(-3.82584e-07 3.50289e-06 0.12285)
(6.08453e-06 3.86233e-06 0.122824)
(4.08507e-06 2.62851e-06 0.122852)
(-5.78718e-06 3.2946e-06 0.122824)
(-2.75766e-06 3.3046e-06 0.122852)
(-6.33754e-05 -6.29667e-05 0.117483)
(-0.000216586 -0.00022275 0.121687)
(0.000218447 5.52332e-05 0.120231)
(5.55637e-05 0.000211628 0.120195)
(6.58936e-05 5.93365e-05 0.117592)
(-0.000211615 -5.36233e-05 0.120184)
(-5.31281e-05 -0.000214849 0.120127)
(7.48117e-06 -0.000252398 0.120702)
(4.94012e-06 7.20937e-05 0.11667)
(1.38343e-05 0.000254047 0.119216)
(-1.50213e-05 -4.69906e-05 0.112848)
(-5.10303e-06 -0.000237011 0.119249)
(7.26755e-07 0.000256377 0.120636)
(-3.29536e-06 -5.76703e-05 0.116755)
(-0.000261521 -3.71284e-06 0.1212)
(6.79212e-05 5.77115e-07 0.118524)
(0.000256476 3.7122e-07 0.121543)
(-6.85997e-05 4.30053e-07 0.119073)
(0.000260002 9.86605e-07 0.121262)
(-7.0243e-05 -9.86183e-07 0.118377)
(-0.000261229 7.1855e-08 0.121479)
(-0.000261968 -5.37672e-06 0.120568)
(6.56648e-05 3.33697e-06 0.116645)
(0.000255457 1.39709e-05 0.119195)
(-5.61447e-05 -1.90198e-05 0.112524)
(-0.000249061 -1.57404e-05 0.119098)
(0.0002611 1.59666e-06 0.120635)
(-6.88365e-05 -5.09319e-06 0.116487)
(-0.000262385 5.07134e-06 0.1212)
(0.000256673 1.7771e-06 0.121544)
(6.76285e-05 1.03956e-06 0.118526)
(-6.85313e-05 1.10997e-06 0.119073)
(0.000257805 9.55321e-07 0.121265)
(-0.000259558 1.76669e-06 0.121479)
(-7.09525e-05 2.75242e-06 0.118377)
(-0.000258628 6.94265e-06 0.120566)
(6.69329e-05 -1.64619e-06 0.116646)
(0.00025489 -1.38667e-05 0.119195)
(-5.53446e-05 2.04832e-05 0.112522)
(0.000261204 -4.12047e-07 0.120636)
(-6.90583e-05 7.22177e-06 0.116487)
(-0.000246473 1.79796e-05 0.119098)
(-6.0625e-05 6.57925e-05 0.117489)
(-0.000217625 0.0002258 0.121691)
(5.32831e-05 -0.00021896 0.120211)
(-5.40325e-05 0.000214735 0.120146)
(-0.000206791 5.59997e-05 0.120168)
(2.90515e-07 6.90619e-06 0.0590349)
(-1.93383e-06 3.58493e-06 0.04106)
(-2.34977e-06 2.05292e-06 0.0259817)
(-1.71733e-06 1.13326e-06 0.0138226)
(-6.39114e-07 3.90388e-07 0.00422559)
(1.78761e-06 4.60256e-06 0.0590332)
(2.23446e-07 3.59363e-06 0.0410531)
(-4.05406e-07 2.62329e-06 0.0259765)
(-4.98865e-07 1.56593e-06 0.0138198)
(-2.21515e-07 5.38945e-07 0.00422479)
(-2.57719e-06 9.82054e-06 0.0570795)
(-3.08492e-06 4.60979e-06 0.0395657)
(-2.60383e-06 2.10683e-06 0.024975)
(-1.61805e-06 9.31614e-07 0.0132625)
(-5.40155e-07 2.69398e-07 0.00404712)
(4.64799e-06 1.71736e-06 0.0570648)
(2.13732e-06 1.41337e-06 0.0395507)
(8.72759e-07 1.0034e-06 0.024966)
(2.15215e-07 5.61732e-07 0.0132585)
(1.07891e-08 1.84133e-07 0.00404607)
(5.29619e-06 -2.24166e-07 0.0570665)
(2.71287e-06 1.44598e-08 0.0395527)
(1.32841e-06 1.4141e-07 0.0249674)
(5.0239e-07 1.60873e-07 0.013259)
(1.11077e-07 6.86541e-08 0.00404608)
(2.60218e-06 -2.88833e-06 0.0590331)
(1.12106e-06 -1.86675e-06 0.0410539)
(3.62274e-07 -1.18552e-06 0.0259776)
(9.40171e-10 -6.3649e-07 0.013821)
(-4.23868e-08 -2.08393e-07 0.00422528)
(-4.96631e-06 -7.80612e-07 0.0590399)
(-2.55752e-06 6.32788e-07 0.0410667)
(-1.40184e-06 9.08361e-07 0.0259867)
(-6.67602e-07 6.87656e-07 0.0138254)
(-2.00551e-07 2.52334e-07 0.00422651)
(-4.49251e-06 3.5962e-06 0.0582604)
(-2.05215e-06 3.19774e-06 0.0404605)
(-1.01516e-06 2.42922e-06 0.0255703)
(-4.38036e-07 1.48928e-06 0.0135896)
(-1.26127e-07 5.13369e-07 0.00414985)
(1.98063e-06 2.04963e-07 0.058549)
(1.25146e-06 3.55441e-07 0.0406596)
(6.43105e-07 3.35268e-07 0.0257012)
(2.2795e-07 2.2131e-07 0.0136632)
(4.7596e-08 7.90805e-08 0.0041741)
(2.55771e-06 -7.22606e-07 0.0582751)
(1.41148e-06 -1.2498e-07 0.0404599)
(6.81776e-07 1.23011e-07 0.0255677)
(2.29727e-07 1.41728e-07 0.0135879)
(4.50214e-08 6.40896e-08 0.00414933)
(-3.74887e-06 1.52286e-06 0.0585328)
(-1.47366e-06 1.36384e-06 0.0406591)
(-6.35753e-07 1.02393e-06 0.0257031)
(-2.26908e-07 6.1663e-07 0.0136646)
(-5.77547e-08 2.07864e-07 0.00417453)
(-7.21951e-06 6.9703e-08 0.057082)
(-3.28992e-06 7.32563e-07 0.0395731)
(-1.53633e-06 7.56447e-07 0.0249818)
(-6.08228e-07 5.33019e-07 0.013267)
(-1.51416e-07 1.90398e-07 0.00404863)
(-4.31783e-06 -1.98608e-06 0.0582614)
(-1.86656e-06 -1.77705e-06 0.0404609)
(-8.64046e-07 -1.35355e-06 0.0255706)
(-3.42635e-07 -8.36196e-07 0.0135899)
(-9.28908e-08 -2.90596e-07 0.00414993)
(2.0224e-06 1.01903e-06 0.0585488)
(1.29755e-06 7.73722e-07 0.0406593)
(6.85242e-07 5.54085e-07 0.025701)
(2.55923e-07 3.35381e-07 0.0136631)
(5.76726e-08 1.15335e-07 0.00417406)
(2.67377e-06 2.21648e-06 0.0582761)
(1.56854e-06 1.4632e-06 0.0404604)
(8.19507e-07 9.13167e-07 0.025568)
(3.20728e-07 5.00288e-07 0.0135883)
(7.80569e-08 1.58714e-07 0.00414943)
(-3.65489e-06 -1.23736e-07 0.0585325)
(-1.39745e-06 -9.52325e-08 0.0406587)
(-5.80204e-07 -4.43076e-08 0.0257028)
(-1.94218e-07 -1.33634e-08 0.0136644)
(-4.69387e-08 3.02408e-10 0.00417446)
(-6.35519e-06 1.86354e-06 0.0570835)
(-2.53307e-06 1.06883e-06 0.0395748)
(-9.58776e-07 6.55877e-07 0.024983)
(-2.55624e-07 3.43447e-07 0.0132673)
(-3.0973e-08 1.12856e-07 0.00404856)
(-3.89008e-06 2.95214e-06 0.0590397)
(-1.44152e-06 1.48461e-06 0.0410673)
(-4.84122e-07 7.95685e-07 0.0259876)
(-8.75536e-08 3.8478e-07 0.0138264)
(1.75026e-09 1.21584e-07 0.00422691)
(-2.93827e-06 4.08905e-06 0.0573471)
(-1.37194e-06 1.63373e-06 0.0397539)
(-6.2376e-07 6.17552e-07 0.0250947)
(-2.34419e-07 1.77468e-07 0.0133267)
(-5.61556e-08 3.23177e-08 0.00406706)
(-3.23308e-06 2.98369e-06 0.0590201)
(-1.83507e-06 9.20764e-07 0.0410518)
(-1.06457e-06 2.14648e-07 0.0259773)
(-5.3848e-07 -2.89156e-08 0.0138209)
(-1.70374e-07 -2.93191e-08 0.00422541)
(5.44604e-07 6.25513e-06 0.0593488)
(-1.79751e-06 4.50448e-06 0.0412583)
(-2.36862e-06 3.18478e-06 0.0260972)
(-1.80734e-06 1.90813e-06 0.0138801)
(-6.90744e-07 6.64712e-07 0.00424196)
(-4.42621e-07 7.07934e-06 0.0573708)
(-2.71427e-06 4.40915e-06 0.0397649)
(-2.94672e-06 2.90216e-06 0.0251002)
(-2.08426e-06 1.69682e-06 0.0133297)
(-7.66796e-07 5.88535e-07 0.00406767)
(-5.58118e-06 1.07688e-06 0.0573719)
(-5.48267e-06 1.98321e-06 0.0397758)
(-4.30229e-06 2.02493e-06 0.0251095)
(-2.61765e-06 1.46284e-06 0.0133352)
(-8.95411e-07 5.41268e-07 0.00406947)
(9.3467e-07 4.66058e-06 0.0593421)
(-1.13476e-06 4.13339e-06 0.0412514)
(-1.70277e-06 3.2243e-06 0.0260927)
(-1.35942e-06 1.98812e-06 0.0138773)
(-5.29751e-07 6.94008e-07 0.00424081)
(1.6508e-06 3.31937e-06 0.0573653)
(6.25941e-08 2.96342e-06 0.039758)
(-5.78354e-07 2.30239e-06 0.0250959)
(-6.19666e-07 1.4031e-06 0.0133266)
(-2.64152e-07 4.85949e-07 0.00406658)
(-5.75095e-06 -7.01895e-08 0.0573647)
(-3.40383e-06 1.50145e-06 0.0397673)
(-2.11894e-06 1.65469e-06 0.0251036)
(-1.1351e-06 1.17368e-06 0.0133309)
(-3.65298e-07 4.26825e-07 0.00406792)
(-5.88604e-06 1.49269e-06 0.0593496)
(-5.4644e-06 2.96474e-06 0.041268)
(-4.29484e-06 2.88515e-06 0.0261054)
(-2.64207e-06 1.98849e-06 0.0138849)
(-9.15706e-07 7.21816e-07 0.00424348)
(-6.03985e-06 7.45481e-07 0.0593413)
(-4.50654e-06 2.44222e-06 0.0412607)
(-3.15299e-06 2.47637e-06 0.0261006)
(-1.80375e-06 1.69847e-06 0.0138818)
(-5.97556e-07 6.05577e-07 0.00424223)
(-6.93758e-06 3.44044e-06 0.0588358)
(-3.48241e-06 2.95711e-06 0.0409651)
(-1.70645e-06 2.23956e-06 0.0259383)
(-7.23785e-07 1.38638e-06 0.0138054)
(-1.96542e-07 4.81191e-07 0.00422188)
(4.07335e-06 -8.32013e-07 0.0588251)
(2.10812e-06 -6.81726e-07 0.0409474)
(1.02333e-06 -4.94951e-07 0.0259253)
(3.9105e-07 -3.1152e-07 0.0137983)
(9.59097e-08 -1.09883e-07 0.00421974)
(-6.40668e-06 -1.38342e-06 0.0588376)
(-2.97938e-06 -1.13731e-06 0.0409663)
(-1.32327e-06 -8.54939e-07 0.0259392)
(-4.9224e-07 -5.42045e-07 0.0138058)
(-1.17761e-07 -1.9206e-07 0.00422171)
(4.5266e-06 2.67164e-06 0.0588269)
(2.55123e-06 2.31253e-06 0.0409487)
(1.3716e-06 1.75415e-06 0.0259263)
(6.0654e-07 1.09094e-06 0.0137988)
(1.69832e-07 3.80263e-07 0.0042196)
(-4.11765e-06 2.43641e-06 0.0573658)
(-1.72441e-06 1.01172e-06 0.0397683)
(-7.02418e-07 4.153e-07 0.0251044)
(-2.25505e-07 1.36733e-07 0.0133317)
(-4.61285e-08 3.13233e-08 0.00406828)
(-3.88055e-06 2.54127e-06 0.0593406)
(-1.86909e-06 9.06758e-07 0.0412595)
(-8.85118e-07 2.3326e-07 0.026099)
(-3.55813e-07 -1.02423e-08 0.0138808)
(-9.35951e-08 -2.54644e-08 0.00424216)
(-3.20795e-06 3.71423e-06 0.0593445)
(-1.48101e-06 1.57784e-06 0.0412615)
(-6.6029e-07 5.92768e-07 0.0261003)
(-2.45152e-07 1.57357e-07 0.0138819)
(-6.00867e-08 2.17123e-08 0.00424256)
(-1.18197e-06 -6.97261e-07 0.122348)
(-0.000217522 -0.000213115 0.121709)
(9.73336e-07 2.42916e-06 0.122752)
(-1.08403e-06 1.28748e-06 0.122287)
(1.30417e-06 -5.05123e-06 0.122319)
(-0.000216366 -0.000215076 0.121711)
(-2.54893e-06 -2.39537e-06 0.122749)
(-8.35054e-07 -1.10325e-06 0.122282)
(7.46795e-07 2.58052e-06 0.122314)
(-0.000216782 -0.000214517 0.121706)
(2.9366e-07 8.02316e-08 0.122749)
(-1.33076e-07 5.22208e-07 0.122283)
(3.1426e-06 -8.6244e-07 0.122315)
(-0.000215635 -0.000216412 0.121706)
(-6.95383e-07 -2.51389e-07 0.122752)
(1.06632e-06 -3.03312e-07 0.122284)
(2.10813e-06 -4.50652e-07 0.122317)
(-0.000215148 -0.000216301 0.121707)
(-8.68401e-07 8.33809e-08 0.122751)
(5.78203e-07 -4.32739e-08 0.122285)
(1.67026e-06 -6.3023e-07 0.122317)
(-0.00021552 -0.000216433 0.121707)
(-7.75489e-07 2.456e-07 0.122752)
(4.87638e-07 -1.42665e-08 0.122285)
(2.00734e-06 -8.84191e-07 0.122317)
(-0.000215617 -0.000216542 0.121707)
(-9.52993e-07 1.15433e-07 0.122752)
(4.77559e-07 1.331e-07 0.122285)
(1.96348e-06 -7.26776e-07 0.122317)
(-0.000215679 -0.000216402 0.121707)
(-9.14075e-07 1.25807e-07 0.122752)
(5.23471e-07 1.1033e-08 0.122285)
(2.01294e-06 -6.75187e-07 0.122317)
(-0.000215731 -0.000216375 0.121707)
(-8.85026e-07 1.40038e-07 0.122752)
(4.83355e-07 1.46397e-07 0.122285)
(2.01621e-06 -6.69546e-07 0.122317)
(-0.000215714 -0.000216389 0.121707)
(-8.5337e-07 1.27154e-07 0.122752)
(5.1901e-07 8.72415e-09 0.122285)
(2.0426e-06 -6.75517e-07 0.122317)
(-0.000215719 -0.000216381 0.121707)
(-7.22717e-07 1.19111e-07 0.122752)
(4.28063e-07 1.83154e-07 0.122285)
(2.08319e-06 -6.88274e-07 0.122317)
(-0.00021572 -0.000216395 0.121707)
(-7.57477e-07 1.23304e-07 0.122752)
(5.90625e-07 1.68562e-08 0.122285)
(2.04113e-06 -6.29786e-07 0.122317)
(-0.000215716 -0.000216377 0.121707)
(-8.15186e-07 4.13403e-09 0.122752)
(8.4148e-07 1.13305e-07 0.122285)
(1.9684e-06 -4.45322e-07 0.122317)
(-0.000215682 -0.000216344 0.121707)
(-9.64789e-07 3.74488e-08 0.122752)
(1.28498e-06 6.62061e-08 0.122285)
(1.84022e-06 -1.14808e-07 0.122316)
(-0.000215618 -0.000216266 0.121707)
(-6.85765e-07 1.14098e-06 0.122752)
(2.64599e-06 6.34685e-07 0.122283)
(6.83328e-07 1.27235e-06 0.122315)
(-0.000215327 -0.000216361 0.121705)
(-4.75357e-06 3.80613e-06 0.122752)
(1.98809e-06 2.59711e-06 0.122323)
(-4.44184e-06 9.88572e-07 0.122347)
(-0.000213453 -0.000216991 0.121749)
(0.000212633 -0.000212272 0.121717)
(-0.000217441 0.000219853 0.121695)
(-4.69826e-06 -2.43205e-06 0.12232)
(4.19071e-06 -7.21938e-06 0.122322)
(-2.52058e-06 -6.67769e-07 0.122322)
(0.000220108 0.000225469 0.121688)
(0.000217401 0.000220024 0.121718)
(-0.000222848 -0.000225518 0.121682)
(3.65741e-06 6.1896e-06 0.122317)
(-4.57886e-06 1.91812e-06 0.12232)
(9.67982e-07 -1.49576e-06 0.122311)
(-2.9526e-06 -6.43558e-07 0.122315)
(-0.000215186 0.00021673 0.121711)
(0.000218922 -0.000225799 0.121683)
(5.07019e-06 3.38831e-06 0.122287)
(5.91733e-06 -3.86781e-06 0.122285)
(-6.94754e-07 7.49336e-07 0.122281)
(6.03065e-07 -1.4983e-06 0.122279)
(-3.15353e-06 -2.16609e-06 0.122285)
(-1.44757e-06 -3.091e-07 0.122283)
(-2.62515e-06 -7.40273e-07 0.122281)
(0.000217451 -0.000218026 0.121718)
(-0.000222981 0.000225702 0.121682)
(-1.59644e-06 -7.91298e-07 0.122321)
(1.45137e-07 2.11771e-06 0.122314)
(-2.36557e-06 2.20959e-06 0.122319)
(0.000219697 0.000226859 0.121684)
(0.000213885 0.000215834 0.121704)
(-0.000220158 -0.000223733 0.121681)
(1.00682e-06 -1.75784e-06 0.122311)
(-3.69885e-06 -6.73832e-07 0.122314)
(3.19838e-06 1.6806e-06 0.122311)
(-1.8407e-06 1.57097e-06 0.122314)
(-0.000214568 0.000215619 0.121706)
(0.000220539 -0.000225176 0.121682)
(-4.4375e-07 2.74519e-07 0.12228)
(7.6119e-07 -1.08538e-06 0.122278)
(2.41806e-06 1.72096e-06 0.122282)
(3.21668e-06 -2.29364e-06 0.122279)
(-2.31907e-06 -1.65764e-07 0.12228)
(-4.14456e-07 3.47498e-07 0.122283)
(-1.23156e-06 -8.83253e-07 0.122281)
(0.000214781 -0.000215075 0.121704)
(-0.00022018 0.000224012 0.12168)
(-2.51416e-06 2.3242e-06 0.122318)
(2.74024e-06 -3.53241e-07 0.122315)
(-1.39268e-06 2.69128e-07 0.122318)
(0.000220877 0.000225228 0.121683)
(0.000216402 0.000217726 0.121704)
(-0.000220868 -0.000224329 0.121684)
(3.7179e-06 2.24635e-06 0.122311)
(-2.36302e-06 2.59718e-06 0.122314)
(2.86415e-06 1.69707e-06 0.122313)
(-1.25183e-06 2.012e-06 0.122315)
(-0.000214786 0.000217313 0.121705)
(0.000220942 -0.000224445 0.121684)
(2.49589e-06 1.83319e-06 0.122282)
(3.28459e-06 -2.34379e-06 0.122279)
(1.102e-06 7.19543e-07 0.122285)
(1.82643e-06 -1.15559e-06 0.122282)
(-9.46933e-07 -1.21223e-06 0.122281)
(8.54156e-07 1.4889e-07 0.122284)
(1.94758e-07 -5.56828e-07 0.122281)
(0.000217451 -0.000216996 0.121703)
(-0.00022087 0.000224576 0.121683)
(-1.28407e-06 -5.30755e-07 0.122318)
(2.47435e-06 -4.35792e-07 0.122316)
(-9.95114e-07 -3.53819e-07 0.122318)
(0.000221584 0.000225183 0.121684)
(0.000215356 0.00021692 0.121707)
(-0.000221728 -0.000224489 0.121685)
(2.50616e-06 1.61961e-06 0.122314)
(-2.5914e-06 2.11416e-06 0.122315)
(1.97056e-06 1.61347e-06 0.122314)
(-1.69495e-06 1.77017e-06 0.122315)
(-0.000212907 0.000217118 0.121707)
(0.000220907 -0.000225568 0.121685)
(6.57549e-07 6.16613e-07 0.122285)
(1.42775e-06 -1.05959e-06 0.122282)
(-1.90781e-07 3.4699e-07 0.122286)
(4.68897e-07 -7.72916e-07 0.122283)
(7.44043e-08 -5.64181e-07 0.122282)
(6.39922e-07 2.32309e-08 0.122285)
(-1.12107e-07 -5.00481e-07 0.122282)
(0.000216435 -0.000216223 0.121706)
(-0.000221702 0.000224593 0.121685)
(-1.17831e-06 -4.56106e-07 0.122319)
(1.57579e-06 -4.72833e-07 0.122317)
(-1.70491e-06 -4.77507e-07 0.122319)
(0.000221175 0.000225098 0.121685)
(0.000214755 0.000216842 0.121708)
(-0.000221258 -0.000224421 0.121685)
(2.1637e-06 1.76128e-06 0.122314)
(-2.40276e-06 2.02985e-06 0.122315)
(2.44404e-06 1.92866e-06 0.122313)
(-2.00553e-06 2.06693e-06 0.122315)
(-0.000214662 0.000216899 0.121708)
(0.000220394 -0.000224314 0.121685)
(-5.90727e-08 4.26073e-07 0.122286)
(5.35711e-07 -8.51009e-07 0.122283)
(1.53692e-07 4.84189e-07 0.122286)
(6.55565e-07 -9.01098e-07 0.122283)
(-2.19506e-07 -6.0406e-07 0.122282)
(1.373e-07 4.25183e-07 0.122285)
(-3.37522e-07 -7.25169e-07 0.122282)
(0.000215815 -0.000216263 0.121707)
(-0.000221353 0.000224432 0.121685)
(-1.80008e-06 -7.00497e-07 0.122319)
(2.00074e-06 -8.94206e-07 0.122317)
(-1.91471e-06 -7.9538e-07 0.122318)
(0.00022103 0.000224916 0.121685)
(0.000215155 0.000216879 0.121708)
(-0.000221488 -0.000224497 0.121685)
(2.41805e-06 1.90395e-06 0.122313)
(-3.23685e-06 2.27391e-06 0.122315)
(2.29385e-06 1.9424e-06 0.122313)
(-1.98382e-06 2.11646e-06 0.122315)
(-0.000213433 0.000217307 0.121708)
(0.000220731 -0.000225276 0.121685)
(9.80529e-08 4.41471e-07 0.122286)
(5.99628e-07 -8.42764e-07 0.122283)
(-1.87368e-07 3.11733e-07 0.122286)
(3.78217e-07 -6.38163e-07 0.122283)
(-3.33955e-07 -6.9189e-07 0.122282)
(3.7997e-07 2.74655e-07 0.122285)
(-3.27319e-07 -5.5553e-07 0.122282)
(0.000216116 -0.000216366 0.121707)
(-0.000221409 0.00022462 0.121684)
(-1.92768e-06 -8.95851e-07 0.122318)
(1.96593e-06 -7.66045e-07 0.122317)
(-2.00127e-06 -7.48002e-07 0.122318)
(0.000220976 0.000225042 0.121685)
(0.00021496 0.000216854 0.121708)
(-0.000221434 -0.000224518 0.121685)
(2.30019e-06 1.91542e-06 0.122313)
(-2.56979e-06 2.22486e-06 0.122315)
(2.31217e-06 1.93568e-06 0.122313)
(-2.0619e-06 2.07154e-06 0.122315)
(-0.00021478 0.00021705 0.121708)
(0.000220377 -0.000224275 0.121685)
(-2.08961e-07 2.92771e-07 0.122286)
(3.68425e-07 -5.8656e-07 0.122283)
(-1.95214e-07 2.91034e-07 0.122286)
(3.84709e-07 -5.36688e-07 0.122284)
(-3.52865e-07 -5.35312e-07 0.122282)
(1.47266e-07 4.56514e-07 0.122285)
(-3.86421e-07 -5.27476e-07 0.122282)
(0.000216059 -0.000216167 0.121707)
(-0.000221349 0.000224698 0.121684)
(-2.02172e-06 -7.15472e-07 0.122318)
(2.00826e-06 -6.77067e-07 0.122316)
(-2.05495e-06 -6.52724e-07 0.122318)
(0.000220913 0.000225093 0.121684)
(0.000215026 0.000216848 0.121708)
(-0.00022142 -0.000224528 0.121685)
(2.32353e-06 1.9519e-06 0.122313)
(-3.31194e-06 2.33365e-06 0.122315)
(2.34972e-06 1.92235e-06 0.122313)
(-2.02088e-06 2.1226e-06 0.122315)
(-0.000213459 0.000217318 0.121708)
(0.000220699 -0.000225274 0.121685)
(-1.73623e-07 2.9274e-07 0.122286)
(4.03949e-07 -5.37106e-07 0.122284)
(-1.83681e-07 2.85455e-07 0.122286)
(4.00658e-07 -5.41818e-07 0.122284)
(-4.01776e-07 -5.30383e-07 0.122282)
(3.52762e-07 3.02367e-07 0.122285)
(-3.88956e-07 -5.29653e-07 0.122282)
(0.000216118 -0.000216108 0.121707)
(-0.000221337 0.000224696 0.121685)
(-2.05836e-06 -6.66983e-07 0.122318)
(2.02855e-06 -6.83822e-07 0.122317)
(-2.04607e-06 -6.83946e-07 0.122318)
(0.000220924 0.000225067 0.121684)
(0.000215033 0.000216836 0.121708)
(-0.000221418 -0.000224533 0.121685)
(2.36577e-06 1.91509e-06 0.122313)
(-2.5833e-06 2.24425e-06 0.122315)
(2.351e-06 1.9396e-06 0.122313)
(-2.0629e-06 2.09692e-06 0.122315)
(-0.00021481 0.000217043 0.121708)
(0.000220392 -0.000224272 0.121685)
(-1.7927e-07 2.80321e-07 0.122286)
(4.04764e-07 -5.31731e-07 0.122284)
(-1.98992e-07 2.7256e-07 0.122286)
(3.95726e-07 -5.3041e-07 0.122284)
(-3.89271e-07 -5.32741e-07 0.122282)
(1.75568e-07 4.45926e-07 0.122285)
(-3.79047e-07 -5.35842e-07 0.122282)
(0.000216124 -0.000216107 0.121707)
(-0.000221338 0.000224705 0.121685)
(-2.03534e-06 -6.76846e-07 0.122318)
(2.02426e-06 -6.75332e-07 0.122317)
(-2.03719e-06 -6.64875e-07 0.122318)
(0.000220925 0.000225084 0.121684)
(0.000215042 0.000216841 0.121708)
(-0.000221414 -0.000224514 0.121685)
(2.32922e-06 1.92083e-06 0.122314)
(-3.28378e-06 2.32414e-06 0.122315)
(2.38396e-06 2.00864e-06 0.122313)
(-2.04874e-06 2.19497e-06 0.122315)
(-0.000213447 0.000217324 0.121708)
(0.00022069 -0.000225252 0.121685)
(-1.51321e-07 2.87422e-07 0.122286)
(4.14e-07 -5.35967e-07 0.122284)
(-2.10745e-07 2.92441e-07 0.122286)
(4.17728e-07 -5.55338e-07 0.122283)
(-3.89351e-07 -5.30975e-07 0.122282)
(3.87694e-07 3.06815e-07 0.122285)
(-4.08713e-07 -5.44676e-07 0.122282)
(0.00021613 -0.000216105 0.121707)
(-0.000221334 0.000224696 0.121685)
(-2.05086e-06 -6.74067e-07 0.122318)
(1.99696e-06 -6.92018e-07 0.122316)
(-2.01439e-06 -6.87359e-07 0.122318)
(0.000220926 0.000225069 0.121684)
(0.000215045 0.00021685 0.121708)
(-0.000221405 -0.000224519 0.121685)
(2.37038e-06 1.85344e-06 0.122314)
(-2.59698e-06 2.20513e-06 0.122315)
(2.34864e-06 2.02472e-06 0.122313)
(-2.06935e-06 2.18465e-06 0.122315)
(-0.000214825 0.000217062 0.121708)
(0.000220372 -0.000224249 0.121685)
(-1.39884e-07 2.8957e-07 0.122287)
(4.01565e-07 -5.2028e-07 0.122284)
(-1.44156e-07 2.8509e-07 0.122286)
(5.16252e-07 -5.98725e-07 0.122283)
(-3.73786e-07 -5.13366e-07 0.122282)
(1.3528e-07 4.4189e-07 0.122285)
(-5.00925e-07 -6.04957e-07 0.122282)
(0.000216133 -0.000216112 0.121707)
(-0.000221332 0.000224696 0.121685)
(-2.07636e-06 -6.93754e-07 0.122318)
(1.99218e-06 -6.97603e-07 0.122316)
(-2.03371e-06 -6.7201e-07 0.122318)
(0.000220918 0.000225078 0.121684)
(0.000215034 0.000216816 0.121708)
(-0.000221363 -0.000224444 0.121685)
(2.34008e-06 1.80503e-06 0.122314)
(-3.29939e-06 2.21603e-06 0.122315)
(2.4195e-06 2.27741e-06 0.122314)
(-2.13736e-06 2.55098e-06 0.122315)
(-0.000213444 0.000217304 0.121708)
(0.000220633 -0.000225165 0.121685)
(-2.51873e-07 2.57401e-07 0.122287)
(2.50242e-07 -4.33038e-07 0.122284)
(8.94847e-08 3.63563e-07 0.122286)
(8.20014e-07 -7.59209e-07 0.122284)
(-2.36703e-07 -4.32111e-07 0.122282)
(8.32276e-08 3.72788e-07 0.122285)
(-7.58468e-07 -7.06579e-07 0.122282)
(0.000216128 -0.000216098 0.121707)
(-0.000221292 0.000224669 0.121685)
(-2.03321e-06 -6.61643e-07 0.122318)
(2.06939e-06 -8.8627e-07 0.122316)
(-2.08285e-06 -8.46853e-07 0.122318)
(0.000220883 0.00022505 0.121685)
(0.000214977 0.000216774 0.121707)
(-0.000221245 -0.000224353 0.121686)
(2.26879e-06 1.47452e-06 0.122313)
(-2.45826e-06 1.75379e-06 0.122315)
(2.55082e-06 2.76657e-06 0.122314)
(-2.2675e-06 2.95476e-06 0.122316)
(-0.000214772 0.000216995 0.121708)
(0.000220224 -0.000224054 0.121686)
(-5.47067e-07 2.09672e-07 0.122286)
(-9.43794e-08 -2.57522e-07 0.122284)
(4.42218e-07 2.20307e-07 0.122287)
(1.31856e-06 -7.53209e-07 0.122284)
(5.56738e-08 -2.9151e-07 0.122282)
(-4.4892e-07 4.19935e-07 0.122285)
(-1.23461e-06 -7.72957e-07 0.122282)
(0.000216097 -0.000216067 0.121707)
(-0.000221233 0.000224669 0.121685)
(-1.97734e-06 -4.51953e-07 0.122318)
(2.17396e-06 -1.18168e-06 0.122317)
(-2.1745e-06 -1.20585e-06 0.122318)
(0.000220826 0.000225056 0.121685)
(0.00021486 0.00021667 0.121707)
(-0.000222021 -0.0002239 0.121689)
(2.15744e-06 9.91819e-07 0.122312)
(-3.16982e-06 1.37736e-06 0.122314)
(1.93149e-06 3.74868e-06 0.122316)
(-1.63956e-06 3.98512e-06 0.122317)
(-0.000213302 0.000217115 0.121707)
(0.000221342 -0.000224636 0.121689)
(-9.90047e-07 3.49524e-07 0.122286)
(-6.59028e-07 -1.71187e-07 0.122283)
(1.06421e-06 5.91929e-07 0.122288)
(2.15024e-06 -1.40452e-06 0.122286)
(5.75825e-07 -1.33681e-07 0.122282)
(-8.83715e-07 5.15239e-07 0.122287)
(-2.01161e-06 -1.32686e-06 0.122284)
(0.000216009 -0.000215989 0.121707)
(-0.000221524 0.000224692 0.121686)
(-1.9031e-06 -2.66647e-08 0.122318)
(2.08129e-06 -1.63308e-06 0.122317)
(-2.12533e-06 -1.68406e-06 0.122319)
(0.000221164 0.000225136 0.121686)
(0.00021432 0.0002172 0.121703)
(-0.000229316 -0.000220044 0.121694)
(-1.59583e-07 -1.0637e-07 0.122309)
(-1.28808e-07 -1.26133e-07 0.12231)
(-3.7196e-06 5.35029e-06 0.122277)
(3.33208e-06 5.8483e-06 0.122277)
(-0.000214277 0.000217248 0.121703)
(0.000229031 -0.000219889 0.121693)
(-2.25059e-06 8.16845e-07 0.122285)
(-2.63931e-06 4.96599e-07 0.122281)
(2.36214e-06 3.81905e-06 0.122291)
(2.67309e-06 -3.75742e-06 0.12229)
(2.58091e-06 6.43587e-07 0.12228)
(-2.54828e-06 3.42184e-06 0.12229)
(-1.70537e-06 -3.00109e-06 0.122288)
(0.000215684 -0.000216187 0.121706)
(-0.000229173 0.000229322 0.121692)
(-8.41751e-07 1.57897e-06 0.122316)
(-5.87364e-07 -1.48406e-06 0.122319)
(7.0024e-07 -6.13593e-07 0.122321)
(0.000228345 0.000229451 0.121694)
(-1.7703e-06 5.12889e-06 0.122277)
(-0.000212086 0.000220836 0.121703)
(-2.83667e-06 3.26198e-06 0.122323)
(-2.88953e-06 -7.02204e-08 0.122325)
(3.35332e-06 1.14235e-06 0.122324)
(0.000213985 -0.000218202 0.121751)
(5.01144e-06 1.97428e-06 0.122349)
(1.24173e-05 -8.10417e-06 0.0803518)
(-4.78049e-06 3.95301e-06 0.0804409)
(-7.54708e-07 6.20023e-05 0.119385)
(6.72226e-07 -1.7728e-06 0.122639)
(2.10397e-05 -5.75726e-05 0.112998)
(3.12613e-06 -3.06801e-06 0.122349)
(-2.21309e-05 4.93628e-05 0.113025)
(-3.39177e-06 -6.97394e-05 0.119402)
(-4.18538e-07 -3.74335e-06 0.122638)
(-1.7688e-05 -1.96319e-05 0.103706)
(-1.84981e-05 -2.14196e-05 0.103879)
(0.00022506 0.000223024 0.121689)
(2.37836e-05 1.45245e-05 0.103795)
(1.90217e-05 1.47901e-05 0.103545)
(-2.17744e-06 -4.41487e-05 0.111974)
(2.34661e-06 2.32383e-05 0.0919352)
(-4.33255e-06 -2.7037e-05 0.0919331)
(-7.1786e-07 4.25217e-05 0.112037)
(-9.78936e-06 7.55935e-06 0.0804414)
(1.0637e-06 -1.25327e-05 0.080446)
(-4.19643e-05 -9.81651e-07 0.111408)
(1.95044e-05 -1.28681e-07 0.0916564)
(-2.61739e-05 -8.09432e-06 0.0915642)
(3.71808e-05 -4.66457e-07 0.111648)
(-1.21303e-06 3.79032e-07 0.122756)
(-1.12694e-06 -2.1585e-06 0.122752)
(3.79819e-07 -1.66086e-07 0.122755)
(-3.24877e-06 -2.53346e-06 0.122748)
(4.72887e-07 -6.93424e-07 0.122751)
(-3.48904e-06 2.19298e-06 0.122748)
(6.27492e-07 4.05147e-07 0.122752)