/*--------------------------------*- C++ -*----------------------------------*\
| =========                 |                                                 |
| \\      /  F ield         | OpenFOAM: The Open Source CFD Toolbox           |
|  \\    /   O peration     | Version:  2206                                  |
|   \\  /    A nd           | Website:  www.openfoam.com                      |
|    \\/     M anipulation  |                                                 |
\*---------------------------------------------------------------------------*/
FoamFile
{
    version     2.0;
    format      ascii;
    arch        "LSB;label=32;scalar=64";
    class       volVectorField;
    location    "0.2";
    object      wallShearStress;
}
// * * * * * * * * * * * * * * * * * * * * * * * * * * * * * * * * * * * * * //

dimensions      [0 2 -2 0 0 0 0];

internalField   uniform (0 0 0);

boundaryField
{
    topPatch
    {
        type            calculated;
        value           nonuniform List<vector> 0();
    }
    wall
    {
        type            calculated;
        value           nonuniform List<vector> 
7718
(
(8.70537e-09 -2.23198e-08 -0.000161515)
(-4.04701e-09 2.56482e-09 -0.000161267)
(-4.05756e-10 -9.55636e-09 -0.000154614)
(-4.93271e-09 -1.83182e-09 -0.000154615)
(5.0298e-10 7.36515e-09 -0.000161511)
(-7.0297e-09 -1.32752e-08 -0.000161266)
(-2.21583e-09 -5.07286e-10 -0.000158518)
(-1.95715e-09 -2.2948e-09 -0.000159449)
(-3.50054e-09 -8.04266e-09 -0.000158516)
(-2.37572e-09 -5.58861e-09 -0.000159446)
(2.44312e-08 -1.52509e-08 -0.000161537)
(7.56711e-09 -2.11877e-08 -0.000161506)
(2.04832e-08 -1.10736e-08 -0.000154649)
(-1.71614e-09 -7.60363e-09 -0.000154602)
(-5.59619e-09 -2.10902e-09 -0.00015461)
(7.02533e-10 8.47376e-09 -0.000161511)
(8.31e-09 -9.37712e-09 -0.000161572)
(5.32905e-09 -1.96229e-08 -0.000158533)
(-2.56887e-09 -3.07456e-09 -0.000159442)
(-2.45235e-09 -2.54174e-09 -0.000158513)
(2.57831e-09 -7.97619e-09 -0.000159458)
(6.95612e-09 -6.89834e-09 -0.000154699)
(4.05973e-09 1.10608e-08 -0.000158533)
(-2.9452e-09 -4.3947e-09 -0.000159439)
(-3.69301e-09 -6.02089e-09 -0.000158514)
(2.15426e-09 -1.92321e-11 -0.000159455)
(2.28544e-09 -4.74238e-09 -0.000154704)
(5.14374e-10 -4.98582e-09 -0.000161573)
(2.61288e-09 -1.87611e-09 -0.000155375)
(6.7717e-09 7.03723e-10 -0.000161508)
(2.60289e-08 -2.61341e-08 -0.000162155)
(2.92073e-08 -2.29243e-08 -0.00015541)
(3.48475e-08 -2.01871e-08 -0.000155479)
(1.96938e-08 -2.72272e-08 -0.000162125)
(9.43874e-09 -1.92027e-08 -0.000155381)
(1.46338e-08 -1.59776e-08 -0.000155432)
(3.555e-08 -2.7266e-08 -0.000162213)
(2.34746e-08 -2.28332e-08 -0.000162179)
(8.54552e-09 -1.82053e-08 -0.000161345)
(-4.55162e-09 3.95679e-09 -0.000161263)
(5.50602e-09 7.10718e-09 -0.000161347)
(-7.42063e-09 -1.43299e-08 -0.000161267)
(2.36008e-09 -1.61678e-09 -0.000155434)
(4.14385e-09 4.87641e-10 -0.000162174)
(2.86426e-09 -1.46292e-09 -0.00016218)
(-2.88642e-09 -8.34111e-10 -0.000161505)
(-7.08076e-09 -1.89158e-08 -0.000161558)
(-2.87385e-09 -3.73435e-09 -0.000154327)
(-4.95585e-09 6.9193e-09 -0.000154483)
(3.39412e-08 1.48349e-08 -0.000161381)
(1.17266e-08 9.76713e-09 -0.000161476)
(-5.96438e-09 5.54225e-09 -0.000154507)
(4.24367e-09 3.26857e-09 -0.000154661)
(3.4729e-09 1.25853e-08 -0.000161425)
(3.25878e-09 -1.95872e-09 -0.00016153)
(-1.21536e-08 1.07199e-09 -0.000154427)
(-2.80921e-09 5.86898e-09 -0.000154588)
(5.03172e-09 -4.38473e-10 -0.000161405)
(-1.33563e-08 -3.47732e-09 -0.000161511)
(-3.31708e-09 -5.29932e-10 -0.000154658)
(2.4137e-09 5.45147e-09 -0.000154772)
(1.97561e-09 8.69451e-09 -0.000161548)
(-2.09428e-09 -1.04742e-08 -0.000161631)
(-2.37052e-09 -3.62459e-09 -0.000154458)
(6.48817e-09 1.70829e-09 -0.000154584)
(4.2515e-10 -3.32796e-09 -0.00016142)
(-1.00788e-08 -2.15947e-09 -0.000161514)
(-5.10969e-09 1.45385e-09 -0.000154671)
(3.40648e-09 1.39353e-09 -0.000154746)
(-2.01188e-09 3.17897e-09 -0.00016156)
(-6.92167e-10 -6.90799e-09 -0.000161606)
(1.62382e-09 -5.165e-09 -0.000154441)
(6.42904e-09 1.78598e-09 -0.000154572)
(7.39657e-09 4.5214e-10 -0.00016142)
(-3.95011e-09 1.3119e-09 -0.000161512)
(-2.85094e-09 -4.01747e-09 -0.000154639)
(4.73589e-09 -1.40648e-09 -0.000154726)
(1.69043e-09 9.67724e-09 -0.000161532)
(1.2935e-09 -3.73574e-09 -0.00016159)
(-1.01614e-09 -4.15354e-09 -0.000154436)
(5.14442e-09 2.32129e-09 -0.000154574)
(7.16643e-09 1.96001e-10 -0.000161416)
(-6.19059e-09 -6.33331e-10 -0.000161512)
(-2.94649e-09 -3.41343e-09 -0.000154635)
(4.43787e-09 -4.89156e-10 -0.000154726)
(1.60153e-09 9.24047e-09 -0.00016153)
(9.26132e-10 -4.52494e-09 -0.000161591)
(-7.96936e-10 -4.03222e-09 -0.00015444)
(4.38636e-09 2.72399e-09 -0.000154574)
(6.92584e-09 -9.69714e-11 -0.000161417)
(-4.41849e-09 1.24298e-09 -0.000161511)
(-3.12135e-09 -2.99341e-09 -0.000154636)
(4.32404e-09 -2.01324e-10 -0.000154727)
(1.36182e-09 8.80103e-09 -0.000161531)
(7.74675e-10 -4.78133e-09 -0.000161592)
(-1.81193e-09 -3.7641e-09 -0.00015444)
(4.46666e-09 2.55572e-09 -0.000154575)
(7.47837e-09 1.27137e-09 -0.000161414)
(-7.38385e-09 -6.28906e-10 -0.00016151)
(-3.18669e-09 -2.83586e-09 -0.000154636)
(4.31022e-09 -1.57293e-10 -0.000154727)
(1.30252e-09 8.69712e-09 -0.000161531)
(7.36474e-10 -4.85395e-09 -0.000161592)
(-1.52666e-09 -3.91675e-09 -0.000154441)
(4.32522e-09 2.63268e-09 -0.000154575)
(7.14347e-09 3.4567e-10 -0.000161417)
(-4.4931e-09 1.06132e-09 -0.000161512)
(-3.19193e-09 -2.8097e-09 -0.000154636)
(4.30547e-09 -1.47838e-10 -0.000154727)
(1.27128e-09 8.63364e-09 -0.000161531)
(7.31748e-10 -4.86052e-09 -0.000161592)
(-1.47895e-09 -3.93121e-09 -0.000154441)
(4.41677e-09 2.60331e-09 -0.000154575)
(6.49291e-09 1.45562e-12 -0.000161414)
(-7.30823e-09 -6.38898e-10 -0.000161511)
(-3.18194e-09 -2.84027e-09 -0.000154636)
(4.32044e-09 -1.82654e-10 -0.000154727)
(1.27469e-09 8.64381e-09 -0.000161531)
(7.25208e-10 -4.87442e-09 -0.000161592)
(-1.4391e-09 -3.94566e-09 -0.000154441)
(4.34004e-09 2.62705e-09 -0.000154575)
(7.07919e-09 3.06881e-10 -0.000161417)
(-4.49577e-09 1.05553e-09 -0.000161512)
(-3.17397e-09 -2.8583e-09 -0.000154636)
(4.31622e-09 -1.76923e-10 -0.000154727)
(1.26237e-09 8.6205e-09 -0.000161531)
(7.24944e-10 -4.87279e-09 -0.000161592)
(-1.50662e-09 -3.91996e-09 -0.000154441)
(4.3195e-09 2.63707e-09 -0.000154574)
(6.53689e-09 2.40454e-11 -0.000161414)
(-7.20161e-09 -5.83095e-10 -0.000161511)
(-3.17546e-09 -2.85456e-09 -0.000154636)
(4.31881e-09 -1.79841e-10 -0.000154727)
(1.2705e-09 8.63357e-09 -0.000161531)
(7.20815e-10 -4.88233e-09 -0.000161592)
(-1.40674e-09 -3.95709e-09 -0.000154441)
(4.30662e-09 2.64164e-09 -0.000154574)
(7.23254e-09 3.784e-10 -0.000161417)
(-4.45726e-09 1.26901e-09 -0.000161512)
(-3.19489e-09 -2.80367e-09 -0.000154636)
(4.33833e-09 -2.34664e-10 -0.000154727)
(1.24154e-09 8.58099e-09 -0.000161531)
(7.2937e-10 -4.86261e-09 -0.000161592)
(-1.24583e-09 -4.01856e-09 -0.000154441)
(3.9159e-09 2.78751e-09 -0.000154575)
(6.4323e-09 -3.62355e-11 -0.000161414)
(-7.02889e-09 -4.93352e-10 -0.000161512)
(-3.19498e-09 -2.81012e-09 -0.000154636)
(4.42979e-09 -4.70307e-10 -0.000154727)
(1.26853e-09 8.63047e-09 -0.000161532)
(6.89521e-10 -4.93706e-09 -0.000161592)
(-1.42846e-10 -4.44039e-09 -0.000154437)
(2.67953e-09 3.27439e-09 -0.000154582)
(6.63943e-09 5.26495e-11 -0.00016141)
(-4.2319e-09 1.27127e-09 -0.000161524)
(-3.15361e-09 -2.88072e-09 -0.000154636)
(4.72064e-09 -1.22698e-09 -0.000154729)
(1.34625e-09 8.75004e-09 -0.000161532)
(6.94925e-10 -4.93499e-09 -0.000161594)
(7.4331e-10 -4.55857e-09 -0.000154428)
(4.11214e-09 2.87064e-09 -0.000154612)
(5.34111e-09 -8.55311e-10 -0.000161391)
(6.99292e-10 3.28746e-09 -0.000161535)
(-2.72635e-09 -3.82582e-09 -0.000154638)
(5.16579e-09 -3.22732e-09 -0.000154727)
(1.5368e-09 9.05204e-09 -0.000161533)
(9.55193e-10 -3.99703e-09 -0.000161594)
(1.04378e-08 2.38525e-09 -0.000161476)
(-6.73578e-10 -8.99374e-09 -0.000154605)
(-1.61987e-09 4.62276e-09 -0.000161507)
(-1.26522e-08 -2.66059e-09 -0.000161408)
(-4.82048e-09 -4.34543e-09 -0.000161481)
(1.17609e-09 -2.15831e-09 -0.000161488)
(-4.55538e-09 -1.19411e-09 -0.000161474)
(4.8424e-09 -1.36852e-12 -0.000161424)
(-2.15885e-08 -7.19352e-09 -0.000161357)
(-1.18156e-08 8.78786e-10 -0.000154427)
(-7.15147e-09 -5.50593e-09 -0.000154518)
(4.08049e-09 4.35048e-09 -0.000154461)
(1.24565e-08 -8.63645e-09 -0.000154548)
(5.30106e-09 -1.72452e-09 -0.000154474)
(-1.225e-08 5.9119e-10 -0.000154356)
(2.01313e-08 -1.2137e-08 -0.00015453)
(2.31587e-08 -4.08974e-09 -0.000154408)
(-3.74441e-10 6.72669e-09 -0.000161556)
(6.26399e-09 -1.73084e-08 -0.000161622)
(4.791e-09 2.07863e-09 -0.000161446)
(1.12787e-08 -9.04672e-09 -0.000161497)
(7.67249e-10 -7.98593e-09 -0.000161605)
(6.4037e-09 -4.85657e-09 -0.000161556)
(1.17516e-08 -9.28254e-09 -0.000161482)
(3.05983e-08 -1.29093e-08 -0.0001614)
(-1.45922e-08 4.1092e-09 -0.000161314)
(-5.05705e-09 6.63736e-09 -0.000161425)
(1.72661e-09 -9.70328e-09 -0.000161425)
(1.86785e-09 4.57059e-09 -0.000161526)
(-6.29472e-09 7.46215e-09 -0.000161487)
(-2.05093e-08 8.93461e-09 -0.00016135)
(2.00143e-09 4.1826e-09 -0.000161593)
(2.38754e-09 -8.667e-09 -0.000161481)
(2.78789e-08 6.257e-09 -0.000154383)
(1.48051e-08 1.03346e-08 -0.000154519)
(-7.82064e-09 8.27014e-09 -0.000154547)
(-1.21495e-08 1.1644e-09 -0.000154365)
(-3.20364e-09 3.54471e-09 -0.000154543)
(1.57988e-08 1.99984e-09 -0.000154389)
(4.60117e-09 2.00394e-09 -0.000161541)
(2.88297e-09 1.14364e-08 -0.000161588)
(-6.27643e-09 2.42754e-10 -0.000161494)
(2.2953e-08 8.76771e-09 -0.000161384)
(-1.4417e-09 3.72222e-09 -0.000161586)
(1.29266e-09 -3.88146e-09 -0.000161526)
(-4.69409e-09 -2.43371e-09 -0.00015451)
(5.05731e-09 -1.16983e-09 -0.000154668)
(4.76559e-09 1.06622e-09 -0.000154736)
(-2.88708e-09 -3.38557e-10 -0.00015459)
(4.91934e-09 -4.76459e-10 -0.000154743)
(-2.13177e-09 2.28387e-09 -0.000154598)
(6.49014e-09 5.26456e-09 -0.000154645)
(-2.33764e-09 4.63366e-09 -0.000154726)
(4.74522e-09 -8.75026e-10 -0.000154651)
(-3.81613e-09 -6.85979e-10 -0.000154732)
(-4.7881e-09 -1.21939e-09 -0.000154722)
(4.463e-09 4.34335e-10 -0.000154631)
(-4.47455e-09 6.48332e-10 -0.000154727)
(3.27217e-09 2.91907e-09 -0.000154638)
(-1.41435e-08 -4.01604e-09 -0.000161328)
(-4.15615e-09 -6.25955e-09 -0.000161447)
(2.44227e-09 -3.27491e-09 -0.000161596)
(3.72356e-09 1.11946e-08 -0.000161485)
(-6.56951e-09 -7.68282e-09 -0.000161507)
(-2.03651e-08 -8.43957e-09 -0.000161367)
(-3.66241e-09 3.26053e-09 -0.000154339)
(-4.70745e-09 -6.93002e-09 -0.000154503)
(2.56808e-08 -5.52357e-09 -0.000154392)
(1.24457e-08 -9.56282e-09 -0.000154532)
(-9.35456e-09 -8.90822e-09 -0.000154564)
(-1.26002e-08 -1.30959e-09 -0.000154382)
(-3.11118e-09 -3.63108e-09 -0.000154558)
(1.45319e-08 -1.52523e-09 -0.000154403)
(6.40908e-10 4.99478e-09 -0.000161542)
(7.28812e-10 -7.2378e-09 -0.000161589)
(2.81933e-08 -1.15353e-08 -0.000161386)
(9.6715e-09 -8.81969e-09 -0.000161485)
(-9.76941e-10 -4.2739e-09 -0.00016158)
(-2.83932e-10 7.01206e-09 -0.000161524)
(-6.04538e-09 -4.67625e-10 -0.000161508)
(2.19074e-08 -8.71001e-09 -0.000161398)
(-2.00884e-08 8.18729e-09 -0.000161411)
(6.27143e-10 3.32336e-09 -0.00016153)
(1.67436e-09 -7.985e-09 -0.000161546)
(-1.87037e-09 1.01887e-08 -0.000161632)
(6.54239e-09 -3.73391e-10 -0.000161535)
(-1.26859e-08 3.61267e-09 -0.000161443)
(-2.6228e-09 1.06557e-08 -0.000161628)
(-2.12805e-09 -2.14767e-09 -0.000161573)
(-1.36053e-09 -4.55384e-09 -0.000154417)
(-1.17428e-08 1.10551e-11 -0.00015457)
(2.02579e-09 3.5643e-09 -0.000154594)
(-6.99535e-09 -1.46863e-09 -0.000154458)
(-1.31584e-08 -8.30309e-10 -0.000154576)
(-7.49376e-09 -7.2827e-09 -0.000154441)
(-2.66389e-09 -1.09126e-08 -0.000161526)
(-9.6022e-10 4.27979e-09 -0.000161592)
(-1.62203e-08 -5.57753e-09 -0.000161515)
(-1.58796e-09 -4.14634e-09 -0.000161423)
(-3.20212e-09 3.23162e-10 -0.000161595)
(-3.30673e-09 -1.22162e-08 -0.00016153)
(-3.2133e-09 9.30139e-10 -0.000154664)
(2.10597e-09 -6.11231e-09 -0.000154776)
(2.14355e-09 4.8085e-09 -0.000154767)
(-5.49461e-09 3.46851e-09 -0.000154683)
(1.73357e-09 -5.72026e-09 -0.00015477)
(-5.75511e-09 -4.04248e-09 -0.000154686)
(2.33117e-09 -4.75638e-09 -0.000154631)
(-4.63374e-09 -9.48735e-10 -0.000154726)
(3.02312e-09 3.22593e-09 -0.000154636)
(-4.30651e-09 1.85638e-10 -0.00015473)
(-5.28721e-09 -2.84892e-09 -0.000154729)
(2.51846e-09 -4.42986e-09 -0.000154634)
(-4.32784e-09 3.80787e-10 -0.000154732)
(3.10735e-09 3.03266e-09 -0.000154639)
(-2.10369e-08 -8.58699e-09 -0.000161425)
(-3.19218e-10 -3.83705e-09 -0.000161542)
(-2.94605e-09 -1.11934e-08 -0.000161626)
(-2.33621e-09 1.86382e-09 -0.000161572)
(6.42824e-09 2.09095e-10 -0.000161544)
(-1.39733e-08 -4.28652e-09 -0.000161451)
(-1.47231e-08 -1.9929e-09 -0.00015444)
(-4.5134e-09 -6.58707e-09 -0.0001546)
(-4.856e-10 4.31845e-09 -0.000154428)
(-1.24411e-08 1.98357e-10 -0.000154579)
(1.30601e-09 -3.9247e-09 -0.000154605)
(-9.129e-09 6.73904e-10 -0.000154468)
(-1.07332e-08 -2.48336e-10 -0.000154588)
(-6.49892e-09 6.86108e-09 -0.000154447)
(-1.38836e-09 8.95407e-09 -0.000161518)
(-1.23851e-09 -3.8351e-09 -0.00016158)
(6.26002e-09 -2.92844e-10 -0.00016142)
(-1.47833e-08 4.39279e-09 -0.000161524)
(-1.42307e-09 -3.4729e-09 -0.000161584)
(-1.7086e-09 9.51063e-09 -0.00016152)
(-1.36936e-08 4.00586e-09 -0.00016153)
(5.17505e-10 2.9794e-09 -0.000161434)
(-7.1727e-09 4.95567e-10 -0.00016144)
(1.04853e-08 -2.53882e-09 -0.000161522)
(-1.79311e-09 -3.51432e-09 -0.000161563)
(-3.92537e-10 6.43449e-09 -0.000161609)
(1.06987e-08 -2.62494e-09 -0.000161513)
(-3.97039e-09 -1.43025e-09 -0.000161427)
(1.38778e-09 3.3946e-09 -0.000161597)
(6.4236e-10 -7.9247e-09 -0.000161544)
(-6.34687e-09 -6.9915e-09 -0.000154443)
(-7.48285e-09 1.39367e-09 -0.000154575)
(7.41858e-09 1.36313e-09 -0.000154576)
(1.38096e-09 -5.09835e-09 -0.000154447)
(-4.76809e-09 2.43701e-09 -0.000154574)
(-1.04321e-09 -4.90091e-09 -0.000154442)
(-3.33488e-09 -1.24714e-08 -0.000161535)
(-1.99654e-09 2.49341e-09 -0.000161592)
(-8.03453e-09 -1.08175e-09 -0.000161514)
(5.94874e-09 -2.81616e-10 -0.000161419)
(-1.08498e-09 4.23134e-09 -0.000161593)
(-2.28392e-09 -1.04529e-08 -0.000161533)
(-5.42584e-09 -2.14863e-09 -0.000154673)
(2.98202e-09 -2.38911e-09 -0.000154748)
(4.57256e-09 -1.25174e-09 -0.000154732)
(-3.78598e-09 -1.99082e-09 -0.00015465)
(4.08473e-09 8.88449e-11 -0.000154734)
(-4.14176e-09 1.12138e-09 -0.000154652)
(2.08689e-09 -5.75721e-09 -0.000154636)
(-5.09159e-09 -2.22827e-09 -0.000154728)
(3.10012e-09 3.16203e-09 -0.00015464)
(-4.12642e-09 -2.52327e-10 -0.000154732)
(-4.57815e-09 -8.62834e-10 -0.000154729)
(2.47873e-09 -4.58087e-09 -0.000154636)
(-4.02775e-09 -5.63391e-10 -0.000154733)
(3.34973e-09 2.39164e-09 -0.000154641)
(-7.67742e-09 -5.86042e-10 -0.000161447)
(1.06018e-08 2.52918e-09 -0.000161531)
(9.68608e-10 -4.12498e-09 -0.000161594)
(3.78552e-10 7.52162e-09 -0.000161541)
(1.06281e-08 2.49364e-09 -0.000161522)
(-4.50964e-09 1.13979e-09 -0.000161434)
(-3.60669e-09 3.14721e-09 -0.000154466)
(5.96566e-09 -2.01513e-09 -0.000154595)
(-3.28621e-09 5.7747e-09 -0.000154453)
(-6.22804e-09 -1.97835e-09 -0.000154587)
(6.82667e-09 -1.68227e-09 -0.000154586)
(2.58548e-10 4.69609e-09 -0.000154456)
(-3.27204e-09 -3.14364e-09 -0.000154585)
(1.0076e-09 4.13544e-09 -0.000154451)
(-1.76148e-09 9.62685e-09 -0.000161523)
(-9.78496e-10 -4.39778e-09 -0.000161586)
(2.918e-09 1.87947e-09 -0.000161437)
(-1.00677e-08 2.10021e-09 -0.000161528)
(-6.0006e-10 -5.13074e-09 -0.000161589)
(-1.21136e-09 8.47663e-09 -0.000161526)
(-7.16417e-09 5.40562e-10 -0.000161525)
(6.51067e-09 -6.42739e-11 -0.000161434)
(-4.28213e-09 -1.17756e-09 -0.000161419)
(9.78403e-09 -2.02196e-09 -0.000161509)
(1.97057e-09 -1.01462e-08 -0.000161534)
(1.57139e-09 3.27442e-09 -0.000161592)
(8.38507e-09 -1.2659e-09 -0.000161506)
(-5.38575e-09 -5.53695e-10 -0.000161416)
(1.34629e-09 3.7833e-09 -0.000161592)
(1.93832e-09 -9.89856e-09 -0.000161531)
(1.23859e-09 -4.02682e-09 -0.00015444)
(-1.63878e-09 3.68598e-09 -0.000154573)
(5.08628e-09 2.35157e-09 -0.00015457)
(3.74444e-10 -4.64469e-09 -0.000154437)
(-4.08881e-09 2.73488e-09 -0.00015457)
(3.07256e-09 -3.3567e-09 -0.000154439)
(-1.35445e-09 -8.68265e-09 -0.000161532)
(1.12805e-09 7.99238e-09 -0.000161591)
(-8.15671e-09 -1.53542e-09 -0.000161511)
(8.24636e-09 9.82356e-10 -0.00016142)
(-1.69156e-09 3.23788e-09 -0.000161592)
(-1.27929e-09 -8.5154e-09 -0.000161529)
(-3.20422e-09 3.18768e-09 -0.000154641)
(4.38411e-09 5.66366e-10 -0.000154729)
(4.62727e-09 -9.71641e-10 -0.000154726)
(-2.8322e-09 -3.79046e-09 -0.000154634)
(4.34991e-09 3.45824e-10 -0.000154728)
(-3.05523e-09 3.27611e-09 -0.000154637)
(3.02403e-09 -3.18226e-09 -0.000154637)
(-3.37392e-09 2.17109e-09 -0.000154727)
(3.38696e-09 2.31814e-09 -0.000154642)
(-4.04199e-09 -4.74292e-10 -0.000154733)
(-4.40422e-09 -5.34558e-10 -0.000154727)
(3.76749e-09 -1.34827e-09 -0.000154633)
(-4.17952e-09 -1.01771e-10 -0.000154732)
(3.3502e-09 2.44718e-09 -0.000154641)
(-5.06472e-09 7.85202e-10 -0.000161427)
(9.55289e-09 1.83781e-09 -0.000161518)
(1.12482e-09 -4.1679e-09 -0.00016159)
(1.78378e-09 9.65027e-09 -0.000161528)
(8.5417e-09 1.26482e-09 -0.000161517)
(-6.17908e-09 1.0437e-10 -0.000161424)
(3.61292e-10 4.70466e-09 -0.000154449)
(5.91303e-09 -2.10387e-09 -0.000154582)
(3.32326e-09 3.23484e-09 -0.000154449)
(-2.85841e-09 -3.3093e-09 -0.000154583)
(4.94826e-09 -2.50349e-09 -0.000154582)
(-6.24202e-10 4.27908e-09 -0.000154446)
(-3.02114e-09 -3.2508e-09 -0.000154582)
(3.38967e-09 3.20712e-09 -0.000154447)
(-9.52077e-10 7.99201e-09 -0.000161529)
(-5.4288e-10 -5.19899e-09 -0.00016159)
(8.96815e-09 -1.38137e-09 -0.000161432)
(-6.5652e-09 2.14768e-10 -0.000161523)
(-7.13536e-10 -4.88948e-09 -0.00016159)
(-9.34253e-10 7.98535e-09 -0.000161529)
(-6.67274e-09 2.60472e-10 -0.000161522)
(9.15836e-09 -1.49114e-09 -0.00016143)
(-6.65032e-09 -7.54604e-11 -0.000161414)
(8.06427e-09 -1.22945e-09 -0.000161507)
(1.7079e-09 -9.4036e-09 -0.000161531)
(1.06196e-09 4.31768e-09 -0.000161593)
(7.28145e-09 -1.05038e-09 -0.000161508)
(-7.56936e-09 5.81258e-10 -0.000161415)
(9.88596e-10 4.4363e-09 -0.000161593)
(1.48123e-09 -8.98395e-09 -0.000161532)
(1.01971e-09 -4.12314e-09 -0.000154435)
(-3.79304e-09 2.50608e-09 -0.000154569)
(4.21628e-09 2.23314e-09 -0.000154574)
(-9.53548e-10 -4.13685e-09 -0.000154441)
(-5.27326e-09 2.20563e-09 -0.000154572)
(1.41915e-09 -4.09404e-09 -0.000154438)
(-2.0601e-09 -9.98202e-09 -0.000161532)
(-1.46095e-09 3.53861e-09 -0.000161591)
(-8.09956e-09 -9.43995e-10 -0.000161511)
(8.16865e-09 4.25867e-10 -0.000161416)
(-8.24696e-10 4.69497e-09 -0.00016159)
(-1.89038e-09 -9.71429e-09 -0.000161532)
(-3.10656e-09 3.06301e-09 -0.000154637)
(4.25385e-09 5.70304e-11 -0.000154729)
(4.42164e-09 -4.23835e-10 -0.000154727)
(-3.12626e-09 -2.97807e-09 -0.000154635)
(4.21093e-09 -3.02248e-11 -0.00015473)
(-3.21447e-09 2.78331e-09 -0.000154638)
(2.84171e-09 -3.78082e-09 -0.000154634)
(-4.70507e-09 -1.24193e-09 -0.000154727)
(3.20867e-09 2.79945e-09 -0.000154641)
(-4.14728e-09 -1.92949e-10 -0.000154732)
(-4.52668e-09 -7.55218e-10 -0.000154727)
(2.74841e-09 -3.93887e-09 -0.000154634)
(-4.14921e-09 -1.69633e-10 -0.000154731)
(3.28788e-09 2.60912e-09 -0.00015464)
(-7.11569e-09 -4.2134e-10 -0.000161424)
(8.09097e-09 1.00705e-09 -0.000161518)
(8.37936e-10 -4.69358e-09 -0.000161592)
(1.41614e-09 8.8931e-09 -0.00016153)
(7.63492e-09 7.72429e-10 -0.000161518)
(-7.52762e-09 -6.50683e-10 -0.000161424)
(-1.49877e-09 3.92381e-09 -0.000154445)
(4.4161e-09 -2.73148e-09 -0.000154582)
(3.21026e-09 3.26892e-09 -0.000154447)
(-3.44752e-09 -3.09344e-09 -0.000154582)
(3.93213e-09 -2.90899e-09 -0.000154582)
(-2.00064e-09 3.72243e-09 -0.000154445)
(-3.46775e-09 -3.09033e-09 -0.000154582)
(2.80989e-09 3.4205e-09 -0.000154447)
(-1.12891e-09 8.34273e-09 -0.000161528)
(-7.51675e-10 -4.81012e-09 -0.000161589)
(9.04818e-09 -1.44476e-09 -0.000161429)
(-7.08575e-09 4.70544e-10 -0.000161522)
(-7.6312e-10 -4.77872e-09 -0.000161589)
(-1.10369e-09 8.3172e-09 -0.000161528)
(-7.27357e-09 5.70638e-10 -0.000161522)
(8.58926e-09 -1.20076e-09 -0.000161429)
(-7.92676e-09 1.38342e-09 -0.000161414)
(7.46408e-09 -7.86589e-10 -0.000161505)
(1.44382e-09 -8.91766e-09 -0.000161532)
(8.88591e-10 4.62111e-09 -0.000161593)
(7.49063e-09 -1.04647e-09 -0.000161507)
(-7.07519e-09 2.62457e-10 -0.000161414)
(8.80289e-10 4.60258e-09 -0.000161593)
(1.32696e-09 -8.69149e-09 -0.000161532)
(5.20626e-10 -4.31909e-09 -0.000154438)
(-2.67557e-09 3.25725e-09 -0.000154572)
(4.00079e-09 2.67612e-09 -0.000154573)
(-1.52044e-09 -3.90975e-09 -0.00015444)
(-5.48573e-09 2.20005e-09 -0.000154568)
(2.63356e-09 -3.49541e-09 -0.000154439)
(-1.21547e-09 -8.36048e-09 -0.00016153)
(1.09017e-09 7.94649e-09 -0.000161589)
(-8.51983e-09 -1.06943e-09 -0.000161512)
(7.6795e-09 8.44504e-10 -0.000161422)
(-1.74978e-09 3.14762e-09 -0.00016159)
(-1.35908e-09 -8.63456e-09 -0.000161526)
(-3.23654e-09 2.75054e-09 -0.000154638)
(4.15485e-09 -1.76472e-10 -0.00015473)
(4.33486e-09 -2.13594e-10 -0.000154727)
(-3.20339e-09 -2.78095e-09 -0.000154635)
(4.15906e-09 -1.48362e-10 -0.00015473)
(-3.29698e-09 2.57974e-09 -0.000154639)
(2.97969e-09 -3.31188e-09 -0.000154634)
(-3.44268e-09 2.03176e-09 -0.000154725)
(3.26012e-09 2.68115e-09 -0.000154639)
(-4.12025e-09 -2.64725e-10 -0.000154731)
(-4.4523e-09 -6.44088e-10 -0.000154726)
(3.6985e-09 -1.48779e-09 -0.000154631)
(-4.1496e-09 -1.61332e-10 -0.000154731)
(3.29457e-09 2.5799e-09 -0.000154639)
(-7.92073e-09 -8.54152e-10 -0.000161425)
(7.52816e-09 7.12638e-10 -0.000161519)
(7.69299e-10 -4.80788e-09 -0.000161592)
(1.28578e-09 8.66317e-09 -0.000161531)
(7.28108e-09 5.88094e-10 -0.000161519)
(-7.99908e-09 -8.95193e-10 -0.000161425)
(-2.40209e-09 3.56812e-09 -0.000154446)
(3.84102e-09 -2.9497e-09 -0.000154582)
(2.78898e-09 3.42361e-09 -0.000154447)
(-3.63243e-09 -3.02729e-09 -0.000154582)
(3.63261e-09 -3.0177e-09 -0.000154582)
(-2.44621e-09 3.5471e-09 -0.000154446)
(-3.41712e-09 -3.10721e-09 -0.000154582)
(2.69044e-09 3.46544e-09 -0.000154447)
(-1.15411e-09 8.40673e-09 -0.000161527)
(-7.84641e-10 -4.74886e-09 -0.000161588)
(8.51077e-09 -1.16178e-09 -0.000161429)
(-7.35663e-09 6.14596e-10 -0.000161522)
(-8.19745e-10 -4.67725e-09 -0.000161588)
(-1.15103e-09 8.39248e-09 -0.000161527)
(-7.26576e-09 5.68759e-10 -0.000161522)
(8.40615e-09 -1.10281e-09 -0.000161429)
(-7.75135e-09 2.68264e-10 -0.000161415)
(7.31674e-09 -6.93098e-10 -0.000161506)
(1.3737e-09 -8.76768e-09 -0.000161532)
(8.06871e-10 4.76231e-09 -0.000161593)
(7.19277e-09 -6.14988e-10 -0.000161506)
(-7.61414e-09 6.87985e-10 -0.000161414)
(8.6676e-10 4.65549e-09 -0.000161593)
(1.27061e-09 -8.59436e-09 -0.000161532)
(-3.25131e-10 -3.63282e-09 -0.000154434)
(-4.47308e-09 2.62798e-09 -0.00015457)
(4.16492e-09 2.70198e-09 -0.000154575)
(-1.31641e-09 -3.99562e-09 -0.000154441)
(-5.04202e-09 2.34391e-09 -0.00015457)
(8.96032e-10 -4.12527e-09 -0.000154436)
(-2.13152e-09 -1.01014e-08 -0.00016153)
(-1.42732e-09 3.6044e-09 -0.000161589)
(-7.88753e-09 -9.78925e-10 -0.000161511)
(7.82988e-09 7.44689e-10 -0.000161414)
(-1.05892e-09 4.28778e-09 -0.000161589)
(-1.895e-09 -9.70621e-09 -0.00016153)
(-3.27382e-09 2.66368e-09 -0.000154639)
(4.15066e-09 -1.94099e-10 -0.00015473)
(4.35023e-09 -2.37898e-10 -0.000154727)
(-3.22953e-09 -2.71084e-09 -0.000154635)
(4.15428e-09 -1.76642e-10 -0.00015473)
(-3.29896e-09 2.57566e-09 -0.000154639)
(2.80434e-09 -3.86692e-09 -0.000154633)
(-4.69274e-09 -1.19579e-09 -0.000154726)
(3.25851e-09 2.6894e-09 -0.000154639)
(-4.08723e-09 -3.57298e-10 -0.000154731)
(-4.5767e-09 -8.92773e-10 -0.000154727)
(2.75339e-09 -3.91111e-09 -0.000154634)
(-4.14186e-09 -2.00354e-10 -0.000154731)
(3.34083e-09 2.46e-09 -0.000154639)
(-8.24145e-09 -1.02172e-09 -0.000161425)
(7.33428e-09 6.08982e-10 -0.000161518)
(7.30348e-10 -4.88707e-09 -0.000161592)
(1.25142e-09 8.5979e-09 -0.000161531)
(7.20459e-09 5.4499e-10 -0.000161519)
(-8.15039e-09 -9.78312e-10 -0.000161425)
(-2.65093e-09 3.47901e-09 -0.000154445)
(3.66794e-09 -3.01639e-09 -0.000154582)
(2.85391e-09 3.39384e-09 -0.000154447)
(-3.5792e-09 -3.04648e-09 -0.000154582)
(3.55995e-09 -3.04534e-09 -0.000154582)
(-2.63701e-09 3.47152e-09 -0.000154445)
(-3.49101e-09 -3.08338e-09 -0.000154582)
(2.70206e-09 3.45119e-09 -0.000154447)
(-1.19518e-09 8.47838e-09 -0.000161527)
(-7.49458e-10 -4.82085e-09 -0.000161588)
(8.52212e-09 -1.17044e-09 -0.000161429)
(-7.35423e-09 6.12682e-10 -0.000161522)
(-7.83517e-10 -4.75115e-09 -0.000161588)
(-1.09784e-09 8.29321e-09 -0.000161527)
(-7.36762e-09 6.20633e-10 -0.000161522)
(8.36017e-09 -1.08398e-09 -0.000161429)
(-7.79744e-09 7.85724e-10 -0.000161414)
(7.31694e-09 -6.77775e-10 -0.000161506)
(1.32547e-09 -8.69553e-09 -0.000161532)
(8.28694e-10 4.73592e-09 -0.000161593)
(7.22962e-09 -6.34236e-10 -0.000161506)
(-7.66473e-09 7.1572e-10 -0.000161414)
(8.72335e-10 4.64106e-09 -0.000161593)
(1.28983e-09 -8.62729e-09 -0.000161532)
(7.41146e-10 -4.20563e-09 -0.000154436)
(-2.52363e-09 3.35409e-09 -0.000154571)
(4.13983e-09 2.717e-09 -0.000154575)
(-1.38958e-09 -3.96559e-09 -0.000154441)
(-4.99654e-09 2.3787e-09 -0.00015457)
(2.50674e-09 -3.55859e-09 -0.000154438)
(-1.44105e-09 -8.81538e-09 -0.000161529)
(1.00812e-09 7.80443e-09 -0.000161588)
(-9.0626e-09 -1.70268e-09 -0.000161511)
(7.57804e-09 6.54046e-10 -0.00016142)
(-1.69217e-09 3.25294e-09 -0.00016159)
(-1.3993e-09 -8.70653e-09 -0.000161526)
(-3.28476e-09 2.62406e-09 -0.000154639)
(4.13313e-09 -2.3422e-10 -0.00015473)
(4.35235e-09 -2.52646e-10 -0.000154727)
(-3.22892e-09 -2.72153e-09 -0.000154636)
(4.15806e-09 -1.58503e-10 -0.00015473)
(-3.31128e-09 2.55341e-09 -0.000154639)
(2.96225e-09 -3.36164e-09 -0.000154634)
(-3.46586e-09 1.9562e-09 -0.000154725)
(3.24725e-09 2.70584e-09 -0.000154639)
(-4.13976e-09 -2.10833e-10 -0.000154731)
(-4.41981e-09 -5.54378e-10 -0.000154726)
(3.68598e-09 -1.53614e-09 -0.000154631)
(-4.1485e-09 -1.74012e-10 -0.00015473)
(3.28912e-09 2.60426e-09 -0.000154639)
(-8.29601e-09 -1.05322e-09 -0.000161425)
(7.33138e-09 6.07823e-10 -0.000161519)
(7.41135e-10 -4.86296e-09 -0.000161592)
(1.25522e-09 8.61079e-09 -0.000161531)
(7.20177e-09 5.44305e-10 -0.000161519)
(-8.15981e-09 -9.81357e-10 -0.000161425)
(-2.70573e-09 3.45772e-09 -0.000154445)
(3.67052e-09 -3.01474e-09 -0.000154582)
(2.76719e-09 3.42413e-09 -0.000154447)
(-3.61282e-09 -3.03328e-09 -0.000154582)
(3.56757e-09 -3.04434e-09 -0.000154582)
(-2.62097e-09 3.48015e-09 -0.000154445)
(-3.46489e-09 -3.08781e-09 -0.000154582)
(2.69079e-09 3.45878e-09 -0.000154447)
(-1.18889e-09 8.46101e-09 -0.000161527)
(-8.18721e-10 -4.69011e-09 -0.000161588)
(8.41697e-09 -1.11668e-09 -0.000161429)
(-7.38193e-09 6.28908e-10 -0.000161522)
(-8.12647e-10 -4.69071e-09 -0.000161588)
(-1.17046e-09 8.43527e-09 -0.000161527)
(-7.28667e-09 5.81301e-10 -0.000161522)
(8.36303e-09 -1.08302e-09 -0.000161429)
(-7.73245e-09 7.47877e-10 -0.000161414)
(7.4109e-09 -7.19196e-10 -0.000161506)
(1.33053e-09 -8.71059e-09 -0.000161532)
(8.36984e-10 4.71967e-09 -0.000161593)
(7.29388e-09 -6.69537e-10 -0.000161506)
(-7.57414e-09 6.80786e-10 -0.000161414)
(8.89841e-10 4.61122e-09 -0.000161593)
(1.29981e-09 -8.64359e-09 -0.000161532)
(5.2248e-10 -4.2927e-09 -0.000154435)
(-4.64623e-09 2.54015e-09 -0.00015457)
(4.25411e-09 2.67419e-09 -0.000154575)
(-1.37788e-09 -3.97055e-09 -0.000154441)
(-5.13279e-09 2.30756e-09 -0.00015457)
(7.75694e-10 -4.18462e-09 -0.000154436)
(-2.07068e-09 -9.9858e-09 -0.00016153)
(-1.43266e-09 3.59816e-09 -0.000161589)
(-7.96614e-09 -1.02739e-09 -0.000161512)
(7.71153e-09 7.0153e-10 -0.000161415)
(-1.07847e-09 4.25576e-09 -0.000161589)
(-1.90615e-09 -9.72077e-09 -0.00016153)
(-3.28004e-09 2.64082e-09 -0.000154639)
(4.13304e-09 -2.40564e-10 -0.00015473)
(4.36939e-09 -2.90353e-10 -0.000154727)
(-3.21839e-09 -2.74302e-09 -0.000154636)
(4.14643e-09 -1.95004e-10 -0.00015473)
(-3.31829e-09 2.5321e-09 -0.000154639)
(2.84136e-09 -3.76908e-09 -0.000154633)
(-4.68914e-09 -1.18413e-09 -0.000154726)
(3.2592e-09 2.68094e-09 -0.000154639)
(-4.08109e-09 -3.64854e-10 -0.000154731)
(-4.58962e-09 -9.27161e-10 -0.000154727)
(2.74583e-09 -3.92618e-09 -0.000154634)
(-4.13552e-09 -2.17656e-10 -0.000154731)
(3.34796e-09 2.45173e-09 -0.000154639)
(-8.29779e-09 -1.05326e-09 -0.000161425)
(7.3032e-09 5.91431e-10 -0.000161519)
(7.22105e-10 -4.89847e-09 -0.000161592)
(1.24551e-09 8.58873e-09 -0.000161531)
(7.20389e-09 5.43742e-10 -0.000161519)
(-8.18944e-09 -9.99471e-10 -0.000161425)
(-2.6928e-09 3.46122e-09 -0.000154445)
(3.66864e-09 -3.01588e-09 -0.000154582)
(2.79033e-09 3.42152e-09 -0.000154447)
(-3.67663e-09 -3.01031e-09 -0.000154582)
(3.52226e-09 -3.06227e-09 -0.000154582)
(-2.64348e-09 3.47016e-09 -0.000154446)
(-3.50022e-09 -3.0777e-09 -0.000154582)
(2.63281e-09 3.47604e-09 -0.000154446)
(-1.19525e-09 8.47764e-09 -0.000161527)
(-7.72472e-10 -4.77494e-09 -0.000161588)
(8.50309e-09 -1.15799e-09 -0.000161429)
(-7.42269e-09 6.49402e-10 -0.000161521)
(-7.81802e-10 -4.75407e-09 -0.000161588)
(-1.11572e-09 8.3296e-09 -0.000161527)
(-7.35718e-09 6.15458e-10 -0.000161522)
(8.29955e-09 -1.05207e-09 -0.000161429)
(-7.68261e-09 7.22974e-10 -0.000161414)
(7.364e-09 -7.0404e-10 -0.000161506)
(1.34255e-09 -8.73031e-09 -0.000161532)
(8.33557e-10 4.72511e-09 -0.000161593)
(7.21227e-09 -6.24629e-10 -0.000161506)
(-7.62774e-09 6.95727e-10 -0.000161414)
(8.87767e-10 4.6145e-09 -0.000161593)
(1.29705e-09 -8.64323e-09 -0.000161532)
(6.67335e-10 -4.23749e-09 -0.000154436)
(-2.5556e-09 3.33711e-09 -0.000154571)
(4.10622e-09 2.72915e-09 -0.000154575)
(-1.40257e-09 -3.95933e-09 -0.000154441)
(-4.97676e-09 2.38436e-09 -0.000154569)
(2.47557e-09 -3.57385e-09 -0.000154438)
(-1.45706e-09 -8.84292e-09 -0.000161529)
(9.9826e-10 7.78761e-09 -0.000161589)
(-8.98194e-09 -1.66122e-09 -0.000161511)
(7.58936e-09 6.56921e-10 -0.00016142)
(-1.69891e-09 3.24468e-09 -0.00016159)
(-1.40641e-09 -8.71681e-09 -0.000161526)
(-3.29033e-09 2.61252e-09 -0.000154639)
(4.13188e-09 -2.36696e-10 -0.00015473)
(4.36129e-09 -2.74608e-10 -0.000154727)
(-3.22078e-09 -2.74222e-09 -0.000154636)
(4.15524e-09 -1.68215e-10 -0.00015473)
(-3.31329e-09 2.54862e-09 -0.000154639)
(2.95265e-09 -3.38592e-09 -0.000154634)
(-3.47263e-09 1.94035e-09 -0.000154725)
(3.25461e-09 2.68835e-09 -0.000154639)
(-4.1392e-09 -2.0824e-10 -0.000154731)