/*--------------------------------*- C++ -*----------------------------------*\
| =========                 |                                                 |
| \\      /  F ield         | OpenFOAM: The Open Source CFD Toolbox           |
|  \\    /   O peration     | Version:  2206                                  |
|   \\  /    A nd           | Website:  www.openfoam.com                      |
|    \\/     M anipulation  |                                                 |
\*---------------------------------------------------------------------------*/
FoamFile
{
    version     2.0;
    format      ascii;
    arch        "LSB;label=32;scalar=64";
    class       volScalarField;
    location    "0.3";
    object      k;
}
// * * * * * * * * * * * * * * * * * * * * * * * * * * * * * * * * * * * * * //

dimensions      [0 2 -2 0 0 0 0];

internalField   nonuniform List<scalar> 
66928
(
2.66697e-05
2.44985e-05
2.4628e-05
2.46198e-05
2.66667e-05
2.44805e-05
2.66533e-05
2.66749e-05
2.20059e-05
2.19996e-05
1.61575e-05
1.58409e-05
3.23513e-05
3.19552e-05
2.49286e-05
4.04447e-05
2.42955e-05
4.18169e-05
4.02837e-05
2.28443e-05
3.55495e-05
2.42634e-05
4.18141e-05
2.28444e-05
4.0244e-05
3.55446e-05
1.58224e-05
3.19391e-05
3.24824e-05
1.61702e-05
4.06203e-05
2.49372e-05
1.61599e-05
1.61185e-05
1.58989e-05
1.58897e-05
3.23965e-05
3.20162e-05
2.66731e-05
3.24251e-05
3.20452e-05
1.61154e-05
1.61281e-05
1.58931e-05
1.59148e-05
2.66566e-05
3.247e-05
3.20899e-05
3.24587e-05
3.20862e-05
1.61898e-05
3.86611e-05
3.76685e-05
3.23531e-05
2.36558e-05
2.36623e-05
3.76504e-05
3.86615e-05
3.81929e-05
3.757e-05
3.19604e-05
2.3221e-05
2.32292e-05
3.75418e-05
3.81886e-05
2.44581e-05
1.36835e-05
1.35982e-05
1.36855e-05
1.36023e-05
2.44405e-05
2.4947e-05
3.28713e-05
3.28756e-05
1.46603e-05
3.21647e-05
1.4156e-05
4.08717e-05
2.07336e-05
1.90211e-05
3.2121e-05
1.4142e-05
2.07296e-05
4.08506e-05
1.90094e-05
3.815e-05
3.75917e-05
3.19446e-05
2.31953e-05
3.75628e-05
2.32038e-05
3.81463e-05
3.86773e-05
3.76387e-05
3.2482e-05
2.37211e-05
2.37251e-05
3.76129e-05
3.86761e-05
2.44715e-05
1.35996e-05
1.37188e-05
1.36048e-05
1.37223e-05
2.4452e-05
1.61694e-05
2.4933e-05
3.30331e-05
3.30247e-05
1.45636e-05
1.61321e-05
1.61377e-05
1.58866e-05
1.59121e-05
2.45272e-05
1.37258e-05
1.36373e-05
1.37372e-05
1.3651e-05
2.45015e-05
3.8704e-05
3.7662e-05
2.37027e-05
3.23933e-05
3.87086e-05
2.36936e-05
3.76784e-05
3.82252e-05
3.75665e-05
2.32782e-05
3.20091e-05
3.82333e-05
2.32667e-05
3.75948e-05
2.44791e-05
1.37228e-05
1.36378e-05
2.45027e-05
1.37154e-05
1.36284e-05
3.87417e-05
2.37115e-05
3.24318e-05
3.76884e-05
2.37257e-05
3.87355e-05
3.76722e-05
3.82632e-05
2.32899e-05
3.2058e-05
3.76184e-05
2.33072e-05
3.82541e-05
3.75922e-05
1.61267e-05
1.61165e-05
1.59154e-05
1.58935e-05
2.45165e-05
1.37449e-05
1.36582e-05
2.45445e-05
1.37324e-05
1.36436e-05
3.87789e-05
3.77101e-05
3.24801e-05
2.37244e-05
2.37424e-05
3.76937e-05
3.87705e-05
3.83008e-05
3.76552e-05
3.21067e-05
2.33092e-05
2.33304e-05
3.76338e-05
3.82899e-05
3.87553e-05
2.37383e-05
3.76826e-05
3.24517e-05
3.87646e-05
2.37233e-05
3.76997e-05
3.82736e-05
2.33231e-05
3.76148e-05
3.20724e-05
3.82853e-05
2.33046e-05
3.76385e-05
2.4556e-05
1.37331e-05
1.36445e-05
1.37476e-05
1.36609e-05
2.45273e-05
3.64537e-05
2.66511e-05
3.14526e-05
3.15372e-05
3.14179e-05
3.14991e-05
3.64806e-05
3.64446e-05
2.66464e-05
3.15335e-05
3.14576e-05
3.14949e-05
3.14242e-05
3.647e-05
3.64909e-05
3.14235e-05
3.14992e-05
2.66715e-05
3.64653e-05
3.14584e-05
3.15378e-05
3.64956e-05
2.66574e-05
3.14782e-05
3.15507e-05
3.14433e-05
3.15101e-05
3.65215e-05
2.16528e-05
2.165e-05
3.06775e-05
3.42037e-05
4.04336e-05
3.87803e-05
3.41764e-05
3.87729e-05
3.06852e-05
3.0973e-05
3.44026e-05
4.02776e-05
3.87931e-05
3.43627e-05
3.87605e-05
3.10068e-05
2.90249e-05
3.5505e-05
3.69294e-05
2.80276e-05
3.68928e-05
2.79773e-05
2.90733e-05
3.09604e-05
3.43742e-05
4.02379e-05
3.87628e-05
3.873e-05
3.43344e-05
3.09947e-05
2.90172e-05
3.55002e-05
2.80255e-05
3.69125e-05
2.79753e-05
3.68762e-05
2.90663e-05
3.0761e-05
3.43022e-05
4.06107e-05
3.88616e-05
3.42757e-05
3.8839e-05
3.07729e-05
3.64756e-05
2.66551e-05
3.1465e-05
3.15408e-05
3.65017e-05
3.143e-05
3.15012e-05
3.65112e-05
2.66743e-05
3.14368e-05
3.15052e-05
3.64859e-05
3.14718e-05
3.15455e-05
2.20025e-05
2.46185e-05
2.44773e-05
2.66611e-05
2.19903e-05
2.46169e-05
2.44704e-05
2.66632e-05
2.19904e-05
2.46238e-05
2.4474e-05
2.6666e-05
2.20131e-05
2.46456e-05
2.44933e-05
2.66822e-05
2.2018e-05
2.46534e-05
2.45094e-05
2.67096e-05
2.20001e-05
2.4632e-05
2.44994e-05
2.67045e-05
2.19886e-05
2.46253e-05
2.44844e-05
2.66808e-05
2.19883e-05
2.46164e-05
2.44801e-05
2.66781e-05
2.1987e-05
2.46075e-05
2.44702e-05
2.66609e-05
2.19857e-05
2.46069e-05
2.44661e-05
2.66555e-05
2.19855e-05
2.46061e-05
2.44663e-05
2.66567e-05
2.19854e-05
2.46068e-05
2.44662e-05
2.66571e-05
2.19853e-05
2.46063e-05
2.44661e-05
2.66552e-05
2.19853e-05
2.46067e-05
2.44661e-05
2.66574e-05
2.19853e-05
2.46061e-05
2.4466e-05
2.66566e-05
2.19854e-05
2.46067e-05
2.44661e-05
2.6658e-05
2.19853e-05
2.46062e-05
2.44661e-05
2.66567e-05
2.44912e-05
2.44907e-05
2.44741e-05
2.44744e-05
2.66483e-05
2.66711e-05
2.46269e-05
2.46194e-05
2.46224e-05
2.46145e-05
2.46183e-05
2.46168e-05
2.46138e-05
2.66517e-05
2.66738e-05
2.4481e-05
2.44711e-05
2.44757e-05
2.66805e-05
2.66579e-05
2.66776e-05
2.44701e-05
2.44707e-05
2.44677e-05
2.44691e-05
2.66538e-05
2.66702e-05
2.46214e-05
2.46137e-05
2.46227e-05
2.46153e-05
2.46135e-05
2.46196e-05
2.46154e-05
2.66573e-05
2.66796e-05
2.44753e-05
2.44719e-05
2.44769e-05
2.66826e-05
2.66613e-05
2.66851e-05
2.44683e-05
2.44705e-05
2.44764e-05
2.4483e-05
2.66536e-05
2.66854e-05
2.46247e-05
2.46176e-05
2.4637e-05
2.46302e-05
2.46185e-05
2.464e-05
2.4634e-05
2.66633e-05
2.66894e-05
2.44793e-05
2.44879e-05
2.44956e-05
2.66964e-05
2.66698e-05
2.67096e-05
2.44799e-05
2.44867e-05
2.44897e-05
2.44915e-05
2.66716e-05
2.67031e-05
2.46416e-05
2.4635e-05
2.46551e-05
2.46492e-05
2.46396e-05
2.46534e-05
2.46517e-05
2.66748e-05
2.67183e-05
2.45018e-05
2.45073e-05
2.4516e-05
2.67255e-05
2.66941e-05
2.67124e-05
2.44907e-05
2.44912e-05
2.44855e-05
2.44781e-05
2.66863e-05
2.66887e-05
2.46574e-05
2.46517e-05
2.46556e-05
2.46504e-05
2.46526e-05
2.46374e-05
2.46434e-05
2.6703e-05
2.67245e-05
2.45176e-05
2.45065e-05
2.4512e-05
2.67254e-05
2.66924e-05
2.66863e-05
2.44793e-05
2.44729e-05
2.44706e-05
2.44684e-05
2.66669e-05
2.66753e-05
2.46492e-05
2.46442e-05
2.46359e-05
2.46299e-05
2.46363e-05
2.4626e-05
2.46254e-05
2.67048e-05
2.66962e-05
2.45041e-05
2.44857e-05
2.44904e-05
2.66981e-05
2.66692e-05
2.66897e-05
2.44707e-05
2.44685e-05
2.44724e-05
2.44698e-05
2.66586e-05
2.66708e-05
2.46349e-05
2.46287e-05
2.46342e-05
2.46277e-05
2.46247e-05
2.46192e-05
2.46213e-05
2.66783e-05
2.66968e-05
2.44892e-05
2.4482e-05
2.44872e-05
2.66969e-05
2.66714e-05
2.66732e-05
2.44723e-05
2.44691e-05
2.44686e-05
2.44651e-05
2.66518e-05
2.66559e-05
2.46328e-05
2.4626e-05
2.4624e-05
2.46167e-05
2.4619e-05
2.4609e-05
2.46113e-05
2.66782e-05
2.66782e-05
2.44853e-05
2.44724e-05
2.4478e-05
2.66799e-05
2.66544e-05
2.66628e-05
2.44671e-05
2.4464e-05
2.44638e-05
2.44641e-05
2.66377e-05
2.66543e-05
2.46214e-05
2.4614e-05
2.4616e-05
2.4609e-05
2.46093e-05
2.46066e-05
2.46067e-05
2.66593e-05
2.66682e-05
2.4476e-05
2.44663e-05
2.44725e-05
2.66729e-05
2.66454e-05
2.66654e-05
2.44635e-05
2.44641e-05
2.44636e-05
2.44634e-05
2.66376e-05
2.66533e-05
2.46156e-05
2.46088e-05
2.46161e-05
2.46095e-05
2.46067e-05
2.46062e-05
2.46068e-05
2.66509e-05
2.66721e-05
2.44722e-05
2.44664e-05
2.44719e-05
2.66747e-05
2.66485e-05
2.66629e-05
2.44636e-05
2.44631e-05
2.44633e-05
2.44641e-05
2.66359e-05
2.66549e-05
2.46161e-05
2.46094e-05
2.46155e-05
2.4609e-05
2.46066e-05
2.46067e-05
2.46069e-05
2.66551e-05
2.66691e-05
2.44718e-05
2.4466e-05
2.44718e-05
2.6674e-05
2.66464e-05
2.66642e-05
2.44635e-05
2.44641e-05
2.44634e-05
2.44634e-05
2.66382e-05
2.66528e-05
2.46156e-05
2.46092e-05
2.46156e-05
2.46091e-05
2.4607e-05
2.46063e-05
2.46066e-05
2.66526e-05
2.66702e-05
2.44719e-05
2.44661e-05
2.44717e-05
2.66729e-05
2.66468e-05
2.66644e-05
2.44632e-05
2.44631e-05
2.44633e-05
2.4464e-05
2.66356e-05
2.66544e-05
2.46155e-05
2.4609e-05
2.46158e-05
2.46091e-05
2.46067e-05
2.46065e-05
2.46069e-05
2.66528e-05
2.66701e-05
2.44717e-05
2.44661e-05
2.4472e-05
2.66752e-05
2.66478e-05
2.66639e-05
2.44634e-05
2.4464e-05
2.44634e-05
2.44632e-05
2.66378e-05
2.66524e-05
2.46158e-05
2.46092e-05
2.46158e-05
2.46091e-05
2.46069e-05
2.46062e-05
2.46067e-05
2.66534e-05
2.66698e-05
2.4472e-05
2.4466e-05
2.44719e-05
2.66742e-05
2.66471e-05
2.66637e-05
2.44633e-05
2.44629e-05
2.44633e-05
2.44639e-05
2.66353e-05
2.66544e-05
2.46157e-05
2.46091e-05
2.46157e-05
2.46092e-05
2.46067e-05
2.46065e-05
2.4607e-05
2.6653e-05
2.66697e-05
2.44719e-05
2.4466e-05
2.44722e-05
2.66755e-05
2.66472e-05
2.66637e-05
2.44635e-05
2.4464e-05
2.44634e-05
2.44631e-05
2.66378e-05
2.66525e-05
2.46157e-05
2.46092e-05
2.46157e-05
2.46093e-05
2.46069e-05
2.46062e-05
2.46068e-05
2.66531e-05
2.667e-05
2.44722e-05
2.4466e-05
2.44721e-05
2.66743e-05
2.66469e-05
2.44633e-05
2.44628e-05
2.66354e-05
2.46157e-05
2.46092e-05
2.46068e-05
2.46071e-05
2.66533e-05
2.44721e-05
2.44723e-05
2.66767e-05
4.22459e-05
2.49341e-05
4.21881e-05
2.48888e-05
1.61804e-05
1.61291e-05
4.19045e-05
2.43616e-05
4.18709e-05
2.43724e-05
2.1999e-05
2.19971e-05
2.19969e-05
2.19934e-05
2.19914e-05
2.199e-05
2.19901e-05
3.55775e-05
4.03551e-05
2.28416e-05
2.46183e-05
4.03824e-05
2.28382e-05
3.55266e-05
1.58795e-05
1.58714e-05
3.53182e-05
2.26834e-05
4.06531e-05
2.44751e-05
2.26827e-05
4.06914e-05
3.52889e-05
3.21031e-05
3.25237e-05
2.66804e-05
3.21056e-05
3.25504e-05
4.23706e-05
2.48784e-05
4.23402e-05
2.48641e-05
1.61296e-05
1.61145e-05
4.1979e-05
2.44066e-05
4.19733e-05
2.43794e-05
2.19889e-05
2.19884e-05
2.19887e-05
2.19886e-05
2.19884e-05
2.19889e-05
2.19896e-05
3.55976e-05
4.04255e-05
2.2832e-05
2.46172e-05
3.55465e-05
4.04246e-05
2.28322e-05
1.58984e-05
1.58802e-05
3.53451e-05
2.26808e-05
4.07511e-05
2.44705e-05
3.53182e-05
2.2681e-05
4.07649e-05
3.21379e-05
3.2604e-05
2.66812e-05
3.21113e-05
3.25862e-05
4.24084e-05
2.4863e-05
4.23945e-05
2.48519e-05
1.61178e-05
1.61089e-05
4.19452e-05
2.43762e-05
4.19785e-05
2.43466e-05
2.19909e-05
2.19917e-05
2.19926e-05
2.2009e-05
2.20132e-05
2.20123e-05
2.20157e-05
3.5595e-05
4.04163e-05
2.28419e-05
2.46288e-05
3.55548e-05
4.04057e-05
2.28479e-05
1.5885e-05
1.58589e-05
3.53418e-05
2.26864e-05
4.07538e-05
2.44783e-05
3.53311e-05
2.26938e-05
4.07341e-05
3.21006e-05
3.25683e-05
2.66874e-05
3.20699e-05
3.25406e-05
4.24948e-05
2.4881e-05
4.24683e-05
2.48854e-05
1.61304e-05
1.61268e-05
4.19419e-05
2.43626e-05
4.19397e-05
2.43461e-05
2.20179e-05
2.20165e-05
2.20208e-05
2.2018e-05
2.2022e-05
2.20219e-05
2.20268e-05
3.56272e-05
4.04255e-05
2.28616e-05
2.46499e-05
3.55595e-05
4.04278e-05
2.28644e-05
1.58701e-05
1.58528e-05
3.53537e-05
2.27133e-05
4.07367e-05
2.44987e-05
3.53119e-05
2.27175e-05
4.07506e-05
3.20922e-05
3.25514e-05
2.67121e-05
3.20813e-05
3.25487e-05
4.253e-05
2.49011e-05
4.25254e-05
2.48964e-05
1.61344e-05
1.61188e-05
4.19677e-05
2.43656e-05
4.19697e-05
2.4343e-05
2.20215e-05
2.20219e-05
2.20267e-05
2.20071e-05
2.20032e-05
2.20115e-05
2.20121e-05
3.56459e-05
4.04364e-05
2.28661e-05
2.46512e-05
3.55951e-05
4.04241e-05
2.28635e-05
1.58692e-05
1.58481e-05
3.5386e-05
2.27228e-05
4.07663e-05
2.451e-05
3.53602e-05
2.27225e-05
4.07649e-05
3.21039e-05
3.25661e-05
2.67295e-05
3.20825e-05
3.25533e-05
4.25512e-05
2.49113e-05
4.25393e-05
2.49108e-05
1.61319e-05
1.61268e-05
4.19537e-05
2.43478e-05
4.19738e-05
2.43214e-05
2.19965e-05
2.2004e-05
2.20042e-05
2.19894e-05
2.19877e-05
2.19917e-05
2.19918e-05
3.56101e-05
4.04146e-05
2.28426e-05
2.46286e-05
3.55818e-05
4.03979e-05
2.28386e-05
1.58558e-05
1.58339e-05
3.5361e-05
2.27055e-05
4.07512e-05
2.44931e-05
3.53578e-05
2.26993e-05
4.07415e-05
3.20858e-05
3.25529e-05
2.67076e-05
3.20575e-05
3.25348e-05
4.25762e-05
2.49247e-05
4.25721e-05
2.4912e-05
1.61338e-05
1.61138e-05
4.19348e-05
2.43261e-05
4.19508e-05
2.42933e-05
2.1987e-05
2.19905e-05
2.19906e-05
2.19884e-05
2.19863e-05
2.19896e-05
2.19895e-05
3.56056e-05
4.03797e-05
2.28357e-05
2.46238e-05
3.55652e-05
4.03531e-05
2.28354e-05
1.58402e-05
1.58127e-05
3.53509e-05
2.26914e-05
4.07288e-05
2.44839e-05
3.53319e-05
2.26909e-05
4.07153e-05
3.20534e-05
3.25327e-05
2.66994e-05
3.20195e-05
3.2505e-05
4.25651e-05
2.49082e-05
4.25722e-05
2.48967e-05
1.61173e-05
1.61081e-05
4.18889e-05
2.42887e-05
4.19201e-05
2.42569e-05
2.1986e-05
2.19893e-05
2.19891e-05
2.19873e-05
2.19851e-05
2.19878e-05
2.19877e-05
3.55621e-05
4.03281e-05
2.28311e-05
2.46137e-05
3.55329e-05
4.03056e-05
2.28293e-05
1.58131e-05
1.57886e-05
3.53242e-05
2.26889e-05
4.06905e-05
2.44776e-05
3.53218e-05
2.26876e-05
4.06693e-05
3.2012e-05
3.24918e-05
2.66891e-05
3.19812e-05
3.2465e-05
4.25588e-05
2.49007e-05
4.25622e-05
2.48928e-05
1.61152e-05
1.61034e-05
4.18549e-05
2.4263e-05
4.18729e-05
2.42418e-05
2.19849e-05
2.19873e-05
2.19873e-05
2.19858e-05
2.19849e-05
2.19864e-05
2.19867e-05
3.55443e-05
4.02971e-05
2.28257e-05
2.46066e-05
3.55039e-05
4.02906e-05
2.28251e-05
1.5799e-05
1.578e-05
3.52937e-05
2.26838e-05
4.06488e-05
2.44684e-05
3.52839e-05
2.26829e-05
4.06421e-05
3.19853e-05
3.24608e-05
2.6675e-05
3.19666e-05
3.24452e-05
4.25602e-05
2.48982e-05
4.25576e-05
2.48901e-05
1.61137e-05
1.61073e-05
4.18582e-05
2.42655e-05
4.18625e-05
2.42465e-05
2.1985e-05
2.19863e-05
2.19866e-05
2.19855e-05
2.19849e-05
2.19862e-05
2.19866e-05
3.55521e-05
4.03035e-05
2.28252e-05
2.46069e-05
3.55037e-05
4.02924e-05
2.28253e-05
1.57991e-05
1.57822e-05
3.52879e-05
2.26817e-05
4.06425e-05
2.44662e-05
3.52681e-05
2.26816e-05
4.06416e-05
3.19924e-05
3.24614e-05
2.66743e-05
3.19717e-05
3.24486e-05
4.25627e-05
2.48991e-05
4.25652e-05
2.4891e-05
1.61146e-05
1.61033e-05
4.18564e-05
2.42627e-05
4.18656e-05
2.4244e-05
2.19849e-05
2.19862e-05
2.19865e-05
2.19853e-05
2.19849e-05
2.19862e-05
2.19866e-05
3.55511e-05
4.02972e-05
2.28252e-05
2.46061e-05
3.55043e-05
4.02961e-05
2.28252e-05
1.57985e-05
1.57832e-05
3.52875e-05
2.26815e-05
4.06403e-05
2.44661e-05
3.52696e-05
2.26815e-05
4.0641e-05
3.19849e-05
3.2458e-05
2.66731e-05
3.19718e-05
3.24477e-05
4.25581e-05
2.48981e-05
4.25621e-05
2.48892e-05
1.61126e-05
1.61052e-05
4.1861e-05
2.4264e-05
4.18698e-05
2.42442e-05
2.1985e-05
2.19862e-05
2.19866e-05
2.19853e-05
2.19849e-05
2.19862e-05
2.19866e-05
3.55521e-05
4.03017e-05
2.28255e-05
2.46068e-05
3.55096e-05
4.02946e-05
2.28254e-05
1.58016e-05
1.57831e-05
3.52882e-05
2.26814e-05
4.06433e-05
2.44663e-05
3.52684e-05
2.26814e-05
4.06418e-05
3.19889e-05
3.2462e-05
2.66755e-05
3.1967e-05
3.24463e-05
4.25565e-05
2.48981e-05
4.25575e-05
2.4891e-05
1.61146e-05
1.61017e-05
4.18604e-05
2.42666e-05
4.18674e-05
2.42466e-05
2.19849e-05
2.19862e-05
2.19866e-05
2.19853e-05
2.19849e-05
2.19862e-05
2.19866e-05
3.55536e-05
4.02984e-05
2.28254e-05
2.46062e-05
3.55071e-05
4.02943e-05
2.28254e-05
1.58017e-05
1.57834e-05
3.52876e-05
2.26813e-05
4.06427e-05
2.4466e-05
3.52697e-05
2.26813e-05
4.06419e-05
3.19916e-05
3.24627e-05
2.66741e-05
3.19702e-05
3.24487e-05
4.25583e-05
2.4898e-05
4.25607e-05
2.48895e-05
1.61113e-05
1.61041e-05
4.18599e-05
2.42661e-05
4.18693e-05
2.42459e-05
2.19849e-05
2.19862e-05
2.19866e-05
2.19853e-05
2.19849e-05
2.19862e-05
2.19866e-05
3.55529e-05
4.03027e-05
2.28254e-05
2.46067e-05
3.55065e-05
4.02929e-05
2.28254e-05
1.57997e-05
1.57824e-05
3.52888e-05
2.26813e-05
4.0643e-05
2.44661e-05
3.52706e-05
2.26813e-05
4.06411e-05
3.19905e-05
3.24645e-05
2.66741e-05
3.19696e-05
3.2449e-05
4.25561e-05
2.48984e-05
4.25587e-05
2.48919e-05
1.61141e-05
1.61024e-05
4.18593e-05
2.42654e-05
4.18697e-05
2.42455e-05
2.19848e-05
2.19862e-05
2.19866e-05
2.19853e-05
2.19849e-05
2.19862e-05
2.19867e-05
3.55515e-05
4.02992e-05
2.28254e-05
2.46061e-05
3.55067e-05
4.02946e-05
2.28253e-05
1.58004e-05
1.5783e-05
3.5289e-05
2.26812e-05
4.0642e-05
2.4466e-05
3.52705e-05
2.26812e-05
4.064e-05
3.19913e-05
3.2466e-05
2.66739e-05
3.19717e-05
3.24517e-05
4.25582e-05
2.48986e-05
4.25559e-05
2.48894e-05
1.6113e-05
1.61062e-05
4.18602e-05
2.42659e-05
4.18696e-05
2.42458e-05
2.19849e-05
2.19862e-05
2.19866e-05
2.19853e-05
2.19849e-05
2.19862e-05
2.19867e-05
3.55515e-05
4.03029e-05
2.28254e-05
2.46067e-05
3.55076e-05
4.02938e-05
2.28254e-05
1.57989e-05
1.57823e-05
3.5289e-05
2.26813e-05
4.06414e-05
2.44661e-05
3.52705e-05
2.26813e-05
4.06395e-05
3.19894e-05
3.24651e-05
2.66746e-05
3.19698e-05
3.24497e-05
4.25611e-05
2.48993e-05
4.25631e-05
2.48921e-05
1.61158e-05
1.61035e-05
4.18596e-05
2.42661e-05
4.18699e-05
2.42462e-05
2.19848e-05
2.19862e-05
2.19866e-05
2.19867e-05
3.55512e-05
4.02994e-05
2.28254e-05
2.46061e-05
3.55075e-05
4.02946e-05
2.28253e-05
1.57988e-05
1.57765e-05
3.52886e-05
2.26814e-05
4.06409e-05
2.44659e-05
3.52706e-05
2.26814e-05
4.06396e-05
3.19908e-05
3.24656e-05
2.66742e-05
3.19715e-05
3.24518e-05
4.22333e-05
2.49346e-05
2.48942e-05
4.21733e-05
3.51917e-05
4.04811e-05
2.27196e-05
2.44846e-05
2.27118e-05
3.51992e-05
4.0523e-05
3.51845e-05
4.04945e-05
2.27215e-05
2.44852e-05
4.05333e-05
2.27131e-05
3.51914e-05
4.22757e-05
2.487e-05
4.232e-05
2.48964e-05
4.22644e-05
2.48775e-05
2.49033e-05
4.2311e-05
3.51685e-05
2.44791e-05
4.05731e-05
2.26969e-05
2.27046e-05
3.51791e-05
4.05473e-05
3.51616e-05
2.44803e-05
4.05824e-05
2.26971e-05
4.05559e-05
2.27054e-05
3.51731e-05
3.24057e-05
3.21199e-05
2.66692e-05
3.2416e-05
3.21184e-05
1.59138e-05
1.59028e-05
1.61209e-05
1.6137e-05
2.66533e-05
3.24374e-05
3.21262e-05
3.24339e-05
3.2152e-05
1.58945e-05
1.5927e-05
3.55512e-05
4.03228e-05
2.28405e-05
2.4626e-05
2.28378e-05
3.55031e-05
4.03593e-05
4.19021e-05
2.43331e-05
2.43484e-05
4.18683e-05
3.55462e-05
2.28404e-05
4.02832e-05
2.46184e-05
2.28372e-05
4.03209e-05
3.54981e-05
4.19318e-05
2.43865e-05
4.19527e-05
2.4403e-05
3.55081e-05
2.46246e-05
4.04102e-05
2.28323e-05
2.2835e-05
3.55642e-05
4.03879e-05
4.19295e-05
2.43688e-05
2.43809e-05
4.19502e-05
3.55033e-05
2.46167e-05
2.28313e-05
4.03741e-05
2.28342e-05
4.03503e-05
3.55599e-05
4.19644e-05
2.44077e-05
2.43897e-05
4.19435e-05
3.55706e-05
2.28417e-05
4.0303e-05
2.46173e-05
2.28386e-05
4.03299e-05
3.55202e-05
4.19549e-05
2.43654e-05
2.43549e-05
4.1931e-05
3.5535e-05
2.46174e-05
4.04158e-05
2.28324e-05
4.04069e-05
2.28346e-05
3.55895e-05
4.19856e-05
2.43857e-05
2.44122e-05
4.19907e-05
3.55282e-05
2.46155e-05
2.28326e-05
4.03688e-05
2.28352e-05
4.03548e-05
3.55837e-05
4.19779e-05
2.4359e-05
2.43811e-05
4.19864e-05
3.19995e-05
3.25338e-05
2.6672e-05
3.20264e-05
3.25681e-05
1.6205e-05
1.62038e-05
1.58763e-05
1.58968e-05
2.66551e-05
3.20678e-05
3.26132e-05
3.20665e-05
3.26032e-05
1.62145e-05
1.62215e-05
3.5316e-05
2.26845e-05
4.06871e-05
2.44793e-05
2.26835e-05
4.07296e-05
3.52867e-05
4.26457e-05
2.49873e-05
2.50141e-05
4.26151e-05
4.26388e-05
2.49989e-05
2.50175e-05
4.26046e-05
3.53036e-05
2.44732e-05
2.26809e-05
4.07384e-05
2.26816e-05
4.07146e-05
3.53337e-05
3.53016e-05
2.44774e-05
2.26817e-05
4.07764e-05
2.26824e-05
4.0754e-05
3.53323e-05
4.26647e-05
2.50361e-05
2.50393e-05
4.26877e-05
4.26591e-05
2.50362e-05
2.50406e-05
4.2683e-05
1.58945e-05
1.58765e-05
1.62154e-05
1.62132e-05
2.66633e-05
3.21196e-05
3.25898e-05
3.2136e-05
3.25835e-05
1.58754e-05
1.59007e-05
1.62213e-05
1.62301e-05
1.61275e-05
1.61161e-05
1.59159e-05
1.58899e-05
3.24934e-05
3.21197e-05
2.66755e-05
3.2485e-05
3.21025e-05
1.61119e-05
1.61274e-05
1.58775e-05
1.59105e-05
2.66585e-05
3.24698e-05
3.2082e-05
3.24991e-05
3.21223e-05
4.2362e-05
2.48862e-05
4.23369e-05
2.4855e-05
3.51821e-05
4.05924e-05
2.26896e-05
2.4468e-05
3.51606e-05
4.06035e-05
2.26842e-05
3.51772e-05
4.06001e-05
2.26895e-05
2.44691e-05
3.51549e-05
4.06063e-05
2.26839e-05
4.23839e-05
2.48548e-05
2.4875e-05
4.23905e-05
4.23746e-05
2.48382e-05
2.48629e-05
4.23807e-05
3.51657e-05
2.44676e-05
4.06098e-05
2.2681e-05
4.06125e-05
2.26816e-05
3.51889e-05
3.51611e-05
2.44689e-05
4.06033e-05
2.26807e-05
4.06119e-05
2.26813e-05
3.51846e-05
3.24556e-05
3.21455e-05
2.66699e-05
3.24424e-05
3.21063e-05
1.59139e-05
1.58795e-05
1.61081e-05
1.61239e-05
2.66526e-05
3.2421e-05
3.20771e-05
3.24536e-05
3.21228e-05
1.58616e-05
1.5898e-05
3.55831e-05
4.04326e-05
2.28309e-05
2.46215e-05
3.55238e-05
4.04406e-05
2.28309e-05
4.19795e-05
2.43929e-05
4.19723e-05
2.43685e-05
3.55785e-05
2.28297e-05
4.03976e-05
2.46138e-05
3.55194e-05
2.28296e-05
4.04074e-05
4.19899e-05
2.43584e-05
2.43992e-05
4.19744e-05
3.55417e-05
2.46219e-05
4.04435e-05
2.28322e-05
4.04528e-05
2.28312e-05
3.55962e-05
4.19911e-05
2.43432e-05
2.43881e-05
4.19766e-05
3.55373e-05
2.46143e-05
2.28309e-05
4.04122e-05
2.283e-05
4.04206e-05
3.55921e-05
4.19891e-05
2.44051e-05
4.20015e-05
2.43634e-05
3.55936e-05
2.28318e-05
4.03852e-05
2.46137e-05
3.55413e-05
2.28319e-05
4.03835e-05
4.19886e-05
2.43791e-05
4.19989e-05
2.43412e-05
3.55537e-05
2.46178e-05
4.04125e-05
2.28358e-05
4.04322e-05
2.2833e-05
3.56009e-05
4.19948e-05
2.43382e-05
2.43816e-05
4.19702e-05
3.555e-05
2.46142e-05
2.2834e-05
4.03768e-05
2.28324e-05
4.0392e-05
3.55976e-05
4.19944e-05
2.43184e-05
2.43599e-05
4.19681e-05
3.20977e-05
3.26326e-05
2.66766e-05
3.20819e-05
3.26139e-05
1.62276e-05
1.621e-05
1.58671e-05
1.5901e-05
2.66599e-05
3.20629e-05
3.25808e-05
3.21025e-05
3.26244e-05
1.61946e-05
1.62192e-05
3.5345e-05
2.26817e-05
4.07916e-05
2.44754e-05
3.53174e-05
2.26819e-05
4.07967e-05
4.27e-05
2.50481e-05
4.27007e-05
2.50175e-05
4.2697e-05
2.50494e-05
4.26965e-05
2.50331e-05
3.53291e-05
2.44709e-05
2.2683e-05
4.07571e-05
2.26816e-05
4.07711e-05
3.53509e-05
3.53293e-05
2.44759e-05
2.26841e-05
4.07858e-05
2.26826e-05
4.08018e-05
3.53514e-05
4.27015e-05
2.49901e-05
2.50247e-05
4.26779e-05
4.26986e-05
2.50001e-05
2.50412e-05
4.26755e-05
1.58962e-05
1.58651e-05
1.62339e-05
1.62161e-05
2.66643e-05
3.20853e-05
3.25601e-05
3.21293e-05
3.25977e-05
1.58555e-05
1.58846e-05
1.62038e-05
1.6226e-05
1.61226e-05
1.61099e-05
1.58967e-05
1.58694e-05
3.24804e-05
3.20988e-05
2.66808e-05
3.24486e-05
3.20551e-05
1.61154e-05
1.61233e-05
1.58662e-05
1.58903e-05
2.66643e-05
3.24421e-05
3.20412e-05
3.24605e-05
3.20728e-05
4.23971e-05
2.48478e-05
4.23883e-05
2.4837e-05
3.51939e-05
4.06133e-05
2.26813e-05
2.44704e-05
3.51718e-05
4.06024e-05
2.26833e-05
3.51896e-05
4.06065e-05
2.26811e-05
2.44743e-05
3.51675e-05
4.06008e-05
2.26833e-05
4.24243e-05
2.48665e-05
2.4869e-05
4.2453e-05
4.24117e-05
2.485e-05
2.48549e-05
4.24381e-05
3.51793e-05
2.44733e-05
4.06091e-05
2.26891e-05
4.06063e-05
2.26867e-05
3.52207e-05
3.5175e-05
2.44794e-05
4.06172e-05
2.26896e-05
4.06081e-05
2.2687e-05
3.5216e-05
3.24315e-05
3.20954e-05
2.66741e-05
3.2407e-05
3.20632e-05
1.58817e-05
1.58631e-05
1.61173e-05
1.6121e-05
2.66595e-05
3.24179e-05
3.20613e-05
3.24168e-05
3.209e-05
1.58556e-05
1.58865e-05
3.55964e-05
4.04491e-05
2.28348e-05
2.46288e-05
3.55526e-05
4.04259e-05
2.28408e-05
4.1948e-05
2.43612e-05
4.19814e-05
2.43183e-05
3.55927e-05
2.28335e-05
4.04179e-05
2.46218e-05
3.55486e-05
2.28394e-05
4.0393e-05
4.19499e-05
2.43416e-05
2.43674e-05
4.19314e-05
3.55483e-05
2.4633e-05
4.04182e-05
2.28507e-05
4.04315e-05
2.28464e-05
3.55812e-05
4.19523e-05
2.43076e-05
2.4338e-05
4.19324e-05
3.55447e-05
2.4626e-05
2.28492e-05
4.03838e-05
2.2845e-05
4.03984e-05
3.55778e-05
4.19564e-05
2.43573e-05
4.19754e-05
2.43296e-05
3.55908e-05
2.28388e-05
4.03827e-05
2.46234e-05
3.55517e-05
2.28455e-05
4.0368e-05
4.19513e-05
2.43378e-05
4.19728e-05
2.43104e-05
3.55481e-05
2.46341e-05
4.04166e-05
2.28577e-05
4.04174e-05
2.28532e-05
3.55983e-05
4.1964e-05
2.43254e-05
2.43508e-05
4.19619e-05
3.55432e-05
2.46286e-05
2.28564e-05
4.03786e-05
2.28514e-05
4.03763e-05
3.55917e-05
4.19586e-05
2.43105e-05
2.4332e-05
4.19563e-05
3.20797e-05
3.25896e-05
2.66836e-05
3.20363e-05
3.25515e-05
1.62033e-05
1.61832e-05
1.58496e-05
1.58789e-05
2.66674e-05
3.2022e-05
3.25412e-05
3.20541e-05
3.25627e-05
1.61833e-05
1.61941e-05
3.53419e-05
2.26879e-05
4.07867e-05
2.44842e-05
3.53319e-05
2.26953e-05
4.07653e-05
4.26403e-05
2.49977e-05
4.26752e-05
2.49676e-05
4.2638e-05
2.50075e-05
4.26726e-05
2.49801e-05
3.53197e-05
2.4483e-05
2.27079e-05
4.07298e-05
2.27013e-05
4.07364e-05
3.53297e-05
3.53198e-05
2.44898e-05
2.27096e-05
4.07628e-05
2.27029e-05
4.07679e-05
3.53299e-05
4.26402e-05
2.49692e-05
2.49777e-05
4.2635e-05
4.26377e-05
2.498e-05
2.49899e-05
4.26322e-05
1.58758e-05
1.58476e-05
1.6213e-05
1.61929e-05
2.66721e-05
3.20701e-05
3.25364e-05
3.20897e-05
3.25531e-05
1.5851e-05
1.58694e-05
1.61959e-05
1.62045e-05
1.61296e-05
1.61225e-05
1.58879e-05
1.58643e-05
3.24603e-05
3.20616e-05
2.66961e-05
3.24549e-05
3.20415e-05
1.61251e-05
1.61362e-05
1.58658e-05
1.58865e-05
2.66828e-05
3.24593e-05
3.20438e-05
3.24713e-05
3.20639e-05
4.24783e-05
2.48645e-05
4.2457e-05
2.48615e-05
3.52462e-05
4.0621e-05
2.26906e-05
2.44837e-05
3.52086e-05
4.06306e-05
2.26915e-05
3.52412e-05
4.06306e-05
2.26912e-05
2.44894e-05
3.52038e-05
4.06396e-05
2.2692e-05
4.25096e-05
2.48898e-05
2.49e-05
4.25212e-05
4.24923e-05
2.48622e-05
2.48759e-05
4.25026e-05
3.52332e-05
2.44873e-05
4.06437e-05
2.26919e-05
4.06413e-05
2.26919e-05
3.52654e-05
3.52282e-05
2.4491e-05
4.06493e-05
2.26921e-05
4.06491e-05
2.26923e-05
3.52599e-05
3.24384e-05
3.20849e-05
2.66975e-05
3.24347e-05
3.20701e-05
1.58762e-05
1.58547e-05
1.6125e-05
1.61394e-05
2.66826e-05
3.24383e-05
3.20675e-05
3.24513e-05
3.20917e-05
1.58521e-05
1.58763e-05
3.55921e-05
4.04299e-05
2.28541e-05
2.46465e-05
3.55335e-05
4.0433e-05
2.28571e-05
4.19426e-05
2.43292e-05
4.19415e-05
2.43114e-05
3.55883e-05
2.28526e-05
4.03952e-05
2.46402e-05
3.55301e-05
2.28557e-05
4.03987e-05
4.19571e-05
2.4346e-05
2.43697e-05
4.19592e-05
3.5556e-05
2.46513e-05
4.04459e-05
2.28617e-05
4.04464e-05
2.28597e-05
3.56205e-05
4.19568e-05
2.43106e-05
2.43349e-05
4.19582e-05
3.55522e-05
2.46452e-05
2.28604e-05
4.04107e-05
2.28584e-05
4.0412e-05
3.56166e-05
4.19748e-05
2.43464e-05
4.19748e-05
2.43231e-05
3.56225e-05
2.28605e-05
4.03934e-05
2.46449e-05
3.55535e-05
2.28636e-05
4.03969e-05
4.19705e-05
2.43342e-05
4.19696e-05
2.43126e-05
3.55863e-05
2.46525e-05
4.04309e-05
2.28664e-05
4.0438e-05
2.2866e-05
3.56384e-05
4.19866e-05
2.43146e-05
2.43444e-05
4.19845e-05
3.55821e-05
2.46491e-05
2.28664e-05
4.04067e-05
2.28657e-05
4.04095e-05
3.56348e-05
4.19828e-05
2.43042e-05
2.43336e-05
4.1981e-05
3.20423e-05
3.25567e-05
2.6704e-05
3.20234e-05
3.25553e-05
1.61961e-05
1.61869e-05
1.58491e-05
1.58751e-05
2.66912e-05
3.20248e-05
3.25613e-05
3.20463e-05
3.25729e-05
1.61855e-05
1.61989e-05
3.53535e-05
2.27151e-05
4.07732e-05
2.45077e-05
3.53126e-05
2.27193e-05
4.07816e-05
4.26543e-05
2.49848e-05
4.26436e-05
2.49768e-05
4.26515e-05
2.49955e-05
4.26405e-05
2.49899e-05
3.53412e-05
2.45036e-05
2.27223e-05
4.07624e-05
2.27205e-05
4.07617e-05
3.5375e-05
3.5341e-05
2.45127e-05
2.27239e-05
4.0794e-05
2.27223e-05
4.0792e-05
3.53745e-05
4.26644e-05
2.49724e-05
2.49892e-05
4.26708e-05
4.26614e-05
2.49831e-05
2.50021e-05
4.26661e-05
1.58742e-05
1.58501e-05
1.62094e-05
1.61983e-05
2.66992e-05
3.2085e-05
3.25537e-05
3.2105e-05
3.25657e-05
1.58505e-05
1.5872e-05
1.61983e-05
1.62107e-05
1.61371e-05
1.61244e-05
1.58876e-05
1.58608e-05
3.24741e-05
3.20659e-05
2.67139e-05
3.24575e-05
3.20443e-05
1.6123e-05
1.61361e-05
1.58551e-05
1.58816e-05
2.66972e-05
3.24482e-05
3.203e-05
3.247e-05
3.20637e-05
4.25106e-05
2.48727e-05
4.25099e-05
2.48606e-05
3.52744e-05
4.06503e-05
2.26914e-05
2.44907e-05
3.52504e-05
4.06475e-05
2.26892e-05
3.52682e-05
4.06545e-05
2.26912e-05
2.44899e-05
3.52448e-05
4.06431e-05
2.2688e-05
4.25349e-05
2.48993e-05
2.49101e-05
4.2536e-05
4.25147e-05
2.48727e-05
2.48744e-05
4.25169e-05
3.52565e-05
2.44897e-05
4.06394e-05
2.26784e-05
4.06511e-05
2.26839e-05
3.52716e-05
3.525e-05
2.4485e-05
4.06349e-05
2.26763e-05
4.06445e-05
2.2682e-05
3.5264e-05
3.24512e-05
3.2088e-05
2.67019e-05
3.24218e-05
3.20578e-05
1.58735e-05
1.58499e-05
1.61207e-05
1.61287e-05
2.66832e-05
3.24189e-05
3.20414e-05
3.24272e-05
3.20829e-05
1.58374e-05
1.58718e-05
3.56297e-05
4.04571e-05
2.28625e-05
2.46582e-05
3.5578e-05
4.04534e-05
2.28626e-05
4.19673e-05
2.43317e-05
4.19702e-05
2.43035e-05
3.56259e-05
2.28613e-05
4.04215e-05
2.46526e-05
3.55741e-05
2.28614e-05
4.04169e-05
4.19783e-05
2.43294e-05
2.43641e-05
4.19684e-05
3.5588e-05
2.4658e-05
4.04473e-05
2.28577e-05
4.04626e-05
2.28617e-05
3.56407e-05
4.19771e-05
2.42915e-05
2.4324e-05
4.19665e-05
3.55842e-05
2.46525e-05
2.28569e-05
4.04087e-05
2.28607e-05
4.04256e-05
3.56366e-05
4.19841e-05
2.43346e-05
4.19944e-05
2.43063e-05
3.56432e-05
2.28664e-05
4.04165e-05
2.46524e-05
3.55918e-05
2.28648e-05
4.04088e-05
4.19819e-05
2.43252e-05
4.1991e-05
2.42961e-05
3.56003e-05
2.46445e-05
4.04104e-05
2.28486e-05
4.04316e-05
2.28563e-05
3.56338e-05
4.19905e-05
2.4292e-05
2.43265e-05
4.19703e-05
3.5598e-05
2.46502e-05
2.28509e-05
4.03945e-05
2.28589e-05
4.0415e-05
3.56327e-05
4.19883e-05
2.42842e-05
2.43165e-05
4.19682e-05
3.20464e-05
3.25754e-05
2.67248e-05
3.20254e-05
3.2556e-05
1.61959e-05
1.61796e-05
1.58367e-05
1.58684e-05
2.67085e-05
3.20123e-05
3.25425e-05
3.2046e-05
3.2568e-05
1.61735e-05
1.61899e-05
3.53851e-05
2.27243e-05
4.08001e-05
2.45178e-05
3.53599e-05
2.27239e-05
4.07983e-05
4.26667e-05
2.49815e-05
4.26754e-05
2.49605e-05
4.26619e-05
2.49927e-05
4.26702e-05
2.49749e-05
3.53682e-05
2.45095e-05
2.27134e-05
4.07519e-05
2.27204e-05
4.07685e-05
3.53811e-05
3.53673e-05
2.45168e-05
2.2714e-05
4.07865e-05
2.27214e-05
4.08016e-05
3.53803e-05
4.26679e-05
2.49537e-05
2.4971e-05
4.26555e-05
4.26633e-05
2.49671e-05
2.49848e-05
4.26499e-05
1.58721e-05
1.58461e-05
1.62093e-05
1.61938e-05
2.67124e-05
3.20693e-05
3.25428e-05
3.2103e-05
3.25676e-05
1.58397e-05
1.58669e-05
1.61894e-05
1.62045e-05
1.61347e-05
1.61247e-05
1.58756e-05
1.58466e-05
3.24612e-05
3.20488e-05
2.6697e-05
3.2444e-05
3.20158e-05
1.61248e-05
1.61372e-05
1.58388e-05
1.58669e-05
2.66755e-05
3.24478e-05
3.20002e-05
3.24591e-05
3.20344e-05
4.25274e-05
2.48872e-05
4.25234e-05
2.48827e-05
3.52661e-05
4.06427e-05
2.26738e-05
2.44743e-05
3.52511e-05
4.06359e-05
2.2671e-05
3.5258e-05
4.06388e-05
2.2672e-05
2.44697e-05
3.52433e-05
4.06353e-05
2.26695e-05
4.25612e-05
2.49145e-05
2.49256e-05