/*--------------------------------*- C++ -*----------------------------------*\
| =========                 |                                                 |
| \\      /  F ield         | OpenFOAM: The Open Source CFD Toolbox           |
|  \\    /   O peration     | Version:  2206                                  |
|   \\  /    A nd           | Website:  www.openfoam.com                      |
|    \\/     M anipulation  |                                                 |
\*---------------------------------------------------------------------------*/
FoamFile
{
    version     2.0;
    format      ascii;
    arch        "LSB;label=32;scalar=64";
    class       volScalarField;
    location    "0.3";
    object      nut;
}
// * * * * * * * * * * * * * * * * * * * * * * * * * * * * * * * * * * * * * //

dimensions      [0 2 -1 0 0 0 0];

internalField   nonuniform List<scalar> 
66928
(
1.24765e-06
1.20483e-06
1.20928e-06
1.20867e-06
1.2462e-06
1.20377e-06
1.27725e-06
1.24741e-06
1.09289e-06
1.09258e-06
4.20174e-08
4.11027e-08
1.89821e-07
1.85608e-07
8.95394e-08
2.93003e-07
8.69332e-08
2.76449e-07
2.86614e-07
1.13165e-06
5.47302e-07
8.68103e-08
2.76429e-07
1.1316e-06
2.86374e-07
5.47302e-07
4.10525e-08
1.85591e-07
1.90524e-07
4.21261e-08
2.94542e-07
8.94755e-08
4.19958e-08
4.18499e-08
4.1223e-08
4.10701e-08
1.89439e-07
1.8502e-07
1.24768e-06
1.90235e-07
1.8616e-07
4.18253e-08
4.18714e-08
4.10367e-08
4.11306e-08
1.27755e-06
1.90487e-07
1.86436e-07
1.89781e-07
1.85439e-07
4.21458e-08
2.39945e-07
3.86167e-07
1.89224e-07
8.11501e-08
8.08677e-08
3.87714e-07
2.40353e-07
2.38696e-07
3.79952e-07
1.84689e-07
7.94419e-08
7.9058e-08
3.81467e-07
2.39227e-07
1.1731e-07
3.4817e-08
3.4519e-08
3.48194e-08
3.45286e-08
1.17937e-07
8.94028e-08
1.77014e-07
1.76215e-07
3.57921e-08
1.70622e-07
3.43519e-08
2.42496e-07
7.39905e-08
6.44442e-08
1.70389e-07
3.43212e-08
7.39751e-08
2.42363e-07
6.44023e-08
2.38511e-07
3.79636e-07
1.84671e-07
7.93769e-08
3.81128e-07
7.89943e-08
2.39085e-07
2.40083e-07
3.86853e-07
1.89882e-07
8.13193e-08
8.10208e-08
3.88373e-07
2.4051e-07
1.17381e-07
3.45235e-08
3.49066e-08
3.45362e-08
3.49151e-08
1.18004e-07
4.21355e-08
8.92901e-08
1.7801e-07
1.77556e-07
3.5636e-08
4.1911e-08
4.18995e-08
4.1153e-08
4.11477e-08
1.17637e-07
3.48489e-08
3.45411e-08
3.48769e-08
3.45753e-08
1.18241e-07
2.40618e-07
3.87953e-07
8.09872e-08
1.9006e-07
2.4025e-07
8.1275e-08
3.86274e-07
2.39445e-07
3.8179e-07
7.92231e-08
1.85938e-07
2.38954e-07
7.96058e-08
3.8014e-07
1.18133e-07
3.49059e-08
3.46088e-08
1.17514e-07
3.48621e-08
3.45593e-08
2.40466e-07
8.13318e-08
1.89634e-07
3.86385e-07
8.10603e-08
2.40824e-07
3.8809e-07
2.39142e-07
7.96885e-08
1.85266e-07
3.80372e-07
7.9326e-08
2.3963e-07
3.82045e-07
4.18515e-08
4.1841e-08
4.10938e-08
4.10611e-08
1.18322e-07
3.48944e-08
3.45916e-08
1.17724e-07
3.48568e-08
3.45491e-08
2.40718e-07
3.86627e-07
1.89901e-07
8.13736e-08
8.11141e-08
3.88317e-07
2.41064e-07
2.39388e-07
3.80742e-07
1.85567e-07
7.97586e-08
7.94111e-08
3.82451e-07
2.39868e-07
2.40957e-07
8.11001e-08
3.88208e-07
1.90383e-07
2.40622e-07
8.13704e-08
3.86512e-07
2.39758e-07
7.93827e-08
3.82274e-07
1.86327e-07
2.39287e-07
7.97416e-08
3.80576e-07
1.17785e-07
3.48422e-08
3.45352e-08
3.48765e-08
3.45746e-08
1.18375e-07
4.38968e-07
1.27725e-06
6.67027e-07
6.61683e-07
6.78888e-07
6.7665e-07
4.3513e-07
4.39182e-07
1.27672e-06
6.56145e-07
6.73035e-07
6.70972e-07
6.84902e-07
4.35323e-07
4.35171e-07
6.79194e-07
6.76861e-07
1.24782e-06
4.39217e-07
6.6697e-07
6.61572e-07
4.39548e-07
1.27767e-06
6.67132e-07
6.61782e-07
6.7931e-07
6.77023e-07
4.35526e-07
1.07602e-06
1.07581e-06
8.29779e-07
5.7842e-07
2.92705e-07
3.98307e-07
5.8325e-07
3.98453e-07
8.2191e-07
8.02717e-07
5.60548e-07
2.8597e-07
3.85964e-07
5.68541e-07
3.86845e-07
7.84014e-07
1.00983e-06
5.54133e-07
4.93243e-07
1.12483e-06
4.98058e-07
1.17e-06
9.77795e-07
8.03923e-07
5.6209e-07
2.85724e-07
3.85687e-07
3.86508e-07
5.70089e-07
7.85318e-07
1.01129e-06
5.54121e-07
1.12656e-06
4.93158e-07
1.17188e-06
4.9788e-07
9.79105e-07
8.29863e-07
5.78103e-07
2.94261e-07
4.00008e-07
5.82959e-07
4.00426e-07
8.22201e-07
4.3934e-07
1.27722e-06
6.67005e-07
6.616e-07
4.35315e-07
6.79231e-07
6.76899e-07
4.35397e-07
1.24755e-06
6.79278e-07
6.76968e-07
4.39461e-07
6.67083e-07
6.61704e-07
1.09273e-06
1.20914e-06
1.20359e-06
1.2771e-06
1.09295e-06
1.21019e-06
1.2043e-06
1.27793e-06
1.09399e-06
1.21069e-06
1.20519e-06
1.27819e-06
1.09508e-06
1.21174e-06
1.20612e-06
1.27895e-06
1.09534e-06
1.21214e-06
1.20691e-06
1.28026e-06
1.09446e-06
1.21108e-06
1.20643e-06
1.28002e-06
1.09387e-06
1.21077e-06
1.20569e-06
1.27889e-06
1.09387e-06
1.21031e-06
1.20547e-06
1.27876e-06
1.09379e-06
1.2099e-06
1.20499e-06
1.27794e-06
1.09374e-06
1.20984e-06
1.20479e-06
1.27768e-06
1.09372e-06
1.20983e-06
1.2048e-06
1.27774e-06
1.09372e-06
1.20984e-06
1.20479e-06
1.27776e-06
1.09371e-06
1.20983e-06
1.20478e-06
1.27767e-06
1.09372e-06
1.20984e-06
1.20479e-06
1.27777e-06
1.09372e-06
1.20983e-06
1.20478e-06
1.27773e-06
1.09371e-06
1.20983e-06
1.20478e-06
1.2778e-06
1.09372e-06
1.20983e-06
1.20479e-06
1.27774e-06
1.20436e-06
1.20402e-06
1.20379e-06
1.20394e-06
1.27654e-06
1.24787e-06
1.2092e-06
1.20862e-06
1.20963e-06
1.20904e-06
1.2085e-06
1.20992e-06
1.20913e-06
1.27689e-06
1.24684e-06
1.2039e-06
1.20381e-06
1.20405e-06
1.24726e-06
1.27793e-06
1.24736e-06
1.20399e-06
1.20428e-06
1.20466e-06
1.20481e-06
1.27719e-06
1.24741e-06
1.21008e-06
1.20951e-06
1.21076e-06
1.21022e-06
1.20957e-06
1.21045e-06
1.21013e-06
1.27789e-06
1.24714e-06
1.20448e-06
1.20508e-06
1.20542e-06
1.24748e-06
1.27795e-06
1.2478e-06
1.20466e-06
1.20484e-06
1.20509e-06
1.20544e-06
1.2774e-06
1.24855e-06
1.2108e-06
1.21028e-06
1.21143e-06
1.21093e-06
1.21023e-06
1.21147e-06
1.21104e-06
1.27803e-06
1.24769e-06
1.20551e-06
1.20585e-06
1.20635e-06
1.24821e-06
1.27831e-06
1.24896e-06
1.2052e-06
1.20557e-06
1.20573e-06
1.20588e-06
1.27809e-06
1.24899e-06
1.21159e-06
1.21111e-06
1.21232e-06
1.21186e-06
1.21126e-06
1.21211e-06
1.21191e-06
1.27856e-06
1.24893e-06
1.2066e-06
1.2068e-06
1.20735e-06
1.24945e-06
1.27946e-06
1.24895e-06
1.20573e-06
1.20584e-06
1.20553e-06
1.20519e-06
1.27895e-06
1.24851e-06
1.21236e-06
1.21192e-06
1.21234e-06
1.21192e-06
1.21191e-06
1.21135e-06
1.2115e-06
1.27992e-06
1.24901e-06
1.20738e-06
1.20677e-06
1.20715e-06
1.2492e-06
1.2794e-06
1.24753e-06
1.20518e-06
1.2049e-06
1.20479e-06
1.20475e-06
1.27787e-06
1.24743e-06
1.21196e-06
1.21156e-06
1.21138e-06
1.21092e-06
1.21109e-06
1.21077e-06
1.21062e-06
1.28001e-06
1.24754e-06
1.20672e-06
1.20575e-06
1.20609e-06
1.24782e-06
1.27828e-06
1.24781e-06
1.20475e-06
1.20472e-06
1.20488e-06
1.20478e-06
1.27764e-06
1.24781e-06
1.21126e-06
1.21079e-06
1.2113e-06
1.2108e-06
1.21052e-06
1.21045e-06
1.21042e-06
1.27874e-06
1.24773e-06
1.20598e-06
1.20556e-06
1.20593e-06
1.24796e-06
1.27839e-06
1.24737e-06
1.20483e-06
1.20471e-06
1.2047e-06
1.20458e-06
1.27715e-06
1.24692e-06
1.21115e-06
1.21066e-06
1.2108e-06
1.21027e-06
1.21024e-06
1.20994e-06
1.20993e-06
1.27873e-06
1.24717e-06
1.20579e-06
1.20509e-06
1.20547e-06
1.24739e-06
1.27757e-06
1.24703e-06
1.20457e-06
1.2045e-06
1.20446e-06
1.20451e-06
1.27664e-06
1.24726e-06
1.2106e-06
1.21007e-06
1.2104e-06
1.20989e-06
1.20978e-06
1.20983e-06
1.2097e-06
1.27783e-06
1.24677e-06
1.20533e-06
1.20479e-06
1.20521e-06
1.24711e-06
1.27715e-06
1.2472e-06
1.2044e-06
1.20446e-06
1.20444e-06
1.2045e-06
1.27647e-06
1.24683e-06
1.21031e-06
1.20982e-06
1.21041e-06
1.20991e-06
1.20964e-06
1.2098e-06
1.20971e-06
1.27742e-06
1.24693e-06
1.20515e-06
1.20479e-06
1.20518e-06
1.24717e-06
1.27729e-06
1.24709e-06
1.20439e-06
1.20445e-06
1.20443e-06
1.2045e-06
1.27654e-06
1.24726e-06
1.21034e-06
1.20985e-06
1.21038e-06
1.20989e-06
1.20964e-06
1.20984e-06
1.20971e-06
1.27763e-06
1.24679e-06
1.20513e-06
1.20478e-06
1.20518e-06
1.24712e-06
1.27719e-06
1.24716e-06
1.20439e-06
1.20446e-06
1.20444e-06
1.20449e-06
1.2765e-06
1.24679e-06
1.21032e-06
1.20984e-06
1.21039e-06
1.20989e-06
1.20965e-06
1.2098e-06
1.2097e-06
1.27751e-06
1.24685e-06
1.20513e-06
1.20478e-06
1.20517e-06
1.24709e-06
1.2772e-06
1.24716e-06
1.20438e-06
1.20445e-06
1.20444e-06
1.2045e-06
1.27651e-06
1.24724e-06
1.21031e-06
1.20982e-06
1.21039e-06
1.2099e-06
1.20965e-06
1.20983e-06
1.20971e-06
1.27752e-06
1.24685e-06
1.20512e-06
1.20478e-06
1.20519e-06
1.24718e-06
1.27727e-06
1.24714e-06
1.2044e-06
1.20445e-06
1.20444e-06
1.20449e-06
1.27648e-06
1.24678e-06
1.21033e-06
1.20984e-06
1.21039e-06
1.2099e-06
1.20965e-06
1.2098e-06
1.2097e-06
1.27755e-06
1.24687e-06
1.20514e-06
1.20477e-06
1.20518e-06
1.24714e-06
1.27723e-06
1.24713e-06
1.20439e-06
1.20445e-06
1.20444e-06
1.20449e-06
1.27653e-06
1.24723e-06
1.21032e-06
1.20983e-06
1.21039e-06
1.2099e-06
1.20965e-06
1.20983e-06
1.20972e-06
1.27753e-06
1.24695e-06
1.20513e-06
1.20478e-06
1.2052e-06
1.24718e-06
1.27723e-06
1.24717e-06
1.2044e-06
1.20445e-06
1.20444e-06
1.20448e-06
1.27648e-06
1.24674e-06
1.21031e-06
1.20984e-06
1.21039e-06
1.2099e-06
1.20965e-06
1.2098e-06
1.20971e-06
1.27753e-06
1.24733e-06
1.20515e-06
1.20478e-06
1.20519e-06
1.24713e-06
1.27722e-06
1.20439e-06
1.20444e-06
1.27652e-06
1.21032e-06
1.20983e-06
1.20965e-06
1.20969e-06
1.27754e-06
1.20514e-06
1.20515e-06
1.24718e-06
2.86075e-07
8.93613e-08
2.85431e-07
8.93478e-08
4.20065e-08
4.18771e-08
2.77066e-07
8.67411e-08
2.75914e-07
8.72178e-08
1.09252e-06
1.09246e-06
1.09245e-06
1.0926e-06
1.0924e-06
1.09244e-06
1.09232e-06
5.47777e-07
2.86736e-07
1.1318e-06
1.20927e-06
2.87501e-07
1.13173e-06
5.54597e-07
4.11675e-08
4.10232e-08
5.74405e-07
1.12464e-06
2.94576e-07
1.20356e-06
1.12453e-06
2.95049e-07
5.77278e-07
1.85909e-07
1.89822e-07
1.24735e-06
1.86895e-07
1.90625e-07
2.86696e-07
8.91065e-08
2.8627e-07
8.92303e-08
4.18394e-08
4.18126e-08
2.77601e-07
8.6916e-08
2.76618e-07
8.72502e-08
1.09276e-06
1.09282e-06
1.09272e-06
1.09388e-06
1.09383e-06
1.09387e-06
1.09389e-06
5.48114e-07
2.87256e-07
1.13266e-06
1.21024e-06
5.54914e-07
2.87874e-07
1.13273e-06
4.10372e-08
4.09982e-08
5.7481e-07
1.12515e-06
2.95313e-07
1.20465e-06
5.77691e-07
1.12561e-06
2.95602e-07
1.86135e-07
1.90317e-07
1.24731e-06
1.86946e-07
1.9086e-07
2.86868e-07
8.90444e-08
2.86489e-07
8.91863e-08
4.18081e-08
4.18029e-08
2.77386e-07
8.68066e-08
2.76675e-07
8.71295e-08
1.09388e-06
1.09392e-06
1.09397e-06
1.09487e-06
1.09507e-06
1.09503e-06
1.0952e-06
5.48144e-07
2.87226e-07
1.13341e-06
1.21091e-06
5.55115e-07
2.87714e-07
1.13361e-06
4.0984e-08
4.09348e-08
5.7478e-07
1.12653e-06
2.95348e-07
1.20535e-06
5.77907e-07
1.12679e-06
2.95384e-07
1.85921e-07
1.90116e-07
1.24773e-06
1.86702e-07
1.90594e-07
2.87551e-07
8.91153e-08
2.87024e-07
8.93126e-08
4.18386e-08
4.18439e-08
2.77367e-07
8.67553e-08
2.7642e-07
8.7126e-08
1.09521e-06
1.09514e-06
1.09536e-06
1.09533e-06
1.09552e-06
1.09551e-06
1.09576e-06
5.48676e-07
2.87288e-07
1.13438e-06
1.21188e-06
5.55235e-07
2.87916e-07
1.13442e-06
4.09438e-08
4.09204e-08
5.75011e-07
1.12784e-06
2.95233e-07
1.20634e-06
5.77622e-07
1.12796e-06
2.9552e-07
1.85871e-07
1.9002e-07
1.24885e-06
1.8677e-07
1.90645e-07
2.87935e-07
8.91862e-08
2.87564e-07
8.93462e-08
4.18454e-08
4.18248e-08
2.77545e-07
8.6767e-08
2.76626e-07
8.71164e-08
1.0954e-06
1.09541e-06
1.09566e-06
1.0948e-06
1.09458e-06
1.09499e-06
1.09503e-06
5.48922e-07
2.87364e-07
1.1346e-06
1.21201e-06
5.55789e-07
2.87825e-07
1.13437e-06
4.09422e-08
4.09069e-08
5.75585e-07
1.12833e-06
2.95462e-07
1.2069e-06
5.7847e-07
1.12822e-06
2.95629e-07
1.85941e-07
1.90106e-07
1.24948e-06
1.86777e-07
1.90669e-07
2.8811e-07
8.92135e-08
2.87734e-07
8.93903e-08
4.18404e-08
4.18428e-08
2.77443e-07
8.67054e-08
2.7665e-07
8.70411e-08
1.09415e-06
1.09452e-06
1.09454e-06
1.09391e-06
1.09381e-06
1.09401e-06
1.09402e-06
5.48294e-07
2.87179e-07
1.13344e-06
1.21084e-06
5.55489e-07
2.87671e-07
1.13314e-06
4.09067e-08
4.08714e-08
5.75104e-07
1.12746e-06
2.95338e-07
1.20607e-06
5.78404e-07
1.12705e-06
2.95438e-07
1.85834e-07
1.90023e-07
1.24827e-06
1.86628e-07
1.90554e-07
2.88278e-07
8.92593e-08
2.87953e-07
8.9394e-08
4.18441e-08
4.18118e-08
2.77306e-07
8.66276e-08
2.76485e-07
8.69384e-08
1.09368e-06
1.09385e-06
1.09386e-06
1.09386e-06
1.09374e-06
1.0939e-06
1.0939e-06
5.48241e-07
2.86933e-07
1.1331e-06
1.21067e-06
5.55228e-07
2.87289e-07
1.13298e-06
4.08672e-08
4.08154e-08
5.74914e-07
1.12676e-06
2.95157e-07
1.20562e-06
5.77911e-07
1.12664e-06
2.95233e-07
1.85637e-07
1.89899e-07
1.24793e-06
1.86394e-07
1.90371e-07
2.88211e-07
8.92004e-08
2.87961e-07
8.93392e-08
4.18017e-08
4.1794e-08
2.76986e-07
8.6491e-08
2.76268e-07
8.68045e-08
1.09363e-06
1.09379e-06
1.09378e-06
1.09381e-06
1.09368e-06
1.09381e-06
1.09381e-06
5.47564e-07
2.86524e-07
1.13286e-06
1.2101e-06
5.54726e-07
2.86969e-07
1.13268e-06
4.07963e-08
4.07544e-08
5.74506e-07
1.12664e-06
2.94864e-07
1.2053e-06
5.77776e-07
1.12648e-06
2.94881e-07
1.85383e-07
1.89647e-07
1.24772e-06
1.86159e-07
1.90126e-07
2.88171e-07
8.91738e-08
2.87898e-07
8.93253e-08
4.1795e-08
4.17848e-08
2.7675e-07
8.6397e-08
2.75942e-07
8.67492e-08
1.09358e-06
1.09369e-06
1.09369e-06
1.09374e-06
1.09367e-06
1.09374e-06
1.09376e-06
5.4728e-07
2.86305e-07
1.1326e-06
1.20983e-06
5.54263e-07
2.86815e-07
1.13247e-06
4.07607e-08
4.07309e-08
5.74011e-07
1.12639e-06
2.94545e-07
1.20485e-06
5.77163e-07
1.12624e-06
2.94671e-07
1.85221e-07
1.89457e-07
1.2472e-06
1.8607e-07
1.90004e-07
2.88181e-07
8.91648e-08
2.87868e-07
8.93154e-08
4.17934e-08
4.17927e-08
2.7677e-07
8.6406e-08
2.75869e-07
8.67661e-08
1.09357e-06
1.09364e-06
1.09366e-06
1.09372e-06
1.09367e-06
1.09374e-06
1.09376e-06
5.47403e-07
2.86336e-07
1.13257e-06
1.20976e-06
5.54257e-07
2.8687e-07
1.13247e-06
4.07603e-08
4.07377e-08
5.73914e-07
1.12628e-06
2.94494e-07
1.20475e-06
5.76895e-07
1.12619e-06
2.94666e-07
1.85262e-07
1.8946e-07
1.24715e-06
1.86099e-07
1.90024e-07
2.88198e-07
8.91689e-08
2.87921e-07
8.93192e-08
4.179e-08
4.17824e-08
2.76759e-07
8.63954e-08
2.7589e-07
8.67569e-08
1.09357e-06
1.09364e-06
1.09366e-06
1.09371e-06
1.09367e-06
1.09373e-06
1.09376e-06
5.47386e-07
2.86304e-07
1.13257e-06
1.2098e-06
5.54268e-07
2.86856e-07
1.13248e-06
4.07594e-08
4.07403e-08
5.73907e-07
1.12627e-06
2.94478e-07
1.20474e-06
5.76919e-07
1.12617e-06
2.94661e-07
1.85218e-07
1.89438e-07
1.24708e-06
1.86101e-07
1.90019e-07
2.88167e-07
8.91658e-08
2.879e-07
8.9312e-08
4.17879e-08
4.1784e-08
2.7679e-07
8.64002e-08
2.75918e-07
8.67576e-08
1.09357e-06
1.09364e-06
1.09366e-06
1.09371e-06
1.09367e-06
1.09373e-06
1.09376e-06
5.47402e-07
2.86322e-07
1.13259e-06
1.20976e-06
5.5435e-07
2.86887e-07
1.13248e-06
4.07685e-08
4.07401e-08
5.73915e-07
1.12627e-06
2.94499e-07
1.20475e-06
5.76898e-07
1.12618e-06
2.94666e-07
1.85241e-07
1.89462e-07
1.24719e-06
1.86072e-07
1.9001e-07
2.88155e-07
8.91657e-08
2.87868e-07
8.93185e-08
4.17918e-08
4.17766e-08
2.76785e-07
8.64095e-08
2.75902e-07
8.67664e-08
1.09357e-06
1.09364e-06
1.09366e-06
1.09371e-06
1.09367e-06
1.09373e-06
1.09376e-06
5.47427e-07
2.86312e-07
1.13259e-06
1.20981e-06
5.54315e-07
2.86843e-07
1.13249e-06
4.07678e-08
4.07395e-08
5.73907e-07
1.12626e-06
2.94495e-07
1.20474e-06
5.7692e-07
1.12617e-06
2.94667e-07
1.85257e-07
1.89467e-07
1.24712e-06
1.86091e-07
1.90025e-07
2.88168e-07
8.91654e-08
2.8789e-07
8.9313e-08
4.17844e-08
4.17801e-08
2.76783e-07
8.64079e-08
2.75915e-07
8.6764e-08
1.09357e-06
1.09364e-06
1.09366e-06
1.09371e-06
1.09367e-06
1.09373e-06
1.09376e-06
5.47415e-07
2.86329e-07
1.13259e-06
1.20975e-06
5.54302e-07
2.86875e-07
1.13248e-06
4.07617e-08
4.07383e-08
5.73926e-07
1.12626e-06
2.94498e-07
1.20475e-06
5.76934e-07
1.12617e-06
2.9466e-07
1.8525e-07
1.89478e-07
1.24712e-06
1.86087e-07
1.90027e-07
2.88152e-07
8.91665e-08
2.87876e-07
8.93215e-08
4.17915e-08
4.17803e-08
2.76778e-07
8.64054e-08
2.75917e-07
8.67625e-08
1.09357e-06
1.09364e-06
1.09366e-06
1.09371e-06
1.09367e-06
1.09373e-06
1.09376e-06
5.47394e-07
2.86318e-07
1.13258e-06
1.2098e-06
5.54308e-07
2.86846e-07
1.13247e-06
4.07645e-08
4.07385e-08
5.7393e-07
1.12625e-06
2.94492e-07
1.20473e-06
5.76934e-07
1.12615e-06
2.9465e-07
1.85256e-07
1.89486e-07
1.2471e-06
1.86099e-07
1.90043e-07
2.88167e-07
8.91673e-08
2.87857e-07
8.93124e-08
4.17882e-08
4.17865e-08
2.76784e-07
8.64071e-08
2.75917e-07
8.67634e-08
1.09357e-06
1.09364e-06
1.09366e-06
1.09371e-06
1.09367e-06
1.09373e-06
1.09376e-06
5.47393e-07
2.8633e-07
1.13258e-06
1.20976e-06
5.54319e-07
2.86882e-07
1.13248e-06
4.07599e-08
4.07379e-08
5.73932e-07
1.12626e-06
2.94489e-07
1.20474e-06
5.76933e-07
1.12617e-06
2.94643e-07
1.85244e-07
1.89481e-07
1.24714e-06
1.86089e-07
1.90032e-07
2.88178e-07
8.917e-08
2.87908e-07
8.93232e-08
4.17946e-08
4.17833e-08
2.76772e-07
8.64078e-08
2.7592e-07
8.67659e-08
1.09357e-06
1.09364e-06
1.09366e-06
1.0937e-06
5.47374e-07
2.86318e-07
1.13258e-06
1.2098e-06
5.54322e-07
2.86862e-07
1.13248e-06
4.07599e-08
4.07233e-08
5.73907e-07
1.12627e-06
2.94492e-07
1.20473e-06
5.76937e-07
1.12617e-06
2.94597e-07
1.85253e-07
1.89484e-07
1.24704e-06
1.86098e-07
1.90044e-07
2.85979e-07
8.93639e-08
8.93681e-08
2.85342e-07
5.72313e-07
2.93088e-07
1.12621e-06
1.20406e-06
1.12588e-06
5.75979e-07
2.93593e-07
5.72152e-07
2.92966e-07
1.12626e-06
1.20382e-06
2.93513e-07
1.12591e-06
5.75883e-07
2.85955e-07
8.92596e-08
2.86456e-07
8.91868e-08
2.85891e-07
8.92898e-08
8.92125e-08
2.86386e-07
5.75209e-07
1.20386e-06
2.93975e-07
1.12568e-06
1.12568e-06
5.71886e-07
2.93588e-07
5.75123e-07
1.20376e-06
2.93855e-07
1.12572e-06
2.93464e-07
1.1257e-06
5.71736e-07
1.89232e-07
1.85885e-07
1.24752e-06
1.89958e-07
1.86807e-07
4.1116e-08
4.10786e-08
4.18317e-08
4.18949e-08
1.27708e-06
1.89966e-07
1.86967e-07
1.89515e-07
1.8595e-07
4.10315e-08
4.11345e-08
5.4735e-07
2.86317e-07
1.13147e-06
1.20931e-06
1.13141e-06
5.54291e-07
2.87168e-07
2.77048e-07
8.663e-08
8.71217e-08
2.75895e-07
5.47355e-07
1.13141e-06
2.86074e-07
1.20873e-06
1.13134e-06
2.8693e-07
5.54287e-07
2.76321e-07
8.72738e-08
2.77406e-07
8.6898e-08
5.54281e-07
1.20941e-06
2.87549e-07
1.13148e-06
1.1314e-06
5.47525e-07
2.8678e-07
2.76303e-07
8.72e-08
8.68078e-08
2.77387e-07
5.54287e-07
1.20882e-06
1.13139e-06
2.87323e-07
1.13132e-06
2.86541e-07
5.47541e-07
2.77485e-07
8.69122e-08
8.7285e-08
2.76396e-07
5.47757e-07
1.1315e-06
2.86413e-07
1.20859e-06
1.13143e-06
2.87212e-07
5.54598e-07
2.77418e-07
8.67505e-08
8.71487e-08
2.76316e-07
5.54715e-07
1.20959e-06
2.87791e-07
1.13228e-06
2.87089e-07
1.13188e-06
5.47953e-07
2.76694e-07
8.72737e-08
8.69359e-08
2.77679e-07
5.54705e-07
1.20875e-06
1.13182e-06
2.87502e-07
1.13146e-06
2.8679e-07
5.47945e-07
2.76645e-07
8.71674e-08
8.68125e-08
2.77648e-07
1.84999e-07
1.90176e-07
1.24692e-06
1.86122e-07
1.91043e-07
4.21903e-08
4.20956e-08
4.09948e-08
4.10847e-08
1.27731e-06
1.86379e-07
1.91321e-07
1.85394e-07
1.90602e-07
4.20836e-08
4.21403e-08
5.74384e-07
1.12469e-06
2.9465e-07
1.20385e-06
1.12459e-06
2.95117e-07
5.77206e-07
2.88744e-07
8.94836e-08
8.9761e-08
2.88241e-07
2.88707e-07
8.95269e-08
8.97755e-08
2.88169e-07
5.77461e-07
1.20369e-06
1.12467e-06
2.954e-07
1.12455e-06
2.95041e-07
5.74615e-07
5.774e-07
1.20391e-06
1.12472e-06
2.95468e-07
1.1246e-06
2.95132e-07
5.74598e-07
2.8858e-07
8.98445e-08
8.96752e-08
2.89034e-07
2.8854e-07
8.98473e-08
8.96804e-08
2.89013e-07
4.10801e-08
4.10153e-08
4.21968e-08
4.21158e-08
1.27754e-06
1.86989e-07
1.90871e-07
1.86112e-07
1.90183e-07
4.09869e-08
4.10746e-08
4.20977e-08
4.21562e-08
4.18565e-08
4.18203e-08
4.10909e-08
4.10122e-08
1.89976e-07
1.85648e-07
1.24726e-06
1.90575e-07
1.86519e-07
4.18034e-08
4.18483e-08
4.0968e-08
4.10627e-08
1.27807e-06
1.90489e-07
1.86399e-07
1.90011e-07
1.8567e-07
2.86631e-07
8.91362e-08
2.86263e-07
8.91997e-08
5.71749e-07
2.9393e-07
1.12587e-06
1.2042e-06
5.7489e-07
2.9421e-07
1.12594e-06
5.71622e-07
2.93786e-07
1.1259e-06
1.20446e-06
5.74825e-07
2.9403e-07
1.12595e-06
2.8647e-07
8.91943e-08
8.90877e-08
2.86763e-07
2.86421e-07
8.9137e-08
8.90449e-08
2.8669e-07
5.7476e-07
1.20455e-06
2.94272e-07
1.12621e-06
2.94094e-07
1.12618e-06
5.71699e-07
5.74708e-07
1.20473e-06
2.94029e-07
1.12619e-06
2.93874e-07
1.12617e-06
5.7158e-07
1.89441e-07
1.86104e-07
1.24737e-06
1.89985e-07
1.86863e-07
4.10795e-08
4.09851e-08
4.17927e-08
4.18357e-08
1.27715e-06
1.89845e-07
1.86705e-07
1.89443e-07
1.85963e-07
4.09293e-08
4.10309e-08
5.47836e-07
2.87112e-07
1.13193e-06
1.21038e-06
5.54533e-07
2.87782e-07
1.13231e-06
2.77602e-07
8.68559e-08
2.76609e-07
8.7202e-08
5.47848e-07
1.13183e-06
2.86891e-07
1.20982e-06
5.54551e-07
1.13222e-06
2.87573e-07
2.76744e-07
8.71736e-08
8.68899e-08
2.77578e-07
5.54812e-07
1.21068e-06
2.87815e-07
1.13291e-06
2.87275e-07
1.13277e-06
5.48053e-07
2.76749e-07
8.71109e-08
8.68403e-08
2.77589e-07
5.54824e-07
1.21013e-06
1.13281e-06
2.87615e-07
1.13268e-06
2.87068e-07
5.48072e-07
2.77685e-07
8.69144e-08
2.76821e-07
8.71954e-08
5.48132e-07
1.13227e-06
2.87016e-07
1.20979e-06
5.54929e-07
1.13253e-06
2.87614e-07
2.77679e-07
8.68094e-08
2.76806e-07
8.71051e-08
5.55044e-07
1.21031e-06
2.87797e-07
1.1331e-06
2.87327e-07
1.13284e-06
5.48188e-07
2.76789e-07
8.71031e-08
8.68303e-08
2.77567e-07
5.55078e-07
1.21004e-06
1.13296e-06
2.87572e-07
1.13285e-06
2.87074e-07
5.48217e-07
2.76788e-07
8.70223e-08
8.67408e-08
2.77549e-07
1.85589e-07
1.90787e-07
1.24695e-06
1.86471e-07
1.91334e-07
4.21165e-08
4.20554e-08
4.0949e-08
4.10481e-08
1.27814e-06
1.86362e-07
1.9114e-07
1.85626e-07
1.90745e-07
4.20154e-08
4.20787e-08
5.74814e-07
1.12515e-06
2.95413e-07
1.20482e-06
5.77647e-07
1.12561e-06
2.95627e-07
2.89128e-07
8.97114e-08
2.88835e-07
8.97801e-08
2.89118e-07
8.97165e-08
2.88806e-07
8.98389e-08
5.77847e-07
1.20495e-06
1.12633e-06
2.95553e-07
1.12606e-06
2.95472e-07
5.74895e-07
5.77817e-07
1.20524e-06
1.12637e-06
2.95556e-07
1.12615e-06
2.95502e-07
5.74905e-07
2.88846e-07
8.96812e-08
8.96283e-08
2.88979e-07
2.88826e-07
8.97203e-08
8.96884e-08
2.88974e-07
4.10374e-08
4.09478e-08
4.21281e-08
4.20668e-08
1.27821e-06
1.86794e-07
1.90709e-07
1.86088e-07
1.90287e-07
4.09276e-08
4.09965e-08
4.2036e-08
4.2091e-08
4.18312e-08
4.17974e-08
4.10181e-08
4.09539e-08
1.89907e-07
1.85533e-07
1.24753e-06
1.90376e-07
1.8624e-07
4.18085e-08
4.18313e-08
4.09418e-08
4.10062e-08
1.27806e-06
1.90355e-07
1.86157e-07
1.89803e-07
1.85379e-07
2.86785e-07
8.89897e-08
2.86461e-07
8.91333e-08
5.71758e-07
2.94113e-07
1.12613e-06
1.20476e-06
5.74749e-07
2.9424e-07
1.12623e-06
5.71638e-07
2.93844e-07
1.12612e-06
1.20501e-06
5.7471e-07
2.94074e-07
1.12623e-06
2.86684e-07
8.92422e-08
8.9068e-08
2.87198e-07
2.86612e-07
8.91852e-08
8.90176e-08
2.87092e-07
5.74842e-07
1.20494e-06
2.94333e-07
1.12658e-06
2.94092e-07
1.12644e-06
5.7223e-07
5.74796e-07
1.20526e-06
2.94202e-07
1.12661e-06
2.93918e-07
1.12646e-06
5.72104e-07
1.89355e-07
1.85772e-07
1.24742e-06
1.89904e-07
1.86497e-07
4.09796e-08
4.09404e-08
4.18151e-08
4.18323e-08
1.27776e-06
1.89881e-07
1.86585e-07
1.89423e-07
1.85598e-07
4.0912e-08
4.09994e-08
5.481e-07
2.87255e-07
1.13296e-06
1.211e-06
5.55031e-07
2.8769e-07
1.13326e-06
2.774e-07
8.67438e-08
2.76691e-07
8.70211e-08
5.48125e-07
1.13285e-06
2.87051e-07
1.21047e-06
5.55053e-07
1.13315e-06
2.87476e-07
2.76485e-07
8.71103e-08
8.6773e-08
2.77294e-07
5.54977e-07
1.21124e-06
2.87641e-07
1.13383e-06
2.87135e-07
1.1336e-06
5.47859e-07
2.76496e-07
8.69819e-08
8.66602e-08
2.77296e-07
5.55e-07
1.21072e-06
1.13371e-06
2.87414e-07
1.13349e-06
2.86914e-07
5.47888e-07
2.77482e-07
8.67421e-08
2.7667e-07
8.70709e-08
5.48157e-07
1.1331e-06
2.87008e-07
1.21047e-06
5.55161e-07
1.13344e-06
2.87509e-07
2.77442e-07
8.66615e-08
2.76652e-07
8.69931e-08
5.55026e-07
1.2112e-06
2.87832e-07
1.13419e-06
2.87209e-07
1.13389e-06
5.48198e-07
2.76599e-07
8.70523e-08
8.67161e-08
2.77521e-07
5.55038e-07
1.21077e-06
1.13405e-06
2.8759e-07
1.1338e-06
2.86967e-07
5.48175e-07
2.76561e-07
8.69927e-08
8.66398e-08
2.77478e-07
1.85493e-07
1.90541e-07
1.24738e-06
1.86205e-07
1.90966e-07
4.20359e-08
4.19832e-08
4.09003e-08
4.09823e-08
1.27821e-06
1.86121e-07
1.90907e-07
1.85344e-07
1.90382e-07
4.19843e-08
4.20112e-08
5.74785e-07
1.12649e-06
2.95395e-07
1.20574e-06
5.7789e-07
1.12687e-06
2.95407e-07
2.88726e-07
8.95317e-08
2.88671e-07
8.96004e-08
2.88721e-07
8.9568e-08
2.88653e-07
8.96485e-08
5.77722e-07
1.20559e-06
1.12756e-06
2.95363e-07
1.12718e-06
2.95224e-07
5.74578e-07
5.77689e-07
1.20605e-06
1.12765e-06
2.95398e-07
1.12731e-06
2.95263e-07
5.74584e-07
2.88433e-07
8.9606e-08
8.94593e-08
2.88696e-07
2.88416e-07
8.96479e-08
8.95045e-08
2.88687e-07
4.09789e-08
4.08974e-08
4.20586e-08
4.20026e-08
1.27855e-06
1.86703e-07
1.90571e-07
1.85856e-07
1.90027e-07
4.09151e-08
4.09513e-08
4.20164e-08
4.20314e-08
4.18455e-08
4.18274e-08
4.09978e-08
4.09331e-08
1.8982e-07
1.85311e-07
1.2483e-06
1.90448e-07
1.86158e-07
4.18317e-08
4.18624e-08
4.09414e-08
4.09893e-08
1.27895e-06
1.90485e-07
1.86171e-07
1.89902e-07
1.85324e-07
2.87434e-07
8.90572e-08
2.86962e-07
8.9229e-08
5.72791e-07
2.94245e-07
1.12656e-06
1.20539e-06
5.75407e-07
2.94544e-07
1.12661e-06
5.72663e-07
2.94114e-07
1.12659e-06
1.2057e-06
5.75365e-07
2.94408e-07
1.12664e-06
2.87376e-07
8.93267e-08
8.91843e-08
2.87811e-07
2.87273e-07
8.92295e-08
8.90987e-08
2.87679e-07
5.75943e-07
1.20561e-06
2.94699e-07
1.12672e-06
2.94453e-07
1.12669e-06
5.73282e-07
5.75891e-07
1.20582e-06
2.94543e-07
1.12674e-06
2.94293e-07
1.12672e-06
5.73146e-07
1.89377e-07
1.85746e-07
1.24877e-06
1.89991e-07
1.86639e-07
4.09656e-08
4.09208e-08
4.183e-08
4.18746e-08
1.27858e-06
1.90006e-07
1.86635e-07
1.89485e-07
1.8577e-07
4.09143e-08
4.09737e-08
5.48054e-07
2.87126e-07
1.1339e-06
1.21183e-06
5.54762e-07
2.8775e-07
1.13406e-06
2.77368e-07
8.66286e-08
2.76428e-07
8.69955e-08
5.48077e-07
1.13379e-06
2.86893e-07
1.21136e-06
5.54792e-07
1.13394e-06
2.87524e-07
2.76537e-07
8.7126e-08
8.67799e-08
2.77485e-07
5.55117e-07
1.21213e-06
2.87844e-07
1.13436e-06
2.87249e-07
1.13425e-06
5.48488e-07
2.76532e-07
8.69926e-08
8.66485e-08
2.77476e-07
5.55136e-07
1.21166e-06
1.13425e-06
2.87616e-07
1.13414e-06
2.8702e-07
5.4851e-07
2.77608e-07
8.66987e-08
2.76674e-07
8.70435e-08
5.48682e-07
1.13417e-06
2.87091e-07
1.21151e-06
5.55234e-07
1.13433e-06
2.87724e-07
2.77576e-07
8.66476e-08
2.76638e-07
8.70007e-08
5.55656e-07
1.21202e-06
2.87928e-07
1.13461e-06
2.87384e-07
1.13452e-06
5.48824e-07
2.76749e-07
8.70132e-08
8.66905e-08
2.77668e-07
5.55678e-07
1.21178e-06
1.13456e-06
2.87797e-07
1.1345e-06
2.87213e-07
5.4885e-07
2.76725e-07
8.69708e-08
8.66454e-08
2.77642e-07
1.85274e-07
1.90349e-07
1.2483e-06
1.86129e-07
1.90992e-07
4.20163e-08
4.1994e-08
4.09013e-08
4.09757e-08
1.27938e-06
1.86138e-07
1.91028e-07
1.85298e-07
1.90446e-07
4.19902e-08
4.20249e-08
5.7501e-07
1.12783e-06
2.95307e-07
1.20689e-06
5.77602e-07
1.12804e-06
2.95542e-07
2.8884e-07
8.94856e-08
2.88467e-07
8.96335e-08
2.88832e-07
8.95251e-08
2.88446e-07
8.96837e-08
5.78115e-07
1.2066e-06
1.1283e-06
2.95615e-07
1.12813e-06
2.95425e-07
5.75372e-07
5.78076e-07
1.20717e-06
1.12836e-06
2.95641e-07
1.12826e-06
2.95455e-07
5.75364e-07
2.88618e-07
8.96169e-08
8.95005e-08
2.88959e-07
2.88598e-07
8.96588e-08
8.95485e-08
2.88939e-07
4.09745e-08
4.09027e-08
4.20514e-08
4.20192e-08
1.27982e-06
1.86793e-07
1.90674e-07
1.85946e-07
1.90104e-07
4.09126e-08
4.09567e-08
4.20209e-08
4.20495e-08
4.1862e-08
4.18311e-08
4.09976e-08
4.09242e-08
1.89927e-07
1.85336e-07
1.24912e-06
1.90479e-07
1.86174e-07
4.18258e-08
4.18603e-08
4.09135e-08
4.09768e-08
1.27965e-06
1.90423e-07
1.86087e-07
1.89906e-07
1.85322e-07
2.87796e-07
8.90844e-08
2.87475e-07
8.92174e-08
5.7366e-07
2.94571e-07
1.1266e-06
1.20573e-06
5.76449e-07
2.94767e-07
1.1265e-06
5.73515e-07
2.9438e-07
1.1266e-06
1.20576e-06
5.76396e-07
2.94578e-07
1.12645e-06
2.87682e-07
8.93513e-08
8.92133e-08
2.88003e-07
2.8756e-07
8.92578e-08
8.90847e-08
2.87865e-07
5.76742e-07
1.20573e-06
2.94727e-07
1.12605e-06
2.94616e-07
1.1263e-06
5.73743e-07
5.76666e-07
1.20552e-06
2.94504e-07
1.12595e-06
2.94376e-07
1.12622e-06
5.73572e-07
1.89529e-07
1.85716e-07
1.24861e-06
1.90043e-07
1.86454e-07
4.09674e-08
4.08996e-08
4.18231e-08
4.18513e-08
1.2789e-06
1.89919e-07
1.86462e-07
1.89532e-07
1.85547e-07
4.08683e-08
4.0955e-08
5.48644e-07
2.87323e-07
1.13432e-06
1.2124e-06
5.5548e-07
2.87893e-07
1.13432e-06
2.77541e-07
8.66377e-08
2.76627e-07
8.69674e-08
5.48669e-07
1.13421e-06
2.87091e-07
1.21196e-06
5.55504e-07
1.13422e-06
2.8766e-07
2.76683e-07
8.70683e-08
8.67618e-08
2.77546e-07
5.55622e-07
1.21246e-06
2.87843e-07
1.13417e-06
2.87361e-07
1.13435e-06
5.48784e-07
2.76673e-07
8.6924e-08
8.661e-08
2.77531e-07
5.55643e-07
1.21202e-06
1.13408e-06
2.87597e-07
1.13426e-06
2.87121e-07
5.48805e-07
2.7766e-07
8.66572e-08
2.76798e-07
8.6987e-08
5.48962e-07
1.13447e-06
2.87261e-07
1.21189e-06
5.55832e-07
1.13439e-06
2.87807e-07
2.77644e-07
8.66162e-08
2.76778e-07
8.69429e-08
5.55816e-07
1.2117e-06
2.87756e-07
1.13374e-06
2.87286e-07
1.13404e-06
5.48668e-07
2.76764e-07
8.69363e-08
8.66302e-08
2.77562e-07
5.55873e-07
1.21183e-06
1.13379e-06
2.87701e-07
1.13417e-06
2.87248e-07
5.48739e-07
2.76753e-07
8.6901e-08
8.65859e-08
2.77547e-07
1.85298e-07
1.90461e-07
1.24912e-06
1.86141e-07
1.90995e-07
4.20154e-08
4.19742e-08
4.08672e-08
4.09551e-08
1.28021e-06
1.86061e-07
1.90912e-07
1.85295e-07
1.90415e-07
4.19583e-08
4.20009e-08
5.75571e-07
1.12829e-06
2.95516e-07
1.20738e-06
5.78434e-07
1.12828e-06
2.95668e-07
2.88932e-07
8.94731e-08
2.88702e-07
8.9574e-08
2.88911e-07
8.95145e-08
2.88667e-07
8.96285e-08
5.78596e-07
1.20688e-06
1.12785e-06
2.95528e-07
1.12813e-06
2.95475e-07
5.75462e-07
5.78545e-07
1.20737e-06
1.12787e-06
2.95575e-07
1.12822e-06
2.95526e-07
5.7545e-07
2.88646e-07
8.95489e-08
8.94343e-08
2.88845e-07
2.88615e-07
8.95999e-08
8.94849e-08
2.88819e-07
4.09675e-08
4.08994e-08
4.20476e-08
4.20087e-08
1.28048e-06
1.86699e-07
1.90605e-07
1.85934e-07
1.90112e-07
4.08848e-08
4.09513e-08
4.19995e-08
4.20342e-08
4.18549e-08
4.18315e-08
4.09666e-08
4.08879e-08
1.89852e-07
1.85234e-07
1.24814e-06
1.90398e-07
1.86004e-07
4.18302e-08
4.18634e-08
4.08722e-08
4.09398e-08
1.2786e-06
1.90419e-07
1.85909e-07
1.89839e-07
1.85148e-07
2.87939e-07
8.91277e-08
2.8764e-07
8.9291e-08
5.73728e-07
2.94566e-07
1.12574e-06
1.20493e-06
5.76792e-07
2.94702e-07
1.1256e-06
5.73549e-07
2.94335e-07
1.12564e-06
1.20474e-06
5.767e-07
2.94495e-07
1.12553e-06
2.8788e-07
8.94028e-08
8.92621e-08