/*--------------------------------*- C++ -*----------------------------------*\
| =========                 |                                                 |
| \\      /  F ield         | OpenFOAM: The Open Source CFD Toolbox           |
|  \\    /   O peration     | Version:  2206                                  |
|   \\  /    A nd           | Website:  www.openfoam.com                      |
|    \\/     M anipulation  |                                                 |
\*---------------------------------------------------------------------------*/
FoamFile
{
    version     2.0;
    format      ascii;
    arch        "LSB;label=32;scalar=64";
    class       volVectorField;
    location    "0.3";
    object      U;
}
// * * * * * * * * * * * * * * * * * * * * * * * * * * * * * * * * * * * * * //

dimensions      [0 1 -1 0 0 0 0];

internalField   nonuniform List<vector> 
66928
(
(-0.000198057 -0.000202427 0.125484)
(8.11079e-06 3.29659e-06 0.126989)
(4.11048e-07 -5.0716e-07 0.12691)
(2.42621e-06 1.79596e-06 0.126908)
(-0.00019973 0.000202192 0.125482)
(4.62995e-06 -3.35e-06 0.12699)
(0.000196538 0.000196853 0.12554)
(-0.000201078 -0.000202022 0.125486)
(-1.91921e-07 -2.41876e-06 0.12833)
(1.87022e-06 1.93843e-06 0.128329)
(-5.85441e-06 -1.5762e-06 0.0731954)
(-8.26273e-06 -3.72578e-06 0.0729693)
(-1.70747e-05 -1.05731e-05 0.0974407)
(-1.63613e-05 -1.44554e-05 0.0970526)
(-1.77142e-06 -1.61604e-05 0.0844601)
(-1.77833e-05 -4.48944e-05 0.109607)
(-2.14511e-05 -2.97888e-06 0.0840145)
(-3.28426e-05 5.85827e-07 0.107424)
(-5.08036e-05 -1.6365e-05 0.109078)
(-3.21837e-06 -1.78963e-06 0.127793)
(-6.31595e-05 9.37695e-07 0.120041)
(-2.03737e-05 4.80436e-06 0.0840136)
(-3.27115e-05 7.38444e-07 0.107425)
(-1.24059e-06 4.1004e-06 0.12779)
(-4.96307e-05 1.77946e-05 0.109076)
(-6.30247e-05 6.16354e-07 0.120042)
(-6.96035e-06 5.59905e-06 0.0729664)
(-1.45156e-05 1.59856e-05 0.0970561)
(-1.6777e-05 1.51364e-05 0.0974661)
(-5.08084e-06 7.12244e-06 0.073207)
(-1.74835e-05 4.92125e-05 0.10962)
(-3.35943e-06 2.19277e-05 0.0844986)
(4.74932e-06 1.28086e-05 0.0732302)
(-8.47244e-06 -2.99696e-06 0.073185)
(6.08825e-06 7.84078e-06 0.0730787)
(-9.61203e-06 -3.11551e-06 0.0729746)
(1.77428e-05 1.86246e-05 0.0975956)
(1.37349e-05 1.79657e-05 0.0973143)
(-0.00020059 -0.000201732 0.125486)
(-1.87752e-05 -1.06653e-05 0.097442)
(-1.71556e-05 -1.40989e-05 0.0970483)
(-8.29165e-06 -4.38965e-06 0.0731798)
(3.08026e-06 1.20825e-05 0.0732213)
(-9.32357e-06 -3.52694e-06 0.0729784)
(5.96394e-06 7.70967e-06 0.073082)
(0.000194415 0.000197674 0.125541)
(-1.90584e-05 -1.15735e-05 0.0974442)
(-1.72201e-05 -1.44312e-05 0.0970487)
(1.671e-05 1.79103e-05 0.0975988)
(1.35362e-05 1.79907e-05 0.0973136)
(7.42385e-06 1.22467e-05 0.0732389)
(2.05176e-05 4.41532e-05 0.106545)
(-2.99771e-05 -5.68104e-05 0.115441)
(2.01164e-05 1.67081e-05 0.0975887)
(-6.13148e-06 -7.86045e-06 0.0834891)
(8.5642e-06 1.26549e-05 0.0836093)
(3.34395e-05 6.31449e-05 0.11566)
(-2.05634e-05 -4.06389e-05 0.106266)
(4.34751e-05 1.90176e-05 0.106387)
(-6.14922e-05 -3.16827e-05 0.115146)
(1.51587e-05 1.69959e-05 0.0973108)
(-1.22397e-05 -5.1961e-06 0.0832126)
(1.06064e-05 6.78128e-06 0.0833847)
(6.24629e-05 3.2096e-05 0.115463)
(-4.35973e-05 -1.90133e-05 0.106062)
(1.20557e-05 1.39532e-05 0.0898592)
(-5.52304e-06 -2.22621e-06 0.0718469)
(-6.88455e-06 -2.6381e-06 0.0717834)
(5.35173e-06 7.66762e-06 0.0719383)
(4.52903e-06 6.01939e-06 0.0718913)
(-1.37006e-05 -1.01667e-05 0.0896235)
(6.17126e-06 2.84827e-05 0.084503)
(-4.6097e-06 -2.52079e-05 0.095973)
(3.7802e-07 2.9995e-05 0.0960283)
(-1.03555e-06 -6.02639e-06 0.0708366)
(-2.62592e-05 -7.07042e-07 0.0952993)
(-9.09048e-06 3.41692e-06 0.0704565)
(-3.27257e-05 3.75587e-07 0.104579)
(-9.2247e-06 1.31958e-06 0.0812152)
(-9.6483e-06 3.25792e-06 0.0785258)
(-2.54071e-05 2.64311e-06 0.0952989)
(-8.61914e-06 -1.42195e-06 0.0704578)
(-9.14617e-06 2.44691e-07 0.081215)
(-3.28555e-05 1.1609e-06 0.10458)
(-9.61641e-06 -1.5043e-06 0.078526)
(4.4498e-05 -1.90257e-05 0.106381)
(-5.86857e-05 3.32042e-05 0.115165)
(1.70466e-05 -1.57725e-05 0.0973152)
(-1.00749e-05 6.72128e-06 0.0832049)
(6.35906e-05 -3.23407e-05 0.115483)
(1.23661e-05 -5.66614e-06 0.0833767)
(-4.0989e-05 2.00841e-05 0.106057)
(2.01216e-05 -4.38042e-05 0.106555)
(-3.04349e-05 6.30392e-05 0.115419)
(1.93857e-05 -1.39582e-05 0.097614)
(-7.01469e-06 1.06952e-05 0.0835097)
(7.25779e-06 -1.09342e-05 0.0836276)
(3.31125e-05 -5.94761e-05 0.115635)
(-2.0725e-05 4.19726e-05 0.106278)
(1.31073e-05 -1.26134e-05 0.0898657)
(-4.92112e-06 4.57487e-06 0.0717827)
(-4.84078e-06 4.9685e-06 0.0718552)
(6.21101e-06 -4.4295e-06 0.0718899)
(5.31235e-06 -5.43894e-06 0.0719443)
(-1.22723e-05 1.19478e-05 0.0896318)
(6.70886e-06 -7.92393e-06 0.0732413)
(3.53914e-06 -2.33213e-05 0.0845332)
(-1.83663e-06 2.67645e-05 0.0960536)
(2.56319e-06 -2.64495e-05 0.0961215)
(2.24684e-06 8.61342e-06 0.0708863)
(-7.603e-06 -2.75241e-06 0.07319)
(3.4748e-06 1.23011e-05 0.0732254)
(-9.77852e-06 -3.25782e-06 0.0729727)
(5.64376e-06 7.41939e-06 0.0730799)
(1.10704e-05 1.4175e-05 0.0898614)
(-7.33689e-06 -2.98279e-06 0.0718451)
(-7.94076e-06 -2.74073e-06 0.0717841)
(3.3767e-06 7.83152e-06 0.0719376)
(3.35533e-06 6.81868e-06 0.0718935)
(-1.47881e-05 -1.04577e-05 0.0896206)
(-2.04764e-05 -4.01069e-05 0.106262)
(3.32261e-05 6.3829e-05 0.115659)
(7.46013e-06 1.38835e-05 0.0836116)
(-1.83106e-05 -1.03027e-05 0.0974414)
(2.04796e-05 4.43057e-05 0.106548)
(-7.82876e-06 -7.70097e-06 0.0834873)
(-3.03202e-05 -5.55764e-05 0.115438)
(-4.36255e-05 -1.8409e-05 0.106059)
(6.16863e-05 3.26094e-05 0.115465)
(9.48646e-06 7.72169e-06 0.0833868)
(-1.70619e-05 -1.41574e-05 0.0970495)
(4.27515e-05 1.95478e-05 0.10639)
(-1.32467e-05 -5.34787e-06 0.0832109)
(-6.09171e-05 -3.07108e-05 0.115145)
(-1.44295e-05 -1.04043e-05 0.08962)
(4.15302e-06 7.82686e-06 0.0719378)
(3.42063e-06 6.72802e-06 0.0718924)
(1.14698e-05 1.41548e-05 0.0898623)
(-7.04149e-06 -2.93453e-06 0.0718452)
(-8.17578e-06 -2.88272e-06 0.0717832)
(1.98401e-05 4.44541e-05 0.106546)
(-8.57731e-06 -7.87172e-06 0.0834872)
(1.70061e-05 1.84273e-05 0.0975974)
(-3.08449e-05 -5.6167e-05 0.115436)
(6.23474e-06 1.40318e-05 0.0836117)
(-2.12808e-05 -4.03904e-05 0.106262)
(3.24296e-05 6.3997e-05 0.115657)
(4.25476e-05 1.96225e-05 0.10639)
(-1.32848e-05 -5.03627e-06 0.0832108)
(1.38386e-05 1.77879e-05 0.0973136)
(-6.11885e-05 -3.07873e-05 0.115144)
(9.34238e-06 7.76921e-06 0.0833868)
(-4.41222e-05 -1.84977e-05 0.10606)
(6.19245e-05 3.27913e-05 0.115465)
(3.05994e-06 1.11042e-05 0.0732186)
(-8.68377e-06 -3.74148e-06 0.073182)
(5.84368e-06 7.34132e-06 0.0730836)
(-9.66048e-06 -3.18591e-06 0.0729769)
(-1.5022e-05 -1.0969e-05 0.0896206)
(3.37132e-06 7.28138e-06 0.0719381)
(3.35198e-06 6.82327e-06 0.0718946)
(1.05608e-05 1.37028e-05 0.0898624)
(-7.33046e-06 -3.6836e-06 0.0718462)
(-7.86927e-06 -3.07676e-06 0.0717857)
(1.9144e-05 4.36942e-05 0.106544)
(-3.08671e-05 -5.72398e-05 0.115433)
(1.64153e-05 1.75294e-05 0.097599)
(-8.71838e-06 -8.71919e-06 0.0834893)
(5.59095e-06 1.3144e-05 0.0836131)
(3.23135e-05 6.27791e-05 0.115654)
(-2.1607e-05 -4.10371e-05 0.10626)
(4.18126e-05 1.9367e-05 0.106389)
(-6.16311e-05 -3.11038e-05 0.115144)
(1.35677e-05 1.76526e-05 0.0973129)
(-1.3127e-05 -5.21309e-06 0.0832125)
(9.21098e-06 7.79869e-06 0.0833877)
(6.1291e-05 3.26549e-05 0.115464)
(-4.45194e-05 -1.88482e-05 0.106059)
(-2.15038e-05 -4.07722e-05 0.10626)
(5.90205e-06 1.34025e-05 0.0836127)
(3.24431e-05 6.30179e-05 0.115656)
(-1.90823e-05 -1.11666e-05 0.0974439)
(1.9386e-05 4.38162e-05 0.106545)
(-8.90825e-06 -8.44855e-06 0.0834887)
(-3.07122e-05 -5.67867e-05 0.115435)
(-4.44837e-05 -1.85117e-05 0.106059)
(9.00845e-06 8.13514e-06 0.0833875)
(6.12441e-05 3.29188e-05 0.115465)
(-1.73697e-05 -1.41244e-05 0.0970492)
(4.18104e-05 1.96615e-05 0.10639)
(-1.3458e-05 -5.04915e-06 0.0832121)
(-6.15118e-05 -3.0732e-05 0.115145)
(1.08141e-05 1.34077e-05 0.0898625)
(-6.8628e-06 -4.14118e-06 0.0718469)
(-7.23599e-06 -3.43183e-06 0.0717864)
(3.50552e-06 6.84111e-06 0.0719392)
(3.86206e-06 6.364e-06 0.0718959)
(-1.45773e-05 -1.12527e-05 0.0896221)
(5.80135e-05 5.63125e-05 0.117234)
(0.000198005 0.000197547 0.125545)
(-0.000216923 -5.24763e-05 0.122295)
(-5.2719e-05 -0.000218964 0.12216)
(0.000222492 5.64646e-05 0.122425)
(5.39004e-05 0.000216883 0.122331)
(-5.87432e-05 -5.73726e-05 0.117002)
(5.53407e-05 -5.71282e-05 0.117238)
(0.000196737 -0.000197167 0.125546)
(-5.27957e-05 0.000222443 0.122201)
(-0.000214879 5.23528e-05 0.122248)
(5.60587e-05 -0.000219984 0.122372)
(0.000219534 -5.47237e-05 0.122377)
(-6.00882e-05 5.85312e-05 0.117004)
(-5.78498e-05 -5.62884e-05 0.117001)
(0.000221919 5.57546e-05 0.122422)
(5.29224e-05 0.000217298 0.122328)
(-0.000199681 -0.000202449 0.125485)
(5.80473e-05 5.64946e-05 0.117234)
(-0.000217732 -5.1527e-05 0.122294)
(-5.20513e-05 -0.000218087 0.12216)
(5.6845e-05 5.66023e-05 0.117234)
(0.000193946 0.000197444 0.125541)
(-0.000218919 -5.18112e-05 0.122293)
(-5.2713e-05 -0.000217512 0.122161)
(0.000219757 5.61512e-05 0.122421)
(5.26481e-05 0.000218284 0.122329)
(-5.93528e-05 -5.67562e-05 0.117001)
(2.25978e-06 1.26574e-06 0.128621)
(3.91485e-06 2.911e-06 0.128622)
(4.80201e-06 0.000252214 0.123327)
(-4.3289e-06 -0.000241693 0.120344)
(1.91812e-05 4.94282e-05 0.109714)
(-6.71946e-06 -5.16061e-05 0.115885)
(1.61547e-05 0.00025234 0.120439)
(9.29828e-07 6.30108e-05 0.115979)
(6.51592e-06 -0.000246148 0.123289)
(0.000259333 9.64042e-07 0.123134)
(-0.000251766 -1.6203e-05 0.120028)
(5.25297e-05 1.45322e-05 0.109372)
(-6.26705e-05 -3.57537e-06 0.115286)
(0.000257535 1.38166e-05 0.120256)
(6.27092e-05 6.85901e-07 0.115608)
(-0.000263973 -4.67238e-06 0.122964)
(0.000245575 2.5041e-08 0.124445)
(6.46884e-05 -8.65772e-07 0.120373)
(-6.44305e-05 4.05224e-07 0.118658)
(-0.00023668 4.78068e-07 0.124901)
(6.56473e-05 -1.94481e-06 0.118991)
(0.000231683 -2.3653e-08 0.125068)
(-0.000246939 -2.53972e-06 0.124282)
(0.000259456 2.46048e-07 0.123132)
(-0.000249624 1.86847e-05 0.120027)
(5.389e-05 -1.35818e-05 0.109371)
(-6.25239e-05 5.48445e-06 0.115285)
(6.43168e-05 8.7041e-07 0.115609)
(0.000256992 -1.30961e-05 0.120256)
(-0.000260666 6.26782e-06 0.122958)
(0.000242767 1.9813e-06 0.124446)
(6.4841e-05 2.29985e-06 0.120374)
(-0.000235323 1.41476e-06 0.1249)
(-6.49932e-05 1.25922e-06 0.118658)
(0.00023174 2.41006e-06 0.125067)
(6.55928e-05 3.5709e-06 0.118993)
(-0.000248254 3.98352e-06 0.124279)
(1.79673e-06 -0.000250924 0.123331)
(-9.7768e-06 0.000246417 0.120342)
(1.78486e-05 -4.86024e-05 0.109723)
(-2.46437e-06 6.20219e-05 0.115887)
(1.38009e-05 -0.000252108 0.120434)
(3.86293e-06 -5.93047e-05 0.115979)
(1.61366e-06 0.000255883 0.123303)
(5.78119e-05 5.68831e-05 0.117234)
(0.000195397 0.000197406 0.125541)
(-0.000218538 -5.13157e-05 0.122294)
(-5.22827e-05 -0.000217434 0.122161)
(-5.86815e-05 -5.63058e-05 0.117001)
(0.000221036 5.65441e-05 0.122421)
(5.32874e-05 0.000218026 0.122329)
(-5.90327e-05 -5.63109e-05 0.117001)
(-0.00020108 -0.000201732 0.125485)
(0.000220243 5.61293e-05 0.122421)
(5.25724e-05 0.000218438 0.122329)
(5.70927e-05 5.67903e-05 0.117234)
(-0.000218855 -5.15823e-05 0.122293)
(-5.26548e-05 -0.000217248 0.122161)
(-1.37674e-06 -6.4272e-07 0.128327)
(4.59401e-07 1.29065e-06 0.126907)
(3.42268e-06 -1.24355e-06 0.126987)
(-0.000196472 -0.000194527 0.125538)
(-2.01949e-06 1.28917e-06 0.12833)
(1.50587e-06 1.51098e-06 0.126908)
(1.92145e-06 -1.69943e-07 0.126989)
(-0.000194793 -0.000194476 0.125539)
(-1.53779e-06 2.96587e-07 0.128331)
(1.28293e-06 3.4376e-07 0.126908)
(2.05968e-06 -5.30658e-07 0.126989)
(-0.000194791 -0.000194905 0.125539)
(-1.16048e-06 -6.85952e-07 0.12833)
(8.81288e-07 -7.10976e-07 0.126907)
(2.1074e-06 -9.73343e-07 0.126988)
(-0.000194843 -0.000195123 0.125538)
(-5.97832e-07 -9.51339e-07 0.128329)
(-7.47975e-08 -1.08759e-06 0.126905)
(2.46119e-06 -1.47083e-06 0.126987)
(-0.00019525 -0.000195618 0.125536)
(-2.77178e-07 -1.57251e-07 0.128329)
(2.5709e-08 -2.27633e-07 0.126906)
(2.8971e-06 -1.58969e-06 0.126987)
(-0.000195441 -0.000195781 0.125536)
(-8.13111e-07 8.18816e-07 0.128331)
(1.31358e-06 6.73937e-07 0.126907)
(2.52049e-06 -7.5678e-07 0.126988)
(-0.000194832 -0.00019532 0.125537)
(-1.26484e-06 5.78386e-07 0.12833)
(1.50721e-06 4.49695e-07 0.126908)
(2.02901e-06 -1.52569e-07 0.126988)
(-0.000194804 -0.000194885 0.125537)
(-1.27273e-06 3.6232e-07 0.128329)
(9.75561e-07 4.02462e-07 0.126908)
(2.0511e-06 -4.23724e-07 0.126988)
(-0.000195008 -0.000194997 0.125538)
(-9.98399e-07 3.22881e-07 0.128329)
(1.05369e-06 2.99055e-07 0.126908)
(2.27272e-06 -6.59688e-07 0.126989)
(-0.000195051 -0.000195192 0.125539)
(-9.80049e-07 3.05387e-07 0.128329)
(8.57069e-07 3.62908e-07 0.126908)
(2.28369e-06 -7.08174e-07 0.126989)
(-0.000195048 -0.000195214 0.125539)
(-9.41005e-07 3.24334e-07 0.128329)
(1.02266e-06 3.07459e-07 0.126908)
(2.29456e-06 -7.29676e-07 0.126989)
(-0.000195014 -0.000195225 0.125539)
(-9.50558e-07 3.36431e-07 0.128329)
(8.60028e-07 3.6738e-07 0.126908)
(2.29033e-06 -6.96382e-07 0.126989)
(-0.000195043 -0.000195223 0.125539)
(-9.30288e-07 3.40751e-07 0.128329)
(1.02321e-06 2.92198e-07 0.126908)
(2.27987e-06 -7.08551e-07 0.126989)
(-0.00019502 -0.000195222 0.125539)
(-9.53786e-07 3.40829e-07 0.128329)
(8.76986e-07 3.40207e-07 0.126908)
(2.27997e-06 -7.26896e-07 0.126989)
(-0.000195038 -0.000195229 0.125539)
(-9.25538e-07 3.29263e-07 0.128329)
(1.0551e-06 2.44498e-07 0.126908)
(2.34519e-06 -7.48238e-07 0.126989)
(-0.000195014 -0.000195221 0.125538)
(-9.83757e-07 2.93348e-07 0.12833)
(9.18218e-07 2.78556e-07 0.126907)
(2.40071e-06 -6.88268e-07 0.126989)
(-0.000195025 -0.000195199 0.125538)
(6.25572e-06 4.31974e-06 0.126986)
(-6.59059e-06 4.51434e-06 0.12699)
(2.41976e-06 4.19525e-06 0.126989)
(-1.23607e-06 4.30693e-06 0.126991)
(-0.000195314 0.000196528 0.125541)
(0.000199423 -0.000203187 0.125486)
(-4.34595e-07 7.53839e-07 0.126908)
(8.85207e-07 3.65461e-07 0.126906)
(-1.28015e-06 1.78118e-06 0.12691)
(-1.21707e-07 -2.66262e-07 0.126907)
(-1.04713e-06 -7.04984e-07 0.126904)
(1.27338e-06 1.65405e-06 0.126908)
(-9.08212e-09 -2.68798e-07 0.126904)
(0.00019598 -0.000195844 0.125538)
(-0.000200863 0.000204317 0.125483)
(-3.21175e-06 -1.16151e-06 0.12699)
(1.82498e-06 1.84378e-08 0.126989)
(-1.85245e-06 1.77583e-07 0.126992)
(0.0002003 0.000204987 0.125483)
(0.000193945 0.000197091 0.125541)
(-0.000200349 -0.000203135 0.125486)
(2.64195e-06 3.97146e-06 0.126989)
(-2.64239e-06 4.21523e-06 0.126991)
(2.99135e-06 3.03745e-06 0.126988)
(-2.10696e-06 3.18139e-06 0.126992)
(-0.000194457 0.000196694 0.125541)
(0.000199356 -0.000203037 0.125487)
(-1.28457e-06 1.39168e-06 0.12691)
(6.85491e-09 -1.07767e-07 0.126907)
(-7.83648e-07 6.27242e-07 0.126911)
(2.87426e-07 -4.83031e-07 0.126908)
(-1.48727e-07 -1.6e-07 0.126904)
(1.09502e-06 6.52957e-07 0.126908)
(-2.42039e-07 -5.33436e-07 0.126905)
(0.000194981 -0.000194488 0.125539)
(-0.000200436 0.000203904 0.125483)
(-2.02233e-06 -9.11848e-08 0.126992)
(2.22612e-06 -5.95638e-07 0.126989)
(-2.13456e-06 -5.52626e-07 0.126992)
(0.000200095 0.000204356 0.125483)
(0.000194366 0.000195707 0.125541)
(-0.000200489 -0.000204577 0.125485)
(2.70281e-06 2.35386e-06 0.126988)
(-3.67717e-06 2.67658e-06 0.126991)
(2.41453e-06 8.7544e-07 0.126987)
(-1.57542e-06 1.1932e-06 0.12699)
(-0.000192677 0.000195915 0.125541)
(0.000198681 -0.000205751 0.125485)
(-9.41376e-07 3.1731e-07 0.126911)
(1.43632e-07 -6.08923e-07 0.126908)
(-7.71445e-07 -6.51269e-07 0.12691)
(1.3779e-07 -9.10198e-07 0.126907)
(-1.41872e-07 -6.62023e-07 0.126904)
(8.25387e-07 -6.35566e-07 0.126907)
(-3.5504e-07 -8.41928e-07 0.126904)
(0.000195168 -0.000194765 0.125539)
(-0.000200588 0.000203598 0.125483)
(-2.08289e-06 -4.71172e-07 0.126992)
(2.09306e-06 -7.98106e-07 0.126988)
(-2.23011e-06 -6.91811e-07 0.126992)
(0.000200006 0.000204084 0.125482)
(0.000194214 0.000194283 0.12554)
(-0.000200177 -0.000205237 0.125483)
(2.3391e-06 3.55668e-07 0.126987)
(-2.73091e-06 8.18364e-07 0.12699)
(2.46833e-06 -4.80427e-07 0.126986)
(-2.19407e-06 -1.66999e-07 0.126989)
(-0.000194881 0.000193885 0.12554)
(0.000198788 -0.000205017 0.125484)
(-7.11598e-07 -9.0833e-07 0.12691)
(1.83707e-07 -1.08421e-06 0.126906)
(8.5747e-08 -1.21243e-06 0.126908)
(5.44169e-07 -1.4739e-06 0.126905)
(-4.51452e-07 -1.04082e-06 0.126903)
(-9.61889e-08 -1.0722e-06 0.126905)
(-8.33721e-07 -1.43041e-06 0.126902)
(0.000194988 -0.000195023 0.125538)
(-0.00020026 0.000203154 0.125481)
(-2.33015e-06 -8.48706e-07 0.126991)
(2.41976e-06 -1.47889e-06 0.126987)
(-2.6201e-06 -1.40809e-06 0.12699)
(0.00019965 0.000203612 0.12548)
(0.000194656 0.000193848 0.125538)
(-0.000199749 -0.000204457 0.125482)
(2.54566e-06 -7.28164e-07 0.126985)
(-3.88269e-06 -2.58373e-07 0.126989)
(3.06644e-06 6.37935e-08 0.126986)
(-1.94002e-06 4.36209e-07 0.126989)
(-0.000193367 0.000194239 0.125538)
(0.00019832 -0.000205713 0.125483)
(2.01006e-07 -1.23005e-06 0.126908)
(5.89526e-07 -1.48514e-06 0.126905)
(7.28201e-07 -6.03257e-07 0.126908)
(9.85162e-07 -1.44952e-06 0.126905)
(-8.45427e-07 -1.49624e-06 0.126902)
(-4.31742e-07 -6.59233e-07 0.126906)
(-1.02753e-06 -1.44027e-06 0.126902)
(0.000195376 -0.000195441 0.125535)
(-0.000199787 0.000203151 0.12548)
(-2.70454e-06 -1.41649e-06 0.12699)
(2.92183e-06 -1.66773e-06 0.126987)
(-2.84724e-06 -1.6521e-06 0.12699)
(0.000199478 0.0002035 0.12548)
(0.000195189 0.000194991 0.125537)
(-0.000200303 -0.000202954 0.125483)
(3.08553e-06 5.67168e-07 0.126986)
(-2.99653e-06 1.08297e-06 0.126989)
(2.84212e-06 2.49545e-06 0.126986)
(-1.61817e-06 2.9649e-06 0.12699)
(-0.000195428 0.000194548 0.125538)
(0.000199889 -0.000202716 0.125485)
(6.13154e-07 -2.55779e-07 0.126908)
(9.45037e-07 -1.35042e-06 0.126905)
(1.84033e-07 6.32676e-07 0.126909)
(7.24596e-07 -8.01836e-07 0.126906)
(-8.17008e-07 -1.34694e-06 0.126902)
(8.50226e-07 5.86389e-07 0.126906)
(-1.58338e-07 -8.4727e-07 0.126903)
(0.000195909 -0.000195512 0.125535)
(-0.000200015 0.000203712 0.125481)
(-2.75902e-06 -1.57109e-06 0.12699)
(2.72709e-06 -1.10107e-06 0.126988)
(-2.26634e-06 -1.21211e-06 0.126991)
(0.000200101 0.000203939 0.125481)
(0.000194549 0.000196328 0.125538)
(-0.000200819 -0.000203177 0.125483)
(2.67638e-06 2.68131e-06 0.126986)
(-3.23153e-06 3.32486e-06 0.12699)
(2.39749e-06 2.6478e-06 0.126986)
(-1.17319e-06 3.20668e-06 0.126989)
(-0.000192321 0.000196775 0.125539)
(0.000199502 -0.000204256 0.125485)
(-1.48034e-07 6.9467e-07 0.126909)
(4.86979e-07 -5.83303e-07 0.126906)
(-6.71176e-07 4.55813e-07 0.126909)
(9.17364e-08 -2.16196e-07 0.126906)
(7.07269e-08 -6.92212e-07 0.126903)
(1.35598e-06 3.44388e-07 0.126908)
(7.52067e-08 -3.22432e-07 0.126904)
(0.000195625 -0.00019492 0.125536)
(-0.000200545 0.000204255 0.125482)
(-2.13863e-06 -9.19822e-07 0.126991)
(2.16291e-06 -2.50851e-07 0.126988)
(-2.00838e-06 -3.83642e-07 0.126991)
(0.000200263 0.000204489 0.125482)
(0.000194123 0.00019602 0.125538)
(-0.00020087 -0.000203353 0.125484)
(2.30656e-06 2.44886e-06 0.126985)
(-2.47044e-06 3.09337e-06 0.126989)
(2.19371e-06 2.30923e-06 0.126985)
(-1.9799e-06 2.72231e-06 0.126989)
(-0.000194437 0.000195738 0.125539)
(0.000199558 -0.000203138 0.125486)
(-8.33875e-07 3.96612e-07 0.126909)
(-2.94833e-08 -2.05656e-07 0.126906)
(-7.85902e-07 3.20841e-07 0.126909)
(-1.79183e-08 -3.53898e-07 0.126907)
(6.78224e-08 -2.94268e-07 0.126904)
(8.89369e-07 4.24808e-07 0.126908)
(-1.86161e-07 -3.37462e-07 0.126904)
(0.000195179 -0.00019452 0.125537)
(-0.000200628 0.000204097 0.125482)
(-2.04196e-06 -2.41981e-07 0.126991)
(2.05038e-06 -3.80252e-07 0.126988)
(-2.17683e-06 -3.21421e-07 0.126992)
(0.000200127 0.000204495 0.125482)
(0.000194173 0.000195951 0.125539)
(-0.000200635 -0.000203383 0.125484)
(2.20712e-06 2.19205e-06 0.126985)
(-3.74136e-06 2.72574e-06 0.126989)
(2.45643e-06 2.1735e-06 0.126985)
(-1.55903e-06 2.5891e-06 0.126988)
(-0.000192816 0.000196324 0.12554)
(0.000199112 -0.000204625 0.125485)
(-7.79642e-07 3.43031e-07 0.126909)
(-2.17295e-09 -4.28349e-07 0.126907)
(-4.45264e-07 3.66277e-07 0.12691)
(2.80838e-07 -5.8166e-07 0.126907)
(-1.94066e-07 -4.1857e-07 0.126904)
(8.39431e-07 1.48492e-07 0.126908)
(-3.21009e-07 -5.4603e-07 0.126904)
(0.000195224 -0.000194787 0.125538)
(-0.000200424 0.000203922 0.125483)
(-2.24211e-06 -3.48492e-07 0.126992)
(2.30269e-06 -6.86102e-07 0.126989)
(-2.29623e-06 -6.37918e-07 0.126992)
(0.00020005 0.000204287 0.125483)
(0.000194406 0.000195915 0.125539)
(-0.000200614 -0.000203396 0.125484)
(2.46592e-06 2.04876e-06 0.126985)
(-2.7502e-06 2.61166e-06 0.126988)
(2.43786e-06 2.12877e-06 0.126985)
(-2.00903e-06 2.52691e-06 0.126989)
(-0.000194787 0.000195471 0.12554)
(0.000199498 -0.000203222 0.125485)
(-4.80528e-07 3.68411e-07 0.12691)
(2.62934e-07 -5.93849e-07 0.126907)
(-4.07943e-07 3.47621e-07 0.12691)
(3.12655e-07 -5.78496e-07 0.126907)
(-2.5479e-07 -5.89311e-07 0.126904)
(7.31815e-07 3.78876e-07 0.126908)
(-3.24643e-07 -6.01251e-07 0.126904)
(0.000195424 -0.000194936 0.125538)
(-0.000200436 0.000203932 0.125483)
(-2.29441e-06 -6.30587e-07 0.126992)
(2.32356e-06 -7.21677e-07 0.126989)
(-2.29503e-06 -7.06872e-07 0.126992)
(0.000200073 0.000204267 0.125483)
(0.000194386 0.00019584 0.125539)
(-0.00020061 -0.000203401 0.125484)
(2.43218e-06 2.07554e-06 0.126985)
(-3.75287e-06 2.55257e-06 0.126988)
(2.50478e-06 2.05012e-06 0.126985)
(-1.52854e-06 2.52831e-06 0.126988)
(-0.000192806 0.000196289 0.12554)
(0.000199065 -0.000204703 0.125485)
(-4.5766e-07 3.67239e-07 0.12691)
(2.84917e-07 -6.07807e-07 0.126907)
(-3.55778e-07 3.59095e-07 0.12691)
(3.36431e-07 -5.88072e-07 0.126907)
(-2.77537e-07 -6.3617e-07 0.126904)
(8.11661e-07 1.5425e-07 0.126908)
(-3.12144e-07 -6.04752e-07 0.126904)
(0.000195405 -0.000194929 0.125538)
(-0.000200408 0.000203919 0.125483)
(-2.30905e-06 -6.97089e-07 0.126992)
(2.35683e-06 -7.54074e-07 0.126989)
(-2.27998e-06 -7.74637e-07 0.126992)
(0.000200094 0.000204242 0.125483)
(0.000194371 0.000195823 0.125539)
(-0.000200616 -0.000203384 0.125484)
(2.48311e-06 1.94578e-06 0.126985)
(-2.72105e-06 2.51456e-06 0.126988)
(2.44725e-06 2.04508e-06 0.126985)
(-1.98878e-06 2.46909e-06 0.126989)
(-0.000194799 0.000195558 0.12554)
(0.000199513 -0.000203229 0.125485)
(-4.31657e-07 3.43794e-07 0.12691)
(2.84871e-07 -6.20558e-07 0.126907)
(-3.47217e-07 3.64959e-07 0.12691)
(3.32911e-07 -5.55549e-07 0.126907)
(-2.51379e-07 -6.24263e-07 0.126904)
(7.1404e-07 3.76058e-07 0.126908)
(-3.20537e-07 -6.24725e-07 0.126904)
(0.000195421 -0.000194933 0.125538)
(-0.000200412 0.000203934 0.125483)
(-2.28013e-06 -7.37031e-07 0.126992)
(2.35044e-06 -7.28524e-07 0.126989)
(-2.29937e-06 -7.41124e-07 0.126992)
(0.000200067 0.000204249 0.125483)
(0.000194372 0.000195842 0.125539)
(-0.000200628 -0.000203382 0.125484)
(2.43817e-06 1.96909e-06 0.126985)
(-3.68639e-06 2.49293e-06 0.126988)
(2.47711e-06 2.04068e-06 0.126985)
(-1.51849e-06 2.51026e-06 0.126988)
(-0.00019282 0.000196307 0.12554)
(0.000199082 -0.000204707 0.125485)
(-4.09358e-07 3.68182e-07 0.12691)
(2.90827e-07 -6.41983e-07 0.126907)
(-3.4555e-07 3.62458e-07 0.12691)
(3.35483e-07 -5.15603e-07 0.126907)
(-2.62441e-07 -6.43673e-07 0.126904)
(7.91444e-07 1.51741e-07 0.126908)
(-3.12169e-07 -5.97016e-07 0.126904)
(0.000195423 -0.000194925 0.125538)
(-0.000200403 0.00020394 0.125483)
(-2.31129e-06 -6.90072e-07 0.126992)
(2.36635e-06 -7.19245e-07 0.126989)
(-2.27906e-06 -7.50322e-07 0.126992)
(0.000200089 0.000204249 0.125483)
(0.000194353 0.00019583 0.125539)
(-0.000200623 -0.000203369 0.125484)
(2.47012e-06 1.9427e-06 0.126985)
(-2.64717e-06 2.50622e-06 0.126988)
(2.43173e-06 2.04962e-06 0.126985)
(-2.01484e-06 2.45195e-06 0.126989)
(-0.000194782 0.000195554 0.12554)
(0.000199511 -0.000203218 0.125485)
(-4.18539e-07 3.51217e-07 0.12691)
(2.82375e-07 -6.9178e-07 0.126907)
(-3.48621e-07 3.69999e-07 0.12691)
(3.2495e-07 -4.18833e-07 0.126907)
(-2.53985e-07 -6.28457e-07 0.126904)
(6.93693e-07 4.00031e-07 0.126908)
(-3.17772e-07 -6.30327e-07 0.126904)
(0.000195421 -0.000194922 0.125538)
(-0.00020041 0.000203942 0.125483)
(-2.28855e-06 -7.04636e-07 0.126992)
(2.35964e-06 -7.36109e-07 0.126989)
(-2.30381e-06 -7.6351e-07 0.126992)
(0.00020007 0.000204238 0.125483)
(0.000194355 0.000195848 0.125539)
(-0.000200625 -0.000203383 0.125484)
(2.4218e-06 1.97384e-06 0.126985)
(-3.62521e-06 2.50741e-06 0.126989)
(2.46858e-06 2.02634e-06 0.126985)
(-1.59304e-06 2.45988e-06 0.126988)
(-0.00019282 0.000196308 0.12554)
(0.000199078 -0.000204709 0.125485)
(-4.14127e-07 3.64753e-07 0.12691)
(2.84014e-07 -8.28887e-07 0.126907)
(-3.44302e-07 3.60215e-07 0.12691)
(3.47657e-07 -2.14269e-07 0.126907)
(-2.57105e-07 -6.54024e-07 0.126904)
(7.50024e-07 1.82501e-07 0.126908)
(-3.12364e-07 -6.05682e-07 0.126904)
(0.000195421 -0.000194937 0.125538)
(-0.000200359 0.000203927 0.125483)
(-2.31159e-06 -7.10736e-07 0.126992)
(2.32791e-06 -7.08484e-07 0.126989)
(-2.28424e-06 -7.54162e-07 0.126992)
(0.000200084 0.000204236 0.125483)
(0.000194345 0.000195815 0.125539)
(-0.000200607 -0.000203361 0.125484)
(2.46685e-06 1.92047e-06 0.126985)
(-2.55903e-06 2.52907e-06 0.126988)
(2.44295e-06 2.05336e-06 0.126985)
(-2.14136e-06 2.33319e-06 0.126989)
(-0.000194802 0.000195526 0.12554)
(0.000199683 -0.000203193 0.125485)
(-4.19735e-07 3.34966e-07 0.12691)
(2.69569e-07 -1.09036e-06 0.126907)
(-3.23566e-07 3.88374e-07 0.12691)
(3.70653e-07 2.25551e-07 0.126907)
(-2.57386e-07 -6.33116e-07 0.126904)
(6.6507e-07 4.15605e-07 0.126908)
(-2.96062e-07 -6.09649e-07 0.126904)
(0.000195383 -0.000194906 0.125538)
(-0.00019954 0.000203218 0.125483)
(-2.28876e-06 -7.07435e-07 0.126992)
(2.23864e-06 -6.86427e-07 0.126989)
(-2.2996e-06 -7.46019e-07 0.126992)
(0.000200064 0.000204249 0.125483)
(0.000194313 0.0001958 0.125539)
(2.31441e-06 1.81412e-06 0.126985)
(-3.46916e-06 2.59985e-06 0.126988)
(-0.000192903 0.000196202 0.12554)
(-5.51181e-07 2.45343e-07 0.12691)
(1.21743e-07 -1.56665e-06 0.126907)
(-2.73651e-07 -6.65555e-07 0.126904)
(-6.96933e-07 -8.19756e-07 0.126905)
(0.000194414 -0.000193674 0.125538)
(-2.34498e-06 -7.16808e-07 0.126992)
(-2.44678e-06 -1.1406e-06 0.126993)
(0.00019959 0.000203735 0.125483)
(-4.43317e-07 -3.03927e-05 0.108262)
(5.04995e-06 2.82911e-05 0.0845009)
(1.11009e-08 3.5109e-05 0.108383)
(-3.9084e-06 -1.72983e-05 0.0844583)
(-4.06565e-06 1.37774e-05 0.0732253)
(8.55016e-06 -2.93751e-06 0.0731824)
(-3.243e-05 9.69406e-07 0.107427)
(2.03108e-05 4.87313e-06 0.0841836)
(3.13318e-05 6.69122e-07 0.107833)
(-2.24183e-05 -2.08708e-06 0.0840184)
(1.92728e-06 5.11946e-07 0.128327)
(5.0585e-07 1.47701e-06 0.128326)
(-8.15472e-08 8.04336e-07 0.128326)
(-2.33769e-06 1.6957e-06 0.12833)
(2.56437e-06 1.77014e-06 0.12833)
(-1.2597e-06 7.802e-07 0.12833)
(1.25435e-06 8.66383e-07 0.12833)
(6.22947e-05 1.37456e-06 0.120041)
(-5.16546e-05 1.54989e-05 0.109382)
(2.25145e-06 -7.3748e-07 0.12779)
(9.44136e-07 1.59558e-06 0.126907)
(5.12555e-05 -1.52829e-05 0.10908)
(1.99747e-06 -5.89081e-08 0.12779)
(-6.45061e-05 -6.59288e-07 0.120373)
(7.37795e-06 -5.72776e-06 0.0730751)
(-8.42936e-06 5.47586e-06 0.0729704)
(7.62006e-07 6.22675e-05 0.120639)
(-1.41105e-06 -3.15739e-06 0.127879)
(1.77694e-05 -4.84622e-05 0.109724)
(2.52672e-06 -3.84393e-07 0.126987)
(-1.5484e-06 -1.97425e-06 0.12788)
(-1.78081e-05 4.82314e-05 0.109617)
(-7.21683e-07 -6.34422e-05 0.120723)
(-1.57682e-05 -1.56385e-05 0.0973497)
(-1.95505e-05 -1.40916e-05 0.0975825)
(0.000200225 0.000205106 0.125483)
(1.59761e-05 1.62783e-05 0.0970865)
(1.7421e-05 1.51015e-05 0.0974284)
(-6.30365e-07 -3.1737e-05 0.108257)
(1.29277e-06 2.64102e-05 0.0844998)
(-5.27412e-07 3.68039e-05 0.108382)
(-5.11319e-06 -1.97453e-05 0.0844589)
(-3.72773e-06 1.09771e-05 0.0732125)
(6.80841e-06 -5.85536e-06 0.0731781)
(-3.25098e-05 4.80045e-07 0.107427)
(2.0138e-05 4.68138e-06 0.0841855)
(3.18302e-05 6.57617e-07 0.10783)
(-2.19485e-05 -2.76827e-06 0.0840231)
(2.18189e-06 1.66448e-06 0.12833)
(-8.62881e-07 8.21827e-07 0.12833)
(8.39443e-07 8.38211e-07 0.12833)
(-1.4614e-06 5.17589e-07 0.128331)
(1.8774e-06 7.53527e-07 0.128331)
(-4.65099e-07 3.9352e-07 0.12833)
(5.48608e-07 3.24631e-07 0.12833)
(6.24216e-05 8.67972e-07 0.120041)
(-5.07972e-05 1.5319e-05 0.109381)
(2.56752e-06 -4.64672e-07 0.12779)
(1.24045e-06 1.22396e-06 0.126908)
(-6.3854e-05 -7.17445e-07 0.120373)
(5.10271e-05 -1.59514e-05 0.109081)
(2.422e-06 -6.62567e-07 0.12779)
(7.15478e-06 -5.74445e-06 0.0730802)
(-8.18987e-06 4.86578e-06 0.0729758)
(6.96909e-07 6.22266e-05 0.120639)
(-1.41044e-06 -1.45036e-06 0.127882)
(1.70975e-05 -4.82586e-05 0.109722)
(2.12026e-06 -4.77523e-07 0.126989)
(-8.71596e-07 -6.31533e-05 0.120722)
(-1.29149e-06 -2.05145e-06 0.127882)
(-1.77653e-05 4.83195e-05 0.109616)
(-1.49352e-05 -1.58985e-05 0.0973489)
(-1.87927e-05 -1.3717e-05 0.0975812)
(0.000200018 0.000204608 0.125483)
(1.60392e-05 1.55723e-05 0.0970866)
(1.73784e-05 1.47488e-05 0.0974287)
(-3.73328e-07 -3.44647e-05 0.108254)
(3.32991e-06 2.35875e-05 0.0845008)
(-1.5664e-07 3.49682e-05 0.108377)
(-2.59839e-06 -2.30523e-05 0.0844614)
(-6.68088e-06 8.06309e-06 0.0732122)
(3.18225e-06 -9.18007e-06 0.0731797)
(-3.21283e-05 -6.67156e-07 0.107428)
(2.15417e-05 2.82389e-06 0.0841888)
(3.21906e-05 -2.89418e-07 0.107832)
(-2.0721e-05 -4.87986e-06 0.0840251)
(1.65798e-06 5.13946e-07 0.128331)
(-5.94883e-07 2.46705e-07 0.12833)
(6.29321e-07 2.20058e-07 0.12833)
(-1.2716e-06 -5.31104e-07 0.12833)
(1.23844e-06 -5.25939e-07 0.12833)
(-5.73955e-07 -8.68407e-08 0.128329)
(3.9655e-07 -7.77015e-08 0.128329)
(6.22323e-05 8.00346e-08 0.120042)
(-5.14337e-05 1.4522e-05 0.109383)
(2.43751e-06 -1.09515e-06 0.12779)
(1.1444e-06 -1.56458e-07 0.126908)
(-6.40704e-05 -1.44992e-06 0.120374)
(5.07335e-05 -1.72919e-05 0.109082)
(2.27653e-06 -1.20867e-06 0.127789)
(7.48499e-06 -6.21232e-06 0.0730819)
(-8.17473e-06 4.39091e-06 0.0729757)
(6.1021e-07 6.23286e-05 0.120639)
(-1.35011e-06 -1.94508e-06 0.127882)
(1.74534e-05 -4.86642e-05 0.109722)
(2.01426e-06 -6.55036e-07 0.126989)
(-9.25398e-07 -6.32654e-05 0.120722)
(-1.38585e-06 -2.14038e-06 0.127881)
(-1.77228e-05 4.81712e-05 0.109616)
(-1.50812e-05 -1.65189e-05 0.0973492)
(-1.89324e-05 -1.42121e-05 0.0975821)
(0.000200075 0.000204214 0.125483)
(1.60087e-05 1.52213e-05 0.0970867)