/*--------------------------------*- C++ -*----------------------------------*\
| =========                 |                                                 |
| \\      /  F ield         | OpenFOAM: The Open Source CFD Toolbox           |
|  \\    /   O peration     | Version:  2206                                  |
|   \\  /    A nd           | Website:  www.openfoam.com                      |
|    \\/     M anipulation  |                                                 |
\*---------------------------------------------------------------------------*/
FoamFile
{
    version     2.0;
    format      ascii;
    arch        "LSB;label=32;scalar=64";
    class       volScalarField;
    location    "80";
    object      k;
}
// * * * * * * * * * * * * * * * * * * * * * * * * * * * * * * * * * * * * * //

dimensions      [0 2 -2 0 0 0 0];

internalField   nonuniform List<scalar> 
66616
(
3.58027e-05
3.72379e-05
3.72383e-05
3.81045e-05
3.44866e-05
3.69647e-05
3.68391e-05
3.831e-05
3.33744e-05
3.63262e-05
3.62232e-05
3.78592e-05
3.2304e-05
3.54246e-05
3.53091e-05
3.61952e-05
3.12148e-05
3.44215e-05
3.43144e-05
3.44762e-05
3.01148e-05
3.36427e-05
3.35666e-05
3.36166e-05
2.90527e-05
3.34829e-05
3.3226e-05
3.35704e-05
2.80956e-05
3.38988e-05
3.33432e-05
3.39038e-05
2.72791e-05
3.41689e-05
3.36326e-05
3.47082e-05
2.6853e-05
3.42675e-05
3.40607e-05
3.51855e-05
2.66388e-05
3.52764e-05
3.46163e-05
3.5863e-05
2.66389e-05
3.54021e-05
3.5523e-05
3.693e-05
3.80717e-05
3.71463e-05
3.71474e-05
3.80727e-05
3.71526e-05
3.71482e-05
3.60757e-05
3.60779e-05
3.60791e-05
3.60796e-05
3.71531e-05
3.71549e-05
3.80719e-05
3.71516e-05
3.71602e-05
3.80721e-05
3.81032e-05
3.83131e-05
3.72461e-05
3.72464e-05
3.69435e-05
3.69422e-05
3.81036e-05
3.82106e-05
3.72377e-05
3.72473e-05
3.70431e-05
3.70558e-05
3.7249e-05
3.70597e-05
3.70596e-05
3.81032e-05
3.82525e-05
3.72414e-05
3.69525e-05
3.69383e-05
3.82748e-05
3.83374e-05
3.80321e-05
3.68903e-05
3.68837e-05
3.64498e-05
3.64601e-05
3.82356e-05
3.80408e-05
3.69952e-05
3.70083e-05
3.65392e-05
3.65661e-05
3.7011e-05
3.65596e-05
3.65518e-05
3.82691e-05
3.80345e-05
3.68768e-05
3.64546e-05
3.64321e-05
3.8024e-05
3.78693e-05
3.64315e-05
3.62963e-05
3.62908e-05
3.5595e-05
3.56047e-05
3.78843e-05
3.64746e-05
3.63701e-05
3.63847e-05
3.56618e-05
3.56899e-05
3.6386e-05
3.56771e-05
3.56896e-05
3.7871e-05
3.64643e-05
3.62552e-05
3.55681e-05
3.55761e-05
3.64559e-05
3.62094e-05
3.45593e-05
3.53782e-05
3.53813e-05
3.46254e-05
3.46169e-05
3.62538e-05
3.45234e-05
3.54473e-05
3.54609e-05
3.46794e-05
3.47004e-05
3.54909e-05
3.46946e-05
3.47118e-05
3.62379e-05
3.45241e-05
3.53573e-05
3.45656e-05
3.45991e-05
3.45182e-05
3.42771e-05
3.35269e-05
3.43892e-05
3.4382e-05
3.37017e-05
3.36594e-05
3.43145e-05
3.37827e-05
3.44426e-05
3.44645e-05
3.37316e-05
3.37889e-05
3.45043e-05
3.37038e-05
3.37747e-05
3.43315e-05
3.37879e-05
3.436e-05
3.3605e-05
3.3653e-05
3.38267e-05
3.36411e-05
3.38568e-05
3.3502e-05
3.3557e-05
3.33484e-05
3.35259e-05
3.36725e-05
3.37565e-05
3.36312e-05
3.35939e-05
3.36407e-05
3.34556e-05
3.3618e-05
3.37052e-05
3.36468e-05
3.36523e-05
3.34341e-05
3.3633e-05
3.33703e-05
3.35009e-05
3.37531e-05
3.38234e-05
3.4138e-05
3.31792e-05
3.3565e-05
3.35643e-05
3.35299e-05
3.367e-05
3.41122e-05
3.35875e-05
3.34648e-05
3.38226e-05
3.3724e-05
3.36404e-05
3.3594e-05
3.35844e-05
3.36332e-05
3.40341e-05
3.34532e-05
3.33878e-05
3.35611e-05
3.40263e-05
3.41978e-05
3.43106e-05
3.3616e-05
3.34137e-05
3.38823e-05
3.34789e-05
3.40052e-05
3.45713e-05
3.3877e-05
3.37411e-05
3.40708e-05
3.39489e-05
3.38898e-05
3.37957e-05
3.39728e-05
3.40514e-05
3.44997e-05
3.34173e-05
3.36561e-05
3.36139e-05
3.46705e-05
3.45366e-05
3.53569e-05
3.38911e-05
3.38492e-05
3.43943e-05
3.43419e-05
3.46127e-05
3.5039e-05
3.41889e-05
3.39659e-05
3.41486e-05
3.4248e-05
3.3914e-05
3.42135e-05
3.4124e-05
3.46044e-05
3.50741e-05
3.36425e-05
3.41825e-05
3.4183e-05
3.52937e-05
3.54252e-05
3.5817e-05
3.44772e-05
3.43851e-05
3.50327e-05
3.48758e-05
3.54624e-05
3.57266e-05
3.42134e-05
3.445e-05
3.48634e-05
3.48025e-05
3.46413e-05
3.50166e-05
3.51812e-05
3.50945e-05
3.63387e-05
3.43268e-05
3.47377e-05
3.46144e-05
3.60287e-05
3.61478e-05
3.70479e-05
3.51252e-05
3.48656e-05
3.56588e-05
3.53535e-05
3.60807e-05
3.66176e-05
3.50612e-05
3.52351e-05
3.58403e-05
3.5793e-05
3.52783e-05
3.56094e-05
3.5436e-05
3.63512e-05
3.71299e-05
3.51344e-05
3.52704e-05
3.54259e-05
3.67285e-05
3.71037e-05
3.62024e-05
3.53717e-05
3.66331e-05
3.59637e-05
3.58793e-05
3.58247e-05
3.71568e-05
3.54976e-05
3.63723e-05
3.67267e-05
3.64763e-05
3.64761e-05
3.83779e-05
3.70957e-05
4.29853e-05
3.66411e-05
3.83725e-05
3.70956e-05
3.66469e-05
4.2987e-05
3.75357e-05
4.51359e-05
4.51012e-05
4.57623e-05
1.8887e-05
4.62462e-05
1.54156e-05
2.19199e-05
1.32639e-05
4.57387e-05
1.89106e-05
4.62732e-05
1.53751e-05
3.57971e-05
3.57978e-05
3.58009e-05
3.47647e-05
3.47723e-05
3.47728e-05
3.47705e-05
4.11068e-05
4.37813e-05
3.6459e-05
3.71329e-05
4.06921e-05
4.13338e-05
3.6168e-05
2.19389e-05
1.32635e-05
4.11298e-05
3.64588e-05
4.37406e-05
3.71467e-05
4.07037e-05
3.61636e-05
4.13975e-05
3.7703e-05
3.76931e-05
3.80964e-05
3.27438e-05
3.27386e-05
3.89203e-05
1.05661e-05
4.18642e-05
9.96371e-06
8.61833e-06
8.18712e-06
3.82782e-05
1.03729e-05
4.17018e-05
9.78463e-06
3.44781e-05
3.44792e-05
3.44855e-05
3.36327e-05
3.36383e-05
3.36422e-05
3.36403e-05
4.06628e-05
3.59674e-05
3.54595e-05
3.68634e-05
4.14286e-05
3.27606e-05
3.52428e-05
8.57088e-06
8.12885e-06
4.06046e-05
3.53161e-05
3.61814e-05
3.67597e-05
4.13241e-05
3.50938e-05
3.31554e-05
2.49323e-05
2.51484e-05
3.84268e-05
2.19775e-05
2.22064e-05
3.33056e-05
1.00734e-05
3.50737e-05
1.01209e-05
7.86597e-06
7.65093e-06
3.26772e-05
9.91385e-06
3.45075e-05
9.93622e-06
3.33679e-05
3.33715e-05
3.33776e-05
3.25705e-05
3.25736e-05
3.25756e-05
3.2578e-05
3.75147e-05
2.95196e-05
3.4542e-05
3.61201e-05
3.86914e-05
2.82147e-05
3.42946e-05
7.79613e-06
7.54504e-06
3.77004e-05
3.43777e-05
2.98498e-05
3.60181e-05
3.88601e-05
3.41364e-05
2.84791e-05
1.95094e-05
1.97685e-05
3.73047e-05
1.85213e-05
1.87785e-05
3.01971e-05
1.01798e-05
3.11584e-05
1.02572e-05
7.3398e-06
7.24469e-06
2.9672e-05
9.98134e-06
3.04714e-05
1.00284e-05
3.22992e-05
3.23e-05
3.23103e-05
3.14928e-05
3.14942e-05
3.14916e-05
3.15007e-05
3.50146e-05
2.73079e-05
3.35191e-05
3.51888e-05
3.5795e-05
2.71896e-05
3.32427e-05
7.31648e-06
7.10095e-06
3.54449e-05
3.33549e-05
2.76095e-05
3.50578e-05
3.60127e-05
3.30936e-05
2.74951e-05
1.755e-05
1.7965e-05
3.55178e-05
1.73531e-05
1.77501e-05
3.00462e-05
1.04229e-05
2.99789e-05
1.04495e-05
7.13982e-06
7.12133e-06
2.95305e-05
1.0131e-05
2.9569e-05
1.02491e-05
3.12109e-05
3.12101e-05
3.12218e-05
3.03976e-05
3.03944e-05
3.0393e-05
3.04014e-05
3.51e-05
2.73637e-05
3.24546e-05
3.41891e-05
3.49122e-05
2.73495e-05
3.219e-05
6.9801e-06
6.96581e-06
3.53082e-05
3.22805e-05
2.77219e-05
3.40687e-05
3.52885e-05
3.20262e-05
2.79121e-05
1.71518e-05
1.7324e-05
3.40395e-05
1.70485e-05
1.73706e-05
3.02298e-05
1.05258e-05
3.02144e-05
1.07005e-05
7.12053e-06
7.10712e-06
3.01801e-05
1.03504e-05
3.00033e-05
1.05058e-05
3.01125e-05
3.01051e-05
3.012e-05
2.93173e-05
2.93231e-05
2.93048e-05
2.93357e-05
3.57043e-05
2.80112e-05
3.14981e-05
3.35456e-05
3.52776e-05
2.81746e-05
3.127e-05
6.99211e-06
6.98996e-06
3.6071e-05
3.12783e-05
2.85134e-05
3.35353e-05
3.55411e-05
3.10561e-05
2.86888e-05
1.7187e-05
1.74113e-05
3.37769e-05
1.72522e-05
1.74684e-05
3.1824e-05
1.10394e-05
3.12907e-05
1.11688e-05
7.23896e-06
7.28638e-06
3.12835e-05
1.07535e-05
3.10246e-05
1.0884e-05
2.90532e-05
2.9033e-05
2.90618e-05
2.83381e-05
2.83324e-05
2.83121e-05
2.83336e-05
3.67286e-05
2.87788e-05
3.07169e-05
3.36411e-05
3.6108e-05
2.96242e-05
3.04972e-05
7.06264e-06
7.14416e-06
3.67335e-05
3.04327e-05
2.88035e-05
3.32964e-05
3.62267e-05
3.04227e-05
2.94215e-05
1.73507e-05
1.78352e-05
3.3841e-05
1.76807e-05
1.80207e-05
3.25386e-05
1.15425e-05
3.22638e-05
1.18203e-05
7.44173e-06
7.545e-06
3.19035e-05
1.13254e-05
3.18538e-05
1.14975e-05
2.80908e-05
2.80615e-05
2.809e-05
2.74862e-05
2.74553e-05
2.74471e-05
2.74617e-05
3.81758e-05
3.05027e-05
3.04753e-05
3.38912e-05
3.78638e-05
3.0836e-05
3.06442e-05
7.37027e-06
7.4695e-06
3.81865e-05
3.01868e-05
3.09175e-05
3.36561e-05
3.7548e-05
3.01682e-05
3.1011e-05
1.82264e-05
1.82245e-05
3.43987e-05
1.82102e-05
1.83846e-05
3.45677e-05
1.2012e-05
3.40463e-05
1.22201e-05
7.80327e-06
7.92581e-06
3.41719e-05
1.18006e-05
3.34519e-05
1.20436e-05
2.72716e-05
2.72251e-05
2.72683e-05
2.68974e-05
2.67276e-05
2.67561e-05
2.67126e-05
3.95434e-05
3.17637e-05
3.06931e-05
3.41204e-05
3.87373e-05
3.2017e-05
3.06777e-05
7.6437e-06
7.74439e-06
3.92655e-05
3.02829e-05
3.13362e-05
3.39053e-05
3.90532e-05
3.03638e-05
3.22011e-05
1.86802e-05
1.93385e-05
3.51319e-05
1.9171e-05
1.97166e-05
3.53682e-05
1.25897e-05
3.50588e-05
1.28569e-05
8.0719e-06
8.11734e-06
3.46408e-05
1.24364e-05
3.4661e-05
1.26589e-05
2.67446e-05
2.6603e-05
2.67518e-05
2.66426e-05
2.66491e-05
2.64933e-05
2.66084e-05
4.05785e-05
3.25911e-05
3.08924e-05
3.43076e-05
4.064e-05
3.35092e-05
3.09119e-05
8.01103e-06
8.0888e-06
4.02138e-05
3.04885e-05
3.37307e-05
3.42501e-05
4.01512e-05
3.05012e-05
3.39714e-05
1.99055e-05
2.01317e-05
3.54692e-05
1.99418e-05
2.02812e-05
3.5606e-05
1.3123e-05
3.54526e-05
1.31737e-05
8.15113e-06
8.2134e-06
3.54921e-05
1.28474e-05
3.532e-05
1.28559e-05
2.65039e-05
2.64842e-05
2.66355e-05
2.65162e-05
2.66612e-05
2.64738e-05
2.66494e-05
4.14924e-05
3.43235e-05
3.1047e-05
3.53494e-05
4.09819e-05
3.488e-05
3.11592e-05
8.25634e-06
8.22661e-06
4.14815e-05
3.05515e-05
3.45498e-05
3.49977e-05
4.10699e-05
3.08418e-05
3.49586e-05
2.0199e-05
2.04356e-05
3.63429e-05
2.03201e-05
2.04205e-05
3.4997e-05
1.31016e-05
3.5654e-05
1.28057e-05
8.20693e-06
8.12428e-06
1.28809e-05
3.55084e-05
2.6662e-05
2.66134e-05
2.66519e-05
4.20205e-05
3.48043e-05
3.12929e-05
3.56157e-05
4.2177e-05
3.50926e-05
3.1576e-05
8.32577e-06
4.18505e-05
3.08885e-05
3.52652e-05
4.1632e-05
3.11053e-05
2.05027e-05
2.06314e-05
3.72053e-05
2.05286e-05
2.05906e-05
3.7532e-05
4.51965e-05
4.52045e-05
8.71653e-06
4.0607e-05
8.70628e-06
4.05928e-05
3.7711e-05
3.73569e-05
3.73608e-05
4.70559e-05
4.70636e-05
3.83725e-05
3.70932e-05
4.29886e-05
3.66471e-05
3.83744e-05
3.70944e-05
4.29842e-05
3.66449e-05
4.09184e-05
4.02206e-06
4.4398e-05
4.6133e-05
4.09168e-05
4.01909e-06
4.43505e-05
4.61155e-05
3.89969e-05
3.70932e-05
4.45091e-05
3.67242e-05
4.48476e-05
3.65384e-05
4.04862e-05
3.90024e-05
3.70944e-05
4.44753e-05
3.67241e-05
4.48417e-05
3.6536e-05
4.04893e-05
3.75335e-05
4.51511e-05
4.5185e-05
8.71548e-06
4.0553e-05
3.77124e-05
3.73473e-05
3.7355e-05
4.70948e-05
4.70384e-05
8.71572e-06
4.05529e-05
3.83763e-05
3.70948e-05
4.29911e-05
3.66474e-05
3.83796e-05
3.70927e-05
3.66467e-05
4.29814e-05
4.09159e-05
4.01311e-06
4.44002e-05
4.61283e-05
3.89969e-05
3.70934e-05
4.45168e-05
3.67273e-05
4.48475e-05
3.65384e-05
4.04958e-05
4.09176e-05
4.00793e-06
4.44106e-05
4.61295e-05
3.89992e-05
3.70924e-05
3.67264e-05
4.45151e-05
3.65377e-05
4.48273e-05
4.04961e-05
3.63741e-05
3.67254e-05
3.64729e-05
3.64763e-05
3.63741e-05
3.67253e-05
3.64737e-05
3.6474e-05
3.63741e-05
3.6727e-05
3.64756e-05
3.64761e-05
3.61676e-05
3.66059e-05
3.57916e-05
3.57869e-05
3.63137e-05
3.63122e-05
3.5586e-05
3.61689e-05
3.66048e-05
3.57915e-05
3.57891e-05
3.63115e-05
3.63134e-05
3.55864e-05
3.61689e-05
3.6605e-05
3.57854e-05
3.57954e-05
3.63102e-05
3.63138e-05
3.55862e-05
3.61689e-05
3.66067e-05
3.57869e-05
3.57964e-05
3.63115e-05
3.63156e-05
3.55864e-05
3.83789e-05
3.70958e-05
3.66448e-05
4.29916e-05
3.89952e-05
3.70944e-05
4.45135e-05
3.67357e-05
4.48399e-05
3.65729e-05
4.04957e-05
4.09219e-05
4.02232e-06
4.43989e-05
4.6132e-05
3.89986e-05
3.70941e-05
3.67276e-05
4.45226e-05
3.65376e-05
4.48379e-05
4.04941e-05
4.09185e-05
4.01646e-06
4.4413e-05
4.61173e-05
3.75334e-05
4.51073e-05
4.51698e-05
8.71094e-06
4.05404e-05
3.77121e-05
3.73535e-05
3.7349e-05
4.70538e-05
4.70227e-05
8.69972e-06
4.05331e-05
3.83751e-05
3.70977e-05
3.66455e-05
4.29806e-05
3.89976e-05
3.70943e-05
3.67273e-05
4.44853e-05
3.65381e-05
4.48461e-05
4.04886e-05
3.90022e-05
3.70958e-05
3.67273e-05
4.44905e-05
3.65371e-05
4.48201e-05
4.04877e-05
4.09222e-05
3.93307e-06
4.43855e-05
4.61244e-05
4.09197e-05
3.93616e-06
4.43621e-05
4.61215e-05
3.77116e-05
3.73618e-05
3.73407e-05
4.70885e-05
4.70463e-05
8.70127e-06
4.05804e-05
8.7033e-06
4.05355e-05
2.18854e-05
1.32799e-05
2.19009e-05
1.32812e-05
3.77136e-05
3.77222e-05
3.80917e-05
3.27216e-05
3.27352e-05
8.83438e-06
1.10735e-05
8.75234e-06
1.11031e-05
3.81664e-05
2.63376e-05
2.60779e-05
3.10999e-05
3.11125e-05
4.57635e-05
1.88842e-05
4.62908e-05
1.53927e-05
4.11273e-05
4.37831e-05
3.64603e-05
3.71478e-05
4.07086e-05
4.13725e-05
3.61537e-05
4.11246e-05
4.37429e-05
3.64589e-05
3.7147e-05
4.07055e-05
4.13302e-05
3.61545e-05
4.53182e-05
1.09553e-05
1.34799e-05
4.26391e-05
4.53279e-05
1.09438e-05
1.34732e-05
4.26064e-05
4.12985e-05
3.70477e-05
3.73303e-05
3.55509e-05
4.04043e-05
3.58907e-05
4.14096e-05
4.12968e-05
3.70469e-05
3.72728e-05
3.55512e-05
4.03677e-05
3.58879e-05
4.14021e-05
3.77099e-05
3.77231e-05
3.80907e-05
3.26937e-05
3.27226e-05
2.19063e-05
1.3254e-05
8.8187e-06
1.1057e-05
3.81653e-05
2.62841e-05
2.60604e-05
3.11048e-05
3.11175e-05
8.73395e-06
1.10855e-05
4.11012e-05
4.37985e-05
3.64599e-05
3.7131e-05
4.06917e-05
4.13244e-05
3.61624e-05
4.57682e-05
1.88932e-05
4.62616e-05
1.53753e-05
4.11154e-05
3.64607e-05
4.37901e-05
3.71383e-05
4.06948e-05
3.61596e-05
4.13207e-05
4.53143e-05
1.07022e-05
1.35181e-05
4.23929e-05
4.13752e-05
3.70885e-05
3.69834e-05
3.5673e-05
4.04815e-05
3.58882e-05
4.14963e-05
4.53439e-05
1.0708e-05
1.35176e-05
4.24222e-05
4.13805e-05
3.71007e-05
3.56695e-05
3.69956e-05
3.58852e-05
4.04649e-05
4.14975e-05
4.57813e-05
1.88869e-05
4.63021e-05
1.53762e-05
4.11142e-05
3.64617e-05
4.38009e-05
3.71405e-05
4.06936e-05
3.61628e-05
4.13359e-05
4.57678e-05
1.88909e-05
4.62488e-05
1.53804e-05
4.1382e-05
3.70889e-05
3.69874e-05
3.56795e-05
4.04687e-05
3.58804e-05
4.15057e-05
4.53577e-05
1.07043e-05
1.35194e-05
4.24416e-05
4.13819e-05
3.71036e-05
3.56718e-05
3.70062e-05
3.58854e-05
4.04462e-05
4.14984e-05
4.53466e-05
1.07088e-05
1.35151e-05
4.2423e-05
3.77199e-05
3.77116e-05
3.80942e-05
3.27009e-05
3.27383e-05
2.18774e-05
1.32657e-05
8.72882e-06
1.10779e-05
3.81683e-05
2.60267e-05
2.63607e-05
3.11075e-05
3.11038e-05
8.83981e-06
1.10612e-05
4.11109e-05
3.64597e-05
4.37412e-05
3.71494e-05
4.07061e-05
3.61602e-05
4.13681e-05
4.57714e-05
1.88548e-05
4.6297e-05
1.54118e-05
4.57709e-05
1.8855e-05
4.62923e-05
1.53994e-05
4.12976e-05
3.70411e-05
3.55678e-05
3.73079e-05
3.58909e-05
4.03704e-05
4.14076e-05
4.13147e-05
3.70466e-05
3.55622e-05
3.73251e-05
3.58952e-05
4.03604e-05
4.13877e-05
4.53314e-05
1.09553e-05
1.34689e-05
4.26124e-05
4.53318e-05
1.09468e-05
1.34622e-05
4.25869e-05
2.18895e-05
1.32693e-05
2.18725e-05
1.32868e-05
3.81693e-05
2.61148e-05
2.63498e-05
3.10788e-05
3.10966e-05
8.74581e-06
1.10806e-05
8.84655e-06
1.10776e-05
8.59943e-06
8.18044e-06
8.56922e-06
8.13723e-06
2.51579e-05
2.50014e-05
3.8411e-05
2.21552e-05
2.19426e-05
7.87022e-06
8.12891e-06
7.83099e-06
8.10171e-06
3.8453e-05
2.01081e-05
1.98504e-05
2.17086e-05
2.15139e-05
3.88327e-05
1.05722e-05
4.19294e-05
9.93037e-06
4.05888e-05
3.62077e-05
3.53142e-05
3.67549e-05
4.13236e-05
3.31062e-05
3.50749e-05
4.05867e-05
3.62328e-05
3.53108e-05
3.67505e-05
4.13351e-05
3.3086e-05
3.50755e-05
3.80774e-05
1.00188e-05
9.93667e-06
3.56712e-05
3.81296e-05
9.98986e-06
9.92398e-06
3.55086e-05
4.0324e-05
3.66689e-05
3.04055e-05
3.4607e-05
3.24123e-05
3.48516e-05
3.91792e-05
4.03331e-05
3.66623e-05
3.04188e-05
3.46067e-05
3.24538e-05
3.48489e-05
3.91618e-05
2.51927e-05
2.50215e-05
3.84005e-05
2.21637e-05
2.19471e-05
8.56258e-06
8.12957e-06
7.89739e-06
8.14084e-06
3.83643e-05
2.01912e-05
1.98849e-05
2.17598e-05
2.15266e-05
7.83373e-06
8.09605e-06
4.0637e-05
3.60063e-05
3.54654e-05
3.6859e-05
4.14213e-05
3.27286e-05
3.52384e-05
3.83212e-05
1.0367e-05
4.17148e-05
9.78984e-06
4.06413e-05
3.54616e-05
3.59671e-05
3.68766e-05
4.14329e-05
3.52336e-05
3.26728e-05
3.75829e-05
9.83001e-06
9.81595e-06
3.50986e-05
4.03291e-05
3.6765e-05
3.0067e-05
3.47828e-05
3.2092e-05
3.50247e-05
3.90924e-05
3.76195e-05
9.7976e-06
9.79848e-06
3.49798e-05
4.03327e-05
3.67784e-05
3.47769e-05
3.00479e-05
3.50186e-05
3.21189e-05
3.90777e-05
3.83218e-05
1.03674e-05
4.17412e-05
9.78288e-06
4.06535e-05
3.54632e-05
3.59502e-05
3.68776e-05
4.14309e-05
3.52358e-05
3.26407e-05
3.83441e-05
1.03665e-05
4.17496e-05
9.77042e-06
4.03468e-05
3.67172e-05
3.00579e-05
3.47855e-05
3.21083e-05
3.50153e-05
3.91262e-05
3.77397e-05
9.85851e-06
9.78069e-06
3.4942e-05
4.03438e-05
3.67752e-05
3.47776e-05
2.98887e-05
3.50209e-05
3.20162e-05
3.9105e-05
3.77277e-05
9.80411e-06
9.79466e-06
3.50164e-05
2.50128e-05
2.51522e-05
3.84101e-05
2.19202e-05
2.21965e-05
8.59511e-06
8.19478e-06
7.82396e-06
8.09683e-06
3.83592e-05
1.9849e-05
2.00598e-05
2.15177e-05
2.16363e-05
7.86533e-06
8.11642e-06
4.05973e-05
3.53224e-05
3.62009e-05
3.67424e-05
4.13279e-05
3.50897e-05
3.31122e-05
3.88947e-05
1.0554e-05
4.19248e-05
9.92768e-06
3.88308e-05
1.05578e-05
4.19418e-05
9.96521e-06
4.03239e-05
3.6597e-05
3.4627e-05
3.03882e-05
3.48574e-05
3.2414e-05
3.91959e-05
4.03337e-05
3.66402e-05
3.4623e-05
3.04214e-05
3.48629e-05
3.24518e-05
3.91785e-05
3.81379e-05
9.95598e-06
9.93573e-06
3.55558e-05
3.81018e-05
9.99713e-06
9.95356e-06
3.5598e-05
8.54238e-06
8.12185e-06
8.60602e-06
8.20243e-06
3.83538e-05
1.98158e-05
2.00667e-05
2.14191e-05
2.16541e-05
7.78445e-06
8.0702e-06
7.877e-06
8.13119e-06
7.83015e-06
7.5976e-06
7.79471e-06
7.53762e-06
1.99023e-05
1.96485e-05
3.72757e-05
1.88246e-05
1.8667e-05
7.32218e-06
7.5293e-06
7.26045e-06
7.50015e-06
3.70767e-05
1.80271e-05
1.78615e-05
1.86716e-05
1.85489e-05
3.33004e-05
1.00467e-05
3.50677e-05
1.00841e-05
3.76843e-05
2.99813e-05
3.43704e-05
3.6041e-05
3.88641e-05
2.87123e-05
3.41155e-05
3.76664e-05
2.99763e-05
3.43671e-05
3.60591e-05
3.88186e-05
2.87854e-05
3.41149e-05
3.28471e-05
1.02151e-05
1.01252e-05
3.15682e-05
3.30186e-05
1.01479e-05
1.00999e-05
3.16622e-05
3.7357e-05
3.58669e-05
2.78227e-05
3.35996e-05
2.83441e-05
3.38654e-05
3.62741e-05
3.73618e-05
3.58527e-05
2.79292e-05
3.35984e-05
2.82915e-05
3.38636e-05
3.62873e-05
1.99807e-05
1.96693e-05
3.73304e-05
1.90522e-05
1.8711e-05
7.79934e-06
7.54378e-06
7.37096e-06
7.58123e-06
3.71164e-05
1.81726e-05
1.80016e-05
1.88089e-05
1.86305e-05
7.33005e-06
7.52638e-06
3.75471e-05
2.96102e-05
3.45523e-05
3.61228e-05
3.87302e-05
2.82652e-05
3.42956e-05
3.27749e-05
9.9117e-06
3.46486e-05
9.93779e-06
3.75351e-05
3.45444e-05
2.96322e-05
3.61433e-05
3.87506e-05
3.42862e-05
2.83485e-05
3.22858e-05
9.98201e-06
9.98076e-06
3.10006e-05
3.7195e-05
3.59373e-05
2.72802e-05
3.37806e-05
2.7927e-05
3.40525e-05
3.6186e-05
3.25087e-05
9.92838e-06
9.94996e-06
3.10869e-05
3.72451e-05
3.5945e-05
3.37697e-05
2.73862e-05
3.40413e-05
2.80053e-05
3.62016e-05
3.263e-05
9.91363e-06
3.4585e-05
9.93757e-06
3.75362e-05
3.45453e-05
2.9494e-05
3.61374e-05
3.87384e-05
3.42838e-05
2.81058e-05
3.27102e-05
9.90672e-06
3.46459e-05
9.93004e-06
3.71654e-05
3.59004e-05
2.73941e-05
3.37787e-05
2.79906e-05
3.40415e-05
3.61901e-05
3.23476e-05
1.00025e-05
9.9791e-06
3.09804e-05
3.72066e-05
3.59717e-05
3.37668e-05
2.712e-05
3.40411e-05
2.78262e-05
3.60956e-05
3.24484e-05
9.94563e-06
9.97132e-06
3.09157e-05
1.96401e-05
1.97427e-05
3.72987e-05
1.86658e-05
1.87741e-05
7.80808e-06
7.5523e-06
7.32367e-06
7.52196e-06
3.71083e-05
1.80285e-05
1.81655e-05
1.86122e-05
1.86831e-05
7.38136e-06
7.53472e-06
3.7732e-05
3.43849e-05
3.0069e-05
3.60197e-05
3.88621e-05
3.41358e-05
2.87175e-05
3.33035e-05
1.00547e-05
3.51384e-05
1.0091e-05
3.34015e-05
1.00238e-05
3.51376e-05
1.01178e-05
3.73715e-05
3.57844e-05
3.36224e-05
2.76422e-05
3.3877e-05
2.82181e-05
3.63978e-05
3.7409e-05
3.58218e-05
3.36241e-05
2.75636e-05
3.38851e-05
2.84176e-05
3.63973e-05
3.2922e-05
1.01478e-05
1.0128e-05
3.15329e-05
3.29988e-05
1.02246e-05
1.02028e-05
3.17043e-05
7.74802e-06
7.48761e-06
7.83593e-06
7.58558e-06
3.70719e-05
1.77841e-05
1.81806e-05
1.84396e-05
1.87352e-05
7.22826e-06
7.45081e-06
7.3801e-06
7.53508e-06
7.26961e-06
7.21448e-06
7.21308e-06
7.14309e-06
1.80164e-05
1.78441e-05
3.55057e-05
1.77739e-05
1.75826e-05
7.07475e-06
7.16404e-06
7.00634e-06
7.12338e-06
3.52674e-05
1.73804e-05
1.72008e-05
1.76513e-05
1.74614e-05
3.01751e-05
1.0203e-05
3.12965e-05
1.02622e-05
3.51335e-05
2.77904e-05
3.3341e-05
3.5119e-05
3.6047e-05
2.75827e-05
3.30701e-05
3.51892e-05
2.76952e-05
3.33409e-05
3.51256e-05
3.60148e-05
2.75645e-05
3.30687e-05
3.00825e-05
1.04083e-05
1.02814e-05
3.00589e-05
3.00582e-05
1.03818e-05
1.03584e-05
3.01536e-05
3.52495e-05
3.48898e-05
2.7537e-05
3.25249e-05
2.76755e-05
3.28007e-05
3.51204e-05
3.51269e-05
3.48861e-05
2.76298e-05
3.25235e-05
2.75992e-05
3.28005e-05
3.51823e-05
1.81687e-05
1.79822e-05
3.55307e-05
1.78494e-05
1.7632e-05
7.2815e-06
7.16546e-06
7.16693e-06
7.22717e-06
3.52893e-05
1.76389e-05
1.72728e-05
1.78949e-05
1.74247e-05
7.01505e-06
7.10862e-06
3.50996e-05
2.71974e-05
3.35321e-05
3.51808e-05
3.58499e-05
2.72047e-05
3.32532e-05
2.98982e-05
9.98938e-06
3.0613e-05
1.00242e-05
3.51775e-05
3.35211e-05
2.72585e-05
3.52062e-05
3.58365e-05
3.32392e-05
2.68856e-05
2.95682e-05
1.01313e-05
1.01032e-05
2.95762e-05
3.52332e-05
3.49499e-05
2.70442e-05
3.2719e-05
2.7123e-05
3.29976e-05
3.51499e-05
2.98229e-05
1.009e-05
1.00705e-05
2.9476e-05
3.51184e-05
3.49642e-05
3.27045e-05
2.7087e-05
3.29852e-05
2.70639e-05
3.51052e-05
2.96296e-05
1.00197e-05
3.07547e-05
1.00454e-05
3.48944e-05
3.35186e-05
2.69807e-05
3.52129e-05
3.58161e-05
3.32336e-05
2.68961e-05
2.95034e-05
9.9855e-06
3.06601e-05
9.99957e-06
3.48899e-05
3.49422e-05
2.73543e-05
3.27018e-05
2.71733e-05
3.29817e-05
3.49744e-05
2.94801e-05
1.01241e-05
1.00916e-05
2.93937e-05
3.46972e-05
3.49977e-05
3.26864e-05
2.71668e-05
3.29775e-05
2.69633e-05
3.48472e-05
2.95714e-05
1.01325e-05
1.00525e-05
2.93331e-05
1.79992e-05
1.80672e-05
3.55219e-05
1.73531e-05
1.77511e-05
7.33875e-06
7.19455e-06
6.97606e-06
7.03687e-06
3.52812e-05
1.71173e-05
1.73806e-05
1.73618e-05
1.76523e-05
7.07926e-06
7.15049e-06
3.52072e-05
3.33656e-05
2.76633e-05
3.50992e-05
3.61177e-05
3.30992e-05
2.74296e-05
3.03419e-05
1.01613e-05
3.12425e-05
1.02406e-05
3.03633e-05
1.02158e-05
3.13652e-05
1.02679e-05
3.52437e-05
3.48266e-05
3.25562e-05
2.77494e-05
3.28189e-05
2.7679e-05
3.52992e-05
3.50283e-05
3.48602e-05
3.25639e-05
2.77494e-05
3.283e-05
2.76525e-05
3.50326e-05
3.02723e-05
1.03359e-05
1.02874e-05
3.01056e-05
3.02326e-05
1.03919e-05
1.03038e-05
3.03032e-05
7.17788e-06
7.06439e-06
7.31677e-06
7.17981e-06
3.52431e-05
1.72299e-05
1.74186e-05
1.7402e-05
1.77739e-05
6.95893e-06
7.0667e-06
7.11856e-06
7.1614e-06
7.06207e-06
7.05643e-06
6.99538e-06
6.98024e-06
1.7376e-05
1.72681e-05
3.40286e-05
1.7374e-05
1.72115e-05
7.05251e-06
7.0547e-06
6.99204e-06
6.98834e-06
3.37474e-05
1.74457e-05
1.73183e-05
1.74574e-05
1.7264e-05
3.02363e-05
1.04011e-05
3.02267e-05
1.0566e-05
3.50175e-05
2.7738e-05
3.22638e-05
3.41641e-05
3.51311e-05
2.78298e-05
3.19984e-05
3.51096e-05
2.78991e-05
3.22604e-05
3.41294e-05
3.50715e-05
2.81053e-05
3.19981e-05
3.00072e-05
1.04995e-05
1.05364e-05
3.03802e-05
3.0319e-05
1.06383e-05
1.05791e-05
3.03502e-05
3.50397e-05
3.39166e-05
2.78091e-05
3.14973e-05
2.79337e-05
3.17506e-05
3.51967e-05
3.51644e-05
3.39199e-05
2.83432e-05
3.15019e-05
2.82316e-05
3.17431e-05
3.52963e-05
1.76434e-05
1.72397e-05
3.38593e-05
1.75334e-05
1.72556e-05
6.98256e-06
6.99108e-06
7.1067e-06
7.11791e-06
3.37035e-05
1.7496e-05
1.73535e-05
1.75099e-05
1.72922e-05
6.99991e-06
6.97823e-06
3.52899e-05
2.71954e-05
3.24756e-05
3.42158e-05
3.51912e-05
2.73178e-05
3.22045e-05
2.96128e-05
1.01742e-05
2.96753e-05
1.02275e-05
3.5242e-05
3.24692e-05
2.70916e-05
3.42246e-05
3.4906e-05
3.22026e-05
2.73093e-05
2.95132e-05
1.0353e-05
1.0276e-05
2.99468e-05
3.51797e-05
3.39926e-05
2.77825e-05
3.17233e-05
2.73539e-05
3.19792e-05
3.53653e-05
2.97416e-05
1.03723e-05
1.03284e-05
2.97506e-05
3.53251e-05
3.39995e-05
3.17128e-05
2.74988e-05
3.19748e-05
2.73937e-05
3.50232e-05
2.95622e-05
1.02047e-05
2.94772e-05
1.02406e-05
3.49292e-05
3.24506e-05
2.72475e-05
3.42383e-05
3.48214e-05
3.21704e-05
2.73547e-05
2.94784e-05
1.01932e-05
2.94257e-05
1.02513e-05
3.5162e-05
3.39828e-05
2.79615e-05
3.17056e-05
2.74868e-05
3.19646e-05
3.54221e-05
2.96058e-05
1.03677e-05
1.02696e-05
2.98113e-05
3.49796e-05
3.40581e-05
3.16773e-05
2.77239e-05
3.19521e-05
2.76587e-05
3.52655e-05
2.96156e-05
1.04229e-05
1.0332e-05
2.9738e-05
1.71467e-05
1.73541e-05
3.38758e-05
1.70861e-05
1.734e-05
7.07618e-06
7.0546e-06
6.97479e-06
6.97997e-06
3.38179e-05
1.71963e-05
1.75044e-05
1.71962e-05
1.7371e-05
7.06084e-06
7.04475e-06
3.53374e-05
3.22969e-05
2.77926e-05
3.41226e-05
3.51821e-05
3.20356e-05
2.8014e-05
3.03122e-05
1.03527e-05
3.02841e-05
1.0471e-05
3.04021e-05
1.04312e-05
3.0348e-05
1.04239e-05
3.54103e-05
3.38422e-05
3.15247e-05
2.82446e-05
3.17659e-05
2.79512e-05
3.55962e-05
3.53889e-05
3.39028e-05
3.15202e-05
2.82377e-05
3.1782e-05
2.80582e-05
3.5501e-05
3.03503e-05
1.05534e-05
1.04887e-05
3.05279e-05
3.03452e-05
1.05062e-05
1.04986e-05
3.06289e-05
6.94008e-06
6.93956e-06
7.08914e-06
7.07023e-06
3.38848e-05
1.71353e-05
1.73708e-05
1.7045e-05
1.741e-05
6.93122e-06
6.94585e-06
7.05478e-06
7.04902e-06
7.05562e-06
7.06094e-06
7.01203e-06
7.04484e-06
1.74795e-05
1.73365e-05
3.37323e-05
1.75445e-05
1.74407e-05
7.1851e-06
7.10545e-06
7.08004e-06
7.07998e-06
3.35205e-05
1.78204e-05
1.76673e-05
1.77568e-05
1.76005e-05
3.05338e-05
1.06889e-05
3.02736e-05
1.07483e-05
3.5337e-05
2.79959e-05
3.12646e-05
3.32359e-05
3.52979e-05
2.87661e-05
3.10238e-05
3.5605e-05
2.84724e-05
3.1258e-05
3.35438e-05
3.51653e-05
2.83922e-05
3.10401e-05
3.03121e-05
1.10429e-05
1.07909e-05
3.09967e-05
3.08955e-05
1.10437e-05
1.08748e-05
3.14459e-05
3.549e-05
3.33268e-05
2.93498e-05
3.06118e-05
2.89042e-05
3.08122e-05
3.5817e-05
3.57315e-05
3.33762e-05
2.93102e-05
3.06324e-05
2.86992e-05
3.08188e-05
3.62254e-05
1.76212e-05
1.74091e-05
3.38047e-05
1.77059e-05
1.75011e-05
6.99667e-06
7.05512e-06
7.1887e-06
7.15281e-06
3.36485e-05
1.78218e-05
1.76131e-05
1.77515e-05
1.75349e-05
7.10169e-06
7.07069e-06
3.57783e-05
2.78108e-05
3.15173e-05
3.36267e-05
3.55112e-05
2.81402e-05
3.12946e-05
3.03296e-05
1.04593e-05
3.00881e-05
1.05407e-05
3.52376e-05
3.15116e-05
2.76693e-05
3.33333e-05
3.53161e-05
3.12728e-05
2.79786e-05
3.03007e-05
1.07643e-05
1.06615e-05
3.09776e-05
3.58212e-05
3.3684e-05
2.89131e-05
3.09181e-05
2.84758e-05
3.11054e-05
3.59564e-05
3.0388e-05
1.06729e-05
1.05879e-05
3.07167e-05
3.53841e-05
3.34368e-05
3.08995e-05
2.89334e-05
3.10778e-05
2.81692e-05
3.6223e-05
3.0179e-05
1.04449e-05
2.99501e-05
1.05349e-05
3.53807e-05
3.14813e-05
2.79906e-05
3.3561e-05
3.5074e-05
3.12433e-05
2.83188e-05
2.99528e-05
1.04596e-05
2.98668e-05
1.0548e-05
3.5565e-05
3.36924e-05
2.86383e-05
3.09116e-05
2.8669e-05
3.10838e-05
3.59664e-05
3.04458e-05
1.0789e-05
1.06246e-05
3.07256e-05
3.53789e-05
3.36222e-05
3.0842e-05
2.83674e-05
3.10569e-05
2.83584e-05
3.59931e-05
3.02184e-05
1.07269e-05
1.06318e-05
3.05299e-05
1.72624e-05
1.75418e-05
3.3679e-05
1.73154e-05
1.76741e-05
7.0936e-06
7.11479e-06
7.02233e-06
7.01902e-06
3.3469e-05
1.75226e-05
1.79131e-05
1.74411e-05
1.77236e-05
7.17549e-06
7.10648e-06
3.59403e-05
3.12963e-05
2.82643e-05
3.35847e-05
3.55365e-05
3.1054e-05
2.83766e-05
3.1194e-05
1.06382e-05
3.08309e-05
1.07747e-05
3.10245e-05
1.05991e-05
3.07717e-05
1.08302e-05
3.61354e-05
3.3297e-05
3.06431e-05
2.8733e-05
3.08487e-05
2.87597e-05
3.6226e-05
3.59024e-05
3.3505e-05
3.06515e-05
2.91423e-05
3.08546e-05
2.85112e-05
3.63943e-05
3.12806e-05
1.08749e-05
1.07933e-05
3.14621e-05
3.12267e-05
1.0895e-05
1.08576e-05
3.13991e-05
6.93202e-06
6.97486e-06
7.06726e-06
7.09497e-06
3.372e-05
1.73032e-05
1.76886e-05
1.73288e-05
1.75572e-05
6.9805e-06
6.99329e-06
7.12727e-06
7.09313e-06
7.19428e-06
7.24124e-06
7.09777e-06
7.17066e-06
1.78927e-05
1.77015e-05
3.39598e-05
1.81345e-05
1.78921e-05
7.37823e-06
7.28507e-06
7.32323e-06
7.22786e-06
3.39425e-05
1.83685e-05
1.82639e-05
1.8332e-05
1.80771e-05
3.15943e-05
1.11665e-05
3.15538e-05
1.11963e-05
3.64791e-05
2.92613e-05
3.03924e-05
3.33752e-05
3.60636e-05
2.97036e-05
3.03041e-05
3.67376e-05
2.95554e-05
3.03927e-05
3.35431e-05
3.6238e-05
3.01557e-05
3.03489e-05
3.21126e-05
1.14836e-05
1.12558e-05
3.22755e-05
3.17474e-05
1.14433e-05
1.12706e-05
3.23933e-05
3.69763e-05
3.33114e-05
3.05788e-05
3.01912e-05
3.00829e-05
3.03023e-05
3.72085e-05
3.68627e-05
3.33341e-05
3.0542e-05
3.02436e-05
3.01656e-05
3.02764e-05
3.69947e-05
1.79695e-05
1.77617e-05
3.39658e-05
1.82036e-05
1.80513e-05
7.13707e-06
7.22765e-06
7.41361e-06
7.32923e-06
3.39534e-05
1.84984e-05
1.84486e-05
1.84363e-05
1.81454e-05
7.34489e-06
7.24655e-06
3.69069e-05
2.90559e-05
3.07552e-05
3.35297e-05
3.6301e-05
2.93063e-05
3.05184e-05
3.11887e-05
1.07194e-05
3.1005e-05
1.08991e-05
3.67686e-05
3.07145e-05
2.9037e-05
3.34532e-05
3.63698e-05
3.049e-05
2.94757e-05
3.13358e-05
1.12518e-05
1.10226e-05
3.17045e-05
3.69518e-05
3.38046e-05
3.05066e-05
3.06028e-05
2.96271e-05
3.05914e-05
3.6946e-05
3.1676e-05
1.1205e-05
1.10347e-05
3.15464e-05
3.68698e-05
3.3434e-05
3.06119e-05
2.98556e-05
3.05956e-05
2.99031e-05
3.7657e-05
3.12968e-05
1.08836e-05
3.07734e-05
1.09598e-05
3.66515e-05
3.08244e-05
2.86001e-05
3.36545e-05
3.61966e-05
3.07677e-05
2.92704e-05
3.13238e-05
1.07535e-05
3.07361e-05
1.08598e-05
3.67832e-05
3.36206e-05
3.04547e-05
3.05239e-05
2.98695e-05
3.06048e-05
3.74044e-05
3.17899e-05
1.12617e-05
1.10705e-05
3.19735e-05
3.71501e-05
3.36646e-05
3.05812e-05
3.02132e-05
3.06104e-05
2.96086e-05
3.72363e-05
3.14638e-05
1.11433e-05
1.09748e-05
3.15946e-05
1.7605e-05
1.7915e-05
3.38967e-05
1.78345e-05
1.81399e-05
7.20146e-06
7.25975e-06
7.29925e-06
7.19615e-06
3.38564e-05
1.81725e-05
1.83247e-05
1.7975e-05
1.83308e-05
7.38108e-06
7.30002e-06
3.70813e-05
3.04292e-05
2.94749e-05
3.32824e-05
3.63997e-05
3.03512e-05
3.00586e-05
3.15466e-05
1.09781e-05
3.12819e-05
1.1168e-05
3.18234e-05
1.10029e-05
3.13261e-05
1.11764e-05
3.68938e-05
3.33553e-05