/*--------------------------------*- C++ -*----------------------------------*\
| =========                 |                                                 |
| \\      /  F ield         | OpenFOAM: The Open Source CFD Toolbox           |
|  \\    /   O peration     | Version:  2206                                  |
|   \\  /    A nd           | Website:  www.openfoam.com                      |
|    \\/     M anipulation  |                                                 |
\*---------------------------------------------------------------------------*/
FoamFile
{
    version     2.0;
    format      ascii;
    arch        "LSB;label=32;scalar=64";
    class       volScalarField;
    location    "0.4";
    object      nut;
}
// * * * * * * * * * * * * * * * * * * * * * * * * * * * * * * * * * * * * * //

dimensions      [0 2 -1 0 0 0 0];

internalField   nonuniform List<scalar> 
67442
(
1.1041e-06
9.67862e-07
9.89967e-07
9.56155e-07
9.5596e-07
9.87395e-07
9.8676e-07
9.55269e-07
9.67665e-07
9.65867e-07
9.66297e-07
9.55968e-07
9.8962e-07
7.22861e-08
2.69175e-07
3.43261e-08
6.9786e-08
2.56518e-07
1.10391e-06
1.10409e-06
1.10417e-06
2.63323e-07
1.14066e-06
5.08189e-07
3.35033e-08
1.14406e-06
2.71642e-07
5.28775e-07
1.44656e-07
1.48292e-07
3.43565e-08
3.35479e-08
1.48362e-07
1.44222e-07
7.21953e-08
2.69041e-07
2.71461e-07
1.14245e-06
5.29089e-07
2.71213e-07
1.14236e-06
5.28916e-07
1.48012e-07
1.44447e-07
3.35391e-08
2.6332e-07
1.14087e-06
5.08199e-07
6.9689e-08
2.56449e-07
1.14047e-06
2.63049e-07
5.08201e-07
6.97213e-08
2.56464e-07
1.1404e-06
2.63316e-07
5.08284e-07
6.97091e-08
2.56453e-07
1.44129e-07
1.4842e-07
3.43886e-08
1.1442e-06
2.71653e-07
5.2876e-07
7.22523e-08
2.68988e-07
7.22909e-08
2.68986e-07
3.35488e-08
3.44048e-08
3.00962e-08
7.2245e-08
1.43186e-07
1.43088e-07
3.01002e-08
5.17268e-08
2.695e-07
6.05176e-08
2.31459e-07
6.04813e-08
2.31795e-07
5.17595e-08
3.43081e-08
5.01002e-08
2.56551e-07
2.20791e-07
5.84749e-08
2.90119e-08
6.97004e-08
1.36451e-07
1.36191e-07
2.90427e-08
2.90416e-08
6.97843e-08
1.36443e-07
5.00141e-08
2.57895e-07
2.20787e-07
5.84742e-08
2.22031e-07
5.83724e-08
5.01015e-08
3.34701e-08
3.35039e-08
2.20216e-07
3.55937e-07
1.44352e-07
6.71081e-08
3.55147e-07
6.70278e-08
2.19568e-07
2.22e-07
3.60464e-07
1.48084e-07
6.72272e-08
3.59493e-07
6.71684e-08
2.21531e-07
8.75579e-08
2.86896e-08
2.88358e-08
2.86634e-08
2.88128e-08
8.77201e-08
3.43389e-08
3.35133e-08
3.35473e-08
2.21506e-07
3.61017e-07
1.48153e-07
6.79729e-08
6.79148e-08
3.59994e-07
2.21026e-07
2.20166e-07
3.54709e-07
1.43915e-07
6.61875e-08
6.6108e-08
3.53906e-07
2.1953e-07
8.7467e-08
2.88675e-08
2.85871e-08
2.88456e-08
2.85608e-08
8.7623e-08
3.00479e-08
7.21508e-08
1.42971e-07
1.42862e-07
3.00536e-08
5.16735e-08
2.6936e-07
6.04896e-08
2.31203e-07
6.04513e-08
2.3154e-07
5.17086e-08
2.21171e-07
3.59566e-07
1.47823e-07
6.71725e-08
6.71287e-08
3.58674e-07
2.21142e-07
2.19868e-07
3.553e-07
1.44186e-07
6.70798e-08
3.54499e-07
6.69687e-08
2.18546e-07
8.77154e-08
2.88651e-08
2.87207e-08
2.88428e-08
2.86925e-08
8.78547e-08
3.35055e-08
5.00678e-08
2.56489e-07
5.84565e-08
2.20621e-07
2.89812e-08
6.96034e-08
1.36264e-07
1.36008e-07
2.90116e-08
2.90112e-08
6.96874e-08
1.3626e-07
4.99805e-08
2.57826e-07
5.8455e-08
2.20601e-07
5.83536e-08
2.21853e-07
5.00672e-08
2.89839e-08
6.96366e-08
1.36304e-07
1.36054e-07
2.90137e-08
4.9985e-08
2.5784e-07
2.20656e-07
5.84549e-08
2.21911e-07
5.83529e-08
5.00708e-08
2.89817e-08
6.96235e-08
1.36273e-07
1.36017e-07
2.90125e-08
4.99791e-08
2.57823e-07
5.845e-08
2.20617e-07
5.83478e-08
2.2187e-07
5.00661e-08
2.20342e-07
3.54443e-07
1.43846e-07
6.62833e-08
6.61908e-08
3.53734e-07
2.19779e-07
2.21018e-07
3.61034e-07
1.48227e-07
6.81793e-08
3.59982e-07
6.80902e-08
2.20364e-07
8.77929e-08
2.86754e-08
2.90124e-08
2.86477e-08
2.89724e-08
8.80266e-08
3.43697e-08
3.00567e-08
7.2208e-08
1.43028e-07
1.4292e-07
3.00615e-08
5.16618e-08
2.69328e-07
2.31236e-07
6.04599e-08
2.31566e-07
6.04232e-08
5.16957e-08
3.00631e-08
7.22478e-08
1.43077e-07
1.42969e-07
3.00684e-08
5.16705e-08
2.69334e-07
2.31269e-07
6.04598e-08
2.31592e-07
6.04243e-08
5.17042e-08
3.35142e-08
3.4387e-08
1.05937e-06
1.06263e-06
1.03426e-06
4.01449e-07
5.64909e-07
5.71751e-07
9.27243e-07
5.53754e-07
5.62894e-07
4.03904e-07
4.01127e-07
5.68571e-07
5.67345e-07
9.2726e-07
5.59682e-07
5.56106e-07
4.03626e-07
4.00288e-07
5.66421e-07
5.68609e-07
9.26672e-07
5.5697e-07
5.57763e-07
4.0273e-07
4.00845e-07
5.63102e-07
5.73483e-07
9.27393e-07
5.64376e-07
5.52165e-07
4.03195e-07
1.05933e-06
1.06257e-06
1.03425e-06
1.06225e-06
1.05977e-06
1.03417e-06
1.06225e-06
1.05981e-06
1.03426e-06
6.5956e-07
5.02026e-07
2.642e-07
3.63098e-07
4.95752e-07
3.62786e-07
6.73118e-07
7.64407e-07
5.03989e-07
4.61559e-07
8.82495e-07
4.58727e-07
8.5231e-07
7.85679e-07
6.85609e-07
5.12897e-07
2.71831e-07
3.76623e-07
5.08596e-07
3.75888e-07
6.91902e-07
8.05528e-07
5.26251e-07
9.14307e-07
4.80536e-07
9.04913e-07
4.78363e-07
8.12596e-07
6.86922e-07
5.14366e-07
2.71664e-07
3.76551e-07
3.75937e-07
5.1019e-07
6.93092e-07
8.0665e-07
5.26523e-07
4.80743e-07
9.16327e-07
4.78706e-07
9.06696e-07
8.14019e-07
6.86435e-07
5.13288e-07
2.71431e-07
3.7625e-07
3.75625e-07
5.09261e-07
6.92613e-07
8.06393e-07
5.26303e-07
4.80418e-07
9.16153e-07
4.7833e-07
9.06516e-07
8.13804e-07
6.59708e-07
5.01579e-07
2.64171e-07
3.63337e-07
3.62984e-07
4.95347e-07
6.733e-07
7.64508e-07
5.04014e-07
4.61763e-07
8.82469e-07
4.58893e-07
8.52222e-07
7.85888e-07
6.60947e-07
5.02903e-07
2.63905e-07
3.62983e-07
3.62699e-07
4.96836e-07
6.74382e-07
7.65673e-07
5.04016e-07
8.84107e-07
4.61588e-07
8.53753e-07
4.58796e-07
7.87173e-07
6.61206e-07
5.03917e-07
2.64173e-07
3.6306e-07
4.97738e-07
3.62761e-07
6.74665e-07
7.65833e-07
5.04085e-07
8.84235e-07
4.61661e-07
8.5395e-07
4.5885e-07
7.87278e-07
6.85563e-07
5.12337e-07
2.71838e-07
3.76693e-07
5.08071e-07
3.7595e-07
6.91853e-07
8.05613e-07
5.26251e-07
9.14301e-07
4.80608e-07
9.04908e-07
4.78406e-07
8.12684e-07
5.74327e-09
6.41493e-10
4.3028e-11
3.87786e-12
3.01701e-12
5.75896e-09
6.39439e-10
4.32175e-11
4.11504e-12
3.27233e-12
5.64958e-09
6.30746e-10
4.234e-11
3.86107e-12
3.01858e-12
5.68779e-09
6.31306e-10
4.27062e-11
4.10469e-12
3.2755e-12
5.76483e-09
6.40135e-10
4.32695e-11
4.11987e-12
3.27568e-12
5.695e-09
6.32073e-10
4.275e-11
4.105e-12
3.27478e-12
5.73557e-09
6.40623e-10
4.29668e-11
3.87465e-12
3.0155e-12
5.6954e-09
6.32183e-10
4.27643e-11
4.10783e-12
3.27715e-12
5.64212e-09
6.29936e-10
4.22888e-11
3.85908e-12
3.01803e-12
5.64408e-09
6.30185e-10
4.23093e-11
3.86132e-12
3.01962e-12
5.64371e-09
6.30094e-10
4.23063e-11
3.86194e-12
3.02026e-12
5.77223e-09
6.40984e-10
4.33233e-11
4.12086e-12
3.27547e-12
5.74084e-09
6.41262e-10
4.30094e-11
3.87683e-12
3.01658e-12
5.74371e-09
6.41581e-10
4.30311e-11
3.87687e-12
3.01616e-12
5.69648e-09
6.32262e-10
4.27676e-11
4.10662e-12
3.27586e-12
5.77274e-09
6.41016e-10
4.33192e-11
4.11874e-12
3.27349e-12
5.75406e-09
6.37318e-10
4.30643e-11
4.09445e-12
3.25347e-12
5.7451e-09
6.41756e-10
4.30456e-11
3.88025e-12
3.0192e-12
5.75878e-09
6.39487e-10
4.32206e-11
4.11527e-12
3.2725e-12
5.48377e-09
6.08079e-10
4.10156e-11
3.9368e-12
3.1397e-12
5.6165e-09
6.25168e-10
4.21846e-11
4.01467e-12
3.1922e-12
5.64296e-09
6.24753e-10
4.22515e-11
4.06032e-12
3.23919e-12
5.64905e-09
6.30774e-10
4.23406e-11
3.85928e-12
3.01655e-12
5.64949e-09
6.3074e-10
4.23396e-11
3.86107e-12
3.0186e-12
5.68639e-09
6.31245e-10
4.2701e-11
4.10192e-12
3.27252e-12
5.68809e-09
6.31351e-10
4.27092e-11
4.10462e-12
3.27534e-12
5.67454e-09
6.31101e-10
4.23398e-11
3.88863e-12
3.04944e-12
5.67283e-09
6.30981e-10
4.23302e-11
3.88515e-12
3.04578e-12
5.68645e-09
6.32541e-10
4.24291e-11
3.8889e-12
3.04708e-12
5.68581e-09
6.32526e-10
4.24271e-11
3.8873e-12
3.04531e-12
5.20578e-09
5.7646e-10
3.9197e-11
3.99867e-12
3.2592e-12
5.21303e-09
5.77327e-10
3.92534e-11
3.99971e-12
3.25879e-12
5.20415e-09
5.76353e-10
3.91887e-11
3.99536e-12
3.2557e-12
5.21181e-09
5.77264e-10
3.92481e-11
3.99712e-12
3.256e-12
5.76483e-09
6.402e-10
4.32737e-11
4.12014e-12
3.27586e-12
5.69328e-09
6.31973e-10
4.27424e-11
4.10209e-12
3.27171e-12
5.69492e-09
6.32067e-10
4.27497e-11
4.10502e-12
3.27482e-12
5.73716e-09
6.40864e-10
4.29833e-11
3.87701e-12
3.01769e-12
5.67309e-09
6.30989e-10
4.23376e-11
3.88871e-12
3.04952e-12
5.67088e-09
6.30826e-10
4.23257e-11
3.8855e-12
3.04624e-12
5.21314e-09
5.77301e-10
3.92527e-11
4.00004e-12
3.25915e-12
5.21088e-09
5.77134e-10
3.92408e-11
3.99713e-12
3.2562e-12
5.69361e-09
6.32068e-10
4.27555e-11
4.10494e-12
3.27414e-12
5.48081e-09
6.07729e-10
4.09942e-11
3.93647e-12
3.13989e-12
5.61488e-09
6.24987e-10
4.21729e-11
4.01431e-12
3.19214e-12
5.6366e-09
6.24026e-10
4.22053e-11
4.05847e-12
3.23858e-12
5.6416e-09
6.29964e-10
4.22894e-11
3.85726e-12
3.01596e-12
5.64206e-09
6.29931e-10
4.22883e-11
3.85899e-12
3.01794e-12
5.64358e-09
6.30218e-10
4.23104e-11
3.8596e-12
3.01765e-12
5.63685e-09
6.24067e-10
4.22095e-11
4.05978e-12
3.23971e-12
5.64318e-09
6.30122e-10
4.2307e-11
3.86012e-12
3.01819e-12
5.73184e-09
6.37648e-10
4.27606e-11
3.90079e-12
3.05038e-12
5.72905e-09
6.37404e-10
4.27447e-11
3.89937e-12
3.04923e-12
5.24644e-09
5.80995e-10
3.94874e-11
4.00722e-12
3.26005e-12
5.77181e-09
6.41003e-10
4.33247e-11
4.12113e-12
3.27572e-12
5.7464e-09
6.36461e-10
4.30096e-11
4.09253e-12
3.25296e-12
5.7426e-09
6.41525e-10
4.30274e-11
3.87936e-12
3.01892e-12
5.74787e-09
6.36654e-10
4.30217e-11
4.09243e-12
3.25258e-12
5.74547e-09
6.4184e-10
4.30484e-11
3.87931e-12
3.01842e-12
5.69474e-09
6.32154e-10
4.27593e-11
4.10366e-12
3.27275e-12
5.77278e-09
6.41085e-10
4.33237e-11
4.11903e-12
3.27368e-12
5.74437e-09
6.36269e-10
4.29954e-11
4.09193e-12
3.2528e-12
5.63709e-09
6.24112e-10
4.22124e-11
4.05911e-12
3.23903e-12
5.52826e-09
6.13395e-10
4.13469e-11
3.93605e-12
3.12929e-12
5.66032e-09
6.30394e-10
4.25068e-11
4.01125e-12
3.17929e-12
5.66019e-09
6.30425e-10
4.25088e-11
4.01108e-12
3.17904e-12
5.52831e-09
6.1334e-10
4.13429e-11
3.93587e-12
3.12922e-12
5.75251e-09
6.37086e-10
4.30481e-11
4.09195e-12
3.25113e-12
5.68147e-09
6.32086e-10
4.24067e-11
3.88952e-12
3.04823e-12
5.67991e-09
6.3195e-10
4.23965e-11
3.88732e-12
3.04602e-12
5.21855e-09
5.77973e-10
3.92993e-11
4.00264e-12
3.26039e-12
5.21651e-09
5.77797e-10
3.92865e-11
3.9996e-12
3.25733e-12
5.64471e-09
6.24846e-10
4.22586e-11
4.06352e-12
3.24261e-12
5.48011e-09
6.07767e-10
4.09928e-11
3.93086e-12
3.13364e-12
5.61636e-09
6.25144e-10
4.21828e-11
4.01462e-12
3.19219e-12
5.6126e-09
6.24823e-10
4.21594e-11
4.00822e-12
3.18564e-12
5.48375e-09
6.08062e-10
4.10139e-11
3.93674e-12
3.13969e-12
5.64462e-09
6.24845e-10
4.22588e-11
4.06354e-12
3.24263e-12
5.63735e-09
6.27078e-10
4.20925e-11
3.88198e-12
3.04896e-12
5.63578e-09
6.26984e-10
4.20845e-11
3.87802e-12
3.04471e-12
5.20178e-09
5.75936e-10
3.9163e-11
3.99739e-12
3.25875e-12
5.20069e-09
5.75902e-10
3.91589e-11
3.99365e-12
3.25465e-12
5.71374e-09
6.35474e-10
4.26173e-11
3.89603e-12
3.04941e-12
5.71314e-09
6.35464e-10
4.26157e-11
3.89451e-12
3.04773e-12
5.21891e-09
5.77936e-10
3.92912e-11
3.9999e-12
3.25796e-12
5.21784e-09
5.7788e-10
3.92864e-11
3.99746e-12
3.25534e-12
5.63201e-09
6.26429e-10
4.20484e-11
3.88e-12
3.04823e-12
5.6303e-09
6.26312e-10
4.20391e-11
3.87644e-12
3.04447e-12
5.18658e-09
5.74322e-10
3.90642e-11
3.99487e-12
3.25888e-12
5.185e-09
5.74215e-10
3.90557e-11
3.99153e-12
3.25535e-12
5.52236e-09
6.12775e-10
4.13086e-11
3.93583e-12
3.13008e-12
5.65774e-09
6.30138e-10
4.24934e-11
4.01216e-12
3.18055e-12
5.65742e-09
6.30145e-10
4.24939e-11
4.01188e-12
3.18021e-12
5.52254e-09
6.12728e-10
4.13049e-11
3.93575e-12
3.13012e-12
5.74294e-09
6.36034e-10
4.29786e-11
4.08948e-12
3.25053e-12
5.47711e-09
6.07415e-10
4.09714e-11
3.93055e-12
3.13385e-12
5.61471e-09
6.24962e-10
4.21711e-11
4.01427e-12
3.19214e-12
5.61097e-09
6.24642e-10
4.21478e-11
4.00786e-12
3.18558e-12
5.48069e-09
6.07704e-10
4.09922e-11
3.93643e-12
3.1399e-12
5.63831e-09
6.24115e-10
4.22121e-11
4.06167e-12
3.242e-12
5.63829e-09
6.2412e-10
4.22127e-11
4.06166e-12
3.24198e-12
5.63861e-09
6.24174e-10
4.22173e-11
4.06217e-12
3.24236e-12
5.47656e-09
6.0732e-10
4.09633e-11
3.92873e-12
3.1323e-12
5.61438e-09
6.24858e-10
4.2165e-11
4.01289e-12
3.19092e-12
5.61057e-09
6.24527e-10
4.21409e-11
4.00648e-12
3.18438e-12
5.47999e-09
6.0759e-10
4.09828e-11
3.93452e-12
3.13829e-12
5.47636e-09
6.07301e-10
4.09601e-11
3.92891e-12
3.13253e-12
5.61382e-09
6.24814e-10
4.21587e-11
4.0126e-12
3.19082e-12
5.61e-09
6.24482e-10
4.21345e-11
4.00616e-12
3.18424e-12
5.47984e-09
6.07576e-10
4.09799e-11
3.93478e-12
3.1386e-12
5.63844e-09
6.24133e-10
4.22147e-11
4.06295e-12
3.24315e-12
5.24335e-09
5.80778e-10
3.9474e-11
4.00529e-12
3.25825e-12
5.74478e-09
6.36205e-10
4.29914e-11
4.08986e-12
3.25048e-12
5.52119e-09
6.12602e-10
4.12969e-11
3.93488e-12
3.12933e-12
5.65508e-09
6.29816e-10
4.24717e-11
4.01126e-12
3.18009e-12
5.65486e-09
6.29832e-10
4.24717e-11
4.01048e-12
3.17932e-12
5.52125e-09
6.12546e-10
4.12935e-11
3.93526e-12
3.12976e-12
5.74632e-09
6.36407e-10
4.30042e-11
4.08986e-12
3.2502e-12
5.52188e-09
6.1272e-10
4.13047e-11
3.9355e-12
3.12982e-12
5.65512e-09
6.29832e-10
4.24738e-11
4.01132e-12
3.18017e-12
5.65498e-09
6.29863e-10
4.24758e-11
4.01125e-12
3.18003e-12
5.5219e-09
6.12656e-10
4.12999e-11
3.93524e-12
3.12968e-12
9.65886e-07
9.27288e-07
9.89915e-07
1.10409e-06
2.57846e-07
1.14091e-06
5.04049e-07
6.96059e-08
2.57787e-07
1.14049e-06
2.6394e-07
5.04063e-07
3.34694e-08
1.43824e-07
5.00998e-08
2.56485e-07
2.2199e-07
5.83715e-08
2.20737e-07
5.84732e-08
5.00146e-08
2.9011e-08
6.96918e-08
1.3601e-07
1.36263e-07
2.8982e-08
5.00662e-08
2.56438e-07
5.83523e-08
2.21833e-07
5.84541e-08
2.20596e-07
4.99802e-08
3.35022e-08
2.19539e-07
3.53685e-07
1.44116e-07
6.6224e-08
3.54379e-07
6.63356e-08
2.20415e-07
2.2065e-07
3.59998e-07
3.6109e-07
2.20907e-07
8.80789e-08
2.86453e-08
2.86627e-08
8.78747e-08
4.0307e-07
9.5592e-07
5.52081e-07
5.64307e-07
5.63136e-07
5.73202e-07
4.00734e-07
1.06263e-06
1.03426e-06
1.06225e-06
1.05976e-06
1.03417e-06
7.85967e-07
5.083e-07
4.58871e-07
8.52367e-07
4.61794e-07
8.82632e-07
7.64543e-07
6.74359e-07
4.96802e-07
2.63073e-07
3.62703e-07
3.62985e-07
5.02894e-07
6.60904e-07
7.87253e-07
5.08306e-07
8.53891e-07
4.58813e-07
8.84257e-07
4.61641e-07
7.65725e-07
6.91846e-07
5.08537e-07
5.12788e-07
6.85574e-07
9.27163e-07
9.8738e-07
9.67628e-07
1.1041e-06
3.43395e-08
3.3514e-08
1.48156e-07
1.43918e-07
7.22413e-08
2.6951e-07
2.71691e-07
1.14248e-06
5.2653e-07
6.97028e-08
2.64204e-07
3.43575e-08
3.35488e-08
2.2108e-07
3.60008e-07
1.48365e-07
6.79177e-08
6.79763e-08
3.6103e-07
2.21578e-07
2.19581e-07
3.53915e-07
1.44221e-07
6.61102e-08
6.61899e-08
3.54701e-07
2.20238e-07
8.76454e-08
2.88465e-08
2.85616e-08
2.88694e-08
2.85888e-08
8.74826e-08
3.00996e-08
7.22883e-08
1.43091e-07
1.43193e-07
3.0095e-08
5.17612e-08
2.69169e-07
6.04803e-08
2.31818e-07
6.0518e-08
2.31462e-07
5.17272e-08
2.90422e-08
6.97884e-08
1.36194e-07
1.36446e-07
2.90131e-08
4.03643e-07
9.55858e-07
5.59625e-07
5.56033e-07
5.68494e-07
5.6726e-07
4.01165e-07
1.05937e-06
6.93055e-07
5.10187e-07
2.71485e-07
3.75937e-07
5.14319e-07
3.76552e-07
6.86907e-07
8.14026e-07
5.29123e-07
4.78687e-07
9.06738e-07
4.80742e-07
9.16362e-07
8.0665e-07
6.73268e-07
4.95297e-07
2.63332e-07
3.62989e-07
5.01506e-07
3.63339e-07
6.59649e-07
5.64183e-09
6.29992e-10
4.22916e-11
3.85739e-12
3.01604e-12
5.68614e-09
6.31216e-10
4.26994e-11
4.10203e-12
3.27269e-12
5.63835e-09
6.24124e-10
4.22129e-11
4.06169e-12
3.24201e-12
5.64214e-09
6.29931e-10
4.22882e-11
3.85912e-12
3.01808e-12
5.68726e-09
6.31239e-10
4.27016e-11
4.10469e-12
3.27564e-12
5.48378e-09
6.08073e-10
4.10148e-11
3.93675e-12
3.13967e-12
5.61263e-09
6.2483e-10
4.21601e-11
4.0082e-12
3.1856e-12
5.61624e-09
6.25128e-10
4.21817e-11
4.01457e-12
3.19217e-12
5.48018e-09
6.07771e-10
4.09928e-11
3.93082e-12
3.1336e-12
5.48067e-09
6.07708e-10
4.09926e-11
3.93643e-12
3.13989e-12
5.61096e-09
6.24646e-10
4.21482e-11
4.00784e-12
3.18554e-12
5.61455e-09
6.24941e-10
4.21697e-11
4.0142e-12
3.19212e-12
5.47707e-09
6.07409e-10
4.09708e-11
3.93051e-12
3.13382e-12
5.6367e-09
6.24032e-10
4.22055e-11
4.05847e-12
3.23858e-12
5.63513e-09
6.26861e-10
4.20757e-11
3.87776e-12
3.04468e-12
5.63497e-09
6.26771e-10
4.20724e-11
3.88147e-12
3.04898e-12
5.19896e-09
5.75663e-10
3.91434e-11
3.99368e-12
3.25514e-12
5.19874e-09
5.75576e-10
3.91402e-11
3.99737e-12
3.2594e-12
5.76512e-09
6.40243e-10
4.32769e-11
4.12017e-12
3.27579e-12
5.69351e-09
6.32004e-10
4.27446e-11
4.10209e-12
3.27164e-12
5.74497e-09
6.41759e-10
4.30463e-11
3.88023e-12
3.01915e-12
5.64928e-09
6.30803e-10
4.23427e-11
3.8593e-12
3.0165e-12
5.76495e-09
6.40143e-10
4.32699e-11
4.11986e-12
3.27567e-12
5.69508e-09
6.32075e-10
4.275e-11
4.10498e-12
3.27477e-12
5.75243e-09
6.3708e-10
4.30478e-11
4.09193e-12
3.25111e-12
5.74317e-09
6.41472e-10
4.30264e-11
3.87779e-12
3.01698e-12
5.64959e-09
6.30742e-10
4.23394e-11
3.86103e-12
3.01856e-12
5.21796e-09
5.77896e-10
3.92875e-11
3.99744e-12
3.25527e-12
5.18508e-09
5.74227e-10
3.90566e-11
3.9915e-12
3.25528e-12
5.6448e-09
6.24861e-10
4.22597e-11
4.06354e-12
3.2426e-12
5.64312e-09
6.24767e-10
4.22521e-11
4.06029e-12
3.23915e-12
5.71338e-09
6.35494e-10
4.26179e-11
3.89451e-12
3.04767e-12
5.71375e-09
6.35469e-10
4.26168e-11
3.89599e-12
3.04938e-12
5.63047e-09
6.26334e-10
4.20407e-11
3.87644e-12
3.04442e-12
5.63194e-09
6.26415e-10
4.20473e-11
3.87995e-12
3.0482e-12
5.1866e-09
5.74311e-10
3.90632e-11
3.99482e-12
3.25886e-12
5.219e-09
5.77933e-10
3.92907e-11
3.99986e-12
3.25794e-12
5.52835e-09
6.1334e-10
4.13427e-11
3.93584e-12
3.1292e-12
5.66011e-09
6.30423e-10
4.25087e-11
4.01106e-12
3.17901e-12
5.66017e-09
6.30366e-10
4.25047e-11
4.01118e-12
3.17928e-12
5.52813e-09
6.13374e-10
4.13453e-11
3.93596e-12
3.12925e-12
5.7539e-09
6.37306e-10
4.30637e-11
4.0944e-12
3.25344e-12
9.46129e-07
1.10404e-06
9.61106e-07
9.83569e-07
9.3372e-07
9.4569e-07
9.41992e-07
9.83805e-07
9.83348e-07
9.41313e-07
9.60839e-07
9.55815e-07
9.56668e-07
9.32801e-07
9.83591e-07
1.44659e-07
1.48299e-07
9.3957e-07
1.44358e-07
1.48078e-07
2.64146e-07
7.2282e-08
2.68681e-07
3.43242e-08
3.41377e-08
6.97966e-08
2.56984e-07
1.1039e-06
1.10386e-06
1.10414e-06
2.63725e-07
1.14063e-06
9.79216e-07
5.07015e-07
3.3493e-08
1.14405e-06
2.71748e-07
5.28541e-07
1.4465e-07
1.48302e-07
3.3544e-08
3.35155e-08
3.44007e-08
3.43886e-08
9.41291e-07
1.44339e-07
1.4808e-07
1.44681e-07
1.48314e-07
3.35152e-08
3.35429e-08
3.43875e-08
3.44045e-08
3.43522e-08
3.35424e-08
1.48339e-07
1.44239e-07
2.64011e-07
7.22158e-08
7.14645e-08
2.68564e-07
5.14987e-07
2.71474e-07
1.14478e-06
1.13744e-06
5.28228e-07
5.14814e-07
2.71246e-07
1.14453e-06
9.81688e-07
2.68814e-07
1.1376e-06
5.28069e-07
1.47979e-07
1.44497e-07
9.43744e-07
1.46936e-07
3.3534e-08
2.63706e-07
1.14088e-06
5.07074e-07
6.96991e-08
2.56912e-07
1.14031e-06
2.63371e-07
5.07075e-07
6.97303e-08
2.56907e-07
1.14037e-06
2.6369e-07
5.07108e-07
6.97204e-08
2.569e-07
1.44098e-07
1.48317e-07
3.43675e-08
1.1442e-06
2.71903e-07
5.28533e-07
7.22662e-08
2.69074e-07
7.23219e-08
2.6907e-07
3.35398e-08
3.44026e-08
8.77182e-08
2.86614e-08
2.88092e-08
2.86824e-08
2.88277e-08
8.75229e-08
2.2004e-07
3.55849e-07
6.70955e-08
1.44343e-07
6.70229e-08
2.19668e-07
3.5518e-07
2.2188e-07
3.60347e-07
6.72149e-08
1.48067e-07
6.71557e-08
2.21618e-07
3.59539e-07
8.7525e-08
2.86831e-08
2.88285e-08
2.86601e-08
2.8808e-08
8.77239e-08
2.19616e-07
6.70216e-08
1.44672e-07
3.55199e-07
6.70937e-08
2.19918e-07
3.55826e-07
2.2159e-07
6.71538e-08
1.48302e-07
3.59536e-07
6.72117e-08
2.21758e-07
3.60327e-07
5.10035e-08
5.93116e-08
2.27378e-07
2.65777e-07
5.95704e-08
2.28772e-07
5.07985e-08
3.00326e-08
7.23886e-08
1.43235e-07
1.42911e-07
3.00861e-08
2.98066e-08
7.17956e-08
1.41464e-07
5.14321e-08
2.67972e-07
6.03924e-08
2.3126e-07
6.00819e-08
2.30553e-07
5.17069e-08
3.43893e-08
3.42122e-08
2.90133e-08
6.96772e-08
1.36474e-07
1.36166e-07
2.90353e-08
5.00097e-08
2.574e-07
2.21238e-07
5.84684e-08
2.21551e-07
5.83662e-08
5.00974e-08
3.34673e-08
2.19794e-07
3.55923e-07
6.71072e-08
1.44327e-07
2.19917e-07
3.55044e-07
6.70052e-08
2.21657e-07
3.60387e-07
6.72248e-08
1.48064e-07
2.21834e-07
3.59459e-07
6.7141e-08
8.75146e-08
2.86811e-08
2.88268e-08
8.77439e-08
2.86608e-08
2.88083e-08
3.35145e-08
3.35439e-08
3.43864e-08
3.44025e-08
8.75368e-08
2.86833e-08
2.88285e-08
8.77394e-08
2.86634e-08
2.8811e-08
2.19814e-07
3.55181e-07
6.70164e-08
1.44668e-07
2.19925e-07
6.71016e-08
3.55861e-07
2.21711e-07
3.59534e-07
6.71502e-08
1.48315e-07
2.21737e-07
6.72199e-08
3.60335e-07
8.77566e-08
2.86634e-08
2.88108e-08
8.75343e-08
2.86827e-08
2.88282e-08
2.1992e-07
6.70948e-08
3.55832e-07
1.44358e-07
2.19651e-07
6.70228e-08
3.55137e-07
2.21722e-07
6.72129e-08
3.60317e-07
1.48088e-07
2.21586e-07
6.71552e-08
3.59499e-07
3.35405e-08
3.35156e-08
3.44038e-08
3.43892e-08
3.44177e-08
3.42419e-08
3.3517e-08
2.21301e-07
3.60942e-07
1.48362e-07
6.79719e-08
6.79137e-08
3.6006e-07
2.21235e-07
2.19878e-07
3.54701e-07
1.43919e-07
6.619e-08
6.6101e-08
3.53887e-07
2.19817e-07
1.4807e-07
3.60825e-07
8.74525e-08
2.88651e-08
2.8584e-08
2.88481e-08
2.85649e-08
8.76485e-08
5.09582e-08
5.92831e-08
2.27148e-07
2.65649e-07
5.95416e-08
2.28545e-07
5.07541e-08
2.99957e-08
7.23224e-08
1.43067e-07
1.42738e-07
3.0049e-08
2.97722e-08
1.4059e-07
7.17385e-08
1.41304e-07
2.97067e-08
5.13864e-08
2.67844e-07
6.03652e-08
2.3104e-07
6.0053e-08
2.30335e-07
5.16626e-08
8.80097e-08
2.89019e-08
2.88981e-08
2.87216e-08
2.20932e-07
3.59532e-07
1.47961e-07
6.7149e-08
6.70885e-08
3.58782e-07
2.21339e-07
2.19707e-07
3.55413e-07
1.44234e-07
6.71016e-08
3.54569e-07
6.69784e-08
2.18926e-07
2.20019e-07
6.72555e-08
1.47658e-07
3.57603e-07
6.73586e-08
3.59042e-07
2.20328e-07
2.20428e-07
1.44469e-07
3.5582e-07
6.7007e-08
8.77041e-08
2.88511e-08
2.87187e-08
2.88328e-08
2.86945e-08
8.78595e-08
3.35081e-08
3.35336e-08
2.89834e-08
6.95782e-08
1.36298e-07
1.35989e-07
2.90053e-08
4.99765e-08
2.57331e-07
5.84499e-08
2.21048e-07
5.83481e-08
2.2137e-07
5.00632e-08
5.00639e-08
2.57085e-07
2.21235e-07
5.84497e-08
2.89847e-08
6.96081e-08
1.36333e-07
1.36033e-07
2.90055e-08
2.90029e-08
6.97168e-08
1.36325e-07
4.99779e-08
2.5733e-07
2.21085e-07
5.84475e-08
2.2141e-07
5.83463e-08
5.00625e-08
5.00606e-08
2.57069e-07
5.8445e-08
2.21192e-07
2.89831e-08
6.96005e-08
1.36304e-07
1.36001e-07
2.90044e-08
2.90025e-08
6.97146e-08
1.36301e-07
4.99733e-08
2.57318e-07
5.84432e-08
2.21057e-07
5.83418e-08
2.21377e-07
5.00595e-08
2.19507e-07
3.53989e-07
1.43778e-07
6.62561e-08
6.61388e-08
3.53154e-07
2.1971e-07
2.20087e-07
3.60302e-07
1.4809e-07
6.80836e-08
3.59302e-07
6.79868e-08
2.2011e-07
8.76901e-08
2.86651e-08
2.8971e-08
2.86403e-08
2.89369e-08
8.7971e-08
3.43499e-08
3.00654e-08
7.22044e-08
1.43086e-07
1.42915e-07
3.00625e-08
5.16666e-08
2.69312e-07
2.31369e-07
6.04674e-08
2.31485e-07
6.04292e-08
5.17024e-08
3.00711e-08
7.22534e-08
1.43144e-07
1.42971e-07
3.00697e-08
5.16735e-08
2.69313e-07
2.31397e-07
6.04659e-08
2.31507e-07
6.04292e-08
5.17091e-08
3.35143e-08
3.3542e-08
3.43857e-08
4.01695e-07
5.62364e-07
5.69751e-07
9.27361e-07
4.03596e-07
5.54593e-07
5.63794e-07
1.05928e-06
1.06264e-06
1.03427e-06
4.01846e-07
5.59426e-07
5.67422e-07
9.31886e-07
4.03389e-07
5.55972e-07
5.65064e-07
4.03347e-07
9.54375e-07
5.58336e-07
5.66528e-07
4.0185e-07
5.62937e-07
5.69725e-07
4.01415e-07
5.66562e-07
5.62763e-07
9.30676e-07
5.6131e-07
5.58105e-07
4.03374e-07
4.00687e-07
5.64439e-07
5.64105e-07
9.30317e-07
5.59114e-07
5.59558e-07
4.02585e-07
4.00235e-07
5.56881e-07
5.68264e-07
9.31096e-07
5.65667e-07
5.53513e-07
4.01691e-07
4.0349e-07
9.5632e-07
5.57019e-07
5.65511e-07
4.01703e-07
5.63885e-07
5.70641e-07
1.05911e-06
1.06258e-06
1.03424e-06
1.0622e-06
1.05974e-06
1.03426e-06
1.06224e-06
1.05976e-06
1.03426e-06
6.62202e-07
4.98458e-07
2.63771e-07
3.63129e-07
4.96764e-07
3.62665e-07
6.65216e-07
6.70077e-07
2.63731e-07
5.00994e-07
3.63178e-07
7.67971e-07
5.04892e-07
4.60882e-07
8.65803e-07
4.59249e-07
8.5677e-07
7.73151e-07
6.87157e-07
5.09535e-07
2.71486e-07
3.76432e-07
5.09174e-07
3.75972e-07
6.86089e-07
8.07946e-07
5.26565e-07
9.10918e-07
4.80139e-07
9.05525e-07
4.78879e-07
8.08369e-07
4.01671e-07
9.28859e-07
5.6116e-07
5.68801e-07
4.03389e-07
5.55079e-07
5.64228e-07
8.06534e-07
4.68105e-07
8.91904e-07
5.2107e-07
4.73796e-07
9.05871e-07
7.97688e-07
6.8965e-07
5.12428e-07
2.71768e-07
3.76766e-07
3.75376e-07
5.11853e-07
6.89627e-07
6.86463e-07
2.70304e-07
3.73138e-07
5.11003e-07
8.06662e-07
5.24328e-07
4.80732e-07
9.11798e-07
4.76794e-07
9.03916e-07
8.09699e-07
8.0632e-07
4.6783e-07
8.91754e-07
5.20909e-07
4.73495e-07
9.05724e-07
7.97481e-07
6.8932e-07
5.11345e-07
2.71548e-07
3.76514e-07
3.75134e-07
5.11094e-07
6.89192e-07
6.85948e-07
3.69724e-07
2.701e-07
5.06736e-07
3.72887e-07
6.78574e-07
5.09933e-07
8.06553e-07
5.24154e-07
4.80421e-07
9.11786e-07
4.76501e-07
9.03887e-07
8.09583e-07
4.02307e-07
9.51375e-07
5.59268e-07
5.62908e-07
5.66012e-07
5.64617e-07
4.00456e-07
6.62432e-07
4.97964e-07
2.63745e-07
3.63378e-07
3.62877e-07
4.96376e-07
6.65399e-07
7.68221e-07
5.04999e-07
4.61123e-07
8.65839e-07
4.5947e-07
8.56857e-07
7.73435e-07
6.63093e-07
4.98672e-07
2.6341e-07
3.62988e-07
3.62553e-07
4.97381e-07
6.65955e-07
7.69209e-07
5.05005e-07
8.67352e-07
4.60918e-07
8.58271e-07
4.59346e-07
7.74549e-07
6.63497e-07
4.99957e-07
2.63728e-07
3.63089e-07
4.98622e-07
3.62641e-07
6.66362e-07
7.69368e-07
5.04993e-07
8.67536e-07
4.60962e-07
8.58401e-07
4.59363e-07
7.74705e-07
6.87297e-07
5.09388e-07
2.71639e-07
3.76587e-07
5.09083e-07
3.76097e-07
6.86287e-07
8.08003e-07
5.26549e-07
9.11021e-07
4.80224e-07
9.0553e-07
4.78891e-07
8.08627e-07
1.10407e-06
9.67929e-07
9.9002e-07
9.56297e-07
1.1037e-06
9.67845e-07
9.90124e-07
9.56216e-07
1.10298e-06
9.68233e-07
9.90178e-07
9.57765e-07
1.1036e-06
9.68167e-07
9.90204e-07
9.56971e-07
1.10438e-06
9.68292e-07
9.90313e-07
9.57003e-07
1.10559e-06
9.68845e-07
9.90917e-07
9.57272e-07
1.10619e-06
9.69637e-07
9.91607e-07
9.58144e-07
1.10565e-06
9.69562e-07
9.91259e-07
9.58113e-07
1.10483e-06
9.68739e-07
9.90489e-07
9.5732e-07
1.10456e-06
9.68521e-07
9.90216e-07
9.57101e-07
1.10425e-06
9.67897e-07
9.89652e-07
9.56209e-07
1.10412e-06
9.67505e-07
9.8926e-07
9.55641e-07
1.10411e-06
9.67154e-07
9.88908e-07
9.55283e-07
1.1041e-06
9.66525e-07
9.88275e-07
9.54016e-07
1.1041e-06
9.65465e-07
9.87299e-07
9.5173e-07
1.10409e-06
9.63839e-07
9.85799e-07
9.27207e-07
9.874e-07
9.86764e-07
9.26762e-07
9.67642e-07
9.65921e-07
9.67877e-07
9.66278e-07
9.27363e-07
9.89979e-07
9.8962e-07
9.27182e-07
9.55983e-07
9.27293e-07
9.87374e-07
9.86862e-07
9.87364e-07
9.86715e-07
9.55724e-07
9.26505e-07
9.67605e-07
9.65828e-07
9.67589e-07
9.65866e-07
9.66334e-07
9.67775e-07
9.66216e-07
9.55999e-07
9.27322e-07
9.89671e-07
9.89929e-07
9.89553e-07
9.27139e-07
9.56271e-07
9.28624e-07
9.87548e-07
9.8674e-07
9.87731e-07
9.87092e-07
9.55299e-07
9.27961e-07
9.67786e-07
9.65977e-07
9.68052e-07
9.66263e-07
9.66261e-07
9.68244e-07
9.66687e-07
9.56091e-07
9.28415e-07
9.89632e-07
9.90193e-07
9.8997e-07
9.28655e-07
9.57269e-07
9.28188e-07
9.87693e-07
9.87141e-07
9.87733e-07
9.87037e-07
9.56899e-07
9.27274e-07
9.67977e-07
9.66101e-07
9.68004e-07
9.66171e-07
9.66684e-07
9.68088e-07
9.66549e-07
9.56856e-07
9.27924e-07
9.89962e-07
9.90133e-07
9.89864e-07
9.27847e-07
9.57103e-07
9.27992e-07
9.87762e-07
9.8704e-07
9.87856e-07
9.87147e-07
9.56074e-07
9.27402e-07
9.68031e-07
9.66121e-07
9.68098e-07
9.66202e-07
9.66618e-07
9.68238e-07
9.66696e-07
9.56645e-07
9.27543e-07
9.8991e-07
9.90208e-07
9.90006e-07
9.28022e-07
9.56824e-07
9.28334e-07
9.87945e-07
9.87252e-07
9.88382e-07
9.87597e-07
9.56268e-07
9.27707e-07
9.68183e-07
9.66194e-07
9.68636e-07
9.66683e-07
9.66741e-07
9.68661e-07
9.67063e-07
9.56193e-07
9.2786e-07
9.90051e-07
9.90666e-07
9.90377e-07
9.28202e-07
9.57218e-07
9.29329e-07
9.88604e-07
9.87726e-07
9.89246e-07
9.88412e-07
9.56488e-07
9.28474e-07
9.68832e-07
9.66817e-07
9.6951e-07
9.67497e-07
9.67205e-07
9.69479e-07
9.67854e-07
9.56588e-07
9.28743e-07
9.90537e-07
9.91495e-07
9.91195e-07
9.28913e-07
9.5828e-07
9.29204e-07
9.89319e-07
9.88602e-07
9.89189e-07
9.88571e-07
9.57552e-07
9.28729e-07
9.69589e-07
9.67489e-07
9.69468e-07
9.67401e-07
9.68015e-07
9.69654e-07
9.68045e-07
9.57501e-07
9.28583e-07
9.91329e-07
9.91446e-07
9.91329e-07
9.2916e-07
9.57923e-07
9.28273e-07
9.88965e-07
9.88393e-07
9.8836e-07
9.87793e-07
9.57378e-07
9.27946e-07
9.69234e-07
9.6709e-07
9.68593e-07
9.66486e-07
9.67937e-07
9.68911e-07
9.67294e-07
9.57115e-07
9.27604e-07
9.91208e-07
9.90582e-07
9.9059e-07
9.28457e-07
9.56925e-07
9.28215e-07
9.88253e-07
9.87689e-07
9.8812e-07
9.87565e-07
9.56715e-07
9.27702e-07
9.68468e-07
9.66289e-07
9.68415e-07
9.663e-07
9.67096e-07
9.68662e-07
9.67053e-07
9.56096e-07
9.27537e-07
9.9042e-07
9.90363e-07
9.90324e-07
9.28117e-07
9.56883e-07
9.27355e-07
9.87943e-07
9.87375e-07
9.87654e-07
9.87148e-07
9.5637e-07
9.27027e-07
9.68196e-07
9.66012e-07
9.67922e-07
9.65848e-07
9.66881e-07
9.68264e-07
9.66699e-07
9.56023e-07
9.26794e-07
9.90162e-07
9.89973e-07
9.89992e-07
9.27538e-07
9.55869e-07
9.27201e-07
9.87388e-07
9.86944e-07
9.87466e-07
9.86975e-07
9.55643e-07
9.2685e-07
9.67553e-07
9.6535e-07
9.67829e-07
9.65817e-07
9.66247e-07
9.68096e-07
9.66555e-07
9.55081e-07
9.26655e-07
9.89628e-07
9.89832e-07
9.89814e-07
9.27291e-07
9.55521e-07
9.27605e-07
9.87091e-07
9.86539e-07
9.87646e-07
9.87085e-07
9.55084e-07
9.27107e-07
9.67226e-07
9.64947e-07
9.68185e-07
9.6627e-07
9.65745e-07
9.68409e-07
9.67005e-07
9.5462e-07
9.27132e-07
9.89192e-07
9.90139e-07
9.90125e-07
9.27806e-07
9.55348e-07
9.28047e-07
9.86925e-07
9.86433e-07
9.87926e-07
9.87397e-07
9.54961e-07
9.27707e-07
9.66913e-07
9.64479e-07
9.68731e-07
9.67066e-07
9.65295e-07
9.68987e-07
9.67808e-07
9.54193e-07
9.27981e-07
9.88852e-07
9.9071e-07
9.90692e-07
9.2862e-07
9.54449e-07
9.29458e-07
9.86604e-07
9.86075e-07
9.88402e-07
9.87832e-07
9.54055e-07
9.28966e-07
9.66252e-07
9.63571e-07
9.69751e-07
9.68485e-07
9.64371e-07
9.7001e-07
9.69234e-07
9.53e-07
9.30003e-07
9.8822e-07
9.91667e-07
9.91643e-07
9.30712e-07
9.53064e-07
9.32119e-07
9.86183e-07
9.85691e-07
9.89092e-07
9.8854e-07
9.52607e-07
9.31825e-07
9.65242e-07
9.62095e-07
9.71441e-07
9.70909e-07
9.62915e-07
9.71726e-07
9.71654e-07
9.50606e-07