/*--------------------------------*- C++ -*----------------------------------*\
| =========                 |                                                 |
| \\      /  F ield         | OpenFOAM: The Open Source CFD Toolbox           |
|  \\    /   O peration     | Version:  2206                                  |
|   \\  /    A nd           | Website:  www.openfoam.com                      |
|    \\/     M anipulation  |                                                 |
\*---------------------------------------------------------------------------*/
FoamFile
{
    version     2.0;
    format      ascii;
    arch        "LSB;label=32;scalar=64";
    class       volScalarField;
    location    "0.4";
    object      omega;
}
// * * * * * * * * * * * * * * * * * * * * * * * * * * * * * * * * * * * * * //

dimensions      [0 0 -1 0 0 0 0];

internalField   nonuniform List<scalar> 
67442
(
18.6867
25.2848
24.8209
32.2417
32.2009
24.8488
24.8402
32.2041
25.2791
25.2856
25.2948
32.2423
24.811
299.925
148.397
410.374
302.065
152.24
18.6872
18.6871
18.6866
140.552
20.5763
68.9313
411.859
20.1433
137.894
65.9228
199.195
197.523
410.297
411.881
197.311
199.423
299.943
148.404
137.873
20.1443
65.9015
137.927
20.143
65.8989
197.511
199.306
411.821
140.62
20.577
68.9444
302.083
152.242
20.5835
140.621
68.9368
302.051
152.235
20.583
140.546
68.9201
302.063
152.23
199.393
197.469
410.348
20.142
137.929
65.9243
299.935
148.427
299.938
148.431
411.803
410.383
431.168
299.889
208.485
208.505
431.302
332.139
148.544
310.198
164.481
310.157
164.633
332.19
410.257
335.273
152.22
168.339
313.396
434.027
301.995
212.208
212.333
434.259
434.26
302.066
212.209
335.157
152.545
168.347
313.396
168.648
313.296
335.272
411.69
411.871
161.379
100.328
199.369
308.215
100.607
308.134
161.077
159.872
99.0152
197.63
308.45
99.2295
308.386
159.6
246.348
417.878
417.359
417.699
417.194
246.356
410.184
411.707
411.881
160.727
99.0528
197.423
307.578
307.513
99.276
160.456
160.576
100.335
199.599
309.09
309.01
100.621
160.274
246.348
417.247
417.993
417.083
417.814
246.358
431.175
299.906
208.508
208.528
431.31
332.134
148.552
310.197
164.495
310.156
164.647
332.185
159.954
99.0742
197.578
308.374
308.318
99.3156
159.733
161.174
100.317
199.42
308.238
100.561
308.176
161.012
246.441
417.291
417.894
417.042
417.754
246.399
411.643
335.285
152.228
313.4
168.351
434.027
302.013
212.223
212.344
434.26
434.259
302.085
212.222
335.169
152.552
313.4
168.358
313.301
168.662
335.285
434.026
301.98
212.215
212.329
434.259
335.158
152.551
168.351
313.396
168.655
313.297
335.273
434.02
301.993
212.214
212.335
434.252
335.167
152.546
313.398
168.344
313.299
168.653
335.282
160.689
100.34
199.545
308.921
308.906
100.635
160.428
160.489
99.0735
197.53
307.628
99.285
307.537
160.193
246.485
417.954
417.208
417.782
417.083
246.52
410.224
431.17
299.898
208.503
208.524
431.306
332.149
148.57
164.508
310.209
164.658
310.167
332.2
431.176
299.902
208.504
208.529
431.311
332.141
148.573
164.51
310.206
164.661
310.164
332.192
411.631
410.271
17.8803
17.9214
17.6995
89.8075
54.1986
53.7719
32.3152
54.4054
53.9391
89.5502
89.8221
53.7362
54.2301
32.2715
53.9086
54.4404
89.553
89.8682
53.7322
54.2444
32.2755
54.4569
53.9072
89.6171
89.8809
54.1955
53.7845
32.3143
53.962
54.4068
89.6133
17.8805
17.9217
17.6997
17.9207
17.8822
17.701
17.9206
17.8804
17.6995
47.8323
67.7372
140.856
100.28
67.9962
100.581
47.6537
39.4984
69.2542
78.2172
35.3384
78.5334
35.5203
39.3229
46.053
66.1878
138.083
97.2163
66.3446
97.3747
45.9832
37.7958
66.045
33.8387
75.0516
33.8868
75.1844
37.764
46.0152
66.1047
138.057
97.1631
97.3152
66.2692
45.941
37.7423
66.022
75.0221
33.8288
75.1526
33.8766
37.7012
46.0257
66.1219
138.116
97.1748
97.3363
66.2967
45.9478
37.7522
66.0254
75.0249
33.8262
75.1636
33.8759
37.7073
47.8344
67.7714
140.924
100.293
100.598
68.0392
47.6577
39.4975
69.2577
78.2215
35.3474
78.5331
35.5229
39.3272
47.8283
67.7055
140.926
100.306
100.613
67.9757
47.6456
39.4951
69.2516
35.345
78.2129
35.5204
78.529
39.3189
47.8134
67.672
140.855
100.273
67.9402
100.583
47.629
39.488
69.2413
35.3349
78.1935
35.514
78.5137
39.3098
46.0598
66.1889
138.116
97.1802
66.3531
97.3419
45.9907
37.7978
66.0496
33.8406
75.0518
33.8896
75.1897
37.7652
744.209
1606.82
4403.61
16443.3
116782
731.228
1602.86
4400.58
16447.7
116912
743.772
1606.75
4403.76
16445.1
116802
730.881
1602.73
4400.16
16445.3
116892
731.177
1602.72
4400.04
16443.8
116862
730.894
1602.78
4400.47
16447.6
116912
744.216
1606.83
4403.76
16445.2
116803
730.857
1602.64
4399.87
16444
116872
743.777
1606.73
4403.73
16445.3
116814
743.755
1606.63
4403.26
16442.5
116781
743.748
1606.68
4403.34
16442.2
116772
731.195
1602.74
4400.01
16444.8
116881
744.206
1606.77
4403.58
16444.1
116795
744.209
1606.77
4403.56
16444.3
116802
730.873
1602.73
4400.15
16445.4
116892
731.222
1602.81
4400.47
16447.2
116912
728.238
1600.89
4397.34
16436.9
116835
744.044
1606.65
4403.46
16443.1
116782
731.099
1602.74
4400.47
16447.6
116912
735.39
1603.67
4399.16
16433.5
116752
736.754
1603.06
4397.17
16428.4
116727
727.756
1600.73
4397.35
16437.6
116840
743.532
1606.54
4403.59
16445
116802
743.774
1606.75
4403.76
16445.1
116802
730.696
1602.57
4400.04
16445.2
116892
730.889
1602.73
4400.17
16445.3
116892
742.824
1606.51
4403.08
16443.5
116795
742.624
1606.35
4402.97
16443.4
116795
742.973
1606.52
4403.13
16443.5
116795
742.807
1606.38
4403.02
16443.4
116795
728.605
1603.19
4402.09
16450.7
116918
728.65
1603.2
4402.03
16451
116921
728.42
1603.04
4401.99
16450.7
116918
728.478
1603.06
4401.92
16450.9
116921
731.048
1602.6
4399.93
16443.7
116862
730.705
1602.63
4400.36
16447.5
116912
730.895
1602.78
4400.48
16447.6
116912
744.051
1606.66
4403.6
16445.1
116803
742.806
1606.5
4402.99
16442.6
116789
742.611
1606.34
4402.87
16442.5
116789
728.583
1603.2
4401.99
16450.9
116919
728.412
1603.05
4401.87
16450.8
116919
730.668
1602.48
4399.76
16443.9
116872
735.377
1603.66
4399.14
16432.8
116747
736.748
1603.05
4397.12
16428.1
116725
727.756
1600.73
4397.38
16437.7
116852
743.539
1606.52
4403.57
16445.2
116814
743.779
1606.73
4403.73
16445.3
116814
743.515
1606.42
4403.09
16442.3
116781
727.736
1600.69
4397.22
16436.5
116831
743.507
1606.46
4403.18
16442.1
116772
743.019
1606.49
4402.8
16440.9
116759
742.856
1606.35
4402.69
16440.8
116759
728.629
1603.22
4402.13
16450.5
116904
731.063
1602.61
4399.91
16444.7
116881
728.24
1600.89
4397.34
16436.9
116836
744.04
1606.6
4403.42
16444
116795
728.238
1600.86
4397.2
16436.7
116840
744.041
1606.6
4403.4
16444.2
116802
730.684
1602.57
4400.03
16445.3
116892
731.093
1602.69
4400.36
16447.1
116912
728.233
1600.85
4397.22
16437.4
116838
727.747
1600.69
4397.16
16436.8
116840
735.788
1603.65
4399.28
16433.9
116768
737.253
1603.12
4397.37
16429.4
116747
737.149
1603.03
4397.3
16429.3
116747
735.892
1603.75
4399.37
16434
116768
728.362
1601.02
4397.47
16437
116835
742.953
1606.47
4402.9
16441.8
116776
742.79
1606.34
4402.8
16441.7
116776
728.619
1603.13
4401.66
16448.4
116887
728.431
1602.99
4401.56
16448.3
116887
727.973
1600.91
4397.48
16437.7
116840
735.178
1603.52
4399.06
16433.4
116752
736.753
1603.06
4397.17
16428.4
116727
736.541
1602.91
4397.08
16428.3
116727
735.389
1603.67
4399.16
16433.5
116752
727.974
1600.91
4397.48
16437.7
116840
742.731
1606.46
4402.9
16441.8
116778
742.535
1606.31
4402.79
16441.7
116778
728.596
1603.26
4402.26
16451.4
116918
728.408
1603.11
4402.14
16451.3
116918
742.997
1606.51
4402.96
16442
116776
742.832
1606.37
4402.85
16441.9
116776
728.653
1603.25
4402.18
16451.5
116933
728.484
1603.11
4402.08
16451.4
116933
742.768
1606.51
4403.07
16443.1
116795
742.568
1606.35
4402.96
16443
116795
728.593
1603.22
4401.99
16450.4
116921
728.408
1603.07
4401.88
16450.3
116921
735.777
1603.61
4399.02
16433.3
116751
737.242
1603.09
4397.14
16428.4
116727
737.137
1603
4397.06
16428.3
116727
735.883
1603.71
4399.1
16433.4
116751
728.359
1600.99
4397.35
16437.5
116838
735.166
1603.5
4399.03
16432.7
116747
736.746
1603.04
4397.11
16428.1
116725
736.535
1602.89
4397.02
16428.1
116725
735.376
1603.66
4399.13
16432.8
116747
727.973
1600.91
4397.51
16437.7
116852
727.973
1600.91
4397.51
16437.7
116852
727.962
1600.87
4397.3
16436.8
116840
735.194
1603.6
4399.35
16434.7
116774
736.752
1603.11
4397.4
16428.7
116749
736.54
1602.96
4397.31
16428.7
116749
735.405
1603.76
4399.45
16434.8
116774
735.192
1603.59
4399.38
16434.8
116769
736.758
1603.1
4397.41
16429.4
116747
736.546
1602.94
4397.32
16429.3
116747
735.403
1603.74
4399.48
16434.9
116769
727.953
1600.87
4397.35
16436.6
116831
728.475
1603.1
4402.04
16450.4
116904
728.366
1601.03
4397.48
16437
116836
735.784
1603.64
4399.24
16433.4
116758
737.241
1603.09
4397.24
16428.1
116725
737.139
1603
4397.22
16428.7
116736
735.89
1603.73
4399.27
16432.9
116748
728.366
1601
4397.33
16436.8
116840
735.782
1603.62
4399.06
16433.4
116752
737.237
1603.09
4397.13
16428.4
116727
737.134
1603
4397.06
16428.3
116727
735.889
1603.72
4399.15
16433.5
116752
25.2842
32.3202
24.8202
18.687
152.566
20.5766
69.2479
302.011
152.562
20.583
140.918
69.2403
411.675
199.57
335.273
152.247
168.663
313.297
168.357
313.396
335.157
434.261
302.08
212.345
212.225
434.028
335.285
152.239
313.301
168.668
313.401
168.356
335.169
411.834
160.472
100.602
199.415
308.755
100.296
308.635
160.744
160.14
99.3074
99.1151
160.428
246.711
417.76
417.912
246.639
89.6117
32.2425
54.418
53.9644
54.2076
53.785
89.8785
17.9214
17.6994
17.9207
17.8829
17.701
39.3229
68.9229
78.5313
35.5152
78.2093
35.3393
39.495
47.6447
67.977
140.613
100.611
100.302
67.7061
47.8321
39.3146
68.917
35.5134
78.5214
35.3384
78.199
39.4913
45.982
66.3619
66.2047
46.0511
32.2794
24.8474
25.2778
18.6867
410.184
411.707
197.423
199.599
299.887
148.539
138.052
20.144
66.0234
301.993
140.917
410.296
411.88
160.438
99.2672
197.311
307.511
307.576
99.0551
160.707
160.258
100.617
199.424
309.009
309.088
100.339
160.557
246.354
417.082
417.813
417.248
417.993
246.345
431.302
299.923
208.504
208.486
431.167
332.188
148.396
310.155
164.622
310.197
164.474
332.137
434.259
302.063
212.332
212.21
434.027
89.5663
32.2028
53.9207
54.4531
53.7491
54.2428
89.8212
17.8803
45.9442
66.27
137.864
97.3122
66.1103
97.1598
46.0167
37.7051
65.8912
75.1553
33.8768
75.0171
33.8248
37.7441
47.6585
68.0462
140.614
100.599
67.7792
100.292
47.8405
743.537
1606.52
4403.57
16445.2
116814
730.685
1602.56
4400.04
16445.2
116892
727.975
1600.91
4397.51
16437.7
116852
743.777
1606.73
4403.73
16445.3
116814
730.866
1602.72
4400.15
16445.3
116892
735.39
1603.67
4399.16
16433.5
116752
736.542
1602.91
4397.08
16428.3
116727
736.754
1603.06
4397.17
16428.4
116727
735.179
1603.52
4399.06
16433.4
116752
735.377
1603.66
4399.13
16432.8
116747
736.535
1602.89
4397.02
16428.1
116725
736.748
1603.04
4397.12
16428.1
116725
735.166
1603.5
4399.03
16432.7
116747
727.757
1600.73
4397.38
16437.7
116852
742.512
1606.3
4402.79
16441.7
116778
742.703
1606.45
4402.89
16441.8
116778
728.394
1603.11
4402.15
16451.3
116918
728.561
1603.24
4402.24
16451.4
116918
731.049
1602.6
4399.93
16443.7
116862
730.706
1602.63
4400.36
16447.5
116912
744.044
1606.65
4403.46
16443.1
116782
743.532
1606.54
4403.59
16445
116802
731.178
1602.72
4400.04
16443.8
116862
730.895
1602.78
4400.48
16447.6
116912
728.362
1601.03
4397.47
16437
116835
744.211
1606.82
4403.62
16443.3
116782
743.773
1606.75
4403.76
16445.1
116802
728.484
1603.11
4402.08
16451.4
116933
728.409
1603.07
4401.88
16450.3
116921
727.974
1600.91
4397.48
16437.7
116840
727.757
1600.73
4397.35
16437.6
116840
742.832
1606.37
4402.85
16441.9
116776
742.998
1606.51
4402.96
16442
116776
742.568
1606.35
4402.96
16443
116795
742.769
1606.51
4403.07
16443.1
116795
728.595
1603.22
4401.99
16450.4
116921
728.655
1603.25
4402.18
16451.5
116933
735.892
1603.75
4399.37
16434
116768
737.149
1603.03
4397.3
16429.3
116747
737.253
1603.12
4397.38
16429.4
116747
735.787
1603.65
4399.28
16433.9
116768
728.237
1600.89
4397.34
16436.9
116835
32.231
18.682
25.2861
24.816
32.23
32.3042
32.1843
24.7801
24.7827
32.1885
25.2755
25.2862
25.291
32.2312
24.8057
199.166
197.485
32.2887
199.37
197.636
151.256
299.866
148.496
410.3
411.033
301.958
152.212
18.6813
18.687
18.6864
140.527
20.5767
25.4259
68.9191
411.79
20.1411
137.861
65.9058
199.161
197.481
411.773
411.665
410.362
410.294
32.2147
199.378
197.64
199.159
197.485
411.688
411.757
410.309
410.351
410.231
411.808
197.329
199.385
151.269
299.882
301.099
148.503
68.1193
137.908
20.0422
20.3609
65.779
68.1277
137.968
20.0433
24.8971
139.333
20.3589
65.7867
197.511
199.251
32.2311
198.211
411.751
140.589
20.5782
68.9227
301.975
152.213
20.5843
140.596
68.9147
301.947
152.214
20.5834
140.524
68.9075
301.956
152.209
199.378
197.401
410.29
20.1406
137.891
65.9074
299.864
148.408
299.864
148.411
411.732
410.33
246.286
417.734
417.227
417.845
417.329
246.427
161.365
100.312
308.195
199.372
308.153
161.062
100.586
159.849
99.0005
308.433
197.634
308.401
159.584
99.2067
246.408
417.85
417.334
417.727
417.22
246.3
161.077
308.158
199.161
100.596
308.191
161.387
100.308
159.594
308.406
197.484
99.2258
308.431
159.872
98.9955
333.685
312.205
167.216
150.56
311.735
166.522
334.144
431.682
299.729
208.401
208.702
431.306
432.567
300.64
209.849
332.765
149.244
310.407
164.479
310.832
165.172
332.306
410.108
410.774
434.117
302.11
212.141
212.378
434.18
335.244
152.534
168.319
313.327
168.641
313.38
335.206
411.772
161.377
100.311
308.119
199.384
161.059
100.595
308.243
159.859
99.0003
308.368
197.643
159.581
99.2136
308.475
246.455
417.809
417.295
246.241
417.776
417.265
411.658
411.766
410.289
410.357
246.443
417.837
417.321
246.268
417.743
417.235
161.074
100.602
308.205
199.16
161.367
308.161
100.331
159.602
99.2334
308.446
197.485
159.858
308.403
99.0349
246.249
417.755
417.247
246.45
417.825
417.31
161.386
308.185
100.327
199.372
161.091
308.168
100.613
159.879
308.426
99.0287
197.639
159.614
308.416
99.2541
411.746
411.675
410.342
410.301
410.029
410.722
411.786
160.717
99.0259
197.225
307.545
307.532
99.2086
160.433
160.568
100.307
199.609
309.023
309.087
100.602
160.251
197.578
99.1172
246.406
417.214
417.943
417.114
417.864
246.283
333.682
312.204
167.235
150.571
311.735
166.542
334.139
431.692
299.746
208.416
208.724
431.314
432.579
210.492
300.656
209.869
433.021
332.762
149.256
310.405
164.496
310.832
165.19
332.301
246.517
416.752
416.675
417.917
159.941
99.0609
197.466
308.316
308.397
99.2747
159.717
161.164
100.296
199.403
308.177
100.536
308.244
160.961
159.649
307.938
197.783
99.4473
308.127
99.156
159.797
160.997
199.268
100.226
308.144
246.453
417.255
417.846
417.094
417.805
246.334
411.721
411.725
434.116
302.129
212.152
212.389
434.18
335.256
152.54
313.332
168.329
313.384
168.655
335.217
335.176
152.208
168.324
313.305
434.115
302.098
212.141
212.372
434.18
434.156
301.94
212.14
335.244
152.538
168.329
313.329
168.645
313.38
335.209
335.184
152.205
313.307
168.322
434.108
302.11
212.142
212.376
434.172
434.149
301.948
212.141
335.253
152.533
313.331
168.323
313.382
168.644
335.216
160.692
100.362
199.598
308.851
309.028
100.661
160.39
160.553
99.0468
197.546
307.536
99.2673
307.613
160.253
246.57
417.869
417.163
417.847
417.158
246.437
410.281
431.209
299.969
208.434
208.561
431.263
332.165
148.554
164.491
310.198
164.646
310.173
332.182
431.214
299.971
208.437
208.566
431.269
332.156
148.557
164.49
310.196
164.647
310.17
332.174
411.713
411.694
410.33
89.7863
54.1858
53.7592
32.3025
89.5373
54.389
53.9215
17.8729
17.9225
17.7008
89.7981
54.1858
53.7597
32.3003
89.5387
54.3959
53.9286
89.5719
32.2267
54.4025
53.945
89.8205
54.1948
53.7742
89.8036
53.7114
54.2081
32.2537
53.8892
54.4246
89.5252
89.8383
53.7087
54.2292
32.2559
54.4396
53.8816
89.5916
89.9277
54.1999
53.7793
32.3059
53.9658
54.4224
89.6459
89.5216
32.2196
54.3748
53.9086
89.7976
54.1659
53.7332
17.8726
17.9227
17.701
17.9218
17.8816
17.701
17.9217
17.8808
17.7008
47.8135
67.7203
140.839
100.26
67.9773
100.559
47.6377
47.6363
140.552
67.7148
100.259
39.4906
69.2434
78.2026
35.329
78.5208
35.5133
39.3125
45.9946
66.1512
138.061
97.1353
66.3193
97.2969
45.9697
37.7534
66.0305
33.8239
75.0314
33.8617
75.1654
37.7448
89.8332
32.2962
54.1723
53.7459
89.5542
54.3993
53.9403
38.3809
77.1601
34.8583
67.4461
76.4899
34.5125
38.704
45.7824
66.1277
137.667
97.1722
97.1477
66.0391
45.9446
46.495
138.692
98.3213
66.4211
37.6786
66.3074
74.9359
33.7644
75.2647
33.8822
37.6883
38.3858
77.1747
34.8608
67.4533
76.5079
34.5142
38.7065
45.7903
66.1585
137.728
97.1997
97.1761
66.0735
45.9529
46.4771
98.9661
138.744
66.9177
98.3395
46.842
66.416
37.6834
66.3158
74.9537
33.7658
75.2838
33.8842
37.6924
89.5786
32.201
53.8292
54.3873
54.2253
53.7157
89.7903
47.8225
67.7471
140.91
100.265
100.579
68.0235
47.6384
39.4883
69.2406
78.197
35.3332
78.5142
35.513
39.3135
47.8181
67.6948
140.918
100.277
100.593
67.9751
47.6267
39.4852
69.2343
35.3307
78.1879
35.5103
78.51
39.3041
47.8058
67.6559
140.846
100.254
67.9291
100.569
47.6157
39.479
69.2303
35.325
78.1788
35.5065
78.5013
39.298
45.9994
66.1675
138.09
97.1544
66.334
97.3184
45.9804
37.7566
66.0348
33.8259
75.032
33.8652
75.1711
37.7486
18.6869
25.2886
24.8245
32.2428
18.6928
25.2806
24.8002
32.2292
18.7034
25.2604
24.8097
32.1387
18.6949
25.2901
24.8209
32.2299
18.6893
25.2972
24.8267
32.2517
18.6883
25.2916
24.8227
32.227
18.6889
25.2932
24.825
32.2394
18.6889
25.2959
24.8252
32.2431
18.6885
25.2922
24.8237
32.2396
18.6877
25.2905
24.8198
32.2349
18.687
25.2843
24.8163
32.2288
18.6868
25.2854
24.8153
32.2301
18.6868
25.2845
24.8158
32.2307
18.6868
25.2861
24.8157
32.2298
18.6867
25.2849
24.8163
32.2306
18.6866
25.2863
24.8163
32.276
24.8485
24.8421
32.2764
25.2808
25.2893
25.2868
25.2942
32.3268
24.8239
24.8116
32.3202
32.1957
32.2546
24.8488
24.8429
24.8357
24.8408
32.1997
32.2848
25.2809
25.2893
25.2718
25.2822
25.2937
25.2903
25.2929
32.2473
32.3121
24.8109
24.8149
24.8086
32.3104
32.1588
32.1908
24.8213
24.8267
24.8222
24.8115
32.1986
32.181
25.2536
25.2643
25.2499
25.2618
25.2842
25.2536
25.2577
32.2176
32.2527
24.7978
24.7975
24.779
32.2085
32.1444
32.2562
24.8356
24.8168
24.8479
24.8384
32.1115
32.2773
25.2679
25.2796
25.2802
25.2905
25.2641
25.2902
25.2941
32.2049
32.3052
24.7859
24.8189
24.8094
32.3115
32.1758
32.2851
24.8499
24.8393
24.8553
24.8488
32.1963
32.2898
25.2813
25.2917
25.2899
25.3001
25.294
25.297
25.303
32.2254
32.3373
24.8108
24.8268
24.8173
32.3242
32.2053
32.2659
24.8547
24.8483
24.8501
24.8419
32.2146
32.2731
25.2885
25.2988
25.2819
25.2919
25.3034
25.2919
25.296
32.2561
32.3173
24.8172
24.8224
24.8116
32.3043
32.1865
32.2763
24.8505
24.8416
24.8528
24.8453
32.1953
32.2794
25.282
25.2918
25.2856
25.2945
25.2954
25.2932
25.2983
32.2377
32.3245
24.8112
24.8246
24.8136
32.3165
32.1962
32.2766
24.8533
24.8454
24.8538
24.8449
32.1997
32.2808
25.2858
25.2946
25.2865
25.2957
25.2988
25.2955
25.3006
32.2434
32.3246
24.8139
24.8251
24.8159
32.3198
32.1967
32.2733
24.8539
24.8448
24.8519
24.8464
32.2038
32.2801
25.2861
25.2954
25.2841
25.2933
25.3001
25.294
25.2991
32.2439
32.3223
24.8153
24.824
24.8143
32.317
32.1928
32.2682
24.8515
24.8449
24.8484
24.8408
32.1997
32.274
25.2832
25.2927
25.2806
25.29
25.2975
25.2906
25.2958
32.241
32.3168
24.813
24.8206
24.8121
32.3123
32.1871
32.263
24.8474
24.84
24.844
24.8388
32.1957
32.2693
25.2792
25.289
25.2761
25.2851
25.2943
25.2856
25.2908
32.2352
32.3115
24.8105
24.8165
24.8071
32.3062
32.1829
32.263
24.8438
24.8374
24.8431
24.835
32.189
32.2682
25.2756
25.2847
25.2757
25.2846
25.2896
25.285
25.2896
32.2307
32.3114
24.8061
24.815
24.8062
32.3068
32.1832
32.2644
24.8434
24.835
24.8436
24.8373
32.1908
32.2691
25.2757
25.2847
25.2763
25.2849
25.2893
25.2848
25.2902
32.2308
32.3115
24.8057
24.8154
24.8059
32.3071
32.1844
32.2628
24.8438
24.837
24.8432
24.8351
32.1893
32.2687
25.2762
25.2849
25.2758
25.2848
25.2903
25.2851
25.2898
32.2309
32.3115
24.8058
24.815
24.8058
32.3062
32.1832
32.2638
24.8437
24.8351
24.8435
24.837
32.1914
32.2684
25.2762
25.2852
25.2759
25.2845
25.2901
25.2845
25.2898
32.2309
32.3113
24.8059
24.8153
24.8057
32.3069
32.1837
32.2636
24.8439
24.837
24.8432
24.8351
32.1888
32.2686
25.2763
25.2853
25.2756
25.2843
25.2905
25.2846
25.2893
32.231
32.311
24.8061
24.8148
24.8054
32.3063
32.1842
32.2631
24.8442
24.8353
24.8437
24.8377
32.1917
32.2674
25.2768
25.2861
25.275
25.283
25.2911
25.2833
25.2879
32.2312
32.3097
24.8063
24.8143
24.8044
148.552
299.889
410.227
152.539
301.995
18.6867
18.6874
18.6875
18.6867
69.243
25.2841
140.885
20.5764
411.694
66.0304
24.8231
20.1437
138.088
32.3057
199.371
197.632
148.512
299.909
148.381
299.849
410.364
410.233
152.505
302.049
152.229
301.957
18.6877
18.6878
18.6868
18.6902
18.6891
18.691
18.6882
69.2384
140.556
20.5775
25.2909
68.9359
140.87
20.5778
411.846
411.665
66.0268
20.144
137.911
24.8255
65.9291
20.1442
138.073
199.191
197.517
32.3007
199.343
197.601
148.321
299.865
148.204
299.837
410.328
410.186
152.27
302.003
152.027
301.941
18.6906
18.6935
18.69
18.7017
18.6985
18.7024
18.6979
69.0924
140.442
20.5776
25.2622
68.8966
140.638
20.5739
411.821
411.664
65.8567
20.1407
137.737
24.7932
65.8571
20.1394
137.862
199.077
197.404
32.2451
199.245
197.514
148.464
299.892
148.294
299.863
410.346
410.235
152.507
302.036
152.176
301.971
18.701
18.7039
18.7004
18.6986
18.7015
18.6993
18.7009
69.1868
140.417
20.5724
25.2784
68.6735
140.815
20.5815
411.845
411.685
65.9568
20.1472
137.758
24.8176
65.7317
20.1502
137.964
199.11
197.444
32.2804
199.315
197.578
148.501
299.907
148.349
299.873
410.359
410.214
152.529
302.049
152.17
301.981
18.6978
18.6955
18.6972
18.6899
18.6907
18.6903
18.6902
69.1533
140.489
20.5825
25.2901
68.8668
140.826
20.5806
411.856
411.69
65.999
20.1488
137.825
24.8254
65.8544
20.1473
138.023
199.148
197.48
32.2925
199.34
197.601
148.507
299.91
148.352
299.874
410.36
410.243
152.503
302.05
152.191
301.979
18.6898
18.6897
18.6893
18.6883
18.6886
18.6888
18.6879
69.2258
140.528
20.5826
25.2956
68.9476
140.839
20.5816
411.855
411.689
66.0211
20.1455
137.852
24.827
65.8978
20.1453
138.033
199.163
197.489
32.3147
199.341
197.601
148.508
299.912
148.348
299.877
410.362
410.218
152.5
302.052
152.191
301.983
18.6886
18.6888
18.6879
18.6887
18.689
18.6892
18.6883
69.2086
140.507
20.5785
25.2911
68.9037
140.841
20.5784
411.859
411.695
65.9988
20.1437
137.844
24.8244
65.8914
20.1439
138.035
199.16
197.487
32.2989
199.344
197.604
148.514
299.917
148.348
299.881
410.365
410.246
152.504
302.057
152.199
301.987
18.6891
18.6894
18.6885
18.689
18.6893
18.6894
18.6887
69.2159
140.513
20.5803
25.2937
68.9211
140.845
20.5805
411.863
411.697
66.0014
20.1449
137.849
24.8264
65.9047
20.1452
138.043
199.166
197.493
32.3021
199.351
197.611
148.523
299.919
148.362
299.883
410.363
410.215
152.509
302.059
152.208
301.988
18.6893
18.6894
18.6887
18.6886
18.6891
18.689
18.6884
69.2248
140.523
20.5811
25.295
68.923
140.854
20.5809
411.862
411.696
66.005
20.1452
137.857
24.8262
65.9083
20.1451
138.048
199.171
197.497
32.3028
199.353
197.612
148.524
299.921
148.362
299.886
410.362
410.244
152.512
302.06
152.209
301.991
18.6889
18.6889
18.6883
18.6879
18.6885
18.6885
18.6879
69.2241
140.523
20.5802
25.2917
68.9225
140.851
20.5794
411.862
411.696
66.0055
20.1446
137.859
24.8243
65.9119
20.1445
138.049
199.172
197.499
32.2976
199.355
197.615
148.529
299.924
148.367
299.887
410.362
410.215
152.516
302.063
152.214
301.993
18.6884
18.6883
18.6877
18.6871
18.6877
18.6876
18.6871
69.2171
140.527
20.5791
25.2883
68.9157
140.859
20.578
411.862
411.695
65.9997
20.1435
137.861
24.8202
65.905
20.1432
138.052
199.175
197.501
32.2926
199.358
197.617
148.528
299.924
148.368
299.888
410.362
410.244
152.517
302.063
152.216
301.993
18.6875
18.6875
18.6869
18.6868
18.6873
18.6873
18.6867
69.219
140.53
20.5763
25.2842
68.9159
140.858
20.5756
411.861
411.695
66.0018
20.1418
137.864
24.817
65.9055
20.1416
138.054
199.178
197.503
32.2883
199.36
197.619
148.53
299.924
148.37
299.887
410.361
410.215
152.516
302.063
152.216
301.993
18.6873
18.6873
18.6866
18.6869
18.6874
18.6873
18.6867
69.2195
140.533
20.5759
25.2844
68.9161
140.862
20.5756
411.86
411.695
65.9993
20.141
137.863
24.8164
65.9025
20.141
138.052
199.177
197.503
32.2895
199.36
197.618
148.529
299.923
148.368
299.888
410.361
410.246
152.516
302.062
152.216
301.994
18.6873
18.6873
18.6867
18.6868
18.6873
18.6873
18.6867
69.2185
140.531
20.5763
25.2843
68.9167
140.859
20.5758
411.859
411.697
66.0004
20.1412
137.864
24.8169
65.9044
20.1411
138.054
199.176
197.502
32.2901
199.362
197.621
148.53
299.922
148.37
299.889
410.359
410.218
152.517
302.06
152.216
301.996
18.6873
18.6872
18.6866
18.6869
18.6874
18.6874
18.6868
69.2195
140.532
20.5762
25.2842
68.9171
140.862
20.5758
411.856
411.7
65.9997
20.1411
137.863
24.8163
65.9022
20.1409
138.054
199.172
197.499
32.2899
199.365
197.625
148.53
299.919
148.37
299.894
410.354
410.256
152.517
302.056
152.215
302.002
18.6872
18.6871
18.6865
18.687
18.6875
18.6876
18.687
69.2183
140.53
20.5763
25.2837
68.9164
140.859
20.5756
411.849
411.71
66
20.1412
137.864
24.8162
65.9027
20.141
138.054
199.166
197.492
32.2889
199.37
197.635
148.529
299.91
148.37
299.92
410.342
410.241
152.519
302.045
152.214
302.017
18.6871
18.687
18.6864
18.6873
18.6878
18.6879
18.6872
69.2183
140.532
20.5765
25.2834
68.918
140.862
20.5754
411.832
411.731
65.9971
20.1412
137.862
24.8153
65.9039
20.141
138.054
410.184
411.706
32.27
197.421
199.597
410.174
410.295
411.696
411.878
32.1987
197.417
199.591
197.308
199.422
148.558
299.905
66.0151
24.8498
138.056
20.1445
66.02
24.8438
138.111
20.1435
148.408
299.879
299.924
148.528
148.416
299.903
299.944
148.549
65.8916
24.8497
138.044
20.1448
137.87
20.1446
66.0188
65.8954
24.8427
138.114
20.1442
137.931
20.144
66.026
32.272
197.61
199.541
411.681
410.25
410.353
32.1985
197.618
199.463
197.547
199.354
411.647
411.85
69.2447
25.2799
140.929
20.577
152.543
302.015
69.2423
25.286
20.5836
140.93
152.231
301.984
302.064
152.559
68.9265
25.2806
140.911
20.5778
140.628
20.5774
69.2469
152.23
302.002
302.083
152.555
68.9241
25.2893
20.5844
140.909
20.584
140.627
69.2391
152.542
301.983
69.2363
25.294
20.5833
140.864
152.54
301.994
68.9191
25.2853
140.864
20.5769
140.591
20.5765
69.2363
152.226
301.978
302.055
152.555
68.9167
25.2941
20.5838
140.849
20.5835
140.563
69.2296
152.224
301.991
302.065
152.55
32.3144
199.516
197.495
410.216
411.67
411.851
32.2463
199.58
197.555
199.453
197.43
410.232
410.355
66.0385
24.8113
20.1422
138.115
148.572
299.899
148.575
299.902
65.9063
24.8232
20.1441
138.093
20.1438
137.907
66.0527
65.9128
24.8118
20.1429
138.108
20.1426
137.93
66.0515
148.434
299.898
299.939
148.578
148.437
299.9
299.94
148.578
411.63
410.27
32.2307
199.365
197.626
199.197
197.524
411.625
411.804
410.265
410.384
410.282
410.152
411.866
411.676
197.294
199.409
32.2649
197.351
199.533
410.141
410.259
411.664
411.844
32.1932
197.29
199.469
197.215
199.335
148.533
299.938
148.4
299.882
65.9949
137.861
20.145
24.849
65.8919
138.005
20.1451
66.0087
137.933
20.1447
24.8444
65.9027
138.101
20.1451
148.346
299.828
299.877
148.371
148.379
299.851
299.911
148.418
65.8651
24.847
137.853
20.1425
137.792
20.1446
65.9273
65.8798
24.844
137.986
20.1444
137.906
20.145
65.9703
197.495
199.286
32.281
197.572
199.402
411.816
411.625
410.212
410.341
32.2117
197.477
199.3
197.44
199.228
411.603
411.794
69.2344
140.609
20.5781
25.2813
68.9402
140.895
20.5786
152.51
302.068
152.23
301.977
69.2323
20.5848
140.607
25.2891
68.9325
20.5853
140.898
152.18
301.934
302.02
152.402
68.9111
25.2803
140.747
20.5779
140.576
20.5787
69.1742
152.179
301.951
302.038
152.397
68.9091
25.29
20.5845
140.748
20.5855
140.577
69.167
152.527
302.047
152.235
301.96
69.2315
20.5841
140.547
25.2937
68.9255
20.5845
140.849
152.525
302.059
152.23
301.973
68.9127
25.2918
140.785
20.5781
140.569
20.5779
69.2125
152.205
301.93
302.024
152.486
68.9101
25.2941
20.5848
140.777
20.5847
140.542
69.2063
152.203
301.943
302.036
152.482
199.389
197.448
32.3187
199.461
197.453
410.337
410.193
411.639
411.818
32.2489
199.463
197.437
199.37
197.37
410.194
410.324
66.0322
20.1432
137.925
24.8108
65.9295
20.1435
138.098
148.557
299.934
148.43
299.877
148.56
299.934
148.432
299.879
65.8989
24.8228
20.1434
137.944
20.1441
137.875
66.0096
65.9038
24.8108
20.1431
137.986
20.1436
137.904
66.0113
148.409
299.847
299.907
148.461
148.413
299.849
299.908
148.462
411.796
411.612
410.376
410.251
32.2251
199.268
197.524
199.152
197.474
411.592
411.779
410.232
410.358
410.255
410.15
411.839
411.673
197.173
199.286
32.1779
197.303
199.48
410.161
410.266
411.686
411.851
32.0963
197.34
199.524
197.196
199.311
148.33
299.885
148.241
299.845
65.7965
137.654
20.1403
24.8155
65.7613
137.826
20.1401
65.8249
137.778
20.1418
24.8209
65.8157
137.892
20.14
148.191
299.852
299.878
148.417
148.187
299.86
299.887
148.395
65.6653
24.8157
137.906
20.1468
137.664
20.1417
65.8451
65.6816
24.8119
137.937
20.1421
137.709
20.14
65.8193
197.378
199.158
32.2185
197.482
199.405
411.776
411.642
410.226
410.313
32.1295
197.524
199.376
197.419
199.223
411.627
411.814
68.9764
140.401
20.5737
25.2436
68.8283
140.66
20.5699
152.27
302.021
152.027
301.96
68.9723
20.5805
140.403
25.254
68.8208
20.5766
140.666
151.983
301.961
302.017
152.454
68.6294
25.2432
140.802
20.572
140.38
20.5692
69.032
151.981
301.978
302.034
152.451
68.6253
25.2549
20.5786
140.804
20.576
140.385
69.025
152.305
301.996
152.134
301.921
69.087
20.5841
140.44
25.2677
68.8871
20.5805
140.622
152.303
302.009
152.13
301.933
68.7166
25.2537
140.675
20.5694
140.322
20.5698
68.948
151.964
301.937
301.995
152.355
68.7154
25.2582
20.576
140.651
20.5766
140.302
68.9425
151.962
301.948
302.006
152.351
199.28
197.327
32.2367
199.421
197.367
410.301
410.176
411.661
411.826
32.1576
199.522
197.465
199.36
197.311
410.208
410.317
65.8609
20.1408
137.776
24.7841
65.8614
20.1388
137.896
148.355
299.881
148.282
299.843
148.358
299.882
148.285
299.846
65.7086
24.7918
20.1424
137.922
20.1396
137.682
65.8298
65.7126
24.7785
20.1405
137.945
20.1387
137.712
65.8318
148.208
299.857
299.885
148.402
148.211
299.86
299.886
148.404
411.762
411.592
410.343
410.235
32.1559
199.278
197.546
199.072
197.41
411.604
411.768
410.247
410.351