/*--------------------------------*- C++ -*----------------------------------*\
| =========                 |                                                 |
| \\      /  F ield         | OpenFOAM: The Open Source CFD Toolbox           |
|  \\    /   O peration     | Version:  2206                                  |
|   \\  /    A nd           | Website:  www.openfoam.com                      |
|    \\/     M anipulation  |                                                 |
\*---------------------------------------------------------------------------*/
FoamFile
{
    version     2.0;
    format      ascii;
    arch        "LSB;label=32;scalar=64";
    class       surfaceScalarField;
    location    "0.4";
    object      phi;
}
// * * * * * * * * * * * * * * * * * * * * * * * * * * * * * * * * * * * * * //

dimensions      [0 3 -1 0 0 0 0];

oriented        oriented;

internalField   nonuniform List<scalar> 
198714
(
-1.07634e-12
9.72928e-13
-6.09668e-13
7.06181e-13
-1.14675e-07
1.14675e-07
-3.67678e-11
-1.45779e-12
-6.7188e-13
2.8208e-11
3.79184e-11
-2.34189e-11
-5.74597e-11
5.68901e-11
-6.01873e-11
5.85601e-11
1.10855e-07
-4.14483e-11
2.52027e-13
4.02027e-13
1.4281e-11
4.19856e-11
-1.49925e-11
4.19019e-12
2.4424e-11
-2.52879e-11
-3.52681e-12
-1.11858e-07
1.11857e-07
2.71288e-11
4.20818e-11
4.99915e-11
3.32706e-11
2.70909e-08
3.36651e-11
3.65487e-11
4.12117e-11
4.12802e-11
2.70789e-08
-2.72317e-08
8.7961e-13
8.90238e-12
3.43878e-11
-9.99505e-12
2.42528e-11
2.26876e-11
-2.41782e-11
-2.43198e-11
-1.12888e-07
1.12888e-07
-3.36834e-11
1.51278e-12
1.38174e-12
9.1747e-12
3.40646e-11
-1.48297e-11
2.42212e-11
2.24403e-11
-2.13333e-11
-2.44038e-11
1.12923e-07
4.08477e-11
4.18724e-11
2.70797e-08
-6.06538e-13
2.84121e-11
3.78497e-11
-2.82097e-11
-5.75073e-11
5.66022e-11
-5.74894e-11
5.85283e-11
-1.10868e-07
1.10868e-07
-2.70654e-11
-1.82624e-13
-2.39559e-13
2.4173e-11
2.85561e-11
-2.44358e-11
-3.64069e-11
5.53708e-11
-5.66701e-11
3.67009e-11
-1.11894e-07
1.11895e-07
-2.55979e-13
-3.92779e-13
2.44365e-11
2.86641e-11
-2.43581e-11
-3.67736e-11
5.59516e-11
-5.7176e-11
3.70158e-11
1.11889e-07
4.90583e-11
3.39684e-11
2.70858e-08
-2.72374e-08
3.09314e-13
3.51332e-13
1.43495e-11
4.25719e-11
-1.52698e-11
4.39263e-12
2.42837e-11
-2.5241e-11
-3.74243e-12
1.11897e-07
1.09697e-12
-5.09299e-12
1.5053e-08
-2.14565e-12
-1.57655e-12
-1.50453e-08
-7.87839e-15
-1.72719e-11
2.1833e-08
5.49278e-12
2.11238e-12
-2.18234e-08
-9.61988e-13
-2.70733e-12
7.5784e-09
-2.01185e-12
2.01428e-12
-1.28182e-11
1.47173e-08
-3.18543e-12
-1.43869e-12
-1.47018e-08
-5.06328e-11
-8.871e-15
2.11784e-08
4.4833e-12
1.59056e-11
-2.11481e-08
-7.96128e-13
8.33563e-13
1.14675e-07
5.6453e-13
-4.94257e-13
-1.1497e-07
1.1497e-07
4.25481e-13
-5.3409e-13
1.14992e-07
1.12141e-11
1.26281e-11
-2.40484e-11
2.22007e-08
-1.76337e-11
4.8355e-13
-1.46164e-12
-9.80814e-11
1.32577e-10
-1.31701e-10
9.79102e-11
1.13145e-07
5.06123e-11
1.44904e-13
2.47998e-08
1.10838e-11
-9.30058e-11
-2.07639e-12
-5.27602e-12
7.42823e-09
-1.77473e-12
-7.4191e-09
4.4019e-13
1.8325e-12
3.29211e-12
-6.30326e-12
6.19809e-12
-4.03177e-12
1.1257e-07
5.75939e-12
5.11919e-12
-2.21508e-12
2.25794e-08
-9.68296e-12
1.47756e-13
1.69063e-11
2.54166e-08
-1.81192e-11
5.24706e-12
-1.12362e-11
5.36189e-12
-2.28963e-11
2.33679e-08
4.17805e-12
-5.99467e-12
3.20239e-12
-1.48962e-11
2.35033e-08
2.20603e-12
-3.10903e-12
7.57905e-09
-1.83719e-12
-7.57301e-09
-5.4341e-12
7.42955e-09
-1.67207e-12
-7.42043e-09
-6.30552e-12
-1.50737e-11
2.36868e-08
2.27778e-12
-2.36708e-08
-1.1003e-11
-2.28695e-11
2.31896e-08
4.35668e-12
-2.31655e-08
-5.10407e-12
1.50548e-08
-1.87434e-12
-1.5908e-12
-1.72691e-11
2.18365e-08
5.70259e-12
2.08782e-12
-1.9763e-12
2.25707e-08
-9.90042e-12
-2.25703e-08
1.92079e-13
1.00098e-12
2.2393e-11
-6.72469e-12
6.78597e-12
-2.2301e-11
-1.14975e-07
1.14975e-07
1.47155e-13
2.54178e-08
5.23603e-12
-1.83746e-11
-2.54221e-08
6.09877e-12
-1.93338e-12
2.2563e-08
-9.62108e-12
1.08206e-12
2.24005e-11
-6.74894e-12
6.77918e-12
-2.23366e-11
1.14991e-07
2.54212e-08
5.15583e-12
-1.80385e-11
-1.51128e-11
2.3559e-08
2.28585e-12
5.43154e-12
-2.32129e-11
2.33174e-08
4.17111e-12
-1.91802e-12
7.43044e-09
-1.5912e-12
-2.37653e-11
2.21881e-08
-1.73319e-11
-2.21708e-08
5.91453e-13
-1.25467e-12
-9.80846e-11
1.32907e-10
-1.31696e-10
9.82215e-11
-1.13141e-07
1.1314e-07
1.62208e-13
2.47984e-08
1.10317e-11
-9.30289e-11
-2.47672e-08
-1.27478e-11
1.47126e-08
-3.26868e-12
-1.4548e-12
-1.46972e-08
-5.06595e-11
2.1175e-08
1.59278e-11
4.43387e-12
-2.11448e-08
-1.52662e-12
-7.90595e-11
1.32093e-10
-1.31392e-10
7.99992e-11
-1.14337e-07
1.14337e-07
1.12446e-11
-2.37107e-11
2.21734e-08
-1.74277e-11
-2.21563e-08
2.47957e-08
-9.30504e-11
1.09125e-11
-2.4764e-08
1.47186e-08
-3.13162e-12
-1.45901e-12
-4.00459e-15
2.11796e-08
4.50422e-12
1.58794e-11
-1.6946e-12
-7.91101e-11
1.32053e-10
-1.31436e-10
7.99624e-11
1.14338e-07
1.27591e-11
-2.37971e-11
2.21856e-08
-1.73521e-11
5.06267e-11
2.47969e-08
-9.30094e-11
1.09137e-11
2.02635e-12
1.4714e-08
-3.23543e-12
-1.46318e-12
2.11758e-08
1.58944e-11
4.43484e-12
-2.2639e-11
2.32401e-08
4.25305e-12
-2.32158e-08
3.11013e-12
-1.55961e-11
2.36313e-08
2.45676e-12
-8.16211e-13
7.57927e-09
-1.76265e-12
1.85155e-12
3.28467e-12
-6.31612e-12
5.94379e-12
-4.25169e-12
1.12583e-07
5.33309e-12
-1.81482e-12
2.25714e-08
-9.7185e-12
1.69144e-11
2.54197e-08
-1.81165e-11
5.17597e-12
1.50529e-08
-1.87903e-12
-1.59603e-12
1.46921e-14
2.18312e-08
2.07858e-12
5.29532e-12
8.59677e-13
1.50552e-08
-1.90117e-12
-1.59323e-12
2.1835e-08
2.0508e-12
5.09245e-12
7.42915e-09
-1.72752e-12
7.57929e-09
-1.84783e-12
-1.06758e-13
-6.28516e-09
1.00735e-12
2.27005e-12
6.28199e-09
1.96381e-12
-1.21602e-12
5.46183e-12
1.49859e-12
1.50453e-08
2.28355e-08
-1.42961e-13
-3.49283e-12
-9.82896e-12
-2.28242e-08
3.3277e-12
9.82628e-12
2.28242e-08
-1.10689e-12
-2.21066e-12
-6.28199e-09
6.60345e-13
4.11975e-12
-1.13012e-08
9.10666e-13
1.12965e-08
-5.38982e-12
-2.0253e-12
-1.85542e-14
1.71074e-11
2.18234e-08
1.37308e-08
6.8e-13
-8.45369e-16
-8.67013e-13
-1.37251e-08
2.07833e-08
4.25449e-12
-1.47181e-11
-2.07742e-08
4.16811e-14
9.02579e-13
1.37251e-08
1.44896e-11
2.07742e-08
-8.54787e-13
-1.12965e-08
1.09884e-12
3.0147e-12
1.65522e-12
7.57263e-09
-1.291e-11
-1.04938e-12
1.83598e-12
-1.09535e-08
-7.8517e-13
1.09664e-08
4.4681e-12
1.59119e-11
-2.11481e-08
-1.38722e-14
2.11784e-08
-5.06545e-11
6.59569e-12
-2.01621e-08
2.01886e-08
-4.15966e-11
-1.32972e-08
4.44993e-16
-7.62568e-13
1.33128e-08
3.62821e-12
-6.09121e-09
6.08362e-09
2.01954e-12
1.93997e-12
3.26811e-12
1.47018e-08
-2.17822e-12
1.28869e-11
1.44889e-12
2.22383e-08
3.87082e-12
-6.62584e-12
-2.64294e-11
-2.22123e-08
2.22123e-08
6.75646e-12
2.61158e-11
-1.84282e-12
-1.88514e-12
-6.08361e-09
-3.86286e-12
-1.90039e-12
6.09122e-09
-3.17063e-12
1.99775e-12
-1.45306e-12
1.47173e-08
-1.28246e-11
2.22384e-08
-2.6449e-11
1.30394e-11
1.16349e-12
-1.09663e-08
7.05029e-13
-4.44017e-12
-1.60741e-11
-2.74586e-14
5.0792e-11
2.01886e-08
1.291e-11
-4.15708e-11
-2.01621e-08
1.33128e-08
1.06209e-12
-1.50486e-14
-7.49347e-13
-1.32972e-08
4.18764e-11
-9.98085e-15
6.87362e-13
-7.724e-13
-1.09534e-08
7.41913e-09
2.17056e-12
5.24002e-12
1.68945e-12
-2.10151e-12
-1.87877e-12
7.42819e-09
-5.08525e-12
2.01258e-11
-1.12345e-11
-2.0918e-08
-1.30118e-11
2.36819e-11
2.08985e-08
2.43634e-08
2.0594e-11
-4.40385e-11
-3.19248e-11
2.303e-11
-4.24161e-12
-5.22385e-12
1.09867e-11
2.33433e-08
1.42009e-08
-1.13667e-11
2.79743e-12
-8.85046e-13
4.42383e-11
3.1368e-11
2.43309e-08
-2.76354e-12
9.30223e-13
1.41872e-08
1.33987e-11
-2.37692e-11
1.73501e-11
-8.4988e-12
-2.00409e-08
-1.3327e-11
1.79281e-11
2.00274e-08
2.37702e-08
1.6891e-11
-3.05181e-11
-2.26564e-11
1.4795e-11
-2.67808e-12
-3.0166e-12
6.3416e-12
2.34879e-08
1.41038e-08
-8.78967e-12
2.23972e-12
-9.36281e-13
2.99323e-11
2.35728e-11
2.37488e-08
-2.41705e-12
9.41155e-13
1.40941e-08
1.32225e-11
-1.8609e-11
-3.34479e-12
-2.97049e-12
-1.6685e-08
1.66649e-08
6.16526e-09
-3.38726e-12
-1.40294e-12
6.2046e-09
-3.19554e-12
-1.46623e-12
1.48543e-12
6.15767e-09
1.52019e-12
6.1977e-09
3.05409e-12
1.76013e-12
7.57302e-09
7.42044e-09
5.14803e-12
1.78127e-12
-1.69735e-12
7.42956e-09
-5.4268e-12
-8.6557e-12
1.70056e-11
-2.10114e-08
-1.25795e-11
2.10001e-11
2.09946e-08
2.45904e-08
1.63946e-11
-3.26134e-11
-2.18914e-11
-2.45674e-08
-2.80272e-12
1.51839e-11
6.66676e-12
2.36708e-08
1.43383e-08
-8.92341e-12
2.01167e-12
-9.47702e-13
-1.43281e-08
-2.26761e-12
9.29664e-13
1.43282e-08
3.23729e-11
2.28523e-11
2.45674e-08
1.23741e-11
-2.16763e-11
-2.09946e-08
-1.11756e-11
2.08122e-11
-1.99537e-08
-1.34931e-11
1.99992e-11
1.99375e-08
2.35616e-08
2.1477e-11
-4.05346e-11
-3.20424e-11
-2.35333e-08
-4.26049e-12
2.27864e-11
1.07112e-11
2.31655e-08
1.397e-08
-1.13869e-11
2.91676e-12
-8.40139e-13
-1.39563e-08
-2.72741e-12
9.44417e-13
1.39563e-08
4.04217e-11
3.1402e-11
2.35334e-08
1.40315e-11
-2.00869e-11
-1.99375e-08
-2.8189e-12
-3.49239e-12
-1.66865e-08
1.66668e-08
6.20057e-09
-3.15462e-12
-1.46137e-12
-6.19395e-09
6.16904e-09
-3.47471e-12
-1.34965e-12
-6.1613e-09
1.52579e-12
6.19396e-09
1.50653e-12
6.16132e-09
-1.66668e-08
-9.30008e-14
-6.28854e-09
9.91452e-13
2.28312e-12
6.28535e-09
1.71527e-12
5.4997e-12
1.48775e-12
1.50472e-08
2.2845e-08
-1.39096e-13
-3.50623e-12
-1.00986e-11
3.38494e-12
1.00773e-11
2.28331e-08
-1.12119e-12
-2.20544e-12
6.09569e-13
4.33336e-12
-1.1307e-08
9.16848e-13
1.13021e-08
-5.61543e-12
-2.05767e-12
1.71086e-11
2.1827e-08
1.37339e-08
6.79862e-13
-8.68382e-13
2.07914e-08
4.47854e-12
-1.47324e-11
9.01796e-13
1.3728e-08
1.44853e-11
2.07826e-08
-8.53441e-13
1.70267e-11
6.15595e-11
-2.00731e-08
-1.17892e-10
-1.13405e-10
2.02258e-08
2.41586e-08
1.40408e-11
-3.5157e-11
-2.19739e-11
-1.12058e-11
1.02671e-11
6.55565e-12
2.35564e-08
1.40947e-08
-1.08971e-11
1.40763e-13
-1.05229e-12
-2.43666e-11
5.82988e-13
1.41243e-08
-6.01455e-13
2.67086e-11
2.42044e-08
-9.53597e-13
-3.64736e-11
-2.34331e-11
-3.71263e-11
-2.09022e-08
9.99535e-11
1.45125e-10
2.07176e-08
2.39925e-08
2.38068e-11
-3.95456e-11
-3.26915e-11
2.77619e-11
4.55497e-12
-4.86994e-12
1.08561e-11
2.32791e-08
1.4211e-08
-1.04952e-11
4.90578e-12
-7.90916e-13
7.4657e-11
2.81155e-11
2.3894e-08
1.95981e-11
1.21453e-12
1.41576e-08
2.89083e-11
-7.24357e-12
1.9397e-11
-2.46776e-11
-1.66909e-08
1.66783e-08
6.20404e-09
-5.25391e-12
-1.40242e-12
6.16614e-09
-1.6617e-12
-1.26033e-12
1.36513e-12
6.19771e-09
1.81076e-12
6.15925e-09
2.16078e-12
1.83672e-12
7.42157e-09
-1.06176e-12
-1.30016e-11
1.90453e-12
-1.09476e-08
-7.44891e-13
1.09605e-08
1.59292e-11
4.43426e-12
-2.11448e-08
2.11751e-08
-5.06732e-11
-1.3294e-08
-7.57309e-13
1.33096e-08
6.7498e-12
-2.01536e-08
2.01801e-08
-4.18304e-11
3.65532e-12
-6.08763e-09
6.08005e-09
1.96505e-12
1.95755e-12
3.19703e-12
1.46972e-08
1.29588e-11
1.42227e-12
2.22273e-08
3.82533e-12
-6.7455e-12
-2.6294e-11
-2.22013e-08
2.22013e-08
6.67867e-12
2.61305e-11
-1.89201e-12
-1.87815e-12
-6.08003e-09
-3.8126e-12
-1.87841e-12
6.08765e-09
-3.27903e-12
-1.46703e-12
1.47126e-08
-1.2747e-11
2.22273e-08
-2.63338e-11
1.17044e-12
1.29223e-11
-1.09605e-08
7.45133e-13
-1.60519e-11
-4.48817e-12
5.07763e-11
1.33096e-08
1.04687e-12
-7.43196e-13
-1.3294e-08
2.01801e-08
1.30053e-11
-4.18053e-11
-2.01536e-08
6.91589e-13
4.1594e-11
-7.32886e-13
-1.09476e-08
3.47008e-12
-6.09124e-09
1.9954e-12
1.9074e-12
6.08387e-09
3.27987e-12
1.27092e-11
1.44288e-12
1.47033e-08
2.22394e-08
3.63219e-12
-6.55849e-12
-2.6171e-11
6.74012e-12
2.5945e-11
2.22134e-08
-1.78768e-12
-1.94764e-12
1.28744e-11
1.17002e-12
-1.09664e-08
6.95678e-13
1.09537e-08
-4.45212e-12
-1.61128e-11
-1.35054e-14
5.08367e-11
2.11493e-08
2.01896e-08
1.26799e-11
-4.1291e-11
1.33129e-08
1.0557e-12
-7.97049e-15
-7.77008e-13
4.16806e-11
2.0163e-08
-7.73018e-15
6.72448e-13
1.32973e-08
-8.01831e-13
3.69227e-12
-6.08786e-09
1.97444e-12
1.92671e-12
6.08027e-09
3.20177e-12
-2.17964e-12
1.29931e-11
1.4265e-12
1.46986e-08
2.2229e-08
3.79401e-12
-6.73439e-12
-2.62976e-11
6.6918e-12
2.61849e-11
2.2203e-08
-1.88157e-12
-1.91524e-12
1.17292e-12
1.29619e-11
-1.09608e-08
7.32254e-13
1.09479e-08
-1.60983e-11
-4.47594e-12
5.08337e-11
2.11456e-08
1.331e-08
1.04903e-12
-7.71458e-13
2.01809e-08
1.29691e-11
-4.1768e-11
6.74678e-13
1.32944e-08
4.16691e-11
2.01544e-08
-7.59535e-13
-1.1087e-11
2.04082e-11
-1.99537e-08
-1.40065e-11
1.97581e-11
1.99386e-08
2.3931e-08
2.06265e-11
-4.19864e-11
-3.18776e-11
-2.39004e-08
-4.3966e-12
2.29966e-11
1.105e-11
2.32157e-08
1.39558e-08
-1.14118e-11
2.75944e-12
-8.35145e-13
-1.3942e-08
-2.68893e-12
9.06401e-13
1.39421e-08
4.2641e-11
3.15484e-11
2.39003e-08
1.42516e-11
-1.96827e-11
-1.9939e-08
1.69898e-11
-9.2241e-12
-2.10198e-08
-1.20931e-11
2.18691e-11
2.10022e-08
2.42108e-08
1.68393e-11
-3.20417e-11
-2.23288e-11
-2.41889e-08
1.52918e-11
-2.78096e-12
-2.74626e-12
6.02969e-12
2.36155e-08
1.43514e-08
-9.47434e-12
2.23887e-12
-9.1878e-13
3.10635e-11
2.30312e-11
2.4189e-08
-2.30135e-12
9.79499e-13
1.43408e-08
1.19567e-11
-2.25054e-11
-2.10018e-08
-3.18894e-12
-3.02479e-12
-1.66895e-08
1.66696e-08
6.16794e-09
-3.48748e-12
-1.53196e-12
-6.16016e-09
6.20175e-09
-3.13132e-12
-1.23858e-12
1.45337e-12
6.16061e-09
1.6874e-12
6.19474e-09
-1.66699e-08
1.07574e-12
1.89678e-12
7.57356e-09
-2.99631e-13
-6.28449e-09
1.1302e-12
2.32132e-12
6.28134e-09
2.03446e-12
5.28779e-12
1.54249e-12
1.50451e-08
2.28341e-08
-9.05574e-14
-3.28559e-12
-9.89646e-12
3.49074e-12
9.6069e-12
2.28227e-08
-9.56575e-13
-2.28332e-12
4.37715e-12
7.06114e-13
-1.13e-08
8.74882e-13
1.12952e-08
-2.1356e-12
-5.45731e-12
-3.32858e-15
1.71422e-11
2.18216e-08
2.07811e-08
4.19058e-12
-1.40838e-11
1.37292e-08
6.36488e-13
-3.82494e-16
-9.38824e-13
1.44045e-11
2.07724e-08
-6.29696e-15
8.78952e-13
1.37236e-08
-9.6201e-13
-1.20999e-13
-6.28805e-09
1.16722e-12
2.32939e-12
6.28468e-09
2.04259e-12
-1.09036e-12
5.47747e-12
1.54792e-12
1.50473e-08
2.28432e-08
1.05766e-13
-3.30704e-12
-9.90697e-12
3.52679e-12
9.58069e-12
2.2832e-08
-9.86503e-13
-2.27915e-12
4.36781e-12
7.08285e-13
-1.13058e-08
8.75858e-13
1.1301e-08
-2.13905e-12
-5.24827e-12
1.71473e-11
2.18253e-08
2.07896e-08
4.20722e-12
-1.41082e-11
1.37323e-08
6.07317e-13
-9.36372e-13
1.43935e-11
2.07809e-08
8.77287e-13
1.37268e-08
-9.53236e-13
1.71939e-12
7.42003e-09
1.8116e-12
7.57337e-09
3.56878e-13
6.99417e-14
-1.19305e-07
1.19305e-07
-5.40656e-13
9.37593e-14
-1.16909e-07
1.16909e-07
3.79317e-14
-2.48385e-13
-1.26249e-07
1.26249e-07
1.7054e-11
2.02382e-11
-2.35742e-08
2.35785e-08
2.61096e-08
1.79044e-11
2.50516e-08
2.01883e-11
-4.94195e-11
-3.18076e-11
2.72434e-08
2.60971e-08
2.50546e-08
1.54419e-11
2.20612e-11
-2.3565e-08
2.35685e-08
2.62078e-08
1.53386e-11
-2.62056e-08
2.49515e-08
2.29459e-11
-2.49453e-08
-3.99778e-11
-4.04815e-11
2.72316e-08
2.62056e-08
2.49453e-08
-2.35685e-08
-2.25701e-11
6.24658e-11
-2.35726e-08
2.35644e-08
2.61568e-08
1.28601e-11
2.50024e-08
2.44858e-11
-4.70462e-11
-3.40958e-11
2.72328e-08
2.4984e-08
2.61698e-08
1.77315e-11
1.86188e-11
-2.35568e-08
2.35621e-08
2.60466e-08
1.94568e-11
-2.60348e-08
2.50913e-08
1.7703e-11
-2.50928e-08
-3.22791e-11
-4.86454e-11
2.72373e-08
2.50928e-08
2.60348e-08
-2.35619e-08
4.11245e-13
1.19308e-07
-7.33801e-13
8.11733e-14
1.16916e-07
-2.62864e-13
1.26253e-07
-9.35004e-13
-1.20519e-07
1.20519e-07
1.37499e-12
5.05248e-14
-1.14843e-07
1.14843e-07
5.65387e-14
-1.26389e-07
1.26389e-07
-1.113e-12
1.20528e-07
1.33105e-12
1.14846e-07
1.26392e-07
-3.69083e-11
-4.47438e-11
-2.61473e-08
-2.60755e-11
2.61976e-08
2.52112e-08
-3.81945e-11
2.4744e-11
1.66303e-11
2.21829e-08
2.39006e-08
-4.56398e-11
-1.5171e-11
2.51669e-08
1.48392e-11
2.38836e-08
2.49702e-11
-7.14354e-11
1.77497e-11
-2.60161e-08
2.59457e-08
-1.04683e-11
9.28064e-11
-5.5382e-14
2.47684e-08
2.41186e-08
-7.08371e-11
2.68426e-08
1.8617e-11
7.25355e-12
2.40932e-08
-6.85522e-12
2.68283e-08
-2.25959e-11
-4.35506e-12
-2.65216e-08
-5.35577e-11
2.66063e-08
2.55205e-08
-2.19545e-11
-2.54987e-08
2.96332e-12
9.40587e-12
2.25784e-08
2.43961e-08
-5.46412e-12
-6.13141e-12
2.54986e-08
6.6204e-12
2.44042e-08
5.37489e-11
-2.66063e-08
5.66846e-12
-1.19455e-11
-2.63913e-08
2.63473e-08
1.83139e-11
-5.06793e-12
-1.04624e-15
2.54205e-08
2.73269e-08
5.8029e-12
4.26546e-13
2.46505e-08
-1.10293e-11
-1.34223e-13
2.73572e-08
2.46546e-08
-4.05598e-12
-2.62959e-11
-2.65039e-08
8.56038e-12
2.655e-08
2.55346e-08
-2.56287e-11
-2.55102e-08
9.41808e-12
3.18057e-12
2.25703e-08
2.43956e-08
-4.32617e-12
-9.73518e-12
-2.44013e-08
9.47517e-12
2.44014e-08
2.55102e-08
-8.3223e-12
-2.65499e-08
-1.03414e-11
8.85459e-12
-2.64026e-08
2.6435e-08
-5.01614e-12
1.78294e-11
-2.36041e-14
2.54221e-08
2.46525e-08
-1.1028e-11
-2.46607e-08
2.73279e-08
9.11632e-12
4.69277e-13
-2.73626e-08
2.46611e-08
-2.73534e-13
2.73616e-08
-2.64351e-08
-4.05594e-12
-2.65671e-11
-2.65062e-08
8.88948e-12
2.65521e-08
2.54828e-08
-2.55017e-11
9.30343e-12
3.2004e-12
2.25625e-08
2.44012e-08
-4.30066e-12
-9.68303e-12
9.54894e-12
2.4407e-08
2.54648e-08
-8.31507e-12
-1.06493e-11
9.18256e-12
-2.64075e-08
2.64403e-08
-5.09515e-12
1.78225e-11
2.54256e-08
2.46593e-08
-1.10226e-11
2.73312e-08
8.9668e-12
2.46676e-08
2.73647e-08
-4.46974e-11
-3.66562e-11
-2.61428e-08
-2.62893e-11
2.6193e-08
2.51561e-08
-3.75549e-11
-2.51178e-08
1.64674e-11
2.4403e-11
2.21708e-08
2.38976e-08
-4.56719e-11
-1.51463e-11
-2.38806e-08
1.48736e-11
2.38806e-08
2.51178e-08
2.53438e-11
-2.61929e-08
-7.16922e-11
1.76789e-11
-2.6015e-08
2.59447e-08
-1.04432e-11
9.27745e-11
-6.91361e-14
2.47669e-08
2.41168e-08
-7.11587e-11
-2.40913e-08
2.68422e-08
1.85192e-11
7.36603e-12
-2.68282e-08
2.40914e-08
-6.94159e-12
2.68279e-08
-2.59441e-08
-4.40226e-11
-3.9805e-11
-2.61164e-08
2.86901e-11
2.61351e-08
2.51622e-08
-4.05681e-11
-2.51218e-08
1.64641e-11
2.46492e-11
2.21563e-08
2.38873e-08
-4.4497e-11
-1.83132e-11
-2.38682e-08
1.76703e-11
2.38682e-08
2.51219e-08
-2.96432e-11
-2.61351e-08
2.10027e-11
-7.02223e-11
-2.60153e-08
2.60141e-08
9.28544e-11
-1.06269e-11
2.47642e-08
2.68397e-08
2.17082e-11
-2.6815e-08
2.41091e-08
-7.08208e-11
-2.40875e-08
2.68152e-08
2.40875e-08
-2.6014e-08
-3.96693e-11
-4.37892e-11
-2.61208e-08
2.86202e-11
2.61388e-08
2.52171e-08
-4.0832e-11
2.47001e-11
1.64219e-11
2.21684e-08
2.38898e-08
-4.41882e-11
-1.83044e-11
2.51763e-08
1.76328e-11
2.3871e-08
-2.96768e-11
2.09874e-11
-7.00003e-11
-2.60161e-08
2.60146e-08
9.29034e-11
-1.06224e-11
2.47654e-08
2.68403e-08
2.17e-11
2.41104e-08
-7.04736e-11
2.68159e-08
2.4089e-08
-2.24369e-11
-4.31862e-12
-2.65245e-08
-5.35233e-11
2.66091e-08
2.54685e-08
-2.17128e-11
2.57817e-12
9.43688e-12
2.25712e-08
2.44013e-08
-5.49254e-12
-6.07401e-12
2.5447e-08
6.6379e-12
2.44094e-08
5.37183e-11
5.76898e-12
-1.19342e-11
-2.63961e-08
2.6352e-08
1.83174e-11
-5.10909e-12
2.54236e-08
2.73302e-08
5.65384e-12
2.46565e-08
-1.10379e-11
2.73601e-08
2.46604e-08
-7.46343e-13
1.60067e-14
2.63406e-09
-1.60461e-13
-2.63475e-09
-3.40738e-13
-1.35775e-14
1.43322e-09
-7.65483e-14
-1.43353e-09
-1.33267e-13
-1.49364e-14
7.08943e-10
-3.54056e-14
-7.091e-10
-3.27844e-14
-9.18796e-15
2.94341e-10
-1.45388e-14
-2.94417e-10
-3.1391e-15
7.00435e-11
-3.65086e-15
-7.00693e-11
-9.74566e-13
-3.68989e-14
4.92093e-09
-7.67493e-14
-4.3159e-13
-4.72748e-15
2.66232e-09
-4.90927e-14
-1.64796e-13
4.79532e-15
1.31138e-09
-2.77957e-14
-3.95882e-14
4.7725e-15
5.42749e-10
-1.29228e-14
2.00931e-15
1.28889e-10
-3.32075e-15
-6.82866e-13
4.74598e-15
2.63481e-09
-1.24954e-13
-2.63545e-09
-3.11502e-13
-2.20501e-14
1.43373e-09
-5.50161e-14
-1.43402e-09
-1.22064e-13
-1.85529e-14
7.0921e-10
-2.4682e-14
-7.09356e-10
-3.01266e-14
-1.03724e-14
2.94425e-10
-1.02483e-14
-2.94496e-10
-3.30642e-15
7.00548e-11
-2.73405e-15
-7.00789e-11
-8.7769e-13
-2.3317e-14
4.9205e-09
-3.09815e-14
-4.92134e-09
-3.96368e-13
2.7199e-15
2.66223e-09
-3.13376e-14
-2.66268e-09
-1.5465e-13
6.59133e-15
1.31141e-09
-2.05476e-14
-1.31164e-09
-3.79512e-14
4.33973e-15
5.42801e-10
-1.01155e-14
-5.42912e-10
1.60569e-15
1.28911e-10
-2.71489e-15
-1.28948e-10
-8.69924e-13
4.92115e-09
-7.76492e-14
-4.92203e-09
-3.81585e-13
2.66248e-09
-4.88247e-14
-2.66293e-09
-1.46702e-13
1.31141e-09
-2.72735e-14
-1.31163e-09
-3.60472e-14
5.42769e-10
-1.2465e-14
-5.42877e-10
1.28944e-10
-3.17266e-15
-1.28981e-10
-7.94959e-13
4.92133e-09
-4.0025e-14
-4.92216e-09
-3.50085e-13
2.66264e-09
-3.2933e-14
-2.66308e-09
-1.35609e-13
1.3116e-09
-2.0479e-14
-1.31181e-09
-3.36148e-14
5.42822e-10
-9.8684e-15
-5.42925e-10
1.28907e-10
-2.59031e-15
-1.28942e-10
-7.53888e-13
2.63445e-09
-1.74756e-13
-3.45153e-13
1.43347e-09
-8.78563e-14
-1.35178e-13
7.09099e-10
-4.20387e-14
-3.32409e-14
2.94373e-10
-1.76036e-14
7.00421e-11
-4.47127e-15
-7.49129e-13
2.64886e-14
-5.20367e-14
4.92138e-09
-3.28051e-13
4.2685e-14
-3.94058e-14
2.66278e-09
-1.27336e-13
3.03327e-14
-2.43112e-14
1.3117e-09
-3.1856e-14
1.58318e-14
-1.16583e-14
5.4289e-10
4.77251e-15
-3.00415e-15
1.28954e-10
-6.9203e-13
2.63411e-09
-1.43756e-13
-2.63475e-09
-3.17457e-13
1.43344e-09
-7.05921e-14
-1.43374e-09
-1.24572e-13
7.09034e-10
-3.51572e-14
-7.09185e-10
-3.06781e-14
2.9438e-10
-1.56081e-14
-2.94454e-10
7.00317e-11
-4.2036e-15
-7.00566e-11
-6.93187e-13
2.63476e-09
-1.06386e-13
-3.15816e-13
1.43377e-09
-4.11582e-14
-1.23474e-13
7.09244e-10
-1.6301e-14
-3.03979e-14
2.94467e-10
-6.30245e-15
7.00676e-11
-1.73332e-15
-6.96147e-13
9.51508e-15
2.63436e-09
-1.3556e-13
-3.17531e-13
-1.82022e-14
1.43345e-09
-6.15382e-14
-1.24044e-13
-1.65071e-14
7.09047e-10
-2.82613e-14
-3.04214e-14
-9.47715e-15
2.9439e-10
-1.18385e-14
-3.08823e-15
7.00579e-11
-3.14594e-15
-8.07505e-13
3.42377e-14
-9.84128e-14
4.92168e-09
-3.47028e-13
4.86048e-14
-5.58394e-14
2.6627e-09
-1.32904e-13
3.52928e-14
-3.06657e-14
1.31164e-09
-3.2966e-14
1.89678e-14
-1.43975e-14
5.42856e-10
5.79348e-15
-3.85172e-15
1.28939e-10
-7.55347e-13
2.63422e-09
-1.07355e-13
-3.44106e-13
1.43338e-09
-4.02732e-14
-1.34539e-13
7.09034e-10
-1.37873e-14
-3.31222e-14
2.94359e-10
-4.12898e-15
7.00381e-11
-8.39358e-16
-7.56868e-13
-1.75338e-14
2.63473e-09
-1.14079e-13
-3.45593e-13
-3.46948e-14
1.4337e-09
-4.94883e-14
-1.35232e-13
-2.52822e-14
7.09174e-10
-2.15158e-14
-3.32857e-14
-1.35182e-14
2.94438e-10
-8.57277e-15
-4.15043e-15
7.00494e-11
-2.19333e-15
-8.27296e-13
-4.62487e-14
4.92096e-09
-3.6508e-13
-3.56601e-14
2.6624e-09
-1.40872e-13
-2.1565e-14
1.31149e-09
-3.46013e-14
-1.02038e-14
5.42826e-10
-2.61224e-15
1.28916e-10
-8.7692e-13
-8.75466e-14
4.92169e-09
-3.85991e-13
-5.42496e-14
2.66287e-09
-1.48595e-13
-2.99927e-14
1.31162e-09
-3.65251e-14
-1.36281e-14
5.42868e-10
-3.46639e-15
1.2891e-10
1.10735e-12
-1.05137e-13
1.97411e-13
-4.89722e-09
4.89829e-09
5.01892e-13
-4.13565e-14
1.01957e-13
-2.64875e-09
2.64929e-09
1.96399e-13
-1.56621e-14
5.2952e-14
-1.30439e-09
1.30465e-09
4.83264e-14
-5.54692e-15
2.40503e-14
-5.39807e-10
5.39937e-10
-1.30591e-15
6.46789e-15
-1.28203e-10
1.28246e-10
7.0752e-13
-8.36032e-15
2.63475e-09
3.22411e-13
2.23916e-14
1.43354e-09
1.26363e-13
2.00362e-14
7.09104e-10
3.12186e-14
1.13858e-14
2.94419e-10
3.58034e-15
7.00699e-11
7.81282e-13
2.50646e-15
9.07568e-15
4.92179e-09
3.4511e-13
-2.65359e-14
1.24876e-14
2.66277e-09
1.34695e-13
-2.23259e-14
1.11718e-14
1.3116e-09
3.37547e-14
-1.25639e-14
6.77576e-15
5.42856e-10
-3.96529e-15
2.08344e-15
1.28925e-10
-3.72243e-13
-9.57073e-14
-3.05487e-09
1.77724e-13
3.05438e-09
-1.6737e-13
-5.34893e-14
-1.65839e-09
9.32242e-14
1.65815e-09
-6.65223e-14
-2.82043e-14
-8.18952e-10
4.88324e-14
8.18831e-10
-1.71062e-14
-1.26747e-14
-3.39564e-10
2.20864e-14
3.39505e-10
-3.29633e-15
-8.07436e-11
5.81845e-15
8.0724e-11
-3.50185e-13
2.00457e-16
-3.33568e-09
3.33517e-09
-1.56873e-13
9.15261e-17
-1.80848e-09
1.80823e-09
-6.27436e-14
9.03588e-17
-8.92258e-10
8.92136e-10
-1.63438e-14
9.44663e-17
-3.69711e-10
3.69652e-10
5.61866e-17
-8.78888e-11
8.78691e-11
9.51534e-13
-1.9166e-13
-4.89014e-09
2.54322e-13
4.89106e-09
4.28899e-13
-9.91815e-14
-2.64524e-09
1.39638e-13
2.64572e-09
1.67688e-13
-4.87024e-14
-1.30281e-09
7.38092e-14
1.30305e-09
4.13635e-14
-2.08253e-14
-5.39145e-10
3.33296e-14
5.39259e-10
-5.33439e-15
-1.28051e-10
8.77619e-15
1.28088e-10
6.85793e-13
2.63546e-09
-7.15785e-14
3.11727e-13
1.43403e-09
-2.46929e-14
1.21794e-13
7.09359e-10
-7.95287e-15
3.00151e-14
2.94498e-10
-1.81273e-15
7.00793e-11
1.55586e-16
-6.92497e-13
7.0649e-15
-1.28428e-13
2.63482e-09
-3.16923e-13
-1.8785e-14
-5.80697e-14
1.43373e-09
-1.24259e-13
-1.67161e-14
-2.64323e-14
7.0921e-10
-3.06045e-14
-9.55573e-15
-1.1006e-14
2.94425e-10
-3.11614e-15
-2.88911e-15
7.00548e-11
7.94446e-13
4.92133e-09
5.33872e-14
6.21183e-15
3.45793e-13
2.66266e-09
9.42112e-15
1.05073e-14
1.32853e-13
1.31162e-09
-2.878e-15
8.71945e-15
3.29252e-14
5.42901e-10
-4.46299e-15
4.8994e-15
1.28945e-10
-1.97453e-15
1.39525e-15
-9.23648e-13
-4.47305e-14
4.92045e-09
-2.94311e-14
-4.15483e-13
-8.65268e-15
2.66219e-09
-3.0587e-14
-1.60407e-13
9.08565e-17
1.31139e-09
-2.10303e-14
-3.89697e-14
2.55528e-15
5.42788e-10
-1.09343e-14
1.34944e-15
1.28907e-10
-3.11789e-15
-4.06979e-13
2.61932e-09
-4.92619e-15
-1.83771e-13
1.42506e-09
-1.51824e-14
-7.28802e-14
7.04845e-10
-1.10774e-14
-1.86615e-14
2.92554e-10
-5.68746e-15
6.96003e-11
-1.64649e-15
4.30204e-13
-2.46044e-14
8.01104e-15
2.61984e-09
1.94994e-13
-5.86071e-15
-1.6979e-15
1.4253e-09
7.71744e-14
-9.36333e-16
-2.67386e-15
7.04966e-10
1.95816e-14
3.23997e-16
-1.70386e-15
2.92613e-10
3.15168e-16
-4.53974e-16
6.962e-11
-4.28575e-13
2.61876e-09
-5.55875e-14
-1.93672e-13
1.42476e-09
-3.76316e-14
-7.66794e-14
7.04673e-10
-2.11845e-14
-1.95226e-14
2.92489e-10
-9.74286e-15
6.9585e-11
-2.58962e-15
4.32369e-13
1.79471e-15
-2.99408e-14
2.6193e-09
1.95631e-13
1.22261e-14
-2.62971e-14
1.42501e-09
7.73238e-14
9.70394e-15
-1.73546e-14
7.04799e-10
1.95994e-14
5.18864e-15
-8.75362e-15
2.92551e-10
1.52009e-15
-2.40849e-15
6.96054e-11
-6.70041e-13
2.93381e-14
4.7129e-09
-2.96012e-13
1.42174e-14
2.55221e-09
-1.15845e-13
6.85016e-15
1.25789e-09
-2.92152e-14
2.90543e-15
5.20855e-10
7.32049e-16
1.2373e-10
-7.01015e-13
4.71328e-09
-3.10511e-13
2.5523e-09
-1.2151e-13
1.25802e-09
-3.06374e-14
5.20877e-10
1.23733e-10
7.12843e-13
-1.11786e-14
4.71366e-09
3.15515e-13
-7.49091e-15
2.5526e-09
1.22706e-13
-4.47799e-15
1.25808e-09
3.04966e-14
-2.19253e-15
5.20949e-10
-6.27258e-16
1.23762e-10
7.27056e-13
4.71407e-09
3.22229e-13
2.55271e-09
1.25749e-13
1.25822e-09
3.14514e-14
5.20974e-10
1.23765e-10
8.3571e-13
2.5135e-14
4.92205e-09
3.68901e-13
2.26318e-14
2.66295e-09
1.43123e-13
1.50361e-14
1.31164e-09
3.55683e-14
7.55178e-15
5.42881e-10
2.02067e-15
1.28982e-10
8.58545e-13
4.92218e-09
6.26911e-16
3.80638e-13
2.66309e-09
5.86768e-15
1.47052e-13
1.31182e-09
5.24124e-15
3.60119e-14
5.42929e-10
2.96209e-15
1.28943e-10
8.0359e-16
-8.13437e-13
4.92134e-09
-3.95068e-14
-3.60178e-13
2.66265e-09
-3.16327e-14
-1.39648e-13
1.3116e-09
-1.95452e-14
-3.44597e-14
5.42823e-10
-9.41031e-15
1.28908e-10
-2.47704e-15
7.04619e-13
9.50338e-14
2.63514e-09
3.21946e-13
3.63374e-14
1.43379e-09
1.26424e-13
1.31877e-14
7.09259e-10
3.12686e-14
4.45864e-15
2.94451e-10
9.92637e-16
7.00683e-11
-3.76361e-13
2.61947e-09
3.46937e-14
-1.72818e-13
1.42506e-09
1.13106e-14
-6.97801e-14
7.04826e-10
2.94725e-15
-1.83946e-14
2.92577e-10
1.35513e-16
6.96051e-11
-4.998e-16
5.55205e-13
6.64803e-15
-1.04354e-14
2.62013e-09
2.47399e-13
7.34593e-15
-1.06904e-14
1.42537e-09
9.43795e-14
4.11706e-15
-4.78468e-15
7.0498e-10
2.25174e-14
1.48316e-15
-1.62038e-15
2.92649e-10
1.38726e-16
-2.83803e-16
6.96278e-11
-5.98317e-13
4.71364e-09
1.40308e-13
-2.62012e-13
2.55223e-09
8.80579e-14
-1.03381e-13
1.25805e-09
4.77631e-14
-2.65776e-14
5.20883e-10
2.12366e-14
1.23737e-10
5.44291e-15
9.63735e-13
7.5473e-14
4.71442e-09
4.48198e-13
4.22957e-14
2.55271e-09
1.75249e-13
2.4096e-14
1.2583e-09
4.22402e-14
1.18172e-14
5.21006e-10
3.48968e-15
1.23776e-10
8.87971e-13
8.40404e-14
4.92223e-09
3.93205e-13
3.39157e-14
2.66323e-09
1.51064e-13
1.34297e-14
1.31192e-09
3.67316e-14
4.31175e-15
5.42998e-10
5.42456e-16
1.2899e-10
-3.51178e-13
-9.85632e-14
-3.05353e-09
2.00321e-13
3.05303e-09
-1.57925e-13
-5.54341e-14
-1.65766e-09
1.07826e-13
1.65742e-09
-6.31505e-14
-2.94002e-14
-8.1855e-10
5.69074e-14
8.18428e-10
-1.6406e-14
-1.32189e-14
-3.39423e-10
2.57543e-14
3.39363e-10
-3.42494e-15
-8.07098e-11
6.78819e-15
8.06901e-11
-3.47568e-13
-3.3349e-09
3.33439e-09
-1.55839e-13
-1.80806e-09
1.80781e-09
-6.2524e-14
-8.92055e-10
8.91933e-10
-1.63598e-14
-3.69628e-10
3.69569e-10
-8.78691e-11
8.78494e-11
9.61054e-13
-1.7026e-13
2.37647e-13
-4.88755e-09
4.88848e-09
4.33069e-13
-8.13468e-14
1.27684e-13
-2.64394e-09
2.64442e-09
1.69065e-13
-3.71211e-14
6.66122e-14
-1.30209e-09
1.30233e-09
4.15674e-14
-1.50919e-14
2.9866e-14
-5.38909e-10
5.39022e-10
-3.78621e-15
7.82543e-15
-1.27969e-10
1.28007e-10
6.69854e-13
2.63475e-09
3.04771e-13
1.43373e-09
1.19869e-13
7.09179e-10
2.96989e-14
2.94451e-10
7.00557e-11
-6.993e-13
-1.62802e-13
2.6341e-09
-3.19653e-13
-8.23131e-14
1.43342e-09
-1.25624e-13
-4.03614e-14
7.09025e-10
-3.08514e-14
-1.73294e-14
2.94376e-10
-4.47839e-15
7.00307e-11
6.84739e-13
2.02898e-13
2.6354e-09
3.11279e-13
1.08135e-13
1.43407e-09
1.21314e-13
5.40008e-14
7.09394e-10
2.9752e-14
2.3208e-14
2.9454e-10
5.91719e-15
7.00921e-11
9.46514e-13
-1.77813e-13
2.43584e-13
-4.88778e-09
4.88869e-09
4.27129e-13
-9.08293e-14
1.33846e-13
-2.64391e-09
2.64439e-09
1.67037e-13
-4.43318e-14
7.08345e-14
-1.30211e-09
1.30234e-09
4.12075e-14
-1.89277e-14
3.19771e-14
-5.38882e-10
5.38995e-10
-4.85791e-15
8.38198e-15
-1.27992e-10
1.2803e-10
6.74866e-13
-6.41067e-14
2.63499e-09
3.06946e-13
-2.08209e-14
1.43375e-09
1.20036e-13
-6.05407e-15
7.09196e-10
2.96893e-14
-1.00868e-15
2.94463e-10
4.32743e-16
7.00823e-11
-4.04146e-13
2.61953e-09
-4.28307e-14
-1.75851e-13
1.42509e-09
-1.74217e-14
-6.87855e-14
7.04842e-10
-6.52729e-15
-1.78639e-14
2.92563e-10
-2.59726e-15
6.96239e-11
-8.46586e-16
4.76981e-13
-2.76259e-14
3.0793e-14
2.62003e-09
2.25014e-13
-2.20181e-14
3.59953e-14
1.42533e-09
9.03668e-14
-1.21392e-14
2.39422e-14
7.04964e-10
2.27698e-14
-5.13159e-15
1.14717e-14
2.92624e-10
-1.12668e-15
2.95043e-15
6.96449e-11
-5.09974e-13
-1.03531e-14
4.71407e-09
-2.0516e-13
2.09176e-14
2.55256e-09
-7.9749e-14
2.22628e-14
1.25809e-09
-2.14042e-14
1.34119e-14
5.20887e-10
4.23617e-15
1.23763e-10
9.23429e-13
4.38283e-14
4.92258e-09