/*--------------------------------*- C++ -*----------------------------------*\
| =========                 |                                                 |
| \\      /  F ield         | OpenFOAM: The Open Source CFD Toolbox           |
|  \\    /   O peration     | Version:  2206                                  |
|   \\  /    A nd           | Website:  www.openfoam.com                      |
|    \\/     M anipulation  |                                                 |
\*---------------------------------------------------------------------------*/
FoamFile
{
    version     2.0;
    format      ascii;
    arch        "LSB;label=32;scalar=64";
    class       volVectorField;
    location    "0.4";
    object      wallShearStress;
}
// * * * * * * * * * * * * * * * * * * * * * * * * * * * * * * * * * * * * * //

dimensions      [0 2 -2 0 0 0 0];

internalField   uniform (0 0 0);

boundaryField
{
    topPatch
    {
        type            calculated;
        value           nonuniform List<vector> 0();
    }
    wall
    {
        type            calculated;
        value           nonuniform List<vector> 
7803
(
(-1.59322e-09 -3.12774e-09 -0.000125094)
(6.97697e-09 9.101e-10 -0.000130473)
(-2.69309e-09 -1.93488e-09 -0.000125153)
(7.13998e-10 6.39465e-09 -0.000130516)
(-8.1818e-09 1.78513e-09 -0.000130485)
(1.84025e-09 -7.98908e-09 -0.000130524)
(2.77898e-10 -3.69057e-09 -0.000125086)
(-2.71932e-09 -9.43685e-09 -0.000130527)
(-3.55462e-09 -4.21271e-11 -0.000125154)
(2.02791e-09 -3.6546e-09 -0.000125152)
(2.83825e-09 1.64654e-09 -0.000125156)
(-1.11502e-08 -3.58657e-09 -0.000130501)
(-5.00549e-09 1.81124e-09 -0.0001251)
(3.13611e-09 2.5847e-09 -0.000125099)
(-1.62894e-09 7.71897e-09 -0.000130524)
(9.10659e-09 -2.23515e-09 -0.000130496)
(-7.50513e-09 5.05675e-09 -0.000130009)
(3.69841e-09 2.15784e-09 -0.00012514)
(-6.93232e-09 -1.27614e-09 -0.000130476)
(-2.68155e-09 6.51774e-09 -0.000127612)
(-1.61506e-09 2.12527e-09 -0.000128652)
(6.0688e-09 -1.26842e-08 -0.00012973)
(3.98854e-09 -1.34798e-09 -0.00012511)
(-2.82888e-09 -1.70509e-09 -0.000125153)
(-6.01805e-10 -5.58439e-09 -0.000130456)
(8.30543e-10 6.67504e-09 -0.000130513)
(3.49459e-10 3.10298e-09 -0.000125786)
(-1.74505e-09 -1.25094e-09 -0.00012571)
(4.01071e-09 -1.72015e-10 -0.000125737)
(-3.01641e-09 -5.28264e-10 -0.0001257)
(5.93499e-10 2.22562e-09 -0.000130226)
(3.74474e-09 -6.17732e-10 -0.000130221)
(-1.32132e-09 -1.4957e-09 -0.000130155)
(-2.66301e-09 -3.61473e-10 -0.000130164)
(6.77476e-09 -1.06111e-09 -0.000130488)
(5.42296e-10 3.83628e-09 -0.000130461)
(1.71248e-09 -7.83351e-09 -0.000130525)
(-4.30924e-09 1.90856e-09 -0.000125131)
(2.69953e-10 -3.17251e-09 -0.000125782)
(-2.48806e-09 6.93071e-10 -0.000125713)
(4.06874e-09 1.94898e-09 -0.000130225)
(3.9298e-10 4.42732e-09 -0.000130166)
(-7.73955e-10 3.43138e-09 -0.000130467)
(-2.73498e-09 -7.19458e-09 -0.000127611)
(-1.60946e-09 -2.13111e-09 -0.00012865)
(5.53525e-09 1.06625e-08 -0.000129731)
(3.09891e-09 -8.1463e-10 -0.00012511)
(-3.79346e-09 -6.14807e-10 -0.000125152)
(-4.40997e-09 -2.51508e-09 -0.000125111)
(-5.76864e-09 1.15992e-08 -0.00012973)
(-3.76342e-09 9.06285e-10 -0.000125112)
(-3.41332e-09 7.44149e-12 -0.000125765)
(2.3952e-09 -1.41198e-09 -0.000125741)
(1.40524e-09 3.17204e-09 -0.000130227)
(4.13827e-09 -5.65687e-10 -0.000130506)
(-1.14003e-08 -6.16935e-09 -0.00013)
(4.55504e-10 -3.52491e-09 -0.000125149)
(9.84376e-09 -5.74305e-09 -0.000129996)
(-2.79005e-09 -2.60489e-09 -0.000125146)
(-4.93994e-10 -3.76837e-09 -0.000130461)
(-6.76845e-09 1.02362e-09 -0.000130499)
(7.44873e-09 5.06631e-09 -0.000129999)
(-6.09304e-09 -1.29076e-08 -0.000129727)
(-7.79882e-09 3.11002e-09 -0.000127415)
(2.75549e-09 -1.82356e-09 -0.000128412)
(-1.62473e-09 1.82736e-09 -0.000128407)
(8.99273e-09 -3.18385e-09 -0.000127413)
(1.12129e-08 -6.01092e-09 -0.000129962)
(4.94279e-09 7.71054e-10 -0.000125741)
(-2.36753e-09 3.53051e-10 -0.000125695)
(8.51095e-09 5.07727e-09 -0.000130215)
(1.6019e-09 3.49779e-09 -0.000130153)
(-4.86844e-09 8.4238e-09 -0.000129799)
(3.05793e-09 -9.98165e-09 -0.000127487)
(-1.57964e-09 2.08203e-09 -0.000128652)
(1.51553e-09 -2.95435e-09 -0.000128519)
(-2.62194e-09 6.40115e-09 -0.000127612)
(-4.93904e-09 8.58374e-09 -0.0001298)
(3.26298e-13 3.64982e-09 -0.000125758)
(9.94838e-10 -1.84047e-09 -0.000125669)
(2.56519e-09 6.38906e-09 -0.000130217)
(6.77408e-09 5.20011e-09 -0.000130134)
(-3.99586e-09 1.54332e-10 -0.000125764)
(2.45327e-09 9.32572e-10 -0.000125729)
(-4.40419e-09 1.21594e-09 -0.000130217)
(2.09099e-09 8.95851e-10 -0.000130164)
(-4.95808e-10 -2.74032e-09 -0.000125762)
(1.38431e-09 1.83891e-09 -0.000125684)
(-1.29958e-09 -1.30701e-09 -0.000130223)
(7.01742e-10 2.26185e-09 -0.000130152)
(8.55929e-09 3.24887e-09 -0.000127412)
(-2.12464e-09 -1.787e-09 -0.000128415)
(2.83076e-09 1.87117e-09 -0.000128408)
(-8.90238e-09 -3.20714e-09 -0.000127413)
(-1.18304e-08 -6.17402e-09 -0.000129954)
(3.02635e-09 9.36025e-09 -0.000127486)
(-1.55902e-09 -2.09915e-09 -0.00012865)
(1.52629e-09 2.96333e-09 -0.000128516)
(-2.67821e-09 -7.10253e-09 -0.000127611)
(-5.42144e-09 -1.0481e-08 -0.000129801)
(-5.44995e-09 -1.05195e-08 -0.0001298)
(4.71836e-09 7.62512e-09 -0.000129794)
(-3.08461e-09 -1.02979e-08 -0.000127484)
(1.61653e-09 2.16216e-09 -0.000128651)
(-1.49266e-09 -2.96826e-09 -0.000128517)
(2.63615e-09 6.16231e-09 -0.000127607)
(-3.11106e-09 1.00535e-08 -0.000127483)
(1.58929e-09 -1.88705e-09 -0.000128647)
(-1.51685e-09 3.32791e-09 -0.000128513)
(2.63173e-09 -6.58156e-09 -0.000127608)
(5.15654e-09 -9.37532e-09 -0.0001298)
(9.68524e-09 5.07989e-09 -0.00013019)
(7.28374e-09 5.05259e-09 -0.00012995)
(-1.10248e-08 -3.95245e-09 -0.000127405)
(2.10382e-09 2.23485e-09 -0.000128404)
(-2.76417e-09 -2.24168e-09 -0.000128401)
(6.83987e-09 3.3637e-09 -0.000127402)
(-8.71423e-09 5.43574e-09 -0.000129948)
(9.76091e-09 -3.37116e-09 -0.000127408)
(-2.79068e-09 1.92947e-09 -0.000128408)
(2.09434e-09 -1.82227e-09 -0.000128405)
(-7.68828e-09 3.16205e-09 -0.000127406)
(3.78088e-09 8.87799e-10 -0.000125112)
(-1.03818e-09 -6.44039e-09 -0.000130459)
(-5.1121e-09 -9.22482e-09 -0.000129801)
(-2.32125e-09 2.9715e-09 -0.000125155)
(1.60863e-09 7.69815e-09 -0.000130519)
(-2.6741e-09 6.62176e-09 -0.000127611)
(1.5049e-09 -2.80663e-09 -0.000128518)
(-1.61509e-09 2.45424e-09 -0.000128652)
(3.06103e-09 -1.00244e-08 -0.000127486)
(-2.58451e-09 -6.30882e-09 -0.000127611)
(1.52661e-09 3.25091e-09 -0.000128515)
(-1.56047e-09 -1.61185e-09 -0.000128649)
(3.10645e-09 9.89107e-09 -0.000127486)
(5.62207e-09 1.10888e-08 -0.000129731)
(9.96148e-10 -1.50938e-09 -0.000125669)
(1.51564e-09 5.66745e-09 -0.000125759)
(4.39481e-09 3.11837e-09 -0.000130144)
(-2.92335e-09 -5.99574e-10 -0.00013023)
(6.71984e-09 -1.07604e-09 -0.000130487)
(5.0392e-10 3.83836e-09 -0.00013046)
(3.63676e-09 2.16823e-09 -0.000125139)
(3.96993e-09 -1.37403e-09 -0.000125109)
(-8.02849e-09 1.65141e-09 -0.000130485)
(1.71972e-09 -7.84336e-09 -0.000130524)
(1.12158e-08 -6.03746e-09 -0.000129962)
(-1.65019e-09 -3.11226e-09 -0.000125094)
(-2.75459e-09 -1.88129e-09 -0.000125153)
(2.005e-09 9.2998e-10 -0.000130162)
(7.47368e-10 2.16095e-09 -0.00013015)
(-4.94368e-09 8.58078e-09 -0.000129799)
(6.02104e-09 -1.26013e-08 -0.000129729)
(2.42898e-09 9.0631e-10 -0.000125727)
(-3.87017e-09 2.15391e-11 -0.000125764)
(1.37615e-09 1.79662e-09 -0.000125683)
(-6.7381e-10 -2.57592e-09 -0.000125762)
(-1.36535e-09 -1.3066e-09 -0.000130223)
(-4.44811e-09 1.17382e-09 -0.000130217)
(8.78446e-09 -3.18089e-09 -0.000127413)
(-2.46722e-09 1.87195e-09 -0.000128406)
(2.2999e-09 -1.86433e-09 -0.000128412)
(-8.34737e-09 3.19542e-09 -0.000127414)
(-7.53001e-09 5.11043e-09 -0.000130008)
(2.89829e-09 -4.62213e-09 -0.000125054)
(6.1903e-10 -2.89533e-09 -0.000130436)
(-7.1361e-09 -2.70405e-10 -0.000130544)
(-2.24696e-09 -5.10394e-09 -0.000125092)
(6.00236e-10 7.78189e-09 -0.000130462)
(-1.48366e-09 7.90413e-09 -0.000130492)
(-3.18614e-10 -4.9389e-09 -0.000130506)
(8.33582e-09 -1.66727e-09 -0.000130475)
(-5.68628e-09 1.0126e-10 -0.000130531)
(-8.71503e-10 -4.49733e-09 -0.00013052)
(-1.32958e-09 7.97415e-09 -0.000130478)
(-6.13485e-09 1.46667e-10 -0.000130541)
(7.60864e-09 -1.12625e-09 -0.000130465)
(-1.66141e-09 -2.16454e-09 -0.000130446)
(2.62614e-09 -1.11657e-08 -0.000130468)
(-4.93581e-09 -5.44153e-09 -0.000125047)
(-1.63183e-08 -1.82126e-09 -0.00012524)
(-3.54826e-09 -1.26179e-08 -0.000130475)
(-3.74679e-09 1.46007e-09 -0.000125094)
(1.55936e-09 -6.83896e-09 -0.000125093)
(3.25086e-09 2.52332e-09 -0.000125097)
(-9.72231e-09 -2.18785e-09 -0.000130463)
(-3.49976e-09 2.80122e-09 -0.000125067)
(2.37529e-09 3.2255e-09 -0.000125066)
(-1.13598e-09 8.40611e-09 -0.00013047)
(8.2811e-09 -1.25685e-09 -0.00013046)
(4.72281e-10 3.26911e-09 -0.000125757)
(-1.66587e-09 -1.81178e-09 -0.000125745)
(3.20767e-09 5.66895e-10 -0.000125713)
(-1.82788e-09 -1.62628e-09 -0.000125728)
(7.33315e-10 2.3895e-09 -0.000130194)
(3.07441e-09 2.11886e-10 -0.000130191)
(-1.60378e-09 -2.06761e-09 -0.000125753)
(5.94872e-10 3.24424e-09 -0.00012575)
(-1.94542e-09 -1.66533e-09 -0.000125735)
(2.82264e-09 9.27651e-10 -0.000125707)
(-1.92715e-08 2.74736e-09 -0.000127445)
(-8.5078e-09 2.3883e-09 -0.000128516)
(-4.90248e-09 -6.97404e-10 -0.000128444)
(-3.82634e-08 8.61684e-09 -0.000127517)
(-2.15559e-09 5.01787e-09 -0.000130025)
(1.49266e-08 -1.8695e-09 -0.000125184)
(7.91321e-09 -1.79182e-09 -0.000129974)
(1.58208e-08 -7.25454e-09 -0.000125095)
(-7.31773e-09 -1.63555e-09 -0.00013051)
(-4.88917e-09 -3.76001e-09 -0.000130451)
(7.02973e-09 -1.28626e-08 -0.000129787)
(5.36332e-09 -2.90967e-09 -0.00012517)
(-3.34407e-10 -6.70414e-09 -0.000130506)
(7.3682e-10 3.65037e-09 -0.000125732)
(-2.35674e-09 -1.60605e-09 -0.000125766)
(3.28611e-09 9.47834e-10 -0.000125692)
(-3.50795e-09 -9.64449e-10 -0.000125748)
(-4.35956e-10 -4.49478e-09 -0.000130498)
(-1.36818e-09 7.88126e-09 -0.000130485)
(-5.43406e-09 7.60897e-11 -0.000130525)
(7.84612e-09 -1.33352e-09 -0.00013047)
(-2.28526e-09 -1.45353e-09 -0.000125767)
(7.79958e-10 3.33932e-09 -0.000125735)
(-2.33844e-09 -1.59032e-09 -0.000125747)
(2.65305e-09 1.25674e-09 -0.000125695)
(-2.00374e-09 -1.79849e-09 -0.000130212)
(-2.53331e-09 -1.3649e-09 -0.000130218)
(8.00912e-10 3.09794e-09 -0.000125743)
(-1.78698e-09 -1.88196e-09 -0.000125761)
(2.44861e-09 1.28924e-09 -0.000125701)
(-2.05328e-09 -1.61832e-09 -0.000125742)
(-1.32303e-09 8.28218e-09 -0.000130471)
(-4.31845e-10 -4.90094e-09 -0.000130514)
(7.8244e-09 -1.1597e-09 -0.000130461)
(-5.80025e-09 1.08338e-10 -0.000130536)
(6.87318e-09 -1.27401e-09 -0.000130519)
(1.5743e-09 -2.08064e-09 -0.000130465)
(2.73858e-09 1.49603e-09 -0.000130515)
(1.91744e-08 2.72028e-09 -0.000127446)
(8.86075e-09 2.38853e-09 -0.000128518)
(4.96616e-09 -6.96772e-10 -0.000128447)
(3.86052e-08 8.69591e-09 -0.000127517)
(-1.60842e-08 -2.33817e-09 -0.000125177)
(-1.66344e-08 -7.53025e-09 -0.000125087)
(-1.39777e-09 -6.58389e-09 -0.000125729)
(-5.0942e-09 -1.75969e-09 -0.000125774)
(-2.62637e-09 -7.90696e-09 -0.000125749)
(9.54427e-10 -2.50822e-09 -0.000130184)
(-1.28176e-09 3.5229e-09 -0.000130211)
(-3.17543e-09 7.41009e-10 -0.000130519)
(-2.90713e-09 -1.22629e-08 -0.000130492)
(3.41035e-09 -2.03146e-09 -0.00012517)
(3.61897e-09 4.50126e-09 -0.000127552)
(2.73646e-09 1.52874e-09 -0.000128596)
(-5.74485e-09 -3.972e-09 -0.000125171)
(2.6486e-09 -4.81721e-09 -0.000125104)
(3.86705e-09 -6.66452e-09 -0.000127553)
(2.80449e-09 -3.04777e-09 -0.000128593)
(-6.15618e-09 9.43795e-09 -0.000129789)
(-4.03109e-09 -4.24699e-10 -0.000125174)
(3.69983e-09 2.10613e-09 -0.000125107)
(-2.30819e-09 1.52032e-09 -0.00012571)
(2.35262e-09 -2.21713e-09 -0.000125779)
(4.31954e-09 -1.07982e-09 -0.000130543)
(1.84559e-09 -3.40527e-09 -0.00012519)
(9.48168e-09 -6.14562e-09 -0.000130026)
(-3.42865e-09 -2.88371e-09 -0.000125187)
(-1.02901e-09 -4.47867e-09 -0.000130515)
(-8.48286e-10 8.26498e-09 -0.000130484)
(-7.19202e-09 5.69477e-10 -0.000130539)
(3.81177e-09 2.06487e-09 -0.00012514)
(-3.92939e-09 6.81479e-10 -0.000130478)
(3.8925e-09 -1.26488e-09 -0.00012511)
(3.16521e-10 -3.88691e-09 -0.000130452)
(-2.23127e-09 -2.85395e-09 -0.000125096)
(2.60346e-09 2.62765e-09 -0.000125144)
(7.6916e-09 1.45664e-09 -0.000130474)
(-7.37562e-09 -1.36077e-09 -0.000130484)
(-2.71104e-09 -1.82678e-09 -0.000125154)
(4.01198e-09 -1.35625e-09 -0.000125114)
(1.07752e-09 6.91805e-09 -0.00013052)
(1.03124e-10 -4.38446e-09 -0.000130458)
(-1.92747e-09 -2.94358e-09 -0.000125103)
(3.66871e-09 2.19486e-09 -0.000125151)
(7.73369e-09 1.41998e-09 -0.000130485)
(-4.12814e-09 6.05647e-10 -0.000130492)
(-2.6968e-09 -1.83483e-09 -0.000125161)
(4.04554e-09 -1.47041e-09 -0.000125121)
(1.08619e-09 6.94699e-09 -0.000130528)
(3.01193e-10 -4.02965e-09 -0.000130466)
(-1.35354e-09 -3.25553e-09 -0.000125107)
(3.64983e-09 2.1344e-09 -0.000125152)
(7.97535e-09 1.57727e-09 -0.00013049)
(-6.80855e-09 -1.13772e-09 -0.000130496)
(-2.73974e-09 -1.8929e-09 -0.000125166)
(4.01585e-09 -1.57332e-09 -0.000125122)
(1.06359e-09 7.04097e-09 -0.000130532)
(2.02725e-10 -4.05951e-09 -0.000130467)
(-1.86653e-09 -3.07508e-09 -0.000125105)
(3.06257e-09 2.37225e-09 -0.00012515)
(7.72746e-09 1.32539e-09 -0.000130488)
(-4.37155e-09 3.89467e-10 -0.000130491)
(-2.74388e-09 -1.94709e-09 -0.000125163)
(4.01016e-09 -1.52545e-09 -0.00012512)
(8.70759e-10 6.73421e-09 -0.000130529)
(1.69409e-11 -4.41453e-09 -0.000130463)
(-2.21085e-09 -2.90612e-09 -0.000125104)
(3.09097e-09 2.39709e-09 -0.000125151)
(7.52555e-09 1.32737e-09 -0.000130486)
(-7.00398e-09 -1.20744e-09 -0.000130493)
(-2.68824e-09 -2.00202e-09 -0.000125162)
(4.0354e-09 -1.51123e-09 -0.00012512)
(8.62388e-10 6.6653e-09 -0.000130527)
(7.78229e-11 -4.35464e-09 -0.000130463)
(-1.78782e-09 -3.06913e-09 -0.000125106)
(3.65394e-09 2.15482e-09 -0.000125152)
(8.16436e-09 1.60924e-09 -0.000130489)
(-3.95304e-09 6.49183e-10 -0.000130493)
(-2.66743e-09 -2.04645e-09 -0.000125165)
(4.04886e-09 -1.5824e-09 -0.000125122)
(1.01414e-09 6.93433e-09 -0.000130528)
(1.98607e-10 -4.09983e-09 -0.000130464)
(-1.31117e-09 -3.29946e-09 -0.000125106)
(3.79616e-09 2.05218e-09 -0.00012515)
(7.91006e-09 1.55796e-09 -0.000130487)
(-6.99753e-09 -1.25515e-09 -0.000130493)
(-2.7702e-09 -1.88007e-09 -0.000125164)
(3.91427e-09 -1.33855e-09 -0.00012512)
(9.81111e-10 6.95794e-09 -0.000130527)
(8.6355e-11 -4.22395e-09 -0.000130461)
(-1.5431e-09 -3.22296e-09 -0.0001251)
(3.45265e-09 2.18994e-09 -0.000125144)
(7.57656e-09 1.23463e-09 -0.000130484)
(-4.49518e-09 3.00299e-10 -0.000130486)
(-2.76484e-09 -1.94352e-09 -0.000125159)
(3.9664e-09 -1.47235e-09 -0.000125114)
(8.87592e-10 6.82337e-09 -0.000130522)
(2.75707e-11 -4.32724e-09 -0.000130455)
(-1.88687e-09 -3.0706e-09 -0.000125095)
(3.27286e-09 2.28054e-09 -0.00012514)
(7.61173e-09 1.3398e-09 -0.000130477)
(-7.12415e-09 -1.31185e-09 -0.000130483)
(-2.73865e-09 -1.96417e-09 -0.000125154)
(3.97477e-09 -1.46109e-09 -0.000125111)
(8.97683e-10 6.79467e-09 -0.000130517)
(4.93162e-11 -4.33991e-09 -0.000130451)
(-1.91289e-09 -3.04004e-09 -0.000125093)
(3.31335e-09 2.28305e-09 -0.000125139)
(7.77645e-09 1.3873e-09 -0.000130477)
(-4.25757e-09 4.66258e-10 -0.00013048)
(-2.72892e-09 -1.92195e-09 -0.000125153)
(4.01789e-09 -1.50995e-09 -0.00012511)
(9.0744e-10 6.77259e-09 -0.000130515)
(8.85224e-11 -4.28965e-09 -0.00013045)
(-1.7833e-09 -3.08717e-09 -0.000125093)
(3.44152e-09 2.23853e-09 -0.000125139)
(7.71881e-09 1.43063e-09 -0.000130475)
(-6.96598e-09 -1.20027e-09 -0.000130481)
(-2.71509e-09 -1.97921e-09 -0.000125152)
(4.00202e-09 -1.46467e-09 -0.000125109)
(9.9765e-10 6.94289e-09 -0.000130514)
(1.52943e-10 -4.18252e-09 -0.00013045)
(-1.74202e-09 -3.1025e-09 -0.000125093)
(3.36983e-09 2.27217e-09 -0.000125139)
(7.76188e-09 1.3839e-09 -0.000130476)
(-4.25027e-09 4.7825e-10 -0.000130481)
(-2.7072e-09 -1.99349e-09 -0.000125152)
(3.98805e-09 -1.4229e-09 -0.00012511)
(9.77375e-10 6.90343e-09 -0.000130514)
(1.11373e-10 -4.27854e-09 -0.000130451)
(-1.67422e-09 -3.12323e-09 -0.000125092)
(3.33476e-09 2.28147e-09 -0.00012514)
(7.69716e-09 1.41774e-09 -0.000130474)
(-6.89127e-09 -1.15409e-09 -0.000130483)
(-2.71057e-09 -1.98259e-09 -0.000125151)
(3.96894e-09 -1.34529e-09 -0.000125112)
(9.53584e-10 6.87029e-09 -0.000130513)
(1.11476e-10 -4.28579e-09 -0.000130453)
(-1.5827e-09 -3.18181e-09 -0.000125091)
(3.20959e-09 2.34755e-09 -0.000125143)
(7.68652e-09 1.32823e-09 -0.000130473)
(-4.1068e-09 5.81144e-10 -0.000130484)
(-2.68103e-09 -2.13257e-09 -0.000125148)
(3.98451e-09 -1.29586e-09 -0.000125116)
(9.68689e-10 6.95597e-09 -0.00013051)
(7.42945e-11 -4.41719e-09 -0.000130457)
(-1.28617e-09 -3.31394e-09 -0.000125085)
(2.96892e-09 2.47421e-09 -0.00012515)
(7.43437e-09 1.23104e-09 -0.000130466)
(-7.02021e-09 -1.16876e-09 -0.000130494)
(-2.647e-09 -2.34829e-09 -0.00012514)
(4.03819e-09 -1.18299e-09 -0.000125128)
(8.90448e-10 6.91551e-09 -0.000130502)
(8.87033e-11 -4.5983e-09 -0.000130468)
(-5.94113e-11 -3.88948e-09 -0.000125069)
(2.13332e-09 2.97762e-09 -0.000125172)
(7.62825e-09 1.18325e-09 -0.000130451)
(-6.50739e-09 -4.43674e-10 -0.000130515)
(-2.40279e-09 -3.33106e-09 -0.000125121)
(4.50412e-09 -1.67251e-09 -0.000125155)
(8.84695e-10 7.18414e-09 -0.000130484)
(1.16637e-10 -5.08247e-09 -0.000130494)
(6.87874e-09 -1.2e-09 -0.000130488)
(3.98948e-10 3.9585e-09 -0.000130461)
(6.25981e-09 -7.88421e-10 -0.00013049)
(-8.09544e-09 1.70217e-09 -0.000130485)
(6.00587e-10 3.74791e-09 -0.000130463)
(1.70194e-09 -7.81056e-09 -0.000130524)
(-1.62191e-09 2.96198e-09 -0.000125133)
(3.08483e-09 2.42634e-09 -0.000125141)
(-1.71834e-09 -3.10759e-09 -0.000125094)
(-4.7227e-09 1.76224e-09 -0.000125132)
(2.93644e-09 -2.69379e-09 -0.000125087)
(8.03133e-10 5.90084e-09 -0.000130467)
(-7.77549e-09 -1.7322e-09 -0.000130479)
(9.89136e-09 2.71288e-09 -0.000130477)
(-1.43805e-09 2.32696e-09 -0.000130465)
(-1.11947e-09 -6.77336e-09 -0.000130525)
(3.29793e-09 -2.27341e-10 -0.000125108)
(4.00765e-09 -1.36295e-09 -0.00012511)
(-2.74948e-09 -1.90803e-09 -0.000125152)
(4.00307e-09 1.30014e-09 -0.000125112)
(-3.09017e-09 8.9849e-10 -0.000125151)
(-3.35336e-09 2.08388e-10 -0.000125111)
(-3.72018e-09 7.91182e-10 -0.000125113)
(-4.5616e-09 -2.83756e-09 -0.000125109)
(3.12753e-09 -1.00345e-09 -0.000125151)
(-3.83193e-09 1.02825e-09 -0.000125112)
(2.9301e-09 1.51971e-09 -0.000125156)
(5.80355e-09 4.71045e-10 -0.00013051)
(-1.01554e-10 -5.0433e-09 -0.000130462)
(4.30728e-11 4.57921e-09 -0.00013051)
(4.94414e-09 -1.03196e-10 -0.000130502)
(-1.20234e-08 -3.59463e-09 -0.000130505)
(1.16696e-09 -3.20624e-09 -0.000125151)
(-2.95756e-09 -2.55646e-09 -0.000125147)
(1.73469e-09 -3.06265e-09 -0.000125147)
(-4.06561e-09 2.30094e-09 -0.000125102)
(-2.71128e-09 -2.67385e-09 -0.000125146)
(2.84333e-09 2.69891e-09 -0.0001251)
(-5.13418e-10 -3.78737e-09 -0.000130462)
(-6.90297e-09 1.06792e-09 -0.0001305)
(-5.47061e-10 -3.75053e-09 -0.000130461)
(-1.51884e-09 7.53258e-09 -0.000130524)
(-6.80272e-09 1.00488e-09 -0.0001305)
(8.77348e-09 -2.04608e-09 -0.000130496)
(-8.61378e-09 2.02329e-09 -0.000130488)
(5.97314e-09 -6.20291e-10 -0.000130494)
(1.82488e-09 -7.92716e-09 -0.000130527)
(5.63937e-10 3.81953e-09 -0.000130467)
(6.29258e-09 -7.61726e-10 -0.000130497)
(-8.83838e-09 2.15159e-09 -0.000130492)
(5.93026e-10 3.81493e-09 -0.000130471)
(1.80569e-09 -7.89955e-09 -0.00013053)
(4.94465e-10 -3.53894e-09 -0.000125086)
(-4.43016e-09 1.94672e-09 -0.000125135)
(3.06204e-09 2.47681e-09 -0.000125147)
(-2.66969e-09 -2.67839e-09 -0.000125099)
(-4.19443e-09 2.01109e-09 -0.00012514)
(9.34006e-10 -3.34154e-09 -0.00012509)
(-2.3421e-09 -8.82188e-09 -0.000130528)
(-1.04271e-09 2.92758e-09 -0.000130468)
(-7.28863e-09 -1.36792e-09 -0.000130489)
(8.56391e-09 1.97396e-09 -0.00013048)
(-1.37076e-09 2.38132e-09 -0.000130471)
(-1.84482e-09 -7.92499e-09 -0.000130531)
(-3.33804e-09 3.26823e-10 -0.000125155)
(3.34444e-09 -3.23174e-10 -0.000125113)
(4.02184e-09 -1.31313e-09 -0.000125117)
(-2.65463e-09 -1.98496e-09 -0.000125157)
(3.9926e-09 1.22048e-09 -0.000125119)
(-3.10098e-09 7.23486e-10 -0.000125156)
(2.09042e-09 -3.47191e-09 -0.000125152)
(-4.37449e-09 -2.31112e-09 -0.000125113)
(2.83251e-09 1.58851e-09 -0.000125156)
(-3.68556e-09 5.78028e-10 -0.000125115)
(-4.44632e-09 -2.45425e-09 -0.000125116)
(2.22202e-09 -3.0319e-09 -0.000125155)
(-3.96001e-09 1.27934e-09 -0.000125119)
(2.86941e-09 1.45966e-09 -0.000125159)
(-1.1085e-08 -3.5148e-09 -0.000130501)
(4.51345e-09 -2.92956e-10 -0.000130511)
(-2.14193e-10 -5.27397e-09 -0.000130469)
(-2.46887e-10 3.9883e-09 -0.000130517)
(3.82417e-09 -7.15231e-10 -0.000130509)
(-1.3185e-08 -4.32477e-09 -0.000130509)
(-5.20177e-09 1.70592e-09 -0.0001251)
(1.02791e-10 -3.66972e-09 -0.000125152)
(2.91626e-09 2.59528e-09 -0.0001251)
(-2.80848e-09 -2.65336e-09 -0.000125149)
(1.2728e-09 -3.25811e-09 -0.000125153)
(-5.04899e-09 1.80632e-09 -0.000125104)
(-2.14697e-09 -2.93221e-09 -0.000125152)
(3.0484e-09 2.53433e-09 -0.000125102)
(-1.65449e-09 7.67232e-09 -0.000130525)
(-4.67036e-10 -3.92563e-09 -0.000130465)
(8.96311e-09 -2.20651e-09 -0.000130497)
(-6.86209e-09 1.01799e-09 -0.000130503)
(-8.24284e-10 -3.30699e-09 -0.000130469)
(-1.63666e-09 7.61124e-09 -0.000130528)
(-6.18872e-09 6.38863e-10 -0.000130507)
(9.00389e-09 -2.23589e-09 -0.0001305)
(-8.41495e-09 1.94951e-09 -0.000130496)
(6.70934e-09 -1.02596e-09 -0.000130502)
(1.87417e-09 -7.97712e-09 -0.000130535)
(6.35415e-10 3.67316e-09 -0.000130475)
(6.94814e-09 -1.18351e-09 -0.000130503)
(-8.06148e-09 1.71176e-09 -0.0001305)
(4.67898e-10 3.93916e-09 -0.000130476)
(1.84351e-09 -8.00008e-09 -0.000130538)
(8.48073e-10 -3.38515e-09 -0.000125095)
(-1.71898e-09 2.96096e-09 -0.000125145)
(3.81951e-09 2.10418e-09 -0.000125152)
(-1.5758e-09 -3.13787e-09 -0.000125106)
(-4.42196e-09 1.87045e-09 -0.000125147)
(3.17645e-09 -2.52859e-09 -0.0001251)
(-2.47723e-09 -8.91194e-09 -0.000130535)
(9.44067e-10 6.24473e-09 -0.000130478)
(-7.67711e-09 -1.6813e-09 -0.000130495)
(9.82536e-09 2.75551e-09 -0.000130492)
(-1.28155e-09 2.65595e-09 -0.00013048)
(-1.00464e-09 -6.40658e-09 -0.000130537)
(-3.34317e-09 3.28513e-10 -0.000125163)
(3.46559e-09 9.09498e-12 -0.00012512)
(3.98657e-09 -1.37141e-09 -0.000125123)
(-2.63294e-09 -2.09606e-09 -0.000125165)
(4.01377e-09 1.43231e-09 -0.000125125)
(-2.95687e-09 1.11668e-09 -0.000125164)
(2.17703e-09 -3.09249e-09 -0.00012516)
(-3.20456e-09 7.30789e-10 -0.000125121)
(2.67753e-09 1.91005e-09 -0.000125163)
(-3.84745e-09 9.8914e-10 -0.000125124)
(-4.43587e-09 -2.45628e-09 -0.000125124)
(3.18965e-09 -6.40489e-10 -0.000125163)
(-3.87202e-09 1.13219e-09 -0.000125126)
(2.76608e-09 1.75651e-09 -0.000125168)
(-1.15338e-08 -3.7915e-09 -0.000130508)
(5.6553e-09 3.00734e-10 -0.00013052)
(-1.57215e-10 -5.05331e-09 -0.000130475)
(4.47276e-13 4.44462e-09 -0.000130524)
(5.4447e-09 1.96288e-10 -0.000130516)
(-1.1838e-08 -3.60172e-09 -0.000130517)
(-5.36273e-09 1.59791e-09 -0.000125107)
(1.21863e-09 -3.25231e-09 -0.00012516)
(3.45429e-09 2.35878e-09 -0.000125106)
(-2.54396e-09 -2.77059e-09 -0.000125157)
(2.66769e-09 -2.66858e-09 -0.000125161)
(-3.77448e-09 2.32844e-09 -0.000125113)
(-2.35343e-09 -2.80762e-09 -0.00012516)
(3.22473e-09 2.46641e-09 -0.000125111)
(-1.95734e-09 8.17911e-09 -0.000130532)
(-6.92044e-10 -3.54169e-09 -0.000130474)
(9.58306e-09 -2.56661e-09 -0.000130504)
(-6.50792e-09 8.05216e-10 -0.000130512)
(-6.39249e-10 -3.57908e-09 -0.000130476)
(-1.74682e-09 7.81449e-09 -0.000130537)
(-6.3832e-09 7.7517e-10 -0.000130514)
(9.20438e-09 -2.3595e-09 -0.000130508)
(-7.90712e-09 1.59593e-09 -0.000130501)
(6.77721e-09 -1.13137e-09 -0.000130503)
(1.726e-09 -7.84035e-09 -0.000130539)
(5.40215e-10 3.71761e-09 -0.000130476)
(6.60202e-09 -1.0348e-09 -0.000130501)
(-8.102e-09 1.6716e-09 -0.0001305)
(4.9075e-10 3.81665e-09 -0.000130473)
(1.78856e-09 -8.02044e-09 -0.000130538)
(7.23864e-10 -3.49109e-09 -0.0001251)
(-3.83943e-09 2.08281e-09 -0.000125147)
(3.35269e-09 2.24914e-09 -0.000125151)
(-1.76269e-09 -3.12816e-09 -0.000125107)
(-3.93137e-09 2.01704e-09 -0.000125145)
(1.52439e-09 -3.21482e-09 -0.0001251)
(-2.11442e-09 -8.41775e-09 -0.000130543)
(-6.90037e-10 3.44083e-09 -0.00013048)
(-7.18944e-09 -1.40409e-09 -0.000130495)
(9.05198e-09 2.15904e-09 -0.00013049)
(-9.70728e-10 2.94936e-09 -0.000130477)
(-1.48527e-09 -7.41624e-09 -0.000130542)
(-3.36649e-09 4.28119e-10 -0.000125168)
(3.38239e-09 -1.54163e-11 -0.000125122)
(3.99206e-09 -1.49773e-09 -0.00012512)
(-2.64895e-09 -2.22582e-09 -0.000125165)
(3.90289e-09 1.23773e-09 -0.000125123)
(-3.05688e-09 1.04673e-09 -0.000125164)
(2.25996e-09 -3.06284e-09 -0.000125166)
(-4.15262e-09 -1.90671e-09 -0.000125125)
(2.82317e-09 1.65227e-09 -0.00012517)
(-3.63582e-09 6.12504e-10 -0.000125127)
(-4.23515e-09 -2.13391e-09 -0.000125123)
(2.45682e-09 -2.65393e-09 -0.000125166)
(-3.79232e-09 1.0457e-09 -0.000125125)
(2.96015e-09 1.41844e-09 -0.00012517)
(-1.00697e-08 -2.93111e-09 -0.000130514)
(6.39729e-09 7.87337e-10 -0.000130521)
(-3.39788e-10 -5.30946e-09 -0.000130472)
(-1.21698e-10 4.35549e-09 -0.000130524)
(5.04488e-09 2.40564e-11 -0.000130513)
(-1.1345e-08 -3.26186e-09 -0.000130517)
(-3.99282e-09 2.20932e-09 -0.000125113)
(1.95996e-09 -2.88031e-09 -0.000125162)
(3.31812e-09 2.46772e-09 -0.000125113)
(-2.79856e-09 -2.58783e-09 -0.00012516)
(2.18466e-09 -2.81236e-09 -0.000125159)
(-3.34559e-09 2.57221e-09 -0.000125114)
(-2.46967e-09 -2.71701e-09 -0.000125158)
(3.10083e-09 2.59634e-09 -0.000125113)
(-1.67941e-09 7.75032e-09 -0.000130539)
(-3.36945e-10 -4.0361e-09 -0.000130477)
(9.33783e-09 -2.39088e-09 -0.00013051)
(-6.76437e-09 1.03401e-09 -0.000130514)
(-4.62441e-10 -3.80359e-09 -0.000130475)
(-1.42318e-09 7.35879e-09 -0.000130539)
(-6.53772e-09 9.14939e-10 -0.000130512)
(8.99105e-09 -2.15659e-09 -0.00013051)
(-8.28796e-09 1.77775e-09 -0.000130498)
(6.28796e-09 -8.63735e-10 -0.0001305)
(1.74104e-09 -7.91711e-09 -0.000130536)
(5.49984e-10 3.71576e-09 -0.000130473)
(6.23639e-09 -8.07797e-10 -0.000130499)
(-8.58936e-09 1.94942e-09 -0.000130497)
(5.82123e-10 3.71375e-09 -0.000130472)
(1.82584e-09 -8.05947e-09 -0.000130535)
(9.9582e-10 -3.42781e-09 -0.000125099)
(-1.82886e-09 2.83503e-09 -0.000125144)
(2.90425e-09 2.46452e-09 -0.000125149)
(-2.342e-09 -2.87516e-09 -0.000125104)
(-4.87686e-09 1.67904e-09 -0.000125143)
(2.96046e-09 -2.67743e-09 -0.000125098)
(-2.12728e-09 -8.45093e-09 -0.00013054)
(1.06653e-09 6.30753e-09 -0.000130478)
(-8.10575e-09 -1.92911e-09 -0.000130491)
(9.4891e-09 2.50114e-09 -0.00013049)
(-1.45597e-09 2.25926e-09 -0.000130476)
(-9.72141e-10 -6.48201e-09 -0.000130536)
(-3.48485e-09 1.94631e-10 -0.000125165)
(3.27081e-09 -3.50346e-10 -0.000125119)
(4.04668e-09 -1.54497e-09 -0.000125119)
(-2.6364e-09 -2.19574e-09 -0.000125162)
(3.86177e-09 1.04858e-09 -0.000125122)
(-3.15343e-09 7.46016e-10 -0.000125161)
(2.36388e-09 -2.85505e-09 -0.000125164)
(-3.13254e-09 7.29724e-10 -0.000125121)
(2.86482e-09 1.66641e-09 -0.000125168)
(-3.64711e-09 6.76869e-10 -0.000125124)
(-4.49578e-09 -2.68427e-09 -0.00012512)
(3.22159e-09 -6.9138e-10 -0.000125161)
(-3.84651e-09 1.09668e-09 -0.000125123)
(2.94134e-09 1.4747e-09 -0.000125167)
(-1.06714e-08 -3.22689e-09 -0.000130511)
(5.64348e-09 3.67684e-10 -0.000130518)
(-3.88843e-10 -5.45157e-09 -0.00013047)
(-2.8478e-10 4.03222e-09 -0.000130521)
(4.65212e-09 -2.2217e-10 -0.000130512)
(-1.20644e-08 -3.67127e-09 -0.000130514)
(-4.72651e-09 1.95625e-09 -0.000125111)
(9.80817e-10 -3.27853e-09 -0.000125159)
(3.22886e-09 2.54514e-09 -0.000125111)
(-2.98051e-09 -2.5055e-09 -0.000125157)
(1.70276e-09 -3.0462e-09 -0.000125157)
(-4.25183e-09 2.18265e-09 -0.000125111)
(-2.56921e-09 -2.71284e-09 -0.000125156)
(2.89103e-09 2.67771e-09 -0.000125109)
(-1.57095e-09 7.64408e-09 -0.000130537)
(-3.42999e-10 -4.00097e-09 -0.000130473)
(9.21732e-09 -2.2756e-09 -0.000130508)
(-6.93627e-09 1.13886e-09 -0.000130511)
(-5.74474e-10 -3.65385e-09 -0.000130472)
(-1.45253e-09 7.41353e-09 -0.000130535)
(-6.61918e-09 9.25748e-10 -0.00013051)
(8.80492e-09 -2.0549e-09 -0.000130507)
(-8.56386e-09 1.95848e-09 -0.000130497)
(6.30871e-09 -8.43956e-10 -0.0001305)
(1.83112e-09 -8.01349e-09 -0.000130535)
(5.97019e-10 3.68695e-09 -0.000130473)
(6.45885e-09 -9.14063e-10 -0.0001305)
(-8.49949e-09 1.92041e-09 -0.000130497)
(6.26589e-10 3.65139e-09 -0.000130474)
(1.84293e-09 -8.04897e-09 -0.000130536)
(2.21264e-10 -3.6906e-09 -0.000125097)
(-4.15884e-09 1.9884e-09 -0.000125145)
(3.24096e-09 2.33695e-09 -0.000125151)
(-2.20619e-09 -2.90625e-09 -0.000125105)
(-3.60912e-09 2.18977e-09 -0.000125146)
(1.34791e-09 -3.24308e-09 -0.000125099)
(-2.30796e-09 -8.83077e-09 -0.000130539)
(-9.25953e-10 3.04782e-09 -0.000130476)
(-6.82505e-09 -1.15538e-09 -0.000130495)
(9.00153e-09 2.17237e-09 -0.000130488)
(-1.09138e-09 2.83297e-09 -0.000130477)
(-1.68444e-09 -7.71812e-09 -0.000130539)
(-3.50373e-09 7.02211e-11 -0.000125164)
(3.28911e-09 -3.6728e-10 -0.00012512)
(4.05636e-09 -1.54987e-09 -0.000125121)
(-2.62984e-09 -2.16003e-09 -0.000125164)
(3.94202e-09 1.23074e-09 -0.000125124)
(-3.13846e-09 7.29339e-10 -0.000125162)
(2.1786e-09 -3.32006e-09 -0.000125163)
(-4.25488e-09 -2.11034e-09 -0.000125122)
(2.80823e-09 1.71345e-09 -0.000125167)
(-3.72383e-09 7.67848e-10 -0.000125124)
(-4.25654e-09 -2.05393e-09 -0.000125123)
(2.36599e-09 -2.77966e-09 -0.000125164)
(-3.85907e-09 1.07469e-09 -0.000125125)
(2.8764e-09 1.52851e-09 -0.000125168)
(-1.09356e-08 -3.4112e-09 -0.00013051)
(5.59818e-09 3.1034e-10 -0.000130519)
(-2.6437e-10 -5.24566e-09 -0.000130471)
(-2.25806e-10 4.10831e-09 -0.000130521)
(4.95866e-09 -7.38729e-11 -0.000130514)
(-1.20352e-08 -3.67723e-09 -0.000130515)
(-5.0466e-09 1.77332e-09 -0.00012511)
(1.02059e-09 -3.29866e-09 -0.00012516)
(3.11309e-09 2.54211e-09 -0.000125109)
(-2.70773e-09 -2.66179e-09 -0.000125158)
(2.10566e-09 -2.89554e-09 -0.00012516)
(-4.11734e-09 2.21532e-09 -0.000125112)
(-2.08264e-09 -2.91852e-09 -0.000125159)
(3.18965e-09 2.518e-09 -0.000125111)
(-1.68564e-09 7.79092e-09 -0.000130535)
(-4.61468e-10 -3.87101e-09 -0.000130474)
(9.19488e-09 -2.305e-09 -0.000130507)
(-6.61114e-09 9.18782e-10 -0.000130512)
(-5.68747e-10 -3.70445e-09 -0.000130475)
(-1.54533e-09 7.50525e-09 -0.000130536)
(-6.17893e-09 6.72994e-10 -0.000130513)
(9.18186e-09 -2.29718e-09 -0.000130508)
(-8.30273e-09 1.82624e-09 -0.000130498)