/*--------------------------------*- C++ -*----------------------------------*\
| =========                 |                                                 |
| \\      /  F ield         | OpenFOAM: The Open Source CFD Toolbox           |
|  \\    /   O peration     | Version:  2206                                  |
|   \\  /    A nd           | Website:  www.openfoam.com                      |
|    \\/     M anipulation  |                                                 |
\*---------------------------------------------------------------------------*/
FoamFile
{
    version     2.0;
    format      ascii;
    arch        "LSB;label=32;scalar=64";
    class       volVectorField;
    location    "0.3";
    object      U;
}
// * * * * * * * * * * * * * * * * * * * * * * * * * * * * * * * * * * * * * //

dimensions      [0 1 -1 0 0 0 0];

internalField   nonuniform List<vector> 
66616
(
(0.000110424 0.000100077 0.128907)
(-0.000185464 0.000158748 0.126123)
(0.000163889 -0.000188688 0.126123)
(-0.000443314 -0.000448252 0.12432)
(2.64331e-05 2.54952e-05 0.129946)
(-1.30209e-05 -2.96301e-05 0.12791)
(-2.25697e-05 -7.85538e-06 0.128016)
(-0.000219975 -0.00022027 0.126267)
(-5.15502e-05 -4.97266e-05 0.129829)
(5.37987e-05 -3.35554e-05 0.127887)
(-3.24188e-05 5.31321e-05 0.127994)
(-0.000124771 -0.000126333 0.126197)
(-7.22303e-05 -6.96076e-05 0.129511)
(9.77759e-05 -6.58322e-05 0.127692)
(-6.40403e-05 9.54742e-05 0.127798)
(-8.44208e-05 -8.5596e-05 0.125972)
(-7.90487e-05 -7.65166e-05 0.12915)
(0.000110244 -7.80346e-05 0.127463)
(-7.80431e-05 0.000108674 0.127563)
(-7.63883e-05 -7.78613e-05 0.125781)
(-8.96837e-05 -8.4614e-05 0.128712)
(0.000129787 -8.86902e-05 0.12717)
(-8.9858e-05 0.000132196 0.127264)
(-7.52705e-05 -7.48215e-05 0.125577)
(-4.9882e-05 -4.71936e-05 0.128308)
(7.63938e-05 -5.43236e-05 0.126928)
(-5.38032e-05 8.11137e-05 0.127013)
(-0.000125028 -0.000123436 0.125455)
(7.95043e-06 7.69338e-06 0.128192)
(-9.49151e-06 -4.93713e-06 0.126883)
(-3.889e-06 -9.59044e-06 0.126967)
(-0.000192952 -0.000193409 0.125505)
(1.52033e-05 1.59238e-05 0.12827)
(-2.0803e-05 6.54971e-06 0.126916)
(1.21552e-05 -3.0255e-05 0.126994)
(-0.000206726 -0.000206814 0.125555)
(3.94171e-06 5.77393e-06 0.128323)
(-4.75162e-06 2.55405e-06 0.126924)
(6.44469e-06 -1.09178e-05 0.126995)
(-0.000198298 -0.000198647 0.125545)
(-8.62475e-07 1.7043e-06 0.128335)
(1.11784e-06 1.52417e-08 0.126936)
(2.69412e-06 -3.02232e-06 0.126994)
(-0.000194816 -0.000195558 0.125533)
(-2.31654e-06 2.90137e-06 0.128338)
(5.93642e-07 2.18375e-06 0.126967)
(-4.10281e-07 -4.03965e-06 0.126996)
(-0.000193808 -0.000196511 0.125517)
(-0.000115677 -0.000122423 0.123951)
(0.000133732 8.81241e-05 0.126301)
(-0.000133751 8.88639e-05 0.126298)
(0.000115966 -0.000121075 0.123949)
(9.43162e-05 0.000135134 0.126272)
(9.03976e-05 -0.000133159 0.126286)
(5.50208e-05 5.34549e-05 0.128591)
(-5.49943e-05 5.36823e-05 0.12859)
(5.21936e-05 -5.48182e-05 0.128578)
(-5.21233e-05 -5.51677e-05 0.128578)
(-9.40541e-05 0.000135788 0.126271)
(-8.92659e-05 -0.000133498 0.126283)
(-0.000119922 0.000117859 0.123939)
(0.000136035 -9.18163e-05 0.126261)
(-0.000135944 -9.20179e-05 0.126258)
(0.000119996 0.000116343 0.123934)
(0.000448224 0.000441941 0.124336)
(-0.000123424 -0.000137494 0.126106)
(0.000169081 0.000190297 0.126117)
(-0.000169618 0.000191126 0.126115)
(2.9729e-05 8.7094e-05 0.127769)
(-2.83608e-05 8.71487e-05 0.127767)
(-0.000447719 0.000442923 0.124331)
(0.000123176 -0.000137843 0.126105)
(0.000186027 0.000159051 0.126123)
(0.000187581 -0.000162687 0.126093)
(0.00011292 1.71899e-05 0.127663)
(0.000112311 -1.9471e-05 0.12765)
(-0.000187007 -0.000162344 0.126093)
(-0.0001126 1.75875e-05 0.127663)
(-0.000111994 -1.95567e-05 0.127649)
(0.000443469 -0.000447132 0.124322)
(-0.000128252 0.000133615 0.126095)
(-0.000164099 -0.000189528 0.12612)
(2.62235e-05 -9.03037e-05 0.127764)
(-2.55557e-05 -9.05071e-05 0.127762)
(0.000128031 0.000134341 0.126092)
(0.000222618 0.000218458 0.12628)
(-0.000171208 -0.000173021 0.126181)
(-2.22324e-05 3.39935e-06 0.12802)
(2.20716e-05 3.80766e-06 0.128019)
(-2.82413e-05 -4.29162e-05 0.128056)
(2.91831e-05 -4.35044e-05 0.128057)
(-0.000220135 0.000218581 0.126278)
(0.00017091 -0.000173338 0.126181)
(1.35384e-05 -2.92614e-05 0.12791)
(1.419e-05 2.73385e-05 0.127898)
(-3.87888e-05 -2.7702e-05 0.127947)
(-3.92304e-05 2.74091e-05 0.127934)
(-1.38891e-05 2.71989e-05 0.127896)
(3.87934e-05 -2.68187e-05 0.127945)
(3.96477e-05 2.76237e-05 0.127931)
(0.000220633 -0.000220191 0.126269)
(-0.000169467 0.00017204 0.126171)
(2.29736e-05 -8.15048e-06 0.128015)
(-2.51165e-05 3.9106e-05 0.128052)
(2.53921e-05 3.88753e-05 0.128052)
(0.000170053 0.000171819 0.12617)
(0.000123394 0.000125165 0.126208)
(-0.000226912 -0.000228962 0.12595)
(-3.5312e-05 -5.72905e-05 0.127997)
(3.52213e-05 -5.7404e-05 0.127998)
(-6.40132e-05 -9.81855e-05 0.127849)
(6.52298e-05 -9.82483e-05 0.12785)
(-0.000122851 0.000125565 0.126207)
(0.00022703 -0.000228143 0.12595)
(-5.34554e-05 -3.40217e-05 0.127889)
(-5.38683e-05 3.42208e-05 0.127876)
(-9.37237e-05 -6.22655e-05 0.127744)
(-9.31327e-05 6.3178e-05 0.127732)
(5.42932e-05 3.4471e-05 0.127873)
(9.41533e-05 -6.24572e-05 0.127741)
(9.3597e-05 6.34761e-05 0.127729)
(0.000125931 -0.000125694 0.126198)
(-0.00022346 0.000226218 0.125941)
(3.25015e-05 5.29409e-05 0.127994)
(-6.01825e-05 9.20577e-05 0.127849)
(6.00816e-05 9.1819e-05 0.127851)
(0.000224057 0.000225684 0.125941)
(8.12338e-05 8.27015e-05 0.12598)
(-0.000246432 -0.000248909 0.125761)
(-6.83621e-05 -0.000102031 0.127798)
(6.68785e-05 -0.000101994 0.1278)
(-7.69926e-05 -0.000108394 0.127629)
(7.7026e-05 -0.000108769 0.127632)
(-7.929e-05 8.29951e-05 0.12598)
(0.000243837 -0.000248963 0.125763)
(-9.73545e-05 -6.6157e-05 0.127694)
(-9.6686e-05 6.74402e-05 0.127682)
(-0.000103045 -7.4797e-05 0.127529)
(-0.000102464 7.60966e-05 0.127519)
(9.71828e-05 6.78135e-05 0.127679)
(0.000103027 -7.19033e-05 0.127528)
(0.000102954 7.61228e-05 0.127516)
(8.55369e-05 -8.47253e-05 0.125972)
(-0.000243225 0.000245697 0.125754)
(6.38763e-05 9.52182e-05 0.1278)
(-7.3253e-05 0.000101546 0.127629)
(7.31026e-05 0.000101314 0.127632)
(0.000243267 0.000245112 0.125754)
(7.32486e-05 7.45249e-05 0.125787)
(-0.000277536 -0.000278627 0.12556)
(-8.14805e-05 -0.000114977 0.127562)
(8.05713e-05 -0.0001147 0.127565)
(-9.31229e-05 -0.000135583 0.127341)
(9.31989e-05 -0.000134684 0.127345)
(-7.4344e-05 7.52695e-05 0.125789)
(0.000276699 -0.000278778 0.125561)
(-0.000110038 -7.96381e-05 0.127464)
(-0.000109098 8.10791e-05 0.127455)
(-0.000128543 -8.98606e-05 0.127251)
(-0.00012687 9.0661e-05 0.127241)
(0.000109553 8.0938e-05 0.127452)
(0.000128999 -8.93841e-05 0.127248)
(0.000127316 9.05595e-05 0.127238)
(7.71571e-05 -7.69316e-05 0.12578)
(-0.000272043 0.000276312 0.125554)
(7.79641e-05 0.000108374 0.127566)
(-8.99084e-05 0.000130046 0.127343)
(8.99068e-05 0.000129742 0.127347)
(0.000271606 0.000276778 0.125555)
(7.05174e-05 7.29034e-05 0.125581)
(-0.000266046 -0.00027098 0.125414)
(-9.30941e-05 -0.000137538 0.127262)
(9.17314e-05 -0.000137816 0.127265)
(-7.39689e-05 -0.000109349 0.127057)
(7.34182e-05 -0.000109352 0.127061)
(-6.96618e-05 7.31436e-05 0.125582)
(0.00026401 -0.000271629 0.125417)
(-0.000129196 -9.00954e-05 0.127173)
(-0.000127186 9.06917e-05 0.127164)
(-0.000100221 -7.05175e-05 0.126973)
(-9.9306e-05 7.18042e-05 0.126965)
(0.000127499 9.06612e-05 0.127161)
(0.000100281 -6.81188e-05 0.126971)
(9.92542e-05 7.19144e-05 0.126962)
(7.57134e-05 -7.45856e-05 0.125576)
(-0.000261896 0.000267322 0.125409)
(8.99655e-05 0.000131844 0.127268)
(-6.85292e-05 0.000103045 0.12706)
(6.81805e-05 0.000103022 0.127065)
(0.000261733 0.000267193 0.12541)
(0.000120881 0.000120228 0.125459)
(-0.000209388 -0.000211261 0.125442)
(-5.8938e-05 -8.50917e-05 0.127012)
(5.81664e-05 -8.4611e-05 0.127016)
(-1.52023e-05 -9.06055e-06 0.126959)
(1.54947e-05 -8.90017e-06 0.126963)
(-0.000121683 0.000120177 0.125461)
(0.000208045 -0.00021116 0.125443)
(-7.63821e-05 -5.53691e-05 0.12693)
(-7.62118e-05 5.65402e-05 0.126923)
(-5.16019e-06 -1.37842e-05 0.126879)
(-5.029e-06 1.41986e-05 0.126874)
(7.6148e-05 5.65964e-05 0.12692)
(5.44216e-06 -1.33756e-05 0.126876)
(5.11801e-06 1.42581e-05 0.126871)
(0.000125524 -0.000122865 0.125454)
(-0.000209308 0.000212182 0.125439)
(5.34263e-05 8.09208e-05 0.127017)
(-1.50768e-05 1.02331e-05 0.126962)
(1.48638e-05 1.02201e-05 0.126966)
(0.000208872 0.000212437 0.125439)
(0.000192286 0.000194375 0.125507)
(-0.000190595 -0.000194547 0.1255)
(-4.08336e-06 1.06974e-05 0.126963)
(2.76599e-06 1.11475e-05 0.126967)
(1.18679e-05 3.25202e-05 0.126984)
(-1.14145e-05 3.3047e-05 0.126987)
(-0.000190961 0.000194654 0.125507)
(0.000189095 -0.000195207 0.125501)
(9.86384e-06 -5.29916e-06 0.126886)
(1.00039e-05 5.5548e-06 0.126881)
(2.52805e-05 7.16605e-06 0.126906)
(2.53549e-05 -7.13281e-06 0.126902)
(-9.90846e-06 5.48415e-06 0.126878)
(-2.45616e-05 6.54344e-06 0.126904)
(-2.52623e-05 -7.07632e-06 0.126899)
(0.000193305 -0.000193057 0.125504)
(-0.000190596 0.000194329 0.125498)
(3.74381e-06 -9.70697e-06 0.12697)
(1.17517e-05 -3.20309e-05 0.126988)
(-1.18189e-05 -3.19948e-05 0.126991)
(0.000190232 0.000194682 0.125498)
(0.000206278 0.000206731 0.125557)
(-0.000196556 -0.000199988 0.125496)
(1.223e-05 3.07346e-05 0.12699)
(-1.23402e-05 3.14712e-05 0.126993)
(8.08521e-06 1.51744e-05 0.126989)
(-7.77801e-06 1.56412e-05 0.126992)
(-0.000206758 0.000206875 0.125557)
(0.000195566 -0.000199686 0.125496)
(2.16362e-05 6.92317e-06 0.126919)
(2.17141e-05 -6.80926e-06 0.126915)
(9.79395e-06 4.80001e-06 0.126907)
(1.02297e-05 -4.77815e-06 0.126904)
(-2.16448e-05 -7.03522e-06 0.126912)
(-9.24182e-06 4.72411e-06 0.126905)
(-1.01935e-05 -4.66324e-06 0.126901)
(0.00020706 -0.000206509 0.125555)
(-0.000196292 0.000200044 0.125494)
(-1.21288e-05 -3.03236e-05 0.126998)
(8.60716e-06 -1.4691e-05 0.126992)
(-8.57529e-06 -1.45406e-05 0.126996)
(0.000196023 0.000200453 0.125494)
(0.000197527 0.000198854 0.125546)
(-0.000199287 -0.000202586 0.125491)
(6.27064e-06 1.18208e-05 0.126992)
(-7.21351e-06 1.23283e-05 0.126996)
(3.61497e-06 3.17995e-06 0.126983)
(-2.90042e-06 3.53225e-06 0.126985)
(-0.000196034 0.000199512 0.125546)
(0.000197991 -0.000203971 0.12549)
(5.25821e-06 2.65712e-06 0.126926)
(5.66291e-06 -2.60717e-06 0.126923)
(1.63705e-06 1.62295e-06 0.12689)
(2.47224e-06 -2.00195e-06 0.126888)
(-5.62923e-06 -2.93191e-06 0.12692)
(-1.06336e-06 1.29897e-06 0.126889)
(-2.37636e-06 -1.58835e-06 0.126884)
(0.00019865 -0.000198282 0.125544)
(-0.000199112 0.000203002 0.12549)
(-6.35166e-06 -1.09699e-05 0.126998)
(3.90105e-06 -2.32181e-06 0.126986)
(-3.74008e-06 -2.00648e-06 0.12699)
(0.000199025 0.000203617 0.125489)
(0.00019398 0.000195971 0.125533)
(-0.000200587 -0.000202177 0.125505)
(3.09523e-06 4.5051e-06 0.12699)
(-2.74493e-06 4.99013e-06 0.126994)
(6.81273e-07 3.65182e-07 0.126979)
(-8.51928e-07 6.386e-07 0.12698)
(-0.000194637 0.000195879 0.125535)
(0.000200825 -0.000202891 0.125501)
(-5.30518e-07 1.07521e-07 0.126938)
(-6.51289e-08 -2.51872e-07 0.126934)
(1.96622e-07 8.88739e-07 0.126863)
(1.00767e-06 -1.25054e-06 0.126861)
(9.12195e-08 -8.20724e-07 0.126932)
(3.34474e-07 1.02251e-06 0.126862)
(-1.13682e-06 -6.69918e-07 0.126857)
(0.000195074 -0.000194992 0.125531)
(-0.000200841 0.000202781 0.125504)
(-2.57679e-06 -3.27376e-06 0.126997)
(1.32693e-06 8.7291e-07 0.126982)
(-6.53676e-07 1.16524e-06 0.126986)
(0.00020093 0.00020358 0.125499)
(0.00019268 0.000196534 0.125511)
(-1.15539e-07 6.33293e-06 0.126992)
(-6.89073e-08 6.95839e-06 0.126997)
(-0.000192688 0.000197782 0.125518)
(-4.01381e-07 1.84177e-06 0.12697)
(-4.93406e-07 -1.50276e-06 0.126966)
(4.33358e-08 -3.23341e-06 0.126965)
(0.000193706 -0.000194895 0.12551)
(1.00997e-06 -5.18014e-06 0.126998)
(3.25698e-06 2.92008e-06 0.130199)
(0.000122349 0.000121513 0.127399)
(1.09597e-05 7.76992e-05 0.129317)
(7.81897e-05 1.0937e-05 0.129292)
(-0.000486685 8.84664e-05 0.1139)
(-0.000131702 0.000153616 0.12592)
(-0.000738509 0.000470514 0.0794675)
(-0.000114566 1.34152e-05 0.128676)
(8.82763e-05 -0.000486167 0.113908)
(0.000153585 -0.000131176 0.125911)
(1.3541e-05 -0.000114975 0.128674)
(0.000470341 -0.000738622 0.0794696)
(-0.000125969 -0.000125228 0.123297)
(-0.000750278 -0.000654409 0.0700929)
(-0.000653885 -0.000750413 0.0700958)
(5.50892e-05 0.000713829 0.105562)
(0.00156878 -0.00120197 0.0678635)
(-0.00011921 0.000104546 0.10185)
(-0.000280337 0.000166024 0.0798956)
(-0.000736244 -0.000653342 0.0634668)
(0.00088263 0.000247555 0.0697567)
(0.000711634 5.59744e-05 0.105431)
(-0.00121106 0.00157082 0.0679371)
(0.000101415 -0.00012104 0.101929)
(0.000164921 -0.000287757 0.079836)
(-0.000110375 0.000100167 0.128906)
(0.000105914 -0.000100993 0.128894)
(-0.000105908 -0.000101225 0.128894)
(9.47306e-05 8.59092e-05 0.129738)
(-9.43991e-05 8.5842e-05 0.129737)
(8.84e-05 -8.96442e-05 0.129728)
(-8.83568e-05 -8.95689e-05 0.129728)
(-0.000650547 4.44006e-05 0.120223)
(-0.000215513 0.000545978 0.100483)
(-0.000153785 4.0359e-05 0.127922)
(-0.000418366 0.000205555 0.126738)
(-0.000308876 -3.97026e-05 0.117794)
(-0.000800429 -9.89739e-05 0.106823)
(-0.000355895 6.26853e-05 0.128287)
(-0.000658574 -0.000740298 0.063509)
(0.000248249 0.000889245 0.0697321)
(4.42701e-05 -0.000645064 0.120271)
(4.24321e-05 -0.000158762 0.127921)
(0.000546285 -0.000219164 0.100435)
(0.000206764 -0.000409693 0.126731)
(-3.8847e-05 -0.00031324 0.117757)
(6.19725e-05 -0.0003451 0.128295)
(-9.40491e-05 -0.000795692 0.106881)
(-0.000230903 -0.000482103 0.0875173)
(-0.000481993 -0.000232709 0.0875214)
(-2.42289e-05 -2.42457e-05 0.125322)
(-0.000507562 0.000151824 0.091936)
(0.0001473 -0.000502536 0.0919478)
(-5.39974e-05 2.17498e-05 0.107965)
(3.34194e-05 1.83144e-05 0.0814085)
(-5.60697e-05 0.000318757 0.107974)
(4.76212e-05 -0.000109456 0.0815295)
(8.7793e-05 0.000153062 0.0704499)
(1.59471e-05 -1.35429e-05 0.0705753)
(3.30273e-05 -5.20746e-05 0.107109)
(1.8725e-05 3.10388e-05 0.0811781)
(0.000294345 -5.30091e-05 0.107558)
(-0.000104936 4.39653e-05 0.0811541)
(-2.61172e-05 2.56853e-05 0.129945)
(2.46724e-05 -2.57001e-05 0.129935)
(-2.44987e-05 -2.55509e-05 0.129935)
(-4.87431e-05 -4.7591e-05 0.129921)
(4.94648e-05 -4.67041e-05 0.12992)
(-4.87473e-05 5.08531e-05 0.129911)
(4.90325e-05 5.10141e-05 0.129911)
(6.79032e-05 -3.89096e-05 0.121187)
(-0.000223572 -5.41273e-05 0.108598)
(3.45229e-05 2.64526e-06 0.129291)
(2.50187e-05 -3.82045e-05 0.128008)
(-0.000188338 -3.31466e-05 0.121603)
(4.16302e-05 -0.000104964 0.108295)
(8.04566e-05 -1.17615e-05 0.129373)
(0.000151904 9.05983e-05 0.0703627)
(-1.20558e-05 1.64714e-05 0.0704039)
(-3.75955e-05 7.46113e-05 0.121839)
(4.16935e-06 4.28258e-05 0.129429)
(-3.67726e-05 -0.000233753 0.10893)
(-3.24461e-05 2.22101e-05 0.128116)
(-2.86083e-05 -0.000219286 0.121943)
(-1.05142e-05 7.3732e-05 0.129512)
(-0.000110694 4.13331e-05 0.108837)
(-0.000130396 -1.95686e-05 0.094562)
(-2.43845e-05 -0.000127742 0.0947662)
(0.000160634 0.000162086 0.126279)
(4.34969e-05 3.37235e-05 0.094659)
(3.77313e-05 4.65442e-05 0.0949789)
(-3.42998e-05 -9.95876e-05 0.107894)
(3.8531e-05 -8.12029e-05 0.0819361)
(-4.15713e-05 -1.32795e-05 0.108066)
(1.64765e-05 -0.000119365 0.08209)
(-5.40302e-06 -5.65921e-05 0.0709751)
(9.7161e-06 -7.66518e-05 0.0711616)
(-9.38122e-05 -3.30683e-05 0.107039)
(-8.13469e-05 3.55392e-05 0.081684)
(-1.29429e-05 -4.00887e-05 0.107501)
(-0.000120947 1.43538e-05 0.0817025)
(5.21305e-05 -4.92548e-05 0.129829)
(-5.18808e-05 5.30706e-05 0.12982)
(5.21057e-05 5.32491e-05 0.12982)
(-6.96751e-05 -6.72399e-05 0.129589)
(7.03736e-05 -6.70443e-05 0.129588)
(-6.89743e-05 7.17611e-05 0.129582)
(6.91161e-05 7.19045e-05 0.129582)
(0.000152516 -2.76153e-05 0.120818)
(2.34752e-05 -7.35591e-05 0.108678)
(9.53017e-05 -1.93127e-05 0.129208)
(7.03601e-05 -4.49409e-05 0.127834)
(2.51602e-05 -3.45891e-05 0.121305)
(0.000133992 -0.000101068 0.108357)
(0.000108591 -2.15033e-05 0.129139)
(-5.73915e-05 -4.68753e-06 0.0708753)
(-7.55873e-05 1.13791e-05 0.0709827)
(-2.99972e-05 0.000147286 0.121473)
(-1.9435e-05 9.57942e-05 0.129341)
(-7.66459e-05 2.57556e-05 0.109021)
(-4.34697e-05 7.0077e-05 0.127942)
(-3.37e-05 2.69023e-05 0.12171)
(-2.14863e-05 0.0001105 0.12927)
(-0.000103109 0.00013845 0.108893)
(7.3215e-05 1.97795e-05 0.0954099)
(2.00234e-05 7.74842e-05 0.0956282)
(0.000204175 0.000205499 0.126044)
(0.000109338 6.03481e-05 0.0953445)
(5.95986e-05 0.000112752 0.0956742)
(-2.18082e-05 -0.000134213 0.107871)
(1.05123e-05 -7.76637e-05 0.0825162)
(-2.61236e-05 -6.65952e-05 0.108001)
(9.95083e-06 -0.000112325 0.0826725)
(3.83826e-06 -5.94121e-05 0.0715909)
(6.4293e-06 -7.35819e-05 0.0717572)
(-0.000127877 -2.08405e-05 0.10702)
(-7.6193e-05 5.73981e-06 0.0822489)
(-6.29186e-05 -2.50386e-05 0.107433)
(-0.000112101 6.00955e-06 0.0822697)
(7.25869e-05 -6.93547e-05 0.12951)
(-7.11952e-05 7.48189e-05 0.129504)
(7.12947e-05 7.49855e-05 0.129504)
(-7.54616e-05 -7.28957e-05 0.129251)
(7.62786e-05 -7.20809e-05 0.129251)
(-7.4554e-05 7.80258e-05 0.129245)
(7.47863e-05 7.81249e-05 0.129245)
(0.00017545 -2.01628e-05 0.120552)
(5.46689e-05 -7.39248e-05 0.10873)
(0.00012826 -2.60392e-05 0.128953)
(9.96349e-05 -6.89068e-05 0.12764)
(5.96222e-05 -2.48371e-05 0.120985)
(0.000148185 -9.64128e-05 0.108439)
(0.000126932 -2.64122e-05 0.128884)
(-5.62631e-05 8.73077e-06 0.0714808)
(-6.87841e-05 1.13405e-05 0.0715672)
(-2.21427e-05 0.000172239 0.121204)
(-2.7673e-05 0.00013147 0.129077)
(-7.21446e-05 6.38471e-05 0.109073)
(-6.69299e-05 9.70361e-05 0.127745)
(-2.60802e-05 6.03831e-05 0.121393)
(-2.83143e-05 0.000130652 0.129006)
(-9.38321e-05 0.000157704 0.10897)
(7.80698e-05 4.86895e-05 0.095935)
(4.36135e-05 8.46496e-05 0.0961592)
(0.000232817 0.000234268 0.125846)
(0.000102692 7.76487e-05 0.0958386)
(7.16831e-05 0.000108119 0.0961699)
(-1.01743e-05 -0.000173404 0.107966)
(3.85294e-05 -8.60376e-05 0.0830576)
(-1.5232e-05 -9.34185e-05 0.108031)
(3.83156e-05 -0.000135287 0.0832518)
(-4.05751e-05 -7.58228e-05 0.0721454)
(-3.33063e-05 -9.13332e-05 0.0723302)
(-0.000168088 -9.67979e-06 0.107117)
(-8.26559e-05 3.30407e-05 0.0827645)
(-8.88899e-05 -1.47049e-05 0.107462)
(-0.000131694 3.1909e-05 0.0828258)
(8.01175e-05 -7.6227e-05 0.12915)
(-7.81512e-05 8.13579e-05 0.129144)
(7.84589e-05 8.1374e-05 0.129144)
(-8.89821e-05 -8.47607e-05 0.12883)
(8.98679e-05 -8.48635e-05 0.12883)
(-8.7955e-05 8.92743e-05 0.128827)
(8.82277e-05 8.91916e-05 0.128827)
(0.000209781 -1.54349e-05 0.120344)
(5.97761e-05 -5.10512e-05 0.108808)
(0.000133721 -2.89109e-05 0.128641)
(0.000118901 -8.41282e-05 0.127394)
(7.48466e-05 -1.95658e-05 0.120746)
(0.000172911 -6.59162e-05 0.108555)
(0.000142546 -2.99032e-05 0.128548)
(-7.07089e-05 -3.29288e-05 0.0720131)
(-8.66946e-05 -2.5966e-05 0.0721203)
(-1.63911e-05 0.00020958 0.120985)
(-2.95946e-05 0.000136828 0.128757)
(-4.75954e-05 7.19768e-05 0.109153)
(-8.3832e-05 0.000118114 0.127492)
(-1.98668e-05 7.83203e-05 0.12115)
(-3.00006e-05 0.0001454 0.128662)
(-6.02687e-05 0.000183214 0.109085)
(8.77071e-05 1.76932e-05 0.0963669)
(9.30415e-06 9.53351e-05 0.0965921)
(0.000260169 0.00026412 0.125658)
(0.000128627 2.97931e-05 0.0962558)
(2.22879e-05 0.000134022 0.0965859)
(-5.86784e-06 -0.000161953 0.108346)
(1.86507e-05 -6.55102e-05 0.0837647)
(-4.11203e-06 -0.000116234 0.108294)
(-9.29878e-06 -7.40884e-05 0.083989)
(-1.58353e-05 -4.2557e-05 0.0727022)
(1.52899e-05 -3.47186e-05 0.0728312)
(-0.000153009 -6.08851e-06 0.107497)
(-5.99767e-05 1.13807e-05 0.0834451)
(-0.00011088 -4.08298e-06 0.107727)
(-7.1565e-05 -1.26186e-05 0.0835345)
(9.02567e-05 -8.43509e-05 0.128712)
(-8.79845e-05 8.91627e-05 0.128709)
(8.82121e-05 8.90824e-05 0.128709)
(-6.6777e-05 -6.26973e-05 0.128387)
(6.74665e-05 -6.22946e-05 0.128388)
(-6.59657e-05 6.86763e-05 0.128383)
(6.59894e-05 6.85857e-05 0.128383)
(0.000209771 -7.29825e-06 0.120285)
(7.58713e-05 -2.30253e-05 0.10901)
(0.000153004 -2.91693e-05 0.128248)
(0.000126861 -8.72284e-05 0.127094)
(9.56478e-05 -1.22665e-05 0.120604)
(0.000157772 -5.42853e-05 0.108834)
(0.000150584 -2.70038e-05 0.128145)
(-3.80552e-05 -7.77827e-06 0.0725573)
(-3.13325e-05 1.91904e-05 0.0726077)
(-8.22362e-06 0.000211027 0.120907)
(-2.81815e-05 0.000156101 0.128356)
(-1.45517e-05 8.87089e-05 0.109353)
(-8.81318e-05 0.000130658 0.127187)
(-1.21346e-05 0.000101646 0.120992)
(-2.54586e-05 0.000154159 0.128249)
(-4.62261e-05 0.000167695 0.109366)
(7.77875e-05 5.66902e-06 0.0967734)
(-5.42074e-06 8.635e-05 0.0969964)
(0.000275177 0.000281681 0.125463)
(8.17444e-05 4.34389e-05 0.0966854)
(3.50403e-05 8.77731e-05 0.0970184)
(-1.64568e-05 -7.24441e-05 0.108626)
(-1.90889e-05 8.07461e-06 0.0843641)
(-1.51129e-05 -3.86887e-05 0.108708)
(-3.11953e-05 -2.37419e-05 0.0844149)
(1.96849e-05 5.30378e-06 0.0730527)
(3.25781e-05 -3.66251e-06 0.0730746)
(-6.21019e-05 -1.63549e-05 0.10776)
(1.05983e-05 -2.13943e-05 0.0840089)
(-3.05527e-05 -1.51387e-05 0.108129)
(-1.97553e-05 -3.15303e-05 0.083932)
(5.05325e-05 -4.69475e-05 0.128308)
(-4.93023e-05 5.22895e-05 0.128304)
(4.92692e-05 5.22326e-05 0.128304)
(-1.79179e-06 -2.37569e-06 0.12819)
(2.27822e-06 -2.03305e-06 0.12819)
(-1.86939e-06 3.55673e-06 0.128189)
(1.79407e-06 3.55033e-06 0.128189)
(0.000116692 -9.01484e-06 0.120381)
(-3.49667e-06 -1.77092e-05 0.109363)
(9.98948e-05 -1.36089e-05 0.127892)
(5.00113e-05 -3.89311e-05 0.126896)
(3.14658e-05 -9.50264e-06 0.120684)
(6.68647e-05 -4.55307e-05 0.10916)
(7.08288e-05 -9.76e-06 0.127836)
(5.63309e-06 1.96012e-05 0.0728931)
(-3.95122e-06 3.02921e-05 0.0728405)
(-9.04093e-06 0.000112116 0.120988)
(-1.50305e-05 0.000107276 0.127985)
(-1.33339e-05 9.05582e-06 0.10971)
(-4.00486e-05 5.80507e-05 0.12698)
(-8.98909e-06 3.47114e-05 0.121045)
(-1.13699e-05 8.03281e-05 0.127926)
(-4.7658e-05 7.04653e-05 0.109709)
(5.42476e-06 8.30132e-06 0.0972097)
(3.97432e-06 9.60916e-06 0.097444)
(0.000233009 0.000238172 0.125406)
(1.58306e-05 3.79414e-05 0.0970397)
(4.08612e-05 1.55323e-05 0.0973901)
(-6.53566e-06 -3.30086e-05 0.108455)
(-1.91148e-05 2.71158e-05 0.0844978)
(-1.02492e-05 3.08312e-05 0.108661)
(-1.7825e-05 -2.02801e-05 0.0844595)
(1.03256e-05 1.13233e-05 0.0731627)
(1.30001e-05 -7.1795e-06 0.0731515)
(-3.07054e-05 -5.71325e-06 0.10759)
(2.50042e-05 -1.56323e-05 0.084135)
(3.15845e-05 -9.845e-06 0.108076)
(-2.15299e-05 -1.30689e-05 0.0839794)
(-7.65001e-06 7.92468e-06 0.128192)
(7.84705e-06 -6.48534e-06 0.12819)
(-7.88254e-06 -6.57527e-06 0.128191)
(1.72254e-05 1.68578e-05 0.128244)
(-1.71129e-05 1.62815e-05 0.128244)
(1.72539e-05 -1.60595e-05 0.128243)
(-1.72463e-05 -1.61625e-05 0.128243)
(4.78274e-05 -4.49611e-06 0.120274)
(-6.34478e-05 -8.56767e-06 0.109508)
(-4.29996e-06 -1.80095e-06 0.127768)
(-1.96376e-05 1.02708e-06 0.126888)
(-6.67554e-05 -9.33606e-06 0.120671)
(3.92829e-05 -3.32449e-05 0.109185)
(-1.93448e-05 2.80405e-08 0.127762)
(8.89474e-06 6.60861e-06 0.0730035)
(-9.70693e-06 8.84975e-06 0.0729241)
(-4.607e-06 5.2673e-05 0.120879)
(-1.95092e-06 -9.37037e-06 0.127859)
(-7.25287e-06 -5.91881e-05 0.109866)
(4.31483e-06 -2.29716e-05 0.126973)
(-8.7825e-06 -6.36505e-05 0.121026)
(1.11584e-06 -2.87252e-05 0.127855)
(-3.63918e-05 3.65724e-05 0.109731)
(-2.31395e-05 -6.69352e-07 0.0973551)
(4.96739e-07 -2.36234e-05 0.0975951)
(0.000193427 0.000198116 0.125477)
(1.25356e-05 2.53232e-05 0.0970951)
(3.00142e-05 9.1151e-06 0.0974405)
(-1.61291e-06 -3.42357e-05 0.108308)
(-6.98426e-07 2.27185e-05 0.0845139)
(-2.73529e-06 3.40329e-05 0.108461)
(-4.94992e-06 -2.21079e-05 0.0844855)
(-5.63081e-06 7.27554e-06 0.0732156)
(5.15488e-06 -7.96785e-06 0.0731927)
(-3.31697e-05 -9.09708e-07 0.107458)
(1.86854e-05 3.47016e-06 0.0841583)
(3.15043e-05 -1.99497e-06 0.107879)
(-2.31458e-05 -2.33826e-06 0.0840127)
(-1.49575e-05 1.57961e-05 0.12827)
(1.51854e-05 -1.50523e-05 0.128269)
(-1.51291e-05 -1.52141e-05 0.128269)
(6.75056e-06 7.3205e-06 0.128309)
(-6.52572e-06 7.34902e-06 0.128309)
(7.01217e-06 -6.71903e-06 0.128308)
(-6.98508e-06 -6.76278e-06 0.128308)
(5.43229e-05 -3.00329e-07 0.120109)
(-5.44861e-05 7.75315e-06 0.109419)
(-2.71379e-05 2.43821e-06 0.127785)
(-1.75644e-05 6.89303e-06 0.126909)
(-7.66894e-05 -3.14868e-06 0.120485)
(4.99073e-05 -1.95851e-05 0.109109)
(-2.33208e-05 1.78302e-06 0.127779)
(5.20913e-06 -7.50243e-06 0.0730571)
(-9.40377e-06 3.44598e-06 0.072966)
(-6.066e-07 5.74932e-05 0.12071)
(3.0899e-06 -4.23573e-05 0.127873)
(9.11674e-06 -5.33284e-05 0.109767)
(1.17871e-05 -2.55364e-05 0.126993)
(-3.34631e-06 -7.16895e-05 0.120844)
(3.55503e-06 -3.75168e-05 0.127873)
(-2.18527e-05 4.64162e-05 0.109644)
(-1.25595e-05 -1.40182e-05 0.0973448)
(-1.46152e-05 -1.33777e-05 0.097579)
(0.000192465 0.000197014 0.1255)
(1.8058e-05 1.63657e-05 0.0970918)
(1.88114e-05 1.56728e-05 0.0974306)
(-1.60019e-07 -3.33042e-05 0.108288)
(2.6297e-06 2.34567e-05 0.0845222)
(-3.91839e-07 3.27688e-05 0.108396)
(-3.27216e-06 -2.16743e-05 0.0845017)
(-5.9272e-06 8.50492e-06 0.0732242)
(5.1885e-06 -7.37108e-06 0.0732016)
(-3.18094e-05 -4.84877e-08 0.107454)
(2.07102e-05 4.13965e-06 0.0841669)
(3.17369e-05 -3.4055e-07 0.107815)
(-2.1426e-05 -2.99242e-06 0.0840343)
(-3.56824e-06 5.98157e-06 0.128323)
(4.12961e-06 -5.0966e-06 0.128323)
(-3.99575e-06 -5.21269e-06 0.128323)
(6.34416e-07 1.13334e-06 0.128322)
(-6.51302e-07 8.88459e-07 0.128322)
(1.30396e-06 -9.03426e-07 0.128322)
(-1.34846e-06 -8.30022e-07 0.128322)
(6.03761e-05 4.70999e-07 0.120067)
(-5.11674e-05 1.42053e-05 0.10937)
(-6.73132e-06 6.08525e-07 0.127802)
(-3.57246e-06 2.32686e-06 0.126897)
(-6.61273e-05 -1.59051e-06 0.120378)
(5.05755e-05 -1.66622e-05 0.109107)
(-4.10596e-06 -4.7219e-07 0.127776)
(7.17131e-06 -6.36341e-06 0.0730635)
(-8.05347e-06 4.69707e-06 0.0729812)
(7.36658e-07 6.07124e-05 0.120653)
(4.5908e-07 -1.68983e-05 0.127887)
(1.5784e-05 -4.90476e-05 0.109715)
(5.56232e-06 -6.62786e-06 0.126989)
(-1.45127e-06 -6.36547e-05 0.12074)
(1.19506e-06 -1.22447e-05 0.127875)
(-1.74926e-05 4.74653e-05 0.109636)
(-1.41872e-05 -1.63539e-05 0.0973338)
(-1.86562e-05 -1.36563e-05 0.09757)
(0.000198167 0.000202681 0.12549)
(1.58984e-05 1.58172e-05 0.0971046)
(1.72736e-05 1.43573e-05 0.0974384)
(8.42225e-08 -3.1116e-05 0.10831)
(2.56575e-06 2.32682e-05 0.0845054)
(-6.64409e-08 3.1118e-05 0.108373)
(-2.81598e-06 -2.13496e-05 0.0845301)
(-6.20185e-06 7.93894e-06 0.0732144)
(5.33095e-06 -7.03534e-06 0.0732214)
(-3.14735e-05 2.05297e-08 0.107504)
(2.14151e-05 3.76795e-06 0.0841459)
(3.21701e-05 -9.71081e-08 0.107774)
(-2.15778e-05 -3.12317e-06 0.0840667)
(1.54692e-06 1.93075e-06 0.128336)
(-5.15696e-07 -9.95132e-07 0.128335)
(8.02529e-07 -1.09442e-06 0.128336)
(5.54096e-07 5.83551e-07 0.128322)
(-7.33182e-07 8.74792e-07 0.128321)
(1.33241e-06 -7.63801e-07 0.128321)
(-1.38262e-06 -6.6939e-07 0.12832)
(6.0825e-05 5.04146e-07 0.120098)
(-5.10653e-05 1.39566e-05 0.109335)
(1.31651e-06 -3.50297e-07 0.127817)
(7.71466e-08 9.86786e-07 0.126877)
(-6.35934e-05 -1.5354e-06 0.120337)
(5.03381e-05 -1.6596e-05 0.109149)
(2.04484e-06 -1.89881e-06 0.127757)
(7.61938e-06 -5.90518e-06 0.0730469)
(-8.26199e-06 4.71207e-06 0.0730053)
(1.17015e-06 5.92063e-05 0.120653)
(-1.7857e-06 -3.90664e-06 0.127893)
(1.62809e-05 -4.79671e-05 0.109682)
(2.88069e-06 -2.20585e-07 0.126984)
(-1.26433e-06 -6.12029e-05 0.120716)
(3.23845e-07 -3.57133e-06 0.127867)
(-1.57741e-05 4.71139e-05 0.109676)
(-1.49315e-05 -1.65333e-05 0.0973088)
(-1.88509e-05 -1.36509e-05 0.0975537)
(0.00019949 0.000203855 0.125491)
(1.5779e-05 1.56719e-05 0.0971386)
(1.68833e-05 1.3742e-05 0.0974613)
(1.11056e-07 -2.85805e-05 0.107882)
(2.3954e-06 1.97595e-05 0.0844458)
(-8.37762e-08 2.72686e-05 0.108325)
(-1.03334e-05 -2.19961e-05 0.0843867)
(-5.42591e-06 7.34745e-06 0.0731786)
(9.93776e-06 -1.04557e-05 0.0731566)
(2.19245e-05 4.23093e-06 0.0840912)
(3.13139e-05 -1.2435e-07 0.107682)
(3.37911e-06 3.88912e-06 0.12834)
(-2.48761e-06 -1.80718e-06 0.128338)
(2.85029e-06 -2.4339e-06 0.12834)
(5.84937e-05 1.01618e-06 0.120203)
(-5.04672e-05 1.38088e-05 0.109255)
(-8.16088e-08 7.43087e-07 0.127847)
(6.11894e-07 1.29056e-06 0.126839)
(-6.25442e-05 -1.27783e-06 0.120264)
(4.83935e-05 -1.35519e-05 0.109262)
(3.95987e-06 -1.59472e-06 0.127725)
(8.70576e-06 -6.27572e-06 0.0730105)
(9.03051e-07 6.25231e-05 0.120355)
(-4.82657e-06 -1.1213e-06 0.127904)
(1.25326e-05 -4.53762e-05 0.109596)
(-1.19864e-06 -5.53694e-05 0.120705)
(-1.88365e-06 -6.21481e-06 0.127836)
(-1.48753e-05 -1.61123e-05 0.0972489)
(-1.57466e-05 -1.30071e-05 0.097513)
(0.000204646 0.000205177 0.125517)
(1.43865e-05 1.29047e-05 0.0972226)
(1.69723e-05 1.22502e-05 0.097382)
(0.000125304 0.000125463 0.123315)
(0.00065388 0.000749807 0.0701803)
(0.000749875 0.00065412 0.0701732)
(0.000911753 -0.000747547 0.0413484)
(0.00079674 0.000709934 0.0582403)
(-0.000751746 0.000913092 0.041322)
(0.000710291 0.000796699 0.0582359)
(0.000204892 0.000198452 0.123184)
(3.9927e-05 -0.000177329 0.0795236)
(-0.000177887 4.47152e-05 0.0795076)
(0.000401037 0.000666128 0.0733452)
(0.000666797 0.000400275 0.073342)
(8.83901e-05 0.000486499 0.113924)
(0.000152167 0.000131113 0.125936)
(0.000470336 0.000738809 0.0794729)
(1.35963e-05 0.000115493 0.128697)
(-8.83692e-05 0.000486375 0.113926)
(-0.000152419 0.000131319 0.125933)
(-0.000471119 0.000737084 0.0794638)
(-1.35957e-05 0.000115418 0.128697)
(8.19934e-05 0.000641848 0.0940706)
(0.00109603 -0.00410071 0.0344545)
(0.0007254 0.000733323 0.0635616)
(-0.000132692 -0.000291385 0.0972581)
(-8.17204e-05 0.000641823 0.0940746)
(-0.00109871 -0.00410426 0.0344564)
(-0.000721596 0.000733833 0.0635611)
(0.000131775 -0.000291424 0.097264)
(5.98613e-05 0.000417962 0.113585)
(0.000164103 0.000171691 0.12591)
(0.000649334 -0.000807898 0.086213)
(1.57503e-05 -1.33437e-05 0.127275)
(0.000382757 0.000669324 0.0830339)
(1.83095e-05 7.00576e-05 0.128183)
(-5.41783e-05 -0.000109064 0.116351)
(-5.98463e-05 0.000417847 0.113586)
(-0.000164226 0.000172096 0.125907)
(-0.000648699 -0.000806997 0.0862101)
(-1.60503e-05 -1.32579e-05 0.127274)
(-0.000380416 0.000668107 0.0830545)
(-1.84918e-05 7.01251e-05 0.128182)
(5.36685e-05 -0.00010904 0.116353)
(-0.00012537 0.000125714 0.123311)
(-0.000653972 0.000750435 0.0701037)
(-0.000749694 0.000653997 0.0701761)