/*--------------------------------*- C++ -*----------------------------------*\
| =========                 |                                                 |
| \\      /  F ield         | OpenFOAM: The Open Source CFD Toolbox           |
|  \\    /   O peration     | Version:  2206                                  |
|   \\  /    A nd           | Website:  www.openfoam.com                      |
|    \\/     M anipulation  |                                                 |
\*---------------------------------------------------------------------------*/
FoamFile
{
    version     2.0;
    format      ascii;
    arch        "LSB;label=32;scalar=64";
    class       volScalarField;
    location    "70";
    object      nut;
}
// * * * * * * * * * * * * * * * * * * * * * * * * * * * * * * * * * * * * * //

dimensions      [0 2 -1 0 0 0 0];

internalField   nonuniform List<scalar> 
66928
(
7.42916e-07
8.05654e-07
7.946e-07
7.90372e-07
7.47297e-07
8.03791e-07
7.62473e-07
7.47406e-07
1.37628e-06
1.36025e-06
1.79359e-08
1.75946e-08
9.60141e-08
9.40381e-08
3.91625e-08
1.8116e-07
3.80217e-08
1.6418e-07
1.73927e-07
9.66651e-07
3.77275e-07
3.97089e-08
1.64831e-07
9.66292e-07
1.80996e-07
3.74962e-07
1.79961e-08
9.65777e-08
9.62422e-08
1.8056e-08
1.82531e-07
3.96588e-08
1.79533e-08
1.80437e-08
1.76293e-08
1.77674e-08
9.61579e-08
9.38486e-08
7.47724e-07
9.74659e-08
9.55214e-08
1.81173e-08
1.8034e-08
1.78529e-08
1.77684e-08
7.67732e-07
9.66465e-08
9.52019e-08
9.73126e-08
9.52756e-08
1.78434e-08
1.50014e-07
2.62572e-07
9.56736e-08
3.73522e-08
3.75932e-08
2.65072e-07
1.50299e-07
1.50807e-07
2.6035e-07
9.33939e-08
3.65895e-08
3.66768e-08
2.62131e-07
1.50903e-07
5.93878e-08
1.57645e-08
1.57211e-08
1.57089e-08
1.5649e-08
5.90073e-08
3.95168e-08
8.74282e-08
8.72886e-08
1.60271e-08
8.43364e-08
1.5581e-08
1.39445e-07
3.09954e-08
2.62274e-08
8.72109e-08
1.59152e-08
3.11502e-08
1.37376e-07
2.64171e-08
1.50853e-07
2.64996e-07
9.58566e-08
3.7008e-08
2.6368e-07
3.71922e-08
1.52017e-07
1.53654e-07
2.69833e-07
9.66223e-08
3.81293e-08
3.82466e-08
2.66192e-07
1.5314e-07
6.18209e-08
1.60412e-08
1.61369e-08
1.59969e-08
1.60148e-08
6.02933e-08
1.80762e-08
3.99575e-08
8.92079e-08
8.87729e-08
1.60813e-08
1.8031e-08
1.79483e-08
1.76669e-08
1.78077e-08
5.84142e-08
1.58469e-08
1.58143e-08
1.57954e-08
1.57919e-08
5.83467e-08
1.48501e-07
2.6379e-07
3.75446e-08
9.69344e-08
1.5035e-07
3.7515e-08
2.63274e-07
1.50103e-07
2.59129e-07
3.70776e-08
9.42061e-08
1.4823e-07
3.69955e-08
2.63781e-07
5.94287e-08
1.57769e-08
1.57521e-08
5.93532e-08
1.58372e-08
1.57285e-08
1.49247e-07
3.73793e-08
9.69591e-08
2.68341e-07
3.73893e-08
1.50014e-07
2.67841e-07
1.50425e-07
3.68888e-08
9.49224e-08
2.60305e-07
3.72403e-08
1.51318e-07
2.63238e-07
1.81003e-08
1.8018e-08
1.78964e-08
1.78477e-08
5.84014e-08
1.58756e-08
1.58834e-08
5.95975e-08
1.57731e-08
1.5885e-08
1.48678e-07
2.63537e-07
9.74005e-08
3.74043e-08
3.77091e-08
2.67192e-07
1.51866e-07
1.49628e-07
2.64724e-07
9.55119e-08
3.7074e-08
3.73124e-08
2.64193e-07
1.50886e-07
1.50264e-07
3.78987e-08
2.68789e-07
9.77087e-08
1.47658e-07
3.76174e-08
2.689e-07
1.51322e-07
3.73827e-08
2.64182e-07
9.51366e-08
1.50317e-07
3.71291e-08
2.65008e-07
6.04343e-08
1.59736e-08
1.58989e-08
1.59553e-08
1.59355e-08
5.91449e-08
3.08298e-07
7.66714e-07
4.49579e-07
4.46937e-07
4.562e-07
4.49352e-07
3.03574e-07
3.12719e-07
7.62898e-07
4.5328e-07
4.58652e-07
4.5658e-07
4.58414e-07
3.13441e-07
3.06332e-07
4.54548e-07
4.53778e-07
7.4094e-07
3.08537e-07
4.54392e-07
4.41956e-07
3.05282e-07
7.59406e-07
4.53197e-07
4.47217e-07
4.59377e-07
4.49114e-07
3.04734e-07
1.17051e-06
1.17062e-06
5.35618e-07
3.84157e-07
1.81028e-07
2.64435e-07
3.87162e-07
2.62682e-07
5.32638e-07
5.29822e-07
3.75769e-07
1.73704e-07
2.63686e-07
3.78277e-07
2.60321e-07
5.21181e-07
5.82118e-07
3.74422e-07
3.41506e-07
6.2543e-07
3.40861e-07
6.42105e-07
5.73727e-07
5.28837e-07
3.77381e-07
1.80074e-07
2.66635e-07
2.64084e-07
3.8581e-07
5.15419e-07
5.8507e-07
3.7516e-07
6.25395e-07
3.40495e-07
6.3571e-07
3.3665e-07
5.72125e-07
5.37465e-07
3.91384e-07
1.81801e-07
2.71958e-07
3.93548e-07
2.67794e-07
5.34692e-07
3.08483e-07
7.6912e-07
4.51966e-07
4.41074e-07
3.06285e-07
4.57584e-07
4.5093e-07
3.03435e-07
7.45604e-07
4.58809e-07
4.55733e-07
3.04933e-07
4.51709e-07
4.4441e-07
1.37381e-06
7.96894e-07
8.00359e-07
7.68733e-07
1.365e-06
7.99474e-07
7.96298e-07
7.59831e-07
1.35567e-06
7.96373e-07
8.07442e-07
7.57984e-07
1.36126e-06
7.95054e-07
7.94868e-07
7.65087e-07
1.35897e-06
7.96986e-07
8.04582e-07
7.66487e-07
1.34561e-06
7.96245e-07
8.01103e-07
7.65886e-07
1.36138e-06
7.93358e-07
8.00621e-07
7.63034e-07
1.36398e-06
7.98932e-07
8.06882e-07
7.62894e-07
1.36328e-06
7.99846e-07
8.07527e-07
7.72253e-07
1.356e-06
7.97967e-07
7.98443e-07
7.67438e-07
1.3637e-06
7.96559e-07
8.01461e-07
7.62828e-07
1.35556e-06
7.95649e-07
7.99954e-07
7.68391e-07
1.35782e-06
7.96579e-07
8.09146e-07
7.60682e-07
1.3573e-06
8.02156e-07
8.09752e-07
7.60534e-07
1.3586e-06
7.92925e-07
8.03936e-07
7.63296e-07
1.36167e-06
7.99461e-07
8.10487e-07
7.61404e-07
1.35857e-06
8.00032e-07
8.06672e-07
7.64081e-07
8.06146e-07
7.98555e-07
7.98973e-07
8.05248e-07
7.68182e-07
7.39874e-07
7.93356e-07
7.98162e-07
7.94161e-07
7.94321e-07
7.94924e-07
7.98621e-07
7.79268e-07
7.58496e-07
7.44022e-07
7.94406e-07
8.04117e-07
7.94539e-07
7.42249e-07
7.65866e-07
7.43528e-07
8.06609e-07
7.96905e-07
8.01632e-07
7.95868e-07
7.59144e-07
7.47436e-07
7.94982e-07
7.9388e-07
7.85513e-07
7.92991e-07
7.87523e-07
8.00737e-07
7.85174e-07
7.57213e-07
7.51624e-07
8.02962e-07
8.05e-07
8.02865e-07
7.42661e-07
7.6051e-07
7.39379e-07
8.02303e-07
8.05089e-07
7.98466e-07
8.0086e-07
7.67409e-07
7.49537e-07
7.93888e-07
7.95301e-07
7.88735e-07
7.83462e-07
7.94079e-07
7.96665e-07
7.95389e-07
7.70896e-07
7.47568e-07
8.03098e-07
8.02416e-07
8.05848e-07
7.45567e-07
7.6659e-07
7.46003e-07
7.98611e-07
7.92968e-07
7.96197e-07
8.02397e-07
7.70404e-07
7.41064e-07
7.8621e-07
7.92285e-07
7.94996e-07
7.90929e-07
7.94295e-07
7.9656e-07
7.83479e-07
7.67014e-07
7.46443e-07
8.01406e-07
7.96773e-07
8.05034e-07
7.46924e-07
7.61474e-07
7.47948e-07
7.91407e-07
8.0258e-07
8.00807e-07
8.02491e-07
7.6913e-07
7.3596e-07
7.85549e-07
7.88135e-07
7.95616e-07
7.88887e-07
7.92533e-07
7.98706e-07
7.81573e-07
7.59413e-07
7.50925e-07
8.05755e-07
8.0191e-07
7.9872e-07
7.45067e-07
7.65876e-07
7.36934e-07
8.02565e-07
7.97245e-07
8.03948e-07
8.06033e-07
7.6218e-07
7.42909e-07
7.93446e-07
7.89746e-07
7.85708e-07
7.93952e-07
7.82187e-07
7.88828e-07
7.89414e-07
7.72535e-07
7.53269e-07
7.95623e-07
8.0399e-07
7.97718e-07
7.44521e-07
7.63155e-07
7.49026e-07
8.04422e-07
7.97368e-07
8.02232e-07
8.00716e-07
7.62112e-07
7.50152e-07
7.95083e-07
7.87979e-07
7.85849e-07
7.86114e-07
7.90313e-07
7.89402e-07
7.84237e-07
7.7439e-07
7.5747e-07
8.06075e-07
8.0825e-07
7.99213e-07
7.36404e-07
7.66525e-07
7.48892e-07
7.9584e-07
8.03491e-07
8.03656e-07
8.06145e-07
7.64494e-07
7.53662e-07
7.92531e-07
7.93619e-07
7.96468e-07
7.91009e-07
7.90291e-07
8.01319e-07
7.87379e-07
7.78013e-07
7.54356e-07
8.07515e-07
7.99294e-07
8.08938e-07
7.51738e-07
7.63973e-07
7.50066e-07
8.05214e-07
8.09473e-07
8.07691e-07
8.02953e-07
7.74234e-07
7.52924e-07
7.96509e-07
8.01241e-07
7.87698e-07
7.92255e-07
7.96439e-07
7.96742e-07
7.97432e-07
7.70195e-07
7.53416e-07
8.09981e-07
7.98229e-07
8.04356e-07
7.45781e-07
7.71259e-07
7.49131e-07
8.04699e-07
8.09506e-07
8.01006e-07
8.12785e-07
7.71656e-07
7.54791e-07
7.95055e-07
7.98405e-07
7.94058e-07
8.02174e-07
7.97797e-07
8.0137e-07
7.86617e-07
7.7203e-07
7.55844e-07
8.04528e-07
8.04275e-07
8.08775e-07
7.46984e-07
7.68591e-07
7.41895e-07
8.02321e-07
8.08396e-07
8.05008e-07
8.07346e-07
7.71611e-07
7.42883e-07
7.86343e-07
7.97932e-07
7.93828e-07
7.9313e-07
7.82216e-07
7.94251e-07
7.89995e-07
7.77586e-07
7.51851e-07
8.09768e-07
8.05812e-07
8.10679e-07
7.50171e-07
7.6438e-07
7.48495e-07
7.98634e-07
8.06424e-07
8.05821e-07
8.01329e-07
7.57245e-07
7.42188e-07
7.88922e-07
7.97081e-07
7.95569e-07
7.96925e-07
7.88645e-07
7.92209e-07
7.98719e-07
7.74115e-07
7.4944e-07
8.04616e-07
8.0827e-07
8.07561e-07
7.47733e-07
7.68655e-07
7.47981e-07
8.04494e-07
8.09495e-07
7.95597e-07
8.11181e-07
7.55354e-07
7.40459e-07
7.88457e-07
7.97616e-07
7.9276e-07
7.89163e-07
7.99379e-07
7.93604e-07
7.95292e-07
7.72625e-07
7.49328e-07
8.06731e-07
8.1149e-07
8.08248e-07
7.44788e-07
7.68857e-07
7.4167e-07
8.04906e-07
8.04371e-07
8.02694e-07
8.13516e-07
7.6878e-07
7.39652e-07
7.88652e-07
7.98993e-07
7.92353e-07
8.0139e-07
7.87147e-07
7.94328e-07
7.92188e-07
7.76692e-07
7.49109e-07
8.08149e-07
8.11388e-07
8.06058e-07
7.42122e-07
7.6268e-07
7.42181e-07
8.02295e-07
8.11167e-07
8.04192e-07
8.02261e-07
7.57153e-07
7.44313e-07
7.8526e-07
7.91295e-07
7.90515e-07
7.99765e-07
7.93967e-07
8.02067e-07
7.86024e-07
7.70271e-07
7.46629e-07
8.05656e-07
8.11021e-07
8.04678e-07
7.44535e-07
7.58225e-07
7.4448e-07
8.03099e-07
8.04472e-07
8.04142e-07
8.04322e-07
7.66232e-07
7.41313e-07
7.92105e-07
8.00544e-07
7.85331e-07
7.9814e-07
7.94975e-07
7.99754e-07
7.95538e-07
7.5993e-07
7.52757e-07
8.0595e-07
8.04227e-07
7.96228e-07
7.35713e-07
7.66355e-07
8.02889e-07
8.05643e-07
7.5703e-07
7.94524e-07
7.99405e-07
7.94793e-07
7.9055e-07
7.69657e-07
8.04243e-07
8.04825e-07
7.37326e-07
1.68352e-07
3.99507e-08
1.67164e-07
3.92116e-08
1.8303e-08
1.83232e-08
1.65465e-07
3.80009e-08
1.62253e-07
3.83285e-08
1.3814e-06
1.36308e-06
1.3676e-06
1.35493e-06
1.3696e-06
1.36431e-06
1.35519e-06
3.83467e-07
1.77216e-07
9.68026e-07
7.96298e-07
1.79668e-07
9.69311e-07
3.83855e-07
1.81277e-08
1.81232e-08
3.99709e-07
9.88994e-07
1.8322e-07
7.9679e-07
9.81809e-07
1.83621e-07
3.94094e-07
9.43905e-08
9.52314e-08
7.44112e-07
9.48489e-08
9.60457e-08
1.70382e-07
3.93938e-08
1.68491e-07
3.91199e-08
1.83912e-08
1.83916e-08
1.66136e-07
3.83853e-08
1.63342e-07
3.84849e-08
1.36996e-06
1.35497e-06
1.36678e-06
1.36496e-06
1.3677e-06
1.36035e-06
1.35253e-06
3.79444e-07
1.77158e-07
9.64526e-07
7.95536e-07
3.76796e-07
1.79714e-07
9.72594e-07
1.83188e-08
1.83474e-08
3.94713e-07
9.82576e-07
1.83386e-07
8.04304e-07
3.95593e-07
9.80705e-07
1.83969e-07
9.4723e-08
9.63517e-08
7.45257e-07
9.55194e-08
9.60222e-08
1.71934e-07
3.94943e-08
1.71865e-07
3.95301e-08
1.84765e-08
1.85101e-08
1.64198e-07
3.85074e-08
1.66051e-07
3.87428e-08
1.36082e-06
1.36468e-06
1.36182e-06
1.35268e-06
1.36414e-06
1.3586e-06
1.35861e-06
3.84489e-07
1.78404e-07
9.66645e-07
7.88215e-07
3.81807e-07
1.79834e-07
9.69116e-07
1.84121e-08
1.84436e-08
4.01832e-07
9.90393e-07
1.81714e-07
8.08402e-07
4.01901e-07
9.85078e-07
1.82941e-07
9.48689e-08
9.5854e-08
7.4734e-07
9.55009e-08
9.71468e-08
1.72044e-07
3.92816e-08
1.71786e-07
3.91591e-08
1.85208e-08
1.85887e-08
1.66055e-07
3.86377e-08
1.6478e-07
3.87631e-08
1.36812e-06
1.34998e-06
1.35761e-06
1.36126e-06
1.36535e-06
1.35388e-06
1.35479e-06
3.81241e-07
1.76002e-07
9.6646e-07
7.96267e-07
3.77242e-07
1.76834e-07
9.64889e-07
1.84854e-08
1.85088e-08
3.99156e-07
9.8713e-07
1.80976e-07
8.04442e-07
4.00124e-07
9.88607e-07
1.83367e-07
9.33368e-08
9.53864e-08
7.39584e-07
9.44387e-08
9.64828e-08
1.72865e-07
3.93138e-08
1.71109e-07
3.93314e-08
1.85923e-08
1.85684e-08
1.66392e-07
3.86662e-08
1.65181e-07
3.85025e-08
1.36844e-06
1.35988e-06
1.34928e-06
1.35337e-06
1.3673e-06
1.36642e-06
1.34999e-06
3.87167e-07
1.78561e-07
9.71285e-07
7.91909e-07
3.87254e-07
1.7818e-07
9.62959e-07
1.85319e-08
1.83749e-08
3.98527e-07
9.87266e-07
1.8212e-07
8.02664e-07
3.95547e-07
9.80597e-07
1.82006e-07
9.39286e-08
9.63e-08
7.42669e-07
9.53852e-08
9.64927e-08
1.7352e-07
3.92733e-08
1.7249e-07
3.92166e-08
1.84337e-08
1.84438e-08
1.65149e-07
3.86429e-08
1.63654e-07
3.89236e-08
1.37072e-06
1.36858e-06
1.3437e-06
1.35036e-06
1.36853e-06
1.36125e-06
1.36147e-06
3.85014e-07
1.79478e-07
9.71713e-07
7.99884e-07
3.89535e-07
1.80242e-07
9.73024e-07
1.85374e-08
1.83894e-08
3.96606e-07
9.87005e-07
1.84225e-07
8.00234e-07
3.92553e-07
9.8538e-07
1.82513e-07
9.44096e-08
9.49785e-08
7.35983e-07
9.55228e-08
9.58569e-08
1.7452e-07
3.93394e-08
1.72873e-07
3.94951e-08
1.84904e-08
1.84997e-08
1.68636e-07
3.84903e-08
1.65694e-07
3.8804e-08
1.36017e-06
1.36635e-06
1.35788e-06
1.36351e-06
1.36769e-06
1.36982e-06
1.35859e-06
3.86471e-07
1.79841e-07
9.72006e-07
7.88519e-07
3.85931e-07
1.77528e-07
9.72852e-07
1.84271e-08
1.83612e-08
3.95536e-07
9.80291e-07
1.82456e-07
7.97877e-07
3.9378e-07
9.85997e-07
1.83825e-07
9.4807e-08
9.57725e-08
7.4595e-07
9.5307e-08
9.63488e-08
1.73705e-07
3.94172e-08
1.7267e-07
3.95755e-08
1.84642e-08
1.85044e-08
1.65119e-07
3.86396e-08
1.66878e-07
3.89099e-08
1.36005e-06
1.37095e-06
1.36109e-06
1.36111e-06
1.37194e-06
1.36506e-06
1.36677e-06
3.891e-07
1.79675e-07
9.72495e-07
8.00004e-07
3.85689e-07
1.79316e-07
9.65312e-07
1.8389e-08
1.81059e-08
3.98136e-07
9.83096e-07
1.81134e-07
8.08298e-07
3.9829e-07
9.90333e-07
1.81601e-07
9.45934e-08
9.52688e-08
7.47472e-07
9.51925e-08
9.61586e-08
1.76188e-07
3.97208e-08
1.76269e-07
3.9647e-08
1.85131e-08
1.8497e-08
1.6884e-07
3.88237e-08
1.6595e-07
3.88924e-08
1.37588e-06
1.36681e-06
1.36632e-06
1.36391e-06
1.37565e-06
1.37089e-06
1.36235e-06
3.8882e-07
1.79123e-07
9.73576e-07
8.01467e-07
3.89156e-07
1.79874e-07
9.74451e-07
1.83424e-08
1.82141e-08
3.99555e-07
9.86561e-07
1.81635e-07
8.05975e-07
3.98718e-07
9.89119e-07
1.81865e-07
9.4496e-08
9.46105e-08
7.42357e-07
9.56854e-08
9.53153e-08
1.75176e-07
3.94476e-08
1.72462e-07
3.9397e-08
1.84731e-08
1.83696e-08
1.69144e-07
3.88155e-08
1.67337e-07
3.8754e-08
1.37826e-06
1.36592e-06
1.35667e-06
1.36159e-06
1.37158e-06
1.36928e-06
1.35757e-06
3.8559e-07
1.78586e-07
9.67428e-07
7.98843e-07
3.80063e-07
1.79698e-07
9.76043e-07
1.8216e-08
1.81979e-08
3.94423e-07
9.84191e-07
1.82495e-07
8.04605e-07
3.97886e-07
9.91908e-07
1.83232e-07
9.36105e-08
9.53211e-08
7.49741e-07
9.50949e-08
9.61765e-08
1.73587e-07
3.94126e-08
1.74077e-07
3.92724e-08
1.83793e-08
1.83595e-08
1.67983e-07
3.86816e-08
1.64797e-07
3.86879e-08
1.38212e-06
1.36153e-06
1.3685e-06
1.3513e-06
1.37928e-06
1.36576e-06
1.35565e-06
3.84301e-07
1.80063e-07
9.6545e-07
7.97678e-07
3.85285e-07
1.80735e-07
9.72672e-07
1.8325e-08
1.81548e-08
4.00784e-07
9.86957e-07
1.81065e-07
7.99147e-07
3.96031e-07
9.88589e-07
1.83605e-07
9.42378e-08
9.54191e-08
7.49462e-07
9.47214e-08
9.59615e-08
1.75926e-07
3.91703e-08
1.73819e-07
3.9312e-08
1.82422e-08
1.83618e-08
1.68057e-07
3.85053e-08
1.65157e-07
3.8245e-08
1.38002e-06
1.36095e-06
1.36406e-06
1.36184e-06
1.36708e-06
1.36929e-06
1.36609e-06
3.87173e-07
1.78083e-07
9.72269e-07
7.90192e-07
3.83953e-07
1.80401e-07
9.72655e-07
1.83326e-08
1.81884e-08
4.00075e-07
9.88942e-07
1.81265e-07
8.00606e-07
3.9891e-07
9.8707e-07
1.82543e-07
9.4451e-08
9.48417e-08
7.47633e-07
9.4676e-08
9.60533e-08
1.73795e-07
3.93836e-08
1.73626e-07
3.94524e-08
1.8412e-08
1.83454e-08
1.68087e-07
3.84576e-08
1.64618e-07
3.85488e-08
1.37963e-06
1.36364e-06
1.37005e-06
1.35333e-06
1.37517e-06
1.3655e-06
1.35877e-06
3.8736e-07
1.78694e-07
9.68407e-07
7.96614e-07
3.87993e-07
1.80007e-07
9.699e-07
1.81829e-08
1.79693e-08
4.01581e-07
9.87699e-07
1.83636e-07
8.06531e-07
4.01126e-07
9.85436e-07
1.81189e-07
9.48679e-08
9.53069e-08
7.48304e-07
9.54254e-08
9.57203e-08
1.72392e-07
3.94212e-08
1.73908e-07
3.93435e-08
1.83251e-08
1.81821e-08
1.66662e-07
3.84714e-08
1.67045e-07
3.86689e-08
1.37904e-06
1.3755e-06
1.36207e-06
1.36674e-06
1.38147e-06
1.37169e-06
1.3627e-06
3.87402e-07
1.79466e-07
9.73054e-07
8.0044e-07
3.83684e-07
1.76286e-07
9.68984e-07
1.80457e-08
1.78778e-08
3.95389e-07
9.89608e-07
1.81662e-07
8.06352e-07
3.99243e-07
9.90305e-07
1.83193e-07
9.37448e-08
9.44799e-08
7.47143e-07
9.47337e-08
9.50691e-08
1.73775e-07
3.94513e-08
1.74369e-07
3.92708e-08
1.82323e-08
1.81913e-08
1.67387e-07
3.8428e-08
1.65139e-07
3.83785e-08
1.38153e-06
1.36966e-06
1.36515e-06
1.35482e-06
1.37456e-06
1.3715e-06
1.3678e-06
3.84709e-07
1.78268e-07
9.72223e-07
8.00661e-07
3.85982e-07
1.78235e-07
9.72698e-07
1.80304e-08
1.80354e-08
4.02149e-07
9.89213e-07
1.83065e-07
8.10924e-07
4.01948e-07
9.88609e-07
1.83114e-07
9.41623e-08
9.41638e-08
7.42185e-07
9.45012e-08
9.58141e-08
1.73642e-07
3.93657e-08
1.72605e-07
3.92903e-08
1.82951e-08
1.82658e-08
1.68054e-07
3.82522e-08
1.66621e-07
3.86431e-08
1.37654e-06
1.37182e-06
1.37181e-06
1.36391e-06
1.37085e-06
1.37106e-06
1.36675e-06
3.82899e-07
1.78731e-07
9.77771e-07
7.91173e-07
3.88062e-07
1.79496e-07
9.7847e-07
1.82242e-08
1.81705e-08
4.0011e-07
9.8493e-07
1.83441e-07
8.04765e-07
4.03139e-07
9.82759e-07
1.84167e-07
9.40619e-08
9.45392e-08
7.41064e-07
9.41971e-08
9.53492e-08
1.72945e-07
3.92081e-08
1.74985e-07
3.91753e-08
1.82561e-08
1.8288e-08
1.68456e-07
3.84196e-08
1.6688e-07
3.85795e-08
1.37572e-06
1.37296e-06
1.36741e-06
1.36103e-06
3.8527e-07
1.76383e-07
9.75974e-07
7.93697e-07
3.85777e-07
1.79872e-07
9.75863e-07
1.82321e-08
1.81573e-08
3.96263e-07
9.87444e-07
1.79113e-07
8.01405e-07
3.99259e-07
9.86678e-07
1.83007e-07
9.48037e-08
9.46069e-08
7.46091e-07
9.55424e-08
9.56364e-08
1.66728e-07
4.00554e-08
4.01549e-08
1.64034e-07
3.88723e-07
1.81983e-07
9.84631e-07
8.07556e-07
9.84988e-07
3.92084e-07
1.81722e-07
3.91991e-07
1.83342e-07
9.79617e-07
8.07722e-07
1.85295e-07
9.75662e-07
3.92548e-07
1.67842e-07
3.94872e-08
1.69993e-07
3.96434e-08
1.66247e-07
4.01541e-08
4.08261e-08
1.6761e-07
3.87107e-07
8.05683e-07
1.79385e-07
9.81367e-07
9.75801e-07
3.91075e-07
1.81271e-07
3.87677e-07
8.06936e-07
1.81764e-07
9.8267e-07
1.85046e-07
9.83643e-07
3.91393e-07
9.75871e-08
9.48733e-08
7.4183e-07
9.77106e-08
9.56195e-08
1.79232e-08
1.79644e-08
1.83681e-08
1.83275e-08
7.69021e-07
9.85376e-08
9.63128e-08
9.81563e-08
9.53286e-08
1.80522e-08
1.79731e-08
3.81663e-07
1.76307e-07
9.65983e-07
7.94786e-07
9.60133e-07
3.7674e-07
1.78178e-07
1.66111e-07
3.95967e-08
3.94202e-08
1.65956e-07
3.79271e-07
9.74225e-07
1.81264e-07
7.94908e-07
9.72484e-07
1.82756e-07
3.7717e-07
1.64458e-07
3.85262e-08
1.65372e-07
3.86655e-08
3.78524e-07
7.87353e-07
1.77903e-07
9.6713e-07
9.67421e-07
3.75042e-07
1.77105e-07
1.6417e-07
3.97071e-08
4.02287e-08
1.67767e-07
3.81677e-07
7.86266e-07
9.68249e-07
1.8075e-07
9.63316e-07
1.82654e-07
3.80668e-07
1.68981e-07
3.91562e-08
3.91197e-08
1.66284e-07
3.7791e-07
9.61414e-07
1.77785e-07
7.83318e-07
9.68538e-07
1.78667e-07
3.79396e-07
1.69132e-07
3.87105e-08
3.89628e-08
1.65876e-07
3.79912e-07
7.96296e-07
1.79801e-07
9.67108e-07
1.78853e-07
9.69191e-07
3.79571e-07
1.67939e-07
3.88554e-08
3.9703e-08
1.6973e-07
3.84062e-07
7.87111e-07
9.62035e-07
1.78906e-07
9.66962e-07
1.78052e-07
3.81033e-07
1.68559e-07
3.91015e-08
3.91795e-08
1.69722e-07
9.58742e-08
9.72807e-08
7.43468e-07
9.67507e-08
9.80088e-08
1.8045e-08
1.81628e-08
1.82924e-08
1.82143e-08
7.61215e-07
9.71615e-08
9.82973e-08
9.64968e-08
9.76989e-08
1.82177e-08
1.81563e-08
3.92186e-07
9.8877e-07
1.7953e-07
8.04024e-07
9.82311e-07
1.82537e-07
3.99514e-07
1.75003e-07
4.01378e-08
4.00306e-08
1.73774e-07
1.72634e-07
3.96079e-08
4.0096e-08
1.73518e-07
3.96385e-07
8.0612e-07
9.86923e-07
1.83491e-07
9.89128e-07
1.80338e-07
3.89776e-07
3.97137e-07
8.02068e-07
9.79602e-07
1.80657e-07
9.85926e-07
1.81408e-07
3.92985e-07
1.73118e-07
3.99917e-08
4.00506e-08
1.74771e-07
1.72241e-07
4.01693e-08
4.05165e-08
1.74871e-07
1.78733e-08
1.7843e-08
1.79669e-08
1.80803e-08
7.5767e-07
9.57634e-08
9.71725e-08
9.47619e-08
9.59402e-08
1.79473e-08
1.78509e-08
1.82361e-08
1.79862e-08
1.8103e-08
1.80102e-08
1.7891e-08
1.78525e-08
9.68719e-08
9.57366e-08
7.48121e-07
9.66839e-08
9.4729e-08
1.80701e-08
1.80227e-08
1.79134e-08
1.79001e-08
7.68116e-07
9.76537e-08
9.45788e-08
9.60377e-08
9.38072e-08
1.71437e-07
4.07026e-08
1.70148e-07
4.03415e-08
3.93848e-07
1.81529e-07
9.81873e-07
7.99083e-07
3.93664e-07
1.81855e-07
9.8152e-07
3.86718e-07
1.84559e-07
9.76601e-07
8.04861e-07
3.93831e-07
1.85404e-07
9.85029e-07
1.68634e-07
3.94224e-08
3.99483e-08
1.72275e-07
1.71051e-07
4.04797e-08
4.07448e-08
1.70179e-07
3.89545e-07
7.99763e-07
1.7914e-07
9.7708e-07
1.82541e-07
9.83737e-07
3.94608e-07
3.91792e-07
8.02989e-07
1.85998e-07
9.83666e-07
1.83483e-07
9.8529e-07
3.93384e-07
9.80703e-08
9.55489e-08
7.47886e-07
9.7544e-08
9.65118e-08
1.80419e-08
1.80762e-08
1.8502e-08
1.83894e-08
7.598e-07
9.92165e-08
9.72004e-08
9.86372e-08
9.5739e-08
1.81238e-08
1.80903e-08
3.79219e-07
1.77508e-07
9.6609e-07
7.90647e-07
3.81423e-07
1.76345e-07
9.61948e-07
1.65991e-07
3.97265e-08
1.67284e-07
3.9696e-08
3.81846e-07
9.69874e-07
1.80844e-07
7.92493e-07
3.8352e-07
9.66018e-07
1.82923e-07
1.64939e-07
3.89543e-08
3.8857e-08
1.67702e-07
3.75036e-07
7.91341e-07
1.79472e-07
9.61314e-07
1.7866e-07
9.60924e-07
3.76627e-07
1.64921e-07
3.9788e-08
4.00878e-08
1.67128e-07
3.78164e-07
7.93651e-07
9.68946e-07
1.83054e-07
9.67749e-07
1.82159e-07
3.80063e-07
1.69749e-07
3.91458e-08
1.69463e-07
3.89198e-08
3.81232e-07
9.59945e-07
1.76453e-07
7.88048e-07
3.83108e-07
9.68448e-07
1.7933e-07
1.70438e-07
3.94004e-08
1.69206e-07
3.88076e-08
3.76815e-07
7.91642e-07
1.79645e-07
9.60555e-07
1.79787e-07
9.68607e-07
3.7613e-07
1.68578e-07
3.92393e-08
3.93555e-08
1.66853e-07
3.83509e-07
7.87106e-07
9.65011e-07
1.78346e-07
9.67538e-07
1.78433e-07
3.80123e-07
1.69884e-07
3.91749e-08
3.96444e-08
1.71103e-07
9.67372e-08
9.80939e-08
7.4803e-07
9.77135e-08
9.76987e-08
1.82127e-08
1.81828e-08
1.83899e-08
1.83859e-08
7.61393e-07
9.77919e-08
9.81137e-08
9.68991e-08
9.63645e-08
1.82555e-08
1.80802e-08
3.99082e-07
9.76361e-07
1.83031e-07
8.03676e-07
3.98357e-07
9.85663e-07
1.84251e-07
1.75213e-07
4.04893e-08
1.7369e-07
3.96811e-08
1.74079e-07
4.03814e-08
1.75037e-07
4.02007e-08
4.00985e-07
8.05233e-07
9.88487e-07
1.8427e-07
9.88863e-07
1.81107e-07
3.96168e-07
3.99802e-07
8.05067e-07
9.88496e-07
1.84852e-07
9.87203e-07
1.84519e-07
3.93473e-07
1.76305e-07
3.97531e-08
4.005e-08
1.75925e-07
1.74523e-07
3.99322e-08
4.04956e-08
1.75774e-07
1.78029e-08
1.7854e-08
1.81109e-08
1.81596e-08
7.65532e-07
9.57979e-08
9.71971e-08
9.55811e-08
9.65891e-08
1.79846e-08
1.79702e-08
1.82236e-08
1.80879e-08
1.81141e-08
1.82223e-08
1.79196e-08
1.79732e-08
9.72821e-08
9.55526e-08
7.42517e-07
9.77906e-08
9.60426e-08
1.81335e-08
1.81663e-08
1.80586e-08
1.80932e-08
7.64863e-07
9.76966e-08
9.58333e-08
9.72492e-08
9.62475e-08
1.73365e-07
4.05826e-08
1.7207e-07
4.03962e-08
3.93931e-07
1.8051e-07
9.81502e-07
7.99695e-07
3.9453e-07
1.80121e-07
9.82341e-07
3.95449e-07
1.8561e-07
9.77961e-07
8.06019e-07
3.93567e-07
1.83407e-07
9.86293e-07
1.70338e-07
3.95094e-08
3.96067e-08
1.72437e-07
1.73226e-07
4.04519e-08
4.0477e-08
1.73227e-07
3.96039e-07
7.90958e-07
1.81678e-07
9.81412e-07
1.80858e-07
9.75466e-07
3.96606e-07
3.9572e-07
8.06855e-07
1.84129e-07
9.81737e-07
1.85287e-07
9.86279e-07
3.9419e-07
9.90614e-08
9.63974e-08
7.4969e-07
9.9069e-08
9.68311e-08
1.81744e-08
1.81013e-08
1.84432e-08
1.84811e-08
7.69239e-07
9.88147e-08
9.70928e-08
9.87942e-08
9.6445e-08
1.81067e-08
1.81227e-08
3.74691e-07
1.79354e-07
9.59554e-07
7.8484e-07
3.79979e-07
1.7962e-07
9.67556e-07
1.67259e-07
4.01398e-08
1.6452e-07
3.98872e-08
3.79856e-07
9.67657e-07
1.82289e-07
7.93967e-07
3.77843e-07
9.69565e-07
1.828e-07
1.64554e-07
3.90324e-08
3.91909e-08
1.66143e-07
3.81785e-07
7.91227e-07
1.7883e-07
9.5974e-07
1.76881e-07
9.66929e-07
3.76785e-07
1.66065e-07
3.99522e-08
4.04712e-08
1.65556e-07
3.82712e-07
7.87219e-07
9.62075e-07
1.80427e-07
9.65916e-07
1.79703e-07
3.78373e-07
1.69968e-07
3.9764e-08
1.68508e-07
3.93595e-08
3.82399e-07
9.62396e-07
1.78591e-07
7.87934e-07
3.87028e-07
9.7089e-07
1.80401e-07
1.69058e-07
3.97421e-08
1.7059e-07
3.93211e-08
3.85265e-07
7.94529e-07
1.79994e-07
9.60228e-07
1.79612e-07
9.66088e-07
3.80194e-07
1.68431e-07
3.92981e-08
3.96834e-08
1.71132e-07
3.84748e-07
7.9504e-07
9.72048e-07
1.78619e-07
9.71658e-07
1.79666e-07
3.84827e-07
1.70386e-07
3.88712e-08
3.92877e-08
1.70061e-07
9.75213e-08
9.69583e-08
7.4994e-07
9.81621e-08
9.83274e-08
1.82148e-08
1.8324e-08
1.84959e-08
1.84451e-08
7.67265e-07
9.84603e-08
9.72251e-08
9.6981e-08
9.71662e-08
1.82415e-08
1.82677e-08
3.99092e-07
9.8919e-07
1.82893e-07
8.05076e-07
3.98157e-07
9.89843e-07
1.84118e-07
1.75605e-07
4.03077e-08
1.75824e-07
4.0061e-08
1.74729e-07
4.03783e-08
1.73338e-07
4.00552e-08
3.98966e-07
7.98309e-07
9.91828e-07
1.83157e-07
9.91236e-07
1.82498e-07
3.98763e-07
3.99005e-07
8.05566e-07
9.91024e-07
1.8447e-07
9.90285e-07
1.84203e-07
3.99144e-07
1.7549e-07
3.96227e-08
4.0554e-08
1.76049e-07
1.73426e-07
4.02561e-08
4.04189e-08
1.73104e-07
1.78373e-08
1.78739e-08
1.81041e-08
1.82216e-08
7.6661e-07
9.31905e-08
9.74542e-08
9.51571e-08
9.68847e-08
1.77488e-08
1.78821e-08
1.82465e-08
1.81448e-08
1.81394e-08
1.81731e-08
1.81288e-08
1.79643e-08
9.65259e-08
9.6652e-08
7.44994e-07
9.79046e-08
9.51759e-08
1.80891e-08
1.81576e-08
1.78504e-08
1.7933e-08
7.65185e-07
9.79003e-08
9.59063e-08
9.72854e-08
9.40112e-08
1.73809e-07
4.08786e-08
1.7198e-07
4.04152e-08
3.90719e-07
1.80233e-07
9.78327e-07
7.99639e-07
3.92092e-07
1.81287e-07
9.86276e-07
3.91748e-07
1.82049e-07
9.78128e-07
8.00956e-07
3.95517e-07
1.8632e-07
9.86419e-07
1.70006e-07
3.94622e-08
3.96299e-08
1.71529e-07
1.74385e-07
4.06414e-08
4.09439e-08
1.74218e-07
3.96391e-07
7.9694e-07
1.81732e-07
9.88359e-07
1.80989e-07
9.87185e-07
3.96173e-07
3.98022e-07
8.03504e-07
1.87116e-07
9.86818e-07
1.83398e-07
9.80805e-07
3.99117e-07
9.84565e-08
9.61598e-08
7.49799e-07
9.85741e-08
9.67568e-08
1.80527e-08
1.81251e-08
1.85382e-08
1.85625e-08
7.68086e-07
9.89018e-08
9.57429e-08
9.91987e-08
9.63713e-08
1.81607e-08
1.80849e-08
3.7981e-07
1.79975e-07
9.66902e-07
7.95783e-07
3.79881e-07
1.77097e-07
9.65453e-07
1.65171e-07
4.04042e-08
1.67125e-07
4.00278e-08
3.80709e-07
9.69995e-07
1.81471e-07
7.91673e-07
3.81108e-07
9.67116e-07
1.83556e-07
1.65492e-07
3.89819e-08
3.91336e-08
1.66967e-07
3.81295e-07
7.95221e-07
1.79277e-07
9.58537e-07
1.79109e-07
9.60991e-07
3.73691e-07
1.65886e-07
4.00526e-08
4.04787e-08
1.68454e-07
3.81969e-07
7.92784e-07
9.67251e-07
1.82722e-07
9.60493e-07
1.82381e-07
3.8025e-07
1.71343e-07
3.96827e-08
1.7024e-07
3.93369e-08
3.83542e-07
9.64301e-07
1.77759e-07
7.87077e-07
3.85415e-07
9.56752e-07
1.79325e-07
1.68356e-07
3.90551e-08
1.69423e-07
3.88382e-08
3.82622e-07
7.94908e-07
1.79914e-07
9.70737e-07
1.77698e-07
9.62423e-07
3.83616e-07
1.7085e-07
3.93623e-08
3.96598e-08
1.70549e-07
3.83113e-07
7.86323e-07
9.64988e-07
1.78513e-07
9.62803e-07
1.79188e-07
3.86198e-07
1.68866e-07
3.91118e-08
3.9348e-08
1.69493e-07
9.78352e-08
9.78649e-08
7.46213e-07
9.78834e-08
9.77011e-08
1.81593e-08
1.82352e-08
1.84485e-08
1.85291e-08
7.6235e-07
9.81689e-08
9.70543e-08
9.78368e-08
9.65915e-08
1.8229e-08
1.81209e-08
3.99898e-07
9.9129e-07
1.84113e-07
8.02655e-07
4.00098e-07
9.87525e-07
1.84541e-07
1.73348e-07
3.97522e-08
1.76133e-07
3.95784e-08
1.73295e-07
4.05916e-08
1.74278e-07
3.99199e-08
4.01043e-07
8.03972e-07
9.88547e-07
1.83615e-07
9.89847e-07
1.83265e-07
3.98509e-07
4.00957e-07
8.0453e-07
9.91796e-07
1.83188e-07
9.84218e-07
1.83925e-07
3.97394e-07
1.74871e-07
3.94536e-08
4.01884e-08
1.73954e-07
1.73522e-07
3.97704e-08
3.98272e-08
1.74119e-07
1.76808e-08
1.77324e-08
1.81174e-08
1.81399e-08
7.57058e-07
9.55473e-08
9.60111e-08
9.44531e-08
9.6037e-08
1.79417e-08
1.77257e-08
1.81349e-08
1.80103e-08
1.81864e-08
1.82105e-08
1.79707e-08
1.78505e-08
9.72962e-08
9.53672e-08
7.48263e-07
9.80644e-08
9.59618e-08
1.81942e-08
1.81634e-08
1.79123e-08
1.79779e-08
7.67364e-07
9.72358e-08
9.53248e-08
9.70323e-08
9.49206e-08
1.75004e-07
4.07827e-08
1.71681e-07
4.0303e-08
3.95306e-07
1.82047e-07
9.8565e-07
7.89864e-07
3.93043e-07
1.82845e-07
9.86281e-07
3.98063e-07
1.85966e-07
9.8922e-07
8.04421e-07
3.97232e-07
1.83994e-07
9.89485e-07
1.71025e-07
3.90593e-08
3.9654e-08
1.73437e-07
1.7488e-07
4.02378e-08
4.10064e-08
1.73633e-07
3.96286e-07
7.99513e-07
1.81549e-07
9.81187e-07
1.82804e-07
9.87697e-07
3.94138e-07
3.96479e-07
8.01382e-07
1.8487e-07
9.83086e-07
1.84368e-07
9.85572e-07
3.9966e-07
9.81023e-08
9.611e-08
7.43405e-07
9.91964e-08
9.56887e-08
1.81344e-08
1.80375e-08
1.84722e-08
1.84275e-08
7.59907e-07
9.80589e-08
9.68131e-08
9.79707e-08
9.64842e-08
1.81764e-08
1.81616e-08
3.77473e-07
1.78467e-07
9.665e-07
7.91558e-07
3.81064e-07
1.79473e-07
9.66082e-07
1.66687e-07
4.04863e-08
1.67839e-07
4.00072e-08
3.81436e-07
9.67941e-07
1.81846e-07
7.8499e-07
3.82611e-07
9.67889e-07
1.82229e-07
1.66713e-07
3.89041e-08
3.85699e-08
1.67071e-07
3.81694e-07
7.87419e-07
1.80108e-07
9.65182e-07
1.7738e-07
9.65822e-07
3.73723e-07
1.6749e-07
4.00213e-08
4.03148e-08
1.67674e-07
3.82909e-07
7.94666e-07
9.69799e-07
1.81927e-07
9.70185e-07
1.81654e-07
3.80094e-07
1.70875e-07
3.99657e-08
1.68074e-07
3.94362e-08
3.7999e-07
9.65224e-07
1.77945e-07
7.83888e-07
3.81851e-07
9.67462e-07
1.75001e-07
1.69858e-07
3.94934e-08
1.6776e-07
3.86773e-08
3.84285e-07
7.97569e-07
1.80819e-07
9.70685e-07
1.79563e-07
9.68641e-07
3.83754e-07
1.68993e-07
3.96704e-08
3.9935e-08
1.71064e-07
3.83863e-07
7.87814e-07
9.69556e-07
1.77298e-07
9.68499e-07
1.76242e-07
3.80409e-07
1.67335e-07
3.882e-08
3.90251e-08
1.69808e-07
9.78618e-08
9.77747e-08
7.40648e-07
9.78233e-08
9.82245e-08
1.82229e-08
1.82042e-08
1.84365e-08
1.83969e-08
7.65649e-07
9.84604e-08
9.81529e-08
9.75971e-08
9.68066e-08
1.82852e-08
1.8244e-08
3.99533e-07
9.92185e-07
1.80584e-07
7.97279e-07
4.00146e-07
9.92327e-07
1.83245e-07
1.71596e-07
3.99362e-08
1.73517e-07
3.9684e-08
1.72845e-07
3.99189e-08
1.74254e-07
3.95705e-08
3.99613e-07
8.03142e-07
9.87098e-07
1.84902e-07
9.87974e-07
1.82793e-07
3.97499e-07
3.9932e-07
7.96003e-07
9.8984e-07
1.83082e-07
9.90009e-07
1.82338e-07
3.99328e-07
1.73918e-07
3.98279e-08
3.96709e-08
1.72526e-07
1.73051e-07
3.9728e-08
3.9928e-08
1.72012e-07
1.78487e-08
1.7833e-08
1.80954e-08
1.80105e-08
7.59151e-07
9.43964e-08
9.61702e-08
9.50612e-08
9.63891e-08
1.79239e-08
1.79023e-08
1.80582e-08
1.80698e-08
1.81751e-08
1.81567e-08
1.79408e-08
1.79179e-08
9.79076e-08
9.41381e-08
7.44387e-07
9.81934e-08
9.55189e-08
1.81401e-08
1.81226e-08
1.79426e-08
1.79714e-08
7.63981e-07
9.79335e-08
9.57862e-08
9.69049e-08
9.47668e-08
1.75283e-07
4.06498e-08
1.71298e-07
4.03976e-08
3.94709e-07
1.81721e-07
9.86971e-07
8.03572e-07
3.94323e-07
1.82559e-07
9.89488e-07
3.98578e-07
1.84447e-07
9.81353e-07
8.05845e-07
3.9422e-07
1.86217e-07
9.89486e-07
1.72997e-07
3.95525e-08
3.97071e-08