/*--------------------------------*- C++ -*----------------------------------*\
| =========                 |                                                 |
| \\      /  F ield         | OpenFOAM: The Open Source CFD Toolbox           |
|  \\    /   O peration     | Version:  2206                                  |
|   \\  /    A nd           | Website:  www.openfoam.com                      |
|    \\/     M anipulation  |                                                 |
\*---------------------------------------------------------------------------*/
FoamFile
{
    version     2.0;
    format      ascii;
    arch        "LSB;label=32;scalar=64";
    class       surfaceScalarField;
    location    "70";
    object      phi;
}
// * * * * * * * * * * * * * * * * * * * * * * * * * * * * * * * * * * * * * //

dimensions      [0 3 -1 0 0 0 0];

oriented        oriented;

internalField   nonuniform List<scalar> 
197159
(
-3.59576e-11
-3.94692e-11
2.72363e-08
-2.70842e-08
-3.88409e-11
-3.78484e-11
-4.79153e-12
-3.54459e-11
-1.54079e-11
1.42781e-11
-2.24375e-11
-2.6121e-11
2.40263e-11
2.19233e-11
1.14607e-07
2.02536e-11
6.6219e-12
-1.38377e-11
-3.85428e-11
-3.12742e-11
3.09732e-11
5.70247e-11
-5.55631e-11
5.44956e-11
-5.61213e-11
1.12546e-07
3.15912e-11
5.15392e-11
-2.36842e-12
-8.61675e-12
-2.76198e-11
3.11186e-11
3.65517e-11
-5.51782e-11
5.31352e-11
-3.72898e-11
1.13583e-07
-3.16319e-11
-2.71072e-08
-4.78834e-11
-2.22656e-11
2.72405e-08
-3.20122e-11
-1.08205e-10
-3.01844e-11
-4.19876e-11
2.25454e-12
-2.57997e-11
3.6426e-11
-1.5346e-12
1.13534e-07
-1.54373e-11
3.91343e-11
3.84684e-11
2.70844e-08
3.57217e-11
3.86061e-11
-2.70844e-08
-3.86567e-11
-3.77768e-11
-3.59498e-11
-3.90748e-11
2.72358e-08
-5.29928e-11
1.18637e-07
7.68972e-11
-8.3501e-12
1.1893e-07
-1.55063e-11
2.51283e-12
-1.27439e-14
7.15824e-09
-7.16335e-09
2.6123e-12
3.49373e-12
2.1372e-12
7.0169e-09
2.64732e-12
2.30162e-12
2.28842e-08
1.51022e-11
-2.2899e-08
-9.8971e-14
8.34373e-12
2.24017e-08
2.13668e-11
-2.24242e-08
-3.63153e-12
3.95319e-12
-1.43318e-08
1.24761e-12
1.43241e-08
2.49543e-12
1.0125e-11
-2.21191e-08
5.5395e-12
2.21097e-08
1.14729e-11
4.08137e-12
1.40044e-08
2.03796e-12
4.77577e-11
1.44133e-13
-4.56857e-12
-1.35416e-11
2.05398e-08
2.74421e-11
-2.17504e-08
1.40532e-11
2.17287e-08
-6.34543e-13
7.52303e-12
9.39036e-11
-1.25982e-10
1.2655e-10
-9.43042e-11
1.15624e-07
-2.31565e-14
-2.43646e-08
-1.02486e-11
9.04206e-11
2.43322e-08
1.17353e-11
-1.95226e-12
3.78806e-12
1.40047e-08
2.03924e-12
4.78071e-11
-1.3586e-11
-4.34965e-12
2.05354e-08
3.09549e-12
7.65562e-11
-1.25392e-10
1.26203e-10
-7.61141e-11
1.16861e-07
-8.49065e-12
2.77935e-11
-2.17352e-08
1.39147e-11
2.17137e-08
-2.43611e-08
9.05041e-11
-9.95405e-12
2.43283e-08
3.76155e-12
7.01826e-09
2.66058e-12
2.15306e-11
-2.24774e-08
-3.03575e-12
2.24542e-08
-1.70642e-12
2.47644e-12
1.45111e-11
-2.28559e-08
-3.47253e-13
2.2841e-08
-3.49365e-13
-7.16504e-09
7.16013e-09
3.54506e-12
-3.66897e-12
9.79861e-12
-2.21299e-08
5.86003e-12
2.21204e-08
-1.43369e-08
1.23563e-12
1.43288e-08
2.93494e-12
-8.77058e-13
7.16297e-09
3.43885e-13
-4.20849e-12
2.38576e-12
7.15754e-09
-7.16255e-09
-5.4042e-13
3.16366e-12
-4.52332e-12
7.02549e-09
-1.66921e-12
-2.37981e-12
3.39779e-12
7.01729e-09
-7.0256e-09
1.99616e-12
2.91226e-12
-1.39418e-11
4.48199e-13
2.28994e-08
-2.56037e-12
-2.14937e-11
3.09706e-12
2.24238e-08
-8.32973e-12
2.72361e-08
-2.70842e-08
-3.86307e-11
-3.77929e-11
-3.61617e-11
-3.92613e-11
2.28853e-08
3.12093e-13
-2.29005e-08
1.50216e-11
2.21165e-12
2.24018e-08
-3.43824e-12
-2.24245e-08
2.12636e-11
8.21972e-12
2.42651e-12
-7.16214e-09
-3.83165e-13
7.15711e-09
2.99391e-12
-1.12619e-12
7.1624e-09
8.33895e-14
-3.8139e-12
3.9743e-12
-7.02596e-09
2.06273e-12
7.01749e-09
2.43501e-12
-4.55393e-12
7.0259e-09
-1.83504e-12
-2.22295e-12
2.70846e-08
3.92745e-11
3.84944e-11
3.54842e-11
3.82677e-11
1.48102e-11
-2.29009e-08
-1.04514e-13
2.21319e-12
2.28864e-08
2.14111e-11
-2.24242e-08
-3.48831e-12
8.20453e-12
2.24021e-08
7.19671e-13
-1.4117e-11
2.29002e-08
-2.60583e-12
3.32318e-12
-2.14757e-11
2.24239e-08
-8.43903e-12
-1.63582e-12
7.06709e-13
-4.07754e-12
-7.15835e-09
5.75108e-12
-1.71859e-11
2.05218e-08
1.13547e-11
-1.6681e-11
-2.42492e-08
-1.75437e-11
2.42272e-08
3.15571e-11
2.30925e-11
3.77717e-13
-1.39598e-11
-2.63174e-12
-1.36423e-08
6.50774e-12
2.59551e-13
1.36332e-08
2.23391e-12
8.35569e-14
-2.44234e-12
-3.05451e-11
-2.19617e-11
-1.113e-11
2.05051e-08
1.68833e-11
8.0853e-12
-2.33681e-11
1.94893e-08
1.36145e-11
-1.45815e-11
-2.32383e-08
-2.30274e-11
2.32115e-08
3.80085e-11
3.32564e-11
3.23633e-12
-2.13875e-11
-8.3126e-12
-1.32951e-08
7.70768e-12
-1.48164e-12
1.3283e-08
2.22604e-12
1.37907e-12
-1.71076e-12
-3.78044e-11
-3.31638e-11
-1.36627e-11
1.94734e-08
1.4326e-11
3.19597e-12
3.32287e-12
1.59821e-08
-5.8454e-09
3.77199e-12
5.83937e-09
2.51911e-12
-5.81697e-09
2.6884e-12
5.81013e-09
2.64501e-12
-2.85167e-12
-2.16317e-12
1.59637e-08
-6.78459e-12
-3.06978e-11
-2.96027e-12
-1.42907e-08
-2.20164e-08
1.1766e-11
8.12098e-12
2.19981e-08
-2.95587e-13
-1.32355e-10
3.37647e-11
-2.18933e-08
-3.13168e-11
5.9571e-09
4.11672e-12
-5.94776e-09
-1.68952e-12
-1.72704e-12
6.82459e-12
2.4656e-11
2.14303e-08
1.94798e-12
5.78171e-09
3.1438e-12
-1.07843e-11
3.91773e-11
1.95524e-08
-1.21137e-12
6.61145e-14
1.24432e-08
1.14311e-12
1.02468e-08
1.11232e-12
-2.13799e-12
6.5475e-12
2.50656e-11
2.14227e-08
1.69784e-12
5.77994e-09
3.05631e-12
-1.00456e-12
1.24415e-08
1.12503e-12
-1.07424e-11
3.9086e-11
1.95443e-08
1.02433e-08
1.1818e-12
-2.46222e-11
7.98283e-12
1.94894e-08
1.35644e-11
-1.40044e-11
-2.36018e-08
-2.24018e-11
4.01178e-11
3.25738e-11
2.35731e-08
-2.13631e-11
3.91179e-12
-8.7059e-12
-1.32845e-08
8.02878e-12
-1.15259e-12
1.32725e-08
2.10577e-12
-3.86676e-11
-3.30404e-11
1.68733e-12
-1.75555e-12
-1.30726e-11
1.52547e-11
1.94728e-08
6.01039e-12
-1.48397e-11
2.05348e-08
1.07263e-11
-1.84375e-11
-2.38743e-08
-1.8042e-11
2.85756e-11
2.52418e-11
2.3853e-08
2.17708e-13
-1.51971e-11
2.25537e-12
-9.0509e-13
-1.36614e-08
5.89258e-12
8.4185e-14
1.36526e-08
2.42608e-12
-1.81874e-13
-2.24815e-12
-4.12816e-11
-5.43027e-12
-1.12411e-11
1.59742e-11
2.05179e-08
2.97434e-12
3.44949e-12
1.59895e-08
-5.81851e-09
3.01656e-12
5.81177e-09
2.56614e-12
-5.84826e-09
3.18315e-12
5.84232e-09
2.84242e-12
-2.20693e-12
-2.57082e-12
1.59713e-08
2.68094e-13
-2.9729e-12
-1.24543e-12
-3.4051e-12
-2.5232e-12
-2.20219e-08
3.07228e-12
7.82201e-12
2.20096e-08
2.61622e-12
-8.15443e-12
-1.82621e-12
-2.3113e-12
5.95711e-09
5.01899e-12
-5.95945e-09
3.88652e-13
7.15779e-09
3.12235e-12
-2.29963e-13
2.30201e-12
-8.82595e-13
1.38501e-13
-4.02329e-12
7.01698e-09
4.03141e-12
2.29564e-12
2.16663e-12
-4.55476e-12
-1.72045e-12
-2.3344e-12
3.13023e-12
3.36837e-12
1.5982e-08
-1.59636e-08
-1.13154e-11
-1.35758e-11
-5.84544e-09
3.68787e-12
-4.40178e-13
5.83947e-09
2.72883e-12
-5.81712e-09
2.6714e-12
1.49335e-12
5.81037e-09
2.58758e-12
-5.83945e-09
-4.51775e-14
-2.8166e-12
-5.81027e-09
-1.11562e-12
-2.3663e-12
1.10298e-11
1.36377e-11
1.59637e-08
-2.0522e-08
-6.31915e-12
1.77751e-11
-1.11353e-11
2.05048e-08
1.68329e-11
1.69847e-11
2.42486e-08
-3.06422e-11
-2.17237e-11
-5.82322e-12
1.36422e-08
-4.08711e-16
-2.75233e-12
-2.27703e-13
1.50768e-11
2.28854e-08
2.31731e-12
1.11712e-11
-1.6946e-11
1.11696e-13
1.36336e-08
2.0106e-12
2.42271e-08
3.13737e-11
2.30093e-11
-1.94897e-08
-7.4745e-12
2.33668e-11
-1.37155e-11
1.94732e-08
1.43133e-11
2.33722e-11
2.32381e-08
-3.79301e-11
-3.35693e-11
-8.16431e-12
1.3295e-08
1.26941e-12
-1.97023e-12
-4.022e-12
2.12466e-11
2.24023e-08
8.40062e-12
1.36013e-11
-1.47125e-11
-1.82593e-12
1.32833e-08
1.95149e-12
2.32117e-08
3.77917e-11
3.3259e-11
-1.59822e-08
-3.67753e-12
-2.57319e-12
-3.06012e-12
5.84549e-09
-3.08208e-12
-3.22635e-12
5.81714e-09
-2.47192e-12
2.49442e-12
2.42435e-12
5.84378e-12
2.05216e-08
-1.71653e-11
-1.67819e-11
-1.36425e-08
6.4236e-12
1.36336e-08
2.33377e-12
5.61359e-13
-1.39715e-11
-2.59666e-12
-1.74622e-11
-2.42483e-08
2.42267e-08
3.11253e-11
2.29691e-11
-2.52046e-12
2.0505e-08
1.66373e-11
-3.05623e-11
-2.17871e-11
8.08745e-12
1.94894e-08
-2.32884e-11
-1.46133e-11
-1.32953e-08
7.60583e-12
1.32835e-08
2.25977e-12
3.07636e-12
-2.15127e-11
-8.34413e-12
-2.31185e-11
-2.32384e-08
2.32115e-08
3.79701e-11
3.32426e-11
-1.93862e-12
1.94732e-08
1.43469e-11
-3.79588e-11
-3.35288e-11
-7.15732e-09
-1.13762e-12
1.77473e-13
-3.86844e-12
2.72048e-12
-3.34675e-13
2.69453e-12
-7.01742e-09
-4.3162e-12
-1.81886e-12
-2.40496e-12
4.00711e-12
2.22692e-12
2.24766e-12
-1.59823e-08
-3.61136e-12
-2.79159e-12
1.11789e-11
1.36314e-11
1.59639e-08
-3.12705e-12
5.84558e-09
-1.35888e-13
-2.85258e-12
-3.1893e-12
5.81732e-09
-1.38644e-12
-2.37197e-12
-1.12682e-11
-1.36429e-11
-1.60069e-13
5.83953e-09
2.59509e-12
1.63038e-12
5.81047e-09
2.41813e-12
5.97677e-12
-1.69362e-11
2.05215e-08
-2.0505e-08
1.11156e-11
-1.66863e-11
-2.42479e-08
-1.77094e-11
3.10215e-11
2.42264e-08
2.29861e-11
5.24549e-13
-1.41554e-11
-2.28858e-08
-2.60073e-12
-1.36429e-08
6.33343e-12
3.61982e-14
1.36342e-08
2.24303e-12
-1.36338e-08
-4.71868e-14
-2.54398e-12
-2.42266e-08
-3.05639e-11
-2.18066e-11
-1.12027e-11
1.66238e-11
2.05047e-08
8.11496e-12
-2.34495e-11
1.94896e-08
-1.94734e-08
1.37329e-11
-1.46478e-11
-2.3238e-08
-2.30663e-11
3.79433e-11
2.32114e-08
3.3143e-11
3.31282e-12
-2.13885e-11
-2.2402e-08
-8.43555e-12
-1.32957e-08
7.69339e-12
-1.45946e-12
1.32839e-08
2.10322e-12
-1.32837e-08
1.44039e-12
-1.96652e-12
-2.32114e-08
-3.79175e-11
-3.35496e-11
-1.34413e-11
1.43846e-11
1.94733e-08
-2.05217e-08
-6.36087e-12
1.76821e-11
1.65959e-11
-5.86941e-12
1.36425e-08
-2.53332e-12
1.7168e-11
2.42479e-08
-3.0621e-11
-2.18817e-11
-5.04339e-14
1.48931e-11
2.30509e-12
-1.67249e-11
2.12532e-12
3.09936e-11
2.28883e-11
-1.94896e-08
-7.67382e-12
2.315e-11
1.43731e-11
-8.07508e-12
1.32955e-08
-1.95358e-12
2.34409e-11
2.3238e-08
-3.79318e-11
-3.34991e-11
-3.67688e-12
2.12478e-11
8.26579e-12
-1.46725e-11
1.98518e-12
3.78513e-11
3.32195e-11
3.24861e-12
3.06564e-12
1.59824e-08
-5.84567e-09
3.40501e-12
5.83963e-09
2.67276e-12
-5.81745e-09
2.89741e-12
5.81057e-09
2.51713e-12
-2.93772e-12
-2.46595e-12
1.59641e-08
-1.62967e-11
-2.38146e-11
2.32691e-08
3.88553e-11
3.8462e-11
-2.60415e-08
-1.62967e-11
2.60351e-08
-2.47962e-08
-2.32797e-11
2.47884e-08
2.32607e-08
-3.47866e-11
-4.94546e-12
2.32602e-08
3.03852e-11
8.26951e-11
-2.58829e-08
-1.91222e-11
2.58666e-08
-2.49301e-08
-2.08651e-11
2.49271e-08
2.32515e-08
-2.32692e-08
1.63226e-11
2.33168e-11
2.32607e-08
1.62881e-11
2.60413e-08
-1.39738e-11
2.38719e-11
2.47963e-08
-3.13e-11
-3.86455e-11
-3.76788e-11
2.72357e-08
-3.58814e-11
-3.91093e-11
2.60348e-08
1.55478e-11
2.47883e-08
3.14141e-11
-1.61264e-11
-2.37881e-11
2.3269e-08
-2.32604e-08
3.92103e-11
3.84794e-11
-2.7236e-08
3.56205e-11
3.83622e-11
-2.6041e-08
-1.64268e-11
1.5549e-11
2.60343e-08
-2.47961e-08
-2.34385e-11
3.16128e-11
2.47881e-08
-2.60346e-08
-1.39669e-11
-2.47882e-08
-3.11451e-11
2.32602e-08
2.77495e-13
1.2189e-07
5.76847e-11
1.25664e-07
-3.22485e-12
2.44395e-11
9.46112e-11
2.62825e-08
-3.25777e-11
-2.5316e-08
2.51356e-11
2.5298e-08
-8.68742e-12
-1.72296e-11
-2.39887e-08
1.02995e-11
2.39846e-08
7.43516e-12
-4.98441e-11
2.6332e-08
7.77262e-12
3.74387e-11
4.70398e-11
2.59448e-08
2.56189e-11
-2.49531e-08
3.70967e-11
2.49211e-08
-2.66711e-11
-1.45147e-11
-2.35107e-08
4.61739e-11
1.37416e-11
2.34895e-08
-1.38436e-11
-2.59349e-11
2.59979e-08
7.00901e-11
-1.78918e-11
2.58296e-08
1.01864e-11
-9.03328e-11
3.65774e-14
-2.37157e-08
7.0646e-11
2.36877e-08
-2.66389e-08
-1.80586e-11
-7.13027e-12
2.66286e-08
6.95108e-12
2.57619e-08
4.60219e-11
4.09045e-11
2.59151e-08
-2.91457e-11
-2.49556e-08
4.00635e-11
2.49207e-08
-1.47428e-11
-2.66422e-11
-2.34971e-08
4.59633e-11
1.62182e-11
2.34739e-08
-1.6981e-11
2.8377e-11
2.59355e-08
-2.12013e-11
6.94802e-11
2.58286e-08
-9.01735e-11
1.02119e-11
-2.66367e-08
-2.09248e-11
2.66156e-08
-2.3706e-08
6.951e-11
2.36818e-08
2.58295e-08
1.93964e-11
1.11799e-11
2.63003e-08
5.31596e-11
-2.52961e-08
2.18515e-11
2.52835e-08
-9.57124e-12
-5.79053e-12
-2.39869e-08
1.08971e-11
2.39852e-08
4.50929e-12
-3.98501e-12
2.63852e-08
-5.37076e-11
2.32694e-08
-1.63012e-11
-2.37825e-11
3.93453e-11
3.84878e-11
3.54901e-11
3.81548e-11
-1.62749e-11
-2.60414e-08
2.60348e-08
1.53107e-11
-2.34286e-11
-2.47962e-08
2.47883e-08
3.15148e-11
2.32607e-08
-1.40907e-11
-3.11548e-11
-2.32693e-08
1.64617e-11
2.33673e-11
-3.86699e-11
-3.76976e-11
-3.60159e-11
-3.90929e-11
1.62265e-11
2.60413e-08
-1.40692e-11
2.38042e-11
2.47962e-08
-3.11225e-11
1.55644e-11
3.15268e-11
-2.22327e-12
1.06955e-12
3.02459e-12
-1.11874e-12
1.18636e-07
-3.89698e-11
-8.97968e-13
5.26301e-13
1.12532e-07
3.06707e-11
3.94565e-11
-2.73668e-11
-5.61292e-11
5.4917e-11
-5.80602e-11
5.72696e-11
-1.12533e-07
-4.53279e-11
1.08376e-12
-1.8697e-12
1.13539e-07
1.69355e-11
4.45094e-11
-1.96073e-11
-1.24733e-12
2.5692e-11
-2.66054e-11
1.91701e-12
2.82481e-11
4.42644e-11
4.66271e-11
3.17318e-11
2.70974e-08
-2.72483e-08
-2.05228e-12
4.74031e-13
-1.18638e-07
-7.29799e-13
1.23622e-12
1.18639e-07
-1.12532e-07
-3.89942e-11
-1.37394e-12
-6.5722e-14
1.12532e-07
3.07208e-11
3.9607e-11
-3.0756e-11
-5.62125e-11
5.52114e-11
5.72304e-11
-5.54749e-11
-1.1354e-07
-4.37206e-11
1.64629e-13
-5.883e-14
1.13541e-07
1.84719e-11
4.42177e-11
-1.96415e-11
-1.31527e-12
2.5746e-11
1.98713e-12
-2.65128e-11
-2.72477e-08
2.82071e-11
4.43948e-11
4.67967e-11
3.18546e-11
2.70965e-08
-1.00998e-12
1.08827e-12
-1.1864e-07
-9.30998e-13
4.34472e-13
1.1864e-07
-1.12531e-07
-3.8459e-11
-1.96137e-12
-1.17231e-12
1.1253e-07
3.08508e-11
3.99551e-11
-2.70862e-11
-5.59688e-11
5.50913e-11
5.73953e-11
-5.79404e-11
-1.13541e-07
-4.36503e-11
3.46048e-13
-1.35476e-13
1.13542e-07
1.84587e-11
4.43695e-11
-1.94899e-11
-1.24994e-12
2.56918e-11
1.99238e-12
-2.6796e-11
-2.72477e-08
2.8311e-11
4.42391e-11
4.70541e-11
3.16514e-11
2.70964e-08
-3.93235e-14
1.16457e-12
-1.1864e-07
-9.31632e-13
-6.77529e-14
1.1864e-07
-1.12531e-07
-3.82574e-11
-1.7735e-12
-1.96909e-12
1.12531e-07
3.12814e-11
4.03107e-11
-3.01709e-11
-5.62668e-11
5.51882e-11
5.72023e-11
-5.53962e-11
-1.13542e-07
-4.35398e-11
6.45657e-13
3.16332e-14
1.13542e-07
1.86199e-11
4.43688e-11
-1.95074e-11
-1.36966e-12
2.56911e-11
1.97704e-12
-2.6738e-11
-2.72468e-08
2.82142e-11
4.43383e-11
4.68818e-11
3.18307e-11
2.70955e-08
2.74686e-13
1.40846e-12
-1.18639e-07
-1.0678e-12
-5.76279e-13
1.18639e-07
-1.12528e-07
-3.78652e-11
-1.00427e-12
-2.38921e-12
1.12527e-07
3.15324e-11
4.06442e-11
-2.64671e-11
-5.64335e-11
5.48028e-11
5.71182e-11
-5.81653e-11
-1.1354e-07
-4.35944e-11
4.19833e-13
-1.03348e-13
1.13539e-07
1.85148e-11
4.43551e-11
-1.94757e-11
-1.16671e-12
2.58948e-11
2.0908e-12
-2.66576e-11
-2.72462e-08
2.81184e-11
4.44097e-11
4.68177e-11
3.19255e-11
2.70949e-08
5.95329e-13
1.0706e-12
-1.18638e-07
-8.69107e-13
-8.68036e-13
1.18638e-07
-1.12524e-07
-3.79083e-11
-1.04061e-12
-2.57142e-12
1.12524e-07
3.15554e-11
4.05116e-11
-3.00647e-11
-5.63142e-11
5.48726e-11
5.72124e-11
-5.57488e-11
-1.13537e-07
-4.36599e-11
6.30025e-13
1.65686e-13
1.13537e-07
1.84621e-11
4.42936e-11
-1.95905e-11
-1.23621e-12
2.57932e-11
2.16186e-12
-2.67319e-11
-2.72452e-08
2.80973e-11
4.44579e-11
4.67226e-11
3.18963e-11
2.7094e-08
-1.27652e-13
7.8239e-13
-1.18637e-07
-6.1402e-13
-2.48378e-13
1.18637e-07
-1.12521e-07
-3.82602e-11
-1.28772e-12
-1.80063e-12
1.1252e-07
3.10639e-11
4.00993e-11
-2.69308e-11
-5.60777e-11
5.49858e-11
5.73081e-11
-5.78837e-11
-1.13535e-07
-4.36495e-11
3.97032e-13
4.55717e-13
1.13535e-07
1.83963e-11
4.42213e-11
-1.95667e-11
-1.35174e-12
2.58354e-11
2.02862e-12
-2.67395e-11
-2.7245e-08
2.8022e-11
4.42244e-11
4.69171e-11
3.1945e-11
2.70939e-08
-1.39055e-12
1.15134e-12
-1.18637e-07
-7.89016e-13
8.17433e-13
1.18637e-07
-1.12519e-07
-3.87659e-11
-1.62204e-12
-3.2215e-13
1.12519e-07
3.05469e-11
3.9647e-11
-3.09897e-11
-5.59865e-11
5.54207e-11
5.75428e-11
-5.53122e-11
-1.13534e-07
-4.35872e-11
-1.20678e-14
3.8138e-13
1.13534e-07
1.84595e-11
4.42625e-11
-1.95835e-11
-1.27203e-12
2.57937e-11
2.10868e-12
-2.66197e-11
-2.72451e-08
2.80652e-11
4.42981e-11
4.69283e-11
3.18432e-11
2.70939e-08
-2.20121e-12
1.16532e-12
-1.18637e-07
-5.24596e-13
1.39841e-12
1.18637e-07
-1.12519e-07
-3.89083e-11
-2.00506e-12
4.97501e-13
1.12518e-07
3.0299e-11
3.9467e-11
-2.76304e-11
-5.60123e-11
5.53062e-11
5.7339e-11
-5.7825e-11
-1.13533e-07
-4.37593e-11
-2.17196e-13
8.25962e-13
1.13534e-07
1.82126e-11
4.40969e-11
-1.98894e-11
-1.21858e-12
2.58646e-11
2.12051e-12
-2.64654e-11
-2.72455e-08
2.80921e-11
4.43259e-11
4.67794e-11
3.18063e-11
2.70945e-08
-2.20179e-12
5.35492e-13
-1.18637e-07
-1.17472e-13
1.57007e-12
1.18637e-07
-1.1252e-07
-3.89285e-11
-2.31928e-12
4.29289e-13
1.12521e-07
3.05221e-11
3.95423e-11
-3.09535e-11
-5.61131e-11
5.52499e-11
5.73952e-11
-5.5464e-11
-1.13535e-07
-4.37758e-11
-3.39746e-13
8.47716e-13
1.13536e-07
1.83208e-11
4.41499e-11
-1.95198e-11
-1.32449e-12
2.5791e-11
2.01941e-12
-2.67652e-11
-2.72465e-08
2.81102e-11
4.423e-11
4.69595e-11
3.17763e-11
2.70954e-08
-2.21697e-12
8.04706e-13
-1.18636e-07
-4.51208e-13
1.37034e-12
1.18637e-07
-1.12523e-07
-3.88052e-11
-2.17117e-12
-3.28438e-14
1.12523e-07
3.05011e-11
3.96231e-11
-2.72838e-11
-5.62312e-11
5.49218e-11
5.71204e-11
-5.8009e-11
-1.13536e-07
-4.37445e-11
5.06437e-13
5.66997e-13
1.13536e-07
1.83687e-11
4.42531e-11
-1.96068e-11
-1.4505e-12
2.56797e-11
1.98433e-12
-2.67696e-11
-2.72472e-08
2.81182e-11
4.43162e-11
4.68319e-11
3.18226e-11
2.70961e-08
-1.72694e-12
7.40842e-13
-1.18637e-07
-6.13747e-13
1.23804e-12
1.18638e-07
-1.12527e-07
-3.87981e-11
-1.82053e-12
-3.26268e-13
1.12528e-07
3.11246e-11
3.9769e-11
-3.09338e-11
-5.63776e-11
5.49513e-11
5.70209e-11
-5.56714e-11
-1.13536e-07
-4.37693e-11
4.13138e-13
5.73632e-13
1.13537e-07
1.83029e-11
4.42678e-11
-1.96843e-11
-1.45144e-12
2.55887e-11
1.92861e-12
-2.67967e-11
-2.72477e-08
2.80987e-11
4.4447e-11
4.6714e-11
3.18249e-11
2.70966e-08
-1.85239e-12
9.93494e-13
-1.18638e-07
-7.59095e-13
1.10642e-12
1.18638e-07
-1.1253e-07
-3.86402e-11
-1.42879e-12
-2.24488e-13
1.12529e-07
3.09781e-11
3.98097e-11
-2.74245e-11
-5.62844e-11
5.47794e-11
5.70313e-11
-5.8062e-11
-1.13537e-07
-4.35669e-11
2.33032e-13
-2.42043e-13
1.13538e-07
1.85839e-11
4.43734e-11
-1.93904e-11
-1.52324e-12
2.56953e-11
1.93182e-12
-2.68069e-11
-2.72475e-08
2.81068e-11
4.44192e-11
4.6763e-11
3.19284e-11
2.70963e-08
-1.92385e-12
1.51646e-12
-1.18638e-07
-1.21875e-12
1.23904e-12
1.18639e-07
-1.1253e-07
-3.86173e-11
-1.42313e-12
-6.05984e-13
1.1253e-07
3.10632e-11
3.9901e-11
-3.11268e-11
-5.63626e-11
5.51679e-11
5.7204e-11
-5.54377e-11
-1.13538e-07
-4.3395e-11
2.18321e-13
-5.38995e-13
1.13539e-07
1.85372e-11
4.45332e-11
-1.95106e-11
-1.43635e-12
2.55798e-11
1.92136e-12
-2.67498e-11
-2.72471e-08
2.81507e-11
4.43411e-11
4.6854e-11
3.18014e-11
2.7096e-08
-1.53671e-12
1.34773e-12
-1.18639e-07
-1.34715e-12
9.3966e-13
1.1864e-07
-1.12529e-07
-3.86008e-11
-1.15527e-12
-4.47905e-13
1.12528e-07
3.10863e-11
3.9918e-11
-2.73702e-11
-5.62522e-11
5.49802e-11
5.72094e-11
-5.79735e-11
-1.1354e-07
-4.35828e-11
-1.29459e-13
-3.96495e-13
1.13541e-07
1.84901e-11
4.43433e-11
-1.93923e-11
-1.27852e-12
2.58357e-11
2.06556e-12
-2.67229e-11
-2.72474e-08
2.81634e-11
4.43919e-11
4.68816e-11
3.16852e-11
2.70963e-08
-1.54768e-12
9.77427e-13
-1.1864e-07
-1.018e-12
1.09133e-12
1.1864e-07
-1.12528e-07
-3.86958e-11
-1.56153e-12
-8.30841e-13
1.12528e-07
3.11041e-11
3.98166e-11
-3.09931e-11
-5.61937e-11
5.51881e-11
5.72325e-11
-5.54444e-11
-1.13542e-07
-4.37388e-11
-3.86285e-14
8.64222e-14
1.13542e-07
1.83155e-11
4.42337e-11
-1.95767e-11
-1.21358e-12
2.58254e-11
2.15421e-12
-2.66059e-11
-2.72474e-08
2.81512e-11
4.43833e-11
4.68172e-11
3.18344e-11
2.70962e-08
-8.23708e-13
1.61711e-12
-1.1864e-07
-1.1492e-12
7.02298e-13
1.18639e-07
-1.12527e-07
-3.86664e-11
-1.78314e-12
-3.87773e-13
1.12526e-07
3.113e-11
3.97858e-11
-2.73304e-11
-5.62321e-11
5.50732e-11
5.72837e-11
-5.8008e-11
-1.13542e-07
-4.35232e-11
1.28787e-14
3.25847e-13
1.1354e-07
1.85724e-11
4.44155e-11
-1.57194e-11
-1.17347e-12
2.58423e-11
1.97425e-12
-2.91341e-11
-2.72474e-08
2.81545e-11
4.42438e-11
4.68971e-11
3.17284e-11
2.70964e-08
2.41015e-12
1.14606e-07
2.23115e-11
2.36464e-11
-2.30958e-11
-2.59416e-11
-3.58677e-11
2.68545e-12
1.92484e-12
1.1464e-07
1.39254e-11
3.61764e-11
-1.94977e-11
2.18664e-11
2.30687e-11
-2.35406e-11
-2.33521e-11
-1.14637e-07
1.1461e-07
2.06895e-12
-1.14609e-07
1.39201e-12
-2.2793e-11
-2.60086e-11
2.18191e-11
2.37713e-11
3.63418e-11
1.14639e-07
2.76507e-12
-1.1464e-07
1.78173e-12
-3.55308e-11
-1.55639e-11
1.79843e-11
-2.32048e-11
-2.60141e-11
2.07313e-11
2.19155e-11
3.82221e-11
3.90743e-11
2.70856e-08
-2.72377e-08
-3.94664e-11
2.72376e-08
-2.70855e-08
-3.81953e-11
-3.80613e-11
-2.91974e-13
1.12547e-07
-5.59249e-11
5.47348e-11
5.72443e-11
-5.53627e-11
-2.77249e-11
9.84208e-13
-9.41523e-13
1.13582e-07
2.78829e-11
2.94326e-11
-2.80118e-11
-3.68542e-11
5.32713e-11
-5.47926e-11
3.69379e-11
1.12547e-07
-1.0733e-12
-1.12547e-07
4.83877e-13
5.70968e-11
-5.55482e-11
-5.62445e-11
5.46681e-11
2.96943e-11
1.13583e-07
2.0559e-13
-1.13583e-07
-9.96606e-14
-2.80415e-11
-2.81471e-11
2.78626e-11
3.68726e-11
-5.49025e-11
5.35311e-11
-3.71016e-11
1.05273e-12
-5.06646e-13
1.13594e-07
2.72085e-11
2.96791e-11
-2.7926e-11
-3.71972e-11
5.40547e-11
-5.57373e-11
3.705e-11
-1.13593e-07
-3.79386e-13
-1.12531e-07
3.5035e-13
-3.90563e-11
-3.09729e-11
2.68519e-11
5.73408e-11
-5.53824e-11
-5.62303e-11
5.76304e-11
2.97401e-11
1.13594e-07
5.13369e-13
-1.13594e-07
-3.31727e-13
-2.80535e-11
-2.78347e-11
2.73649e-11
3.73208e-11
-5.5244e-11
5.4087e-11
-3.71916e-11
4.61103e-11
3.29212e-11
2.70885e-08
-4.44224e-11
2.72388e-08
-2.70886e-08
-4.53826e-11
-3.07331e-11
1.0159e-12
1.08057e-12
1.13595e-07
1.81451e-11
4.44112e-11
-1.97139e-11
-1.32358e-12
2.48161e-11
-2.66124e-11
1.40479e-12
-1.13594e-07
8.77774e-13
-1.13541e-07
5.3053e-14
-4.35242e-11
-1.94712e-11
1.84382e-11
2.02897e-12
-2.67629e-11
-1.5633e-12
2.58109e-11
4.4903e-11
1.13594e-07
7.85211e-13
-1.13594e-07
1.3478e-13
-4.42122e-11
-1.93908e-11
1.85279e-11
1.70264e-12
-2.65799e-11
2.53509e-11
-1.18399e-12
-2.70968e-08
-4.61419e-11
-3.01792e-11
3.55858e-11
3.82564e-11
3.93005e-11
3.84683e-11
2.70842e-08
-3.60948e-11
-3.93982e-11
2.72353e-08
-2.70839e-08
-3.82753e-11
-3.76947e-11
1.20071e-12
1.1461e-07
1.39584e-11
3.59197e-11
-1.55546e-11
2.2157e-11
2.38618e-11
-2.28281e-11
-2.57991e-11
-3.578e-11
2.47016e-12
1.83928e-12
1.14639e-07
1.38269e-11
3.64044e-11
-1.55179e-11
2.21785e-11
2.331e-11
-2.30772e-11
-2.57883e-11
1.14611e-07
6.03623e-13
-1.14611e-07
1.34787e-12
-3.53921e-11
-1.5436e-11
1.41462e-11
-2.24173e-11
-2.57027e-11
2.41995e-11
2.21809e-11
3.63845e-11
1.14638e-07
1.47933e-12
-1.14638e-07
1.45677e-12
-3.57295e-11
-1.55091e-11
1.40352e-11
-2.27216e-11
-2.55497e-11
2.37462e-11
2.24128e-11
3.8257e-11
3.92571e-11
2.70853e-08
-4.00528e-11
2.72375e-08
-2.70853e-08
-3.76224e-11
-3.81412e-11
4.14955e-13
1.12547e-07
3.10747e-11
3.91055e-11
-3.14897e-11
-5.61882e-11
5.46049e-11
5.70856e-11
-5.55738e-11
-2.80702e-11
-1.71651e-13
-1.64123e-14
1.13583e-07
2.77007e-11
2.96392e-11
-2.80674e-11
-3.68466e-11
5.36428e-11
3.69712e-11
-5.4807e-11
1.12546e-07
-1.26154e-12
-1.12546e-07
-3.7031e-13
-3.7926e-11
-3.13219e-11
3.13786e-11
5.71785e-11
-5.5467e-11
5.46799e-11
-5.62388e-11
2.96047e-11
1.13583e-07
-3.27674e-13
-1.13583e-07
1.49854e-13
-2.8161e-11
-2.81768e-11
2.77013e-11
3.70784e-11
-5.48459e-11
5.37738e-11
-3.67601e-11
4.75701e-14
-1.03229e-13
1.13593e-07
2.72991e-11
2.97529e-11
-2.77584e-11
-3.69911e-11
5.4183e-11
-5.50751e-11
3.71058e-11
-1.12952e-12
-1.12531e-07
-9.18472e-13
-3.84813e-11
-3.07079e-11
3.10101e-11
5.73486e-11
-5.54258e-11
-5.61893e-11
5.50723e-11
2.97129e-11
1.13592e-07
-3.68102e-13
-1.13592e-07
-1.96654e-13
-2.81618e-11
-2.77925e-11
2.73583e-11
3.7373e-11
-5.50864e-11
5.42536e-11
-3.71386e-11
4.6012e-11
3.24823e-11
2.70886e-08
-4.44486e-11
2.72384e-08
-2.70882e-08
-4.53035e-11
-3.08484e-11
4.81314e-13
8.2738e-14
1.13594e-07
1.83407e-11
4.4967e-11
-1.93578e-11
-9.25676e-13
2.52314e-11
-2.61673e-11
1.73967e-12
6.55726e-13
-1.13542e-07
-2.17198e-13
-4.35948e-11
-1.93197e-11
1.85758e-11
2.07341e-12
-2.6877e-11
-1.28707e-12
2.57227e-11
4.51032e-11
1.13592e-07
5.91797e-13
-1.13592e-07
7.86608e-14
-4.41885e-11
-1.92726e-11
1.85315e-11
1.76651e-12
-2.64354e-11
2.52451e-11
-1.20613e-12
-2.70966e-08
-4.59508e-11
-3.03288e-11
3.54628e-11
3.79351e-11
3.96974e-11
3.85144e-11
2.70837e-08
-3.62381e-11
-3.97169e-11
2.7235e-08
-2.70835e-08
-3.79387e-11
-3.75969e-11
1.51072e-12
1.14611e-07
1.40834e-11
3.60034e-11
-1.55207e-11
2.24132e-11
2.42227e-11
-2.23588e-11
-2.57014e-11
-3.56871e-11
1.33823e-12
1.25451e-12
1.1464e-07
1.40645e-11
3.63809e-11
-1.94316e-11
2.24168e-11
2.37571e-11
-2.26702e-11
-2.30074e-11
1.1461e-07
5.80193e-14
-1.1461e-07
1.01511e-12
-3.53329e-11
-1.5264e-11
1.41817e-11
-2.22028e-11
-2.55625e-11
2.4374e-11
2.24206e-11
3.64978e-11
1.14637e-07
7.24187e-13
-1.14639e-07
1.46764e-12
-3.54518e-11
-1.55077e-11
1.79652e-11
-2.24163e-11
-2.53369e-11
2.14127e-11
2.25711e-11
3.8972e-11
3.91228e-11
2.70853e-08
-4.0254e-11
2.7237e-08
-2.70848e-08
-3.73362e-11
-3.80189e-11
-4.79519e-13
1.12545e-07
3.14111e-11
3.9379e-11
-3.13835e-11
-5.60769e-11
5.47722e-11
5.71946e-11
-5.53958e-11
-2.81367e-11
-4.22064e-13
2.51697e-13
1.13583e-07
2.76048e-11
2.96113e-11
-2.83001e-11
-3.67486e-11
5.37891e-11
3.7139e-11
-5.47227e-11
1.12544e-07
-1.16201e-12
-1.12544e-07
-1.24155e-12
-3.76971e-11
-3.11555e-11
3.15817e-11
5.71993e-11
-5.55164e-11
5.47801e-11
-5.62458e-11
2.95368e-11
1.13582e-07
-1.30124e-13
-1.13582e-07
4.33522e-13
-2.82596e-11
-2.82419e-11
2.77324e-11
3.71686e-11
-5.48053e-11
5.38358e-11
-3.69064e-11
-4.97876e-13
1.00936e-13
1.13592e-07
2.74011e-11
2.96528e-11
-2.77102e-11
-3.68439e-11
5.41404e-11
-5.51347e-11
3.73943e-11
-1.15997e-12
-1.1253e-07
-1.76227e-12
-3.83695e-11
-3.03635e-11
2.75899e-11
5.73824e-11
-5.55531e-11
-5.6272e-11
5.75931e-11
2.96949e-11
1.13591e-07
-9.39953e-14
-1.13591e-07
4.89935e-13
-2.82303e-11
-2.78518e-11
2.73465e-11
3.73638e-11
-5.52121e-11
5.40465e-11
-3.71586e-11
4.61826e-11
3.23465e-11
2.70881e-08
-4.45103e-11
2.72374e-08
-2.70873e-08
-4.51678e-11
-3.09108e-11
7.23647e-13
-3.70326e-15
1.13592e-07
1.84335e-11
4.50881e-11
-1.94663e-11
-1.07276e-12
2.53608e-11
-2.63111e-11
1.65527e-12
7.80836e-13
-1.13542e-07
-2.2031e-13
-4.356e-11
-1.93174e-11
1.86297e-11
2.09771e-12
-2.68105e-11
-1.39578e-12
2.57632e-11
4.49667e-11
1.13591e-07
8.62004e-13
-1.13591e-07
2.93843e-13
-4.43226e-11
-1.95078e-11
1.82782e-11
1.7606e-12
-2.6301e-11
2.52295e-11
-1.03108e-12
-2.70958e-08
-4.60695e-11
-3.02775e-11
3.53277e-11
3.76279e-11
4.00082e-11
3.86232e-11
2.70834e-08
-3.61499e-11
-3.98921e-11
2.72346e-08
-2.70832e-08
-3.76806e-11
-3.77403e-11
1.04865e-12
1.1461e-07
1.41287e-11
3.61693e-11
-1.55496e-11
2.26433e-11
2.43545e-11
-2.21694e-11
-2.53225e-11
-3.56896e-11
6.08983e-13
1.62826e-12
1.14637e-07
1.38602e-11
3.63894e-11
-1.57972e-11
2.27911e-11
2.40277e-11
-2.24109e-11
-2.51129e-11
1.14609e-07
-5.84956e-13
-1.14609e-07
8.55539e-13
-3.52667e-11
-1.53782e-11
1.41545e-11
-2.19173e-11
-2.52116e-11
2.45156e-11
2.27347e-11
3.61525e-11
1.14635e-07
-2.82808e-13
-1.14635e-07
1.80536e-12
-3.58496e-11
-1.58017e-11
1.37652e-11
-2.2113e-11
-2.49512e-11
2.43877e-11
2.29388e-11
3.91446e-11
3.92463e-11
2.70846e-08
-4.06201e-11
2.72364e-08
-2.70843e-08
-3.69146e-11
-3.84119e-11
-1.50466e-12
1.12543e-07
3.15684e-11
3.97406e-11
-3.10706e-11
-5.61598e-11
5.47849e-11
5.71482e-11
-5.54003e-11
-2.81967e-11
-2.74113e-13
6.62957e-13
1.13581e-07
2.76788e-11
2.94737e-11
-2.82376e-11
-3.66195e-11
5.38136e-11
3.7111e-11
-5.4729e-11
1.12542e-07
-1.68984e-12
-1.12542e-07
-2.00536e-12
-3.74043e-11
-3.08777e-11
3.19296e-11
5.71653e-11
-5.54885e-11
5.48313e-11
-5.61975e-11
2.95427e-11
1.1358e-07
-8.16442e-13
-1.1358e-07
1.7577e-13
-2.81476e-11
-2.82879e-11
2.76606e-11
3.72867e-11
-5.45764e-11
5.39137e-11
-3.68235e-11
-3.46849e-13
4.05294e-13
1.13591e-07
2.73719e-11
2.97267e-11
-2.78043e-11
-3.70729e-11
5.41268e-11
-5.5046e-11
3.71899e-11
-4.82537e-13
-1.1253e-07
-2.36076e-12
-3.78657e-11
-3.00568e-11
3.15765e-11
5.71592e-11
-5.58594e-11
-5.63954e-11
5.49092e-11
2.98659e-11
1.13588e-07
1.47652e-13
-1.13589e-07
2.55173e-14
-2.80689e-11
-2.76616e-11
2.75177e-11
3.72218e-11
-5.5221e-11
5.40273e-11
-3.72837e-11
4.63016e-11
3.22905e-11
2.70871e-08
-4.44894e-11
2.72364e-08
-2.70863e-08
-4.5182e-11
-3.08759e-11
6.18574e-13
3.39677e-14
1.13591e-07
1.8289e-11
4.49205e-11
-1.95035e-11
-9.2409e-13
2.54382e-11
-2.62804e-11
1.79583e-12
1.11727e-12
-1.13541e-07
-2.5963e-14
-4.34911e-11
-1.94777e-11
1.86258e-11
2.01346e-12
-2.67277e-11
-1.37278e-12
2.57515e-11
4.49468e-11
1.13589e-07
6.47253e-13
-1.13589e-07
8.1411e-13
-4.43435e-11
-1.95282e-11
1.82488e-11
1.82683e-12
-2.63522e-11
2.53355e-11
-1.04552e-12
-2.70951e-08
-4.61039e-11
-3.01388e-11
3.54312e-11
3.74585e-11
4.02737e-11
3.83999e-11
2.70831e-08
-3.60277e-11
-3.99605e-11
2.72344e-08
-2.7083e-08
-3.76818e-11
-3.7774e-11
1.01694e-12
1.14608e-07
1.4083e-11
3.60455e-11
-1.55193e-11
2.28377e-11
2.47459e-11
-2.18957e-11
-2.50436e-11
-3.59436e-11
-4.26928e-13
1.79242e-12
1.14637e-07
1.36737e-11
3.61587e-11
-1.98487e-11
2.32087e-11
2.44541e-11
-2.20306e-11
-2.22591e-11
1.14607e-07
-9.05094e-13
-1.14607e-07
1.25474e-12
-3.55018e-11
-1.57679e-11
1.3802e-11
-2.16474e-11
-2.51413e-11
2.47714e-11
2.29362e-11
3.6255e-11
1.14634e-07
-6.86764e-13
-1.14636e-07
2.15194e-12
-3.5773e-11
-1.60596e-11
1.75869e-11
-2.20556e-11
-2.48145e-11
2.1845e-11
2.30091e-11
3.9649e-11
3.88677e-11
2.70841e-08
-4.06508e-11
2.72359e-08
-2.70837e-08
-3.70168e-11
-3.82188e-11
-1.99128e-12
1.12542e-07
3.17731e-11
3.9913e-11
-3.0859e-11
-5.60283e-11
5.47675e-11
5.71635e-11
-5.5463e-11
-2.8185e-11
-5.19747e-13
5.39816e-13
1.13579e-07
2.77121e-11
2.95584e-11
-2.81333e-11
-3.67559e-11
5.3925e-11
3.71124e-11
-5.45881e-11
1.1254e-07
-1.284e-12
-1.1254e-07
-2.32383e-12
-3.73831e-11
-3.08127e-11
3.19081e-11
5.71258e-11
-5.55674e-11
5.46628e-11
-5.62787e-11
2.96828e-11
1.13576e-07
-1.46515e-13
-1.13577e-07
3.19589e-13
-2.79143e-11
-2.79837e-11
2.79488e-11
3.70751e-11
-5.49344e-11
5.3803e-11
-3.69985e-11
-1.68611e-13
6.44749e-14