/*--------------------------------*- C++ -*----------------------------------*\
| =========                 |                                                 |
| \\      /  F ield         | OpenFOAM: The Open Source CFD Toolbox           |
|  \\    /   O peration     | Version:  2206                                  |
|   \\  /    A nd           | Website:  www.openfoam.com                      |
|    \\/     M anipulation  |                                                 |
\*---------------------------------------------------------------------------*/
FoamFile
{
    version     2.0;
    format      ascii;
    arch        "LSB;label=32;scalar=64";
    class       volVectorField;
    location    "70";
    object      U;
}
// * * * * * * * * * * * * * * * * * * * * * * * * * * * * * * * * * * * * * //

dimensions      [0 1 -1 0 0 0 0];

internalField   nonuniform List<vector> 
66928
(
(-0.000199037 -0.000199763 0.127752)
(2.99734e-06 4.44085e-06 0.132284)
(1.52216e-07 9.88378e-07 0.132129)
(1.51495e-06 -7.99743e-07 0.132123)
(-0.000199591 0.000202731 0.127736)
(2.90284e-06 -2.8645e-06 0.132263)
(0.000193334 0.000193482 0.127852)
(-0.0001996 -0.000199998 0.127752)
(-8.34158e-07 1.30127e-06 0.137517)
(-3.76636e-08 1.81522e-07 0.137512)
(-8.71909e-06 -9.85021e-06 0.0647212)
(-1.32618e-05 -2.65234e-06 0.0645025)
(-2.63619e-05 -9.54717e-06 0.0895764)
(-1.35447e-05 -1.77142e-05 0.0891458)
(-6.00363e-06 -3.50365e-05 0.0756866)
(-3.49135e-05 -3.26328e-05 0.104123)
(-3.31131e-05 -1.09611e-06 0.0752265)
(-4.93655e-05 1.3042e-06 0.100738)
(-3.42001e-05 -2.75377e-05 0.103517)
(-1.88624e-06 -8.2188e-07 0.134697)
(-4.99244e-05 3.79106e-07 0.117174)
(-3.18607e-05 1.81444e-06 0.075248)
(-4.9119e-05 -2.54462e-08 0.100734)
(-1.79183e-06 1.55188e-06 0.134706)
(-3.37062e-05 2.74151e-05 0.103512)
(-4.97865e-05 1.04592e-06 0.117171)
(-1.26024e-05 3.86264e-06 0.0645225)
(-1.26845e-05 1.88716e-05 0.0891663)
(-2.51827e-05 1.0958e-05 0.0896134)
(-9.48998e-06 1.31956e-05 0.0647417)
(-3.44289e-05 3.26196e-05 0.104137)
(-8.7313e-06 3.64739e-05 0.0757144)
(9.13117e-06 1.57268e-05 0.0647207)
(-1.15196e-05 -1.06603e-05 0.0647144)
(9.86081e-06 6.11103e-06 0.0646104)
(-1.38356e-05 -3.12904e-06 0.0645056)
(2.57255e-05 1.3985e-05 0.0897166)
(1.08063e-05 2.00583e-05 0.0894366)
(-0.000200316 -0.00020047 0.127753)
(-2.69594e-05 -9.25107e-06 0.0895815)
(-1.35577e-05 -1.86868e-05 0.0891463)
(-1.03337e-05 -1.00993e-05 0.0647115)
(8.1037e-06 1.47074e-05 0.0647149)
(-1.16314e-05 -3.2769e-06 0.0645087)
(9.64834e-06 5.19353e-06 0.0646138)
(0.000192457 0.00019286 0.127852)
(-2.66837e-05 -1.02713e-05 0.0895856)
(-1.241e-05 -1.82721e-05 0.0891473)
(2.52421e-05 1.36598e-05 0.0897196)
(1.08638e-05 1.91316e-05 0.0894367)
(1.12415e-05 1.36053e-05 0.0647244)
(2.04709e-05 6.37336e-05 0.100489)
(-1.95112e-05 -6.1397e-05 0.111747)
(2.47406e-05 1.23794e-05 0.0897178)
(-1.62502e-05 -1.03285e-05 0.0746825)
(1.64955e-05 1.26567e-05 0.0747531)
(2.35128e-05 6.61183e-05 0.112056)
(-2.05071e-05 -6.16995e-05 0.100182)
(6.65789e-05 1.13928e-05 0.100323)
(-6.68857e-05 -1.45389e-05 0.111389)
(1.11391e-05 1.99455e-05 0.0894398)
(-1.4414e-05 -9.69566e-06 0.0744029)
(1.17296e-05 9.68711e-06 0.0745513)
(6.95426e-05 1.48485e-05 0.111851)
(-6.72592e-05 -1.27828e-05 0.099949)
(1.54814e-05 1.21629e-05 0.0813124)
(-1.60906e-05 -1.31042e-07 0.0631972)
(-6.27666e-06 -9.36985e-06 0.0631442)
(1.39292e-05 2.78364e-06 0.0632634)
(2.85335e-06 1.05347e-05 0.0632374)
(-1.69168e-05 -9.8494e-06 0.0810587)
(1.04131e-05 3.4194e-05 0.0756812)
(-1.01951e-05 -4.30467e-05 0.0878751)
(4.12199e-06 3.86351e-05 0.0878859)
(-1.40236e-06 -1.37829e-05 0.0628206)
(-3.85922e-05 6.61911e-08 0.087163)
(-1.17598e-05 3.24599e-06 0.0625098)
(-4.7532e-05 2.19801e-06 0.0974795)
(-7.94719e-06 9.92322e-07 0.0713225)
(-8.95495e-06 3.23645e-06 0.0688637)
(-3.71619e-05 1.18532e-06 0.0871739)
(-1.08948e-05 -1.4285e-06 0.0625279)
(-7.77758e-06 -3.53154e-07 0.0713296)
(-4.77882e-05 -1.04749e-06 0.0974816)
(-8.89126e-06 -1.74512e-06 0.0688758)
(6.6647e-05 -1.09915e-05 0.100326)
(-6.69449e-05 1.60185e-05 0.111413)
(1.27212e-05 -1.87838e-05 0.0894637)
(-1.29573e-05 1.13786e-05 0.0744149)
(6.85739e-05 -1.47297e-05 0.111874)
(1.2593e-05 -7.49988e-06 0.0745614)
(-6.47468e-05 1.36874e-05 0.0999515)
(2.06971e-05 -6.29527e-05 0.100508)
(-1.84324e-05 6.46214e-05 0.111716)
(2.72868e-05 -1.09107e-05 0.0897504)
(-1.61661e-05 1.21056e-05 0.0747258)
(1.54502e-05 -1.13336e-05 0.0747899)
(2.39393e-05 -6.41463e-05 0.112024)
(-1.9023e-05 6.39682e-05 0.100206)
(1.73599e-05 -1.05257e-05 0.0813381)
(-4.70848e-06 1.03308e-05 0.0631658)
(-1.48435e-05 2.18545e-06 0.0632295)
(4.23362e-06 -8.42072e-06 0.0632583)
(1.48912e-05 -8.60012e-07 0.0632936)
(-1.59443e-05 1.18485e-05 0.0810875)
(1.00435e-05 -1.06331e-05 0.0647405)
(7.61753e-06 -3.59369e-05 0.075712)
(-6.12594e-06 4.32691e-05 0.0879301)
(7.24574e-06 -4.0697e-05 0.0879668)
(-4.2446e-07 1.77499e-05 0.0628227)
(-1.04442e-05 -7.56204e-06 0.0647181)
(8.07028e-06 1.58885e-05 0.0647165)
(-1.10441e-05 -2.1203e-06 0.064504)
(1.02154e-05 5.87781e-06 0.0646106)
(1.47702e-05 1.16688e-05 0.0813127)
(-1.66835e-05 -4.95549e-07 0.063197)
(-6.23048e-06 -9.07628e-06 0.0631458)
(1.36966e-05 3.45366e-06 0.0632642)
(2.99127e-06 1.15567e-05 0.0632396)
(-1.71952e-05 -1.03014e-05 0.0810579)
(-2.00523e-05 -6.26945e-05 0.100181)
(2.47989e-05 6.74163e-05 0.112052)
(1.61454e-05 1.41032e-05 0.0747509)
(-2.59854e-05 -8.38291e-06 0.0895802)
(2.06741e-05 6.42831e-05 0.100492)
(-1.56889e-05 -1.00315e-05 0.0746847)
(-1.90221e-05 -6.24196e-05 0.111745)
(-6.79228e-05 -1.17251e-05 0.0999486)
(6.93389e-05 1.44875e-05 0.111849)
(1.20871e-05 1.01326e-05 0.0745489)
(-1.31117e-05 -1.71123e-05 0.0891468)
(6.61341e-05 1.0921e-05 0.100327)
(-1.50481e-05 -7.83678e-06 0.0744043)
(-6.80393e-05 -1.38466e-05 0.111389)
(-1.72068e-05 -1.01318e-05 0.0810584)
(1.40314e-05 3.9281e-06 0.0632638)
(3.52835e-06 1.12249e-05 0.063239)
(1.59465e-05 1.26009e-05 0.0813144)
(-1.55092e-05 -4.03779e-07 0.0631988)
(-6.57409e-06 -7.79195e-06 0.0631466)
(2.04915e-05 6.34668e-05 0.100489)
(-1.7822e-05 -9.92947e-06 0.074684)
(2.57214e-05 1.43995e-05 0.0897233)
(-2.01204e-05 -6.23865e-05 0.111743)
(1.57445e-05 1.37943e-05 0.0747532)
(-2.06956e-05 -6.20634e-05 0.100182)
(2.46074e-05 6.6343e-05 0.112054)
(6.65428e-05 1.2139e-05 0.100325)
(-1.49874e-05 -9.94329e-06 0.0744051)
(1.09044e-05 1.9825e-05 0.0894418)
(-6.77936e-05 -1.4525e-05 0.111388)
(1.15945e-05 1.09466e-05 0.0745518)
(-6.72629e-05 -1.22279e-05 0.0999484)
(6.8412e-05 1.46642e-05 0.111851)
(8.69516e-06 1.4931e-05 0.0647122)
(-1.04277e-05 -9.15784e-06 0.0647135)
(1.07042e-05 5.18706e-06 0.0646142)
(-1.12154e-05 -2.60153e-06 0.0645083)
(-1.67686e-05 -1.04634e-05 0.0810592)
(1.37317e-05 3.53282e-06 0.0632662)
(3.78514e-06 1.06361e-05 0.0632424)
(1.55908e-05 1.20612e-05 0.0813142)
(-1.53213e-05 -8.37031e-07 0.0631982)
(-5.57946e-06 -8.74426e-06 0.0631473)
(2.12862e-05 6.3761e-05 0.100489)
(-1.95364e-05 -6.31541e-05 0.111742)
(2.56482e-05 1.34299e-05 0.0897224)
(-1.60407e-05 -1.08257e-05 0.0746882)
(1.57024e-05 1.30713e-05 0.0747546)
(2.46042e-05 6.57606e-05 0.112051)
(-1.96202e-05 -6.23089e-05 0.10018)
(6.60375e-05 1.05819e-05 0.100326)
(-6.75993e-05 -1.46003e-05 0.111388)
(1.15272e-05 1.94231e-05 0.0894388)
(-1.41276e-05 -9.63283e-06 0.0744074)
(1.22976e-05 9.69189e-06 0.0745538)
(6.90709e-05 1.45279e-05 0.111849)
(-6.73503e-05 -1.27891e-05 0.0999494)
(-1.97693e-05 -6.23458e-05 0.100183)
(1.49145e-05 1.39562e-05 0.0747529)
(2.39062e-05 6.59329e-05 0.112051)
(-2.62858e-05 -9.1846e-06 0.0895836)
(2.03867e-05 6.3708e-05 0.100489)
(-1.64612e-05 -1.02021e-05 0.0746858)
(-1.98883e-05 -6.33662e-05 0.111743)
(-6.71619e-05 -1.2283e-05 0.0999503)
(1.21663e-05 9.56991e-06 0.0745519)
(6.91807e-05 1.45352e-05 0.111849)
(-1.31969e-05 -1.83467e-05 0.0891473)
(6.63018e-05 1.08814e-05 0.100325)
(-1.43786e-05 -8.82366e-06 0.0744068)
(-6.77691e-05 -1.44945e-05 0.111388)
(1.63178e-05 1.19248e-05 0.0813147)
(-1.47759e-05 -1.72573e-06 0.0632001)
(-5.11105e-06 -9.84774e-06 0.0631496)
(1.47701e-05 2.74739e-06 0.0632662)
(4.15297e-06 1.02022e-05 0.063243)
(-1.67001e-05 -1.16527e-05 0.0810599)
(6.8531e-05 6.09017e-05 0.114188)
(0.000192878 0.000193582 0.12785)
(-0.000194286 -5.43421e-05 0.121901)
(-5.87882e-05 -0.000192562 0.121721)
(0.000196696 5.76259e-05 0.122133)
(6.00597e-05 0.000191513 0.122023)
(-6.89743e-05 -6.23853e-05 0.113881)
(6.76388e-05 -6.20253e-05 0.114186)
(0.000191748 -0.000190802 0.127835)
(-5.84368e-05 0.00019436 0.12176)
(-0.000189729 5.62171e-05 0.121824)
(6.06995e-05 -0.0001944 0.122061)
(0.000195944 -5.55246e-05 0.12206)
(-6.60593e-05 6.49676e-05 0.113877)
(-6.92441e-05 -6.24829e-05 0.113881)
(0.000197508 5.78544e-05 0.122132)
(5.96697e-05 0.000190987 0.122025)
(-0.000199573 -0.000200148 0.127752)
(6.78721e-05 6.04916e-05 0.11419)
(-0.000193807 -5.50739e-05 0.121899)
(-5.95326e-05 -0.000192018 0.121721)
(6.85485e-05 6.07923e-05 0.114188)
(0.000193125 0.000193443 0.127851)
(-0.00019338 -5.51425e-05 0.121897)
(-5.87999e-05 -0.000190889 0.121721)
(0.000198046 5.74783e-05 0.122129)
(5.97906e-05 0.000191649 0.122023)
(-6.87668e-05 -6.24148e-05 0.113878)
(2.49096e-07 1.84256e-06 0.139284)
(-1.35142e-07 -1.13128e-06 0.139305)
(6.76465e-06 0.000228174 0.12318)
(-1.12747e-05 -0.000213053 0.118826)
(3.25307e-05 3.49117e-05 0.104248)
(-1.56998e-05 -4.63957e-05 0.111931)
(1.52665e-05 0.000222874 0.119007)
(1.34569e-05 4.75113e-05 0.112043)
(-5.01664e-06 -0.000227002 0.123129)
(0.000236033 3.15078e-06 0.123009)
(-0.000222663 -1.09279e-05 0.118419)
(3.51487e-05 2.59708e-05 0.103908)
(-4.77303e-05 -9.11519e-06 0.111216)
(0.000229829 1.00946e-05 0.118823)
(4.69604e-05 7.99037e-06 0.111678)
(-0.000240608 -4.39668e-06 0.122678)
(0.000236126 -1.0554e-07 0.125153)
(5.30362e-05 -3.2509e-07 0.117724)
(-5.1305e-05 -1.27633e-06 0.115411)
(-0.000227437 1.25711e-06 0.125713)
(5.43129e-05 1.87413e-06 0.115931)
(0.000227697 -8.30657e-07 0.126129)
(-0.00023171 -5.7306e-07 0.124783)
(0.000235681 -2.26434e-06 0.12298)
(-0.000219715 1.17596e-05 0.118399)
(3.55918e-05 -2.53033e-05 0.103903)
(-4.65229e-05 1.06279e-05 0.1112)
(4.76261e-05 -6.63798e-06 0.111661)
(0.000228844 -9.35556e-06 0.118801)
(-0.000235274 5.48697e-06 0.122651)
(0.000231952 7.41789e-07 0.125141)
(5.26614e-05 3.42752e-07 0.11772)
(-0.000226443 -1.34441e-07 0.125709)
(-5.19233e-05 3.14539e-06 0.115402)
(0.000226932 1.67687e-06 0.126125)
(5.34724e-05 -1.21565e-06 0.115921)
(-0.000232938 1.7832e-06 0.124772)
(7.50581e-06 -0.000226017 0.123186)
(-1.17516e-05 0.000216689 0.11881)
(3.40684e-05 -3.56392e-05 0.10426)
(-1.35114e-05 4.742e-05 0.11192)
(1.5767e-05 -0.00022214 0.118991)
(1.56823e-05 -4.82661e-05 0.112037)
(-4.10169e-06 0.000231779 0.123128)
(6.81605e-05 6.07235e-05 0.11419)
(0.000192882 0.000192972 0.127849)
(-0.000194715 -5.51566e-05 0.121899)
(-5.84177e-05 -0.000191281 0.121721)
(-6.90579e-05 -6.23827e-05 0.11388)
(0.000197337 5.67268e-05 0.12213)
(5.98803e-05 0.000191823 0.122024)
(-6.88445e-05 -6.24508e-05 0.11388)
(-0.000199957 -0.000200234 0.127753)
(0.000197309 5.73372e-05 0.122131)
(6.00328e-05 0.000191469 0.122024)
(6.84946e-05 6.09241e-05 0.114189)
(-0.000193347 -5.48937e-05 0.121898)
(-5.92703e-05 -0.000191639 0.121721)
(-4.51077e-07 5.06582e-07 0.137514)
(9.78837e-07 1.81683e-06 0.132125)
(4.69223e-06 -1.6763e-06 0.13226)
(-0.000192855 -0.000191841 0.127853)
(-7.74774e-07 7.03393e-07 0.137518)
(1.10953e-06 1.42581e-06 0.132123)
(2.77495e-06 -1.55635e-06 0.132261)
(-0.00019247 -0.000191606 0.12785)
(-1.07946e-06 -6.93721e-08 0.137519)
(1.81073e-06 3.54024e-07 0.132122)
(2.89127e-06 -1.54164e-06 0.132262)
(-0.000191855 -0.000192359 0.127849)
(-1.13476e-06 -7.28019e-07 0.137519)
(1.74958e-06 -7.96451e-07 0.132122)
(2.70504e-06 -1.50038e-06 0.132262)
(-0.000192269 -0.000191563 0.127845)
(-1.40797e-06 -1.35422e-06 0.137518)
(7.41037e-07 -1.45527e-06 0.132119)
(2.61209e-06 -1.20606e-06 0.13226)
(-0.000192298 -0.000191312 0.127842)
(-9.75544e-07 -1.68236e-06 0.137516)
(8.3217e-07 -1.67521e-06 0.132115)
(2.98859e-06 -1.37586e-06 0.132257)
(-0.000192585 -0.000191178 0.127838)
(-4.32565e-07 -7.28565e-07 0.137516)
(1.4049e-06 -8.32925e-07 0.132111)
(3.25223e-06 -1.26007e-06 0.132255)
(-0.000191805 -0.00019098 0.127837)
(-9.3402e-07 5.35823e-07 0.137516)
(2.14632e-06 8.36733e-07 0.132108)
(2.74764e-06 -8.8141e-07 0.132254)
(-0.000192083 -0.000191272 0.127838)
(-6.61763e-07 1.36054e-06 0.137516)
(2.32213e-06 2.2338e-06 0.132108)
(3.45886e-06 -7.63143e-07 0.132252)
(-0.00019222 -0.000191425 0.12784)
(-3.11562e-07 1.42613e-06 0.137516)
(2.50835e-06 1.96015e-06 0.13211)
(3.45365e-06 -6.52799e-07 0.132255)
(-0.00019179 -0.000191498 0.127844)
(-7.17047e-07 1.1007e-06 0.137516)
(1.91689e-06 1.67891e-06 0.132113)
(3.4536e-06 -1.86705e-06 0.132255)
(-0.000192201 -0.000191511 0.127848)
(-9.41305e-07 7.84504e-07 0.137517)
(1.14416e-06 1.16296e-06 0.132119)
(3.3874e-06 -1.69757e-06 0.132256)
(-0.00019295 -0.000191462 0.12785)
(-1.02865e-06 7.69761e-07 0.137518)
(1.08859e-06 1.3785e-06 0.132122)
(2.3241e-06 -1.39824e-06 0.132257)
(-0.000192566 -0.000191199 0.127849)
(-1.61684e-06 8.98102e-07 0.137518)
(1.37023e-06 7.28428e-07 0.132122)
(2.05463e-06 -1.468e-06 0.132259)
(-0.000192212 -0.000191581 0.127847)
(-1.67548e-06 3.93506e-07 0.13752)
(1.17244e-06 7.6144e-07 0.13212)
(2.21353e-06 -8.13605e-07 0.132261)
(-0.000192636 -0.000192027 0.127849)
(-1.17636e-06 7.65621e-07 0.137521)
(1.81386e-06 5.72777e-07 0.132119)
(2.84497e-06 -8.76892e-07 0.132263)
(-0.000192314 -0.00019162 0.127848)
(-1.6776e-06 5.82676e-08 0.13752)
(1.7629e-06 1.09275e-06 0.132118)
(2.71667e-06 -1.21136e-06 0.132262)
(-0.000192064 -0.000191886 0.127849)
(4.77332e-06 3.30953e-06 0.132282)
(-4.66499e-06 4.82213e-06 0.132286)
(3.91793e-06 4.12584e-06 0.132286)
(-3.90556e-06 4.76982e-06 0.132288)
(-0.000192449 0.000193876 0.127852)
(0.000199723 -0.000199289 0.127754)
(-1.56084e-06 1.1887e-06 0.132129)
(-8.45593e-08 -7.85839e-07 0.132122)
(-5.88722e-07 1.64334e-06 0.13213)
(1.22652e-06 -1.46697e-06 0.132123)
(-1.71141e-06 -1.86735e-06 0.132137)
(4.9799e-07 1.58661e-06 0.132124)
(-1.32882e-06 -1.43089e-06 0.132138)
(0.00019222 -0.000190673 0.127838)
(-0.000199456 0.0002021 0.127737)
(-4.38133e-06 -3.20573e-06 0.132282)
(2.16872e-06 -2.20451e-06 0.132261)
(-2.62489e-06 -2.28883e-06 0.132282)
(0.000199116 0.000202813 0.12775)
(0.000192733 0.00019288 0.12785)
(-0.000199974 -0.000201529 0.127749)
(4.25576e-06 3.68542e-06 0.132287)
(-4.1707e-06 4.20739e-06 0.132287)
(3.59542e-06 2.14706e-06 0.132288)
(-3.70205e-06 3.552e-06 0.132286)
(-0.000192028 0.0001938 0.127852)
(0.000199767 -0.000201815 0.127754)
(-4.10912e-07 1.81873e-06 0.132129)
(3.51728e-07 -1.63303e-06 0.132124)
(-5.23318e-07 7.90362e-07 0.132128)
(6.92991e-07 -1.81362e-06 0.132123)
(-5.01646e-07 -1.64826e-06 0.132138)
(1.10118e-06 3.9241e-08 0.132122)
(-2.54739e-07 -1.14263e-06 0.132136)
(0.00019228 -0.000190809 0.127837)
(-0.000199356 0.000201626 0.127735)
(-2.96561e-06 -1.57013e-06 0.132282)
(2.07659e-06 -1.62543e-06 0.132261)
(-2.16058e-06 -1.76254e-06 0.132279)
(0.000199923 0.000202261 0.127749)
(0.000192339 0.000191199 0.127848)
(-0.000200691 -0.000202871 0.127747)
(4.16427e-06 2.13808e-06 0.132288)
(-4.01915e-06 3.07107e-06 0.132286)
(3.15844e-06 1.5824e-06 0.132286)
(-3.62556e-06 2.50758e-06 0.132285)
(-0.000191674 0.000191215 0.127851)
(0.000200252 -0.000202688 0.127751)
(-1.211e-06 8.77863e-07 0.132128)
(-4.05961e-08 -2.06259e-06 0.132123)
(-5.96529e-07 -3.45858e-07 0.132125)
(4.96273e-07 -1.82701e-06 0.132122)
(5.82429e-08 -1.79404e-06 0.132136)
(1.12027e-06 -1.12355e-06 0.132122)
(-5.96415e-07 -1.87464e-06 0.132134)
(0.000191683 -0.000190856 0.127835)
(-0.000199879 0.00020129 0.127731)
(-2.67391e-06 -1.70663e-06 0.132279)
(1.89814e-06 -1.4337e-06 0.132262)
(-2.77015e-06 -2.01102e-06 0.132277)
(0.000199534 0.000202693 0.127746)
(0.000191702 0.0001899 0.127847)
(-0.000200009 -0.000203552 0.127746)
(3.80569e-06 1.28291e-06 0.132287)
(-4.15574e-06 1.9317e-06 0.132285)
(3.00012e-06 9.01902e-07 0.132286)
(-4.14674e-06 1.22439e-06 0.132283)
(-0.000191688 0.000190265 0.127848)
(0.000198386 -0.000204368 0.127749)
(-1.08226e-06 -1.00742e-07 0.132126)
(-7.56005e-08 -2.30169e-06 0.132121)
(-1.11065e-06 -1.37455e-06 0.132124)
(-3.53071e-07 -1.79769e-06 0.13212)
(1.22797e-08 -1.94416e-06 0.132134)
(7.97915e-08 -1.77634e-06 0.132119)
(-8.09625e-07 -1.14748e-06 0.132132)
(0.000191296 -0.00019139 0.12783)
(-0.000200112 0.000201548 0.127726)
(-2.87783e-06 -1.34535e-06 0.132278)
(2.33639e-06 -1.91023e-06 0.13226)
(-3.17753e-06 -1.71639e-06 0.132276)
(0.000199342 0.000203222 0.127743)
(0.000192505 0.000189322 0.127845)
(-0.000199771 -0.000203913 0.127745)
(3.63607e-06 9.54724e-07 0.132285)
(-4.59228e-06 7.19401e-07 0.132283)
(3.93755e-06 6.25576e-07 0.132284)
(-5.03426e-06 1.05058e-06 0.132282)
(-0.000193017 0.000188433 0.127845)
(0.000199365 -0.000204443 0.127746)
(-1.33007e-06 -1.07944e-06 0.132124)
(-3.31495e-07 -2.27123e-06 0.132119)
(-4.53028e-07 -1.6165e-06 0.132122)
(1.32159e-07 -1.21744e-06 0.132116)
(-7.29377e-09 -1.35011e-06 0.132131)
(1.65139e-07 -2.37398e-06 0.132114)
(-9.70566e-07 -1.10762e-06 0.132129)
(0.000191544 -0.000191054 0.127826)
(-0.000198733 0.000201833 0.127722)
(-3.67172e-06 -1.59032e-06 0.132275)
(2.41453e-06 -1.63995e-06 0.132257)
(-3.52116e-06 -1.68063e-06 0.132272)
(0.00019896 0.00020307 0.127738)
(0.000192618 0.000189043 0.127844)
(-0.00020048 -0.000203336 0.127743)
(4.27795e-06 6.4648e-07 0.132284)
(-5.22656e-06 9.93784e-07 0.132282)
(3.70009e-06 5.12231e-07 0.132283)
(-4.0131e-06 1.62144e-06 0.13228)
(-0.000192115 0.000188772 0.127843)
(0.000199243 -0.000202567 0.127744)
(-9.67058e-07 -1.60415e-06 0.132122)
(-3.00688e-07 -1.43397e-06 0.132115)
(-5.64031e-07 -1.04299e-06 0.132119)
(3.90582e-07 -9.92285e-07 0.132111)
(-5.76862e-07 -1.58405e-06 0.132127)
(1.00678e-06 -2.00153e-06 0.132111)
(-6.01937e-07 -9.93469e-07 0.132123)
(0.000191889 -0.000190123 0.127821)
(-0.00019855 0.00020153 0.12772)
(-3.76265e-06 -1.46067e-06 0.132272)
(2.69359e-06 -1.66755e-06 0.132255)
(-2.89329e-06 -1.51036e-06 0.132269)
(0.00019967 0.000203135 0.127737)
(0.000191725 0.00018994 0.127841)
(-0.000201456 -0.000201212 0.127742)
(4.02193e-06 1.13382e-06 0.132283)
(-3.90089e-06 1.19825e-06 0.13228)
(2.40828e-06 1.78401e-06 0.13228)
(-3.53954e-06 2.7573e-06 0.132276)
(-0.000191828 0.000190406 0.127841)
(0.000201518 -0.00020048 0.127743)
(-1.10274e-06 -7.78391e-07 0.132119)
(2.52692e-07 -1.44986e-06 0.13211)
(-1.08959e-06 9.41595e-08 0.132117)
(4.48546e-07 -4.94224e-07 0.132108)
(-3.29416e-08 -1.13451e-06 0.132123)
(1.29904e-06 -3.712e-08 0.132109)
(-4.41453e-07 -6.8603e-07 0.132119)
(0.000191702 -0.000189958 0.12782)
(-0.000199162 0.000201864 0.127721)
(-2.922e-06 -8.15431e-07 0.132269)
(2.31931e-06 -1.40834e-06 0.132253)
(-2.87737e-06 -1.53758e-06 0.132267)
(0.000199482 0.000203065 0.127737)
(0.000190598 0.00019183 0.127841)
(-0.000201146 -0.000200545 0.127743)
(3.03396e-06 2.27321e-06 0.13228)
(-3.30397e-06 3.01117e-06 0.132276)
(2.31177e-06 3.08574e-06 0.132276)
(-2.36141e-06 4.19752e-06 0.132273)
(-0.000189783 0.000192681 0.12784)
(0.000201101 -0.00019906 0.127744)
(-1.29677e-06 9.65368e-07 0.132118)
(1.48228e-07 -7.3647e-07 0.132108)
(-9.52925e-07 1.3738e-06 0.132116)
(7.64819e-07 -2.61099e-07 0.132106)
(-2.79222e-08 -8.21347e-07 0.132119)
(2.12469e-06 1.27159e-06 0.132108)
(-4.71007e-07 -4.77572e-07 0.132119)
(0.000191437 -0.000190056 0.127822)
(-0.000199059 0.000202687 0.127725)
(-2.81254e-06 -4.98975e-07 0.132268)
(2.94394e-06 -1.471e-06 0.132253)
(-2.67369e-06 -1.3462e-06 0.132267)
(0.000199095 0.000202863 0.127739)
(0.00019137 0.000192415 0.127842)
(-0.000200665 -0.00020014 0.127744)
(2.74804e-06 3.06343e-06 0.132276)
(-2.54567e-06 4.22426e-06 0.132273)
(3.15711e-06 3.69704e-06 0.132274)
(-1.76089e-06 4.4169e-06 0.132272)
(-0.000189513 0.000192934 0.127841)
(0.000201697 -0.000199242 0.127747)
(-1.67241e-06 1.5591e-06 0.132118)
(5.83518e-07 -3.34172e-07 0.132108)
(-7.06263e-07 1.85762e-06 0.132117)
(9.34826e-07 -4.72197e-08 0.132108)
(-3.36057e-07 -8.41368e-07 0.132119)
(2.41537e-06 1.04953e-06 0.132109)
(7.08647e-09 -4.98529e-07 0.132121)
(0.000192189 -0.000189804 0.127826)
(-0.000198641 0.000202251 0.127728)
(-2.83403e-06 -9.51678e-07 0.132268)
(3.05536e-06 -1.21481e-06 0.132254)
(-2.41483e-06 -1.62665e-06 0.13227)
(0.000199228 0.000202343 0.127744)
(0.000191872 0.000193009 0.127843)
(-0.000200393 -0.000200926 0.127746)
(3.26579e-06 3.19743e-06 0.132275)
(-2.30289e-06 4.45285e-06 0.132272)
(3.2311e-06 3.75036e-06 0.132274)
(-2.79354e-06 4.90817e-06 0.132271)
(-0.00018951 0.000193105 0.127845)
(0.000200032 -0.000200293 0.127751)
(-6.68111e-07 2.44838e-06 0.132117)
(5.95755e-07 -4.93995e-07 0.13211)
(-7.35759e-07 1.78125e-06 0.132118)
(9.52868e-07 -6.25484e-07 0.13211)
(3.80222e-07 -7.92885e-07 0.132122)
(1.14097e-06 1.37864e-06 0.132111)
(-8.06892e-07 -9.06748e-07 0.132126)
(0.000192415 -0.000190171 0.127828)
(-0.000198885 0.00020145 0.12773)
(-2.45344e-06 -1.12661e-06 0.132271)
(2.70508e-06 -1.59226e-06 0.132255)
(-2.18865e-06 -1.41489e-06 0.132272)
(0.000199364 0.000202665 0.127747)
(0.000192523 0.000192558 0.127845)
(-0.000200014 -0.000200569 0.127746)
(3.55433e-06 3.64163e-06 0.132276)
(-2.99061e-06 4.28122e-06 0.132272)
(3.44403e-06 3.35814e-06 0.132276)
(-3.66934e-06 4.61773e-06 0.132275)
(-0.000191531 0.000192529 0.127848)
(0.000200157 -0.000201109 0.127755)
(-8.7221e-07 2.03327e-06 0.13212)
(-2.72814e-07 -6.78029e-07 0.132111)
(-2.3527e-07 1.93997e-06 0.13212)
(6.16169e-07 -8.5459e-07 0.132114)
(-5.48699e-08 -1.23628e-06 0.132128)
(1.22185e-06 4.31093e-07 0.132117)
(-1.21072e-06 -1.09062e-06 0.13213)
(0.00019201 -0.000191024 0.12783)
(-0.000199386 0.000201624 0.127732)
(-2.72518e-06 -1.44758e-06 0.132274)
(2.67248e-06 -1.68289e-06 0.132255)
(-2.94673e-06 -1.61808e-06 0.132275)
(0.000198777 0.000203011 0.127749)
(0.000192928 0.000192825 0.127845)
(-0.000200351 -0.000201023 0.127747)
(3.84973e-06 3.2353e-06 0.132277)
(-3.68817e-06 3.93205e-06 0.132276)
(2.98371e-06 3.09584e-06 0.132278)
(-4.0993e-06 4.07293e-06 0.132277)
(-0.000192263 0.00019287 0.127853)
(0.000199634 -0.000201474 0.127754)
(-5.6755e-07 1.88367e-06 0.13212)
(-2.38363e-07 -1.11911e-06 0.132115)
(-7.79196e-07 1.04837e-06 0.13212)
(3.60327e-07 -4.39841e-07 0.132118)
(-6.26753e-07 -1.24063e-06 0.132131)
(6.14946e-07 8.84432e-07 0.132121)
(-1.01445e-06 -1.2357e-06 0.132132)
(0.000192149 -0.000191149 0.127832)
(-0.000199228 0.000201722 0.127735)
(-3.16053e-06 -1.34095e-06 0.132276)
(2.37056e-06 -2.30074e-06 0.132256)
(-3.34412e-06 -1.5408e-06 0.132278)
(0.000198878 0.000203079 0.127749)
(0.000192015 0.000192068 0.127846)
(-0.000201302 -0.000200898 0.12775)
(3.52714e-06 3.13827e-06 0.132279)
(-4.31554e-06 3.44591e-06 0.132278)
(2.91581e-06 3.70711e-06 0.132278)
(-3.94572e-06 3.4483e-06 0.132277)
(-0.000192298 0.000191814 0.127851)
(0.000199963 -0.000200955 0.127753)
(-9.1291e-07 1.53228e-06 0.132121)
(-2.76742e-07 -8.29345e-07 0.132119)
(-8.21052e-07 1.20898e-06 0.132122)
(2.47496e-07 -7.5606e-07 0.132121)
(-4.14515e-07 -1.52491e-06 0.132132)
(3.54268e-07 3.72069e-07 0.132121)
(-2.77935e-07 -6.70717e-07 0.132132)
(0.000191534 -0.000190625 0.127835)
(-0.000200403 0.000201847 0.127738)
(-3.33914e-06 -8.10713e-07 0.132279)
(1.57011e-06 -1.7394e-06 0.132257)
(-2.87077e-06 -1.40771e-06 0.132279)
(0.000199381 0.000202738 0.127747)
(0.000192148 0.000193009 0.127848)
(-0.000200918 -0.000201398 0.12775)
(3.25966e-06 3.36309e-06 0.132279)
(-4.38876e-06 3.46811e-06 0.132278)
(3.04092e-06 3.1076e-06 0.13228)
(-3.85919e-06 3.38663e-06 0.132277)
(-0.000191352 0.000191832 0.127851)
(0.000199805 -0.000201547 0.127753)
(-1.24865e-06 1.54919e-06 0.132124)
(-5.84972e-07 -1.04609e-06 0.132123)
(-1.23278e-06 6.81479e-07 0.132126)
(9.21832e-08 -9.61331e-07 0.132125)
(-4.07646e-07 -1.27875e-06 0.132132)
(5.31685e-07 1.64084e-07 0.132121)
(-5.98502e-07 -7.99346e-07 0.132132)
(0.00019078 -0.000190813 0.127839)
(-0.000200086 0.000202467 0.12774)
(-3.17496e-06 -1.17337e-06 0.132279)
(2.23601e-06 -1.98765e-06 0.13226)
(-3.15062e-06 -1.72051e-06 0.132279)
(0.000199118 0.000202746 0.127748)
(0.000192798 0.000192687 0.12785)
(-0.000200296 -0.000201502 0.127752)
(3.43247e-06 2.95848e-06 0.132281)
(-3.87504e-06 2.96192e-06 0.132278)
(2.96176e-06 2.73182e-06 0.132281)
(-4.14785e-06 3.87121e-06 0.132277)
(-0.00019225 0.000191939 0.12785)
(0.00020033 -0.000201061 0.127751)
(-9.91019e-07 1.2328e-06 0.132127)
(-4.40191e-07 -1.13052e-06 0.132126)
(-1.00539e-06 6.04535e-07 0.132127)
(3.87224e-07 -8.08111e-07 0.132125)
(-3.13745e-07 -1.21688e-06 0.132132)
(1.1176e-06 -2.23963e-07 0.132119)
(-7.03947e-07 -1.26097e-06 0.132131)
(0.000191621 -0.00019049 0.12784)
(-0.000199403 0.000202393 0.12774)
(-3.26771e-06 -1.22155e-06 0.13228)
(2.58935e-06 -1.35405e-06 0.132261)
(-3.15605e-06 -1.63983e-06 0.132279)
(0.000200109 0.000203611 0.127748)
(0.000192478 0.000191945 0.12785)
(-0.000200776 -0.000201888 0.127752)
(3.45247e-06 2.61412e-06 0.132282)
(-3.96497e-06 3.19589e-06 0.132277)
(3.17738e-06 2.57396e-06 0.132281)
(-4.32557e-06 4.04183e-06 0.132276)
(-0.000191817 0.000192449 0.12785)
(0.000200071 -0.000201678 0.12775)
(-7.888e-07 1.28436e-06 0.132128)
(-2.15315e-07 -1.12956e-06 0.132125)
(-6.91891e-07 7.82287e-07 0.132128)
(2.3225e-07 -8.00156e-07 0.132126)
(-2.98249e-07 -1.44587e-06 0.132132)
(8.18719e-07 5.30645e-08 0.132118)
(-2.72235e-07 -4.56055e-07 0.132132)
(0.000192435 -0.000190951 0.127839)
(-0.000199429 0.000201484 0.127739)
(-3.4685e-06 -1.47332e-06 0.13228)
(2.58769e-06 -1.97174e-06 0.132263)
(-2.23478e-06 -1.72827e-06 0.132279)
(0.000199476 0.000202679 0.127748)
(0.000192452 0.000191929 0.12785)
(3.22053e-06 1.73272e-06 0.132282)
(-3.52873e-06 3.01846e-06 0.132276)
(-0.000192141 0.000192241 0.127848)
(-1.41877e-06 9.54676e-07 0.132129)
(-6.67733e-08 -1.68916e-06 0.132126)
(-5.55488e-08 -1.16974e-06 0.132133)
(-7.61795e-07 -1.37878e-06 0.132134)
(0.000191545 -0.00019119 0.127837)
(-2.4027e-06 -1.0561e-06 0.13228)
(-2.74691e-06 -2.30875e-06 0.13228)
(0.000199306 0.000202399 0.127751)
(5.70101e-07 -5.47658e-05 0.101739)
(9.28209e-06 3.811e-05 0.0756828)
(1.4526e-06 5.5544e-05 0.101832)
(-8.31945e-06 -3.35049e-05 0.0756824)
(-8.11584e-06 1.60465e-05 0.06473)
(1.13614e-05 -1.08742e-05 0.0647263)
(-5.07481e-05 1.44313e-06 0.10074)
(3.19211e-05 2.22671e-06 0.0754067)
(5.10332e-05 -8.17226e-08 0.101246)
(-3.41793e-05 -1.74151e-06 0.0752296)
(4.44651e-07 1.3672e-06 0.137516)
(1.29424e-06 5.64057e-07 0.137511)
(-6.15934e-07 6.00305e-07 0.137526)
(-1.26022e-06 6.76557e-07 0.137516)
(6.17212e-07 1.32281e-06 0.137517)
(-4.83037e-07 -3.27061e-07 0.137514)
(8.72446e-08 -1.68461e-07 0.137526)
(5.12924e-05 -3.59805e-07 0.117171)
(-3.38971e-05 2.6148e-05 0.103918)
(2.39888e-06 -3.10095e-08 0.134693)
(1.36262e-06 1.13831e-06 0.132125)
(3.43318e-05 -2.83383e-05 0.103529)
(2.95934e-06 -7.60595e-07 0.134693)
(-5.29543e-05 -8.2845e-07 0.11772)
(1.05027e-05 -4.80906e-06 0.0646298)
(-1.29385e-05 3.84448e-06 0.0645213)
(-1.54071e-06 5.17146e-05 0.117949)
(-5.84065e-07 -3.75488e-06 0.134902)
(3.47051e-05 -3.62681e-05 0.104257)
(2.66807e-06 -2.26406e-06 0.132261)
(-1.99312e-06 -2.51738e-06 0.134903)
(-3.44257e-05 3.38753e-05 0.104136)
(1.2236e-06 -5.64521e-05 0.11807)
(-1.1861e-05 -1.81488e-05 0.0894852)
(-2.67533e-05 -1.15452e-05 0.0897028)
(0.000200174 0.000203619 0.127752)
(1.3298e-05 1.88145e-05 0.089194)
(2.60869e-05 1.16966e-05 0.0895644)
(-1.29716e-07 -5.54754e-05 0.101747)
(6.66261e-06 3.76642e-05 0.075677)
(1.2683e-06 5.80746e-05 0.101839)
(-8.53462e-06 -3.4925e-05 0.0756804)
(-8.41861e-06 1.44609e-05 0.0647229)
(9.85601e-06 -1.25838e-05 0.0647247)
(-5.03617e-05 7.02738e-07 0.100739)
(3.21892e-05 1.01549e-06 0.0754102)
(4.98077e-05 -8.75909e-07 0.101243)
(-3.31902e-05 -1.73258e-06 0.0752332)
(8.70472e-07 1.22121e-06 0.137518)
(-5.50445e-07 -9.60576e-09 0.137514)
(7.48987e-08 -1.3253e-07 0.137525)
(-1.33019e-06 -2.3511e-07 0.137519)
(1.06252e-06 1.01236e-08 0.137516)
(-9.36707e-07 -2.76293e-07 0.137513)
(7.76305e-07 -1.60386e-08 0.137522)
(5.11349e-05 -1.21615e-06 0.117171)
(-3.47993e-05 2.55559e-05 0.103919)
(2.67527e-06 -7.71118e-07 0.134692)
(1.2345e-06 6.1267e-07 0.132123)
(-5.33428e-05 -9.27283e-07 0.117721)
(3.42974e-05 -2.82209e-05 0.103527)
(2.93122e-06 -1.56527e-06 0.134693)
(1.04734e-05 -4.04493e-06 0.0646324)
(-1.22165e-05 4.10514e-06 0.0645279)
(-1.44181e-06 5.19956e-05 0.117946)
(-1.8605e-06 -2.87293e-06 0.1349)
(3.42181e-05 -3.518e-05 0.104259)
(2.32721e-06 -1.51287e-06 0.132262)
(1.04833e-06 -5.53441e-05 0.118065)
(-2.604e-06 -2.46855e-06 0.134901)
(-3.48314e-05 3.42358e-05 0.104134)
(-1.1158e-05 -1.82682e-05 0.0894866)
(-2.66816e-05 -1.09478e-05 0.0896993)
(0.000200611 0.000203596 0.127749)
(1.38253e-05 1.79821e-05 0.0891943)
(2.59454e-05 1.21327e-05 0.0895618)
(-8.78752e-07 -5.737e-05 0.10175)
(7.34544e-06 3.61282e-05 0.0756792)
(3.45148e-07 5.64265e-05 0.101842)
(-8.15073e-06 -3.6144e-05 0.0756856)
(-9.50824e-06 1.25982e-05 0.0647254)
(8.11646e-06 -1.52223e-05 0.0647278)
(-5.12163e-05 -2.12559e-07 0.100736)
(3.22672e-05 1.44198e-07 0.0754132)
(4.98467e-05 -1.15516e-06 0.10124)
(-3.29371e-05 -2.51312e-06 0.0752348)
(1.23298e-06 6.33213e-08 0.137517)
(-5.69116e-07 -3.11178e-07 0.137513)
(6.48611e-07 -3.6601e-07 0.137523)
(-1.19525e-06 -6.41954e-07 0.137519)
(1.2374e-06 -4.66192e-07 0.137516)
(-6.30803e-07 -5.24614e-07 0.137512)
(6.57733e-07 -3.38338e-07 0.137522)
(5.10468e-05 -1.47069e-06 0.117168)
(-3.37698e-05 2.42068e-05 0.10392)
(2.88482e-06 -1.7827e-06 0.134692)
(1.41609e-06 -4.46775e-07 0.132123)
(-5.31691e-05 -1.21413e-06 0.117718)
(3.3878e-05 -2.98483e-05 0.103529)
(2.69052e-06 -2.33807e-06 0.134692)
(9.98661e-06 -5.08298e-06 0.0646393)
(-1.32203e-05 2.93941e-06 0.0645336)
(-1.89704e-06 5.24676e-05 0.117946)
(-2.10944e-06 -2.33559e-06 0.134898)
(3.35275e-05 -3.5148e-05 0.104253)
(2.56476e-06 -1.60886e-06 0.132262)
(1.16058e-06 -5.46485e-05 0.118063)
(-2.33628e-06 -2.21334e-06 0.134898)
(-3.50922e-05 3.38306e-05 0.104129)
(-1.13228e-05 -1.92019e-05 0.0894854)
(-2.66321e-05 -1.0374e-05 0.0896999)
(0.000199853 0.000202622 0.127749)