/*--------------------------------*- C++ -*----------------------------------*\
| =========                 |                                                 |
| \\      /  F ield         | OpenFOAM: The Open Source CFD Toolbox           |
|  \\    /   O peration     | Version:  2206                                  |
|   \\  /    A nd           | Website:  www.openfoam.com                      |
|    \\/     M anipulation  |                                                 |
\*---------------------------------------------------------------------------*/
FoamFile
{
    version     2.0;
    format      ascii;
    arch        "LSB;label=32;scalar=64";
    class       volVectorField;
    location    "70";
    object      wallShearStress;
}
// * * * * * * * * * * * * * * * * * * * * * * * * * * * * * * * * * * * * * //

dimensions      [0 2 -2 0 0 0 0];

internalField   uniform (0 0 0);

boundaryField
{
    topPatch
    {
        type            calculated;
        value           nonuniform List<vector> 0();
    }
    wall
    {
        type            calculated;
        value           nonuniform List<vector> 
7746
(
(3.62044e-08 -1.26789e-08 -0.000121194)
(1.20891e-08 -1.19878e-08 -0.000121126)
(3.61927e-08 -3.46881e-09 -0.000113917)
(8.45271e-09 -5.40193e-09 -0.000113839)
(6.3922e-09 -7.33771e-10 -0.000113873)
(7.06664e-09 3.22274e-09 -0.000121166)
(1.44335e-08 -1.97334e-10 -0.000121173)
(1.65377e-08 -2.79411e-09 -0.000113887)
(8.37298e-09 -1.17536e-08 -0.000121074)
(2.67579e-08 -6.42556e-09 -0.00012114)
(8.63415e-10 -1.06689e-08 -0.000121143)
(8.97949e-09 -3.74557e-09 -0.000121127)
(1.40559e-08 -2.38063e-09 -0.000121107)
(-7.45517e-09 -3.24857e-09 -0.000121028)
(3.52504e-09 9.25552e-10 -0.000121127)
(-2.97643e-09 -2.73378e-09 -0.000121143)
(1.6576e-10 -5.59039e-09 -0.000121082)
(-1.0628e-08 -2.75458e-09 -0.000113755)
(1.2017e-08 -8.52399e-10 -0.000114412)
(-9.81007e-09 8.40678e-10 -0.000114319)
(2.00715e-08 9.65638e-09 -0.000120143)
(-1.96031e-08 -9.36561e-09 -0.000120105)
(-1.53858e-08 -1.5252e-09 -0.000121063)
(-1.65825e-08 1.50859e-09 -0.000113718)
(3.44702e-08 -1.21479e-08 -0.00012116)
(5.55635e-10 -6.97349e-09 -0.000121037)
(1.00015e-08 -7.96076e-09 -0.000121123)
(-5.00788e-10 -7.45553e-09 -0.000121129)
(-1.37811e-08 -5.81227e-10 -0.000121007)
(1.87691e-08 -3.96956e-09 -0.00012112)
(-5.74461e-09 -2.60815e-10 -0.000121135)
(5.64601e-09 -1.68823e-09 -0.000121126)
(7.34805e-09 -1.20714e-08 -0.000113752)
(3.12199e-08 -2.65319e-09 -0.000113862)
(-8.6954e-09 -1.15132e-08 -0.00012109)
(-2.44495e-08 -5.54471e-09 -0.000121152)
(-2.15782e-09 -1.00876e-08 -0.000113818)
(8.16821e-09 1.87028e-10 -0.000113834)
(-2.01841e-09 3.91571e-09 -0.000121175)
(7.53528e-09 2.74078e-09 -0.000121155)
(-1.74153e-08 -3.87818e-09 -0.000113662)
(1.16755e-08 4.9e-09 -0.000113812)
(1.5556e-08 3.77027e-11 -0.000121025)
(-9.27937e-09 2.10166e-09 -0.000121125)
(-7.07465e-09 -5.22265e-10 -0.000113826)
(5.23936e-09 4.95436e-09 -0.000113839)
(-4.48913e-09 1.63731e-09 -0.000121176)
(6.05506e-09 1.32762e-09 -0.000121167)
(-1.9716e-08 -1.7894e-09 -0.00011365)
(1.5948e-08 2.92418e-09 -0.000113811)
(2.32128e-08 4.18122e-09 -0.000121016)
(-4.72015e-09 5.56009e-09 -0.00012113)
(-8.03356e-09 2.06195e-09 -0.000113826)
(4.48561e-09 6.19286e-09 -0.000113841)
(-2.48201e-09 5.92839e-09 -0.000121188)
(7.88195e-09 4.24395e-09 -0.000121181)
(-2.03433e-08 -5.45049e-10 -0.000113663)
(1.12325e-08 4.98624e-09 -0.000113826)
(2.42414e-08 5.3409e-09 -0.000121034)
(-6.6193e-09 4.09396e-09 -0.000121149)
(-6.68355e-09 -5.34472e-10 -0.00011383)
(5.71496e-09 3.19526e-09 -0.000113846)
(-3.63196e-09 3.79273e-09 -0.000121197)
(5.5924e-09 4.51864e-10 -0.000121188)
(-2.41729e-08 -1.09895e-10 -0.000113681)
(1.06422e-08 5.00556e-09 -0.000113852)
(2.44259e-08 6.06243e-09 -0.000121051)
(-5.98987e-09 4.27368e-09 -0.000121168)
(-5.75048e-09 -1.8217e-09 -0.000113838)
(5.95314e-09 2.92349e-09 -0.000113855)
(-4.26231e-09 1.12616e-09 -0.000121201)
(5.19234e-09 -3.97359e-10 -0.000121193)
(-1.88043e-08 -8.99524e-10 -0.000113708)
(1.51585e-08 3.49782e-09 -0.000113877)
(1.77818e-08 3.59546e-09 -0.000121074)
(-1.12009e-08 1.98337e-09 -0.000121184)
(-4.56602e-09 -4.23672e-09 -0.000113842)
(7.02728e-09 -4.99339e-10 -0.000113855)
(-4.57382e-09 5.31886e-10 -0.000121199)
(5.70676e-09 4.94053e-10 -0.000121194)
(-1.60038e-08 -1.90094e-09 -0.000113732)
(1.6469e-08 3.1749e-09 -0.000113889)
(1.55411e-08 1.59997e-09 -0.000121078)
(-1.5197e-08 -2.57203e-10 -0.00012118)
(-2.69883e-09 -8.33048e-09 -0.000113842)
(9.48947e-09 -4.06042e-09 -0.00011385)
(-3.36042e-09 1.67519e-09 -0.000121203)
(4.98819e-09 -9.16621e-10 -0.000121183)
(-1.70622e-08 -2.19125e-09 -0.000113731)
(1.69452e-08 2.43406e-09 -0.000113883)
(9.62786e-09 -2.20003e-09 -0.000121072)
(-2.09827e-08 -4.47216e-09 -0.000121178)
(-2.37314e-09 -1.07443e-08 -0.000113842)
(8.42697e-09 -4.23351e-09 -0.000113854)
(-5.01207e-09 2.99767e-10 -0.000121188)
(6.53623e-09 1.81807e-09 -0.000121175)
(-1.53187e-08 -2.50748e-09 -0.000113717)
(1.95589e-08 1.44551e-09 -0.000113874)
(1.09389e-08 -1.19426e-09 -0.000121065)
(-1.66169e-08 -2.02666e-09 -0.000121172)
(-3.21935e-09 -8.12867e-09 -0.000113845)
(7.27787e-09 -1.94034e-09 -0.000113861)
(-4.86178e-09 3.50796e-10 -0.00012118)
(5.69223e-09 5.9124e-10 -0.00012117)
(-1.7359e-08 -3.06151e-09 -0.000113714)
(1.65816e-08 1.90567e-09 -0.000113869)
(1.22888e-08 -4.56163e-10 -0.000121065)
(-1.42161e-08 -1.0105e-09 -0.000121175)
(-6.20472e-09 -2.74511e-09 -0.00011385)
(6.30863e-09 8.87134e-11 -0.000113867)
(-4.70336e-09 8.88688e-10 -0.000121184)
(3.47136e-09 -2.43169e-09 -0.000121173)
(-1.73334e-08 -2.03639e-09 -0.000113717)
(1.62884e-08 1.82828e-09 -0.000113871)
(2.1653e-08 4.46217e-09 -0.00012107)
(-6.83575e-09 4.25417e-09 -0.000121181)
(-5.8322e-09 -3.53695e-09 -0.000113855)
(6.04684e-09 9.37137e-10 -0.000113865)
(-3.77897e-09 1.12134e-09 -0.000121188)
(6.58876e-09 3.05306e-09 -0.000121179)
(-1.39297e-08 -3.61128e-09 -0.000113715)
(1.78173e-08 3.38559e-09 -0.000113875)
(1.50213e-08 -2.90588e-10 -0.00012107)
(-1.34415e-08 5.44917e-10 -0.000121178)
(-5.83622e-09 -3.23903e-09 -0.000113852)
(7.48371e-09 2.78464e-10 -0.000113866)
(-3.29793e-09 3.57579e-09 -0.000121192)
(7.22646e-09 3.10447e-09 -0.000121185)
(-1.5863e-08 -2.46904e-09 -0.000113717)
(1.82301e-08 2.72391e-09 -0.000113879)
(1.57834e-08 1.36472e-09 -0.000121069)
(-1.51353e-08 -2.77237e-10 -0.000121177)
(-5.11553e-09 -3.92917e-09 -0.000113851)
(6.90649e-09 2.45747e-10 -0.000113863)
(-3.97305e-09 2.36457e-09 -0.000121193)
(6.40177e-09 1.16649e-09 -0.000121184)
(-1.62552e-08 -2.66824e-09 -0.00011372)
(1.76914e-08 1.56789e-09 -0.00011388)
(1.31639e-08 1.41748e-10 -0.000121074)
(-1.63183e-08 -1.76895e-09 -0.000121182)
(-4.40521e-09 -6.37939e-09 -0.000113854)
(8.17068e-09 -1.67422e-09 -0.000113869)
(-3.24213e-09 2.10353e-09 -0.000121193)
(6.84633e-09 2.47303e-09 -0.000121184)
(-1.58377e-08 -2.84703e-09 -0.000113723)
(1.62684e-08 2.8832e-09 -0.00011388)
(1.48124e-08 1.20661e-09 -0.000121079)
(-1.3881e-08 -1.48476e-10 -0.000121186)
(-4.4047e-09 -5.40956e-09 -0.000113859)
(5.80761e-09 2.6163e-09 -0.000113873)
(-2.50975e-09 4.77979e-09 -0.000121196)
(6.36993e-09 2.97034e-09 -0.000121196)
(-1.68144e-08 -2.22412e-09 -0.000113726)
(1.74231e-08 2.41109e-09 -0.000113883)
(1.39183e-08 3.07856e-10 -0.000121086)
(-1.60948e-08 -1.56174e-09 -0.000121195)
(-5.10776e-09 -3.42772e-09 -0.000113868)
(5.89478e-09 2.8534e-09 -0.000113884)
(-4.71091e-09 3.67425e-10 -0.000121211)
(5.2375e-09 3.12498e-10 -0.000121207)
(-1.74989e-08 -2.06518e-09 -0.00011372)
(1.54224e-08 4.6748e-09 -0.000113881)
(1.59906e-08 1.15574e-09 -0.000121081)
(-1.18198e-08 1.82522e-09 -0.000121187)
(-5.98054e-09 -1.03537e-09 -0.00011387)
(4.42042e-09 1.76564e-09 -0.00011388)
(-3.65577e-09 3.41927e-09 -0.00012121)
(7.88344e-09 3.06523e-09 -0.000121202)
(-8.26843e-09 -1.138e-08 -0.000113781)
(-2.7603e-08 -1.85675e-09 -0.000113884)
(1.97134e-08 2.00819e-10 -0.00011382)
(-5.5118e-09 -7.13553e-09 -0.000113694)
(-2.1536e-08 -2.16698e-09 -0.000113855)
(7.11512e-09 -6.82274e-09 -0.000113721)
(-2.09475e-09 -1.06043e-08 -0.000121156)
(-7.39301e-09 -3.22412e-09 -0.000121151)
(-1.63418e-08 -3.01004e-09 -0.000121137)
(2.07839e-09 -6.47548e-09 -0.000121045)
(-5.33734e-09 -1.72263e-09 -0.000121147)
(5.59353e-10 -7.99442e-09 -0.000121161)
(-3.82878e-09 6.61279e-09 -0.000113861)
(7.33966e-09 -7.5184e-10 -0.000113867)
(3.47129e-09 5.27805e-09 -0.000113833)
(-4.85235e-09 -4.75474e-09 -0.000113825)
(4.26992e-09 -2.22852e-09 -0.00011387)
(-4.78153e-09 3.95791e-09 -0.000113861)
(7.9228e-10 -1.31898e-08 -0.000113844)
(-6.99826e-09 1.1238e-09 -0.000113858)
(3.36723e-09 4.37535e-09 -0.00011384)
(-7.83269e-09 8.75135e-10 -0.000113847)
(-4.93351e-09 2.05618e-09 -0.000113857)
(4.68794e-09 -5.75047e-09 -0.000113843)
(-5.82929e-09 3.59637e-10 -0.000113852)
(3.77062e-09 6.7454e-09 -0.00011384)
(-1.64084e-08 -2.67797e-09 -0.000121065)
(1.30573e-08 -1.03405e-09 -0.000121158)
(5.33126e-09 1.65534e-09 -0.000121158)
(-2.65061e-09 4.31465e-09 -0.000121172)
(8.82715e-09 -8.3498e-10 -0.00012115)
(-1.72916e-08 -2.39038e-09 -0.000121056)
(-1.99659e-08 3.27621e-10 -0.000113724)
(1.50323e-08 -4.35215e-09 -0.000113867)
(1.41444e-08 2.86423e-09 -0.000113716)
(-1.6525e-08 -3.92079e-09 -0.000113862)
(1.40015e-08 -1.61698e-09 -0.000113858)
(-1.8171e-08 1.57674e-09 -0.000113711)
(-1.78927e-08 -3.52881e-13 -0.000113859)
(1.80988e-08 2.19257e-09 -0.000113705)
(2.64435e-09 1.66608e-09 -0.000121145)
(-6.28602e-09 1.41071e-09 -0.000121132)
(1.47944e-08 -1.51912e-09 -0.000121035)
(-1.43167e-08 4.25183e-10 -0.000121131)
(-6.36816e-09 4.28795e-09 -0.000121136)
(4.44244e-09 9.19259e-10 -0.000121147)
(-1.1297e-08 -8.60928e-11 -0.000121133)
(1.84252e-08 -2.90385e-09 -0.00012103)
(-1.61696e-08 8.50849e-10 -0.000121003)
(8.83349e-09 2.61742e-09 -0.000121107)
(-6.08877e-09 1.83065e-09 -0.000121142)
(4.26255e-09 1.75608e-09 -0.000121135)
(8.76745e-09 1.72688e-09 -0.000121101)
(-2.13879e-08 4.77302e-09 -0.000121003)
(2.15339e-09 3.82689e-09 -0.000121128)
(-5.68979e-09 2.07865e-09 -0.000121148)
(1.31544e-08 -4.53218e-09 -0.000113695)
(-1.33803e-08 4.68523e-09 -0.000113843)
(1.34463e-08 2.75731e-09 -0.000113801)
(-2.20234e-08 -1.00709e-10 -0.000113654)
(-1.42803e-08 2.41441e-09 -0.000113834)
(2.03734e-08 -1.64596e-09 -0.000113682)
(5.13493e-09 -1.14824e-10 -0.000121163)
(-5.27361e-09 4.99273e-10 -0.00012116)
(-1.13355e-08 9.94981e-13 -0.000121121)
(2.27173e-08 4.92403e-09 -0.00012102)
(-4.81502e-09 -7.5038e-10 -0.000121148)
(6.85911e-09 3.8601e-09 -0.000121169)
(-5.53714e-09 4.03237e-09 -0.000113866)
(6.45494e-09 -2.4446e-09 -0.000113879)
(3.33705e-09 7.64503e-09 -0.000113835)
(-6.69681e-09 -1.68581e-10 -0.000113828)
(6.55968e-09 1.08727e-10 -0.000113882)
(-4.28343e-09 5.17568e-09 -0.000113872)
(4.6262e-09 -5.74787e-09 -0.000113849)
(-6.33191e-09 3.24335e-09 -0.000113867)
(4.31768e-09 8.03439e-09 -0.000113846)
(-9.18137e-09 4.37362e-09 -0.00011386)
(-3.26247e-09 5.33896e-09 -0.000113854)
(6.20432e-09 -1.60263e-09 -0.000113853)
(-7.38479e-09 3.43132e-09 -0.000113857)
(2.77034e-09 9.60206e-09 -0.000113849)
(-2.10529e-08 -2.98907e-09 -0.000121046)
(1.451e-08 1.87665e-10 -0.000121156)
(7.02195e-09 4.66936e-09 -0.000121171)
(-2.75139e-09 3.44406e-09 -0.000121185)
(1.4217e-08 1.10642e-09 -0.000121154)
(-1.36599e-08 -1.19715e-09 -0.000121053)
(-2.0088e-08 1.73616e-09 -0.000113702)
(1.58043e-08 -3.9043e-09 -0.000113866)
(1.75158e-08 2.51798e-09 -0.000113706)
(-1.75226e-08 -3.07826e-09 -0.000113868)
(1.98644e-08 -3.98153e-11 -0.000113862)
(-1.69871e-08 2.16311e-09 -0.000113709)
(-1.70507e-08 -7.83948e-10 -0.000113863)
(1.76189e-08 2.84922e-09 -0.00011371)
(3.12275e-09 4.15487e-09 -0.000121151)
(-8.70022e-09 6.03707e-09 -0.000121142)
(1.8976e-08 -3.13079e-09 -0.000121031)
(-1.34777e-08 1.59161e-10 -0.000121141)
(-8.01286e-09 7.51956e-09 -0.000121137)
(1.64291e-09 5.97137e-09 -0.000121153)
(-1.11506e-08 -7.20817e-11 -0.000121139)
(1.74832e-08 -2.91047e-09 -0.000121038)
(-1.99127e-08 2.74474e-09 -0.000121)
(9.77649e-09 1.16727e-09 -0.000121112)
(-8.63923e-09 4.44037e-09 -0.000121141)
(3.28121e-09 2.66911e-09 -0.000121135)
(9.89383e-09 1.37701e-09 -0.000121121)
(-1.90574e-08 3.67537e-09 -0.000121014)
(3.59889e-09 1.89441e-09 -0.000121136)
(-6.15283e-09 1.97736e-09 -0.000121149)
(2.07332e-08 -1.65965e-09 -0.000113678)
(-6.00481e-09 7.45815e-09 -0.000113841)
(1.33778e-08 3.29054e-09 -0.000113816)
(-1.91573e-08 -1.00745e-09 -0.000113658)
(-1.26916e-08 3.61385e-09 -0.000113847)
(2.47365e-08 5.3357e-10 -0.00011369)
(8.93916e-09 5.56533e-09 -0.000121162)
(-2.16127e-09 6.10402e-09 -0.000121164)
(-6.29627e-09 2.96172e-09 -0.00012114)
(1.92866e-08 3.43122e-09 -0.000121033)
(-4.49077e-09 1.10456e-09 -0.000121155)
(4.2245e-09 -8.56701e-10 -0.000121175)
(-4.14258e-09 7.97571e-09 -0.000113874)
(8.09169e-09 3.19873e-09 -0.000113889)
(4.07911e-09 5.41735e-09 -0.00011384)
(-7.10712e-09 2.37191e-10 -0.00011383)
(5.272e-09 -1.17392e-09 -0.00011389)
(-3.04982e-09 8.31461e-09 -0.000113883)
(6.60309e-09 -1.54882e-09 -0.000113848)
(-3.27769e-09 8.81038e-09 -0.000113869)
(4.03054e-09 9.68273e-09 -0.000113849)
(-6.80515e-09 2.78134e-10 -0.000113864)
(-4.6864e-09 5.37496e-09 -0.000113866)
(7.29902e-09 1.14249e-09 -0.000113857)
(-7.27232e-09 7.76994e-10 -0.000113861)
(4.21988e-09 5.61621e-09 -0.000113857)
(-1.44001e-08 -2.48485e-11 -0.000121051)
(1.77736e-08 2.57955e-09 -0.00012116)
(6.43477e-09 3.92712e-09 -0.000121183)
(-2.18385e-09 4.86338e-09 -0.000121198)
(1.60898e-08 1.72233e-09 -0.00012116)
(-1.22626e-08 5.25992e-11 -0.00012106)
(-1.54307e-08 3.9203e-09 -0.000113706)
(2.1041e-08 -1.19893e-09 -0.00011387)
(1.865e-08 3.21673e-09 -0.000113708)
(-1.6512e-08 -2.92757e-09 -0.000113874)
(1.90443e-08 -9.12101e-10 -0.000113864)
(-1.40024e-08 3.67291e-09 -0.000113712)
(-1.71939e-08 -1.98552e-09 -0.000113868)
(1.83357e-08 1.61613e-09 -0.000113719)
(2.38266e-09 5.8937e-09 -0.000121153)
(-6.88434e-09 3.89933e-09 -0.000121142)
(1.87875e-08 -2.39966e-09 -0.000121036)
(-1.48433e-08 7.88677e-10 -0.000121147)
(-6.83979e-09 3.4005e-09 -0.000121138)
(3.41174e-09 2.82146e-09 -0.000121155)
(-1.296e-08 2.33843e-10 -0.000121144)
(1.658e-08 -2.45712e-09 -0.000121046)
(-1.83342e-08 3.55261e-09 -0.00012102)
(6.61773e-09 3.85839e-09 -0.00012113)
(-6.89543e-09 3.37274e-09 -0.000121148)
(5.03815e-09 1.5506e-09 -0.000121143)
(4.51373e-09 4.14625e-09 -0.000121136)
(-2.48002e-08 6.98538e-09 -0.000121031)
(5.2371e-09 4.64366e-10 -0.000121139)
(-5.19609e-09 8.37492e-10 -0.000121156)
(2.1767e-08 -1.09483e-09 -0.00011369)
(-9.53414e-09 5.6869e-09 -0.000113857)
(1.16536e-08 4.8467e-09 -0.000113835)
(-2.28951e-08 -7.33362e-10 -0.00011367)
(-1.25949e-08 4.55678e-09 -0.000113862)
(2.39057e-08 4.2188e-10 -0.000113703)
(5.44451e-09 2.20284e-09 -0.000121171)
(-5.04819e-09 8.28104e-10 -0.000121165)
(-9.44464e-09 2.29222e-09 -0.000121157)
(2.68169e-08 7.93284e-09 -0.000121049)
(-6.2452e-09 -2.33038e-09 -0.000121159)
(6.31509e-09 3.817e-09 -0.000121178)
(-5.32318e-09 5.63962e-09 -0.00011388)
(7.3594e-09 9.43377e-10 -0.000113895)
(5.24291e-09 4.53509e-09 -0.000113846)
(-6.31624e-09 -1.55294e-09 -0.000113836)
(6.5675e-09 -1.09133e-09 -0.000113896)
(-3.94729e-09 6.99808e-09 -0.000113889)
(5.60902e-09 -2.15181e-09 -0.000113857)
(-5.67939e-09 3.45076e-09 -0.000113875)
(3.89213e-09 7.11863e-09 -0.000113853)
(-6.41927e-09 -1.38381e-09 -0.000113866)
(-4.37561e-09 5.7706e-09 -0.00011387)
(5.72509e-09 -1.60604e-09 -0.000113865)
(-6.62098e-09 -1.87588e-09 -0.000113859)
(6.09645e-09 3.14786e-09 -0.000113855)
(-1.32026e-08 -2.16645e-10 -0.000121056)
(1.47632e-08 1.30859e-09 -0.000121159)
(6.04377e-09 8.03528e-10 -0.00012119)
(-3.85345e-09 1.08781e-09 -0.000121206)
(1.42714e-08 4.43749e-10 -0.000121161)
(-1.56537e-08 -2.17336e-09 -0.000121059)
(-1.51356e-08 3.34255e-09 -0.000113707)
(1.82728e-08 -2.07015e-09 -0.000113866)
(1.88808e-08 1.6549e-09 -0.000113713)
(-1.33022e-08 -3.51512e-09 -0.00011387)
(2.01865e-08 -8.06968e-10 -0.000113866)
(-1.72709e-08 2.51451e-09 -0.000113709)
(-1.58448e-08 -3.55739e-09 -0.000113866)
(2.10721e-08 9.04258e-10 -0.000113713)
(3.67598e-09 1.53955e-09 -0.000121152)
(-6.55323e-09 2.62176e-09 -0.00012114)
(1.75481e-08 -2.50148e-09 -0.000121042)
(-1.23464e-08 -7.6085e-11 -0.000121148)
(-7.24998e-09 3.22622e-09 -0.000121132)
(4.36863e-09 1.70933e-09 -0.00012115)
(-1.13678e-08 -1.5273e-09 -0.000121144)
(1.77439e-08 -2.94844e-09 -0.000121045)
(-2.44401e-08 6.40654e-09 -0.000121036)
(7.8046e-09 2.8609e-09 -0.000121153)
(-5.22608e-09 1.31919e-09 -0.000121153)
(5.13434e-09 7.78598e-11 -0.000121146)
(1.09967e-08 1.43605e-09 -0.000121158)
(-2.09801e-08 5.19636e-09 -0.000121055)
(5.62737e-09 -2.0336e-10 -0.000121143)
(-4.36041e-09 -3.57072e-10 -0.00012116)
(2.042e-08 -1.02981e-09 -0.000113705)
(-7.03936e-09 6.8276e-09 -0.000113879)
(1.5075e-08 3.68765e-09 -0.00011386)
(-2.22786e-08 -2.65285e-10 -0.000113699)
(-1.49686e-08 4.8845e-09 -0.000113894)
(2.1681e-08 -4.3595e-10 -0.000113731)
(7.12754e-09 4.38874e-09 -0.000121173)
(-1.93929e-09 5.41559e-09 -0.000121171)
(-1.21513e-08 9.60487e-10 -0.000121181)
(1.63289e-08 2.19099e-09 -0.000121071)
(-7.03124e-09 -1.2201e-09 -0.000121159)
(4.3447e-09 -1.32395e-09 -0.00012118)
(-4.29548e-09 5.06779e-09 -0.000113886)
(5.98429e-09 -2.72795e-09 -0.0001139)
(6.07637e-09 2.67907e-09 -0.000113851)
(-4.81836e-09 -3.77034e-09 -0.000113843)
(4.79519e-09 -5.0585e-09 -0.000113893)
(-4.90819e-09 3.2697e-09 -0.000113894)
(6.23981e-09 -6.92767e-10 -0.000113859)
(-3.91414e-09 6.84864e-09 -0.000113879)
(3.95597e-09 6.08734e-09 -0.000113851)
(-6.17284e-09 -1.63964e-09 -0.000113867)
(-6.1199e-09 2.14159e-09 -0.000113867)
(6.6056e-09 -1.20104e-09 -0.000113864)
(-4.93886e-09 -3.4723e-09 -0.000113857)
(5.86486e-09 2.78474e-09 -0.000113857)
(-1.52247e-08 -1.36155e-09 -0.000121057)
(1.5208e-08 1.39391e-09 -0.000121166)
(5.33299e-09 4.32635e-10 -0.000121186)
(-4.55296e-09 4.95937e-10 -0.000121209)
(1.23111e-08 -5.7339e-10 -0.00012117)
(-1.51041e-08 -1.59947e-09 -0.000121068)
(-1.61156e-08 2.43189e-09 -0.000113709)
(1.77998e-08 -2.82594e-09 -0.000113873)
(1.99416e-08 9.34793e-10 -0.000113709)
(-1.57161e-08 -3.05767e-09 -0.000113868)
(1.83985e-08 -1.96894e-09 -0.000113873)
(-1.70758e-08 1.904e-09 -0.000113717)
(-1.91298e-08 -2.07936e-09 -0.000113863)
(1.64947e-08 2.63938e-09 -0.000113714)
(3.41992e-09 2.14514e-09 -0.000121147)
(-5.15894e-09 -9.00111e-11 -0.000121142)
(1.93005e-08 -3.98864e-09 -0.000121041)
(-1.34532e-08 7.9537e-11 -0.000121146)
(-6.67426e-09 2.3849e-09 -0.000121133)
(5.18542e-09 -1.54269e-10 -0.000121154)
(-1.55458e-08 1.31853e-09 -0.000121141)
(1.64494e-08 -1.77655e-09 -0.000121044)
(-1.84617e-08 3.48376e-09 -0.000121058)
(1.23249e-08 9.30383e-10 -0.000121172)
(-3.87016e-09 -7.99728e-10 -0.000121156)
(6.37603e-09 -2.6452e-09 -0.000121145)
(1.50537e-08 -7.13192e-10 -0.000121177)
(-1.65096e-08 1.79468e-09 -0.000121072)
(6.35216e-09 -1.97314e-09 -0.00012114)
(-3.44937e-09 -2.17465e-09 -0.000121158)
(1.92964e-08 -1.05248e-09 -0.000113737)
(-1.41994e-08 3.80227e-09 -0.000113902)
(1.88267e-08 2.28201e-09 -0.000113885)
(-1.68703e-08 -2.13883e-09 -0.000113722)
(-1.91388e-08 2.39424e-09 -0.000113911)
(1.77956e-08 -1.57899e-09 -0.000113747)
(2.86197e-09 -1.37548e-09 -0.000121174)
(-8.03995e-09 -4.6205e-09 -0.000121164)
(-1.79927e-08 -2.76111e-09 -0.000121187)
(2.07689e-08 4.1326e-09 -0.00012108)
(-1.08242e-08 -9.3648e-09 -0.000121156)
(2.29112e-09 -4.51359e-09 -0.000121175)
(-6.12549e-09 1.95679e-09 -0.000113884)
(6.487e-09 -8.97425e-10 -0.0001139)
(7.45548e-09 -1.07107e-09 -0.000113851)
(-4.21329e-09 -6.46905e-09 -0.000113843)
(6.12776e-09 -2.65156e-09 -0.000113895)
(-5.03199e-09 4.70539e-09 -0.00011389)
(3.08116e-09 -6.67663e-09 -0.000113857)
(-8.33891e-09 -2.14562e-09 -0.000113872)
(4.86069e-09 4.33452e-09 -0.000113847)
(-5.58705e-09 -4.6014e-09 -0.000113861)
(-8.53804e-09 -3.63574e-09 -0.000113863)
(2.80302e-09 -8.84449e-09 -0.000113858)
(-4.95729e-09 -5.35424e-09 -0.000113856)
(6.54511e-09 4.98293e-10 -0.000113851)
(-1.79896e-08 -2.70419e-09 -0.000121065)
(1.0198e-08 -1.52621e-09 -0.000121173)
(5.44109e-09 7.91056e-10 -0.000121187)
(-3.78739e-09 2.67797e-09 -0.000121208)
(9.90676e-09 -1.77354e-09 -0.000121176)
(-1.98015e-08 -3.78993e-09 -0.000121074)
(-1.83524e-08 1.84785e-09 -0.000113715)
(1.31793e-08 -3.68157e-09 -0.000113878)
(1.68861e-08 2.70639e-09 -0.000113708)
(-1.98814e-08 -1.57214e-09 -0.000113867)
(1.37653e-08 -4.3494e-09 -0.00011388)
(-2.16795e-08 3.85302e-10 -0.000113723)
(-2.13433e-08 -1.37624e-09 -0.000113863)
(1.37575e-08 3.6577e-09 -0.000113711)
(3.52526e-09 2.08565e-09 -0.000121145)
(-5.74832e-09 8.09139e-10 -0.000121135)
(1.44646e-08 -1.36805e-09 -0.000121039)
(-1.77274e-08 2.17535e-09 -0.000121145)
(-6.14459e-09 1.67614e-09 -0.000121131)
(4.10162e-09 8.92197e-10 -0.000121147)
(-1.75003e-08 2.02288e-09 -0.000121139)
(1.26088e-08 -2.57253e-10 -0.000121041)
(-1.38308e-08 9.80274e-10 -0.000121075)
(1.57502e-08 -1.60072e-09 -0.000121179)
(-3.14676e-09 -3.06202e-09 -0.000121152)
(9.71213e-09 -7.76403e-09 -0.00012114)
(1.56909e-08 -1.35386e-09 -0.000121175)
(-1.31782e-08 3.15223e-10 -0.000121077)
(9.3162e-09 -7.436e-09 -0.00012114)
(1.15076e-11 -8.89568e-09 -0.000121155)
(1.54656e-08 -3.07215e-09 -0.000113752)
(-1.55025e-08 3.56763e-09 -0.00011391)
(1.67869e-08 2.17598e-09 -0.000113887)
(-1.68522e-08 -2.25548e-09 -0.000113733)
(-2.38357e-08 -4.46427e-10 -0.000113915)
(1.38437e-08 -3.63101e-09 -0.000113758)
(2.95226e-09 -3.13577e-09 -0.000121168)
(-8.08882e-09 -6.23206e-09 -0.000121159)
(-2.09308e-08 -4.70599e-09 -0.000121183)
(7.70069e-09 -2.98921e-09 -0.000121078)
(-1.00782e-08 -1.06416e-08 -0.000121145)
(-2.35785e-09 -1.3481e-08 -0.00012117)
(-4.38814e-09 4.91637e-09 -0.000113885)
(6.04441e-09 -2.49404e-09 -0.000113891)
(8.16284e-09 -3.38897e-09 -0.000113852)
(-2.92711e-09 -9.68711e-09 -0.000113839)
(5.59572e-09 -2.4649e-09 -0.000113884)
(-5.55809e-09 1.86885e-09 -0.00011388)
(1.82512e-09 -1.10145e-08 -0.000113852)
(-7.96461e-09 -2.18621e-09 -0.000113865)
(4.39941e-09 2.71107e-09 -0.000113848)
(-6.13113e-09 -3.38286e-09 -0.000113858)
(-7.85832e-09 -4.881e-09 -0.000113856)
(2.8348e-09 -1.06993e-08 -0.000113849)
(-3.9677e-09 -3.46403e-09 -0.000113861)
(5.28882e-09 2.6364e-09 -0.000113852)
(-1.85701e-08 -3.54508e-09 -0.000121074)
(1.32388e-08 2.68538e-10 -0.000121174)
(4.73758e-09 -7.68188e-10 -0.000121177)
(-5.07469e-09 3.47434e-10 -0.000121194)
(8.94628e-09 -1.71589e-09 -0.000121171)
(-1.63292e-08 -1.9567e-09 -0.000121072)
(-2.09771e-08 5.42678e-10 -0.000113722)
(1.76382e-08 -2.58186e-09 -0.00011388)
(1.50642e-08 2.62199e-09 -0.000113706)
(-1.75728e-08 -2.85149e-09 -0.000113861)
(1.68626e-08 -2.16991e-09 -0.000113878)
(-1.64254e-08 2.75234e-09 -0.000113723)
(-1.90098e-08 -9.58054e-10 -0.000113853)
(1.8383e-08 2.36874e-09 -0.000113702)
(4.50446e-09 1.68754e-12 -0.000121144)
(-5.31974e-09 2.60242e-10 -0.000121135)
(1.35071e-08 -4.12301e-10 -0.000121034)
(-1.61494e-08 1.5515e-09 -0.000121136)
(-5.41098e-09 1.75079e-09 -0.000121139)
(5.37562e-09 -1.20819e-09 -0.000121151)
(-1.33633e-08 7.9177e-10 -0.000121129)
(1.4694e-08 -9.50178e-10 -0.000121032)
(-1.24241e-08 -9.22189e-11 -0.000121069)
(1.48799e-08 -9.94377e-10 -0.000121169)
(-2.74626e-10 -8.1246e-09 -0.000121153)
(9.08086e-09 -7.47532e-09 -0.000121142)
(1.44683e-08 -9.90227e-10 -0.000121161)
(-1.4627e-08 1.10388e-09 -0.000121065)
(9.091e-09 -8.08205e-09 -0.000121144)
(-2.07591e-10 -8.23245e-09 -0.000121158)
(1.00431e-08 -5.11384e-09 -0.000113755)
(-2.26633e-08 -5.8508e-11 -0.000113913)
(1.79712e-08 1.88547e-09 -0.000113873)
(-1.68275e-08 -2.71176e-09 -0.000113725)
(-2.53196e-08 -7.44937e-10 -0.000113906)
(1.08669e-08 -5.06239e-09 -0.000113756)
(-2.27733e-10 -9.90328e-09 -0.000121161)
(-1.08094e-08 -1.10943e-08 -0.000121156)
(-2.4472e-08 -6.75752e-09 -0.000121174)
(1.1013e-08 -9.8247e-10 -0.000121076)
(-1.04275e-08 -1.00953e-08 -0.000121153)
(1.12396e-09 -7.80267e-09 -0.000121169)
(-5.28148e-09 4.75926e-09 -0.000113874)
(6.19105e-09 -1.25236e-09 -0.000113883)
(7.25542e-09 -2.35074e-09 -0.000113856)
(-2.65218e-09 -1.0053e-08 -0.000113845)
(5.03144e-09 -5.19174e-09 -0.00011388)
(-5.33992e-09 3.23308e-09 -0.000113875)
(1.98479e-09 -1.25614e-08 -0.000113846)
(-9.16603e-09 -6.92166e-09 -0.000113866)
(5.9395e-09 4.14379e-09 -0.000113852)
(-5.71869e-09 -1.21831e-09 -0.000113866)
(-7.85798e-09 -3.2559e-09 -0.000113864)
(2.9587e-09 -1.04529e-08 -0.000113856)
(-5.44002e-09 -2.34222e-09 -0.000113867)
(5.91516e-09 3.37603e-09 -0.000113859)
(-2.09016e-08 -3.83654e-09 -0.000121067)
(9.62578e-09 -2.42926e-09 -0.000121176)
(5.0419e-09 -4.51208e-11 -0.000121168)
(-3.74285e-09 2.2287e-09 -0.000121189)
(8.57639e-09 -2.3364e-09 -0.000121175)
(-2.07128e-08 -4.41922e-09 -0.000121074)
(-1.96665e-08 1.67133e-09 -0.000113721)
(1.14039e-08 -4.69848e-09 -0.000113883)
(1.67518e-08 2.31406e-09 -0.000113698)
(-1.47226e-08 -3.13725e-09 -0.000113856)
(1.38302e-08 -3.30445e-09 -0.000113883)
(-2.23548e-08 -1.72824e-11 -0.000113727)
(-1.62349e-08 -3.28205e-09 -0.000113859)
(1.98846e-08 2.06957e-09 -0.000113698)
(4.59489e-09 1.88275e-09 -0.00012115)
(-5.86169e-09 1.4905e-09 -0.000121142)
(1.71547e-08 -2.38362e-09 -0.000121026)
(-9.69815e-09 -1.47974e-09 -0.000121129)
(-5.76069e-09 2.09137e-09 -0.000121142)
(4.8101e-09 9.05803e-10 -0.000121156)
(-1.19828e-08 -8.31385e-11 -0.00012113)
(2.11275e-08 -4.34065e-09 -0.000121028)
(-1.31226e-08 4.35856e-10 -0.000121057)
(1.66081e-08 -1.63426e-09 -0.00012116)
(-1.60138e-09 -6.08096e-09 -0.000121154)
(8.47547e-09 -5.32495e-09 -0.000121149)
(1.50252e-08 -2.04795e-09 -0.000121156)
(-1.26447e-08 -4.28707e-10 -0.000121059)
(5.50407e-09 -1.99238e-09 -0.000121147)
(-2.58573e-09 -5.51626e-09 -0.000121163)
(9.30965e-09 -5.54461e-09 -0.000113744)
(-1.82731e-08 1.70811e-09 -0.000113903)
(1.89616e-08 1.4896e-09 -0.000113873)
(-1.38864e-08 -4.4313e-09 -0.000113719)
(-2.10834e-08 1.22759e-10 -0.000113902)
(1.22715e-08 -4.53305e-09 -0.000113751)
(3.16018e-09 -3.81815e-09 -0.000121166)
(-6.07612e-09 -2.6467e-09 -0.000121164)
(-1.74837e-08 -3.02962e-09 -0.000121175)
(7.84309e-09 -3.58325e-09 -0.00012107)
(-7.73901e-09 -3.67349e-09 -0.000121161)
(5.83785e-10 -9.30702e-09 -0.000121176)
(-5.99562e-09 1.56632e-09 -0.000113871)
(6.1836e-09 -1.28312e-09 -0.000113883)
(5.35414e-09 3.24892e-09 -0.000113861)
(-4.33694e-09 -6.89256e-09 -0.000113852)
(5.33725e-09 -3.17081e-09 -0.000113885)
(-4.79341e-09 4.8993e-09 -0.000113879)
(3.18816e-09 -8.98244e-09 -0.000113854)
(-6.1002e-09 8.05146e-10 -0.000113873)
(5.12087e-09 5.20994e-09 -0.000113857)
(-6.22152e-09 -1.81179e-10 -0.00011387)
(-5.91443e-09 1.70784e-09 -0.000113872)
(4.85518e-09 -6.8304e-09 -0.00011386)
(-5.69898e-09 -2.53516e-09 -0.000113872)
(5.35945e-09 4.41287e-09 -0.000113863)
(-1.92503e-08 -3.43526e-09 -0.000121069)
(1.20612e-08 -4.79039e-10 -0.000121179)
(5.43077e-09 6.76012e-10 -0.000121172)
(-3.77937e-09 2.50332e-09 -0.000121188)
(1.18481e-08 -8.9058e-11 -0.000121181)
(-1.90632e-08 -3.31101e-09 -0.000121081)
(-2.07622e-08 1.30196e-09 -0.000113724)
(1.37661e-08 -3.87227e-09 -0.000113892)
(1.93103e-08 1.96371e-09 -0.000113701)
(-1.47242e-08 -3.47042e-09 -0.000113866)
(1.77638e-08 -1.29797e-09 -0.000113893)
(-2.04395e-08 9.72809e-10 -0.000113738)
(-1.89974e-08 -1.38474e-09 -0.000113868)
(1.93429e-08 1.91635e-09 -0.000113712)
(4.72566e-09 2.21983e-09 -0.000121154)
(-5.98084e-09 2.0228e-09 -0.000121147)
(1.93958e-08 -3.2062e-09 -0.000121029)
(-1.16234e-08 -9.94771e-10 -0.00012114)
(-5.16415e-09 2.866e-10 -0.000121147)
(4.59081e-09 9.79182e-10 -0.000121162)
(-1.33185e-08 4.38925e-10 -0.00012114)
(1.87944e-08 -2.8868e-09 -0.000121039)
(-1.52827e-08 1.04637e-09 -0.000121051)
(1.14646e-08 5.91807e-10 -0.000121154)
(-4.71773e-09 -7.51206e-10 -0.00012116)
(5.94857e-09 -1.02118e-09 -0.000121155)
(1.29917e-08 -5.77014e-10 -0.000121155)
(-1.78747e-08 2.30437e-09 -0.000121051)
(5.0309e-09 -6.22468e-10 -0.000121153)
(-4.34909e-09 -2.56713e-09 -0.000121167)
(1.35956e-08 -4.36117e-09 -0.000113742)
(-1.69776e-08 1.91338e-09 -0.000113903)
(1.6992e-08 2.48453e-09 -0.000113873)
(-1.70477e-08 -3.40346e-09 -0.000113712)
(-1.76747e-08 1.89494e-09 -0.000113904)
(1.60485e-08 -3.6826e-09 -0.000113747)
(3.46721e-09 -2.55408e-09 -0.000121175)
(-7.07013e-09 -2.78872e-09 -0.000121169)
(-1.45003e-08 -1.07469e-09 -0.000121178)
(1.88653e-08 2.37587e-09 -0.000121073)
(-9.55678e-09 -7.84234e-09 -0.000121169)
(4.65557e-09 -3.31812e-10 -0.000121184)
(-5.92963e-09 3.77324e-09 -0.000113875)
(4.49622e-09 -5.15582e-09 -0.000113888)
(5.53191e-09 2.21749e-09 -0.000113865)
(-5.27485e-09 -4.76997e-09 -0.000113855)
(4.64743e-09 -4.1073e-09 -0.000113885)
(-7.33777e-09 -3.50261e-10 -0.000113878)
(4.37801e-09 -4.53941e-09 -0.000113863)
(-6.16489e-09 1.41174e-09 -0.000113882)
(4.69258e-09 4.47837e-09 -0.000113863)
(-6.15688e-09 -3.51355e-09 -0.000113876)
(-5.93915e-09 4.86803e-10 -0.000113884)
(5.34274e-09 -3.71875e-09 -0.000113874)
(-5.13707e-09 -4.36528e-09 -0.000113878)
(6.56983e-09 1.53532e-09 -0.000113867)
(-1.60592e-08 -1.52244e-09 -0.000121077)
(1.45717e-08 1.09036e-09 -0.000121184)
(4.9937e-09 -1.24157e-10 -0.000121172)
(-6.25822e-09 -7.37503e-10 -0.000121187)
(1.2405e-08 1.06366e-11 -0.000121181)
(-1.49597e-08 -6.25267e-10 -0.000121082)
(-1.71004e-08 2.61081e-09 -0.000113735)
(1.67535e-08 -1.94914e-09 -0.000113897)
(1.79459e-08 2.17486e-09 -0.000113711)
(-1.63613e-08 -2.5629e-09 -0.000113876)
(1.79371e-08 -1.13119e-09 -0.000113893)
(-1.66909e-08 2.60403e-09 -0.00011374)
(-1.34364e-08 -3.34343e-09 -0.000113877)
(1.84997e-08 2.00016e-09 -0.000113722)
(4.6262e-09 1.84604e-11 -0.000121161)
(-5.11803e-09 5.33492e-11 -0.00012115)
(1.87775e-08 -3.28602e-09 -0.000121037)
(-1.1894e-08 -4.64008e-10 -0.000121148)
(-5.09182e-09 -2.58481e-10 -0.000121153)
(5.28242e-09 -7.55548e-10 -0.000121164)
(-1.06185e-08 -1.10293e-09 -0.00012115)
(1.72279e-08 -1.9098e-09 -0.000121046)
(-1.60509e-08 1.26869e-09 -0.000121053)
(1.3015e-08 1.89562e-10 -0.000121155)
(-5.3098e-09 1.87451e-10 -0.000121165)
(4.97724e-09 -7.28295e-10 -0.000121155)
(1.61994e-08 -2.02756e-09 -0.000121155)
(-1.50317e-08 1.0566e-09 -0.000121054)
(4.91282e-09 -9.48984e-10 -0.000121152)
(-5.14939e-09 -7.48773e-10 -0.000121169)