/*--------------------------------*- C++ -*----------------------------------*\
| =========                 |                                                 |
| \\      /  F ield         | OpenFOAM: The Open Source CFD Toolbox           |
|  \\    /   O peration     | Version:  2206                                  |
|   \\  /    A nd           | Website:  www.openfoam.com                      |
|    \\/     M anipulation  |                                                 |
\*---------------------------------------------------------------------------*/
FoamFile
{
    version     2.0;
    format      ascii;
    arch        "LSB;label=32;scalar=64";
    class       surfaceScalarField;
    location    "0.5";
    object      phi;
}
// * * * * * * * * * * * * * * * * * * * * * * * * * * * * * * * * * * * * * //

dimensions      [0 3 -1 0 0 0 0];

oriented        oriented;

internalField   nonuniform List<scalar> 
197159
(
-3.50849e-11
-3.92791e-11
2.75189e-08
-2.7365e-08
-3.96009e-11
-3.99733e-11
-6.45607e-12
-3.60229e-11
-1.09087e-11
8.21978e-12
-2.46047e-11
-2.46048e-11
2.24083e-11
2.43684e-11
1.14991e-07
2.37405e-11
6.74366e-12
-1.40511e-11
-3.81595e-11
-2.81724e-11
2.83653e-11
5.82631e-11
-5.76993e-11
5.62444e-11
-5.77276e-11
1.12877e-07
3.14624e-11
5.37119e-11
-3.3363e-12
-1.0849e-11
-2.40263e-11
2.81032e-11
3.56884e-11
-5.72812e-11
5.45138e-11
-3.69971e-11
1.13927e-07
-3.11972e-11
-2.73909e-08
-5.06015e-11
-2.25532e-11
2.75267e-08
-3.39139e-11
-1.05905e-10
-2.75839e-11
-4.42115e-11
-3.75527e-12
-2.48075e-11
3.55365e-11
4.01093e-12
1.13931e-07
-1.53335e-11
4.02225e-11
3.98591e-11
2.73648e-08
3.5823e-11
3.81887e-11
-2.73647e-08
-3.95295e-11
-3.94841e-11
-3.58272e-11
-3.89312e-11
2.75185e-08
-5.22433e-11
1.17999e-07
7.45922e-11
-9.2191e-12
1.18293e-07
-1.43041e-11
3.15294e-12
1.43127e-12
7.17403e-09
-7.17962e-09
1.00776e-12
5.03228e-12
2.07298e-12
7.02869e-09
1.58818e-12
6.14463e-12
2.27003e-08
1.56291e-11
-2.27158e-08
-3.21442e-12
1.04394e-11
2.22125e-08
2.2288e-11
-2.22361e-08
-4.10178e-12
5.37552e-12
-1.43168e-08
2.49962e-12
1.43093e-08
1.01771e-12
3.4457e-12
-2.19704e-08
8.49283e-12
2.197e-08
1.25757e-11
3.03575e-12
1.39816e-08
1.34949e-12
4.97538e-11
5.91561e-14
-4.36049e-12
-1.55239e-11
2.0532e-08
2.38053e-11
-2.15852e-08
1.61367e-11
2.15683e-08
-1.82272e-13
7.14115e-12
9.87197e-11
-1.32554e-10
1.33669e-10
-9.8612e-11
1.1586e-07
-8.94304e-14
-2.45917e-08
-1.05098e-11
9.16922e-11
2.45603e-08
1.27939e-11
-1.93808e-12
2.74178e-12
1.39773e-08
1.31726e-12
4.97891e-11
-1.55305e-11
-4.23132e-12
2.05288e-08
4.58979e-12
8.0018e-11
-1.32131e-10
1.32938e-10
-7.93197e-11
1.17083e-07
-1.05365e-11
2.42266e-11
-2.15709e-08
1.59508e-11
2.1554e-08
-2.45889e-08
9.18676e-11
-1.04146e-11
2.45571e-08
5.3305e-12
7.02749e-09
1.47565e-12
2.27544e-11
-2.22841e-08
-3.98267e-12
2.22601e-08
-2.72692e-12
6.29969e-12
1.48731e-11
-2.26698e-08
-2.75119e-12
2.26541e-08
1.06231e-12
-7.18071e-09
7.17526e-09
1.65863e-12
-5.17174e-12
2.71299e-12
-2.19813e-08
9.26694e-12
2.19808e-08
-1.4321e-08
1.93995e-12
1.43135e-08
1.4513e-12
-2.33647e-12
7.1793e-09
-6.86659e-13
-2.24888e-12
3.38753e-12
7.17332e-09
-7.17891e-09
9.86784e-13
1.22038e-12
-5.16479e-12
7.03736e-09
-1.89956e-12
-1.59795e-12
4.85886e-12
7.02871e-09
-7.03737e-09
2.14663e-12
1.6524e-12
-1.45334e-11
2.10908e-12
2.27163e-08
-5.9086e-12
-2.20773e-11
4.07736e-12
2.22358e-08
-1.04977e-11
2.75184e-08
-2.73647e-08
-3.95415e-11
-3.96267e-11
-3.55944e-11
-3.8959e-11
2.27011e-08
-2.6522e-12
-2.27166e-08
1.55495e-11
6.08468e-12
2.22121e-08
-4.25542e-12
-2.22356e-08
2.21646e-11
1.04639e-11
3.29709e-12
-7.17844e-09
8.23023e-13
7.17294e-09
1.37974e-12
-2.24572e-12
7.17862e-09
-9.48202e-13
-2.11284e-12
4.81496e-12
-7.03742e-09
2.17713e-12
7.02877e-09
1.66256e-12
-5.31244e-12
7.03739e-09
-1.82879e-12
-1.54194e-12
2.73647e-08
4.02441e-11
4.02304e-11
3.52993e-11
3.79656e-11
1.54921e-11
-2.27172e-08
-2.51558e-12
5.94413e-12
2.27016e-08
2.2087e-11
-2.22355e-08
-4.29117e-12
1.04745e-11
2.22121e-08
2.48217e-12
-1.47293e-11
2.27169e-08
-5.87566e-12
3.93866e-12
-2.22112e-11
2.22355e-08
-1.04663e-11
-2.69947e-12
-7.30324e-14
-2.75765e-12
-7.17409e-09
8.67285e-12
-1.63096e-11
2.03853e-08
1.20826e-11
-2.08251e-11
-2.41708e-08
-1.70789e-11
2.41473e-08
3.26647e-11
2.35818e-11
1.64133e-12
-1.4723e-11
-5.1215e-12
-1.36317e-08
8.93869e-12
-2.51476e-12
1.36215e-08
5.86547e-13
1.69832e-12
-1.23567e-12
-3.1744e-11
-2.17051e-11
-1.2372e-11
2.03687e-08
2.08508e-11
1.075e-11
-2.08137e-11
1.93542e-08
1.33707e-11
-1.93341e-11
-2.31466e-08
-2.04781e-11
2.31179e-08
4.01381e-11
3.13601e-11
4.19754e-12
-2.20769e-11
-1.05409e-11
-1.32808e-08
1.07756e-11
-2.66588e-12
1.32677e-08
9.06139e-13
2.7007e-12
-7.83627e-13
-3.96745e-11
-3.17147e-11
-1.31686e-11
1.93382e-08
1.95367e-11
3.06153e-12
3.27465e-12
1.59312e-08
-5.86966e-09
3.00005e-12
5.86302e-09
1.1279e-12
-5.83979e-09
3.3094e-12
5.83244e-09
1.37624e-12
-1.72602e-12
-1.32013e-12
1.5912e-08
-6.94481e-12
-3.0954e-11
-2.19048e-12
-1.42768e-08
-2.18738e-08
1.00683e-11
9.59421e-12
2.18559e-08
6.95953e-13
-1.33458e-10
3.61496e-11
-2.17512e-08
-3.22277e-11
5.94608e-09
1.56388e-12
-5.93588e-09
-1.70468e-12
-3.61762e-12
6.56135e-12
2.55072e-11
2.12712e-08
2.01572e-12
5.76108e-09
1.67089e-12
-1.25423e-11
4.08945e-11
1.95061e-08
-1.17329e-12
6.62357e-14
1.26389e-08
5.74089e-13
1.04018e-08
6.12588e-13
-3.81745e-12
6.34679e-12
2.5653e-11
2.12607e-08
1.85745e-12
5.75775e-09
1.63939e-12
-1.03099e-12
1.26359e-08
5.67179e-13
-1.24934e-11
4.07526e-11
1.94979e-08
1.03963e-08
6.36781e-13
-2.18241e-11
1.05021e-11
1.93521e-08
1.28392e-11
-1.82199e-11
-2.35094e-08
-2.02857e-11
4.28697e-11
3.06252e-11
2.34789e-08
-2.18694e-11
4.29611e-12
-1.08179e-11
-1.32665e-08
1.11308e-11
-2.54928e-12
1.32532e-08
7.893e-13
-3.95697e-11
-3.14762e-11
2.59934e-12
-8.9266e-13
-1.29381e-11
2.01196e-11
1.93357e-08
8.54889e-12
-1.43701e-11
2.03969e-08
1.15735e-11
-2.19251e-11
-2.37978e-08
-1.6814e-11
2.97252e-11
2.5085e-11
2.37747e-08
2.21376e-12
-1.55841e-11
2.77837e-12
-4.19127e-12
-1.36473e-08
8.70444e-12
-2.35809e-12
1.36373e-08
8.47621e-13
1.85243e-12
-9.45068e-13
-4.46447e-11
-4.84915e-12
-1.23625e-11
2.06961e-11
2.03805e-08
3.13818e-12
2.83544e-12
1.59346e-08
-5.8393e-09
3.44275e-12
5.83203e-09
1.27542e-12
-5.87052e-09
2.81523e-12
5.86403e-09
1.32008e-12
-1.38813e-12
-1.47794e-12
1.59156e-08
-6.95982e-13
-1.88782e-12
-1.73911e-12
-4.7477e-12
-1.6015e-12
-2.188e-08
2.3276e-13
9.33563e-12
2.18689e-08
3.4565e-12
-9.37836e-12
-2.72116e-13
-3.0148e-12
5.94979e-09
2.10236e-12
-5.95282e-09
1.16121e-12
7.17365e-09
3.34642e-12
1.13748e-12
1.15881e-12
-2.24014e-12
-7.91483e-13
-2.22394e-12
7.02869e-09
4.92819e-12
2.10552e-12
1.63325e-12
-5.25684e-12
-1.86407e-12
-1.55732e-12
2.95184e-12
3.39512e-12
1.59309e-08
-1.59118e-08
-1.21191e-11
-1.33369e-11
-5.86946e-09
3.05782e-12
2.22835e-12
5.86288e-09
1.29337e-12
-5.83973e-09
3.19559e-12
2.73879e-12
5.8324e-09
1.39736e-12
-5.86291e-09
-2.0432e-12
-1.55116e-12
-5.8324e-09
-2.62415e-12
-1.31013e-12
1.22372e-11
1.31811e-11
1.59117e-08
-2.0385e-08
-9e-12
1.70325e-11
-1.23821e-11
2.03685e-08
2.08569e-11
1.58785e-11
2.41702e-08
-3.19421e-11
-2.13548e-11
-8.60756e-12
1.36315e-08
1.89899e-12
-1.19138e-12
-2.80899e-12
1.56629e-11
2.27008e-08
6.05994e-12
1.20013e-11
-2.10106e-11
-2.32973e-12
1.36213e-08
6.3567e-13
2.41471e-08
3.26631e-11
2.3142e-11
-1.93541e-08
-1.07254e-11
2.04483e-11
-1.31808e-11
1.93381e-08
1.95221e-11
2.0867e-11
2.31466e-08
-3.97811e-11
-3.18951e-11
-1.08164e-11
1.32807e-08
2.66294e-12
-7.75744e-13
-4.18069e-12
2.22306e-11
2.22123e-08
1.04433e-11
1.33466e-11
-1.92876e-11
-2.71009e-12
1.32676e-08
9.08012e-13
2.31179e-08
4.0045e-11
3.13959e-11
-1.5931e-08
-3.07007e-12
-3.27618e-12
-2.96806e-12
5.86952e-09
-1.64302e-12
-3.32924e-12
5.83975e-09
-1.32283e-12
1.20689e-12
1.3587e-12
8.67732e-12
2.03846e-08
-1.61822e-11
-2.07769e-11
-1.36314e-08
8.94107e-12
1.36213e-08
7.15082e-13
2.34217e-12
-1.46718e-11
-5.79474e-12
-1.67897e-11
-2.41697e-08
2.41468e-08
3.23036e-11
2.29018e-11
-1.11026e-12
2.03684e-08
2.06033e-11
-3.17531e-11
-2.17273e-11
1.0877e-11
1.93541e-08
-2.08594e-11
-1.93811e-11
-1.32806e-08
1.06561e-11
1.32675e-08
9.06877e-13
4.00262e-12
-2.21483e-11
-1.04889e-11
-2.04678e-11
-2.31466e-08
2.31179e-08
3.99459e-11
3.14219e-11
-7.79306e-13
1.93381e-08
1.93978e-11
-3.98792e-11
-3.1876e-11
-7.17309e-09
-2.29036e-12
-1.02284e-12
-2.03595e-12
3.35747e-12
8.54732e-13
1.32286e-12
-7.02874e-09
-5.33286e-12
-1.81569e-12
-1.53815e-12
4.81996e-12
2.17346e-12
1.66149e-12
-1.59309e-08
-3.0407e-12
-3.16031e-12
1.21817e-11
1.31697e-11
1.59117e-08
-2.9679e-12
5.86945e-09
-2.11777e-12
-1.48295e-12
-3.46219e-12
5.83974e-09
-2.60771e-12
-1.27151e-12
-1.22255e-11
-1.33459e-11
2.17446e-12
5.86288e-09
1.34403e-12
2.74665e-12
5.83241e-09
1.41759e-12
8.74471e-12
-1.63532e-11
2.03846e-08
-2.03684e-08
1.22493e-11
-2.08394e-11
-2.41694e-08
-1.67052e-11
3.2213e-11
2.41465e-08
2.27964e-11
2.55557e-12
-1.47551e-11
-2.27013e-08
-5.95095e-12
-1.36316e-08
8.88371e-12
-2.17709e-12
1.36215e-08
8.11056e-13
-1.36214e-08
2.14446e-12
-9.87721e-13
-2.41467e-08
-3.1876e-11
-2.19309e-11
-1.21763e-11
2.05499e-11
2.03684e-08
1.09847e-11
-2.08543e-11
1.93542e-08
-1.93381e-08
1.33603e-11
-1.95465e-11
-2.31467e-08
-2.04633e-11
3.98391e-11
2.3118e-08
3.14345e-11
3.92262e-12
-2.22517e-11
-2.22121e-08
-1.04627e-11
-1.32806e-08
1.06056e-11
-2.73032e-12
1.32675e-08
8.96289e-13
-1.32675e-08
2.61765e-12
-7.83574e-13
-2.31179e-08
-4.00499e-11
-3.18411e-11
-1.31485e-11
1.92953e-11
1.93382e-08
-2.03846e-08
-8.89552e-12
1.6714e-11
2.05725e-11
-8.72931e-12
1.36315e-08
-1.03802e-12
1.63181e-11
2.41695e-08
-3.18322e-11
-2.18875e-11
-2.5408e-12
1.55276e-11
5.97823e-12
-2.08094e-11
7.73821e-13
3.22463e-11
2.28283e-11
-1.93541e-08
-1.06112e-11
2.04731e-11
1.93206e-11
-1.09512e-11
1.32806e-08
-7.78037e-13
2.08491e-11
2.31466e-08
-3.99852e-11
-3.18464e-11
-4.29865e-12
2.21131e-11
1.04806e-11
-1.94938e-11
9.03882e-13
3.98713e-11
3.14404e-11
2.99275e-12
3.4613e-12
1.59309e-08
-5.86947e-09
3.00388e-12
5.86291e-09
1.37343e-12
-5.83976e-09
3.18247e-12
5.83243e-09
1.41558e-12
-1.4439e-12
-1.26528e-12
1.59118e-08
-1.42566e-11
-2.20014e-11
2.32326e-08
3.97946e-11
3.97886e-11
-2.61804e-08
-1.50615e-11
2.61776e-08
-2.49158e-08
-2.13611e-11
2.49092e-08
2.32366e-08
-3.39832e-11
-4.77042e-13
2.32247e-08
3.06067e-11
8.4894e-11
-2.60134e-08
-1.70884e-11
2.59987e-08
-2.50646e-08
-1.92915e-11
2.50634e-08
2.32291e-08
-2.32325e-08
1.49583e-11
2.13479e-11
2.32366e-08
1.4164e-11
2.618e-08
-8.26978e-12
2.20126e-11
2.49158e-08
-2.85526e-11
-3.95039e-11
-3.98113e-11
2.75185e-08
-3.53094e-11
-3.90192e-11
2.61774e-08
1.07236e-11
2.49091e-08
2.82526e-11
-1.45905e-11
-2.19687e-11
2.32327e-08
-2.32366e-08
4.02546e-11
4.03482e-11
-2.75185e-08
3.51909e-11
3.79557e-11
-2.61799e-08
-1.46062e-11
1.01271e-11
2.6177e-08
-2.49158e-08
-2.13916e-11
2.8426e-11
2.49092e-08
-2.61771e-08
-8.97028e-12
-2.49091e-08
-2.83848e-11
2.32366e-08
1.42509e-12
1.20697e-07
5.72883e-11
1.24421e-07
-1.2781e-12
2.36217e-11
9.4979e-11
2.65374e-08
-3.39136e-11
-2.53647e-08
2.75572e-11
2.53396e-08
-1.78125e-12
-2.08967e-11
-2.39863e-08
4.4024e-12
2.3991e-08
8.99823e-12
-5.23768e-11
2.65849e-08
8.80099e-12
3.74592e-11
4.4484e-11
2.61578e-08
2.53055e-11
-2.49722e-08
3.65213e-11
2.49332e-08
-2.2608e-11
-1.70171e-11
-2.34729e-08
4.39011e-11
1.46107e-11
2.3456e-08
-1.50534e-11
-2.62637e-11
2.62067e-08
7.0369e-11
-1.84625e-11
2.61603e-08
1.074e-11
-9.21514e-11
1.11329e-13
-2.38388e-08
7.05313e-11
2.38133e-08
-2.70619e-08
-1.81311e-11
-7.18774e-12
2.70463e-08
7.13109e-12
2.60878e-08
4.3112e-11
4.05917e-11
2.61309e-08
-2.99993e-11
-2.49786e-08
3.94022e-11
2.49367e-08
-1.71471e-11
-2.23747e-11
-2.34625e-08
4.34271e-11
1.71645e-11
2.34435e-08
-1.8281e-11
2.86435e-11
2.61481e-08
-2.19406e-11
6.95028e-11
2.61601e-08
-9.17579e-11
1.08878e-11
-2.70591e-08
-2.10956e-11
2.70327e-08
-2.38311e-08
6.92647e-11
2.38093e-08
2.61576e-08
1.97067e-11
4.39471e-12
2.65615e-08
5.25698e-11
-2.53484e-08
2.29535e-11
2.53284e-08
-2.4296e-12
-9.21475e-12
-2.39853e-08
3.66089e-12
2.39936e-08
6.65055e-12
-5.7969e-12
2.66458e-08
-5.36327e-11
2.32327e-08
-1.43227e-11
-2.19856e-11
4.02571e-11
4.00332e-11
3.55385e-11
3.79206e-11
-1.47526e-11
-2.61801e-08
2.61772e-08
1.04186e-11
-2.13909e-11
-2.49157e-08
2.49091e-08
2.83501e-11
2.32366e-08
-8.55052e-12
-2.84699e-11
-2.32327e-08
1.46364e-11
2.14039e-11
-3.9545e-11
-3.95155e-11
-3.5778e-11
-3.89161e-11
1.44978e-11
2.618e-08
-8.83208e-12
2.19593e-11
2.49158e-08
-2.83999e-11
1.01945e-11
2.84174e-11
-2.08799e-12
6.83597e-13
2.13161e-12
-1.26883e-12
1.17999e-07
-3.83411e-11
-6.83469e-13
-1.28688e-13
1.12865e-07
2.72924e-11
3.9424e-11
-2.28306e-11
-5.75161e-11
5.65943e-11
-6.02524e-11
5.84284e-11
-1.12867e-07
-4.48438e-11
1.16346e-12
-2.5247e-12
1.13937e-07
1.2302e-11
4.36548e-11
-1.52953e-11
4.22918e-12
2.39657e-11
-2.55697e-11
-3.86509e-12
2.84488e-11
4.37934e-11
4.86354e-11
3.24098e-11
2.73773e-08
-2.75306e-08
-1.85416e-12
1.71835e-12
-1.18e-07
-1.20728e-12
1.2429e-12
1.18e-07
-1.12867e-07
-3.84762e-11
-2.20083e-12
-2.47089e-13
1.12867e-07
2.79379e-11
3.95623e-11
-2.75519e-11
-5.73165e-11
5.69784e-11
5.87415e-11
-5.74311e-11
-1.13939e-07
-4.30805e-11
-9.65204e-14
3.14618e-13
1.13939e-07
1.41541e-11
4.36465e-11
-1.52066e-11
4.44451e-12
2.4498e-11
-3.52807e-12
-2.52254e-11
-2.75303e-08
2.83641e-11
4.36376e-11
4.90337e-11
3.24811e-11
2.73768e-08
-1.60356e-12
1.52058e-12
-1.18e-07
-9.85806e-13
1.09779e-12
1.18e-07
-1.12867e-07
-3.83496e-11
-1.93103e-12
-3.9128e-13
1.12866e-07
2.74558e-11
3.93991e-11
-2.27726e-11
-5.73204e-11
5.6937e-11
5.87293e-11
-6.00129e-11
-1.13939e-07
-4.30994e-11
7.42398e-14
3.92921e-13
1.13939e-07
1.41425e-11
4.36375e-11
-1.5216e-11
4.40564e-12
2.44623e-11
-3.56354e-12
-2.52669e-11
-2.75302e-08
2.83875e-11
4.36162e-11
4.90528e-11
3.24429e-11
2.73767e-08
-1.19398e-12
2.04001e-12
-1.18e-07
-1.27411e-12
8.16288e-13
1.18e-07
-1.12867e-07
-3.82759e-11
-2.03525e-12
-8.05902e-13
1.12867e-07
2.81116e-11
3.97319e-11
-2.74077e-11
-5.73302e-11
5.7071e-11
5.87791e-11
-5.73977e-11
-1.13939e-07
-4.29658e-11
-3.13108e-13
1.24411e-14
1.13939e-07
1.4323e-11
4.37713e-11
-1.50367e-11
4.46306e-12
2.45727e-11
-3.51081e-12
-2.51689e-11
-2.75301e-08
2.82853e-11
4.35513e-11
4.91228e-11
3.25606e-11
2.73766e-08
-1.06612e-12
1.45429e-12
-1.17999e-07
-9.78496e-13
6.43319e-13
1.17999e-07
-1.12866e-07
-3.81696e-11
-1.08369e-12
-9.67061e-13
1.12864e-07
2.76525e-11
3.95621e-11
-2.25762e-11
-5.75023e-11
5.68334e-11
5.85831e-11
-6.01464e-11
-1.13938e-07
-4.30288e-11
5.07808e-13
2.4243e-13
1.13938e-07
1.42578e-11
4.36845e-11
-1.512e-11
4.32681e-12
2.43675e-11
-3.65138e-12
-2.53813e-11
-2.75299e-08
2.84262e-11
4.36474e-11
4.90645e-11
3.24281e-11
2.73764e-08
-9.06241e-13
6.10265e-13
-1.17999e-07
-3.53069e-13
5.08922e-13
1.17999e-07
-1.12864e-07
-3.81683e-11
-1.46536e-12
-1.37043e-12
1.12864e-07
2.82132e-11
3.9809e-11
-2.73213e-11
-5.74782e-11
5.69223e-11
5.86348e-11
-5.75365e-11
-1.13937e-07
-4.31596e-11
9.63234e-13
7.05546e-13
1.13937e-07
1.41209e-11
4.35466e-11
-1.52547e-11
4.26517e-12
2.42574e-11
-3.7105e-12
-2.5487e-11
-2.75294e-08
2.85481e-11
4.3637e-11
4.90952e-11
3.22798e-11
2.73758e-08
-8.13961e-13
1.00735e-12
-1.17999e-07
-6.7301e-13
4.27937e-13
1.17999e-07
-1.12865e-07
-3.81546e-11
-1.48297e-12
-1.22592e-12
1.12863e-07
2.76835e-11
3.95775e-11
-2.25406e-11
-5.74903e-11
5.68103e-11
5.85902e-11
-6.01648e-11
-1.13936e-07
-4.31577e-11
7.58766e-13
6.27998e-13
1.13936e-07
1.40977e-11
4.35482e-11
-1.52871e-11
4.2672e-12
2.42674e-11
-3.69829e-12
-2.54762e-11
-2.75293e-08
2.85243e-11
4.36616e-11
4.90318e-11
3.22615e-11
2.73758e-08
-3.53405e-13
1.25746e-12
-1.17999e-07
-7.83781e-13
1.21286e-13
1.17999e-07
-1.12865e-07
-3.8064e-11
-1.62675e-12
-1.67173e-12
1.12865e-07
2.83741e-11
3.99377e-11
-2.71489e-11
-5.74732e-11
5.68847e-11
5.86426e-11
-5.75798e-11
-1.13936e-07
-4.30899e-11
4.47508e-13
3.75029e-13
1.13936e-07
1.4198e-11
4.36242e-11
-1.51765e-11
4.34407e-12
2.43717e-11
-3.62597e-12
-2.53643e-11
-2.75293e-08
2.84556e-11
4.3628e-11
4.90697e-11
3.23693e-11
2.73757e-08
-2.90601e-13
1.23051e-12
-1.17998e-07
-8.60494e-13
1.20485e-13
1.17998e-07
-1.12864e-07
-3.80218e-11
-1.10753e-12
-1.55714e-12
1.12862e-07
2.7845e-11
3.97003e-11
-2.23863e-11
-5.75194e-11
5.67427e-11
5.85556e-11
-6.0226e-11
-1.13935e-07
-4.3067e-11
3.84535e-13
2.84511e-13
1.13935e-07
1.42096e-11
4.36418e-11
-1.51681e-11
4.36185e-12
2.43821e-11
-3.61961e-12
-2.53484e-11
-2.75291e-08
2.84108e-11
4.36646e-11
4.90308e-11
3.24165e-11
2.73756e-08
-6.6957e-13
5.47747e-13
-1.17998e-07
-4.37392e-13
4.68545e-13
1.17998e-07
-1.12863e-07
-3.81306e-11
-8.86303e-13
-1.47038e-12
1.12863e-07
2.82476e-11
3.98629e-11
-2.72774e-11
-5.76042e-11
5.67344e-11
5.84703e-11
-5.76832e-11
-1.13935e-07
-4.31561e-11
7.29177e-13
6.0363e-13
1.13935e-07
1.40934e-11
4.35501e-11
-1.52823e-11
4.31027e-12
2.43079e-11
-3.67737e-12
-2.54201e-11
-2.75289e-08
2.84872e-11
4.37099e-11
4.89857e-11
3.23341e-11
2.73754e-08
-1.15802e-12
2.6308e-13
-1.17998e-07
-1.46005e-13
7.41738e-13
1.17998e-07
-1.12863e-07
-3.83033e-11
-9.92119e-13
-7.64146e-13
1.12862e-07
2.74461e-11
3.94181e-11
-2.27891e-11
-5.75346e-11
5.67357e-11
5.84981e-11
-6.01894e-11
-1.13935e-07
-4.32418e-11
7.31044e-13
8.6806e-13
1.13935e-07
1.39953e-11
4.34718e-11
-1.53681e-11
4.28643e-12
2.42751e-11
-3.6975e-12
-2.54406e-11
-2.75288e-08
2.85194e-11
4.37074e-11
4.89854e-11
3.22759e-11
2.73753e-08
-1.72353e-12
9.69915e-13
-1.17999e-07
-5.96639e-13
1.19942e-12
1.17999e-07
-1.12864e-07
-3.84726e-11
-1.80537e-12
-4.04897e-13
1.12864e-07
2.81867e-11
3.95589e-11
-2.79345e-11
-5.73985e-11
5.69397e-11
5.86417e-11
-5.74834e-11
-1.13935e-07
-4.31974e-11
4.31105e-13
6.35492e-13
1.13935e-07
1.40521e-11
4.3533e-11
-1.52949e-11
4.32397e-12
2.43083e-11
-3.67712e-12
-2.5398e-11
-2.7529e-08
2.84701e-11
4.36751e-11
4.90053e-11
3.23061e-11
2.73755e-08
-1.77696e-12
1.43775e-12
-1.17999e-07
-8.12191e-13
1.2964e-12
1.17999e-07
-1.12865e-07
-3.84019e-11
-1.96951e-12
-3.42495e-13
1.12863e-07
2.77466e-11
3.93469e-11
-2.30947e-11
-5.73464e-11
5.69028e-11
5.868e-11
-6.0044e-11
-1.13936e-07
-4.31268e-11
1.78037e-13
4.54676e-13
1.13936e-07
1.41277e-11
4.36014e-11
-1.52222e-11
4.36462e-12
2.43602e-11
-3.63426e-12
-2.53471e-11
-2.75293e-08
2.83955e-11
4.36459e-11
4.90244e-11
3.23923e-11
2.73759e-08
-1.4746e-12
1.53655e-12
-1.17998e-07
-9.8883e-13
1.07249e-12
1.17998e-07
-1.12866e-07
-3.83614e-11
-1.89431e-12
-6.41865e-13
1.12866e-07
2.83634e-11
3.96755e-11
-2.77664e-11
-5.74042e-11
5.69195e-11
5.86482e-11
-5.75162e-11
-1.13937e-07
-4.31138e-11
1.60322e-13
3.61066e-13
1.13937e-07
1.41298e-11
4.36249e-11
-1.5204e-11
4.37503e-12
2.43711e-11
-3.62924e-12
-2.53323e-11
-2.75296e-08
2.84043e-11
4.36655e-11
4.90092e-11
3.23893e-11
2.73761e-08
-1.31811e-12
1.36769e-12
-1.17998e-07
-8.97952e-13
9.07856e-13
1.17998e-07
-1.12866e-07
-3.82746e-11
-1.53488e-12
-7.81511e-13
1.12864e-07
2.7885e-11
3.94718e-11
-2.29714e-11
-5.7416e-11
5.6843e-11
5.86069e-11
-6.00989e-11
-1.13938e-07
-4.31241e-11
2.72421e-13
3.86835e-13
1.13938e-07
1.4116e-11
4.36151e-11
-1.51826e-11
4.37794e-12
2.43641e-11
-3.64352e-12
-2.53375e-11
-2.75298e-08
2.84127e-11
4.36812e-11
4.90099e-11
3.23868e-11
2.73763e-08
-1.23882e-12
1.14416e-12
-1.17998e-07
-7.32967e-13
8.39619e-13
1.17998e-07
-1.12866e-07
-3.83071e-11
-1.63439e-12
-9.18571e-13
1.12866e-07
2.84275e-11
3.97166e-11
-2.77473e-11
-5.74313e-11
5.6905e-11
5.86205e-11
-5.75294e-11
-1.13938e-07
-4.31196e-11
3.9085e-13
4.79725e-13
1.13938e-07
1.40346e-11
4.35814e-11
-1.51054e-11
4.35808e-12
2.4345e-11
-3.65115e-12
-2.53527e-11
-2.75298e-08
2.84347e-11
4.36669e-11
4.90283e-11
3.2373e-11
2.73763e-08
-1.2818e-12
1.13796e-12
-1.17998e-07
-7.42366e-13
8.43532e-13
1.17998e-07
-1.12866e-07
-3.82481e-11
-1.4992e-12
-8.29818e-13
1.12864e-07
2.79475e-11
3.94753e-11
-2.30897e-11
-5.74137e-11
5.68409e-11
5.86108e-11
-6.01023e-11
-1.13938e-07
-4.29776e-11
4.4671e-13
4.56444e-13
1.13937e-07
1.3598e-11
4.32944e-11
-1.00005e-11
4.32687e-12
2.43176e-11
-3.66254e-12
-2.8141e-11
-2.75298e-08
2.84383e-11
4.36664e-11
4.90289e-11
3.23654e-11
2.73763e-08
3.59295e-12
1.14992e-07
2.44716e-11
2.19671e-11
-2.56835e-11
-2.47389e-11
-3.60982e-11
1.93627e-12
3.58059e-12
1.15027e-07
7.2909e-12
3.511e-11
-1.48422e-11
2.44657e-11
2.14574e-11
-2.15457e-11
-2.57495e-11
-1.15023e-07
1.14992e-07
2.00919e-12
-1.14992e-07
1.28608e-12
-2.49599e-11
-2.44447e-11
2.45132e-11
2.2341e-11
3.60419e-11
1.15025e-07
2.20252e-12
-1.15026e-07
8.89224e-13
-3.54339e-11
-1.01272e-11
1.35934e-11
-2.5306e-11
-2.41633e-11
1.88611e-11
2.48014e-11
3.93393e-11
4.09018e-11
2.73661e-08
-2.75208e-08
-3.95347e-11
2.75207e-08
-2.73661e-08
-3.88701e-11
-4.0116e-11
-3.8141e-13
1.12878e-07
-5.76359e-11
5.63229e-11
5.83609e-11
-5.76148e-11
-2.85272e-11
1.68588e-12
-7.87222e-13
1.13927e-07
2.44434e-11
2.96819e-11
-2.42783e-11
-3.64813e-11
5.47416e-11
-5.67894e-11
3.63258e-11
1.12878e-07
-1.7814e-12
-1.12878e-07
2.08814e-13
5.86344e-11
-5.73981e-11
-5.73958e-11
5.65744e-11
3.01227e-11
1.13926e-07
-8.2547e-13
-1.13926e-07
-5.97094e-13
-2.84027e-11
-2.42961e-11
2.45562e-11
3.66747e-11
-5.65695e-11
5.54064e-11
-3.62594e-11
9.69661e-13
-3.6199e-13
1.13921e-07
2.42148e-11
3.01868e-11
-2.41417e-11
-3.68922e-11
5.57588e-11
-5.76956e-11
3.65938e-11
-1.13921e-07
-2.11264e-12
-1.12866e-07
-2.26656e-14
-3.86922e-11
-2.74254e-11
2.41145e-11
5.87035e-11
-5.74195e-11
-5.73239e-11
5.95095e-11
3.02058e-11
1.1392e-07
-8.44514e-13
-1.1392e-07
-6.27546e-13
-2.8355e-11
-2.40938e-11
2.43136e-11
3.70121e-11
-5.70816e-11
5.5903e-11
-3.65999e-11
4.78516e-11
3.33179e-11
2.73722e-08
-4.36952e-11
2.75243e-08
-2.73717e-08
-4.74448e-11
-3.12964e-11
8.1263e-13
1.83388e-12
1.13981e-07
1.36561e-11
4.36519e-11
-1.52884e-11
4.48281e-12
2.34818e-11
-2.51709e-11
-4.08848e-12
-1.13981e-07
-1.228e-13
-1.13939e-07
3.77911e-13
-4.30539e-11
-1.51828e-11
1.41445e-11
-3.50729e-12
-2.51646e-11
4.47842e-12
2.45293e-11
4.42014e-11
1.1398e-07
-2.36665e-13
-1.1398e-07
4.11757e-13
-4.36087e-11
-1.4971e-11
1.41213e-11
-3.71648e-12
-2.47899e-11
2.41112e-11
4.69098e-12
-2.73768e-08
-4.84052e-11
-3.06679e-11
3.51724e-11
3.79186e-11
4.02864e-11
4.03849e-11
2.73647e-08
-3.57795e-11
-3.90234e-11
2.75184e-08
-2.73647e-08
-3.94089e-11
-3.95351e-11
1.13698e-12
1.14992e-07
8.98852e-12
3.5811e-11
-1.01536e-11
2.4503e-11
2.2359e-11
-2.4951e-11
-2.44545e-11
-3.55839e-11
2.23166e-12
1.24597e-12
1.15025e-07
8.38002e-12
3.60199e-11
-1.01871e-11
2.48457e-11
2.17717e-11
-2.52463e-11
-2.4096e-11
1.14992e-07
1.67721e-12
-1.14992e-07
1.46528e-12
-3.52055e-11
-1.02463e-11
8.89224e-12
-2.49093e-11
-2.43856e-11
2.2416e-11
2.45542e-11
3.59625e-11
1.15026e-07
1.89059e-12
-1.15025e-07
9.6168e-13
-3.53327e-11
-9.73697e-12
8.42371e-12
-2.52264e-11
-2.40218e-11
2.18911e-11
2.48311e-11
3.92512e-11
4.10554e-11
2.73663e-08
-3.95449e-11
2.75206e-08
-2.73663e-08
-3.87541e-11
-4.00995e-11
-1.64207e-14
1.12879e-07
2.84076e-11
3.89587e-11
-2.84114e-11
-5.73892e-11
5.66047e-11
5.86601e-11
-5.73897e-11
-2.83898e-11
-5.55414e-13
-7.53529e-13
1.13926e-07
2.45593e-11
3.01305e-11
-2.42967e-11
-3.62831e-11
5.53996e-11
3.66642e-11
-5.65874e-11
1.12879e-07
-1.51206e-12
-1.12879e-07
-1.0022e-13
-3.78394e-11
-2.83816e-11
2.84542e-11
5.86378e-11
-5.74184e-11
5.66018e-11
-5.74315e-11
3.01328e-11
1.13926e-07
-3.59853e-13
-1.13926e-07
-6.98546e-13
-2.83856e-11
-2.43129e-11
2.45444e-11
3.66395e-11
-5.66071e-11
5.53802e-11
-3.63122e-11
-6.09473e-13
-7.22699e-13
1.1392e-07
2.43136e-11
3.01942e-11
-2.40955e-11
-3.66138e-11
5.59023e-11
-5.70902e-11
3.70086e-11
-1.87506e-12
-1.12868e-07
-1.825e-13
-3.83967e-11
-2.7287e-11
2.76235e-11
5.86724e-11
-5.74943e-11
-5.73804e-11
5.68789e-11
3.01591e-11
1.1392e-07
-4.83471e-13
-1.1392e-07
-6.24106e-13
-2.8398e-11
-2.41289e-11
2.42861e-11
3.70035e-11
-5.70983e-11
5.59008e-11
-3.66264e-11
4.81856e-11
3.29655e-11
2.73717e-08
-4.3619e-11
2.75241e-08
-2.73715e-08
-4.75195e-11
-3.13146e-11
-1.20137e-13
2.96188e-13
1.1398e-07
1.40893e-11
4.41656e-11
-1.50154e-11
4.64323e-12
2.4064e-11
-2.48499e-11
-3.7543e-12
4.25142e-14
-1.13939e-07
5.78455e-13
-4.31302e-11
-1.5242e-11
1.41042e-11
-3.57372e-12
-2.52731e-11
4.40476e-12
2.44407e-11
4.4168e-11
1.1398e-07
8.68502e-14
-1.1398e-07
5.19702e-13
-4.36513e-11
-1.50431e-11
1.40412e-11
-3.79943e-12
-2.48767e-11
2.40172e-11
4.59777e-12
-2.73767e-08
-4.84399e-11
-3.07353e-11
3.51801e-11
3.78127e-11
4.0424e-11
4.03524e-11
2.73647e-08
-3.5924e-11
-3.91218e-11
2.75183e-08
-2.73646e-08
-3.92953e-11
-3.94074e-11
1.22569e-12
1.14992e-07
8.91172e-12
3.58002e-11
-1.0228e-11
2.4579e-11
2.24625e-11
-2.48766e-11
-2.43478e-11
-3.54019e-11
1.74352e-12
1.38239e-12
1.15028e-07
8.16378e-12
3.56766e-11
-1.41824e-11
2.48403e-11
2.19327e-11
-2.52141e-11
-2.11398e-11
1.14992e-07
1.26573e-12
-1.14992e-07
9.10554e-13
-3.50687e-11
-1.00819e-11
9.04348e-12
-2.48064e-11
-2.42374e-11
2.25685e-11
2.46546e-11
3.6071e-11
1.15025e-07
1.49101e-12
-1.15027e-07
8.81771e-13
-3.53444e-11
-1.01251e-11
1.3674e-11
-2.51569e-11
-2.3969e-11
1.90895e-11
2.4929e-11
3.952e-11
4.1321e-11
2.7366e-08
-3.97074e-11
2.75205e-08
-2.7366e-08
-3.86629e-11
-4.00933e-11
-3.03678e-13
1.12879e-07
2.84716e-11
3.90392e-11
-2.8375e-11
-5.7436e-11
5.66118e-11
5.86426e-11
-5.74178e-11
-2.83762e-11
-4.10027e-13
-6.78736e-13
1.13926e-07
2.45553e-11
3.01304e-11
-2.43151e-11
-3.63092e-11
5.53991e-11
3.66557e-11
-5.66025e-11
1.12879e-07
-1.86516e-12
-1.12879e-07
-4.61777e-13
-3.77361e-11
-2.82993e-11
2.85348e-11
5.87318e-11
-5.72783e-11
5.67248e-11
-5.73318e-11
3.01889e-11
1.13926e-07
-7.49853e-13
-1.13926e-07
-8.5888e-13
-2.83281e-11
-2.42484e-11
2.46102e-11
3.67358e-11
-5.6483e-11
5.54981e-11
-3.62117e-11
-5.87874e-13
-6.17368e-13
1.1392e-07
2.42971e-11
3.0164e-11
-2.41234e-11
-3.66008e-11
5.59342e-11
-5.7071e-11
3.70358e-11
-2.04143e-12
-1.12866e-07
-6.58666e-13
-3.85062e-11
-2.72881e-11
2.42737e-11
5.87884e-11
-5.73284e-11
-5.72919e-11
5.9654e-11
3.02428e-11
1.1392e-07
-6.63428e-13
-1.1392e-07
-8.76606e-13
-2.83219e-11
-2.40218e-11
2.43844e-11
3.70795e-11
-5.70102e-11
5.60015e-11
-3.65683e-11
4.81516e-11
3.29699e-11
2.73715e-08
-4.37326e-11
2.75241e-08
-2.73715e-08
-4.74042e-11
-3.12531e-11
8.96578e-14
2.19606e-13
1.1398e-07
1.4078e-11
4.41942e-11
-1.50163e-11
4.60248e-12
2.40472e-11
-2.48608e-11
-3.78581e-12
-2.18604e-13
-1.13939e-07
2.48926e-13
-4.30167e-11
-1.50886e-11
1.42562e-11
-3.52692e-12
-2.51804e-11
4.45029e-12
2.45427e-11
4.42424e-11
1.1398e-07
-2.77757e-13
-1.1398e-07
3.5826e-13
-4.35657e-11
-1.49638e-11
1.41326e-11
-3.73072e-12
-2.47436e-11
2.41538e-11
4.66712e-12
-2.73766e-08
-4.83628e-11
-3.06407e-11
3.50145e-11
3.77057e-11
4.0549e-11
4.05042e-11
2.73646e-08
-3.59003e-11
-3.91781e-11
2.75182e-08
-2.73644e-08
-3.91953e-11
-3.94642e-11
6.14816e-13
1.14992e-07
9.10517e-12
3.59642e-11
-1.00381e-11
2.46704e-11
2.25995e-11
-2.47832e-11
-2.42175e-11
-3.55386e-11
1.64225e-12
1.27732e-12
1.15025e-07
8.38134e-12
3.60302e-11
-1.02248e-11
2.49955e-11
2.1999e-11
-2.50937e-11
-2.38787e-11
1.14991e-07
1.1074e-12
-1.14992e-07
8.62406e-13
-3.50483e-11
-1.01297e-11
9.03763e-12
-2.47495e-11
-2.41687e-11
2.2639e-11
2.47099e-11
3.59033e-11
1.15025e-07
1.35066e-12
-1.15025e-07
1.20047e-12
-3.53573e-11
-9.82711e-12
8.34833e-12
-2.50553e-11
-2.38018e-11
2.21135e-11
2.50006e-11
3.9504e-11
4.10861e-11
2.73661e-08
-3.97086e-11
2.75202e-08
-2.73659e-08
-3.85157e-11
-4.01999e-11
-6.92736e-13
1.12879e-07
2.85712e-11
3.91397e-11
-2.82746e-11
-5.72845e-11
5.6788e-11
5.879e-11
-5.72341e-11
-2.83037e-11
-9.04581e-13
-9.0653e-13
1.13926e-07
2.46388e-11
3.01981e-11
-2.42373e-11
-3.61708e-11
5.5554e-11
3.67899e-11
-5.6446e-11
1.12878e-07
-1.75158e-12
-1.12878e-07
-7.25228e-13
-3.76684e-11
-2.82236e-11
2.86155e-11
5.87391e-11
-5.73263e-11
5.67243e-11
-5.73634e-11
3.00893e-11
1.13925e-07
-7.58226e-13
-1.13926e-07
-5.03402e-13
-2.84012e-11
-2.43566e-11
2.45229e-11
3.67648e-11
-5.64946e-11
5.552e-11
-3.62177e-11
-6.0065e-13
-9.50787e-13
1.1392e-07
2.44264e-11
3.02651e-11
-2.39979e-11
-3.65967e-11
5.59959e-11
-5.70323e-11
3.70689e-11
-1.27771e-12
-1.12866e-07
-7.6248e-13
-3.82179e-11
-2.71089e-11
2.78046e-11
5.85712e-11
-5.75799e-11
-5.75172e-11
5.68238e-11
3.01556e-11
1.13919e-07
-1.71917e-13
-1.13919e-07
-6.4908e-13
-2.83719e-11
-2.41209e-11
2.43211e-11
3.69577e-11
-5.71143e-11
5.5904e-11
-3.6701e-11
4.82903e-11
3.3045e-11
2.73715e-08
-4.37319e-11
2.75239e-08
-2.73713e-08
-4.73904e-11
-3.136e-11
-4.14624e-13
1.42419e-13
1.13979e-07
1.41477e-11
4.42446e-11
-1.49612e-11
4.69016e-12
2.41994e-11
-2.47162e-11
-3.70329e-12
2.50798e-13
-1.13938e-07
2.19309e-13
-4.29918e-11
-1.50776e-11
1.42916e-11
-3.60429e-12
-2.5322e-11
4.36987e-12
2.4425e-11
4.41627e-11
1.13979e-07
1.18424e-13
-1.13979e-07
6.12429e-13
-4.36289e-11
-1.50347e-11
1.40685e-11
-3.78674e-12
-2.48561e-11
2.4071e-11
4.59946e-12
-2.73765e-08
-4.8424e-11
-3.07309e-11
3.50893e-11
3.76481e-11
4.0658e-11
4.0411e-11
2.73644e-08
-3.57425e-11
-3.92105e-11
2.75177e-08
-2.7364e-08
-3.9111e-11
-3.9626e-11
8.60869e-13
1.14991e-07
8.98451e-12
3.58509e-11
-1.01866e-11
2.47369e-11
2.26791e-11
-2.47209e-11
-2.41311e-11
-3.54648e-11
1.22676e-12
1.71272e-12
1.15027e-07
8.05341e-12
3.55743e-11
-1.43016e-11
2.50017e-11
2.21453e-11
-2.50498e-11
-2.093e-11
1.14991e-07
9.39852e-13
-1.14991e-07
1.41969e-12
-3.51975e-11
-1.03116e-11
8.847e-12
-2.46414e-11
-2.40724e-11
2.27606e-11
2.47953e-11
3.59827e-11
1.15024e-07
1.13708e-12
-1.15026e-07
9.87172e-13
-3.54153e-11
-1.02336e-11
1.35634e-11
-2.50305e-11
-2.38337e-11
1.92551e-11
2.50275e-11
3.97857e-11
4.12257e-11
2.73655e-08
-3.98134e-11
2.75198e-08
-2.73653e-08
-3.85082e-11
-4.02145e-11
-8.97025e-13
1.12878e-07
2.86385e-11
3.91911e-11
-2.82075e-11
-5.74361e-11
5.66656e-11
5.86719e-11
-5.73885e-11
-2.84517e-11
-5.19562e-13
-3.04749e-13
1.13925e-07
2.44742e-11
3.00336e-11
-2.44078e-11
-3.62775e-11
5.54769e-11
3.67107e-11
-5.65418e-11
1.12877e-07
-6.47216e-13
-1.12877e-07
-9.1008e-13
-3.76132e-11
-2.81934e-11
2.86652e-11
5.852e-11
-5.75311e-11
5.65214e-11
-5.7589e-11
2.99596e-11
1.13924e-07
1.17741e-13
-1.13925e-07
-9.49433e-15
-2.85299e-11
-2.44787e-11
2.43963e-11
3.65901e-11
-5.66506e-11
5.53694e-11
-3.6402e-11
-1.98341e-14
-4.64698e-13
1.13919e-07
2.4267e-11