/*--------------------------------*- C++ -*----------------------------------*\
| =========                 |                                                 |
| \\      /  F ield         | OpenFOAM: The Open Source CFD Toolbox           |
|  \\    /   O peration     | Version:  2206                                  |
|   \\  /    A nd           | Website:  www.openfoam.com                      |
|    \\/     M anipulation  |                                                 |
\*---------------------------------------------------------------------------*/
FoamFile
{
    version     2.0;
    format      ascii;
    arch        "LSB;label=32;scalar=64";
    class       volVectorField;
    location    "0.5";
    object      U;
}
// * * * * * * * * * * * * * * * * * * * * * * * * * * * * * * * * * * * * * //

dimensions      [0 1 -1 0 0 0 0];

internalField   nonuniform List<vector> 
66928
(
(-0.000211273 -0.000216244 0.12906)
(7.84386e-06 4.06821e-06 0.132729)
(6.03023e-07 -3.13729e-07 0.13252)
(3.39365e-06 7.68576e-07 0.132523)
(-0.000212927 0.000215404 0.12906)
(5.28814e-06 -4.57921e-06 0.132727)
(0.000209269 0.00020884 0.129193)
(-0.000214354 -0.000216603 0.129059)
(-7.83748e-07 -1.71033e-06 0.136775)
(1.65262e-06 1.24768e-06 0.136774)
(-3.15632e-06 -4.46168e-06 0.0648327)
(-6.60547e-06 -3.98469e-06 0.0645894)
(-1.40901e-05 -1.14007e-05 0.0888216)
(-1.31479e-05 -1.36371e-05 0.0883639)
(1.45647e-07 -1.73811e-05 0.0755694)
(-1.65919e-05 -4.23841e-05 0.103421)
(-1.83761e-05 -2.95411e-06 0.0750795)
(-2.92535e-05 3.65057e-07 0.100662)
(-4.4598e-05 -1.51837e-05 0.102717)
(-3.00383e-06 -1.82418e-06 0.134974)
(-5.89443e-05 5.30792e-07 0.118228)
(-1.75811e-05 3.7881e-06 0.0750778)
(-2.91192e-05 3.16886e-07 0.100663)
(-1.12374e-06 3.76988e-06 0.134964)
(-4.35276e-05 1.57922e-05 0.102714)
(-5.88197e-05 3.8889e-07 0.118228)
(-5.82163e-06 4.56532e-06 0.0645857)
(-1.18181e-05 1.38666e-05 0.0883667)
(-1.46759e-05 1.28527e-05 0.0888443)
(-4.3996e-06 6.56714e-06 0.0648474)
(-1.59512e-05 4.35039e-05 0.103439)
(-2.98465e-06 1.95793e-05 0.0755959)
(5.89618e-06 8.45514e-06 0.0648992)
(-6.00544e-06 -4.19363e-06 0.0648264)
(6.15441e-06 5.25699e-06 0.0647417)
(-7.12511e-06 -3.53223e-06 0.0645894)
(1.7798e-05 1.41036e-05 0.0890355)
(1.29512e-05 1.48955e-05 0.0887166)
(-0.000213599 -0.000216607 0.129059)
(-1.55021e-05 -1.07555e-05 0.0888246)
(-1.37814e-05 -1.3436e-05 0.0883623)
(-6.15414e-06 -4.64529e-06 0.0648226)
(4.24702e-06 8.66783e-06 0.064893)
(-7.21597e-06 -3.47087e-06 0.0645899)
(5.71349e-06 5.60952e-06 0.064742)
(0.000207313 0.000208949 0.129193)
(-1.599e-05 -1.10013e-05 0.0888266)
(-1.4011e-05 -1.34075e-05 0.0883619)
(1.6998e-05 1.39273e-05 0.0890381)
(1.23616e-05 1.50826e-05 0.0887154)
(8.95599e-06 8.41372e-06 0.0649025)
(1.93445e-05 3.96406e-05 0.0998615)
(-2.67604e-05 -5.39554e-05 0.111357)
(1.98597e-05 1.25303e-05 0.0890336)
(-4.03684e-06 -8.95092e-06 0.0745731)
(9.3318e-06 8.99166e-06 0.0747395)
(3.20117e-05 5.77139e-05 0.111715)
(-1.73789e-05 -3.8616e-05 0.0994756)
(4.10305e-05 1.59454e-05 0.0996663)
(-5.59964e-05 -2.95161e-05 0.110916)
(1.3194e-05 1.45844e-05 0.088718)
(-9.77955e-06 -5.82982e-06 0.0742794)
(9.68915e-06 4.77729e-06 0.0745083)
(5.90406e-05 2.90331e-05 0.111432)
(-3.92286e-05 -1.75572e-05 0.0992185)
(1.17217e-05 1.04636e-05 0.0810739)
(-3.51116e-06 -4.2395e-06 0.0634259)
(-4.9324e-06 -4.01722e-06 0.0633626)
(6.28125e-06 4.29985e-06 0.0635541)
(4.85912e-06 3.73731e-06 0.0635106)
(-1.08214e-05 -1.05034e-05 0.0807768)
(7.88255e-06 2.37459e-05 0.0756418)
(-3.42684e-06 -2.69035e-05 0.0872655)
(1.54149e-06 2.55184e-05 0.087357)
(-1.95894e-07 -8.92899e-06 0.0626555)
(-2.31175e-05 -9.01024e-07 0.0864888)
(-7.38273e-06 2.86833e-06 0.0622608)
(-2.91503e-05 2.22831e-07 0.0972138)
(-7.04399e-06 9.81771e-07 0.0724221)
(-7.51804e-06 3.02398e-06 0.069883)
(-2.2445e-05 2.00613e-06 0.0864878)
(-7.0602e-06 -1.83907e-06 0.0622623)
(-6.97565e-06 -3.40365e-07 0.0724219)
(-2.93859e-05 6.46746e-07 0.0972151)
(-7.59542e-06 -2.17605e-06 0.0698834)
(4.21061e-05 -1.69288e-05 0.0996589)
(-5.30996e-05 2.99067e-05 0.110944)
(1.45614e-05 -1.45209e-05 0.0887219)
(-8.36131e-06 5.89292e-06 0.07427)
(6.04194e-05 -2.99894e-05 0.111461)
(1.10438e-05 -4.89884e-06 0.074499)
(-3.67577e-05 1.73296e-05 0.0992111)
(1.88925e-05 -4.08496e-05 0.0998764)
(-2.72726e-05 5.81936e-05 0.111327)
(1.84416e-05 -1.20828e-05 0.0890553)
(-6.03957e-06 9.27967e-06 0.074596)
(7.03636e-06 -9.40031e-06 0.0747596)
(3.2002e-05 -5.57082e-05 0.111683)
(-1.78193e-05 3.80999e-05 0.0994927)
(1.20962e-05 -1.10334e-05 0.0810804)
(-4.202e-06 4.09231e-06 0.0633618)
(-4.1509e-06 4.55616e-06 0.0634366)
(5.41923e-06 -3.59025e-06 0.0635093)
(5.17791e-06 -4.32067e-06 0.0635628)
(-1.0257e-05 1.0237e-05 0.0807853)
(6.53696e-06 -6.75983e-06 0.0649142)
(3.77255e-06 -2.12349e-05 0.0756655)
(-1.31274e-06 2.45955e-05 0.0873283)
(2.89479e-06 -2.48737e-05 0.0874384)
(2.38893e-06 8.34504e-06 0.0627059)
(-5.31015e-06 -4.30892e-06 0.0648297)
(4.77902e-06 8.71538e-06 0.0648959)
(-6.93204e-06 -3.73252e-06 0.0645892)
(5.86041e-06 5.46494e-06 0.0647418)
(1.13361e-05 1.05938e-05 0.0810724)
(-4.69796e-06 -3.91949e-06 0.063424)
(-5.43654e-06 -3.61924e-06 0.063362)
(4.88885e-06 4.81483e-06 0.0635516)
(4.25502e-06 4.27085e-06 0.0635099)
(-1.14219e-05 -1.04138e-05 0.0807754)
(-1.72999e-05 -3.85115e-05 0.0994744)
(3.27649e-05 5.86229e-05 0.111714)
(8.33368e-06 1.00904e-05 0.0747383)
(-1.52003e-05 -1.05429e-05 0.0888234)
(1.98995e-05 3.98203e-05 0.0998607)
(-5.03319e-06 -8.18591e-06 0.0745722)
(-2.7153e-05 -5.35234e-05 0.111354)
(-3.94404e-05 -1.75688e-05 0.0992182)
(5.90574e-05 2.9343e-05 0.111432)
(9.31557e-06 5.15228e-06 0.0745077)
(-1.34906e-05 -1.35458e-05 0.0883629)
(4.09388e-05 1.61258e-05 0.0996658)
(-1.01244e-05 -5.56296e-06 0.0742789)
(-5.62234e-05 -2.9451e-05 0.110916)
(-1.0924e-05 -1.04011e-05 0.0807759)
(5.53201e-06 4.67686e-06 0.0635525)
(4.52823e-06 4.08178e-06 0.0635102)
(1.17307e-05 1.05408e-05 0.0810732)
(-4.22758e-06 -3.89321e-06 0.0634246)
(-5.16418e-06 -3.73372e-06 0.0633622)
(1.94586e-05 3.97434e-05 0.0998594)
(-5.79844e-06 -8.28849e-06 0.0745721)
(1.73995e-05 1.41413e-05 0.089037)
(-2.76351e-05 -5.39368e-05 0.111353)
(7.44223e-06 1.0316e-05 0.0747378)
(-1.78964e-05 -3.8708e-05 0.0994737)
(3.20523e-05 5.84724e-05 0.111711)
(4.05519e-05 1.61171e-05 0.0996656)
(-1.0399e-05 -5.31369e-06 0.0742785)
(1.2605e-05 1.49706e-05 0.0887159)
(-5.65279e-05 -2.93937e-05 0.110916)
(9.01139e-06 5.40217e-06 0.0745072)
(-3.98968e-05 -1.7533e-05 0.099218)
(5.87408e-05 2.93683e-05 0.111432)
(4.21889e-06 8.44985e-06 0.0648912)
(-6.30119e-06 -4.37196e-06 0.0648241)
(5.67374e-06 5.63573e-06 0.0647423)
(-7.21616e-06 -3.44111e-06 0.0645896)
(-1.16513e-05 -1.0483e-05 0.0807753)
(4.59684e-06 4.72733e-06 0.0635514)
(4.06164e-06 4.31238e-06 0.06351)
(1.09214e-05 1.05409e-05 0.0810721)
(-4.85386e-06 -4.02826e-06 0.063424)
(-5.5047e-06 -3.63041e-06 0.0633622)
(1.8723e-05 3.93951e-05 0.0998591)
(-2.80272e-05 -5.4486e-05 0.111352)
(1.67381e-05 1.38322e-05 0.0890391)
(-6.37942e-06 -8.50943e-06 0.0745731)
(6.55522e-06 1.00753e-05 0.0747386)
(3.1491e-05 5.77742e-05 0.11171)
(-1.83433e-05 -3.89594e-05 0.0994736)
(3.99234e-05 1.61341e-05 0.0996659)
(-5.69256e-05 -2.93628e-05 0.110916)
(1.22508e-05 1.50905e-05 0.0887153)
(-1.05105e-05 -5.16414e-06 0.0742784)
(8.73751e-06 5.68362e-06 0.074507)
(5.82029e-05 2.94563e-05 0.111432)
(-4.02902e-05 -1.75694e-05 0.0992183)
(-1.82579e-05 -3.88701e-05 0.0994736)
(6.83492e-06 1.01582e-05 0.074738)
(3.17177e-05 5.8042e-05 0.11171)
(-1.58954e-05 -1.08836e-05 0.0888256)
(1.89258e-05 3.95152e-05 0.0998591)
(-6.2383e-06 -8.39007e-06 0.0745725)
(-2.78928e-05 -5.42714e-05 0.111352)
(-4.01997e-05 -1.75096e-05 0.0992181)
(8.78786e-06 5.60929e-06 0.074507)
(5.84238e-05 2.94447e-05 0.111432)
(-1.39581e-05 -1.3358e-05 0.088362)
(4.01238e-05 1.61555e-05 0.0996656)
(-1.05337e-05 -5.16451e-06 0.0742784)
(-5.67807e-05 -2.93372e-05 0.110916)
(1.08697e-05 1.04481e-05 0.0810722)
(-4.82135e-06 -4.20149e-06 0.0634243)
(-5.38671e-06 -3.74534e-06 0.0633624)
(4.55034e-06 4.59633e-06 0.0635515)
(4.11102e-06 4.25467e-06 0.0635101)
(-1.15996e-05 -1.06222e-05 0.0807754)
(5.6066e-05 5.29099e-05 0.114079)
(0.000209963 0.000209538 0.129194)
(-0.000214799 -5.10138e-05 0.122542)
(-5.02483e-05 -0.000216842 0.122288)
(0.000220649 5.50958e-05 0.12281)
(5.37121e-05 0.000215133 0.122638)
(-5.50272e-05 -5.4905e-05 0.113694)
(5.35046e-05 -5.48024e-05 0.114085)
(0.000209243 -0.000209661 0.129196)
(-5.02456e-05 0.000218749 0.122357)
(-0.000211869 4.99835e-05 0.122464)
(5.62319e-05 -0.000219232 0.122708)
(0.000219547 -5.42245e-05 0.122733)
(-5.63159e-05 5.46759e-05 0.113698)
(-5.49973e-05 -5.50291e-05 0.113694)
(0.000220793 5.46246e-05 0.122809)
(5.36376e-05 0.000215391 0.122637)
(-0.000212471 -0.000216742 0.12906)
(5.6517e-05 5.30552e-05 0.114079)
(-0.000215443 -5.14383e-05 0.12254)
(-5.05282e-05 -0.000216752 0.122288)
(5.51762e-05 5.28939e-05 0.114078)
(0.000206805 0.000208915 0.129193)
(-0.000216553 -5.15758e-05 0.122538)
(-5.1288e-05 -0.000216205 0.122288)
(0.000219235 5.43987e-05 0.122806)
(5.27178e-05 0.000215986 0.122638)
(-5.62289e-05 -5.51433e-05 0.113694)
(1.64967e-06 1.57439e-06 0.137919)
(2.98156e-06 2.08907e-06 0.137926)
(5.43597e-06 0.000249974 0.124379)
(-3.71362e-06 -0.00023131 0.119034)
(1.86626e-05 4.24529e-05 0.103586)
(-7.88919e-06 -5.09874e-05 0.111915)
(1.55396e-05 0.000240326 0.119225)
(2.16823e-06 5.58768e-05 0.112063)
(5.93494e-06 -0.000248615 0.124318)
(0.000259742 6.03924e-07 0.124023)
(-0.000238502 -1.5413e-05 0.118473)
(4.71016e-05 1.31247e-05 0.103156)
(-5.74091e-05 -4.01714e-06 0.111017)
(0.000247309 1.24387e-05 0.118916)
(5.8321e-05 1.30901e-06 0.11154)
(-0.000262595 -4.9388e-06 0.123659)
(0.000256941 -2.83498e-07 0.126755)
(6.23343e-05 -7.87595e-07 0.118866)
(-5.98319e-05 -2.38327e-07 0.115979)
(-0.000250342 2.08175e-07 0.127691)
(6.2878e-05 -1.2636e-06 0.116577)
(0.000247383 -3.49519e-07 0.128125)
(-0.000254959 -3.07249e-06 0.126361)
(0.000260236 -1.0816e-07 0.124016)
(-0.000236203 1.69115e-05 0.118471)
(4.8322e-05 -1.27436e-05 0.103155)
(-5.70838e-05 5.36404e-06 0.111014)
(5.97929e-05 -2.56753e-07 0.11154)
(0.000247132 -1.23726e-05 0.118915)
(-0.000258919 5.95931e-06 0.123644)
(0.000253633 1.6088e-06 0.126752)
(6.24859e-05 1.67556e-06 0.118867)
(-0.000248901 1.14669e-06 0.127685)
(-6.04553e-05 1.34899e-06 0.115978)
(0.000247516 2.19561e-06 0.12812)
(6.2625e-05 2.30645e-06 0.116579)
(-0.000256773 4.0935e-06 0.12635)
(2.64138e-06 -0.000251463 0.124398)
(-8.46408e-06 0.000233965 0.119035)
(1.75053e-05 -4.42227e-05 0.1036)
(-2.77346e-06 5.71158e-05 0.111923)
(1.42072e-05 -0.000242363 0.11922)
(5.5153e-06 -5.58333e-05 0.112067)
(2.04526e-06 0.000255966 0.124354)
(5.60692e-05 5.30066e-05 0.114078)
(0.000208259 0.000208805 0.129193)
(-0.000216193 -5.14749e-05 0.122539)
(-5.09483e-05 -0.000216489 0.122288)
(-5.56205e-05 -5.49756e-05 0.113694)
(0.000220207 5.44717e-05 0.122807)
(5.32543e-05 0.000215618 0.122637)
(-5.60583e-05 -5.50152e-05 0.113694)
(-0.000214218 -0.000216527 0.129059)
(0.000219567 5.44595e-05 0.122806)
(5.28861e-05 0.000215873 0.122638)
(5.54805e-05 5.30157e-05 0.114078)
(-0.000216568 -5.15127e-05 0.122539)
(-5.12162e-05 -0.000216276 0.122288)
(-1.18382e-06 -6.99166e-07 0.136775)
(-1.22175e-08 9.99015e-07 0.132518)
(4.67152e-06 -2.87883e-06 0.132725)
(-0.000209605 -0.000207046 0.129191)
(-1.91347e-06 6.40576e-07 0.136776)
(1.63407e-06 9.1953e-07 0.13252)
(2.72901e-06 -6.14847e-07 0.132727)
(-0.000207376 -0.000206589 0.12919)
(-1.58883e-06 4.12972e-07 0.136776)
(1.58107e-06 6.5947e-07 0.132519)
(2.76823e-06 -7.19446e-07 0.132727)
(-0.000207316 -0.000206752 0.12919)
(-1.91588e-06 1.50195e-07 0.136776)
(1.79789e-06 1.78583e-07 0.132519)
(2.10561e-06 -2.10088e-07 0.132727)
(-0.000207017 -0.000206333 0.12919)
(-1.44706e-06 1.32691e-07 0.136774)
(8.84832e-07 -1.91932e-08 0.132517)
(2.4992e-06 -1.27951e-06 0.132726)
(-0.000207326 -0.000206913 0.129189)
(-6.09795e-07 1.48951e-07 0.136775)
(1.21066e-06 -2.21878e-07 0.132516)
(3.16018e-06 -1.89008e-06 0.132724)
(-0.000207222 -0.000207454 0.129186)
(-1.11444e-06 -1.87317e-08 0.136775)
(1.16407e-06 -1.41832e-07 0.132516)
(3.14373e-06 -1.73654e-06 0.132724)
(-0.000207402 -0.00020736 0.129186)
(-1.2137e-06 -3.2109e-07 0.136775)
(1.31258e-06 -6.0192e-07 0.132517)
(2.72542e-06 -1.20144e-06 0.132723)
(-0.000207257 -0.000207075 0.129186)
(-1.27381e-06 -3.23737e-07 0.136774)
(9.137e-07 -6.57026e-07 0.132515)
(2.6347e-06 -1.08844e-06 0.132723)
(-0.00020742 -0.000206856 0.129185)
(-6.80643e-07 9.08724e-08 0.136774)
(5.90081e-07 -3.46402e-07 0.132514)
(3.11235e-06 -1.54221e-06 0.132722)
(-0.000207596 -0.000207185 0.129184)
(-3.94427e-07 3.81093e-07 0.136775)
(7.03464e-07 4.13838e-07 0.132514)
(3.49602e-06 -1.65607e-06 0.132722)
(-0.00020759 -0.000207379 0.129183)
(-1.04973e-06 7.16908e-07 0.136775)
(1.49554e-06 7.99825e-07 0.132516)
(3.17148e-06 -1.34408e-06 0.132723)
(-0.0002075 -0.000207228 0.129185)
(-1.43495e-06 7.7e-07 0.136775)
(1.71316e-06 7.26037e-07 0.132517)
(2.85465e-06 -9.67106e-07 0.132724)
(-0.000207411 -0.000206893 0.129186)
(-1.55971e-06 4.99891e-07 0.136775)
(1.53421e-06 4.52516e-07 0.132518)
(2.7512e-06 -9.09066e-07 0.132725)
(-0.0002075 -0.000206919 0.129187)
(-1.43324e-06 3.56073e-07 0.136774)
(1.33507e-06 2.18539e-07 0.132518)
(2.80421e-06 -1.03943e-06 0.132726)
(-0.000207543 -0.000206964 0.129188)
(-1.15799e-06 3.17294e-07 0.136774)
(1.32567e-06 2.45712e-07 0.132519)
(2.91601e-06 -1.17088e-06 0.132726)
(-0.000207447 -0.000207035 0.129188)
(-1.18148e-06 3.40439e-07 0.136774)
(1.34855e-06 1.70798e-07 0.132518)
(2.97945e-06 -1.28023e-06 0.132726)
(-0.000207469 -0.000207081 0.129188)
(6.79909e-06 4.43244e-06 0.132728)
(-7.14469e-06 4.43044e-06 0.132733)
(3.40359e-06 3.82281e-06 0.132729)
(-2.14543e-06 3.90942e-06 0.132733)
(-0.000207574 0.000208309 0.129195)
(0.000212946 -0.000217712 0.129063)
(1.00201e-07 5.49269e-07 0.13252)
(1.94792e-06 -4.65714e-07 0.132523)
(-1.15189e-06 1.15053e-06 0.13252)
(-1.26663e-07 -6.79352e-07 0.132524)
(-2.00106e-06 -1.30008e-06 0.132518)
(1.34348e-06 8.71504e-07 0.132519)
(1.4572e-07 -7.48324e-07 0.132519)
(0.000208862 -0.000208682 0.129193)
(-0.000214276 0.000218295 0.129058)
(-4.51704e-06 -2.80517e-06 0.132731)
(2.6405e-06 -4.90227e-07 0.132727)
(-2.65247e-06 -3.90468e-07 0.132733)
(0.000213746 0.000219017 0.129056)
(0.000206686 0.000208769 0.129193)
(-0.000214079 -0.000216983 0.129059)
(3.3845e-06 3.74236e-06 0.132729)
(-3.19616e-06 3.90206e-06 0.132734)
(3.58598e-06 3.52218e-06 0.132729)
(-2.68519e-06 3.79191e-06 0.132735)
(-0.00020685 0.000208402 0.129195)
(0.00021284 -0.000216863 0.129064)
(-1.17661e-06 9.21412e-07 0.132521)
(2.53254e-08 -4.91337e-07 0.132524)
(-1.08735e-06 6.11763e-07 0.132521)
(7.1358e-08 -4.39716e-07 0.132524)
(1.11143e-08 -5.8178e-07 0.132519)
(1.32583e-06 7.54027e-07 0.132519)
(1.79161e-09 -6.16186e-07 0.132519)
(0.00020766 -0.000206583 0.129192)
(-0.000213971 0.000218219 0.129057)
(-2.75851e-06 -6.23965e-07 0.132733)
(2.90549e-06 -7.57084e-07 0.132727)
(-2.81406e-06 -7.82034e-07 0.132733)
(0.000213611 0.000218676 0.129056)
(0.00020675 0.000208214 0.129193)
(-0.000214624 -0.000217373 0.129059)
(3.44502e-06 3.364e-06 0.132729)
(-4.15878e-06 3.64754e-06 0.132735)
(2.89496e-06 2.84484e-06 0.132729)
(-2.02273e-06 3.1828e-06 0.132734)
(-0.000204933 0.000208441 0.129195)
(0.000212977 -0.000218432 0.129062)
(-1.07018e-06 5.8765e-07 0.132521)
(4.06774e-08 -4.5968e-07 0.132524)
(-1.51499e-06 2.31568e-07 0.132521)
(-3.47176e-07 -1.94857e-07 0.132524)
(1.26737e-07 -5.83991e-07 0.132519)
(1.72493e-06 2.18153e-08 0.132519)
(2.99742e-07 -1.67122e-07 0.132519)
(0.000207752 -0.000206536 0.129191)
(-0.000214406 0.000218414 0.129057)
(-2.66876e-06 -7.24516e-07 0.132733)
(2.35177e-06 -3.56212e-07 0.132727)
(-2.44808e-06 -2.74307e-07 0.132732)
(0.000213878 0.000218973 0.129056)
(0.000206059 0.000207746 0.129192)
(-0.000214421 -0.000217638 0.129058)
(2.67238e-06 2.71624e-06 0.132729)
(-3.20516e-06 3.13053e-06 0.132734)
(2.84056e-06 2.55938e-06 0.132728)
(-2.92447e-06 2.87561e-06 0.132734)
(-0.000206613 0.000207419 0.129194)
(0.000212478 -0.000217579 0.129062)
(-1.73066e-06 1.26929e-07 0.132521)
(-5.21678e-07 -1.27594e-07 0.132523)
(-1.42157e-06 2.32485e-09 0.13252)
(-3.60173e-07 -5.69026e-07 0.132523)
(2.30663e-07 -4.06798e-08 0.132518)
(9.13571e-07 8.20971e-08 0.132518)
(-2.10531e-07 -4.31128e-07 0.132517)
(0.000207188 -0.000206238 0.12919)
(-0.000214397 0.000217947 0.129056)
(-2.39859e-06 -6.67355e-08 0.132732)
(2.31092e-06 -9.10083e-07 0.132726)
(-2.78856e-06 -6.64678e-07 0.132731)
(0.000213568 0.000218545 0.129055)
(0.00020639 0.000207416 0.129191)
(-0.000213728 -0.00021783 0.129056)
(3.02909e-06 2.43854e-06 0.132728)
(-4.54154e-06 2.73519e-06 0.132734)
(3.55451e-06 2.12003e-06 0.132727)
(-2.25476e-06 2.55568e-06 0.132733)
(-0.000205194 0.000207561 0.129193)
(0.000212495 -0.000218892 0.129059)
(-1.10519e-06 -1.56783e-08 0.13252)
(-1.16487e-07 -7.98736e-07 0.132523)
(-3.55376e-07 -1.03726e-07 0.132519)
(4.72877e-07 -1.07273e-06 0.132522)
(-3.26235e-07 -6.59435e-07 0.132517)
(9.56347e-07 -4.7933e-07 0.132516)
(-2.53422e-07 -1.11548e-06 0.132516)
(0.000207366 -0.000206832 0.129189)
(-0.00021371 0.000217429 0.129053)
(-2.91039e-06 -1.06689e-06 0.132731)
(3.14757e-06 -1.89356e-06 0.132725)
(-2.99445e-06 -1.91785e-06 0.13273)
(0.000213489 0.000217737 0.129052)
(0.000206847 0.000207153 0.129189)
(-0.000213953 -0.000217807 0.129055)
(3.51204e-06 2.0684e-06 0.132727)
(-3.22449e-06 2.63266e-06 0.132733)
(3.23241e-06 2.09325e-06 0.132727)
(-2.40052e-06 2.61352e-06 0.132734)
(-0.000206824 0.000206903 0.129191)
(0.000212885 -0.000217628 0.12906)
(-3.32853e-07 -1.65569e-07 0.132519)
(4.90414e-07 -1.024e-06 0.132521)
(-5.28038e-07 -1.35609e-07 0.132518)
(3.42619e-07 -1.0064e-06 0.13252)
(-1.50397e-07 -1.15397e-06 0.132516)
(1.01827e-06 -4.65883e-08 0.132516)
(-1.86663e-07 -1.17352e-06 0.132515)
(0.000207869 -0.000207102 0.129187)
(-0.000213632 0.000217479 0.129052)
(-2.90153e-06 -1.97647e-06 0.13273)
(3.17507e-06 -1.80245e-06 0.132724)
(-2.9433e-06 -1.84001e-06 0.132729)
(0.000213393 0.000217827 0.129052)
(0.000206643 0.000207225 0.129188)
(-0.000214151 -0.000218273 0.129055)
(3.17064e-06 2.03872e-06 0.132727)
(-4.01154e-06 2.52458e-06 0.132733)
(2.98118e-06 1.44953e-06 0.132727)
(-2.00249e-06 1.93643e-06 0.132733)
(-0.000204768 0.000207531 0.129191)
(0.0002126 -0.000219314 0.12906)
(-5.47821e-07 -1.13846e-07 0.132518)
(3.28407e-07 -1.06401e-06 0.13252)
(-7.99654e-07 -5.66489e-07 0.132518)
(5.31218e-08 -7.79506e-07 0.13252)
(-1.87771e-07 -1.11824e-06 0.132516)
(1.22636e-06 -7.94439e-07 0.132517)
(6.17757e-08 -8.02371e-07 0.132515)
(0.000207909 -0.000207061 0.129186)
(-0.000213848 0.00021776 0.129052)
(-2.97317e-06 -1.73648e-06 0.132729)
(2.90381e-06 -1.3339e-06 0.132723)
(-2.83211e-06 -1.34037e-06 0.132729)
(0.000213479 0.00021811 0.129052)
(0.000206447 0.000206722 0.129189)
(-0.000214328 -0.000218461 0.129056)
(2.84414e-06 1.25258e-06 0.132727)
(-3.15953e-06 1.81051e-06 0.132732)
(2.66868e-06 1.10407e-06 0.132726)
(-2.64227e-06 1.49475e-06 0.132733)
(-0.000206831 0.000206438 0.129192)
(0.000212627 -0.000218368 0.12906)
(-9.11936e-07 -7.13901e-07 0.132518)
(-7.70274e-08 -6.92451e-07 0.13252)
(-9.04983e-07 -6.75028e-07 0.132518)
(-1.43512e-07 -7.52215e-07 0.132519)
(5.25332e-08 -7.54029e-07 0.132515)
(9.01212e-07 -6.81918e-07 0.132515)
(-1.05996e-07 -6.19976e-07 0.132514)
(0.000207655 -0.000206764 0.129186)
(-0.000214082 0.000217885 0.129052)
(-2.78734e-06 -1.19955e-06 0.132729)
(2.61978e-06 -1.06675e-06 0.132723)
(-2.93519e-06 -9.20225e-07 0.132728)
(0.000213411 0.000218447 0.129051)
(0.00020644 0.000206694 0.129189)
(-0.000213828 -0.00021813 0.129056)
(2.71815e-06 1.11852e-06 0.132726)
(-4.28025e-06 1.5598e-06 0.132733)
(3.24085e-06 1.48364e-06 0.132727)
(-2.55856e-06 1.98067e-06 0.132732)
(-0.000205082 0.000206906 0.129191)
(0.000212183 -0.000219269 0.129059)
(-8.08699e-07 -6.62809e-07 0.132518)
(-8.49672e-08 -7.83213e-07 0.132519)
(-3.38845e-07 -3.73971e-07 0.132517)
(2.4399e-07 -9.09483e-07 0.132518)
(-1.65969e-07 -6.46711e-07 0.132514)
(4.99397e-07 -6.5952e-07 0.132515)
(-4.76239e-07 -8.84321e-07 0.132513)
(0.000207569 -0.000206754 0.129185)
(-0.000213748 0.00021765 0.129051)
(-2.97904e-06 -9.44363e-07 0.132728)
(3.00435e-06 -1.4439e-06 0.132722)
(-3.18661e-06 -1.3549e-06 0.132728)
(0.000213216 0.000218119 0.12905)
(0.000206974 0.000207067 0.129189)
(-0.000213505 -0.000217514 0.129056)
(3.41762e-06 1.61313e-06 0.132727)
(-3.72671e-06 2.23237e-06 0.132732)
(3.7923e-06 2.21897e-06 0.132727)
(-2.93626e-06 2.82605e-06 0.132733)
(-0.000207364 0.000206714 0.129191)
(0.000212456 -0.000217263 0.12906)
(-1.59821e-07 -2.23244e-07 0.132517)
(3.94691e-07 -9.73633e-07 0.132518)
(9.68227e-08 1.47901e-07 0.132517)
(7.1191e-07 -7.98919e-07 0.132518)
(-5.24182e-07 -9.47712e-07 0.132513)
(5.08308e-07 2.03061e-07 0.132514)
(-4.43763e-07 -9.83157e-07 0.132512)
(0.000207914 -0.000206982 0.129185)
(-0.00021335 0.000217723 0.12905)
(-3.22462e-06 -1.50646e-06 0.132728)
(3.49429e-06 -1.67756e-06 0.132722)
(-3.20267e-06 -1.7432e-06 0.132727)
(0.000213194 0.000217901 0.129049)
(0.000207212 0.000207666 0.129189)
(-0.000214002 -0.000216755 0.129056)
(3.76952e-06 2.45604e-06 0.132727)
(-4.5112e-06 3.16011e-06 0.132733)
(3.47158e-06 3.17933e-06 0.132728)
(-2.13003e-06 3.84423e-06 0.132734)
(-0.000205208 0.000208229 0.129191)
(0.00021296 -0.000217764 0.12906)
(6.00287e-08 3.02052e-07 0.132517)
(7.10899e-07 -7.50898e-07 0.132518)
(-3.70673e-07 7.48959e-07 0.132517)
(4.57346e-07 -4.83381e-07 0.132518)
(-3.8423e-07 -9.56447e-07 0.132512)
(1.18892e-06 5.19359e-07 0.132516)
(-1.2007e-07 -7.44849e-07 0.132514)
(0.000208292 -0.000206882 0.129184)
(-0.000213449 0.000217898 0.129051)
(-3.15184e-06 -1.7648e-06 0.132727)
(3.37169e-06 -1.40002e-06 0.132722)
(-2.98839e-06 -1.62039e-06 0.132728)
(0.000213326 0.000218059 0.12905)
(0.000206644 0.000208388 0.129189)
(-0.000214507 -0.000216736 0.129056)
(3.26166e-06 3.36876e-06 0.132728)
(-3.14609e-06 4.00585e-06 0.132734)
(2.84217e-06 3.51864e-06 0.132727)
(-2.20755e-06 4.03648e-06 0.132734)
(-0.000206588 0.000208399 0.129192)
(0.0002133 -0.000216641 0.129061)
(-5.58285e-07 8.7565e-07 0.132517)
(3.48703e-07 -5.14871e-07 0.132519)
(-1.01459e-06 8.34419e-07 0.132518)
(3.03762e-08 -2.39354e-07 0.13252)
(-1.54366e-08 -6.10398e-07 0.132514)
(1.55053e-06 8.04117e-07 0.132517)
(7.8742e-08 -4.07759e-07 0.132515)
(0.000208151 -0.000206727 0.129185)
(-0.000213789 0.000218087 0.129052)
(-2.93642e-06 -1.48608e-06 0.132728)
(2.9454e-06 -1.06005e-06 0.132723)
(-2.84829e-06 -1.14248e-06 0.132729)
(0.000213468 0.000218452 0.129052)
(0.000206221 0.000208292 0.129189)
(-0.00021444 -0.000217138 0.129057)
(2.7904e-06 3.40202e-06 0.132727)
(-3.81105e-06 3.96328e-06 0.132734)
(2.80737e-06 3.11584e-06 0.132726)
(-2.06805e-06 3.5914e-06 0.132733)
(-0.0002045 0.000208714 0.129192)
(0.0002129 -0.000218242 0.129061)
(-1.06817e-06 7.26896e-07 0.132518)
(-2.64956e-08 -3.25313e-07 0.13252)
(-1.0978e-06 4.53395e-07 0.132518)
(-8.96926e-08 -1.94331e-07 0.132521)
(1.53194e-07 -3.27879e-07 0.132515)
(1.5507e-06 1.8657e-07 0.132518)
(1.61081e-07 -3.2207e-07 0.132516)
(0.000207874 -0.000206573 0.129186)
(-0.000213893 0.000218138 0.129054)
(-2.76936e-06 -9.98885e-07 0.132729)
(2.79754e-06 -8.71773e-07 0.132724)
(-2.83551e-06 -8.17833e-07 0.13273)
(0.00021344 0.000218491 0.129053)
(0.000206336 0.00020796 0.129189)
(-0.000214298 -0.000217227 0.129058)
(2.81932e-06 3.00804e-06 0.132726)
(-3.22423e-06 3.64194e-06 0.132732)
(2.92628e-06 2.8656e-06 0.132726)
(-2.66123e-06 3.26496e-06 0.132733)
(-0.000206768 0.000207865 0.129193)
(0.000212866 -0.000217279 0.129062)
(-1.12222e-06 3.98066e-07 0.132519)
(-1.42872e-07 -4.51862e-07 0.132521)
(-9.87562e-07 3.92874e-07 0.132519)
(-6.27361e-08 -2.75066e-07 0.132522)
(2.11531e-08 -4.14656e-07 0.132517)
(1.18495e-06 3.05326e-07 0.132518)
(-8.6196e-08 -4.7352e-07 0.132517)
(0.000207827 -0.00020662 0.129187)
(-0.0002139 0.000218002 0.129055)
(-2.89453e-06 -9.00773e-07 0.13273)
(2.86625e-06 -9.94639e-07 0.132725)
(-2.96594e-06 -9.39258e-07 0.132731)
(0.000213403 0.00021848 0.129054)
(0.000206513 0.00020789 0.12919)
(-0.000214193 -0.000217369 0.129058)
(2.94581e-06 2.80431e-06 0.132726)
(-4.1916e-06 3.25846e-06 0.132732)
(3.09533e-06 2.70214e-06 0.132726)
(-2.4363e-06 3.15971e-06 0.132732)
(-0.000204954 0.000208126 0.129193)
(0.000212703 -0.000218524 0.129061)
(-9.23713e-07 3.75834e-07 0.13252)
(-1.66125e-08 -7.79121e-07 0.132522)
(-7.91966e-07 3.05888e-07 0.13252)
(1.17654e-07 -1.31413e-07 0.132522)
(-4.51991e-08 -4.29664e-07 0.132517)
(1.13707e-06 -4.98926e-08 0.132519)
(-1.0954e-07 -5.26827e-07 0.132517)
(0.000207875 -0.000206729 0.129188)
(-0.000213783 0.000217964 0.129055)
(-2.94502e-06 -9.11932e-07 0.132731)
(2.936e-06 -1.10567e-06 0.132726)
(-2.93897e-06 -1.11364e-06 0.132731)
(0.000213494 0.0002184 0.129054)
(0.000206601 0.000207777 0.12919)
(-0.000214179 -0.000217343 0.129058)
(3.12169e-06 2.66675e-06 0.132726)
(-3.27628e-06 3.37468e-06 0.132732)
(3.12749e-06 2.71488e-06 0.132726)
(-2.92854e-06 3.06334e-06 0.132732)
(-0.000206979 0.00020761 0.129193)
(0.000213055 -0.000217225 0.129062)
(-7.82418e-07 2.71581e-07 0.13252)
(9.12297e-08 -9.87204e-07 0.132522)
(-7.70938e-07 2.94605e-07 0.13252)
(1.41651e-07 2.63171e-07 0.132522)
(-1.14213e-07 -5.67539e-07 0.132517)
(1.06459e-06 3.08457e-07 0.132518)
(-1.08545e-07 -6.24632e-07 0.132517)
(0.000207782 -0.00020663 0.129188)
(-0.000212895 0.000217196 0.129056)
(-2.91038e-06 -1.15981e-06 0.132731)
(2.94338e-06 -1.17442e-06 0.132726)
(-2.92274e-06 -1.20099e-06 0.132731)
(0.000213475 0.000218342 0.129054)
(0.000206626 0.000207822 0.12919)
(3.08565e-06 2.75035e-06 0.132726)
(-3.91985e-06 3.33503e-06 0.132733)
(-0.000205137 0.000208062 0.129193)
(-7.42222e-07 3.38689e-07 0.13252)
(1.02541e-07 -1.55064e-06 0.132522)
(-4.36198e-08 -5.43515e-07 0.132517)
(-5.68661e-08 -5.33605e-07 0.132517)
(0.000206878 -0.000205574 0.129188)
(-2.88873e-06 -1.12492e-06 0.132731)
(-2.91999e-06 -1.12497e-06 0.132731)
(0.000213476 0.000218374 0.129054)
(1.10176e-07 -3.02175e-05 0.101738)
(5.93791e-06 2.29477e-05 0.0756403)
(2.53995e-08 2.93118e-05 0.10192)
(-1.90791e-06 -1.69873e-05 0.0755658)
(-5.12073e-06 9.4972e-06 0.0648912)
(6.25088e-06 -4.03956e-06 0.0648175)
(-2.94826e-05 4.87204e-07 0.100661)
(1.89382e-05 2.78716e-06 0.0753035)
(3.03865e-05 1.04118e-07 0.101247)
(-1.88749e-05 -2.47129e-06 0.0750791)
(1.55337e-06 4.23271e-07 0.136775)
(8.25578e-07 9.68176e-07 0.136773)
(-5.81135e-07 3.97739e-07 0.136774)
(-2.05684e-06 8.37667e-07 0.136776)
(2.37731e-06 8.91618e-07 0.136777)
(-1.27374e-06 5.84931e-07 0.136776)
(1.36127e-06 6.3971e-07 0.136777)
(5.87566e-05 5.00173e-07 0.11823)
(-4.70485e-05 1.37501e-05 0.103166)
(2.15536e-06 -1.31261e-06 0.134972)
(6.83768e-07 9.65419e-07 0.132518)
(4.50135e-05 -1.47914e-05 0.102728)
(2.481e-06 -8.6551e-07 0.134972)
(-6.31253e-05 -8.17208e-07 0.118867)
(6.7862e-06 -4.44544e-06 0.0647378)
(-6.62289e-06 4.54403e-06 0.0645851)
(4.72328e-07 5.90777e-05 0.119295)
(-1.54649e-06 -4.94745e-06 0.135244)
(1.76818e-05 -4.43177e-05 0.103598)
(3.51347e-06 -1.30783e-06 0.132725)
(-1.73965e-06 -3.23172e-06 0.135244)
(-1.64931e-05 4.34559e-05 0.103437)
(-4.51185e-07 -6.18198e-05 0.119451)
(-1.40233e-05 -1.4051e-05 0.0887593)
(-1.87567e-05 -1.2336e-05 0.0890137)
(0.000213613 0.0002192 0.129057)
(1.32849e-05 1.42467e-05 0.0884069)
(1.51453e-05 1.2856e-05 0.0888037)
(-1.55944e-07 -3.08324e-05 0.101738)
(2.63599e-06 2.27142e-05 0.0756362)
(-5.37119e-08 3.37912e-05 0.101922)
(-3.91536e-06 -1.81901e-05 0.0755648)
(-4.15805e-06 8.56366e-06 0.0648831)
(5.96912e-06 -5.0055e-06 0.0648157)
(-2.95998e-05 4.40905e-07 0.100661)
(1.84356e-05 3.42329e-06 0.0753036)
(3.00689e-05 1.84735e-07 0.101247)
(-1.89408e-05 -2.25036e-06 0.0750797)
(2.26508e-06 9.50409e-07 0.136777)
(-9.72791e-07 6.47256e-07 0.136776)
(1.07108e-06 6.84481e-07 0.136777)
(-1.55529e-06 4.2821e-07 0.136776)
(2.07071e-06 6.79036e-07 0.136777)
(-6.0899e-07 5.24511e-07 0.136776)
(7.66546e-07 4.57486e-07 0.136777)
(5.91342e-05 3.22261e-07 0.11823)
(-4.62044e-05 1.33264e-05 0.103167)
(3.40044e-06 -1.00409e-06 0.134972)
(1.45982e-06 8.81551e-07 0.13252)
(-6.25136e-05 -9.51803e-07 0.118868)
(4.53055e-05 -1.52679e-05 0.102729)
(3.38905e-06 -1.02301e-06 0.134973)
(6.26214e-06 -4.70561e-06 0.0647384)
(-6.5981e-06 4.26539e-06 0.0645859)
(4.63863e-07 5.90856e-05 0.119296)
(-1.56894e-06 -2.13107e-06 0.135246)
(1.6952e-05 -4.38763e-05 0.103598)
(2.95478e-06 -8.8335e-07 0.132727)
(-6.06334e-07 -6.08033e-05 0.119451)
(-1.49768e-06 -2.66082e-06 0.135245)
(-1.66569e-05 4.36238e-05 0.103438)
(-1.30571e-05 -1.42144e-05 0.0887577)
(-1.79045e-05 -1.19594e-05 0.0890126)
(0.000213489 0.000218759 0.129056)
(1.35381e-05 1.38069e-05 0.0884061)
(1.53037e-05 1.26359e-05 0.0888039)
(-3.36275e-07 -3.15583e-05 0.101735)
(2.34016e-06 2.17724e-05 0.0756373)
(-7.83182e-08 3.31481e-05 0.101919)
(-4.21821e-06 -1.88572e-05 0.0755663)
(-4.53689e-06 7.88112e-06 0.0648824)
(5.04532e-06 -6.35958e-06 0.0648148)
(-2.96686e-05 2.82783e-07 0.100662)
(1.85497e-05 3.26019e-06 0.0753043)
(3.0036e-05 3.98459e-08 0.101248)
(-1.89341e-05 -2.44775e-06 0.0750803)
(1.97518e-06 5.68508e-07 0.136777)
(-6.76332e-07 4.27891e-07 0.136776)
(8.455e-07 4.06547e-07 0.136777)
(-1.79586e-06 1.85195e-07 0.136776)
(1.85385e-06 2.21335e-07 0.136777)
(-9.26866e-07 5.45516e-07 0.136776)
(8.26149e-07 5.56132e-07 0.136776)
(5.9426e-05 2.25124e-07 0.118231)
(-4.59627e-05 1.36342e-05 0.103168)
(3.58829e-06 -1.09813e-06 0.134973)
(1.61597e-06 3.47757e-07 0.132519)
(-6.23423e-05 -1.06924e-06 0.118868)
(4.5836e-05 -1.5269e-05 0.10273)
(3.58111e-06 -1.015e-06 0.134973)
(6.24881e-06 -4.87231e-06 0.0647389)
(-6.78781e-06 4.11567e-06 0.0645865)
(3.85063e-07 5.92472e-05 0.119296)
(-1.5193e-06 -2.37208e-06 0.135245)
(1.70477e-05 -4.38521e-05 0.103598)
(2.78928e-06 -8.04102e-07 0.132727)
(-6.26175e-07 -6.07754e-05 0.119452)
(-1.56889e-06 -2.55019e-06 0.135245)
(-1.67799e-05 4.37083e-05 0.103439)
(-1.28671e-05 -1.44532e-05 0.0887576)
(-1.78851e-05 -1.1999e-05 0.089013)
(0.000213729 0.000218669 0.129056)