/*--------------------------------*- C++ -*----------------------------------*\
| =========                 |                                                 |
| \\      /  F ield         | OpenFOAM: The Open Source CFD Toolbox           |
|  \\    /   O peration     | Version:  2206                                  |
|   \\  /    A nd           | Website:  www.openfoam.com                      |
|    \\/     M anipulation  |                                                 |
\*---------------------------------------------------------------------------*/
FoamFile
{
    version     2.0;
    format      ascii;
    arch        "LSB;label=32;scalar=64";
    class       volScalarField;
    location    "0.5";
    object      k;
}
// * * * * * * * * * * * * * * * * * * * * * * * * * * * * * * * * * * * * * //

dimensions      [0 2 -2 0 0 0 0];

internalField   nonuniform List<scalar> 
66940
(
2.10821e-05
3.08105e-05
3.05134e-05
3.40421e-05
2.10745e-05
3.08174e-05
3.05179e-05
3.40537e-05
2.10689e-05
3.08191e-05
3.05188e-05
3.40133e-05
2.10684e-05
3.08323e-05
3.0525e-05
3.40505e-05
2.10742e-05
3.08777e-05
3.05678e-05
3.40748e-05
2.10735e-05
3.0874e-05
3.05605e-05
3.40905e-05
2.10755e-05
3.08616e-05
3.0546e-05
3.40393e-05
2.10981e-05
3.0859e-05
3.05432e-05
3.40585e-05
2.11767e-05
3.09005e-05
3.05852e-05
3.40623e-05
2.143e-05
3.10544e-05
3.07445e-05
3.42508e-05
2.2095e-05
3.15973e-05
3.13541e-05
3.46938e-05
2.40824e-05
3.37532e-05
3.37419e-05
3.69097e-05
3.4062e-05
3.05103e-05
3.05066e-05
3.40257e-05
3.08396e-05
3.08346e-05
3.08079e-05
3.08167e-05
3.40629e-05
3.0513e-05
3.05303e-05
3.40655e-05
3.40401e-05
3.40592e-05
3.0511e-05
3.05073e-05
3.05145e-05
3.05125e-05
3.40049e-05
3.40294e-05
3.08414e-05
3.0836e-05
3.08462e-05
3.08394e-05
3.08279e-05
3.08156e-05
3.08136e-05
3.40403e-05
3.40561e-05
3.05095e-05
3.05158e-05
3.05094e-05
3.40882e-05
3.40395e-05
3.40519e-05
3.0517e-05
3.05145e-05
3.05176e-05
3.05151e-05
3.40083e-05
3.40174e-05
3.08486e-05
3.0841e-05
3.08485e-05
3.08404e-05
3.08148e-05
3.08167e-05
3.08153e-05
3.40357e-05
3.40471e-05
3.05146e-05
3.05174e-05
3.05201e-05
3.40354e-05
3.40322e-05
3.40613e-05
3.05197e-05
3.05174e-05
3.05233e-05
3.05228e-05
3.3998e-05
3.40337e-05
3.08505e-05
3.08421e-05
3.08542e-05
3.08437e-05
3.08278e-05
3.08235e-05
3.08203e-05
3.40266e-05
3.40435e-05
3.05028e-05
3.05187e-05
3.05067e-05
3.40732e-05
3.40468e-05
3.41237e-05
3.05325e-05
3.0532e-05
3.05608e-05
3.05601e-05
3.40182e-05
3.40916e-05
3.08636e-05
3.08506e-05
3.08935e-05
3.08763e-05
3.08274e-05
3.08618e-05
3.08506e-05
3.40256e-05
3.40939e-05
3.05195e-05
3.05538e-05
3.05549e-05
3.40896e-05
3.41121e-05
3.41373e-05
3.05726e-05
3.05719e-05
3.05662e-05
3.05656e-05
3.40796e-05
3.41041e-05
3.09099e-05
3.08916e-05
3.0907e-05
3.08885e-05
3.08759e-05
3.0875e-05
3.0862e-05
3.4082e-05
3.41046e-05
3.0547e-05
3.05617e-05
3.05491e-05
3.41237e-05
3.41143e-05
3.41094e-05
3.05652e-05
3.0564e-05
3.05521e-05
3.05503e-05
3.40803e-05
3.40767e-05
3.09066e-05
3.08878e-05
3.08954e-05
3.08755e-05
3.08621e-05
3.08646e-05
3.08529e-05
3.40809e-05
3.40738e-05
3.05508e-05
3.05464e-05
3.05446e-05
3.40589e-05
3.40956e-05
3.40863e-05
3.05514e-05
3.05488e-05
3.05485e-05
3.05488e-05
3.40626e-05
3.40617e-05
3.08949e-05
3.08748e-05
3.08877e-05
3.08674e-05
3.08641e-05
3.08584e-05
3.0857e-05
3.40586e-05
3.40597e-05
3.05258e-05
3.05413e-05
3.05292e-05
3.40861e-05
3.40918e-05
3.4126e-05
3.05491e-05
3.05505e-05
3.0585e-05
3.05832e-05
3.40607e-05
3.40983e-05
3.08878e-05
3.08681e-05
3.09228e-05
3.08961e-05
3.08574e-05
3.08935e-05
3.08796e-05
3.4042e-05
3.40984e-05
3.05357e-05
3.05738e-05
3.05736e-05
3.40959e-05
3.41437e-05
3.41911e-05
3.05947e-05
3.05941e-05
3.06883e-05
3.06936e-05
3.41172e-05
3.41789e-05
3.09293e-05
3.09068e-05
3.10338e-05
3.10151e-05
3.09073e-05
3.10177e-05
3.10201e-05
3.40983e-05
3.41747e-05
3.05699e-05
3.06854e-05
3.06737e-05
3.42198e-05
3.42484e-05
3.44317e-05
3.07668e-05
3.07681e-05
3.10087e-05
3.10241e-05
3.42186e-05
3.4516e-05
3.10882e-05
3.10509e-05
3.13685e-05
3.13323e-05
3.1067e-05
3.13553e-05
3.13566e-05
3.4232e-05
3.44032e-05
3.07424e-05
3.09907e-05
3.09998e-05
3.44962e-05
3.47041e-05
3.64651e-05
3.13711e-05
3.13826e-05
3.30547e-05
3.30758e-05
3.46998e-05
3.65824e-05
3.16149e-05
3.15642e-05
3.30451e-05
3.30457e-05
3.16117e-05
3.30568e-05
3.30616e-05
3.46935e-05
3.62013e-05
3.13468e-05
3.304e-05
3.29653e-05
3.6432e-05
3.68668e-05
3.37978e-05
3.38058e-05
3.69318e-05
3.37411e-05
3.37563e-05
2.41821e-05
2.41025e-05
2.40044e-05
3.38155e-05
3.67024e-05
3.37003e-05
1.03517e-05
2.10857e-05
2.10816e-05
2.10822e-05
2.1077e-05
4.17379e-05
3.08059e-05
3.59998e-05
2.55174e-05
3.40756e-05
2.24685e-05
2.26744e-05
3.81215e-05
1.65648e-05
3.81277e-05
1.65064e-05
1.04404e-05
1.04196e-05
3.71874e-05
1.6059e-05
3.72213e-05
1.60268e-05
2.10775e-05
2.10797e-05
2.10756e-05
2.10776e-05
2.10726e-05
2.10769e-05
2.1092e-05
4.1747e-05
3.60266e-05
2.55233e-05
3.08113e-05
4.17292e-05
3.59891e-05
2.55262e-05
1.02316e-05
1.0213e-05
4.19929e-05
2.50006e-05
3.654e-05
3.05139e-05
4.19546e-05
2.50037e-05
3.65218e-05
2.24969e-05
2.28617e-05
3.40862e-05
2.24634e-05
2.28009e-05
3.81311e-05
1.64846e-05
3.8143e-05
1.64586e-05
1.04182e-05
1.04087e-05
3.71835e-05
1.60511e-05
3.72198e-05
1.60271e-05
2.10691e-05
2.10746e-05
2.10892e-05
2.10724e-05
2.10665e-05
2.10732e-05
2.10841e-05
4.17568e-05
3.6024e-05
2.55325e-05
3.08167e-05
4.17411e-05
3.5989e-05
2.55338e-05
1.02284e-05
1.02149e-05
4.20329e-05
2.50098e-05
3.65494e-05
3.05175e-05
4.20139e-05
2.50105e-05
3.65323e-05
2.25004e-05
2.28091e-05
3.40513e-05
2.2454e-05
2.27875e-05
3.81825e-05
1.64786e-05
3.81702e-05
1.64774e-05
1.04282e-05
1.04272e-05
3.72209e-05
1.60762e-05
3.72315e-05
1.60636e-05
2.10631e-05
2.10701e-05
2.10811e-05
2.10716e-05
2.10658e-05
2.10722e-05
2.10968e-05
4.17641e-05
3.60408e-05
2.5536e-05
3.08186e-05
4.17348e-05
3.60266e-05
2.55365e-05
1.02443e-05
1.02382e-05
4.20596e-05
2.50111e-05
3.65599e-05
3.05173e-05
4.20404e-05
2.50087e-05
3.65625e-05
2.25023e-05
2.28405e-05
3.40591e-05
2.24948e-05
2.28262e-05
3.82707e-05
1.65061e-05
3.8263e-05
1.6487e-05
1.04463e-05
1.04373e-05
3.73186e-05
1.61157e-05
3.73232e-05
1.6094e-05
2.10627e-05
2.10691e-05
2.10921e-05
2.10796e-05
2.10734e-05
2.10795e-05
2.10962e-05
4.18485e-05
3.61211e-05
2.5543e-05
3.08374e-05
4.17921e-05
3.61172e-05
2.55457e-05
1.02676e-05
1.02543e-05
4.21449e-05
2.50087e-05
3.66385e-05
3.05299e-05
4.20907e-05
2.50107e-05
3.66481e-05
2.25663e-05
2.28818e-05
3.40688e-05
2.25289e-05
2.28707e-05
3.82396e-05
1.64877e-05
3.82805e-05
1.6464e-05
1.04377e-05
1.04217e-05
3.73227e-05
1.61173e-05
3.73832e-05
1.60798e-05
2.10681e-05
2.10746e-05
2.10923e-05
2.10838e-05
2.10771e-05
2.10835e-05
2.11107e-05
4.19207e-05
3.61869e-05
2.55739e-05
3.08777e-05
4.18912e-05
3.61322e-05
2.55757e-05
1.02658e-05
1.02447e-05
4.21954e-05
2.50313e-05
3.66869e-05
3.05661e-05
4.21861e-05
2.50315e-05
3.66399e-05
2.25557e-05
2.28896e-05
3.41296e-05
2.25148e-05
2.28389e-05
3.8209e-05
1.64703e-05
3.82294e-05
1.64573e-05
1.04265e-05
1.04194e-05
3.72718e-05
1.60961e-05
3.73217e-05
1.60653e-05
2.10672e-05
2.10738e-05
2.10983e-05
2.10873e-05
2.10803e-05
2.10863e-05
2.11037e-05
4.18466e-05
3.61259e-05
2.5576e-05
3.08673e-05
4.18555e-05
3.60877e-05
2.55701e-05
1.02526e-05
1.02353e-05
4.21434e-05
2.5028e-05
3.66293e-05
3.05523e-05
4.21449e-05
2.50248e-05
3.66061e-05
2.25358e-05
2.2845e-05
3.40777e-05
2.24811e-05
2.28228e-05
3.82389e-05
1.64809e-05
3.82376e-05
1.64713e-05
1.04292e-05
1.04242e-05
3.72483e-05
1.60858e-05
3.72977e-05
1.60571e-05
2.10698e-05
2.1076e-05
2.10933e-05
2.11052e-05
2.10979e-05
2.11024e-05
2.11213e-05
4.18455e-05
3.61124e-05
2.5573e-05
3.08593e-05
4.18391e-05
3.60569e-05
2.55756e-05
1.02454e-05
1.02325e-05
4.21598e-05
2.50269e-05
3.66269e-05
3.05422e-05
4.21419e-05
2.50312e-05
3.66031e-05
2.25022e-05
2.28518e-05
3.40776e-05
2.24703e-05
2.28251e-05
3.82867e-05
1.64938e-05
3.82769e-05
1.64817e-05
1.04339e-05
1.04366e-05
3.72688e-05
1.60859e-05
3.72887e-05
1.6058e-05
2.10945e-05
2.10989e-05
2.11165e-05
2.11631e-05
2.11541e-05
2.11555e-05
2.11719e-05
4.18463e-05
3.61109e-05
2.5584e-05
3.087e-05
4.18029e-05
3.60822e-05
2.56068e-05
1.02444e-05
1.02354e-05
4.21917e-05
2.50473e-05
3.66467e-05
3.05511e-05
4.2161e-05
2.50718e-05
3.663e-05
2.25144e-05
2.28491e-05
3.40755e-05
2.24711e-05
2.28346e-05
3.83291e-05
1.64975e-05
3.83017e-05
1.64766e-05
1.04186e-05
1.04498e-05
3.73168e-05
1.60784e-05
3.73052e-05
1.60452e-05
2.11712e-05
2.11714e-05
2.11814e-05
2.13948e-05
2.13924e-05
2.13875e-05
2.13994e-05
4.18959e-05
3.61252e-05
2.5617e-05
3.09386e-05
4.18478e-05
3.60943e-05
2.57008e-05
1.02309e-05
1.02389e-05
4.22303e-05
2.50949e-05
3.66647e-05
3.06151e-05
4.22069e-05
2.5177e-05
3.66431e-05
2.24946e-05
2.28634e-05
3.41695e-05
2.24927e-05
2.28294e-05
3.83108e-05
1.65221e-05
3.82842e-05
1.64931e-05
1.0394e-05
1.0503e-05
3.72989e-05
1.60658e-05
3.72731e-05
1.60423e-05
2.1427e-05
2.14176e-05
2.1432e-05
2.21159e-05
2.2111e-05
2.2086e-05
2.21035e-05
4.19497e-05
3.61214e-05
2.57303e-05
3.1139e-05
4.19081e-05
3.60765e-05
2.59989e-05
1.01986e-05
1.0279e-05
4.22247e-05
2.52259e-05
3.66631e-05
3.08128e-05
4.2248e-05
2.55049e-05
3.66571e-05
2.24336e-05
2.2817e-05
3.42799e-05
2.24899e-05
2.28708e-05
3.77178e-05
1.66633e-05
3.79208e-05
1.62903e-05
1.04727e-05
1.06155e-05
3.70976e-05
1.63263e-05
3.72247e-05
1.60406e-05
2.20869e-05
2.20712e-05
2.20758e-05
2.47955e-05
2.47535e-05
2.47159e-05
2.47188e-05
4.16842e-05
3.61942e-05
2.61164e-05
3.1582e-05
4.18973e-05
3.58629e-05
2.696e-05
1.03145e-05
1.06178e-05
4.1693e-05
2.58639e-05
3.66e-05
3.15169e-05
4.21565e-05
2.70605e-05
3.63032e-05
2.24576e-05
2.2784e-05
3.51736e-05
2.23504e-05
2.26444e-05
3.09705e-05
3.5557e-06
3.00743e-05
7.5798e-06
3.56273e-06
7.96725e-06
3.09558e-05
3.64885e-06
2.95388e-05
8.40903e-06
1.91015e-05
2.00148e-05
2.00264e-05
2.5898e-05
1.82887e-05
2.12051e-05
2.11837e-05
3.56709e-05
2.38874e-05
2.79778e-05
3.23454e-05
3.92362e-05
2.09562e-05
2.76746e-05
3.50142e-06
6.26142e-06
3.59716e-05
2.80402e-05
2.45704e-05
3.24123e-05
3.92601e-05
2.77532e-05
2.13645e-05
1.45579e-05
1.46919e-05
3.5402e-05
1.30067e-05
1.24398e-05
1.04435e-05
1.03816e-05
1.02291e-05
1.02465e-05
3.40449e-05
2.28496e-05
2.24385e-05
2.28312e-05
2.248e-05
1.63062e-05
3.07799e-05
3.63206e-05
3.79333e-05
1.65593e-05
1.63746e-05
3.81099e-05
3.79245e-05
1.65454e-05
1.63602e-05
3.8101e-05
4.20363e-05
3.05113e-05
3.64869e-05
2.49291e-05
3.63741e-05
2.49819e-05
4.19426e-05
4.20289e-05
3.05072e-05
3.64689e-05
2.4924e-05
3.63556e-05
2.49763e-05
4.19354e-05
3.40341e-05
2.26318e-05
2.24537e-05
1.0223e-05
1.04334e-05
1.03709e-05
3.40072e-05
2.28041e-05
2.24474e-05
2.27841e-05
2.24882e-05
1.02226e-05
1.02397e-05
3.7231e-05
1.60327e-05
1.60639e-05
3.71846e-05
4.17379e-05
3.0839e-05
3.60168e-05
2.55307e-05
3.60566e-05
2.55277e-05
4.17495e-05
3.72245e-05
1.60165e-05
1.60478e-05
3.71772e-05
4.17263e-05
3.08343e-05
2.55206e-05
3.59794e-05
2.55165e-05
3.60185e-05
4.17382e-05
3.71916e-05
1.60261e-05
4.17321e-05
3.08144e-05
2.55145e-05
3.59961e-05
3.71894e-05
1.60262e-05
4.17273e-05
3.08071e-05
3.59903e-05
2.5522e-05
3.60303e-05
2.55193e-05
4.17409e-05
3.72244e-05
1.60221e-05
1.6053e-05
3.71781e-05
4.17218e-05
3.08186e-05
2.55205e-05
3.59857e-05
2.55165e-05
3.60267e-05
4.17354e-05
3.7222e-05
1.60216e-05
1.60533e-05
3.71755e-05
1.02163e-05
1.02328e-05
3.40455e-05
2.24211e-05
2.28678e-05
2.24682e-05
2.28317e-05
1.04555e-05
1.0393e-05
4.20484e-05
3.05143e-05
2.49994e-05
3.65196e-05
2.50536e-05
3.64055e-05
4.19542e-05
4.20487e-05
3.05289e-05
2.50008e-05
3.65293e-05
2.50555e-05
3.64174e-05
4.19544e-05
3.7928e-05
1.65673e-05
1.63823e-05
3.8104e-05
3.79269e-05
1.65684e-05
1.63829e-05
3.81029e-05
1.02245e-05
1.03734e-05
3.40481e-05
2.24603e-05
2.28444e-05
2.25027e-05
2.28264e-05
1.02236e-05
1.02412e-05
1.04555e-05
1.03936e-05
1.04507e-05
1.04314e-05
1.02442e-05
1.02261e-05
2.28685e-05
2.2473e-05
3.40573e-05
2.28209e-05
2.24323e-05
1.04204e-05
1.04378e-05
1.02251e-05
1.02415e-05
3.40363e-05
2.28102e-05
2.24293e-05
2.28428e-05
2.24674e-05
3.81125e-05
1.65509e-05
3.81189e-05
1.64933e-05
4.19823e-05
3.65074e-05
2.49305e-05
3.05115e-05
4.19432e-05
3.64892e-05
2.4934e-05
4.19751e-05
3.64892e-05
2.49255e-05
3.05089e-05
4.1936e-05
3.64714e-05
2.49294e-05
3.81385e-05
1.64739e-05
1.65148e-05
3.81273e-05
3.81297e-05
1.64617e-05
1.65016e-05
3.81187e-05
4.19805e-05
3.05139e-05
3.64964e-05
2.49394e-05
3.65114e-05
2.49363e-05
4.20073e-05
4.19734e-05
3.0512e-05
3.64783e-05
2.49354e-05
3.64931e-05
2.49321e-05
4.20004e-05
2.28225e-05
2.24827e-05
3.4026e-05
2.27773e-05
2.24392e-05
1.0238e-05
1.0222e-05
1.04109e-05
1.04264e-05
3.40062e-05
2.27646e-05
2.24394e-05
2.2798e-05
2.24769e-05
1.02196e-05
1.02367e-05
4.1755e-05
3.60522e-05
2.5532e-05
3.08424e-05
4.17372e-05
3.60145e-05
2.5535e-05
3.718e-05
1.60428e-05
3.72133e-05
1.60103e-05
4.17435e-05
2.55224e-05
3.60144e-05
3.08363e-05
4.17259e-05
2.55262e-05
3.5976e-05
3.7223e-05
1.60239e-05
1.60534e-05
3.7183e-05
4.17449e-05
3.08455e-05
3.60139e-05
2.55396e-05
3.60494e-05
2.55365e-05
4.17635e-05
3.7216e-05
1.60076e-05
1.60369e-05
3.71759e-05
4.17335e-05
3.08391e-05
2.55318e-05
3.59753e-05
2.55281e-05
3.60098e-05
4.17519e-05
3.71784e-05
1.60484e-05
3.72132e-05
1.60164e-05
4.1741e-05
2.55232e-05
3.60207e-05
3.08179e-05
4.17234e-05
2.55282e-05
3.59844e-05
3.71758e-05
1.60479e-05
3.72107e-05
1.60156e-05
4.1736e-05
3.0815e-05
3.59877e-05
2.55305e-05
3.60236e-05
2.55277e-05
4.17516e-05
3.7215e-05
1.60141e-05
1.6043e-05
3.71764e-05
4.17302e-05
3.08254e-05
2.55355e-05
3.59856e-05
2.55304e-05
3.60195e-05
4.17462e-05
3.72124e-05
1.60133e-05
1.60422e-05
3.7174e-05
2.24557e-05
2.2886e-05
3.40565e-05
2.24139e-05
2.28354e-05
1.04622e-05
1.04422e-05
1.0212e-05
1.02273e-05
3.40353e-05
2.2412e-05
2.2825e-05
2.24552e-05
2.28549e-05
1.04297e-05
1.04489e-05
4.19929e-05
2.50027e-05
3.65498e-05
3.05178e-05
4.19547e-05
2.50064e-05
3.65295e-05
3.81133e-05
1.65726e-05
3.81213e-05
1.65134e-05
3.8112e-05
1.65742e-05
3.81202e-05
1.65158e-05
4.19911e-05
3.05152e-05
2.50085e-05
3.65274e-05
2.50057e-05
3.65448e-05
4.20172e-05
4.1991e-05
3.05041e-05
2.50121e-05
3.65335e-05
2.50084e-05
3.65513e-05
4.20174e-05
3.81295e-05
1.64786e-05
1.65214e-05
3.8117e-05
3.81285e-05
1.64818e-05
1.65242e-05
3.8116e-05
1.02393e-05
1.02262e-05
1.04625e-05
1.04368e-05
3.40565e-05
2.24681e-05
2.27847e-05
2.25017e-05
2.28215e-05
1.02252e-05
1.02405e-05
1.04246e-05
1.04436e-05
1.04277e-05
1.04176e-05
1.02414e-05
1.0229e-05
2.2834e-05
2.24653e-05
3.40553e-05
2.28087e-05
2.24318e-05
1.04243e-05
1.04271e-05
1.02399e-05
1.02472e-05
3.40338e-05
2.2824e-05
2.24483e-05
2.28354e-05
2.24721e-05
3.81236e-05
1.64724e-05
3.81348e-05
1.64473e-05
4.20243e-05
3.65189e-05
2.49408e-05
3.05169e-05
4.20041e-05
3.65035e-05
2.49419e-05
4.20181e-05
3.65011e-05
2.49368e-05
3.05142e-05
4.19973e-05
3.6488e-05
2.4938e-05
3.8148e-05
1.64585e-05
1.64714e-05
3.81464e-05
3.8141e-05
1.64475e-05
1.64602e-05
3.814e-05
4.20205e-05
3.05183e-05
3.65168e-05
2.49426e-05
3.65259e-05
2.49425e-05
4.20388e-05
4.20144e-05
3.05156e-05
3.65038e-05
2.4939e-05
3.65113e-05
2.49387e-05
4.20334e-05
2.27891e-05
2.24753e-05
3.40216e-05
2.27658e-05
2.24412e-05
1.02357e-05
1.02231e-05
1.04157e-05
1.04183e-05
3.4e-05
2.2782e-05
2.24578e-05
2.27934e-05
2.24812e-05
1.02339e-05
1.02411e-05
4.17639e-05
3.60497e-05
2.55414e-05
3.08482e-05
4.17524e-05
3.60147e-05
2.55427e-05
3.71758e-05
1.60349e-05
3.7212e-05
1.60111e-05
4.17522e-05
2.55339e-05
3.60109e-05
3.08402e-05
4.17408e-05
2.55357e-05
3.59743e-05
3.72187e-05
1.60416e-05
1.60583e-05
3.71862e-05
4.1749e-05
3.08495e-05
3.60243e-05
2.5544e-05
3.60511e-05
2.55437e-05
4.17571e-05
3.72113e-05
1.60252e-05
1.60421e-05
3.71792e-05
4.17373e-05
3.08417e-05
2.55374e-05
3.5983e-05
2.5537e-05
3.60093e-05
4.17451e-05
3.71754e-05
1.60414e-05
3.72123e-05
1.60179e-05
4.17507e-05
2.55365e-05
3.60214e-05
3.08149e-05
4.17354e-05
2.55372e-05
3.59854e-05
3.71731e-05
1.60408e-05
3.721e-05
1.60177e-05
4.17422e-05
3.08176e-05
3.59993e-05
2.55347e-05
3.60252e-05
2.55349e-05
4.17466e-05
3.72111e-05
1.60325e-05
1.60491e-05
3.71785e-05
4.17364e-05
3.08178e-05
2.55369e-05
3.59922e-05
2.55378e-05
3.60212e-05
4.17412e-05
3.72088e-05
1.60323e-05
1.6049e-05
3.71763e-05
2.24474e-05
2.28474e-05
3.40511e-05
2.24105e-05
2.28176e-05
1.04361e-05
1.04242e-05
1.02249e-05
1.02318e-05
3.40297e-05
2.24243e-05
2.28268e-05
2.24576e-05
2.28394e-05
1.04301e-05
1.04342e-05
4.20334e-05
2.5014e-05
3.65557e-05
3.05155e-05
4.20141e-05
2.50141e-05
3.65381e-05
3.8118e-05
1.64887e-05
3.81323e-05
1.64601e-05
3.81172e-05
1.64922e-05
3.81315e-05
1.64631e-05
4.20288e-05
3.05184e-05
2.50111e-05
3.6536e-05
2.50109e-05
3.65545e-05
4.20446e-05
4.20294e-05
3.05176e-05
2.50154e-05
3.65423e-05
2.50143e-05
3.65593e-05
4.20455e-05
3.81337e-05
1.64573e-05
1.64724e-05
3.81275e-05
3.81331e-05
1.646e-05
1.64756e-05
3.81269e-05
1.02401e-05
1.02245e-05
1.04324e-05
1.04221e-05
3.40234e-05
2.246e-05
2.28039e-05
2.24891e-05
2.28156e-05
1.02322e-05
1.02415e-05
1.04295e-05
1.04319e-05
1.04371e-05
1.04374e-05
1.02595e-05
1.02546e-05
2.28572e-05
2.24923e-05
3.40524e-05
2.28514e-05
2.24756e-05
1.04461e-05
1.04494e-05
1.0267e-05
1.02742e-05
3.40334e-05
2.28782e-05
2.25072e-05
2.28856e-05
2.25227e-05
3.81759e-05
1.64676e-05
3.81639e-05
1.64668e-05
4.20582e-05
3.65447e-05
2.49429e-05
3.05192e-05
4.2035e-05
3.65483e-05
2.4942e-05
4.20533e-05
3.65316e-05
2.49395e-05
3.0518e-05
4.20297e-05
3.65361e-05
2.4939e-05
3.82139e-05
1.64901e-05
1.64965e-05
3.82331e-05
3.82075e-05
1.64801e-05
1.6486e-05
3.82268e-05
4.20558e-05
3.05222e-05
3.6585e-05
2.49422e-05
3.65781e-05
2.49422e-05
4.20918e-05
4.20509e-05
3.05214e-05
3.6572e-05
2.49395e-05
3.65652e-05
2.49394e-05
4.20871e-05
2.28147e-05
2.25024e-05
3.40229e-05
2.28141e-05
2.24808e-05
1.02535e-05
1.02501e-05
1.04369e-05
1.04395e-05
3.40052e-05
2.28333e-05
2.25144e-05
2.28412e-05
2.25334e-05
1.02604e-05
1.0269e-05
4.17726e-05
3.60646e-05
2.55451e-05
3.08498e-05
4.17462e-05
3.60531e-05
2.55455e-05
3.72147e-05
1.60596e-05
3.72248e-05
1.60463e-05
4.17615e-05
2.55391e-05
3.6023e-05
3.08408e-05
4.17342e-05
2.55396e-05
3.60087e-05
3.72717e-05
1.60836e-05
1.60988e-05
3.72697e-05
4.17645e-05
3.08531e-05
3.60986e-05
2.55475e-05
3.61009e-05
2.55471e-05
4.18054e-05
3.72657e-05
1.60657e-05
1.60811e-05
3.72638e-05
4.17534e-05
3.08439e-05
2.55421e-05
3.60516e-05
2.55416e-05
3.60553e-05
4.17947e-05
3.72148e-05
1.60672e-05
3.72241e-05
1.60544e-05
4.1758e-05
2.55403e-05
3.60319e-05
3.08175e-05
4.17292e-05
2.55426e-05
3.60208e-05
3.72128e-05
1.60668e-05
3.7222e-05
1.60537e-05
4.17562e-05
3.08223e-05
3.60723e-05
2.55393e-05
3.60746e-05
2.55384e-05
4.17978e-05
3.72662e-05
1.60743e-05
1.60895e-05
3.72648e-05
4.17502e-05
3.08292e-05
2.55475e-05
3.60663e-05
2.55436e-05
3.60686e-05
4.17922e-05
3.72643e-05
1.60725e-05
1.60886e-05
3.7263e-05
2.24667e-05
2.28583e-05
3.40431e-05
2.24478e-05
2.2854e-05
1.04425e-05
1.04447e-05
1.02496e-05
1.02565e-05
3.40232e-05
2.24758e-05
2.28859e-05
2.25021e-05
2.28838e-05
1.04572e-05
1.04589e-05
4.20607e-05
2.50127e-05
3.65669e-05
3.05111e-05
4.20413e-05
2.50118e-05
3.65684e-05
3.81601e-05
1.64781e-05
3.81498e-05
1.64807e-05
3.81598e-05
1.64808e-05
3.81495e-05
1.64832e-05
4.20567e-05
3.0519e-05
2.50071e-05
3.66041e-05
2.50082e-05
3.65942e-05
4.20909e-05
4.20578e-05
3.05001e-05
2.5009e-05
3.66078e-05
2.5011e-05
3.65992e-05
4.20923e-05
3.81923e-05
1.65e-05
1.65022e-05
3.82177e-05
3.81923e-05
1.65018e-05
1.65046e-05
3.82177e-05
1.02516e-05
1.02508e-05
1.04431e-05
1.04396e-05
3.40347e-05
2.25298e-05
2.28493e-05
2.25406e-05
2.28577e-05
1.02609e-05
1.02686e-05
1.0451e-05
1.04539e-05
1.04556e-05
1.04466e-05
1.0285e-05
1.02725e-05
2.29091e-05
2.25519e-05
3.40892e-05
2.28938e-05
2.25292e-05
1.04404e-05
1.04541e-05
1.027e-05
1.02882e-05
3.40773e-05
2.28863e-05
2.25341e-05
2.292e-05
2.25684e-05
3.82652e-05
1.64964e-05
3.82571e-05
1.64782e-05
4.21359e-05
3.66156e-05
2.49441e-05
3.05379e-05
4.20912e-05
3.6618e-05
2.49466e-05
4.21316e-05
3.6603e-05
2.49414e-05
3.05373e-05
4.20866e-05
3.6606e-05
2.4944e-05
3.82908e-05
1.6476e-05
1.6499e-05
3.82724e-05
3.82858e-05
1.64666e-05
1.64901e-05
3.82689e-05
4.21349e-05
3.05557e-05
3.663e-05
2.49575e-05
3.6644e-05
2.49546e-05
4.21637e-05
4.21307e-05
3.05549e-05
3.66186e-05
2.49553e-05
3.66321e-05
2.49521e-05
4.21603e-05
2.28646e-05
2.25582e-05
3.40583e-05
2.28487e-05
2.25345e-05
1.0278e-05
1.0265e-05
1.04312e-05
1.04448e-05
3.40459e-05
2.28413e-05
2.25383e-05
2.28748e-05
2.25735e-05
1.02623e-05
1.02805e-05
4.18556e-05
3.61475e-05
2.55511e-05
3.08689e-05
4.17996e-05
3.61441e-05
2.55539e-05
3.73126e-05
1.60975e-05
3.73173e-05
1.60755e-05
4.1845e-05
2.5546e-05
3.60993e-05
3.08541e-05
4.1789e-05
2.55488e-05
3.60941e-05
3.73658e-05
1.60915e-05
1.6122e-05
3.73458e-05
4.18509e-05
3.08872e-05
3.61761e-05
2.55693e-05
3.61893e-05
2.55644e-05
4.19046e-05
3.73599e-05
1.60728e-05
1.61033e-05
3.73398e-05
4.18403e-05
3.08709e-05
2.55642e-05
3.61247e-05
2.55594e-05
3.61382e-05
4.18939e-05
3.73143e-05
1.61062e-05
3.73185e-05
1.60843e-05
4.18431e-05
2.55496e-05
3.61132e-05
3.08314e-05
4.17865e-05
2.55515e-05
3.61058e-05
3.73124e-05
1.61041e-05
3.73167e-05
1.60814e-05
4.18439e-05
3.08553e-05
3.61484e-05
2.55609e-05
3.61624e-05
2.55562e-05
4.18983e-05
3.73618e-05
1.6081e-05
1.61121e-05
3.73422e-05
4.18385e-05
3.08488e-05
2.55636e-05
3.61312e-05
2.55612e-05
3.61492e-05
4.18924e-05
3.73598e-05
1.60768e-05
1.61089e-05
3.73399e-05
2.25198e-05
2.29163e-05
3.40604e-05
2.24946e-05
2.29025e-05
1.04666e-05
1.04585e-05
1.02517e-05
1.02689e-05
3.40483e-05
2.24982e-05
2.28956e-05
2.25412e-05
2.29246e-05
1.04525e-05
1.0467e-05
4.21469e-05
2.50145e-05
3.66426e-05
3.05258e-05
4.20922e-05
2.50161e-05
3.66513e-05
3.82717e-05
1.65179e-05
3.82534e-05
1.65058e-05
3.8272e-05
1.65196e-05
3.82536e-05
1.65046e-05
4.21464e-05
3.05477e-05
2.50235e-05
3.66683e-05
2.50193e-05
3.66772e-05
4.21895e-05
4.21483e-05
3.0544e-05
2.50281e-05
3.66688e-05
2.50226e-05
3.66787e-05
4.21913e-05
3.82971e-05
1.64943e-05
1.6518e-05
3.82931e-05
3.82975e-05
1.64916e-05
1.65164e-05
3.82932e-05
1.02768e-05
1.02596e-05
1.04624e-05
1.04544e-05
3.40531e-05
2.25202e-05
2.287e-05
2.25631e-05
2.28978e-05
1.02535e-05
1.0274e-05
1.04497e-05
1.04625e-05
1.04471e-05
1.04336e-05
1.02838e-05
1.02628e-05
2.29074e-05
2.2567e-05
3.41469e-05
2.28696e-05
2.25174e-05
1.04297e-05
1.04404e-05
1.02572e-05
1.02763e-05
3.41307e-05
2.28576e-05
2.25029e-05
2.28908e-05
2.25496e-05
3.82353e-05
1.64783e-05
3.82771e-05
1.64542e-05
4.21547e-05
3.66462e-05
2.49623e-05
3.05708e-05
4.21582e-05
3.65985e-05
2.49619e-05
4.2152e-05
3.66349e-05
2.49601e-05
3.05704e-05
4.2155e-05
3.6587e-05
2.49598e-05
3.82491e-05
1.64563e-05
1.64761e-05
3.82187e-05
3.82448e-05
1.64457e-05
1.64661e-05
3.82137e-05
4.21347e-05
3.05722e-05
3.65734e-05
2.49585e-05
3.6611e-05
2.49621e-05
4.21225e-05
4.21321e-05
3.05715e-05
3.65602e-05
2.49567e-05
3.65993e-05
2.496e-05
4.21196e-05
2.28621e-05
2.25722e-05
3.41151e-05
2.28254e-05
2.2522e-05
1.02763e-05
1.02576e-05
1.04194e-05
1.04292e-05
3.40984e-05
2.28103e-05
2.25096e-05
2.28453e-05
2.25558e-05
1.02503e-05
1.02703e-05
4.19263e-05
3.6215e-05
2.55818e-05
3.09098e-05
4.18974e-05
3.6163e-05
2.55835e-05
3.7317e-05
1.60986e-05
3.73773e-05
1.60607e-05
4.19157e-05
2.55768e-05
3.61635e-05
3.08911e-05
4.18867e-05
2.55785e-05
3.6112e-05
3.73522e-05
1.60703e-05
1.61051e-05
3.72916e-05
4.191e-05
3.09129e-05
3.6126e-05
2.55841e-05
3.61881e-05
2.55875e-05
4.18942e-05
3.73465e-05
1.60505e-05
1.60858e-05
3.7286e-05
4.18995e-05
3.08945e-05
2.5579e-05
3.60753e-05
2.55824e-05
3.61361e-05
4.18839e-05
3.73196e-05
1.61067e-05
3.73797e-05
1.6069e-05
4.19144e-05
2.55776e-05
3.61675e-05
3.08664e-05
4.18852e-05
2.55813e-05
3.61111e-05
3.7317e-05
1.61024e-05
3.73773e-05
1.60641e-05
4.19043e-05
3.08802e-05
3.60963e-05
2.55765e-05
3.61578e-05
2.55797e-05
4.18882e-05
3.73492e-05
1.60593e-05
1.60942e-05
3.72892e-05
4.18978e-05
3.0878e-05
2.55834e-05
3.60776e-05
2.55853e-05
3.61368e-05
4.18819e-05
3.73466e-05
1.60541e-05
1.60893e-05
3.72867e-05
2.25319e-05
2.29163e-05
3.4116e-05
2.24843e-05
2.28757e-05
1.04589e-05
1.0445e-05
1.02387e-05
1.02569e-05
3.40994e-05
2.2469e-05
2.28656e-05
2.25207e-05
2.28948e-05
1.04411e-05
1.04527e-05
4.21967e-05
2.5032e-05
3.66866e-05
3.05588e-05
4.21879e-05
2.50321e-05
3.66359e-05
3.82643e-05
1.65061e-05
3.83055e-05
1.64821e-05
3.82639e-05
1.65035e-05
3.83056e-05
1.64787e-05
4.21772e-05
3.05676e-05
2.50299e-05
3.66132e-05
2.50326e-05
3.66533e-05
4.21641e-05
4.21783e-05
3.05481e-05
2.50282e-05
3.66069e-05
2.50323e-05
3.66486e-05
4.21651e-05
3.82737e-05
1.64741e-05
1.64941e-05
3.82421e-05
3.82733e-05
1.64699e-05
1.64909e-05
3.82415e-05
1.02677e-05
1.02512e-05
1.04564e-05
1.04362e-05
3.41041e-05
2.25063e-05
2.28219e-05
2.25498e-05
2.28589e-05
1.02446e-05
1.02635e-05
1.04325e-05
1.04441e-05
1.04369e-05
1.04295e-05
1.02708e-05
1.02539e-05
2.28796e-05
2.25357e-05
3.41114e-05
2.2852e-05
2.24947e-05
1.04314e-05
1.04367e-05
1.02512e-05
1.02669e-05
3.40923e-05
2.28505e-05
2.24869e-05
2.28752e-05
2.2528e-05
3.82032e-05
1.64593e-05
3.82245e-05
1.6446e-05
4.21051e-05
3.65898e-05
2.49561e-05
3.05574e-05
4.21046e-05
3.65654e-05
2.49532e-05
4.21016e-05
3.65759e-05
2.49542e-05
3.05559e-05
4.21016e-05
3.65495e-05
2.49512e-05
3.82238e-05
1.64646e-05
1.64733e-05
3.82192e-05
3.82179e-05
1.6453e-05
1.64619e-05
3.8213e-05
4.2095e-05
3.05565e-05
3.65684e-05
2.49542e-05
3.65861e-05
2.49533e-05
4.21088e-05
4.20912e-05
3.05545e-05
3.6553e-05
2.4952e-05
3.65698e-05
2.49512e-05
4.21043e-05
2.28327e-05
2.25424e-05
3.40785e-05
2.28054e-05
2.25018e-05
1.02638e-05
1.02469e-05
1.04219e-05
1.04268e-05
3.40589e-05
2.28066e-05
2.2496e-05
2.28291e-05
2.25354e-05
1.02448e-05
1.02599e-05
4.18521e-05
3.61551e-05
2.55838e-05
3.08995e-05
4.18614e-05
3.61161e-05
2.5578e-05
3.7266e-05
1.60763e-05
3.73161e-05
1.6045e-05
4.18419e-05
2.55787e-05
3.61043e-05
3.08796e-05
4.18512e-05
2.55728e-05
3.60632e-05
3.73041e-05
1.60603e-05
1.60913e-05
3.72655e-05
4.18304e-05
3.08993e-05
3.61126e-05
2.55777e-05
3.61532e-05
2.55784e-05
4.18552e-05
3.72982e-05
1.60398e-05
1.60709e-05
3.7259e-05
4.18202e-05
3.08796e-05
2.55723e-05
3.60593e-05
2.55732e-05
3.60986e-05
4.1845e-05
3.72702e-05
1.60851e-05
3.73194e-05
1.60542e-05
4.18405e-05
2.55821e-05
3.61068e-05
3.08565e-05
4.18492e-05
2.55739e-05
3.60658e-05
3.72679e-05
1.60799e-05
3.73169e-05
1.60485e-05
4.18252e-05
3.08665e-05
3.60853e-05
2.55698e-05
3.61253e-05
2.55703e-05
4.18511e-05
3.7303e-05
1.6049e-05
1.60801e-05
3.72638e-05
4.18193e-05
3.08574e-05
2.55725e-05
3.60589e-05
2.5574e-05
3.61017e-05
4.18459e-05
3.73009e-05
1.60425e-05
1.60743e-05
3.72618e-05
2.25018e-05
2.2887e-05
3.40778e-05
2.24597e-05
2.2859e-05
1.04479e-05
1.044e-05
1.02328e-05
1.02472e-05
3.40581e-05
2.24542e-05
2.28576e-05
2.24979e-05
2.2879e-05
1.04411e-05
1.0448e-05
4.21443e-05
2.50282e-05
3.66226e-05
3.05452e-05
4.21458e-05
2.50261e-05
3.65955e-05
3.82313e-05
1.64881e-05
3.82528e-05
1.64741e-05
3.82305e-05
1.64835e-05
3.82523e-05
1.64676e-05
4.21328e-05
3.0551e-05
2.50259e-05
3.66083e-05
2.5025e-05
3.66287e-05
4.21486e-05
4.21336e-05
3.05446e-05
2.50283e-05
3.65943e-05
2.50261e-05
3.66155e-05
4.21486e-05
3.82461e-05
1.64764e-05
1.64892e-05
3.82404e-05
3.82453e-05
1.64696e-05
1.64826e-05
3.8239e-05
1.02568e-05
1.02365e-05
1.04406e-05
1.04338e-05
3.40555e-05
2.24689e-05
2.28271e-05
2.25125e-05
2.28477e-05
1.02319e-05
1.02488e-05
1.04364e-05
1.04414e-05
1.04387e-05
1.04354e-05
1.02632e-05
1.0251e-05
2.28739e-05
2.25184e-05
3.41048e-05
2.28559e-05
2.24799e-05
1.04403e-05
1.04421e-05
1.02531e-05
1.02619e-05
3.40871e-05
2.28648e-05
2.24867e-05
2.28803e-05
2.25136e-05
3.82332e-05
1.64695e-05
3.82319e-05
1.64602e-05
4.21226e-05
3.6589e-05
2.49552e-05
3.05482e-05
4.21019e-05
3.65736e-05
2.49602e-05
4.21187e-05
3.65749e-05
2.49531e-05
3.05479e-05
4.20975e-05
3.65632e-05
2.49582e-05
3.82567e-05
1.64784e-05
1.64877e-05
3.82601e-05
3.82511e-05
1.64659e-05
1.64762e-05
3.82539e-05
4.21153e-05
3.05459e-05
3.65946e-05
2.4973e-05
3.65979e-05
2.49618e-05
4.21399e-05
4.21115e-05
3.05464e-05
3.65784e-05
2.49713e-05
3.65872e-05
2.496e-05
4.21358e-05
2.28301e-05
2.25287e-05
3.40808e-05
2.28176e-05
2.24889e-05
1.0257e-05
1.02473e-05
1.04291e-05
1.04313e-05
3.40601e-05
2.28179e-05
2.24998e-05
2.28385e-05
2.25258e-05
1.0248e-05
1.0258e-05
4.18498e-05
3.61395e-05
2.55807e-05
3.08904e-05
4.18431e-05
3.60849e-05
2.55829e-05
3.72415e-05
1.60654e-05
3.72911e-05
1.60366e-05
4.18394e-05
2.55755e-05
3.60871e-05
3.08702e-05
4.18329e-05
2.55771e-05
3.60329e-05
3.72786e-05
1.60594e-05
1.60839e-05
3.72503e-05
4.18175e-05
3.08859e-05
3.60982e-05
2.55928e-05
3.61196e-05
2.55851e-05
4.18269e-05
3.72716e-05
1.60386e-05
1.60633e-05
3.72421e-05
4.1807e-05
3.08667e-05
2.55861e-05
3.60436e-05
2.55794e-05
3.60661e-05
4.18159e-05
3.72444e-05
1.60746e-05
3.7295e-05
1.60459e-05
4.18401e-05
2.55765e-05
3.60854e-05
3.08543e-05
4.18338e-05
2.55809e-05
3.60314e-05
3.72421e-05
1.60681e-05
3.72928e-05
1.60387e-05
4.18124e-05
3.08551e-05
3.60702e-05
2.55848e-05
3.60919e-05
2.55781e-05
4.18177e-05
3.72741e-05
1.60485e-05
1.60728e-05
3.7241e-05
4.1807e-05
3.0864e-05
2.55915e-05
3.60408e-05
2.55828e-05
3.60651e-05
4.18123e-05
3.72718e-05
1.60405e-05
1.60655e-05
3.72387e-05
2.24862e-05
2.28801e-05
3.40735e-05
2.24476e-05
2.28581e-05
1.04475e-05
1.04428e-05
1.02341e-05
1.02429e-05
3.40526e-05
2.24537e-05
2.28662e-05
2.24863e-05
2.28792e-05
1.0447e-05
1.04508e-05
4.21594e-05
2.50237e-05
3.66144e-05
3.05335e-05
4.21417e-05
2.50272e-05
3.65944e-05
3.82533e-05
1.64919e-05
3.8258e-05
1.6482e-05
3.82518e-05
1.64855e-05
3.82567e-05
1.64755e-05
4.21508e-05
3.05412e-05
2.5043e-05
3.66231e-05
2.50332e-05
3.6627e-05
4.21691e-05
4.21503e-05
3.05216e-05
2.50342e-05
3.66091e-05
2.50268e-05
3.66175e-05
4.21687e-05
3.82698e-05
1.64886e-05
1.64985e-05
3.82712e-05
3.82684e-05
1.64824e-05
1.64923e-05
3.82698e-05
1.02444e-05
1.02359e-05
1.04437e-05
1.04348e-05
3.40544e-05
2.24825e-05
2.2825e-05
2.25077e-05
2.28453e-05
1.02367e-05
1.02468e-05
1.04377e-05
1.04424e-05
1.04426e-05
1.04467e-05
1.02625e-05
1.02537e-05
2.28857e-05
2.25199e-05
3.41081e-05
2.28793e-05
2.24906e-05
1.04521e-05
1.04392e-05
1.02579e-05
1.02605e-05
3.41162e-05
2.28826e-05
2.24948e-05
2.28767e-05