/*--------------------------------*- C++ -*----------------------------------*\
| =========                 |                                                 |
| \\      /  F ield         | OpenFOAM: The Open Source CFD Toolbox           |
|  \\    /   O peration     | Version:  2206                                  |
|   \\  /    A nd           | Website:  www.openfoam.com                      |
|    \\/     M anipulation  |                                                 |
\*---------------------------------------------------------------------------*/
FoamFile
{
    version     2.0;
    format      ascii;
    arch        "LSB;label=32;scalar=64";
    class       volVectorField;
    location    "0.5";
    object      wallShearStress;
}
// * * * * * * * * * * * * * * * * * * * * * * * * * * * * * * * * * * * * * //

dimensions      [0 2 -2 0 0 0 0];

internalField   uniform (0 0 0);

boundaryField
{
    topPatch
    {
        type            calculated;
        value           nonuniform List<vector> 0();
    }
    wall
    {
        type            calculated;
        value           nonuniform List<vector> 
7778
(
(2.90783e-06 -1.39163e-05 -0.000169706)
(3.67317e-06 -6.18069e-07 -0.00012334)
(-2.03877e-05 -8.51171e-06 -0.000177812)
(-4.43536e-06 3.0171e-06 -0.000122815)
(1.02563e-05 -1.05023e-05 -0.000191429)
(-2.75943e-06 -2.56443e-06 -0.000182775)
(1.60759e-05 4.0423e-06 -0.000161228)
(2.15215e-05 3.89583e-06 -0.000175793)
(2.75486e-06 1.00107e-05 -0.000144401)
(5.01113e-06 2.42229e-06 -0.000121924)
(2.58928e-06 1.62576e-05 -0.000165216)
(1.94126e-05 1.54129e-05 -0.000275505)
(-2.92807e-05 -7.23438e-06 -0.000266072)
(-2.93219e-05 -1.77892e-05 -0.000206144)
(-3.60995e-05 2.08183e-05 -0.000207638)
(-4.8484e-06 -2.98426e-06 -0.000337738)
(-9.22721e-06 -5.06517e-06 -0.000245474)
(2.81858e-06 8.76389e-06 -0.000196644)
(2.24848e-05 -2.4927e-05 -0.000233101)
(3.37709e-05 -5.32667e-06 -0.000243379)
(3.08247e-05 6.99887e-06 -0.000212283)
(3.37714e-05 -2.16899e-05 -0.000194028)
(-2.5233e-05 2.81631e-05 -0.000262282)
(-2.9943e-06 8.10277e-06 -0.000194027)
(4.32886e-07 2.00201e-05 -0.000182681)
(5.23585e-06 2.85589e-05 -0.000243284)
(2.1451e-05 1.61438e-05 -0.000237435)
(-8.74703e-07 1.43563e-05 -0.000143389)
(-6.56177e-06 6.68286e-06 -0.000170709)
(1.6391e-05 8.31742e-06 -0.000284109)
(2.67645e-05 -8.26015e-06 -0.000338679)
(-9.12145e-06 1.18249e-05 -0.000339436)
(1.20074e-05 2.92369e-05 -0.000256495)
(1.30249e-05 -1.14254e-05 -0.000153748)
(3.10667e-06 -3.06239e-06 -0.000173749)
(-3.35887e-05 1.81318e-05 -0.000258438)
(-1.02858e-05 1.72282e-05 -0.00028472)
(2.01103e-05 -1.85581e-05 -0.000255518)
(-5.3694e-06 -3.18939e-05 -0.000234197)
(1.11292e-05 2.02863e-06 -0.00019919)
(3.85007e-06 2.49509e-05 -0.000245397)
(1.86937e-05 7.31213e-06 -0.000158494)
(1.25293e-06 -1.49353e-05 -0.000155211)
(-1.2144e-05 2.7915e-05 -0.000181898)
(-1.0424e-07 7.93675e-06 -0.000163737)
(3.26652e-05 8.01557e-07 -0.000176889)
(6.96931e-06 2.03563e-05 -0.000183718)
(-5.90252e-06 4.4287e-06 -0.000166256)
(8.76593e-06 1.11783e-05 -0.000201079)
(1.01686e-06 3.30384e-06 -0.000187704)
(-6.82319e-06 -9.4e-06 -0.00019146)
(-1.43361e-05 2.19539e-05 -0.000149011)
(-1.71228e-05 1.62074e-05 -0.000180237)
(-8.1152e-06 -2.51433e-05 -0.0001799)
(1.96363e-05 -1.28948e-05 -0.000151081)
(7.6278e-06 -2.51267e-05 -0.000168442)
(-2.64622e-06 -1.46985e-07 -0.000127491)
(1.28451e-06 -8.18221e-06 -0.000130333)
(1.42339e-05 7.46606e-06 -0.000139027)
(2.13851e-05 2.16133e-05 -0.000154075)
(1.24674e-05 2.52213e-05 -0.000149163)
(1.25115e-05 -1.39845e-05 -0.000150286)
(7.42035e-07 4.36546e-06 -0.000124177)
(-5.23602e-06 7.93534e-06 -0.000175127)
(3.4638e-06 -6.6867e-06 -0.000124667)
(-4.28125e-06 5.96341e-06 -0.000164182)
(-5.35259e-06 -1.2499e-05 -0.000140871)
(8.07223e-06 -1.68454e-05 -0.000163635)
(-3.99961e-06 2.89948e-06 -0.000126108)
(-3.17212e-07 -1.83609e-05 -0.000153158)
(2.1272e-06 2.57178e-05 -0.000153541)
(2.72339e-05 2.58462e-06 -0.000147558)
(-1.48254e-06 2.25842e-05 -0.000160482)
(-2.03733e-05 1.166e-05 -0.000139239)
(1.90733e-05 -3.32137e-06 -0.000161436)
(-1.55691e-05 -1.31673e-09 -0.000161736)
(-2.24231e-05 -2.93691e-06 -0.000139697)
(7.32108e-06 -2.47843e-05 -0.000138681)
(-4.37349e-06 -2.3862e-05 -0.000145059)
(-1.44011e-05 -1.65e-05 -0.000143547)
(8.91867e-09 6.53324e-09 -0.000122594)
(-1.69505e-09 -2.84429e-09 -0.000117645)
(1.07763e-08 -1.41926e-09 -0.000117638)
(-9.3659e-09 -7.78447e-09 -0.000122536)
(-1.54522e-08 -5.97304e-09 -0.0001225)
(-2.68283e-09 -1.62143e-09 -0.000117635)
(4.15815e-09 -2.00776e-09 -0.000117568)
(1.69067e-09 7.96914e-09 -0.000122534)
(7.37226e-10 -2.85999e-09 -0.000122446)
(3.38323e-09 -5.13677e-09 -0.000117585)
(6.48221e-09 6.41071e-10 -0.000117608)
(3.81522e-09 -8.38285e-10 -0.000122497)
(-7.92039e-09 -2.04999e-09 -0.00012248)
(-2.47866e-09 -2.01928e-09 -0.000117639)
(3.72458e-09 -1.28198e-09 -0.000117571)
(1.0947e-09 6.65725e-09 -0.000122539)
(-4.8314e-10 -4.97535e-09 -0.00012245)
(-9.76232e-10 -3.24153e-09 -0.00011758)
(3.94786e-09 1.91975e-09 -0.000117613)
(7.99947e-09 1.59911e-09 -0.000122492)
(-2.83234e-09 1.14871e-09 -0.000122482)
(-2.76015e-09 -1.30421e-09 -0.000117645)
(3.66216e-09 -8.76224e-10 -0.00011758)
(9.67931e-10 6.37843e-09 -0.000122545)
(-2.69819e-10 -4.87775e-09 -0.000122459)
(-2.46838e-09 -2.73131e-09 -0.000117589)
(1.78823e-09 2.75757e-09 -0.000117619)
(8.84108e-09 2.13793e-09 -0.0001225)
(-4.47095e-09 -3.60265e-11 -0.000122492)
(-2.82291e-09 -1.07848e-09 -0.000117654)
(3.60186e-09 -8.72469e-10 -0.000117587)
(4.08766e-10 5.60039e-09 -0.000122553)
(-6.7639e-10 -5.29345e-09 -0.000122465)
(-3.28467e-09 -2.60341e-09 -0.000117592)
(-8.58912e-11 3.41134e-09 -0.000117619)
(9.71243e-09 2.23957e-09 -0.000122502)
(1.45477e-09 3.4576e-09 -0.000122494)
(-3.13865e-09 -1.10824e-09 -0.000117654)
(4.00073e-09 -1.69965e-09 -0.000117583)
(-1.93147e-10 4.84525e-09 -0.00012255)
(-1.49622e-10 -4.53662e-09 -0.000122464)
(-2.24686e-09 -3.12786e-09 -0.000117595)
(-2.34913e-09 4.54547e-09 -0.000117617)
(7.15189e-09 7.42674e-10 -0.000122497)
(8.36526e-10 3.19137e-09 -0.000122501)
(-3.46611e-09 -8.24848e-10 -0.00011765)
(5.18285e-09 -4.06703e-09 -0.000117576)
(-1.11735e-09 3.56496e-09 -0.000122538)
(2.33201e-09 -3.40599e-10 -0.000122465)
(5.41412e-10 -4.45222e-09 -0.000117602)
(-7.69319e-09 7.29952e-09 -0.000117611)
(2.34004e-09 -2.30325e-09 -0.000122486)
(1.46112e-08 1.14623e-08 -0.000122519)
(-3.966e-09 -5.16565e-10 -0.000117646)
(8.5313e-09 -1.10022e-08 -0.000117565)
(-3.14271e-09 7.81616e-10 -0.000122517)
(7.88531e-09 9.27043e-09 -0.000122477)
(1.5387e-08 -1.14203e-08 -0.000117616)
(-1.33284e-08 1.18468e-08 -0.000117578)
(-1.2454e-08 -1.19988e-08 -0.000122441)
(2.50252e-08 2.08475e-08 -0.00012257)
(-7.9499e-09 6.60835e-09 -0.000117648)
(1.28201e-08 -1.6518e-08 -0.000117526)
(-4.33663e-09 8.32246e-10 -0.000122473)
(1.19395e-08 1.09303e-08 -0.00012251)
(5.1333e-08 -2.80908e-08 -0.000117648)
(-2.4852e-08 1.66597e-08 -0.00011746)
(-8.54774e-08 -5.86545e-08 -0.000122198)
(1.3324e-07 8.49343e-08 -0.000122827)
(-1.57355e-08 2.22213e-08 -0.000117671)
(8.72979e-09 2.48827e-09 -0.000117409)
(-1.88881e-08 -1.87973e-08 -0.000122279)
(1.98673e-08 2.18833e-08 -0.0001227)
(2.14115e-08 -1.23738e-08 -0.000118028)
(1.08962e-07 -7.55533e-09 -0.000117266)
(-2.675e-07 -1.67097e-07 -0.000121521)
(3.77642e-07 2.57839e-07 -0.000124018)
(-2.29719e-08 2.67311e-08 -0.000117986)
(-1.04588e-08 9.63121e-08 -0.000117458)
(-7.93186e-08 -7.55763e-08 -0.000121514)
(2.90568e-07 4.20098e-07 -0.00012398)
(9.82529e-07 -3.602e-07 -0.000122218)
(6.00318e-07 4.81315e-07 -0.000102861)
(-1.5572e-06 -9.46968e-07 -0.000123321)
(7.34752e-07 4.62931e-07 -0.000117775)
(-1.94243e-07 4.84174e-07 -0.000122009)
(5.99803e-07 2.20691e-07 -0.000104201)
(-1.02238e-06 -1.92781e-06 -0.00012432)
(8.36907e-07 1.33096e-06 -0.000115942)
(1.71406e-05 2.7461e-05 -0.000135049)
(-5.90911e-07 -4.13407e-06 -0.000135805)
(2.7271e-05 1.86466e-05 -0.000134487)
(-2.57164e-06 3.67055e-06 -0.000129672)
(2.04348e-08 -8.21675e-09 -0.00012254)
(-1.52515e-08 5.00711e-09 -0.000122582)
(6.05309e-10 3.07211e-09 -0.000122453)
(-9.95304e-10 -3.02709e-09 -0.000122546)
(6.5061e-09 4.71524e-09 -0.000117737)
(-4.6516e-09 6.25419e-09 -0.000117676)
(-1.55603e-08 2.32254e-09 -0.000117679)
(4.06413e-09 5.97503e-09 -0.000117668)
(1.48947e-08 1.96188e-09 -0.00011767)
(2.0394e-09 9.5302e-09 -0.000122469)
(-2.12684e-08 -8.772e-09 -0.000122531)
(1.59125e-08 5.32127e-09 -0.00012257)
(-1.38661e-09 1.8093e-09 -0.000122457)
(1.21236e-09 -2.65778e-09 -0.00012255)
(3.24169e-09 -3.36247e-10 -0.000117566)
(-4.6683e-09 2.91799e-09 -0.000117643)
(3.25427e-09 2.51576e-10 -0.000117568)
(-5.16408e-09 -4.375e-09 -0.000117643)
(-2.683e-09 3.72099e-09 -0.00011758)
(-2.42204e-09 -4.44876e-09 -0.000117585)
(-3.66635e-09 -1.20699e-09 -0.000117567)
(4.33019e-09 2.03844e-09 -0.000117645)
(-3.54386e-09 7.59214e-10 -0.000117571)
(4.5706e-09 -2.52139e-09 -0.000117649)
(-1.23766e-11 -4.19762e-09 -0.000122451)
(-3.53383e-09 -1.75534e-09 -0.000122534)
(1.86414e-08 7.19467e-09 -0.000122556)
(-1.8846e-08 -6.96148e-09 -0.000122607)
(-5.48875e-09 -6.54373e-09 -0.000117687)
(-1.7363e-08 -2.91403e-09 -0.000117695)
(3.94069e-09 -6.00644e-09 -0.000117681)
(1.69563e-08 -2.91085e-09 -0.000117687)
(2.91548e-09 -1.11468e-08 -0.000122469)
(9.59847e-09 -7.07916e-09 -0.000122614)
(-1.10427e-09 -2.53195e-09 -0.000122456)
(5.99173e-10 3.88921e-09 -0.000122547)
(-2.15783e-08 9.04505e-09 -0.000122549)
(1.7128e-08 -6.08519e-09 -0.000122596)
(8.88909e-09 -7.38286e-09 -0.000122548)
(1.84528e-08 -7.83233e-09 -0.000122512)
(2.20531e-09 -8.38687e-09 -0.000122541)
(1.21335e-09 2.34211e-09 -0.000122456)
(1.17757e-08 -4.14152e-09 -0.000122497)
(2.13558e-09 -3.95149e-09 -0.000122521)
(6.87037e-10 3.24565e-09 -0.000122458)
(2.42835e-09 -8.67275e-09 -0.000122543)
(1.06029e-09 -3.1578e-09 -0.000117636)
(-8.51351e-09 -5.30505e-10 -0.000117631)
(9.59972e-09 -5.91506e-10 -0.000117616)
(5.80829e-09 -6.41815e-09 -0.000117601)
(-1.05796e-08 -1.0573e-09 -0.000117608)
(-4.02076e-09 -5.70329e-09 -0.000117594)
(-2.72607e-09 -9.04927e-09 -0.000122546)
(4.23442e-10 4.87357e-09 -0.000122462)
(-1.27385e-08 -4.83954e-09 -0.000122487)
(3.40787e-10 -2.56172e-09 -0.000122513)
(-1.40566e-09 2.14928e-09 -0.000122463)
(-9.76735e-10 -6.17663e-09 -0.000122546)
(-3.27366e-09 2.49114e-10 -0.000117637)
(3.3938e-09 3.04509e-10 -0.000117568)
(3.8978e-09 -1.63805e-09 -0.00011757)
(-2.16489e-09 -2.7108e-09 -0.000117638)
(3.74449e-09 1.00145e-09 -0.000117572)
(-2.78505e-09 1.04276e-09 -0.000117637)
(2.18317e-09 -2.67009e-09 -0.000117637)
(-3.17125e-09 2.54973e-10 -0.000117571)
(2.39543e-09 2.10302e-09 -0.000117642)
(-1.61945e-09 -4.31131e-09 -0.000117575)
(-4.37411e-09 -2.77049e-09 -0.000117572)
(2.83282e-09 -1.09142e-09 -0.00011764)
(-2.81052e-09 -1.18865e-09 -0.000117574)
(4.02223e-09 -2.02123e-09 -0.000117642)
(7.20665e-09 6.31658e-09 -0.000122563)
(1.68526e-08 6.81584e-09 -0.000122534)
(-1.09972e-10 -4.69498e-09 -0.000122455)
(-2.46367e-10 3.85296e-09 -0.000122529)
(9.84175e-09 3.00677e-09 -0.000122513)
(-3.30074e-09 1.17134e-09 -0.000122542)
(-4.28514e-09 1.82746e-09 -0.000117655)
(8.30125e-09 3.2034e-10 -0.000117653)
(2.17724e-09 2.64405e-09 -0.00011765)
(-6.27404e-09 -4.29386e-10 -0.000117643)
(8.26171e-09 1.00794e-10 -0.000117628)
(3.20114e-09 5.45598e-09 -0.000117613)
(-7.11768e-09 -5.05454e-10 -0.000117623)
(-1.01507e-09 4.46927e-09 -0.000117607)
(-3.26792e-09 9.93412e-09 -0.000122544)
(2.63496e-09 -8.74021e-09 -0.000122462)
(-9.24045e-09 7.67369e-09 -0.000122556)
(-1.37314e-08 4.96462e-09 -0.000122516)
(1.18811e-09 -6.36667e-09 -0.00012246)
(-5.51813e-10 5.48368e-09 -0.000122543)
(-1.00645e-08 3.01729e-09 -0.000122504)
(7.13574e-10 2.30626e-09 -0.000122531)
(-3.89031e-09 -6.87317e-10 -0.000122509)
(7.69525e-09 -1.99693e-09 -0.00012249)
(1.77068e-09 -7.59836e-09 -0.000122546)
(2.93576e-10 3.82304e-09 -0.00012246)
(6.25156e-09 -9.61589e-10 -0.000122489)
(-7.29323e-09 1.16303e-09 -0.000122502)
(2.63608e-10 4.14084e-09 -0.000122464)
(1.51451e-09 -7.12914e-09 -0.000122548)
(-4.25819e-09 -5.53313e-09 -0.000117576)
(-6.73581e-09 6.6331e-10 -0.000117601)
(4.76432e-09 1.56166e-09 -0.000117608)
(4.36408e-10 -3.98389e-09 -0.000117579)
(-5.10306e-09 1.46106e-09 -0.000117601)
(-5.45899e-10 -3.90201e-09 -0.00011757)
(-2.03196e-09 -7.91298e-09 -0.000122552)
(-7.42125e-10 3.14943e-09 -0.000122465)
(-6.88498e-09 -1.44089e-09 -0.000122481)
(8.51972e-09 1.83624e-09 -0.000122491)
(-9.58616e-10 2.8613e-09 -0.000122468)
(-1.29681e-09 -6.6046e-09 -0.000122553)
(-3.31198e-09 1.28184e-10 -0.000117641)
(2.865e-09 -8.24167e-10 -0.00011757)
(3.67333e-09 -8.55254e-10 -0.000117575)
(-2.53553e-09 -1.80281e-09 -0.000117641)
(3.55728e-09 5.36487e-10 -0.000117577)
(-3.25665e-09 -7.33582e-11 -0.00011764)
(1.96763e-09 -3.27849e-09 -0.000117642)
(-4.10164e-09 -2.01464e-09 -0.000117574)
(2.80197e-09 1.19583e-09 -0.000117643)
(-3.75472e-09 1.44825e-09 -0.000117576)
(-3.9106e-09 -1.46725e-09 -0.000117577)
(2.25942e-09 -2.43753e-09 -0.000117643)
(-4.11124e-09 1.64617e-09 -0.000117582)
(2.356e-09 2.47643e-09 -0.000117646)
(-6.37324e-09 -8.04832e-10 -0.000122524)
(5.6562e-09 6.93236e-10 -0.000122511)
(-4.08728e-10 -5.31833e-09 -0.00012246)
(-1.35841e-09 1.8622e-09 -0.000122533)
(4.33403e-09 -1.72172e-10 -0.000122504)
(-1.30651e-08 -4.22875e-09 -0.000122523)
(2.37312e-11 3.87549e-09 -0.000117595)
(3.31325e-09 -2.11493e-09 -0.000117622)
(-7.19511e-10 4.17041e-09 -0.000117592)
(-5.70351e-09 -1.14212e-09 -0.000117613)
(2.94846e-09 -2.41248e-09 -0.00011762)
(-2.82403e-09 2.68541e-09 -0.00011759)
(-3.71149e-09 -2.01405e-09 -0.000117613)
(2.51482e-09 2.74362e-09 -0.000117583)
(-1.26802e-09 6.73028e-09 -0.000122546)
(5.85271e-10 -5.52866e-09 -0.000122463)
(5.77209e-09 -3.55273e-10 -0.00012252)
(-6.28221e-09 1.13042e-09 -0.000122493)
(-4.56876e-10 -3.96285e-09 -0.000122466)
(-1.52793e-09 7.14651e-09 -0.000122548)
(-5.18185e-09 5.18442e-10 -0.000122496)
(1.12888e-08 -3.51155e-09 -0.000122511)
(-8.38858e-09 1.94815e-09 -0.000122503)
(5.97908e-09 -7.51175e-10 -0.000122494)
(1.40471e-09 -6.89508e-09 -0.000122552)
(2.20257e-10 4.03122e-09 -0.00012247)
(5.11653e-09 -3.47279e-10 -0.000122499)
(-8.43461e-09 2.03145e-09 -0.000122508)
(6.96665e-11 4.51552e-09 -0.000122475)
(1.22761e-09 -6.71857e-09 -0.000122557)
(3.5045e-10 -3.50655e-09 -0.000117573)
(-1.70373e-09 2.77718e-09 -0.000117605)
(2.71232e-09 2.39751e-09 -0.000117617)
(-1.63436e-09 -2.98555e-09 -0.000117585)
(-3.93547e-09 1.86335e-09 -0.000117609)
(3.5461e-09 -2.2802e-09 -0.000117578)
(-1.90011e-09 -7.52498e-09 -0.000122558)
(1.26107e-09 6.49779e-09 -0.000122477)
(-6.16056e-09 -9.95046e-10 -0.000122489)
(1.10218e-08 3.54606e-09 -0.0001225)
(-6.87121e-10 3.43812e-09 -0.000122479)
(9.57576e-11 -4.35771e-09 -0.000122559)
(-3.40244e-09 -2.7853e-10 -0.000117646)
(2.97555e-09 -9.14767e-10 -0.000117579)
(3.65943e-09 -7.98591e-10 -0.000117585)
(-2.74344e-09 -1.35585e-09 -0.00011765)
(3.38561e-09 4.23054e-10 -0.000117587)
(-3.25597e-09 -1.18416e-10 -0.000117649)
(2.30682e-09 -2.24387e-09 -0.000117648)
(-2.75339e-09 1.55749e-09 -0.000117584)
(2.27405e-09 2.24859e-09 -0.000117653)
(-1.35031e-09 -4.94793e-09 -0.000117589)
(-4.03494e-09 -1.85086e-09 -0.000117587)
(3.44658e-09 4.21469e-10 -0.000117652)
(-2.53878e-09 -1.71208e-09 -0.000117589)
(4.3242e-09 -2.84667e-09 -0.000117656)
(-1.04746e-08 -3.24271e-09 -0.000122518)
(4.51317e-09 -2.42923e-10 -0.000122516)
(-6.93821e-10 -5.77159e-09 -0.00012247)
(-1.39626e-09 1.69565e-09 -0.000122542)
(3.47214e-09 -6.70291e-10 -0.000122515)
(-1.35591e-08 -4.71956e-09 -0.00012253)
(-4.20082e-09 1.95166e-09 -0.00011759)
(1.28168e-09 -3.15359e-09 -0.000117628)
(3.58207e-09 2.30028e-09 -0.000117584)
(2.07118e-09 -4.31725e-09 -0.000117617)
(1.22638e-09 -3.12889e-09 -0.000117631)
(-4.0987e-09 2.03199e-09 -0.000117598)
(2.00393e-10 -3.67535e-09 -0.000117625)
(7.45142e-09 6.48548e-10 -0.000117591)
(-2.36729e-09 8.30851e-09 -0.000122554)
(3.7264e-09 -1.07756e-08 -0.000122474)
(1.05071e-08 -2.99944e-09 -0.000122512)
(5.64143e-10 -3.08893e-09 -0.0001225)
(1.81614e-09 -7.63129e-09 -0.000122472)
(4.97535e-10 3.60369e-09 -0.000122554)
(-2.47521e-09 -1.38155e-09 -0.000122511)
(1.27242e-08 -4.50337e-09 -0.000122521)
(-8.97895e-09 2.25625e-09 -0.000122512)
(4.21366e-09 1.74556e-10 -0.000122502)
(1.0271e-09 -6.20561e-09 -0.00012256)
(1.07288e-10 4.28485e-09 -0.000122476)
(3.25834e-09 6.07626e-10 -0.000122504)
(-9.44773e-09 2.37051e-09 -0.000122514)
(2.91251e-10 3.89915e-09 -0.000122476)
(7.35592e-10 -6.03954e-09 -0.00012256)
(1.26986e-09 -3.2387e-09 -0.00011758)
(-2.08955e-09 2.57352e-09 -0.000117611)
(8.26158e-10 3.01565e-09 -0.000117619)
(-3.07301e-09 -2.6021e-09 -0.000117591)
(-9.79019e-10 2.93004e-09 -0.000117611)
(2.80778e-09 -2.69426e-09 -0.000117583)
(-1.19395e-09 -6.48978e-09 -0.000122565)
(-3.8264e-10 3.71471e-09 -0.00012248)
(-3.77746e-09 3.02486e-10 -0.000122494)
(1.04468e-08 2.93283e-09 -0.000122503)
(-8.88106e-10 2.84222e-09 -0.000122479)
(-3.34504e-10 -5.38109e-09 -0.000122564)
(-3.65314e-09 -5.46947e-10 -0.000117656)
(2.69803e-09 -1.23829e-09 -0.000117586)
(3.63849e-09 -1.06264e-09 -0.000117586)
(-3.04457e-09 -1.10063e-09 -0.000117655)
(3.4051e-09 5.35787e-10 -0.000117588)
(-3.79597e-09 -8.13652e-10 -0.000117654)
(2.43412e-09 -2.29121e-09 -0.000117657)
(-3.85763e-09 -1.50395e-09 -0.000117589)
(3.22824e-09 4.56105e-10 -0.000117658)
(-3.57586e-09 1.09685e-09 -0.000117592)
(-3.82979e-09 -1.69879e-09 -0.000117588)
(2.80459e-09 -1.65454e-09 -0.000117657)
(-3.68751e-09 1.00294e-09 -0.000117592)
(2.89754e-09 1.61898e-09 -0.00011766)
(-1.09195e-08 -3.45364e-09 -0.000122529)
(2.56155e-09 -1.08638e-09 -0.000122524)
(-7.35026e-10 -5.7073e-09 -0.000122471)
(-2.15977e-09 8.37751e-10 -0.000122545)
(2.00131e-09 -1.38449e-09 -0.000122519)
(-1.43895e-08 -4.92529e-09 -0.000122536)
(-5.57297e-09 1.42542e-09 -0.000117601)
(-1.02822e-09 -3.86523e-09 -0.000117635)
(5.0959e-09 1.66507e-09 -0.000117598)
(-1.26675e-09 -2.81644e-09 -0.000117623)
(-4.58657e-10 -3.64325e-09 -0.000117632)
(-5.34824e-09 1.69691e-09 -0.000117605)
(-4.78e-10 -3.2222e-09 -0.000117623)
(5.23179e-09 1.75976e-09 -0.000117596)
(-3.29459e-10 5.10482e-09 -0.000122555)
(1.04049e-09 -6.15494e-09 -0.000122474)
(1.13814e-08 -3.57628e-09 -0.000122528)
(-2.61912e-09 -9.91769e-10 -0.000122509)
(3.39839e-10 -5.28133e-09 -0.000122473)
(-4.71774e-10 5.72021e-09 -0.000122555)
(-2.57766e-09 -9.73417e-10 -0.000122513)
(1.29162e-08 -4.43957e-09 -0.000122526)
(-9.47671e-09 2.31608e-09 -0.000122514)
(2.46004e-09 1.11197e-09 -0.000122506)
(5.9068e-10 -5.97893e-09 -0.000122557)
(7.80443e-10 3.22521e-09 -0.000122476)
(1.49019e-09 1.77799e-09 -0.000122508)
(-8.68191e-09 1.78633e-09 -0.000122513)
(1.45999e-09 1.99458e-09 -0.000122476)
(1.76707e-10 -5.38114e-09 -0.000122553)
(3.2079e-09 -2.626e-09 -0.000117584)
(3.20318e-09 4.6286e-09 -0.000117611)
(-7.94762e-10 3.82856e-09 -0.000117618)
(-3.13679e-09 -2.7077e-09 -0.000117593)
(1.92461e-10 3.609e-09 -0.000117609)
(5.35931e-09 -1.84953e-09 -0.000117586)
(-1.06528e-09 -6.67229e-09 -0.000122562)
(5.82892e-10 5.33294e-09 -0.000122483)
(-2.02522e-09 1.33743e-09 -0.000122497)
(1.16974e-08 3.5416e-09 -0.000122505)
(-2.1413e-09 1.04566e-09 -0.00012248)
(1.34352e-09 -2.67473e-09 -0.000122556)
(-3.82403e-09 -7.00497e-10 -0.000117656)
(2.90656e-09 -7.98414e-10 -0.000117583)
(4.29585e-09 -2.4447e-09 -0.00011758)
(-3.20525e-09 -1.07836e-09 -0.000117652)
(3.97184e-09 1.41176e-09 -0.000117581)
(-4.04927e-09 -1.215e-09 -0.000117651)
(2.71543e-09 -2.15903e-09 -0.000117657)
(-3.21551e-09 2.82074e-10 -0.000117587)
(3.251e-09 7.63516e-10 -0.000117661)
(-1.22336e-09 -5.27497e-09 -0.00011759)
(-4.72429e-09 -3.55111e-09 -0.000117582)
(3.79429e-09 4.75089e-10 -0.000117654)
(-3.13569e-09 -5.60599e-10 -0.000117582)
(5.31619e-09 -4.14876e-09 -0.000117656)
(-1.0691e-08 -3.1045e-09 -0.000122529)
(1.17374e-09 -2.03041e-09 -0.000122527)
(5.32877e-10 -3.72215e-09 -0.000122469)
(-2.80012e-09 -6.32384e-11 -0.000122538)
(3.17562e-10 -2.54386e-09 -0.000122521)
(-1.30005e-08 -4.01824e-09 -0.000122534)
(-5.84471e-09 1.46696e-09 -0.000117604)
(-2.17436e-09 -4.39943e-09 -0.000117633)
(5.00081e-09 1.90504e-09 -0.000117596)
(5.40164e-09 -5.55527e-09 -0.000117621)
(-1.55324e-09 -4.19889e-09 -0.000117629)
(-4.61998e-09 2.12081e-09 -0.000117606)
(4.04087e-09 -5.15303e-09 -0.000117622)
(8.00649e-09 8.01997e-10 -0.000117597)
(-6.36913e-10 5.84509e-09 -0.000122555)
(3.88401e-09 -1.11381e-08 -0.000122473)
(1.10863e-08 -3.14842e-09 -0.000122525)
(3.60248e-09 -4.79617e-09 -0.000122512)
(5.574e-10 -5.23835e-09 -0.000122466)
(2.29244e-09 1.15436e-09 -0.000122544)
(1.88711e-09 -3.90373e-09 -0.000122519)
(1.25473e-08 -4.07476e-09 -0.000122527)
(-6.95434e-09 7.0971e-10 -0.00012251)
(-6.53406e-10 3.04923e-09 -0.000122513)
(-5.06571e-10 -4.49877e-09 -0.000122547)
(3.12061e-09 -5.20669e-10 -0.000122477)
(-4.4995e-09 5.42777e-09 -0.000122521)
(-4.39048e-09 -8.84502e-10 -0.000122506)
(5.68494e-09 -4.95011e-09 -0.000122483)
(-1.477e-09 -3.06484e-09 -0.000122538)
(1.62106e-09 -3.30269e-09 -0.000117585)
(2.54383e-09 4.77534e-09 -0.000117608)
(-4.82291e-09 5.7736e-09 -0.000117616)
(-1.34023e-09 -3.61819e-09 -0.000117598)
(5.93036e-09 6.24938e-09 -0.000117607)
(1.89354e-09 -3.35127e-09 -0.000117589)
(3.7203e-10 -4.63436e-09 -0.000122552)
(-3.37118e-09 -1.00591e-09 -0.000122481)
(5.11327e-09 5.60876e-09 -0.00012251)
(6.32148e-09 9.82146e-11 -0.000122494)
(-6.22784e-09 -5.8144e-09 -0.000122485)
(1.89276e-09 -2.14764e-09 -0.000122541)
(-4.22571e-09 -1.18786e-09 -0.00011765)
(4.29277e-09 2.14737e-09 -0.000117575)
(6.59655e-09 -7.21664e-09 -0.000117572)
(-3.639e-09 -7.9221e-10 -0.000117647)
(6.30903e-09 6.42131e-09 -0.000117571)
(-4.18784e-09 -8.52476e-10 -0.000117646)
(3.07557e-09 -1.88375e-09 -0.000117651)
(-5.3763e-09 -4.81945e-09 -0.000117577)
(3.92418e-09 -3.57847e-10 -0.000117651)
(-5.09022e-09 3.84146e-09 -0.000117578)
(-6.80656e-09 -7.62066e-09 -0.000117572)
(3.38467e-09 -1.17212e-09 -0.000117648)
(-6.18759e-09 6.23466e-09 -0.000117572)
(3.65037e-09 6.5955e-10 -0.000117649)
(-8.26496e-09 -1.6071e-09 -0.000122524)
(-2.25739e-09 -4.06841e-09 -0.000122532)
(4.83118e-09 3.64651e-09 -0.000122474)
(-4.21044e-09 -1.86281e-09 -0.000122523)
(-4.82336e-09 -5.66405e-09 -0.000122531)
(-8.95955e-09 -1.53698e-09 -0.000122525)
(-4.43552e-09 2.18435e-09 -0.000117605)
(-4.42255e-09 -5.4876e-09 -0.00011763)
(4.88316e-09 1.99373e-09 -0.000117601)
(3.19103e-09 -4.94909e-09 -0.000117619)
(-5.12052e-09 -5.99974e-09 -0.000117624)
(-3.24291e-09 2.7885e-09 -0.00011761)
(5.50655e-09 -6.05731e-09 -0.000117616)
(3.87578e-09 2.47936e-09 -0.000117601)
(1.31276e-09 3.20691e-09 -0.000122535)
(-1.95022e-09 -1.31248e-09 -0.000122469)
(9.72444e-09 -2.39262e-09 -0.000122526)
(2.50309e-09 -4.12945e-09 -0.00012252)
(-4.83595e-09 3.38111e-09 -0.000122472)
(1.95808e-09 2.49691e-09 -0.000122527)
(5.06596e-09 -5.54926e-09 -0.000122529)
(8.53392e-09 -1.60161e-09 -0.000122518)
(-1.93151e-10 -3.49998e-09 -0.000122497)
(-1.03997e-08 9.12396e-09 -0.000122534)
(-3.51227e-09 -8.18216e-11 -0.000122525)
(1.00476e-08 -1.19186e-08 -0.000122494)
(-1.93894e-08 1.50134e-08 -0.000122554)
(8.99494e-09 -9.07328e-09 -0.000122481)
(1.59116e-08 -2.15005e-08 -0.000122511)
(-7.48486e-09 6.30444e-09 -0.000122506)
(1.56997e-09 -3.5869e-09 -0.000117595)
(1.14318e-08 8.76628e-09 -0.000117601)
(-1.11015e-08 9.3655e-09 -0.000117599)
(5.50035e-09 -6.79455e-09 -0.000117609)
(9.191e-09 8.83048e-09 -0.000117587)
(8.03298e-10 -4.24103e-09 -0.000117603)
(2.88357e-09 -7.64103e-10 -0.000122529)
(-7.25493e-09 -7.42334e-09 -0.000122496)
(1.44027e-08 1.19919e-08 -0.000122534)
(-1.3086e-09 -4.50823e-09 -0.000122477)
(-1.19598e-08 -1.4704e-08 -0.000122507)
(8.30878e-09 8.38184e-09 -0.000122508)
(-4.15101e-09 -4.28824e-12 -0.000117646)
(7.27128e-09 8.29591e-09 -0.000117561)
(1.06018e-08 -1.45478e-08 -0.000117553)
(-5.35601e-09 1.88772e-09 -0.000117646)
(8.48308e-09 8.84307e-09 -0.000117547)
(-3.98548e-09 1.03172e-09 -0.000117646)
(3.6203e-09 -1.08194e-09 -0.000117647)
(-7.33973e-09 -7.92192e-09 -0.000117565)
(4.06473e-09 1.36875e-11 -0.00011765)
(-4.7915e-09 2.45076e-09 -0.000117561)
(-8.94648e-09 -1.08849e-08 -0.000117547)
(5.36697e-09 2.39926e-09 -0.000117645)
(-5.02741e-09 1.32387e-09 -0.000117536)
(5.09028e-09 -1.94307e-09 -0.000117648)
(-1.57536e-09 2.33772e-09 -0.000122512)
(-8.02778e-09 -7.51644e-09 -0.000122545)
(9.27074e-09 1.01638e-08 -0.00012249)
(-6.32869e-09 -4.89874e-09 -0.000122495)
(-4.35042e-09 -6.19296e-09 -0.000122548)
(6.64298e-10 4.15094e-09 -0.000122505)
(-2.11871e-09 3.23074e-09 -0.000117613)
(-6.06261e-09 -6.65888e-09 -0.00011762)
(2.66615e-09 3.13618e-09 -0.000117604)
(1.1946e-08 -8.89175e-09 -0.000117606)
(-9.52486e-10 -5.42882e-09 -0.000117603)
(1.33518e-09 5.01991e-09 -0.000117621)
(4.35532e-09 -6.62955e-09 -0.000117593)
(5.92987e-09 1.99427e-09 -0.000117612)
(3.04855e-09 4.52789e-10 -0.000122516)
(-3.11197e-09 1.21851e-09 -0.000122474)
(2.8073e-09 1.92438e-09 -0.000122509)
(1.39991e-08 -1.0903e-08 -0.000122531)
(-3.29461e-09 1.98023e-09 -0.000122466)
(5.96344e-09 -4.77289e-09 -0.000122496)
(5.36633e-09 -6.09655e-09 -0.000122538)
(2.13085e-09 1.95967e-09 -0.0001225)
(2.56206e-08 -1.9239e-08 -0.00012245)
(-3.27065e-08 2.42814e-08 -0.000122588)
(-1.42892e-08 1.6986e-08 -0.000122475)
(2.40956e-08 -3.38706e-08 -0.000122537)
(-4.85414e-08 3.66928e-08 -0.000122661)
(5.08151e-08 -3.49178e-08 -0.000122386)
(3.5094e-08 -4.82799e-08 -0.000122582)
(-2.43682e-08 3.20549e-08 -0.000122418)
(-7.20361e-09 -8.29101e-09 -0.000117605)
(1.65993e-08 1.34931e-08 -0.000117568)
(-1.90078e-08 1.68025e-08 -0.000117544)
(3.05203e-08 -1.88706e-08 -0.000117624)
(4.16408e-08 2.54107e-08 -0.000117535)
(-2.10089e-08 -1.56281e-08 -0.000117605)
(1.06808e-08 1.08515e-08 -0.00012248)
(-1.53721e-08 -1.79652e-08 -0.000122523)
(6.47813e-08 4.66736e-08 -0.000122656)
(-3.03307e-08 -2.55924e-08 -0.000122366)
(-2.43894e-08 -3.03368e-08 -0.000122551)
(2.02278e-08 2.41168e-08 -0.000122415)
(-4.13758e-09 3.49264e-09 -0.000117649)
(1.00222e-08 8.61222e-09 -0.00011752)
(1.42144e-08 -1.51491e-08 -0.000117475)
(-1.15636e-08 1.20354e-08 -0.000117653)
(1.70606e-08 2.47083e-08 -0.000117466)
(-6.44572e-09 1.59724e-09 -0.000117646)
(6.69288e-09 3.1848e-09 -0.000117644)
(-9.44653e-09 -8.39098e-09 -0.000117515)
(6.88853e-10 1.16041e-08 -0.000117647)
(-3.84303e-10 -1.62338e-08 -0.000117501)
(-1.07972e-08 -6.84399e-09 -0.000117454)
(1.13659e-08 1.15625e-08 -0.000117639)
(-4.85443e-10 -2.24227e-08 -0.000117455)
(-4.42723e-09 3.02231e-08 -0.000117638)
(7.11253e-09 8.17031e-09 -0.000122476)
(2.06907e-09 -5.35759e-09 -0.00012258)
(2.42503e-08 2.88518e-08 -0.000122566)
(-1.02437e-08 -4.12585e-09 -0.000122403)
(-1.33425e-08 -1.7131e-08 -0.000122623)
(1.3093e-08 1.56942e-08 -0.000122416)
(3.88961e-09 6.86823e-09 -0.000117626)
(2.51199e-09 -5.61784e-09 -0.000117582)
(7.93937e-09 2.22828e-09 -0.000117621)
(-1.4199e-08 -1.03043e-09 -0.000117559)
(-2.7933e-09 -9.17392e-09 -0.000117532)
(1.92205e-08 1.47372e-08 -0.000117625)
(-2.84589e-08 2.75093e-09 -0.000117519)
(1.71665e-08 2.11834e-10 -0.000117615)
(-1.5748e-09 8.59255e-09 -0.000122474)
(1.24969e-08 -2.94754e-08 -0.000122463)
(5.8357e-09 1.51968e-10 -0.000122485)
(-2.2472e-08 7.73302e-09 -0.000122538)
(2.75595e-08 -7.16026e-08 -0.000122499)
(-1.94577e-08 4.71249e-08 -0.000122429)
(-6.03872e-08 2.38174e-08 -0.000122573)
(3.14861e-08 -1.11455e-08 -0.000122436)
(8.98892e-08 -5.96313e-08 -0.000122252)
(-9.85319e-08 6.54975e-08 -0.000122803)
(-4.40537e-08 6.43699e-08 -0.000122316)
(4.47656e-08 -6.32456e-08 -0.000122683)
(-1.36392e-07 8.51777e-08 -0.000123079)
(1.88237e-07 -1.10209e-07 -0.000122064)
(4.25958e-08 -3.297e-08 -0.000123055)
(-6.76626e-08 1.09167e-07 -0.000122144)
(-4.38406e-08 -2.56526e-08 -0.000117608)
(5.95487e-08 3.42461e-08 -0.00011746)
(9.35681e-08 -2.68541e-08 -0.000117354)
(7.90217e-08 -3.11387e-08 -0.000117753)
(5.24403e-08 2.85698e-08 -0.000117299)
(-4.14918e-08 -2.19861e-08 -0.000117692)
(4.04191e-08 5.94921e-08 -0.000122309)
(-1.91182e-08 -1.76897e-08 -0.000122622)
(1.87462e-07 1.23129e-07 -0.000123177)
(-1.55582e-07 -9.44873e-08 -0.000121943)
(-3.23516e-08 -5.23474e-11 -0.000122973)
(5.32049e-08 7.79742e-08 -0.000122128)
(-8.99992e-09 -5.88224e-09 -0.000117655)
(1.61437e-08 1.53088e-08 -0.000117385)
(-6.13661e-09 6.58884e-08 -0.000117384)
(-1.36291e-08 2.13989e-08 -0.000117755)
(2.60855e-08 3.65404e-08 -0.000117239)
(-2.09194e-09 1.33245e-08 -0.000117752)
(1.78804e-08 2.60339e-08 -0.000117639)
(-5.91085e-09 1.58189e-08 -0.000117381)
(1.30611e-09 1.80569e-08 -0.00011762)
(-1.56127e-08 2.02201e-08 -0.000117365)
(-1.71937e-08 1.59718e-09 -0.000117272)
(2.62911e-08 4.13745e-08 -0.000117691)
(-4.7062e-08 9.10325e-08 -0.0001171)
(2.4171e-08 -4.96214e-08 -0.000117661)
(6.58116e-08 4.56054e-08 -0.000122277)
(-3.44615e-08 -2.80252e-08 -0.00012272)
(6.97984e-08 6.43002e-08 -0.000123108)
(-1.29724e-08 -5.0448e-09 -0.000122024)
(-1.51663e-07 -1.10492e-07 -0.000122865)
(1.44941e-07 8.93379e-08 -0.000122097)
(3.92081e-08 2.31911e-08 -0.000117623)
(3.26413e-08 1.96973e-09 -0.000117429)
(3.45655e-08 -5.13763e-09 -0.000117597)
(-6.48834e-08 1.31504e-08 -0.000117448)
(4.06436e-08 1.06262e-08 -0.000117169)
(4.2832e-08 2.40394e-08 -0.000117698)
(-1.15111e-07 2.8881e-08 -0.000117304)
(7.74393e-08 -2.04319e-08 -0.000117587)
(-2.45589e-08 7.28066e-08 -0.000122296)
(-5.68617e-09 -2.2677e-08 -0.000122635)
(5.63176e-08 -1.94412e-08 -0.000122313)
(-9.9395e-08 4.0047e-08 -0.000122669)
(-1.17773e-07 1.67224e-07 -0.000122987)
(4.05593e-08 -3.8215e-08 -0.000121989)
(-9.35572e-08 2.4215e-08 -0.000122868)
(7.21998e-08 -2.47513e-08 -0.000122076)
(2.98956e-07 -1.74098e-07 -0.000121815)
(-3.06413e-07 2.3559e-07 -0.000123639)
(-1.08241e-07 1.47393e-07 -0.000121763)
(2.33375e-07 -3.07068e-07 -0.000123992)
(-1.51843e-06 8.85583e-07 -0.000124328)
(9.49261e-07 -5.66711e-07 -0.000121849)
(6.82306e-07 -1.0959e-06 -0.000125338)
(-4.7838e-07 8.08758e-07 -0.000121399)
(-7.87376e-08 -2.58345e-08 -0.000118008)
(1.63582e-07 7.00897e-08 -0.000117056)
(-1.07081e-07 9.66014e-08 -0.000117384)
(4.44265e-07 -1.78577e-07 -0.000118765)
(1.10393e-07 1.00388e-07 -0.000117103)