/*--------------------------------*- C++ -*----------------------------------*\
| =========                 |                                                 |
| \\      /  F ield         | OpenFOAM: The Open Source CFD Toolbox           |
|  \\    /   O peration     | Version:  2206                                  |
|   \\  /    A nd           | Website:  www.openfoam.com                      |
|    \\/     M anipulation  |                                                 |
\*---------------------------------------------------------------------------*/
FoamFile
{
    version     2.0;
    format      ascii;
    arch        "LSB;label=32;scalar=64";
    class       volScalarField;
    location    "26";
    object      k;
}
// * * * * * * * * * * * * * * * * * * * * * * * * * * * * * * * * * * * * * //

dimensions      [0 2 -2 0 0 0 0];

internalField   nonuniform List<scalar> 
67442
(
2.46222e-05
2.79546e-05
2.79118e-05
2.72899e-05
2.74801e-05
2.7877e-05
2.79041e-05
2.74372e-05
2.78597e-05
2.79404e-05
2.79164e-05
2.74497e-05
2.79882e-05
8.79865e-06
1.61543e-05
5.8831e-06
8.58166e-06
1.56345e-05
2.44056e-05
2.44491e-05
2.46598e-05
1.67687e-05
2.76517e-05
2.25341e-05
5.93762e-06
2.75352e-05
1.66627e-05
2.22861e-05
1.06769e-05
1.09465e-05
5.89448e-06
5.80106e-06
1.08991e-05
1.07367e-05
8.80629e-06
1.61111e-05
1.69085e-05
2.76795e-05
2.24707e-05
1.70413e-05
2.75998e-05
2.25078e-05
1.09113e-05
1.07991e-05
5.78263e-06
1.66524e-05
2.75861e-05
2.2097e-05
8.86465e-06
1.56614e-05
2.76264e-05
1.69384e-05
2.20917e-05
8.51421e-06
1.59695e-05
2.75932e-05
1.66053e-05
2.23179e-05
8.49248e-06
1.57266e-05
1.08557e-05
1.09678e-05
5.805e-06
2.7734e-05
1.67604e-05
2.23371e-05
8.46322e-06
1.57587e-05
8.62386e-06
1.58844e-05
5.73938e-06
5.86168e-06
5.38693e-06
8.83069e-06
1.10851e-05
1.11381e-05
5.36386e-06
6.56322e-06
1.62027e-05
7.18607e-06
1.52732e-05
7.21987e-06
1.53228e-05
6.60607e-06
5.93145e-06
6.31789e-06
1.57021e-05
1.48496e-05
6.86719e-06
5.20329e-06
8.64239e-06
1.06891e-05
1.07544e-05
5.21594e-06
5.20615e-06
8.65168e-06
1.07662e-05
6.3284e-06
1.56738e-05
1.47927e-05
6.84235e-06
1.48234e-05
6.86661e-06
6.33649e-06
5.98079e-06
5.99389e-06
1.49539e-05
1.93373e-05
1.06896e-05
8.24563e-06
1.93349e-05
8.27201e-06
1.49482e-05
1.49027e-05
1.93577e-05
1.09755e-05
8.18483e-06
1.93932e-05
8.23957e-06
1.49273e-05
7.92154e-06
5.09814e-06
5.07066e-06
5.09367e-06
5.04824e-06
7.90108e-06
5.94544e-06
5.85812e-06
5.87239e-06
1.48449e-05
1.93579e-05
1.09518e-05
8.2939e-06
8.34829e-06
1.94758e-05
1.48977e-05
1.48117e-05
1.93722e-05
1.08108e-05
8.19051e-06
8.25451e-06
1.93858e-05
1.48435e-05
7.80115e-06
5.0492e-06
5.02314e-06
5.08111e-06
5.06761e-06
7.84986e-06
5.27171e-06
8.81464e-06
1.09409e-05
1.10412e-05
5.26056e-06
6.38528e-06
1.61583e-05
7.069e-06
1.50616e-05
7.1063e-06
1.51194e-05
6.36943e-06
1.50152e-05
1.95077e-05
1.09132e-05
8.31958e-06
8.31001e-06
1.95089e-05
1.50307e-05
1.50552e-05
1.93938e-05
1.07997e-05
8.33538e-06
1.93892e-05
8.33347e-06
1.50397e-05
7.97973e-06
5.12897e-06
5.11863e-06
5.12427e-06
5.12852e-06
7.94433e-06
5.82766e-06
6.36122e-06
1.57025e-05
6.84434e-06
1.50506e-05
5.32361e-06
8.88488e-06
1.09881e-05
1.10705e-05
5.32141e-06
5.35531e-06
8.94061e-06
1.11252e-05
6.37519e-06
1.56827e-05
6.83376e-06
1.49995e-05
6.8676e-06
1.50273e-05
6.38445e-06
5.25799e-06
8.56788e-06
1.07915e-05
1.07731e-05
5.23835e-06
6.34967e-06
1.59613e-05
1.49876e-05
6.96659e-06
1.49713e-05
6.94407e-06
6.34748e-06
5.17078e-06
8.49026e-06
1.06763e-05
1.06833e-05
5.17703e-06
6.30387e-06
1.57436e-05
6.89353e-06
1.47496e-05
6.88722e-06
1.4774e-05
6.28194e-06
1.49911e-05
1.93746e-05
1.09463e-05
8.2889e-06
8.35024e-06
1.95019e-05
1.50012e-05
1.53609e-05
1.97523e-05
1.10105e-05
8.49808e-06
1.97073e-05
8.49515e-06
1.54023e-05
8.09404e-06
5.17219e-06
5.23379e-06
5.20487e-06
5.232e-06
8.09428e-06
5.83034e-06
5.07781e-06
8.49113e-06
1.06234e-05
1.05945e-05
5.08447e-06
6.22371e-06
1.57719e-05
1.47475e-05
6.87773e-06
1.47253e-05
6.86175e-06
6.23361e-06
5.16742e-06
8.65638e-06
1.07294e-05
1.07773e-05
5.15712e-06
6.33597e-06
1.59049e-05
1.48868e-05
6.87414e-06
1.49342e-05
6.90926e-06
6.28662e-06
5.73504e-06
5.87379e-06
2.30699e-05
2.3166e-05
2.17798e-05
2.032e-05
2.46086e-05
2.45416e-05
2.72871e-05
2.46339e-05
2.45934e-05
2.03498e-05
2.02575e-05
2.45523e-05
2.45485e-05
2.73226e-05
2.47043e-05
2.4533e-05
2.02265e-05
2.04482e-05
2.47708e-05
2.4593e-05
2.75171e-05
2.46005e-05
2.47657e-05
2.05965e-05
2.04959e-05
2.46677e-05
2.46741e-05
2.73262e-05
2.48162e-05
2.47539e-05
2.04587e-05
2.32872e-05
2.31799e-05
2.1662e-05
2.33125e-05
2.30785e-05
2.17612e-05
2.33068e-05
2.31218e-05
2.15329e-05
2.54067e-05
2.29757e-05
1.67903e-05
1.96449e-05
2.31376e-05
1.95752e-05
2.52993e-05
2.64451e-05
2.2374e-05
2.16381e-05
2.71318e-05
2.15268e-05
2.69596e-05
2.64321e-05
2.51028e-05
2.29669e-05
1.66806e-05
1.93739e-05
2.2985e-05
1.94144e-05
2.51255e-05
2.64401e-05
2.24299e-05
2.70974e-05
2.14723e-05
2.70996e-05
2.14744e-05
2.64632e-05
2.54178e-05
2.30552e-05
1.69434e-05
1.97484e-05
1.97934e-05
2.31863e-05
2.53474e-05
2.66477e-05
2.26064e-05
2.16682e-05
2.72115e-05
2.16852e-05
2.73115e-05
2.66249e-05
2.53053e-05
2.30629e-05
1.71283e-05
1.97081e-05
1.97056e-05
2.3109e-05
2.53967e-05
2.66434e-05
2.25348e-05
2.16911e-05
2.723e-05
2.18074e-05
2.72967e-05
2.6683e-05
2.52047e-05
2.28337e-05
1.67363e-05
1.93074e-05
1.93914e-05
2.2873e-05
2.5097e-05
2.62257e-05
2.21001e-05
2.12378e-05
2.67939e-05
2.13412e-05
2.68091e-05
2.62255e-05
2.53243e-05
2.29583e-05
1.70044e-05
1.96095e-05
1.9718e-05
2.30759e-05
2.52028e-05
2.64551e-05
2.21903e-05
2.68227e-05
2.13698e-05
2.6863e-05
2.14819e-05
2.63893e-05
2.50956e-05
2.28829e-05
1.66599e-05
1.93773e-05
2.29716e-05
1.94575e-05
2.50796e-05
2.63709e-05
2.229e-05
2.69052e-05
2.13221e-05
2.69055e-05
2.1416e-05
2.63546e-05
2.52158e-05
2.29764e-05
1.68293e-05
1.95079e-05
2.29123e-05
1.96268e-05
2.51872e-05
2.66407e-05
2.233e-05
2.69993e-05
2.142e-05
2.70497e-05
2.14551e-05
2.6748e-05
1.74072e-06
4.23329e-07
9.15116e-08
8.58285e-08
5.86527e-07
1.80419e-06
4.50077e-07
9.9949e-08
9.75542e-08
6.72315e-07
1.72129e-06
4.19336e-07
9.09014e-08
8.59945e-08
5.8828e-07
1.84267e-06
4.60675e-07
1.01952e-07
9.79377e-08
6.73689e-07
1.81308e-06
4.53279e-07
1.00563e-07
9.76545e-08
6.72478e-07
1.80076e-06
4.5052e-07
1.00124e-07
9.7716e-08
6.7342e-07
1.73671e-06
4.21906e-07
9.12401e-08
8.57924e-08
5.86485e-07
1.78852e-06
4.46359e-07
9.93609e-08
9.76938e-08
6.7377e-07
1.77746e-06
4.32763e-07
9.3253e-08
8.62449e-08
5.88493e-07
1.70003e-06
4.14014e-07
8.99792e-08
8.59372e-08
5.88557e-07
1.70002e-06
4.13719e-07
8.98973e-08
8.59344e-08
5.88574e-07
1.78213e-06
4.45133e-07
9.90726e-08
9.7472e-08
6.72331e-07
1.66879e-06
4.05864e-07
8.83954e-08
8.5479e-08
5.86257e-07
1.69605e-06
4.12572e-07
8.96776e-08
8.56297e-08
5.86438e-07
1.77673e-06
4.43257e-07
9.87267e-08
9.75776e-08
6.73461e-07
1.78978e-06
4.45631e-07
9.90933e-08
9.74549e-08
6.72233e-07
1.79511e-06
4.49199e-07
1.00078e-07
9.85002e-08
6.79398e-07
1.74906e-06
4.25257e-07
9.1889e-08
8.62023e-08
5.8917e-07
1.81703e-06
4.53037e-07
1.00519e-07
9.79173e-08
6.74784e-07
1.56912e-06
3.89092e-07
8.74905e-08
9.08272e-08
6.28637e-07
1.61014e-06
3.99883e-07
8.99709e-08
9.28046e-08
6.42877e-07
1.75485e-06
4.40036e-07
9.85773e-08
9.84959e-08
6.80425e-07
1.73121e-06
4.21713e-07
9.13879e-08
8.63635e-08
5.90793e-07
1.73248e-06
4.21939e-07
9.13629e-08
8.60258e-08
5.8814e-07
1.8536e-06
4.63533e-07
1.02494e-07
9.82905e-08
6.76082e-07
1.85453e-06
4.6357e-07
1.02427e-07
9.79594e-08
6.73506e-07
1.70179e-06
4.14616e-07
9.03078e-08
8.67964e-08
5.95078e-07
1.70883e-06
4.16221e-07
9.0627e-08
8.71232e-08
5.97369e-07
1.68296e-06
4.102e-07
8.95126e-08
8.66177e-08
5.94292e-07
1.69486e-06
4.12686e-07
8.99963e-08
8.69714e-08
5.96704e-07
1.66751e-06
4.16874e-07
9.41953e-08
9.74985e-08
6.75884e-07
1.65102e-06
4.1249e-07
9.33821e-08
9.7354e-08
6.75413e-07
1.6731e-06
4.18426e-07
9.45281e-08
9.78508e-08
6.7838e-07
1.65015e-06
4.13472e-07
9.36615e-08
9.77033e-08
6.7794e-07
1.82436e-06
4.55313e-07
1.00965e-07
9.80155e-08
6.75015e-07
1.81595e-06
4.53469e-07
1.00677e-07
9.80716e-08
6.7578e-07
1.82246e-06
4.54663e-07
1.00799e-07
9.77666e-08
6.73264e-07
1.74441e-06
4.2408e-07
9.17048e-08
8.61602e-08
5.89023e-07
1.72006e-06
4.1885e-07
9.1063e-08
8.6899e-08
5.95287e-07
1.72429e-06
4.20206e-07
9.13803e-08
8.72174e-08
5.97535e-07
1.67669e-06
4.19958e-07
9.4811e-08
9.75819e-08
6.76006e-07
1.68107e-06
4.20786e-07
9.49908e-08
9.7915e-08
6.78488e-07
1.803e-06
4.4961e-07
9.99371e-08
9.80395e-08
6.76054e-07
1.57718e-06
3.91071e-07
8.78205e-08
9.08645e-08
6.28722e-07
1.60333e-06
3.99087e-07
8.98459e-08
9.27861e-08
6.42859e-07
1.80155e-06
4.5057e-07
1.00418e-07
9.86888e-08
6.80564e-07
1.78526e-06
4.34624e-07
9.36652e-08
8.66036e-08
5.90981e-07
1.78596e-06
4.34721e-07
9.36121e-08
8.62606e-08
5.88314e-07
1.71277e-06
4.16471e-07
9.04233e-08
8.62838e-08
5.90921e-07
1.74406e-06
4.37313e-07
9.8013e-08
9.84558e-08
6.80601e-07
1.70335e-06
4.14888e-07
9.01628e-08
8.62591e-08
5.90915e-07
1.74481e-06
4.2472e-07
9.20529e-08
8.69182e-08
5.94594e-07
1.74642e-06
4.25883e-07
9.23366e-08
8.72413e-08
5.96901e-07
1.71014e-06
4.27966e-07
9.62117e-08
9.77073e-08
6.75812e-07
1.78999e-06
4.46957e-07
9.93874e-08
9.78111e-08
6.74809e-07
1.68859e-06
4.22923e-07
9.53817e-08
9.79634e-08
6.78877e-07
1.67334e-06
4.07071e-07
8.86768e-08
8.58356e-08
5.88854e-07
1.72414e-06
4.31091e-07
9.68733e-08
9.81586e-08
6.79191e-07
1.70873e-06
4.15535e-07
9.02392e-08
8.60128e-08
5.89025e-07
1.77494e-06
4.4364e-07
9.89735e-08
9.79004e-08
6.75776e-07
1.80383e-06
4.49569e-07
9.9852e-08
9.78463e-08
6.74753e-07
1.75517e-06
4.38242e-07
9.80783e-08
9.82918e-08
6.79299e-07
1.76762e-06
4.41414e-07
9.87075e-08
9.85233e-08
6.80615e-07
1.60531e-06
3.97186e-07
8.8859e-08
9.10167e-08
6.29282e-07
1.65113e-06
4.10159e-07
9.16556e-08
9.26344e-08
6.40443e-07
1.65965e-06
4.11818e-07
9.2024e-08
9.29845e-08
6.42924e-07
1.60449e-06
3.96171e-07
8.85264e-08
9.06564e-08
6.26707e-07
1.78491e-06
4.46611e-07
9.95468e-08
9.8035e-08
6.76086e-07
1.71309e-06
4.17828e-07
9.08805e-08
8.67883e-08
5.9455e-07
1.7182e-06
4.19094e-07
9.11402e-08
8.71188e-08
5.9694e-07
1.67865e-06
4.2018e-07
9.48263e-08
9.75582e-08
6.75758e-07
1.6772e-06
4.20849e-07
9.50533e-08
9.78973e-08
6.7824e-07
1.74901e-06
4.37767e-07
9.80877e-08
9.80698e-08
6.77444e-07
1.56852e-06
3.88725e-07
8.74707e-08
9.11099e-08
6.3087e-07
1.59872e-06
3.97489e-07
8.95268e-08
9.27495e-08
6.42822e-07
1.60946e-06
3.99748e-07
8.99581e-08
9.30719e-08
6.45022e-07
1.5565e-06
3.84941e-07
8.67092e-08
9.07451e-08
6.2858e-07
1.75493e-06
4.39988e-07
9.84843e-08
9.81061e-08
6.77415e-07
1.7209e-06
4.19772e-07
9.12664e-08
8.69144e-08
5.95163e-07
1.73364e-06
4.22586e-07
9.17994e-08
8.72834e-08
5.97652e-07
1.69634e-06
4.24992e-07
9.57566e-08
9.76546e-08
6.75799e-07
1.70644e-06
4.2702e-07
9.61382e-08
9.80102e-08
6.78282e-07
1.70812e-06
4.16248e-07
9.06043e-08
8.67375e-08
5.94322e-07
1.71853e-06
4.1872e-07
9.108e-08
8.70981e-08
5.96782e-07
1.65061e-06
4.13693e-07
9.36698e-08
9.7376e-08
6.75356e-07
1.65969e-06
4.15812e-07
9.41586e-08
9.77583e-08
6.77984e-07
1.70082e-06
4.15194e-07
9.04803e-08
8.68237e-08
5.95113e-07
1.71405e-06
4.17792e-07
9.09834e-08
8.71725e-08
5.97475e-07
1.64404e-06
4.11855e-07
9.33843e-08
9.73784e-08
6.75562e-07
1.65694e-06
4.14895e-07
9.39397e-08
9.77486e-08
6.78079e-07
1.55786e-06
3.85335e-07
8.67474e-08
9.08235e-08
6.29306e-07
1.62285e-06
4.02441e-07
9.03185e-08
9.25342e-08
6.40572e-07
1.63476e-06
4.05356e-07
9.08473e-08
9.28888e-08
6.42989e-07
1.55205e-06
3.83837e-07
8.64231e-08
9.04701e-08
6.26751e-07
1.74745e-06
4.36166e-07
9.76518e-08
9.78431e-08
6.76052e-07
1.57771e-06
3.90918e-07
8.78386e-08
9.11484e-08
6.30918e-07
1.5959e-06
3.96533e-07
8.93748e-08
9.27352e-08
6.42791e-07
1.60488e-06
3.99214e-07
8.9907e-08
9.30645e-08
6.45e-07
1.57372e-06
3.88466e-07
8.72755e-08
9.08091e-08
6.28683e-07
1.79697e-06
4.48911e-07
1.00022e-07
9.8276e-08
6.77607e-07
1.80597e-06
4.51188e-07
1.00448e-07
9.83101e-08
6.77549e-07
1.75609e-06
4.38554e-07
9.81562e-08
9.80978e-08
6.77693e-07
1.56979e-06
3.88579e-07
8.74151e-08
9.11016e-08
6.30965e-07
1.6262e-06
4.03548e-07
9.05483e-08
9.28605e-08
6.4308e-07
1.62254e-06
4.03716e-07
9.06727e-08
9.31304e-08
6.45108e-07
1.57125e-06
3.88412e-07
8.7278e-08
9.08059e-08
6.28802e-07
1.56163e-06
3.86834e-07
8.71151e-08
9.10582e-08
6.30855e-07
1.61173e-06
4.00041e-07
8.99499e-08
9.27926e-08
6.42963e-07
1.61568e-06
4.01231e-07
9.0219e-08
9.3083e-08
6.45008e-07
1.55028e-06
3.84164e-07
8.66464e-08
9.07425e-08
6.28723e-07
1.74539e-06
4.3696e-07
9.78979e-08
9.80772e-08
6.77678e-07
1.71283e-06
4.28827e-07
9.65039e-08
9.80699e-08
6.78434e-07
1.69225e-06
4.23109e-07
9.5302e-08
9.75396e-08
6.75577e-07
1.51851e-06
3.75512e-07
8.49973e-08
9.05996e-08
6.28971e-07
1.57426e-06
3.90669e-07
8.82096e-08
9.22928e-08
6.40354e-07
1.57576e-06
3.91158e-07
8.83724e-08
9.26066e-08
6.42709e-07
1.51463e-06
3.74421e-07
8.47365e-08
9.02611e-08
6.26484e-07
1.71615e-06
4.28743e-07
9.63435e-08
9.7688e-08
6.75877e-07
1.54152e-06
3.81029e-07
8.59931e-08
9.07369e-08
6.29208e-07
1.57583e-06
3.91176e-07
8.83258e-08
9.23142e-08
6.40426e-07
1.5844e-06
3.9353e-07
8.87732e-08
9.26646e-08
6.42864e-07
1.52705e-06
3.77649e-07
8.53442e-08
9.03501e-08
6.26667e-07
2.79358e-05
2.73422e-05
2.78513e-05
2.44718e-05
1.56416e-05
2.7543e-05
2.21014e-05
8.87901e-06
1.56689e-05
2.75253e-05
1.69482e-05
2.2198e-05
5.94402e-06
1.08578e-05
6.22384e-06
1.56025e-05
1.47725e-05
6.85121e-06
1.47081e-05
6.79856e-06
6.2662e-06
5.29614e-06
8.81396e-06
1.09998e-05
1.09529e-05
5.32845e-06
6.27058e-06
1.562e-05
6.83795e-06
1.49678e-05
6.77651e-06
1.48901e-05
6.3156e-06
5.94652e-06
1.4892e-05
1.94505e-05
1.0822e-05
8.28876e-06
1.93545e-05
8.21436e-06
1.49277e-05
1.5266e-05
1.96713e-05
1.94914e-05
1.53277e-05
8.09763e-06
5.18124e-06
5.18406e-06
8.09357e-06
2.03704e-05
2.74755e-05
2.4701e-05
2.46064e-05
2.47473e-05
2.4572e-05
2.04244e-05
2.31316e-05
2.15951e-05
2.32636e-05
2.31018e-05
2.16509e-05
2.63467e-05
2.21119e-05
2.13379e-05
2.68003e-05
2.1308e-05
2.67768e-05
2.62055e-05
2.51053e-05
2.30401e-05
1.6888e-05
1.96771e-05
1.96482e-05
2.29383e-05
2.52432e-05
2.6421e-05
2.21373e-05
2.68345e-05
2.13717e-05
2.6812e-05
2.13496e-05
2.63715e-05
2.51964e-05
2.30059e-05
2.31172e-05
2.51469e-05
2.74599e-05
2.79942e-05
2.78195e-05
2.45446e-05
5.90562e-06
5.82453e-06
1.09114e-05
1.07314e-05
8.81909e-06
1.61746e-05
1.6937e-05
2.75892e-05
2.25826e-05
8.59144e-06
1.66683e-05
5.89938e-06
5.8018e-06
1.48277e-05
1.93537e-05
1.08826e-05
8.30827e-06
8.2608e-06
1.93235e-05
1.48666e-05
1.47402e-05
1.93421e-05
1.07234e-05
8.19078e-06
8.16e-06
1.92506e-05
1.4804e-05
7.76901e-06
5.05595e-06
5.02536e-06
5.05312e-06
5.01764e-06
7.8107e-06
5.34823e-06
8.74521e-06
1.11217e-05
1.10809e-05
5.38364e-06
6.52198e-06
1.61703e-05
7.21133e-06
1.52753e-05
7.19917e-06
1.52228e-05
6.58323e-06
5.16836e-06
8.57767e-06
1.06866e-05
1.06768e-05
5.20214e-06
2.01666e-05
2.74793e-05
2.46735e-05
2.45903e-05
2.45609e-05
2.44311e-05
2.03085e-05
2.32341e-05
2.53005e-05
2.31965e-05
1.69028e-05
1.9734e-05
2.31008e-05
1.97378e-05
2.54139e-05
2.66206e-05
2.24658e-05
2.17892e-05
2.73033e-05
2.16951e-05
2.71588e-05
2.66156e-05
2.50174e-05
2.28292e-05
1.6631e-05
1.938e-05
2.28444e-05
1.93713e-05
2.51238e-05
1.77743e-06
4.32507e-07
9.3257e-08
8.65797e-08
5.91142e-07
1.84118e-06
4.60015e-07
1.01878e-07
9.8258e-08
6.76289e-07
1.78196e-06
4.45236e-07
9.93791e-08
9.82328e-08
6.77797e-07
1.76119e-06
4.28237e-07
9.24763e-08
8.61851e-08
5.8862e-07
1.83427e-06
4.57278e-07
1.01268e-07
9.78821e-08
6.73822e-07
1.53737e-06
3.80433e-07
8.59354e-08
9.06893e-08
6.28796e-07
1.59845e-06
3.97184e-07
8.95154e-08
9.30402e-08
6.45157e-07
1.5804e-06
3.92329e-07
8.86105e-08
9.26787e-08
6.43026e-07
1.55069e-06
3.83577e-07
8.6536e-08
9.10224e-08
6.30912e-07
1.54674e-06
3.8254e-07
8.62908e-08
9.07393e-08
6.28924e-07
1.59684e-06
3.96083e-07
8.93029e-08
9.30199e-08
6.45143e-07
1.57491e-06
3.90813e-07
8.83511e-08
9.26466e-08
6.42962e-07
1.56044e-06
3.8588e-07
8.69392e-08
9.10669e-08
6.30966e-07
1.79527e-06
4.48465e-07
9.99853e-08
9.86512e-08
6.80638e-07
1.71787e-06
4.18851e-07
9.11746e-08
8.72315e-08
5.97741e-07
1.69854e-06
4.14335e-07
9.03102e-08
8.68252e-08
5.9522e-07
1.6954e-06
4.24403e-07
9.57034e-08
9.79853e-08
6.78456e-07
1.69084e-06
4.21904e-07
9.50818e-08
9.7602e-08
6.75953e-07
1.81533e-06
4.53543e-07
1.00648e-07
9.80048e-08
6.75224e-07
1.80188e-06
4.50315e-07
1.00115e-07
9.80335e-08
6.75966e-07
1.74087e-06
4.23115e-07
9.15394e-08
8.61849e-08
5.89324e-07
1.72165e-06
4.19282e-07
9.09474e-08
8.63348e-08
5.90947e-07
1.80762e-06
4.50656e-07
1.00065e-07
9.7611e-08
6.72553e-07
1.79139e-06
4.46657e-07
9.93864e-08
9.76489e-08
6.73516e-07
1.77451e-06
4.43042e-07
9.88798e-08
9.79832e-08
6.762e-07
1.7261e-06
4.19684e-07
9.08868e-08
8.5774e-08
5.86586e-07
1.71312e-06
4.16482e-07
9.03865e-08
8.59545e-08
5.88389e-07
1.65036e-06
4.13398e-07
9.36667e-08
9.77289e-08
6.78177e-07
1.64308e-06
4.11407e-07
9.33609e-08
9.77187e-08
6.78279e-07
1.73746e-06
4.34082e-07
9.73842e-08
9.80214e-08
6.77634e-07
1.75032e-06
4.37546e-07
9.80995e-08
9.84523e-08
6.80485e-07
1.70816e-06
4.16058e-07
9.06233e-08
8.70739e-08
5.96976e-07
1.69868e-06
4.13762e-07
9.01664e-08
8.67027e-08
5.9441e-07
1.70113e-06
4.15169e-07
9.05254e-08
8.71514e-08
5.97676e-07
1.68889e-06
4.11423e-07
8.98196e-08
8.6772e-08
5.95209e-07
1.64019e-06
4.10249e-07
9.30276e-08
9.73596e-08
6.75724e-07
1.64631e-06
4.11554e-07
9.32613e-08
9.73496e-08
6.75505e-07
1.58423e-06
3.92176e-07
8.78877e-08
9.06093e-08
6.26828e-07
1.65206e-06
4.10149e-07
9.17166e-08
9.2964e-08
6.43025e-07
1.64204e-06
4.07134e-07
9.1138e-08
9.25806e-08
6.40436e-07
1.6e-06
3.95204e-07
8.84399e-08
9.09743e-08
6.2929e-07
1.78601e-06
4.4653e-07
9.95917e-08
9.84584e-08
6.79439e-07
2.74302e-05
2.43584e-05
2.7868e-05
2.78582e-05
2.73298e-05
2.73736e-05
2.7267e-05
2.78062e-05
2.79951e-05
2.75249e-05
2.7764e-05
2.79079e-05
2.78628e-05
2.75226e-05
2.80517e-05
1.05254e-05
1.065e-05
2.7378e-05
1.05455e-05
1.06942e-05
1.58796e-05
8.80546e-06
1.60464e-05
5.84648e-06
5.83485e-06
8.38761e-06
1.56419e-05
2.45927e-05
2.44763e-05
2.44501e-05
1.68087e-05
2.75405e-05
2.78937e-05
2.22368e-05
5.77623e-06
2.75818e-05
1.64998e-05
2.2464e-05
1.0574e-05
1.07454e-05
5.61972e-06
5.63774e-06
5.71286e-06
5.75905e-06
2.73683e-05
1.05895e-05
1.0831e-05
1.06204e-05
1.08005e-05
5.6671e-06
5.67414e-06
5.79692e-06
5.79754e-06
5.84982e-06
5.63014e-06
1.0879e-05
1.042e-05
1.5808e-05
8.69352e-06
8.64624e-06
1.59772e-05
2.23528e-05
1.69946e-05
2.74903e-05
2.74867e-05
2.26841e-05
2.23168e-05
1.69258e-05
2.76329e-05
2.80183e-05
1.68013e-05
2.75269e-05
2.26437e-05
1.09115e-05
1.08827e-05
2.73627e-05
1.08728e-05
5.8454e-06
1.63703e-05
2.76169e-05
2.22907e-05
8.60849e-06
1.57332e-05
2.75658e-05
1.67467e-05
2.21752e-05
8.60722e-06
1.57181e-05
2.75207e-05
1.64761e-05
2.2081e-05
8.3132e-06
1.54321e-05
1.07016e-05
1.05788e-05
5.63808e-06
2.74829e-05
1.68015e-05
2.24495e-05
8.31082e-06
1.58737e-05
8.52235e-06
1.59284e-05
5.698e-06
5.79076e-06
7.88751e-06
5.09898e-06
5.06811e-06
5.09795e-06
5.06519e-06
7.94563e-06
1.50122e-05
1.92403e-05
8.25731e-06
1.05694e-05
8.2742e-06
1.50996e-05
1.92323e-05
1.48247e-05
1.92388e-05
8.10962e-06
1.06897e-05
8.18426e-06
1.48933e-05
1.936e-05
7.89123e-06
5.09789e-06
5.0323e-06
5.09404e-06
5.05616e-06
7.94968e-06
1.50668e-05
8.2668e-06
1.05805e-05
1.93104e-05
8.30418e-06
1.50461e-05
1.92906e-05
1.48518e-05
8.13317e-06
1.06838e-05
1.92536e-05
8.16141e-06
1.4871e-05
1.92633e-05
6.41018e-06
6.90248e-06
1.50515e-05
1.59076e-05
6.94115e-06
1.50822e-05
6.39827e-06
5.3477e-06
8.7962e-06
1.10063e-05
1.10187e-05
5.35675e-06
5.31199e-06
8.69796e-06
1.09694e-05
6.43007e-06
1.60063e-05
6.99857e-06
1.51712e-05
6.92491e-06
1.50958e-05
6.49394e-06
5.87747e-06
5.88079e-06
5.16529e-06
8.4135e-06
1.05826e-05
1.06126e-05
5.17199e-06
6.28446e-06
1.56631e-05
1.47372e-05
6.85536e-06
1.47528e-05
6.90475e-06
6.30003e-06
5.79833e-06
1.49652e-05
1.92539e-05
8.19627e-06
1.06229e-05
1.49791e-05
1.92746e-05
8.2271e-06
1.48807e-05
1.92683e-05
8.13844e-06
1.07883e-05
1.48932e-05
1.9384e-05
8.18506e-06
7.91089e-06
5.08239e-06
5.05201e-06
7.91741e-06
5.11809e-06
5.07525e-06
5.66638e-06
5.65876e-06
5.77061e-06
5.77867e-06
7.90523e-06
5.1216e-06
5.0797e-06
7.94146e-06
5.09341e-06
5.05292e-06
1.5048e-05
1.93025e-05
8.28057e-06
1.06276e-05
1.50303e-05
8.25335e-06
1.93159e-05
1.48657e-05
1.9389e-05
8.20786e-06
1.08224e-05
1.48954e-05
8.21311e-06
1.93484e-05
7.93038e-06
5.10756e-06
5.07387e-06
7.92509e-06
5.11502e-06
5.08827e-06
1.50411e-05
8.27367e-06
1.92491e-05
1.06346e-05
1.50515e-05
8.24521e-06
1.92914e-05
1.48965e-05
8.18442e-06
1.92872e-05
1.08488e-05
1.49494e-05
8.2578e-06
1.94035e-05
5.68777e-06
5.67628e-06
5.8159e-06
5.79635e-06
5.85825e-06
5.81869e-06
5.66023e-06
1.4745e-05
1.94311e-05
1.08541e-05
8.16286e-06
8.15279e-06
1.94136e-05
1.48247e-05
1.45193e-05
1.90198e-05
1.04803e-05
7.91357e-06
7.91613e-06
1.90044e-05
1.45724e-05
1.08295e-05
1.95199e-05
7.73727e-06
4.96707e-06
4.93477e-06
5.01134e-06
4.93585e-06
7.77012e-06
6.28193e-06
6.85859e-06
1.48203e-05
1.58647e-05
6.90453e-06
1.48971e-05
6.25733e-06
5.23064e-06
8.77586e-06
1.09243e-05
1.09216e-05
5.25525e-06
5.22679e-06
1.07584e-05
8.69515e-06
1.08266e-05
5.20949e-06
6.31126e-06
1.58972e-05
6.9095e-06
1.4974e-05
6.89987e-06
1.4943e-05
6.34201e-06
7.83446e-06
5.05899e-06
5.07166e-06
5.03235e-06
1.48476e-05
1.93006e-05
1.09507e-05
8.18722e-06
8.2479e-06
1.93686e-05
1.48959e-05
1.49989e-05
1.96241e-05
1.08609e-05
8.24627e-06
1.96212e-05
8.21904e-06
1.49719e-05
1.48666e-05
8.19223e-06
1.09671e-05
1.94228e-05
8.27861e-06
1.96028e-05
1.49347e-05
1.50193e-05
1.07944e-05
1.97071e-05
8.20766e-06
7.8442e-06
5.05856e-06
5.07182e-06
5.06672e-06
5.06737e-06
7.89646e-06
5.84553e-06
5.81164e-06
5.23976e-06
8.60717e-06
1.08006e-05
1.08486e-05
5.27549e-06
6.30305e-06
1.57573e-05
6.84055e-06
1.48873e-05
6.87967e-06
1.48578e-05
6.35196e-06
6.30608e-06
1.56409e-05
1.50536e-05
6.7302e-06
5.22869e-06
8.61663e-06
1.07875e-05
1.07681e-05
5.25292e-06
5.25276e-06
8.5824e-06
1.07563e-05
6.35042e-06
1.56489e-05
1.50117e-05
6.76531e-06
1.50265e-05
6.77873e-06
6.35286e-06
6.11353e-06
1.54451e-05
6.65228e-06
1.4482e-05
5.0518e-06
8.32729e-06
1.0462e-05
1.04457e-05
5.077e-06
5.04401e-06
8.312e-06
1.04428e-05
6.14073e-06
1.54358e-05
6.66279e-06
1.45014e-05
6.66887e-06
1.44794e-05
6.14545e-06
1.5002e-05
1.93427e-05
1.0719e-05
8.23626e-06
8.2626e-06
1.94306e-05
1.50481e-05
1.49824e-05
1.92883e-05
1.06209e-05
8.18553e-06
1.93006e-05
8.25213e-06
1.50019e-05
7.95454e-06
5.10498e-06
5.10851e-06
5.10228e-06
5.08679e-06
7.98866e-06
5.65634e-06
5.14292e-06
8.35415e-06
1.07164e-05
1.06753e-05
5.18115e-06
6.30411e-06
1.59457e-05
1.48614e-05
6.92552e-06
1.49024e-05
6.96418e-06
6.31809e-06
5.18566e-06
8.53512e-06
1.07374e-05
1.0786e-05
5.19869e-06
6.30324e-06
1.59805e-05
1.48235e-05
6.90386e-06
1.48422e-05
6.9494e-06
6.31748e-06
5.71417e-06
5.676e-06
5.77484e-06
2.04327e-05
2.46345e-05
2.47051e-05
2.74228e-05
2.06004e-05
2.46664e-05
2.47768e-05
2.30341e-05
2.31284e-05
2.15441e-05
2.03874e-05
2.46073e-05
2.45199e-05
2.73085e-05
2.04101e-05
2.46352e-05
2.46925e-05
2.03657e-05
2.73757e-05
2.46534e-05
2.46616e-05
2.04655e-05
2.46638e-05
2.4605e-05
2.00762e-05
2.46428e-05
2.43336e-05
2.72653e-05
2.45482e-05
2.44434e-05
2.01934e-05
2.03585e-05
2.46017e-05
2.46005e-05
2.74659e-05
2.47126e-05
2.46593e-05
2.02534e-05
2.04832e-05
2.46195e-05
2.45458e-05
2.73829e-05
2.47272e-05
2.47419e-05
2.03693e-05
2.0432e-05
2.75445e-05
2.48023e-05
2.45831e-05
2.04372e-05
2.47838e-05
2.46139e-05
2.31473e-05
2.3181e-05
2.16535e-05
2.31296e-05
2.30336e-05
2.15947e-05
2.31684e-05
2.30883e-05
2.1782e-05
2.52406e-05
2.30386e-05
1.67403e-05
1.95635e-05
2.30324e-05
1.9585e-05
2.51431e-05
2.51655e-05
1.67067e-05
2.29974e-05
1.94991e-05
2.64758e-05
2.21864e-05
2.15049e-05
2.6821e-05
2.15428e-05
2.6858e-05
2.63881e-05
2.52568e-05
2.27862e-05
1.65387e-05
1.94179e-05
2.28421e-05
1.93979e-05
2.51305e-05
2.66811e-05
2.25701e-05
2.71475e-05
2.16248e-05
2.72902e-05
2.16149e-05
2.66627e-05
2.0403e-05
2.74021e-05
2.46504e-05
2.46848e-05
2.04042e-05
2.46818e-05
2.46105e-05
2.65175e-05
2.14481e-05
2.71755e-05
2.23436e-05
2.16917e-05
2.70857e-05
2.65638e-05
2.53424e-05
2.32013e-05
1.70068e-05
1.97777e-05
1.98434e-05
2.31804e-05
2.52967e-05
2.52472e-05
1.68987e-05
1.97544e-05
2.31997e-05
2.67427e-05
2.24097e-05
2.18541e-05
2.72972e-05
2.17878e-05
2.70869e-05
2.66124e-05
2.66527e-05
2.14304e-05
2.71685e-05
2.22998e-05
2.1472e-05
2.70613e-05
2.67094e-05
2.53692e-05
2.30644e-05
1.69363e-05
1.96783e-05
1.97315e-05
2.31775e-05
2.53521e-05
2.53307e-05
1.95016e-05
1.69132e-05
2.30347e-05
1.95128e-05
2.53213e-05
2.31209e-05
2.65709e-05
2.23639e-05
2.17395e-05
2.7186e-05
2.17519e-05
2.71168e-05
2.65999e-05
2.0281e-05
2.75277e-05
2.46966e-05
2.46419e-05
2.48298e-05
2.48384e-05
2.03311e-05
2.48884e-05
2.27344e-05
1.64315e-05
1.91751e-05
1.93223e-05
2.2706e-05
2.50321e-05
2.63579e-05
2.22435e-05
2.12518e-05
2.71444e-05
2.13051e-05
2.70249e-05
2.61929e-05
2.51654e-05
2.29862e-05
1.67853e-05
1.95193e-05
1.95866e-05
2.29912e-05
2.51675e-05
2.63822e-05
2.22289e-05
2.68286e-05
2.14144e-05
2.68311e-05
2.13757e-05
2.63344e-05
2.51538e-05
2.28037e-05
1.64966e-05
1.91538e-05
2.27847e-05
1.9213e-05
2.50167e-05
2.62136e-05
2.21497e-05
2.6741e-05
2.13161e-05
2.68323e-05
2.11843e-05
2.61884e-05
2.54049e-05
2.31668e-05
1.67932e-05
1.94624e-05
2.30456e-05
1.95183e-05
2.5263e-05
2.64779e-05
2.25872e-05
2.72036e-05
2.14451e-05
2.70759e-05
2.14567e-05
2.64784e-05
2.44613e-05
2.78829e-05
2.7841e-05
2.72892e-05
2.45731e-05
2.79927e-05
2.79217e-05
2.73439e-05
2.43757e-05
2.79212e-05
2.79048e-05
2.73637e-05
2.43921e-05
2.80146e-05
2.7879e-05
2.72885e-05
2.44929e-05
2.77864e-05
2.77717e-05
2.73726e-05
2.44367e-05
2.79237e-05
2.7831e-05
2.74437e-05
2.4456e-05
2.77954e-05
2.78612e-05
2.73316e-05
2.46004e-05
2.78393e-05
2.79225e-05
2.75111e-05
2.44445e-05
2.80788e-05
2.7791e-05
2.74413e-05
2.44704e-05
2.80229e-05
2.78139e-05
2.74818e-05
2.44134e-05
2.79918e-05
2.77921e-05
2.75179e-05
2.43696e-05
2.79219e-05
2.78971e-05
2.74477e-05
2.44115e-05
2.79043e-05
2.78272e-05
2.74739e-05
2.44902e-05
2.79128e-05
2.78149e-05
2.72858e-05
2.44141e-05
2.78901e-05
2.77834e-05
2.75004e-05
2.44895e-05
2.80664e-05
2.77117e-05
2.73774e-05
2.7878e-05
2.79291e-05
2.74623e-05
2.77748e-05
2.79862e-05
2.78892e-05
2.7893e-05
2.74352e-05
2.78957e-05
2.7814e-05
2.73208e-05
2.73416e-05
2.73427e-05
2.78913e-05
2.7955e-05
2.80513e-05
2.79357e-05
2.74238e-05
2.74162e-05
2.79031e-05
2.78723e-05
2.78485e-05
2.80519e-05
2.78615e-05
2.79804e-05
2.78603e-05
2.73123e-05
2.7322e-05
2.78991e-05
2.78189e-05
2.80094e-05
2.75019e-05
2.7443e-05
2.77369e-05
2.79604e-05
2.79866e-05
2.79839e-05
2.80208e-05
2.74181e-05
2.7423e-05
2.78563e-05
2.81537e-05
2.78081e-05
2.80619e-05
2.78827e-05
2.79199e-05
2.7865e-05
2.73257e-05
2.74185e-05
2.80274e-05
2.77628e-05
2.79569e-05
2.73767e-05
2.76411e-05
2.7707e-05
2.79684e-05
2.79863e-05
2.7994e-05
2.79715e-05
2.7414e-05
2.74181e-05
2.78493e-05
2.807e-05
2.78263e-05
2.8065e-05
2.7937e-05
2.79958e-05
2.78189e-05
2.75035e-05
2.73789e-05
2.79939e-05
2.77505e-05
2.78043e-05
2.73048e-05
2.75317e-05
2.74708e-05
2.79783e-05
2.79402e-05
2.79517e-05
2.79221e-05
2.7402e-05
2.74309e-05
2.78264e-05
2.79201e-05
2.78784e-05
2.80582e-05
2.78131e-05
2.79279e-05
2.78595e-05
2.73683e-05
2.75895e-05
2.78353e-05
2.7925e-05
2.78348e-05
2.73787e-05
2.74978e-05
2.74589e-05
2.79474e-05
2.79283e-05
2.81042e-05
2.79112e-05
2.72916e-05
2.73876e-05
2.79007e-05
2.79205e-05
2.79744e-05
2.79253e-05
2.79084e-05
2.78829e-05
2.78652e-05
2.74911e-05
2.74216e-05
2.79241e-05
2.77779e-05
2.78542e-05
2.74978e-05
2.75763e-05
2.73236e-05
2.79891e-05
2.7899e-05
2.78887e-05
2.798e-05
2.73863e-05
2.73405e-05
2.78376e-05
2.79154e-05
2.78081e-05
2.79361e-05
2.78584e-05
2.77783e-05
2.79559e-05
2.73776e-05
2.74592e-05
2.78403e-05
2.77607e-05
2.78402e-05
2.7345e-05
2.73085e-05
2.7314e-05
2.78754e-05
2.80191e-05
2.79892e-05
2.78834e-05
2.73414e-05
2.74325e-05
2.79113e-05
2.79144e-05
2.77737e-05
2.79053e-05
2.79119e-05
2.78701e-05
2.78852e-05
2.73131e-05
2.74713e-05
2.78526e-05
2.77634e-05
2.7891e-05
2.7487e-05
2.73098e-05
2.72666e-05
2.80167e-05
2.78611e-05
2.78609e-05
2.79867e-05
2.7297e-05
2.74521e-05
2.79369e-05
2.80001e-05
2.78446e-05
2.79432e-05
2.80529e-05
2.78659e-05
2.79324e-05
2.73867e-05
2.72848e-05
2.79064e-05
2.79302e-05
2.79391e-05
2.74767e-05
2.72852e-05
2.72702e-05
2.80056e-05
2.80328e-05
2.80464e-05
2.78903e-05
2.74488e-05
2.73594e-05
2.78587e-05
2.79106e-05
2.78121e-05
2.78953e-05
2.80368e-05
2.79875e-05
2.8024e-05
2.72752e-05
2.7368e-05
2.78987e-05
2.78066e-05
2.78824e-05
2.7621e-05
2.72398e-05
2.73604e-05
2.78911e-05
2.78821e-05
2.78362e-05
2.80874e-05
2.742e-05
2.75357e-05
2.78233e-05
2.79276e-05
2.77871e-05
2.794e-05
2.80723e-05
2.80874e-05
2.79713e-05
2.75946e-05
2.74454e-05
2.80439e-05
2.78378e-05
2.79589e-05
2.74288e-05
2.72474e-05
2.73434e-05
2.7837e-05
2.79954e-05
2.78428e-05
2.7979e-05
2.75017e-05
2.75786e-05
2.77418e-05
2.79328e-05
2.77135e-05
2.8016e-05
2.80718e-05
2.7907e-05
2.7933e-05
2.74226e-05
2.74331e-05
2.79732e-05
2.79914e-05
2.80342e-05
2.75035e-05
2.73432e-05
2.73149e-05
2.79246e-05
2.79613e-05
2.80461e-05
2.80864e-05
2.74108e-05
2.74508e-05
2.77193e-05
2.80483e-05
2.79199e-05
2.7893e-05
2.79266e-05
2.79512e-05
2.78297e-05
2.75549e-05
2.7332e-05
2.79277e-05
2.78382e-05
2.79082e-05
2.76272e-05
2.73079e-05
2.72545e-05
2.7906e-05
2.81981e-05
2.79456e-05
2.79918e-05
2.74735e-05
2.74243e-05
2.78196e-05
2.79125e-05
2.78439e-05
2.7912e-05
2.78843e-05
2.78876e-05
2.78255e-05
2.73272e-05
2.73842e-05
2.78983e-05
2.78369e-05
2.80015e-05
2.72977e-05
2.73334e-05
2.73516e-05
2.79371e-05
2.811e-05
2.79192e-05
2.80342e-05
2.75426e-05
2.7515e-05
2.78785e-05
2.79717e-05
2.77502e-05
2.78548e-05
2.78437e-05
2.79276e-05
2.7861e-05
2.72635e-05
2.74883e-05
2.79377e-05
2.7762e-05
2.78659e-05
2.73783e-05
2.72853e-05
2.71835e-05
2.78773e-05
2.79147e-05
2.7796e-05
2.80233e-05
2.73808e-05
2.76208e-05
2.78241e-05
2.7854e-05
2.77351e-05
2.79205e-05
2.78758e-05
2.79686e-05
2.78938e-05
2.73163e-05
2.73144e-05