/*--------------------------------*- C++ -*----------------------------------*\
| =========                 |                                                 |
| \\      /  F ield         | OpenFOAM: The Open Source CFD Toolbox           |
|  \\    /   O peration     | Version:  2206                                  |
|   \\  /    A nd           | Website:  www.openfoam.com                      |
|    \\/     M anipulation  |                                                 |
\*---------------------------------------------------------------------------*/
FoamFile
{
    version     2.0;
    format      ascii;
    arch        "LSB;label=32;scalar=64";
    class       volScalarField;
    location    "26";
    object      nut;
}
// * * * * * * * * * * * * * * * * * * * * * * * * * * * * * * * * * * * * * //

dimensions      [0 2 -1 0 0 0 0];

internalField   nonuniform List<scalar> 
67442
(
1.37059e-06
1.25013e-06
1.26233e-06
1.20278e-06
1.20269e-06
1.25393e-06
1.25576e-06
1.20986e-06
1.24403e-06
1.24145e-06
1.24079e-06
1.21355e-06
1.26602e-06
3.36519e-08
1.95813e-07
1.49755e-08
3.25556e-08
1.80047e-07
1.35994e-06
1.36774e-06
1.37362e-06
2.14546e-07
1.43619e-06
6.60065e-07
1.49125e-08
1.4367e-06
2.19198e-07
6.79271e-07
7.8095e-08
7.96156e-08
1.48727e-08
1.45654e-08
7.77759e-08
7.5682e-08
3.40762e-08
1.95292e-07
2.21945e-07
1.44429e-06
6.73409e-07
2.24279e-07
1.44099e-06
6.82105e-07
7.94219e-08
7.97956e-08
1.46493e-08
2.12874e-07
1.43097e-06
6.29621e-07
3.3633e-08
1.80589e-07
1.43392e-06
2.16711e-07
6.28661e-07
3.26758e-08
1.8512e-07
1.42818e-06
2.12491e-07
6.40881e-07
3.26054e-08
1.82226e-07
7.64255e-08
8.16953e-08
1.478e-08
1.44646e-06
2.20424e-07
6.7856e-07
3.27415e-08
1.90865e-07
3.33634e-08
1.92458e-07
1.47038e-08
1.50745e-08
1.29211e-08
3.41945e-08
7.47555e-08
7.84575e-08
1.2894e-08
2.15591e-08
1.97452e-07
2.59077e-08
1.53112e-07
2.62852e-08
1.54362e-07
2.18057e-08
1.51349e-08
2.0339e-08
1.8183e-07
1.4307e-07
2.43557e-08
1.23688e-08
3.3296e-08
7.01234e-08
7.35884e-08
1.25075e-08
1.23793e-08
3.31158e-08
7.06248e-08
2.07178e-08
1.82604e-07
1.42491e-07
2.423e-08
1.43548e-07
2.44633e-08
2.06461e-08
1.52589e-08
1.5036e-08
1.59969e-07
3.92738e-07
7.5109e-08
3.01037e-08
3.98511e-07
3.03044e-08
1.62144e-07
1.59733e-07
3.92682e-07
7.88093e-08
2.98781e-08
3.97133e-07
3.01663e-08
1.643e-07
4.07552e-08
1.26861e-08
1.26947e-08
1.26013e-08
1.24638e-08
4.10717e-08
1.52518e-08
1.48734e-08
1.47866e-08
1.57416e-07
3.85334e-07
7.94002e-08
3.03091e-08
3.06607e-08
3.94484e-07
1.59876e-07
1.56696e-07
3.83084e-07
7.97606e-08
2.97869e-08
3.01544e-08
3.91251e-07
1.58901e-07
3.96152e-08
1.24553e-08
1.23558e-08
1.2703e-08
1.262e-08
4.01809e-08
1.27026e-08
3.38157e-08
7.48664e-08
7.62908e-08
1.27406e-08
2.11492e-08
1.96965e-07
2.59158e-08
1.50912e-07
2.57995e-08
1.52194e-07
2.12687e-08
1.62102e-07
3.97337e-07
7.82986e-08
3.03792e-08
3.03341e-08
3.92274e-07
1.64615e-07
1.61433e-07
3.92012e-07
7.63688e-08
3.04349e-08
3.87597e-07
3.04988e-08
1.63246e-07
4.1049e-08
1.28473e-08
1.27354e-08
1.26607e-08
1.26831e-08
4.13348e-08
1.48032e-08
2.04876e-08
1.81832e-07
2.4265e-08
1.45074e-07
1.26875e-08
3.3962e-08
7.26129e-08
7.48027e-08
1.27163e-08
1.29184e-08
3.43336e-08
7.55336e-08
2.08685e-08
1.82719e-07
2.41891e-08
1.44555e-07
2.44412e-08
1.45572e-07
2.07934e-08
1.2577e-08
3.30071e-08
7.35312e-08
7.05459e-08
1.25989e-08
2.0794e-08
1.86092e-07
1.44421e-07
2.5113e-08
1.44964e-07
2.48057e-08
2.09523e-08
1.23196e-08
3.23673e-08
7.13128e-08
7.04792e-08
1.23675e-08
2.05773e-08
1.83459e-07
2.51466e-08
1.42089e-07
2.44579e-08
1.43014e-07
2.06743e-08
1.5997e-07
3.86352e-07
8.03932e-08
3.01361e-08
3.04922e-08
3.948e-07
1.64028e-07
1.65966e-07
3.98294e-07
7.8744e-08
3.11336e-08
4.04761e-07
3.11911e-08
1.68389e-07
4.12464e-08
1.27448e-08
1.30607e-08
1.29013e-08
1.29739e-08
4.15288e-08
1.48783e-08
1.21714e-08
3.29192e-08
7.34545e-08
7.04578e-08
1.22196e-08
2.05833e-08
1.92108e-07
1.47638e-07
2.54369e-08
1.48107e-07
2.47319e-08
2.07849e-08
1.24013e-08
3.33428e-08
7.36934e-08
7.29448e-08
1.24122e-08
2.09763e-08
1.93778e-07
1.49118e-07
2.50122e-08
1.50274e-07
2.52627e-08
2.09817e-08
1.44111e-08
1.48246e-08
1.32733e-06
1.33203e-06
1.27544e-06
4.57201e-07
8.42043e-07
8.42987e-07
1.20212e-06
8.4788e-07
8.49668e-07
4.6238e-07
4.47371e-07
8.28737e-07
8.23293e-07
1.21271e-06
8.58414e-07
8.33596e-07
4.49944e-07
4.55463e-07
8.60025e-07
8.34672e-07
1.22013e-06
8.31273e-07
8.40134e-07
4.61344e-07
4.63895e-07
8.44601e-07
8.46306e-07
1.21619e-06
8.61384e-07
8.6295e-07
4.70775e-07
1.34343e-06
1.32733e-06
1.26685e-06
1.34893e-06
1.33446e-06
1.27836e-06
1.34296e-06
1.33192e-06
1.25547e-06
9.29994e-07
6.57818e-07
2.16114e-07
3.95314e-07
6.57416e-07
3.90411e-07
9.31767e-07
1.0701e-06
6.35496e-07
5.65938e-07
1.15043e-06
5.58317e-07
1.13307e-06
1.07859e-06
9.26478e-07
6.66206e-07
2.20742e-07
3.96073e-07
6.897e-07
4.0016e-07
9.27252e-07
1.09691e-06
6.67232e-07
1.16887e-06
5.85992e-07
1.16716e-06
5.67694e-07
1.09995e-06
9.48407e-07
6.68173e-07
2.24323e-07
4.08433e-07
4.15599e-07
6.95717e-07
9.49877e-07
1.10722e-06
6.99872e-07
5.86366e-07
1.17565e-06
5.93385e-07
1.17799e-06
1.10818e-06
9.51373e-07
6.94391e-07
2.26882e-07
4.24134e-07
4.09288e-07
6.75672e-07
9.60435e-07
1.10747e-06
6.76871e-07
6.01448e-07
1.17704e-06
5.86467e-07
1.17777e-06
1.11145e-06
9.18881e-07
6.54387e-07
2.15132e-07
3.84871e-07
4.05066e-07
6.72466e-07
9.28006e-07
1.06016e-06
6.51367e-07
5.50169e-07
1.13527e-06
5.6698e-07
1.12539e-06
1.06909e-06
9.32785e-07
6.62906e-07
2.18761e-07
3.98786e-07
4.18277e-07
6.7369e-07
9.44357e-07
1.07027e-06
6.45681e-07
1.13775e-06
5.57688e-07
1.12917e-06
5.73305e-07
1.07653e-06
9.14398e-07
6.53436e-07
2.14508e-07
3.88504e-07
6.51739e-07
3.93664e-07
9.18904e-07
1.06749e-06
6.3547e-07
1.14196e-06
5.57821e-07
1.13183e-06
5.67131e-07
1.07589e-06
9.42887e-07
6.89188e-07
2.22688e-07
4.17224e-07
6.68329e-07
4.03973e-07
9.47329e-07
1.10517e-06
6.87259e-07
1.1643e-06
5.80439e-07
1.16467e-06
5.84745e-07
1.11164e-06
2.28234e-09
2.59156e-10
2.06532e-11
5.20801e-12
5.02243e-12
2.42167e-09
2.78415e-10
2.27153e-11
5.93761e-12
5.75063e-12
2.25792e-09
2.56702e-10
2.05146e-11
5.21751e-12
5.03653e-12
2.47625e-09
2.85132e-10
2.31737e-11
5.96177e-12
5.76336e-12
2.4357e-09
2.80569e-10
2.28587e-11
5.94511e-12
5.75444e-12
2.42009e-09
2.7884e-10
2.27565e-11
5.94746e-12
5.76008e-12
2.27585e-09
2.58175e-10
2.05905e-11
5.20519e-12
5.02116e-12
2.40134e-09
2.76139e-10
2.2585e-11
5.94742e-12
5.76501e-12
2.33125e-09
2.64918e-10
2.10454e-11
5.23266e-12
5.03786e-12
2.22743e-09
2.53339e-10
2.0308e-11
5.21485e-12
5.03982e-12
2.22867e-09
2.53167e-10
2.02891e-11
5.21483e-12
5.04034e-12
2.39241e-09
2.75397e-10
2.25192e-11
5.93362e-12
5.75229e-12
2.18667e-09
2.48369e-10
1.99494e-11
5.18655e-12
5.01953e-12
2.22265e-09
2.52475e-10
2.02389e-11
5.1957e-12
5.02077e-12
2.38612e-09
2.74216e-10
2.24397e-11
5.93985e-12
5.76139e-12
2.40294e-09
2.7569e-10
2.25216e-11
5.93171e-12
5.74992e-12
2.41987e-09
2.78185e-10
2.27555e-11
5.99829e-12
5.81501e-12
2.29315e-09
2.60369e-10
2.07409e-11
5.23086e-12
5.04506e-12
2.43917e-09
2.80387e-10
2.2848e-11
5.95988e-12
5.77174e-12
2.08114e-09
2.39266e-10
1.98114e-11
5.52151e-12
5.38438e-12
2.14004e-09
2.46752e-10
2.04229e-11
5.64917e-12
5.50754e-12
2.36484e-09
2.72489e-10
2.24137e-11
5.99775e-12
5.82355e-12
2.27121e-09
2.5819e-10
2.06268e-11
5.24004e-12
5.05805e-12
2.27071e-09
2.58267e-10
2.0619e-11
5.2194e-12
5.03533e-12
2.49038e-09
2.86908e-10
2.3299e-11
5.98341e-12
5.78383e-12
2.48908e-09
2.86878e-10
2.32818e-11
5.96311e-12
5.7618e-12
2.23386e-09
2.53834e-10
2.0389e-11
5.2675e-12
5.09505e-12
2.24326e-09
2.54942e-10
2.0464e-11
5.28751e-12
5.11467e-12
2.20823e-09
2.51128e-10
2.02093e-11
5.25669e-12
5.08833e-12
2.22464e-09
2.52784e-10
2.03217e-11
5.27831e-12
5.10897e-12
2.23656e-09
2.57124e-10
2.13695e-11
5.92903e-12
5.78085e-12
2.21373e-09
2.54422e-10
2.11856e-11
5.92013e-12
5.77668e-12
2.24383e-09
2.58214e-10
2.1448e-11
5.9506e-12
5.8022e-12
2.21242e-09
2.55152e-10
2.12514e-11
5.94151e-12
5.79829e-12
2.45073e-09
2.81838e-10
2.29522e-11
5.96726e-12
5.77616e-12
2.44013e-09
2.80674e-10
2.28841e-11
5.96926e-12
5.78027e-12
2.44635e-09
2.81364e-10
2.29102e-11
5.95056e-12
5.75875e-12
2.28606e-09
2.59634e-10
2.06984e-11
5.22768e-12
5.04289e-12
2.25785e-09
2.5642e-10
2.05599e-11
5.27408e-12
5.0971e-12
2.26346e-09
2.5738e-10
2.06346e-11
5.29356e-12
5.11635e-12
2.24861e-09
2.59025e-10
2.15096e-11
5.93402e-12
5.78185e-12
2.25424e-09
2.59661e-10
2.15532e-11
5.95444e-12
5.80308e-12
2.42155e-09
2.78288e-10
2.2719e-11
5.96864e-12
5.78456e-12
2.09186e-09
2.40484e-10
1.98862e-11
5.52397e-12
5.38532e-12
2.13092e-09
2.46261e-10
2.03949e-11
5.64815e-12
5.50747e-12
2.42975e-09
2.79029e-10
2.28321e-11
6.00945e-12
5.82414e-12
2.34117e-09
2.66089e-10
2.11408e-11
5.25459e-12
5.05917e-12
2.34071e-09
2.66092e-10
2.11267e-11
5.23362e-12
5.03633e-12
2.24544e-09
2.54982e-10
2.04114e-11
5.23607e-12
5.06006e-12
2.3515e-09
2.70792e-10
2.22858e-11
5.9957e-12
5.82553e-12
2.23359e-09
2.54011e-10
2.03522e-11
5.23469e-12
5.06039e-12
2.29013e-09
2.60031e-10
2.07844e-11
5.27578e-12
5.09251e-12
2.29209e-09
2.60872e-10
2.08516e-11
5.29557e-12
5.11226e-12
2.29368e-09
2.63969e-10
2.18267e-11
5.94176e-12
5.7809e-12
2.40303e-09
2.76647e-10
2.25936e-11
5.95445e-12
5.77349e-12
2.27557e-09
2.61885e-10
2.16875e-11
5.96561e-12
5.81051e-12
2.19327e-09
2.49241e-10
2.00163e-11
5.20836e-12
5.04176e-12
2.32363e-09
2.66947e-10
2.20274e-11
5.97753e-12
5.81302e-12
2.2397e-09
2.5442e-10
2.0369e-11
5.21912e-12
5.04291e-12
2.38269e-09
2.74576e-10
2.24986e-11
5.95965e-12
5.78119e-12
2.4209e-09
2.78244e-10
2.26968e-11
5.9557e-12
5.77148e-12
2.36647e-09
2.71384e-10
2.23013e-11
5.98543e-12
5.81401e-12
2.38416e-09
2.73338e-10
2.24441e-11
5.99971e-12
5.82517e-12
2.12945e-09
2.44293e-10
2.01222e-11
5.53301e-12
5.38915e-12
2.19402e-09
2.53099e-10
2.08044e-11
5.63849e-12
5.48572e-12
2.20494e-09
2.54141e-10
2.08901e-11
5.65994e-12
5.50698e-12
2.12718e-09
2.43612e-10
2.00451e-11
5.51096e-12
5.3671e-12
2.40487e-09
2.76506e-10
2.26323e-11
5.96978e-12
5.78665e-12
2.24812e-09
2.55807e-10
2.05194e-11
5.2676e-12
5.09135e-12
2.25482e-09
2.56705e-10
2.05809e-11
5.28783e-12
5.11182e-12
2.25101e-09
2.59171e-10
2.15147e-11
5.93348e-12
5.78129e-12
2.24886e-09
2.59715e-10
2.15692e-11
5.95427e-12
5.80252e-12
2.35705e-09
2.7102e-10
2.23001e-11
5.97162e-12
5.79804e-12
2.08252e-09
2.391e-10
1.98087e-11
5.53883e-12
5.40351e-12
2.12503e-09
2.45278e-10
2.03219e-11
5.64578e-12
5.50707e-12
2.13888e-09
2.46685e-10
2.04218e-11
5.6656e-12
5.52592e-12
2.06447e-09
2.36727e-10
1.96345e-11
5.51651e-12
5.38389e-12
2.36288e-09
2.72354e-10
2.23904e-11
5.97385e-12
5.79778e-12
2.25995e-09
2.57093e-10
2.06069e-11
5.27523e-12
5.09655e-12
2.27626e-09
2.58846e-10
2.07295e-11
5.29778e-12
5.11787e-12
2.27694e-09
2.6226e-10
2.17239e-11
5.93827e-12
5.78012e-12
2.28978e-09
2.6352e-10
2.18125e-11
5.96006e-12
5.80136e-12
2.24271e-09
2.54948e-10
2.04576e-11
5.26449e-12
5.08942e-12
2.25618e-09
2.56494e-10
2.05673e-11
5.28653e-12
5.11049e-12
2.21471e-09
2.55287e-10
2.12507e-11
5.92124e-12
5.77559e-12
2.22686e-09
2.56605e-10
2.13637e-11
5.94466e-12
5.79806e-12
2.23377e-09
2.54287e-10
2.04288e-11
5.26933e-12
5.09535e-12
2.25122e-09
2.5591e-10
2.05446e-11
5.29066e-12
5.11558e-12
2.20582e-09
2.54155e-10
2.11869e-11
5.92182e-12
5.77795e-12
2.22307e-09
2.56042e-10
2.1315e-11
5.94449e-12
5.79948e-12
2.06673e-09
2.36993e-10
1.96451e-11
5.52145e-12
5.39014e-12
2.15525e-09
2.48234e-10
2.05014e-11
5.63272e-12
5.4878e-12
2.17103e-09
2.50145e-10
2.0624e-11
5.65446e-12
5.50851e-12
2.05616e-09
2.35926e-10
1.95692e-11
5.49982e-12
5.36826e-12
2.35305e-09
2.69916e-10
2.22012e-11
5.95793e-12
5.78622e-12
2.09471e-09
2.40444e-10
1.9892e-11
5.54139e-12
5.40412e-12
2.12113e-09
2.44685e-10
2.02878e-11
5.64505e-12
5.50689e-12
2.13272e-09
2.46357e-10
2.04106e-11
5.66524e-12
5.52581e-12
2.08722e-09
2.38877e-10
1.97628e-11
5.52062e-12
5.38498e-12
2.42215e-09
2.77948e-10
2.27399e-11
5.98415e-12
5.79883e-12
2.43329e-09
2.79299e-10
2.28366e-11
5.98622e-12
5.79834e-12
2.36539e-09
2.71382e-10
2.23156e-11
5.97362e-12
5.80017e-12
2.08411e-09
2.38973e-10
1.97944e-11
5.53788e-12
5.40328e-12
2.16079e-09
2.48898e-10
2.0552e-11
5.65249e-12
5.50824e-12
2.15629e-09
2.49119e-10
2.0583e-11
5.66905e-12
5.52561e-12
2.08294e-09
2.38728e-10
1.97615e-11
5.51981e-12
5.38476e-12
2.07278e-09
2.37899e-10
1.97265e-11
5.53521e-12
5.40257e-12
2.14154e-09
2.46742e-10
2.04163e-11
5.64807e-12
5.50731e-12
2.14649e-09
2.47579e-10
2.04796e-11
5.6659e-12
5.52482e-12
2.05471e-09
2.36108e-10
1.96178e-11
5.51587e-12
5.38431e-12
2.35061e-09
2.70399e-10
2.2257e-11
5.97251e-12
5.80052e-12
2.29727e-09
2.64629e-10
2.1896e-11
5.96397e-12
5.80333e-12
2.27782e-09
2.61828e-10
2.16665e-11
5.93963e-12
5.78227e-12
2.01441e-09
2.30948e-10
1.92479e-11
5.50782e-12
5.38694e-12
2.09046e-09
2.40972e-10
2.00221e-11
5.61806e-12
5.48601e-12
2.09227e-09
2.41379e-10
2.00613e-11
5.63713e-12
5.50565e-12
2.00637e-09
2.3013e-10
1.91864e-11
5.48727e-12
5.36614e-12
2.31027e-09
2.65316e-10
2.19039e-11
5.94869e-12
5.78466e-12
2.04496e-09
2.34342e-10
1.94741e-11
5.51614e-12
5.38926e-12
2.092e-09
2.41276e-10
2.00488e-11
5.61932e-12
5.48655e-12
2.10443e-09
2.42849e-10
2.01533e-11
5.64083e-12
5.50743e-12
2.023e-09
2.32122e-10
1.93249e-11
5.49249e-12
5.36749e-12
1.24278e-06
1.22027e-06
1.26036e-06
1.36634e-06
1.82192e-07
1.42891e-06
6.44959e-07
3.42125e-08
1.82523e-07
1.4285e-06
2.1809e-07
6.34981e-07
1.50222e-08
7.92214e-08
2.0469e-08
1.80738e-07
1.43042e-07
2.48286e-08
1.41592e-07
2.4565e-08
2.04707e-08
1.27497e-08
3.38419e-08
7.36289e-08
7.59083e-08
1.27612e-08
2.06149e-08
1.80964e-07
2.47543e-08
1.44987e-07
2.44627e-08
1.43417e-07
2.06169e-08
1.52319e-08
1.62471e-07
4.00905e-07
7.82631e-08
3.02627e-08
3.96096e-07
2.98965e-08
1.63889e-07
1.67057e-07
4.10219e-07
4.03348e-07
1.68261e-07
4.22111e-08
1.28327e-08
1.30013e-08
4.17919e-08
4.65922e-07
1.22335e-06
8.50206e-07
8.61229e-07
8.66557e-07
8.53234e-07
4.65132e-07
1.32577e-06
1.26002e-06
1.34303e-06
1.33217e-06
1.25974e-06
1.07398e-06
6.39839e-07
5.5546e-07
1.12661e-06
5.65373e-07
1.13465e-06
1.06056e-06
9.349e-07
6.8315e-07
2.16107e-07
4.03518e-07
4.14685e-07
6.74044e-07
9.37767e-07
1.0779e-06
6.43547e-07
1.12953e-06
5.61324e-07
1.13768e-06
5.7306e-07
1.06814e-06
9.50413e-07
6.72191e-07
6.89523e-07
9.31458e-07
1.21386e-06
1.26021e-06
1.24327e-06
1.364e-06
1.49831e-08
1.46918e-08
8.08199e-08
7.64353e-08
3.42003e-08
1.97098e-07
2.24278e-07
1.43962e-06
6.81187e-07
3.28811e-08
2.1429e-07
1.51798e-08
1.48574e-08
1.61908e-07
3.98515e-07
7.99152e-08
3.05101e-08
3.02426e-08
3.94665e-07
1.63042e-07
1.60899e-07
3.94246e-07
7.88404e-08
2.99174e-08
2.96965e-08
3.88148e-07
1.62463e-07
4.01835e-08
1.25336e-08
1.24088e-08
1.26808e-08
1.25428e-08
4.0074e-08
1.29653e-08
3.3834e-08
7.60009e-08
7.83099e-08
1.29832e-08
2.18936e-08
1.96058e-07
2.6634e-08
1.53892e-07
2.65261e-08
1.52525e-07
2.21851e-08
1.24339e-08
3.29309e-08
7.08496e-08
7.30651e-08
1.25097e-08
4.51215e-07
1.21265e-06
8.49461e-07
8.40543e-07
8.40645e-07
8.30522e-07
4.51874e-07
1.33343e-06
9.4848e-07
6.89691e-07
2.22579e-07
4.21288e-07
6.79834e-07
4.16614e-07
9.53858e-07
1.10815e-06
6.91387e-07
6.06961e-07
1.17888e-06
5.98443e-07
1.17383e-06
1.10722e-06
9.29909e-07
6.57518e-07
2.12602e-07
3.88113e-07
6.69097e-07
3.96527e-07
9.1622e-07
2.33389e-09
2.64824e-10
2.10486e-11
5.25314e-12
5.06055e-12
2.47498e-09
2.84749e-10
2.31586e-11
5.98143e-12
5.78561e-12
2.40097e-09
2.75516e-10
2.25923e-11
5.98149e-12
5.80046e-12
2.30885e-09
2.62038e-10
2.08695e-11
5.22904e-12
5.03895e-12
2.4642e-09
2.82888e-10
2.30174e-11
5.95841e-12
5.7645e-12
2.03862e-09
2.33837e-10
1.94584e-11
5.51313e-12
5.38574e-12
2.12666e-09
2.45131e-10
2.0321e-11
5.66366e-12
5.52708e-12
2.09989e-09
2.41992e-10
2.01136e-11
5.64153e-12
5.50882e-12
2.0564e-09
2.35915e-10
1.95972e-11
5.53352e-12
5.40386e-12
2.05109e-09
2.35137e-10
1.95391e-11
5.51635e-12
5.38705e-12
2.1244e-09
2.44452e-10
2.02732e-11
5.66251e-12
5.52704e-12
2.09221e-09
2.41046e-10
2.00545e-11
5.63963e-12
5.50835e-12
2.06918e-09
2.37298e-10
1.96882e-11
5.53642e-12
5.40453e-12
2.41897e-09
2.77702e-10
2.27338e-11
6.00717e-12
5.82477e-12
2.2585e-09
2.56587e-10
2.05884e-11
5.29463e-12
5.11863e-12
2.22918e-09
2.53653e-10
2.03903e-11
5.2698e-12
5.09704e-12
2.27617e-09
2.6192e-10
2.17135e-11
5.95853e-12
5.80285e-12
2.26861e-09
2.60225e-10
2.15701e-11
5.9351e-12
5.78144e-12
2.43957e-09
2.80759e-10
2.28798e-11
5.9666e-12
5.77794e-12
2.42214e-09
2.78737e-10
2.27562e-11
5.96694e-12
5.78186e-12
2.28499e-09
2.59086e-10
2.0662e-11
5.22982e-12
5.04637e-12
2.25906e-09
2.56712e-10
2.05272e-11
5.2383e-12
5.05937e-12
2.42766e-09
2.78805e-10
2.27446e-11
5.94247e-12
5.75509e-12
2.40647e-09
2.76307e-10
2.25879e-11
5.94338e-12
5.7609e-12
2.39028e-09
2.74171e-10
2.24795e-11
5.9666e-12
5.78764e-12
2.26185e-09
2.56814e-10
2.05116e-11
5.20471e-12
5.02293e-12
2.24576e-09
2.54838e-10
2.03977e-11
5.21506e-12
5.03747e-12
2.21535e-09
2.55134e-10
2.12518e-11
5.94287e-12
5.79972e-12
2.20532e-09
2.53905e-10
2.11833e-11
5.94267e-12
5.80118e-12
2.34075e-09
2.68618e-10
2.21393e-11
5.96868e-12
5.79967e-12
2.35864e-09
2.70905e-10
2.2305e-11
5.99509e-12
5.82406e-12
2.24524e-09
2.54889e-10
2.04642e-11
5.28507e-12
5.11215e-12
2.22902e-09
2.53316e-10
2.0358e-11
5.26236e-12
5.09017e-12
2.23485e-09
2.54311e-10
2.0441e-11
5.28938e-12
5.1173e-12
2.21697e-09
2.51869e-10
2.0279e-11
5.26618e-12
5.09618e-12
2.19961e-09
2.53032e-10
2.11051e-11
5.92068e-12
5.77934e-12
2.20815e-09
2.5384e-10
2.11574e-11
5.91968e-12
5.77687e-12
2.09972e-09
2.41058e-10
1.98996e-11
5.50806e-12
5.36814e-12
2.19735e-09
2.53135e-10
2.08203e-11
5.6587e-12
5.50784e-12
2.18072e-09
2.51115e-10
2.06861e-11
5.6352e-12
5.48567e-12
2.12188e-09
2.4304e-10
2.00273e-11
5.53043e-12
5.38922e-12
2.40555e-09
2.76479e-10
2.26451e-11
5.99575e-12
5.81536e-12
1.19458e-06
1.36152e-06
1.23465e-06
1.25026e-06
1.19406e-06
1.20025e-06
1.1836e-06
1.24712e-06
1.25592e-06
1.20195e-06
1.22818e-06
1.22338e-06
1.22143e-06
1.20068e-06
1.25887e-06
7.19396e-08
7.39872e-08
1.1968e-06
7.22997e-08
7.45271e-08
1.81505e-07
3.31474e-08
1.87668e-07
1.46429e-08
1.45704e-08
3.12874e-08
1.76054e-07
1.38304e-06
1.37421e-06
1.38078e-06
2.08509e-07
1.42956e-06
1.26262e-06
6.17283e-07
1.43942e-08
1.4395e-06
2.07739e-07
6.46619e-07
7.20177e-08
7.42772e-08
1.40128e-08
1.40682e-08
1.43183e-08
1.44369e-08
1.2127e-06
7.23924e-08
7.70616e-08
7.60468e-08
7.78693e-08
1.41629e-08
1.43185e-08
1.45313e-08
1.47892e-08
1.46385e-08
1.40267e-08
7.59363e-08
7.12232e-08
1.79865e-07
3.28358e-08
3.25071e-08
1.85681e-07
6.30893e-07
2.1997e-07
1.43795e-06
1.43015e-06
6.54283e-07
6.23521e-07
2.16447e-07
1.44636e-06
1.25999e-06
2.09846e-07
1.43304e-06
6.64318e-07
7.62537e-08
7.43508e-08
1.196e-06
7.50946e-08
1.45782e-08
2.02063e-07
1.431e-06
6.26515e-07
3.21609e-08
1.77601e-07
1.42996e-06
2.08404e-07
6.17933e-07
3.22102e-08
1.76533e-07
1.42686e-06
2.02594e-07
6.04947e-07
3.10929e-08
1.72332e-07
7.30967e-08
7.34004e-08
1.41066e-08
1.43618e-06
2.14022e-07
6.50575e-07
3.12432e-08
1.84873e-07
3.21285e-08
1.8603e-07
1.44575e-08
1.45765e-08
3.96115e-08
1.2496e-08
1.24307e-08
1.25974e-08
1.25369e-08
4.15014e-08
1.56707e-07
3.68053e-07
2.97538e-08
7.44628e-08
3.03127e-08
1.63272e-07
3.83926e-07
1.55531e-07
3.75173e-07
2.91747e-08
7.79215e-08
2.99644e-08
1.5776e-07
3.95549e-07
3.9709e-08
1.24884e-08
1.23323e-08
1.25509e-08
1.24989e-08
4.00957e-08
1.6133e-07
2.98124e-08
7.49716e-08
3.7098e-07
3.03223e-08
1.63009e-07
3.73491e-07
1.61226e-07
2.93529e-08
7.50618e-08
3.76052e-07
2.95358e-08
1.61789e-07
3.79523e-07
2.07845e-08
2.44146e-08
1.48586e-07
1.90197e-07
2.50382e-08
1.49265e-07
2.10164e-08
1.27432e-08
3.34145e-08
7.20258e-08
7.35724e-08
1.28966e-08
1.26868e-08
3.28972e-08
7.22986e-08
2.10189e-08
1.89364e-07
2.48272e-08
1.51906e-07
2.4824e-08
1.51183e-07
2.12571e-08
1.48825e-08
1.48822e-08
1.22586e-08
3.18564e-08
6.74553e-08
6.90667e-08
1.22858e-08
2.02396e-08
1.81861e-07
1.41955e-07
2.4067e-08
1.42832e-07
2.4606e-08
2.05573e-08
1.45915e-08
1.57124e-07
3.70102e-07
2.94018e-08
7.54349e-08
1.58685e-07
3.81687e-07
3.00949e-08
1.55899e-07
3.74534e-07
2.92784e-08
7.7153e-08
1.61367e-07
3.89134e-07
2.99468e-08
3.99772e-08
1.24374e-08
1.23788e-08
4.02336e-08
1.26049e-08
1.25085e-08
1.43643e-08
1.41429e-08
1.46025e-08
1.46421e-08
3.97986e-08
1.26999e-08
1.25112e-08
4.0233e-08
1.24946e-08
1.24415e-08
1.57042e-07
3.73043e-07
3.02502e-08
7.46584e-08
1.63629e-07
2.99137e-08
3.86199e-07
1.55026e-07
3.87869e-07
2.96688e-08
7.65522e-08
1.59831e-07
2.96401e-08
3.83865e-07
4.09017e-08
1.26183e-08
1.25556e-08
4.05219e-08
1.25653e-08
1.25337e-08
1.6144e-07
3.01428e-08
3.84017e-07
7.35761e-08
1.61924e-07
2.98955e-08
3.84181e-07
1.56327e-07
2.98844e-08
3.91173e-07
7.72169e-08
1.62149e-07
3.02284e-08
3.94537e-07
1.42566e-08
1.42442e-08
1.47158e-08
1.45819e-08
1.47756e-08
1.46188e-08
1.42303e-08
1.53747e-07
3.7808e-07
7.74423e-08
2.94053e-08
2.98696e-08
3.8521e-07
1.60065e-07
1.50549e-07
3.61825e-07
7.44047e-08
2.83448e-08
2.88266e-08
3.76679e-07
1.56267e-07
7.66675e-08
3.8428e-07
3.91097e-08
1.21967e-08
1.20896e-08
1.24176e-08
1.22101e-08
3.95488e-08
2.03275e-08
2.42499e-08
1.46268e-07
1.89372e-07
2.49147e-08
1.47388e-07
2.04109e-08
1.24588e-08
3.39947e-08
7.12809e-08
7.205e-08
1.25499e-08
1.25103e-08
7.00329e-08
3.28218e-08
7.16801e-08
1.24309e-08
2.05727e-08
1.89234e-07
2.45114e-08
1.4989e-07
2.47535e-08
1.49605e-07
2.07253e-08
3.93435e-08
1.24384e-08
1.25747e-08
1.23481e-08
1.56804e-07
3.74584e-07
7.80948e-08
2.9426e-08
3.01928e-08
3.84247e-07
1.59127e-07
1.56717e-07
3.77488e-07
7.51207e-08
2.96557e-08
3.8579e-07
2.99881e-08
1.62169e-07
1.60751e-07
2.96228e-08
7.85169e-08
3.75036e-07
3.0062e-08
3.94206e-07
1.59916e-07
1.61354e-07
7.4637e-08
3.84986e-07
2.97942e-08
3.96175e-08
1.23904e-08
1.24119e-08
1.25028e-08
1.24578e-08
3.99212e-08
1.46864e-08
1.4558e-08
1.2451e-08
3.27397e-08
6.92614e-08
7.15411e-08
1.25529e-08
2.03502e-08
1.83665e-07
2.40379e-08
1.43448e-07
2.45284e-08
1.43854e-07
2.05763e-08
2.02927e-08
1.77619e-07
1.45091e-07
2.37571e-08
1.23978e-08
3.27497e-08
6.89881e-08
6.97689e-08
1.25617e-08
1.25342e-08
3.246e-08
6.95607e-08
2.05068e-08
1.7945e-07
1.4465e-07
2.37304e-08
1.45577e-07
2.40644e-08
2.05139e-08
1.96112e-08
1.74817e-07
2.34695e-08
1.39458e-07
1.20276e-08
3.16459e-08
6.70379e-08
6.84836e-08
1.20656e-08
1.19871e-08
3.13912e-08
6.77563e-08
1.99615e-08
1.76334e-07
2.33163e-08
1.39619e-07
2.36076e-08
1.40147e-07
1.98692e-08
1.56812e-07
3.72571e-07
7.6291e-08
2.95574e-08
3.01439e-08
3.87048e-07
1.62629e-07
1.59241e-07
3.76703e-07
7.59181e-08
2.9642e-08
3.87592e-07
3.02973e-08
1.61273e-07
4.03652e-08
1.2508e-08
1.25508e-08
1.25954e-08
1.25951e-08
4.07974e-08
1.42793e-08
1.22879e-08
3.21175e-08
6.99017e-08
7.12053e-08
1.23911e-08
2.06034e-08
1.91913e-07
1.48811e-07
2.46341e-08
1.49991e-07
2.51429e-08
2.07142e-08
1.23873e-08
3.264e-08
7.0219e-08
7.20796e-08
1.25225e-08
2.06062e-08
1.93413e-07
1.48329e-07
2.45967e-08
1.49369e-07
2.52469e-08
2.07332e-08
1.42925e-08
1.41805e-08
1.4524e-08
4.50689e-07
8.17657e-07
8.26196e-07
1.20432e-06
4.57173e-07
8.30662e-07
8.52992e-07
1.3366e-06
1.34079e-06
1.27192e-06
4.5226e-07
8.2136e-07
8.23288e-07
1.20668e-06
4.66149e-07
8.36077e-07
8.39828e-07
4.4821e-07
1.20103e-06
8.26751e-07
8.44535e-07
4.61932e-07
8.28803e-07
8.37993e-07
4.37866e-07
8.18626e-07
7.99657e-07
1.19477e-06
8.26589e-07
8.2661e-07
4.43162e-07
4.47813e-07
8.22036e-07
8.21406e-07
1.21024e-06
8.34999e-07
8.48422e-07
4.59414e-07
4.52213e-07
8.18081e-07
8.20991e-07
1.2076e-06
8.40551e-07
8.39972e-07
4.61678e-07
4.65937e-07
1.21618e-06
8.27494e-07
8.24735e-07
4.65898e-07
8.43396e-07
8.29493e-07
1.35236e-06
1.35235e-06
1.28735e-06
1.34874e-06
1.34334e-06
1.27998e-06
1.35323e-06
1.34844e-06
1.29657e-06
9.14719e-07
6.46342e-07
2.11306e-07
3.80006e-07
6.5557e-07
3.83922e-07
9.1702e-07
9.29064e-07
2.10565e-07
6.50734e-07
3.82595e-07
1.06297e-06
6.31056e-07
5.45912e-07
1.11783e-06
5.60061e-07
1.1196e-06
1.0586e-06
9.26962e-07
6.43159e-07
2.16688e-07
3.83786e-07
6.59945e-07
3.95737e-07
9.26445e-07
1.1002e-06
6.68457e-07
1.16738e-06
5.66653e-07
1.17335e-06
5.79115e-07
1.10403e-06
4.51171e-07
1.20369e-06
8.32172e-07
8.51333e-07
4.64831e-07
8.4267e-07
8.5201e-07
1.08026e-06
5.53892e-07
1.15498e-06
6.40216e-07
5.67444e-07
1.16864e-06
1.09623e-06
9.49187e-07
6.59578e-07
2.25538e-07
3.93934e-07
4.0185e-07
6.68215e-07
9.38967e-07
9.23927e-07
2.18256e-07
3.92515e-07
6.58137e-07
1.10848e-06
6.63693e-07
5.71539e-07
1.17307e-06
5.7922e-07
1.16248e-06
1.10145e-06
1.08631e-06
5.43027e-07
1.15511e-06
6.48233e-07
5.6828e-07
1.16003e-06
1.09302e-06
9.40957e-07
6.5637e-07
2.23697e-07
3.96978e-07
4.03803e-07
6.7004e-07
9.43718e-07
9.43325e-07
3.83703e-07
2.21261e-07
6.48196e-07
4.02362e-07
9.28605e-07
6.68307e-07
1.1014e-06
6.5133e-07
5.68623e-07
1.16792e-06
5.6877e-07
1.16357e-06
1.1007e-06
4.49662e-07
1.2154e-06
8.25552e-07
8.23197e-07
8.43411e-07
8.35921e-07
4.49996e-07
8.94138e-07
6.25498e-07
2.11323e-07
3.68483e-07
3.85677e-07
6.45994e-07
9.03614e-07
1.05763e-06
6.38629e-07
5.33655e-07
1.13066e-06
5.52018e-07
1.12585e-06
1.05033e-06
9.12047e-07
6.41821e-07
2.15173e-07
3.78909e-07
3.94962e-07
6.6154e-07
9.17263e-07
1.05922e-06
6.4012e-07
1.11832e-06
5.38227e-07
1.11882e-06
5.5623e-07
1.05652e-06
9.03722e-07
6.33404e-07
2.12035e-07
3.68131e-07
6.50955e-07
3.80749e-07
9.03435e-07
1.05265e-06
6.2258e-07
1.11502e-06
5.2706e-07
1.11914e-06
5.37831e-07
1.05089e-06
9.39083e-07
6.60444e-07
2.18911e-07
3.89188e-07
6.68042e-07
4.0096e-07
9.48523e-07
1.09503e-06
6.70796e-07
1.16944e-06
5.55892e-07
1.16385e-06
5.70096e-07
1.09614e-06
1.36221e-06
1.24695e-06
1.25958e-06
1.19296e-06
1.36713e-06
1.25188e-06
1.26389e-06
1.19165e-06
1.35806e-06
1.2488e-06
1.26276e-06
1.189e-06
1.35968e-06
1.25245e-06
1.26103e-06
1.19041e-06
1.36866e-06
1.24201e-06
1.25611e-06
1.19035e-06
1.36942e-06
1.24832e-06
1.25896e-06
1.19574e-06
1.36921e-06
1.24277e-06
1.26074e-06
1.19236e-06
1.37659e-06
1.245e-06
1.26382e-06
1.19962e-06
1.3701e-06
1.25602e-06
1.2576e-06
1.1955e-06
1.3696e-06
1.25348e-06
1.25854e-06
1.19922e-06
1.36777e-06
1.25181e-06
1.25754e-06
1.19736e-06
1.3647e-06
1.24866e-06
1.26267e-06
1.19576e-06
1.36663e-06
1.24761e-06
1.25872e-06
1.19761e-06
1.37287e-06
1.2464e-06
1.25664e-06
1.19066e-06
1.36869e-06
1.24305e-06
1.25324e-06
1.19739e-06
1.37205e-06
1.24774e-06
1.24713e-06
1.19859e-06
1.25394e-06
1.25678e-06
1.20772e-06
1.24012e-06
1.24327e-06
1.24726e-06
1.24028e-06
1.20977e-06
1.26159e-06
1.25872e-06
1.20612e-06
1.21575e-06
1.19675e-06
1.25496e-06
1.25807e-06
1.26298e-06
1.25743e-06
1.21847e-06
1.20124e-06
1.24652e-06
1.23885e-06
1.24504e-06
1.2479e-06
1.23895e-06
1.25146e-06
1.23885e-06
1.21884e-06
1.19728e-06
1.26266e-06
1.25925e-06
1.26781e-06
1.20384e-06
1.21332e-06
1.20921e-06
1.25906e-06
1.25973e-06
1.26008e-06
1.26135e-06
1.20864e-06
1.20072e-06
1.24544e-06
1.2524e-06
1.24313e-06
1.24814e-06
1.23986e-06
1.24874e-06
1.23919e-06
1.20371e-06
1.19622e-06
1.26864e-06
1.25646e-06
1.26547e-06
1.19362e-06
1.21035e-06
1.20512e-06
1.25932e-06
1.25974e-06
1.26024e-06
1.25876e-06
1.20837e-06
1.19965e-06
1.24484e-06
1.24843e-06
1.24365e-06
1.24771e-06
1.24234e-06
1.25182e-06
1.23699e-06
1.21094e-06
1.19766e-06
1.26706e-06
1.25535e-06
1.25818e-06
1.19515e-06
1.21117e-06
1.19732e-06
1.25937e-06
1.2572e-06
1.25803e-06
1.25589e-06
1.21419e-06
1.19608e-06
1.24365e-06
1.24109e-06
1.24594e-06
1.24716e-06
1.23668e-06
1.24838e-06
1.23856e-06
1.20472e-06
1.20645e-06
1.25959e-06
1.26309e-06
1.25941e-06
1.20169e-06
1.21301e-06
1.19412e-06
1.25777e-06
1.25614e-06
1.26466e-06
1.25544e-06
1.19541e-06
1.19132e-06
1.24691e-06
1.24096e-06
1.24988e-06
1.24124e-06
1.24067e-06
1.24657e-06
1.23862e-06
1.2205e-06
1.20296e-06
1.26347e-06
1.25651e-06
1.26055e-06
1.20897e-06
1.21091e-06
1.19142e-06
1.25935e-06
1.25493e-06
1.25482e-06
1.2587e-06
1.20944e-06
1.19564e-06
1.24359e-06
1.24079e-06
1.24239e-06
1.24189e-06
1.23829e-06
1.24199e-06
1.24266e-06
1.2083e-06
1.19977e-06
1.25997e-06
1.25612e-06
1.26017e-06
1.19717e-06
1.20304e-06
1.18896e-06
1.2543e-06
1.26043e-06
1.25957e-06
1.25447e-06
1.20799e-06
1.19558e-06
1.24699e-06
1.24086e-06
1.24095e-06
1.24082e-06
1.24083e-06
1.24634e-06
1.2402e-06
1.20161e-06
1.20619e-06
1.26075e-06
1.25658e-06
1.26251e-06
1.20291e-06
1.19635e-06
1.18878e-06
1.2608e-06
1.25342e-06
1.25379e-06
1.25934e-06
1.19826e-06
1.2022e-06
1.24821e-06
1.24502e-06
1.24402e-06
1.24238e-06
1.24786e-06
1.2464e-06
1.24254e-06
1.21193e-06
1.18925e-06
1.26321e-06
1.26402e-06
1.26454e-06
1.20939e-06
1.19772e-06
1.18741e-06
1.26034e-06
1.26134e-06
1.26217e-06
1.25502e-06
1.21376e-06
1.19631e-06
1.24472e-06
1.24071e-06
1.24263e-06
1.2401e-06
1.24707e-06
1.25199e-06
1.2464e-06
1.19722e-06
1.19663e-06
1.26247e-06
1.25835e-06
1.26165e-06
1.20918e-06
1.19995e-06
1.19415e-06
1.25496e-06
1.25456e-06
1.25261e-06
1.2639e-06
1.20883e-06
1.20243e-06
1.2429e-06
1.24141e-06
1.24144e-06
1.24218e-06
1.24833e-06
1.25658e-06
1.24391e-06
1.22426e-06
1.19904e-06
1.2689e-06
1.25993e-06
1.26527e-06
1.20502e-06
1.19737e-06
1.18896e-06
1.25232e-06
1.25941e-06
1.25374e-06
1.25978e-06
1.20914e-06
1.2079e-06
1.23907e-06
1.24156e-06
1.23868e-06
1.24607e-06
1.24807e-06
1.24877e-06
1.24271e-06
1.20576e-06
1.19744e-06
1.26572e-06
1.26776e-06
1.26934e-06
1.20049e-06
1.19818e-06
1.18861e-06
1.25648e-06
1.25817e-06
1.26319e-06
1.26536e-06
1.2122e-06
1.20181e-06
1.23803e-06
1.24648e-06
1.24818e-06
1.24123e-06
1.24142e-06
1.2517e-06
1.23873e-06
1.21961e-06
1.19523e-06
1.2637e-06
1.2612e-06
1.26446e-06
1.20846e-06
1.19517e-06
1.18524e-06
1.25499e-06
1.26862e-06
1.25906e-06
1.26158e-06
1.21033e-06
1.19866e-06
1.24163e-06
1.23951e-06
1.24572e-06
1.24345e-06
1.2386e-06
1.24971e-06
1.23985e-06
1.20378e-06
1.19741e-06
1.26196e-06
1.26178e-06
1.26963e-06
1.20319e-06
1.19797e-06
1.19066e-06
1.2556e-06
1.26386e-06
1.25846e-06
1.26358e-06
1.21238e-06
1.20338e-06
1.24275e-06
1.24042e-06
1.2432e-06
1.24317e-06
1.23479e-06
1.2528e-06
1.24397e-06
1.20145e-06
1.20605e-06
1.26243e-06
1.25969e-06
1.26454e-06
1.19457e-06
1.20601e-06
1.18128e-06
1.25189e-06
1.2539e-06
1.25408e-06
1.26436e-06
1.20622e-06
1.2075e-06
1.23826e-06
1.2321e-06
1.24551e-06
1.25019e-06
1.23342e-06