/*--------------------------------*- C++ -*----------------------------------*\
| =========                 |                                                 |
| \\      /  F ield         | OpenFOAM: The Open Source CFD Toolbox           |
|  \\    /   O peration     | Version:  2206                                  |
|   \\  /    A nd           | Website:  www.openfoam.com                      |
|    \\/     M anipulation  |                                                 |
\*---------------------------------------------------------------------------*/
FoamFile
{
    version     2.0;
    format      ascii;
    arch        "LSB;label=32;scalar=64";
    class       volScalarField;
    location    "200";
    object      magR;
}
// * * * * * * * * * * * * * * * * * * * * * * * * * * * * * * * * * * * * * //

dimensions      [0 2 -2 0 0 0 0];

internalField   nonuniform List<scalar> 
10720
(
0.0233759
0.027277
0.0322635
0.0390361
0.0470619
0.0572796
0.0703461
0.0865344
0.107089
0.133313
0.167173
0.2119
0.271887
0.354416
0.471783
0.643758
0.907546
1.31719
2.02509
3.15938
5.60276
9.54853
21.7175
43.6111
49.4009
47.5568
46.6466
47.3455
48.2858
48.4689
47.7444
46.2457
43.9063
40.7554
36.7219
31.8899
25.3653
18.8123
4.51676
0.0198923
0.017066
0.0138985
0.0111812
0.00861586
0.00630417
0.00444095
0.00333048
0.00351701
0.00477653
0.00710776
0.0107005
0.0159867
0.0236455
0.034541
0.049992
0.0722105
0.105339
0.157044
0.241201
0.385506
0.640641
1.12796
2.0648
4.11181
8.4035
18.8018
38.6565
54.6665
61.5155
63.4537
63.7679
63.3972
62.497
61.1131
59.3211
56.6993
53.6431
43.929
0.00359878
0.00357868
0.00353748
0.0034353
0.00327731
0.0030956
0.00288116
0.00264001
0.0024013
0.00216704
0.0019441
0.0017863
0.00175982
0.00192712
0.00248942
0.00390054
0.00740472
0.0155341
0.0370781
0.0916076
0.263983
0.743629
2.22045
7.16181
14.1626
21.428
28.2932
33.293
34.5445
31.945
27.3423
22.5715
18.671
15.68
13.3878
11.5772
10.313
9.03352
9.62586
0.00356634
0.00351805
0.00341944
0.00327322
0.00307303
0.00280886
0.00249972
0.00220065
0.00192214
0.00164541
0.00138279
0.00115558
0.000963514
0.000800476
0.000662269
0.000545849
0.000447114
0.000363592
0.000290414
0.000223598
0.000157543
9.30328e-05
3.22267e-05
5.22711e-06
1.47164e-05
0.00194215
0.0105554
0.0847157
0.284034
0.554673
0.828412
1.0692
1.27155
1.44923
1.61521
1.78612
1.96705
2.37163
3.3035
0.00241552
0.00239609
0.00234173
0.00225875
0.00217196
0.00207655
0.00198004
0.00189321
0.00181849
0.00176043
0.00171562
0.00168931
0.001682
0.00169554
0.00170149
0.00165169
0.00144927
0.00125062
0.000149971
0.00795406
0.00292496
0.00535582
0.000994213
0.0225027
0.204362
0.704988
1.79669
4.09257
8.2034
13.7842
19.0411
21.8583
21.6284
19.549
17.0041
14.5851
12.6805
10.5283
11.8202
0.00243454
0.00243166
0.00242522
0.00238214
0.00230541
0.00217617
0.00199847
0.0017964
0.00160868
0.00141469
0.00120625
0.00100463
0.000824188
0.00066874
0.000540415
0.000436857
0.000356197
0.00029505
0.000250602
0.000218701
0.000196749
0.000182536
0.000174774
0.000170566
0.000170434
0.000169323
0.000180034
0.000106335
0.000771209
0.00507161
0.0143331
0.0302291
0.0682129
0.142564
0.252118
0.386056
0.531472
0.63567
1.08597
0.00203778
0.00204199
0.00203171
0.00201473
0.0019798
0.00192783
0.00186304
0.00178218
0.00168978
0.00158758
0.00147783
0.00136214
0.00124157
0.00111818
0.000993214
0.000862137
0.000731377
0.000612911
0.000465303
0.00027431
8.14412e-07
0.000537339
0.000402606
0.00664265
0.0263623
0.0515845
0.0746362
0.00131261
0.0254836
0.33459
1.62052
4.64734
9.04814
12.9424
14.8063
14.7715
13.9751
12.2962
13.2502
0.00201592
0.00198288
0.00193105
0.00186863
0.00179024
0.00168738
0.00156738
0.00143987
0.00130677
0.0011622
0.00101308
0.00087339
0.000749941
0.000643487
0.000553526
0.000478111
0.000416064
0.000365522
0.000324956
0.000291931
0.000265095
0.000242551
0.000222339
0.000201072
0.00017921
0.000161039
0.000147295
0.000137473
0.000125255
0.000110452
8.09402e-05
5.12653e-05
0.000417213
0.00070515
0.00269018
0.0143387
0.0470564
0.118998
0.432053
0.00152939
0.00152665
0.00151468
0.00149338
0.00146046
0.00141583
0.00136188
0.00129942
0.00123051
0.00115934
0.00108821
0.00101997
0.000957628
0.000903144
0.000857734
0.000819818
0.000780159
0.000732412
0.000680466
0.00060658
0.000412936
0.000147047
2.20213e-05
4.70079e-06
0
0
0
0.00036726
0.0220552
0.00425907
0.0210761
0.0638259
0.277894
1.94657
5.38754
9.1609
11.7098
12.3551
13.8481
0.0015254
0.00151463
0.0014932
0.00145883
0.00141028
0.00134149
0.00125926
0.00117103
0.00107684
0.000973455
0.000865987
0.000760869
0.000662123
0.000571452
0.000490103
0.000418612
0.000357155
0.00030546
0.000262928
0.000228265
0.000200293
0.000177499
0.000158257
0.000139907
0.00012125
0.000104015
9.03392e-05
8.08942e-05
7.67979e-05
7.08721e-05
8.71408e-05
1.97245e-05
0.000136621
0.000666223
0.000184084
0.000611089
0.00166191
0.00394802
0.0842141
0.00125333
0.00125864
0.00125813
0.00125362
0.0012413
0.00122134
0.0011946
0.00116003
0.00111836
0.00107071
0.00101748
0.000959947
0.00089946
0.000837096
0.000773974
0.000708716
0.000637631
0.000564668
0.000495741
0.000435729
0.000386823
0.000323692
0.000232475
6.09774e-05
1.25398e-05
6.79546e-06
3.88622e-06
6.50599e-07
0
0.000258622
0.00452816
0.0362348
0.0468144
0.123766
0.163351
1.8348
5.62693
9.56888
13.0404
0.00124201
0.00122638
0.00120364
0.00117355
0.00113485
0.00108399
0.00102553
0.000962766
0.000894436
0.000818959
0.000739956
0.00066135
0.000586125
0.000516015
0.000452257
0.000395655
0.00034646
0.000304527
0.000269368
0.000240079
0.000215634
0.000194734
0.000175937
0.000157226
0.000137783
0.000119262
0.000103103
8.95789e-05
7.8234e-05
6.87978e-05
6.06879e-05
5.32763e-05
4.23554e-05
2.99505e-05
1.70338e-05
7.7612e-05
0.000284229
0.000902235
0.00966497
0.00101402
0.00101845
0.00101915
0.00101655
0.00100845
0.000994429
0.000974822
0.000949055
0.000917351
0.000880583
0.000839381
0.000794775
0.000748139
0.000700789
0.000653851
0.00060885
0.00056805
0.000530138
0.000491587
0.000451249
0.000412734
0.000380743
0.000347702
0.000290416
0.000206039
0.000122899
5.9793e-05
8.30295e-06
4.92277e-06
1.24691e-06
0
0
0.00658965
0.0340133
0.0176743
0.148545
0.771576
4.56276
10.1842
0.00100571
0.000994451
0.000978077
0.000955491
0.000926141
0.000888524
0.000846314
0.000800258
0.00074951
0.000693912
0.000635491
0.000576439
0.000518541
0.000463016
0.000410923
0.000363088
0.000319977
0.00028187
0.000248767
0.00022028
0.00019586
0.00017469
0.000155724
0.000137497
0.00011924
0.000101935
8.67229e-05
7.39219e-05
6.32683e-05
5.46228e-05
4.81633e-05
4.39826e-05
4.16072e-05
3.82764e-05
2.74587e-05
8.00352e-06
1.44372e-06
8.83308e-08
0.000305402
0.000840436
0.000846148
0.000849545
0.000850904
0.000848577
0.000842215
0.00083207
0.000817402
0.000798205
0.000774889
0.000747423
0.000716339
0.000682248
0.000645709
0.000607374
0.000568034
0.000527253
0.000483917
0.000439973
0.000398259
0.000361346
0.000331228
0.000309352
0.000291951
0.000267267
0.000227288
0.00017978
0.000129846
8.23432e-05
2.02413e-05
4.49077e-06
5.88239e-07
0
0
0.00235469
0.0522986
0.0990441
0.907945
5.8248
0.000831816
0.000821434
0.000807526
0.000789036
0.000765848
0.000737145
0.000705813
0.000671253
0.000632979
0.000591484
0.000547685
0.00050294
0.000458351
0.000414756
0.000373009
0.000333921
0.000297992
0.000265652
0.000237058
0.000212047
0.000190216
0.00017095
0.000153407
0.000136484
0.000119603
0.000103488
8.90277e-05
7.64724e-05
6.55591e-05
5.60445e-05
4.78628e-05
4.08525e-05
3.48473e-05
2.96767e-05
2.59404e-05
2.16343e-05
1.56767e-05
1.82039e-06
2.18353e-05
0.00070108
0.000706596
0.000710623
0.000713132
0.000713042
0.00070999
0.000704035
0.000694525
0.00068138
0.000664721
0.000644497
0.00062099
0.000594617
0.000565801
0.000535169
0.000503218
0.000470662
0.000438756
0.000407635
0.000377248
0.000348059
0.000321267
0.000297723
0.000276507
0.000254638
0.000229613
0.000201711
0.000175263
0.000150411
0.000116276
8.37312e-05
1.20065e-05
2.32692e-06
0
0
0
0.0271539
0.133464
2.16735
0.000693488
0.000684718
0.000673401
0.000658344
0.000639985
0.000617848
0.00059398
0.000567543
0.000538324
0.000506921
0.000473766
0.000439635
0.00040519
0.000370944
0.000337492
0.000305449
0.000275297
0.000247435
0.000222115
0.000199375
0.00017904
0.000160722
0.000143834
0.000127634
0.000111717
9.65452e-05
8.28525e-05
7.09174e-05
6.05865e-05
5.16825e-05
4.41663e-05
3.80883e-05
3.34537e-05
3.02224e-05
2.83571e-05
2.86299e-05
3.07187e-05
3.23047e-05
1.19328e-06
0.000591005
0.000596422
0.000600946
0.000604442
0.000606074
0.00060566
0.000603138
0.000597951
0.000590018
0.000579329
0.000565713
0.000549303
0.000530291
0.000508891
0.000485442
0.000460283
0.000433936
0.00040637
0.00037774
0.000349232
0.000322327
0.000298142
0.000276865
0.000256828
0.000235239
0.000211158
0.000186489
0.000164853
0.000148217
0.000134426
0.000123246
9.72049e-05
4.35194e-05
3.97499e-06
1.28739e-08
0
1.715e-05
0.00556874
0.541826
0.000584054
0.000576419
0.000566915
0.000554397
0.000539598
0.000522328
0.000503724
0.000483139
0.00046061
0.000436554
0.000411189
0.000384982
0.000358271
0.000331331
0.0003046
0.000278529
0.000253486
0.000229878
0.000207957
0.000187854
0.000169527
0.000152742
0.000137098
0.0001221
0.000107439
9.34524e-05
8.07164e-05
6.94791e-05
5.96293e-05
5.10053e-05
4.3546e-05
3.72187e-05
3.19352e-05
2.77806e-05
2.47373e-05
2.41075e-05
2.37135e-05
3.99387e-05
1.60535e-05
0.000501764
0.000506841
0.000511397
0.000515236
0.000517705
0.000518727
0.000518129
0.000515525
0.00051075
0.000503768
0.000494368
0.000482582
0.000468479
0.000452151
0.000433839
0.000413816
0.000392379
0.000370011
0.000347208
0.000324408
0.000302319
0.000281506
0.00026221
0.000243484
0.000223278
0.000200567
0.000176938
0.000155502
0.000138271
0.000125392
0.000115642
0.000110855
9.813e-05
6.84383e-05
2.63859e-07
2.01368e-10
0
0.00339599
0.14556
0.000495545
0.000488941
0.000480969
0.00047049
0.000458418
0.000444779
0.000430024
0.000413761
0.000396206
0.000377598
0.000358
0.000337713
0.000316916
0.000295729
0.000274396
0.000253235
0.00023252
0.000212565
0.000193638
0.000175897
0.000159365
0.000143941
0.000129383
0.000115379
0.000101747
8.87424e-05
7.68095e-05
6.61877e-05
5.68301e-05
4.86303e-05
4.15557e-05
3.56163e-05
3.08093e-05
2.72013e-05
2.47273e-05
2.44138e-05
2.42544e-05
3.44696e-05
4.25763e-05
0.000428886
0.000433615
0.00043806
0.000442008
0.000444981
0.000446915
0.000447666
0.000446876
0.000444422
0.000440233
0.0004341
0.000426001
0.000415928
0.000403903
0.000390041
0.000374503
0.000357518
0.000339438
0.000320383
0.000300756
0.000281402
0.000262973
0.000245641
0.00022871
0.00021065
0.000190515
0.000169317
0.000149469
0.000132667
0.000119123
0.000107862
0.000100339
9.5672e-05
9.61464e-05
6.44561e-05
3.53099e-06
0
0.000841167
0.0508002
0.000423327
0.000417541
0.000410787
0.00040196
0.000392009
0.000381068
0.000369209
0.000356218
0.000342396
0.000327837
0.000312571
0.00029677
0.000280505
0.00026378
0.000246763
0.000229642
0.000212582
0.000195838
0.000179619
0.000164109
0.000149392
0.000135436
0.000122093
0.000109183
9.66422e-05
8.4662e-05
7.35926e-05
6.36482e-05
5.48202e-05
4.70332e-05
4.0255e-05
3.44915e-05
2.97145e-05
2.59901e-05
2.33402e-05
2.26432e-05
2.28576e-05
2.93536e-05
4.68114e-05
0.000368651
0.000373004
0.000377227
0.000381109
0.000384278
0.0003867
0.000388259
0.000388633
0.00038771
0.000385416
0.000381551
0.000376071
0.000368921
0.000360062
0.000349559
0.000337505
0.000324034
0.000309443
0.00029395
0.000277841
0.000261626
0.000245788
0.000230443
0.000215149
0.000198882
0.000180956
0.000162084
0.000144138
0.000128573
0.000115537
0.000104377
9.50232e-05
8.80649e-05
8.5101e-05
9.17241e-05
5.46148e-05
2.78071e-07
0.000238129
0.0164032
0.000363705
0.000358619
0.000352841
0.000345377
0.00033711
0.000328208
0.000318569
0.000308088
0.000297095
0.00028561
0.000273619
0.000261216
0.000248423
0.000235207
0.000221614
0.000207764
0.00019376
0.000179778
0.000165977
0.000152512
0.000139487
0.000126919
0.000114747
0.000102899
9.13721e-05
8.0337e-05
7.00673e-05
6.07594e-05
5.24368e-05
4.50568e-05
3.86052e-05
3.31041e-05
2.85537e-05
2.502e-05
2.25269e-05
2.1781e-05
2.20607e-05
2.70015e-05
4.30433e-05
0.000318451
0.000322425
0.000326382
0.000330109
0.000333316
0.000336005
0.000338047
0.000339174
0.000339306
0.00033835
0.000336143
0.000332609
0.000327697
0.000321346
0.000313558
0.000304373
0.000293861
0.000282247
0.000269681
0.000256327
0.000242567
0.000228884
0.000215381
0.000201748
0.000187256
0.000171389
0.000154663
0.000138544
0.000124311
0.000112178
0.000101729
9.26132e-05
8.49859e-05
7.89096e-05
7.727e-05
9.60955e-05
2.08806e-06
1.84528e-05
0.00382685
0.000314027
0.000309559
0.000304566
0.000298227
0.000291316
0.000283975
0.000276047
0.000267538
0.00025871
0.000249563
0.000240065
0.000230275
0.00022017
0.000209677
0.000198819
0.000187629
0.000176154
0.000164518
0.000152837
0.00014123
0.000129787
0.000118563
0.000107553
9.67637e-05
8.62374e-05
7.612e-05
6.66424e-05
5.79768e-05
5.01682e-05
4.32007e-05
3.70713e-05
3.18073e-05
2.74085e-05
2.39398e-05
2.14374e-05
2.05664e-05
2.07209e-05
2.49917e-05
3.86982e-05
0.00027627
0.000279874
0.000283551
0.00028706
0.000290199
0.000292992
0.000295283
0.000296875
0.0002977
0.000297661
0.000296626
0.000294522
0.000291272
0.000286807
0.000281096
0.000274156
0.000266028
0.000256831
0.000246733
0.000235842
0.000224361
0.000212704
0.000200965
0.000188925
0.000176091
0.000162088
0.000147289
0.000132837
0.000119836
0.000108588
9.88349e-05
9.03577e-05
8.30121e-05
7.74112e-05
6.97168e-05
8.4845e-05
5.27825e-05
6.86794e-08
7.22903e-06
0.000272304
0.000268371
0.000264039
0.000258619
0.000252805
0.000246681
0.000240106
0.00023314
0.000225994
0.00021865
0.000211074
0.000203286
0.000195255
0.000186901
0.000178199
0.000169161
0.000159783
0.000150129
0.000140277
0.000130318
0.000120337
0.000110396
0.000100515
9.07312e-05
8.11404e-05
7.18925e-05
6.31713e-05
5.51275e-05
4.78212e-05
4.12594e-05
3.54511e-05
3.04321e-05
2.62131e-05
2.28628e-05
2.04161e-05
1.94752e-05
1.95156e-05
2.31174e-05
3.48887e-05
0.000240574
0.000243842
0.000247229
0.000250497
0.000253517
0.000256296
0.000258702
0.000260569
0.000261841
0.000262434
0.000262227
0.000261149
0.000259135
0.000256104
0.000252032
0.000246891
0.000240696
0.000233499
0.000225464
0.000216624
0.000207089
0.000197202
0.000187065
0.000176536
0.000165259
0.000152967
0.000139935
0.000127048
0.000115231
0.000104838
9.57296e-05
8.78068e-05
8.08812e-05
7.57163e-05
6.94226e-05
6.83164e-05
8.72481e-05
6.67309e-07
3.51662e-07
0.000237032
0.000233548
0.000229777
0.000225119
0.0002202
0.000215041
0.000209539
0.000203792
0.000197958
0.000192013
0.000185921
0.000179694
0.000173283
0.000166598
0.000159613
0.000152294
0.00014463
0.000136639
0.000128364
0.000119866
0.000111208
0.000102452
9.36364e-05
8.48315e-05
7.61466e-05
6.77282e-05
5.97318e-05
5.22934e-05
4.54822e-05
3.93221e-05
3.38326e-05
2.9055e-05
2.50053e-05
2.17523e-05
1.93341e-05
1.83041e-05
1.82398e-05
2.12522e-05
3.14412e-05
0.000210184
0.000213146
0.000216242
0.000219272
0.000222129
0.000224827
0.00022725
0.000229258
0.000230796
0.000231799
0.000232162
0.000231822
0.000230727
0.000228792
0.000225976
0.000222242
0.000217584
0.000212021
0.000205678
0.000198571
0.000190746
0.000182441
0.000173772
0.000164651
0.000154821
0.000144087
0.00013266
0.000121223
0.000110543
0.00010099
9.25175e-05
8.50779e-05
7.86059e-05
7.33457e-05
6.95006e-05
6.13397e-05
8.82104e-05
5.97663e-06
5.61392e-09
0.00020703
0.00020394
0.000200633
0.000196613
0.000192426
0.000188041
0.000183403
0.000178629
0.00017383
0.000168979
0.000164047
0.000159028
0.000153874
0.000148506
0.000142877
0.000136949
0.000130682
0.000124079
0.000117149
0.000109929
0.000102462
9.47942e-05
8.69736e-05
7.90865e-05
7.12573e-05
6.3618e-05
5.63121e-05
4.94581e-05
4.31291e-05
3.7363e-05
3.21881e-05
2.76499e-05
2.37718e-05
2.06234e-05
1.82446e-05
1.71382e-05
1.69787e-05
1.94682e-05
2.82489e-05
0.000184177
0.000186854
0.000189672
0.000192471
0.000195139
0.00019772
0.000200092
0.000202146
0.000203834
0.000205101
0.000205854
0.000206046
0.000205614
0.00020449
0.000202632
0.000199996
0.000196567
0.000192333
0.000187381
0.000181723
0.000175362
0.000168439
0.000161089
0.000153262
0.000144762
0.000135446
0.000125476
0.000115379
0.000105786
9.70564e-05
8.92235e-05
8.22574e-05
7.62158e-05
7.09665e-05
6.78726e-05
6.04517e-05
7.36598e-05
4.10455e-05
1.00468e-06
0.000181364
0.00017862
0.000175708
0.000172221
0.000168639
0.000164884
0.000160949
0.000156953
0.000152973
0.000148984
0.000144961
0.000140892
0.000136726
0.00013239
0.000127838
0.000123021
0.000117893
0.000112439
0.000106648
0.000100531
9.4119e-05
8.74494e-05
8.05602e-05
7.35295e-05
6.6489e-05
5.95843e-05
5.29347e-05
4.66429e-05
4.07828e-05
3.54018e-05
3.0536e-05
2.62333e-05
2.25238e-05
1.94765e-05
1.71329e-05
1.59527e-05
1.57053e-05
1.77602e-05
2.52897e-05
0.000161813
0.000164224
0.000166792
0.000169353
0.000171837
0.000174272
0.00017656
0.000178592
0.000180346
0.000181765
0.000182771
0.000183319
0.000183365
0.000182841
0.000181715
0.000179934
0.000177472
0.000174314
0.000170497
0.000166042
0.000160924
0.000155208
0.000149037
0.000142383
0.000135093
0.000127058
0.000118403
0.000109537
0.000100972
9.30462e-05
8.58451e-05
7.93673e-05
7.37045e-05
6.8727e-05
6.53278e-05
6.0706e-05
6.17417e-05
6.37027e-05
1.26102e-05
0.0001593
0.000156856
0.000154283
0.000151251
0.000148162
0.00014493
0.000141571
0.000138204
0.00013488
0.000131577
0.000128271
0.000124946
0.000121558
0.000118037
0.000114337
0.000110413
0.000106211
0.000101703
9.68695e-05
9.17076e-05
8.62219e-05
8.04368e-05
7.43874e-05
6.81564e-05
6.1867e-05
5.56505e-05
4.96167e-05
4.38588e-05
3.84495e-05
3.34419e-05
2.88775e-05
2.48057e-05
2.12631e-05
1.83167e-05
1.60102e-05
1.47642e-05
1.44364e-05
1.61277e-05
2.25554e-05
0.000142494
0.000144666
0.000146999
0.000149341
0.000151636
0.000153917
0.000156088
0.000158065
0.000159822
0.000161313
0.000162472
0.000163266
0.000163651
0.000163574
0.000162994
0.00016187
0.000160167
0.000157864
0.000154961
0.000151497
0.000147429
0.000142762
0.000137628
0.000132021
0.00012582
0.000118937
0.000111468
0.000103726
9.61258e-05
8.89747e-05
8.23897e-05
7.64058e-05
7.10942e-05
6.64831e-05
6.27295e-05
5.98954e-05
5.59935e-05
6.38923e-05
3.62704e-05
0.000140247
0.000138066
0.000135788
0.000133145
0.000130459
0.000127666
0.000124784
0.000121925
0.000119129
0.000116374
0.000113638
0.000110904
0.000108128
0.000105254
0.000102234
9.9024e-05
9.55727e-05
9.1846e-05
8.78125e-05
8.3459e-05
7.87834e-05
7.37919e-05
6.85064e-05
6.30044e-05
5.74043e-05
5.18249e-05
4.6368e-05
4.11166e-05
3.61401e-05
3.14938e-05
2.7223e-05
2.33772e-05
1.99987e-05
1.71513e-05
1.48819e-05
1.35763e-05
1.3175e-05
1.45744e-05
2.0051e-05
0.000125741
0.000127699
0.000129813
0.00013195
0.000134062
0.000136185
0.000138225
0.000140118
0.00014184
0.000143349
0.000144592
0.00014554
0.000146156
0.000146395
0.00014622
0.000145594
0.000144479
0.000142852
0.000140697
0.000138052
0.00013486
0.000131095
0.000126867
0.000122187
0.000116957
0.000111101
0.000104692
9.79709e-05
9.12694e-05
8.48591e-05
7.88722e-05
7.33745e-05
6.84137e-05
6.41322e-05
6.03156e-05
5.79795e-05
5.36721e-05
5.69914e-05
4.97684e-05
0.000123731
0.000121781
0.000119762
0.000117449
0.000115102
0.000112674
0.00011019
0.00010775
0.000105382
0.000103067
0.000100784
9.85163e-05
9.62297e-05
9.38678e-05
9.13915e-05
8.87546e-05
8.59099e-05
8.2824e-05
7.94607e-05
7.57957e-05
7.1814e-05
6.75192e-05
6.29234e-05
5.80862e-05
5.31129e-05
4.81214e-05
4.32036e-05
3.84302e-05
3.38661e-05
2.95667e-05
2.55796e-05
2.19536e-05
1.87358e-05
1.59855e-05
1.3754e-05
1.23963e-05
1.19289e-05
1.30952e-05
1.77602e-05
0.000111162
0.000112926
0.000114843
0.000116785
0.000118727
0.000120691
0.000122596
0.000124389
0.000126047
0.000127536
0.000128809
0.000129845
0.000130614
0.000131073
0.000131197
0.000130945
0.000130285
0.000129193
0.000127639
0.000125654
0.000123182
0.000120186
0.000116743
0.000112873
0.000108503
0.000103561
9.80967e-05
9.2297e-05
8.64255e-05
8.07159e-05
7.53066e-05
7.02806e-05
6.56807e-05
6.16743e-05
5.80074e-05
5.5564e-05
5.2162e-05
5.10952e-05
5.15469e-05
0.000109366
0.000107618
0.000105824
0.000103794
0.000101735
9.96159e-05
9.7465e-05
9.53686e-05
9.33491e-05
9.13888e-05
8.94725e-05
8.75813e-05
8.56817e-05
8.37272e-05
8.16824e-05
7.9508e-05
7.71569e-05
7.45942e-05
7.1785e-05
6.87005e-05
6.53202e-05
6.16327e-05
5.76438e-05
5.34035e-05
4.90073e-05
4.45589e-05
4.01392e-05
3.58127e-05
3.16378e-05
2.76692e-05
2.39551e-05
2.0543e-05
1.74815e-05
1.48264e-05
1.26333e-05
1.12304e-05
1.0706e-05
1.16925e-05
1.56757e-05
9.84356e-05
0.000100025
0.000101759
0.000103525
0.000105305
0.000107114
0.000108884
0.000110565
0.000112145
0.000113587
0.000114858
0.000115936
0.000116798
0.000117407
0.000117742
0.000117767
0.000117453
0.000116773
0.000115697
0.000114242
0.000112365
0.000110018
0.000107248
0.000104083
0.000100465
9.63264e-05
9.16993e-05
8.67268e-05
8.1616e-05
7.65649e-05
7.17074e-05
6.71351e-05
6.28964e-05
5.91392e-05
5.5694e-05
5.30649e-05
5.0373e-05
4.72957e-05
4.84306e-05
9.68306e-05
9.52633e-05
9.36656e-05
9.18784e-05
9.00645e-05
8.8209e-05
8.63356e-05
8.45261e-05
8.27936e-05
8.11229e-05
7.94996e-05
7.79094e-05
7.63201e-05
7.4694e-05
7.29981e-05
7.11933e-05
6.92412e-05
6.71088e-05
6.47587e-05
6.21608e-05
5.92917e-05
5.6133e-05
5.26813e-05
4.89764e-05
4.51004e-05
4.11473e-05
3.71849e-05
3.32737e-05
2.94654e-05
2.58118e-05
2.23595e-05
1.91542e-05
1.62443e-05
1.36826e-05
1.15282e-05
1.00862e-05
9.51178e-06
1.03665e-05
1.37898e-05
8.72969e-05
8.87279e-05
9.02954e-05
9.19014e-05
9.35258e-05
9.51877e-05
9.68242e-05
9.83927e-05
9.988e-05
0.00010126
0.0001025
0.000103586
0.000104495
0.000105201
0.000105683
0.000105909
0.000105855
0.000105493
0.000104796
0.000103768
0.000102375
0.000100572
9.83735e-05
9.5815e-05
9.28472e-05
8.94091e-05
8.55185e-05
8.12837e-05
7.68637e-05
7.24253e-05
6.80908e-05
6.39547e-05
6.00689e-05
5.6556e-05
5.33254e-05
5.06159e-05
4.81962e-05
4.46494e-05
4.45438e-05
8.58589e-05
8.44572e-05
8.30304e-05
8.14523e-05
7.98501e-05
7.82189e-05
7.6581e-05
7.50086e-05
7.35128e-05
7.2079e-05
7.06967e-05
6.93506e-05
6.80128e-05
6.66481e-05
6.52292e-05
6.37244e-05
6.20973e-05
6.03164e-05
5.83466e-05
5.61578e-05
5.37238e-05
5.10214e-05
4.80403e-05
4.48095e-05
4.13993e-05
3.78917e-05
3.43515e-05
3.08248e-05
2.73597e-05
2.40041e-05
2.08017e-05
1.77953e-05
1.50332e-05
1.25632e-05
1.04472e-05
8.97136e-06
8.35438e-06
9.11554e-06
1.20871e-05
7.75222e-05
7.88101e-05
8.02259e-05
8.16858e-05
8.31658e-05
8.46889e-05
8.61957e-05
8.76503e-05
8.90434e-05
9.03494e-05
9.15424e-05
9.26114e-05
9.35364e-05
9.42977e-05
9.48743e-05
9.52444e-05
9.53817e-05
9.5262e-05
9.48608e-05
9.41694e-05
9.31709e-05
9.18139e-05
9.00934e-05
8.80496e-05
8.56441e-05
8.28155e-05
7.95702e-05
7.59883e-05
7.21923e-05
6.83168e-05
6.4474e-05
6.07531e-05
5.72079e-05
5.3942e-05
5.09046e-05
4.82174e-05
4.58244e-05
4.23615e-05
4.10832e-05
7.62333e-05
7.49784e-05
7.37021e-05
7.2306e-05
7.08874e-05
6.94474e-05
6.80111e-05
6.66394e-05
6.534e-05
6.41022e-05
6.29157e-05
6.17661e-05
6.06296e-05
5.94785e-05
5.82864e-05
5.70233e-05
5.56595e-05
5.41664e-05
5.25117e-05
5.06635e-05
4.85964e-05
4.6285e-05
4.37144e-05
4.09033e-05
3.79115e-05
3.48069e-05
3.16494e-05
2.84764e-05
2.53311e-05
2.22552e-05
1.92901e-05
1.64754e-05
1.38565e-05
1.14769e-05
9.39892e-06
7.8928e-06
7.23902e-06
7.94354e-06
1.05607e-05
6.89234e-05
7.00842e-05
7.13629e-05
7.26866e-05
7.40343e-05
7.54258e-05
7.68096e-05
7.8152e-05
7.94498e-05
8.06759e-05
8.18118e-05
8.2846e-05
8.37651e-05
8.45491e-05
8.51842e-05
8.56512e-05
8.59262e-05
8.59882e-05
8.58138e-05
8.53882e-05
8.4704e-05
8.3714e-05
8.23939e-05
8.07867e-05
7.88586e-05
7.65522e-05
7.38652e-05
7.08566e-05
6.76197e-05
6.42595e-05
6.08735e-05
5.75448e-05
5.43274e-05
5.13029e-05
4.84498e-05
4.58344e-05
4.34106e-05
4.01095e-05
3.80928e-05
6.77699e-05
6.66447e-05
6.5501e-05
6.42641e-05
6.30053e-05
6.17305e-05
6.04669e-05
5.92637e-05
5.81299e-05
5.70544e-05
5.60298e-05
5.5042e-05
5.40704e-05
5.30907e-05
5.20814e-05
5.10165e-05
4.98678e-05
4.86095e-05
4.72144e-05
4.56524e-05
4.38957e-05
4.19178e-05
3.97003e-05
3.72563e-05
3.46341e-05
3.18941e-05
2.90829e-05
2.6235e-05
2.3386e-05
2.05726e-05
1.78332e-05
1.52025e-05
1.27222e-05
1.04321e-05
8.39261e-06
6.85838e-06
6.17178e-06
6.85107e-06
9.19751e-06
6.13443e-05
6.23903e-05
6.35457e-05
6.47442e-05
6.59694e-05
6.7239e-05
6.85051e-05
6.97416e-05
7.09434e-05
7.20886e-05
7.31594e-05
7.41485e-05
7.50442e-05
7.58302e-05
7.64961e-05
7.70237e-05
7.73934e-05
7.75883e-05
7.75851e-05
7.7368e-05
7.69324e-05
7.62369e-05
7.52502e-05
7.40067e-05
7.24814e-05
7.06205e-05
6.84153e-05
6.59073e-05
6.31654e-05
6.0272e-05
5.73075e-05
5.43458e-05
5.14396e-05
4.86554e-05
4.59783e-05
4.34572e-05
4.1026e-05
3.78486e-05
3.54106e-05
6.0312e-05
5.93033e-05
5.82772e-05
5.71789e-05
5.60599e-05
5.4928e-05
5.38127e-05
5.27547e-05
5.17604e-05
5.08206e-05
4.99292e-05
4.90748e-05
4.82389e-05
4.74002e-05
4.65389e-05
4.56343e-05
4.46617e-05
4.35988e-05
4.24178e-05
4.10928e-05
3.95979e-05
3.79056e-05
3.5994e-05
3.38718e-05
3.15767e-05
2.91606e-05
2.66624e-05
2.41104e-05
2.15342e-05
1.89664e-05
1.64397e-05
1.39853e-05
1.16402e-05
9.43903e-06
7.43818e-06
5.87605e-06
5.15807e-06
5.84121e-06
7.98901e-06
5.4652e-05
5.55934e-05
5.66379e-05
5.77217e-05
5.88345e-05
5.99914e-05
6.11471e-05
6.22832e-05
6.33909e-05
6.44552e-05
6.54578e-05
6.63947e-05
6.72541e-05
6.80266e-05
6.87004e-05
6.92613e-05
6.9695e-05
6.99827e-05
7.01077e-05
7.00511e-05
6.98115e-05
6.93499e-05
6.86354e-05
6.76918e-05
6.65032e-05
6.50203e-05
6.32272e-05
6.11531e-05
5.88471e-05
5.63715e-05
5.37929e-05
5.11736e-05
4.85582e-05
4.60087e-05
4.3507e-05
4.1091e-05
3.86849e-05
3.56115e-05
3.2938e-05
5.37267e-05
5.28229e-05
5.19026e-05
5.09252e-05
4.9929e-05
4.89232e-05
4.79351e-05
4.70012e-05
4.61253e-05
4.52999e-05
4.45202e-05
4.3776e-05
4.30512e-05
4.23285e-05
4.15903e-05
4.08175e-05
3.99894e-05
3.90855e-05
3.80826e-05
3.6956e-05
3.56805e-05
3.42304e-05
3.25825e-05
3.074e-05
2.87332e-05
2.66052e-05
2.4388e-05
2.21052e-05
1.97806e-05
1.74418e-05
1.51164e-05
1.28314e-05
1.06189e-05
8.50724e-06
6.54614e-06
4.95432e-06
4.20205e-06
4.91697e-06
6.9253e-06
4.87316e-05
4.958e-05
5.05222e-05
5.15027e-05
5.25119e-05
5.35635e-05
5.46181e-05
5.5658e-05
5.66764e-05
5.766e-05
5.8594e-05
5.94738e-05
6.0292e-05
6.10389e-05
6.17058e-05
6.22815e-05
6.27524e-05
6.31036e-05
6.33206e-05
6.3385e-05
6.3295e-05
6.30182e-05
6.25225e-05
6.18273e-05
6.09169e-05
5.97484e-05
5.83047e-05
5.66036e-05
5.46786e-05
5.2575e-05
5.03451e-05
4.80415e-05
4.57019e-05
4.33737e-05
4.10492e-05
3.87416e-05
3.63881e-05
3.34221e-05
3.06288e-05
4.79018e-05
4.7093e-05
4.62676e-05
4.53954e-05
4.4508e-05
4.36132e-05
4.27357e-05
4.19086e-05
4.11341e-05
4.04063e-05
3.9721e-05
3.90689e-05
3.84368e-05
3.78092e-05
3.71722e-05
3.65082e-05
3.57993e-05
3.50276e-05
3.41723e-05
3.32113e-05
3.21215e-05
3.0877e-05
2.94552e-05
2.78552e-05
2.61004e-05
2.42284e-05
2.22635e-05
2.02249e-05
1.81313e-05
1.60052e-05
1.38701e-05
1.17479e-05
9.66581e-06
7.64546e-06
5.72715e-06
4.10278e-06
3.30775e-06
4.08399e-06
5.99877e-06
4.34862e-05
4.42511e-05
4.51004e-05
4.59869e-05
4.69017e-05
4.78559e-05
4.88168e-05
4.97665e-05
5.07008e-05
5.16067e-05
5.24727e-05
5.32944e-05
5.40661e-05
5.4779e-05
5.5428e-05
5.60016e-05
5.64912e-05
5.68832e-05
5.71641e-05
5.73169e-05
5.73404e-05
5.7207e-05
5.68865e-05
5.63911e-05
5.5709e-05
5.48023e-05
5.36526e-05
5.22687e-05
5.0673e-05
4.88975e-05
4.6981e-05
4.49648e-05
4.28815e-05
4.07672e-05
3.86145e-05
3.64254e-05
3.4144e-05
3.13006e-05
2.84704e-05
4.27426e-05
4.20184e-05
4.12786e-05
4.04989e-05
3.97079e-05
3.89107e-05
3.81303e-05
3.73956e-05
3.67087e-05
3.60639e-05
3.54583e-05
3.48849e-05
3.43309e-05
3.37826e-05
3.32292e-05
3.26551e-05
3.2045e-05
3.13837e-05
3.06518e-05
2.98292e-05
2.88952e-05
2.78253e-05
2.65972e-05
2.52077e-05
2.36751e-05
2.20284e-05
2.02894e-05
1.84712e-05
1.65892e-05
1.46607e-05
1.27053e-05
1.07404e-05
8.78758e-06
6.86262e-06
4.99322e-06
3.33396e-06
2.47844e-06
3.3499e-06
5.20312e-06
3.88331e-05
3.95218e-05
4.02876e-05
4.10881e-05
4.19164e-05
4.27823e-05
4.36556e-05
4.45216e-05
4.53769e-05
4.62087e-05
4.7008e-05
4.77713e-05
4.84935e-05
4.91682e-05
4.97908e-05
5.03536e-05
5.08472e-05
5.12606e-05
5.15823e-05
5.17983e-05
5.19057e-05
5.18818e-05
5.16996e-05
5.13644e-05
5.08666e-05
5.01748e-05
4.92703e-05
4.81544e-05
4.68412e-05
4.5352e-05
4.37143e-05
4.19597e-05
4.01122e-05
3.82005e-05
3.62159e-05
3.41542e-05
3.19593e-05
2.92485e-05
2.64504e-05
3.81664e-05
3.75177e-05
3.68549e-05
3.6158e-05
3.54519e-05
3.47411e-05
3.40461e-05
3.33921e-05
3.27811e-05
3.22081e-05
3.16716e-05
3.11636e-05
3.0675e-05
3.01948e-05
2.97118e-05
2.92129e-05
2.86852e-05
2.81152e-05
2.74862e-05
2.678e-05
2.59776e-05
2.50569e-05
2.3995e-05
2.27869e-05
2.14481e-05
2.00013e-05
1.84638e-05
1.68449e-05
1.51562e-05
1.34116e-05
1.1626e-05
9.81354e-06
7.9903e-06
6.16655e-06
4.3564e-06
2.66502e-06
1.71531e-06
2.72689e-06
4.53233e-06
3.46997e-05
3.53199e-05
3.60096e-05
3.67321e-05
3.74813e-05
3.8266e-05
3.90587e-05
3.9847e-05
4.06281e-05
4.13897e-05
4.21251e-05
4.2831e-05
4.35033e-05
4.41373e-05
4.47289e-05
4.52717e-05
4.57582e-05
4.61793e-05
4.65258e-05
4.6785e-05
4.69523e-05
4.70104e-05
4.69339e-05
4.67246e-05
4.63746e-05
4.58579e-05
4.51551e-05
4.42642e-05
4.31916e-05
4.19501e-05
4.0558e-05
3.9038e-05
3.74078e-05
3.56861e-05
3.38656e-05
3.19336e-05
2.98425e-05
2.72773e-05
2.45579e-05
3.4102e-05
3.35213e-05
3.29271e-05
3.23041e-05
3.16737e-05
3.10396e-05
3.04199e-05
2.98371e-05
2.92925e-05
2.87818e-05
2.83042e-05
2.78536e-05
2.74211e-05
2.69975e-05
2.65736e-05
2.61383e-05
2.56802e-05
2.51872e-05
2.46445e-05
2.40368e-05
2.33462e-05
2.25517e-05
2.16325e-05
2.05822e-05
1.94121e-05
1.81417e-05
1.67836e-05
1.53446e-05
1.38329e-05
1.22592e-05
1.06346e-05
8.96988e-06
7.27728e-06
5.56264e-06
3.82813e-06
2.1226e-06
1.02069e-06
2.23224e-06
3.98141e-06
3.10237e-05
3.15818e-05
3.22025e-05
3.28546e-05
3.35317e-05
3.42419e-05
3.4961e-05
3.56776e-05
3.63892e-05
3.70855e-05
3.776e-05
3.84104e-05
3.90332e-05
3.96247e-05
4.01817e-05
4.06996e-05
4.11718e-05
4.15911e-05
4.19491e-05
4.22342e-05
4.24419e-05
4.25592e-05
4.25633e-05
4.24512e-05
4.22181e-05
4.18413e-05
4.13036e-05