/*--------------------------------*- C++ -*----------------------------------*\
| =========                 |                                                 |
| \\      /  F ield         | OpenFOAM: The Open Source CFD Toolbox           |
|  \\    /   O peration     | Version:  2206                                  |
|   \\  /    A nd           | Website:  www.openfoam.com                      |
|    \\/     M anipulation  |                                                 |
\*---------------------------------------------------------------------------*/
FoamFile
{
    version     2.0;
    format      ascii;
    arch        "LSB;label=32;scalar=64";
    class       volVectorField;
    location    "200";
    object      momentError;
}
// * * * * * * * * * * * * * * * * * * * * * * * * * * * * * * * * * * * * * //

dimensions      [0 1 -2 0 0 0 0];

internalField   nonuniform List<vector> 
10720
(
(0.193783 -0.743187 -4.02054e-15)
(0.135442 -0.729419 -2.42557e-15)
(0.0122972 -0.610769 -2.14814e-14)
(-0.0389716 -0.579603 9.90404e-14)
(-0.0749785 -0.520227 7.41292e-14)
(-0.099599 -0.45863 -1.83534e-13)
(-0.118821 -0.399489 -1.3874e-13)
(-0.125173 -0.33422 -1.07038e-13)
(-0.122543 -0.276641 2.14107e-14)
(-0.114003 -0.221103 5.45171e-15)
(-0.101583 -0.184679 -1.56074e-14)
(-0.0613669 -0.11061 6.72059e-14)
(-0.0311041 -0.0643741 -2.18768e-13)
(-0.00502255 -0.0257179 -4.00262e-13)
(0.0253398 0.00948964 7.41514e-14)
(0.0571637 0.0409795 -1.05873e-13)
(0.094149 0.0676682 1.15322e-13)
(0.137619 0.0896757 8.85791e-13)
(0.18908 0.107614 2.34744e-13)
(0.24726 0.117783 -4.67419e-13)
(0.294389 0.120249 -2.30829e-13)
(0.312234 0.100835 9.48771e-14)
(0.229384 0.0659532 3.41258e-13)
(0.137413 0.0457398 -2.49747e-13)
(0.103534 0.0261179 4.64921e-14)
(0.0613093 0.00292321 -4.01842e-14)
(0.049296 -0.00682526 -6.95348e-14)
(0.0476551 -0.00937009 1.30023e-14)
(0.0495893 -0.00817481 1.01592e-14)
(0.0533848 -0.00643251 2.10401e-13)
(0.0535303 -0.00517435 1.5599e-13)
(0.0463198 -0.0040639 -1.77785e-13)
(0.0419502 -0.00395592 -1.33478e-13)
(0.0375586 -0.00415622 -2.40598e-13)
(0.0328646 -0.00411892 -1.61198e-13)
(0.0284593 -0.00285929 1.5566e-13)
(0.0289086 0.00775198 -1.09072e-14)
(0.0774914 0.0753964 -5.68006e-16)
(1.1588 -0.128957 -6.54218e-14)
(0.219658 -0.694587 8.26525e-15)
(0.233354 -0.561242 -2.01963e-14)
(0.229357 -0.418709 2.30902e-14)
(0.195016 -0.30503 1.04852e-13)
(0.160503 -0.214989 3.65082e-14)
(0.121081 -0.11907 -2.85944e-13)
(0.0496019 -0.030305 -1.53839e-13)
(0.00241782 0.00928849 1.60161e-13)
(0.0159037 -0.0143973 -6.42629e-14)
(0.0535007 -0.0473066 5.92316e-14)
(0.0605687 -0.040333 -8.04788e-14)
(0.0516496 -0.028877 -1.37775e-13)
(0.0479324 -0.0246488 3.59486e-14)
(0.0461705 -0.0211985 7.09261e-14)
(0.0416866 -0.0170932 -1.17085e-13)
(0.0366036 -0.0139828 -1.01201e-13)
(0.0326532 -0.0117425 -7.21977e-14)
(0.0292833 -0.00994382 -8.83015e-14)
(0.0262086 -0.00840349 -3.25271e-14)
(0.0234334 -0.00712889 -2.81579e-15)
(0.0210343 -0.00602415 3.09179e-14)
(0.0189151 -0.00509505 6.23943e-14)
(0.0170827 -0.00426449 -2.97483e-14)
(0.0154344 -0.00356562 -2.11734e-14)
(0.0138041 -0.00279815 2.56254e-14)
(0.012123 -0.00246982 -4.00665e-15)
(0.0108075 -0.00208683 -9.65712e-16)
(0.00998787 -0.000739966 -2.00636e-15)
(0.00922455 0.000307125 4.58844e-16)
(0.0085627 0.000466244 1.22505e-16)
(0.00757237 0.000466079 5.29398e-16)
(0.00690298 0.00053298 -1.35006e-15)
(0.00628249 0.000599922 -2.54452e-15)
(0.00570738 0.000630724 -4.26157e-15)
(0.0051712 0.000633982 -5.53929e-15)
(0.004557 0.000603377 -2.26532e-15)
(0.00410752 0.000583644 1.28444e-14)
(0.00374215 0.000205118 -3.39161e-15)
(0.0025076 -0.000536867 -5.85984e-14)
(-0.0489853 -0.530698 -3.92323e-15)
(-0.106689 -0.527184 2.26867e-15)
(-0.149137 -0.443637 -1.09002e-16)
(-0.204752 -0.427114 -7.49261e-15)
(-0.239325 -0.393726 9.90216e-15)
(-0.261322 -0.355411 6.66534e-14)
(-0.283558 -0.314223 7.9746e-14)
(-0.292798 -0.271435 2.64028e-14)
(-0.290764 -0.230427 -8.5758e-14)
(-0.286189 -0.194476 -4.15758e-14)
(-0.269832 -0.153624 -2.55495e-13)
(-0.268066 -0.170619 -4.70405e-13)
(-0.26171 -0.168517 -2.35147e-14)
(-0.257648 -0.153392 -2.06097e-14)
(-0.233563 -0.149327 -8.27129e-14)
(-0.212846 -0.144373 8.63391e-14)
(-0.188189 -0.143895 3.88147e-13)
(-0.156472 -0.144351 -6.87105e-13)
(-0.11048 -0.145369 -5.70669e-13)
(-0.0372881 -0.142707 -3.58491e-13)
(0.0580835 -0.123617 2.16983e-13)
(0.208941 -0.086635 2.92257e-13)
(0.386393 -0.00930794 -3.83401e-13)
(0.441903 0.0383993 5.94925e-14)
(0.326504 0.0252551 -2.11372e-15)
(0.246046 0.0112152 -1.12464e-14)
(0.221051 0.00792886 -4.08605e-15)
(0.180767 0.000371057 1.23103e-14)
(0.125542 -0.00376565 -2.76273e-14)
(0.0804999 -0.00635831 -1.1043e-14)
(0.0566797 -0.00875454 8.99052e-15)
(0.0551135 -0.0100863 -5.36946e-15)
(0.056995 -0.0100232 -1.14717e-13)
(0.0560934 -0.00917289 -7.15151e-14)
(0.0536976 -0.00843855 1.6049e-13)
(0.0501042 -0.00801259 2.89338e-14)
(0.0504196 -0.00684865 6.4739e-14)
(0.013613 0.00530361 -1.18406e-14)
(-0.888078 0.105222 -3.39152e-14)
(-0.0107823 -0.499637 -1.64772e-14)
(0.0359246 -0.419113 1.51019e-13)
(0.0718518 -0.327461 -4.74071e-14)
(0.0858167 -0.25437 -1.16318e-13)
(0.0912066 -0.185388 8.26992e-14)
(0.0849204 -0.115168 6.77216e-14)
(0.0549451 -0.0533579 2.41214e-14)
(0.0329533 -0.0266499 1.54607e-13)
(0.0392107 -0.0346479 9.306e-16)
(0.0577557 -0.042813 -4.50364e-14)
(0.0650771 -0.0322916 7.2744e-14)
(0.0618812 -0.0236993 -9.50371e-14)
(0.0584401 -0.0193144 2.01353e-14)
(0.055481 -0.0145239 1.03758e-14)
(0.0507887 -0.0100998 2.45725e-14)
(0.0453684 -0.00745245 2.75769e-14)
(0.0407433 -0.00573439 4.68755e-14)
(0.0367439 -0.00446537 -1.40027e-14)
(0.0331387 -0.00345577 3.02761e-15)
(0.0298904 -0.0027071 -6.99519e-15)
(0.0270537 -0.00205748 1.82105e-14)
(0.0245388 -0.00152778 5.28036e-14)
(0.0223127 -0.0010368 -8.96308e-16)
(0.0202438 -0.000517579 -1.75309e-14)
(0.0182458 0.000138215 -1.48831e-14)
(0.0162921 0.000719528 2.12144e-14)
(0.0144651 0.00103017 6.08318e-15)
(0.0129628 0.00114171 -1.59077e-15)
(0.0117263 0.00100296 4.66675e-17)
(0.0105006 0.000827424 -1.04671e-16)
(0.0097981 0.000693677 -1.98891e-16)
(0.00894732 0.000756325 -4.63158e-16)
(0.00811688 0.000815974 2.22274e-15)
(0.00734734 0.000838917 2.54855e-15)
(0.00664931 0.000840023 2.78517e-15)
(0.00616001 0.000824148 -7.48667e-15)
(0.00548918 0.000778496 8.10568e-16)
(0.0054989 0.000786409 1.3377e-14)
(0.00424766 0.00123518 1.58036e-14)
(0.0425511 -0.428743 2.09413e-15)
(0.0116022 -0.424092 -1.24139e-15)
(-0.0272894 -0.360513 -2.5007e-15)
(-0.0604611 -0.360642 1.07259e-15)
(-0.0820516 -0.343519 5.71975e-14)
(-0.100625 -0.316742 -6.38288e-14)
(-0.118257 -0.291197 -8.74057e-14)
(-0.128497 -0.262655 1.59471e-13)
(-0.132559 -0.231645 6.52675e-14)
(-0.133166 -0.202266 8.85338e-14)
(-0.129011 -0.174372 2.03747e-14)
(-0.121329 -0.14481 -6.60107e-16)
(-0.113142 -0.115434 3.54472e-13)
(-0.101318 -0.0930509 1.19362e-14)
(-0.102748 -0.0698526 2.16094e-13)
(-0.111001 -0.0507785 9.78043e-16)
(-0.118815 -0.0409505 -6.82652e-13)
(-0.131669 -0.0374284 4.11492e-13)
(-0.156182 -0.041394 9.19213e-13)
(-0.199164 -0.0567567 1.65874e-13)
(-0.241116 -0.092884 -2.79299e-14)
(-0.29125 -0.105356 -6.57285e-14)
(-0.29774 -0.100732 1.63595e-13)
(-0.209651 -0.0517984 1.19258e-13)
(-0.0477812 0.00188352 -9.77811e-14)
(0.0626261 0.0289405 -2.17685e-14)
(0.078111 0.0217045 -5.62736e-14)
(0.124435 0.00850018 3.09089e-14)
(0.145126 0.00288023 -2.80679e-14)
(0.158163 -0.000391282 -1.57059e-13)
(0.146569 -0.00483415 -8.09139e-15)
(0.116531 -0.00845076 2.38275e-13)
(0.0838247 -0.0104565 3.64186e-14)
(0.0634604 -0.0108014 1.11474e-13)
(0.0568616 -0.0102102 1.35675e-13)
(0.054554 -0.0097924 2.19076e-14)
(0.0553963 -0.00955303 -8.62954e-14)
(0.0392343 -0.00884397 8.6134e-15)
(-0.0499246 -0.00291014 1.70023e-14)
(0.0654148 -0.406839 2.44552e-14)
(0.0799006 -0.345447 -3.72998e-14)
(0.0888254 -0.2701 -4.68685e-14)
(0.0917294 -0.215925 -1.29706e-14)
(0.0868711 -0.163106 1.12338e-14)
(0.0754153 -0.110111 -1.20461e-13)
(0.0560746 -0.0616231 2.4032e-14)
(0.0462754 -0.0447567 -1.49475e-13)
(0.0542777 -0.0484976 -1.25226e-13)
(0.0644152 -0.047987 -1.1561e-13)
(0.0679763 -0.0408987 1.18084e-13)
(0.0650581 -0.0344058 1.04076e-13)
(0.0607313 -0.0292154 -6.46249e-14)
(0.0564662 -0.0239088 -1.48288e-13)
(0.0514461 -0.01924 4.05313e-14)
(0.0459464 -0.0158275 6.9743e-14)
(0.0410019 -0.0132227 -1.89495e-14)
(0.0367516 -0.0110753 -9.24042e-14)
(0.0329919 -0.00929501 -2.67612e-14)
(0.029642 -0.00783568 2.54421e-15)
(0.0267324 -0.00657804 -2.06133e-14)
(0.024175 -0.00548997 -4.12479e-14)
(0.0218884 -0.0044969 9.09329e-15)
(0.0197393 -0.00353862 -6.41238e-16)
(0.0176734 -0.00256877 2.83388e-15)
(0.0156803 -0.00178559 -9.58635e-15)
(0.0138305 -0.0013025 -1.76677e-14)
(0.0122507 -0.000907122 3.92862e-15)
(0.0109104 -0.000475155 7.42842e-16)
(0.00972981 -9.95813e-05 -1.86873e-16)
(0.00878678 0.000332666 1.16096e-16)
(0.00800559 0.000558774 5.20413e-16)
(0.00728731 0.000686806 -7.9075e-16)
(0.00661999 0.00075651 -1.48655e-15)
(0.00602252 0.000769165 6.48642e-16)
(0.00551755 0.000700905 -1.15929e-15)
(0.00505952 0.000722201 8.78225e-15)
(0.0048789 0.000720885 8.17135e-15)
(0.00426052 0.00111873 -8.34928e-14)
(-0.00665975 -0.340611 1.05749e-14)
(-0.0360772 -0.336103 2.86378e-15)
(-0.0623776 -0.289316 1.02621e-15)
(-0.093736 -0.290223 -6.49207e-15)
(-0.114285 -0.274406 9.644e-16)
(-0.132386 -0.252335 -1.44117e-14)
(-0.150271 -0.231374 1.03517e-13)
(-0.160898 -0.206827 3.05482e-14)
(-0.166368 -0.180438 -2.51375e-13)
(-0.168508 -0.155087 8.46528e-14)
(-0.165563 -0.130095 2.71003e-13)
(-0.159041 -0.106725 3.40371e-13)
(-0.148659 -0.0883838 7.85403e-14)
(-0.13632 -0.0753077 -3.84249e-13)
(-0.127447 -0.0622551 -9.75824e-14)
(-0.105195 -0.0633257 -9.8585e-14)
(-0.0900456 -0.0604108 -1.7873e-13)
(-0.0753959 -0.059927 -3.62043e-13)
(-0.0636547 -0.062161 -6.29018e-13)
(-0.0595325 -0.0698868 1.58957e-13)
(-0.0712836 -0.0742426 -1.26544e-13)
(-0.118159 -0.0875758 -1.78613e-13)
(-0.176415 -0.0770966 2.24419e-15)
(-0.214901 -0.0519696 -2.51776e-13)
(-0.200861 -0.0215973 -4.63839e-14)
(-0.145008 -0.0046947 4.39268e-14)
(-0.039858 -0.0143529 5.27691e-14)
(-0.107216 -0.00407529 -2.40928e-14)
(-0.079714 0.0032017 3.36098e-14)
(-0.0704843 0.00834091 6.53176e-14)
(0.0326747 -0.00348091 -5.721e-14)
(0.0723955 -0.00425691 1.14125e-14)
(0.106153 -0.00822732 1.78885e-13)
(0.0918578 -0.0103022 8.2959e-14)
(0.0742825 -0.0104028 -3.34863e-14)
(0.0614273 -0.0109205 -1.09285e-13)
(0.0605946 -0.0117682 -2.72346e-14)
(0.0557583 -0.0132238 -2.03521e-14)
(0.0366447 -0.00485823 5.60455e-14)
(0.0181764 -0.323772 -1.80038e-15)
(0.0390971 -0.28176 -3.90865e-14)
(0.0557144 -0.226273 -3.46789e-14)
(0.0659989 -0.186715 -2.8453e-14)
(0.0690333 -0.145341 1.14695e-13)
(0.0644815 -0.103155 2.05562e-13)
(0.0534802 -0.0662583 1.19438e-14)
(0.0505953 -0.0554808 1.41948e-13)
(0.0613216 -0.0577777 1.88156e-16)
(0.0671594 -0.0528146 -3.14863e-14)
(0.0692316 -0.0445729 -8.98086e-14)
(0.0673289 -0.0366406 -2.99278e-14)
(0.0633982 -0.0297448 -1.5672e-14)
(0.0589715 -0.0235545 7.43969e-14)
(0.0540624 -0.0182381 -3.90447e-14)
(0.0487245 -0.0140768 -1.32026e-13)
(0.0437282 -0.0109442 -1.68164e-14)
(0.0392881 -0.00852093 8.61321e-14)
(0.0353264 -0.00663543 -2.61098e-15)
(0.0317595 -0.00517722 -2.43027e-14)
(0.0286286 -0.0040163 -6.54408e-14)
(0.0258463 -0.00306928 2.67124e-14)
(0.0233163 -0.00225829 3.50913e-14)
(0.0209182 -0.00151041 -6.05804e-15)
(0.0186424 -0.000759893 -2.74764e-15)
(0.0165128 -0.000132872 5.96345e-15)
(0.0145486 0.000273292 8.57351e-15)
(0.0128274 0.000582758 -2.00612e-15)
(0.0113201 0.000817978 -7.31764e-16)
(0.00998742 0.0009418 1.88859e-16)
(0.00885184 0.000905692 -1.17106e-16)
(0.00798084 0.000873881 -1.95568e-16)
(0.00722084 0.000863672 5.82154e-17)
(0.00648823 0.000711856 -2.38583e-16)
(0.00518617 -0.00148389 -1.99011e-15)
(0.00484907 -0.00105294 1.47372e-14)
(0.00468214 0.000495233 -2.22031e-14)
(0.00471332 0.00137633 -5.56091e-14)
(0.00421887 0.00111163 -3.06241e-14)
(0.00699816 -0.28417 -8.98016e-15)
(-0.0136795 -0.280489 4.89107e-15)
(-0.033481 -0.244749 4.01423e-15)
(-0.0569345 -0.249449 -1.70832e-14)
(-0.0722675 -0.239339 -1.43504e-14)
(-0.0862651 -0.223719 3.47404e-14)
(-0.10071 -0.21062 -1.29395e-14)
(-0.109417 -0.193595 1.3804e-14)
(-0.114764 -0.174394 -9.36415e-14)
(-0.117465 -0.155698 -2.86072e-13)
(-0.116055 -0.136747 -1.02683e-14)
(-0.111818 -0.118705 -1.24992e-13)
(-0.105048 -0.102656 -8.08779e-14)
(-0.0973907 -0.0882798 -1.4442e-14)
(-0.0886119 -0.0762177 -3.29262e-13)
(-0.0827053 -0.0613218 2.99269e-13)
(-0.0796818 -0.0481212 1.71676e-13)
(-0.0760524 -0.0398863 -3.85658e-13)
(-0.0718399 -0.0353231 1.22215e-13)
(-0.0681333 -0.0337441 -2.00783e-13)
(-0.0668914 -0.0345648 -1.39276e-13)
(-0.0724265 -0.0347987 2.51127e-13)
(-0.0863434 -0.028994 6.308e-15)
(-0.108214 -0.0156713 2.21274e-13)
(-0.126681 6.86826e-05 1.0095e-13)
(-0.139954 0.0134564 -2.04958e-14)
(-0.171177 0.0209759 6.2216e-15)
(-0.0867376 0.00484611 2.47076e-14)
(-0.0897397 9.43062e-05 -3.01513e-14)
(-0.0884656 0.00539005 -5.40458e-14)
(-0.0827129 0.00887759 2.21604e-14)
(-0.082649 0.00349963 -5.30908e-14)
(-0.0595675 0.00713214 -4.02296e-14)
(0.0437768 -0.00841544 -1.49308e-13)
(0.058193 -0.00541247 -2.43044e-13)
(0.0669573 -0.0102517 4.20729e-14)
(0.0674563 -0.0125377 -1.13379e-14)
(0.0637035 -0.0154104 -9.66039e-15)
(0.0547059 -0.00586674 -1.97405e-14)
(0.0245177 -0.270101 2.01115e-14)
(0.037999 -0.237597 3.82961e-14)
(0.0488446 -0.192835 -5.03927e-14)
(0.0566336 -0.162005 -1.97155e-14)
(0.0597048 -0.129123 7.41579e-14)
(0.0569827 -0.0954987 -1.50764e-13)
(0.0526679 -0.0713245 -9.97933e-14)
(0.0545261 -0.0635658 2.04124e-13)
(0.0632316 -0.0616187 1.92509e-13)
(0.0676727 -0.055302 -8.10762e-15)
(0.0689306 -0.047402 -5.57724e-14)
(0.0673365 -0.0396766 -3.49078e-14)
(0.0636701 -0.0327462 1.17163e-13)
(0.0592479 -0.0266644 -5.78928e-14)
(0.0544597 -0.0214648 -1.29935e-14)
(0.0492715 -0.0172253 9.80947e-14)
(0.0443224 -0.0139504 -4.43116e-14)
(0.0398032 -0.0113752 4.06239e-14)
(0.0357555 -0.00931383 2.43271e-14)
(0.0320921 -0.0076513 4.23498e-15)
(0.0288587 -0.00628622 6.8146e-14)
(0.0259803 -0.00512831 -2.5536e-14)
(0.0233541 -0.00410507 -4.75384e-14)
(0.0208586 -0.003152 -7.60216e-15)
(0.0185163 -0.00224972 1.89866e-14)
(0.0163628 -0.0014952 6.40973e-16)
(0.0143891 -0.000961661 9.18084e-15)
(0.0126529 -0.000569142 -1.72214e-15)
(0.0111361 -0.000258584 1.08417e-16)
(0.0097945 -4.08777e-05 -2.6663e-16)
(0.0086044 0.000102607 -4.89475e-16)
(0.00767585 0.000345666 5.1604e-17)
(0.0068921 0.000487563 1.37592e-17)
(0.00617271 0.000857877 3.98102e-16)
(0.00578405 0.00409848 -1.42108e-15)
(0.0051237 0.00332813 5.36969e-15)
(0.00462683 0.000979583 1.71186e-15)
(0.0045116 -8.44964e-05 -1.14835e-14)
(0.00412245 0.00122088 4.33421e-14)
(-0.000918109 -0.23746 2.17061e-15)
(-0.0191567 -0.234118 -4.32117e-16)
(-0.035201 -0.206433 2.42628e-15)
(-0.0560398 -0.211081 -3.30047e-15)
(-0.0697978 -0.202567 1.10744e-14)
(-0.0825966 -0.189737 -1.62793e-15)
(-0.0962853 -0.179041 -4.16207e-14)
(-0.104891 -0.164423 7.80555e-14)
(-0.110841 -0.147984 1.68806e-13)
(-0.11463 -0.131689 -1.05288e-13)
(-0.114592 -0.114828 -1.07582e-13)
(-0.112076 -0.0984291 6.47059e-14)
(-0.10748 -0.0834271 -1.49204e-13)
(-0.101015 -0.07018 -2.81889e-14)
(-0.0936926 -0.0586572 -4.60065e-14)
(-0.0866466 -0.047866 1.98617e-14)
(-0.0763332 -0.0458252 4.02543e-14)
(-0.0696358 -0.0448083 4.46257e-13)
(-0.0638984 -0.0459331 3.52841e-13)
(-0.0601984 -0.048317 -1.57347e-13)
(-0.0601547 -0.0507777 2.25523e-13)
(-0.0638889 -0.0497547 1.87893e-14)
(-0.0690768 -0.0396903 -5.72517e-14)
(-0.0708916 -0.021242 -1.18403e-13)
(-0.0665692 -0.00447252 9.30055e-15)
(-0.0547549 0.00392296 3.22341e-14)
(-0.0459716 0.00589297 3.99457e-14)
(-0.0418687 0.00391444 -3.77994e-14)
(-0.039761 0.00261851 9.83274e-15)
(-0.0200996 -0.000598235 7.59058e-14)
(-0.0724777 0.00402274 -2.96403e-14)
(-0.062222 -0.00110471 -1.66995e-13)
(-0.0583345 0.0041635 -8.96131e-14)
(-0.0493694 0.00530795 -6.09528e-14)
(-0.0431077 0.00160583 6.39208e-14)
(0.0160511 -0.00365168 5.84689e-14)
(0.0538695 -0.00940515 5.90596e-14)
(0.0656573 -0.0155875 6.61691e-14)
(0.0602918 -0.0063212 -1.25321e-15)
(0.014907 -0.226188 -9.15323e-15)
(0.0277535 -0.201343 -1.06358e-14)
(0.0385072 -0.165807 2.54798e-15)
(0.0465659 -0.141444 3.39082e-14)
(0.0504276 -0.11501 2.31043e-14)
(0.0499229 -0.087637 -1.94423e-13)
(0.0501003 -0.0717517 -1.17055e-13)
(0.0551224 -0.0669544 -1.8374e-13)
(0.0623371 -0.0632306 2.29713e-14)
(0.0660459 -0.0564146 2.06833e-14)
(0.067108 -0.0486924 -5.21175e-14)
(0.0659359 -0.0411132 4.95148e-15)
(0.0628407 -0.0340691 -2.45683e-14)
(0.0588517 -0.0278246 -4.57601e-14)
(0.0544444 -0.0224457 -1.42043e-13)
(0.049629 -0.017915 -1.19934e-14)
(0.0449169 -0.014282 8.61743e-14)
(0.0405075 -0.0113727 -1.33478e-14)
(0.0364901 -0.00903006 1.66871e-14)
(0.0328183 -0.00714437 -3.04627e-14)
(0.02953 -0.00562174 -4.67326e-14)
(0.026568 -0.00436441 -4.19802e-15)
(0.023838 -0.00329673 1.75975e-14)
(0.0212324 -0.00235183 1.89984e-14)
(0.0187931 -0.00149408 -5.93072e-16)
(0.0165806 -0.000779293 -9.98078e-15)
(0.0145639 -0.000267287 -1.68206e-14)
(0.0127824 0.00010393 3.25654e-15)
(0.0112257 0.000398616 -1.88371e-16)
(0.00985237 0.000603495 2.93955e-16)
(0.00864196 0.00075855 4.66042e-16)
(0.00766539 0.000838431 -5.09036e-17)
(0.00689874 0.000888752 2.27025e-16)
(0.00623324 0.000812323 -9.12683e-16)
(0.00595781 -0.000277042 3.52468e-16)
(0.00534174 -0.000101018 -1.44868e-14)
(0.0045111 0.00076901 2.27375e-14)
(0.0042214 0.000835657 5.79967e-14)
(0.00456586 0.000322942 -2.15364e-14)
(3.95189e-05 -0.202207 9.70612e-16)
(-0.0146404 -0.199417 -2.76072e-16)
(-0.0276224 -0.177846 5.80352e-16)
(-0.044742 -0.183033 3.37276e-15)
(-0.0561075 -0.176665 -8.74495e-15)
(-0.0668366 -0.166749 -1.88598e-14)
(-0.0784406 -0.159229 4.5202e-14)
(-0.0858862 -0.148208 -9.00711e-15)
(-0.0911907 -0.135522 5.0429e-14)
(-0.0948342 -0.122962 1.02566e-13)
(-0.0952319 -0.109633 2.20761e-14)
(-0.0935838 -0.0964701 3.42604e-14)
(-0.0901725 -0.0842774 2.15728e-13)
(-0.0849995 -0.0731343 3.66171e-13)
(-0.0791229 -0.0632043 3.31904e-13)
(-0.0724272 -0.0550544 -5.43725e-15)
(-0.066352 -0.0468736 4.04368e-13)
(-0.0632638 -0.0409635 2.6371e-14)
(-0.061121 -0.0377363 -1.18963e-13)
(-0.0601857 -0.0364828 1.57291e-13)
(-0.0618397 -0.0367068 -2.607e-13)
(-0.0665316 -0.0359589 1.09942e-13)
(-0.0718438 -0.029881 1.1075e-13)
(-0.0713926 -0.0170915 4.47165e-14)
(-0.0625691 -0.00390459 1.20347e-13)
(-0.050298 0.00398651 -4.94251e-14)
(-0.0381632 0.00582168 -4.27074e-14)
(-0.0303781 0.00429237 6.31143e-15)
(-0.0262458 0.00314898 2.63483e-14)
(-0.0249192 0.00298949 -7.02188e-14)
(-0.023409 0.00195286 -6.86615e-14)
(-0.0221821 0.00014551 1.40114e-13)
(-0.0229486 -0.00232726 3.15533e-14)
(-0.0778583 0.00986096 -6.01017e-14)
(-0.0499473 0.00239411 -4.9984e-16)
(-0.0321496 -0.00258526 -1.44332e-13)
(-0.0167201 0.0012104 -5.23789e-14)
(0.0407444 -0.0122329 -2.037e-14)
(0.060742 -0.00698696 -3.23651e-14)
(0.0128391 -0.192724 -6.64449e-15)
(0.0233892 -0.172863 -1.26335e-14)
(0.0324318 -0.143938 6.07845e-15)
(0.0396053 -0.124197 8.30936e-14)
(0.0434027 -0.102443 3.54519e-14)
(0.0439701 -0.0796053 9.97091e-16)
(0.0462212 -0.0692525 1.82488e-13)
(0.0536245 -0.0672616 -8.42177e-14)
(0.0598017 -0.0626979 -1.35386e-13)
(0.0632131 -0.055994 4.89966e-14)
(0.06438 -0.0487862 9.80129e-14)
(0.0635821 -0.041686 -2.41022e-14)
(0.0610383 -0.0349525 6.84151e-14)
(0.0575797 -0.0289249 9.20917e-15)
(0.0536138 -0.0236908 3.52597e-14)
(0.0491876 -0.0191883 1.25562e-14)
(0.0447775 -0.0154954 -3.92227e-14)
(0.0405432 -0.0124985 3.23758e-14)
(0.0366053 -0.0100674 -2.44441e-14)
(0.0329622 -0.0080913 4.46006e-15)
(0.0296647 -0.00648581 6.49163e-14)
(0.0266558 -0.00515273 -2.24687e-14)
(0.023865 -0.00401249 -3.03271e-14)
(0.0211981 -0.00300332 6.55704e-15)
(0.0187177 -0.00210627 -1.62108e-15)
(0.0164883 -0.00136145 2.96413e-15)
(0.0144652 -0.000807955 8.50722e-15)
(0.012673 -0.000400267 -1.46083e-15)
(0.0111073 -8.28217e-05 -1.37728e-16)
(0.00973165 0.000147297 1.92892e-16)
(0.00851921 0.000291768 1.40349e-15)
(0.00751332 0.000438205 1.78911e-16)
(0.0067713 0.000544643 -9.45211e-16)
(0.00610658 0.00061028 -1.82373e-16)
(0.00550124 0.000674151 -4.29188e-16)
(0.00498815 0.000748672 4.33408e-15)
(0.00443095 0.000646408 -8.99001e-15)
(0.00422482 0.000555181 -1.4274e-14)
(0.00404593 0.00113244 -5.31301e-14)
(-0.00146656 -0.17342 2.73713e-15)
(-0.0140523 -0.170866 -3.06799e-15)
(-0.0250328 -0.153761 7.63413e-20)
(-0.0399085 -0.158763 2.40532e-15)
(-0.0498939 -0.153517 -1.87587e-15)
(-0.0593935 -0.145394 2.58884e-15)
(-0.0698563 -0.139593 8.65333e-15)
(-0.0766969 -0.130416 -1.08625e-13)
(-0.0818619 -0.119824 -1.44984e-14)
(-0.0857695 -0.109345 1.69583e-13)
(-0.0867878 -0.0978514 -7.1692e-14)
(-0.0860808 -0.0863069 -1.52474e-13)
(-0.0838202 -0.075346 -2.97895e-13)
(-0.0799307 -0.0650195 -2.45888e-13)
(-0.0751448 -0.0556873 -1.69019e-13)
(-0.0696838 -0.0474435 -6.16753e-14)
(-0.0640485 -0.0400434 -2.26494e-13)
(-0.0594599 -0.0372237 -3.14718e-13)
(-0.0569639 -0.03643 -1.39302e-13)
(-0.0557452 -0.036719 3.57243e-13)
(-0.0568692 -0.037114 3.28194e-13)
(-0.0607387 -0.03579 -2.17964e-14)
(-0.0660224 -0.0299069 -5.03412e-14)
(-0.067796 -0.0186682 -1.59337e-13)
(-0.0620637 -0.00669007 -9.27271e-14)
(-0.0513511 0.00100689 4.27218e-14)
(-0.040545 0.00363319 3.30089e-14)
(-0.0326246 0.00306451 3.71061e-15)
(-0.0273754 0.00236417 -1.98238e-14)
(-0.0226791 0.00199388 7.3941e-14)
(-0.0192226 0.00103199 1.54538e-13)
(-0.0168901 0.000243403 -1.05286e-14)
(-0.0209138 0.00219485 2.7303e-14)
(-0.019713 0.00167271 4.73899e-14)
(-0.0259896 0.00317794 -1.87971e-14)
(-0.0570854 0.00443969 1.75134e-13)
(-0.0551835 0.00203495 8.07038e-14)
(-0.0168862 -0.00253096 -6.53848e-14)
(0.0408598 -0.00500896 -1.97369e-14)
(0.00974541 -0.165348 1.65988e-14)
(0.0190336 -0.149353 2.03514e-14)
(0.02715 -0.125721 8.13358e-15)
(0.0338171 -0.109486 9.8108e-14)
(0.0377078 -0.0912414 -1.73332e-13)
(0.0396948 -0.0748122 8.95547e-14)
(0.04375 -0.0676564 1.51584e-13)
(0.0510966 -0.065547 6.66593e-14)
(0.0565028 -0.060889 -3.66634e-14)
(0.0596233 -0.054572 -3.4345e-14)
(0.060974 -0.0479877 2.17678e-14)
(0.060585 -0.0414645 3.71343e-14)
(0.058587 -0.0351532 -8.97364e-14)
(0.05571 -0.0294198 6.45335e-14)
(0.052255 -0.0243536 1.64432e-14)
(0.0482915 -0.0198948 -1.11396e-14)
(0.0442627 -0.0161413 -5.76721e-14)
(0.0402904 -0.0130256 -5.76745e-14)
(0.0365167 -0.0104534 4.8891e-14)
(0.0329693 -0.0083329 1.42613e-14)
(0.0297152 -0.00659494 4.91023e-15)
(0.026708 -0.00515231 5.14473e-14)
(0.0238911 -0.00393059 2.08429e-14)
(0.0211874 -0.0028714 -2.43919e-15)
(0.0186855 -0.00195555 6.78782e-15)
(0.0164449 -0.00120204 -4.72203e-15)
(0.014416 -0.000632707 -9.28425e-15)
(0.0126135 -0.000211201 1.36333e-15)
(0.0110351 0.000113044 -1.19187e-15)
(0.00965058 0.000347965 -4.02656e-16)
(0.00843129 0.000513054 -1.03032e-15)
(0.00738496 0.000627286 1.12128e-15)
(0.00665988 0.000726848 2.77318e-15)
(0.00601744 0.000762369 2.36893e-15)
(0.0054265 0.00076559 1.36144e-15)
(0.00490342 0.000728235 -5.26745e-15)
(0.00444076 0.00068891 3.20327e-15)
(0.00421848 0.000673398 3.61458e-14)
(0.00373921 0.00117835 4.12112e-14)
(-0.0017058 -0.149867 7.4745e-16)
(-0.0124195 -0.147807 1.78833e-15)
(-0.0217097 -0.134178 -2.53847e-15)
(-0.0344658 -0.138883 3.49428e-15)
(-0.043104 -0.134768 -7.37454e-15)
(-0.0512984 -0.128121 1.09353e-14)
(-0.0604732 -0.123797 -1.31594e-14)
(-0.0665836 -0.116531 -2.44039e-14)
(-0.0712621 -0.10797 -3.27553e-14)
(-0.0750119 -0.0995599 -4.62617e-14)
(-0.076262 -0.0901113 1.86036e-14)
(-0.0760295 -0.0804798 1.77377e-13)
(-0.0744705 -0.071226 2.40288e-13)
(-0.0714074 -0.0623394 3.86301e-14)
(-0.0674764 -0.0542087 5.0382e-15)
(-0.0629156 -0.0469764 1.1453e-14)
(-0.0578917 -0.04101 -4.0552e-14)
(-0.0540498 -0.036039 1.28318e-13)
(-0.052782 -0.0337842 1.17293e-13)
(-0.0524591 -0.0326189 -2.70609e-13)
(-0.0538062 -0.0317461 -2.76203e-14)
(-0.0568661 -0.0299731 5.70426e-14)
(-0.0607387 -0.0251771 -7.34655e-14)
(-0.0622089 -0.0164312 7.81332e-14)
(-0.0580931 -0.00672611 1.1198e-15)
(-0.0496874 -1.08786e-05 -1.45035e-14)
(-0.0407831 0.00265423 -4.25122e-14)
(-0.0339747 0.00253783 1.74441e-15)
(-0.0294548 0.0020496 -4.07289e-17)
(-0.0257902 0.00181604 3.4929e-14)
(-0.0222933 0.00107961 1.70244e-14)
(-0.0189345 0.000365242 -7.45077e-14)
(-0.0152763 -0.000108623 -3.45279e-14)
(-0.0142968 0.000290243 1.72479e-13)
(-0.0131334 0.000516205 2.69486e-14)
(-0.0239416 0.00479562 -1.28483e-13)
(-0.0338208 -0.000775421 -4.24924e-14)
(-0.0679785 0.00915613 5.11225e-14)
(0.0025186 -0.00142992 -1.20935e-15)
(0.00791233 -0.142987 3.45438e-15)
(0.0159793 -0.129902 -4.88271e-14)
(0.0231239 -0.110334 2.40324e-14)
(0.0291948 -0.0967672 2.14552e-14)
(0.0329462 -0.0814033 4.62638e-14)
(0.0360153 -0.0699741 -1.55146e-14)
(0.041136 -0.0651955 -3.68906e-14)
(0.0479274 -0.0626872 -3.84133e-15)
(0.0528245 -0.0582172 -2.80506e-15)
(0.0557285 -0.052445 1.38545e-14)
(0.0572286 -0.0465083 3.99777e-14)
(0.0572066 -0.0406208 6.59041e-14)
(0.0557201 -0.034845 -4.54149e-15)
(0.0534084 -0.0295237 -1.34704e-13)
(0.0504601 -0.0247309 2.62365e-14)
(0.0469745 -0.0204341 7.68454e-14)
(0.0433545 -0.0167425 5.89929e-14)
(0.0396735 -0.0136115 2.682e-14)
(0.0361098 -0.010991 -2.22078e-14)
(0.0327013 -0.00880681 -5.90446e-15)
(0.029525 -0.0070026 -2.34761e-14)
(0.0265481 -0.00549956 -4.30744e-14)
(0.0237337 -0.00422846 1.77417e-14)
(0.0210241 -0.00313348 1.67204e-14)
(0.0185253 -0.00220072 2.98085e-15)
(0.0162941 -0.00143863 1.69033e-14)
(0.014276 -0.000853334 5.90331e-15)
(0.0124782 -0.000415891 -9.97073e-16)
(0.0109015 -8.31071e-05 1.11542e-15)
(0.00952019 0.000162247 4.50408e-16)
(0.00830376 0.000329759 -1.26576e-15)
(0.00724396 0.000455894 -1.49197e-15)
(0.00652575 0.000564055 -7.3801e-16)
(0.00590738 0.000616181 -3.92549e-16)
(0.00533851 0.00064719 2.73081e-15)
(0.00483978 0.00064582 -4.76603e-16)
(0.00439899 0.000638806 1.17235e-14)
(0.004211 0.000590095 -1.28671e-14)
(0.00417388 0.000684407 -6.11463e-15)
(-0.00204864 -0.130307 3.83582e-15)
(-0.0112938 -0.128495 -1.37308e-15)
(-0.0193616 -0.117528 -2.69016e-15)
(-0.0304591 -0.121857 -3.52176e-15)
(-0.0380796 -0.118523 1.34544e-14)
(-0.0453376 -0.113056 -1.78841e-14)
(-0.0535035 -0.109759 -5.22582e-15)
(-0.0590026 -0.103718 3.46757e-14)
(-0.0634006 -0.096656 1.93549e-14)
(-0.0670407 -0.0896987 3.55196e-14)
(-0.0685007 -0.0816586 7.97781e-14)
(-0.0687277 -0.0733901 6.4478e-14)
(-0.0677753 -0.0653101 -1.51955e-13)
(-0.0654528 -0.0573889 -2.44855e-13)
(-0.0623524 -0.0500299 4.19915e-14)
(-0.0585597 -0.0433904 3.11578e-13)
(-0.0544029 -0.0375462 6.39861e-14)
(-0.0503588 -0.0328638 -1.77303e-13)
(-0.0492458 -0.0308337 -3.34579e-14)
(-0.0490677 -0.0300397 3.08642e-14)
(-0.0502369 -0.0292225 -6.90875e-14)
(-0.0527056 -0.0274047 -8.91947e-14)
(-0.0556616 -0.0230758 1.00698e-14)
(-0.0567375 -0.0156296 6.89407e-14)
(-0.0534125 -0.00724666 5.99391e-14)
(-0.0465075 -0.00108918 -3.3949e-15)
(-0.038958 0.00171152 3.582e-14)
(-0.0329817 0.00201831 6.41882e-15)
(-0.028978 0.00176393 6.15552e-14)
(-0.0259466 0.00162462 -4.57776e-14)
(-0.0233489 0.00109782 -1.59842e-13)
(-0.0211363 0.000573773 -5.09354e-14)
(-0.0192603 0.000406088 2.83937e-14)
(-0.0170697 0.000399393 1.53054e-14)
(-0.013971 0.000154206 -4.08109e-15)
(-0.00990509 -0.00111915 5.36148e-15)
(-0.0146155 -0.00265656 1.8227e-14)
(-0.0446655 -0.00434307 4.6421e-15)
(-0.0247076 0.00588665 2.47456e-14)
(0.00631039 -0.12435 -8.59997e-15)
(0.0134384 -0.113479 -7.7364e-15)
(0.0198022 -0.097201 -1.34422e-14)
(0.025263 -0.0857925 -1.74008e-14)
(0.0288401 -0.0727486 2.99041e-14)
(0.0326103 -0.0648695 -4.30274e-14)
(0.0382722 -0.0618591 -1.73171e-14)
(0.0444619 -0.0592166 6.61613e-14)
(0.0489824 -0.0550512 -3.97383e-14)
(0.0517213 -0.0498355 7.0371e-14)
(0.0533493 -0.0445705 6.77742e-14)
(0.0536347 -0.0393221 4.37685e-14)
(0.0525881 -0.0341045 3.28621e-14)
(0.0507968 -0.0292407 4.8949e-14)
(0.0483616 -0.0247826 -1.39729e-14)
(0.0453429 -0.0206956 3.13037e-15)
(0.0421402 -0.0171144 3.52601e-14)
(0.0387883 -0.0140084 2.71384e-14)
(0.0354682 -0.0113609 -2.57233e-15)
(0.0322358 -0.00912146 -5.43327e-14)
(0.029176 -0.00724965 -9.51781e-15)
(0.0262653 -0.00567839 2.03635e-16)
(0.0234857 -0.00434815 -3.82414e-14)
(0.0207956 -0.00321012 4.17099e-15)
(0.0183227 -0.00225274 -6.30112e-15)
(0.0161144 -0.0014757 -1.29236e-14)
(0.0141166 -0.000871921 9.06521e-16)
(0.0123314 -0.000416607 8.46275e-17)
(0.0107611 -7.15103e-05 5.60761e-17)
(0.00938415 0.000185971 -4.94178e-16)
(0.00817198 0.000365257 1.14882e-15)
(0.00711523 0.000496565 3.3232e-15)
(0.00638511 0.0006005 -1.24474e-15)
(0.00578652 0.00065114 -4.14384e-15)
(0.00523926 0.000675576 -1.81133e-15)
(0.00475849 0.000663204 9.73688e-15)
(0.00433996 0.000646632 -3.41536e-14)
(0.0041583 0.000583158 -3.03445e-14)
(0.00411639 0.00063023 3.64193e-14)
(-0.00222134 -0.113803 -2.76244e-15)
(-0.0102253 -0.112304 8.14709e-16)
(-0.0172214 -0.103445 3.60546e-15)
(-0.026896 -0.107378 2.39678e-15)
(-0.033608 -0.10465 5.6103e-15)
(-0.0400045 -0.100123 4.8759e-15)
(-0.0472566 -0.0976077 -1.81983e-14)
(-0.0522328 -0.0927135 -4.87375e-14)
(-0.0562591 -0.086876 -4.48011e-14)
(-0.059694 -0.0811505 -9.30757e-15)
(-0.0612275 -0.0743922 -5.63856e-14)
(-0.0617411 -0.0674071 -1.86574e-14)
(-0.0612012 -0.0604944 1.41142e-13)
(-0.05943 -0.0536017 7.19347e-14)
(-0.0569457 -0.0471291 -3.21794e-15)
(-0.0538086 -0.0411944 -2.37936e-13)
(-0.050282 -0.0359477 -6.36128e-14)
(-0.0466914 -0.0314914 2.19714e-13)
(-0.0454835 -0.0288108 1.05387e-13)
(-0.0456654 -0.0275321 -4.92007e-14)
(-0.0468397 -0.0263207 -6.04783e-15)
(-0.048944 -0.024338 4.87004e-14)
(-0.0512625 -0.0205267 1.31169e-14)
(-0.0520622 -0.0143843 -9.10754e-14)
(-0.0493167 -0.00734643 -1.52974e-13)
(-0.0435172 -0.00186396 4.60756e-14)
(-0.0369556 0.00092813 -8.58533e-15)
(-0.0315067 0.00154773 -9.64183e-15)
(-0.0276921 0.00149575 -3.48277e-14)
(-0.0248559 0.00143264 -2.76955e-14)
(-0.0225716 0.00104618 4.72394e-14)
(-0.0208547 0.000625982 1.65694e-13)
(-0.0195606 0.000427152 5.10163e-14)
(-0.0183417 0.000427301 -1.30054e-13)