/*--------------------------------*- C++ -*----------------------------------*\
| =========                 |                                                 |
| \\      /  F ield         | OpenFOAM: The Open Source CFD Toolbox           |
|  \\    /   O peration     | Version:  2206                                  |
|   \\  /    A nd           | Website:  www.openfoam.com                      |
|    \\/     M anipulation  |                                                 |
\*---------------------------------------------------------------------------*/
FoamFile
{
    version     2.0;
    format      ascii;
    arch        "LSB;label=32;scalar=64";
    class       volScalarField;
    location    "200";
    object      p;
}
// * * * * * * * * * * * * * * * * * * * * * * * * * * * * * * * * * * * * * //

dimensions      [0 2 -2 0 0 0 0];

internalField   nonuniform List<scalar> 
10720
(
-59.833
-130.965
-214.634
-297.149
-373.464
-451.224
-520.27
-578.3
-628.753
-668.288
-698.463
-720.729
-736.205
-745.655
-749.251
-746.349
-737.853
-722.707
-702.314
-676.67
-649.017
-622.232
-599.068
-571.845
-531.654
-480.845
-428.881
-383.553
-344.463
-307.706
-271.371
-235.34
-199.664
-163.984
-127.892
-90.3628
-51.8386
-7.14991
26.6788
11.324
76.1652
145.207
209.614
264.601
306.161
330.513
338.544
335.943
322.809
301.672
278.079
254.493
231.692
210.318
190.223
171.454
153.579
136.327
119.205
102.161
84.8849
67.4688
50.3263
35.3294
23.5194
13.8322
5.98053
0.148512
-3.70038
-5.8144
-6.34086
-5.36207
-2.88353
1.10452
6.95865
15.2573
29.2618
53.0909
44.7185
-9.32036
-69.8776
-134.216
-200.354
-268.069
-333.816
-395.518
-452.487
-502.968
-546.736
-583.796
-614.07
-637.551
-654.065
-663.292
-665.98
-662.009
-652.404
-637.662
-620.317
-602.627
-585.823
-563.154
-526.527
-477.867
-427.187
-382.417
-343.527
-306.863
-270.57
-234.583
-198.982
-163.398
-127.416
-89.9869
-51.5449
-6.84381
26.3718
93.3345
139.661
185.845
230.358
269.547
300.792
320.948
329.428
327.81
316.956
299.682
279.432
258.128
236.718
215.91
195.944
176.943
158.724
141.087
123.704
106.473
89.188
71.9315
55.1297
40.2582
28.2453
18.4047
10.3208
3.95818
-0.582435
-3.31403
-4.33145
-3.73804
-1.56581
2.1851
7.86204
16.0276
29.9535
52.8448
58.3639
9.81435
-44.8652
-105.245
-167.871
-232.087
-296.323
-357.927
-415.318
-467.493
-513.2
-551.899
-583.269
-607.478
-624.773
-635.555
-639.871
-637.769
-629.873
-616.863
-600.519
-582.791
-564.902
-542.696
-509.544
-465.751
-419.258
-377.012
-339.546
-303.916
-268.477
-233.147
-197.98
-162.66
-126.851
-89.5571
-51.2226
-6.59785
26.4853
102.162
144.688
186.959
226.953
261.47
288.884
307.092
315.83
315.828
307.754
293.707
276.03
256.489
236.25
216.125
196.545
177.703
159.562
141.978
124.706
107.612
90.554
73.5961
57.1213
42.2946
30.0205
19.9257
11.6541
5.19222
0.627642
-2.10389
-3.16027
-2.6591
-0.613597
3.0081
8.57114
16.648
30.4386
52.4419
80.6455
39.9383
-6.57192
-57.7292
-111.454
-167.679
-224.742
-280.886
-334.788
-385.293
-431.278
-472.016
-507.033
-536.174
-559.314
-576.585
-587.532
-592.106
-590.6
-583.592
-572.313
-558.252
-542.288
-521.775
-491.948
-452.717
-410.169
-370.342
-334.278
-299.745
-265.283
-230.774
-196.277
-161.496
-126.084
-89.0689
-50.9211
-6.50225
26.6686
117.101
152.097
187.18
221.003
250.579
274.637
291.378
300.34
301.763
296.126
285.027
270.208
253.122
234.863
216.221
197.677
179.501
161.774
144.441
127.354
110.412
93.5389
76.8073
60.5765
45.8076
33.3514
23.039
14.5459
7.82836
2.94836
-0.150885
-1.57326
-1.39441
0.391761
3.82114
9.24811
17.2259
30.8422
51.9904
86.6237
50.3813
8.7771
-37.3142
-85.8512
-137.246
-190.126
-242.883
-294.509
-343.848
-389.754
-431.417
-468.157
-499.473
-525.059
-544.62
-557.885
-564.858
-565.759
-561.179
-552.094
-539.747
-524.819
-505.439
-477.934
-441.927
-402.211
-364.146
-329.118
-295.444
-261.806
-228.042
-194.195
-159.977
-125.05
-88.4557
-50.6236
-6.54657
26.7002
119.161
150.228
181.457
211.564
237.912
259.622
275.315
284.42
286.965
283.384
274.828
262.609
247.867
231.559
214.436
197.003
179.594
162.384
145.406
128.601
111.912
95.3086
78.8751
62.9435
48.3071
35.7401
25.2332
16.5282
9.58649
4.47619
1.1703
-0.416691
-0.366443
1.31146
4.64614
9.98587
17.871
31.2765
51.5297
90.2636
58.1727
21.1424
-19.8502
-63.0291
-109.095
-156.767
-204.769
-252.363
-298.492
-342.188
-382.684
-419.242
-451.261
-478.313
-500.02
-516.258
-526.826
-531.719
-531.276
-526.138
-517.173
-504.807
-487.696
-463.047
-430.43
-393.717
-357.676
-323.906
-291.18
-258.356
-225.292
-192.055
-158.382
-123.94
-87.7923
-50.3543
-6.76056
26.5449
119.077
146.485
174.238
201.191
224.908
244.741
259.572
268.729
272.121
270.173
263.729
253.803
241.286
226.975
211.544
195.472
179.108
162.681
146.289
129.945
113.642
97.3931
81.2992
65.6761
51.1997
38.5738
27.9099
19.0274
11.8924
6.56952
3.04421
1.23307
1.05946
2.52087
5.66039
10.8312
18.5605
31.6952
51.0287
90.0763
61.1132
27.6043
-9.52321
-48.5533
-90.4187
-133.984
-178.131
-222.366
-265.754
-307.454
-346.782
-382.989
-415.424
-443.57
-466.971
-485.222
-498.047
-505.287
-507.198
-504.3
-497.275
-486.463
-470.95
-448.66
-419.097
-385.254
-351.236
-318.752
-286.991
-254.989
-222.613
-189.945
-156.773
-122.813
-87.1478
-50.1753
-7.18009
26.1755
116.108
140.792
165.915
190.416
212.06
230.387
244.481
253.605
257.625
256.955
252.241
244.275
233.759
221.338
207.586
192.928
177.703
162.166
146.464
130.669
114.823
98.9803
83.2621
67.9701
53.6908
41.0634
30.284
21.2472
13.93
8.39618
4.64591
2.61432
2.23663
3.51914
6.50936
11.5539
19.157
32.0162
50.453
88.3049
62.0132
31.532
-2.21068
-37.5865
-75.6523
-115.363
-155.744
-196.475
-236.755
-275.862
-313.224
-348.15
-380.003
-408.224
-432.301
-451.767
-466.378
-475.922
-480.45
-480.241
-475.713
-467.042
-453.566
-433.77
-407.205
-376.195
-344.264
-313.174
-282.475
-251.386
-219.782
-187.755
-155.121
-121.647
-86.4829
-50.0627
-7.78295
25.542
111.971
134.365
157.284
179.746
199.665
216.745
230.175
239.191
243.673
243.993
240.672
234.355
225.597
214.915
202.786
189.567
175.568
161.043
146.164
131.042
115.76
100.409
85.1263
70.2042
56.1674
43.5991
32.753
23.5958
16.1227
10.3998
6.44306
4.20364
3.62482
4.71673
7.53303
12.4155
19.8474
32.3631
49.8751
85.3356
61.26
33.3156
2.40447
-29.9009
-64.7213
-101.112
-138.193
-175.787
-213.198
-249.821
-285.195
-318.697
-349.73
-377.746
-402.204
-422.609
-438.587
-449.849
-456.274
-458.014
-455.353
-448.393
-436.668
-419.078
-395.218
-366.864
-336.99
-307.332
-277.735
-247.592
-216.796
-185.448
-153.397
-120.438
-85.7849
-49.957
-8.47459
24.6345
107.039
127.544
148.632
169.385
187.849
203.87
216.694
225.555
230.36
231.442
229.241
224.293
217.052
207.93
197.316
185.5
172.747
159.293
145.314
130.947
116.304
101.504
86.7016
72.1816
58.4234
45.9642
35.0946
25.8466
18.238
12.3399
8.18301
5.73551
4.95264
5.85251
8.4956
13.2167
20.4736
32.6275
49.2372
81.7259
59.5525
33.7979
5.34416
-24.2971
-56.2714
-89.6997
-123.79
-158.463
-193.11
-227.234
-260.468
-292.26
-322.089
-349.429
-373.738
-394.507
-411.322
-423.875
-431.944
-435.52
-434.729
-429.566
-419.674
-404.255
-382.971
-357.18
-329.37
-301.201
-272.757
-243.599
-213.648
-183.012
-151.578
-119.172
-85.0584
-49.8336
-9.20565
23.5119
101.749
120.644
140.169
159.456
176.67
191.766
204.033
212.704
217.722
219.388
218.081
214.262
208.313
200.568
191.34
180.857
169.337
156.985
143.966
130.426
116.496
102.312
88.0425
73.9667
60.5313
48.2363
37.3947
28.0938
20.3788
14.3279
9.98664
7.34193
6.36049
7.06691
9.52894
14.0724
21.128
32.8725
48.5688
77.7408
57.2095
33.3524
7.02991
-20.295
-49.7809
-80.6019
-112.037
-144.066
-176.162
-207.922
-239.06
-269.097
-297.577
-324.025
-347.926
-368.771
-386.122
-399.613
-408.951
-413.984
-414.737
-411.15
-402.936
-389.515
-370.607
-347.236
-321.453
-294.803
-267.551
-239.414
-210.341
-180.453
-149.668
-117.848
-84.3113
-49.6921
-9.98922
22.238
96.3133
113.823
131.996
150.012
166.137
180.411
192.155
200.617
205.763
207.871
207.276
204.385
199.53
192.983
185.002
175.759
165.427
154.173
142.143
129.477
116.313
102.8
89.109
75.5147
62.4418
50.3597
39.5934
30.276
22.4814
16.2979
11.7858
8.95042
7.7728
8.28488
10.5624
14.9205
21.7604
33.069
47.8647
73.5817
54.4899
32.3002
7.85238
-17.4392
-44.7265
-73.2277
-102.278
-131.907
-161.648
-191.169
-220.261
-248.508
-275.528
-300.893
-324.124
-344.736
-362.283
-376.366
-386.67
-392.921
-395.051
-392.939
-386.332
-374.801
-358.114
-337.036
-313.243
-288.138
-262.118
-235.037
-206.879
-177.773
-147.671
-116.471
-83.5508
-49.5522
-10.8393
20.8332
90.8865
107.187
124.175
141.068
156.237
169.768
181.016
189.258
194.466
196.905
196.877
194.746
190.809
185.297
178.424
170.317
161.106
150.923
139.887
128.124
115.769
102.971
89.9016
76.8281
64.1584
52.3381
41.6961
32.4025
24.5596
18.2683
13.6035
10.5894
9.22192
9.54002
11.6277
15.7877
22.3906
33.2296
47.13
69.3767
51.555
30.843
8.05575
-15.4373
-40.7722
-67.2062
-94.1165
-121.575
-149.163
-176.603
-203.747
-230.239
-255.762
-279.943
-302.349
-322.524
-340.029
-354.441
-365.434
-372.646
-375.925
-375.112
-369.977
-360.188
-345.551
-326.627
-304.767
-281.219
-256.462
-230.468
-203.259
-174.971
-145.586
-115.041
-82.7763
-49.4332
-11.7558
19.304
85.5572
100.796
116.73
132.623
146.937
159.793
170.572
178.585
183.806
186.488
186.907
185.399
182.231
177.609
171.708
164.627
156.459
147.3
137.243
126.393
114.872
102.822
90.41
77.8937
65.6654
54.1516
43.681
34.4511
26.5918
20.2178
15.419
12.2378
10.6867
10.8117
12.7058
16.6578
23.0065
33.3499
46.367
65.2108
48.5208
29.1299
7.82625
-14.0627
-37.6527
-62.2352
-87.2199
-112.712
-138.332
-163.843
-189.146
-213.943
-237.967
-260.907
-282.373
-301.941
-319.195
-333.703
-345.135
-353.085
-357.325
-357.661
-353.872
-345.691
-332.948
-316.042
-296.049
-274.057
-250.587
-225.709
-199.479
-172.043
-143.412
-113.556
-81.9845
-49.3404
-12.7363
17.6648
80.3872
94.6781
109.672
124.663
138.21
150.442
160.776
168.557
173.751
176.608
177.38
176.379
173.855
169.991
164.941
158.777
151.564
143.372
134.263
124.316
113.64
102.361
90.635
78.7079
66.9567
55.7919
45.5383
36.4133
28.5712
22.1421
17.2303
13.8966
12.1701
12.1045
13.8013
17.5346
23.6105
33.4339
45.5799
61.139
45.4669
27.2647
7.29633
-13.1541
-35.1769
-58.0905
-81.3398
-105.047
-128.864
-152.595
-176.177
-199.357
-221.921
-243.6
-264.055
-282.901
-299.747
-314.171
-325.835
-334.322
-339.335
-340.657
-338.073
-331.357
-320.349
-305.322
-287.119
-266.668
-244.501
-220.761
-195.54
-168.988
-141.146
-112.015
-81.1745
-49.2688
-13.7784
15.9265
75.4129
88.8514
102.994
117.17
130.016
141.673
151.586
159.13
164.269
167.244
168.294
167.706
165.719
162.502
158.191
152.841
146.497
139.202
130.994
121.93
112.094
101.598
90.5796
79.2679
68.0253
57.2483
47.2545
38.2749
30.4845
24.0288
19.0265
15.556
13.6635
13.4105
14.9073
18.4122
24.1983
33.4819
44.7724
57.1975
42.4485
25.3228
6.56398
-12.5889
-33.1936
-54.597
-76.2745
-98.3579
-120.528
-142.619
-164.598
-186.249
-207.4
-227.828
-247.236
-265.279
-281.597
-295.788
-307.505
-316.351
-321.97
-324.126
-322.608
-317.215
-307.79
-294.506
-278.007
-259.072
-238.214
-215.631
-191.443
-165.808
-138.788
-110.418
-80.346
-49.2159
-14.8751
14.0953
70.6544
83.3215
96.6898
110.121
122.325
133.445
142.959
150.265
155.327
158.379
159.644
159.392
157.853
155.185
151.513
146.881
141.319
134.849
127.49
119.274
110.263
100.548
90.2495
79.5741
68.8683
58.5137
48.8197
40.0248
32.321
25.8684
20.7997
17.2099
15.1625
14.7268
16.0216
19.2888
24.769
33.4964
43.9486
53.4108
39.5017
23.3568
5.7009
-12.275
-31.5905
-51.6232
-71.8704
-92.4735
-113.138
-133.721
-154.208
-174.421
-194.222
-213.426
-231.778
-248.971
-264.675
-278.515
-290.142
-299.19
-305.262
-308.106
-307.515
-303.302
-295.312
-283.634
-268.748
-251.291
-231.74
-210.326
-187.192
-162.502
-136.338
-108.765
-79.4986
-49.1796
-16.0182
12.1777
66.1217
78.0874
90.7463
103.493
115.104
125.722
134.855
141.926
146.893
149.988
151.418
151.438
150.272
148.072
144.951
140.95
136.086
130.368
123.798
116.387
108.177
99.2336
89.6566
79.6309
69.4838
59.582
50.2244
41.6518
34.0692
27.6501
22.54
18.8499
16.6599
16.0476
17.1393
20.1607
25.3203
33.4794
43.1125
49.7924
36.6521
21.4084
4.75942
-12.14
-30.2813
-49.0616
-68.0049
-87.2548
-106.539
-125.731
-144.838
-163.705
-182.226
-200.248
-217.552
-233.868
-248.899
-262.297
-273.721
-282.833
-289.222
-292.62
-292.821
-289.651
-282.952
-272.745
-259.376
-243.35
-225.094
-204.855
-182.792
-159.072
-133.796
-107.055
-78.6309
-49.1591
-17.1991
10.1854
61.8184
73.141
85.1465
97.2606
108.322
118.469
127.239
134.077
138.938
142.048
143.602
143.843
142.989
141.185
138.539
135.089
130.846
125.809
119.965
113.311
105.866
97.6755
88.8153
79.4459
69.8738
60.45
51.4609
43.146
35.7186
29.3634
24.238
20.4678
18.1489
17.3675
18.256
21.0246
25.8506
33.4336
42.269
46.3489
33.9169
19.5019
3.7815
-12.1332
-29.1961
-46.83
-64.5779
-82.5893
-100.605
-118.517
-136.345
-153.957
-171.268
-188.158
-204.435
-219.869
-234.19
-247.08
-258.213
-267.273
-273.861
-277.688
-278.553
-276.293
-270.746
-261.88
-249.926
-235.275
-218.293
-199.229
-178.249
-155.523
-131.164
-105.287
-77.7419
-49.1524
-18.4089
8.13018
57.7435
68.4733
79.8744
91.4024
101.949
111.653
120.077
126.685
131.431
134.534
136.18
136.599
136.005
134.537
132.301
129.332
125.638
121.213
116.034
110.083
103.363
95.8984
87.7414
79.0284
70.0428
61.1168
52.5238
44.4987
37.259
30.998
25.8838
22.0549
19.6219
18.6802
19.3666
21.8768
26.3583
33.3615
41.4227
43.0836
31.3069
17.6581
2.7947
-12.2122
-28.2839
-44.8622
-61.5135
-78.3862
-95.2359
-111.965
-128.608
-145.048
-161.222
-177.034
-192.32
-206.878
-220.471
-232.807
-243.582
-252.497
-259.179
-263.323
-264.733
-263.255
-258.729
-251.077
-240.436
-227.095
-211.358
-193.461
-173.571
-151.857
-128.442
-103.463
-76.8297
-49.1567
-19.6392
6.02516
53.8927
64.074
74.9136
85.8957
95.9596
105.244
113.338
119.721
124.346
127.426
129.138
129.701
129.322
128.14
126.256
123.706
120.498
116.619
112.043
106.742
100.702
93.9294
86.4558
78.3922
69.9971
61.5832
53.4094
45.7027
38.6811
32.5438
27.4675
23.602
21.071
19.9791
20.4659
22.7138
26.8419
33.2658
40.578
39.9955
28.8273
15.8906
1.82203
-12.3464
-27.5019
-43.1072
-58.7477
-74.5708
-90.345
-105.984
-121.529
-136.88
-151.988
-166.777
-181.11
-194.811
-207.669
-219.422
-229.789
-238.483
-245.17
-249.532
-251.377
-250.565
-246.933
-240.371
-230.941
-218.84
-204.312
-187.566
-168.768
-148.08
-125.634
-101.581
-75.8921
-49.1675
-20.8803
3.88456
50.261
59.9316
70.2475
80.7187
90.3294
99.2176
106.996
113.158
117.658
120.702
122.459
123.136
122.938
121.999
120.418
118.232
115.45
112.059
108.028
103.32
97.9127
91.7958
84.9801
77.5523
69.7456
61.8526
54.1159
46.7523
39.9768
33.9915
28.9794
25.0999
22.4879
21.2572
21.5483
23.5316
27.3002
33.1494
39.7396
37.0824
26.4813
14.2074
0.878975
-12.5114
-26.8181
-41.5224
-56.2292
-71.0811
-85.8623
-100.493
-115.021
-129.358
-143.469
-157.294
-170.716
-183.585
-195.715
-206.869
-216.791
-225.207
-231.823
-236.317
-238.499
-238.242
-235.388
-229.799
-221.476
-210.541
-197.176
-181.562
-163.852
-144.2
-122.743
-99.644
-74.9272
-49.1804
-22.1222
1.72318
46.8402
56.0344
65.8595
75.8512
85.0349
93.5479
101.023
106.971
111.344
114.342
116.126
116.894
116.846
116.113
114.793
112.925
110.518
107.56
104.017
99.8508
95.0273
89.5246
83.3359
76.5248
69.2997
61.9309
54.644
47.6437
41.1391
35.3322
30.4101
26.5392
23.8643
22.507
22.608
24.3265
27.732
33.015
38.9119
34.3402
24.2686
12.6148
-0.0225556
-12.6906
-26.2068
-40.0753
-53.9161
-67.87
-81.7304
-95.4279
-109.012
-122.406
-135.584
-148.503
-161.06
-173.128
-184.543
-195.094
-204.547
-212.644
-219.125
-223.675
-226.108
-226.305
-224.118
-219.391
-212.077
-202.23
-189.978
-175.468
-158.835
-140.224
-119.772
-97.6512
-73.9323
-49.1898
-23.3555
-0.444982
43.6219
52.3712
61.7356
71.275
80.056
88.2126
95.3981
101.136
105.38
108.325
110.123
110.963
111.04
110.484
109.389
107.797
105.718
103.143
100.038
96.3608
92.0735
87.1426
81.5467
75.329
68.6725
61.8257
54.9962
48.3748
42.1625
36.5583
31.7506
27.9109
25.1915
23.721
23.6389
25.0944
28.1361
32.865
38.0993
31.7635
22.188
11.1154
-0.874844
-12.8684
-25.6483
-38.7386
-51.775
-64.8946
-77.9027
-90.7342
-103.442
-115.958
-128.265
-140.332
-152.071
-163.373
-174.092
-184.043
-193.014
-200.762
-207.057
-211.598
-214.206
-214.768
-213.148
-209.179
-202.775
-193.938
-182.744
-169.304
-153.732
-136.162
-116.727
-95.604
-72.9054
-49.1893
-24.5695
-2.6045
40.5982
48.9293
57.8605
66.9738
75.3732
83.1902
90.0974
95.6318
99.748
102.634
104.435
105.331
105.512
105.106
104.205
102.853
101.063
98.8262
96.1112
92.8758
89.0771
84.6749
79.6356
73.9836
67.8786
61.5462
55.1765
48.9454
43.0431
37.6629
32.9926
29.206
26.4606
24.8913
24.6349
25.8313
28.5115
32.7021
37.3056
29.3457
20.2371
9.71058
-1.67265
-13.0347
-25.1268
-37.4903
-49.7775
-62.1216
-74.3371
-86.3641
-98.2575
-109.956
-121.451
-132.718
-143.685
-154.257
-164.306
-173.667
-182.149
-189.529
-195.599
-200.08
-202.794
-203.642
-202.497
-199.189
-193.602
-185.696
-175.5
-163.09
-148.56
-132.025
-113.613
-93.5043
-71.843
-49.1727
-25.7537
-4.74057
37.7601
45.6981
54.2202
62.9298
70.9675
78.4611
85.1018
90.4395
94.4286
97.2512
99.0458
99.9852
100.254
99.9754
99.2425
98.0999
96.5627
94.6241
92.2558
89.4166
86.0616
82.145
77.6243
72.5082
66.9332
61.1038
55.1914
49.3569
43.7782
38.6408
34.1285
30.416
27.6635
26.0102
25.5897
26.5333
28.8573
32.5284
36.5343
27.081
18.4124
8.39985
-2.4127
-13.1824
-24.6302
-36.3143
-47.902
-59.5232
-71.0004
-82.2796
-93.4147
-104.352
-115.089
-125.608
-135.847
-145.725
-155.132
-163.919
-171.914
-178.915
-184.73
-189.106
-191.871
-192.935
-192.182
-189.445
-184.586
-177.532
-168.272
-156.85
-143.334
-127.823
-110.437
-91.3528
-70.7435
-49.1319
-26.8974
-6.83808
35.0991
42.6661
50.8012
59.1279
66.8222
74.0077
80.392
85.5397
89.4035
92.1603
93.9419
94.9136
95.2545
95.0861
94.4985
93.5379
92.2221
90.5468
88.4865
86.0017
83.0476
79.5745
75.534
70.9211
65.8523
60.5102
55.0485
49.6126
44.367
39.4874
35.152
31.5332
28.7921
27.0701
26.497
27.1965
29.1725
32.3457
35.7885
24.9629
16.709
7.18215
-3.09293
-13.3059
-24.1486
-35.1962
-46.1298
-57.0758
-67.8642
-78.4467
-88.8758
-99.1043
-109.134
-118.952
-128.506
-137.729
-146.522
-154.753
-162.269
-168.885
-174.424
-178.662
-181.43
-182.648
-182.216
-179.969
-175.755
-169.475
-161.088
-150.607
-138.075
-123.57
-107.206
-89.1537
-69.6035
-49.0603
-27.9916
-8.88196
32.6061
39.8225
47.5912
55.5548
62.922
69.8139
75.952
80.9154
84.6562
87.3454
89.1087
90.1039
90.5049
90.4305
89.9691
89.1676
88.046
86.6026
84.815
82.6465
80.0527
76.9834
73.3849
69.2423
64.6527
59.7786
54.7567
49.7172
44.8103
40.2002
36.0575
32.5505
29.8384
28.0635
27.3508
27.8167
29.456
32.1554
35.0706
22.9844
15.123
6.0546
-3.71231
-13.4016
-23.6752
-34.1249
-44.4465
-54.7603
-64.9059
-74.8382
-84.6098
-94.1766
-103.546
-112.708
-121.62
-130.223
-138.432
-146.129
-153.178
-159.409
-164.658
-168.732
-171.464
-172.784
-172.608
-170.776
-167.13
-161.552
-153.975
-144.383
-132.798
-119.281
-103.929
-86.9079
-68.4212
-48.9513
-29.0253
-10.8585
30.2724
37.1571
44.5785
52.1964
59.2522
65.8639
71.7655
76.5507
80.171
82.7919
84.5329
85.5444
85.9957
86.0019
85.6498
84.9873
84.0359
82.7967
81.2505
79.3631
77.0926
74.389
71.1957
67.4891
63.3502
58.9224
54.3262
49.6768
45.11
40.7778
36.8411
33.4616
30.7954
28.9835
28.1453
28.3904
29.7068
31.9588
34.3824
21.1388
13.6492
5.01492
-4.2715
-13.4669
-23.2048
-33.092
-42.8389
-52.5608
-62.1053
-71.4295
-80.5872
-89.5375
-98.289
-106.839
-115.149
-123.168
-130.824
-138.01
-144.604
-150.454
-155.408
-159.297
-161.962
-163.342
-163.365
-161.884
-158.734
-153.786
-146.955
-138.201
-127.525
-114.967
-100.614
-84.6195
-67.1942
-48.7955
-29.99
-12.7544
28.0903
34.6601
41.7515
49.0402
55.799
62.1428
67.8177
72.4305
75.9332
78.4855
80.201
81.2232
81.7161
81.7919
81.5346
80.9936
80.1916
79.1321
77.7991
76.1617
74.1806
71.8065
68.9823
65.6784
61.9605
57.9552
53.7677
49.4989
45.2701
41.2203
37.4994
34.2616
31.6569
29.8236
28.8749
28.9137
29.924
31.7565
33.725
19.4196
12.2823
4.05995
-4.7717
-13.5005
-22.7325
-32.0903
-41.2967
-50.4633
-59.4443
-68.2005
-76.7843
-85.1587
-93.3342
-101.311
-109.056
-116.528
-123.659
-130.359
-136.516
-141.993
-146.65
-150.34
-152.913
-154.316
-154.491
-153.301
-150.583
-146.2
-140.053
-132.084
-122.273
-110.644
-97.2703
-82.2925
-65.9205
-48.5877
-30.8757
-14.5574
26.0513
32.3219
39.0997
46.0749
52.55
58.6374
64.0947
68.5409
71.9293
74.413
76.1007
77.1289
77.6559
77.7918
77.6174
77.1827
76.512
75.6105
74.4656
73.05
71.3267
69.249
66.7599
63.8255
60.499
56.8908
53.0926
49.1916
45.2953
41.5291
38.0314
34.9464
32.4175
30.5778
29.5344
29.3832
30.1061
31.5488
33.0987
17.8201
11.0175
3.186
-5.21428
-13.502
-22.2562
-31.1145
-39.8125
-48.4572
-56.9102
-65.1344
-73.1815
-81.0178
-88.6546
-96.0952
-103.312
-110.269
-116.907
-123.144
-128.881
-133.997
-138.359
-141.841
-144.303
-145.7
-145.987
-145.037
-142.693
-138.813
-133.29
-126.052
-117.061
-106.328
-93.9082
-79.9303
-64.5994
-48.3209
-31.6751
-16.2569
24.1478
30.134
36.613
43.2892
49.4932
55.3352
60.583
64.8693
68.1463
70.5623
72.22
73.2501
73.8057
73.993
73.891
73.5494
72.9941
72.2317
71.2528
70.0335
68.5399
66.7277
64.5416
61.9448
58.9798
55.7427
52.3124
48.764
45.1916
41.707
38.4364
35.5135
33.0728
31.2413
30.1193
29.7957
30.2521
31.3354
32.5032
16.334
9.84957
2.38953
-5.60139
-13.4714
-21.7737
-30.1605
-38.3798
-46.5339
-54.4908
-62.2167
-69.7612
-77.0941
-84.2274
-91.167
-97.8892
-104.363
-110.535
-116.335
-121.673
-126.439
-130.511
-133.781
-136.118
-137.486
-137.851
-137.097
-135.074
-131.641
-126.686
-120.125
-111.909
-102.032
-90.5372
-77.538
-63.2303
-47.9893
-32.3807
-17.8432
22.3723
28.0881
34.282
40.6723
46.6173
52.2243
57.271
61.4028
64.5717
66.9208
68.5477
69.5769
70.1556
70.3871
70.3482
70.0886
69.6343
68.9946
68.1621
67.1163
65.8266
64.2517
62.3386
60.049
57.4161
54.5235
51.4389
48.2258
44.9659
41.758
38.7159
35.9615
33.6197
31.8099
30.6257
30.1482
30.3606
31.1158
31.9373
14.9551
8.77329
1.66674
-5.93529
-13.4094
-21.2837
-29.2248
-36.9922
-44.6845
-52.1752
-59.4338
-66.5078
-73.3698
-80.0329
-86.5037
-92.763
-98.783
-104.519
-109.906
-114.864
-119.294
-123.085
-126.141
-128.345
-129.666
-130.08
-129.484
-127.736
-124.699
-120.257
-114.321
-106.832
-97.7707
-87.1678
-75.121
-61.8125
-47.5884
-32.9859
-19.3073
20.7176
26.1756
32.0977
38.2148
43.912
49.2937
54.1473
58.1299
61.1942
63.4777
65.0728
66.098
66.6956
66.9655
66.9817
66.7939
66.4287
65.8965
65.1932
64.3006
63.1918
61.8285
60.1604
58.1491
55.8201
53.2455
50.4832
47.5867
44.6259
41.6873
38.8719
36.2901
34.0562
32.2805
31.0501
30.4382
30.4302
30.8887
31.3994
13.6772
7.78375
1.01374
-6.21848
-13.3169
-20.7858
-28.3051
-35.6462
-42.9026
-49.9552
-56.7749
-63.4079
-69.8289
-76.0521
-82.0852
-87.9114
-93.5072
-98.8335
-103.831
-108.429
-112.538
-116.058
-118.902
-120.967
-122.229
-122.67
-122.199
-120.685
-117.996
-114.018
-108.657
-101.847
-93.5585
-83.8103
-72.6845
-60.3479
-47.1137
-33.4854
-20.6428
19.1768
24.3891
30.0515
35.9074
41.3673
46.5331
51.2009
55.0399
58.0028
60.2218
61.7845
62.8037
63.4163
63.7192
63.7838
63.659
63.372
62.9348
62.3449
61.5877
60.6388
59.4635
58.0148
56.2547
54.2025
51.9201
49.4566
46.8568
44.1799
41.5008
38.9081
36.5006
34.3813
32.651
31.3901
30.6634
30.4595
30.653
30.887
12.4947
6.87595
0.426679
-6.45369
-13.1953
-20.2798
-27.3999
-34.338
-41.1839
-47.8237
-54.2311
-60.4506
-66.4589
-72.2703
-77.8937
-83.315
-88.5138
-93.4556
-98.0876
-102.346
-106.15
-109.409
-112.047
-113.971
-115.162
-115.612
-115.241
-113.926
-111.543
-107.981
-103.147
-96.9684
-89.4086
-80.475
-70.2348
-58.8373
-46.5634
-33.8757
-21.8438
17.7434
22.7211
28.1354
33.7413
38.9739
43.9325
48.4218
52.1224
54.987
57.1427
58.6731
59.6843
60.3089
60.6402
60.747
60.6774
60.4593
60.1055
59.6155
58.9773
58.1698
57.1614
55.9085
54.3743
52.5731
50.5576
48.3696
46.0459
43.6365
41.2052
38.8293
36.5954
34.5957
32.9208
31.6439
30.8223
30.4472
30.4067
30.3972
11.4019
6.04523
-0.098354
-6.64365
-13.0463
-19.7658
-26.5076
-33.0647
-39.5233
-45.7743
-51.7942
-57.6255
-63.2469
-68.6733
-73.9139
-78.9567
-83.7841
-88.3658
-92.6546
-96.5932
-100.109
-103.119
-105.556
-107.34
-108.455
-108.9
-108.605
-107.459
-105.345
-102.157
-97.8031
-92.2097
-85.3332
-77.1716
-67.7782
-57.2833
-45.936
-34.1536
-22.9066
16.4111
21.1648
26.3417
31.7084
36.7232
41.4829
45.8003
49.3673
52.1371
54.2311
55.7289
56.7307
57.3644
57.7198
57.8635
57.8425
57.685
57.4043
57.0021
56.4687
55.7857
54.925
53.8465
52.5149
50.9402
49.1676
47.2321
45.1638
43.0045
40.8081
38.6407
36.5779
34.7008
33.0898
31.8108
30.9135
30.3919
30.148
29.9267
10.3934
5.2869
-0.565141
-6.79129
-12.8716
-19.2447
-25.6279
-31.8247
-37.9172
-43.802
-49.4571
-54.9242
-60.1829
-65.2487
-70.1313
-74.8205
-79.3009
-83.5459
-87.5132
-91.1517
-94.395
-97.1694
-99.4136
-101.06
-102.095
-102.524
-102.288
-101.285
-99.4062
-96.553
-92.6362
-87.5822
-81.3434
-73.9097
-65.321
-55.689
-45.2308
-34.3177
-23.8286
15.1739
19.7136
24.6634
29.8008
34.6068
39.1754
43.3276
46.7659
49.4436
51.4773
52.9424
53.9337
54.5742
54.9502
55.1258
55.1475
55.043
54.8267
54.5015
54.0602
53.4868
52.7565
51.8328
50.6823
49.3113
47.7586
46.0533
44.22
42.2928
40.317
38.3487
36.4529
34.6997
33.1595
31.8909
30.9365
30.2926
29.8747
29.4718
9.46409
4.59654
-0.977366
-6.89921
-12.673
-18.7169
-24.7601
-30.6157
-36.3622
-41.9018
-47.2141
-52.3389
-57.2578
-61.986
-66.5339
-70.8925
-75.049
-78.9794
-82.6461
-86.0028
-88.9906
-91.542
-93.6026
-95.1146
-96.0689
-96.4753
-96.2828
-95.3997
-93.7277
-91.174
-87.6539
-83.0957
-77.4493
-70.698
-62.8702
-54.0586
-44.4494
-34.3679
-24.6088
14.0259
18.3611
23.0933
28.0111
32.6168
37.002
40.995
44.3092
46.8978
48.8727
50.3051
51.2848
51.9297
52.3232
52.5267
52.5856
52.5277
52.3677
52.1101
51.7493
51.2724
50.6569
49.8702
48.881
47.6928
46.3382
44.8418
43.2232
41.5103
39.7403
37.9605
36.2256
34.5959
33.1321
31.8851
30.8912
30.1484
29.5846
29.0286
8.60912
3.96961
-1.33859
-6.9703
-12.4525
-18.1833
-23.904
-29.4365
-34.8563
-40.0703
-45.0598
-49.863
-54.4632
-58.8757
-63.1105
-67.1604
-71.0144
-74.6512
-78.0372
-81.1306
-83.8785
-86.2202
-88.1069
-89.4899
-90.3638
-90.7421
-90.5816
-89.8007
-88.3095
-86.0231
-82.8622
-78.7581
-73.6596
-67.5451
-60.4323
-52.3963
-43.594
-34.3055
-25.2479
12.9618
17.1013
21.6252
26.3323
30.746
34.9548
38.7946
41.9889
44.4914
46.4089
47.8087
48.7758
49.4232
49.8313
50.0588
50.1502
50.133
50.0223
49.8238
49.5337
49.1411
48.6266
47.961
47.115
46.0898
44.9132
43.6054
42.182
40.6655
39.0862
37.4832
35.9024
34.3945
33.0108
31.7953
30.7782
29.9585
29.2754
28.5932
7.8237
3.40217
-1.65242
-7.00737
-12.212
-17.6451
-23.0596
-28.2862
-33.397
-38.3038
-42.9892
-47.4904
-51.7918
-55.9086
-59.8509
-63.6126
-67.1845
-70.5476
-73.6717
-76.5195
-79.043
-81.1883
-82.9113
-84.1716
-84.9669
-85.3137
-85.1763
-84.4818
-83.1494
-81.1017
-78.2653
-74.5754
-69.9816
-64.4583
-58.014
-50.7075
-42.6681
-34.1332
-25.7477
11.9763
15.9287
20.253
24.7581
28.9873
33.0266
36.7189
39.7973
42.2163
44.0777
45.4451
46.3988
47.047
47.467
47.7152
47.8348
47.8531
47.7854
47.6383
47.4099
47.0912
46.6653
46.1062
45.3869
44.507
43.4894
42.3511
41.1043
39.7667
38.363
36.9248
35.4901
34.1008
32.7999
31.6243
30.5987
29.7226
28.9452
28.1616
7.10335
2.89013
-1.92216
-7.01311
-11.9534
-17.1036
-22.2272
-27.1642
-31.9826
-36.5994
-40.9988
-45.2162
-49.2373
-53.0772
-56.7461
-60.2388
-63.5477
-66.6558
-69.5361
-72.155
-74.4695
-76.4312
-78.0011
-79.1453
-79.8649
-80.1789
-80.0577
-79.4365
-78.2436
-76.4087
-73.8651
-70.5523
-66.4213
-61.4442
-55.6218
-48.9978
-41.6763
-33.8547
-26.1113
11.0646
14.8377
18.9709
23.2821
27.3341
31.2104
34.7604
37.7272
40.0652
41.8718
43.2069
44.1464
44.7937
45.2233
45.489
45.633
45.682
45.6518
45.5497
45.3749
45.1205
44.7721
44.3065
43.6992
42.9479
42.072
41.0854
39.9974
38.8221
37.5788
36.2933
34.996
33.7213
32.5043
31.3754
30.3545
29.4408
28.592
27.7298
6.44373
2.42973
-2.15109
-6.99014
-11.6787
-16.5598
-21.4072
-26.0695
-30.6117
-34.9549
-39.0848
-43.0353
-46.7937
-50.3743
-53.7878
-57.0297
-60.0933
-62.9641
-65.6177
-68.0239
-70.144
-71.9347
-73.3619
-74.3974
-75.0451
-75.3259
-75.2156
-74.6571
-73.5869
-71.9419
-69.662
-66.6913
-62.9834
-58.5087
-53.2617
-47.2733
-40.624
-33.4751
-26.3433
10.2219
13.8234
17.7732
21.8984
25.7802
29.4996
32.9126
35.7714
38.0308
39.7837
41.0868
42.0113
42.6565
43.0933
43.3738
43.5387
43.6144
43.6166
43.5533
43.4251
43.2266
42.9457
42.5619
42.053
41.4156
40.6653
39.8138
38.8682
37.8391
36.7418
35.5965
34.4276
33.2625
32.1294
31.0528
30.0479
29.1135
28.2142
27.2944
5.84085
2.01723
-2.34224
-6.94102
-11.3896
-16.0148
-20.6001
-25.0022
-29.2829
-33.3677
-37.2438
-40.9437
-44.4554
-47.7936
-50.9684
-53.9763
-56.8119
-59.4621
-61.905
-64.1138
-66.0534
-67.6857
-68.9802
-69.9146
-70.4946
-70.7427
-70.6397
-70.1351
-69.173
-67.6975
-65.6548
-62.9939
-59.6711
-55.6567
-50.9399
-45.54
-39.5173
-33.0003
-26.4493
9.44366
12.8809
16.6549
20.6015
24.3197
27.8881
31.1689
33.9231
36.1064
37.8069
39.0781
39.9868
40.6283
41.0706
41.3633
41.5459
41.6444
41.6745
41.6448
41.557
41.407
41.1846
40.8722
40.4496
39.9123
39.2732
38.5416
37.7228
36.8249
35.8596
34.8425
33.7927
32.7316
31.6814
30.6612
29.6819
28.7417
27.8106
26.852
5.29078
1.64929
-2.49872
-6.8681
-11.0882
-15.4698
-19.8061
-23.9615
-27.9949
-31.8361
-35.4731
-38.9373
-42.218
-45.3291
-48.2811
-51.0709
-53.6942
-56.1394
-58.3871
-60.4127
-62.1855
-63.6711
-64.8432
-65.6839
-66.2009
-66.4176
-66.319
-65.8613
-64.9949
-63.6707
-61.841
-59.46
-56.4868
-52.8921
-48.6615
-43.8042
-38.363
-32.4373
-26.4358
8.72576
12.0056
15.6109
19.386
22.947
26.37
29.5232
32.1764
34.2855
35.9347
37.1741
38.0665
38.7031
39.1489
39.4514
39.649
39.767
39.821
39.8201
39.7669
39.6586
39.4871
39.2368
38.8895
38.4401
37.8988
37.2731
36.567
35.7863
34.9396
34.039
33.0991
32.136
31.1667
30.2055
29.2599
28.3267
27.3803
26.3996
4.78984
1.32257
-2.62335
-6.77375
-10.7763
-14.926
-19.0259
-22.9474
-26.747
-30.358
-33.7699
-37.0126
-40.0767
-42.9755
-45.7195
-48.3061
-50.7322
-52.9871
-55.0536
-56.9101
-58.5287
-59.8791
-60.9383
-61.6927
-62.1514
-62.3387
-62.243
-61.826
-61.0445
-59.8554
-58.2171
-56.0882
-53.4314
-50.2182
-46.4313
-42.0722
-37.1684
-31.7936
-26.3099
8.06414
11.1931
14.6367
18.247
21.6568
24.9398
27.9698
30.5253
32.5622