/*--------------------------------*- C++ -*----------------------------------*\
| =========                 |                                                 |
| \\      /  F ield         | OpenFOAM: The Open Source CFD Toolbox           |
|  \\    /   O peration     | Version:  2206                                  |
|   \\  /    A nd           | Website:  www.openfoam.com                      |
|    \\/     M anipulation  |                                                 |
\*---------------------------------------------------------------------------*/
FoamFile
{
    version     2.0;
    format      ascii;
    arch        "LSB;label=32;scalar=64";
    class       volScalarField;
    location    "200";
    object      turbulenceProperties:epsilon;
}
// * * * * * * * * * * * * * * * * * * * * * * * * * * * * * * * * * * * * * //

dimensions      [0 2 -3 0 0 0 0];

internalField   nonuniform List<scalar> 
10720
(
0.256231
0.336143
0.447976
0.617014
0.831829
1.12418
1.51723
2.01796
2.66279
3.48784
4.54391
5.92166
7.74752
10.2202
13.6754
18.6346
26.0436
37.1539
55.5355
82.965
137.83
213.74
428.241
751.484
767.766
701.076
668.697
666.315
670.14
664.16
644.859
612.72
565.495
504.444
429.815
345.871
242.043
152.655
18.0487
0.191704
0.145166
0.0990037
0.0657111
0.0399229
0.0218018
0.0109869
0.00623434
0.00689542
0.0124267
0.026269
0.0549579
0.108457
0.199793
0.343341
0.558352
0.877114
1.36287
2.13712
3.42626
5.68746
9.78295
17.7778
33.4694
68.212
141.89
321.643
667.262
948.746
1070.11
1103.1
1104.54
1090.81
1064.91
1027.74
981.075
914.732
838.406
620.095
0.00733648
0.00725643
0.00709172
0.00668903
0.00608887
0.00543314
0.00470711
0.00395268
0.00327072
0.00266427
0.00214481
0.00181106
0.00175395
0.00207063
0.00322779
0.00652325
0.0159918
0.0426622
0.132144
0.430001
1.63233
5.92024
21.6372
77.858
156.595
222.93
265.31
273.823
243.714
189.533
134.166
90.9525
62.8135
45.1952
33.8725
26.2267
21.5516
17.5759
20.008
0.00720329
0.00700751
0.0066182
0.00606171
0.00534032
0.00445927
0.00352977
0.00273435
0.00208668
0.00153002
0.00108139
0.000755825
0.000525839
0.000363142
0.000248633
0.00016885
0.000113137
7.45674e-05
4.72164e-05
2.75342e-05
1.3158e-05
4.20506e-06
3.9964e-07
6.7289e-09
6.87555e-08
0.00100387
0.00618547
0.0520414
0.172464
0.322268
0.469976
0.619436
0.778557
0.952004
1.14029
1.3544
1.6028
2.21928
4.12928
0.00329088
0.00323796
0.00309253
0.00287715
0.00266017
0.00243148
0.00221066
0.00202092
0.00186442
0.00174706
0.00165892
0.00160792
0.0015933
0.00161763
0.00162861
0.00153796
0.00119031
0.000885855
8.79837e-06
0.0159711
0.00386057
0.00619823
0.000239264
0.0217803
0.427257
2.09895
6.59941
17.1897
37.1134
63.4991
84.6652
89.2178
77.2318
59.1247
43.2045
31.3165
23.5184
16.6782
20.1885
0.00334308
0.00333544
0.00331802
0.00320148
0.00299882
0.00267227
0.00225385
0.00182125
0.00146045
0.00112938
0.000821011
0.000569431
0.000383195
0.000252244
0.000164703
0.000107615
7.15373e-05
4.90807e-05
3.54042e-05
2.6961e-05
2.1815e-05
1.87691e-05
1.71935e-05
1.63637e-05
1.63223e-05
1.6147e-05
1.82519e-05
6.32875e-06
0.000171473
0.00100173
0.00210245
0.00368294
0.00973068
0.0268694
0.0604931
0.111636
0.178329
0.223435
0.554395
0.00234401
0.00235374
0.00233012
0.00229134
0.0022126
0.00209797
0.00195933
0.00179296
0.00161185
0.00142278
0.00123286
0.00104738
0.000870165
0.000705772
0.000556799
0.000419487
0.000302067
0.000212517
0.000122735
4.06349e-05
8.67336e-11
0.000161649
8.60254e-05
0.00938778
0.0340383
0.0529058
0.0527142
0.000405567
0.00681831
0.287485
2.43735
9.5688
21.7807
32.3222
34.9919
31.0917
25.7686
19.2946
21.0001
0.00229397
0.00221936
0.00210483
0.00197094
0.001809
0.00160709
0.00138662
0.00117018
0.000963855
0.000762393
0.000579308
0.000430574
0.000317462
0.000233736
0.000172954
0.000129039
9.77234e-05
7.54267e-05
5.96169e-05
4.8118e-05
3.96807e-05
3.3221e-05
2.79176e-05
2.28346e-05
1.8142e-05
1.46528e-05
1.22629e-05
1.06831e-05
8.8758e-06
6.90354e-06
3.71879e-06
1.49161e-06
2.28867e-05
1.50228e-05
7.05767e-05
0.000882499
0.00500717
0.0191997
0.141222
0.00132016
0.00131544
0.00129489
0.00125872
0.00120384
0.00113139
0.00104679
0.00095298
0.000854578
0.000758578
0.000668356
0.000587161
0.000517579
0.000460354
0.000415209
0.00037928
0.000343403
0.000302574
0.000260954
0.000207541
9.64475e-05
1.06905e-05
1.51277e-07
4.54965e-09
0
0
0
7.36805e-05
0.0229954
0.00386147
0.0146975
0.0191391
0.0907357
1.77061
7.49578
15.0456
19.5819
18.9429
21.1532
0.00131328
0.00129482
0.00125843
0.00120116
0.00112254
0.00101571
0.000895013
0.000773988
0.000654492
0.000534855
0.000423279
0.000326756
0.000247445
0.000184315
0.000135573
9.89053e-05
7.19959e-05
5.26626e-05
3.90183e-05
2.94085e-05
2.26429e-05
1.77826e-05
1.41365e-05
1.10487e-05
8.29914e-06
6.10832e-06
4.60858e-06
3.69711e-06
3.33138e-06
2.845e-06
4.22242e-06
1.94086e-07
8.75383e-06
5.246e-05
1.10738e-05
3.51082e-05
7.82509e-05
0.000261906
0.0153215
0.000886611
0.000894143
0.000893417
0.000887014
0.000869671
0.000841921
0.000805455
0.00075952
0.000705931
0.000647049
0.00058432
0.000520102
0.000456622
0.000395498
0.0003381
0.000283491
0.000229469
0.000179949
0.00013868
0.000107084
8.43136e-05
5.92449e-05
3.05294e-05
1.70222e-06
4.91749e-08
1.2429e-08
3.54342e-09
6.29608e-11
0
3.74144e-05
0.00304265
0.0261229
0.0307447
0.0511975
0.0239932
1.18675
6.29566
12.771
18.8988
0.000870664
0.000848895
0.0008177
0.000777333
0.000726901
0.000663205
0.000593607
0.000523174
0.000451548
0.000378557
0.000309043
0.000246872
0.000193905
0.000150291
0.000115446
8.83571e-05
6.77507e-05
5.23431e-05
4.09543e-05
3.25325e-05
2.62449e-05
2.1404e-05
1.74714e-05
1.3953e-05
1.07155e-05
8.0286e-06
6.00071e-06
4.53007e-06
3.45579e-06
2.67296e-06
2.08085e-06
1.60371e-06
1.01668e-06
5.09039e-07
1.61399e-07
2.3608e-06
9.77309e-06
5.25184e-05
0.00115096
0.000580355
0.000585432
0.000586243
0.000583251
0.000573995
0.000558145
0.000536351
0.000508372
0.000474973
0.00043766
0.000397661
0.000356519
0.000315905
0.000277182
0.000241294
0.000209222
0.000182119
0.000158617
0.00013638
0.000114912
9.60909e-05
8.16622e-05
6.80526e-05
4.76802e-05
2.40221e-05
8.29739e-06
1.79209e-06
2.259e-08
7.10789e-09
3.23885e-10
0
0
0.0026725
0.0165672
0.00834947
0.0367306
0.256559
4.02142
12.877
0.00057088
0.000558175
0.000539943
0.000515295
0.000484121
0.000445592
0.000404264
0.000361464
0.000317074
0.000271779
0.000227943
0.000187549
0.000151766
0.000121004
9.53076e-05
7.44098e-05
5.77889e-05
4.48439e-05
3.49293e-05
2.73875e-05
2.16518e-05
1.72243e-05
1.36871e-05
1.06706e-05
8.02506e-06
5.86479e-06
4.24496e-06
3.08433e-06
2.25946e-06
1.68428e-06
1.30967e-06
1.09235e-06
9.77378e-07
8.28766e-07
4.25743e-07
2.99685e-08
6.48939e-10
1.14462e-12
2.9534e-05
0.000398666
0.000404104
0.000407354
0.000408658
0.000406427
0.000400356
0.000390769
0.000377113
0.000359607
0.000338905
0.000315306
0.000289625
0.000262714
0.000235327
0.000208214
0.000182114
0.000156904
0.000132171
0.000109255
8.95195e-05
7.36919e-05
6.19127e-05
5.39725e-05
4.79986e-05
4.0174e-05
2.90951e-05
1.82676e-05
9.5553e-06
3.78776e-06
1.83286e-07
6.4328e-09
6.72955e-11
0
0
0.000642631
0.0183698
0.0243038
0.307475
5.4212
0.000390532
0.000380846
0.000368059
0.000351398
0.000331045
0.000306696
0.000281179
0.000254318
0.000226144
0.000197466
0.000169304
0.000142771
0.000118577
9.70941e-05
7.85316e-05
6.29353e-05
5.01205e-05
3.98319e-05
3.17188e-05
2.53788e-05
2.04221e-05
1.64946e-05
1.3283e-05
1.05141e-05
8.07405e-06
6.04482e-06
4.47359e-06
3.30079e-06
2.42592e-06
1.77291e-06
1.2931e-06
9.42133e-07
6.85553e-07
4.97382e-07
3.79847e-07
2.65275e-07
1.38113e-07
1.11422e-09
2.45733e-07
0.000277418
0.000281801
0.000285021
0.000287038
0.000286965
0.000284515
0.000279762
0.000272256
0.000262048
0.000249391
0.000234446
0.000217656
0.000199561
0.000180687
0.000161652
0.000142926
0.00012503
0.000108653
9.37853e-05
8.03231e-05
6.83739e-05
5.8253e-05
5.00279e-05
4.31431e-05
3.65619e-05
2.96885e-05
2.28769e-05
1.72455e-05
1.27027e-05
7.64505e-06
3.97008e-06
6.00791e-08
1.54142e-09
0
0
0
0.0066426
0.0223899
1.16516
0.000271444
0.000264623
0.000255949
0.000244631
0.000231176
0.00021546
0.000199135
0.000181804
0.000163567
0.00014504
0.000126688
0.000109092
9.26667e-05
7.76648e-05
6.42887e-05
5.26603e-05
4.27771e-05
3.45564e-05
2.7846e-05
2.24362e-05
1.80929e-05
1.458e-05
1.16769e-05
9.19472e-06
7.04438e-06
5.26097e-06
3.87449e-06
2.83863e-06
2.07182e-06
1.50761e-06
1.10099e-06
8.18821e-07
6.31684e-07
5.15562e-07
4.5383e-07
4.62416e-07
5.31114e-07
5.91486e-07
3.75568e-10
0.000197144
0.000200774
0.000203831
0.000206209
0.000207325
0.000207042
0.000205322
0.000201805
0.000196486
0.000189432
0.000180632
0.000170304
0.00015872
0.000146168
0.000133008
0.000119578
0.00010628
9.32064e-05
8.05355e-05
6.88381e-05
5.86397e-05
5.01696e-05
4.32647e-05
3.72302e-05
3.12343e-05
2.51618e-05
1.96163e-05
1.53138e-05
1.23578e-05
1.01455e-05
8.50273e-06
5.33566e-06
1.03218e-06
5.22477e-09
1.31796e-14
0
1.39305e-07
0.00107364
0.136904
0.000192534
0.000187534
0.000181402
0.00017348
0.000164341
0.00015399
0.000143215
0.00013175
0.00011975
0.000107568
9.54309e-05
8.36541e-05
7.24486e-05
6.19629e-05
5.23681e-05
4.37872e-05
3.62673e-05
2.98265e-05
2.44093e-05
1.9918e-05
1.62213e-05
1.31681e-05
1.06089e-05
8.41465e-06
6.5152e-06
4.92932e-06
3.6773e-06
2.72467e-06
2.00689e-06
1.46837e-06
1.07029e-06
7.81853e-07
5.75631e-07
4.35593e-07
3.45418e-07
3.27921e-07
3.17794e-07
8.84303e-07
1.28477e-07
0.000142102
0.000144992
0.000147611
0.000149835
0.000151274
0.000151872
0.000151523
0.000150004
0.000147238
0.00014324
0.000137944
0.000131445
0.000123875
0.000115391
0.000106233
9.66536e-05
8.68991e-05
7.72738e-05
6.80427e-05
5.93997e-05
5.15857e-05
4.47276e-05
3.88055e-05
3.3461e-05
2.81387e-05
2.27064e-05
1.76717e-05
1.3648e-05
1.07878e-05
8.86415e-06
7.52678e-06
6.88238e-06
5.40435e-06
2.65423e-06
1.18786e-11
1.14045e-18
0
0.000430859
0.0221452
0.000138602
0.000134932
0.000130569
0.000124942
0.000118612
0.000111659
0.000104373
9.66287e-05
8.86032e-05
8.04759e-05
7.23393e-05
6.43728e-05
5.66885e-05
4.93622e-05
4.24973e-05
3.61955e-05
3.0516e-05
2.55029e-05
2.11636e-05
1.74631e-05
1.43349e-05
1.16943e-05
9.44854e-06
7.5138e-06
5.84319e-06
4.44497e-06
3.32993e-06
2.47263e-06
1.82289e-06
1.3348e-06
9.74681e-07
7.15974e-07
5.35751e-07
4.1761e-07
3.45123e-07
3.36312e-07
3.32406e-07
6.66546e-07
1.02742e-06
0.000103821
0.000106123
0.00010831
0.000110271
0.00011176
0.000112734
0.000113112
0.000112714
0.000111479
0.000109388
0.000106361
0.000102429
9.76427e-05
9.20785e-05
8.58668e-05
7.91617e-05
7.21442e-05
6.50318e-05
5.79353e-05
5.10544e-05
4.4695e-05
3.90322e-05
3.40567e-05
2.95236e-05
2.50449e-05
2.04861e-05
1.61814e-05
1.26105e-05
9.93535e-06
8.01e-06
6.56654e-06
5.675e-06
5.14486e-06
5.15587e-06
2.35452e-06
4.0761e-09
0
8.87578e-05
0.00707003
0.000101147
9.84016e-05
9.52443e-05
9.11954e-05
8.67356e-05
8.19616e-05
7.69398e-05
7.16205e-05
6.61706e-05
6.06629e-05
5.51448e-05
4.97102e-05
4.44107e-05
3.92726e-05
3.43691e-05
2.97653e-05
2.55072e-05
2.16473e-05
1.821e-05
1.5201e-05
1.25968e-05
1.03532e-05
8.41376e-06
6.72843e-06
5.27158e-06
4.04562e-06
3.05686e-06
2.28654e-06
1.69624e-06
1.24857e-06
9.14626e-07
6.71471e-07
4.98354e-07
3.81252e-07
3.07478e-07
2.89364e-07
2.94954e-07
4.86066e-07
1.23661e-06
7.67063e-05
7.85287e-05
8.03169e-05
8.19785e-05
8.33477e-05
8.44017e-05
8.50836e-05
8.52477e-05
8.48433e-05
8.38424e-05
8.21695e-05
7.98262e-05
7.68197e-05
7.31745e-05
6.89677e-05
6.42933e-05
5.92634e-05
5.40464e-05
4.87698e-05
4.35709e-05
3.86338e-05
3.40977e-05
2.99729e-05
2.61263e-05
2.23249e-05
1.84817e-05
1.48279e-05
1.17261e-05
9.33069e-06
7.53487e-06
6.15029e-06
5.09756e-06
4.37622e-06
4.07693e-06
4.67054e-06
1.6851e-06
1.35222e-11
2.1715e-05
0.00230437
7.46619e-05
7.25887e-05
7.02688e-05
6.73279e-05
6.41431e-05
6.08001e-05
5.72814e-05
5.35741e-05
4.98193e-05
4.60419e-05
4.22573e-05
3.85129e-05
3.48331e-05
3.12254e-05
2.77206e-05
2.43641e-05
2.11904e-05
1.82423e-05
1.5549e-05
1.31285e-05
1.09818e-05
9.09199e-06
7.43177e-06
5.97624e-06
4.71232e-06
3.64283e-06
2.77101e-06
2.08369e-06
1.55195e-06
1.14585e-06
8.41193e-07
6.18539e-07
4.60179e-07
3.53326e-07
2.86419e-07
2.67767e-07
2.7467e-07
4.11601e-07
1.045e-06
5.72382e-05
5.86758e-05
6.01248e-05
6.15061e-05
6.27069e-05
6.3723e-05
6.44997e-05
6.49309e-05
6.49814e-05
6.46155e-05
6.37754e-05
6.24415e-05
6.06108e-05
5.82842e-05
5.54936e-05
5.22898e-05
4.87405e-05
4.49639e-05
4.10493e-05
3.70846e-05
3.32099e-05
2.95689e-05
2.61829e-05
2.29733e-05
1.97913e-05
1.65792e-05
1.35012e-05
1.08335e-05
8.72188e-06
7.10249e-06
5.84119e-06
4.84181e-06
4.07752e-06
3.51579e-06
3.36281e-06
5.04541e-06
1.27489e-09
1.66009e-07
0.000530316
5.5659e-05
5.40864e-05
5.23561e-05
5.01998e-05
4.78998e-05
4.55161e-05
4.30101e-05
4.03996e-05
3.77775e-05
3.51535e-05
3.25287e-05
2.99297e-05
2.73605e-05
2.48148e-05
2.23112e-05
1.98706e-05
1.75144e-05
1.52768e-05
1.31845e-05
1.1258e-05
9.50762e-06
7.93423e-06
6.52912e-06
5.28485e-06
4.19758e-06
3.27043e-06
2.50674e-06
1.89721e-06
1.42057e-06
1.05339e-06
7.75677e-07
5.7103e-07
4.24008e-07
3.23478e-07
2.59383e-07
2.38736e-07
2.42325e-07
3.52563e-07
8.45125e-07
4.30793e-05
4.42107e-05
4.53801e-05
4.65102e-05
4.7533e-05
4.84524e-05
4.92131e-05
4.97454e-05
5.00222e-05
5.00094e-05
4.9662e-05
4.89601e-05
4.78855e-05
4.64287e-05
4.45982e-05
4.24231e-05
3.99449e-05
3.72306e-05
3.43606e-05
3.13942e-05
2.84118e-05
2.55364e-05
2.27953e-05
2.01458e-05
1.75016e-05
1.48287e-05
1.22445e-05
9.95953e-06
8.10526e-06
6.65511e-06
5.51326e-06
4.60812e-06
3.88973e-06
3.38225e-06
2.74876e-06
3.99231e-06
1.57679e-06
5.94719e-13
1.96074e-08
4.18513e-05
4.06512e-05
3.93496e-05
3.7751e-05
3.60726e-05
3.43462e-05
3.25397e-05
3.0679e-05
2.88272e-05
2.6984e-05
2.51465e-05
2.3325e-05
2.15186e-05
1.97165e-05
1.79234e-05
1.61514e-05
1.44103e-05
1.27215e-05
1.11066e-05
9.58549e-06
8.17353e-06
6.87882e-06
5.70258e-06
4.64645e-06
3.71605e-06
2.91726e-06
2.25241e-06
1.71531e-06
1.29077e-06
9.60844e-07
7.0936e-07
5.2272e-07
3.87831e-07
2.95028e-07
2.35261e-07
2.14076e-07
2.14962e-07
3.01635e-07
6.87053e-07
3.26663e-05
3.35598e-05
3.44986e-05
3.54168e-05
3.6276e-05
3.70757e-05
3.7775e-05
3.83222e-05
3.86975e-05
3.8873e-05
3.88115e-05
3.8493e-05
3.79016e-05
3.70202e-05
3.58525e-05
3.44047e-05
3.26996e-05
3.07736e-05
2.8692e-05
2.64861e-05
2.42059e-05
2.19497e-05
1.9751e-05
1.75903e-05
1.54147e-05
1.32068e-05
1.10523e-05
9.11039e-06
7.49442e-06
6.2035e-06
5.17232e-06
4.3515e-06
3.69234e-06
3.23497e-06
2.723e-06
2.63398e-06
4.16601e-06
1.00309e-10
2.23993e-11
3.17114e-05
3.0786e-05
2.98002e-05
2.86043e-05
2.73679e-05
2.61004e-05
2.4782e-05
2.34414e-05
2.21185e-05
2.081e-05
1.95104e-05
1.82254e-05
1.69481e-05
1.56657e-05
1.43796e-05
1.30911e-05
1.18066e-05
1.05379e-05
9.30025e-06
8.10957e-06
6.98042e-06
5.92451e-06
4.94878e-06
4.06184e-06
3.27272e-06
2.58909e-06
2.01381e-06
1.54348e-06
1.16759e-06
8.72732e-07
6.4607e-07
4.76486e-07
3.52916e-07
2.67063e-07
2.10986e-07
1.89104e-07
1.87778e-07
2.54919e-07
5.57987e-07
2.49345e-05
2.56424e-05
2.63928e-05
2.71375e-05
2.78495e-05
2.853e-05
2.91482e-05
2.96658e-05
3.00651e-05
3.03271e-05
3.04222e-05
3.03331e-05
3.00472e-05
2.95453e-05
2.88224e-05
2.78778e-05
2.67214e-05
2.53726e-05
2.3877e-05
2.22556e-05
2.05361e-05
1.87868e-05
1.70437e-05
1.53015e-05
1.35291e-05
1.17181e-05
9.93305e-06
8.29415e-06
6.89706e-06
5.75642e-06
4.83109e-06
4.08531e-06
3.48741e-06
3.0362e-06
2.72498e-06
2.13026e-06
4.22748e-06
1.39642e-08
2.07422e-15
2.41917e-05
2.3475e-05
2.272e-05
2.18188e-05
2.08994e-05
1.99578e-05
1.89855e-05
1.801e-05
1.70552e-05
1.61167e-05
1.51896e-05
1.42744e-05
1.3364e-05
1.2448e-05
1.15222e-05
1.05859e-05
9.63916e-06
8.68976e-06
7.74614e-06
6.82074e-06
5.92562e-06
5.07192e-06
4.26957e-06
3.53031e-06
2.86594e-06
2.28438e-06
1.78983e-06
1.38065e-06
1.04991e-06
7.87938e-07
5.8479e-07
4.31515e-07
3.18956e-07
2.40064e-07
1.87878e-07
1.65781e-07
1.6271e-07
2.13919e-07
4.50427e-07
1.91458e-05
1.97065e-05
2.03054e-05
2.0909e-05
2.14927e-05
2.20652e-05
2.25978e-05
2.30641e-05
2.34508e-05
2.37435e-05
2.39179e-05
2.39628e-05
2.38623e-05
2.36021e-05
2.31751e-05
2.25762e-05
2.18086e-05
2.08792e-05
1.98178e-05
1.8639e-05
1.73572e-05
1.60138e-05
1.46467e-05
1.32579e-05
1.1828e-05
1.03547e-05
8.88639e-06
7.51374e-06
6.31619e-06
5.31679e-06
4.49322e-06
3.81899e-06
3.27849e-06
2.84287e-06
2.59788e-06
2.06795e-06
3.01661e-06
9.4872e-07
2.47781e-10
1.85654e-05
1.80078e-05
1.74255e-05
1.67409e-05
1.60518e-05
1.53448e-05
1.46213e-05
1.39041e-05
1.32081e-05
1.25282e-05
1.18607e-05
1.12042e-05
1.05515e-05
9.8928e-06
9.22419e-06
8.54221e-06
7.84489e-06
7.13579e-06
6.41969e-06
5.70438e-06
4.99994e-06
4.31641e-06
3.66311e-06
3.05163e-06
2.49522e-06
2.00389e-06
1.58158e-06
1.22795e-06
9.38778e-07
7.07393e-07
5.26301e-07
3.88432e-07
2.86346e-07
2.14105e-07
1.6568e-07
1.43639e-07
1.39219e-07
1.78031e-07
3.61e-07
1.47785e-05
1.52222e-05
1.5702e-05
1.6188e-05
1.66664e-05
1.7142e-05
1.7595e-05
1.80024e-05
1.83578e-05
1.86478e-05
1.88547e-05
1.89681e-05
1.89776e-05
1.88693e-05
1.86375e-05
1.82739e-05
1.77773e-05
1.71503e-05
1.64073e-05
1.55611e-05
1.46167e-05
1.35967e-05
1.2537e-05
1.14425e-05
1.03008e-05
9.11189e-06
7.91281e-06
6.77209e-06
5.75447e-06
4.88652e-06
4.1594e-06
3.55537e-06
3.066e-06
2.66625e-06
2.40763e-06
2.08223e-06
2.14762e-06
2.27073e-06
7.33103e-08
1.43229e-05
1.38869e-05
1.3435e-05
1.29122e-05
1.23903e-05
1.18557e-05
1.13125e-05
1.07808e-05
1.02684e-05
9.77167e-06
9.28684e-06
8.81165e-06
8.34026e-06
7.864e-06
7.37879e-06
6.88101e-06
6.3672e-06
5.83817e-06
5.29645e-06
4.74702e-06
4.1961e-06
3.65191e-06
3.12326e-06
2.62194e-06
2.16037e-06
1.74802e-06
1.38952e-06
1.08573e-06
8.34431e-07
6.31233e-07
4.70683e-07
3.47306e-07
2.5519e-07
1.89366e-07
1.44678e-07
1.23035e-07
1.17632e-07
1.46807e-07
2.87157e-07
1.14604e-05
1.18123e-05
1.21964e-05
1.25882e-05
1.2978e-05
1.33715e-05
1.37513e-05
1.41019e-05
1.44172e-05
1.46874e-05
1.48993e-05
1.50451e-05
1.51162e-05
1.51021e-05
1.49952e-05
1.4789e-05
1.44794e-05
1.4066e-05
1.35535e-05
1.29543e-05
1.22679e-05
1.15036e-05
1.0691e-05
9.83771e-06
8.93517e-06
7.98436e-06
7.01297e-06
6.07261e-06
5.21534e-06
4.46823e-06
3.8313e-06
3.29499e-06
2.85273e-06
2.49482e-06
2.22074e-06
2.02466e-06
1.77208e-06
2.27302e-06
7.34217e-07
1.11017e-05
1.07591e-05
1.0407e-05
1.00059e-05
9.60627e-06
9.19935e-06
8.78878e-06
8.39067e-06
8.01016e-06
7.64399e-06
7.28879e-06
6.94227e-06
6.59918e-06
6.25297e-06
5.89936e-06
5.53467e-06
5.15559e-06
4.76137e-06
4.35235e-06
3.93149e-06
3.50332e-06
3.07346e-06
2.64894e-06
2.24054e-06
1.85994e-06
1.51596e-06
1.21352e-06
9.54207e-07
7.37206e-07
5.59834e-07
4.18294e-07
3.08456e-07
2.25743e-07
1.66036e-07
1.25004e-07
1.04032e-07
9.79742e-08
1.1989e-07
2.26928e-07
8.92397e-06
9.20413e-06
9.51131e-06
9.82703e-06
1.01442e-05
1.04681e-05
1.0784e-05
1.10814e-05
1.13554e-05
1.15983e-05
1.18004e-05
1.19556e-05
1.20571e-05
1.20964e-05
1.20676e-05
1.19645e-05
1.17819e-05
1.1518e-05
1.11731e-05
1.0757e-05
1.02652e-05
9.70008e-06
9.08447e-06
8.42663e-06
7.72066e-06
6.96696e-06
6.18636e-06
5.41749e-06
4.70169e-06
4.06443e-06
3.51115e-06
3.03872e-06
2.64171e-06
2.32139e-06
2.05345e-06
1.89659e-06
1.62828e-06
1.82144e-06
1.40304e-06
8.64093e-06
8.37076e-06
8.09541e-06
7.7859e-06
7.47778e-06
7.16563e-06
6.85323e-06
6.55305e-06
6.26815e-06
5.99587e-06
5.73311e-06
5.47806e-06
5.22671e-06
4.9733e-06
4.71436e-06
4.44624e-06
4.1658e-06
3.87189e-06
3.56383e-06
3.24265e-06
2.91092e-06
2.57315e-06
2.23478e-06
1.90439e-06
1.59224e-06
1.30703e-06
1.05354e-06
8.33596e-07
6.47349e-07
4.93418e-07
3.69315e-07
2.72033e-07
1.98131e-07
1.44231e-07
1.06775e-07
8.67343e-08
8.0317e-08
9.679e-08
1.78037e-07
6.97454e-06
7.19767e-06
7.4441e-06
7.69806e-06
7.9562e-06
8.22159e-06
8.48317e-06
8.73308e-06
8.96747e-06
9.18061e-06
9.36484e-06
9.51609e-06
9.62903e-06
9.69681e-06
9.71527e-06
9.67791e-06
9.58068e-06
9.42064e-06
9.19545e-06
8.91164e-06
8.56451e-06
8.15285e-06
7.69242e-06
7.19094e-06
6.64485e-06
6.05332e-06
5.43142e-06
4.80816e-06
4.21587e-06
3.67723e-06
3.20087e-06
2.78786e-06
2.43487e-06
2.14684e-06
1.89931e-06
1.74205e-06
1.53687e-06
1.471e-06
1.49881e-06
6.75099e-06
6.5369e-06
6.32076e-06
6.08072e-06
5.84181e-06
5.60099e-06
5.36173e-06
5.13357e-06
4.91847e-06
4.71406e-06
4.51845e-06
4.32945e-06
4.14369e-06
3.9568e-06
3.76589e-06
3.56806e-06
3.36017e-06
3.14067e-06
2.90857e-06
2.66398e-06
2.40828e-06
2.14404e-06
1.8755e-06
1.60972e-06
1.3556e-06
1.12067e-06
9.09384e-07
7.23909e-07
5.64966e-07
4.32119e-07
3.23895e-07
2.38198e-07
1.72491e-07
1.24074e-07
9.00832e-08
7.11869e-08
6.46938e-08
7.71651e-08
1.38698e-07
5.46901e-06
5.64708e-06
5.8446e-06
6.04921e-06
6.25902e-06
6.47585e-06
6.69172e-06
6.89992e-06
7.09847e-06
7.28225e-06
7.44605e-06
7.58648e-06
7.69972e-06
7.78028e-06
7.82467e-06
7.828e-06
7.78627e-06
7.6964e-06
7.55526e-06
7.36646e-06
7.12636e-06
6.83176e-06
6.49209e-06
6.11457e-06
5.69684e-06
5.23715e-06
4.74609e-06
4.24532e-06
3.75971e-06
3.30874e-06
2.90222e-06
2.5439e-06
2.23282e-06
1.97398e-06
1.75078e-06
1.58914e-06
1.43245e-06
1.26244e-06
1.32219e-06
5.29212e-06
5.12218e-06
4.95183e-06
4.76468e-06
4.5784e-06
4.39171e-06
4.20715e-06
4.03265e-06
3.86904e-06
3.71447e-06
3.56731e-06
3.42602e-06
3.28768e-06
3.14908e-06
3.0077e-06
2.86082e-06
2.70608e-06
2.54197e-06
2.36706e-06
2.18095e-06
1.98426e-06
1.77848e-06
1.56648e-06
1.3539e-06
1.14808e-06
9.55638e-07
7.80447e-07
6.24901e-07
4.90043e-07
3.7605e-07
2.82185e-07
2.0708e-07
1.4894e-07
1.05669e-07
7.50117e-08
5.74201e-08
5.10662e-08
6.06551e-08
1.07333e-07
4.30133e-06
4.44351e-06
4.6019e-06
4.76705e-06
4.93707e-06
5.11408e-06
5.29143e-06
5.46426e-06
5.6307e-06
5.78742e-06
5.92994e-06
6.05631e-06
6.16299e-06
6.24656e-06
6.30393e-06
6.33099e-06
6.32453e-06
6.28135e-06
6.19863e-06
6.07758e-06
5.91552e-06
5.70902e-06
5.4621e-06
5.18169e-06
4.86566e-06
4.51199e-06
4.12785e-06
3.72916e-06
3.33462e-06
2.96062e-06
2.61685e-06
2.30859e-06
2.03657e-06
1.80532e-06
1.60499e-06
1.44599e-06
1.31102e-06
1.12546e-06
1.11921e-06
4.16078e-06
4.02603e-06
3.89116e-06
3.74467e-06
3.59881e-06
3.45327e-06
3.31017e-06
3.17564e-06
3.05025e-06
2.93243e-06
2.82104e-06
2.71463e-06
2.61092e-06
2.50719e-06
2.40158e-06
2.29205e-06
2.1765e-06
2.05345e-06
1.92151e-06
1.78005e-06
1.62909e-06
1.46932e-06
1.30264e-06
1.13332e-06
9.67379e-07
8.10401e-07
6.66041e-07
5.36302e-07
4.22506e-07
3.25222e-07
2.44234e-07
1.7874e-07
1.27559e-07
8.90855e-08
6.1604e-08
4.54283e-08
3.93948e-08
4.68999e-08
8.24633e-08
3.39201e-06
3.50566e-06
3.63275e-06
3.76617e-06
3.90387e-06
4.04817e-06
4.1935e-06
4.33623e-06
4.47516e-06
4.60739e-06
4.72987e-06
4.84098e-06
4.93815e-06
5.01887e-06
5.08043e-06
5.12014e-06
5.13492e-06
5.12204e-06
5.07899e-06
5.00522e-06
4.89964e-06
4.75796e-06
4.58131e-06
4.37581e-06
4.13998e-06
3.87103e-06
3.57358e-06
3.2591e-06
2.94161e-06
2.63426e-06
2.34623e-06
2.08324e-06
1.84719e-06
1.6423e-06
1.46255e-06
1.31223e-06
1.18512e-06
1.01298e-06
9.52499e-07
3.28015e-06
3.17304e-06
3.06595e-06
2.95091e-06
2.83626e-06
2.7222e-06
2.61077e-06
2.50652e-06
2.40973e-06
2.3193e-06
2.23424e-06
2.15334e-06
2.07482e-06
1.99679e-06
1.91755e-06
1.83534e-06
1.7486e-06
1.65604e-06
1.55641e-06
1.44878e-06
1.33297e-06
1.20918e-06
1.0786e-06
9.44341e-07
8.11245e-07
6.8382e-07
5.65381e-07
4.577e-07
3.62174e-07
2.79558e-07
2.10028e-07
1.53207e-07
1.08372e-07
7.43459e-08
4.98615e-08
3.51618e-08
2.9578e-08
3.56153e-08
6.29505e-08
2.68126e-06
2.77234e-06
2.87442e-06
2.98205e-06
3.09366e-06
3.21104e-06
3.32994e-06
3.44735e-06
3.56279e-06
3.6736e-06
3.77777e-06
3.87388e-06
3.96032e-06
4.03479e-06
4.09564e-06
4.14066e-06
4.1673e-06
4.17331e-06
4.1564e-06
4.11527e-06
4.04959e-06
3.95548e-06
3.83172e-06
3.68369e-06
3.50995e-06
3.30764e-06
3.07952e-06
2.83377e-06
2.58077e-06
2.33065e-06
2.0915e-06
1.86902e-06
1.66586e-06
1.48554e-06
1.32489e-06
1.18573e-06
1.06359e-06
9.08044e-07
8.19004e-07
2.59226e-06
2.50689e-06
2.42159e-06
2.33101e-06
2.24059e-06
2.15083e-06
2.06369e-06
1.98238e-06
1.90726e-06
1.83734e-06
1.77194e-06
1.71001e-06
1.65018e-06
1.59092e-06
1.53101e-06
1.46904e-06
1.40363e-06
1.33369e-06
1.25823e-06
1.17636e-06
1.08757e-06
9.91764e-07
8.89612e-07
7.83449e-07
6.77046e-07
5.74159e-07
4.77403e-07
3.88484e-07
3.08691e-07
2.38885e-07
1.79501e-07
1.30449e-07
9.13557e-08
6.14261e-08
3.97561e-08
2.65492e-08
2.14996e-08
2.64926e-08
4.77477e-08
2.12399e-06
2.19705e-06
2.27918e-06
2.36596e-06
2.45635e-06
2.55181e-06
2.64881e-06
2.74529e-06
2.84072e-06
2.93317e-06
3.02095e-06
3.10319e-06
3.17861e-06
3.24554e-06
3.3028e-06
3.34851e-06
3.38073e-06
3.39777e-06
3.39749e-06
3.37851e-06
3.34058e-06
3.28045e-06
3.19608e-06
3.09132e-06
2.96521e-06
2.81491e-06
2.64186e-06
2.45171e-06
2.25196e-06
2.05038e-06
1.85364e-06
1.66699e-06
1.49347e-06
1.33617e-06
1.19317e-06
1.06592e-06
9.49969e-07
8.08525e-07
7.07737e-07
2.05311e-06
1.98501e-06
1.91691e-06
1.84535e-06
1.77383e-06
1.70292e-06
1.63447e-06
1.57084e-06
1.51219e-06
1.45778e-06
1.40709e-06
1.35934e-06
1.31343e-06
1.26815e-06
1.22249e-06
1.17543e-06
1.12586e-06
1.0729e-06
1.01557e-06
9.53112e-07
8.85028e-07
8.10996e-07
7.31261e-07
6.47574e-07
5.62787e-07
4.79959e-07
4.01244e-07
3.28111e-07
2.61739e-07
2.0304e-07
1.52545e-07
1.10396e-07
7.64768e-08
5.02879e-08
3.12279e-08
1.94886e-08
1.50171e-08
1.92582e-08
3.60244e-08
1.68584e-06
1.74443e-06
1.81059e-06
1.88054e-06
1.95375e-06
2.03134e-06
2.11036e-06
2.18951e-06
2.26808e-06
2.34487e-06
2.41839e-06
2.48811e-06
2.55294e-06
2.61192e-06
2.66392e-06
2.7076e-06
2.7416e-06
2.76429e-06
2.77417e-06
2.7697e-06
2.75078e-06
2.71452e-06
2.65887e-06
2.58627e-06
2.49624e-06
2.38616e-06
2.25637e-06
2.11076e-06
1.95457e-06
1.79358e-06
1.63324e-06
1.47806e-06
1.33084e-06
1.19476e-06
1.06836e-06
9.52997e-07
8.44656e-07
7.15767e-07
6.12336e-07
1.62924e-06
1.57488e-06
1.52049e-06
1.46377e-06
1.40706e-06
1.35095e-06
1.29693e-06
1.24689e-06
1.20085e-06
1.15826e-06
1.11873e-06
1.08165e-06
1.04612e-06
1.0113e-06
9.7633e-07
9.40384e-07
9.02614e-07
8.62273e-07
8.1859e-07
7.70871e-07
7.18577e-07
6.61358e-07
5.99214e-07
5.33358e-07
4.65994e-07
3.99524e-07
3.3571e-07
2.75804e-07
2.20845e-07
1.71709e-07
1.28975e-07
9.29298e-08
6.36452e-08
4.08495e-08
2.41869e-08
1.3854e-08
9.96626e-09
1.36459e-08
2.70699e-08
1.34038e-06
1.38746e-06
1.44069e-06
1.49715e-06
1.5564e-06
1.61936e-06
1.68375e-06
1.74847e-06
1.81305e-06
1.87652e-06
1.9378e-06
1.99643e-06
2.05174e-06
2.10289e-06
2.14909e-06
2.18938e-06
2.22261e-06
2.24755e-06
2.26304e-06
2.26764e-06
2.2612e-06
2.24147e-06
2.20635e-06
2.15756e-06
2.09448e-06
2.0149e-06
1.9187e-06
1.80838e-06
1.68747e-06
1.56013e-06
1.43059e-06
1.30267e-06
1.17888e-06
1.06182e-06
9.51058e-07
8.47134e-07
7.47334e-07
6.30465e-07
5.2948e-07
1.29512e-06
1.25175e-06
1.20826e-06
1.16314e-06
1.11811e-06
1.0736e-06
1.03084e-06
9.91326e-07
9.55024e-07
9.2153e-07
8.90536e-07
8.61538e-07
8.33885e-07
8.06876e-07
7.79918e-07
7.52307e-07
7.23372e-07
6.92522e-07
6.59117e-07
6.22564e-07
5.82377e-07
5.38124e-07
4.89706e-07
4.3795e-07
3.84509e-07
3.3133e-07
2.79769e-07
2.30879e-07
1.85553e-07
1.44588e-07
1.08586e-07
7.78989e-08
5.27334e-08
3.29926e-08
1.85134e-08
9.50094e-09
6.17554e-09
9.41409e-09
2.03112e-08
1.06736e-06
1.10523e-06
1.14807e-06
1.19364e-06
1.2416e-06
1.29264e-06
1.34506e-06
1.3979e-06
1.45089e-06
1.50319e-06
1.55407e-06
1.60312e-06
1.64988e-06
1.69367e-06
1.73404e-06
1.77012e-06
1.8012e-06
1.82629e-06
1.84437e-06
1.85424e-06
1.85576e-06
1.84713e-06
1.8265e-06
1.79482e-06
1.75166e-06
1.69511e-06
1.62474e-06
1.542e-06
1.44929e-06
1.3495e-06
1.24579e-06
1.14116e-06
1.03786e-06
9.38039e-07
8.41585e-07
7.48867e-07
6.57997e-07
5.52968e-07
4.57486e-07
1.03116e-06
9.96517e-07
9.61738e-07
9.25751e-07
8.89944e-07
8.54571e-07
8.20635e-07
7.89317e-07
7.60588e-07
7.34105e-07
7.09658e-07
6.86891e-07
6.65248e-07
6.4417e-07
6.23235e-07
6.01886e-07
5.79608e-07
5.55932e-07
5.30305e-07
5.02222e-07
4.71265e-07
4.37011e-07
3.99287e-07
3.58658e-07
3.16369e-07
2.73892e-07
2.32355e-07
1.92577e-07
1.55332e-07
1.21317e-07
9.11134e-08
6.51102e-08
4.35861e-08
2.65821e-08
1.40725e-08
6.27381e-09
3.4671e-09
6.33394e-09
1.52805e-08
8.5116e-07
8.81615e-07
9.16115e-07
9.52878e-07
9.91683e-07
1.03308e-06
1.07568e-06
1.11878e-06
1.16218e-06
1.20518e-06
1.24723e-06
1.28806e-06
1.3273e-06
1.36449e-06
1.39927e-06
1.43107e-06
1.45927e-06
1.48309e-06
1.50177e-06
1.51437e-06
1.52065e-06
1.51926e-06
1.5086e-06
1.4891e-06
1.46038e-06
1.42093e-06
1.37016e-06
1.30879e-06
1.23839e-06
1.1609e-06
1.07856e-06
9.93722e-07
9.08136e-07
8.23636e-07
7.4028e-07
6.58393e-07
5.76489e-07
4.8284e-07
3.9487e-07
8.22184e-07
7.94471e-07
7.66649e-07
7.37931e-07
7.09394e-07
6.81234e-07
6.54252e-07
6.29359e-07
6.0654e-07
5.8552e-07
5.66178e-07
5.48162e-07
5.31106e-07
5.14609e-07
4.98278e-07
4.81686e-07
4.64439e-07
4.46166e-07
4.26426e-07
4.04795e-07
3.80902e-07
3.54378e-07
3.24978e-07
2.93079e-07
2.59652e-07
2.25802e-07
1.92421e-07
1.60159e-07
1.29657e-07
1.01525e-07
7.629e-08
5.43579e-08
3.6036e-08
2.14632e-08
1.07119e-08
4.00877e-09
1.66073e-09
4.19705e-09
1.15945e-08
6.79608e-07
7.04117e-07
7.31885e-07
7.6155e-07
7.9293e-07
8.26477e-07
8.61075e-07
8.96182e-07
9.31658e-07
9.66915e-07
1.00158e-06
1.03543e-06
1.06819e-06
1.09954e-06
1.12921e-06
1.15679e-06
1.18179e-06
1.20363e-06
1.22176e-06
1.23542e-06
1.24427e-06
1.24735e-06
1.24329e-06
1.23222e-06
1.21384e-06
1.18693e-06
1.15083e-06
1.10587e-06
1.05293e-06
9.93265e-07
9.28437e-07
8.60147e-07
7.89811e-07
7.1878e-07
6.47314e-07
5.75563e-07
5.02649e-07
4.19951e-07
3.40386e-07
6.56395e-07
6.34231e-07
6.11948e-07
5.89011e-07
5.66249e-07
5.43802e-07
5.22308e-07
5.02486e-07
4.84312e-07
4.67573e-07
4.52183e-07
4.379e-07
4.24408e-07
4.11396e-07
3.9858e-07
3.85628e-07
3.72229e-07
3.58076e-07
3.42811e-07
3.26112e-07
3.07642e-07
2.87059e-07
2.64135e-07
2.39109e-07
2.12695e-07
1.85768e-07
1.58995e-07
1.329e-07
1.08004e-07
8.48268e-08
6.38344e-08
4.54134e-08
2.98916e-08
1.74652e-08
8.27148e-09
2.54299e-09
5.88032e-10
2.8125e-09
8.94712e-09
5.43242e-07
5.62965e-07
5.8531e-07
6.09253e-07
6.34623e-07
6.61789e-07
6.89876e-07
7.18448e-07
7.47391e-07
7.76266e-07
8.0476e-07
8.3272e-07
8.59944e-07
8.86204e-07
9.11293e-07
9.34933e-07
9.56752e-07
9.76341e-07
9.93219e-07
1.00677e-06
1.01669e-06
1.02232e-06
1.02251e-06