/*--------------------------------*- C++ -*----------------------------------*\
| =========                 |                                                 |
| \\      /  F ield         | OpenFOAM: The Open Source CFD Toolbox           |
|  \\    /   O peration     | Version:  2206                                  |
|   \\  /    A nd           | Website:  www.openfoam.com                      |
|    \\/     M anipulation  |                                                 |
\*---------------------------------------------------------------------------*/
FoamFile
{
    version     2.0;
    format      ascii;
    arch        "LSB;label=32;scalar=64";
    class       volScalarField;
    location    "200";
    object      turbulenceProperties:nuEff;
}
// * * * * * * * * * * * * * * * * * * * * * * * * * * * * * * * * * * * * * //

dimensions      [0 2 -1 0 0 0 0];

internalField   nonuniform List<scalar> 
10720
(
3.5633e-05
3.93377e-05
4.42975e-05
5.07255e-05
5.90084e-05
6.96769e-05
8.34505e-05
0.000100692
0.00012243
0.000149708
0.000184443
0.000229775
0.000290073
0.000373262
0.000492731
0.000670666
0.000950123
0.0013985
0.00220588
0.0035877
0.00678257
0.0126945
0.0327603
0.0752689
0.094529
0.0959363
0.0967686
0.100046
0.103465
0.10519
0.105123
0.103801
0.101378
0.0979219
0.0933024
0.0874422
0.0790534
0.0689467
0.0336214
3.24298e-05
2.96694e-05
2.69574e-05
2.44823e-05
2.21612e-05
2.00287e-05
1.81724e-05
1.68898e-05
1.8086e-05
2.08192e-05
2.55457e-05
3.33369e-05
4.57484e-05
6.47058e-05
9.17292e-05
0.000128391
0.000177773
0.000247108
0.00035063
0.000513736
0.000786509
0.00125731
0.00213803
0.0037978
0.00738035
0.0148096
0.032692
0.0666035
0.0936748
0.105163
0.108547
0.109482
0.109575
0.109075
0.10807
0.106668
0.104516
0.102069
0.0925482
1.5089e-05
1.49839e-05
1.48891e-05
1.48104e-05
1.47202e-05
1.46373e-05
1.45757e-05
1.45216e-05
1.4498e-05
1.45166e-05
1.45455e-05
1.48044e-05
1.58258e-05
1.85192e-05
2.60296e-05
4.59133e-05
9.19122e-05
0.000170352
0.000317988
0.000590759
0.00128028
0.00278803
0.00678598
0.0195994
0.0380982
0.0612563
0.0897311
0.12038
0.14561
0.160114
0.165703
0.166575
0.16504
0.161775
0.157354
0.151975
0.146756
0.138078
0.13775
1.51728e-05
1.5286e-05
1.53826e-05
1.55134e-05
1.56475e-05
1.57835e-05
1.59156e-05
1.60279e-05
1.59604e-05
1.58155e-05
1.56206e-05
1.53855e-05
1.51191e-05
1.48245e-05
1.44909e-05
1.41153e-05
1.36726e-05
1.31588e-05
1.2545e-05
1.18406e-05
1.10715e-05
1.04188e-05
1.00538e-05
1.00014e-05
1.00112e-05
0.000105108
0.000558155
0.00421102
0.0142144
0.028845
0.0438572
0.055184
0.0619374
0.0657119
0.0681046
0.0700923
0.0718235
0.0754024
0.0785996
1.626e-05
1.6277e-05
1.62948e-05
1.63139e-05
1.63373e-05
1.63635e-05
1.63935e-05
1.64287e-05
1.64701e-05
1.65186e-05
1.65762e-05
1.66469e-05
1.67259e-05
1.68646e-05
1.68823e-05
1.64786e-05
1.50615e-05
1.38835e-05
1.00617e-05
0.000110219
3.95075e-05
0.000133783
0.000116132
0.000701059
0.00291723
0.00705169
0.0145556
0.0289837
0.0539283
0.0889856
0.127347
0.159252
0.180117
0.192212
0.199011
0.201998
0.203313
0.197637
0.205801
1.6247e-05
1.62281e-05
1.62135e-05
1.6192e-05
1.61736e-05
1.61537e-05
1.61359e-05
1.61216e-05
1.61271e-05
1.61427e-05
1.61629e-05
1.61869e-05
1.62162e-05
1.6249e-05
1.62859e-05
1.63267e-05
1.6373e-05
1.6426e-05
1.64895e-05
1.65667e-05
1.66658e-05
1.6793e-05
1.69737e-05
1.71668e-05
1.74269e-05
1.71456e-05
1.72293e-05
1.24605e-05
9.57744e-05
0.000808379
0.00304929
0.00759268
0.0143236
0.0225247
0.0312584
0.0397087
0.0471096
0.0537865
0.0632759
1.60824e-05
1.60802e-05
1.60796e-05
1.608e-05
1.60809e-05
1.60836e-05
1.60884e-05
1.60951e-05
1.61051e-05
1.61186e-05
1.61365e-05
1.61599e-05
1.61904e-05
1.62291e-05
1.62798e-05
1.63373e-05
1.6249e-05
1.58506e-05
1.40451e-05
1.13663e-05
1e-05
1.25641e-05
1.10886e-05
0.000136239
0.000616492
0.00150596
0.00315361
0.000120453
0.00284408
0.0115898
0.0320484
0.0671266
0.11178
0.154111
0.186305
0.208691
0.225381
0.233026
0.248612
1.60828e-05
1.60851e-05
1.60881e-05
1.60905e-05
1.60945e-05
1.60967e-05
1.60981e-05
1.6099e-05
1.60968e-05
1.60941e-05
1.60907e-05
1.6087e-05
1.60837e-05
1.60804e-05
1.60772e-05
1.60739e-05
1.60703e-05
1.60663e-05
1.60614e-05
1.60565e-05
1.60513e-05
1.60458e-05
1.60392e-05
1.60331e-05
1.60265e-05
1.60293e-05
1.60214e-05
1.60854e-05
1.59836e-05
1.60067e-05
1.50272e-05
1.4072e-05
0.000238896
0.00106481
0.00307183
0.00693791
0.0131641
0.0219423
0.0393297
1.61069e-05
1.61075e-05
1.61078e-05
1.61088e-05
1.61104e-05
1.61124e-05
1.6115e-05
1.61185e-05
1.61231e-05
1.61292e-05
1.6137e-05
1.61474e-05
1.61609e-05
1.61784e-05
1.62021e-05
1.62296e-05
1.62716e-05
1.63219e-05
1.64786e-05
1.62995e-05
1.35872e-05
1.04981e-05
1.00097e-05
1.00003e-05
1e-05
1e-05
1e-05
1.16206e-05
0.000638255
0.000136105
0.000908332
0.00633937
0.0253185
0.0636449
0.115154
0.165872
0.208229
0.239632
0.269592
1.61066e-05
1.61055e-05
1.61065e-05
1.61057e-05
1.61069e-05
1.61058e-05
1.61036e-05
1.61015e-05
1.61005e-05
1.61003e-05
1.61004e-05
1.61006e-05
1.61012e-05
1.61019e-05
1.61031e-05
1.61045e-05
1.61061e-05
1.61081e-05
1.61104e-05
1.61129e-05
1.61157e-05
1.61188e-05
1.61223e-05
1.61261e-05
1.61311e-05
1.61354e-05
1.61489e-05
1.61278e-05
1.62737e-05
1.56836e-05
1.87623e-05
1.05445e-05
3.61581e-05
0.000259904
7.59558e-05
0.000324087
0.00106026
0.00177974
0.0137852
1.61011e-05
1.61008e-05
1.61013e-05
1.61018e-05
1.61021e-05
1.61026e-05
1.61033e-05
1.61042e-05
1.61055e-05
1.61073e-05
1.61097e-05
1.6113e-05
1.61174e-05
1.61233e-05
1.61315e-05
1.61424e-05
1.61571e-05
1.61756e-05
1.62075e-05
1.63027e-05
1.64783e-05
1.57112e-05
1.3387e-05
1.02401e-05
1.00099e-05
1.00029e-05
1.0001e-05
1e-05
1e-05
1.25155e-05
0.000203238
0.00150442
0.0021296
0.00890683
0.0330802
0.0843628
0.149557
0.213205
0.267577
1.61006e-05
1.61003e-05
1.61015e-05
1.61015e-05
1.61033e-05
1.61031e-05
1.61016e-05
1.61002e-05
1.60993e-05
1.60988e-05
1.60985e-05
1.60983e-05
1.60983e-05
1.60982e-05
1.60983e-05
1.60985e-05
1.60987e-05
1.6099e-05
1.60993e-05
1.60995e-05
1.60998e-05
1.61e-05
1.61001e-05
1.60999e-05
1.60998e-05
1.61e-05
1.61003e-05
1.6102e-05
1.61015e-05
1.61103e-05
1.60908e-05
1.61726e-05
1.54899e-05
1.41785e-05
1.21875e-05
5.54445e-05
0.000253401
0.000470927
0.0024255
1.61019e-05
1.6102e-05
1.61023e-05
1.61023e-05
1.61025e-05
1.61026e-05
1.61029e-05
1.61033e-05
1.61038e-05
1.61046e-05
1.61056e-05
1.61071e-05
1.6109e-05
1.61118e-05
1.61156e-05
1.61209e-05
1.6128e-05
1.61358e-05
1.61459e-05
1.61533e-05
1.6239e-05
1.64933e-05
1.66264e-05
1.57318e-05
1.37091e-05
1.17726e-05
1.05729e-05
1.00144e-05
1.00059e-05
1.00004e-05
1e-05
1e-05
0.000491867
0.00208641
0.00112226
0.0178734
0.0690102
0.153952
0.239524
1.61016e-05
1.61008e-05
1.61012e-05
1.61009e-05
1.61026e-05
1.61025e-05
1.61012e-05
1.61e-05
1.60993e-05
1.6099e-05
1.60989e-05
1.60989e-05
1.60989e-05
1.60989e-05
1.6099e-05
1.6099e-05
1.60992e-05
1.60994e-05
1.60998e-05
1.61002e-05
1.61008e-05
1.61014e-05
1.61022e-05
1.6103e-05
1.61041e-05
1.61055e-05
1.61073e-05
1.61096e-05
1.61124e-05
1.6116e-05
1.61204e-05
1.61311e-05
1.6202e-05
1.57636e-05
1.32784e-05
1.02929e-05
1.00095e-05
1e-05
7.95746e-05
1.61021e-05
1.61021e-05
1.61024e-05
1.61025e-05
1.61025e-05
1.61025e-05
1.61025e-05
1.61024e-05
1.61025e-05
1.61025e-05
1.61027e-05
1.6103e-05
1.61035e-05
1.61041e-05
1.61051e-05
1.61066e-05
1.61088e-05
1.61113e-05
1.61144e-05
1.61158e-05
1.6121e-05
1.61419e-05
1.62619e-05
1.65493e-05
1.67726e-05
1.65248e-05
1.57858e-05
1.4348e-05
1.24383e-05
1.01952e-05
1.00116e-05
1.00002e-05
1e-05
1e-05
0.000262088
0.00443744
0.0120124
0.0797358
0.186117
1.61014e-05
1.61003e-05
1.61002e-05
1.60997e-05
1.61013e-05
1.61015e-05
1.61005e-05
1.60995e-05
1.60991e-05
1.60989e-05
1.6099e-05
1.6099e-05
1.6099e-05
1.6099e-05
1.6099e-05
1.60989e-05
1.60989e-05
1.60989e-05
1.6099e-05
1.60991e-05
1.60993e-05
1.60995e-05
1.60997e-05
1.61e-05
1.61002e-05
1.61004e-05
1.61008e-05
1.61012e-05
1.61017e-05
1.6102e-05
1.61029e-05
1.61005e-05
1.61116e-05
1.60662e-05
1.61946e-05
1.50257e-05
1.28241e-05
1.00178e-05
1.07714e-05
1.61023e-05
1.61023e-05
1.61026e-05
1.61026e-05
1.61024e-05
1.61023e-05
1.61021e-05
1.6102e-05
1.61018e-05
1.61017e-05
1.61017e-05
1.61018e-05
1.6102e-05
1.61023e-05
1.61029e-05
1.61037e-05
1.6105e-05
1.61066e-05
1.61083e-05
1.61102e-05
1.6111e-05
1.61101e-05
1.61089e-05
1.61516e-05
1.62996e-05
1.65539e-05
1.68173e-05
1.70583e-05
1.70432e-05
1.56659e-05
1.39044e-05
1.01054e-05
1.00046e-05
1e-05
1e-05
1e-05
0.00331071
0.0236687
0.119907
1.61013e-05
1.61e-05
1.60995e-05
1.6099e-05
1.61006e-05
1.61008e-05
1.61001e-05
1.60992e-05
1.6099e-05
1.60989e-05
1.6099e-05
1.6099e-05
1.6099e-05
1.6099e-05
1.6099e-05
1.6099e-05
1.6099e-05
1.6099e-05
1.6099e-05
1.6099e-05
1.60991e-05
1.60992e-05
1.60994e-05
1.60996e-05
1.60999e-05
1.61004e-05
1.6101e-05
1.61018e-05
1.61029e-05
1.61042e-05
1.61058e-05
1.61077e-05
1.6111e-05
1.61113e-05
1.61414e-05
1.62181e-05
1.6661e-05
1.4521e-05
1.00025e-05
1.6102e-05
1.61021e-05
1.61024e-05
1.61024e-05
1.61022e-05
1.61021e-05
1.61019e-05
1.61017e-05
1.61015e-05
1.61014e-05
1.61013e-05
1.61013e-05
1.61012e-05
1.61012e-05
1.61013e-05
1.61014e-05
1.61015e-05
1.61018e-05
1.61021e-05
1.61025e-05
1.61033e-05
1.61049e-05
1.61036e-05
1.60963e-05
1.60956e-05
1.61374e-05
1.62402e-05
1.64293e-05
1.67357e-05
1.70554e-05
1.7506e-05
1.59958e-05
1.15637e-05
1.00155e-05
1e-05
1e-05
1.03285e-05
0.000868545
0.0638155
1.61012e-05
1.60999e-05
1.60993e-05
1.60986e-05
1.61001e-05
1.61004e-05
1.60997e-05
1.6099e-05
1.60988e-05
1.60988e-05
1.60989e-05
1.6099e-05
1.60989e-05
1.60989e-05
1.60989e-05
1.60989e-05
1.60989e-05
1.6099e-05
1.6099e-05
1.60989e-05
1.60989e-05
1.60989e-05
1.60989e-05
1.6099e-05
1.60991e-05
1.60993e-05
1.60996e-05
1.61001e-05
1.61006e-05
1.61012e-05
1.61019e-05
1.6103e-05
1.6103e-05
1.61087e-05
1.6089e-05
1.61768e-05
1.58129e-05
1.8795e-05
1.05416e-05
1.61018e-05
1.61018e-05
1.6102e-05
1.61019e-05
1.61017e-05
1.61015e-05
1.61013e-05
1.61011e-05
1.6101e-05
1.61009e-05
1.61007e-05
1.61006e-05
1.61005e-05
1.61005e-05
1.61005e-05
1.61005e-05
1.61007e-05
1.6101e-05
1.61015e-05
1.61019e-05
1.61023e-05
1.6103e-05
1.6104e-05
1.61033e-05
1.6097e-05
1.60878e-05
1.60851e-05
1.61033e-05
1.61654e-05
1.63365e-05
1.66432e-05
1.74344e-05
1.7115e-05
1.42454e-05
1.00001e-05
1e-05
1e-05
0.000805593
0.0285028
1.61013e-05
1.61002e-05
1.60995e-05
1.60986e-05
1.60999e-05
1.61002e-05
1.60996e-05
1.6099e-05
1.60988e-05
1.60987e-05
1.60988e-05
1.60988e-05
1.60988e-05
1.60988e-05
1.60987e-05
1.60987e-05
1.60988e-05
1.60988e-05
1.60989e-05
1.60989e-05
1.60989e-05
1.60988e-05
1.60988e-05
1.60988e-05
1.60989e-05
1.6099e-05
1.60993e-05
1.60997e-05
1.61002e-05
1.61008e-05
1.61016e-05
1.61028e-05
1.61031e-05
1.61081e-05
1.6093e-05
1.61655e-05
1.5852e-05
1.71815e-05
1.4321e-05
1.61018e-05
1.61016e-05
1.61017e-05
1.61014e-05
1.61012e-05
1.6101e-05
1.61008e-05
1.61006e-05
1.61005e-05
1.61004e-05
1.61003e-05
1.61003e-05
1.61002e-05
1.61002e-05
1.61002e-05
1.61002e-05
1.61002e-05
1.61002e-05
1.61002e-05
1.61004e-05
1.61007e-05
1.61012e-05
1.61019e-05
1.6103e-05
1.61035e-05
1.61013e-05
1.60952e-05
1.6086e-05
1.60728e-05
1.60821e-05
1.61044e-05
1.63684e-05
1.68686e-05
1.80132e-05
1.43204e-05
1.00141e-05
1e-05
0.000241887
0.0108794
1.61016e-05
1.61007e-05
1.60998e-05
1.60987e-05
1.60998e-05
1.61001e-05
1.60995e-05
1.6099e-05
1.60988e-05
1.60987e-05
1.60987e-05
1.60987e-05
1.60987e-05
1.60986e-05
1.60985e-05
1.60985e-05
1.60985e-05
1.60986e-05
1.60987e-05
1.60987e-05
1.60988e-05
1.60988e-05
1.60988e-05
1.60987e-05
1.60987e-05
1.60987e-05
1.60989e-05
1.60991e-05
1.60994e-05
1.60999e-05
1.61004e-05
1.61012e-05
1.61018e-05
1.61038e-05
1.61006e-05
1.61193e-05
1.60575e-05
1.62127e-05
1.61584e-05
1.61019e-05
1.61016e-05
1.61015e-05
1.61011e-05
1.61008e-05
1.61006e-05
1.61004e-05
1.61002e-05
1.61001e-05
1.60999e-05
1.60999e-05
1.60998e-05
1.60998e-05
1.60997e-05
1.60997e-05
1.60997e-05
1.60997e-05
1.60997e-05
1.60998e-05
1.60999e-05
1.61002e-05
1.61004e-05
1.61008e-05
1.61014e-05
1.61024e-05
1.61035e-05
1.61039e-05
1.61026e-05
1.60961e-05
1.60851e-05
1.60614e-05
1.60508e-05
1.6154e-05
1.66082e-05
1.86215e-05
1.34078e-05
1.00001e-05
5.68298e-05
0.00348574
1.61019e-05
1.6101e-05
1.61e-05
1.60987e-05
1.60997e-05
1.61e-05
1.60995e-05
1.6099e-05
1.60988e-05
1.60987e-05
1.60986e-05
1.60986e-05
1.60986e-05
1.60984e-05
1.60983e-05
1.60983e-05
1.60983e-05
1.60984e-05
1.60984e-05
1.60985e-05
1.60986e-05
1.60987e-05
1.60987e-05
1.60987e-05
1.60987e-05
1.60986e-05
1.60987e-05
1.60988e-05
1.60991e-05
1.60994e-05
1.60999e-05
1.61005e-05
1.61013e-05
1.6102e-05
1.61035e-05
1.61022e-05
1.61167e-05
1.60532e-05
1.62616e-05
1.6102e-05
1.61015e-05
1.61013e-05
1.61009e-05
1.61006e-05
1.61003e-05
1.61001e-05
1.60999e-05
1.60997e-05
1.60996e-05
1.60995e-05
1.60994e-05
1.60994e-05
1.60994e-05
1.60994e-05
1.60994e-05
1.60995e-05
1.60994e-05
1.60995e-05
1.60995e-05
1.60997e-05
1.60999e-05
1.61001e-05
1.61005e-05
1.61011e-05
1.6102e-05
1.61032e-05
1.61047e-05
1.61058e-05
1.61042e-05
1.6098e-05
1.60713e-05
1.60518e-05
1.60206e-05
1.6518e-05
2.04766e-05
1.00057e-05
1.04336e-05
0.000831368
1.6102e-05
1.61012e-05
1.61e-05
1.60987e-05
1.60995e-05
1.60998e-05
1.60993e-05
1.60989e-05
1.60987e-05
1.60986e-05
1.60985e-05
1.60985e-05
1.60984e-05
1.60983e-05
1.60982e-05
1.60981e-05
1.60981e-05
1.60981e-05
1.60982e-05
1.60983e-05
1.60984e-05
1.60985e-05
1.60985e-05
1.60986e-05
1.60986e-05
1.60985e-05
1.60985e-05
1.60986e-05
1.60987e-05
1.6099e-05
1.60993e-05
1.60998e-05
1.61004e-05
1.6101e-05
1.61025e-05
1.61009e-05
1.61123e-05
1.60809e-05
1.61485e-05
1.61018e-05
1.61014e-05
1.61011e-05
1.61007e-05
1.61004e-05
1.61001e-05
1.60999e-05
1.60996e-05
1.60995e-05
1.60993e-05
1.60992e-05
1.60992e-05
1.60992e-05
1.60991e-05
1.60992e-05
1.60992e-05
1.60992e-05
1.60992e-05
1.60992e-05
1.60992e-05
1.60993e-05
1.60995e-05
1.60997e-05
1.60999e-05
1.61003e-05
1.61009e-05
1.61017e-05
1.61028e-05
1.61045e-05
1.61063e-05
1.61083e-05
1.61056e-05
1.6084e-05
1.61029e-05
1.56269e-05
1.87447e-05
1.37554e-05
1e-05
1.00436e-05
1.61019e-05
1.61011e-05
1.61e-05
1.60986e-05
1.60993e-05
1.60996e-05
1.60992e-05
1.60988e-05
1.60986e-05
1.60985e-05
1.60984e-05
1.60983e-05
1.60983e-05
1.60982e-05
1.6098e-05
1.60979e-05
1.60979e-05
1.60979e-05
1.60979e-05
1.6098e-05
1.60981e-05
1.60982e-05
1.60983e-05
1.60984e-05
1.60984e-05
1.60984e-05
1.60984e-05
1.60984e-05
1.60984e-05
1.60986e-05
1.60989e-05
1.60993e-05
1.60998e-05
1.61003e-05
1.61012e-05
1.61016e-05
1.61046e-05
1.61017e-05
1.61075e-05
1.61014e-05
1.6101e-05
1.61008e-05
1.61004e-05
1.61001e-05
1.60999e-05
1.60997e-05
1.60994e-05
1.60993e-05
1.60992e-05
1.60991e-05
1.6099e-05
1.6099e-05
1.6099e-05
1.6099e-05
1.60991e-05
1.60991e-05
1.60991e-05
1.60991e-05
1.60991e-05
1.60992e-05
1.60992e-05
1.60994e-05
1.60995e-05
1.60998e-05
1.61003e-05
1.61009e-05
1.61016e-05
1.61026e-05
1.61041e-05
1.61057e-05
1.61111e-05
1.60987e-05
1.61549e-05
1.58713e-05
1.61208e-05
2.0294e-05
1.00007e-05
1.00001e-05
1.61016e-05
1.6101e-05
1.61e-05
1.60986e-05
1.60991e-05
1.60993e-05
1.6099e-05
1.60987e-05
1.60985e-05
1.60983e-05
1.60982e-05
1.60982e-05
1.60981e-05
1.6098e-05
1.60978e-05
1.60977e-05
1.60977e-05
1.60977e-05
1.60977e-05
1.60978e-05
1.60979e-05
1.6098e-05
1.60981e-05
1.60982e-05
1.60982e-05
1.60983e-05
1.60983e-05
1.60982e-05
1.60982e-05
1.60983e-05
1.60985e-05
1.60988e-05
1.60992e-05
1.60997e-05
1.61003e-05
1.61012e-05
1.61019e-05
1.61051e-05
1.61021e-05
1.61011e-05
1.61007e-05
1.61005e-05
1.61001e-05
1.60999e-05
1.60997e-05
1.60994e-05
1.60993e-05
1.60992e-05
1.60991e-05
1.6099e-05
1.6099e-05
1.6099e-05
1.6099e-05
1.60991e-05
1.60991e-05
1.60991e-05
1.60992e-05
1.60992e-05
1.60992e-05
1.60992e-05
1.60992e-05
1.60993e-05
1.60994e-05
1.60996e-05
1.60999e-05
1.61004e-05
1.6101e-05
1.61016e-05
1.61026e-05
1.61034e-05
1.61067e-05
1.61059e-05
1.61113e-05
1.62053e-05
1.52722e-05
2.10896e-05
1.00614e-05
1e-05
1.61014e-05
1.6101e-05
1.61e-05
1.60987e-05
1.60991e-05
1.60992e-05
1.60989e-05
1.60985e-05
1.60983e-05
1.60981e-05
1.6098e-05
1.6098e-05
1.60979e-05
1.60978e-05
1.60976e-05
1.60975e-05
1.60975e-05
1.60975e-05
1.60975e-05
1.60975e-05
1.60976e-05
1.60977e-05
1.60978e-05
1.6098e-05
1.6098e-05
1.60981e-05
1.60981e-05
1.60981e-05
1.6098e-05
1.60981e-05
1.60982e-05
1.60984e-05
1.60987e-05
1.60991e-05
1.60997e-05
1.61004e-05
1.6101e-05
1.61038e-05
1.61024e-05
1.61008e-05
1.61004e-05
1.61001e-05
1.60998e-05
1.60996e-05
1.60994e-05
1.60993e-05
1.60992e-05
1.60991e-05
1.60991e-05
1.60991e-05
1.60991e-05
1.60991e-05
1.60991e-05
1.60992e-05
1.60992e-05
1.60992e-05
1.60993e-05
1.60993e-05
1.60993e-05
1.60993e-05
1.60993e-05
1.60993e-05
1.60993e-05
1.60995e-05
1.60997e-05
1.61001e-05
1.61005e-05
1.61011e-05
1.61018e-05
1.61027e-05
1.61029e-05
1.61104e-05
1.60774e-05
1.62775e-05
1.54488e-05
1.84294e-05
1.30188e-05
1.00014e-05
1.61013e-05
1.6101e-05
1.61001e-05
1.60988e-05
1.60991e-05
1.60991e-05
1.60988e-05
1.60984e-05
1.60982e-05
1.6098e-05
1.60979e-05
1.60978e-05
1.60977e-05
1.60976e-05
1.60974e-05
1.60973e-05
1.60973e-05
1.60972e-05
1.60973e-05
1.60973e-05
1.60974e-05
1.60975e-05
1.60976e-05
1.60977e-05
1.60978e-05
1.60979e-05
1.6098e-05
1.6098e-05
1.60979e-05
1.60979e-05
1.6098e-05
1.60981e-05
1.60983e-05
1.60986e-05
1.60991e-05
1.60997e-05
1.61003e-05
1.61024e-05
1.61022e-05
1.61006e-05
1.61002e-05
1.60999e-05
1.60997e-05
1.60994e-05
1.60992e-05
1.60991e-05
1.60991e-05
1.60991e-05
1.60992e-05
1.60992e-05
1.60992e-05
1.60993e-05
1.60993e-05
1.60993e-05
1.60994e-05
1.60994e-05
1.60994e-05
1.60995e-05
1.60995e-05
1.60995e-05
1.60994e-05
1.60994e-05
1.60995e-05
1.60995e-05
1.60997e-05
1.60999e-05
1.61003e-05
1.61008e-05
1.61013e-05
1.61024e-05
1.61015e-05
1.61099e-05
1.60795e-05
1.62017e-05
1.58609e-05
1.64676e-05
1.75606e-05
1.0256e-05
1.61012e-05
1.6101e-05
1.61002e-05
1.60989e-05
1.6099e-05
1.60991e-05
1.60987e-05
1.60983e-05
1.6098e-05
1.60978e-05
1.60977e-05
1.60976e-05
1.60975e-05
1.60974e-05
1.60972e-05
1.60971e-05
1.60971e-05
1.6097e-05
1.6097e-05
1.60971e-05
1.60972e-05
1.60973e-05
1.60974e-05
1.60975e-05
1.60976e-05
1.60977e-05
1.60978e-05
1.60978e-05
1.60978e-05
1.60978e-05
1.60978e-05
1.60979e-05
1.6098e-05
1.60982e-05
1.60986e-05
1.60991e-05
1.60997e-05
1.61014e-05
1.61014e-05
1.61005e-05
1.61001e-05
1.60998e-05
1.60995e-05
1.60993e-05
1.60992e-05
1.60991e-05
1.60992e-05
1.60992e-05
1.60993e-05
1.60994e-05
1.60994e-05
1.60995e-05
1.60995e-05
1.60995e-05
1.60996e-05
1.60996e-05
1.60996e-05
1.60996e-05
1.60996e-05
1.60996e-05
1.60996e-05
1.60996e-05
1.60996e-05
1.60996e-05
1.60997e-05
1.60999e-05
1.61002e-05
1.61006e-05
1.61011e-05
1.61019e-05
1.61015e-05
1.61063e-05
1.60945e-05
1.61243e-05
1.61192e-05
1.57804e-05
1.82366e-05
1.23871e-05
1.61011e-05
1.6101e-05
1.61002e-05
1.6099e-05
1.6099e-05
1.6099e-05
1.60987e-05
1.60982e-05
1.60979e-05
1.60977e-05
1.60975e-05
1.60974e-05
1.60973e-05
1.60972e-05
1.60971e-05
1.6097e-05
1.60969e-05
1.60968e-05
1.60968e-05
1.60969e-05
1.60969e-05
1.60971e-05
1.60972e-05
1.60973e-05
1.60974e-05
1.60976e-05
1.60976e-05
1.60977e-05
1.60977e-05
1.60977e-05
1.60977e-05
1.60977e-05
1.60978e-05
1.60979e-05
1.60982e-05
1.60986e-05
1.60991e-05
1.61006e-05
1.61006e-05
1.61004e-05
1.61e-05
1.60997e-05
1.60994e-05
1.60993e-05
1.60992e-05
1.60992e-05
1.60993e-05
1.60994e-05
1.60995e-05
1.60995e-05
1.60996e-05
1.60996e-05
1.60997e-05
1.60997e-05
1.60997e-05
1.60997e-05
1.60998e-05
1.60998e-05
1.60998e-05
1.60998e-05
1.60998e-05
1.60997e-05
1.60997e-05
1.60998e-05
1.60998e-05
1.61e-05
1.61002e-05
1.61006e-05
1.6101e-05
1.61016e-05
1.61018e-05
1.61032e-05
1.61045e-05
1.60908e-05
1.6187e-05
1.57672e-05
1.72376e-05
1.50676e-05
1.61009e-05
1.61008e-05
1.61001e-05
1.60989e-05
1.60989e-05
1.60989e-05
1.60986e-05
1.60981e-05
1.60978e-05
1.60975e-05
1.60974e-05
1.60972e-05
1.60971e-05
1.6097e-05
1.60969e-05
1.60968e-05
1.60967e-05
1.60967e-05
1.60967e-05
1.60967e-05
1.60968e-05
1.60969e-05
1.6097e-05
1.60971e-05
1.60973e-05
1.60974e-05
1.60975e-05
1.60976e-05
1.60976e-05
1.60976e-05
1.60976e-05
1.60975e-05
1.60976e-05
1.60977e-05
1.60979e-05
1.60982e-05
1.60987e-05
1.61e-05
1.61e-05
1.61002e-05
1.60999e-05
1.60995e-05
1.60994e-05
1.60993e-05
1.60992e-05
1.60993e-05
1.60994e-05
1.60995e-05
1.60996e-05
1.60997e-05
1.60998e-05
1.60998e-05
1.60999e-05
1.60999e-05
1.60999e-05
1.60999e-05
1.60999e-05
1.61e-05
1.61e-05
1.60999e-05
1.60999e-05
1.60999e-05
1.60999e-05
1.60999e-05
1.60999e-05
1.61001e-05
1.61003e-05
1.61005e-05
1.61009e-05
1.61013e-05
1.6102e-05
1.61018e-05
1.61069e-05
1.60882e-05
1.61635e-05
1.59346e-05
1.6445e-05
1.62283e-05
1.61006e-05
1.61007e-05
1.61e-05
1.60989e-05
1.60988e-05
1.60988e-05
1.60985e-05
1.6098e-05
1.60977e-05
1.60974e-05
1.60972e-05
1.60971e-05
1.6097e-05
1.60968e-05
1.60967e-05
1.60966e-05
1.60965e-05
1.60965e-05
1.60965e-05
1.60965e-05
1.60966e-05
1.60967e-05
1.60968e-05
1.60969e-05
1.60971e-05
1.60972e-05
1.60973e-05
1.60975e-05
1.60975e-05
1.60976e-05
1.60976e-05
1.60975e-05
1.60975e-05
1.60976e-05
1.60977e-05
1.6098e-05
1.60983e-05
1.60994e-05
1.60994e-05
1.61e-05
1.60997e-05
1.60994e-05
1.60993e-05
1.60993e-05
1.60993e-05
1.60994e-05
1.60995e-05
1.60997e-05
1.60998e-05
1.60999e-05
1.61e-05
1.61e-05
1.61001e-05
1.61001e-05
1.61001e-05
1.61001e-05
1.61001e-05
1.61001e-05
1.61001e-05
1.61001e-05
1.61001e-05
1.61001e-05
1.61e-05
1.61e-05
1.61001e-05
1.61002e-05
1.61003e-05
1.61006e-05
1.61009e-05
1.61012e-05
1.61019e-05
1.61016e-05
1.61055e-05
1.60953e-05
1.61279e-05
1.60607e-05
1.61186e-05
1.63577e-05
1.61004e-05
1.61005e-05
1.61e-05
1.60989e-05
1.60987e-05
1.60986e-05
1.60983e-05
1.60979e-05
1.60975e-05
1.60973e-05
1.60971e-05
1.60969e-05
1.60968e-05
1.60967e-05
1.60965e-05
1.60964e-05
1.60964e-05
1.60963e-05
1.60963e-05
1.60964e-05
1.60964e-05
1.60965e-05
1.60967e-05
1.60968e-05
1.6097e-05
1.60971e-05
1.60972e-05
1.60974e-05
1.60975e-05
1.60975e-05
1.60976e-05
1.60976e-05
1.60975e-05
1.60975e-05
1.60976e-05
1.60978e-05
1.6098e-05
1.6099e-05
1.60989e-05
1.60999e-05
1.60996e-05
1.60993e-05
1.60993e-05
1.60993e-05
1.60994e-05
1.60995e-05
1.60997e-05
1.60998e-05
1.60999e-05
1.61e-05
1.61001e-05
1.61002e-05
1.61003e-05
1.61003e-05
1.61003e-05
1.61003e-05
1.61003e-05
1.61003e-05
1.61003e-05
1.61003e-05
1.61003e-05
1.61002e-05
1.61002e-05
1.61002e-05
1.61002e-05
1.61003e-05
1.61004e-05
1.61006e-05
1.61009e-05
1.61012e-05
1.61017e-05
1.61018e-05
1.61037e-05
1.61011e-05
1.61076e-05
1.61105e-05
1.60543e-05
1.62293e-05
1.61003e-05
1.61004e-05
1.60999e-05
1.60989e-05
1.60987e-05
1.60985e-05
1.60982e-05
1.60978e-05
1.60974e-05
1.60971e-05
1.60969e-05
1.60968e-05
1.60966e-05
1.60965e-05
1.60964e-05
1.60963e-05
1.60963e-05
1.60962e-05
1.60962e-05
1.60963e-05
1.60963e-05
1.60964e-05
1.60966e-05
1.60967e-05
1.60969e-05
1.6097e-05
1.60972e-05
1.60973e-05
1.60974e-05
1.60975e-05
1.60976e-05
1.60976e-05
1.60976e-05
1.60976e-05
1.60976e-05
1.60977e-05
1.60979e-05
1.60987e-05
1.60986e-05
1.60998e-05
1.60995e-05
1.60992e-05
1.60992e-05
1.60993e-05
1.60994e-05
1.60996e-05
1.60998e-05
1.60999e-05
1.61e-05
1.61002e-05
1.61003e-05
1.61004e-05
1.61004e-05
1.61005e-05
1.61005e-05
1.61006e-05
1.61006e-05
1.61006e-05
1.61006e-05
1.61006e-05
1.61005e-05
1.61005e-05
1.61005e-05
1.61004e-05
1.61004e-05
1.61005e-05
1.61006e-05
1.61007e-05
1.61009e-05
1.61012e-05
1.61016e-05
1.6102e-05
1.61027e-05
1.61035e-05
1.61014e-05
1.6117e-05
1.60734e-05
1.61349e-05
1.61002e-05
1.61003e-05
1.60998e-05
1.60989e-05
1.60986e-05
1.60984e-05
1.60981e-05
1.60977e-05
1.60973e-05
1.6097e-05
1.60968e-05
1.60967e-05
1.60965e-05
1.60964e-05
1.60963e-05
1.60962e-05
1.60962e-05
1.60962e-05
1.60962e-05
1.60962e-05
1.60963e-05
1.60964e-05
1.60965e-05
1.60966e-05
1.60968e-05
1.60969e-05
1.60971e-05
1.60972e-05
1.60974e-05
1.60975e-05
1.60976e-05
1.60976e-05
1.60977e-05
1.60976e-05
1.60976e-05
1.60976e-05
1.60978e-05
1.60984e-05
1.60983e-05
1.60997e-05
1.60994e-05
1.60992e-05
1.60993e-05
1.60994e-05
1.60995e-05
1.60997e-05
1.60998e-05
1.61e-05
1.61002e-05
1.61003e-05
1.61004e-05
1.61005e-05
1.61006e-05
1.61007e-05
1.61008e-05
1.61008e-05
1.61008e-05
1.61008e-05
1.61008e-05
1.61008e-05
1.61008e-05
1.61008e-05
1.61008e-05
1.61007e-05
1.61007e-05
1.61007e-05
1.61008e-05
1.61009e-05
1.6101e-05
1.61013e-05
1.61016e-05
1.6102e-05
1.61023e-05
1.61038e-05
1.61015e-05
1.61112e-05
1.6096e-05
1.61029e-05
1.61e-05
1.61002e-05
1.60997e-05
1.60988e-05
1.60985e-05
1.60983e-05
1.6098e-05
1.60976e-05
1.60972e-05
1.60969e-05
1.60967e-05
1.60965e-05
1.60964e-05
1.60963e-05
1.60962e-05
1.60961e-05
1.60961e-05
1.60961e-05
1.60961e-05
1.60962e-05
1.60962e-05
1.60963e-05
1.60964e-05
1.60966e-05
1.60967e-05
1.60969e-05
1.6097e-05
1.60971e-05
1.60973e-05
1.60974e-05
1.60975e-05
1.60976e-05
1.60977e-05
1.60977e-05
1.60976e-05
1.60977e-05
1.60977e-05
1.60983e-05
1.60981e-05
1.60997e-05
1.60994e-05
1.60992e-05
1.60993e-05
1.60994e-05
1.60996e-05
1.60998e-05
1.60999e-05
1.61001e-05
1.61003e-05
1.61005e-05
1.61006e-05
1.61007e-05
1.61008e-05
1.61009e-05
1.6101e-05
1.6101e-05
1.61011e-05
1.61011e-05
1.61011e-05
1.61011e-05
1.61011e-05
1.61011e-05
1.61011e-05
1.61011e-05
1.6101e-05
1.6101e-05
1.6101e-05
1.61011e-05
1.61012e-05
1.61014e-05
1.61016e-05
1.6102e-05
1.61023e-05
1.61034e-05
1.61027e-05
1.61063e-05
1.61055e-05
1.61008e-05
1.60999e-05
1.61e-05
1.60996e-05
1.60987e-05
1.60984e-05
1.60982e-05
1.60979e-05
1.60974e-05
1.60971e-05
1.60968e-05
1.60966e-05
1.60964e-05
1.60963e-05
1.60962e-05
1.60961e-05
1.60961e-05
1.6096e-05
1.6096e-05
1.6096e-05
1.60961e-05
1.60961e-05
1.60962e-05
1.60963e-05
1.60965e-05
1.60966e-05
1.60967e-05
1.60969e-05
1.6097e-05
1.60972e-05
1.60973e-05
1.60975e-05
1.60976e-05
1.60977e-05
1.60977e-05
1.60977e-05
1.60977e-05
1.60977e-05
1.60981e-05
1.6098e-05
1.60996e-05
1.60993e-05
1.60992e-05
1.60993e-05
1.60995e-05
1.60996e-05
1.60998e-05
1.61e-05
1.61002e-05
1.61004e-05
1.61006e-05
1.61007e-05
1.61009e-05
1.6101e-05
1.61011e-05
1.61012e-05
1.61012e-05
1.61013e-05
1.61013e-05
1.61014e-05
1.61014e-05
1.61014e-05
1.61014e-05
1.61014e-05
1.61014e-05
1.61014e-05
1.61014e-05
1.61014e-05
1.61014e-05
1.61015e-05
1.61016e-05
1.61018e-05
1.61021e-05
1.61024e-05
1.61031e-05
1.61034e-05
1.61044e-05
1.61067e-05
1.61048e-05
1.60998e-05
1.60999e-05
1.60995e-05
1.60986e-05
1.60983e-05
1.60981e-05
1.60977e-05
1.60973e-05
1.6097e-05
1.60967e-05
1.60965e-05
1.60963e-05
1.60962e-05
1.60961e-05
1.6096e-05
1.6096e-05
1.6096e-05
1.6096e-05
1.6096e-05
1.6096e-05
1.6096e-05
1.60961e-05
1.60962e-05
1.60964e-05
1.60965e-05
1.60966e-05
1.60968e-05
1.60969e-05
1.60971e-05
1.60972e-05
1.60974e-05
1.60975e-05
1.60976e-05
1.60977e-05
1.60977e-05
1.60977e-05
1.60977e-05
1.6098e-05
1.60979e-05
1.60995e-05
1.60993e-05
1.60992e-05
1.60993e-05
1.60995e-05
1.60997e-05
1.60999e-05
1.61001e-05
1.61003e-05
1.61005e-05
1.61007e-05
1.61009e-05
1.6101e-05
1.61011e-05
1.61013e-05
1.61013e-05
1.61014e-05
1.61015e-05
1.61016e-05
1.61016e-05
1.61016e-05
1.61017e-05
1.61017e-05
1.61017e-05
1.61017e-05
1.61017e-05
1.61017e-05
1.61017e-05
1.61017e-05
1.61018e-05
1.61019e-05
1.6102e-05
1.61023e-05
1.61026e-05
1.6103e-05
1.61036e-05
1.61042e-05
1.61056e-05
1.6107e-05
1.60996e-05
1.60997e-05
1.60993e-05
1.60985e-05
1.60982e-05
1.60979e-05
1.60975e-05
1.60971e-05
1.60968e-05
1.60966e-05
1.60963e-05
1.60962e-05
1.60961e-05
1.6096e-05
1.60959e-05
1.60959e-05
1.60959e-05
1.60959e-05
1.60959e-05
1.60959e-05
1.60959e-05
1.6096e-05
1.60961e-05
1.60962e-05
1.60964e-05
1.60965e-05
1.60966e-05
1.60968e-05
1.60969e-05
1.60971e-05
1.60972e-05
1.60974e-05
1.60975e-05
1.60976e-05
1.60977e-05
1.60977e-05
1.60977e-05
1.60979e-05
1.60979e-05
1.60993e-05
1.60992e-05
1.60991e-05
1.60993e-05
1.60995e-05
1.60997e-05
1.61e-05
1.61002e-05
1.61004e-05
1.61006e-05
1.61008e-05
1.6101e-05
1.61012e-05
1.61013e-05
1.61014e-05
1.61015e-05
1.61016e-05
1.61017e-05
1.61018e-05
1.61019e-05
1.61019e-05
1.6102e-05
1.6102e-05
1.6102e-05
1.6102e-05
1.6102e-05
1.6102e-05
1.6102e-05
1.61021e-05
1.61021e-05
1.61022e-05
1.61024e-05
1.61025e-05
1.61028e-05
1.61032e-05
1.61036e-05
1.61044e-05
1.61048e-05
1.61074e-05
1.60995e-05
1.60996e-05
1.60992e-05
1.60984e-05
1.6098e-05
1.60977e-05
1.60974e-05
1.6097e-05
1.60966e-05
1.60964e-05
1.60962e-05
1.6096e-05
1.60959e-05
1.60959e-05
1.60958e-05
1.60958e-05
1.60958e-05
1.60957e-05
1.60957e-05
1.60958e-05
1.60958e-05
1.60959e-05
1.6096e-05
1.60961e-05
1.60962e-05
1.60963e-05
1.60965e-05
1.60966e-05
1.60968e-05
1.60969e-05
1.60971e-05
1.60973e-05
1.60974e-05
1.60976e-05
1.60977e-05
1.60977e-05
1.60977e-05
1.60978e-05
1.60978e-05
1.60992e-05
1.60991e-05
1.60991e-05
1.60993e-05
1.60995e-05
1.60998e-05
1.61e-05
1.61003e-05
1.61005e-05
1.61007e-05
1.61009e-05
1.61011e-05
1.61013e-05
1.61015e-05
1.61016e-05
1.61017e-05
1.61018e-05
1.61019e-05
1.6102e-05
1.61021e-05
1.61022e-05
1.61022e-05
1.61023e-05
1.61023e-05
1.61023e-05
1.61023e-05
1.61024e-05
1.61024e-05
1.61024e-05
1.61025e-05
1.61026e-05
1.61027e-05
1.61029e-05
1.61031e-05
1.61034e-05
1.61037e-05
1.61046e-05
1.61045e-05
1.61071e-05
1.60993e-05
1.60994e-05
1.60991e-05
1.60983e-05
1.60979e-05
1.60976e-05
1.60972e-05
1.60968e-05
1.60965e-05
1.60962e-05
1.6096e-05
1.60959e-05
1.60958e-05
1.60957e-05
1.60957e-05
1.60956e-05
1.60956e-05
1.60956e-05
1.60956e-05
1.60956e-05
1.60957e-05
1.60957e-05
1.60958e-05
1.60959e-05
1.6096e-05
1.60962e-05
1.60963e-05
1.60964e-05
1.60966e-05
1.60967e-05
1.60969e-05
1.60971e-05
1.60973e-05
1.60974e-05
1.60976e-05
1.60977e-05
1.60976e-05
1.60977e-05
1.60978e-05
1.60992e-05
1.60991e-05
1.60991e-05
1.60993e-05
1.60995e-05
1.60998e-05
1.61001e-05
1.61003e-05
1.61006e-05
1.61008e-05
1.6101e-05
1.61012e-05
1.61014e-05
1.61016e-05
1.61017e-05
1.61019e-05
1.6102e-05
1.61021e-05
1.61022e-05
1.61023e-05
1.61024e-05
1.61025e-05
1.61025e-05
1.61026e-05
1.61026e-05
1.61027e-05
1.61027e-05
1.61027e-05
1.61028e-05
1.61028e-05
1.61029e-05
1.6103e-05
1.61032e-05
1.61034e-05
1.61037e-05
1.6104e-05
1.61048e-05
1.61046e-05
1.61069e-05
1.60992e-05
1.60993e-05
1.60989e-05
1.60982e-05
1.60977e-05
1.60974e-05
1.6097e-05
1.60966e-05
1.60963e-05
1.6096e-05
1.60959e-05
1.60957e-05
1.60956e-05
1.60956e-05
1.60955e-05
1.60955e-05
1.60955e-05
1.60955e-05
1.60955e-05
1.60955e-05
1.60955e-05
1.60956e-05
1.60956e-05
1.60957e-05
1.60959e-05
1.6096e-05
1.60961e-05
1.60962e-05
1.60964e-05
1.60965e-05
1.60967e-05