/*--------------------------------*- C++ -*----------------------------------*\
| =========                 |                                                 |
| \\      /  F ield         | OpenFOAM: The Open Source CFD Toolbox           |
|  \\    /   O peration     | Version:  2206                                  |
|   \\  /    A nd           | Website:  www.openfoam.com                      |
|    \\/     M anipulation  |                                                 |
\*---------------------------------------------------------------------------*/
FoamFile
{
    version     2.0;
    format      ascii;
    arch        "LSB;label=32;scalar=64";
    class       volVectorField;
    location    "0.5";
    object      U;
}
// * * * * * * * * * * * * * * * * * * * * * * * * * * * * * * * * * * * * * //

dimensions      [0 1 -1 0 0 0 0];

internalField   nonuniform List<vector> 
67442
(
(-1.11942e-06 3.2805e-07 0.136774)
(1.22972e-06 3.08e-07 0.132518)
(2.9139e-06 -1.25119e-06 0.132727)
(-0.00020748 -0.000207056 0.129188)
(0.000206565 0.000207765 0.12919)
(3.10749e-06 2.70349e-06 0.132726)
(-3.86498e-06 3.42234e-06 0.132732)
(-0.000205362 0.000207806 0.129193)
(-7.59562e-07 3.11532e-07 0.13252)
(7.65578e-08 -6.3461e-07 0.132521)
(-1.58083e-07 -5.99928e-07 0.132517)
(0.000206828 -0.000206433 0.129189)
(-2.94738e-06 -1.24088e-06 0.132732)
(3.12427e-06 2.11684e-05 0.0756608)
(4.83107e-08 3.17955e-05 0.10193)
(-5.58136e-06 7.40985e-06 0.0648977)
(1.86896e-05 3.09469e-06 0.0753035)
(3.0266e-05 -2.10544e-07 0.101248)
(1.36761e-06 5.56367e-07 0.136775)
(-5.53588e-07 8.50361e-08 0.136775)
(5.22107e-07 5.42799e-08 0.136775)
(-4.63539e-05 1.3092e-05 0.103167)
(3.3587e-06 -1.44005e-06 0.13497)
(-6.27489e-05 -1.28652e-06 0.118865)
(6.48739e-06 -4.80205e-06 0.0647372)
(-1.56219e-06 -2.60295e-06 0.135244)
(1.71247e-05 -4.41321e-05 0.103596)
(-7.82876e-07 -6.08212e-05 0.119451)
(-1.29872e-05 -1.43739e-05 0.0887573)
(-1.79736e-05 -1.20606e-05 0.0890111)
(5.83203e-06 6.54238e-06 0.0649076)
(6.05433e-06 5.04636e-06 0.0647416)
(1.78331e-05 1.2515e-05 0.0890552)
(1.25621e-05 1.43381e-05 0.0887148)
(-2.84627e-06 2.12641e-05 0.075653)
(-6.70096e-08 3.18237e-05 0.10193)
(1.65641e-05 4.4053e-05 0.103595)
(-7.85011e-07 1.98669e-06 0.135255)
(-3.84318e-07 5.94708e-05 0.119454)
(-1.64158e-05 4.39043e-05 0.103583)
(3.89233e-07 2.19988e-06 0.135256)
(2.42536e-07 5.94934e-05 0.119454)
(-1.79743e-05 1.24664e-05 0.0890152)
(-1.22077e-05 1.43286e-05 0.0887498)
(-5.38059e-06 5.26923e-06 0.0647454)
(4.62715e-05 1.29442e-05 0.103155)
(-3.18445e-06 -1.20998e-06 0.13497)
(6.26539e-05 -1.21259e-06 0.118864)
(1.8832e-05 -2.81452e-06 0.0753013)
(3.01298e-05 8.5385e-08 0.101249)
(-2.81725e-06 1.48244e-06 0.134959)
(4.67296e-05 -1.29281e-05 0.103153)
(6.26471e-05 9.8231e-07 0.118864)
(-1.86236e-05 3.35054e-06 0.0753065)
(-3.0365e-05 -1.91349e-07 0.101248)
(2.73194e-06 1.40761e-06 0.134959)
(-4.66383e-05 -1.29994e-05 0.103165)
(-6.27812e-05 9.19056e-07 0.118865)
(-1.8878e-05 -2.94416e-06 0.075307)
(-3.02679e-05 6.75105e-08 0.10125)
(1.29132e-05 -1.4844e-05 0.0887211)
(1.76711e-05 -1.21174e-05 0.0890468)
(6.35003e-06 -5.92774e-06 0.0649124)
(1.49401e-06 -2.77501e-06 0.135245)
(-1.70388e-05 -4.39689e-05 0.103585)
(7.58666e-07 -6.08104e-05 0.119451)
(3.81645e-06 -2.08064e-05 0.0756626)
(-3.51047e-08 -3.30783e-05 0.101923)
(-3.689e-06 -2.08014e-05 0.0756591)
(-3.91155e-09 -3.3061e-05 0.101922)
(-6.22988e-06 -4.94843e-06 0.0647437)
(-6.16183e-06 -6.26967e-06 0.0649075)
(1.10768e-06 -8.28943e-06 0.062705)
(-3.15394e-06 -1.93833e-05 0.0755889)
(1.59265e-06 2.43578e-05 0.0874353)
(-2.42417e-06 -2.42966e-05 0.0873233)
(-1.94331e-06 8.39842e-06 0.0627317)
(2.03118e-06 -8.83873e-06 0.0703681)
(-5.34916e-08 -3.26054e-05 0.101747)
(-6.6814e-07 8.53175e-06 0.0730142)
(2.85945e-07 3.11851e-05 0.0984178)
(6.12917e-07 -8.58019e-06 0.072938)
(-5.85619e-07 -3.20923e-05 0.0982481)
(-2.41679e-06 8.64775e-06 0.0704331)
(4.44398e-06 -5.93464e-06 0.0648312)
(8.29221e-06 -1.70974e-06 0.0701348)
(3.02453e-05 -1.89912e-07 0.101248)
(3.03421e-05 2.40675e-07 0.0977499)
(7.81924e-06 -5.49175e-07 0.0727021)
(-7.9517e-06 2.64988e-06 0.0622573)
(-1.87441e-05 -2.52326e-06 0.0750793)
(2.27163e-05 1.37386e-06 0.0868449)
(-2.37482e-05 -8.2812e-07 0.0864846)
(7.67687e-06 -1.45208e-06 0.0624185)
(7.67985e-06 -1.45005e-06 0.0624185)
(1.86996e-05 3.10477e-06 0.0753035)
(2.27295e-05 1.38625e-06 0.0868449)
(-7.60568e-06 2.72777e-06 0.0698859)
(-2.93912e-05 9.33161e-08 0.100662)
(3.03553e-05 2.24761e-07 0.0977498)
(7.80829e-06 -5.78966e-07 0.072702)
(-2.92038e-05 2.55075e-07 0.0972143)
(-7.10131e-06 7.39514e-07 0.0724264)
(8.28622e-06 -1.72645e-06 0.0701348)
(-6.50887e-06 3.88968e-06 0.0645864)
(7.15128e-06 -4.50809e-06 0.0647366)
(3.92729e-05 1.95414e-05 0.0993059)
(-5.7636e-05 -3.00759e-05 0.111508)
(1.3561e-05 1.3824e-05 0.0884057)
(-9.4758e-06 -5.41032e-06 0.0746126)
(5.50479e-05 3.04422e-05 0.110995)
(1.00283e-05 5.65885e-06 0.0743875)
(-4.01708e-05 -1.71813e-05 0.0997522)
(1.64279e-05 4.01604e-05 0.099392)
(-3.15181e-05 -5.67249e-05 0.11163)
(1.52583e-05 1.26353e-05 0.088802)
(-6.87658e-06 -8.69576e-06 0.0746391)
(2.68145e-05 5.75416e-05 0.111275)
(5.87612e-06 9.56948e-06 0.0744779)
(-1.7741e-05 -3.85133e-05 0.0997717)
(1.09041e-05 1.12419e-05 0.0807778)
(-4.66775e-06 -3.82315e-06 0.0635122)
(-5.08217e-06 -3.83938e-06 0.0635538)
(4.92758e-06 4.20394e-06 0.0633671)
(4.32764e-06 4.80852e-06 0.0634274)
(-1.13532e-05 -9.94004e-06 0.0810725)
(-4.62795e-06 -6.49741e-06 0.0648391)
(-6.87234e-06 -4.04208e-06 0.0645892)
(6.05956e-06 5.04992e-06 0.0647416)
(-1.76103e-05 -3.97449e-05 0.0994789)
(3.20218e-05 5.63613e-05 0.111708)
(-1.48132e-05 -1.23309e-05 0.0888449)
(7.13643e-06 8.9526e-06 0.0747461)
(-5.69757e-06 -9.58264e-06 0.0745862)
(-2.72917e-05 -5.57766e-05 0.111355)
(1.93777e-05 3.84609e-05 0.0998581)
(-3.97322e-05 -1.8331e-05 0.0992194)
(5.82687e-05 2.88818e-05 0.111433)
(-1.37071e-05 -1.41088e-05 0.0883616)
(9.29707e-06 5.01979e-06 0.0745063)
(-9.98449e-06 -5.77787e-06 0.0742778)
(-5.68333e-05 -2.98739e-05 0.110917)
(4.04784e-05 1.52854e-05 0.0996662)
(-1.08271e-05 -1.13257e-05 0.0807782)
(5.34227e-06 3.72875e-06 0.0635545)
(4.79149e-06 3.5079e-06 0.0635092)
(-4.11922e-06 -4.94494e-06 0.0634308)
(-4.80802e-06 -4.38422e-06 0.0633623)
(1.17306e-05 9.56929e-06 0.0810717)
(-1.06232e-06 -8.28545e-06 0.0627012)
(3.26346e-06 -1.91676e-05 0.0755822)
(-1.47493e-06 2.43519e-05 0.0874328)
(2.3935e-06 -2.42783e-05 0.0873198)
(2.07837e-06 8.34867e-06 0.0627287)
(-1.97775e-06 -8.80969e-06 0.0703669)
(1.03516e-07 -3.2598e-05 0.101746)
(6.80175e-07 8.52282e-06 0.0730156)
(-2.8094e-07 3.11856e-05 0.0984191)
(-5.32625e-07 -8.54987e-06 0.0729374)
(5.54557e-07 -3.20952e-05 0.098247)
(2.48684e-06 8.6503e-06 0.0704341)
(1.51708e-05 -3.74264e-05 0.0993994)
(-3.21602e-05 5.80544e-05 0.111663)
(1.40453e-05 -1.22331e-05 0.0888045)
(-7.93153e-06 9.02942e-06 0.0746465)
(4.2223e-06 -9.14431e-06 0.07445)
(2.59861e-05 -5.80048e-05 0.111314)
(-1.8489e-05 3.75085e-05 0.0997667)
(3.50713e-05 -1.94154e-05 0.099314)
(-5.77266e-05 2.89438e-05 0.111483)
(1.36805e-05 -1.49718e-05 0.0883996)
(-9.0824e-06 4.75913e-06 0.0745999)
(5.74124e-05 -3.11891e-05 0.110967)
(1.03642e-05 -6.85752e-06 0.0744083)
(-3.81038e-05 1.58918e-05 0.0997585)
(8.89601e-06 -1.33766e-05 0.0807845)
(-6.046e-06 2.83687e-06 0.0635543)
(-4.95671e-06 2.75608e-06 0.0635061)
(2.61831e-06 -6.65183e-06 0.0634127)
(4.69227e-06 -5.34487e-06 0.0633797)
(-1.2372e-05 8.99725e-06 0.0810706)
(7.24728e-06 -4.23736e-06 0.0645945)
(7.93754e-06 1.93493e-06 0.0701351)
(3.01168e-05 1.01232e-07 0.101249)
(7.75793e-06 5.02898e-07 0.0727019)
(2.9519e-05 4.70281e-08 0.0977515)
(-7.9605e-06 -2.20359e-06 0.0622588)
(-1.84819e-05 2.67038e-06 0.0750771)
(2.29237e-05 -8.28111e-07 0.0868437)
(-2.36074e-05 1.36241e-06 0.0864834)
(7.70017e-06 1.89323e-06 0.0624199)
(7.69839e-06 1.99161e-06 0.06242)
(1.89755e-05 -2.60315e-06 0.0753011)
(2.29047e-05 -7.48774e-07 0.0868438)
(-7.97593e-06 -2.57515e-06 0.0698862)
(-2.94836e-05 -2.37461e-07 0.100663)
(7.73626e-06 4.88457e-07 0.0727018)
(2.9541e-05 2.28384e-08 0.0977514)
(-7.16285e-06 -8.36832e-07 0.072426)
(-3.00221e-05 -5.92594e-08 0.0972155)
(7.91983e-06 1.90377e-06 0.0701351)
(7.89607e-06 2.69543e-06 0.0622583)
(1.87651e-05 -2.42223e-06 0.0750848)
(-2.27661e-05 1.48608e-06 0.0868447)
(2.36103e-05 -8.03495e-07 0.0864884)
(-7.74226e-06 -1.37017e-06 0.0624168)
(7.56603e-06 2.78658e-06 0.0698865)
(2.92629e-05 1.49702e-07 0.100663)
(-3.04506e-05 2.48095e-07 0.0977488)
(-7.88434e-06 -5.4953e-07 0.0727011)
(2.90613e-05 2.98812e-07 0.0972171)
(7.04394e-06 7.934e-07 0.0724262)
(-8.34798e-06 -1.69087e-06 0.0701328)
(7.89967e-06 -2.23358e-06 0.0622596)
(1.8404e-05 2.71959e-06 0.0750825)
(-2.295e-05 -9.63727e-07 0.0868467)
(2.35133e-05 1.29413e-06 0.0864864)
(-7.74354e-06 1.84937e-06 0.0624208)
(7.87594e-06 -2.60607e-06 0.0698862)
(2.93144e-05 -2.29674e-07 0.100664)
(-7.83383e-06 4.65313e-07 0.0727015)
(-2.96983e-05 -6.40617e-08 0.0977524)
(7.07349e-06 -8.3311e-07 0.0724258)
(2.983e-05 -1.07441e-07 0.0972166)
(-8.02948e-06 1.84514e-06 0.0701351)
(-3.93758e-05 1.95098e-05 0.0992287)
(6.05899e-05 -3.09188e-05 0.111463)
(-1.38611e-05 1.30605e-05 0.0883685)
(9.70528e-06 -4.61534e-06 0.0745094)
(-1.01061e-05 6.01786e-06 0.074261)
(-5.55329e-05 2.84748e-05 0.110957)
(3.9389e-05 -1.50046e-05 0.0996641)
(-1.67639e-05 3.75725e-05 0.0994801)
(3.10659e-05 -5.50762e-05 0.111677)
(-1.62882e-05 1.26094e-05 0.088839)
(7.32646e-06 -8.2931e-06 0.0747418)
(-2.92673e-05 5.82073e-05 0.11132)
(-5.91068e-06 9.40847e-06 0.0746026)
(1.94922e-05 -3.60142e-05 0.0998598)
(-1.26033e-05 9.50929e-06 0.0807851)
(5.33664e-06 -3.41709e-06 0.0635041)
(5.07456e-06 -3.30445e-06 0.0635593)
(-5.48492e-06 3.67247e-06 0.0633507)
(-4.94668e-06 4.44589e-06 0.0634463)
(1.11531e-05 -9.96555e-06 0.0810733)
(-4.7257e-06 7.18387e-06 0.0648457)
(2.11942e-06 8.80434e-06 0.0627035)
(-2.95432e-06 2.01337e-05 0.0755937)
(2.65077e-06 -2.40972e-05 0.0874338)
(-1.68205e-06 2.54305e-05 0.0873245)
(-9.43058e-07 -8.29676e-06 0.0627284)
(2.80275e-06 8.7331e-06 0.0703624)
(1.38557e-08 3.21297e-05 0.101743)
(9.70508e-07 -3.30094e-05 0.0984107)
(-6.3364e-07 -8.93066e-06 0.0730071)
(2.79431e-07 3.16819e-05 0.0982436)
(6.60136e-07 8.49565e-06 0.0729327)
(-1.76722e-06 -9.29687e-06 0.0704265)
(-2.06502e-06 8.77822e-06 0.0627009)
(2.95995e-06 2.02553e-05 0.0755881)
(-2.6301e-06 -2.41257e-05 0.087433)
(1.70126e-06 2.54681e-05 0.0873219)
(9.48452e-07 -8.33426e-06 0.0627272)
(-2.79628e-06 8.77301e-06 0.0703636)
(-6.23973e-08 3.21131e-05 0.101743)
(-9.60479e-07 -3.29445e-05 0.0984112)
(6.22486e-07 -8.90286e-06 0.0730073)
(-2.26504e-07 3.17587e-05 0.098244)
(-6.9274e-07 8.50113e-06 0.0729345)
(1.73755e-06 -9.22091e-06 0.0704276)
(6.66559e-06 4.05541e-06 0.0645917)
(4.59391e-06 6.86536e-06 0.0648399)
(-4.57911e-07 3.49186e-07 0.138014)
(-7.82266e-08 1.10701e-06 0.137915)
(-1.25261e-06 4.09025e-07 0.138744)
(5.50934e-05 5.67331e-05 0.113691)
(-5.47211e-05 -0.000219002 0.122715)
(-0.000216007 -5.1753e-05 0.122724)
(0.000213474 0.00021838 0.129054)
(5.07555e-05 0.000219684 0.122367)
(0.00021266 5.27815e-05 0.122452)
(-5.47608e-05 -5.23634e-05 0.114076)
(-5.58724e-05 -5.60655e-05 0.113694)
(0.00021954 5.31911e-05 0.122802)
(5.29889e-05 0.000215587 0.122637)
(-0.000214264 -0.000217426 0.129058)
(-0.000216074 -5.26485e-05 0.122536)
(-5.09599e-05 -0.000216478 0.122289)
(5.55206e-05 5.18589e-05 0.114077)
(5.69071e-05 -5.77555e-05 0.113701)
(-0.000221245 5.41371e-05 0.122797)
(-5.1548e-05 0.0002179 0.122652)
(0.000213203 -0.000215787 0.129062)
(5.13616e-05 -0.000221445 0.122304)
(0.000218014 -5.25679e-05 0.122529)
(-5.58487e-05 5.299e-05 0.114086)
(-5.50232e-05 5.81522e-05 0.113698)
(5.57714e-05 -0.000220866 0.122707)
(0.000218213 -5.03005e-05 0.122734)
(-0.000213603 0.000217595 0.129056)
(-0.000215921 5.33627e-05 0.122463)
(-5.06419e-05 0.0002198 0.122363)
(5.60829e-05 -5.24757e-05 0.11408)
(4.3369e-07 4.19848e-07 0.138014)
(1.89954e-07 1.08939e-06 0.137915)
(1.2559e-06 4.1917e-07 0.138744)
(-6.77951e-07 -1.10262e-06 0.137924)
(-6.80891e-07 -1.59318e-06 0.138005)
(-1.41179e-06 -1.04517e-06 0.138744)
(8.39357e-07 -1.10797e-06 0.137924)
(6.47436e-07 -1.632e-06 0.138005)
(1.47708e-06 -1.07375e-06 0.138744)
(0.000263408 -5.47392e-06 0.12366)
(-0.000246032 1.23937e-05 0.118931)
(4.52069e-05 -1.56249e-05 0.102729)
(-5.81024e-05 1.44628e-06 0.111544)
(0.000239739 -1.6607e-05 0.118487)
(5.76934e-05 -4.13806e-06 0.111022)
(-0.00025852 6.43888e-07 0.124023)
(0.000253348 -3.53037e-06 0.126365)
(5.8863e-05 2.86363e-08 0.118228)
(-6.33345e-05 -1.16786e-06 0.116576)
(-0.000248771 -9.18297e-07 0.128125)
(5.95626e-05 -2.52216e-07 0.115981)
(0.000249188 -4.46529e-07 0.127692)
(-0.000258938 -3.52903e-07 0.126758)
(5.33466e-07 0.000256875 0.124351)
(1.34407e-05 -0.00023998 0.11922)
(-1.67082e-05 4.34487e-05 0.103436)
(4.58512e-06 -5.6099e-05 0.112063)
(-9.72038e-06 0.000236042 0.119034)
(-3.76325e-06 5.66674e-05 0.11192)
(1.14473e-06 -0.000250453 0.124395)
(1.86996e-06 0.000244522 0.12714)
(2.78729e-07 5.92116e-05 0.119295)
(-1.13266e-06 -0.000240297 0.128554)
(6.68982e-07 -6.1498e-05 0.117154)
(8.53053e-07 0.000240009 0.128503)
(1.10481e-06 5.97921e-05 0.117008)
(-2.34889e-06 -0.000250628 0.127163)
(2.8322e-06 -0.000251203 0.124331)
(1.18076e-05 0.000239191 0.119221)
(-1.62459e-05 -4.24955e-05 0.103432)
(2.74078e-06 5.43938e-05 0.112064)
(-5.01791e-06 -5.3774e-05 0.111915)
(-7.54417e-06 -0.000233231 0.119033)
(1.00641e-07 0.000249494 0.124391)
(1.16542e-06 -0.000246034 0.127127)
(2.37685e-07 -5.86305e-05 0.119295)
(-2.80932e-07 5.80258e-05 0.117159)
(2.09922e-07 0.000237332 0.128545)
(-2.78453e-07 -5.7946e-05 0.117007)
(-3.91308e-07 -0.000239303 0.128491)
(-5.78294e-07 0.000243786 0.127164)
(-3.52273e-06 -0.000251133 0.124331)
(-1.2346e-05 0.000239548 0.119212)
(1.61102e-05 -4.26026e-05 0.10342)
(-2.82623e-06 5.43681e-05 0.112062)
(4.89596e-06 -5.3816e-05 0.111913)
(6.42785e-06 -0.000232934 0.119024)
(-6.59049e-07 0.000249673 0.124391)
(-1.58733e-06 -0.000246031 0.127128)
(-3.2337e-07 -5.8653e-05 0.119295)
(1.16142e-07 5.80663e-05 0.11716)
(-4.61161e-07 0.000237402 0.128546)
(1.17181e-07 -5.80264e-05 0.117007)
(4.26156e-08 -0.000239274 0.128492)
(2.15626e-07 0.000243928 0.127166)
(-0.000263376 -4.95765e-06 0.123656)
(0.000246146 1.22997e-05 0.118916)
(-4.54415e-05 -1.55697e-05 0.102717)
(5.79844e-05 1.38363e-06 0.111539)
(-5.79243e-05 -4.08135e-06 0.111016)
(-0.000239372 -1.57323e-05 0.118474)
(0.000258541 9.0628e-07 0.124018)
(-0.000253374 -3.15785e-06 0.126362)
(-5.89836e-05 4.36896e-08 0.118227)
(6.32649e-05 -1.07367e-06 0.116575)
(0.000248724 -7.21309e-07 0.128125)
(-5.97216e-05 -1.77256e-07 0.115977)
(-0.000249281 -2.68163e-07 0.127691)
(0.000258948 -6.85442e-08 0.126756)
(-0.00025982 5.19165e-06 0.123642)
(0.000245654 -1.31768e-05 0.118915)
(-4.52467e-05 1.53746e-05 0.102715)
(5.88763e-05 -6.06033e-07 0.111539)
(-5.829e-05 5.00287e-06 0.111013)
(-0.000237311 1.57989e-05 0.118475)
(0.000258615 -1.09531e-06 0.124012)
(-0.000256275 3.12636e-06 0.126351)
(-5.90527e-05 -2.69538e-07 0.118226)
(0.000248412 1.48993e-06 0.128118)
(6.24486e-05 1.49047e-06 0.116577)
(-0.000248107 4.37061e-07 0.127684)
(-6.09658e-05 5.8908e-07 0.115976)
(0.000254285 5.03397e-07 0.126752)
(0.000259657 5.16115e-06 0.123644)
(-0.000245298 -1.31956e-05 0.118926)
(4.51195e-05 1.55804e-05 0.102726)
(-5.88826e-05 -8.57285e-07 0.111542)
(0.000237481 1.64896e-05 0.118484)
(5.80661e-05 4.84931e-06 0.111017)
(-0.000258623 -1.32592e-06 0.124013)
(0.000256037 3.13648e-06 0.126351)
(5.8875e-05 -2.90784e-07 0.118227)
(-0.000248566 1.38626e-06 0.128119)
(-6.25577e-05 1.31209e-06 0.116577)
(0.000247899 4.13202e-07 0.127684)
(6.073e-05 4.80744e-07 0.115978)
(-0.000254442 3.3987e-07 0.126752)
(-6.29046e-07 0.000256853 0.12435)
(-1.33155e-05 -0.000239916 0.119208)
(1.66211e-05 4.34746e-05 0.103424)
(-4.43689e-06 -5.60556e-05 0.11206)
(9.03888e-06 0.000235683 0.119022)
(3.78056e-06 5.68211e-05 0.111917)
(-1.16726e-06 -0.000250422 0.124393)
(-2.03573e-06 0.000244518 0.127141)
(-3.1796e-07 5.92086e-05 0.119295)
(1.08532e-06 -0.000240289 0.128554)
(-6.50769e-07 -6.14828e-05 0.117153)
(-9.89368e-07 0.000240004 0.128503)
(-1.15443e-06 5.98792e-05 0.117008)
(2.32726e-06 -0.000250601 0.127163)
(8.12843e-07 5.16124e-06 0.0447236)
(4.60704e-07 2.25059e-06 0.0304879)
(2.60553e-07 9.37058e-07 0.0190853)
(1.1741e-07 2.90396e-07 0.0100984)
(3.48247e-08 5.09541e-08 0.00307807)
(-2.92542e-06 2.57961e-06 0.0461291)
(-1.716e-06 9.04625e-07 0.0315524)
(-1.02941e-06 2.23311e-07 0.0197996)
(-5.46813e-07 -3.8335e-08 0.0104951)
(-1.81025e-07 -4.4973e-08 0.00320462)
(4.52381e-06 8.90286e-07 0.0447422)
(1.95126e-06 5.50933e-07 0.0304983)
(8.10561e-07 3.30637e-07 0.0190909)
(2.4687e-07 1.57234e-07 0.0101008)
(4.10022e-08 4.60396e-08 0.00307864)
(2.16991e-06 -2.58758e-06 0.0461446)
(7.54143e-07 -1.58648e-06 0.0315614)
(1.84669e-07 -9.61087e-07 0.0198051)
(-3.84785e-08 -5.0053e-07 0.0104983)
(-3.90639e-08 -1.59519e-07 0.00320566)
(3.1392e-06 2.06103e-06 0.0461357)
(1.90995e-06 5.96806e-07 0.0315573)
(1.17465e-06 6.05256e-08 0.0198029)
(6.26866e-07 -1.09281e-07 0.0104975)
(2.02748e-07 -6.11723e-08 0.00320569)
(1.81554e-06 2.72821e-06 0.0461477)
(4.99277e-07 1.72417e-06 0.0315631)
(3.04642e-08 1.09366e-06 0.0198057)
(-1.14278e-07 5.94904e-07 0.0104982)
(-6.01269e-08 1.9381e-07 0.00320555)
(-5.38041e-07 5.25291e-06 0.0447195)
(-2.17383e-07 2.34576e-06 0.0304854)
(-8.4506e-08 1.01252e-06 0.0190836)
(-2.16285e-08 3.33327e-07 0.0100971)
(-9.30497e-09 5.95028e-08 0.00307753)
(-1.38922e-06 2.9286e-06 0.04615)
(-2.34994e-07 1.92008e-06 0.0315653)
(1.17603e-07 1.2438e-06 0.0198076)
(1.82217e-07 6.82002e-07 0.0104997)
(7.78993e-08 2.23368e-07 0.00320622)
(4.70184e-06 -6.92656e-07 0.0447421)
(2.08515e-06 -3.28039e-07 0.0304987)
(9.13094e-07 -1.18805e-07 0.0190913)
(3.1121e-07 -6.8686e-09 0.0101008)
(6.30464e-08 1.14741e-08 0.00307852)
(-4.4315e-06 1.15597e-06 0.0447433)
(-1.85542e-06 8.05126e-07 0.0304995)
(-7.35517e-07 5.31836e-07 0.019092)
(-2.01759e-07 2.81948e-07 0.0101016)
(-2.52195e-08 9.07147e-08 0.00307895)
(-4.63903e-06 -7.62885e-07 0.0447443)
(-2.02471e-06 -4.47172e-07 0.0304996)
(-8.59176e-07 -2.54487e-07 0.0190923)
(-2.75013e-07 -1.09734e-07 0.0101019)
(-4.97651e-08 -3.01554e-08 0.00307917)
(3.42884e-06 -1.58103e-06 0.0461405)
(2.16337e-06 -2.53101e-07 0.0315607)
(1.39655e-06 1.57413e-07 0.0198052)
(7.78856e-07 2.23976e-07 0.0104984)
(2.61303e-07 9.52546e-08 0.00320584)
(1.34076e-06 -4.90198e-06 0.0447272)
(9.22869e-07 -2.03471e-06 0.0304909)
(6.34561e-07 -7.7864e-07 0.0190871)
(3.62712e-07 -1.95291e-07 0.0100991)
(1.27044e-07 -1.62855e-08 0.0030781)
(-1.26588e-06 -4.95678e-06 0.0447256)
(-8.12873e-07 -2.10341e-06 0.0304901)
(-5.1119e-07 -8.41537e-07 0.0190869)
(-2.70523e-07 -2.36313e-07 0.0100987)
(-9.27888e-08 -3.0276e-08 0.00307792)
(-1.93702e-06 -2.63794e-06 0.0461486)
(-5.76009e-07 -1.64088e-06 0.0315639)
(-7.82719e-08 -1.02304e-06 0.0198067)
(8.66772e-08 -5.45777e-07 0.010499)
(5.10994e-08 -1.76537e-07 0.00320584)
(-3.39123e-06 -1.85503e-06 0.0461374)
(-2.10796e-06 -4.50132e-07 0.0315586)
(-1.31908e-06 3.53646e-08 0.0198035)
(-7.17682e-07 1.64329e-07 0.0104973)
(-2.40624e-07 8.2009e-08 0.00320524)
(1.20521e-06 -4.70137e-06 0.0458868)
(1.04607e-06 -2.31036e-06 0.0314101)
(8.14034e-07 -1.06935e-06 0.0197199)
(5.1765e-07 -4.14754e-07 0.0104568)
(1.78565e-07 -1.01624e-07 0.00319407)
(-1.14392e-06 -4.67687e-06 0.0447217)
(-7.48777e-07 -1.96478e-06 0.0304929)
(-4.8529e-07 -7.79408e-07 0.0190896)
(-2.64052e-07 -2.16401e-07 0.0101008)
(-9.39013e-08 -2.54814e-08 0.00307879)
(2.279e-06 -2.01715e-06 0.0461092)
(1.39253e-06 -6.8787e-07 0.0315455)
(8.8939e-07 -1.44573e-07 0.0197967)
(4.94301e-07 5.63036e-08 0.0104939)
(1.68414e-07 4.28696e-08 0.00320426)
(2.2703e-06 -1.39901e-06 0.0454677)
(1.07191e-06 -1.04046e-06 0.031031)
(5.25214e-07 -7.34183e-07 0.0194414)
(2.09403e-07 -4.45372e-07 0.0102932)
(5.66777e-08 -1.58209e-07 0.00313947)
(1.77186e-06 -4.66044e-07 0.0457725)
(7.84006e-07 -3.49782e-07 0.0312576)
(3.6521e-07 -2.42271e-07 0.019593)
(1.30046e-07 -1.43754e-07 0.0103775)
(3.17381e-08 -5.06524e-08 0.00316651)
(-4.22902e-06 2.67802e-06 0.0457529)
(-2.21186e-06 2.15779e-06 0.0313249)
(-1.12743e-06 1.57835e-06 0.0196686)
(-4.88658e-07 9.6016e-07 0.0104301)
(-1.34148e-07 3.2701e-07 0.00318605)
(-4.854e-06 -1.21097e-07 0.0446839)
(-2.21375e-06 1.42569e-07 0.0304721)
(-1.00162e-06 1.78465e-07 0.0190778)
(-3.60109e-07 1.39258e-07 0.0100946)
(-7.57962e-08 4.49827e-08 0.0030768)
(4.53224e-06 8.98007e-07 0.0447422)
(1.95566e-06 5.57741e-07 0.0304983)
(8.13091e-07 3.35348e-07 0.0190909)
(2.4883e-07 1.58505e-07 0.0101008)
(4.20161e-08 4.38767e-08 0.00307862)
(-2.26392e-06 1.82706e-06 0.0460831)
(-8.01921e-07 1.10577e-06 0.0315315)
(-2.15093e-07 7.16464e-07 0.0197894)
(1.73076e-08 4.03633e-07 0.0104906)
(3.27632e-08 1.44142e-07 0.00320337)
(2.51152e-06 -2.32945e-06 0.046144)
(9.18168e-07 -1.40543e-06 0.0315608)
(2.54752e-07 -8.64355e-07 0.0198046)
(-1.26556e-08 -4.59673e-07 0.0104979)
(-3.28708e-08 -1.46957e-07 0.00320552)
(-2.2163e-06 -1.58111e-06 0.0449678)
(-8.54147e-07 -8.46744e-07 0.0306517)
(-3.12044e-07 -4.62593e-07 0.0191864)
(-7.1508e-08 -2.09089e-07 0.0101508)
(-7.87729e-09 -5.99698e-08 0.00309374)
(2.59024e-06 1.35994e-06 0.0448993)
(1.11839e-06 6.01977e-07 0.0306177)
(4.79731e-07 2.74295e-07 0.0191685)
(1.56789e-07 1.01038e-07 0.010142)
(3.13442e-08 2.71943e-08 0.00309116)
(-2.3155e-06 -1.98013e-06 0.0449476)
(-1.2686e-06 -6.77132e-07 0.0306395)
(-7.07151e-07 -1.7786e-07 0.0191792)
(-3.43532e-07 1.37367e-08 0.0101471)
(-1.08271e-07 2.45837e-08 0.00309265)
(1.70813e-06 2.4479e-06 0.0449041)
(8.74054e-07 9.78505e-07 0.0306193)
(4.5893e-07 3.63091e-07 0.0191689)
(2.02133e-07 8.90384e-08 0.0101422)
(5.57685e-08 1.28801e-08 0.0030912)
(-1.95031e-06 -1.51442e-06 0.046067)
(-8.19968e-07 -7.5608e-07 0.0314929)
(-3.1638e-07 -3.66959e-07 0.0197548)
(-8.607e-08 -1.43766e-07 0.0104686)
(-1.48516e-08 -3.7871e-08 0.00319574)
(-2.33943e-06 -1.45672e-06 0.0460665)
(-1.27515e-06 -4.69721e-07 0.0314929)
(-6.93528e-07 -7.463e-08 0.0197551)
(-3.29411e-07 6.01389e-08 0.0104686)
(-1.03109e-07 3.90634e-08 0.00319567)
(2.12768e-06 1.62815e-06 0.0460043)
(9.37322e-07 7.62859e-07 0.0314619)
(3.83916e-07 3.44701e-07 0.0197385)
(1.14152e-07 1.2676e-07 0.0104606)
(1.9177e-08 3.37517e-08 0.00319339)
(1.82948e-06 2.07342e-06 0.0460132)
(9.27398e-07 8.5336e-07 0.0314669)
(4.60825e-07 3.05519e-07 0.0197415)
(1.90927e-07 6.64874e-08 0.0104619)
(5.12723e-08 5.87182e-09 0.00319371)
(-2.41711e-06 -2.22021e-06 0.046115)
(-1.45577e-06 -7.42297e-07 0.0315499)
(-9.04395e-07 -1.6469e-07 0.0197999)
(-4.91812e-07 4.88593e-08 0.0104962)
(-1.67981e-07 4.33075e-08 0.0032053)
(-2.56487e-06 -1.77394e-06 0.0460853)
(-1.0507e-06 -9.22093e-07 0.0315327)
(-3.93928e-07 -5.0705e-07 0.0197898)
(-8.63279e-08 -2.47321e-07 0.0104904)
(-1.50522e-09 -8.24534e-08 0.00320325)
(1.81475e-06 2.72867e-06 0.0461476)
(5.00114e-07 1.72541e-06 0.0315631)
(3.22406e-08 1.09365e-06 0.0198057)
(-1.11731e-07 5.9273e-07 0.0104982)
(-5.77151e-08 1.91187e-07 0.00320553)
(1.30453e-06 -4.59603e-06 0.0447179)
(8.934e-07 -1.89883e-06 0.0304906)
(5.85965e-07 -7.33911e-07 0.019088)
(3.14637e-07 -1.93023e-07 0.0100996)
(1.05635e-07 -2.04746e-08 0.00307828)
(-2.01526e-06 1.33933e-06 0.0449614)
(-8.03383e-07 7.34388e-07 0.0306485)
(-3.12226e-07 4.2436e-07 0.0191851)
(-7.6526e-08 2.00165e-07 0.0101503)
(-1.04019e-08 5.97109e-08 0.00309362)
(3.60391e-06 -2.45153e-06 0.0449048)
(1.59786e-06 -1.10492e-06 0.0306199)
(6.59341e-07 -4.13568e-07 0.0191698)
(2.25531e-07 -1.00546e-07 0.0101427)
(4.81232e-08 -5.97126e-09 0.00309137)
(-2.52543e-06 4.00766e-07 0.0460645)
(-1.41425e-06 -1.25767e-07 0.0314919)
(-7.68468e-07 -2.29958e-07 0.0197547)
(-3.52266e-07 -1.84568e-07 0.0104684)
(-1.03425e-07 -6.49754e-08 0.00319565)
(2.57204e-06 -2.92329e-06 0.0460112)
(9.99669e-07 -1.53769e-06 0.0314656)
(2.76799e-07 -8.27875e-07 0.0197408)
(-1.91906e-08 -3.90527e-07 0.0104616)
(-4.64826e-08 -1.1666e-07 0.00319363)
(2.75804e-06 -1.85733e-06 0.0460886)
(1.11135e-06 -9.46832e-07 0.0315355)
(4.22375e-07 -4.93103e-07 0.0197921)
(1.03335e-07 -2.23949e-07 0.0104921)
(8.39482e-09 -6.88651e-08 0.00320401)
(2.14758e-06 1.58809e-06 0.0454685)
(1.02859e-06 1.20842e-06 0.0310313)
(5.15669e-07 8.61936e-07 0.0194416)
(2.11543e-07 5.21892e-07 0.0102934)
(5.85279e-08 1.81722e-07 0.00313952)
(1.7598e-06 4.61707e-07 0.0457723)
(7.79976e-07 3.66838e-07 0.0312574)
(3.64865e-07 2.66025e-07 0.0195927)
(1.30549e-07 1.6151e-07 0.0103774)
(3.21483e-08 5.505e-08 0.00316647)
(-4.15725e-06 -2.25416e-06 0.0457542)
(-2.13077e-06 -1.78232e-06 0.0313257)
(-1.05922e-06 -1.28762e-06 0.0196692)
(-4.44667e-07 -7.8062e-07 0.0104304)
(-1.19189e-07 -2.65874e-07 0.00318593)
(-4.62251e-06 3.54263e-07 0.0446837)
(-2.04103e-06 1.4152e-07 0.0304724)
(-8.79473e-07 8.08685e-08 0.0190781)
(-2.87548e-07 3.52614e-08 0.0100944)
(-5.15785e-08 1.79434e-08 0.00307666)
(4.79851e-06 -4.17562e-07 0.0447418)
(2.15519e-06 -1.16442e-07 0.0304984)
(9.5569e-07 1.72084e-09 0.0190911)
(3.32847e-07 4.65189e-08 0.0101006)
(6.9243e-08 2.61563e-08 0.00307845)
(4.91464e-06 4.09475e-08 0.0446861)
(2.27433e-06 3.04748e-07 0.030474)
(1.04842e-06 3.02534e-07 0.0190794)
(3.88583e-07 2.12424e-07 0.0100956)
(8.60337e-08 7.15588e-08 0.00307718)
(4.13843e-06 -2.34329e-06 0.0457548)
(2.13884e-06 -1.9014e-06 0.031326)
(1.07455e-06 -1.39568e-06 0.0196693)
(4.56546e-07 -8.50739e-07 0.0104307)
(1.23457e-07 -2.91403e-07 0.00318623)
(4.70999e-06 2.72188e-07 0.0446858)
(2.12832e-06 -1.99922e-08 0.0304734)
(9.52806e-07 -8.6591e-08 0.0190792)
(3.3593e-07 -8.24379e-08 0.0100957)
(6.96266e-08 -2.77661e-08 0.00307734)
(2.29094e-06 -1.9017e-06 0.0449572)
(1.12625e-06 -6.06084e-07 0.0306466)
(6.1157e-07 -1.5577e-07 0.0191842)
(2.99761e-07 1.12354e-08 0.0101502)
(9.66533e-08 1.74511e-08 0.00309387)
(-1.9098e-06 2.84976e-06 0.0449241)
(-9.41938e-07 1.28475e-06 0.0306326)
(-4.2707e-07 5.48699e-07 0.0191775)
(-1.47633e-07 1.81012e-07 0.0101471)
(-2.9584e-08 3.67787e-08 0.00309296)
(1.95861e-06 -1.09326e-06 0.0460674)
(8.1168e-07 -3.97749e-07 0.0314931)
(2.99178e-07 -1.9671e-07 0.019755)
(7.34324e-08 -9.38378e-08 0.010469)
(1.1684e-08 -3.66941e-08 0.00319597)
(-2.25496e-06 2.7272e-06 0.0461209)
(-1.16068e-06 1.123e-06 0.0315542)
(-6.00215e-07 4.22833e-07 0.0198027)
(-2.73044e-07 9.66848e-08 0.0104974)
(-8.23809e-08 5.25936e-09 0.00320555)
(2.11662e-06 5.05224e-06 0.0458854)
(1.78259e-06 2.55981e-06 0.0314089)
(1.34637e-06 1.23551e-06 0.019719)
(8.3368e-07 5.07164e-07 0.0104562)
(2.86871e-07 1.31877e-07 0.00319388)
(-6.93368e-07 5.06186e-06 0.0447267)
(-2.83696e-07 2.239e-06 0.0304968)
(-1.01584e-07 9.67577e-07 0.019092)
(-1.79883e-08 3.2363e-07 0.0101018)
(-4.77862e-09 6.13988e-08 0.00307891)
(-1.99819e-06 5.04367e-06 0.0458836)
(-1.63982e-06 2.53141e-06 0.031408)
(-1.22411e-06 1.20446e-06 0.0197187)
(-7.60296e-07 4.86909e-07 0.010456)
(-2.66752e-07 1.26392e-07 0.00319372)
(8.61152e-07 5.01224e-06 0.0447244)
(5.13271e-07 2.16492e-06 0.0304956)
(3.13475e-07 8.95277e-07 0.0190915)
(1.56119e-07 2.74363e-07 0.0101013)
(5.00222e-08 4.52672e-08 0.00307869)
(2.4535e-06 1.78812e-06 0.0460864)
(9.92076e-07 9.42617e-07 0.0315337)
(3.61156e-07 5.29272e-07 0.0197908)
(6.94259e-08 2.66028e-07 0.0104913)
(-2.77707e-09 8.87557e-08 0.00320357)
(2.36945e-06 2.41492e-06 0.0461173)
(1.40622e-06 8.49532e-07 0.0315517)
(8.58401e-07 2.20724e-07 0.0198007)
(4.54801e-07 -1.99973e-08 0.0104961)
(1.47436e-07 -3.07852e-08 0.00320488)
(-1.1453e-06 -4.67963e-06 0.0458838)
(-9.90231e-07 -2.29055e-06 0.0314084)
(-7.82098e-07 -1.05586e-06 0.0197188)
(-5.11364e-07 -4.09456e-07 0.010456)
(-1.85878e-07 -1.04064e-07 0.00319381)
(4.21499e-06 2.73256e-06 0.0457532)
(2.2127e-06 2.20984e-06 0.0313251)
(1.12985e-06 1.61395e-06 0.0196689)
(4.90296e-07 9.78503e-07 0.0104303)
(1.34595e-07 3.33699e-07 0.00318603)
(1.70669e-06 -2.85231e-06 0.0453684)
(1.32832e-06 -1.31975e-06 0.0309731)
(9.55536e-07 -6.21826e-07 0.0194082)
(5.76271e-07 -2.4557e-07 0.0102763)
(1.94397e-07 -6.62346e-08 0.00313423)
(-5.50094e-07 2.2441e-06 0.0456703)
(-4.26477e-07 9.92552e-07 0.0311942)
(-3.03355e-07 4.57273e-07 0.0195552)
(-1.83597e-07 1.71923e-07 0.0103579)
(-6.54062e-08 4.34779e-08 0.00316041)
(5.08365e-07 -2.29043e-06 0.0456516)
(3.94236e-07 -9.85124e-07 0.0311868)
(2.75856e-07 -4.34494e-07 0.0195518)
(1.59348e-07 -1.50916e-07 0.0103564)
(4.86839e-08 -3.75363e-08 0.00315997)
(-1.95544e-06 2.72352e-06 0.0453841)
(-1.50978e-06 1.27455e-06 0.0309787)
(-1.0814e-06 6.16227e-07 0.0194105)
(-6.56214e-07 2.53779e-07 0.0102773)
(-2.32805e-07 7.31272e-08 0.00313452)
(-2.0142e-06 4.84199e-06 0.0458844)
(-1.72369e-06 2.46353e-06 0.0314036)
(-1.3096e-06 1.19336e-06 0.0197149)
(-8.19372e-07 4.93244e-07 0.0104541)
(-2.90557e-07 1.32684e-07 0.00319325)
(-2.69729e-06 2.13165e-06 0.0449505)
(-1.49467e-06 6.99982e-07 0.0306408)
(-8.30728e-07 1.28279e-07 0.0191801)
(-4.0831e-07 -5.93709e-08 0.0101478)
(-1.28049e-07 -4.27532e-08 0.00309298)
(3.23402e-07 -1.1719e-06 0.0448942)
(2.2924e-07 -5.20901e-07 0.0306148)
(1.98644e-07 -2.10791e-07 0.0191669)
(1.29501e-07 -4.45793e-08 0.0101416)
(5.52089e-08 -5.80335e-09 0.00309118)
(-3.17126e-06 4.46526e-07 0.0460648)
(-2.04221e-06 -3.7002e-07 0.0314913)
(-1.28899e-06 -5.22913e-07 0.0197541)
(-6.9523e-07 -4.04286e-07 0.0104685)
(-2.27694e-07 -1.5168e-07 0.0031959)
(3.91526e-07 -2.27979e-06 0.0460037)
(3.73685e-08 -1.13966e-06 0.0314618)
(-1.34619e-07 -6.03237e-07 0.0197389)
(-1.50283e-07 -2.91992e-07 0.0104612)
(-5.95911e-08 -9.64096e-08 0.00319377)
(3.88588e-06 -1.54066e-06 0.045822)
(1.94877e-06 -1.24403e-06 0.0313584)
(9.4736e-07 -9.31431e-07 0.019686)
(3.86837e-07 -5.87117e-07 0.0104386)
(1.02809e-07 -2.11046e-07 0.00318856)
(-2.08949e-06 2.30271e-06 0.0453729)
(-1.03499e-06 1.78549e-06 0.0309816)
(-5.43241e-07 1.27101e-06 0.0194147)
(-2.37627e-07 7.58912e-07 0.01028)
(-7.02668e-08 2.56025e-07 0.00313558)
(1.75624e-06 -4.93571e-07 0.0457725)
(7.7321e-07 -3.71325e-07 0.0312577)
(3.57941e-07 -2.55279e-07 0.019593)
(1.25847e-07 -1.49427e-07 0.0103775)