/*--------------------------------*- C++ -*----------------------------------*\
| =========                 |                                                 |
| \\      /  F ield         | OpenFOAM: The Open Source CFD Toolbox           |
|  \\    /   O peration     | Version:  2206                                  |
|   \\  /    A nd           | Website:  www.openfoam.com                      |
|    \\/     M anipulation  |                                                 |
\*---------------------------------------------------------------------------*/
FoamFile
{
    version     2.0;
    format      ascii;
    arch        "LSB;label=32;scalar=64";
    class       volVectorField;
    location    "0.5";
    object      wallShearStress;
}
// * * * * * * * * * * * * * * * * * * * * * * * * * * * * * * * * * * * * * //

dimensions      [0 2 -2 0 0 0 0];

internalField   uniform (0 0 0);

boundaryField
{
    topPatch
    {
        type            calculated;
        value           nonuniform List<vector> 0();
    }
    wall
    {
        type            calculated;
        value           nonuniform List<vector> 
7803
(
(-1.72628e-09 -2.95386e-09 -0.000117604)
(7.29269e-09 1.09069e-09 -0.000122507)
(-2.47252e-09 -2.1186e-09 -0.000117636)
(9.15905e-10 6.42576e-09 -0.000122536)
(-8.05507e-09 1.8236e-09 -0.000122522)
(1.84422e-09 -7.6779e-09 -0.000122542)
(7.38951e-10 -3.27075e-09 -0.000117594)
(-2.64072e-09 -8.74663e-09 -0.000122547)
(-3.3559e-09 -7.50715e-11 -0.000117637)
(1.85297e-09 -3.82676e-09 -0.000117637)
(2.83339e-09 1.5162e-09 -0.000117641)
(-1.02291e-08 -3.27517e-09 -0.000122537)
(-5.25876e-09 1.59919e-09 -0.000117612)
(3.95523e-09 2.161e-09 -0.000117608)
(-1.50168e-09 7.01404e-09 -0.000122543)
(9.49786e-09 -2.65568e-09 -0.00012253)
(-6.63791e-09 4.68468e-09 -0.000122064)
(3.94312e-09 1.85828e-09 -0.000117631)
(-6.69471e-09 -1.23114e-09 -0.000122493)
(-2.4693e-09 6.04055e-09 -0.000119934)
(-1.43395e-09 1.93792e-09 -0.000120954)
(5.78489e-09 -1.23722e-08 -0.00012176)
(3.77014e-09 -1.40039e-09 -0.000117566)
(-2.49882e-09 -2.02987e-09 -0.000117635)
(-8.66835e-10 -5.73956e-09 -0.000122449)
(6.80162e-10 5.94653e-09 -0.000122531)
(6.42182e-10 2.55501e-09 -0.000118209)
(-1.59168e-09 -1.32684e-09 -0.000118111)
(4.42724e-09 -5.88426e-10 -0.000118168)
(-2.41924e-09 -8.69231e-10 -0.000118112)
(8.68365e-10 1.70335e-09 -0.000122171)
(4.23629e-09 -1.17256e-09 -0.00012217)
(-1.0743e-09 -1.58569e-09 -0.000122081)
(-2.26715e-09 -5.67895e-10 -0.000122095)
(6.68418e-09 -1.22253e-09 -0.000122507)
(5.42918e-10 3.42009e-09 -0.000122454)
(1.75358e-09 -7.57596e-09 -0.000122541)
(-4.39162e-09 1.66907e-09 -0.000117622)
(7.11381e-10 -2.51552e-09 -0.000118202)
(-2.56275e-09 7.49899e-10 -0.000118116)
(4.1843e-09 2.30649e-09 -0.000122168)
(1.10011e-09 5.06659e-09 -0.00012209)
(-8.54258e-10 2.91578e-09 -0.000122463)
(-2.49028e-09 -6.9516e-09 -0.000119934)
(-1.44225e-09 -2.10752e-09 -0.000120952)
(5.24231e-09 1.00193e-08 -0.000121761)
(2.81959e-09 -1.0111e-09 -0.000117566)
(-3.56917e-09 -6.4791e-10 -0.000117635)
(-4.17669e-09 -2.41273e-09 -0.00011757)
(-5.37579e-09 1.10087e-08 -0.000121762)
(-3.53236e-09 7.38489e-10 -0.000117571)
(-3.87093e-09 -4.62221e-10 -0.000118196)
(1.56375e-09 -1.97166e-09 -0.000118161)
(-5.2584e-10 1.49433e-09 -0.000122172)
(3.45339e-09 -7.48393e-10 -0.000122526)
(-1.07888e-08 -5.83992e-09 -0.000122057)
(5.30887e-10 -3.27377e-09 -0.000117643)
(1.00152e-08 -5.64788e-09 -0.000122052)
(-2.28144e-09 -2.68382e-09 -0.000117638)
(-3.67353e-10 -3.6552e-09 -0.000122456)
(-5.91703e-09 7.03296e-10 -0.000122517)
(6.91253e-09 4.79202e-09 -0.000122055)
(-5.79012e-09 -1.26352e-08 -0.000121759)
(-7.41048e-09 2.90189e-09 -0.000119742)
(2.50229e-09 -1.97055e-09 -0.000120732)
(-1.8601e-09 1.71322e-09 -0.000120715)
(8.89356e-09 -3.11858e-09 -0.000119754)
(1.09285e-08 -5.8739e-09 -0.000122032)
(5.21054e-09 1.27109e-09 -0.000118171)
(-2.09919e-09 1.83346e-10 -0.000118102)
(8.93385e-09 5.57277e-09 -0.000122161)
(2.20078e-09 3.79135e-09 -0.000122079)
(-4.60452e-09 7.91519e-09 -0.000121856)
(2.91076e-09 -9.80266e-09 -0.000119786)
(-1.41475e-09 1.93707e-09 -0.000120955)
(1.40222e-09 -2.92168e-09 -0.000120795)
(-2.48822e-09 5.90226e-09 -0.000119935)
(-4.62445e-09 7.99395e-09 -0.000121855)
(-6.39158e-10 2.58439e-09 -0.000118181)
(4.31245e-10 -2.31047e-09 -0.000118062)
(1.40238e-09 4.84254e-09 -0.000122163)
(6.27053e-09 4.89312e-09 -0.000122057)
(-3.91204e-09 1.35361e-10 -0.0001182)
(2.41811e-09 7.47484e-10 -0.000118146)
(-4.61173e-09 1.48155e-09 -0.000122165)
(1.99372e-09 7.54412e-10 -0.000122092)
(-5.84249e-10 -2.45747e-09 -0.000118181)
(1.41479e-09 1.47311e-09 -0.000118079)
(-1.31182e-09 -1.22239e-09 -0.00012217)
(7.45545e-10 1.92603e-09 -0.000122078)
(7.71721e-09 2.97368e-09 -0.000119742)
(-2.21319e-09 -1.78175e-09 -0.000120736)
(2.22051e-09 1.80059e-09 -0.000120717)
(-8.43825e-09 -2.97716e-09 -0.000119754)
(-1.14677e-08 -5.99271e-09 -0.000122025)
(2.83879e-09 8.92615e-09 -0.000119785)
(-1.51003e-09 -2.1617e-09 -0.000120952)
(1.35965e-09 2.76737e-09 -0.000120793)
(-2.54522e-09 -6.91633e-09 -0.000119935)
(-5.23019e-09 -1.01061e-08 -0.000121858)
(-5.19765e-09 -1.02855e-08 -0.000121857)
(4.36794e-09 7.06063e-09 -0.000121852)
(-2.88948e-09 -9.966e-09 -0.000119784)
(1.51024e-09 1.84867e-09 -0.000120953)
(-1.35824e-09 -2.95437e-09 -0.000120795)
(2.45871e-09 5.71721e-09 -0.000119931)
(-2.89222e-09 9.43309e-09 -0.000119784)
(1.46282e-09 -1.99618e-09 -0.00012095)
(-1.3745e-09 2.91994e-09 -0.000120791)
(2.55001e-09 -6.44358e-09 -0.000119932)
(4.92623e-09 -9.18415e-09 -0.000121858)
(8.94668e-09 4.67645e-09 -0.000122118)
(6.96645e-09 4.79434e-09 -0.000122022)
(-9.98144e-09 -3.73726e-09 -0.000119733)
(2.45992e-09 2.08262e-09 -0.000120724)
(-1.82667e-09 -2.11411e-09 -0.000120709)
(6.48149e-09 3.22458e-09 -0.000119743)
(-7.49077e-09 4.9566e-09 -0.00012202)
(9.75958e-09 -3.30923e-09 -0.000119736)
(-2.07633e-09 1.79642e-09 -0.000120727)
(2.47743e-09 -1.76154e-09 -0.000120712)
(-6.64824e-09 2.96779e-09 -0.000119746)
(3.47195e-09 7.91064e-10 -0.000117569)
(-8.09257e-10 -5.70024e-09 -0.000122454)
(-4.90312e-09 -8.68281e-09 -0.000121858)
(-2.12745e-09 3.03006e-09 -0.000117639)
(2.36151e-09 8.57286e-09 -0.000122539)
(-2.56842e-09 5.90342e-09 -0.000119935)
(1.29529e-09 -2.90739e-09 -0.000120796)
(-1.45703e-09 1.91551e-09 -0.000120955)
(2.81531e-09 -9.79842e-09 -0.000119787)
(-2.39699e-09 -6.18574e-09 -0.000119935)
(1.42236e-09 2.8679e-09 -0.000120793)
(-1.38468e-09 -2.03935e-09 -0.000120953)
(2.94508e-09 9.41254e-09 -0.000119786)
(5.28071e-09 1.06963e-08 -0.000121763)
(7.96607e-10 -1.6768e-09 -0.000118066)
(1.48836e-09 5.07057e-09 -0.000118183)
(3.64243e-09 2.49758e-09 -0.00012207)
(-4.0965e-09 -2.28992e-09 -0.000122177)
(6.38371e-09 -1.0675e-09 -0.000122508)
(5.88661e-10 3.24043e-09 -0.000122456)
(3.6553e-09 1.96231e-09 -0.000117631)
(3.82844e-09 -1.52738e-09 -0.000117567)
(-8.56913e-09 2.06376e-09 -0.000122522)
(1.86767e-09 -7.72719e-09 -0.000122543)
(1.04165e-08 -5.84278e-09 -0.000122032)
(-2.11957e-09 -2.75307e-09 -0.000117604)
(-2.37939e-09 -2.29182e-09 -0.000117636)
(1.88886e-09 8.03861e-10 -0.000122093)
(6.94091e-10 2.00968e-09 -0.000122079)
(-4.60632e-09 7.88447e-09 -0.000121856)
(5.87016e-09 -1.25154e-08 -0.00012176)
(2.10183e-09 9.7176e-10 -0.000118146)
(-4.13993e-09 4.03758e-10 -0.0001182)
(1.43253e-09 1.42613e-09 -0.00011808)
(-5.28424e-10 -2.42794e-09 -0.000118181)
(-1.38631e-09 -1.10123e-09 -0.00012217)
(-4.84855e-09 1.69611e-09 -0.000122165)
(8.73067e-09 -2.92039e-09 -0.000119754)
(-1.63185e-09 1.86057e-09 -0.000120715)
(2.64046e-09 -1.77439e-09 -0.000120732)
(-7.83835e-09 3.08953e-09 -0.000119742)
(-6.91776e-09 4.76889e-09 -0.000122064)
(5.09992e-09 -5.35805e-09 -0.000117557)
(-1.54603e-09 -4.01424e-09 -0.000122467)
(-1.21477e-08 -2.69795e-09 -0.000122564)
(-1.90557e-09 -5.19663e-09 -0.000117571)
(1.07458e-09 8.44573e-09 -0.000122476)
(-1.28226e-09 7.3018e-09 -0.00012251)
(-4.68877e-10 -4.3952e-09 -0.000122504)
(8.17853e-09 -1.72984e-09 -0.000122507)
(-5.17875e-09 -3.60774e-11 -0.00012255)
(-9.10227e-10 -4.17543e-09 -0.000122517)
(-1.36845e-09 7.70419e-09 -0.000122494)
(-5.79971e-09 -1.97603e-11 -0.000122559)
(7.77079e-09 -1.39514e-09 -0.000122496)
(1.08265e-10 -3.17223e-09 -0.000122481)
(2.55709e-09 -1.11827e-08 -0.000122484)
(-7.23886e-09 -6.35263e-09 -0.000117548)
(-1.88726e-08 -2.76462e-09 -0.000117734)
(-3.4355e-09 -1.21412e-08 -0.000122492)
(-3.21263e-09 1.99966e-09 -0.000117572)
(1.3783e-09 -6.95506e-09 -0.000117574)
(2.77732e-09 3.22361e-09 -0.000117578)
(-9.2316e-09 -2.01568e-09 -0.000122496)
(-3.96042e-09 2.50972e-09 -0.000117573)
(2.72427e-09 2.91518e-09 -0.000117571)
(-1.47074e-09 8.70174e-09 -0.000122487)
(8.32503e-09 -1.39947e-09 -0.000122492)
(8.32164e-10 2.60891e-09 -0.000118177)
(-1.54643e-09 -1.76897e-09 -0.000118149)
(3.2027e-09 4.44328e-10 -0.000118141)
(-1.58624e-09 -1.69152e-09 -0.000118143)
(1.03658e-09 1.8826e-09 -0.000122138)
(3.44346e-09 -2.40159e-10 -0.000122138)
(-1.77823e-09 -1.67311e-09 -0.000118156)
(7.45426e-10 2.88047e-09 -0.00011817)
(-1.81289e-09 -1.64044e-09 -0.000118149)
(2.86428e-09 7.93227e-10 -0.000118135)
(-1.64099e-08 2.46166e-09 -0.000119787)
(-7.91782e-09 1.94446e-09 -0.000120826)
(-3.83502e-09 -4.38462e-10 -0.000120766)
(-3.55859e-08 8.12349e-09 -0.000119849)
(1.84538e-09 4.06753e-09 -0.000122081)
(1.87413e-08 -3.5555e-09 -0.000117676)
(9.81469e-09 -2.05349e-09 -0.000122046)
(1.92645e-08 -7.91195e-09 -0.000117602)
(-1.09776e-08 -3.62552e-09 -0.000122526)
(-1.12797e-08 -6.86109e-09 -0.000122485)
(6.80627e-09 -1.248e-08 -0.000121821)
(4.94723e-09 -2.80956e-09 -0.000117632)
(-2.21444e-10 -6.2244e-09 -0.000122501)
(8.19804e-10 3.46584e-09 -0.000118151)
(-2.71024e-09 -9.54728e-10 -0.00011817)
(3.19536e-09 7.98696e-10 -0.000118119)
(-3.25683e-09 -9.44501e-10 -0.000118163)
(-4.11035e-10 -4.22268e-09 -0.000122497)
(-1.34021e-09 7.58805e-09 -0.000122502)
(-4.97763e-09 -3.75392e-11 -0.000122545)
(8.05056e-09 -1.56734e-09 -0.000122502)
(-2.41185e-09 -1.17977e-09 -0.00011817)
(7.1271e-10 3.19762e-09 -0.000118154)
(-2.20129e-09 -1.65088e-09 -0.000118162)
(2.57484e-09 1.13434e-09 -0.000118121)
(-1.96484e-09 -1.68451e-09 -0.000122139)
(-2.6419e-09 -1.24176e-09 -0.00012215)
(7.20153e-10 2.95066e-09 -0.000118162)
(-1.97982e-09 -1.5263e-09 -0.000118164)
(2.49043e-09 1.07306e-09 -0.000118128)
(-1.91971e-09 -1.66806e-09 -0.000118156)
(-1.44921e-09 8.22609e-09 -0.000122487)
(-5.63221e-10 -4.38915e-09 -0.000122512)
(7.88124e-09 -1.34353e-09 -0.000122492)
(-5.36491e-09 -1.72848e-11 -0.000122556)
(9.63588e-09 -2.66383e-09 -0.000122539)
(6.88621e-09 -4.64191e-09 -0.000122502)
(2.79833e-09 1.20105e-09 -0.000122512)
(1.61546e-08 2.70381e-09 -0.000119787)
(8.18943e-09 2.35488e-09 -0.000120829)
(3.6478e-09 -4.0832e-10 -0.000120769)
(3.62209e-08 8.15065e-09 -0.000119848)
(-1.9968e-08 -3.93581e-09 -0.000117667)
(-2.03435e-08 -8.41962e-09 -0.000117592)
(-1.44829e-09 -6.44447e-09 -0.000118145)
(-5.46812e-09 -2.22281e-09 -0.000118182)
(-2.85079e-09 -7.55016e-09 -0.000118169)
(6.42071e-11 -3.41516e-09 -0.000122126)
(-1.22501e-09 3.57519e-09 -0.000122138)
(-3.44154e-09 3.22014e-11 -0.000122519)
(-3.57384e-09 -1.32679e-08 -0.000122509)
(3.35522e-09 -1.35656e-09 -0.00011763)
(3.61547e-09 3.86509e-09 -0.000119872)
(2.67166e-09 1.70937e-09 -0.000120894)
(-5.49612e-09 -3.76859e-09 -0.000117635)
(2.51503e-09 -5.10261e-09 -0.000117585)
(3.47369e-09 -5.27362e-09 -0.000119873)
(2.76785e-09 -2.3894e-09 -0.000120891)
(-6.16019e-09 9.64536e-09 -0.000121823)
(-4.05978e-09 1.51268e-10 -0.000117637)
(3.25765e-09 2.75404e-09 -0.000117587)
(-2.31931e-09 1.29496e-09 -0.000118138)
(2.18546e-09 -2.18249e-09 -0.0001182)
(4.04287e-09 -1.11676e-09 -0.000122564)
(1.89076e-09 -3.30685e-09 -0.000117685)
(9.11008e-09 -5.91663e-09 -0.000122083)
(-3.6344e-09 -2.62772e-09 -0.00011768)
(-1.18381e-09 -3.89445e-09 -0.000122513)
(-1.01279e-09 8.30964e-09 -0.000122501)
(-6.77773e-09 4.86202e-10 -0.000122558)
(3.90554e-09 1.84052e-09 -0.000117631)
(-3.50916e-09 7.87771e-10 -0.000122493)
(3.8143e-09 -1.44644e-09 -0.000117566)
(3.45769e-11 -4.19688e-09 -0.000122444)
(-1.89089e-09 -2.88497e-09 -0.000117604)
(3.76777e-09 1.98659e-09 -0.000117631)
(8.28708e-09 1.83828e-09 -0.000122509)
(-6.6902e-09 -1.20834e-09 -0.000122496)
(-2.47778e-09 -1.8938e-09 -0.000117636)
(3.60436e-09 -8.36632e-10 -0.000117565)
(1.77265e-09 7.93184e-09 -0.000122536)
(6.16648e-10 -3.143e-09 -0.000122445)
(-2.78377e-09 -2.55114e-09 -0.000117602)
(2.73019e-09 2.40538e-09 -0.000117631)
(7.58859e-09 1.44401e-09 -0.000122507)
(-4.36823e-09 2.79261e-10 -0.000122492)
(-2.74317e-09 -1.42879e-09 -0.000117634)
(3.59546e-09 -1.03054e-09 -0.000117565)
(1.2439e-09 7.06303e-09 -0.000122537)
(-3.37233e-11 -4.23128e-09 -0.000122446)
(-3.6521e-09 -2.16301e-09 -0.000117605)
(2.46322e-09 2.51338e-09 -0.000117637)
(7.46381e-09 1.4682e-09 -0.000122509)
(-7.26816e-09 -1.41155e-09 -0.000122501)
(-2.45949e-09 -2.0169e-09 -0.000117637)
(3.91587e-09 -1.45559e-09 -0.000117571)
(1.03284e-09 6.64236e-09 -0.00012254)
(-2.36377e-10 -4.71555e-09 -0.000122452)
(-1.78971e-09 -2.87021e-09 -0.000117615)
(4.56111e-09 1.64409e-09 -0.000117646)
(8.00307e-09 1.7652e-09 -0.00012252)
(-3.28281e-09 8.66895e-10 -0.000122509)
(-2.35549e-09 -2.31783e-09 -0.000117648)
(3.95964e-09 -1.93915e-09 -0.000117581)
(1.33167e-09 6.98678e-09 -0.000122548)
(1.98999e-10 -3.81661e-09 -0.00012246)
(-1.23924e-09 -3.13893e-09 -0.000117618)
(3.91819e-09 1.87574e-09 -0.000117646)
(8.68795e-09 2.1125e-09 -0.000122525)
(-6.33983e-09 -1.01875e-09 -0.000122512)
(-2.06532e-09 -2.8581e-09 -0.000117649)
(3.92314e-09 -1.73539e-09 -0.000117579)
(1.64059e-09 7.77476e-09 -0.000122549)
(-5.00696e-11 -4.27912e-09 -0.000122458)
(-2.21962e-09 -2.73356e-09 -0.000117616)
(3.00802e-09 2.16761e-09 -0.000117642)
(7.55098e-09 1.3406e-09 -0.000122523)
(-3.91527e-09 4.82798e-10 -0.000122507)
(-2.50195e-09 -2.02698e-09 -0.000117648)
(3.81269e-09 -1.52637e-09 -0.000117577)
(8.5259e-10 6.26917e-09 -0.000122547)
(-1.09716e-10 -4.24821e-09 -0.000122454)
(-2.35286e-09 -2.69781e-09 -0.000117612)
(2.90241e-09 2.33135e-09 -0.00011764)
(7.55673e-09 1.57342e-09 -0.000122518)
(-6.75031e-09 -1.26561e-09 -0.000122507)
(-2.58442e-09 -1.75997e-09 -0.000117644)
(3.84054e-09 -1.34485e-09 -0.000117574)
(1.16587e-09 6.80138e-09 -0.000122543)
(-2.82246e-11 -4.133e-09 -0.000122452)
(-2.44305e-09 -2.6683e-09 -0.000117612)
(3.8229e-09 1.90956e-09 -0.000117641)
(7.98309e-09 1.6643e-09 -0.000122519)
(-3.87532e-09 5.41736e-10 -0.000122505)
(-2.55079e-09 -1.93269e-09 -0.000117645)
(3.6842e-09 -1.23568e-09 -0.000117576)
(1.11783e-09 6.81871e-09 -0.000122543)
(-2.94929e-11 -4.20466e-09 -0.000122453)
(-1.92429e-09 -2.89446e-09 -0.000117614)
(3.86553e-09 1.89275e-09 -0.000117642)
(8.37223e-09 1.9191e-09 -0.000122521)
(-6.83662e-09 -1.2866e-09 -0.000122508)
(-2.40389e-09 -2.33387e-09 -0.000117646)
(3.89382e-09 -1.73292e-09 -0.000117577)
(1.34958e-09 7.2387e-09 -0.000122543)
(1.56543e-10 -3.81419e-09 -0.000122453)
(-1.58869e-09 -3.08982e-09 -0.000117612)
(4.12501e-09 1.77329e-09 -0.000117639)
(7.54286e-09 1.36591e-09 -0.000122519)
(-3.96288e-09 4.7875e-10 -0.000122503)
(-2.50309e-09 -2.16791e-09 -0.000117644)
(3.7287e-09 -1.29453e-09 -0.000117573)
(1.13087e-09 6.88315e-09 -0.000122541)
(-2.48075e-10 -4.52589e-09 -0.000122449)
(-2.07918e-09 -2.81059e-09 -0.000117607)
(3.28795e-09 2.15354e-09 -0.000117634)
(7.7275e-09 1.56705e-09 -0.000122514)
(-6.96467e-09 -1.37386e-09 -0.000122501)
(-2.39905e-09 -2.2634e-09 -0.000117639)
(3.95575e-09 -1.69715e-09 -0.000117568)
(1.20252e-09 6.98107e-09 -0.000122536)
(-4.24928e-11 -4.2224e-09 -0.000122444)
(-2.61867e-09 -2.59622e-09 -0.000117603)
(3.30167e-09 2.11762e-09 -0.000117632)
(7.55972e-09 1.43581e-09 -0.000122511)
(-3.85335e-09 5.30697e-10 -0.000122497)
(-2.55079e-09 -2.04677e-09 -0.000117635)
(3.76315e-09 -1.39725e-09 -0.000117568)
(1.09621e-09 6.742e-09 -0.000122533)
(-1.29266e-10 -4.36741e-09 -0.000122444)
(-2.21423e-09 -2.82318e-09 -0.000117602)
(3.23913e-09 2.21225e-09 -0.000117632)
(7.50588e-09 1.39188e-09 -0.000122508)
(-6.89114e-09 -1.31244e-09 -0.000122499)
(-2.55118e-09 -1.84023e-09 -0.000117633)
(3.73558e-09 -1.1331e-09 -0.000117569)
(1.17294e-09 6.91572e-09 -0.00012253)
(2.47414e-11 -4.2059e-09 -0.000122445)
(-2.00303e-09 -2.8742e-09 -0.000117599)
(3.54673e-09 2.11615e-09 -0.000117634)
(7.68296e-09 1.49153e-09 -0.000122505)
(-3.2837e-09 9.21726e-10 -0.000122499)
(-2.41822e-09 -2.38105e-09 -0.000117629)
(3.79515e-09 -1.18244e-09 -0.000117573)
(1.33867e-09 7.33305e-09 -0.000122526)
(-4.36524e-11 -4.2963e-09 -0.000122449)
(-1.40065e-09 -3.1783e-09 -0.000117593)
(3.24134e-09 2.2286e-09 -0.000117644)
(7.64013e-09 1.49905e-09 -0.0001225)
(-7.04741e-09 -1.30179e-09 -0.00012251)
(-2.2483e-09 -3.0546e-09 -0.00011762)
(3.96568e-09 -1.29419e-09 -0.000117586)
(1.14776e-09 7.08576e-09 -0.000122518)
(-2.10785e-10 -4.95106e-09 -0.000122462)
(-2.89478e-10 -3.71192e-09 -0.000117576)
(2.66716e-09 2.63934e-09 -0.000117666)
(7.51217e-09 1.19896e-09 -0.000122484)
(-6.95485e-09 -8.06389e-10 -0.000122531)
(-2.19382e-09 -3.57786e-09 -0.0001176)
(4.36247e-09 -1.77699e-09 -0.000117614)
(1.01848e-09 7.02366e-09 -0.000122499)
(-1.91747e-10 -5.37465e-09 -0.000122489)
(6.72461e-09 -1.25775e-09 -0.000122507)
(5.19306e-10 3.49103e-09 -0.000122454)
(6.51071e-09 -1.08942e-09 -0.000122508)
(-7.87538e-09 1.7106e-09 -0.000122522)
(5.48237e-10 3.4724e-09 -0.000122455)
(1.79361e-09 -7.61479e-09 -0.000122542)
(-1.82141e-09 2.70518e-09 -0.000117622)
(3.7732e-09 1.97272e-09 -0.000117633)
(-1.77912e-09 -2.94417e-09 -0.000117603)
(-4.37039e-09 1.6278e-09 -0.000117624)
(3.56577e-09 -2.24121e-09 -0.000117595)
(9.69715e-10 5.69744e-09 -0.000122463)
(-7.01519e-09 -1.54469e-09 -0.000122496)
(1.07172e-08 3.35022e-09 -0.000122511)
(-1.02912e-09 2.64525e-09 -0.000122461)
(-5.33688e-10 -5.43784e-09 -0.000122544)
(3.17163e-09 -2.68717e-10 -0.000117565)
(3.83384e-09 -1.4688e-09 -0.000117566)
(-2.41719e-09 -2.17993e-09 -0.000117636)
(4.02858e-09 1.93747e-09 -0.000117568)
(-2.85333e-09 8.42995e-10 -0.000117634)
(-3.05649e-09 3.54151e-10 -0.00011757)
(-3.45544e-09 6.86643e-10 -0.000117571)
(-4.19352e-09 -2.48554e-09 -0.00011757)
(3.03219e-09 -7.41382e-10 -0.000117636)
(-3.55941e-09 9.80865e-10 -0.000117572)
(2.80187e-09 1.40095e-09 -0.000117641)
(5.21489e-09 2.10142e-10 -0.000122529)
(3.06015e-10 -3.89161e-09 -0.000122452)
(-6.75783e-10 2.91223e-09 -0.000122528)
(5.18878e-09 2.01395e-10 -0.000122521)
(-1.29989e-08 -4.41081e-09 -0.000122542)
(1.33042e-09 -3.05251e-09 -0.000117643)
(-2.38035e-09 -2.65641e-09 -0.000117638)
(2.46406e-09 -2.58304e-09 -0.00011764)
(-4.25402e-09 1.98484e-09 -0.000117612)
(-2.58106e-09 -2.52091e-09 -0.000117637)
(3.77713e-09 2.14533e-09 -0.000117608)
(-2.98017e-10 -3.7418e-09 -0.000122456)
(-6.04268e-09 7.80389e-10 -0.000122517)
(-4.34608e-10 -3.52733e-09 -0.000122457)
(-1.37057e-09 6.91523e-09 -0.000122543)
(-6.45361e-09 1.00758e-09 -0.000122516)
(9.28024e-09 -2.47882e-09 -0.00012253)
(-8.1618e-09 1.90677e-09 -0.000122523)
(6.36203e-09 -9.9974e-10 -0.000122507)
(1.71845e-09 -7.39447e-09 -0.000122542)
(2.30005e-10 4.09441e-09 -0.000122454)
(5.68775e-09 -7.12287e-10 -0.000122507)
(-8.37912e-09 1.99028e-09 -0.000122521)
(1.68964e-10 4.14399e-09 -0.000122454)
(1.45785e-09 -7.00616e-09 -0.000122541)
(1.20469e-09 -3.18693e-09 -0.000117594)
(-3.93309e-09 1.87935e-09 -0.000117623)
(2.90394e-09 2.28801e-09 -0.000117631)
(-2.10369e-09 -2.80795e-09 -0.000117603)
(-4.15712e-09 1.85984e-09 -0.000117621)
(1.81534e-09 -2.93371e-09 -0.000117594)
(-1.88126e-09 -7.69157e-09 -0.000122548)
(-8.13215e-10 2.99619e-09 -0.00012246)
(-7.05722e-09 -1.49957e-09 -0.000122496)
(9.28214e-09 2.44446e-09 -0.000122508)
(-9.82576e-10 2.59129e-09 -0.000122458)
(-1.44037e-09 -6.94588e-09 -0.000122545)
(-2.8094e-09 1.35386e-09 -0.000117637)
(3.59898e-09 8.28943e-10 -0.000117564)
(3.57668e-09 -8.1345e-10 -0.000117565)
(-2.70479e-09 -1.50481e-09 -0.000117634)
(3.82012e-09 1.63635e-09 -0.000117568)
(-2.52529e-09 1.67644e-09 -0.000117634)
(2.12219e-09 -3.04704e-09 -0.000117638)
(-3.98676e-09 -1.93206e-09 -0.000117569)
(2.61721e-09 1.85289e-09 -0.000117642)
(-3.81698e-09 1.57898e-09 -0.000117571)
(-3.94826e-09 -1.92146e-09 -0.000117567)
(2.26937e-09 -2.59061e-09 -0.000117636)
(-3.67192e-09 1.1731e-09 -0.00011757)
(2.38459e-09 2.34312e-09 -0.000117641)
(-9.71098e-09 -2.89873e-09 -0.000122535)
(5.31314e-09 3.0291e-10 -0.000122527)
(-3.03979e-11 -4.44707e-09 -0.000122453)
(-3.10927e-10 3.67474e-09 -0.000122528)
(4.99937e-09 1.71498e-10 -0.00012252)
(-1.30553e-08 -4.41329e-09 -0.000122541)
(-4.70293e-09 1.76497e-09 -0.00011761)
(1.41842e-09 -2.95766e-09 -0.000117642)
(3.49592e-09 2.25827e-09 -0.000117608)
(-3.00788e-09 -2.40426e-09 -0.000117638)
(2.24901e-09 -2.63424e-09 -0.000117639)
(-4.25306e-09 2.00702e-09 -0.000117611)
(-3.41092e-09 -2.167e-09 -0.000117637)
(3.18691e-09 2.34124e-09 -0.000117608)
(-1.63225e-09 7.38081e-09 -0.000122544)
(-8.19301e-10 -2.84079e-09 -0.000122457)
(8.93804e-09 -2.31024e-09 -0.00012253)
(-6.68786e-09 1.09878e-09 -0.000122517)
(-6.42815e-10 -3.14585e-09 -0.000122456)
(-1.92942e-09 7.93681e-09 -0.000122544)
(-7.18966e-09 1.41564e-09 -0.000122516)
(8.73668e-09 -2.20986e-09 -0.00012253)
(-8.90544e-09 2.24407e-09 -0.000122522)
(5.62305e-09 -5.89363e-10 -0.000122508)
(1.37875e-09 -6.85503e-09 -0.000122541)
(1.88561e-10 4.08535e-09 -0.000122455)
(5.19151e-09 -3.60051e-10 -0.000122509)
(-9.02345e-09 2.41818e-09 -0.000122523)
(4.45212e-10 3.68276e-09 -0.000122456)
(1.47851e-09 -7.0159e-09 -0.000122543)
(1.10806e-09 -3.1866e-09 -0.000117592)
(-2.31313e-09 2.5084e-09 -0.000117621)
(2.09458e-09 2.66589e-09 -0.000117632)
(-3.02625e-09 -2.40066e-09 -0.000117603)
(-5.24586e-09 1.38239e-09 -0.000117622)
(2.82596e-09 -2.55863e-09 -0.000117593)
(-2.01246e-09 -7.84556e-09 -0.000122545)
(9.89047e-10 5.9317e-09 -0.000122461)
(-8.03636e-09 -1.98969e-09 -0.000122496)
(9.72497e-09 2.84079e-09 -0.00012251)
(-1.4326e-09 2.0772e-09 -0.00012246)
(-6.00182e-10 -5.41809e-09 -0.000122543)
(-3.06844e-09 6.97374e-10 -0.000117637)
(3.16798e-09 -1.47086e-10 -0.000117565)
(3.77527e-09 -1.25849e-09 -0.000117566)
(-2.66523e-09 -1.64445e-09 -0.000117635)
(3.65315e-09 1.14697e-09 -0.00011757)
(-2.96502e-09 7.31382e-10 -0.000117634)
(2.17835e-09 -2.76987e-09 -0.000117636)
(-2.98263e-09 8.05445e-10 -0.000117568)
(2.5935e-09 1.81847e-09 -0.00011764)
(-3.78464e-09 1.31671e-09 -0.00011757)
(-4.45865e-09 -2.9232e-09 -0.000117567)
(3.0724e-09 -4.8023e-10 -0.000117634)
(-3.81452e-09 1.44058e-09 -0.000117571)
(2.42732e-09 2.11245e-09 -0.00011764)
(-9.94584e-09 -2.96838e-09 -0.000122534)
(4.41366e-09 -1.49852e-10 -0.000122526)
(-3.01338e-10 -4.99061e-09 -0.000122455)
(-8.90864e-10 2.62583e-09 -0.000122529)
(3.05261e-09 -9.01276e-10 -0.000122521)
(-1.4171e-08 -5.01335e-09 -0.00012254)
(-4.97801e-09 1.68494e-09 -0.000117608)
(3.64476e-10 -3.3206e-09 -0.00011764)
(2.67273e-09 2.60227e-09 -0.000117607)
(-3.29487e-09 -2.25567e-09 -0.000117637)
(5.34953e-10 -3.33206e-09 -0.00011764)
(-5.52725e-09 1.51941e-09 -0.00011761)
(-2.60448e-09 -2.4679e-09 -0.000117637)
(3.03256e-09 2.45116e-09 -0.000117607)
(-1.64981e-09 7.44561e-09 -0.000122543)
(-7.05099e-10 -3.1377e-09 -0.000122456)
(8.15375e-09 -1.87925e-09 -0.00012253)
(-7.03759e-09 1.27561e-09 -0.000122516)
(-8.10634e-10 -2.91165e-09 -0.000122457)
(-1.8108e-09 7.6299e-09 -0.000122543)
(-6.31142e-09 9.6273e-10 -0.000122518)
(8.59935e-09 -2.1408e-09 -0.00012253)
(-9.42428e-09 2.61051e-09 -0.000122525)
(5.39063e-09 -4.54811e-10 -0.000122514)
(1.75314e-09 -7.4678e-09 -0.000122545)
(6.1385e-10 3.43975e-09 -0.000122461)
(6.26179e-09 -8.84379e-10 -0.000122519)
(-9.02675e-09 2.42105e-09 -0.00012253)
(6.81713e-10 3.29799e-09 -0.000122467)
(1.88774e-09 -7.65361e-09 -0.00012255)
(4.96449e-10 -3.39685e-09 -0.000117594)
(-4.72552e-09 1.70103e-09 -0.000117627)
(3.65234e-09 2.06259e-09 -0.000117642)
(-2.91975e-09 -2.39297e-09 -0.00011761)
(-4.19766e-09 1.89618e-09 -0.000117632)
(1.02455e-09 -3.09883e-09 -0.000117599)
(-2.27212e-09 -8.35117e-09 -0.000122547)
(-1.02186e-09 2.72686e-09 -0.000122465)
(-7.17326e-09 -1.38003e-09 -0.000122507)
(8.75674e-09 2.26595e-09 -0.000122515)
(-1.56848e-09 1.84734e-09 -0.000122469)
(-1.62914e-09 -7.11951e-09 -0.000122552)
(-3.19701e-09 2.65415e-10 -0.00011764)
(2.99088e-09 -7.9992e-10 -0.000117571)
(3.88507e-09 -1.55492e-09 -0.000117578)
(-2.36122e-09 -2.12095e-09 -0.000117642)
(3.64344e-09 7.55e-10 -0.000117579)
(-3.16212e-09 -2.01838e-11 -0.000117642)
(1.77999e-09 -3.67126e-09 -0.000117637)
(-4.14745e-09 -2.12317e-09 -0.000117572)
(2.43395e-09 2.05785e-09 -0.000117641)
(-3.52938e-09 7.74048e-10 -0.000117574)
(-4.28254e-09 -2.42939e-09 -0.000117578)
(2.14615e-09 -2.65766e-09 -0.000117642)
(-3.66954e-09 8.88142e-10 -0.00011758)
(2.6935e-09 1.41626e-09 -0.000117646)
(-1.1737e-08 -3.97644e-09 -0.000122536)
(4.0002e-09 -4.36941e-10 -0.000122532)
(-1.87849e-10 -4.97252e-09 -0.000122463)
(-1.0755e-09 2.13428e-09 -0.000122536)
(4.65367e-09 -1.85816e-10 -0.00012253)
(-1.40438e-08 -5.00614e-09 -0.000122547)
(-6.58439e-09 9.93776e-10 -0.00011761)
(1.20782e-10 -3.50125e-09 -0.000117646)
(3.47828e-09 2.28366e-09 -0.000117609)
(-2.65615e-09 -2.60342e-09 -0.000117642)
(2.06213e-09 -2.85323e-09 -0.000117649)
(-5.15345e-09 1.59967e-09 -0.000117617)
(-2.17763e-09 -2.82332e-09 -0.000117647)
(3.4466e-09 2.16192e-09 -0.000117613)
(-1.85924e-09 7.75847e-09 -0.000122545)
(-4.99786e-10 -3.58255e-09 -0.000122461)
(9.16718e-09 -2.42394e-09 -0.000122532)
(-6.13028e-09 7.29045e-10 -0.000122522)
(-6.46194e-10 -3.37939e-09 -0.000122467)
(-1.57614e-09 7.06785e-09 -0.00012255)
(-5.68856e-09 4.68808e-10 -0.000122527)
(9.36902e-09 -2.63826e-09 -0.000122536)
(-8.09662e-09 1.89748e-09 -0.000122535)
(7.28438e-09 -1.50626e-09 -0.000122522)
(1.99921e-09 -7.92706e-09 -0.000122555)
(8.90039e-10 2.78695e-09 -0.000122471)
(7.29707e-09 -1.48002e-09 -0.000122523)
(-7.12941e-09 1.34393e-09 -0.000122538)
(1.07011e-09 2.63908e-09 -0.000122469)
(2.16044e-09 -8.26302e-09 -0.000122558)
(1.53874e-09 -2.92974e-09 -0.000117605)
(-1.19483e-09 2.96239e-09 -0.000117637)
(4.5887e-09 1.65992e-09 -0.000117646)
(-8.94487e-10 -3.27209e-09 -0.000117618)
(-3.95769e-09 1.88294e-09 -0.000117639)
(4.03589e-09 -2.07172e-09 -0.00011761)
(-2.54294e-09 -8.64165e-09 -0.000122557)
(1.00226e-09 5.83659e-09 -0.000122477)
(-6.81146e-09 -1.35198e-09 -0.000122513)
(1.08012e-08 3.42803e-09 -0.000122527)
(-1.29336e-09 2.37421e-09 -0.000122476)
(-4.96934e-10 -5.30142e-09 -0.000122559)
(-3.12214e-09 3.72355e-10 -0.000117649)
(3.31358e-09 1.86376e-10 -0.00011758)
(4.16405e-09 -2.19466e-09 -0.00011758)
(-2.31093e-09 -2.49649e-09 -0.000117651)
(3.97942e-09 1.86275e-09 -0.000117582)
(-2.78959e-09 1.11675e-09 -0.000117649)
(1.86562e-09 -3.37212e-09 -0.000117647)
(-2.9845e-09 7.47851e-10 -0.000117584)
(2.56234e-09 1.67705e-09 -0.000117651)
(-3.51258e-09 7.37222e-10 -0.000117585)
(-4.33898e-09 -2.63375e-09 -0.000117585)
(3.12294e-09 -3.60389e-10 -0.000117651)
(-3.48883e-09 6.34661e-10 -0.000117587)
(2.74572e-09 1.3608e-09 -0.000117656)
(-1.01375e-08 -3.21231e-09 -0.000122546)
(5.66002e-09 4.51335e-10 -0.00012254)
(3.01118e-10 -3.81058e-09 -0.000122466)
(-5.52302e-10 3.20107e-09 -0.000122543)
(6.02296e-09 6.76519e-10 -0.000122535)
(-1.23827e-08 -4.06948e-09 -0.000122554)
(-4.99724e-09 1.52917e-09 -0.00011762)
(1.88083e-09 -2.79513e-09 -0.000117655)
(4.08407e-09 1.91622e-09 -0.000117618)
(-1.98742e-09 -2.7321e-09 -0.000117651)
(3.19684e-09 -2.28491e-09 -0.000117655)
(-3.48851e-09 2.32187e-09 -0.000117625)
(-2.35303e-09 -2.72391e-09 -0.000117653)
(4.0403e-09 2.04806e-09 -0.000117622)
(-1.72854e-09 7.38715e-09 -0.000122555)
(-4.16327e-10 -3.66435e-09 -0.000122471)
(9.87192e-09 -2.89713e-09 -0.000122541)
(-5.67733e-09 5.85886e-10 -0.000122531)
(-3.83338e-10 -3.71665e-09 -0.000122473)
(-1.44937e-09 6.93809e-09 -0.000122559)
(-6.12468e-09 7.33912e-10 -0.000122533)
(9.60348e-09 -2.6873e-09 -0.000122545)
(-7.48067e-09 1.5391e-09 -0.000122538)
(6.66349e-09 -1.19466e-09 -0.000122522)
(2.24737e-09 -8.43479e-09 -0.000122556)
(5.74848e-10 3.37976e-09 -0.000122469)
(6.21987e-09 -9.56981e-10 -0.000122521)
(-8.09582e-09 1.83601e-09 -0.000122537)
(4.43765e-10 3.56705e-09 -0.000122468)
(1.73856e-09 -7.53579e-09 -0.000122556)
(1.7334e-09 -2.95535e-09 -0.00011761)
(-3.58096e-09 2.01486e-09 -0.000117639)
(3.36866e-09 2.11258e-09 -0.000117645)
(-1.97997e-09 -2.89271e-09 -0.000117617)
(-4.05027e-09 1.81045e-09 -0.000117637)
(2.02195e-09 -2.85711e-09 -0.000117609)
(-2.0996e-09 -8.00228e-09 -0.000122563)
(-6.49858e-10 3.14056e-09 -0.000122477)
(-7.26331e-09 -1.61186e-09 -0.000122512)
(9.38555e-09 2.50724e-09 -0.000122525)
(-1.15289e-09 2.27793e-09 -0.000122474)
(-1.28326e-09 -6.71404e-09 -0.000122563)
(-2.92165e-09 1.12886e-09 -0.000117651)
(3.16245e-09 -2.34178e-10 -0.000117579)
(3.8334e-09 -1.51797e-09 -0.000117579)
(-2.40932e-09 -2.29218e-09 -0.000117648)
(3.45798e-09 4.53302e-10 -0.00011758)
(-3.07097e-09 3.04214e-10 -0.000117648)
(1.91075e-09 -3.42239e-09 -0.000117653)
(-4.03129e-09 -2.13484e-09 -0.000117585)
(2.77452e-09 1.35014e-09 -0.000117657)
(-3.47032e-09 6.00636e-10 -0.000117587)
(-4.07606e-09 -2.18745e-09 -0.000117583)
(2.2697e-09 -2.68731e-09 -0.000117653)
(-3.48208e-09 8.29175e-10 -0.000117586)
(2.73914e-09 1.4123e-09 -0.000117656)
(-9.0288e-09 -2.52061e-09 -0.000122549)
(5.53494e-09 4.17895e-10 -0.000122542)
(-5.77563e-10 -5.4963e-09 -0.000122464)
(-1.04291e-09 2.27434e-09 -0.000122541)
(5.14149e-09 2.17046e-10 -0.000122532)
(-1.27571e-08 -4.27788e-09 -0.000122555)
(-4.10416e-09 1.99035e-09 -0.000117625)
(1.61684e-09 -2.85916e-09 -0.000117657)
(3.8967e-09 2.01869e-09 -0.000117624)
(-2.01946e-09 -2.69699e-09 -0.000117653)
(2.38804e-09 -2.56602e-09 -0.000117652)
(-3.99431e-09 2.15039e-09 -0.000117626)
(-2.20093e-09 -2.6699e-09 -0.000117651)
(4.28217e-09 1.98275e-09 -0.000117623)
(-1.43785e-09 6.998e-09 -0.00012256)
(-3.40854e-10 -3.77882e-09 -0.000122472)
(9.37702e-09 -2.59361e-09 -0.000122546)
(-5.78795e-09 6.58418e-10 -0.000122532)
(-2.7443e-10 -3.78142e-09 -0.000122472)
(-1.42499e-09 6.96919e-09 -0.000122559)
(-5.9478e-09 7.65164e-10 -0.000122531)
(9.71926e-09 -2.71401e-09 -0.000122545)