/*--------------------------------*- C++ -*----------------------------------*\
| =========                 |                                                 |
| \\      /  F ield         | OpenFOAM: The Open Source CFD Toolbox           |
|  \\    /   O peration     | Version:  2206                                  |
|   \\  /    A nd           | Website:  www.openfoam.com                      |
|    \\/     M anipulation  |                                                 |
\*---------------------------------------------------------------------------*/
FoamFile
{
    version     2.0;
    format      ascii;
    arch        "LSB;label=32;scalar=64";
    class       volScalarField;
    location    "26";
    object      nut;
}
// * * * * * * * * * * * * * * * * * * * * * * * * * * * * * * * * * * * * * //

dimensions      [0 2 -1 0 0 0 0];

internalField   nonuniform List<scalar> 
66616
(
1.66158e-06
1.65699e-06
1.6566e-06
1.67037e-06
1.64463e-06
1.53263e-06
1.54944e-06
1.51323e-06
1.60351e-06
1.42507e-06
1.43778e-06
1.28874e-06
1.56998e-06
1.37605e-06
1.39347e-06
1.24793e-06
1.56121e-06
1.35711e-06
1.37394e-06
1.21128e-06
1.5506e-06
1.33528e-06
1.35157e-06
1.21058e-06
1.53484e-06
1.29672e-06
1.31778e-06
1.20347e-06
1.50309e-06
1.28393e-06
1.31642e-06
1.20973e-06
1.47283e-06
1.27918e-06
1.3101e-06
1.1981e-06
1.44021e-06
1.27624e-06
1.28872e-06
1.19553e-06
1.41748e-06
1.25136e-06
1.27216e-06
1.19024e-06
1.39523e-06
1.23778e-06
1.26555e-06
1.18845e-06
1.67311e-06
1.67028e-06
1.67031e-06
1.67327e-06
1.66994e-06
1.67009e-06
1.66272e-06
1.66375e-06
1.66344e-06
1.66336e-06
1.67018e-06
1.67069e-06
1.67326e-06
1.67031e-06
1.67089e-06
1.67333e-06
1.67106e-06
1.54355e-06
1.65627e-06
1.65623e-06
1.60013e-06
1.59973e-06
1.67105e-06
1.54862e-06
1.65745e-06
1.65686e-06
1.58011e-06
1.58843e-06
1.65718e-06
1.58782e-06
1.58019e-06
1.67133e-06
1.54654e-06
1.65688e-06
1.59901e-06
1.59778e-06
1.5437e-06
1.51674e-06
1.30248e-06
1.54814e-06
1.55182e-06
1.46215e-06
1.46594e-06
1.52211e-06
1.30524e-06
1.54107e-06
1.5307e-06
1.45277e-06
1.44006e-06
1.54087e-06
1.4445e-06
1.4475e-06
1.51659e-06
1.30553e-06
1.55678e-06
1.4603e-06
1.46504e-06
1.30562e-06
1.29989e-06
1.26348e-06
1.45092e-06
1.44971e-06
1.41203e-06
1.40361e-06
1.30219e-06
1.25234e-06
1.44089e-06
1.42988e-06
1.4042e-06
1.38984e-06
1.43372e-06
1.38706e-06
1.39435e-06
1.30141e-06
1.25121e-06
1.45085e-06
1.40836e-06
1.4102e-06
1.25403e-06
1.27771e-06
1.22014e-06
1.40411e-06
1.40897e-06
1.3922e-06
1.38164e-06
1.2743e-06
1.23084e-06
1.3997e-06
1.38533e-06
1.37624e-06
1.36594e-06
1.38669e-06
1.36378e-06
1.34558e-06
1.27121e-06
1.20969e-06
1.41169e-06
1.37778e-06
1.39177e-06
1.21811e-06
1.23804e-06
1.22751e-06
1.40326e-06
1.37878e-06
1.38947e-06
1.37052e-06
1.24239e-06
1.21263e-06
1.38579e-06
1.37185e-06
1.36892e-06
1.34704e-06
1.35092e-06
1.3594e-06
1.3422e-06
1.22907e-06
1.208e-06
1.40049e-06
1.37327e-06
1.39017e-06
1.21826e-06
1.22095e-06
1.21479e-06
1.35647e-06
1.35486e-06
1.32064e-06
1.31281e-06
1.22074e-06
1.21055e-06
1.3489e-06
1.32198e-06
1.31095e-06
1.2874e-06
1.32692e-06
1.30191e-06
1.30288e-06
1.21782e-06
1.2233e-06
1.36857e-06
1.32274e-06
1.32118e-06
1.21573e-06
1.22679e-06
1.21811e-06
1.30944e-06
1.30614e-06
1.29987e-06
1.30515e-06
1.21554e-06
1.20582e-06
1.29759e-06
1.28673e-06
1.28494e-06
1.27979e-06
1.29874e-06
1.288e-06
1.29338e-06
1.22683e-06
1.22267e-06
1.31427e-06
1.32464e-06
1.30616e-06
1.2153e-06
1.22222e-06
1.21564e-06
1.29623e-06
1.29778e-06
1.29481e-06
1.28896e-06
1.21675e-06
1.20317e-06
1.28194e-06
1.27832e-06
1.281e-06
1.27316e-06
1.29198e-06
1.28388e-06
1.28697e-06
1.23756e-06
1.21448e-06
1.30184e-06
1.31677e-06
1.3056e-06
1.21039e-06
1.22381e-06
1.20037e-06
1.29651e-06
1.28921e-06
1.29253e-06
1.28805e-06
1.21038e-06
1.2055e-06
1.2743e-06
1.27004e-06
1.27192e-06
1.26691e-06
1.27971e-06
1.28697e-06
1.27417e-06
1.22533e-06
1.21331e-06
1.3012e-06
1.29617e-06
1.29615e-06
1.20169e-06
1.20917e-06
1.19824e-06
1.28606e-06
1.28087e-06
1.28444e-06
1.27673e-06
1.21501e-06
1.20048e-06
1.26603e-06
1.25601e-06
1.27033e-06
1.25908e-06
1.25831e-06
1.27027e-06
1.26352e-06
1.22112e-06
1.21104e-06
1.28642e-06
1.28005e-06
1.28459e-06
1.20356e-06
1.21473e-06
1.19339e-06
1.27673e-06
1.26785e-06
1.27759e-06
1.27179e-06
1.21277e-06
1.19224e-06
1.25445e-06
1.2458e-06
1.26212e-06
1.25923e-06
1.24332e-06
1.26881e-06
1.26072e-06
1.21878e-06
1.21088e-06
1.27429e-06
1.27371e-06
1.27437e-06
1.19369e-06
1.20177e-06
1.2615e-06
1.25535e-06
1.20115e-06
1.24051e-06
1.23722e-06
1.23005e-06
1.22707e-06
1.26357e-06
1.66671e-06
1.66716e-06
1.66608e-06
1.66622e-06
1.45074e-06
1.66906e-06
4.19837e-07
1.6664e-06
1.45147e-06
1.66899e-06
1.66649e-06
4.19942e-07
1.67151e-06
2.72009e-07
2.7209e-07
3.93687e-07
1.87114e-08
5.86385e-07
2.26534e-08
2.73366e-08
1.51495e-08
3.9233e-07
1.86588e-08
5.85123e-07
2.26632e-08
1.66012e-06
1.66054e-06
1.66086e-06
1.64979e-06
1.65161e-06
1.65177e-06
1.65081e-06
1.2396e-06
3.16441e-07
1.66738e-06
1.64267e-06
1.47669e-06
2.62431e-07
1.66149e-06
2.74893e-08
1.51973e-08
1.23633e-06
1.66645e-06
3.15828e-07
1.64334e-06
1.47989e-06
1.66273e-06
2.61205e-07
1.50432e-07
1.5035e-07
1.63996e-06
1.10761e-07
1.10413e-07
2.08157e-07
1.78781e-08
2.28499e-07
1.9611e-08
1.09555e-08
1.15331e-08
1.96668e-07
1.74062e-08
2.20802e-07
1.90638e-08
1.64354e-06
1.64331e-06
1.64367e-06
1.61269e-06
1.61296e-06
1.61252e-06
1.61316e-06
6.97608e-07
1.78044e-07
1.63181e-06
1.50311e-06
8.2656e-07
1.84331e-07
1.61164e-06
1.08464e-08
1.13246e-08
7.48366e-07
1.63988e-06
1.85262e-07
1.52105e-06
8.69154e-07
1.62193e-06
1.90623e-07
7.39796e-08
7.55064e-08
1.39312e-06
7.48817e-08
7.44225e-08
2.05104e-07
2.64648e-08
2.04329e-07
2.90567e-08
1.3455e-08
1.40972e-08
1.9604e-07
2.53639e-08
1.93745e-07
2.87846e-08
1.59988e-06
1.59968e-06
1.60237e-06
1.57352e-06
1.57686e-06
1.57373e-06
1.57422e-06
6.60714e-07
1.95064e-07
1.55792e-06
1.41562e-06
6.6404e-07
2.01e-07
1.54578e-06
1.34494e-08
1.39352e-08
6.99354e-07
1.57471e-06
1.99024e-07
1.43168e-06
7.03862e-07
1.56342e-06
1.99852e-07
7.27203e-08
7.54096e-08
1.26472e-06
7.20724e-08
7.48853e-08
1.8574e-07
2.94128e-08
1.91304e-07
2.97021e-08
1.38203e-08
1.3752e-08
1.78079e-07
2.91353e-08
1.83224e-07
2.90704e-08
1.5703e-06
1.56807e-06
1.565e-06
1.55756e-06
1.56112e-06
1.55736e-06
1.55726e-06
6.45715e-07
1.94559e-07
1.52021e-06
1.38178e-06
6.57773e-07
1.93172e-07
1.51737e-06
1.34862e-08
1.33163e-08
6.68232e-07
1.53735e-06
1.98247e-07
1.39183e-06
6.77803e-07
1.52969e-06
1.98885e-07
6.83982e-08
7.24279e-08
1.23888e-06
6.69409e-08
7.10497e-08
1.77e-07
3.10263e-08
1.76886e-07
3.14214e-08
1.36724e-08
1.38426e-08
1.72518e-07
2.98168e-08
1.72496e-07
3.03574e-08
1.55943e-06
1.5531e-06
1.55835e-06
1.55517e-06
1.55642e-06
1.55157e-06
1.56476e-06
6.23082e-07
1.94003e-07
1.52317e-06
1.371e-06
6.28438e-07
2.00676e-07
1.51344e-06
1.34755e-08
1.36538e-08
6.50584e-07
1.51022e-06
1.9879e-07
1.3693e-06
6.51935e-07
1.50747e-06
2.01131e-07
6.71564e-08
7.06614e-08
1.20793e-06
6.81625e-08
7.12557e-08
1.80052e-07
3.25396e-08
1.77698e-07
3.26088e-08
1.38491e-08
1.38473e-08
1.74832e-07
3.06094e-08
1.73173e-07
3.0774e-08
1.55081e-06
1.54613e-06
1.5559e-06
1.53392e-06
1.53973e-06
1.53587e-06
1.54217e-06
6.24976e-07
2.04541e-07
1.52559e-06
1.31936e-06
6.15743e-07
2.06067e-07
1.51899e-06
1.41064e-08
1.42236e-08
6.67384e-07
1.50134e-06
2.0664e-07
1.33774e-06
6.63174e-07
1.50364e-06
2.10036e-07
7.01616e-08
7.22406e-08
1.21137e-06
7.13817e-08
7.28165e-08
1.82341e-07
3.26066e-08
1.81139e-07
3.28054e-08
1.37061e-08
1.37168e-08
1.76622e-07
3.08345e-08
1.76455e-07
3.12326e-08
1.53015e-06
1.52572e-06
1.53338e-06
1.50875e-06
1.51542e-06
1.50835e-06
1.51762e-06
6.29809e-07
2.07495e-07
1.52825e-06
1.29591e-06
6.23326e-07
2.06607e-07
1.5268e-06
1.43969e-08
1.44433e-08
6.6695e-07
1.51645e-06
2.13853e-07
1.31615e-06
6.62289e-07
1.51752e-06
2.14252e-07
7.26043e-08
7.37794e-08
1.22096e-06
7.27065e-08
7.40299e-08
1.84095e-07
3.31e-08
1.83497e-07
3.29485e-08
1.37085e-08
1.38236e-08
1.75354e-07
3.13825e-08
1.75843e-07
3.14496e-08
1.49632e-06
1.49556e-06
1.50723e-06
1.4778e-06
1.48679e-06
1.4786e-06
1.48795e-06
6.29486e-07
2.05948e-07
1.51304e-06
1.28429e-06
6.36103e-07
2.05794e-07
1.50722e-06
1.43566e-08
1.42951e-08
6.62641e-07
1.52555e-06
2.16271e-07
1.32127e-06
6.60611e-07
1.52168e-06
2.14366e-07
7.14235e-08
7.43515e-08
1.20641e-06
7.21564e-08
7.41416e-08
1.85933e-07
3.28101e-08
1.83914e-07
3.27353e-08
1.41213e-08
1.43125e-08
1.73878e-07
3.12251e-08
1.73041e-07
3.12557e-08
1.46936e-06
1.45705e-06
1.47297e-06
1.44054e-06
1.46177e-06
1.44722e-06
1.45289e-06
6.25182e-07
2.04853e-07
1.48982e-06
1.28578e-06
6.19801e-07
2.04815e-07
1.48389e-06
1.42227e-08
1.42576e-08
6.51821e-07
1.5022e-06
2.12036e-07
1.30589e-06
6.57291e-07
1.49617e-06
2.12278e-07
7.16912e-08
7.4382e-08
1.20164e-06
7.19811e-08
7.406e-08
1.85322e-07
3.24121e-08
1.84737e-07
3.25731e-08
1.43707e-08
1.43763e-08
1.73996e-07
3.09577e-08
1.73461e-07
3.1059e-08
1.44619e-06
1.43804e-06
1.44214e-06
1.41775e-06
1.43308e-06
1.41341e-06
1.42343e-06
6.32275e-07
2.05015e-07
1.46944e-06
1.27822e-06
6.3171e-07
2.05521e-07
1.46613e-06
1.43981e-08
1.44666e-08
6.50273e-07
1.48452e-06
2.11494e-07
1.28933e-06
6.56108e-07
1.47921e-06
2.12094e-07
7.13003e-08
7.35092e-08
1.19779e-06
7.16941e-08
7.357e-08
1.86158e-07
3.21974e-08
1.8374e-07
3.20842e-08
1.42403e-08
1.43152e-08
1.73042e-07
3.11833e-08
1.73488e-07
3.14009e-08
1.42175e-06
1.40509e-06
1.40991e-06
1.39687e-06
1.41008e-06
1.38862e-06
1.40439e-06
6.25954e-07
2.05097e-07
1.45459e-06
1.26666e-06
6.29231e-07
2.05888e-07
1.4534e-06
1.44665e-08
1.45706e-08
6.55393e-07
1.46753e-06
2.12686e-07
1.27516e-06
6.50054e-07
1.46161e-06
2.12591e-07
7.10541e-08
7.27692e-08
1.1859e-06
7.15036e-08
7.31152e-08
1.75666e-07
3.18785e-08
1.83377e-07
3.16413e-08
1.42999e-08
1.41777e-08
3.12237e-08
1.71273e-07
1.38567e-06
1.37859e-06
1.38677e-06
6.21395e-07
2.04671e-07
1.4425e-06
1.2649e-06
6.1817e-07
2.13177e-07
1.43968e-06
1.4459e-08
6.23675e-07
1.45114e-06
2.12815e-07
6.48558e-07
1.44092e-06
7.16452e-08
7.23757e-08
1.19009e-06
7.19735e-08
7.20893e-08
1.6715e-06
2.71813e-07
2.71767e-07
6.76824e-09
1.70023e-07
6.7706e-09
1.69975e-07
1.67146e-06
1.16611e-07
1.16578e-07
2.91653e-07
2.91602e-07
1.45087e-06
1.66895e-06
4.19906e-07
1.66645e-06
1.45169e-06
1.66898e-06
4.1947e-07
1.66632e-06
8.27967e-07
2.35884e-09
1.68487e-07
4.74697e-07
8.27505e-07
2.29257e-09
1.68369e-07
4.74401e-07
1.44761e-06
1.66707e-06
1.88505e-07
1.66602e-06
4.80775e-07
1.6662e-06
1.54297e-06
1.44793e-06
1.66713e-06
1.85898e-07
1.66655e-06
4.8036e-07
1.66621e-06
1.54138e-06
1.67154e-06
2.72126e-07
2.71598e-07
6.70896e-09
1.69878e-07
1.67137e-06
1.16325e-07
1.16756e-07
2.9038e-07
2.91444e-07
6.77754e-09
1.69803e-07
1.4511e-06
1.6689e-06
4.19916e-07
1.66647e-06
1.45128e-06
1.66892e-06
1.66631e-06
4.19707e-07
8.27802e-07
2.38406e-09
1.68533e-07
4.74161e-07
1.4472e-06
1.66718e-06
1.88182e-07
1.66559e-06
4.80809e-07
1.66617e-06
1.54351e-06
8.27201e-07
2.38062e-09
1.68354e-07
4.73991e-07
1.4468e-06
1.66715e-06
1.66578e-06
1.88415e-07
1.66611e-06
4.8073e-07
1.54315e-06
1.66669e-06
1.66702e-06
1.66581e-06
1.66604e-06
1.66652e-06
1.66702e-06
1.66596e-06
1.6659e-06
1.66647e-06
1.66707e-06
1.66603e-06
1.66587e-06
1.66454e-06
1.66571e-06
1.66106e-06
1.66099e-06
1.66474e-06
1.66464e-06
1.66035e-06
1.66447e-06
1.66593e-06
1.66157e-06
1.66138e-06
1.66465e-06
1.66479e-06
1.66004e-06
1.66481e-06
1.66584e-06
1.66149e-06
1.66112e-06
1.66469e-06
1.66472e-06
1.66104e-06
1.66469e-06
1.66587e-06
1.66156e-06
1.66171e-06
1.66469e-06
1.66482e-06
1.6608e-06
1.45193e-06
1.66893e-06
1.66619e-06
4.19633e-07
1.44674e-06
1.66722e-06
1.891e-07
1.66545e-06
4.80667e-07
1.66623e-06
1.54387e-06
8.26514e-07
2.36853e-09
1.68314e-07
4.73872e-07
1.44771e-06
1.66715e-06
1.66568e-06
1.88588e-07
1.66602e-06
4.80775e-07
1.54302e-06
8.26072e-07
2.37539e-09
1.68326e-07
4.73632e-07
1.67155e-06
2.7221e-07
2.717e-07
6.74628e-09
1.70013e-07
1.67126e-06
1.16284e-07
1.16438e-07
2.90449e-07
2.91539e-07
6.74063e-09
1.69824e-07
1.45248e-06
1.66898e-06
1.66605e-06
4.19873e-07
1.44811e-06
1.66711e-06
1.66577e-06
1.8863e-07
1.66621e-06
4.80797e-07
1.5409e-06
1.44898e-06
1.66712e-06
1.66672e-06
1.88479e-07
1.66629e-06
4.81002e-07
1.54089e-06
8.26648e-07
2.37836e-09
1.68416e-07
4.74402e-07
8.26177e-07
2.38024e-09
1.6836e-07
4.74125e-07
1.67141e-06
1.16896e-07
1.16686e-07
2.90296e-07
2.90376e-07
6.77239e-09
1.69923e-07
6.75505e-09
1.69852e-07
2.73215e-08
1.51887e-08
2.73141e-08
1.5203e-08
1.50003e-07
1.49837e-07
1.63955e-06
1.1053e-07
1.10648e-07
1.11165e-08
1.28172e-08
1.10163e-08
1.28442e-08
1.62656e-06
7.92111e-08
7.76519e-08
9.944e-08
9.94467e-08
3.90836e-07
1.84926e-08
5.85824e-07
2.25727e-08
1.24074e-06
3.16461e-07
1.66647e-06
1.64341e-06
1.47784e-06
2.62377e-07
1.66269e-06
1.23032e-06
3.13887e-07
1.66531e-06
1.64336e-06
1.47946e-06
2.61238e-07
1.66383e-06
3.2918e-07
1.82045e-08
2.03799e-08
2.42201e-07
3.34967e-07
1.82067e-08
2.0425e-08
2.4195e-07
1.13604e-06
1.6222e-06
1.93275e-07
1.65116e-06
2.33633e-07
1.65888e-06
9.16056e-07
1.14461e-06
1.6225e-06
1.94559e-07
1.65305e-06
2.34797e-07
1.65761e-06
9.15096e-07
1.49678e-07
1.49929e-07
1.63971e-06
1.10577e-07
1.11095e-07
2.73129e-08
1.52033e-08
1.11492e-08
1.27896e-08
1.62665e-06
8.02245e-08
7.82524e-08
9.95974e-08
9.95132e-08
1.10147e-08
1.28245e-08
1.24305e-06
3.15373e-07
1.66716e-06
1.64258e-06
1.47642e-06
2.62279e-07
1.66168e-06
3.91486e-07
1.85895e-08
5.85209e-07
2.25711e-08
1.23765e-06
1.66668e-06
3.1537e-07
1.64289e-06
1.47617e-06
1.66195e-06
2.61854e-07
3.30796e-07
1.77437e-08
2.04269e-08
2.29132e-07
1.12919e-06
1.62992e-06
1.83839e-07
1.64964e-06
2.33707e-07
1.65996e-06
8.92466e-07
3.32026e-07
1.76972e-08
2.05096e-08
2.29371e-07
1.13667e-06
1.62841e-06
1.64882e-06
1.83869e-07
1.65959e-06
2.35298e-07
8.78707e-07
3.90847e-07
1.86543e-08
5.85386e-07
2.26066e-08
1.22968e-06
1.6671e-06
3.15419e-07
1.64209e-06
1.47721e-06
1.66145e-06
2.62258e-07
3.90689e-07
1.86209e-08
5.85227e-07
2.25611e-08
1.13267e-06
1.62642e-06
1.84516e-07
1.64955e-06
2.3306e-07
1.66008e-06
8.97435e-07
3.35924e-07
1.76954e-08
2.048e-08
2.31834e-07
1.14404e-06
1.6294e-06
1.64929e-06
1.83698e-07
1.65993e-06
2.33389e-07
8.73161e-07
3.35052e-07
1.76956e-08
2.04872e-08
2.312e-07
1.49817e-07
1.50161e-07
1.63902e-06
1.10645e-07
1.10778e-07
2.7372e-08
1.52202e-08
1.10005e-08
1.28489e-08
1.62596e-06
7.77816e-08
7.92082e-08
9.9549e-08
9.95781e-08
1.1121e-08
1.28534e-08
1.22957e-06
1.66553e-06
3.15008e-07
1.64329e-06
1.47639e-06
1.6639e-06
2.60597e-07
3.9307e-07
1.86008e-08
5.8548e-07
2.25552e-08
3.87962e-07
1.85928e-08
5.82987e-07
2.25855e-08
1.13544e-06
1.622e-06
1.65153e-06
1.93011e-07
1.65878e-06
2.32997e-07
9.27356e-07
1.14554e-06
1.62285e-06
1.65299e-06
1.92544e-07
1.65801e-06
2.35316e-07
9.1407e-07
3.31452e-07
1.81614e-08
2.04692e-08
2.45429e-07
3.39474e-07
1.82039e-08
2.0481e-08
2.42934e-07
2.73278e-08
1.51936e-08
2.73142e-08
1.52076e-08
1.62359e-06
7.80573e-08
7.9073e-08
9.93085e-08
9.93046e-08
1.10076e-08
1.28269e-08
1.11417e-08
1.2844e-08
1.09078e-08
1.1427e-08
1.08455e-08
1.13902e-08
7.5924e-08
7.5245e-08
1.3991e-06
7.53658e-08
7.39925e-08
1.30527e-08
1.16222e-08
1.28788e-08
1.16141e-08
1.35989e-06
7.72684e-08
7.23678e-08
7.54408e-08
7.27899e-08
2.10383e-07
1.78821e-08
2.33311e-07
1.93317e-08
7.45444e-07
1.89453e-07
1.63918e-06
1.51479e-06
8.85257e-07
1.94609e-07
1.61935e-06
7.63997e-07
1.89784e-07
1.63766e-06
1.52043e-06
8.66857e-07
1.99158e-07
1.62197e-06
2.18656e-07
2.55248e-08
2.09745e-08
2.07294e-07
2.11157e-07
2.38995e-08
2.06294e-08
2.05179e-07
7.52368e-07
1.49114e-06
2.15897e-07
1.5867e-06
2.05693e-07
1.60367e-06
7.1673e-07
7.34958e-07
1.49335e-06
2.14891e-07
1.58953e-06
1.97574e-07
1.60366e-06
7.17685e-07
7.75889e-08
7.53095e-08
1.40933e-06
7.58405e-08
7.35638e-08
1.08417e-08
1.13615e-08
1.31578e-08
1.17443e-08
1.38476e-06
7.75712e-08
7.28197e-08
7.91097e-08
7.7704e-08
1.28494e-08
1.16786e-08
7.06213e-07
1.79611e-07
1.63191e-06
1.49396e-06
8.29768e-07
1.83102e-07
1.61271e-06
2.09732e-07
1.74114e-08
2.21361e-07
1.87648e-08
7.18834e-07
1.63141e-06
1.79148e-07
1.49736e-06
8.20183e-07
1.60957e-06
1.82432e-07
2.02905e-07
2.39049e-08
2.03519e-08
1.97708e-07
7.04431e-07
1.47478e-06
1.97541e-07
1.57762e-06
1.88314e-07
1.5936e-06
6.95192e-07
2.02667e-07
2.35136e-08
1.98214e-08
2.00592e-07
6.96153e-07
1.47156e-06
1.57602e-06
2.02564e-07
1.59262e-06
1.94628e-07
6.76177e-07
2.00405e-07
1.74298e-08
2.18879e-07
1.88969e-08
6.9335e-07
1.63045e-06
1.80552e-07
1.49261e-06
8.30881e-07
1.61129e-06
1.86502e-07
2.05755e-07
1.73829e-08
2.21326e-07
1.87875e-08
7.19317e-07
1.4651e-06
1.98471e-07
1.57535e-06
1.91557e-07
1.59287e-06
6.65997e-07
2.09932e-07
2.31323e-08
1.94475e-08
1.92626e-07
6.93124e-07
1.47016e-06
1.57532e-06
1.96091e-07
1.59109e-06
1.86051e-07
6.74031e-07
2.00135e-07
2.34626e-08
2.01513e-08
1.95198e-07
7.56284e-08
7.59178e-08
1.40419e-06
7.32287e-08
7.51623e-08
1.09106e-08
1.13813e-08
1.30851e-08
1.17523e-08
1.38537e-06
7.33086e-08
7.25775e-08
7.70231e-08
7.61679e-08
1.27036e-08
1.18381e-08
7.53777e-07
1.63903e-06
1.87317e-07
1.51043e-06
8.82003e-07
1.6224e-06
1.91603e-07
2.08121e-07
1.78842e-08
2.32452e-07
1.93591e-08
2.17073e-07
1.78747e-08
2.38258e-07
1.95246e-08
7.53674e-07
1.47907e-06
1.58927e-06
1.99704e-07
1.60463e-06
2.03101e-07
7.11125e-07
7.49541e-07
1.48769e-06
1.58858e-06
2.02081e-07
1.60478e-06
2.0182e-07
7.10776e-07
2.18209e-07
2.37767e-08
2.02735e-08
2.03977e-07
2.17517e-07
2.37617e-08
1.99795e-08
2.05637e-07
1.08082e-08
1.13775e-08
1.09362e-08
1.13743e-08
1.37217e-06
7.31841e-08
7.7469e-08
7.32239e-08
7.77293e-08
1.28838e-08
1.14957e-08
1.30242e-08
1.18102e-08
1.37586e-08
1.39755e-08
1.36252e-08
1.39445e-08
7.55252e-08
7.3276e-08
1.26841e-06
7.35054e-08
7.26586e-08
1.36056e-08
1.41206e-08
1.36601e-08
1.42024e-08
1.27626e-06
7.18225e-08
7.06862e-08
7.62675e-08
7.33769e-08
1.98588e-07
2.59681e-08
2.08162e-07
2.85085e-08
6.89654e-07
2.09963e-07
1.57143e-06
1.43532e-06
7.24163e-07
2.08465e-07
1.55739e-06
7.09683e-07
2.14132e-07
1.57319e-06
1.43889e-06
7.0732e-07
2.06058e-07
1.56035e-06
2.02711e-07
2.99154e-08
2.98019e-08
1.99843e-07
2.09494e-07
2.98884e-08
2.95548e-08
1.92264e-07
7.03242e-07
1.42493e-06
2.04138e-07
1.5367e-06
2.17238e-07
1.54662e-06
6.91634e-07
6.98002e-07
1.41519e-06
2.06057e-07
1.53923e-06
2.11926e-07
1.54819e-06
6.88373e-07
7.76449e-08
7.45157e-08
1.2694e-06
7.63226e-08
7.20035e-08
1.33449e-08
1.3788e-08
1.39725e-08
1.4361e-08
1.28259e-06
7.45183e-08
7.08648e-08
7.78025e-08
7.40701e-08
1.34676e-08
1.36961e-08
6.73887e-07
2.10368e-07
1.56198e-06
1.4265e-06
6.85942e-07
2.00444e-07
1.5501e-06
1.94077e-07
2.52961e-08
2.06202e-07
2.82864e-08
6.78559e-07
1.56003e-06
2.01721e-07
1.41699e-06
7.04108e-07
1.54864e-06
1.9739e-07
1.97261e-07
2.93497e-08
2.95988e-08
1.86518e-07
6.8197e-07
1.41399e-06
1.9723e-07
1.52905e-06
2.05062e-07
1.53801e-06
6.55821e-07
2.00888e-07
2.88405e-08
2.94687e-08
1.86897e-07
6.79985e-07
1.40518e-06
1.52906e-06
1.9835e-07
1.53728e-06
2.086e-07
6.55854e-07
1.93267e-07
2.55377e-08
2.06985e-07
2.81799e-08
6.56377e-07
1.55872e-06
2.0943e-07
1.41887e-06
6.78587e-07
1.54482e-06
1.97603e-07
1.92189e-07
2.58405e-08
1.9918e-07
2.85358e-08
6.9903e-07
1.40508e-06
2.00779e-07
1.52636e-06
2.06612e-07
1.53336e-06
6.72589e-07
1.96856e-07
2.88355e-08
2.90519e-08
1.90171e-07
6.77772e-07
1.40858e-06
1.52121e-06
1.9403e-07
1.53138e-06
2.0058e-07
6.4631e-07
1.99129e-07
2.83146e-08
2.84193e-08
1.83385e-07
7.5625e-08
7.56555e-08
1.26669e-06
7.41986e-08
7.4274e-08
1.33972e-08
1.37397e-08
1.36573e-08
1.39747e-08
1.27127e-06
7.06742e-08
7.24083e-08
7.37652e-08
7.44381e-08
1.35356e-08
1.391e-08
6.97975e-07
1.57405e-06
2.13453e-07
1.43484e-06
7.36791e-07
1.56111e-06
2.0287e-07
2.01485e-07
2.56229e-08
2.18519e-07
2.77662e-08
2.04701e-07
2.52055e-08
2.20891e-07
2.88801e-08
7.16815e-07
1.41503e-06
1.54329e-06
2.05778e-07
1.55332e-06
2.03362e-07
6.84284e-07
7.07553e-07
1.42347e-06
1.54002e-06
2.00734e-07
1.55126e-06
2.10813e-07
6.8634e-07
2.11076e-07
2.91528e-08
2.86572e-08
1.94812e-07
2.06912e-07
2.93968e-08
2.8978e-08
1.9602e-07
1.34902e-08
1.38019e-08
1.35773e-08
1.39752e-08
1.27837e-06
6.97938e-08
7.50017e-08
7.57259e-08
7.81555e-08
1.32074e-08
1.36449e-08
1.37151e-08
1.41588e-08
1.38811e-08
1.36329e-08
1.37652e-08
1.36121e-08
7.60042e-08
7.53782e-08
1.23884e-06
7.18002e-08
7.09507e-08
1.38617e-08
1.38213e-08
1.36752e-08
1.37677e-08
1.2564e-06
7.15788e-08
7.12864e-08
7.50258e-08
7.22936e-08
1.86543e-07
3.06451e-08
1.95874e-07
3.01205e-08
6.65272e-07
2.08153e-07
1.53122e-06
1.39771e-06
6.84666e-07
2.01028e-07
1.52966e-06
6.68821e-07
2.11413e-07
1.53392e-06
1.39658e-06
7.10994e-07
2.03927e-07
1.53177e-06
1.91732e-07
3.17312e-08
3.07614e-08
1.84622e-07
1.91563e-07
3.05489e-08
3.10046e-08
1.82351e-07
6.87528e-07
1.39996e-06
2.06776e-07
1.51969e-06
2.1321e-07
1.52924e-06
6.63027e-07
6.90682e-07
1.38912e-06
2.03638e-07
1.52289e-06
2.0761e-07
1.52474e-06
6.49397e-07
7.6866e-08
7.37273e-08
1.2467e-06
7.33604e-08
6.91335e-08
1.3678e-08
1.3257e-08
1.37616e-08
1.3888e-08
1.25315e-06
7.21182e-08
7.00745e-08
7.46927e-08
7.02481e-08
1.35041e-08
1.35306e-08
6.3855e-07
2.02758e-07
1.52175e-06
1.39485e-06
6.66143e-07
1.95021e-07
1.5203e-06
1.80169e-07
2.92767e-08
1.91762e-07
2.91171e-08
6.41894e-07
1.52415e-06
1.99477e-07
1.38823e-06
6.78163e-07
1.52124e-06
1.9523e-07
1.84894e-07
2.99248e-08
3.02812e-08
1.75277e-07
6.44538e-07
1.3807e-06
1.97666e-07
1.51757e-06
2.00403e-07
1.51664e-06
6.25456e-07
1.85604e-07
2.94907e-08
3.00969e-08
1.79366e-07
6.53131e-07
1.37249e-06
1.51073e-06
1.98567e-07
1.5142e-06
1.94826e-07
6.26316e-07
1.84139e-07
2.97424e-08
1.97785e-07
2.89351e-08
6.30808e-07
1.51459e-06
1.91348e-07
1.37171e-06
6.58999e-07
1.50942e-06
1.85193e-07
1.76566e-07
2.82374e-08
1.87891e-07
2.76482e-08
6.61273e-07
1.37849e-06
1.94436e-07
1.51611e-06
2.03386e-07
1.51693e-06
6.37202e-07
1.88449e-07
2.92788e-08
2.94788e-08
1.7765e-07
6.43434e-07
1.3654e-06
1.49568e-06
1.86167e-07
1.50637e-06
1.9532e-07
6.145e-07
1.84413e-07
2.8478e-08
2.87273e-08
1.70346e-07
7.45891e-08
7.29803e-08
1.23735e-06
6.91821e-08
7.13731e-08
1.35838e-08
1.34126e-08
1.33782e-08
1.34184e-08
1.23825e-06
6.86227e-08
7.10882e-08
7.04238e-08
7.3731e-08
1.34302e-08
1.3697e-08
6.71477e-07
1.53451e-06
2.12258e-07
1.39749e-06
7.10556e-07
1.52875e-06
2.04372e-07
1.86548e-07
2.95117e-08
1.97797e-07
2.91161e-08
1.87639e-07
2.99606e-08
2.00398e-07
2.99211e-08
6.96146e-07
1.38444e-06
1.51624e-06
2.0494e-07
1.52619e-06
2.07371e-07
6.70456e-07
6.84055e-07
1.39516e-06
1.52003e-06
2.01994e-07
1.52363e-06
2.01253e-07
6.55221e-07
1.88611e-07
2.92985e-08
3.00589e-08
1.82254e-07
1.92929e-07
3.07337e-08
3.07167e-08
1.83121e-07
1.31615e-08
1.30433e-08
1.37478e-08
1.3651e-08
1.23984e-06
6.77381e-08
7.16004e-08
7.15676e-08
7.38555e-08
1.31163e-08
1.29605e-08
1.38344e-08
1.39482e-08
1.41666e-08
1.41712e-08
1.39743e-08
1.38224e-08
7.46949e-08
7.27245e-08
1.21899e-06
7.46615e-08
7.18108e-08
1.4478e-08
1.47186e-08
1.39654e-08
1.42517e-08
1.2291e-06
7.59013e-08
7.18718e-08
7.61279e-08
7.30061e-08
1.80692e-07
3.15099e-08
1.88893e-07
3.07972e-08
6.36795e-07
2.15024e-07
1.523e-06
1.40164e-06
6.48835e-07
2.11698e-07
1.52678e-06
6.36146e-07
2.08163e-07
1.52446e-06
1.3759e-06
6.62078e-07
2.04516e-07
1.51388e-06
1.85217e-07
3.29872e-08
3.25701e-08
1.78726e-07
1.86591e-07
3.09941e-08
3.13957e-08
1.79988e-07
6.60716e-07
1.39681e-06
2.1682e-07
1.51838e-06
2.16466e-07
1.51678e-06
6.38164e-07
6.54508e-07
1.36669e-06
2.05387e-07
1.51461e-06
2.13446e-07
1.51292e-06
6.37541e-07
7.54487e-08
7.30283e-08
1.21081e-06
7.19632e-08
7.17854e-08
1.39152e-08
1.3972e-08
1.38635e-08
1.41356e-08
1.21965e-06
7.17681e-08
7.33502e-08
7.55974e-08
7.41758e-08
1.41451e-08
1.41442e-08
6.12307e-07
2.02679e-07
1.51495e-06
1.36566e-06
6.27534e-07
2.00961e-07
1.50668e-06
1.75608e-07
3.06828e-08
1.80291e-07
3.03715e-08
6.18202e-07
1.50951e-06
1.97662e-07
1.37245e-06
6.34593e-07
1.51118e-06
1.97775e-07
1.77513e-07
3.09633e-08
3.10054e-08
1.74633e-07
6.41113e-07
1.37073e-06
2.05088e-07
1.50226e-06
2.0963e-07
1.50392e-06
6.17233e-07
1.78226e-07
3.08118e-08
3.13896e-08
1.77764e-07
6.41197e-07
1.35234e-06
1.49878e-06
2.04415e-07
1.49975e-06
2.04851e-07
6.19035e-07
1.74549e-07
2.99395e-08
1.8124e-07
3.01192e-08
6.04555e-07
1.49755e-06
1.9169e-07
1.3466e-06
6.3937e-07
1.48762e-06
1.93221e-07
1.70575e-07
2.96829e-08
1.75223e-07
2.96369e-08
6.45555e-07
1.35417e-06
2.10725e-07
1.51395e-06
2.08298e-07
1.51455e-06
6.29049e-07
1.7848e-07
3.09843e-08
3.12153e-08
1.74171e-07
6.15379e-07
1.3479e-06
1.48968e-06
1.99996e-07
1.4873e-06
2.01481e-07
6.15717e-07
1.75679e-07
3.04146e-08
3.04389e-08
1.72276e-07
7.10195e-08
7.55209e-08
1.2124e-06
6.93841e-08
7.11963e-08
1.37299e-08
1.37051e-08
1.41009e-08
1.41391e-08
1.22499e-06
7.28698e-08
7.32192e-08
7.24398e-08
7.30554e-08
1.41048e-08
1.42099e-08
6.52551e-07
1.51885e-06
2.13594e-07
1.39544e-06
6.75498e-07
1.52004e-06
2.05539e-07
1.84157e-07
3.04316e-08
1.87972e-07
3.03229e-08
1.8288e-07
3.1317e-08
1.87256e-07
3.11942e-08
6.8222e-07
1.36301e-06
1.49834e-06
2.07977e-07
1.49917e-06
2.12306e-07
6.66238e-07
6.82571e-07
1.39641e-06
1.51756e-06
2.10343e-07
1.51062e-06
2.09793e-07
6.60545e-07
1.92302e-07
3.15896e-08
3.13373e-08
1.87355e-07
1.89818e-07
3.1558e-08
3.1504e-08
1.87591e-07
1.3163e-08
1.33299e-08
1.38205e-08
1.39521e-08
1.22097e-06
7.00963e-08
7.22141e-08
6.98729e-08
7.3238e-08
1.37768e-08
1.3559e-08
1.40186e-08
1.4005e-08
1.48552e-08
1.46541e-08
1.42359e-08
1.398e-08
7.75147e-08
7.34382e-08
1.2233e-06
7.63672e-08
7.18963e-08
1.4683e-08
1.47155e-08
1.40279e-08
1.42069e-08
1.22846e-06
7.72846e-08
7.24062e-08
7.8854e-08
7.46153e-08
1.81409e-07
3.2109e-08
1.8447e-07
3.12796e-08
6.43579e-07
2.19515e-07
1.52378e-06
1.33862e-06
6.47434e-07
2.18075e-07
1.5327e-06
6.42061e-07
2.11029e-07
1.52268e-06
1.33432e-06
6.50858e-07
2.05193e-07
1.5205e-06
1.84253e-07
3.30824e-08
3.29932e-08
1.8792e-07
1.84698e-07
3.1171e-08
3.23001e-08
1.83038e-07
6.70584e-07
1.32472e-06
2.18347e-07
1.53206e-06
2.23044e-07
1.52652e-06
6.45429e-07
6.70283e-07
1.32714e-06
2.03266e-07
1.52594e-06
2.08991e-07
1.53114e-06
6.5026e-07
7.51261e-08
7.65921e-08
1.21149e-06
7.11668e-08
7.42241e-08
1.4552e-08
1.42993e-08
1.38267e-08
1.39844e-08
1.2114e-06
7.02773e-08
7.42641e-08
7.23326e-08
7.90219e-08
1.43709e-08
1.45449e-08
6.17665e-07
2.10272e-07
1.50422e-06
1.32809e-06
6.36529e-07
2.05389e-07
1.51712e-06
1.78723e-07
3.21117e-08
1.82366e-07
3.14877e-08
6.18476e-07
1.4978e-06
2.11096e-07
1.30572e-06
6.33326e-07
1.50116e-06
2.06975e-07
1.79629e-07
3.09987e-08
3.18871e-08
1.82001e-07
6.42409e-07
1.31536e-06
2.06943e-07
1.51297e-06
2.11191e-07
1.51185e-06
6.22486e-07
1.82577e-07
3.20463e-08
3.22762e-08
1.78545e-07
6.30741e-07
1.29383e-06
1.5142e-06
2.10112e-07
1.50113e-06
2.13385e-07
6.22442e-07
1.75948e-07
3.19664e-08
1.78262e-07
3.13986e-08
6.17993e-07
1.506e-06
2.06122e-07
1.31642e-06
6.28166e-07
1.50526e-06
2.03336e-07
1.72923e-07
3.12221e-08
1.78179e-07
3.10733e-08
6.40307e-07
1.30856e-06
2.13837e-07
1.52806e-06
2.12497e-07
1.52724e-06
6.35334e-07
1.80623e-07
3.16271e-08
3.22027e-08
1.76155e-07
6.30068e-07
1.30636e-06
1.51929e-06
2.05056e-07
1.50677e-06
2.0861e-07
6.18897e-07
1.7977e-07
3.14195e-08
3.18081e-08
1.75173e-07
7.52917e-08
7.45644e-08
1.21678e-06
7.36134e-08
7.44894e-08
1.42297e-08
1.42576e-08
1.45267e-08
1.45254e-08
1.22791e-06
7.44619e-08
7.61777e-08
7.47884e-08
7.68671e-08
1.4529e-08
1.45089e-08
6.59099e-07
1.5183e-06
2.17786e-07
1.34974e-06
6.86059e-07
1.5196e-06
2.1266e-07
1.88873e-07
3.23488e-08
1.92734e-07
3.18339e-08
1.88893e-07
3.21684e-08
1.91993e-07
3.18018e-08
6.74162e-07
1.32963e-06
1.5118e-06
2.15534e-07
1.51443e-06
2.19408e-07
6.65923e-07
6.82331e-07
1.33569e-06
1.53538e-06
2.14809e-07
1.5223e-06
2.19079e-07
6.62997e-07
1.94152e-07
3.24289e-08
3.27711e-08
1.90116e-07
1.93174e-07
3.21535e-08
3.26679e-08
1.90802e-07
1.42128e-08
1.40461e-08
1.41006e-08
1.40506e-08
1.22461e-06
7.30827e-08
7.39971e-08
7.4489e-08
7.56463e-08
1.40948e-08
1.41671e-08
1.42689e-08
1.44202e-08
1.50906e-08
1.5031e-08
1.43262e-08
1.40512e-08
8.12487e-08
7.40378e-08
1.21754e-06
7.66824e-08
7.18742e-08
1.48183e-08
1.48422e-08
1.41982e-08
1.42023e-08
1.22442e-06
7.72694e-08
7.26691e-08
7.80688e-08
7.26842e-08
1.8363e-07
3.21746e-08
1.88807e-07
3.12037e-08
6.44584e-07
2.21965e-07
1.53288e-06
1.30617e-06
6.50925e-07
2.19022e-07
1.53008e-06
6.46496e-07
2.10694e-07
1.53077e-06
1.30328e-06
6.56352e-07
2.05113e-07
1.53103e-06
1.87908e-07
3.40118e-08
3.32941e-08
1.85566e-07
1.91349e-07
3.13091e-08
3.22679e-08
1.8446e-07
6.55395e-07
1.30258e-06
2.20412e-07
1.5221e-06
2.2386e-07
1.52668e-06
6.47682e-07
6.74611e-07
1.30128e-06
2.06592e-07
1.52329e-06
2.12667e-07
1.52842e-06
6.44535e-07
7.21302e-08
7.83705e-08
1.21081e-06
7.0686e-08
7.3958e-08
1.46646e-08
1.43509e-08
1.38367e-08
1.40411e-08
1.21363e-06
7.04546e-08
7.3552e-08
7.27549e-08
7.79823e-08
1.42884e-08
1.45146e-08
6.24879e-07
2.11021e-07
1.52007e-06
1.29399e-06
6.32847e-07
2.04563e-07
1.52027e-06
1.79123e-07
3.30246e-08
1.8326e-07
3.21764e-08
6.28168e-07
1.509e-06
2.1477e-07
1.28029e-06
6.40977e-07
1.5143e-06
2.10495e-07
1.81032e-07
3.20929e-08
3.17633e-08
1.77594e-07
6.32374e-07
1.29134e-06
2.06271e-07
1.5122e-06
2.07401e-07
1.51695e-06
6.20472e-07
1.82734e-07
3.23103e-08
3.30763e-08
1.76597e-07
6.4901e-07
1.27721e-06
1.51056e-06
2.10605e-07
1.51334e-06
2.15653e-07
6.2225e-07
1.78299e-07
3.26152e-08
1.81685e-07
3.15114e-08
6.19422e-07
1.51493e-06
2.11412e-07
1.29874e-06
6.43603e-07
1.52034e-06
2.06417e-07
1.76576e-07
3.17969e-08
1.81564e-07
3.14534e-08
6.45691e-07
1.29471e-06
2.12911e-07
1.51802e-06
2.10386e-07
1.52227e-06
6.36671e-07
1.8221e-07
3.14141e-08
3.16643e-08
1.7908e-07
6.34908e-07
1.29651e-06
1.51718e-06
2.07701e-07
1.52025e-06
2.12348e-07
6.29723e-07
1.82286e-07
3.15169e-08
3.19921e-08
1.76595e-07
7.80281e-08
7.91184e-08
1.23013e-06
7.37721e-08
7.67597e-08
1.47111e-08
1.4651e-08
1.44464e-08
1.47491e-08
1.23144e-06
7.40323e-08
7.69288e-08
7.49989e-08
7.98677e-08
1.45433e-08
1.46382e-08
6.67724e-07
1.53077e-06
2.19571e-07
1.3119e-06
6.80821e-07
1.53736e-06
2.14276e-07
1.92601e-07
3.33632e-08
1.95694e-07
3.24458e-08
1.92837e-07
3.302e-08
1.95201e-07
3.2461e-08