/*--------------------------------*- C++ -*----------------------------------*\
| =========                 |                                                 |
| \\      /  F ield         | OpenFOAM: The Open Source CFD Toolbox           |
|  \\    /   O peration     | Version:  2206                                  |
|   \\  /    A nd           | Website:  www.openfoam.com                      |
|    \\/     M anipulation  |                                                 |
\*---------------------------------------------------------------------------*/
FoamFile
{
    version     2.0;
    format      ascii;
    arch        "LSB;label=32;scalar=64";
    class       volScalarField;
    location    "26";
    object      omega;
}
// * * * * * * * * * * * * * * * * * * * * * * * * * * * * * * * * * * * * * //

dimensions      [0 0 -1 0 0 0 0];

internalField   nonuniform List<scalar> 
66616
(
21.4656
21.7076
21.7068
21.7272
20.4178
21.9707
21.742
22.3013
19.6087
21.8032
21.6166
23.7845
18.908
21.484
21.2231
23.3759
18.3088
21.249
20.9548
23.1187
18.0157
21.1783
20.962
23.025
17.8604
21.1441
20.8938
23.0492
17.8454
21.1424
20.8993
23.0035
17.8283
21.1419
20.9072
23.0859
17.8257
21.1167
20.8958
23.0541
17.82
21.0878
20.8811
23.0734
17.8306
21.0847
20.8895
23.0487
21.8194
21.6933
21.6936
21.8183
21.6937
21.6928
21.7414
21.7302
21.7343
21.7348
21.6931
21.6861
21.8173
21.6929
21.6858
21.8192
21.7162
22.0956
21.7103
21.7118
21.4747
21.4787
21.7187
22.0235
21.7062
21.7108
21.7361
21.6271
21.7093
21.6353
21.7351
21.7155
22.0517
21.7068
21.4925
21.5024
22.0917
22.2493
23.7452
21.7713
21.7195
21.6761
21.6262
22.1713
23.7271
21.8579
22.0034
21.7879
21.9779
21.8618
21.9077
21.8635
22.248
23.6858
21.6553
21.7174
21.634
23.6843
23.5821
23.1911
21.4583
21.481
21.1756
21.3461
23.5726
23.476
21.5652
21.722
21.2615
21.4813
21.668
21.5149
21.3777
23.5497
23.4069
21.4548
21.2115
21.2038
23.3446
22.8214
23.0355
21.133
21.07
21.0674
21.1426
23.0038
23.121
21.1534
21.3532
21.2271
21.3394
21.3619
21.2509
21.3463
22.9642
23.101
21.0241
21.0613
21.0921
23.0744
22.6447
22.7403
20.878
21.041
20.9408
21.0539
22.7628
23.0062
21.0339
21.1411
21.2149
21.2464
21.2054
21.0715
21.2167
22.7039
22.9274
20.9558
20.9453
20.9964
22.9826
22.8327
22.9328
20.8245
20.8596
20.9067
21.0425
22.8524
23.1002
21.0072
21.1101
21.1417
21.1409
21.0817
21.0104
21.1497
22.7336
22.8129
20.8926
20.8602
20.9449
22.8281
22.6925
22.9039
20.7711
20.9474
20.9108
21.0388
22.9023
23.0568
20.9454
20.9992
21.1022
21.0801
21.0464
21.0147
21.1579
22.6651
22.8325
20.8429
20.796
20.8906
22.9169
22.7126
22.9428
20.8231
20.7998
20.9302
20.9668
22.8144
22.9264
20.9581
20.985
21.1247
21.0881
21.0641
21.0197
21.1546
22.5408
22.8078
20.805
20.8055
20.9226
22.8727
22.6884
22.9574
20.8236
20.7719
20.9015
20.9282
22.7694
22.8741
20.9504
21.0004
21.1558
21.0617
21.0426
20.9891
21.1389
22.5897
22.752
20.8205
20.7864
20.9239
23.0159
22.7651
22.9511
20.8176
20.8593
20.8965
20.9515
22.5948
22.8982
21.0674
20.8715
21.1703
21.0547
20.9621
20.985
21.1925
22.5984
22.8096
20.8235
20.7941
20.9314
22.8507
22.708
22.9325
20.7896
20.9075
20.9317
20.9784
22.7615
22.961
20.9759
20.8662
21.1558
21.0461
21.0981
21.0359
21.1403
22.6113
22.7604
20.7556
20.896
20.9688
22.9768
22.7718
20.8575
20.8917
22.7777
21.0615
20.9131
21.0172
22.5026
20.7895
22.1808
22.1991
22.1946
22.1922
22.4133
22.2107
26.6566
22.1991
22.4126
22.2116
22.1983
26.7372
22.2592
43.5812
43.748
84.3523
763.54
63.9278
476.658
553.898
594.004
84.4772
763.538
64.0509
476.54
21.4807
21.4759
21.4747
20.6744
20.6545
20.6524
20.6607
28.7573
111.785
21.4686
21.5871
25.2113
116.039
21.2283
553.453
593.967
28.8442
21.4817
111.997
21.588
25.1575
21.2132
116.364
198.956
199.087
21.6105
206.526
206.821
101.467
339.204
107.463
290.429
448.735
415.245
104.847
341.88
109.97
293.448
20.4282
20.4316
20.4313
19.8204
19.8173
19.8256
19.8103
41.4491
121.076
20.6395
21.9448
38.2833
100.804
20.5423
450.7
418.73
39.2034
20.5424
117.734
21.7173
36.6033
20.4202
98.975
193.156
191.397
23.2819
162.564
163.756
89.0322
271.895
93.1867
268.619
404.827
402.181
91.6895
275.371
96.5151
270.832
19.6505
19.648
19.6241
19.1036
19.0721
19.1009
19.0942
38.6777
88.8279
20.1896
21.5877
39.9032
83.789
20.052
406.544
404.268
36.9066
19.9969
87.101
21.3948
37.9827
19.8533
84.0752
155.518
152.307
23.6397
151.158
148.777
87.5767
267.337
89.0275
266.253
401.37
400.581
90.2086
270.186
91.4721
268.832
18.9007
18.9162
18.9738
18.481
18.4551
18.4719
18.493
36.5443
83.1039
19.735
21.2385
37.2025
82.0238
19.6347
402.998
402.371
35.4532
19.56
81.0448
21.1153
36.1166
19.4893
79.8918
149.257
146.296
23.1881
148.109
145.59
86.0676
265.584
87.4331
264.757
400.082
399.828
88.8973
267.672
89.3461
267.628
18.3238
18.3756
18.3447
18.0473
18.0298
18.0686
17.9734
35.7192
81.4217
19.4096
21.0248
35.9816
80.3107
19.3597
401.174
401.341
34.4795
19.3793
79.9038
20.9917
34.8704
19.3324
79.3239
146.714
145.248
23.0391
146.299
144.129
85.7825
263.605
86.3346
264.479
399.61
399.567
88.4295
268.268
88.9001
267.531
18.0051
18.0499
17.9864
17.9514
17.8665
17.8994
17.8769
35.6283
80.4548
19.308
21.0977
35.8595
80.3417
19.3024
400.577
400.794
34.0032
19.2712
78.6913
20.7925
33.8903
19.2548
78.5857
146.04
144.027
22.9513
145.777
143.579
85.7588
265.089
86.0193
264.269
399.861
399.385
88.2723
268.209
88.4299
267.583
17.8933
17.9277
17.8949
17.8866
17.8093
17.8464
17.8086
35.7293
80.6673
19.2802
20.9376
35.845
80.9723
19.2776
401.178
401.187
34.1256
19.1948
78.5856
20.7976
34.0568
19.1867
78.6223
146.024
143.659
22.9815
145.553
143.662
85.9563
264.061
86.1809
264.726
400.203
399.378
88.9761
268.438
88.5266
267.65
17.9521
17.8922
17.8362
17.8566
17.7991
17.8314
17.7918
35.7623
80.7748
19.2842
20.9287
35.4303
80.4534
19.2874
401.029
401.094
34.2265
19.1591
77.7855
20.8622
34.3364
19.1673
78.2325
146.634
143.719
23.0124
145.911
143.868
85.514
265.114
85.9015
264.616
399.348
398.985
89.0995
268.167
89.8396
267.766
17.9057
17.9813
17.8385
17.9323
17.7469
17.8082
17.7589
35.7186
80.6395
19.308
21.0665
35.9663
80.8187
19.3142
400.555
401.038
34.6381
19.1611
78.9865
20.7245
34.4644
19.1724
78.6316
146.363
144.481
23.0232
146.083
144.041
85.4174
264.712
85.9281
264.667
398.723
399.342
88.9662
268.333
89.0636
267.693
17.8526
17.8501
17.8215
17.8597
17.7911
17.8161
17.7886
35.4287
80.6881
19.3287
20.9277
35.6797
80.5819
19.3304
401.105
400.955
34.5112
19.1719
78.4138
20.7212
34.5482
19.1865
78.473
147.069
144.719
22.9667
146.129
143.885
85.2793
265.614
86.0776
264.871
400.026
399.354
89.0318
267.921
88.8125
267.517
17.8802
17.8608
17.8884
17.855
17.799
17.8501
17.8022
35.8107
80.67
19.316
20.9031
35.8038
80.3521
19.3031
401.009
401.003
34.2465
19.1763
78.4791
20.8038
34.5174
19.1912
78.5249
146.936
145.052
23.0553
146.019
144.168
88.6488
265.334
86.2349
265.003
398.689
400.592
268.431
90.1837
17.9447
18.0225
17.9232
35.9074
80.815
19.3009
20.8974
36.0956
77.6816
19.3388
401.233
35.5939
19.1538
78.4476
34.6241
19.2725
146.773
144.728
22.9978
145.946
145.361
22.2578
43.2152
43.2774
1155.37
186.863
1155.44
187.093
22.1815
257.42
257.523
44.7894
44.9294
22.4112
22.2121
26.7178
22.1998
22.4122
22.2124
26.7459
22.1999
24.3378
1827.81
94.6297
66.819
24.3937
1830.22
94.9339
67.0386
22.4721
22.1334
188.663
21.783
28.4183
22.1051
24.3312
22.4391
22.1339
189.753
21.7761
28.5065
22.1037
24.3533
22.2583
43.5821
43.3371
1156.58
187.278
22.1839
257.707
257.327
44.5393
45.0615
1155.55
187.223
22.4104
22.2116
26.6903
22.1993
22.4112
22.2114
22.2012
26.7696
24.3927
1827.68
94.9372
66.9853
22.4403
22.1327
188.922
21.7885
28.6415
22.1058
24.3228
24.378
1827.65
94.1877
67.0371
22.4423
22.1328
21.7864
188.7
22.1066
28.4455
24.3282
22.1828
22.1995
22.1958
22.1941
22.1847
22.1993
22.1931
22.1951
22.1852
22.1994
22.1933
22.1974
22.0603
22.088
21.73
21.7304
22.0763
22.0773
21.7057
22.0622
22.0851
21.7223
21.7291
22.0755
22.077
21.709
22.0585
22.0863
21.7256
21.7301
22.0761
22.0757
21.6983
22.0591
22.0864
21.7256
21.7226
22.0772
22.0761
21.6996
22.411
22.2123
22.2008
26.7304
22.4746
22.1319
188.113
21.791
28.5683
22.1047
24.316
24.3109
1827.92
94.1192
66.9636
22.4392
22.134
21.7879
188.597
22.1066
28.5106
24.3255
24.439
1827.48
94.7318
67.065
22.258
43.7819
43.4222
1155.8
187.121
22.1854
257.733
257.546
44.8678
45.0441
1155.68
187.553
22.4115
22.212
22.2028
26.7527
22.475
22.133
21.7869
188.526
22.1051
28.4589
24.3608
22.4401
22.1332
21.7748
188.68
22.1031
28.5649
24.36
24.3138
1828.04
94.6724
67.0069
24.433
1827.55
95.106
67.2292
22.1835
256.966
257.107
44.6997
44.8121
1155.96
187.071
1156.25
187.003
555.997
593.332
556.007
593.329
199.648
199.726
21.6145
206.649
206.533
464.785
566.438
466.363
566.432
21.6355
197.487
199.775
208.485
208.384
84.8865
766.895
64.0252
477.073
28.7427
111.722
21.4813
21.5873
25.1888
115.959
21.2126
28.9846
112.282
21.4941
21.587
25.1673
116.411
21.2001
95.1341
356.628
444.808
107.226
93.5402
357.063
444.075
107.269
30.7795
21.5332
120.282
20.7325
121.633
20.9619
35.5417
30.5452
21.5306
119.748
20.7104
120.963
20.9748
35.5987
199.712
199.588
21.6133
206.555
206.191
556.125
593.422
464.748
566.763
21.6343
195.636
198.733
208.008
208.004
466.143
566.4
28.6797
112.073
21.4742
21.5838
25.2093
116.056
21.2261
84.5625
766.167
64.0646
477.057
28.7891
21.4793
112.128
21.5832
25.2204
21.2219
116.089
94.8563
358.953
444.788
112.117
30.971
21.4487
124.784
20.7607
121.635
20.9489
36.3092
94.6064
359.575
443.876
112.07
30.7838
21.4639
20.7699
124.703
20.9533
120.932
36.8822
84.6095
765.712
64.0888
477.069
28.9739
21.4739
112.122
21.5909
25.2087
21.2276
115.94
84.693
766.065
64.116
476.939
30.8769
21.4887
124.471
20.7616
121.799
20.948
36.1076
93.652
359.42
443.925
111.054
30.5899
21.4559
20.7638
124.815
20.951
121.77
37.099
93.8623
359.425
443.876
111.349
199.747
199.749
21.6207
206.668
206.536
556.323
593.6
466.473
566.805
21.6447
199.14
197.556
208.417
208.478
464.761
566.504
28.984
21.4933
112.233
21.5867
25.2169
21.199
116.7
84.3554
765.809
64.0442
477.138
85.2079
766.111
64.3114
477.103
30.7883
21.535
20.7304
120.529
20.964
121.864
35.1224
30.5279
21.5307
20.7129
120.857
20.9729
120.867
35.6205
94.6001
357.02
444.022
105.793
92.5553
356.965
443.881
106.662
556.09
593.227
556.165
593.358
21.6758
198.977
197.881
208.329
208.69
465.992
566.374
464.714
566.442
448.893
415.171
450.501
416.511
190.117
190.704
23.1915
161.944
164.161
406.148
413.907
408.953
415.68
23.5715
147.917
156.198
158.587
163.534
100.515
339.525
105.355
293.605
39.3075
115.31
20.5518
21.7944
35.9402
97.5019
20.4464
38.3552
115.242
20.5683
21.7163
36.6765
95.8185
20.4155
94.0543
268.543
276.237
93.1341
97.1915
273.562
279.012
93.3621
38.0933
21.6907
82.7657
20.1621
90.4453
20.2948
37.7662
38.9791
21.6614
83.4132
20.1274
94.4378
20.2926
37.6982
187.403
190.839
23.0295
162.918
164.953
450.655
416.9
405.723
413.707
23.1647
150.337
155.419
153.898
154.03
407.069
412.935
40.9563
120.005
20.639
22.0759
38.1155
101.649
20.5281
98.6307
342.132
109.591
295.906
40.2477
20.6446
120.406
22.027
38.5393
20.5655
101.664
98.8636
276.398
280.599
95.4112
40.2973
21.8968
88.2409
20.2671
96.8347
20.408
38.4796
99.2895
277.1
284.328
94.03
40.7441
21.9437
20.2836
86.3338
20.4193
93.8489
39.4885
102.695
341.754
111.008
294.724
41.6904
20.6583
119.188
22.097
38.0861
20.5437
99.9795
100.413
341.939
109.819
296.283
39.4557
22.0392
88.0336
20.2945
95.1576
20.4158
40.1348
95.9767
276.58
290.588
97.4938
40.8932
21.9647
20.2903
89.0879
20.4401
98.0281
39.6637
100.538
275.198
280.844
96.7989
190.386
190.263
23.1021
166.073
162.319
449.22
415.684
407.448
411.021
23.1366
155.901
154.579
155.979
156.767
406.82
407.433
38.9124
20.5539
116.793
21.859
36.0635
20.4132
98.6984
101.795
339.093
105.977
292.319
97.9477
339.463
103.427
290.697
38.0563
21.8458
20.1379
87.7095
20.2835
91.021
38.1177
38.3098
21.7374
20.1454
87.5574
20.2844
91.8085
38.1759
94.477
271.487
283.103
94.0296
95.0255
273.185
286.948
93.9118
450.778
415.265
449.101
417.087
23.3544
156.065
149.824
161.941
153.892
408.085
416.833
405.952
408.144
398.622
402.233
400.959
404.079
150.354
153.262
23.5962
149.165
151.163
401.42
398.343
403.669
397.243
23.3276
146.397
148.83
143.201
148.401
90.6124
265.612
90.9371
269.695
37.4682
84.4958
20.0364
21.3368
36.9836
82.373
19.9224
36.3504
83.0983
20.0128
21.3036
37.806
83.7998
19.8869
89.1197
264.711
264.464
86.6319
85.3319
266.056
261.834
88.6831
36.4217
21.2118
80.9638
19.7075
78.6121
19.8019
35.8903
36.597
21.3679
80.7912
19.6852
80.784
19.7848
35.9305
149.097
151.331
23.6302
147.737
150.982
404.558
401.118
401.519
394.822
23.2862
145.379
147.764
144.277
146.093
402.252
402.948
37.896
82.8763
20.1369
21.4447
38.673
85.1022
20.0035
92.4529
273.222
90.9635
270.368
37.4789
20.1583
86.4264
21.5798
37.6068
20.0139
85.3707
90.4372
269.792
266.71
91.1842
37.2258
21.3431
83.1151
19.8003
82.7625
19.9004
37.2555
88.7014
270.471
262.887
90.7632
37.1934
21.4599
19.7931
82.0578
19.8979
80.5916
37.1658
93.7535
266.767
90.4476
268.95
38.9419
20.1778
83.4075
21.549
39.1119
20.0602
85.7345
94.029
266.998
94.3789
266.584
36.3917
21.4795
81.0267
19.8289
81.2247
19.9562
36.6196
91.5596
269.004
264.865
91.0407
37.5254
21.428
19.8871
82.8478
19.9743
83.8256
37.9941
90.18
268.706
269.821
92.9829
150.553
147.768
23.6272
148.616
146.181
397.64
400.199
402.555
402.06
23.4236
148.971
145.989
148.464
145.048
401.558
396.071
36.9889
20.0093
82.6375
21.3461
36.3911
19.884
84.0585
90.4157
265.982
87.1395
269.462
89.9777
271.66
86.9225
264.664
35.6687
21.3278
19.6371
78.9628
19.7238
82.022
36.1386
36.1815
21.2348
19.6816
81.5108
19.7535
80.172
35.9999
85.3511
266.429
264.215
88.0453
87.9751
267.127
266.821
87.8332
402.391
401.244
401.525
401.622
23.2608
148.378
143.325
143.449
141.911
402.516
403.61
401.82
397.292
394.099
400.065
399.829
402.066
138.145
139.869
23.1988
143.396
146.955
399.631
397.2
401.795
399.842
22.786
144.064
145.795
137.659
144.371
86.9483
259.601
86.1677
265.884
35.8234
78.9548
19.5954
21.1085
35.9111
80.2702
19.4745
35.5531
78.0854
19.5812
21.1542
34.5399
79.6593
19.4776
84.2543
260.322
259.184
84.8331
84.2446
264.891
259.046
86.0615
34.3613
20.9943
78.071
19.3312
74.5121
19.4089
34.652
34.1603
21.127
79.2178
19.3443
78.0513
19.429
35.1676
140.521
141.554
23.2324
143.952
147.755
396.769
402.602
400.172
397.547
23.0509
144
146.33
140.701
145.14
402.266
398.55
36.712
80.6705
19.7164
21.1123
36.4612
81.9594
19.6044
89.154
266.614
87.5621
268.086
36.4638
19.675
81.0237
21.2149
35.7585
19.573
81.0324
85.0531
266.382
260.269
88.628
36.1112
21.2005
80.9576
19.4795
79.6155
19.549
36.225
83.4702
267.531
259.433
86.9161
35.5854
21.325
19.4749
78.9004
19.5184
80.8468
35.8992
89.115
260.785
86.9561
267.751
37.3654
19.7988
83.1766
21.3527
37.0437
19.7017
83.4263
90.8115
268.131
90.0018
269.719
35.4546
21.151
81.2582
19.4791
77.326
19.5448
35.8621
85.5849
268.847
265.988
88.4792
36.419
21.3318
19.5827
82.5367
19.6488
79.0114
36.7222
86.1691
267.881
262.144
90.3288
141.056
143.177
23.2334
147.531
144.362
398.199
400.081
400.361
398.735
23.0629
145.824
143.565
144.039
139.417
400.025
394.503
35.1867
19.5921
76.8512
21.1156
34.4852
19.5087
78.3057
86.9672
263.176
85.8344
266.172
86.6038
262.803
85.1612
265.538
33.8632
21.0511
19.4119
77.6607
19.4386
76.6251
34.1563
34.2925
21.0809
19.3932
79.6555
19.4547
79.6151
34.7823
85.5087
266.562
259.561
86.0671
83.7375
265.074
261.247
85.9567
400.981
397.793
398.749
400.468
23.0081
145.617
144.59
139.201
140.13
400.857
401.038
398.284
394.509
395.94
399.519
397.54
401.229
141.017
143.874
22.98
142.323
145.728
399.104
391.154
401.703
394.042
22.7991
142.165
146.159
140.181
144.007
85.3067
256.344
82.6331
265.1
35.0534
73.6727
19.2707
20.8881
35.0534
77.7357
19.2332
34.9994
77.4703
19.2882
21.0362
34.2038
78.938
19.2603
81.489
261.859
256.675
85.8713
82.4998
265.548
261.323
85.3607
33.523
20.9299
77.0955
19.19
76.2503
19.2116
34.7912
33.9017
21.0304
79.1989
19.2068
76.0916
19.2405
34.738
137.764
141.957
23.1021
144.619
144.811
396.452
401.265
399.594
393.799
22.8264
144.825
144.473
138.099
141.505
400.371
396.863
36.099
79.7208
19.4328
21.168
35.5988
80.6854
19.4002
88.4135
261.374
85.0955
268.281
35.751
19.4187
80.09
21.0936
35.3149
19.4006
80.4784
86.5358
266.29
264.672
88.1714
34.7174
21.094
80.0634
19.3812
77.836
19.3865
36.028
87.064
267.735
263.601
88.1966
34.5008
21.2388
19.3843
79.6104
19.3925
78.2621
35.8606
88.2251
265.308
85.5581
268.148
36.3642
19.5138
80.4766
21.2079
35.2151
19.47
81.1135
88.8727
261.963
87.6308
266.914
34.6521
21.157
78.1061
19.3245
77.7654
19.3373
35.1437
85.9882
267.002
262.937
88.2049
35.6191
21.1982
19.4122
79.9776
19.4501
77.0617
35.9063
85.3888
266.958
262.996
88.5738
142.054
136.277
22.9793
145.791
144.032
395.953
399.3
399.805
394.267
22.5981
144.642
142.889
141.086
141.303
399.208
391.525
34.3156
19.3169
74.7514
20.9741
33.5993
19.2737
79.116
85.1617
260.672
83.4429
264.566
85.3291
261.767
83.8726
265.76
32.9212
20.9577
19.2875
78.0487
19.3086
74.8943
33.7566
32.8173
20.9741
19.2354
78.2555
19.2535
77.5595
34.1022
80.1305
263.828
259.223
84.5459
82.3939
265.255
263.548
84.0323
399.17
401.42
398.53
398.749
22.7724
145.131
143.127
144.097
140.466
400.546
399.649
398.232
397.376
392.258
398.137
395.4
400.958
139.718
143.37
22.8867
142.298
145.544
398.858
396.734
400.755
397.122
22.719
141.837
145.125
138.616
140.682
85.6398
256.193
83.5512
265.519
34.5141
76.1352
19.1777
20.7809
34.277
77.3901
19.1732
34.6868
77.2369
19.2073
21.0148
34.1099
79.6627
19.1964
84.2655
262.631
261.484
83.225
84.2496
266.12
257.179
85.4649
33.4144
20.7696
77.6899
19.1623
73.7675
19.1707
34.5591
33.5492
20.9501
80.1073
19.1858
78.1145
19.1973
34.5875
138.716
139.718
23.0965
145.448
144.415
394.287
400.505
399.85
396.218
22.9746
145.685
145.505
142.578
136.921
400.387
396.736
36.0852
78.1722
19.3756
21.1348
34.9007
80.2066
19.3667
87.8365
257.602
84.5978
267.663
35.9287
19.3881
75.616
21.1173
35.0535
19.3857
80.2109
84.5648
267.761
258.876
85.5657
34.5606
21.0134
79.585
19.3524
76.9664
19.3654
35.7335
84.7847
266.359
263.58
88.2352
35.2502
21.121
19.3656
79.5511
19.3882
75.5848
35.7704
88.1615
261.022
86.0319
267.372
35.8202
19.3836
77.1564
21.1172
35.0237
19.3618
79.9338
89.0055
263.265
83.3297
266.547
34.6551
21.0309
78.3684
19.2861
76.8984
19.2903
35.1197
84.629
266.841
262.581
88.8238
35.2706
21.1054
19.3335
80.1571
19.3512
78.1617
35.8796
84.4954
267.136
262.346
89.1793
141.029
140.558
22.8277
144.519
142.33
396.348
398.751
397.734
396.385
22.6084
144.364
142.235
142.086
139.159
398.537
395.799
34.0663
19.2134
74.166
20.8158
32.8724
19.1979
78.3516
84.4005
258.056
79.7703
264.328
83.8838
261.855
79.6679
264.418
33.4545
20.7519
19.2153
78.2074
19.2317
75.5962
33.8722
32.9215
20.9198
19.1671
77.6163
19.1899
75.1519
33.987
79.7612
264.183
259.594
84.4851
80.5405
263.663
257.795
84.0378
394.311
400.699
396.874
399.452
22.683
144.995
142.5
140.992
138.959
401.769
398.618
399.29
393.312
391.898
394.49
394.983
401.716
135.573
142.093
22.9328
142.849
146.299
398.884
398.223
400.982
399.484
22.6814
142.325
145.438
140.381
144.409
85.5389
258.697
82.9076
265.75
34.7743
76.467
19.1734
20.9026
34.2595
77.5677
19.1818
34.6182
77.2621
19.1976
20.9945
34.1041
79.513
19.1909
83.453
257.928
261.625
85.3027
81.2037
265.424
257.197
86.0043
34.1846
20.8714
77.4997
19.172
76.2359
19.1766
34.7758
33.3771
21.0071
78.6931
19.1814
76.6072
19.1899
34.7981
142.064
138.753
23.0799
144.352
146.097
394.389
401.468
397.02
392.611
22.8991
144.642
145.534
140.337
138.926
400.128
396.279
35.5921
75.4167
19.336
21.1006
35.2035
80.6799
19.3386
87.9177
258.152
84.6837
266.668
35.5945
19.3606
75.0776
21.0199
34.7715
19.3576
79.8848
85.781
263.404
264.496
87.7165
35.2516
21.0521
80.0428
19.3365
79.4113
19.3383
35.7993
85.0622
266.047
260.569
88.6648
34.4611
21.027
19.3483
79.8951
19.3547
75.5492
35.8515
88.046
258.787
85.4471
268.091
35.9606
19.3207
77.2326
20.9941
34.5396
19.3181
80.2566
88.8114
264.551
84.2307
267.327
34.6844
21.079
78.3258
19.2785
79.2338
19.2777
35.225
84.8366
267.087
265.211
87.7195
35.109
21.1138
19.3167
79.996
19.3206
76.901
35.7741
84.0593
266.917
263.7
88.9353
138.294
137.99
22.8207
145.603
141.927
395.778
397.749
400.719
395.126
22.7051
145.381
142.161
143.622
137.367
399.073
397.4
33.9874
19.1564
75.0604
20.8555
33.1125
19.1423
77.8806
84.007
256.18
81.094
264.36
83.8246
257.404
80.7848
264.076
33.6407
20.7802
19.1696
77.0298
19.1773
75.7932
34.1943
33.1761
20.8643
19.1183
77.9731
19.1379
75.6307
34.1546
81.2974
263.749
258.636
83.9708
80.0775
263.691
258.1
84.6702
395.864
400.767
396.543
399.219
22.8415
146.195
142.669
138.599
139.533
400.463
397.743
398.391
395.157
396.138
398.698
395.088
400.697
139.716
139.112
22.9013
142.293
145.897
398.259
394.863
401.123
397.937
22.6788
142.775
145.003
134.946
139.473
85.3344
257.702
83.9859
265.664
34.6096
76.5175
19.1892
20.7824
33.9759
77.6799
19.1853
34.5871
76.2628
19.1908
20.9386
33.6255
78.5004
19.1881
82.8852
259.868
255.985
85.0454
82.3833
265.304
256.637
84.8229
33.8074
20.8952
77.9012
19.1741
73.9202
19.1907
34.5696
34.1715
20.852
78.1835
19.17
76.592
19.1854
34.5663
142.249
142.943
22.9378
144.28
144.76
393.929
400.682
399.075
392.404
22.7514
143.049
144.643
139.711
140.224
399.175
397.193
36.0219
78.5478
19.333
20.9027
35.4029
80.1105
19.3361
89.7291
260.43
85.1862
267.08
36.2749
19.3432
77.0503
21.0272
35.3423
19.3392
80.3902
87.4419
267.488
258.894
87.2144
35.653
21.0816
78.4923
19.3371
76.6232
19.3333
36.0344
84.7504
266.121
260.166
89.1743
35.6631
21.0475
19.3383
79.8094
19.3477
77.878
36.0739
87.8939
261.981
84.5892
266.904
35.9798
19.3161
77.5185
20.9926
35.0461
19.3176
80.3275
88.9942
262.983
87.4613
267.473
34.5166
21.066
79.929
19.3025
76.2586
19.3005
35.7909
84.1155
266.74
259.435
89.5756
34.6382
21.0975
19.3195
80.554
19.3204
78.1313
36.1669
84.316
266.929
260.294
89.3956
141.039
137.513
22.8188
145.969
141.73
396.27
398.731
399.871
397.856
22.6447
146.043
142.303
142.702
137.931
398.256
395.551
34.1041
19.1068
75.647
20.7821
33.042
19.1114
78.3297
84.913
258.794
79.5131
263.846
84.6616
258.099
83.2751
264.522
33.6238
20.8157
19.1673
78.7374
19.1641
74.4638
34.062
33.2053
20.7862
19.1117
77.9863
19.1115
75.7125
34.2013
83.373
263.753
259.059
85.0089
82.8965
263.897
258.361
84.5218
398.489
400.982
394.864
398.578
22.8056
142.334
140.325
143.729
139.923
399.88
395.328
398.768
396.776
394.59
398.394
394.575
398.684
136.92
140.638
22.941
142.931
145.302
399.142
392.738
401.819
395.241
22.7769
142.567
145.67
140.057
141.757
84.5868
262.058
82.1373
264.646
34.3249
74.0125
19.1748
20.8538
33.5382
77.9956
19.1724
34.2745
74.2299
19.18
20.9026
33.5755
76.944
19.1775
83.6372
263.511
255.719
83.1537
82.5743
264.51
262.508
84.6581
33.6104
20.8517
77.4931
19.1585
76.1294
19.1704
34.3124
33.5111
20.8052
78.5861
19.168
78.1377
19.1786
34.2401
139.483
140.23
22.8523
143.297
145.195
395.292
401.568
397.875
395.708
22.7559
143.016
144.9
140.71
139.409
399.942
395.668
35.7013
79.9655
19.3249
21.1054
35.5698
80.5396
19.3251
88.9024
257.26
87.0637
267.087
35.9525
19.3295
76.2882
20.9281
35.727
19.3166
79.5817
84.6723
265.173
264.577
88.2861
34.774
21.094
80.5422
19.326
78.8069
19.3262
35.6692
86.387
266.67
259.213
89.0094
35.0101
20.9955
19.3121
80.1365
19.3172
77.6772
35.8211
88.3523
263.407
87.8303
267.124
35.93
19.321
78.6058
21.0892
34.6866
19.3167
80.5867
88.2189
261.432
87.0164
266.769
34.69
21.0418
80.5148
19.3248
76.4364
19.3251
35.6009
86.6819
266.412
258.249
87.7644
34.7782
21.0884
19.3151
80.8371
19.3202
76.4336
35.5683
84.5285
267.188
262.03
87.7016
143.455
138.977
22.7283
145.015
142.053
394.568
398.368
396.995
398.866
22.5078
144.922
142.692
142.892
139.886
398.545
392.26
34.2767
19.1547
73.8185
20.7366
33.3901
19.159
78.6209
85.7118
255.816
83.9142
263.49
84.6558
260.271
81.66
264.899
34.2504
20.8501
19.1737
77.7397
19.1726
74.3243
34.2238
33.6165
20.8889
19.1558
78.1954
19.1651
76.9304
34.4045
84.4164
264.804
262.131
85.2302
81.8513
263.708
259.007
85.0406
398.78
401.311
396.523
399.349
22.8531
143.215
143.772
141.079
137.89
399.34
394.249
398.265
396.543
394.354
397.71
398.833
399.009
138.339
143.781
22.95
142.41
145.855
398.834
397.534
401.419
395.083
22.7997
142.657
145.204
139.409
142.885
84.4239
256.465
80.4036
264.127
34.1842
73.8722
19.16
20.8578
33.6002
78.0853
19.1542
33.3251
77.2471
19.186
20.8327
33.7181
78.6986
19.176
81.244
260.371
256.485
85.6964
81.8167
265.43
262.115
84.4664
33.1468
20.8573
78.7092
19.1412
75.1221
19.1496
34.3705
33.7595
20.8207
78.8769
19.1688
74.8711
19.1788
34.4598
138.958
137.384
22.8746
143.431
146.069
393.492
399.435
396.482
393.134
22.6422
143.533
145
140.859
143.816
397.445
399.935
36.0507
79.1877
19.3337
21.0282
35.1398
80.7003
19.3455
88.7676
263.347
85.9097
266.361
36.2392
19.2998
78.6288
21.0284
35.6777
19.3163
79.5779
85.7734
262.712
264.191
87.9781
35.0957
21.108
80.7515
19.355
77.4472
19.3496
35.9788
85.5618
266.567
263.872
88.7155
35.5398
20.9236
19.3133
79.2315
19.3166
78.2994
36.0665
88.1251
262.315
85.787
266.461
35.3485
19.3072
76.5755
21.1203
34.3642
19.3078
80.8602
87.4533
263.178
84.0382
267.05
34.4611
21.0677
78.2788
19.3268
79.0853
19.3326
35.0647
84.7656
267.099
263.024
87.8962
34.4382
21.0615
19.306
80.5085
19.3061
76.2194
35.7065
84.7515
266.878
264.475
88.089
142.672
140.549
22.8185
145.249
142.393
392.763
398.744
400.984
398.058
22.6959
144.83
141.812
143.254
137.772
398.471
395.547
34.3438
19.1607
75.5113
20.7767
33.7723
19.1592
77.8643
85.0896
257.484
80.3703
264.978
84.9467
258.084
82.7218
263.724
33.8723
20.8421
19.182
78.0715
19.1969
75.532
33.8488
33.6104
20.8941
19.1396
78.5588
19.1584
74.5306
34.0611
83.0457
264.761
257.111
84.3907
80.2154
264.262
260.04
84.7841
398.878
399.013
392.718
398.964
22.7114
146.544
144.631
139.69
137.327
401.143
395.175
399.055
391.389
395.981
399.139
398.624
400.633
140.156
139.781
22.903
143.551
145.635
399.367
396.858
401.477
396.858
22.7172
142.614
144.744
138.629
140.356
84.7687
261.751
81.7113
265.16
34.4641
77.3599
19.1446
20.8552
33.8413
78.229
19.15
34.4305
77.5007
19.1798
20.8327
33.3354
78.8458
19.1721
83.1872
264.541
258.462
84.8881
80.2554
264.683
261.897
85.5456
33.4243
20.8835
77.3368
19.1456
74.8035
19.152
34.7892
33.31
20.9316
78.647
19.16
77.6513
19.1677
34.6616
141.31
142.671
22.9182
143.638
144.318
398.537
399.881
397.723
395.921
22.7298
143.968
145.188
141.605
137.649
399.798
398.361
36.1224
78.3706
19.3575
21.1266
35.2248
80.525
19.365
88.4849
259.212
85.0902
267.515
35.9425
19.3176
76.9323
21.0289
35.2125
19.3172
79.7699
85.164
267.009
264.015
89.8988
35.7149
21.0274
80.0137
19.3753
79.1161
19.3733
36.3522
86.2327
266.32
263.368
89.1256
35.2005
20.9952
19.3142
79.7297
19.3212
75.6194
36.1837
88.3997
263.382
84.8043
267.068
35.7187
19.3081
76.0192
21.1132
34.912
19.2968
80.7362
88.1501
258.26
85.5237
267.748
34.8543
21.013
78.2715
19.2982
76.9578
19.3041
36.0508
85.3162
266.926
263.926
88.6521
34.1955
21.1003
19.2663
79.6951
19.2966
79.0136
35.806
84.8827
266.599
264.47
88.0888
140.836
135.978
22.7882
145.395
142.267
395.637
398.476
397.705
398.658
22.5246
144.253
142.715
140.543
134.784
398.737
390.77
34.0508
19.1336
75.3337
20.9078
33.6111
19.1337
78.6549
84.4554
256.356
81.9811
264.286
84.287
255.809
83.1598
265.16
33.6187
20.7839
19.1816
78.0778
19.185
76.7564
33.7325
33.0363
20.8482
19.1304
78.3168
19.1343
75.1726
34.3282
82.7292
263.35
258.28
84.3708
80.4882
264.193
262.208
85.2112
399.021
400.985
392.777
396.085
22.7786
143.088
141.301
143.285
137.966
400.764
398.318
398.237
399.024
396.048
398.077
138.512
139.702
87.9631
258.868
84.7918
265.408
35.5538
76.8232
19.1385
20.8429
34.4962
79.9189
19.2824
35.7142
77.9206
19.1678
20.9266
34.2965
80.8739
19.3146
139.618
141.962
22.9164
145.513
144.341
398.721
401.222
78.9252
19.3784
35.5446
260.783
85.1932
19.3041
75.378
35.943
88.1011
263.191
85.0339
266.942
35.7146
19.2794
78.5619
20.9589
35.2606
19.3017
79.8143
87.9009
264.087
84.5177
266.552
34.7024
19.176
83.8421
34.1997
20.9472
19.1785
77.0559
84.291
263.418
139.788
140.046
392.62
35.7523
19.1233
74.1461
20.9082
33.9819
19.286
78.8311
87.0635
254.284
82.1955
87.1915
256.485
84.106
265.902
395.753
398.992
394.203
400.406
22.7009
139.068
143.253
399.406
394.385
23.0869
124.432
182.282
23.0411
123.939
181.934
181.071
181.284
23.0461
124.321
181.631
23.0465
124.057
23.0685
123.58
23.0799
124.379
181.84
23.0601
124.5
23.0826
124.739
181.916
181.784
22.195
22.1937
22.1965
22.1974
22.1973
22.1944
22.1952
22.1968
22.1958
22.1931
22.1945
22.1924
22.5889
22.3324
22.3277
22.2865
22.2019
22.2592
22.5482
22.3425
22.3473
22.2692
22.202
22.2677
22.3327
22.5891
22.3278
22.2
22.2866
22.2576
22.2705
22.2007
22.2666
22.5864
22.35
22.3459
9467.64
9468.05
31.5043
22.3548
22.3533
22.8121
6250.78
22.3766
24.0775
6251.34
22.38
24.0741
524.172
79.3093
404.219
145.324
394.827
141.66
516.869
683.371
497.206
535.375
1338.15
357.722
521.113
69.2666
354.055
144.385
690.613
363.059
130.81
727.643
318.448
512.916
336.693
709.955
559.46
595.27
524.534
79.4603
145.387
404.169
141.847
394.94
517.142
683.655
496.63
535.142
1338.44
357.485
521.856
69.3821
144.64
354.124
690.8
131.636
363.028
727.744
318.244
512.992
336.996
710.1
559.23
595.201
209.035
498.687
497.981
466.598
465.927
216.668
63.6069
34.7374
339.011
195.685
57.8171
38.0305
338.906
64.0891
34.8013
339.651
195.84
58.558
37.8974
340.057
197.038
374.378
375.149
195.345
440.52
440.294
75.9972
351.021
205.068
45.1834
42.9399
347.708
80.9615
75.9118
352.267
205.261
45.4334
42.6407
348.744
81.653
343.022
102.848
297.099
117.224
312.163
126.085
331.642
464.833
238.349
318.38
482.072
217.57
359.195
102.609
335.48
141.249
377.647
322.552
135.175
451.078
186.038
305.599
202.77
439.763
434.154
424.513
346.628
104.274
123.872
308.265
133.567
314.636
339.239
467.386
241.868
321.248
484.185
221.659
361.778
109.701
147.938
337.681
380.4
142.594
326.535
454.636
192.826
309.47
207.883
442.886
436.279
427
220.232
421.394
421.49
427.692
427.646
212.569
109.889
61.8618
316.394
180.112
109.907
62.4648
306.327
109.879
61.478
316.223
180.428
109.732
61.2139
306.68
221.748
442.553
442.401
228.845
435.47
434.871
109.584
294.097
176.445
61.6303
63.1818
298.051
109.291
105.52
293.224
172.762
61.2025