/*--------------------------------*- C++ -*----------------------------------*\
| =========                 |                                                 |
| \\      /  F ield         | OpenFOAM: The Open Source CFD Toolbox           |
|  \\    /   O peration     | Version:  2206                                  |
|   \\  /    A nd           | Website:  www.openfoam.com                      |
|    \\/     M anipulation  |                                                 |
\*---------------------------------------------------------------------------*/
FoamFile
{
    version     2.0;
    format      ascii;
    arch        "LSB;label=32;scalar=64";
    class       volScalarField;
    location    "26";
    object      p;
}
// * * * * * * * * * * * * * * * * * * * * * * * * * * * * * * * * * * * * * //

dimensions      [0 2 -2 0 0 0 0];

internalField   nonuniform List<scalar> 
66616
(
-0.000454935
-0.000424843
-0.000424736
-0.000376027
-0.00109258
-0.00110963
-0.00110912
-0.00108394
-0.00145348
-0.00145755
-0.00145758
-0.00144074
-0.00174401
-0.00174412
-0.00174413
-0.00172494
-0.0020418
-0.00204373
-0.00204371
-0.00202523
-0.00232684
-0.00232808
-0.0023281
-0.0023111
-0.00259681
-0.00259709
-0.00259711
-0.00258058
-0.00286069
-0.00286069
-0.00286068
-0.00284423
-0.00312386
-0.0031238
-0.00312382
-0.00310736
-0.00338689
-0.00338682
-0.00338691
-0.00337048
-0.00364938
-0.00364922
-0.00364939
-0.00363299
-0.00391131
-0.003911
-0.00391138
-0.00389505
-0.000310586
-0.000324662
-0.000324642
-0.000310587
-0.000324618
-0.000324688
-0.000326685
-0.000326682
-0.000326692
-0.000326691
-0.000324646
-0.000324712
-0.000310603
-0.00032464
-0.000324613
-0.000310613
-0.000375993
-0.00101638
-0.000425093
-0.000425076
-0.00097566
-0.00097564
-0.00037599
-0.00101639
-0.000424818
-0.000425185
-0.000976255
-0.000976218
-0.00042521
-0.000976258
-0.000976223
-0.00037599
-0.00101642
-0.00042474
-0.000975764
-0.000975759
-0.00101644
-0.00108392
-0.00140473
-0.00110904
-0.00110901
-0.00138519
-0.00138518
-0.0010839
-0.00140469
-0.00110963
-0.00110962
-0.00138528
-0.00138531
-0.0011096
-0.00138523
-0.00138526
-0.00108394
-0.00140475
-0.00110908
-0.00138519
-0.00138519
-0.00140472
-0.00144078
-0.00168745
-0.00145755
-0.0014575
-0.00167025
-0.00167025
-0.00144071
-0.00168741
-0.00145757
-0.00145755
-0.00167024
-0.00167021
-0.00145748
-0.0016702
-0.00167022
-0.00144076
-0.00168742
-0.0014575
-0.00167025
-0.00167028
-0.00168743
-0.00172492
-0.0019876
-0.00174409
-0.00174405
-0.0019696
-0.00196966
-0.00172491
-0.00198764
-0.00174408
-0.00174403
-0.0019696
-0.00196963
-0.00174406
-0.00196964
-0.00196967
-0.00172489
-0.00198763
-0.00174408
-0.00196959
-0.00196964
-0.00198768
-0.00202514
-0.00227646
-0.00204368
-0.00204371
-0.00225888
-0.00225891
-0.00202516
-0.00227647
-0.00204367
-0.00204368
-0.00225889
-0.00225889
-0.00204367
-0.00225882
-0.00225884
-0.00202516
-0.00227646
-0.00204367
-0.00225884
-0.00225886
-0.00227644
-0.00231111
-0.00254762
-0.00232808
-0.00232806
-0.00253087
-0.00253087
-0.00231112
-0.00254756
-0.00232808
-0.00232804
-0.00253086
-0.00253083
-0.00232799
-0.00253078
-0.00253077
-0.0023111
-0.00254758
-0.002328
-0.0025308
-0.00253081
-0.00254752
-0.00258067
-0.00281142
-0.00259712
-0.00259708
-0.00279506
-0.00279508
-0.00258062
-0.00281142
-0.00259712
-0.00259704
-0.00279504
-0.00279503
-0.00259697
-0.00279502
-0.00279502
-0.00258064
-0.0028114
-0.00259701
-0.00279503
-0.00279504
-0.0028114
-0.00284425
-0.00307447
-0.00286067
-0.00286064
-0.00305817
-0.00305816
-0.00284426
-0.00307448
-0.00286063
-0.00286059
-0.00305816
-0.00305815
-0.00286059
-0.00305816
-0.00305817
-0.0028442
-0.00307446
-0.00286062
-0.00305814
-0.00305817
-0.00307447
-0.00310738
-0.00333764
-0.00312381
-0.00312375
-0.00332134
-0.00332133
-0.00310737
-0.00333763
-0.00312376
-0.00312372
-0.00332137
-0.00332137
-0.00312371
-0.00332134
-0.00332139
-0.00310733
-0.00333766
-0.00312376
-0.00332134
-0.00332139
-0.0033377
-0.00337046
-0.00360027
-0.00338686
-0.00338677
-0.00358403
-0.00358401
-0.00337041
-0.00360027
-0.0033868
-0.00338677
-0.00358407
-0.00358407
-0.00338678
-0.00358404
-0.00358407
-0.00337047
-0.00360033
-0.00338684
-0.00358403
-0.00358407
-0.00360028
-0.003633
-0.0038622
-0.00364934
-0.00364929
-0.00384611
-0.00384614
-0.00363297
-0.00386224
-0.00364923
-0.00364919
-0.00384619
-0.00384618
-0.00364915
-0.00384622
-0.00384625
-0.00363303
-0.00386222
-0.00364933
-0.00384608
-0.00384612
-0.00386226
-0.00389506
-0.00391138
-0.00391136
-0.00389506
-0.00391102
-0.00391096
-0.0039109
-0.00389503
-0.00391128
-0.000202963
-0.000156673
-0.000180423
-0.000180448
-7.16982e-05
-0.000136853
-6.05799e-05
-0.000163554
-7.16293e-05
-0.000136843
-0.000163538
-6.05051e-05
-0.000110287
-6.0201e-05
-6.01038e-05
-0.00068499
-0.000179852
-0.000281831
-0.000711895
-0.000257927
-0.000704308
-0.000685334
-0.000179877
-0.000281859
-0.000712147
-0.000454949
-0.000454963
-0.000454981
-0.000959592
-0.000959603
-0.000959636
-0.000959634
-0.000674035
-0.000281523
-0.000433714
-0.000619067
-0.000330059
-0.00068764
-0.000620511
-0.000257939
-0.000704472
-0.000673809
-0.000433497
-0.000281471
-0.000619132
-0.000330024
-0.000620591
-0.000687476
-0.000329459
-0.000329289
-0.000667753
-0.000688527
-0.000688444
-0.00126416
-0.00113752
-0.00112395
-0.00127111
-0.00113843
-0.00127292
-0.00126477
-0.00113767
-0.00112486
-0.00127106
-0.00109252
-0.00109256
-0.00109253
-0.00137799
-0.00137799
-0.00137804
-0.00137801
-0.00125211
-0.00111761
-0.00110196
-0.00121666
-0.0011049
-0.0012592
-0.00121039
-0.00113861
-0.00127292
-0.00125141
-0.00110063
-0.00111704
-0.0012163
-0.00110351
-0.00120937
-0.0012589
-0.00112494
-0.00112483
-0.00124317
-0.0012654
-0.00126539
-0.00154507
-0.00144856
-0.0014468
-0.00154557
-0.00144952
-0.00154594
-0.00154513
-0.00144837
-0.00144649
-0.00154553
-0.00145338
-0.00145343
-0.00145337
-0.00167034
-0.00167038
-0.0016704
-0.00167039
-0.00154365
-0.00144659
-0.0014556
-0.00152747
-0.0014449
-0.00154422
-0.00152654
-0.0014493
-0.00154593
-0.00154363
-0.00145543
-0.00144689
-0.00152755
-0.00144519
-0.00152649
-0.00154429
-0.00144773
-0.001448
-0.00154461
-0.00154574
-0.00154575
-0.0018362
-0.00172555
-0.00172566
-0.00183643
-0.0017257
-0.00183654
-0.00183645
-0.00172555
-0.00172553
-0.00183655
-0.00174396
-0.00174396
-0.00174394
-0.00196793
-0.00196799
-0.00196797
-0.00196797
-0.00183539
-0.00172688
-0.00174405
-0.0018192
-0.00172697
-0.00183579
-0.00181896
-0.0017257
-0.00183667
-0.00183512
-0.00174405
-0.00172694
-0.00181919
-0.00172714
-0.00181894
-0.00183558
-0.00172592
-0.00172598
-0.00183694
-0.0018365
-0.00183638
-0.00213307
-0.00202537
-0.00202519
-0.00213327
-0.0020254
-0.00213336
-0.00213335
-0.00202535
-0.00202512
-0.0021334
-0.00204178
-0.00204177
-0.00204174
-0.00225732
-0.0022573
-0.00225731
-0.0022573
-0.00213225
-0.00202631
-0.00204307
-0.00211666
-0.00202622
-0.00213259
-0.00211595
-0.00202544
-0.00213348
-0.00213195
-0.00204302
-0.00202634
-0.00211663
-0.00202628
-0.0021159
-0.00213243
-0.00202538
-0.0020254
-0.00213464
-0.00213327
-0.00213313
-0.00241233
-0.00231144
-0.0023114
-0.00241243
-0.0023114
-0.00241237
-0.00241259
-0.00231142
-0.00231128
-0.00241256
-0.00232675
-0.00232675
-0.0023267
-0.00253032
-0.00253032
-0.00253033
-0.0025303
-0.00241146
-0.0023122
-0.00232755
-0.00239638
-0.00231223
-0.00241168
-0.00239592
-0.00231146
-0.00241255
-0.00241126
-0.00232754
-0.00231233
-0.00239639
-0.00231242
-0.00239594
-0.0024116
-0.00231139
-0.00231145
-0.00241356
-0.00241232
-0.00241223
-0.00267873
-0.00258123
-0.0025813
-0.00267876
-0.00258117
-0.00267878
-0.00267889
-0.00258118
-0.00258116
-0.00267882
-0.0025967
-0.00259671
-0.00259664
-0.00279497
-0.00279501
-0.00279499
-0.00279499
-0.00267788
-0.00258193
-0.00259688
-0.00266319
-0.00258205
-0.00267806
-0.00266302
-0.00258117
-0.00267882
-0.00267773
-0.0025969
-0.0025821
-0.00266321
-0.00258229
-0.00266305
-0.00267793
-0.00258114
-0.00258118
-0.00267973
-0.00267865
-0.00267858
-0.00294203
-0.00284494
-0.00284506
-0.00294204
-0.00284496
-0.0029421
-0.00294215
-0.00284485
-0.00284483
-0.00294208
-0.00286061
-0.00286059
-0.00286056
-0.00305813
-0.00305819
-0.00305818
-0.00305819
-0.00294119
-0.00284572
-0.00286063
-0.00292649
-0.00284583
-0.00294135
-0.00292643
-0.00284485
-0.00294206
-0.00294099
-0.00286062
-0.00284579
-0.00292647
-0.00284602
-0.00292642
-0.00294116
-0.00284489
-0.00284497
-0.00294284
-0.002942
-0.0029419
-0.00320525
-0.00310817
-0.00310827
-0.00320529
-0.00310823
-0.00320533
-0.00320543
-0.00310806
-0.00310803
-0.00320535
-0.00312377
-0.00312377
-0.00312374
-0.00332129
-0.00332133
-0.00332135
-0.00332136
-0.00320443
-0.00310894
-0.00312376
-0.00318968
-0.00310906
-0.00320455
-0.00318962
-0.00310807
-0.00320537
-0.00320425
-0.00312379
-0.00310903
-0.0031897
-0.00310924
-0.00318965
-0.00320445
-0.0031082
-0.00310827
-0.00320608
-0.00320531
-0.00320522
-0.00346819
-0.00337133
-0.00337139
-0.00346825
-0.00337131
-0.00346825
-0.00346839
-0.00337126
-0.00337119
-0.00346834
-0.00338681
-0.00338683
-0.0033868
-0.00358396
-0.003584
-0.00358401
-0.00358401
-0.00346736
-0.00337206
-0.00338678
-0.00345269
-0.00337219
-0.00346752
-0.0034526
-0.00337127
-0.00346836
-0.00346719
-0.00338684
-0.00337222
-0.00345267
-0.00337239
-0.0034526
-0.00346741
-0.00337136
-0.00337143
-0.00346904
-0.00346824
-0.00346815
-0.00373044
-0.0036339
-0.00363395
-0.00373047
-0.0036339
-0.0037305
-0.00373049
-0.00363387
-0.00363381
-0.00373045
-0.00364928
-0.0036493
-0.00364926
-0.00384605
-0.00384609
-0.00384606
-0.00384608
-0.00372953
-0.00363463
-0.00364919
-0.00371508
-0.00363476
-0.00372967
-0.00371502
-0.00363388
-0.0037305
-0.00372943
-0.0036493
-0.00363476
-0.003715
-0.00363495
-0.00371498
-0.00372962
-0.00363388
-0.00363397
-0.0037313
-0.00373039
-0.00373034
-0.00399228
-0.00389594
-0.0038961
-0.00399197
-0.0038959
-0.0039922
-0.00389575
-0.00389575
-0.00391121
-0.00391122
-0.00391115
-0.00399115
-0.00389662
-0.00391087
-0.00397707
-0.00389681
-0.00399129
-0.00397716
-0.00389573
-0.00399137
-0.00391129
-0.00389682
-0.00389708
-0.00397727
-0.00389585
-0.00389601
-0.00399306
-0.00399211
-0.00399211
-0.000110296
-5.99529e-05
-5.99843e-05
-0.000121381
-8.73158e-05
-0.000121516
-8.73425e-05
-0.000147289
-0.000209019
-0.000208825
-8.11625e-05
-8.12078e-05
-7.16864e-05
-0.000136618
-6.0514e-05
-0.000163564
-7.16772e-05
-0.000136618
-6.0586e-05
-0.000163545
-8.24371e-05
-3.53381e-05
-9.90624e-05
-0.000258493
-8.24237e-05
-3.53618e-05
-9.91833e-05
-0.00025848
-0.000111657
-0.000170073
-0.000195397
-0.000299015
-8.16199e-05
-0.00020093
-0.000270179
-0.000111657
-0.000170076
-0.000195289
-0.000299017
-8.17537e-05
-0.000200907
-0.000270159
-0.000110322
-6.01392e-05
-6.00346e-05
-0.000121582
-8.73092e-05
-0.000147305
-0.000209289
-0.000209067
-8.12213e-05
-8.12412e-05
-0.00012152
-8.7402e-05
-7.16909e-05
-0.000136869
-6.05373e-05
-0.000163569
-7.16881e-05
-0.000136604
-0.000163544
-6.05328e-05
-8.24126e-05
-3.54308e-05
-9.91048e-05
-0.000258613
-0.000111632
-0.000170471
-0.000195444
-0.000298999
-8.1638e-05
-0.00020092
-0.000270275
-8.23916e-05
-3.5555e-05
-9.91545e-05
-0.000258618
-0.000111627
-0.000170059
-0.000299002
-0.000195569
-0.000200894
-8.16928e-05
-0.000270284
-0.000202929
-0.000156683
-0.00018044
-0.000180461
-0.000202938
-0.000156673
-0.000180461
-0.000180455
-0.000202916
-0.000156704
-0.000180461
-0.000180464
-0.000246969
-0.000188523
-0.000348741
-0.000348691
-0.000218538
-0.000218521
-0.000370097
-0.000246977
-0.00018853
-0.000348752
-0.000348699
-0.000218529
-0.000218524
-0.000370099
-0.000246992
-0.000188515
-0.000348717
-0.000348776
-0.00021851
-0.000218574
-0.000370156
-0.000247014
-0.000188545
-0.000348711
-0.000348778
-0.000218526
-0.000218583
-0.000370154
-7.16974e-05
-0.000136632
-0.000163563
-6.06148e-05
-0.000111667
-0.000170464
-0.000195519
-0.000299015
-8.17104e-05
-0.000200919
-0.000270317
-8.24715e-05
-3.54776e-05
-9.91584e-05
-0.000258649
-0.000111683
-0.00017008
-0.000299019
-0.00019561
-0.000200899
-8.17767e-05
-0.000270314
-8.24596e-05
-3.55371e-05
-9.92127e-05
-0.000258644
-0.000110302
-6.0111e-05
-5.99635e-05
-0.000121683
-8.72414e-05
-0.000147283
-0.000209356
-0.000208976
-8.11909e-05
-8.11727e-05
-0.000121408
-8.72938e-05
-7.16223e-05
-0.000136852
-0.000163549
-6.0539e-05
-0.000111635
-0.000170461
-0.00029907
-0.000195385
-0.000200947
-8.16262e-05
-0.000270211
-0.00011164
-0.000170456
-0.000299076
-0.000195417
-0.000200938
-8.16897e-05
-0.0002702
-8.2404e-05
-3.52994e-05
-9.90631e-05
-0.000258505
-8.23899e-05
-3.52885e-05
-9.91116e-05
-0.00025849
-0.000147293
-0.000209508
-0.000209217
-8.12629e-05
-8.11705e-05
-0.00012165
-8.73326e-05
-0.000121581
-8.72478e-05
-0.000257871
-0.000704321
-0.000257941
-0.000704513
-0.000329261
-0.000329127
-0.000667726
-0.000688331
-0.000688489
-0.00107894
-0.000774538
-0.00107926
-0.00077467
-0.000766795
-0.00106272
-0.00106325
-0.000772669
-0.000772819
-0.000684975
-0.00017986
-0.000281828
-0.000711854
-0.000673807
-0.000281428
-0.000433518
-0.000618913
-0.00032997
-0.000687482
-0.000620522
-0.000673801
-0.000281428
-0.000433516
-0.000618895
-0.000329947
-0.000687485
-0.000620523
-0.000783136
-0.00107913
-0.000787583
-0.00106306
-0.00078315
-0.00107914
-0.000787603
-0.00106305
-0.000778254
-0.000809818
-0.00105187
-0.000967172
-0.000783464
-0.000804371
-0.00103524
-0.000778246
-0.000809812
-0.00105188
-0.000967176
-0.000783467
-0.000804383
-0.00103523
-0.000329327
-0.000329308
-0.000667727
-0.000688384
-0.000688478
-0.000257964
-0.000704523
-0.00107897
-0.00077454
-0.000766806
-0.00106276
-0.00106326
-0.000772698
-0.000772847
-0.00107927
-0.000774694
-0.000674044
-0.000281465
-0.000433687
-0.000619045
-0.000330006
-0.000687636
-0.000620495
-0.000685328
-0.000179893
-0.000281858
-0.000712105
-0.000674045
-0.000433696
-0.000281514
-0.000618903
-0.000329996
-0.000620429
-0.00068765
-0.00078331
-0.00107944
-0.000787729
-0.00106418
-0.000778542
-0.000810023
-0.00105288
-0.000968488
-0.00078362
-0.000804897
-0.00103685
-0.000783323
-0.00107949
-0.000787739
-0.00106417
-0.000778557
-0.000809966
-0.000968427
-0.00105296
-0.000804789
-0.000783634
-0.00103687
-0.000685341
-0.000179889
-0.000281896
-0.000712142
-0.000674053
-0.000433721
-0.000281535
-0.000618926
-0.000330034
-0.000620442
-0.000687694
-0.00068536
-0.000179917
-0.000281881
-0.000712166
-0.000778573
-0.000810033
-0.00105292
-0.00096846
-0.00078369
-0.00080488
-0.00103683
-0.000783362
-0.00107947
-0.000787781
-0.00106418
-0.000778576
-0.000809984
-0.000968418
-0.00105293
-0.000804789
-0.000783678
-0.00103686
-0.000783361
-0.00107948
-0.000787793
-0.00106418
-0.000329348
-0.000329256
-0.00066775
-0.000688489
-0.000688363
-0.000257909
-0.000704355
-0.00107929
-0.000774649
-0.000766809
-0.00106329
-0.00106277
-0.000772817
-0.000772754
-0.001079
-0.000774608
-0.000673804
-0.000433496
-0.000281476
-0.000619139
-0.000329992
-0.000620593
-0.000687506
-0.000685021
-0.000179874
-0.000281871
-0.00071191
-0.000685021
-0.000179876
-0.000281858
-0.000711926
-0.000778344
-0.000809941
-0.000967279
-0.0010519
-0.000804465
-0.000783565
-0.00103529
-0.000778347
-0.000809965
-0.000967297
-0.00105192
-0.000804493
-0.000783555
-0.00103529
-0.000783237
-0.00107917
-0.000787671
-0.00106313
-0.000783241
-0.00107919
-0.000787696
-0.00106312
-0.000257959
-0.000704547
-0.000257966
-0.000704386
-0.000766838
-0.00106324
-0.00106278
-0.000772848
-0.000772775
-0.00107926
-0.000774712
-0.00107902
-0.000774622
-0.00113842
-0.00127299
-0.0011386
-0.00127288
-0.00112478
-0.001125
-0.00124317
-0.00126539
-0.00126543
-0.0014155
-0.00131323
-0.00141529
-0.00131297
-0.00128794
-0.00141279
-0.00141273
-0.00130746
-0.00130734
-0.00126416
-0.00113753
-0.00112396
-0.00127105
-0.00125139
-0.001117
-0.00110049
-0.00121623
-0.00110336
-0.00125893
-0.00120928
-0.00125138
-0.001117
-0.00110048
-0.00121622
-0.00110336
-0.00125894
-0.00120927
-0.0013061
-0.00141425
-0.00131151
-0.00141155
-0.0013061
-0.00141426
-0.00131149
-0.00141154
-0.00129802
-0.00130625
-0.00140935
-0.00138167
-0.00130358
-0.0013011
-0.00140649
-0.00129803
-0.00130626
-0.00140933
-0.00138165
-0.00130365
-0.00130111
-0.00140646
-0.00112485
-0.00112493
-0.0012432
-0.00126528
-0.00126542
-0.00113857
-0.00127285
-0.00141545
-0.00131319
-0.00128794
-0.00141278
-0.00141259
-0.00130746
-0.00130725
-0.00141517
-0.00131296
-0.00125221
-0.00111762
-0.00110194
-0.00121664
-0.00110485
-0.00125929
-0.00121039
-0.00126475
-0.00113769
-0.00112489
-0.00127109
-0.00125221
-0.00110188
-0.00111766
-0.00121667
-0.00110485
-0.00121036
-0.00125931
-0.00130617
-0.00141411
-0.00131125
-0.00141161
-0.00129832
-0.00130647
-0.0014094
-0.00138208
-0.00130367
-0.00130182
-0.00140667
-0.00130618
-0.0014141
-0.00131134
-0.00141162
-0.00129836
-0.00130652
-0.00138207
-0.00140942
-0.00130182
-0.0013037
-0.00140664
-0.00126468
-0.00113766
-0.00112487
-0.00127098
-0.00125214
-0.00110188
-0.00111762
-0.00121662
-0.00110488
-0.00121035
-0.00125927
-0.00126468
-0.00113769
-0.00112488
-0.00127099
-0.00129831
-0.00130645
-0.00140927
-0.00138203
-0.00130362
-0.00130179
-0.00140649
-0.00130616
-0.00141396
-0.00131122
-0.00141143
-0.00129834
-0.00130648
-0.00138203
-0.00140929
-0.0013018
-0.00130364
-0.00140653
-0.00130616
-0.00141401
-0.00131119
-0.00141147
-0.00112502
-0.00112482
-0.00124322
-0.00126546
-0.00126537
-0.00113846
-0.00127299
-0.00141529
-0.00131304
-0.00128798
-0.00141272
-0.00141278
-0.00130734
-0.00130751
-0.00141548
-0.00131327
-0.00125139
-0.0011006
-0.00111705
-0.00121627
-0.00110347
-0.00120935
-0.00125893
-0.00126419
-0.00113755
-0.00112405
-0.00127108
-0.0012642
-0.00113756
-0.00112404
-0.0012711
-0.00129809
-0.00130627
-0.00138165
-0.00140937
-0.00130112
-0.00130366
-0.00140643
-0.00129807
-0.0013063
-0.00138166
-0.00140936
-0.00130115
-0.00130363
-0.00140644
-0.00130619
-0.00141423
-0.00131157
-0.00141152
-0.00130617
-0.00141424
-0.00131154
-0.00141153
-0.00113858
-0.00127285
-0.00113846
-0.001273
-0.00128796
-0.00141262
-0.00141273
-0.00130727
-0.00130746
-0.0014152
-0.00131294
-0.00141544
-0.00131327
-0.00144953
-0.00154604
-0.00144932
-0.00154599
-0.00144805
-0.00144787
-0.00154468
-0.00154582
-0.00154583
-0.00168722
-0.00158176
-0.0016873
-0.00158165
-0.00158001
-0.00168727
-0.00168734
-0.00158206
-0.00158197
-0.00154506
-0.00144859
-0.00144679
-0.00154545
-0.00154364
-0.00144686
-0.00145542
-0.00152754
-0.00144513
-0.00154433
-0.00152652
-0.00154362
-0.0014468
-0.00145538
-0.0015275
-0.00144511
-0.0015443
-0.0015265
-0.00158137
-0.00168696
-0.00158147
-0.00168695
-0.00158134
-0.00168693
-0.00158142
-0.00168699
-0.00158264
-0.00159802
-0.00168637
-0.00167024
-0.00158249
-0.00159774
-0.00168613
-0.00158262
-0.00159802
-0.00168634
-0.00167023
-0.00158248
-0.00159775
-0.00168612
-0.00144802
-0.00144772
-0.00154462
-0.00154576
-0.00154572
-0.0014492
-0.00154589
-0.00168719
-0.00158168
-0.00157998
-0.00168726
-0.00168731
-0.00158203
-0.0015819
-0.00168729
-0.0015816
-0.00154373
-0.00144668
-0.00145562
-0.00152754
-0.00144495
-0.00154438
-0.00152659
-0.00154516
-0.00144832
-0.0014465
-0.00154546
-0.00154375
-0.00145559
-0.00144667
-0.00152749
-0.00144492
-0.00152658
-0.00154435
-0.00158111
-0.00168706
-0.00158133
-0.00168713
-0.00158239
-0.00159799
-0.00168649
-0.0016702
-0.00158237
-0.00159773
-0.0016863
-0.00158112
-0.00168704
-0.00158133
-0.00168717
-0.00158239
-0.00159798
-0.00167023
-0.00168645
-0.00159776
-0.00158237
-0.00168629
-0.00154508
-0.00144821
-0.00144636
-0.00154539
-0.00154366
-0.00145555
-0.00144655
-0.00152744
-0.00144485
-0.00152654
-0.00154424
-0.00154507
-0.00144828
-0.00144638
-0.00154535
-0.00158235
-0.00159792
-0.00168643
-0.00167016
-0.00158234
-0.00159765
-0.00168624
-0.00158111
-0.00168704
-0.00158131
-0.00168712
-0.00158234
-0.00159798
-0.00167023
-0.00168644
-0.00159774
-0.00158233
-0.00168627
-0.00158109
-0.00168699
-0.00158123
-0.00168714
-0.00144782
-0.00144802
-0.00154465
-0.0015458
-0.00154578
-0.00144958
-0.001546
-0.00168727
-0.00158161
-0.00157998
-0.00168732
-0.00168724
-0.00158195
-0.00158208
-0.00168721
-0.00158175
-0.00154366
-0.00145537
-0.00144683
-0.00152751
-0.00144512
-0.00152647
-0.00154425
-0.00154507
-0.00144862
-0.00144679
-0.00154546
-0.00154506
-0.00144861
-0.00144678
-0.00154545
-0.00158265
-0.00159799
-0.00167018
-0.00168633
-0.00159766
-0.00158256
-0.00168609
-0.00158266
-0.00159806
-0.00167021
-0.00168635
-0.00159772
-0.00158248
-0.00168611
-0.00158138
-0.00168696
-0.00158147
-0.00168693
-0.00158137
-0.00168695
-0.00158144
-0.00168696
-0.00144921
-0.00154586
-0.00144952
-0.00154594
-0.00158
-0.00168727
-0.00168721
-0.00158188
-0.00158201
-0.00168722
-0.00158155
-0.00168718
-0.00158168
-0.00172572
-0.00183664
-0.00172574
-0.00183671
-0.00172602
-0.00172599
-0.00183697
-0.0018364
-0.00183649
-0.0019868
-0.00187594
-0.00198688
-0.00187593
-0.00187517
-0.00198655
-0.00198664
-0.00187599
-0.00187596
-0.00183618
-0.00172553
-0.00172565
-0.00183633
-0.00183514
-0.00172693
-0.00174403
-0.00181914
-0.00172706
-0.00183565
-0.00181893
-0.00183512
-0.00172692
-0.001744
-0.00181914
-0.00172703
-0.0018356
-0.00181894
-0.0018757
-0.00198667
-0.00187584
-0.00198638
-0.00187568
-0.00198664
-0.00187582
-0.00198638
-0.00187688
-0.00189451
-0.00198579
-0.00196905
-0.00187686
-0.00189416
-0.00198528
-0.00187688
-0.00189457
-0.00198579
-0.00196907
-0.0018769
-0.00189419
-0.00198526
-0.00172604
-0.00172592
-0.00183699
-0.0018363
-0.00183659
-0.0017257
-0.00183675
-0.00198678
-0.00187589
-0.00187521
-0.00198652
-0.00198662
-0.00187599
-0.00187598
-0.00198691
-0.00187598
-0.00183537
-0.00172687
-0.00174399
-0.00181915
-0.00172688
-0.0018358
-0.00181893
-0.00183645
-0.00172553
-0.00172554
-0.0018365
-0.00183539
-0.00174399
-0.00172682
-0.00181914
-0.00172686
-0.00181894
-0.00183577
-0.0018756
-0.00198679
-0.00187583
-0.00198664
-0.00187678
-0.00189453
-0.00198596
-0.00196907
-0.00187684
-0.00189418
-0.00198555
-0.00187561
-0.00198684
-0.00187581
-0.00198665
-0.00187679
-0.00189456
-0.00196908
-0.00198596
-0.0018942
-0.00187683
-0.00198554
-0.00183649
-0.00172551
-0.00172553
-0.00183657
-0.00183541
-0.00174403
-0.00172687
-0.00181915
-0.00172692
-0.00181896
-0.00183576
-0.00183649
-0.00172548
-0.00172554
-0.00183653
-0.00187687
-0.00189456
-0.00198598
-0.00196909
-0.00187692
-0.00189419
-0.00198557
-0.00187571
-0.00198681
-0.00187591
-0.00198667
-0.00187686
-0.0018946
-0.00196912
-0.00198599
-0.00189425
-0.00187689
-0.00198559
-0.00187568
-0.00198684
-0.00187588
-0.00198671
-0.00172597
-0.00172602
-0.00183695
-0.00183649
-0.00183636
-0.00172571
-0.00183658
-0.00198692
-0.00187589
-0.00187518
-0.00198664
-0.00198649
-0.00187594
-0.00187596
-0.00198677
-0.00187591
-0.00183512
-0.00174399
-0.00172692
-0.00181916
-0.00172706
-0.00181892
-0.00183561
-0.0018362
-0.00172555
-0.00172566
-0.00183635
-0.00183618
-0.00172555
-0.00172567
-0.00183637
-0.00187694
-0.00189454
-0.00196902
-0.00198575
-0.00189415
-0.00187692
-0.00198522
-0.00187691
-0.00189459
-0.00196905
-0.00198578
-0.00189418
-0.0018769
-0.00198527
-0.00187573
-0.00198663
-0.00187585
-0.00198634
-0.0018757
-0.00198667
-0.00187581
-0.00198637
-0.00172565
-0.00183671
-0.00172567
-0.00183658
-0.00187522
-0.00198664
-0.00198651
-0.00187597
-0.00187597
-0.00198692
-0.00187598
-0.00198676
-0.0018759
-0.0020254
-0.00213337
-0.0020254
-0.00213345
-0.00202539
-0.0020254
-0.00213467
-0.00213312
-0.0021332
-0.00227519
-0.00217086
-0.00227526
-0.00217083
-0.00217065
-0.00227501
-0.00227509
-0.00217089
-0.00217086
-0.00213307
-0.00202536
-0.00202518
-0.00213326
-0.00213198
-0.00202629
-0.00204299
-0.00211664
-0.00202618
-0.00213249
-0.00211593
-0.002132
-0.00202634
-0.00204298
-0.00211667
-0.00202616
-0.00213245
-0.00211592
-0.00217072
-0.00227513
-0.00217085
-0.00227497
-0.00217075
-0.00227511
-0.0021709
-0.00227496
-0.00217173
-0.00218833
-0.00227434
-0.00225828
-0.00217174
-0.00218771
-0.00227398
-0.00217176
-0.00218839
-0.00227429
-0.00225827
-0.00217178
-0.00218773
-0.00227396
-0.00202542
-0.00202538
-0.00213469
-0.00213309
-0.00213322
-0.00202542
-0.00213347
-0.00227516
-0.00217087
-0.00217068
-0.00227496
-0.00227507
-0.00217091
-0.00217089
-0.00227528
-0.00217089
-0.00213226
-0.00202629
-0.00204301
-0.00211665
-0.0020261
-0.00213261
-0.00211596
-0.00213337
-0.00202539
-0.00202512
-0.00213341
-0.00213229
-0.002043
-0.00202629
-0.00211664
-0.00202608
-0.00211596
-0.00213263
-0.00217064
-0.00227525
-0.00217084
-0.00227524
-0.00217163
-0.00218836
-0.00227448
-0.0022583
-0.00217165
-0.00218774
-0.0022742
-0.00217066
-0.00227532
-0.00217091
-0.00227524
-0.00217165
-0.00218837
-0.00225832
-0.00227447
-0.00218776
-0.00217171
-0.0022742
-0.00213334
-0.00202539
-0.00202517
-0.00213342
-0.00213227
-0.00204303
-0.00202632
-0.00211662
-0.00202615
-0.00211594
-0.00213263
-0.00213334
-0.00202541
-0.00202517
-0.00213345
-0.00217165
-0.0021883
-0.00227445
-0.00225824
-0.00217174
-0.00218767
-0.00227416
-0.00217068
-0.00227525
-0.00217093
-0.00227516
-0.00217163
-0.00218835
-0.00225826
-0.00227446
-0.00218773
-0.00217171
-0.00227418
-0.00217065
-0.00227527
-0.00217094
-0.00227519
-0.00202541
-0.00202536
-0.00213466
-0.00213324
-0.00213311
-0.00202536
-0.00213336
-0.00227533
-0.0021709
-0.00217066
-0.00227514
-0.00227503
-0.00217088
-0.00217093
-0.00227524
-0.0021709
-0.00213197
-0.00204297
-0.00202633
-0.00211663
-0.0020262
-0.00211589
-0.00213247
-0.00213306
-0.0020253
-0.00202518
-0.00213326
-0.00213307
-0.00202537
-0.0020252
-0.00213324
-0.00217175
-0.00218828
-0.00225821
-0.00227432
-0.00218763
-0.00217181
-0.00227396
-0.00217176
-0.00218837
-0.00225824
-0.00227429
-0.00218769
-0.00217178
-0.00227394
-0.00217076
-0.00227517
-0.00217095
-0.00227498
-0.00217076
-0.00227516
-0.00217089
-0.00227497
-0.00202543
-0.0021335
-0.00202537
-0.00213336
-0.00217068
-0.00227507
-0.00227496
-0.00217087
-0.00217088
-0.00227527
-0.00217089
-0.00227518
-0.00217085
-0.00231143
-0.00241247
-0.0023114
-0.00241256
-0.00231149
-0.00231145
-0.00241364
-0.00241227
-0.00241239
-0.0025465
-0.00244779
-0.00254656
-0.00244779
-0.00244725
-0.00254638
-0.00254647
-0.00244787
-0.00244784
-0.00241233
-0.00231143
-0.00231139
-0.00241234
-0.00241131
-0.00231234
-0.00232754
-0.00239641
-0.00231231
-0.0024116
-0.00239597
-0.0024113
-0.00231232
-0.0023275
-0.00239639
-0.0023123
-0.00241152
-0.00239595
-0.0024478
-0.00254646
-0.00244784
-0.0025464
-0.00244782
-0.00254644
-0.00244781
-0.00254639
-0.0024488
-0.00246393
-0.00254571
-0.00253063
-0.00244865
-0.00246364
-0.00254548
-0.00244881
-0.00246394
-0.00254567
-0.00253062
-0.00244867
-0.00246365
-0.00254546
-0.00231148
-0.00231136
-0.00241361
-0.00241212
-0.00241236
-0.0023114
-0.00241247
-0.00254646
-0.00244772
-0.00244718
-0.00254636
-0.00254631
-0.00244785
-0.00244776
-0.00254643
-0.00244771
-0.00241156
-0.00231228
-0.00232755
-0.00239639
-0.00231216
-0.00241177
-0.00239596
-0.00241258
-0.00231146
-0.00231129
-0.00241254
-0.00241157
-0.00232754
-0.00231223
-0.00239638
-0.00231216
-0.00239599
-0.00241174
-0.00244766
-0.00254657
-0.00244784
-0.00254662
-0.00244863
-0.00246392
-0.00254579
-0.00253061
-0.00244859
-0.00246362
-0.0025457
-0.00244768
-0.00254659
-0.00244784
-0.00254663
-0.00244865
-0.00246391
-0.00253062
-0.00254579
-0.00246366
-0.00244859
-0.00254569
-0.00241246
-0.0023114
-0.00231126
-0.00241243
-0.00241148
-0.00232749
-0.00231219
-0.00239631
-0.00231218
-0.0023959
-0.00241166
-0.00241246
-0.00231141
-0.00231128
-0.00241243
-0.0024486
-0.00246383
-0.00254568
-0.00253053
-0.00244852
-0.00246352
-0.00254558
-0.00244761
-0.00254644
-0.00244777
-0.0025465
-0.00244858
-0.00246386
-0.00253054
-0.0025457
-0.00246358
-0.00244852
-0.00254559
-0.0024476
-0.00254645
-0.00244773
-0.00254651
-0.00231147
-0.00231151
-0.00241364
-0.00241237
-0.0024123
-0.00231147
-0.00241248
-0.00254658
-0.00244779
-0.00244721
-0.00254645
-0.00254635
-0.00244785
-0.00244793
-0.00254649
-0.00244783
-0.00241128
-0.00232749
-0.00231232
-0.00239635
-0.00231235
-0.00239591
-0.00241157
-0.00241227
-0.00231149
-0.00231145
-0.00241242
-0.0024123
-0.00231146
-0.00231142
-0.00241235
-0.0024488
-0.00246384
-0.00253054
-0.00254566
-0.00246354
-0.00244871
-0.00254546
-0.00244878
-0.0024639
-0.00253055
-0.00254558
-0.00246359
-0.00244863
-0.00254545
-0.0024478
-0.00254644
-0.00244792
-0.00254637
-0.00244779
-0.00254639
-0.00244784
-0.00254638
-0.00231139
-0.00241247
-0.00231141
-0.00241242
-0.0024472
-0.00254632
-0.00254624
-0.00244776
-0.00244783
-0.00254642
-0.00244769
-0.00254639
-0.00244775
-0.0025812
-0.00267879
-0.00258116
-0.00267883
-0.00258132
-0.00258127
-0.00267983
-0.00267867
-0.00267873
-0.0028105
-0.00271333
-0.00281054
-0.00271326
-0.00271264
-0.0028104
-0.00281045
-0.00271348
-0.0027134
-0.00267873
-0.00258126
-0.0025813
-0.00267874
-0.00267777
-0.00258214
-0.00259691
-0.00266321
-0.00258227
-0.002678
-0.00266307
-0.00267778
-0.00258212
-0.00259688
-0.00266319
-0.00258224
-0.00267797
-0.00266307
-0.00271339
-0.00281046
-0.00271339
-0.00281046
-0.00271341
-0.00281051
-0.00271343
-0.00281046
-0.00271444
-0.00272913
-0.00280971
-0.00279502
-0.00271421
-0.00272909
-0.00280952
-0.00271444
-0.00272916
-0.00280969
-0.00279503
-0.00271427
-0.00272912
-0.00280953
-0.00258131
-0.00258114
-0.0026798
-0.00267864
-0.00267867
-0.00258104
-0.00267877
-0.00281054
-0.00271336
-0.00271263
-0.00281042
-0.00281046
-0.00271349
-0.00271338
-0.00281054
-0.00271324
-0.00267796
-0.00258202
-0.0025969
-0.00266321
-0.00258209
-0.00267812
-0.00266305
-0.00267891
-0.00258122
-0.00258118
-0.0026788
-0.00267797
-0.00259689
-0.002582
-0.00266316
-0.00258206
-0.00266307
-0.00267811
-0.00271318
-0.00281052
-0.0027133
-0.00281057
-0.00271421
-0.00272912
-0.00280977
-0.00279498
-0.00271414
-0.00272907
-0.00280966
-0.0027132
-0.00281052
-0.00271331
-0.00281057
-0.00271423
-0.00272914
-0.002795
-0.00280978
-0.0027291
-0.00271408
-0.00280965
-0.00267884
-0.00258105
-0.00258105
-0.00267873
-0.0026779
-0.00259682
-0.00258187
-0.00266311
-0.00258201
-0.00266301
-0.00267802
-0.00267883
-0.00258109
-0.00258105
-0.00267872
-0.00271421
-0.00272908
-0.00280976
-0.00279493
-0.00271412
-0.00272899
-0.00280965
-0.00271319
-0.00281054
-0.00271331
-0.00281059
-0.00271421
-0.00272909
-0.00279498