/*--------------------------------*- C++ -*----------------------------------*\
| =========                 |                                                 |
| \\      /  F ield         | OpenFOAM: The Open Source CFD Toolbox           |
|  \\    /   O peration     | Version:  2206                                  |
|   \\  /    A nd           | Website:  www.openfoam.com                      |
|    \\/     M anipulation  |                                                 |
\*---------------------------------------------------------------------------*/
FoamFile
{
    version     2.0;
    format      ascii;
    arch        "LSB;label=32;scalar=64";
    class       surfaceScalarField;
    location    "26";
    object      phi;
}
// * * * * * * * * * * * * * * * * * * * * * * * * * * * * * * * * * * * * * //

dimensions      [0 3 -1 0 0 0 0];

oriented        oriented;

internalField   nonuniform List<scalar> 
198849
(
-1.1789e-07
8.0752e-09
7.3471e-09
9.34608e-10
6.33714e-10
1.00899e-07
-2.40332e-08
1.30604e-09
-7.34852e-09
-4.3643e-09
1.02267e-07
1.49923e-09
1.18079e-09
5.69028e-10
2.38136e-09
1.53029e-09
2.89495e-09
1.01676e-09
-2.52468e-08
-2.80658e-08
-2.55865e-08
-2.40306e-08
1.306e-09
-7.34507e-09
-4.35458e-09
1.02243e-07
1.49887e-09
1.17999e-09
5.68958e-10
2.38035e-09
1.53045e-09
2.89497e-09
1.01607e-09
-2.80622e-08
-2.52439e-08
-2.55823e-08
-2.48238e-08
-6.21128e-10
-1.31706e-09
1.2072e-09
1.54768e-09
2.40071e-08
-6.4101e-10
-6.58141e-10
-1.02937e-07
3.42198e-10
3.30474e-10
1.03563e-07
-1.00882e-07
-2.14426e-10
6.56794e-10
3.17142e-10
1.01475e-07
-1.26717e-10
-1.07374e-10
-1.54059e-10
-2.72896e-10
-2.0781e-10
-2.19648e-10
-2.63818e-10
-1.01716e-07
-2.18076e-10
6.50298e-10
3.06783e-10
1.02314e-07
-1.36636e-10
-1.02156e-10
-1.44375e-10
-2.18038e-10
-2.35465e-10
-2.68504e-10
-2.3228e-10
-2.50375e-08
2.14611e-10
2.17698e-10
-1.76073e-10
-1.83914e-10
2.49652e-08
-2.10064e-10
-2.12491e-10
-1.04621e-07
1.07315e-10
1.03999e-10
1.04832e-07
-1.0238e-07
-1.04811e-10
2.12282e-10
1.17441e-10
1.02525e-07
-2.55856e-11
-2.10896e-11
-7.7395e-11
-1.1027e-10
-1.34704e-11
-1.85538e-11
-1.04208e-10
-1.03227e-07
-1.07877e-10
2.11431e-10
1.13197e-10
1.03375e-07
-3.57343e-11
-1.55832e-11
-6.50194e-11
-5.8168e-11
-4.23671e-11
-7.1527e-11
-7.59444e-11
-2.5281e-08
9.84176e-11
1.07802e-10
-2.8182e-11
-4.12616e-11
2.51442e-08
-2.48421e-10
-2.50118e-10
-1.0548e-07
1.24412e-10
1.22132e-10
1.05732e-07
-1.02952e-07
-1.06144e-10
2.49595e-10
1.29441e-10
1.03106e-07
-2.85219e-11
-2.37652e-11
-7.76437e-11
-1.24093e-10
-2.39082e-11
-2.62346e-11
-1.2294e-10
-1.03805e-07
-1.08851e-10
2.50633e-10
1.23871e-10
1.03961e-07
-3.77583e-11
-1.8127e-11
-6.88367e-11
-7.17322e-11
-5.34729e-11
-7.92992e-11
-9.28709e-11
-2.52904e-08
1.00119e-10
1.09157e-10
-2.9173e-11
-4.25265e-11
2.51528e-08
-2.19492e-10
-2.17868e-10
-1.06473e-07
1.15201e-10
1.14154e-10
1.06681e-07
-1.03473e-07
-8.74967e-11
2.1636e-10
1.17844e-10
1.03545e-07
-1.42191e-11
-3.70018e-12
-6.59224e-11
-1.07092e-10
-1.06229e-11
-1.10741e-11
-1.05341e-10
-1.04333e-07
-9.01584e-11
2.19787e-10
1.12549e-10
1.04405e-07
-2.36197e-11
1.47443e-12
-5.38505e-11
-5.50671e-11
-4.06538e-11
-6.45735e-11
-7.78593e-11
-2.52884e-08
8.04903e-11
9.02636e-11
-6.98269e-12
-2.14657e-11
2.51461e-08
-1.06877e-10
-1.03507e-10
-1.07113e-07
6.13257e-11
6.22263e-11
1.07199e-07
-1.03618e-07
-5.64452e-11
1.01876e-10
5.5726e-11
1.03614e-07
1.21873e-11
2.3468e-11
-3.92122e-11
-7.27248e-11
2.60671e-11
2.6982e-11
-7.41878e-11
-1.04479e-07
-5.99233e-11
1.06465e-10
5.34686e-11
1.04475e-07
1.88236e-12
2.79105e-11
-3.15353e-11
-2.06624e-11
-3.30411e-12
-2.60528e-11
-4.42586e-11
-2.52565e-08
4.77313e-11
6.01842e-11
2.40585e-11
9.46732e-12
2.5115e-08
-3.64043e-11
-3.32333e-11
-1.07336e-07
2.31983e-11
2.48069e-11
1.07358e-07
-1.03578e-07
-4.23322e-11
3.22095e-11
1.60998e-11
1.03566e-07
2.46333e-11
3.53942e-11
-3.18362e-11
-5.65434e-11
4.4203e-11
4.57271e-11
-5.59112e-11
-1.04432e-07
-4.61246e-11
3.58262e-11
1.60698e-11
1.04417e-07
1.39952e-11
3.92545e-11
-2.14433e-11
-3.9457e-12
1.55724e-11
-6.98455e-12
-2.81635e-11
-2.52351e-08
3.27403e-11
4.65933e-11
3.70899e-11
2.25831e-11
2.50961e-08
-1.08315e-11
-9.29083e-12
-1.07384e-07
7.50413e-12
8.37467e-12
1.07388e-07
-1.03538e-07
-3.8572e-11
7.89209e-12
2.36273e-12
1.03532e-07
2.79816e-11
3.86501e-11
-2.54889e-11
-5.21399e-11
4.89764e-11
5.05372e-11
-5.39431e-11
-1.04383e-07
-4.29506e-11
9.9582e-12
3.39769e-12
1.04377e-07
1.67235e-11
4.22105e-11
-1.89425e-11
8.40523e-13
2.00669e-11
-2.22413e-12
-2.34331e-11
-2.52274e-08
2.93536e-11
4.3554e-11
3.9996e-11
2.53051e-11
2.50892e-08
-3.2153e-12
-3.01212e-12
-1.07392e-07
2.34898e-12
1.99395e-12
1.07394e-07
-1.03522e-07
-3.80936e-11
2.00498e-12
-1.01671e-12
1.03521e-07
2.85312e-11
3.90989e-11
-2.84331e-11
-5.11149e-11
4.97601e-11
5.15513e-11
-5.07867e-11
-1.04366e-07
-4.25822e-11
2.3985e-12
3.93141e-13
1.04366e-07
1.71098e-11
4.26376e-11
-1.84508e-11
1.77482e-12
2.09777e-11
-1.36563e-12
-2.27265e-11
-2.52248e-08
2.88411e-11
4.32003e-11
4.02001e-11
2.56948e-11
2.50869e-08
-8.5839e-13
-1.587e-12
-1.07395e-07
1.10939e-12
-3.46914e-13
1.07396e-07
-1.03517e-07
-3.78094e-11
1.09105e-12
-1.9804e-12
1.03514e-07
2.87311e-11
3.92942e-11
-2.50745e-11
-5.0854e-11
5.01758e-11
5.19425e-11
-5.28489e-11
-1.04361e-07
-4.23275e-11
6.2609e-14
-6.05873e-14
1.04362e-07
1.73878e-11
4.27219e-11
-1.82252e-11
1.69881e-12
2.1353e-11
-8.4222e-13
-2.24419e-11
-2.52234e-08
2.84047e-11
4.29273e-11
4.04285e-11
2.58734e-11
2.50858e-08
-2.27466e-13
-2.41621e-12
-1.07396e-07
1.96834e-12
-1.17347e-12
1.07398e-07
-1.03513e-07
-3.75776e-11
1.77796e-12
-2.78156e-12
1.03511e-07
2.9054e-11
3.93813e-11
-2.82795e-11
-5.12324e-11
5.05319e-11
5.21233e-11
-5.10511e-11
-1.04357e-07
-4.20945e-11
-1.29805e-12
-7.40939e-13
1.04359e-07
1.76455e-11
4.2509e-11
-1.85442e-11
1.69102e-12
2.1968e-11
-5.86542e-13
-2.26844e-11
-2.52225e-08
2.79632e-11
4.27383e-11
4.06129e-11
2.60824e-11
2.50851e-08
1.10834e-12
-3.13657e-12
-1.07396e-07
-2.93697e-12
9.33353e-13
1.074e-07
-1.03511e-07
-3.71759e-11
-3.36915e-12
8.57743e-12
1.03503e-07
2.94111e-11
3.93926e-11
-2.87508e-11
-5.19061e-11
5.08239e-11
5.25153e-11
-5.16084e-11
-1.04348e-07
-4.20673e-11
-1.11192e-10
1.79366e-10
1.74215e-11
3.7547e-11
-1.86838e-11
2.73835e-12
2.26157e-11
1.32691e-14
-2.31171e-11
1.04284e-07
-2.5222e-08
2.74409e-11
4.23614e-11
4.05641e-11
2.62839e-11
2.50853e-08
-2.0262e-09
-2.06941e-09
2.48249e-08
-2.53481e-08
2.46785e-09
2.15092e-09
8.80335e-11
2.40008e-08
-2.88394e-08
2.7239e-09
4.66637e-13
2.02797e-09
8.72222e-11
2.40029e-08
-2.88405e-08
2.72257e-09
-8.37797e-14
-2.06896e-09
2.48254e-08
-2.5348e-08
2.44982e-09
2.16965e-09
1.78173e-10
2.40343e-08
-2.88868e-08
2.60476e-09
1.56627e-13
8.77741e-11
2.02748e-09
2.40011e-08
-2.88394e-08
9.08261e-13
2.72217e-09
-5.21542e-10
-5.81745e-10
-2.89463e-08
-2.8198e-08
-2.87296e-08
-2.87308e-08
-3.97713e-10
-1.17519e-09
6.11938e-10
-3.88016e-10
-1.19687e-09
6.3048e-10
-1.7787e-10
1.17889e-07
-5.26029e-10
-5.81172e-10
-2.8945e-08
-2.81982e-08
-2.87292e-08
-2.87301e-08
-3.9803e-10
-1.17509e-09
6.11049e-10
-3.8723e-10
-1.19618e-09
6.31264e-10
-1.78316e-10
1.17877e-07
-5.20238e-10
-5.73525e-10
-2.89451e-08
-2.81968e-08
-2.87289e-08
-2.87292e-08
-3.9828e-10
-1.17582e-09
6.10987e-10
-3.8818e-10
-1.1965e-09
6.30577e-10
-8.80154e-11
-1.78367e-10
1.17886e-07
-5.20751e-10
-5.79492e-10
-2.89459e-08
-2.81979e-08
-2.87295e-08
-2.87306e-08
-3.86073e-10
-1.17519e-09
6.124e-10
-3.99577e-10
-1.19703e-09
6.29801e-10
-2.88868e-08
2.60689e-09
-1.21496e-13
2.02364e-09
2.39997e-08
-2.88378e-08
3.59221e-13
2.72616e-09
-2.06811e-09
2.48234e-08
-2.53465e-08
2.44934e-09
2.16938e-09
-2.88846e-08
9.48898e-13
2.60653e-09
2.07174e-09
2.4034e-08
-2.88877e-08
4.53124e-13
2.60319e-09
-2.53464e-08
2.48007e-09
2.1379e-09
-6.22277e-10
-1.31601e-09
1.20272e-09
1.55229e-09
2.40082e-08
1.56907e-10
1.44328e-10
2.5027e-08
-2.48021e-08
-2.66608e-10
-2.59564e-10
-3.996e-09
1.03624e-07
9.40251e-10
1.26693e-09
7.27386e-10
2.37917e-09
1.53891e-09
2.89362e-09
1.01554e-09
-2.53351e-08
-2.80543e-08
-2.55462e-08
6.22079e-10
-8.07848e-09
-4.00284e-09
1.03647e-07
9.49442e-10
1.26813e-09
7.31707e-10
2.37869e-09
1.52942e-09
2.89225e-09
1.0104e-09
-2.5337e-08
-2.80576e-08
-2.55505e-08
1.02654e-07
6.74802e-11
-1.01698e-07
-2.8138e-10
-2.78796e-10
-1.89255e-10
-1.29376e-10
4.17407e-11
-1.76861e-10
-3.71903e-11
1.85504e-10
-1.56979e-10
1.02679e-07
6.84481e-11
-1.01723e-07
-2.82186e-10
-2.78651e-10
-1.90848e-10
-1.28395e-10
4.08933e-11
-1.76535e-10
-3.82794e-11
1.85798e-10
1.18961e-09
1.55786e-09
2.40061e-08
1.44029e-10
2.50274e-08
-2.48021e-08
-2.65129e-10
-2.61178e-10
-4.36651e-09
1.02275e-07
1.51968e-09
1.17044e-09
5.62735e-10
2.37976e-09
1.52082e-09
2.89324e-09
1.01095e-09
-2.52459e-08
-2.80675e-08
-2.55873e-08
6.21788e-10
-8.07422e-09
-3.99102e-09
1.03624e-07
9.48934e-10
1.26753e-09
7.30907e-10
2.37885e-09
1.52893e-09
2.8915e-09
1.0109e-09
-2.80551e-08
-2.53339e-08
-2.55478e-08
1.00892e-07
8.90786e-10
-1.00093e-07
4.09606e-10
-2.7034e-10
-2.01005e-10
-1.84586e-10
-3.16182e-10
-3.34709e-10
-3.04532e-10
-3.43734e-10
-1.64117e-10
1.01828e-07
8.84549e-10
-1.01027e-07
4.51235e-10
-2.73988e-10
-2.03949e-10
-1.94531e-10
-3.3436e-10
-3.34669e-10
-3.06078e-10
-3.24636e-10
-8.07453e-09
-3.99208e-09
1.03618e-07
9.39359e-10
1.2667e-09
7.27158e-10
2.37979e-09
1.53838e-09
1.01631e-09
2.8931e-09
-2.80543e-08
-2.53334e-08
-2.55455e-08
8.90833e-10
-1.00084e-07
4.0988e-10
-2.70664e-10
-2.00063e-10
-1.8425e-10
-3.16388e-10
-3.35542e-10
-3.43252e-10
-3.05238e-10
-1.63837e-10
1.01824e-07
8.8366e-10
-1.01023e-07
4.51193e-10
-2.739e-10
-2.02345e-10
-1.94171e-10
-3.3435e-10
-3.35157e-10
-3.07084e-10
-3.2459e-10
1.18988e-09
1.55702e-09
2.40043e-08
1.39248e-10
2.50332e-08
-2.48086e-08
-2.73424e-10
-2.54559e-10
-7.34655e-09
-4.365e-09
1.02271e-07
1.52052e-09
1.16995e-09
5.6273e-10
2.37915e-09
1.52111e-09
1.01047e-09
2.89349e-09
-2.8067e-08
-2.52465e-08
-2.55864e-08
1.29855e-10
-1.00752e-07
-3.8177e-10
-2.74428e-10
-1.87021e-10
-1.21956e-10
6.1988e-11
-1.78218e-10
1.63234e-10
-3.70148e-11
-1.39208e-10
1.01749e-07
1.29936e-10
-1.00784e-07
-3.82841e-10
-2.74231e-10
-1.88525e-10
-1.21345e-10
6.18693e-11
-1.77639e-10
-3.72836e-11
1.63477e-10
-2.48134e-08
-2.74319e-10
-2.52941e-10
2.20007e-10
2.14283e-10
-1.84188e-10
-1.762e-10
2.49532e-08
3.6169e-11
3.03017e-11
2.52705e-08
-2.51265e-08
-1.06843e-10
-1.03662e-10
3.37186e-10
1.03258e-07
-1.45778e-10
-1.17629e-10
-1.4474e-10
-1.9564e-10
-2.36977e-10
-2.9023e-10
-2.3183e-10
-2.19763e-10
6.40319e-10
3.36947e-10
1.03285e-07
-1.45353e-10
-1.17011e-10
-1.49391e-10
-1.95609e-10
-2.36479e-10
-2.90612e-10
-2.28953e-10
1.04181e-07
2.54376e-10
-1.03982e-07
1.51229e-10
-1.17146e-10
-6.97739e-11
-5.17492e-11
-1.18266e-10
-9.09619e-11
-6.74865e-11
-5.23979e-11
-3.54858e-11
1.04206e-07
2.55762e-10
-1.0401e-07
1.51402e-10
-1.17421e-10
-7.09396e-11
-4.81278e-11
-1.18646e-10
-9.08733e-11
-6.94883e-11
-5.20509e-11
-1.83588e-10
-1.76714e-10
2.49534e-08
2.99925e-11
2.52714e-08
-2.51267e-08
-1.05955e-10
-1.04226e-10
3.16693e-10
1.01486e-07
-1.27019e-10
-1.07698e-10
-1.58705e-10
-2.73865e-10
-2.06932e-10
-2.19273e-10
-2.61264e-10
-2.14625e-10
6.5414e-10
3.42982e-10
1.02426e-07
-1.34718e-10
-1.24871e-10
-1.59462e-10
-2.54656e-10
-2.08594e-10
-2.37522e-10
-2.60597e-10
1.02389e-07
2.60232e-10
-1.02197e-07
1.43132e-10
-1.17349e-10
-8.53936e-11
-3.64546e-11
-4.31426e-11
-1.19827e-10
-3.66102e-11
-1.27032e-10
-4.32387e-11
1.0334e-07
2.57971e-10
-1.03143e-07
1.53905e-10
-1.12596e-10
-8.35857e-11
-4.1191e-11
-6.24499e-11
-1.1914e-10
-3.84716e-11
-1.08556e-10
6.53275e-10
3.4313e-10
1.02422e-07
-1.34608e-10
-1.24743e-10
-1.58033e-10
-2.5473e-10
-2.09245e-10
-2.61324e-10
-2.37468e-10
2.60307e-10
-1.02185e-07
1.42599e-10
-1.17909e-10
-8.46323e-11
-3.93874e-11
-4.36133e-11
-1.20068e-10
-1.27111e-10
-3.50532e-11
-4.35229e-11
1.03335e-07
2.58836e-10
-1.03139e-07
1.54049e-10
-1.12535e-10
-8.27586e-11
-4.11027e-11
-6.23634e-11
-1.20014e-10
-3.84241e-11
-1.08692e-10
-1.75464e-10
-1.84116e-10
2.496e-08
2.44318e-11
2.5276e-08
-2.51332e-08
-1.12709e-10
-9.77963e-11
6.50617e-10
3.05971e-10
1.02347e-07
-1.36449e-10
-1.01923e-10
-1.4545e-10
-2.18132e-10
-2.34994e-10
-2.31455e-10
-2.68668e-10
2.59817e-10
-1.03032e-07
1.37734e-10
-1.20932e-10
-7.20702e-11
-4.60139e-11
-9.61628e-11
-9.17604e-11
-7.47358e-11
-6.60358e-11
-2.47332e-11
1.03261e-07
2.59215e-10
-1.03065e-07
1.37814e-10
-1.20951e-10
-7.33134e-11
-4.66094e-11
-9.59001e-11
-9.15125e-11
-6.56667e-11
-7.48732e-11
-2.51382e-08
-1.13816e-10
-9.71684e-11
1.03555e-10
1.04334e-10
-3.69812e-11
-3.3144e-11
2.51327e-08
2.81028e-11
2.30416e-11
2.52796e-08
-2.51373e-08
-9.84348e-11
-9.49254e-11
1.24532e-10
1.04328e-07
-4.11812e-11
-2.65167e-11
-6.2432e-11
-3.53949e-11
-4.40953e-11
-9.39363e-11
-7.48785e-11
-1.03773e-10
2.08841e-10
1.24911e-10
1.04355e-07
-4.11045e-11
-2.60667e-11
-6.35902e-11
-3.54422e-11
-4.36884e-11
-9.42668e-11
-7.45721e-11
1.04765e-07
2.29285e-10
-1.04609e-07
1.27084e-10
-1.02804e-10
-6.58094e-11
-4.22686e-11
-9.51143e-11
-8.62871e-11
-4.73265e-11
-4.45305e-11
-2.79662e-11
1.04792e-07
2.30145e-10
-1.04636e-07
1.27835e-10
-1.03313e-10
-6.69535e-11
-4.21318e-11
-9.55387e-11
-8.60388e-11
-4.78212e-11
-4.39628e-11
-3.73138e-11
-3.31165e-11
2.51332e-08
2.27545e-11
2.52802e-08
-2.51374e-08
-9.79516e-11
-9.55985e-11
1.17928e-10
1.02536e-07
-2.58986e-11
-2.16246e-11
-7.83024e-11
-1.10514e-10
-1.36182e-11
-1.85967e-11
-1.04074e-10
-9.82998e-11
2.10804e-10
1.26857e-10
1.03486e-07
-3.00756e-11
-3.35801e-11
-7.59792e-11
-9.14556e-11
-1.45547e-11
-3.72656e-11
-1.0289e-10
1.02961e-07
2.3127e-10
-1.02809e-07
1.20025e-10
-1.03715e-10
-8.0686e-11
-2.57495e-11
-1.97558e-11
-1.14637e-10
-1.68277e-11
-1.19091e-10
-3.52134e-11
1.03919e-07
2.3059e-10
-1.03765e-07
1.30198e-10
-9.80779e-11
-7.96321e-11
-3.14143e-11
-3.85142e-11
-1.13682e-10
-1.81849e-11
-1.00607e-10
2.10558e-10
1.27041e-10
1.03483e-07
-3.02452e-11
-3.3731e-11
-7.54807e-11
-9.16685e-11
-1.49386e-11
-1.03873e-10
-3.7237e-11
2.32482e-10
-1.028e-07
1.19948e-10
-1.04091e-10
-7.99104e-11
-2.62271e-11
-2.00263e-11
-1.1476e-10
-1.19132e-10
-1.72114e-11
-3.51391e-11
1.03917e-07
2.3082e-10
-1.03762e-07
1.2992e-10
-9.82796e-11
-7.91889e-11
-3.17215e-11
-3.86359e-11
-1.14215e-10
-1.83499e-11
-1.00481e-10
-2.8617e-11
-4.0944e-11
2.51394e-08
1.72413e-11
2.5285e-08
-2.51437e-08
-1.04172e-10
-8.95831e-11
2.1248e-10
1.13637e-10
1.03408e-07
-3.57736e-11
-1.56201e-11
-6.58988e-11
-5.76322e-11
-4.24887e-11
-7.55435e-11
-7.16379e-11
2.32873e-10
-1.03652e-07
1.14949e-10
-1.06883e-10
-6.75491e-11
-3.55467e-11
-7.32949e-11
-8.68966e-11
-6.68496e-11
-4.65663e-11
-1.67759e-11
1.03838e-07
2.32897e-10
-1.03685e-07
1.15051e-10
-1.07623e-10
-6.78363e-11
-3.60046e-11
-7.32399e-11
-8.67974e-11
-4.67188e-11
-6.66925e-11
-2.51481e-08
-1.05281e-10
-8.89453e-11
1.04765e-10
1.05657e-10
-3.85128e-11
-3.41258e-11
2.51418e-08
1.61614e-11
1.15777e-11
2.52774e-08
-2.5141e-08
-8.37696e-11
-8.03997e-11
1.36446e-10
1.04922e-07
-4.45811e-11
-2.8958e-11
-6.73088e-11
-4.92191e-11
-5.44166e-11
-1.01056e-10
-9.21696e-11
-1.05124e-10
2.48955e-10
1.37346e-10
1.0495e-07
-4.42805e-11
-2.85827e-11
-7.13731e-11
-4.90223e-11
-5.50537e-11
-1.01951e-10
-8.95524e-11
1.05298e-07
2.40634e-10
-1.05197e-07
1.36499e-10
-9.34817e-11
-5.83882e-11
-3.64681e-11
-9.56649e-11
-8.58625e-11
-5.02642e-11
-4.1899e-11
-1.54285e-11
1.05325e-07
2.41196e-10
-1.05225e-07
1.35283e-10
-9.35925e-11
-5.84372e-11
-3.27633e-11
-9.65377e-11
-8.4971e-11
-5.34439e-11
-4.16155e-11
-3.89098e-11
-3.40207e-11
2.51419e-08
1.11413e-11
2.52781e-08
-2.51411e-08
-8.2973e-11
-8.06217e-11
1.29062e-10
1.03116e-07
-2.78283e-11
-2.39046e-11
-8.18404e-11
-1.23941e-10
-2.38824e-11
-2.61049e-11
-1.2019e-10
-1.00179e-10
2.49219e-10
1.40288e-10
1.04076e-07
-3.3895e-11
-3.61425e-11
-8.09886e-11
-1.05387e-10
-2.52877e-11
-4.49388e-11
-1.1929e-10
1.03481e-07
2.40076e-10
-1.03383e-07
1.28683e-10
-9.48878e-11
-7.26871e-11
-2.00222e-11
-1.98644e-11
-1.12956e-10
-1.90112e-11
-1.15598e-10
-2.32311e-11
1.04449e-07
2.40294e-10
-1.04349e-07
1.38613e-10
-8.88654e-11
-7.16696e-11
-2.5875e-11
-3.88439e-11
-1.12518e-10
-2.07498e-11
-9.75232e-11
2.48367e-10
1.39669e-10
1.04075e-07
-3.38465e-11
-3.62309e-11
-8.07392e-11
-1.05257e-10
-2.52418e-11
-1.19697e-10
-4.47428e-11
2.3947e-10
-1.03375e-07
1.288e-10
-9.54128e-11
-7.20076e-11
-2.39088e-11
-1.95687e-11
-1.12899e-10
-1.15504e-10
-1.66116e-11
-2.31036e-11
1.0445e-07
2.38837e-10
-1.04349e-07
1.38643e-10
-8.90109e-11
-7.12274e-11
-2.6226e-11
-3.83807e-11
-1.1276e-10
-2.03532e-11
-9.705e-11
-2.97864e-11
-4.23366e-11
2.5148e-08
5.71162e-12
2.52825e-08
-2.51469e-08
-8.91275e-11
-7.53973e-11
2.50949e-10
1.23322e-10
1.03994e-07
-3.76498e-11
-1.75551e-11
-6.89972e-11
-7.14955e-11
-5.37949e-11
-9.21772e-11
-7.94325e-11
2.42478e-10
-1.04234e-07
1.23336e-10
-9.79404e-11
-5.96653e-11
-2.97606e-11
-7.34266e-11
-8.56823e-11
-6.37836e-11
-4.91709e-11
-4.80963e-12
1.04365e-07
2.4254e-10
-1.04265e-07
1.21815e-10
-9.82625e-11
-5.94238e-11
-2.96203e-11
-7.35221e-11
-8.55027e-11
-4.93949e-11
-6.36262e-11
-2.51519e-08
-8.9794e-11
-7.46775e-11
8.53774e-11
8.69699e-11
-1.66222e-11
-1.30798e-11
2.51348e-08
-1.39106e-11
-1.73331e-11
2.52449e-08
-2.51106e-08
-5.20632e-11
-5.0944e-11
1.24704e-10
1.05369e-07
-3.01819e-11
-8.43949e-12
-5.19712e-11
-3.30582e-11
-4.21868e-11
-8.70294e-11
-7.73879e-11
-8.54582e-11
2.19468e-10
1.23217e-10
1.05399e-07
-2.99148e-11
-7.69851e-12
-5.21517e-11
-3.31866e-11
-4.30301e-11
-8.81077e-11
-7.67988e-11
1.05446e-07
1.32597e-10
-1.05438e-07
7.5728e-11
-6.01696e-11
-3.32857e-11
-9.15348e-12
-5.75595e-11
-5.03944e-11
-1.32243e-11
-6.10635e-12
1.43861e-11
1.0548e-07
1.33212e-10
-1.05471e-07
7.41239e-11
-6.05402e-11
-3.34344e-11
-8.93586e-12
-5.7919e-11
-4.99878e-11
-1.36331e-11
-6.0278e-12
-1.70628e-11
-1.25198e-11
2.51347e-08
-1.82456e-11
2.52463e-08
-2.51109e-08
-5.13798e-11
-5.1401e-11
1.17313e-10
1.03551e-07
-1.35917e-11
-4.03512e-12
-6.66415e-11
-1.06938e-10
-1.08688e-11
-1.12567e-11
-1.05034e-10
-8.04008e-11
2.18181e-10
1.26276e-10
1.04521e-07
-1.91738e-11
-1.53149e-11
-6.53809e-11
-8.89242e-11
-1.261e-11
-3.04016e-11
-1.04487e-10
1.03627e-07
1.2962e-10
-1.03619e-07
7.06056e-11
-6.22761e-11
-4.79449e-11
7.21178e-12
1.85852e-11
-7.87722e-11
1.78567e-11
-8.02543e-11
7.63982e-12
1.04599e-07
1.30212e-10
-1.04591e-07
7.52766e-11
-5.44828e-11
-4.5752e-11
2.92719e-12
-2.34018e-13
-7.82337e-11
1.64633e-11
-6.19413e-11
2.16542e-10
1.26721e-10
1.04522e-07
-1.93916e-11
-1.5358e-11
-6.51025e-11
-8.85463e-11
-1.21263e-11
-1.04914e-10
-2.98867e-11
1.29339e-10
-1.03612e-07
7.08314e-11
-6.27629e-11
-4.71641e-11
6.68493e-12
1.92427e-11
-7.86742e-11
-7.98189e-11
1.81816e-11
7.79054e-12
1.046e-07
1.29672e-10
-1.04592e-07
7.56145e-11
-5.46579e-11
-4.54349e-11
2.39076e-12
1.05636e-13
-7.86173e-11
1.69036e-11
-6.20555e-11
-7.75049e-12
-2.1084e-11
2.51407e-08
-2.28618e-11
2.52504e-08
-2.5117e-08
-5.8295e-11
-4.46265e-11
2.20356e-10
1.10959e-10
1.04437e-07
-2.33027e-11
2.43757e-12
-5.34188e-11
-5.51955e-11
-4.13768e-11
-7.73196e-11
-6.50379e-11
1.33926e-10
-1.04474e-07
6.80627e-11
-6.60376e-11
-3.59478e-11
-3.27431e-12
-3.4543e-11
-5.11058e-11
-2.82229e-11
-1.13976e-11
2.35975e-11
1.04515e-07
1.33131e-10
-1.04507e-07
6.57946e-11
-6.65643e-11
-3.5614e-11
-3.46157e-12
-3.47909e-11
-5.05986e-11
-1.1778e-11
-2.81417e-11
-2.51222e-08
-5.89861e-11
-4.39613e-11
5.35909e-11
5.58815e-11
1.52388e-11
1.70134e-11
2.51032e-08
-2.97867e-11
-3.29126e-11
2.52235e-08
-2.50876e-08
-3.64311e-11
-3.67467e-11
5.94582e-11
1.05442e-07
-3.41734e-12
1.94535e-11
-2.85672e-11
1.5412e-12
-5.20759e-12
-4.94919e-11
-4.33978e-11
-5.39662e-11
1.0685e-10
5.81732e-11
1.05478e-07
-3.40678e-12
1.99479e-11
-3.201e-11
1.6917e-12
-5.69319e-12
-4.9824e-11
-4.03512e-11
1.05403e-07
4.77313e-11
-1.05417e-07
2.59395e-11
-4.12698e-11
-1.92283e-11
7.34309e-12
-3.26287e-11
-2.93627e-11
1.09206e-11
1.49761e-11
3.0067e-11
1.05441e-07
4.82892e-11
-1.05456e-07
2.54933e-11
-4.1762e-11
-1.97856e-11
1.06833e-11
-3.31894e-11
-2.88818e-11
8.03066e-12
1.5533e-11
1.47991e-11
1.72458e-11
2.51038e-08
-3.37266e-11
2.52252e-08
-2.50884e-08
-3.5972e-11
-3.70925e-11
5.54895e-11
1.03624e-07
1.25429e-11
2.27273e-11
-4.31931e-11
-7.27667e-11
2.56352e-11
2.67143e-11
-7.17535e-11
-4.76963e-11
1.03656e-10
5.94518e-11
1.04595e-07
8.62151e-12
1.33673e-11
-4.07023e-11
-5.43666e-11
2.44871e-11
7.8586e-12
-7.13135e-11
1.03588e-07
4.44561e-11
-1.03601e-07
2.33949e-11
-4.37478e-11
-3.42804e-11
2.33392e-11
4.30009e-11
-5.82904e-11
4.11945e-11
-5.93304e-11
2.37351e-11
1.04557e-07
4.55351e-11
-1.04571e-07
2.55621e-11
-3.51139e-11
-3.14359e-11
1.98253e-11
2.41553e-11
-5.75718e-11
4.02159e-11
-4.08908e-11
1.02743e-10
5.94124e-11
1.04597e-07
8.4127e-12
1.34737e-11
-4.03642e-11
-5.46372e-11
2.48739e-11
-7.14808e-11
8.28332e-12
4.50145e-11
-1.03591e-07
2.31293e-11
-4.43376e-11
-3.33833e-11
1.9622e-11
4.33028e-11
-5.8318e-11
-5.91723e-11
4.37382e-11
2.40734e-11
1.04559e-07
4.52211e-11
-1.04572e-07
2.46189e-11
-3.50659e-11
-3.10736e-11
1.95865e-11
2.45124e-11
-5.79414e-11
4.07291e-11
-4.10931e-11
2.32971e-11
9.8739e-12
2.51096e-08
-3.77554e-11
2.52288e-08
-2.50938e-08
-4.35097e-11
-2.99979e-11
1.06394e-10
5.16089e-11
1.04512e-07
1.9882e-12
2.88258e-11
-3.12017e-11
-2.04774e-11
-3.84165e-12
-4.35346e-11
-2.6529e-11
4.88187e-11
-1.04448e-07
2.28078e-11
-4.80462e-11
-2.29741e-11
1.23274e-11
-9.84135e-12
-3.02045e-11
-6.86205e-12
1.27447e-11
3.83449e-11
1.04473e-07
4.81349e-11
-1.04487e-07
2.13326e-11
-4.87406e-11
-2.27314e-11
1.19713e-11
-9.89848e-12
-2.98996e-11
1.21936e-11
-6.60088e-12
-2.50992e-08
-4.42856e-11
-2.92753e-11
3.91363e-11
4.15925e-11
2.8976e-11
2.9548e-11
2.50842e-08
-3.43284e-11
-3.74583e-11
2.52157e-08
-2.50782e-08
-3.26467e-11
-3.31107e-11
1.83109e-11
1.05389e-07
9.18728e-12
3.16344e-11
-1.77267e-11
1.7798e-11
1.38126e-11
-2.97692e-11
-2.67861e-11
-3.95883e-11
3.63186e-11
1.81107e-11
1.05429e-07
9.00895e-12
3.20216e-11
-1.79975e-11
1.82516e-11
1.27173e-11
-3.04796e-11
-2.60727e-11
1.05356e-07
1.40442e-11
-1.05365e-07
7.67091e-12
-3.60166e-11
-1.51232e-11
1.19656e-11
-2.51943e-11
-2.31563e-11
1.84284e-11
2.15894e-11
3.47738e-11
1.05399e-07
1.4632e-11
-1.05407e-07
7.02631e-12
-3.63443e-11
-1.53598e-11
1.21069e-11
-2.57678e-11
-2.25322e-11
1.73812e-11
2.19265e-11
2.82926e-11
2.98888e-11
2.50851e-08
-3.82866e-11
2.52176e-08
-2.50794e-08
-3.18974e-11
-3.3262e-11
1.62668e-11
1.03576e-07
2.51571e-11
3.47426e-11
-3.26552e-11
-5.64267e-11
4.38523e-11
4.55489e-11
-5.57065e-11
-3.27962e-11
3.36842e-11
1.84822e-11
1.04543e-07
2.18074e-11
2.56812e-11
-2.9738e-11
-3.80459e-11
4.3014e-11
2.68967e-11
-5.50849e-11
1.03548e-07
1.14463e-11
-1.03554e-07
5.82371e-12
-3.85041e-11
-3.0233e-11
2.79562e-11
4.99608e-11
-5.2243e-11
4.80114e-11
-5.28039e-11
2.83387e-11
1.04512e-07
1.22524e-11
-1.04519e-07
6.83969e-12
-2.96702e-11
-2.73036e-11
2.46141e-11
3.11079e-11
-5.14543e-11
4.71337e-11
-3.46718e-11
3.30162e-11
1.76065e-11
1.04546e-07
2.15752e-11
2.59598e-11
-2.93782e-11
-3.81927e-11
4.32706e-11
-5.53049e-11
2.71427e-11
1.17975e-11
-1.03546e-07
4.86738e-12
-3.89219e-11
-2.94084e-11
2.77921e-11
5.02114e-11
-5.19276e-11
-5.28175e-11
4.82674e-11
2.86215e-11
1.04516e-07
1.21664e-11
-1.04523e-07
6.29249e-12
-2.98869e-11
-2.68306e-11
2.41294e-11
3.15225e-11
-5.17896e-11
4.74275e-11
-3.45559e-11
3.64159e-11
2.28906e-11
2.50905e-08
-4.19427e-11
2.52209e-08
-2.50845e-08
-3.98872e-11
-2.61775e-11
3.5769e-11
1.50429e-11
1.04459e-07
1.38985e-11
4.00684e-11
-2.11374e-11
-3.67526e-12
1.4992e-11
-2.74699e-11
-7.28031e-12
1.51518e-11
-1.04393e-07
5.66404e-12
-4.31186e-11
-1.90812e-11
1.66883e-11
-2.71711e-12
-2.39481e-11
-3.12455e-13
1.96518e-11
4.25087e-11
1.04427e-07
1.50135e-11
-1.04435e-07
5.50423e-12
-4.39679e-11
-1.8945e-11
1.61507e-11
-2.89352e-12
-2.37226e-11
1.90805e-11
-1.59786e-13
-2.50902e-08
-4.05747e-11
-2.55608e-11
3.56574e-11
3.80289e-11
3.24775e-11
3.2364e-11
2.50772e-08
-3.50839e-11
-3.81608e-11
2.5214e-08
-2.50761e-08
-3.21307e-11
-3.25735e-11
4.93135e-12
1.05349e-07
1.22735e-11
3.47746e-11
-1.46151e-11
2.23313e-11
1.87561e-11
-2.47671e-11
-2.24134e-11
-3.57949e-11
1.04113e-11
4.20114e-12
1.05395e-07
1.25907e-11
3.53789e-11
-1.83631e-11
2.29932e-11
1.78586e-11
-2.53697e-11
-1.9516e-11
1.05337e-07
4.52714e-12
-1.0534e-07
3.2282e-12
-3.53702e-11
-1.44341e-11
1.24529e-11
-2.39048e-11
-2.16021e-11
1.95694e-11
2.28983e-11
3.57062e-11
1.05381e-07
5.1257e-12
-1.05385e-07
3.05598e-12
-3.53558e-11
-1.48843e-11
1.63981e-11
-2.42017e-11
-2.12868e-11
1.68354e-11
2.35015e-11
3.17765e-11
3.3112e-11
2.50783e-08
-3.89763e-11
2.52153e-08
-2.50766e-08
-3.13796e-11
-3.25599e-11
3.04575e-12
1.03541e-07
2.82841e-11
3.80045e-11
-2.96956e-11
-5.17582e-11
4.8388e-11
5.02678e-11
-5.1624e-11
-2.92442e-11
9.47459e-12
4.05877e-12
1.04506e-07
2.48657e-11
2.90236e-11
-2.6639e-11
-3.37871e-11
4.74556e-11
3.15532e-11
-5.07141e-11
1.03532e-07
1.73235e-12
-1.03533e-07
1.99127e-12
-3.7831e-11
-2.96022e-11
2.85057e-11
5.1147e-11
-5.10037e-11
4.92518e-11
-5.14429e-11
2.90718e-11
1.04497e-07
2.69208e-12
-1.04498e-07
2.53262e-12
-2.90069e-11
-2.66414e-11
2.51537e-11
3.2523e-11
-5.02753e-11
4.83779e-11
-3.33407e-11
8.82121e-12
3.95228e-12
1.0451e-07
2.46462e-11
2.91557e-11
-2.62868e-11
-3.36479e-11
4.77002e-11
-5.10618e-11
3.17193e-11
1.94854e-12
-1.03524e-07
9.62121e-13
-3.82586e-11
-2.8532e-11
2.50056e-11
5.15291e-11
-5.0767e-11
-5.14216e-11
5.1941e-11
2.93352e-11
1.045e-07
2.77524e-12
-1.04501e-07
2.52541e-12
-2.92114e-11
-2.62094e-11
2.47927e-11
3.25476e-11
-5.05282e-11
4.85447e-11
-3.3527e-11
3.93805e-11
2.59043e-11
2.50834e-08
-4.26858e-11
2.52187e-08
-2.50819e-08
-3.93186e-11
-2.57182e-11
1.0437e-11
3.34034e-12
1.04421e-07
1.64745e-11
4.29072e-11
-1.86385e-11
7.25588e-13
1.95793e-11
-2.2855e-11
-2.45303e-12
5.35155e-12
-1.0437e-07
1.25505e-12
-4.249e-11
-1.85259e-11
1.72546e-11
-1.45971e-12
-2.25573e-11
1.03375e-12
2.09721e-11
4.32179e-11
1.04408e-07
5.48579e-12
-1.04411e-07
1.68466e-12
-4.33789e-11
-1.82147e-11
1.66922e-11
-1.57466e-12
-2.22875e-11
2.03465e-11
1.07207e-12
-2.50871e-08
-4.00887e-11
-2.50267e-11
3.52559e-11
3.7555e-11
3.28435e-11
3.26717e-11
2.50757e-08
-3.53412e-11
-3.82025e-11
2.52129e-08
-2.50751e-08
-3.19169e-11
-3.23654e-11
1.48709e-12
1.05336e-07
1.26263e-11
3.52929e-11
-1.41348e-11
2.33466e-11
1.95693e-11
-2.39234e-11
-2.13762e-11
-3.52822e-11
3.23675e-12
1.94074e-12
1.05379e-07
1.30577e-11
3.57767e-11
-1.47373e-11
2.40919e-11
1.88753e-11
-2.41221e-11
-2.09126e-11
1.05332e-07
1.75126e-12
-1.05334e-07
2.00693e-12
-3.50558e-11
-1.41814e-11
1.28596e-11
-2.34358e-11
-2.13651e-11
1.99704e-11
2.32295e-11
3.55809e-11
1.05371e-07
2.97283e-12
-1.05374e-07
2.45867e-12
-3.53006e-11
-1.48462e-11
1.32941e-11
-2.37989e-11
-2.08509e-11
1.95157e-11
2.36858e-11
3.20314e-11
3.36311e-11
2.50763e-08
-3.88888e-11
2.52136e-08
-2.50751e-08
-3.13069e-11
-3.26873e-11
-3.16078e-13
1.0353e-07
2.87446e-11
3.86303e-11
-2.91038e-11
-5.0944e-11
4.92823e-11
5.10533e-11
-5.05385e-11
-2.87746e-11
3.27076e-12
4.38045e-13
1.04495e-07
2.54131e-11
2.95693e-11
-2.61066e-11
-3.28124e-11
4.84525e-11
3.25568e-11
-4.99399e-11
1.03528e-07
-1.62315e-12
-1.03527e-07
1.31383e-12
-3.76746e-11
-2.95148e-11
2.87964e-11
5.15501e-11
-5.06953e-11
4.97335e-11
-5.12027e-11
2.91766e-11
1.04492e-07
-3.25441e-13
-1.04492e-07
2.14876e-12
-2.87545e-11
-2.65768e-11
2.5473e-11
3.29149e-11
-5.00498e-11
4.87291e-11
-3.31979e-11
3.36863e-12
7.91244e-13
1.04498e-07
2.50486e-11
2.97614e-11
-2.58733e-11
-3.29094e-11
4.86328e-11
-5.03019e-11
3.25388e-11
-1.09721e-12
-1.03518e-07
1.05915e-12
-3.8018e-11
-2.87863e-11
2.85184e-11
5.20847e-11
-5.05692e-11
-5.11636e-11
5.00852e-11
2.95226e-11
1.04495e-07
-2.74121e-13
-1.04494e-07
1.62278e-12
-2.8925e-11
-2.60064e-11
2.49461e-11
3.29569e-11
-5.05499e-11
4.90366e-11
-3.32764e-11
3.96928e-11
2.62095e-11
2.50815e-08
-4.27696e-11
2.52172e-08
-2.50806e-08
-3.92444e-11
-2.54896e-11
3.07964e-12
1.13891e-12
1.04406e-07
1.68525e-11
4.33143e-11
-1.81804e-11
1.68954e-12
2.04128e-11
-2.20185e-11
-1.60554e-12
2.93564e-12
-1.04364e-07
1.25515e-12
-4.23003e-11
-1.83304e-11
1.74806e-11
-1.18393e-12
-2.2441e-11
1.26581e-12
2.13353e-11
4.3404e-11
1.044e-07
2.82193e-12
-1.04402e-07
1.15998e-12
-4.31261e-11
-1.81438e-11
1.69696e-11
-1.19616e-12
-2.20623e-11
2.06478e-11
1.24867e-12
-2.50858e-08
-3.98185e-11
-2.48315e-11
3.50162e-11
3.73718e-11
3.2882e-11
3.28667e-11
2.50748e-08
-3.52149e-11
-3.79713e-11
2.5212e-08
-2.50743e-08
-3.20219e-11
-3.24487e-11
-4.35937e-14
1.05333e-07
1.29075e-11
3.55107e-11
-1.40127e-11
2.36928e-11
1.97971e-11
-2.37112e-11
-2.08883e-11
-3.52073e-11
1.16073e-12
1.31276e-12
1.05372e-07
1.32894e-11
3.5821e-11
-1.80749e-11
2.4153e-11
1.9401e-11
-2.39237e-11
-1.86647e-11
1.05332e-07
1.71197e-12
-1.05333e-07
1.6117e-12
-3.47449e-11
-1.42775e-11
1.32257e-11
-2.34208e-11
-2.16255e-11
2.0078e-11
2.29814e-11
3.55629e-11
1.05365e-07
3.01024e-12
-1.05368e-07
2.12997e-12
-3.49403e-11
-1.48698e-11
1.69827e-11
-2.36083e-11
-2.14224e-11
1.74966e-11
2.3036e-11
3.21652e-11
3.36099e-11
2.50748e-08
-3.85903e-11
2.5213e-08
-2.50746e-08
-3.14684e-11
-3.27638e-11
-1.91475e-12
1.03527e-07
2.90212e-11
3.88257e-11
-2.88478e-11
-5.06378e-11
4.96138e-11
5.15138e-11
-5.03817e-11
-2.82966e-11
2.21766e-12
-9.7221e-13
1.0449e-07
2.59334e-11
2.99418e-11
-2.59862e-11
-3.25316e-11
4.88057e-11
3.28059e-11
-4.9945e-11
1.03528e-07
-2.95261e-12
-1.03525e-07
1.84763e-12
-3.74104e-11
-2.98676e-11
2.90139e-11
5.18395e-11
-5.13049e-11
5.01013e-11
-5.17112e-11
2.91025e-11
1.04488e-07
-1.32972e-12
-1.04487e-07
2.42709e-12
-2.83093e-11
-2.67153e-11
2.58743e-11
3.3113e-11
-5.06902e-11
4.9048e-11
-3.36461e-11
2.19175e-12
-1.59021e-12
1.04493e-07
2.55531e-11
3.01064e-11
-2.55425e-11
-3.26701e-11
4.91282e-11
-4.99002e-11
3.31444e-11
-2.41553e-12
-1.03512e-07
1.87454e-12
-3.79804e-11
-2.9019e-11
2.5289e-11
5.22047e-11
-5.09197e-11
-5.16843e-11
5.26389e-11
2.9489e-11
1.04493e-07
-1.64264e-12
-1.04491e-07
1.45943e-12
-2.85867e-11
-2.61668e-11
2.53909e-11
3.33515e-11
-5.06389e-11
4.92696e-11
-3.383e-11
3.98241e-11
2.64707e-11
2.50803e-08
-4.26009e-11
2.52163e-08
-2.50797e-08
-3.94342e-11
-2.54602e-11
4.71927e-13
-5.50146e-14
1.044e-07