/*--------------------------------*- C++ -*----------------------------------*\
| =========                 |                                                 |
| \\      /  F ield         | OpenFOAM: The Open Source CFD Toolbox           |
|  \\    /   O peration     | Version:  2206                                  |
|   \\  /    A nd           | Website:  www.openfoam.com                      |
|    \\/     M anipulation  |                                                 |
\*---------------------------------------------------------------------------*/
FoamFile
{
    version     2.0;
    format      ascii;
    arch        "LSB;label=32;scalar=64";
    class       volScalarField;
    location    "149";
    object      omega;
}
// * * * * * * * * * * * * * * * * * * * * * * * * * * * * * * * * * * * * * //

dimensions      [0 0 -1 0 0 0 0];

internalField   nonuniform List<scalar> 
401248
(
33.4774
55.3256
54.6708
64.1789
64.9813
54.9847
54.4076
64.5676
56.0835
56.1754
56.0746
64.8846
54.7279
296.294
171.826
397.52
298.361
174.854
33.5934
33.6979
33.3143
165.572
41.7198
107.553
399.117
40.0346
163.647
104.525
208.243
206.705
397.34
399.015
206.548
208.309
296.362
171.691
163.601
40.2578
104.746
163.439
40.0506
104.499
206.556
208.253
399.065
165.797
42.028
107.875
298.398
174.753
42.0767
165.597
107.853
298.415
174.643
41.8955
165.565
107.709
298.388
174.592
208.239
206.629
397.446
39.9957
163.718
104.64
296.361
171.706
296.343
171.673
398.969
397.39
415.185
296.238
213.958
213.92
415.329
325.979
171.73
306.294
183.53
306.225
183.39
326.052
397.368
329.436
174.797
186.587
309.703
417.668
298.286
216.923
216.918
417.865
417.876
298.346
216.886
329.313
174.825
186.562
309.706
186.624
309.597
329.428
398.983
399.12
182.983
135.773
208.231
306.708
135.841
306.573
182.913
181.336
134.461
206.684
306.44
134.311
306.317
181.203
248.24
402.143
402.035
401.956
401.867
248.302
397.239
398.886
399.015
182.255
134.569
206.51
305.909
305.838
134.184
182.126
181.771
135.45
208.292
307.194
307.118
135.117
181.591
248.195
401.659
402.576
401.532
402.441
248.239
415.254
296.269
213.892
213.851
415.413
326.002
171.692
306.305
183.395
306.225
183.343
326.08
181.238
134.006
206.575
306.442
306.363
134.519
181.19
182.766
135.471
208.222
306.813
135.553
306.693
182.684
248.297
402.142
402.294
401.957
402.167
248.328
398.888
329.474
174.794
309.711
186.488
417.788
298.328
216.891
216.876
417.989
417.996
298.387
216.871
329.352
174.822
309.712
186.503
309.605
186.508
329.468
417.767
298.306
216.923
216.888
417.982
329.387
174.746
186.351
309.777
186.505
309.65
329.514
417.702
298.28
216.961
216.933
417.918
329.359
174.815
309.77
186.42
309.643
186.614
329.483
181.691
135.433
208.235
307.111
307.079
135.069
181.643
182.082
134.385
206.598
306.03
134.01
305.895
181.797
248.285
402.661
401.745
402.524
401.611
248.33
397.299
415.235
296.271
213.966
213.925
415.391
326.017
171.744
183.372
306.335
183.364
306.257
326.094
415.208
296.258
213.955
213.934
415.366
326.007
171.742
183.378
306.33
183.446
306.25
326.083
398.781
397.245
24.7629
25.6269
17.9932
126.833
94.5275
93.794
65.0294
94.8371
94.042
126.609
126.77
93.8774
94.3484
64.217
93.127
93.7754
126.324
126.576
93.7649
94.1223
64.8022
94.4091
94.0175
126.481
126.598
94.3519
93.5197
63.8258
92.7745
94.0316
126.11
24.8407
25.6921
17.9924
25.7639
24.8583
18.0406
25.7334
24.7566
18.0069
85.4814
107.632
165.684
133.657
108.414
133.566
85.1487
74.738
107.614
115.861
68.266
115.997
68.5872
74.3897
83.2909
106.555
163.548
130.943
106.321
130.862
83.0521
71.933
104.727
65.1826
112.951
65.0347
113.127
71.6906
83.4532
106.338
163.384
131.174
130.751
105.735
83.2562
72.4123
104.418
113.115
65.608
112.49
65.1726
71.6943
83.1973
106.263
163.369
130.825
130.747
106.414
82.9602
72.1338
104.701
112.94
65.4068
113.117
65.2351
71.8953
85.9281
108.169
165.641
133.807
133.683
107.677
85.642
75.1689
107.634
116.131
68.4951
115.696
67.584
74.8667
85.7384
107.872
165.487
133.58
133.394
107.422
84.9045
75.0872
107.254
68.4682
115.998
67.5837
115.565
74.7329
85.5799
107.918
165.693
133.694
107.979
133.772
85.2571
74.9028
107.711
68.4479
116.129
68.7849
116.004
74.531
83.3785
106.56
163.706
131.25
106.775
131.259
83.105
72.1836
104.831
65.3071
113.118
65.16
113.297
71.9579
744.112
1630.66
4513.54
17065.8
116782
718.444
1596.44
4418.02
16620
116912
743.932
1631.07
4515.13
17077.1
116802
718.368
1597.02
4420.4
16634.7
116892
718.183
1595.69
4414.88
16600
116862
718.064
1596.06
4416.44
16611
116912
744.437
1631.68
4518.07
17095.7
116803
718.137
1596.15
4416.75
16612.6
116872
744.403
1632.66
4522.19
17121.2
116814
744.078
1631.52
4517.16
17090
116781
743.823
1630.91
4514.92
17075
116772
718.281
1595.98
4416.1
16608.7
116881
744.152
1630.94
4515.1
17077.4
116795
744.021
1630.37
4512.65
17062.2
116802
717.911
1595.64
4414.84
16600.8
116892
718.063
1595.32
4413.58
16593.2
116911
715.812
1596.17
4420.1
16635.2
116835
743.892
1630.48
4513.89
17069.9
116782
718.318
1596.44
4418.48
16623.6
116912
729.826
1614.1
4466.27
16835.4
116752
729.794
1611.86
4469.47
16900.5
116727
715.839
1597.51
4425.87
16671.9
116840
743.829
1631.47
4517.92
17096
116802
743.959
1631.21
4515.75
17080.8
116802
718.26
1597.22
4421.96
16645.2
116892
718.357
1597.01
4420.43
16634.9
116892
743.117
1631.56
4521.02
17124.2
116795
742.984
1631.77
4522.81
17136.7
116795
742.807
1630.22
4515.15
17087.3
116795
742.669
1630.34
4516.46
17096.7
116795
715.613
1596.84
4413.41
16561.3
116918
715.676
1596.65
4412.5
16556.4
116921
715.478
1596.9
4414.13
16566.2
116918
715.542
1596.68
4413.07
16560.4
116921
718.06
1595.66
4415.33
16603.5
116862
717.971
1596.28
4417.93
16620.8
116912
718.077
1596.13
4416.74
16612.7
116912
744.263
1631.57
4518.29
17098.2
116803
743.501
1632.67
4525.34
17150.7
116789
743.338
1632.79
4526.69
17160.4
116789
715.875
1597.58
4416.16
16578.6
116919
715.743
1597.63
4416.93
16584.1
116919
718.017
1596.35
4418.22
16622.4
116872
730.08
1615.01
4470.22
16859.1
116747
729.885
1612.21
4471.03
16910.3
116725
716.161
1598.57
4430.47
16700.1
116852
744.265
1632.92
4524.35
17136.2
116814
744.391
1632.67
4522.31
17121.9
116814
743.956
1631.86
4519.7
17107.4
116781
715.846
1597.63
4426.6
16675.7
116831
743.679
1631.2
4517.28
17091.5
116772
743.676
1632.86
4526.29
17156.2
116759
743.511
1632.78
4526.6
17159
116759
715.978
1597.77
4417.14
16583.5
116904
718.151
1595.96
4416.5
16611.9
116881
715.93
1596.58
4421.89
16646.4
116836
743.978
1630.84
4515.55
17081.4
116795
715.899
1596.45
4421.3
16643.7
116840
743.847
1630.3
4513.1
17066.3
116802
717.777
1595.78
4416.06
16609
116892
717.935
1595.32
4414.03
16596.6
116911
716.025
1596.79
4422.71
16652.7
116838
716.038
1598.11
4428.4
16687.9
116840
729.482
1611.92
4457.66
16782
116768
729.588
1609.52
4459.36
16837.4
116747
729.333
1609.25
4459.66
16841.5
116747
729.561
1611.93
4457.32
16779.5
116768
715.927
1596.25
4420.03
16634
116835
743.398
1632.13
4523.23
17137.4
116776
743.281
1632.24
4524.32
17145.1
116776
715.951
1597.39
4415.34
16573.3
116887
715.824
1597.48
4416.12
16578.5
116887
715.947
1597.23
4423.89
16658.6
116840
729.748
1614.58
4469.35
16856.2
116752
729.828
1611.82
4469.13
16898.3
116727
729.691
1612.33
4472.94
16925
116727
729.78
1614.01
4465.95
16833.7
116752
715.949
1597.27
4424.17
16660.5
116840
743.413
1632.74
4525.66
17152.2
116777
743.285
1632.93
4527.31
17163.7
116777
716.018
1597.88
4417.39
16584.9
116918
715.887
1597.97
4418.41
16592
116918
743.456
1632.15
4523.28
17137.7
116776
743.311
1632.19
4524.25
17145
116776
715.817
1597.25
4414.81
16569.8
116933
715.686
1597.28
4415.43
16574.4
116933
743.037
1631.41
4519.71
17115.5
116795
742.94
1631.71
4521.89
17130.3
116795
715.8
1597.21
4414.49
16568
116921
715.671
1597.28
4415.3
16573.6
116921
729.67
1612.61
4460.21
16799
116751
729.584
1609.53
4460.22
16845
116727
729.411
1609.55
4460.75
16849.2
116727
729.684
1612.48
4459.69
16796.5
116751
716.127
1596.84
4422.63
16651.6
116838
730.011
1615.52
4473.49
16881.2
116747
729.925
1612.18
4470.76
16908.6
116725
729.784
1612.68
4474.55
16935.2
116725
730.044
1614.94
4470.01
16858.2
116747
716.268
1598.27
4428.34
16685.7
116852
716.261
1598.28
4428.47
16686.7
116852
716.136
1597.81
4426.41
16674.5
116840
730.114
1615.76
4474.27
16886.2
116774
730.046
1612.75
4473.43
16924.8
116749
730.023
1613.34
4477.07
16949.4
116749
730.108
1615.13
4470.91
16864.4
116774
729.932
1615.24
4472.34
16873.9
116769
729.971
1612.5
4472.56
16920
116747
729.948
1613.09
4476.17
16944.6
116747
729.92
1614.61
4469.08
16853.2
116769
715.933
1597.32
4424.73
16663.7
116831
715.846
1597.77
4417.55
16586.5
116904
716.02
1596.61
4421.74
16645
116836
729.7
1612.8
4461.23
16803.8
116758
729.663
1610.03
4462.56
16858.5
116725
729.548
1610.07
4463.2
16863.6
116736
729.701
1612.63
4460.57
16800.5
116747
716.003
1596.5
4421.23
16642.5
116840
729.673
1612.68
4460.6
16801.2
116752
729.667
1610.15
4462.4
16858.5
116727
729.529
1610.06
4462.75
16861.6
116727
729.696
1612.59
4460.18
16799.4
116752
65.0003
54.598
56.2373
56.2081
65.2139
54.2836
64.4979
65.1605
33.8427
33.8962
396.817
398.533
206.559
208.15
295.918
163.035
298.009
174.548
165.611
42.3099
107.489
298.045
174.502
42.2782
165.393
107.5
398.622
208.018
206.353
396.915
163.371
295.959
397.001
396.87
398.628
398.442
206.463
208.119
65.0932
206.387
208.122
396.898
397.038
398.489
398.654
64.5744
206.367
208.14
206.364
208.118
396.895
398.577
181.876
134.181
206.628
305.52
305.644
133.713
181.997
181.519
135.246
208.162
306.824
306.972
134.9
181.651
248.092
401.19
402.101
401.384
402.306
248.041
296.113
214.211
214.53
414.764
417.372
298.004
216.736
216.732
417.275
329.041
174.587
186.405
309.308
186.375
309.345
329.019
417.481
298.03
216.655
216.656
417.398
329.069
174.538
309.32
186.253
309.353
186.244
329.058
398.661
181.362
135.291
208.034
306.8
134.871
306.947
181.38
181.848
134.234
206.371
305.602
305.738
134.035
181.939
248.004
402.139
401.273
402.342
401.461
247.961
397.087
296.057
213.781
213.797
414.869
396.879
396.998
398.462
398.608
248.084
401.174
402.082
401.322
402.24
248.01
182.057
134.009
305.632
206.428
181.865
305.518
134.123
181.602
134.998
306.942
208.112
181.426
306.815
135.059
248.003
401.35
402.269
248.05
401.196
402.102
181.83
305.505
206.397
134.345
305.598
182.048
134.099
181.577
306.792
208.099
135.468
306.902
181.6
135.242
397.017
396.914
398.641
398.504
248.011
401.371
402.292
248.039
401.226
402.137
182.105
134.483
206.372
305.53
305.619
134.242
182.096
181.609
135.494
208.14
306.808
306.907
135.236
181.596
182.097
305.644
133.894
206.368
181.896
305.541
134.12
181.621
306.937
134.96
208.136
181.377
306.826
135.186
248.095
401.223
402.137
401.368
402.294
248.06
126.451
64.7417
93.7819
94.5065
93.4604
94.1592
126.358
126.143
64.9727
94.6662
93.5874
94.3443
93.255
126.142
126.778
93.3625
94.0823
64.3341
126.555
93.6879
94.4088
126.705
64.7957
94.1545
94.7989
93.333
94.0221
126.604
25.5517
25.5796
81.6586
105.597
162.902
130.409
105.206
130.144
82.5214
85.3424
108.27
165.579
133.592
107.727
133.346
85.5884
74.1437
107.123
115.714
68.4226
115.5
68.0741
74.2265
85.1917
108.112
165.369
133.246
132.972
107.798
85.5443
74.0551
107.16
68.2138
115.555
67.8116
115.194
74.2004
83.2208
106.526
163.363
131.292
106.245
131.118
83.4031
126.379
64.2146
93.9722
94.6847
126.481
93.6084
94.058
126.536
64.808
93.4902
94.2592
126.276
93.6249
94.5199
33.6319
56.2633
55.0252
65.3096
34.288
56.4003
55.5149
65.5658
34.1537
56.4327
55.4813
65.4184
34.173
56.3304
55.2835
65.6586
34.2214
56.1812
55.078
65.5944
34.1976
56.0551
55.1607
65.9845
34.059
56.1132
55.1132
66.0086
34.004
56.1919
55.0992
66.0525
34.0048
56.3649
55.0679
65.9261
33.9704
56.5992
55.0407
65.9119
33.86
56.3261
54.9673
65.9467
33.8322
56.3117
55.0229
65.9752
33.8109
56.3125
54.9039
66.021
33.7994
56.2912
55.0299
65.985
33.7654
56.3369
54.943
65.9404
33.7321
56.3538
55.0852
66.0266
33.7497
56.383
55.1073
65.8867
54.543
55.269
55.4457
55.3694
64.9436
64.9499
56.1696
56.1857
56.8313
56.9306
56.5753
56.1527
56.624
64.7668
65.1313
55.4275
54.897
55.4135
64.9233
64.5907
65.2509
54.7248
55.1163
55.4746
55.3632
64.1688
64.8908
56.2445
56.4991
56.6538
56.7614
55.782
56.227
56.6053
64.2029
65.2837
54.8868
54.9011
55.3444
65.2312
64.7188
65.2295
55.1651
54.9562
55.4451
55.288
64.0828
64.7601
55.8387
56.2799
56.8032
56.7065
56.0298
55.7511
56.6045
64.8721
65.0997
54.3772
54.6875
55.4731
65.0326
64.6475
65.3403
54.837
54.8301
55.3496
55.3205
63.9923
64.9622
56.4634
55.793
56.6112
56.8121
56.0905
55.9944
56.571
64.3511
65.1198
54.8271
54.8803
55.281
65.421
64.7563
65.4021
54.8314
54.921
55.3655
55.3419
64.4377
65.2185
56.0516
55.9633
56.4743
56.7877
56.061
55.8414
56.5547
64.6213
65.2821
54.432
54.93
55.4734
65.4048
64.9212
65.3348
54.9911
54.5737
55.4033
55.3294
64.7054
65.4895
56.0594
56.3025
56.5255
56.5639
56.1444
55.8654
56.7548
64.4511
65.2792
55.1542
54.9395
55.3427
65.4853
64.5168
65.3043
54.8797
55.0289
55.3294
55.4694
64.8666
65.2671
56.1251
55.9751
56.5324
56.5545
56.1372
55.8067
56.6043
64.7872
65.2985
54.8273
54.7955
55.311
65.4972
64.5083
65.3135
54.4352
54.799
55.4019
55.2908
64.4863
65.4849
56.0963
55.903
56.4413
56.4299
56.0946
55.7814
56.6552
64.4062
65.3055
54.9134
54.857
55.4144
65.8514
64.7592
65.4835
55.0491
54.9252
55.3699
55.4325
65.0571
65.4166
56.0965
55.9037
56.4711
56.4599
56.1342
56.0584
56.5868
64.8316
65.1846
55.1433
54.8694
55.4499
65.8236
64.7454
65.4705
54.8141
55.0032
55.333
55.4815
65.1331
65.4645
56.0671
56.0956
56.574
56.5868
55.6913
56.1383
56.6808
64.6489
65.4433
54.9435
54.6302
55.3481
65.8433
64.9271
65.6376
54.634
54.7728
55.4059
55.5742
65.0316
65.5186
55.7934
56.0088
56.6431
56.526
56.3425
55.7377
56.6275
65.0109
65.2923
54.4423
54.4214
55.4384
65.381
65.2336
65.4174
55.1439
54.7234
55.5381
55.4405
65.1569
65.5276
55.9223
56.046
56.6076
56.5384
55.8738
55.7318
56.8972
64.8062
65.4409
55.1826
54.3323
55.3992
65.9299
64.5738
65.4058
55.0377
55.1479
55.383
55.5894
65.1254
65.7613
56.1911
56.1675
56.517
56.6029
56.589
55.6404
56.7202
64.949
65.3796
55.1639
54.4455
55.4132
65.4375
64.5537
65.5958
54.5123
55.0435
55.5576
55.4346
65.1436
65.5293
55.6718
56.3488
56.6376
56.5479
55.7607
56.1224
56.7477
64.4828
65.4071
54.9682
54.3361
55.393
65.8437
65.1723
65.4835
55.319
55.0399
55.5662
55.4613
65.1236
65.5776
56.3993
55.7083
56.612
56.7678
56.4637
56.2054
56.7807
64.3145
65.3947
54.4521
54.4974
55.3418
65.927
64.9087
65.4508
54.9411
54.5424
55.3358
55.5152
65.1468
65.4059
56.2623
56.1876
56.5343
56.6118
56.1248
56.1664
56.6073
64.4804
65.3899
54.615
54.4558
55.4227
65.7005
64.6193
54.7749
55.2178
64.2725
55.9396
55.9555
55.9962
56.2349
56.6781
64.7299
64.7271
55.1504
54.471
55.3965
65.5808
171.464
295.987
171.345
295.905
396.97
396.909
174.663
298.046
174.285
297.927
33.9515
33.6664
34.1259
33.8922
34.0425
34.2975
34.1403
107.726
165.419
42.2839
55.8172
165.46
41.8789
107.534
398.713
398.522
104.807
40.6931
163.158
54.7158
40.3827
163.38
104.831
207.987
206.518
65.2366
207.987
206.491
171.739
296.007
171.612
295.98
397.089
397.008
174.767
298.046
174.692
298.008
33.9086
33.9083
33.6856
34.014
34.1095
34.3931
34.1282
107.916
165.525
42.4225
55.9267
107.8
165.52
41.5476
398.733
398.636
104.877
40.7419
163.494
55.3014
104.819
40.4564
163.438
208.012
206.512
65.4593
208.03
206.499
171.822
296.077
171.809
296.053
397.146
397.048
174.806
298.132
174.757
298.09
33.8275
34.0645
33.5516
34.043
34.0179
34.3341
34.2924
107.848
165.516
42.437
55.4422
107.774
165.527
42.0113
398.834
398.729
104.848
40.7202
163.511
55.1763
104.825
40.1239
163.444
208.051
206.519
65.4292
208.053
206.528
171.783
296.132
171.824
296.103
397.228
397.158
174.77
298.196
174.663
298.154
33.4701
34.0487
34.0674
34.1424
33.9894
34.2889
34.114
108.149
165.62
42.324
55.8691
107.96
165.54
41.8746
398.915
398.815
105.009
40.4775
163.473
54.6301
104.919
39.9579
163.48
208.068
206.552
65.6092
208.088
206.542
171.825
296.182
171.81
296.141
397.304
397.2
174.811
298.255
174.778
298.198
33.5478
34.0411
33.8217
33.8508
33.9486
34.2238
34.1017
108.26
165.658
42.3336
55.454
108.138
165.635
41.6067
399
398.889
105.125
40.5562
163.546
54.5148
105.132
40.2125
163.528
208.117
206.573
65.7
208.133
206.588
171.815
296.211
171.813
296.168
397.365
397.269
174.893
298.291
174.811
298.219
33.5328
33.6906
33.926
33.8846
33.916
34.2045
34.1604
108.291
165.687
42.2272
55.4542
108.146
165.659
41.8387
399.06
398.935
105.195
40.6825
163.572
54.5981
105.141
40.2549
163.572
208.127
206.621
65.8538
208.144
206.635
171.792
296.231
171.827
296.181
397.391
397.256
174.973
298.313
174.859
298.24
33.6439
33.9128
33.945
33.6248
33.9518
34.1373
34.2334
108.169
165.678
42.2529
55.7117
108.134
165.64
41.792
399.091
398.956
105.21
40.6071
163.618
54.6615
105.221
40.2899
163.555
208.164
206.655
65.9041
208.177
206.663
171.837
296.251
171.813
296.193
397.399
397.288
174.95
298.326
174.829
298.253
33.8071
33.8365
33.9872
33.9101
34.046
34.0999
34.2654
108.257
165.733
42.1054
55.348
108.11
165.666
41.3294
399.116
398.977
105.232
40.5697
163.608
54.4429
105.219
40.0905
163.599
208.182
206.689
65.8771
208.189
206.676
171.871
296.258
171.868
296.197
397.404
397.266
174.923
298.328
174.927
298.251
33.8385
33.5231
33.9749
33.6315
34.0906
34.1358
34.183
108.227
165.773
42.2662
55.5937
108.173
165.672
41.4963
399.131
398.984
105.194
40.4843
163.618
54.537
105.148
39.9584
163.666
208.178
206.686
65.7926
208.182
206.663
171.877
296.255
171.854
296.193
397.412
397.304
174.91
298.322
174.893
298.253
33.8088
33.6402
33.8663
33.757
34.0476
34.1306
34.0855
108.211
165.711
42.4022
55.9558
108.176
165.707
41.9897
399.129
398.976
105.331
40.5506
163.711
54.571
105.235
40.1796
163.66
208.197
206.689
65.8161
208.194
206.686
171.853
296.257
171.873
296.195
397.427
397.292
174.884
298.339
174.902
298.259
33.7439
33.6522
33.8554
33.7131
33.9394
34.0262
34.0713
108.218
165.725
42.2724
55.3793
108.12
165.699
41.6364
399.118
398.958
105.314
40.5768
163.702
54.0309
105.337
39.7211
163.716
208.205
206.698
65.9517
208.201
206.693
171.872
296.253
171.882
296.192
397.437
397.327
174.981
298.341
174.84
298.254
33.6924
33.7568
33.8132
33.4817
33.9242
33.9263
34.1317
108.262
165.84
42.1978
55.3628
108.202
165.856
41.6986
399.101
398.945
105.253
40.5804
163.745
54.6803
105.415
40.0347
163.644
208.193
206.722
65.9267
208.19
206.7
171.824
296.259
171.837
296.207
397.437
397.305
174.951
298.333
174.914
298.244
33.4009
33.5526
33.6516
33.7375
33.9487
33.8821
34.0341
108.296
165.868
42.2766
55.9982
108.134
165.856
41.918
399.095
398.945
105.18
40.4782
163.781
54.0541
105.238
40.0787
163.712
208.213
206.706
65.8638
208.206
206.694
171.793
296.27
171.853
296.215
397.447
397.343
174.916
298.324
174.897
298.237
33.6891
33.5787
33.5835
33.411
33.8579
33.9055
34.0353
108.235
165.85
42.3226
55.7438
108.197
165.85
41.9518
399.092
398.945
105.18
40.5952
163.721
54.6911
105.234
40.1509
163.732
208.218
206.71
65.8783
208.207
206.696
171.868
296.273
171.843
296.213
397.461
397.329
174.94
298.323
174.875
298.245
33.5081
33.5296
33.8485
33.3713
33.8413
34.0133
34.0175
108.221
165.83
42.2451
55.8141
108.145
165.789
41.5479
399.104
398.956
105.38
40.4526
163.752
54.1129
105.348
39.8132
163.676
208.228
206.722
65.9526
208.217
206.7
171.855
296.274
171.875
296.217
397.475
397.362
174.94
298.324
174.916
298.242
33.6057
33.6109
33.7766
33.4044
33.9021
33.9783
34.0104
108.326
165.881
42.3432
55.8371
108.181
165.813
41.8907
399.104
398.949
105.291
40.6845
163.742
54.7753
105.394
40.0598
163.744
208.23
206.72
65.9986
208.244
206.698
171.883
296.274
171.9
296.217
397.471
397.331
174.88
298.334
174.88
298.261
33.59
33.4274
33.6959
33.6178
33.9508
108.193
165.847
42.3472
55.8994
108.231
165.757
41.5231
399.112
398.931
105.087
40.4378
163.772
54.9662
105.253
39.9047
163.728
208.248
206.713
65.8767
208.244
206.692
171.434
295.987
295.954
171.292
104.453
162.877
40.6825
54.7586
40.3628
104.074
163.206
104.399
163.327
40.8873
54.9223
163.345
40.4813
104.006
171.453
295.943
171.474
296.006
171.273
295.966
296.055
171.586
103.57
54.8012
163.355
40.7446
40.1647
104.711
163.06
104.176
54.6885
163.426
40.7992
163.398
40.2488
104.669
206.554
208.004
65.0413
206.523
208.081
398.539
398.478
396.962
397.082
64.1546
206.502
208.076
206.536
208.049
398.507
398.692
107.7
165.281
42.004
56.2774
42.675
106.928
165.608
174.617
298.086
297.966
174.256
107.67
42.4042
165.071
56.334
42.4772
165.399
107.042
174.4
297.959
174.708
298.057
107.243
56.4457
165.6
42.7152
42.5751
107.94
165.388
174.355
297.991
298.093
174.67
107.039
56.4442
42.7107
165.404
42.5234
165.116
107.854
174.503
297.984
297.937
174.457
107.71
42.3455
165.455
55.6812
41.5535
165.493
107.516
174.489
297.952
297.915
174.368
107.199
55.7115
165.512
42.2709
165.123
41.7697
107.819
174.242
297.973
298.069
174.534
107.195
56.4331
42.4318
165.527
42.2626
165.254
107.896
174.242
297.947
298.057
174.568
207.963
206.379
65.3318
207.961
206.394
397.056
396.904
398.575
398.738
64.7076
207.979
206.366
207.947
206.4
396.943
397.078
104.696
40.9206
163.615
54.5289
40.4318
163.578
104.712
171.574
296.039
295.939
171.629
171.577
295.995
295.948
171.616
103.864
54.8855
40.4153
163.457
40.2255
163.298
104.677
104.239
55.2369
40.8583
163.579
40.2924
163.613
104.792
171.511
295.97
296.051
171.536
171.378
295.963
296.056
171.563
398.486
398.386
396.964
396.867
64.3893
207.971
206.486
207.978
206.509
398.425
398.593
396.904
397.029
397.067
396.929
398.712
398.551
206.375
208.158
65.3213
206.391
208.184
396.965
397.094
398.6
398.763
64.0473
206.413
208.174
206.396
208.156
171.694
296.077
171.605
296.001
104.83
163.256
40.5114
55.3715
104.423
163.404
40.226
104.85
163.296
40.4675
54.8044
104.388
163.5
40.6004
171.615
296.013
296.083
171.742
171.625
296.03
296.109
171.739
104.574
54.8664
163.448
40.7013
163.227
40.1414
104.946
104.487
54.711
163.488
40.6888
163.412
40.5457
104.829
206.514
208.083
64.8722
206.492
208.051
398.718
398.541
397.028
397.171
64.0867
206.451
208.054
206.455
208.059
398.581
398.751
108.024
165.531
42.1066
55.7419
107.432
165.663
42.3214
174.721
298.135
174.512
298.039
107.996
42.1967
165.11
56.5933
107.424
41.8544
165.378
174.498
298.05
298.139
174.789
107.5
56.5105
165.693
42.5997
165.352
42.388
108.106
174.566
298.088
298.178
174.744
107.486
56.5689
42.7315
165.542
42.6146
165.254
108.078
174.542
298.118
174.265
298.014
107.889
41.8476
165.432
56.4634
107.355
41.5271
165.528
174.662
298.1
174.304
297.995
107.403
56.1323
165.511
41.8962
165.245
42.231
107.775
174.427
298.05
298.15
174.584
107.15
55.9653
42.4481
165.55
42.3019
165.235
107.794
174.454
298.043
298.139
174.616
208.011
206.37
65.0996
208.064
206.372
397.119
396.995
398.679
398.848
64.5691
208.074
206.396
208.042
206.393
397.041
397.169
104.765
40.5584
163.501
55.0908
104.428
40.6909
163.56
171.602
296.082
171.449
296.002
171.54
296.078
171.477
295.995
103.962
55.0149
40.1555
163.482
40.2494
163.357
104.703
103.792
55.1963
40.8431
163.558
40.6908
163.369
104.799
171.588
296.049
296.117
171.527
171.549
296.027
296.108
171.549
398.644
398.486
397.074
396.953
64.2388
208.035
206.497
208.033
206.504
398.542
398.701
397.003
397.125
397.142
397.018
398.827
398.665
206.422
208.177
65.097
206.398
208.182
397.058
397.185
398.705
398.874
64.7404
206.39
208.166
206.405
208.14
171.776
296.141
171.701
296.062
104.853
163.373
40.3527
55.2767
104.245
163.462
40.4764
104.91
163.284
39.8868
55.094
104.598
163.525
40.5473
171.627
296.076
296.154
171.818
171.691
296.078
296.156
171.782
104.183
55.3272
163.472
40.6126
163.337
40.4509
104.784
104.491
55.072
163.488
40.5818
163.309
40.3027
104.994
206.411
208.068
64.9108
206.483
208.161
398.794
398.673
397.106
397.213
63.9167
206.528
208.131
206.518
208.118
398.702
398.888
107.967
165.47
42.1278
56.4876
107.3
165.65
41.757
174.785
298.233
174.519
298.129
107.995
42.1435
165.402
56.4644
107.527
42.3831
165.456
174.519
298.118
298.217
174.749
107.387
56.2751
165.671
42.6148
165.373
42.4902
107.982
174.512
298.154
298.261
174.721
107.255
56.5614
42.5778
165.517
42.4321
165.441
107.876
174.615
298.189
174.332
298.088
107.816
41.8631
165.284
55.5979
107.307
42.1306
165.443
174.655
298.192
174.33
298.086
107.323
56.0952
165.632
42.1535
165.236
42.1343
107.963
174.348
298.128
298.22
174.661
107.01
56.4245
42.3952
165.495
42.1965
165.302
107.966
174.36
298.121
298.227
174.677
208.071
206.403
65.0843
208.078
206.396
397.216
397.089
398.766
398.934
64.4706
208.077
206.403
208.058
206.415
397.125
397.255
104.652
40.4057
163.349
55.0903
104.298
40.1455
163.516
171.503
296.16
171.442
296.079
171.469
296.143
171.54
296.069
104.434
54.8379
40.312
163.33
39.8056
163.398
104.459
104.004
54.8751
40.856
163.592
40.7808
163.533
104.64
171.591
296.106
296.187
171.613
171.534
296.097
296.179
171.56
398.759
398.6
397.176
397.057
64.5733
208.047
206.53
208.048
206.54
398.647
398.809
397.1
397.223
397.23
397.109
398.922
398.758
206.394
208.154
65.2847
206.384
208.167
397.148
397.271
398.79
398.957
64.8987
206.407
208.182
206.402
208.156
171.751
296.18
171.748
296.102
104.856
163.295
39.8799
55.0504
104.353
163.414
40.4933
104.962
163.244
40.2127
55.0364
104.671
163.443
39.9625
171.764
296.121
296.203
171.805
171.775
296.12
296.199
171.752
104.227
55.1052
163.392
40.7561
163.47
40.2524
105.031
104.35
55.1495
163.468
40.5842
163.425
40.3698
104.923
206.526
208.124
64.8801
206.495
208.092
398.908
398.732
397.187
397.32
64.1581
206.491
208.11
206.498
208.109
398.768
398.935
107.962
165.384
41.6491
55.9854
107.422
165.686
42.2627
174.762
298.286
174.499
298.182
107.974
42.0877
165.239
56.4751
107.379
42.3376
165.487
174.516
298.174
298.28
174.796
107.466
56.4587
165.587
42.5704
165.52
42.0182
108.131
174.569
298.199
298.303
174.734
107.657
56.2419
42.6124
165.492
42.4015
165.203
108.216
174.716
298.262
174.436
298.151
108.147
42.0125
165.347
56.2919
107.57
42.1849
165.587
174.708
298.263
174.439
298.155
107.745
55.9799
165.624
42.1986
165.278
41.7236
108.155
174.521
298.184
298.278
174.677
107.785
56.4108
42.4026
165.544
42.284
165.398
108.264
174.463
298.176
298.288
174.729
208.083
206.417
65.0623
208.095
206.417
397.293
397.17
398.85
399.02
64.3087
208.085
206.443
208.087
206.436
397.204
397.333
104.803
39.937
163.408
54.2778
104.278
40.5807
163.572
171.605
296.211
171.381
296.13
171.524
296.206
171.472
296.126
104.217
54.3031
40.3372
163.506
40.2203
163.293
105.03
104.284
55.1116
40.6892
163.524
40.5265
163.464
104.941
171.66
296.154
296.23
171.687
171.595
296.15
296.23
171.631
398.856
398.695
397.264
397.142
64.477
208.083
206.548
208.082
206.559
398.729
398.894
397.176
397.3
397.315
397.185
398.997
398.828
206.414
208.19
65.3048
206.414
208.217
397.204
397.335
398.849
399.019
64.4238
206.418
208.247
206.405
208.216
171.744
296.222
171.651
296.136
104.986
163.419
40.4614
55.0732
104.38
163.471
40.0792
104.974
163.327
40.154
54.738
104.298
163.442
40.3651
171.712
296.154
296.232
171.755
171.627
296.153
296.228
171.77
104.58
55.1339
163.486
40.5898
163.37
40.3106
105.066
104.543
54.7032
163.474
40.601
163.336
40.4076
105.183
206.451
208.124
65.1938
206.503
208.22
398.968
398.84
397.244
397.355
64.5996
206.532
208.2
206.53
208.174
398.854
399.038
108.249
165.465
42.259
56.2628
107.525
165.689
41.8586
174.801
298.327
174.486
298.212
108.253
41.9288
165.355
56.5904
107.859
42.5194
165.449
174.566
298.208
298.312
174.808
107.836
56.2727
165.615
42.3738
165.424
42.0854
108.364
174.567
298.222
298.327
174.804
107.734
56.2324
42.7038
165.535
42.2151
165.313
108.191
174.752
298.317
174.426
298.21
108.247
41.8958
165.357
56.2906
107.861
42.1157
165.543
174.748
298.31
174.481
298.2
107.838
55.2584
165.662
42.0283
165.377
41.4614
108.167
174.497
298.236
298.333
174.693
107.816
56.3228
42.4321
165.613
42.2011
165.538
108.251
174.439
298.221
298.328
174.689
208.091
206.454
65.2661
208.092
206.448
397.37
397.238
398.91
399.084
64.7036
208.085
206.437
208.055
206.441
397.256
397.393
105.015
40.1332
163.576
55.1325
104.604
40.3852
163.594
171.68
296.254
171.565
296.17
171.687
296.255
171.509
296.164
104.22
54.7985
40.5443
163.451
40.0758
163.338
105.017
104.056
54.8873
40.6635
163.649
40.5178
163.425
105.11
171.616
296.184
296.265
171.685
171.594
296.182
296.261
171.648
398.928
398.76
397.331
397.203
64.9726
208.108
206.597
208.112
206.602
398.775
398.946
397.221
397.349
397.356
397.217
399.042
398.858
206.423
208.243
65.6335
206.449
208.235
397.223
397.357
398.866
399.039
64.796
206.457
208.24
206.455
208.235
171.802
296.252
171.614
296.174
105.054
163.288
40.2068
55.187
104.36
163.497
40.407
105.101
163.374
40.1061
55.2387
104.74
163.539
40.3475
171.77
296.173
296.256
171.754
171.613
296.183
296.262
171.774
104.391
55.2727
163.529
40.564
163.513
40.4007
104.94
104.658
54.6858
163.513
40.537
163.354
40.3563
105.102
206.546
208.179
65.3194
206.517
208.164
399.042
398.863
397.274
397.41
64.8534
206.527
208.133
206.521
208.135
398.878
399.05
108.213
165.636
42.0559
56.269
107.963
165.714
41.8822
174.872
298.339
174.531
298.235
108.146
42.2496
165.199
56.3956
107.645
42.3359
165.531
174.652
298.231
298.331
174.865
107.654
56.3753
165.748
42.4582
165.471
41.8645
108.354
174.596
298.243
298.345
174.821
107.645
56.364
42.4902
165.583
42.3181
165.268
108.272
174.763
298.361
174.49
298.244
108.181
41.8246
165.566
55.9273
107.849
42.4356
165.629
174.724
298.347
174.53
298.228
107.889
55.7445
165.686
42.1371
165.376
42.0034
107.939
174.556
298.256
298.359
174.736
107.848
56.644
42.5554
165.631
42.0453
165.447
108.309
174.561
298.244
298.348
174.662
208.088
206.434
65.1864
208.105
206.458
397.412
397.278
398.943
399.121
64.67
208.107
206.499
208.076
206.482
397.295
397.426
105.152
39.8367
163.543
54.7013
104.756
40.4904
163.663
171.676
296.28
171.553
296.194
171.704
296.28
171.715
296.197
104.838
54.3722
40.0347
163.596
40.0937
163.442
104.826
104.849
55.1366
40.7495
163.727
40.2087
163.686
105.094
171.552
296.21
296.285
171.7
171.585
296.202
296.288
171.721
398.959
398.786
397.359
397.224
65.3647
208.147
206.633
208.144
206.638
398.801
398.966
397.229
397.358
397.362
397.218
399.051
398.873
206.458
208.233
65.3918
206.463
208.243
397.221
397.35
398.879
399.047
64.5237
206.458
208.264
206.447
208.232
171.761
296.275
171.811
296.193
104.99
163.369
40.0214
55.0926