/*--------------------------------*- C++ -*----------------------------------*\
| =========                 |                                                 |
| \\      /  F ield         | OpenFOAM: The Open Source CFD Toolbox           |
|  \\    /   O peration     | Version:  2206                                  |
|   \\  /    A nd           | Website:  www.openfoam.com                      |
|    \\/     M anipulation  |                                                 |
\*---------------------------------------------------------------------------*/
FoamFile
{
    version     2.0;
    format      ascii;
    arch        "LSB;label=32;scalar=64";
    class       volScalarField;
    location    "50";
    object      k;
}
// * * * * * * * * * * * * * * * * * * * * * * * * * * * * * * * * * * * * * //

dimensions      [0 2 -2 0 0 0 0];

internalField   nonuniform List<scalar> 
66616
(
3.57156e-05
3.6545e-05
3.65335e-05
3.71632e-05
3.39696e-05
3.50272e-05
3.50021e-05
3.58209e-05
3.22477e-05
3.29332e-05
3.29271e-05
3.30097e-05
3.04914e-05
3.07077e-05
3.0718e-05
2.96839e-05
2.87653e-05
2.88831e-05
2.88924e-05
2.75162e-05
2.72575e-05
2.78173e-05
2.77848e-05
2.66791e-05
2.60684e-05
2.72568e-05
2.71943e-05
2.637e-05
2.52838e-05
2.71691e-05
2.70936e-05
2.63109e-05
2.48711e-05
2.72695e-05
2.71911e-05
2.63366e-05
2.4735e-05
2.75789e-05
2.75335e-05
2.66294e-05
2.46415e-05
2.78661e-05
2.78195e-05
2.70318e-05
2.44573e-05
2.8143e-05
2.81488e-05
2.72057e-05
3.72867e-05
3.65928e-05
3.65951e-05
3.72893e-05
3.65902e-05
3.65891e-05
3.60996e-05
3.6102e-05
3.61027e-05
3.61013e-05
3.65955e-05
3.65912e-05
3.72871e-05
3.65993e-05
3.65991e-05
3.7291e-05
3.71583e-05
3.59794e-05
3.65445e-05
3.65432e-05
3.5442e-05
3.54377e-05
3.71602e-05
3.59795e-05
3.65554e-05
3.65582e-05
3.5461e-05
3.54667e-05
3.65641e-05
3.54799e-05
3.54683e-05
3.7159e-05
3.59793e-05
3.65462e-05
3.54512e-05
3.54398e-05
3.59798e-05
3.5822e-05
3.33644e-05
3.50261e-05
3.50288e-05
3.34902e-05
3.34911e-05
3.58233e-05
3.33936e-05
3.50508e-05
3.50556e-05
3.34821e-05
3.3494e-05
3.50551e-05
3.34981e-05
3.34922e-05
3.58244e-05
3.33775e-05
3.50198e-05
3.34908e-05
3.34858e-05
3.33757e-05
3.30035e-05
3.00469e-05
3.29557e-05
3.29706e-05
3.12848e-05
3.12827e-05
3.30442e-05
3.00696e-05
3.29383e-05
3.29546e-05
3.1265e-05
3.1259e-05
3.29431e-05
3.12611e-05
3.12845e-05
3.30214e-05
3.00573e-05
3.29498e-05
3.12707e-05
3.12774e-05
3.00551e-05
2.96938e-05
2.77013e-05
3.07814e-05
3.07725e-05
2.93293e-05
2.93298e-05
2.97189e-05
2.77169e-05
3.0739e-05
3.0731e-05
2.93081e-05
2.92891e-05
3.07517e-05
2.92841e-05
2.93038e-05
2.97103e-05
2.76862e-05
3.07679e-05
2.929e-05
2.93218e-05
2.77128e-05
2.7521e-05
2.67989e-05
2.89693e-05
2.89648e-05
2.80917e-05
2.80863e-05
2.75355e-05
2.68433e-05
2.89421e-05
2.89159e-05
2.80833e-05
2.80397e-05
2.89291e-05
2.80337e-05
2.80336e-05
2.75013e-05
2.67489e-05
2.89532e-05
2.80075e-05
2.80613e-05
2.6767e-05
2.67204e-05
2.64181e-05
2.78728e-05
2.78872e-05
2.74051e-05
2.74192e-05
2.67793e-05
2.65111e-05
2.78749e-05
2.78432e-05
2.73794e-05
2.73493e-05
2.78279e-05
2.73558e-05
2.73207e-05
2.66636e-05
2.6353e-05
2.78486e-05
2.72961e-05
2.73524e-05
2.64251e-05
2.6426e-05
2.64467e-05
2.73043e-05
2.73174e-05
2.7189e-05
2.72155e-05
2.64836e-05
2.64462e-05
2.72875e-05
2.72685e-05
2.71797e-05
2.71635e-05
2.72065e-05
2.71431e-05
2.70673e-05
2.63819e-05
2.63728e-05
2.7253e-05
2.71029e-05
2.71383e-05
2.6321e-05
2.64e-05
2.64782e-05
2.71849e-05
2.72218e-05
2.72338e-05
2.72982e-05
2.64564e-05
2.65019e-05
2.71718e-05
2.71701e-05
2.72399e-05
2.72201e-05
2.70776e-05
2.72179e-05
2.71003e-05
2.638e-05
2.64131e-05
2.71468e-05
2.71437e-05
2.71842e-05
2.63278e-05
2.64815e-05
2.67142e-05
2.72804e-05
2.73598e-05
2.75153e-05
2.74905e-05
2.65267e-05
2.65953e-05
2.73126e-05
2.73034e-05
2.74973e-05
2.75193e-05
2.71696e-05
2.74965e-05
2.74297e-05
2.64214e-05
2.66591e-05
2.72319e-05
2.74428e-05
2.74701e-05
2.66022e-05
2.67491e-05
2.69525e-05
2.76109e-05
2.75447e-05
2.77979e-05
2.7695e-05
2.6624e-05
2.69379e-05
2.75699e-05
2.76087e-05
2.77671e-05
2.77985e-05
2.75632e-05
2.77779e-05
2.77666e-05
2.66892e-05
2.7011e-05
2.75696e-05
2.77735e-05
2.77933e-05
2.70118e-05
2.69855e-05
2.7214e-05
2.78716e-05
2.77474e-05
2.80833e-05
2.78896e-05
2.69608e-05
2.71305e-05
2.78315e-05
2.78573e-05
2.80142e-05
2.80434e-05
2.78537e-05
2.79985e-05
2.80404e-05
2.7027e-05
2.72908e-05
2.78617e-05
2.80141e-05
2.80448e-05
2.72068e-05
2.71676e-05
2.81157e-05
2.80326e-05
2.71275e-05
2.81187e-05
2.81642e-05
2.81194e-05
2.72579e-05
2.81714e-05
3.67035e-05
3.68581e-05
3.67401e-05
3.67395e-05
3.78597e-05
3.70176e-05
4.05078e-05
3.68042e-05
3.78573e-05
3.70181e-05
3.68049e-05
4.05115e-05
3.73227e-05
4.24015e-05
4.23807e-05
4.04393e-05
1.69818e-05
4.23817e-05
1.33849e-05
1.95471e-05
1.16355e-05
4.03524e-05
1.699e-05
4.23561e-05
1.33674e-05
3.57099e-05
3.57108e-05
3.5715e-05
3.43828e-05
3.43878e-05
3.43878e-05
3.43862e-05
3.85293e-05
3.97562e-05
3.6048e-05
3.61938e-05
3.88944e-05
3.61362e-05
3.56234e-05
1.95655e-05
1.1642e-05
3.85338e-05
3.60491e-05
3.97554e-05
3.62082e-05
3.8903e-05
3.56246e-05
3.61328e-05
3.4406e-05
3.44154e-05
3.66397e-05
2.8471e-05
2.84449e-05
3.02494e-05
8.38505e-06
3.42976e-05
7.59553e-06
6.92261e-06
6.3913e-06
2.96223e-05
8.2332e-06
3.41779e-05
7.48706e-06
3.39645e-05
3.39653e-05
3.39688e-05
3.26747e-05
3.26779e-05
3.26808e-05
3.26807e-05
3.41159e-05
2.8419e-05
3.43926e-05
3.45611e-05
3.63864e-05
2.47723e-05
3.3962e-05
6.88312e-06
6.34882e-06
3.42989e-05
3.4341e-05
2.8658e-05
3.45438e-05
3.63757e-05
3.39092e-05
2.52314e-05
1.99923e-05
2.01631e-05
3.48873e-05
1.70258e-05
1.72096e-05
2.3595e-05
7.5721e-06
2.5649e-05
7.64896e-06
5.92912e-06
5.72256e-06
2.3059e-05
7.38981e-06
2.51149e-05
7.46805e-06
3.22435e-05
3.22428e-05
3.22452e-05
3.09231e-05
3.09265e-05
3.09284e-05
3.09309e-05
2.88723e-05
2.18131e-05
3.25627e-05
3.23825e-05
3.06603e-05
2.04506e-05
3.20827e-05
5.84188e-06
5.60007e-06
2.92529e-05
3.25427e-05
2.19918e-05
3.23792e-05
3.09791e-05
3.20688e-05
2.07164e-05
1.43946e-05
1.46177e-05
3.16883e-05
1.33668e-05
1.37463e-05
2.1469e-05
7.78141e-06
2.15803e-05
7.98591e-06
5.69459e-06
5.74209e-06
2.10085e-05
7.59818e-06
2.12704e-05
7.81147e-06
3.04828e-05
3.04796e-05
3.0488e-05
2.91757e-05
2.91775e-05
2.91762e-05
2.91821e-05
2.58431e-05
1.99768e-05
3.06255e-05
3.01947e-05
2.66869e-05
1.99238e-05
3.01496e-05
5.49662e-06
5.54472e-06
2.60517e-05
3.06486e-05
1.9905e-05
3.02105e-05
2.70267e-05
3.01819e-05
1.99452e-05
1.2907e-05
1.31167e-05
2.867e-05
1.28922e-05
1.31168e-05
2.06556e-05
8.6573e-06
2.09467e-05
8.90475e-06
5.96096e-06
5.99282e-06
2.08349e-05
8.53205e-06
2.11057e-05
8.8374e-06
2.87532e-05
2.87503e-05
2.87578e-05
2.76036e-05
2.7602e-05
2.7593e-05
2.76014e-05
2.49733e-05
2.01507e-05
2.88889e-05
2.85593e-05
2.52236e-05
2.02221e-05
2.85327e-05
5.80825e-06
5.84232e-06
2.49118e-05
2.89295e-05
2.02603e-05
2.85522e-05
2.51072e-05
2.85706e-05
2.01242e-05
1.29136e-05
1.32499e-05
2.71225e-05
1.28597e-05
1.315e-05
2.01612e-05
9.12869e-06
2.05265e-05
9.10214e-06
5.89649e-06
5.8115e-06
2.00772e-05
8.95945e-06
2.03046e-05
8.95424e-06
2.72445e-05
2.7237e-05
2.72467e-05
2.63297e-05
2.63335e-05
2.63114e-05
2.63257e-05
2.42744e-05
2.00182e-05
2.76893e-05
2.7632e-05
2.44587e-05
2.0022e-05
2.74565e-05
5.76888e-06
5.71881e-06
2.44635e-05
2.77052e-05
2.01661e-05
2.75905e-05
2.43886e-05
2.74637e-05
1.99412e-05
1.25609e-05
1.29977e-05
2.65284e-05
1.23674e-05
1.26654e-05
1.98548e-05
8.98784e-06
1.98956e-05
8.9718e-06
5.72194e-06
5.66805e-06
1.9811e-05
8.74149e-06
1.97605e-05
8.67937e-06
2.60635e-05
2.60432e-05
2.60554e-05
2.54427e-05
2.54566e-05
2.5422e-05
2.5435e-05
2.43102e-05
1.99542e-05
2.6983e-05
2.71807e-05
2.42824e-05
1.97822e-05
2.68794e-05
5.66214e-06
5.64625e-06
2.44414e-05
2.69773e-05
1.98433e-05
2.71223e-05
2.44171e-05
2.68819e-05
1.98909e-05
1.2301e-05
1.26226e-05
2.63646e-05
1.23226e-05
1.25895e-05
1.98299e-05
8.91472e-06
1.98093e-05
8.94857e-06
5.6008e-06
5.61255e-06
1.95025e-05
8.72007e-06
1.98206e-05
8.74065e-06
2.52903e-05
2.52543e-05
2.5267e-05
2.49498e-05
2.49716e-05
2.49328e-05
2.49334e-05
2.4276e-05
1.99295e-05
2.67748e-05
2.71729e-05
2.42634e-05
1.97382e-05
2.67544e-05
5.65718e-06
5.65794e-06
2.44361e-05
2.67551e-05
1.98216e-05
2.71314e-05
2.43718e-05
2.67332e-05
1.96401e-05
1.22643e-05
1.26015e-05
2.629e-05
1.23216e-05
1.26131e-05
1.98916e-05
8.97586e-06
1.97122e-05
9.03425e-06
5.60854e-06
5.63912e-06
1.97182e-05
8.75802e-06
1.95962e-05
8.81424e-06
2.48862e-05
2.48526e-05
2.4858e-05
2.47624e-05
2.47641e-05
2.47468e-05
2.47674e-05
2.42578e-05
1.99502e-05
2.68416e-05
2.73284e-05
2.4302e-05
1.98084e-05
2.68969e-05
5.70661e-06
5.71791e-06
2.45199e-05
2.68286e-05
1.97263e-05
2.72583e-05
2.44978e-05
2.68915e-05
1.96275e-05
1.23293e-05
1.25932e-05
2.64417e-05
1.23962e-05
1.26382e-05
1.99375e-05
9.09916e-06
1.98235e-05
9.13914e-06
5.66877e-06
5.67817e-06
1.99292e-05
8.8914e-06
1.99139e-05
8.93561e-06
2.47311e-05
2.47205e-05
2.47557e-05
2.46751e-05
2.46684e-05
2.46578e-05
2.47144e-05
2.46665e-05
2.01832e-05
2.71344e-05
2.76409e-05
2.46051e-05
2.0354e-05
2.7183e-05
5.76505e-06
5.79576e-06
2.42901e-05
2.70944e-05
2.00875e-05
2.76178e-05
2.44017e-05
2.71673e-05
2.03629e-05
1.26244e-05
1.27755e-05
2.674e-05
1.26539e-05
1.28096e-05
2.01837e-05
9.21812e-06
2.01582e-05
9.32155e-06
5.73502e-06
5.76825e-06
2.01445e-05
9.04628e-06
2.02235e-05
9.00416e-06
2.46324e-05
2.4628e-05
2.46886e-05
2.4539e-05
2.45353e-05
2.4529e-05
2.45985e-05
2.50616e-05
2.07138e-05
2.73353e-05
2.79303e-05
2.49659e-05
2.07681e-05
2.73679e-05
5.86766e-06
5.89757e-06
2.4893e-05
2.73125e-05
2.06348e-05
2.78958e-05
2.48181e-05
2.73519e-05
2.08707e-05
1.28478e-05
1.29882e-05
2.70997e-05
1.2828e-05
1.29477e-05
1.97145e-05
9.34251e-06
1.99871e-05
9.09691e-06
5.8051e-06
5.75104e-06
9.003e-06
2.03282e-05
2.44581e-05
2.44658e-05
2.45195e-05
2.4917e-05
2.08518e-05
2.74558e-05
2.81475e-05
2.51745e-05
2.06919e-05
2.74655e-05
5.93518e-06
2.42336e-05
2.74313e-05
2.08812e-05
2.45673e-05
2.74353e-05
1.29207e-05
1.30843e-05
2.71707e-05
1.2867e-05
1.28565e-05
3.73172e-05
4.24325e-05
4.24383e-05
8.55752e-06
4.10874e-05
8.55782e-06
4.10976e-05
3.73464e-05
3.44072e-05
3.44019e-05
4.38925e-05
4.39021e-05
3.78575e-05
3.70159e-05
4.0507e-05
3.68054e-05
3.7859e-05
3.70175e-05
4.05106e-05
3.6803e-05
3.94268e-05
4.29063e-06
4.36506e-05
4.25926e-05
3.94293e-05
4.40557e-06
4.35682e-05
4.25709e-05
3.82361e-05
3.69222e-05
4.05546e-05
3.64324e-05
4.19854e-05
3.66838e-05
3.89334e-05
3.82375e-05
3.6923e-05
4.04988e-05
3.64335e-05
4.19848e-05
3.66815e-05
3.89321e-05
3.73191e-05
4.24026e-05
4.24219e-05
8.57569e-06
4.10682e-05
3.73481e-05
3.43615e-05
3.43978e-05
4.39116e-05
4.38852e-05
8.54757e-06
4.10544e-05
3.78583e-05
3.70162e-05
4.05089e-05
3.68057e-05
3.78615e-05
3.70145e-05
3.68053e-05
4.051e-05
3.94279e-05
4.29071e-06
4.36479e-05
4.25749e-05
3.8232e-05
3.69223e-05
4.05567e-05
3.64333e-05
4.19909e-05
3.66841e-05
3.89198e-05
3.94287e-05
4.29122e-06
4.35826e-05
4.2577e-05
3.82347e-05
3.69225e-05
3.64331e-05
4.05535e-05
3.66836e-05
4.19759e-05
3.89217e-05
3.67059e-05
3.68566e-05
3.67363e-05
3.674e-05
3.6706e-05
3.68564e-05
3.67366e-05
3.67375e-05
3.67058e-05
3.68578e-05
3.67386e-05
3.67401e-05
3.64779e-05
3.66554e-05
3.59577e-05
3.59555e-05
3.65477e-05
3.65468e-05
3.5848e-05
3.64795e-05
3.66548e-05
3.59577e-05
3.59571e-05
3.65452e-05
3.65477e-05
3.58481e-05
3.64795e-05
3.66549e-05
3.59549e-05
3.59598e-05
3.65448e-05
3.65469e-05
3.58477e-05
3.64792e-05
3.66556e-05
3.59553e-05
3.59609e-05
3.65461e-05
3.65491e-05
3.58477e-05
3.78597e-05
3.70165e-05
3.68028e-05
4.05153e-05
3.82347e-05
3.69225e-05
4.05554e-05
3.6433e-05
4.1981e-05
3.66826e-05
3.89215e-05
3.94294e-05
4.28392e-06
4.35367e-05
4.25758e-05
3.82383e-05
3.69254e-05
3.64314e-05
4.05607e-05
3.66815e-05
4.19835e-05
3.89306e-05
3.94313e-05
4.28866e-06
4.36352e-05
4.2571e-05
3.73215e-05
4.23832e-05
4.24167e-05
8.55322e-06
4.10552e-05
3.73499e-05
3.43631e-05
3.43941e-05
4.38969e-05
4.38741e-05
8.54724e-06
4.10496e-05
3.78593e-05
3.70189e-05
3.6803e-05
4.05072e-05
3.82362e-05
3.69212e-05
3.64355e-05
4.05546e-05
3.66834e-05
4.19861e-05
3.8931e-05
3.82376e-05
3.69235e-05
3.64347e-05
4.05499e-05
3.66818e-05
4.1978e-05
3.893e-05
3.94295e-05
4.2957e-06
4.36539e-05
4.25718e-05
3.94315e-05
4.29488e-06
4.36494e-05
4.25685e-05
3.73516e-05
3.43779e-05
3.43671e-05
4.39135e-05
4.38954e-05
8.55405e-06
4.11007e-05
8.5624e-06
4.10635e-05
1.95334e-05
1.16531e-05
1.95402e-05
1.16607e-05
3.44484e-05
3.44395e-05
3.66362e-05
2.84436e-05
2.84653e-05
7.21273e-06
9.55504e-06
7.15809e-06
9.57209e-06
3.65476e-05
2.1492e-05
2.1316e-05
2.65619e-05
2.6544e-05
4.03841e-05
1.69592e-05
4.23782e-05
1.33624e-05
3.85342e-05
3.97588e-05
3.60511e-05
3.61995e-05
3.89055e-05
3.61349e-05
3.56198e-05
3.85322e-05
3.9716e-05
3.60478e-05
3.61986e-05
3.8904e-05
3.60996e-05
3.56208e-05
3.94839e-05
8.86136e-06
1.15206e-05
3.55777e-05
3.9601e-05
8.84363e-06
1.1522e-05
3.54683e-05
3.83283e-05
3.58396e-05
3.00828e-05
3.47568e-05
3.46269e-05
3.52125e-05
3.68646e-05
3.83326e-05
3.58403e-05
3.0043e-05
3.47568e-05
3.46052e-05
3.52097e-05
3.68583e-05
3.44102e-05
3.44345e-05
3.66373e-05
2.8394e-05
2.8459e-05
1.95412e-05
1.16346e-05
7.20079e-06
9.54471e-06
3.65477e-05
2.14653e-05
2.13075e-05
2.6549e-05
2.65487e-05
7.14002e-06
9.55884e-06
3.85273e-05
3.9761e-05
3.60525e-05
3.61777e-05
3.88924e-05
3.61248e-05
3.5621e-05
4.03614e-05
1.69846e-05
4.2372e-05
1.33465e-05
3.85257e-05
3.60519e-05
3.97742e-05
3.6182e-05
3.88943e-05
3.56198e-05
3.609e-05
3.95951e-05
8.67019e-06
1.15461e-05
3.53086e-05
3.832e-05
3.58633e-05
2.97746e-05
3.48129e-05
3.46683e-05
3.52152e-05
3.68372e-05
3.96095e-05
8.66991e-06
1.15513e-05
3.53111e-05
3.83266e-05
3.5863e-05
3.48112e-05
2.97535e-05
3.52127e-05
3.46849e-05
3.68409e-05
4.03676e-05
1.69762e-05
4.237e-05
1.33543e-05
3.8526e-05
3.60534e-05
3.97616e-05
3.61808e-05
3.88988e-05
3.5619e-05
3.61276e-05
4.03628e-05
1.6978e-05
4.23646e-05
1.33529e-05
3.83237e-05
3.58447e-05
2.97744e-05
3.48171e-05
3.46501e-05
3.52103e-05
3.68324e-05
3.96183e-05
8.65801e-06
1.15535e-05
3.53111e-05
3.83273e-05
3.58683e-05
3.48111e-05
2.97893e-05
3.52145e-05
3.46437e-05
3.68391e-05
3.96123e-05
8.6683e-06
1.1545e-05
3.53311e-05
3.44127e-05
3.44433e-05
3.66377e-05
2.84123e-05
2.84415e-05
1.95282e-05
1.16368e-05
7.13722e-06
9.56099e-06
3.65487e-05
2.1265e-05
2.15277e-05
2.65407e-05
2.65532e-05
7.22019e-06
9.54524e-06
3.85254e-05
3.60501e-05
3.97554e-05
3.62011e-05
3.89015e-05
3.56232e-05
3.61414e-05
4.03942e-05
1.69708e-05
4.23757e-05
1.33717e-05
4.03617e-05
1.69695e-05
4.23725e-05
1.33706e-05
3.83261e-05
3.5826e-05
3.4765e-05
3.00722e-05
3.52138e-05
3.46126e-05
3.68429e-05
3.83289e-05
3.58421e-05
3.47628e-05
3.01033e-05
3.5216e-05
3.46202e-05
3.68505e-05
3.95562e-05
8.85652e-06
1.15268e-05
3.55135e-05
3.95921e-05
8.85803e-06
1.15193e-05
3.54531e-05
1.95311e-05
1.16493e-05
1.95375e-05
1.16624e-05
3.65496e-05
2.13536e-05
2.15346e-05
2.64981e-05
2.65234e-05
7.15277e-06
9.55233e-06
7.23124e-06
9.55672e-06
6.92033e-06
6.37465e-06
6.88921e-06
6.34315e-06
2.02411e-05
2.00866e-05
3.48927e-05
1.7099e-05
1.69389e-05
5.96773e-06
6.28975e-06
5.90901e-06
6.27147e-06
3.46018e-05
1.49359e-05
1.4772e-05
1.66343e-05
1.64528e-05
3.01703e-05
8.40028e-06
3.44239e-05
7.56565e-06
3.4358e-05
2.8661e-05
3.43383e-05
3.45372e-05
3.63504e-05
2.52384e-05
3.38998e-05
3.42989e-05
2.86938e-05
3.43364e-05
3.45342e-05
3.63725e-05
2.51214e-05
3.38995e-05
2.92191e-05
7.51997e-06
7.55732e-06
2.63737e-05
2.92251e-05
7.52842e-06
7.52474e-06
2.63253e-05
3.36596e-05
3.40485e-05
2.25904e-05
3.29953e-05
2.45086e-05
3.34598e-05
3.15695e-05
3.36722e-05
3.40553e-05
2.25938e-05
3.29948e-05
2.44602e-05
3.3458e-05
3.15044e-05
2.02381e-05
2.00882e-05
3.48957e-05
1.72335e-05
1.69843e-05
6.88574e-06
6.3331e-06
6.00895e-06
6.30196e-06
3.46186e-05
1.50222e-05
1.48423e-05
1.66738e-05
1.64461e-05
5.92379e-06
6.26167e-06
3.41439e-05
2.84405e-05
3.43982e-05
3.45433e-05
3.63689e-05
2.47406e-05
3.39574e-05
2.97588e-05
8.22182e-06
3.42179e-05
7.45305e-06
3.41011e-05
3.43945e-05
2.84129e-05
3.45571e-05
3.63755e-05
3.39559e-05
2.47992e-05
2.872e-05
7.32411e-06
7.36601e-06
2.58093e-05
3.34792e-05
3.4047e-05
2.21159e-05
3.30376e-05
2.41207e-05
3.35082e-05
3.12661e-05
2.88437e-05
7.31343e-06
7.38092e-06
2.58641e-05
3.35172e-05
3.40586e-05
3.30349e-05
2.20246e-05
3.35032e-05
2.40786e-05
3.12443e-05
2.9619e-05
8.24395e-06
3.42183e-05
7.4342e-06
3.41349e-05
3.43964e-05
2.83655e-05
3.45553e-05
3.639e-05
3.39557e-05
2.47175e-05
2.97105e-05
8.22721e-06
3.42285e-05
7.43251e-06
3.34759e-05
3.40318e-05
2.22008e-05
3.30419e-05
2.41098e-05
3.35014e-05
3.12541e-05
2.87877e-05
7.41797e-06
7.36071e-06
2.56693e-05
3.34624e-05
3.40522e-05
3.30346e-05
2.21397e-05
3.35047e-05
2.40878e-05
3.12555e-05
2.88216e-05
7.34103e-06
7.38478e-06
2.57841e-05
2.00806e-05
2.01861e-05
3.48931e-05
1.70101e-05
1.71798e-05
6.90615e-06
6.38083e-06
5.93018e-06
6.24767e-06
3.46117e-05
1.48913e-05
1.49277e-05
1.63839e-05
1.66272e-05
5.97465e-06
6.29497e-06
3.42861e-05
3.43438e-05
2.86378e-05
3.45335e-05
3.63721e-05
3.39075e-05
2.52265e-05
3.01811e-05
8.3844e-06
3.44051e-05
7.59793e-06
3.02283e-05
8.38636e-06
3.43911e-05
7.56249e-06
3.3666e-05
3.40188e-05
3.30054e-05
2.24108e-05
3.34634e-05
2.44398e-05
3.15575e-05
3.36778e-05
3.40343e-05
3.30044e-05
2.25383e-05
3.34657e-05
2.44555e-05
3.15038e-05
2.9288e-05
7.52028e-06
7.49816e-06
2.62912e-05
2.92882e-05
7.53182e-06
7.54104e-06
2.63449e-05
6.86041e-06
6.3344e-06
6.91156e-06
6.39014e-06
3.45924e-05
1.48133e-05
1.49585e-05
1.63452e-05
1.65886e-05
5.91065e-06
6.2264e-06
5.99344e-06
6.29336e-06
5.91063e-06
5.69079e-06
5.89538e-06
5.62609e-06
1.46647e-05
1.45768e-05
3.16786e-05
1.37116e-05
1.34901e-05
5.57022e-06
5.62302e-06
5.51636e-06
5.59272e-06
3.12955e-05
1.31051e-05
1.28757e-05
1.33688e-05
1.3341e-05
2.36931e-05
7.59329e-06
2.56523e-05
7.65754e-06
2.92382e-05
2.2104e-05
3.25376e-05
3.23853e-05
3.09705e-05
2.09056e-05
3.20578e-05
2.92462e-05
2.21579e-05
3.25365e-05
3.23916e-05
3.09715e-05
2.10334e-05
3.20581e-05
2.31801e-05
7.77449e-06
7.68182e-06
2.18428e-05
2.32012e-05
7.755e-06
7.71227e-06
2.18248e-05
2.87733e-05
3.1859e-05
2.02513e-05
3.11068e-05
2.05485e-05
3.15893e-05
2.73416e-05
2.87686e-05
3.18677e-05
2.03016e-05
3.1107e-05
2.06975e-05
3.15908e-05
2.73337e-05
1.47169e-05
1.46171e-05
3.17115e-05
1.37819e-05
1.35662e-05
5.88011e-06
5.65451e-06
5.68125e-06
5.7188e-06
3.13354e-05
1.34262e-05
1.29685e-05
1.37333e-05
1.35182e-05
5.5268e-06
5.63094e-06
2.89184e-05
2.17834e-05
3.2568e-05
3.23705e-05
3.07485e-05
2.04553e-05
3.20806e-05
2.3239e-05
7.33053e-06
2.52782e-05
7.38601e-06
2.89574e-05
3.25625e-05
2.16781e-05
3.23737e-05
3.07815e-05
3.20773e-05
2.03375e-05
2.26461e-05
7.58459e-06
7.5029e-06
2.14206e-05
2.85202e-05
3.18252e-05
1.99878e-05
3.11103e-05
2.02538e-05
3.16019e-05
2.70621e-05
2.27495e-05
7.46123e-06
7.44355e-06
2.16094e-05
2.85664e-05
3.18273e-05
3.11068e-05
1.98857e-05
3.15947e-05
2.02664e-05
2.70699e-05
2.30888e-05
7.48876e-06
2.51115e-05
7.52189e-06
2.88652e-05
3.25623e-05
2.1773e-05
3.23862e-05
3.07189e-05
3.20755e-05
2.05353e-05
2.3092e-05
7.46944e-06
2.51597e-05
7.48464e-06
2.84424e-05
3.18078e-05
2.00664e-05
3.11085e-05
2.0297e-05
3.15943e-05
2.70029e-05
2.25442e-05
7.55142e-06
7.53307e-06
2.14475e-05
2.84563e-05
3.18331e-05
3.11023e-05
1.97516e-05
3.15948e-05
2.02406e-05
2.6983e-05
2.25144e-05
7.52485e-06
7.54253e-06
2.14141e-05
1.44736e-05
1.46555e-05
3.16999e-05
1.35428e-05
1.37404e-05
5.88882e-06
5.66318e-06
5.48969e-06
5.56855e-06
3.13174e-05
1.29052e-05
1.31697e-05
1.33281e-05
1.33934e-05
5.55006e-06
5.61559e-06
2.92897e-05
3.25457e-05
2.21256e-05
3.23846e-05
3.10195e-05
3.20686e-05
2.09631e-05
2.37174e-05
7.52776e-06
2.56563e-05
7.58067e-06
2.37549e-05
7.62721e-06
2.5723e-05
7.64611e-06
2.88055e-05
3.18072e-05
3.11192e-05
2.00189e-05
3.15963e-05
2.05339e-05
2.73983e-05
2.88545e-05
3.18544e-05
3.11204e-05
2.01527e-05
3.16018e-05
2.0535e-05
2.73867e-05
2.31435e-05
7.62014e-06
7.61089e-06
2.18452e-05
2.32017e-05
7.70962e-06
7.70732e-06
2.19531e-05
5.83346e-06
5.58721e-06
5.92194e-06
5.69883e-06
3.12904e-05
1.29775e-05
1.31744e-05
1.32028e-05
1.34517e-05
5.47967e-06
5.52826e-06
5.60831e-06
5.62788e-06
5.56871e-06
5.62846e-06
5.52337e-06
5.56122e-06
1.30398e-05
1.28876e-05
2.86678e-05
1.30524e-05
1.28946e-05
5.82634e-06
5.68751e-06
5.7603e-06
5.62839e-06
2.83822e-05
1.31245e-05
1.30092e-05
1.30063e-05
1.29013e-05
2.1552e-05
7.82051e-06
2.17163e-05
8.07463e-06
2.59729e-05
2.02403e-05
3.06367e-05
3.02399e-05
2.69861e-05
2.01475e-05
3.01671e-05
2.59844e-05
2.01647e-05
3.06388e-05
3.02375e-05
2.69824e-05
2.02017e-05
3.01661e-05
2.13154e-05
8.57588e-06
8.16772e-06
2.09715e-05
2.15501e-05
8.58665e-06
8.22083e-06
2.11624e-05
2.57961e-05
2.97952e-05
2.02262e-05
2.93028e-05
2.0178e-05
2.97226e-05
2.5125e-05
2.57896e-05
2.97824e-05
2.04987e-05
2.93007e-05
2.03341e-05
2.97259e-05
2.51429e-05
1.33682e-05
1.30264e-05
2.86856e-05
1.33081e-05
1.29316e-05
5.54755e-06
5.56607e-06
5.92954e-06
5.79068e-06
2.83955e-05
1.3412e-05
1.30261e-05
1.33495e-05
1.29776e-05
5.73599e-06
5.61958e-06
2.59131e-05
1.9976e-05
3.0635e-05
3.02168e-05
2.67853e-05
1.99214e-05
3.01565e-05
2.13351e-05
7.52561e-06
2.15827e-05
7.72683e-06
2.58036e-05
3.06268e-05
1.97849e-05
3.02062e-05
2.68031e-05
3.01529e-05
1.98068e-05
2.12284e-05
8.43149e-06
7.98326e-06
2.10903e-05
2.58397e-05
2.97577e-05
2.01576e-05
2.92873e-05
1.99655e-05
2.97146e-05
2.53784e-05
2.14007e-05
8.29712e-06
7.92184e-06
2.11769e-05
2.56955e-05
2.97432e-05
2.92834e-05
2.01e-05
2.97064e-05
1.98937e-05
2.53492e-05
2.11696e-05
7.65199e-06
2.12299e-05
7.80996e-06
2.56928e-05
3.06248e-05
1.9727e-05
3.0229e-05
2.6685e-05
3.01423e-05
1.97092e-05
2.10553e-05
7.58923e-06
2.1299e-05
7.74805e-06
2.567e-05
2.97073e-05
2.00099e-05
2.9274e-05
1.98766e-05
2.97003e-05
2.54611e-05
2.12717e-05
8.29095e-06
7.99663e-06
2.13559e-05
2.56625e-05
2.97569e-05
2.92654e-05
1.97931e-05
2.96991e-05
1.97642e-05
2.54252e-05
2.11765e-05
8.26293e-06
7.90907e-06
2.10788e-05
1.29044e-05
1.31174e-05
2.86721e-05
1.28623e-05
1.30176e-05
5.57352e-06
5.61711e-06
5.75191e-06
5.6072e-06
2.83839e-05
1.29928e-05
1.31991e-05
1.28997e-05
1.30835e-05
5.81403e-06
5.67125e-06
2.60871e-05
3.06527e-05
2.01349e-05
3.02364e-05
2.70713e-05
3.01836e-05
2.00937e-05
2.16197e-05
7.70089e-06
2.18091e-05
7.94446e-06
2.18739e-05
7.75692e-06
2.19395e-05
7.9747e-06
2.58622e-05
2.97273e-05
2.9317e-05
2.01218e-05
2.97374e-05
2.00358e-05
2.52761e-05
2.59347e-05
2.97802e-05
2.9321e-05
2.01801e-05
2.97426e-05
2.00897e-05
2.53427e-05
2.14577e-05
8.44518e-06
8.07842e-06
2.11625e-05
2.18901e-05
8.51072e-06
8.11596e-06
2.16623e-05
5.50498e-06
5.52536e-06
5.60928e-06
5.63968e-06
2.83808e-05
1.29279e-05
1.32455e-05
1.29511e-05
1.31307e-05
5.70387e-06
5.58292e-06
5.849e-06
5.69181e-06
5.86647e-06
5.92523e-06
5.82818e-06
5.92152e-06
1.31775e-05
1.30718e-05
2.7131e-05
1.31405e-05
1.32181e-05
5.89158e-06
5.93884e-06
5.87822e-06
5.95066e-06
2.7011e-05
1.30563e-05
1.3041e-05
1.31279e-05
1.31427e-05
2.06908e-05
8.74029e-06
2.11411e-05
8.95138e-06
2.48643e-05
2.04366e-05
2.89105e-05
2.86181e-05
2.51163e-05
2.03167e-05
2.85593e-05
2.48426e-05
2.05714e-05
2.89152e-05
2.86151e-05
2.50394e-05
2.05731e-05
2.85586e-05
2.05669e-05
9.12521e-06
8.97201e-06
2.0602e-05
2.08049e-05
9.11002e-06
9.04149e-06
2.06334e-05
2.46931e-05
2.83409e-05
2.04303e-05
2.79547e-05
2.04761e-05
2.82386e-05
2.44103e-05
2.46935e-05
2.8349e-05
2.04165e-05
2.79556e-05
2.05919e-05
2.82433e-05
2.44185e-05
1.35372e-05
1.30879e-05
2.71654e-05
1.33635e-05
1.31689e-05
5.80079e-06
5.87476e-06
5.92907e-06
6.01348e-06
2.7054e-05
1.32039e-05
1.28695e-05
1.34558e-05
1.32001e-05
5.83466e-06
5.89181e-06
2.47713e-05
2.01973e-05
2.89048e-05
2.85982e-05
2.5348e-05
2.0365e-05
2.85489e-05
2.08887e-05
8.4859e-06
2.1188e-05
8.73314e-06
2.48771e-05
2.88972e-05
2.00915e-05
2.85697e-05
2.52006e-05
2.85429e-05
1.9915e-05
2.08689e-05
8.99514e-06
8.94515e-06
2.03988e-05
2.45944e-05
2.83342e-05
2.02314e-05
2.79514e-05
2.03787e-05
2.82376e-05
2.44804e-05
2.07876e-05
8.90688e-06
8.88856e-06
2.06568e-05
2.47625e-05
2.82997e-05
2.79438e-05
1.99115e-05
2.82286e-05
1.99745e-05
2.46774e-05
2.05287e-05
8.46222e-06
2.14012e-05
8.70276e-06
2.4826e-05
2.88823e-05
1.97181e-05
2.85777e-05
2.53676e-05
2.8518e-05
1.99097e-05
2.04964e-05
8.4356e-06
2.09979e-05
8.66661e-06
2.47497e-05
2.82731e-05
2.01995e-05
2.79342e-05
2.01189e-05
2.82213e-05
2.46258e-05
2.06547e-05
8.91054e-06
8.8005e-06
2.02797e-05
2.47931e-05
2.8305e-05
2.79116e-05
1.98138e-05
2.82088e-05
1.98749e-05
2.45034e-05
2.03287e-05
8.69351e-06
8.76485e-06
2.01931e-05
1.31303e-05
1.32281e-05
2.7098e-05
1.29827e-05
1.31682e-05
5.8609e-06
5.89648e-06
5.77758e-06
5.86077e-06
2.6975e-05
1.28092e-05
1.29504e-05
1.29596e-05
1.31588e-05
5.83531e-06
5.91292e-06
2.50003e-05
2.89324e-05
2.03882e-05
2.86005e-05
2.52317e-05
2.85785e-05
2.01531e-05
2.08951e-05
8.57149e-06
2.11762e-05
8.81468e-06
2.11204e-05
8.6648e-06
2.16306e-05
8.91818e-06
2.47662e-05
2.82546e-05
2.79577e-05
2.01888e-05
2.8252e-05
2.02741e-05
2.45145e-05
2.48586e-05
2.83225e-05
2.79727e-05
2.01354e-05
2.82592e-05
2.0274e-05
2.44346e-05
2.08196e-05
8.9987e-06
8.92199e-06
2.04525e-05
2.10505e-05
9.04559e-06
8.9716e-06
2.0513e-05
5.74436e-06
5.74536e-06
5.88658e-06
5.93477e-06
2.69903e-05
1.27055e-05
1.3057e-05
1.28486e-05
1.31382e-05
5.63866e-06
5.73583e-06
5.87566e-06
5.91668e-06
5.91835e-06
5.85028e-06
5.85586e-06
5.78556e-06
1.3133e-05
1.3044e-05
2.65763e-05
1.29543e-05
1.27779e-05
5.78971e-06
5.85625e-06
5.69162e-06
5.75007e-06
2.65236e-05
1.29163e-05
1.276e-05
1.30291e-05
1.27372e-05
2.02706e-05
9.16275e-06
2.04104e-05
9.11206e-06
2.43739e-05
2.04204e-05
2.76972e-05
2.76902e-05
2.42877e-05
2.02596e-05
2.74708e-05
2.42978e-05
2.02421e-05
2.77009e-05
2.76924e-05
2.42772e-05
2.0216e-05
2.74701e-05
2.03056e-05
8.99624e-06
9.0952e-06
2.01519e-05
2.03052e-05
8.97934e-06
9.07728e-06
1.99199e-05
2.43835e-05
2.75335e-05
2.01911e-05
2.71117e-05
2.03541e-05
2.7274e-05
2.43413e-05
2.43015e-05
2.75441e-05
2.00331e-05
2.71085e-05
2.00006e-05
2.72767e-05
2.40285e-05
1.31946e-05
1.29334e-05
2.66433e-05
1.29714e-05
1.28619e-05
5.83195e-06
5.78639e-06
5.71546e-06
5.80945e-06
2.65929e-05
1.27388e-05
1.27753e-05
1.29741e-05
1.29129e-05
5.72043e-06
5.79132e-06
2.44019e-05
2.02889e-05
2.76983e-05
2.76781e-05
2.45053e-05
2.0089e-05
2.74674e-05
2.01524e-05
8.9544e-06
2.0413e-05
8.8933e-06
2.44477e-05
2.76882e-05
2.00712e-05
2.76344e-05
2.45929e-05
2.74601e-05
1.99424e-05
1.98976e-05
8.75239e-06
8.96747e-06
1.98699e-05
2.43518e-05
2.75258e-05
2.00018e-05
2.71037e-05
1.9938e-05
2.72753e-05
2.4232e-05
2.00416e-05
8.82145e-06
8.92599e-06
2.01374e-05
2.44395e-05
2.74941e-05
2.70977e-05
1.99394e-05
2.72697e-05
2.00285e-05
2.43976e-05
2.00303e-05
8.94457e-06
2.03113e-05
8.89566e-06
2.44052e-05
2.76639e-05
1.96836e-05
2.76176e-05
2.43851e-05
2.74238e-05
1.94779e-05
2.00699e-05
8.73686e-06
2.01723e-05
8.58366e-06
2.42276e-05
2.74801e-05
2.00043e-05
2.71031e-05
2.00013e-05
2.72741e-05
2.43693e-05
2.0062e-05
8.86667e-06
8.87412e-06
2.00104e-05
2.42288e-05
2.74574e-05
2.70621e-05
1.94871e-05
2.72363e-05
1.96547e-05
2.42763e-05
2.00421e-05
8.5747e-06
8.65993e-06
1.97242e-05
1.27612e-05
1.29687e-05
2.65071e-05
1.26978e-05
1.28524e-05
5.80936e-06
5.76283e-06
5.6753e-06
5.72333e-06
2.64478e-05
1.26041e-05
1.276e-05
1.27267e-05
1.28364e-05
5.69246e-06
5.75552e-06
2.44016e-05
2.77152e-05
2.01348e-05
2.76479e-05
2.45533e-05
2.74827e-05
2.00241e-05
2.01438e-05
9.00947e-06
2.06517e-05
8.96447e-06
2.02375e-05
9.05041e-06
2.07056e-05
9.01584e-06
2.42747e-05
2.74266e-05
2.70952e-05
1.98654e-05
2.7278e-05
1.99592e-05
2.42673e-05
2.45174e-05
2.74958e-05
2.7117e-05
1.992e-05
2.72908e-05
1.99468e-05
2.43963e-05
2.028e-05
8.92552e-06
8.96803e-06
2.02047e-05
2.03386e-05
8.98855e-06
9.02698e-06
2.03406e-05
5.64565e-06
5.5567e-06
5.85267e-06
5.75271e-06
2.64472e-05
1.22999e-05
1.26493e-05
1.23393e-05
1.25993e-05
5.51553e-06
5.55034e-06
5.7013e-06
5.73456e-06
5.77637e-06
5.7785e-06
5.7103e-06
5.63746e-06
1.28843e-05
1.27504e-05
2.64378e-05
1.29457e-05
1.26386e-05
5.76655e-06
5.77691e-06
5.64732e-06
5.65024e-06
2.64391e-05
1.28669e-05
1.26669e-05
1.28761e-05
1.26622e-05
1.99034e-05
8.99191e-06
1.99544e-05
8.92471e-06
2.42581e-05
2.02105e-05
2.69789e-05
2.72392e-05
2.42478e-05
2.01716e-05
2.68837e-05
2.42051e-05
1.99005e-05
2.69817e-05
2.72624e-05
2.41395e-05
2.00188e-05
2.68776e-05
2.00407e-05
8.96827e-06
8.95749e-06
1.96793e-05
1.99767e-05
8.87589e-06
8.91082e-06
1.98018e-05
2.42788e-05
2.71894e-05
2.02653e-05
2.68021e-05
2.01893e-05
2.6826e-05
2.41808e-05
2.42086e-05
2.72149e-05
2.00423e-05
2.67477e-05
2.00612e-05
2.68409e-05
2.42185e-05
1.28261e-05
1.27455e-05
2.64113e-05
1.25869e-05
1.2661e-05
5.70713e-06
5.66003e-06
5.61668e-06
5.64926e-06
2.64319e-05
1.2536e-05
1.27188e-05
1.26253e-05
1.2711e-05
5.66221e-06
5.66709e-06
2.41987e-05
1.99005e-05
2.69795e-05
2.72098e-05
2.42053e-05
1.97792e-05
2.68758e-05
2.00409e-05
8.85081e-06
2.01168e-05
8.76857e-06
2.4284e-05
2.69758e-05
1.99956e-05
2.71819e-05
2.43121e-05
2.68692e-05
1.98067e-05
1.96549e-05
8.7427e-06
8.7437e-06
1.98053e-05
2.42244e-05
2.71767e-05
2.00134e-05
2.6779e-05
1.99411e-05
2.68313e-05
2.41722e-05
1.99158e-05
8.83204e-06
8.81209e-06
1.99494e-05
2.43232e-05
2.71671e-05
2.67824e-05
2.00676e-05
2.68282e-05
2.00403e-05
2.41669e-05
1.99597e-05
8.88404e-06
1.99567e-05
8.77178e-06
2.42099e-05
2.69361e-05
1.9388e-05
2.71287e-05
2.40874e-05
2.68366e-05
1.94951e-05
1.97717e-05
8.60938e-06
1.98894e-05
8.56743e-06
2.42085e-05
2.71663e-05
1.99231e-05
2.68017e-05
1.9766e-05
2.68324e-05
2.42672e-05
2.00069e-05
8.7458e-06
8.79241e-06
2.00022e-05
2.4205e-05
2.70762e-05
2.67531e-05
1.95203e-05
2.67861e-05
1.93598e-05
2.41034e-05
1.98234e-05
8.55647e-06
8.60766e-06
1.95973e-05
1.27256e-05
1.27119e-05
2.63615e-05
1.26367e-05
1.26066e-05
5.68532e-06
5.65492e-06
5.66236e-06
5.66321e-06
2.6329e-05
1.25945e-05
1.27147e-05
1.26909e-05
1.26611e-05
5.65971e-06
5.66162e-06
2.44379e-05
2.69906e-05
1.98188e-05
2.71851e-05
2.4446e-05
2.68964e-05
1.981e-05
2.0319e-05
8.93026e-06
2.03063e-05
8.83399e-06
2.02718e-05
9.00028e-06
2.02641e-05
8.9903e-06
2.42491e-05