/*--------------------------------*- C++ -*----------------------------------*\
| =========                 |                                                 |
| \\      /  F ield         | OpenFOAM: The Open Source CFD Toolbox           |
|  \\    /   O peration     | Version:  2206                                  |
|   \\  /    A nd           | Website:  www.openfoam.com                      |
|    \\/     M anipulation  |                                                 |
\*---------------------------------------------------------------------------*/
FoamFile
{
    version     2.0;
    format      ascii;
    arch        "LSB;label=32;scalar=64";
    class       volScalarField;
    location    "50";
    object      p;
}
// * * * * * * * * * * * * * * * * * * * * * * * * * * * * * * * * * * * * * //

dimensions      [0 2 -2 0 0 0 0];

internalField   nonuniform List<scalar> 
66616
(
-0.000360016
-0.000330712
-0.00033061
-0.000286721
-0.000945822
-0.0009587
-0.000958398
-0.000934007
-0.00132307
-0.00132711
-0.0013271
-0.00130893
-0.0016238
-0.00162646
-0.00162643
-0.00160952
-0.00188753
-0.00188972
-0.0018897
-0.00187441
-0.00213142
-0.00213177
-0.00213178
-0.00211693
-0.00237408
-0.0023741
-0.0023741
-0.00235897
-0.00261719
-0.00261782
-0.00261782
-0.00260269
-0.00285518
-0.00285615
-0.00285616
-0.00284175
-0.00308424
-0.0030849
-0.00308496
-0.00307134
-0.00330555
-0.0033057
-0.00330585
-0.00329268
-0.00352239
-0.00352214
-0.00352261
-0.00350962
-0.000234378
-0.000247734
-0.000247749
-0.000234403
-0.000247694
-0.000247742
-0.000251395
-0.000251403
-0.000251388
-0.000251391
-0.000247725
-0.000247767
-0.000234388
-0.000247701
-0.000247699
-0.000234404
-0.000286703
-0.000869222
-0.000331027
-0.000331061
-0.000832097
-0.00083208
-0.000286733
-0.000869202
-0.000330679
-0.000331094
-0.000832556
-0.000832492
-0.000331115
-0.000832567
-0.000832506
-0.000286708
-0.000869219
-0.000330629
-0.000832201
-0.000832191
-0.00086922
-0.000934017
-0.0012668
-0.000958334
-0.000958302
-0.00124512
-0.0012451
-0.000933984
-0.00126679
-0.000958705
-0.000958646
-0.00124516
-0.00124514
-0.000958649
-0.00124519
-0.00124514
-0.000934002
-0.00126675
-0.000958372
-0.00124512
-0.00124515
-0.00126682
-0.00130892
-0.00157275
-0.00132708
-0.00132707
-0.0015551
-0.00155509
-0.00130887
-0.0015727
-0.00132711
-0.00132709
-0.00155513
-0.0015551
-0.00132705
-0.00155509
-0.00155508
-0.00130885
-0.00157274
-0.00132711
-0.0015551
-0.00155511
-0.00157272
-0.00160954
-0.00184218
-0.00162643
-0.0016264
-0.00182702
-0.00182701
-0.00160951
-0.00184216
-0.00162647
-0.00162644
-0.00182706
-0.00182705
-0.00162641
-0.00182704
-0.00182704
-0.00160953
-0.00184218
-0.00162642
-0.00182701
-0.00182701
-0.00184214
-0.00187444
-0.00208606
-0.00188968
-0.00188967
-0.00207173
-0.00207172
-0.00187442
-0.00208607
-0.00188972
-0.0018897
-0.00207175
-0.00207175
-0.00188968
-0.00207173
-0.00207175
-0.00187443
-0.00208609
-0.00188966
-0.00207173
-0.00207175
-0.0020861
-0.00211689
-0.00232751
-0.00213172
-0.0021317
-0.00231325
-0.00231326
-0.0021169
-0.00232753
-0.00213174
-0.00213173
-0.00231328
-0.00231328
-0.00213172
-0.00231327
-0.00231331
-0.00211693
-0.00232754
-0.00213173
-0.00231327
-0.00231331
-0.00232757
-0.00235892
-0.00257129
-0.00237405
-0.00237404
-0.00255719
-0.0025572
-0.00235895
-0.00257131
-0.00237406
-0.00237404
-0.0025572
-0.00255721
-0.00237407
-0.00255722
-0.00255723
-0.00235895
-0.0025713
-0.00237408
-0.00255719
-0.00255722
-0.00257132
-0.00260268
-0.00281146
-0.0026178
-0.00261779
-0.00279758
-0.0027976
-0.0026027
-0.00281149
-0.00261777
-0.00261776
-0.00279759
-0.00279756
-0.00261776
-0.00279759
-0.00279758
-0.00260269
-0.00281144
-0.00261779
-0.00279754
-0.00279757
-0.00281147
-0.00284178
-0.00304241
-0.00285618
-0.00285618
-0.00302883
-0.00302885
-0.0028418
-0.00304242
-0.00285612
-0.00285607
-0.00302886
-0.00302884
-0.00285607
-0.00302885
-0.00302884
-0.00284174
-0.00304238
-0.00285613
-0.00302878
-0.0030288
-0.00304239
-0.00307139
-0.00326461
-0.00308496
-0.00308495
-0.0032514
-0.00325141
-0.00307139
-0.00326462
-0.00308487
-0.00308483
-0.0032515
-0.00325148
-0.00308481
-0.00325147
-0.00325147
-0.00307136
-0.00326459
-0.0030849
-0.00325136
-0.00325139
-0.0032646
-0.00329274
-0.00348168
-0.00330583
-0.00330581
-0.00346881
-0.00346881
-0.00329272
-0.00348171
-0.00330569
-0.00330564
-0.00346899
-0.00346898
-0.00330561
-0.00346898
-0.003469
-0.00329272
-0.00348168
-0.00330578
-0.00346879
-0.00346882
-0.00348171
-0.00350971
-0.0035226
-0.00352254
-0.00350965
-0.00352216
-0.00352213
-0.00352206
-0.00350972
-0.00352253
-0.000147937
-0.000112099
-0.000130175
-0.000130212
-4.85823e-05
-9.52839e-05
-5.5926e-05
-0.000115169
-4.84747e-05
-9.52689e-05
-0.000115138
-5.58596e-05
-7.52224e-05
-6.04499e-05
-6.03872e-05
-0.000556284
-0.000109717
-0.000193386
-0.000576309
-0.0001841
-0.000569737
-0.000556492
-0.000109734
-0.000193361
-0.000576464
-0.000360038
-0.00036002
-0.000360035
-0.00081931
-0.000819323
-0.00081934
-0.000819337
-0.000549842
-0.00019196
-0.000339702
-0.000504309
-0.000241651
-0.000560713
-0.000506553
-0.000184122
-0.000569793
-0.000549735
-0.000339519
-0.000191858
-0.000504423
-0.000241691
-0.000506714
-0.000560622
-0.000240908
-0.000240753
-0.000546615
-0.000559177
-0.00055917
-0.00110757
-0.000974762
-0.000965533
-0.00111168
-0.000975161
-0.00111317
-0.00110792
-0.000974683
-0.000965799
-0.00111161
-0.000945777
-0.00094579
-0.000945779
-0.00123976
-0.00123977
-0.00123978
-0.00123977
-0.0010983
-0.000960581
-0.00095279
-0.00106449
-0.000950746
-0.0011034
-0.00105994
-0.000975162
-0.00111311
-0.00109763
-0.000951908
-0.000960412
-0.00106426
-0.000949971
-0.00105923
-0.00110313
-0.000964791
-0.000964866
-0.00109085
-0.00110744
-0.00110738
-0.00142841
-0.00131557
-0.00131518
-0.00142875
-0.00131681
-0.00142972
-0.00142855
-0.00131523
-0.00131472
-0.00142873
-0.00132306
-0.00132308
-0.00132305
-0.00155248
-0.00155247
-0.00155248
-0.00155247
-0.00142581
-0.00131422
-0.00132549
-0.0014056
-0.00131301
-0.00142664
-0.00140441
-0.00131649
-0.00142967
-0.00142556
-0.00132528
-0.00131457
-0.00140562
-0.00131335
-0.00140428
-0.00142655
-0.00131411
-0.00131436
-0.00142473
-0.00142766
-0.00142765
-0.00171326
-0.00161169
-0.00161157
-0.00171366
-0.00161212
-0.00171388
-0.00171367
-0.00161155
-0.00161131
-0.00171386
-0.00162376
-0.00162376
-0.00162376
-0.0018245
-0.00182452
-0.00182451
-0.00182451
-0.00171182
-0.0016116
-0.00162562
-0.00169561
-0.00161148
-0.00171229
-0.00169476
-0.00161201
-0.00171405
-0.00171142
-0.0016255
-0.00161178
-0.00169556
-0.00161173
-0.00169463
-0.00171198
-0.00161082
-0.00161095
-0.00171189
-0.00171296
-0.00171282
-0.00196507
-0.00187529
-0.00187482
-0.00196561
-0.0018753
-0.00196562
-0.00196544
-0.00187524
-0.00187462
-0.00196581
-0.00188749
-0.00188749
-0.00188748
-0.00207099
-0.002071
-0.002071
-0.002071
-0.00196433
-0.00187562
-0.00188902
-0.00195106
-0.0018753
-0.00196481
-0.00195047
-0.00187525
-0.00196578
-0.00196394
-0.0018889
-0.00187573
-0.00195105
-0.00187552
-0.00195037
-0.00196455
-0.00187492
-0.00187499
-0.00196562
-0.00196553
-0.00196536
-0.00220613
-0.00211694
-0.00211673
-0.00220638
-0.00211697
-0.00220644
-0.00220658
-0.00211689
-0.00211657
-0.00220659
-0.00213136
-0.00213137
-0.00213134
-0.00231329
-0.00231332
-0.00231332
-0.00231334
-0.00220545
-0.00211776
-0.00213154
-0.00219206
-0.00211766
-0.00220581
-0.0021919
-0.002117
-0.00220669
-0.00220503
-0.00213149
-0.00211791
-0.00219204
-0.00211789
-0.00219185
-0.00220553
-0.00211702
-0.0021171
-0.00220638
-0.0022065
-0.00220634
-0.00244971
-0.00235944
-0.00235942
-0.00244989
-0.00235956
-0.00245002
-0.00245011
-0.00235939
-0.00235922
-0.00245009
-0.00237404
-0.00237405
-0.00237405
-0.00255669
-0.00255672
-0.00255672
-0.00255673
-0.00244886
-0.00236025
-0.00237402
-0.00243518
-0.00236027
-0.00244922
-0.00243508
-0.00235953
-0.00245016
-0.00244846
-0.00237399
-0.00236043
-0.00243516
-0.00236053
-0.00243505
-0.00244898
-0.00235949
-0.00235959
-0.00244942
-0.00244991
-0.00244977
-0.00269223
-0.00260303
-0.00260301
-0.00269242
-0.0026031
-0.00269246
-0.00269258
-0.00260296
-0.00260276
-0.0026926
-0.00261716
-0.00261715
-0.00261714
-0.00279655
-0.00279658
-0.00279655
-0.00279656
-0.00269139
-0.0026038
-0.00261758
-0.0026783
-0.00260379
-0.00269181
-0.00267801
-0.00260301
-0.00269258
-0.00269098
-0.00261757
-0.00260396
-0.00267825
-0.00260409
-0.00267797
-0.00269151
-0.00260296
-0.00260308
-0.0026923
-0.00269237
-0.00269223
-0.00292774
-0.00284173
-0.00284171
-0.0029279
-0.00284177
-0.00292796
-0.00292804
-0.00284162
-0.0028414
-0.00292804
-0.00285516
-0.00285512
-0.00285511
-0.00302791
-0.00302794
-0.00302791
-0.0030279
-0.00292695
-0.00284244
-0.0028558
-0.00291443
-0.00284244
-0.0029273
-0.00291405
-0.00284163
-0.00292802
-0.00292655
-0.00285581
-0.00284258
-0.00291435
-0.00284273
-0.00291402
-0.00292701
-0.00284164
-0.00284173
-0.00292817
-0.00292787
-0.00292771
-0.00315387
-0.00307127
-0.00307127
-0.00315398
-0.00307126
-0.00315396
-0.00315417
-0.00307114
-0.00307099
-0.00315409
-0.00308419
-0.00308417
-0.00308414
-0.00325091
-0.00325094
-0.00325093
-0.00325093
-0.00315316
-0.00307192
-0.00308462
-0.003141
-0.00307198
-0.00315341
-0.00314072
-0.00307117
-0.00315408
-0.00315279
-0.00308465
-0.00307209
-0.0031409
-0.0030723
-0.00314066
-0.00315318
-0.00307119
-0.00307128
-0.00315437
-0.00315397
-0.00315385
-0.00337316
-0.00329273
-0.00329277
-0.00337322
-0.00329269
-0.00337324
-0.00337336
-0.00329262
-0.00329253
-0.00337325
-0.00330548
-0.00330548
-0.00330544
-0.00346862
-0.00346863
-0.00346863
-0.00346863
-0.00337241
-0.00329335
-0.00330554
-0.00336057
-0.00329352
-0.00337258
-0.00336042
-0.00329265
-0.00337325
-0.00337214
-0.00330565
-0.00329356
-0.00336042
-0.00329383
-0.00336032
-0.00337241
-0.00329265
-0.00329275
-0.00337354
-0.0033732
-0.00337311
-0.00358888
-0.00350967
-0.00350985
-0.00358886
-0.00350965
-0.00358909
-0.00350964
-0.00350958
-0.00352229
-0.00352232
-0.00352225
-0.00358807
-0.00351036
-0.00352196
-0.00357672
-0.0035106
-0.00358832
-0.00357677
-0.00350966
-0.00358796
-0.00352246
-0.00351066
-0.00351094
-0.0035768
-0.00350964
-0.00350973
-0.00358926
-0.0035891
-0.00358895
-7.52459e-05
-6.01053e-05
-6.01407e-05
-7.3275e-05
-8.50826e-05
-7.34899e-05
-8.51253e-05
-0.000107235
-0.000136257
-0.00013611
-7.09048e-05
-7.09211e-05
-4.84916e-05
-9.5124e-05
-5.5885e-05
-0.000115152
-4.848e-05
-9.51182e-05
-5.59573e-05
-0.000115152
-6.24031e-05
-1.96057e-05
-8.46388e-05
-0.000187243
-6.23965e-05
-1.96706e-05
-8.46956e-05
-0.000187247
-8.31748e-05
-0.000123799
-0.000141903
-0.000228506
-6.84595e-05
-0.000148502
-0.000200182
-8.31677e-05
-0.000123801
-0.000141989
-0.000228506
-6.85438e-05
-0.000148497
-0.000200177
-7.52456e-05
-6.04227e-05
-6.01448e-05
-7.34439e-05
-8.493e-05
-0.000107221
-0.000136599
-0.000136354
-7.07067e-05
-7.09277e-05
-7.34986e-05
-8.51449e-05
-4.85643e-05
-9.52767e-05
-5.59205e-05
-0.000115159
-4.85554e-05
-9.51083e-05
-0.000115161
-5.59802e-05
-6.23905e-05
-2.00589e-05
-8.46707e-05
-0.000187342
-8.31519e-05
-0.000124112
-0.000142109
-0.000228441
-6.8494e-05
-0.000148475
-0.000200212
-6.23815e-05
-2.01688e-05
-8.46938e-05
-0.000187347
-8.31464e-05
-0.000123795
-0.000228451
-0.000142276
-0.00014847
-6.85346e-05
-0.000200219
-0.000147935
-0.000112097
-0.000130172
-0.000130211
-0.00014794
-0.000112088
-0.000130207
-0.000130168
-0.000147938
-0.000112088
-0.000130208
-0.000130165
-0.000185193
-0.000136707
-0.000271169
-0.000271069
-0.00016114
-0.000161089
-0.000289203
-0.000185195
-0.000136709
-0.000271176
-0.000271082
-0.000161147
-0.000161094
-0.000289208
-0.000185208
-0.000136701
-0.00027108
-0.000271175
-0.000161093
-0.000161143
-0.000289251
-0.000185206
-0.000136699
-0.000271089
-0.00027118
-0.000161093
-0.000161145
-0.000289258
-4.85805e-05
-9.51084e-05
-0.000115164
-5.60008e-05
-8.3181e-05
-0.000124108
-0.000142207
-0.000228462
-6.85012e-05
-0.000148482
-0.00020024
-6.24238e-05
-2.01054e-05
-8.47052e-05
-0.000187372
-8.31763e-05
-0.000123791
-0.000228468
-0.000142362
-0.000148482
-6.85679e-05
-0.000200251
-6.24136e-05
-2.01878e-05
-8.47205e-05
-0.000187384
-7.52268e-05
-6.04433e-05
-6.00984e-05
-7.36417e-05
-8.49287e-05
-0.000107207
-0.000136702
-0.000136232
-7.0713e-05
-7.08836e-05
-7.32898e-05
-8.50687e-05
-4.84672e-05
-9.52532e-05
-0.000115131
-5.59356e-05
-8.31707e-05
-0.000124095
-0.000228523
-0.000141895
-0.000148502
-6.8445e-05
-0.000200159
-8.31651e-05
-0.000124086
-0.000228518
-0.000141959
-0.000148503
-6.85113e-05
-0.000200152
-6.23838e-05
-1.96031e-05
-8.46404e-05
-0.000187241
-6.23757e-05
-1.96003e-05
-8.46576e-05
-0.000187243
-0.00010719
-0.000136935
-0.000136582
-7.07366e-05
-7.06568e-05
-7.3643e-05
-8.49773e-05
-7.34363e-05
-8.48897e-05
-0.000184072
-0.000569703
-0.000184137
-0.000569779
-0.0002407
-0.000240604
-0.000546598
-0.000559092
-0.000559129
-0.000918322
-0.000638521
-0.000918535
-0.00063845
-0.000638402
-0.000905827
-0.000906243
-0.000638486
-0.000638487
-0.000556271
-0.000109719
-0.000193403
-0.000576336
-0.000549745
-0.000191843
-0.000339619
-0.000504223
-0.000241696
-0.000560635
-0.000506746
-0.000549739
-0.000191886
-0.000339627
-0.000504238
-0.00024169
-0.000560651
-0.000506751
-0.000647734
-0.000918967
-0.000649335
-0.000907487
-0.000647756
-0.000918984
-0.000649359
-0.000907492
-0.000646214
-0.000678362
-0.000898362
-0.00082535
-0.000649454
-0.000674394
-0.000884994
-0.00064623
-0.000678364
-0.0008984
-0.000825352
-0.000649462
-0.000674406
-0.000885007
-0.000240788
-0.000240723
-0.00054661
-0.000559168
-0.000559125
-0.000184124
-0.000569805
-0.00091836
-0.000638542
-0.000638409
-0.0009059
-0.000906237
-0.000638533
-0.000638515
-0.000918542
-0.000638483
-0.000549832
-0.000191917
-0.000339686
-0.000504277
-0.000241609
-0.000560694
-0.000506539
-0.000556491
-0.000109742
-0.000193366
-0.00057648
-0.000549835
-0.000339715
-0.00019196
-0.000504124
-0.000241613
-0.000506505
-0.000560732
-0.000647609
-0.00091916
-0.000649244
-0.000908415
-0.000646254
-0.000678445
-0.000899289
-0.000826384
-0.000649432
-0.000674644
-0.00088631
-0.000647627
-0.00091918
-0.000649266
-0.000908409
-0.000646264
-0.000678361
-0.00082634
-0.000899325
-0.000674561
-0.000649428
-0.000886317
-0.000556496
-0.000109737
-0.000193389
-0.000576475
-0.00054985
-0.000339732
-0.000191978
-0.000504149
-0.000241652
-0.000506515
-0.000560766
-0.000556506
-0.000109765
-0.000193388
-0.000576504
-0.000646268
-0.000678457
-0.000899296
-0.000826376
-0.000649473
-0.000674631
-0.000886298
-0.000647632
-0.000919182
-0.000649279
-0.000908399
-0.000646269
-0.000678387
-0.00082634
-0.000899301
-0.000674562
-0.000649454
-0.000886307
-0.000647645
-0.000919165
-0.000649288
-0.000908402
-0.000240825
-0.000240668
-0.000546604
-0.000559181
-0.000559107
-0.000184069
-0.000569732
-0.000918544
-0.000638453
-0.0006384
-0.000906268
-0.000905837
-0.000638494
-0.000638535
-0.000918339
-0.000638565
-0.000549728
-0.000339526
-0.000191896
-0.000504432
-0.000241682
-0.000506719
-0.000560642
-0.000556274
-0.000109698
-0.000193402
-0.000576305
-0.000556279
-0.000109731
-0.000193394
-0.000576333
-0.000646249
-0.00067847
-0.000825408
-0.000898351
-0.000674414
-0.000649494
-0.000885002
-0.000646265
-0.000678491
-0.000825421
-0.000898358
-0.00067444
-0.000649495
-0.000885009
-0.000647773
-0.000918975
-0.00064936
-0.000907509
-0.00064779
-0.000918974
-0.00064938
-0.000907504
-0.0001841
-0.000569821
-0.00018412
-0.000569747
-0.000638414
-0.000906213
-0.000905878
-0.000638512
-0.00063856
-0.000918509
-0.000638487
-0.000918353
-0.000638572
-0.000975136
-0.00111322
-0.000975145
-0.0011131
-0.000964856
-0.000964835
-0.00109086
-0.00110739
-0.00110741
-0.00127662
-0.00115678
-0.00127649
-0.00115648
-0.00113884
-0.00127352
-0.0012735
-0.00115232
-0.00115215
-0.00110759
-0.000974766
-0.000965536
-0.00111163
-0.00109765
-0.000960396
-0.000951843
-0.00106419
-0.000949919
-0.00110316
-0.00105919
-0.00109765
-0.000960415
-0.000951839
-0.00106416
-0.000949934
-0.00110316
-0.00105919
-0.00115258
-0.00127521
-0.00115525
-0.00127432
-0.0011526
-0.00127523
-0.0011553
-0.00127434
-0.00114711
-0.00115823
-0.00127159
-0.0012426
-0.00115081
-0.00115466
-0.00126923
-0.00114709
-0.00115823
-0.00127165
-0.00124259
-0.00115082
-0.00115467
-0.00126923
-0.000964924
-0.000964805
-0.00109085
-0.00110731
-0.00110747
-0.000975154
-0.00111314
-0.00127666
-0.00115675
-0.00113886
-0.00127359
-0.00127342
-0.00115232
-0.00115213
-0.00127646
-0.00115651
-0.00109829
-0.000960593
-0.000952788
-0.00106448
-0.00095076
-0.00110338
-0.00105993
-0.00110795
-0.000974722
-0.000965822
-0.00111161
-0.00109831
-0.000952742
-0.000960606
-0.00106443
-0.000950768
-0.00105991
-0.00110347
-0.00115234
-0.0012751
-0.00115498
-0.00127439
-0.00114703
-0.00115837
-0.00127171
-0.0012429
-0.00115061
-0.00115516
-0.00126952
-0.00115236
-0.0012751
-0.00115495
-0.00127444
-0.00114707
-0.00115836
-0.00124291
-0.0012717
-0.00115517
-0.00115069
-0.00126951
-0.0011079
-0.000974716
-0.000965842
-0.00111163
-0.00109829
-0.00095275
-0.000960592
-0.00106444
-0.000950745
-0.00105992
-0.00110341
-0.00110792
-0.000974712
-0.000965831
-0.00111162
-0.00114704
-0.00115838
-0.00127159
-0.00124291
-0.00115061
-0.00115516
-0.00126949
-0.00115233
-0.00127508
-0.00115499
-0.00127433
-0.00114705
-0.00115837
-0.00124291
-0.0012717
-0.00115517
-0.00115062
-0.00126951
-0.00115236
-0.00127511
-0.00115498
-0.00127437
-0.000964849
-0.00096486
-0.00109086
-0.00110744
-0.00110733
-0.000975152
-0.0011132
-0.00127649
-0.00115649
-0.00113886
-0.00127351
-0.00127352
-0.00115214
-0.00115232
-0.00127663
-0.00115675
-0.00109764
-0.000951894
-0.000960409
-0.00106423
-0.000949961
-0.00105922
-0.00110315
-0.00110759
-0.000974759
-0.000965566
-0.00111163
-0.00110758
-0.000974768
-0.000965562
-0.00111166
-0.00114712
-0.00115827
-0.00124257
-0.00127153
-0.00115465
-0.00115079
-0.00126924
-0.00114713
-0.00115829
-0.00124259
-0.00127163
-0.00115467
-0.00115081
-0.00126925
-0.00115265
-0.00127522
-0.00115524
-0.00127427
-0.00115265
-0.00127523
-0.00115526
-0.00127432
-0.000975137
-0.00111312
-0.000975152
-0.00111322
-0.00113887
-0.00127349
-0.00127353
-0.00115211
-0.00115234
-0.00127648
-0.00115648
-0.00127663
-0.00115676
-0.00131681
-0.00142972
-0.0013165
-0.00142966
-0.00131435
-0.00131412
-0.00142475
-0.00142765
-0.00142767
-0.00157571
-0.00146798
-0.00157577
-0.00146779
-0.00146385
-0.00157418
-0.00157429
-0.00146637
-0.00146621
-0.00142841
-0.0013156
-0.00131527
-0.00142873
-0.00142556
-0.00131454
-0.00132528
-0.00140556
-0.0013133
-0.00142659
-0.00140426
-0.00142555
-0.00131457
-0.00132528
-0.00140561
-0.0013133
-0.00142655
-0.00140429
-0.00146704
-0.00157513
-0.00146718
-0.00157484
-0.00146706
-0.00157511
-0.00146717
-0.00157483
-0.00146683
-0.00148147
-0.00157336
-0.00155415
-0.00146711
-0.00148042
-0.00157273
-0.00146684
-0.00148151
-0.00157335
-0.00155413
-0.00146708
-0.00148043
-0.00157273
-0.00131439
-0.00131406
-0.00142479
-0.00142765
-0.00142762
-0.00131647
-0.00142963
-0.0015757
-0.00146799
-0.00146388
-0.00157419
-0.00157423
-0.00146637
-0.00146616
-0.00157574
-0.00146777
-0.00142585
-0.00131428
-0.00132549
-0.00140559
-0.00131301
-0.00142668
-0.00140442
-0.00142855
-0.00131524
-0.00131477
-0.00142874
-0.00142587
-0.0013255
-0.00131424
-0.0014056
-0.00131299
-0.00140443
-0.00142669
-0.00146665
-0.00157524
-0.00146696
-0.00157515
-0.00146652
-0.00148149
-0.00157356
-0.00155425
-0.00146686
-0.00148053
-0.00157311
-0.00146664
-0.00157523
-0.00146696
-0.00157513
-0.00146652
-0.00148148
-0.00155426
-0.00157355
-0.00148054
-0.00146688
-0.00157311
-0.00142853
-0.00131521
-0.00131469
-0.0014287
-0.00142582
-0.00132547
-0.00131431
-0.00140557
-0.00131303
-0.00140442
-0.00142665
-0.00142853
-0.00131524
-0.00131472
-0.00142871
-0.00146651
-0.00148148
-0.0015735
-0.00155423
-0.00146683
-0.0014805
-0.00157304
-0.00146664
-0.00157522
-0.00146694
-0.0015751
-0.0014665
-0.00148148
-0.00155425
-0.00157352
-0.00148055
-0.00146684
-0.00157307
-0.00146664
-0.00157523
-0.00146693
-0.00157511
-0.00131412
-0.00131436
-0.00142478
-0.00142768
-0.00142763
-0.00131682
-0.00142975
-0.00157576
-0.00146777
-0.00146384
-0.00157429
-0.00157416
-0.00146622
-0.00146638
-0.00157571
-0.00146798
-0.00142555
-0.00132527
-0.00131456
-0.00140561
-0.00131332
-0.00140427
-0.00142654
-0.00142842
-0.0013156
-0.00131523
-0.00142876
-0.00142841
-0.00131559
-0.00131529
-0.00142874
-0.00146686
-0.0014815
-0.00155412
-0.00157333
-0.00148039
-0.00146712
-0.00157271
-0.00146685
-0.00148151
-0.00155412
-0.00157335
-0.00148042
-0.0014671
-0.00157273
-0.00146707
-0.00157513
-0.00146719
-0.00157482
-0.00146707
-0.00157511
-0.00146717
-0.00157482
-0.00131649
-0.00142964
-0.00131679
-0.00142971
-0.00146382
-0.00157425
-0.00157417
-0.00146616
-0.00146636
-0.00157576
-0.00146777
-0.0015757
-0.00146796
-0.00161213
-0.00171395
-0.00161202
-0.00171408
-0.00161095
-0.00161086
-0.00171191
-0.00171282
-0.00171299
-0.00184318
-0.00174815
-0.00184334
-0.00174812
-0.0017463
-0.00184257
-0.00184272
-0.00174741
-0.00174737
-0.00171326
-0.00161168
-0.00161158
-0.00171361
-0.00171142
-0.00161179
-0.00162551
-0.00169555
-0.0016117
-0.00171202
-0.00169464
-0.00171141
-0.00161179
-0.00162549
-0.00169553
-0.00161171
-0.00171197
-0.00169463
-0.00174765
-0.0018431
-0.001748
-0.00184251
-0.00174766
-0.00184311
-0.00174799
-0.0018425
-0.00174799
-0.00176237
-0.00184174
-0.00182616
-0.00174817
-0.00176148
-0.00184108
-0.00174799
-0.00176237
-0.00184176
-0.00182617
-0.00174819
-0.00176148
-0.00184107
-0.00161098
-0.0016108
-0.0017119
-0.0017127
-0.00171307
-0.001612
-0.0017141
-0.00184319
-0.00174812
-0.0017463
-0.00184261
-0.00184266
-0.00174742
-0.00174735
-0.00184331
-0.00174812
-0.00171183
-0.00161165
-0.00162562
-0.00169559
-0.00161147
-0.00171228
-0.00169477
-0.00171365
-0.00161155
-0.00161133
-0.00171383
-0.00171184
-0.00162562
-0.00161162
-0.00169558
-0.00161149
-0.00169478
-0.00171226
-0.00174746
-0.00184331
-0.00174795
-0.00184291
-0.00174776
-0.0017624
-0.001842
-0.0018263
-0.00174807
-0.00176161
-0.00184151
-0.00174747
-0.00184331
-0.00174793
-0.0018429
-0.00174775
-0.0017624
-0.0018263
-0.001842
-0.00176164
-0.00174805
-0.00184151
-0.00171365
-0.00161154
-0.00161132
-0.00171385
-0.00171184
-0.00162562
-0.00161162
-0.00169557
-0.00161149
-0.00169477
-0.00171226
-0.00171365
-0.00161154
-0.00161134
-0.00171382
-0.00174775
-0.00176239
-0.00184197
-0.00182628
-0.00174806
-0.00176158
-0.00184151
-0.00174747
-0.0018433
-0.00174794
-0.00184291
-0.00174776
-0.0017624
-0.00182629
-0.00184199
-0.00176163
-0.00174804
-0.00184153
-0.00174747
-0.00184329
-0.00174792
-0.00184291
-0.00161085
-0.00161094
-0.0017119
-0.00171297
-0.0017128
-0.00161212
-0.00171394
-0.00184332
-0.0017481
-0.00174628
-0.00184271
-0.00184253
-0.00174735
-0.00174741
-0.00184317
-0.00174815
-0.0017114
-0.00162548
-0.0016118
-0.00169555
-0.00161174
-0.00169463
-0.00171199
-0.00171326
-0.00161168
-0.0016116
-0.00171365
-0.00171325
-0.00161167
-0.00161159
-0.00171364
-0.00174801
-0.00176236
-0.00182615
-0.00184169
-0.00176145
-0.00174817
-0.00184105
-0.00174797
-0.00176238
-0.00182615
-0.00184171
-0.00176148
-0.00174817
-0.00184108
-0.00174766
-0.0018431
-0.001748
-0.00184249
-0.00174765
-0.00184309
-0.00174799
-0.00184249
-0.00161201
-0.00171405
-0.0016121
-0.00171393
-0.00174628
-0.00184268
-0.00184253
-0.00174732
-0.00174741
-0.0018433
-0.00174809
-0.00184316
-0.00174813
-0.00187529
-0.00196565
-0.00187528
-0.0019658
-0.00187501
-0.00187495
-0.00196566
-0.00196538
-0.00196553
-0.00208589
-0.00199684
-0.00208602
-0.0019968
-0.0019967
-0.00208575
-0.0020859
-0.00199689
-0.00199682
-0.00196506
-0.0018753
-0.00187484
-0.00196558
-0.00196395
-0.00187574
-0.00188889
-0.00195104
-0.00187548
-0.00196457
-0.00195038
-0.00196396
-0.00187574
-0.00188888
-0.00195104
-0.00187549
-0.00196455
-0.00195038
-0.00199642
-0.00208579
-0.00199684
-0.00208538
-0.00199642
-0.00208576
-0.00199684
-0.00208537
-0.00199742
-0.00201154
-0.00208494
-0.00207137
-0.00199763
-0.00201104
-0.00208437
-0.00199743
-0.00201155
-0.00208492
-0.00207136
-0.00199763
-0.00201106
-0.00208437
-0.00187503
-0.00187491
-0.00196564
-0.00196536
-0.00196551
-0.00187526
-0.00196579
-0.00208585
-0.00199682
-0.00199668
-0.00208573
-0.00208588
-0.00199688
-0.00199681
-0.00208603
-0.0019968
-0.00196432
-0.00187562
-0.00188901
-0.00195107
-0.00187525
-0.00196482
-0.00195048
-0.00196546
-0.00187522
-0.00187464
-0.00196579
-0.00196434
-0.00188901
-0.00187561
-0.00195106
-0.00187526
-0.00195049
-0.00196483
-0.00199621
-0.00208598
-0.00199678
-0.00208583
-0.00199718
-0.00201156
-0.0020852
-0.00207144
-0.00199751
-0.00201113
-0.00208481
-0.00199624
-0.00208602
-0.0019968
-0.00208582
-0.00199719
-0.00201156
-0.00207145
-0.00208522
-0.00201115
-0.00199752
-0.00208482
-0.00196545
-0.00187524
-0.00187466
-0.00196579
-0.00196436
-0.00188899
-0.00187561
-0.00195105
-0.0018753
-0.00195048
-0.00196483
-0.00196545
-0.00187523
-0.00187467
-0.00196578
-0.00199719
-0.00201152
-0.00208518
-0.0020714
-0.00199752
-0.00201108
-0.0020848
-0.00199622
-0.002086
-0.00199679
-0.00208583
-0.0019972
-0.00201157
-0.00207144
-0.0020852
-0.00201114
-0.00199751
-0.00208481
-0.00199622
-0.002086
-0.00199678
-0.00208583
-0.00187493
-0.00187499
-0.00196565
-0.00196552
-0.00196536
-0.00187528
-0.00196563
-0.00208605
-0.00199681
-0.00199669
-0.00208593
-0.00208576
-0.00199682
-0.00199689
-0.00208589
-0.00199683
-0.00196395
-0.00188887
-0.00187573
-0.00195104
-0.0018755
-0.00195036
-0.00196456
-0.00196506
-0.00187529
-0.00187485
-0.00196558
-0.00196505
-0.00187528
-0.00187485
-0.00196556
-0.00199745
-0.00201152
-0.00207134
-0.00208494
-0.00201101
-0.00199766
-0.00208437
-0.00199745
-0.00201156
-0.00207136
-0.00208493
-0.00201104
-0.00199765
-0.00208439
-0.00199644
-0.00208581
-0.00199685
-0.0020854
-0.00199644
-0.00208579
-0.00199683
-0.0020854
-0.00187524
-0.00196577
-0.00187527
-0.00196561
-0.00199669
-0.00208589
-0.00208572
-0.0019968
-0.00199686
-0.00208603
-0.00199679
-0.00208587
-0.0019968
-0.002117
-0.00220652
-0.00211697
-0.00220666
-0.00211709
-0.00211704
-0.00220636
-0.00220631
-0.00220647
-0.00232802
-0.00223788
-0.00232817
-0.00223785
-0.00223747
-0.00232778
-0.00232794
-0.00223794
-0.00223788
-0.00220612
-0.00211692
-0.00211675
-0.00220632
-0.002205
-0.00211788
-0.00213146
-0.00219199
-0.00211781
-0.00220551
-0.00219183
-0.00220499
-0.00211786
-0.00213145
-0.00219197
-0.00211783
-0.00220546
-0.00219183
-0.00223771
-0.00232789
-0.0022378
-0.00232768
-0.00223771
-0.00232791
-0.00223779
-0.00232767
-0.00223879
-0.00225247
-0.002327
-0.00231318
-0.00223874
-0.00225238
-0.00232649
-0.0022388
-0.00225248
-0.00232701
-0.00231318
-0.00223878
-0.0022524
-0.0023265
-0.00211709
-0.00211701
-0.00220637
-0.00220618
-0.00220656
-0.00211697
-0.00220671
-0.00232806
-0.00223786
-0.00223748
-0.00232784
-0.00232791
-0.00223794
-0.0022379
-0.00232817
-0.00223789
-0.00220544
-0.00211776
-0.00213152
-0.00219203
-0.0021176
-0.00220578
-0.00219188
-0.00220658
-0.00211692
-0.0021166
-0.00220661
-0.00220545
-0.00213152
-0.00211776
-0.00219202
-0.00211761
-0.0021919
-0.00220579
-0.00223752
-0.0023281
-0.00223775
-0.0023281
-0.00223857
-0.00225249
-0.00232725
-0.0023132
-0.00223865
-0.00225241
-0.00232691
-0.00223755
-0.00232814
-0.0022378
-0.00232812
-0.00223859
-0.0022525
-0.00231323
-0.00232728
-0.00225245
-0.00223865
-0.00232692
-0.00220659
-0.0021169
-0.00211662
-0.00220661
-0.00220547
-0.00213152
-0.00211777
-0.00219203
-0.00211762
-0.00219191
-0.00220579
-0.00220659
-0.0021169
-0.00211661
-0.00220661
-0.0022386
-0.00225247
-0.00232725
-0.00231321
-0.00223865
-0.0022524
-0.00232694
-0.00223757
-0.00232813
-0.00223779
-0.00232814
-0.00223861
-0.00225252
-0.00231326
-0.0023273
-0.00225247
-0.00223867
-0.00232696
-0.00223757
-0.00232816
-0.0022378
-0.00232815
-0.00211706
-0.00211711
-0.00220639
-0.00220649
-0.00220633
-0.00211702
-0.00220654
-0.00232821
-0.0022379
-0.0022375
-0.00232798
-0.00232782
-0.00223792
-0.00223799
-0.00232808
-0.00223792
-0.00220504
-0.00213145
-0.0021179
-0.00219202
-0.00211786
-0.00219183
-0.00220554
-0.00220617
-0.00211697
-0.00211682
-0.00220641
-0.00220617
-0.00211696
-0.0021168
-0.00220641
-0.00223887
-0.00225248
-0.00231317
-0.00232703
-0.00225236
-0.00223883
-0.00232653
-0.00223886
-0.00225253
-0.00231319
-0.00232704
-0.0022524
-0.00223882
-0.00232654
-0.00223777
-0.00232796
-0.00223786
-0.00232774
-0.00223777
-0.00232796
-0.00223786
-0.00232774
-0.00211698
-0.0022067
-0.002117
-0.00220654
-0.00223752
-0.00232798
-0.00232783
-0.00223791
-0.00223798
-0.00232823
-0.0022379
-0.0023281
-0.00223792
-0.00235952
-0.00245
-0.00235949
-0.00245014
-0.00235951
-0.00235945
-0.00244938
-0.00244972
-0.00244986
-0.00257177
-0.00248153
-0.0025719
-0.00248149
-0.00248089
-0.00257152
-0.00257166
-0.00248152
-0.00248146
-0.00244971
-0.00235946
-0.00235944
-0.0024499
-0.00244842
-0.00236035
-0.00237396
-0.00243511
-0.00236043
-0.00244895
-0.00243503
-0.00244842
-0.00236038
-0.00237395
-0.00243512
-0.00236043
-0.00244897
-0.00243503
-0.00248144
-0.00257168
-0.00248148
-0.00257149
-0.00248145
-0.0025717
-0.00248151
-0.00257149
-0.00248248
-0.00249613
-0.00257078
-0.00255703
-0.00248238
-0.00249605
-0.00257027
-0.00248248
-0.00249616
-0.0025708
-0.00255704
-0.00248242
-0.00249606
-0.00257027
-0.00235956
-0.00235944
-0.00244941
-0.00244974
-0.00244986
-0.0023595
-0.00245015
-0.00257179
-0.00248155
-0.00248092
-0.00257155
-0.00257165
-0.00248156
-0.00248146
-0.00257191
-0.0024815
-0.00244884
-0.00236023
-0.00237397
-0.00243514
-0.00236019
-0.00244921
-0.00243504
-0.00245011
-0.00235943
-0.00235925
-0.0024501
-0.00244886
-0.00237398
-0.00236024
-0.00243513
-0.00236021
-0.00243506
-0.00244922
-0.00248121
-0.00257188
-0.00248142
-0.00257187
-0.0024822
-0.00249613
-0.00257103
-0.00255703
-0.00248224
-0.00249603
-0.00257065
-0.00248122
-0.00257188
-0.00248144
-0.00257186
-0.00248222
-0.00249614
-0.00255705
-0.00257104
-0.00249607
-0.00248226
-0.00257066
-0.00245013
-0.00235941
-0.00235929
-0.0024501
-0.00244889
-0.00237401
-0.00236028
-0.00243517
-0.00236025
-0.00243509
-0.00244924
-0.00245013
-0.00235945
-0.00235928
-0.00245012
-0.00248224
-0.00249614
-0.00257102
-0.00255704
-0.00248228