/*--------------------------------*- C++ -*----------------------------------*\
| =========                 |                                                 |
| \\      /  F ield         | OpenFOAM: The Open Source CFD Toolbox           |
|  \\    /   O peration     | Version:  2206                                  |
|   \\  /    A nd           | Website:  www.openfoam.com                      |
|    \\/     M anipulation  |                                                 |
\*---------------------------------------------------------------------------*/
FoamFile
{
    version     2.0;
    format      ascii;
    arch        "LSB;label=32;scalar=64";
    class       volVectorField;
    location    "50";
    object      U;
}
// * * * * * * * * * * * * * * * * * * * * * * * * * * * * * * * * * * * * * //

dimensions      [0 1 -1 0 0 0 0];

internalField   nonuniform List<vector> 
66616
(
(0.000584346 0.000582505 0.120166)
(-0.00101075 0.000544067 0.117567)
(0.000543063 -0.00101141 0.117569)
(-0.00130003 -0.00131045 0.115995)
(0.000465901 0.000455179 0.124211)
(-0.000821232 0.000446456 0.122186)
(0.000445406 -0.000819157 0.122264)
(-0.00105462 -0.00106734 0.120591)
(0.000277423 0.000271271 0.126358)
(-0.000500745 0.000278353 0.124298)
(0.00027784 -0.000499665 0.124383)
(-0.000698357 -0.00070627 0.122611)
(0.000204432 0.00019982 0.127873)
(-0.000386912 0.000223495 0.12578)
(0.000223332 -0.000385199 0.125868)
(-0.000561402 -0.000566208 0.123956)
(0.000129862 0.000126875 0.128964)
(-0.000275547 0.000177564 0.126758)
(0.000176393 -0.000275543 0.126846)
(-0.000441807 -0.000446972 0.124604)
(0.000109489 0.000108364 0.129744)
(-0.000212629 0.000134319 0.12731)
(0.000131951 -0.000215435 0.127399)
(-0.000384774 -0.000391585 0.124792)
(0.000126064 0.000126468 0.130476)
(-0.000205706 0.000124514 0.127789)
(0.00012082 -0.000211607 0.127874)
(-0.000386142 -0.000396016 0.125018)
(0.000127576 0.000127616 0.131221)
(-0.000206041 0.000130402 0.128236)
(0.000127118 -0.000213793 0.128312)
(-0.000369353 -0.000379428 0.125137)
(0.000103196 0.00010114 0.131863)
(-0.000166765 0.000108416 0.12853)
(0.00010884 -0.000174604 0.128592)
(-0.000312759 -0.000319764 0.125077)
(7.1245e-05 6.59717e-05 0.132278)
(-0.000100714 6.33547e-05 0.128628)
(6.87432e-05 -0.000107748 0.128669)
(-0.000252868 -0.000257597 0.124953)
(4.58148e-05 3.80021e-05 0.132477)
(-4.67679e-05 2.53049e-05 0.128623)
(3.35376e-05 -5.22509e-05 0.128627)
(-0.000216919 -0.0002203 0.124847)
(2.68316e-05 1.95882e-05 0.13255)
(-1.94663e-05 7.83137e-06 0.128616)
(1.56773e-05 -2.22418e-05 0.128563)
(-0.000202128 -0.000204469 0.124766)
(0.000358198 0.000359628 0.115557)
(0.000583641 0.000554045 0.117079)
(-0.000584092 0.00055435 0.117078)
(-0.000358258 0.00035986 0.115557)
(0.000557635 0.000587152 0.117066)
(0.00055426 -0.00058394 0.117079)
(0.000375622 0.000376385 0.11934)
(-0.000375653 0.000376622 0.119337)
(0.000376773 -0.000376588 0.119337)
(-0.000376692 -0.000376813 0.119339)
(-0.000557417 0.000587449 0.117065)
(-0.000553974 -0.000584258 0.117078)
(0.000360109 -0.000358371 0.115556)
(0.000588041 -0.000557911 0.117063)
(-0.000588368 -0.000558135 0.117062)
(-0.000359906 -0.000358467 0.115551)
(0.00130954 0.00130113 0.116)
(0.000551364 0.00054159 0.120182)
(0.000550681 0.0010137 0.117561)
(-0.000550234 0.00101407 0.117561)
(0.000526578 0.000964861 0.121462)
(-0.000525756 0.00096527 0.121462)
(-0.00130949 0.00130074 0.115998)
(-0.000551852 0.00054162 0.120181)
(0.00101095 0.000543381 0.117567)
(0.00101331 -0.000551156 0.117558)
(0.00097143 0.000518053 0.121386)
(0.000970174 -0.000525416 0.121385)
(-0.00101293 -0.000551545 0.117556)
(-0.000971062 0.000518704 0.121385)
(-0.00096967 -0.000526064 0.121383)
(0.00129984 -0.00131057 0.115997)
(0.000543917 -0.000548848 0.120181)
(-0.000542547 -0.00101167 0.117569)
(0.000518197 -0.000967606 0.12146)
(-0.000517445 -0.000967793 0.121461)
(-0.000543811 -0.000548182 0.120178)
(0.00106257 0.00106052 0.120595)
(0.000261304 0.000255472 0.12236)
(0.000452682 0.000816622 0.122264)
(-0.000451861 0.000816801 0.122264)
(0.00030668 0.000542736 0.123936)
(-0.000306481 0.000543278 0.123936)
(-0.00106119 0.00106 0.120593)
(-0.000260138 0.000256309 0.122358)
(0.000821599 0.000445766 0.122187)
(0.000819876 -0.000451863 0.122186)
(0.000546686 0.000302301 0.123857)
(0.000545128 -0.000306266 0.123854)
(-0.000819372 -0.000452139 0.122183)
(-0.000546572 0.000302217 0.123853)
(-0.000544632 -0.000306618 0.123852)
(0.00105579 -0.00106649 0.120593)
(0.000258021 -0.000258912 0.122359)
(-0.000444575 -0.000819519 0.122265)
(0.000301506 -0.000546067 0.123938)
(-0.000301331 -0.000546581 0.123938)
(-0.000257313 -0.000259442 0.122357)
(0.000703508 0.000702085 0.122612)
(0.000148536 0.000142804 0.123767)
(0.000282427 0.000497123 0.124381)
(-0.000282239 0.000497615 0.124379)
(0.000237636 0.00040903 0.125533)
(-0.000237675 0.000409905 0.125533)
(-0.000701134 0.000702814 0.122608)
(-0.000148132 0.000142698 0.123764)
(0.000501691 0.000278138 0.124301)
(0.000499642 -0.000281982 0.124297)
(0.000413857 0.000234302 0.12545)
(0.000412362 -0.000237051 0.125448)
(-0.000499384 -0.000281699 0.124296)
(-0.000413424 0.000234077 0.125447)
(-0.000412285 -0.000237549 0.125445)
(0.000700063 -0.000705322 0.12261)
(0.000145833 -0.000145129 0.123762)
(-0.000277129 -0.000500345 0.124384)
(0.000233875 -0.000411424 0.125535)
(-0.000234098 -0.000411859 0.125537)
(-0.000145816 -0.000145088 0.123764)
(0.000564523 0.000562669 0.123958)
(4.86496e-05 4.59154e-05 0.124511)
(0.000226539 0.000383366 0.125865)
(-0.000226927 0.000384429 0.125865)
(0.000191657 0.000300986 0.126651)
(-0.000192177 0.000302175 0.126652)
(-0.000564444 0.00056367 0.123955)
(-4.80076e-05 4.62877e-05 0.124507)
(0.000387977 0.000223459 0.125783)
(0.000386684 -0.000226164 0.12578)
(0.000303275 0.000190444 0.126564)
(0.000303023 -0.000192411 0.126564)
(-0.000385802 -0.000225811 0.125779)
(-0.0003026 0.000190076 0.126561)
(-0.000302309 -0.000192602 0.126561)
(0.000561998 -0.000565604 0.123954)
(4.642e-05 -4.70191e-05 0.124507)
(-0.000223275 -0.000385972 0.125869)
(0.000188865 -0.000302116 0.126653)
(-0.000189364 -0.000302551 0.126654)
(-4.63836e-05 -4.64347e-05 0.124507)
(0.000443853 0.000444492 0.124608)
(-2.45758e-05 -2.40804e-05 0.124718)
(0.000178997 0.00027535 0.126844)
(-0.000179422 0.000276409 0.126845)
(0.000142762 0.000224669 0.127271)
(-0.000143569 0.00022569 0.127271)
(-0.000443207 0.000445725 0.124603)
(2.32911e-05 -2.40351e-05 0.124713)
(0.00027664 0.000177686 0.126759)
(0.000276567 -0.000179509 0.12676)
(0.000222779 0.000143694 0.127178)
(0.000223533 -0.000145192 0.127182)
(-0.000275797 -0.000179502 0.126758)
(-0.000223064 0.000143534 0.127176)
(-0.000223418 -0.000145538 0.127179)
(0.000442069 -0.000446445 0.124604)
(-2.60948e-05 2.33803e-05 0.124716)
(-0.000176676 -0.000276252 0.126847)
(0.000140572 -0.000225123 0.127272)
(-0.000141259 -0.000225302 0.127273)
(2.48023e-05 2.33596e-05 0.124713)
(0.000385784 0.000389552 0.124796)
(-4.09193e-05 -3.72194e-05 0.124932)
(0.000133942 0.00021574 0.127397)
(-0.000134774 0.000216555 0.127398)
(0.000122175 0.000211641 0.127747)
(-0.000122753 0.000212753 0.127747)
(-0.000386044 0.000389553 0.124791)
(4.08355e-05 -3.67903e-05 0.12493)
(0.000212875 0.00013432 0.127311)
(0.000213328 -0.000135583 0.127316)
(0.000205915 0.000125644 0.12765)
(0.0002065 -0.000126311 0.127658)
(-0.000213118 -0.000135465 0.127315)
(-0.000205951 0.000125401 0.127648)
(-0.000206365 -0.000126667 0.127656)
(0.000384427 -0.000390913 0.124796)
(-4.20763e-05 3.75126e-05 0.124933)
(-0.00013223 -0.000216057 0.1274)
(0.000120098 -0.000211107 0.127749)
(-0.000120255 -0.000211452 0.127749)
(4.18309e-05 3.74507e-05 0.124931)
(0.000387702 0.000394782 0.125017)
(-5.36251e-05 -4.89962e-05 0.125068)
(0.000122836 0.000213036 0.127873)
(-0.000122978 0.000213993 0.127874)
(0.000128627 0.00022009 0.128203)
(-0.000127805 0.00022123 0.128204)
(-0.000386844 0.000395399 0.125015)
(5.37761e-05 -4.94442e-05 0.125071)
(0.00020643 0.000124636 0.127791)
(0.00020701 -0.000125182 0.127799)
(0.000211243 0.000133353 0.128101)
(0.000212529 -0.000133699 0.128111)
(-0.000206294 -0.000125073 0.1278)
(-0.000210811 0.000133689 0.128099)
(-0.000211676 -0.000134115 0.128112)
(0.000386681 -0.000395029 0.125019)
(-5.46172e-05 4.98318e-05 0.125071)
(-0.000120253 -0.000212366 0.127876)
(0.000126711 -0.000218298 0.128203)
(-0.000125578 -0.000218781 0.128204)
(5.53023e-05 5.02967e-05 0.125072)
(0.000371494 0.00037903 0.125132)
(-9.75937e-05 -9.59116e-05 0.125026)
(0.000128943 0.000216388 0.128312)
(-0.000127958 0.000217366 0.128314)
(0.000119008 0.000193919 0.128532)
(-0.000117942 0.000194967 0.128534)
(-0.000370884 0.000379011 0.125133)
(9.82774e-05 -9.62472e-05 0.125031)
(0.000207105 0.000130043 0.128238)
(0.000208516 -0.000130383 0.128248)
(0.000184311 0.000122703 0.12842)
(0.000186496 -0.000123304 0.128432)
(-0.000207159 -0.000130322 0.128253)
(-0.000183569 0.00012268 0.128418)
(-0.00018552 -0.000123696 0.128435)
(0.000370362 -0.000378792 0.125135)
(-9.89641e-05 9.62441e-05 0.125028)
(-0.000125371 -0.000214482 0.128315)
(0.000116593 -0.000191158 0.128531)
(-0.000115368 -0.000191498 0.128533)
(9.93771e-05 9.73007e-05 0.125032)
(0.000314931 0.000319394 0.125069)
(-0.000148294 -0.000149947 0.124909)
(0.000111098 0.000177746 0.128594)
(-0.000109837 0.000178168 0.128599)
(8.22114e-05 0.000129192 0.128655)
(-8.09889e-05 0.000129577 0.128661)
(-0.000314204 0.000319816 0.125074)
(0.000148888 -0.000151072 0.124915)
(0.000168102 0.000108494 0.128529)
(0.000170036 -0.000109292 0.128542)
(0.000121719 8.3827e-05 0.128526)
(0.000123578 -8.53937e-05 0.128539)
(-0.000168827 -0.000109082 0.12855)
(-0.000121231 8.35987e-05 0.128524)
(-0.000123139 -8.56783e-05 0.128543)
(0.000313337 -0.000319598 0.125072)
(-0.000149546 0.00014915 0.124909)
(-0.000106901 -0.000174851 0.128598)
(7.98529e-05 -0.000127826 0.128652)
(-7.88178e-05 -0.000127601 0.128657)
(0.000149847 0.000150423 0.124916)
(0.000254601 0.000256386 0.124943)
(-0.000179626 -0.000182501 0.124816)
(7.05743e-05 0.00010945 0.128673)
(-6.9238e-05 0.000109282 0.128685)
(4.40201e-05 6.73344e-05 0.128635)
(-4.36126e-05 6.798e-05 0.128647)
(-0.000254295 0.000256387 0.124949)
(0.000181291 -0.000183898 0.124822)
(0.00010189 6.38909e-05 0.128627)
(0.000103189 -6.54087e-05 0.128641)
(6.25211e-05 4.57623e-05 0.128481)
(6.36378e-05 -4.75479e-05 0.128493)
(-0.000102426 -6.52227e-05 0.12865)
(-6.19316e-05 4.44878e-05 0.128478)
(-6.38559e-05 -4.76323e-05 0.128495)
(0.000252881 -0.000257423 0.124944)
(-0.000180309 0.000181669 0.124814)
(-6.68892e-05 -0.000107505 0.128679)
(4.21267e-05 -6.69221e-05 0.12863)
(-4.20936e-05 -6.65219e-05 0.128636)
(0.000180463 0.0001833 0.12482)
(0.000217114 0.000218959 0.124838)
(-0.000191473 -0.000194762 0.124787)
(3.47907e-05 5.32301e-05 0.128636)
(-3.40805e-05 5.32247e-05 0.128654)
(2.15658e-05 3.01194e-05 0.128577)
(-2.13293e-05 3.07692e-05 0.128591)
(-0.000216664 0.000219624 0.124848)
(0.000193178 -0.000197425 0.124786)
(4.79479e-05 2.66858e-05 0.128622)
(4.85869e-05 -2.8212e-05 0.128634)
(2.66268e-05 2.25177e-05 0.128381)
(2.7753e-05 -2.38034e-05 0.12839)
(-4.82221e-05 -2.79178e-05 0.128643)
(-2.62235e-05 2.10767e-05 0.128377)
(-2.81669e-05 -2.40123e-05 0.128391)
(0.000215848 -0.000219369 0.124836)
(-0.000191233 0.000194363 0.124782)
(-3.24505e-05 -5.20404e-05 0.128641)
(1.98248e-05 -3.00403e-05 0.128568)
(-2.05273e-05 -2.96647e-05 0.128576)
(0.000192367 0.00019664 0.124782)
(0.000200289 0.000202473 0.124751)
(1.62105e-05 2.30326e-05 0.128576)
(-1.61339e-05 2.32908e-05 0.128599)
(-0.000201449 0.000204004 0.12477)
(2.04529e-05 8.89577e-06 0.128614)
(2.12217e-05 -9.91074e-06 0.128624)
(-2.07379e-05 -9.9927e-06 0.128634)
(0.000199977 -0.000201829 0.124747)
(-1.49158e-05 -2.24205e-05 0.128579)
(9.23159e-06 9.08295e-06 0.121794)
(0.000186832 0.000187215 0.117737)
(1.08004e-05 0.000169014 0.119895)
(0.000170296 1.13136e-05 0.119892)
(-0.000355405 3.08583e-05 0.110716)
(-0.000173042 0.000202736 0.11643)
(-0.000418846 0.000276253 0.0969896)
(-0.000188566 1.05729e-05 0.118924)
(3.06838e-05 -0.000355536 0.110712)
(0.000202726 -0.000173237 0.116428)
(1.03143e-05 -0.00018797 0.118922)
(0.000275843 -0.000419937 0.0969919)
(-0.000169994 -0.000168846 0.11467)
(-0.000427229 -0.000463322 0.0903859)
(-0.000462705 -0.000427155 0.090397)
(0.000130401 0.00202923 0.110806)
(0.00122315 -5.02126e-06 0.0806209)
(0.000213571 0.00178054 0.107884)
(0.00014893 0.00122685 0.0913349)
(-0.00047939 0.000510782 0.080051)
(0.000445556 0.00117461 0.0827892)
(0.00202844 0.000131292 0.110721)
(-8.43589e-06 0.00122246 0.0806728)
(0.00177929 0.000211179 0.107946)
(0.00122659 0.000151873 0.0912781)
(-0.000584317 0.000582608 0.120164)
(0.000582931 -0.000583075 0.120165)
(-0.000582859 -0.000583272 0.120166)
(0.000552513 0.000540875 0.123423)
(-0.000552421 0.000541075 0.123421)
(0.000543647 -0.000549989 0.123421)
(-0.000543298 -0.000550024 0.123423)
(-0.00180476 8.29471e-05 0.115773)
(-0.00179969 0.00094861 0.107063)
(-0.000982083 0.000207125 0.119052)
(-0.00111803 0.000568086 0.119023)
(-0.00160622 0.000154649 0.112945)
(-0.00191322 0.000457326 0.111442)
(-0.00109713 0.000256542 0.120372)
(0.000508838 -0.000477552 0.0800978)
(0.00117472 0.000442989 0.0827671)
(8.27848e-05 -0.00180445 0.1158)
(0.000206188 -0.000980702 0.119048)
(0.000949419 -0.00180048 0.107032)
(0.000568065 -0.00111774 0.119017)
(0.000155509 -0.0016076 0.112913)
(0.000257432 -0.00109818 0.120374)
(0.00045569 -0.00191545 0.111492)
(-0.0014701 -0.000912009 0.099284)
(-0.000913701 -0.00147111 0.0992897)
(-0.000549162 -0.00055769 0.118027)
(-0.00154257 -0.000298161 0.102489)
(-0.000294614 -0.00154901 0.102517)
(1.45732e-05 0.000955887 0.111788)
(0.00023145 0.000800929 0.0903013)
(2.81053e-05 0.00148952 0.11209)
(0.000161784 0.000415188 0.0891919)
(-0.00012698 0.000702522 0.0790576)
(-0.000141587 0.000351424 0.0775698)
(0.000951902 1.54702e-05 0.11118)
(0.000795687 0.000222093 0.0901095)
(0.00149003 2.75266e-05 0.111865)
(0.000407846 0.000159426 0.0888335)
(-0.000465502 0.00045538 0.124211)
(0.000458636 -0.000461963 0.124211)
(-0.000458242 -0.000462183 0.124212)
(0.000304266 0.000297809 0.125907)
(-0.000304067 0.000298157 0.125905)
(0.000299251 -0.000301747 0.125906)
(-0.000298907 -0.000301938 0.125907)
(-0.000852806 2.29567e-05 0.118722)
(-0.00124859 0.000428074 0.112353)
(-0.000789405 0.000173614 0.123398)
(-0.00069933 0.000383796 0.122825)
(-0.00129396 3.14284e-05 0.118349)
(-0.000804249 0.000238294 0.111867)
(-0.000668505 0.000145553 0.124033)
(0.000697023 -0.000120949 0.07897)
(0.000346659 -0.000142804 0.0774003)
(2.28475e-05 -0.000851098 0.119075)
(0.000174129 -0.000781676 0.123535)
(0.000428881 -0.00124965 0.112569)
(0.00038284 -0.000699278 0.122905)
(3.25315e-05 -0.00128588 0.118492)
(0.000147115 -0.000663415 0.124169)
(0.000233386 -0.000813485 0.112258)
(-0.00103499 -0.000458213 0.103244)
(-0.000461159 -0.00103618 0.103397)
(-0.000371719 -0.000375915 0.121439)
(-0.000669645 -0.00030838 0.102466)
(-0.000304183 -0.00067718 0.102737)
(1.47481e-05 0.000547169 0.110632)
(0.000136083 0.000332954 0.0872981)
(1.47942e-05 0.000784683 0.111097)
(9.82896e-05 0.000190725 0.0863945)
(-0.000147388 0.000209904 0.0755278)
(-0.000108506 0.000131426 0.0746661)
(0.000547351 1.49342e-05 0.109898)
(0.000328335 0.00012911 0.0870391)
(0.000781453 1.39251e-05 0.110671)
(0.000190679 9.98763e-05 0.0859821)
(-0.000277048 0.000271847 0.126358)
(0.000272904 -0.000274833 0.126359)
(-0.000272566 -0.00027488 0.126359)
(0.000222012 0.000217459 0.127529)
(-0.000221933 0.000217333 0.127528)
(0.000218016 -0.000220029 0.127529)
(-0.000218179 -0.000220116 0.127529)
(-0.000540758 1.86843e-05 0.119524)
(-0.000654127 0.000254281 0.111513)
(-0.000474176 0.000100232 0.125502)
(-0.000466636 0.000259894 0.124706)
(-0.000746348 1.94851e-05 0.119537)
(-0.00047618 0.000168212 0.110962)
(-0.000441878 9.22238e-05 0.125909)
(0.00020837 -0.000141313 0.0754358)
(0.000133871 -0.000108289 0.0744804)
(1.84582e-05 -0.000534676 0.119948)
(0.000102738 -0.000468296 0.125637)
(0.000255864 -0.000652998 0.111772)
(0.00025945 -0.000465324 0.124793)
(1.94693e-05 -0.000736183 0.119746)
(9.45651e-05 -0.000435454 0.126044)
(0.000164118 -0.000479408 0.111417)
(-0.000473461 -0.000305506 0.101403)
(-0.000310163 -0.000471243 0.101594)
(-0.000191704 -0.000191585 0.123126)
(-0.00035877 -0.00022205 0.100492)
(-0.000219589 -0.000359279 0.100803)
(8.73462e-06 0.000260271 0.109648)
(0.000103242 0.000214801 0.0849842)
(1.50992e-05 0.000507135 0.110016)
(8.30547e-05 7.25542e-05 0.0844554)
(-0.000120608 0.000121885 0.0733628)
(-9.91646e-05 5.01595e-05 0.0728684)
(0.000264757 9.51042e-06 0.10883)
(0.000214069 9.82632e-05 0.0846869)
(0.000506713 1.37247e-05 0.109504)
(7.49204e-05 8.79335e-05 0.0840043)
(-0.000204358 0.000199841 0.127874)
(0.000200703 -0.000201994 0.127875)
(-0.000200926 -0.000202196 0.127875)
(0.000145161 0.000142662 0.128727)
(-0.000145149 0.000142796 0.128727)
(0.000142237 -0.00014445 0.128729)
(-0.000142506 -0.000144555 0.128728)
(-0.000297992 1.22266e-05 0.119808)
(-0.000442636 0.000214841 0.110665)
(-0.000364898 7.43975e-05 0.126983)
(-0.000360354 0.000213428 0.126076)
(-0.000523971 1.68905e-05 0.12004)
(-0.00025339 0.000128036 0.11014)
(-0.000338624 6.81233e-05 0.127279)
(0.000122769 -0.000115401 0.0732452)
(5.35621e-05 -0.000101531 0.072652)
(1.17781e-05 -0.000292069 0.120285)
(7.6562e-05 -0.000358195 0.127114)
(0.000218147 -0.000439666 0.110966)
(0.000212597 -0.000358855 0.126165)
(1.7043e-05 -0.000512654 0.120285)
(7.03959e-05 -0.000332549 0.127412)
(0.000123976 -0.000255224 0.110637)
(-0.000292386 -0.000240139 0.0995201)
(-0.000246216 -0.000287485 0.0997375)
(-9.88865e-05 -9.82879e-05 0.124239)
(-0.000178858 -0.000166751 0.0987506)
(-0.000163036 -0.000178103 0.0990924)
(-1.31001e-05 3.2056e-05 0.108904)
(6.73691e-05 7.98689e-05 0.0839005)
(-5.31039e-06 0.000208291 0.109227)
(1.7384e-05 -2.89251e-05 0.0838686)
(-9.21331e-05 3.65151e-05 0.0722567)
(-3.33081e-05 -5.03976e-06 0.0721422)
(3.90849e-05 -1.1649e-05 0.108046)
(7.95973e-05 6.54378e-05 0.0835735)
(0.000210862 -6.04661e-06 0.108666)
(-2.64287e-05 2.47803e-05 0.0833954)
(-0.000129666 0.000126987 0.128966)
(0.000127168 -0.000128115 0.128968)
(-0.000127385 -0.000128422 0.128967)
(0.000107207 0.000107376 0.129552)
(-0.0001075 0.000107435 0.129553)
(0.000104898 -0.000108827 0.129555)
(-0.000105221 -0.000108946 0.129554)
(-0.000101621 -2.84487e-06 0.119449)
(-0.000187927 0.000143939 0.109986)
(-0.000259668 4.91694e-05 0.127979)
(-0.000254174 0.000165686 0.126911)
(-0.000264322 8.18079e-07 0.119942)
(-5.14162e-05 4.31553e-05 0.109545)
(-0.000241451 4.34823e-05 0.12814)
(3.55819e-05 -8.96479e-05 0.0721185)
(-4.29866e-06 -3.94043e-05 0.0719073)
(-3.95328e-06 -9.68732e-05 0.119956)
(5.10112e-05 -0.000256121 0.128108)
(0.000145547 -0.000184752 0.110306)
(0.000163426 -0.000254574 0.127005)
(1.25959e-06 -0.00025488 0.120205)
(4.48686e-05 -0.000238909 0.128276)
(3.65292e-05 -5.23531e-05 0.110056)
(-0.000104283 -0.000161816 0.0981779)
(-0.000164691 -0.000100632 0.098418)
(-1.70809e-06 -2.319e-06 0.124629)
(-4.09537e-05 -6.50029e-05 0.0976566)
(-5.75497e-05 -4.16107e-05 0.0980181)
(-1.12561e-05 3.34331e-05 0.108105)
(-3.07891e-06 7.42439e-05 0.0837025)
(-1.30985e-05 0.00015396 0.108449)
(-3.04279e-05 -3.19274e-06 0.0836303)
(-9.03761e-06 4.75386e-05 0.0718551)
(2.49703e-05 1.94626e-05 0.0717624)
(3.72254e-05 -8.70926e-06 0.107241)
(7.28514e-05 -2.65154e-06 0.0833587)
(0.000155759 -1.2582e-05 0.107871)
(-2.59329e-06 -1.91608e-05 0.0831424)
(-0.000109783 0.000108422 0.129747)
(0.00010734 -0.000109463 0.129748)
(-0.000107652 -0.000109801 0.129748)
(0.000119301 0.000122695 0.130277)
(-0.000119639 0.000123066 0.130277)
(0.000117357 -0.000123961 0.130281)
(-0.000117249 -0.000123917 0.130279)
(-0.000104965 -1.9211e-06 0.118865)
(-0.000139068 7.6681e-05 0.109476)
(-0.000212685 3.46172e-05 0.128585)
(-0.000208192 0.000129382 0.127415)
(-0.000218064 -4.27256e-06 0.119388)
(-6.24188e-05 -2.59778e-06 0.109035)
(-0.000212283 3.39104e-05 0.128699)
(4.43246e-05 -1.04641e-05 0.0717091)
(1.81372e-05 1.51544e-05 0.0715295)
(-3.39804e-06 -0.000104038 0.119378)
(3.44586e-05 -0.000212945 0.128712)
(7.63407e-05 -0.000138054 0.109795)
(0.000125191 -0.000211669 0.127513)
(-4.40721e-06 -0.000212818 0.11965)
(3.31144e-05 -0.000213669 0.12884)
(-1.17039e-05 -6.63309e-05 0.109543)
(-8.34367e-05 -6.59516e-05 0.0974059)
(-6.64463e-05 -8.31662e-05 0.0976517)
(3.88003e-05 3.59171e-05 0.124817)
(-5.51718e-05 3.24826e-07 0.0969918)
(1.12818e-05 -5.99847e-05 0.0973542)
(-4.75837e-06 3.83017e-05 0.107363)
(-1.31885e-05 0.000101177 0.0832779)
(-5.45744e-06 0.000169075 0.107674)
(-2.80943e-05 1.50118e-05 0.083125)
(3.69605e-06 6.27583e-05 0.0714343)
(2.24249e-05 2.72284e-05 0.0713143)
(3.99719e-05 -2.27987e-06 0.106515)
(9.71259e-05 -9.39373e-06 0.0829277)
(0.000166961 -4.42007e-06 0.10711)
(1.38262e-05 -1.54415e-05 0.0826376)
(-0.000126206 0.000126756 0.130479)
(0.000124299 -0.00012735 0.130481)
(-0.000123894 -0.000127358 0.130482)
(0.000126029 0.000131714 0.131018)
(-0.000125504 0.000132162 0.131018)
(0.000124177 -0.000132533 0.131022)
(-0.000123032 -0.00013234 0.13102)
(-0.000106645 2.40549e-06 0.11835)
(-0.000165545 6.22822e-05 0.108951)
(-0.000218341 3.63172e-05 0.129129)
(-0.00020926 0.000129033 0.127882)
(-0.000229243 1.50493e-06 0.118864)
(-7.88973e-05 -6.20021e-06 0.108499)
(-0.000224434 3.73022e-05 0.129229)
(5.65538e-05 -6.06524e-07 0.0713004)
(2.33222e-05 1.12662e-05 0.0710979)
(8.25085e-07 -0.000109076 0.118849)
(3.45564e-05 -0.000222847 0.12925)
(5.90562e-05 -0.000167473 0.109261)
(0.000122683 -0.000215935 0.127984)
(1.44072e-06 -0.000229125 0.119109)
(3.53833e-05 -0.000229819 0.129376)
(-1.78399e-05 -8.51127e-05 0.108997)
(-9.66946e-05 -4.89866e-05 0.0968316)
(-4.53644e-05 -0.000100637 0.0970709)
(4.57087e-05 4.05398e-05 0.125025)
(-5.87939e-05 1.73915e-06 0.0964385)
(1.52883e-05 -6.65589e-05 0.0967909)
(-2.32294e-06 1.92274e-05 0.106764)
(-3.98714e-06 0.000101482 0.082753)
(-1.89061e-06 0.000155116 0.107014)
(-1.73056e-05 1.04477e-05 0.0826298)
(-6.97646e-06 5.87789e-05 0.070986)
(1.05974e-05 1.94629e-05 0.0708857)
(1.97883e-05 -4.75882e-07 0.105937)
(9.64897e-05 -1.8898e-06 0.0824137)
(0.000150846 -1.67343e-06 0.106469)
(9.5306e-06 -7.86179e-06 0.082156)
(-0.000126997 0.000128067 0.131224)
(0.000125999 -0.000128108 0.131226)
(-0.000124624 -0.000128041 0.131229)
(0.000104375 0.000111605 0.131693)
(-0.000103372 0.000112071 0.131692)
(0.000102758 -0.000112684 0.131698)
(-0.000101439 -0.000112436 0.131697)
(-7.72498e-05 2.95247e-06 0.117886)
(-0.000157083 5.99627e-05 0.108445)
(-0.000224986 3.73248e-05 0.129664)
(-0.000203179 0.000132722 0.128284)
(-0.000206785 2.99638e-06 0.118382)
(-6.32493e-05 -9.19699e-06 0.108029)
(-0.000222519 3.60177e-05 0.129718)
(5.31556e-05 -8.73052e-06 0.0708758)
(1.85452e-05 3.8482e-06 0.0706936)
(1.08678e-06 -8.05899e-05 0.118363)
(3.56384e-05 -0.000233007 0.129774)
(5.70412e-05 -0.000160015 0.10874)
(0.000125615 -0.000210844 0.128392)
(2.8281e-06 -0.000209203 0.1186)
(3.46513e-05 -0.00023092 0.129875)
(-1.81791e-05 -6.86938e-05 0.108511)
(-8.68517e-05 -5.06574e-05 0.0963245)
(-4.90488e-05 -9.0777e-05 0.0965518)
(7.46166e-05 7.08216e-05 0.125072)
(-4.58814e-05 3.11735e-07 0.0959688)
(1.05781e-05 -5.16223e-05 0.0963102)
(-8.75734e-07 -1.2609e-05 0.106379)
(4.78816e-06 8.50514e-05 0.0823443)
(-5.58222e-07 0.00012343 0.106539)
(-9.61162e-06 -7.34774e-06 0.0822934)
(-1.46016e-05 4.56699e-05 0.0706291)
(6.17015e-06 7.00584e-06 0.0705865)
(-9.78672e-06 -4.7866e-07 0.105568)
(8.13512e-05 3.18927e-06 0.0820172)
(0.000119773 -1.04856e-06 0.106008)
(-6.66752e-06 -4.68994e-06 0.0818309)
(-0.000102042 0.000101209 0.131867)
(0.000101967 -0.000101841 0.131869)
(-0.000100336 -0.000101762 0.131873)
(6.93116e-05 7.76584e-05 0.13216)
(-6.83152e-05 7.74803e-05 0.132159)
(6.81188e-05 -7.97313e-05 0.132165)
(-6.71229e-05 -7.94695e-05 0.132163)
(-2.95362e-05 1.34776e-06 0.117551)
(-0.00012455 5.04109e-05 0.108058)
(-0.000183807 2.87167e-05 0.130079)
(-0.000154517 0.000105183 0.128497)
(-0.000159269 2.1633e-06 0.117986)
(-2.84334e-05 -1.80347e-05 0.107711)
(-0.000171766 2.63126e-05 0.130042)
(4.27805e-05 -1.28939e-05 0.0705304)
(7.39384e-06 1.70964e-06 0.0704032)
(5.03365e-07 -3.13394e-05 0.118011)
(2.86623e-05 -0.000193296 0.130172)
(5.17954e-05 -0.000126043 0.108343)
(0.000100142 -0.000161695 0.128617)
(2.34845e-06 -0.000161559 0.118187)
(2.66755e-05 -0.000179627 0.130215)
(-2.27973e-05 -3.21384e-05 0.108184)
(-6.59279e-05 -4.57775e-05 0.0959387)
(-4.73294e-05 -6.7448e-05 0.0961563)
(0.000126546 0.000125926 0.124977)
(-2.36253e-05 6.69164e-06 0.0956532)
(1.35401e-05 -2.73149e-05 0.0959828)
(-2.4423e-08 -3.90795e-05 0.106193)
(9.05239e-06 6.47363e-05 0.0821059)
(2.12248e-07 9.18943e-05 0.10627)
(-6.18631e-06 -2.59093e-05 0.0821357)
(-1.49604e-05 3.21354e-05 0.0704091)
(6.75292e-06 -6.7581e-06 0.0704308)
(-3.52215e-05 -3.34996e-07 0.105398)
(6.27299e-05 4.75918e-06 0.0817772)
(9.02526e-05 -1.26784e-06 0.105736)
(-2.37172e-05 -4.46746e-06 0.0816785)
(-7.00935e-05 6.53678e-05 0.132285)
(7.04084e-05 -6.74877e-05 0.132283)
(-6.91715e-05 -6.73537e-05 0.13229)
(3.89234e-05 4.89479e-05 0.132397)
(-3.83826e-05 4.86386e-05 0.132397)
(3.81504e-05 -5.16344e-05 0.132402)
(-3.7999e-05 -5.12623e-05 0.132397)
(1.2918e-05 -9.08818e-07 0.117377)
(-8.65202e-05 4.04087e-05 0.107826)
(-0.000112196 1.71829e-05 0.130301)
(-8.89056e-05 6.24934e-05 0.128515)
(-0.00011033 -2.03037e-07 0.117731)
(6.03641e-06 -2.72596e-05 0.107567)
(-0.000101305 1.54298e-05 0.130155)
(3.02262e-05 -1.25884e-05 0.0703097)
(-4.86411e-06 3.96952e-06 0.0702567)
(-2.9641e-07 1.18321e-05 0.117821)
(1.83076e-05 -0.00012227 0.130372)
(4.37885e-05 -8.65391e-05 0.108105)
(5.9698e-05 -9.48078e-05 0.128653)
(9.94109e-07 -0.000111806 0.117931)
(1.70615e-05 -0.00010751 0.130352)
(-2.86688e-05 3.95234e-06 0.108029)
(-4.2733e-05 -3.71618e-05 0.0957057)
(-4.07138e-05 -4.27612e-05 0.0959204)
(0.000168584 0.000170493 0.124863)
(-2.69503e-06 1.55332e-05 0.0955027)
(2.01661e-05 -4.90864e-06 0.0958232)
(8.64721e-07 -5.29949e-05 0.106143)
(9.95912e-06 5.27002e-05 0.0819828)
(5.28231e-07 7.2856e-05 0.106137)
(-5.55118e-06 -3.86981e-05 0.0821007)
(-1.49579e-05 2.25278e-05 0.0703028)
(9.51336e-06 -1.42299e-05 0.0703952)
(-5.28231e-05 2.78664e-07 0.105378)
(5.12819e-05 6.42729e-06 0.0816441)
(7.33416e-05 -2.86744e-07 0.10558)
(-3.69497e-05 -5.5993e-06 0.0816486)
(-4.49537e-05 3.71719e-05 0.132487)
(4.56429e-05 -3.96205e-05 0.132482)
(-4.49424e-05 -3.93829e-05 0.13249)
(1.92803e-05 2.91222e-05 0.132487)
(-1.94713e-05 2.90589e-05 0.132487)
(1.90874e-05 -3.1492e-05 0.132491)
(-1.92688e-05 -3.12439e-05 0.132484)
(3.88081e-05 -1.02542e-06 0.117339)
(-6.18065e-05 3.45976e-05 0.107693)
(-5.18861e-05 8.00049e-06 0.130389)
(-4.09952e-05 3.12049e-05 0.128432)
(-7.95784e-05 -1.24186e-06 0.117583)
(2.85029e-05 -3.22409e-05 0.107548)
(-4.83366e-05 7.68084e-06 0.130125)
(2.20351e-05 -1.14612e-05 0.070188)
(-1.42913e-05 6.96269e-06 0.0702278)
(-7.32926e-08 3.74212e-05 0.117749)
(9.18911e-06 -6.20821e-05 0.130429)
(3.90785e-05 -6.05938e-05 0.107971)
(2.89984e-05 -4.52786e-05 0.1286)
(-7.02825e-08 -7.93474e-05 0.1178)
(9.37584e-06 -5.17251e-05 0.130354)
(-3.20001e-05 2.58929e-05 0.108009)
(-2.81875e-05 -3.17664e-05 0.0955755)
(-3.70578e-05 -2.64708e-05 0.0957996)
(0.000188737 0.000192318 0.124794)
(1.09328e-05 2.2199e-05 0.0954705)
(2.60785e-05 8.61313e-06 0.0957804)
(7.58961e-07 -5.50407e-05 0.105689)
(9.5435e-06 5.11852e-05 0.0818837)
(-1.98025e-07 6.83248e-05 0.106051)
(-1.2823e-05 -4.25957e-05 0.0819113)
(-1.58673e-05 2.09583e-05 0.0702359)
(1.63556e-05 -2.06511e-05 0.0702968)
(5.12296e-05 8.19284e-06 0.0815399)
(6.9598e-05 1.08335e-07 0.105443)
(-2.60401e-05 1.89019e-05 0.132562)
(2.72928e-05 -2.02557e-05 0.132553)
(-2.64824e-05 -1.99049e-05 0.132563)
(5.02185e-05 -1.92809e-07 0.117411)
(-5.22124e-05 3.38852e-05 0.107573)
(-2.08953e-05 2.8098e-06 0.130441)
(-1.536e-05 1.1605e-05 0.128324)
(-6.72555e-05 -6.25969e-08 0.117457)
(3.91198e-05 -3.39165e-05 0.107635)
(-1.71395e-05 2.89094e-06 0.130032)
(2.34018e-05 -1.16186e-05 0.0701089)
(5.51008e-07 4.80781e-05 0.117415)
(4.07174e-06 -2.80428e-05 0.130439)
(3.7336e-05 -4.90033e-05 0.10784)
(-4.36529e-07 -6.37598e-05 0.11774)
(4.80534e-06 -2.01534e-05 0.130263)
(-2.55144e-05 -2.96197e-05 0.0954742)
(-3.62005e-05 -2.0632e-05 0.0957205)
(0.000195195 0.000201192 0.124792)
(1.79036e-05 2.57557e-05 0.0955255)
(2.73223e-05 1.23089e-05 0.0956661)
(0.000168674 0.000170151 0.114676)
(0.000461277 0.000423183 0.0904438)
(0.000423296 0.000461473 0.0904437)
(0.000566289 -0.000685071 0.0590867)
(0.000497214 0.000446281 0.0796622)
(-0.000690972 0.000569787 0.0590691)
(0.000446603 0.000497449 0.0796617)
(0.000374551 0.000368422 0.114696)
(0.000537733 0.000520545 0.0935404)
(0.000517147 0.000546034 0.0935342)
(0.000278583 0.000625578 0.0923934)
(0.000626062 0.000277778 0.0923972)
(3.08418e-05 0.00035515 0.110713)
(0.000200085 0.000172335 0.116431)
(0.000276072 0.000418825 0.0969875)
(1.01356e-05 0.00018811 0.118923)
(-3.09809e-05 0.000355303 0.110716)
(-0.000200266 0.000172565 0.11643)
(-0.000275963 0.000419064 0.0969873)
(-1.01983e-05 0.000188173 0.118925)
(7.50144e-06 0.000620153 0.103784)
(0.00192299 -0.00354568 0.0518434)
(0.000462409 0.000386418 0.0850622)
(-0.000144004 0.000766311 0.105899)
(-7.97936e-06 0.000619768 0.103787)
(-0.00192283 -0.00354679 0.0518392)
(-0.000458781 0.000387032 0.0850543)
(0.000143651 0.000766406 0.105904)
(5.11446e-05 0.000570697 0.110702)
(0.000284033 0.000395027 0.11647)
(0.00108986 1.96457e-05 0.0979548)
(0.000115038 0.000554493 0.118024)
(0.000315086 0.000643748 0.0993041)
(5.49322e-05 0.000304987 0.118539)
(5.68768e-06 0.000716675 0.112312)
(-5.11218e-05 0.000570751 0.110705)
(-0.00028424 0.000395273 0.116469)
(-0.0010915 1.80041e-05 0.0979582)
(-0.000115354 0.000554583 0.118026)
(-0.000314083 0.000643604 0.0993173)
(-5.51169e-05 0.000305079 0.118541)
(-6.1438e-06 0.000716742 0.112315)
(-0.000168792 0.000170079 0.114675)
(-0.000462877 0.000427726 0.0903967)
(-0.000423148 0.000461336 0.090445)
(-0.000568078 -0.0006908 0.0591016)