/*--------------------------------*- C++ -*----------------------------------*\
| =========                 |                                                 |
| \\      /  F ield         | OpenFOAM: The Open Source CFD Toolbox           |
|  \\    /   O peration     | Version:  2206                                  |
|   \\  /    A nd           | Website:  www.openfoam.com                      |
|    \\/     M anipulation  |                                                 |
\*---------------------------------------------------------------------------*/
FoamFile
{
    version     2.0;
    format      ascii;
    arch        "LSB;label=32;scalar=64";
    class       volScalarField;
    location    "0.6";
    object      k;
}
// * * * * * * * * * * * * * * * * * * * * * * * * * * * * * * * * * * * * * //

dimensions      [0 2 -2 0 0 0 0];

internalField   nonuniform List<scalar> 
183793
(
1.30106e-08
1.27194e-08
1.23543e-08
1.20194e-08
1.2787e-08
1.23316e-08
1.20157e-08
1.20085e-08
1.20685e-08
1.27085e-08
1.19365e-08
1.20156e-08
1.30415e-08
1.19813e-08
1.2761e-08
1.19867e-08
1.19215e-08
1.2049e-08
1.27543e-08
1.20671e-08
1.20284e-08
1.23612e-08
1.27686e-08
1.30954e-08
1.27194e-08
1.27234e-08
1.27309e-08
1.23532e-08
1.2024e-08
1.27328e-08
1.22207e-08
1.19761e-08
1.29154e-08
1.27194e-08
1.27188e-08
1.22377e-08
1.30603e-08
1.22069e-08
1.2767e-08
1.30873e-08
1.19732e-08
1.27303e-08
1.31234e-08
1.30946e-08
1.27442e-08
1.27141e-08
1.27196e-08
1.19751e-08
1.27704e-08
1.27194e-08
1.29118e-08
1.30991e-08
1.30075e-08
1.2018e-08
1.22658e-08
1.27895e-08
1.27655e-08
1.22515e-08
1.23128e-08
1.3098e-08
1.2756e-08
1.31147e-08
1.2964e-08
1.19997e-08
1.19061e-08
1.23055e-08
1.30871e-08
1.22221e-08
1.29601e-08
1.31567e-08
1.22391e-08
1.20047e-08
1.29441e-08
1.29004e-08
1.22605e-08
1.22174e-08
1.22434e-08
1.22343e-08
1.28989e-08
1.28846e-08
1.27005e-08
1.27246e-08
1.19738e-08
1.22947e-08
1.31244e-08
1.22841e-08
1.28634e-08
1.30746e-08
1.28949e-08
1.22189e-08
1.29057e-08
1.21845e-08
1.28744e-08
1.322e-08
1.27289e-08
1.29085e-08
1.28733e-08
1.22879e-08
1.22437e-08
1.21828e-08
1.22508e-08
1.22049e-08
1.22167e-08
1.28736e-08
1.22274e-08
1.28771e-08
1.28773e-08
1.30682e-08
1.22108e-08
1.30464e-08
1.27967e-08
1.19419e-08
1.22293e-08
1.22864e-08
1.28539e-08
1.2704e-08
1.30564e-08
1.28915e-08
1.29182e-08
1.22232e-08
1.28919e-08
1.27051e-08
1.22479e-08
1.31176e-08
1.22393e-08
1.2307e-08
1.30673e-08
1.22269e-08
1.27587e-08
1.28829e-08
1.31083e-08
1.31071e-08
1.29445e-08
1.29414e-08
1.2293e-08
1.28988e-08
1.2154e-08
1.22992e-08
1.30708e-08
1.29719e-08
1.30048e-08
1.23111e-08
1.29893e-08
1.20199e-08
1.19988e-08
1.28761e-08
1.22756e-08
1.31563e-08
1.29719e-08
1.21745e-08
1.19487e-08
1.19612e-08
1.29228e-08
1.22817e-08
1.21845e-08
1.23242e-08
1.29482e-08
1.28789e-08
1.22415e-08
1.22222e-08
1.29624e-08
1.20635e-08
1.28798e-08
1.19835e-08
1.30839e-08
1.22192e-08
1.21312e-08
1.27399e-08
1.2148e-08
1.22295e-08
1.22423e-08
1.27401e-08
1.22652e-08
1.30479e-08
1.22308e-08
1.2147e-08
1.19949e-08
1.30284e-08
1.29751e-08
1.28496e-08
1.28812e-08
1.28717e-08
1.2317e-08
1.3039e-08
1.22002e-08
1.22438e-08
1.21681e-08
1.30311e-08
1.29444e-08
1.29617e-08
1.21627e-08
1.2331e-08
1.30023e-08
1.23023e-08
1.29664e-08
1.22763e-08
1.30027e-08
1.30245e-08
1.22481e-08
1.2332e-08
1.22876e-08
1.30249e-08
1.23309e-08
1.20304e-08
1.27207e-08
1.22077e-08
1.22443e-08
1.21974e-08
1.29737e-08
1.30001e-08
1.30148e-08
1.2336e-08
1.22123e-08
1.2996e-08
1.29518e-08
1.29907e-08
1.22923e-08
1.30453e-08
1.23429e-08
1.2889e-08
1.30301e-08
1.23171e-08
1.23792e-08
1.30337e-08
1.30875e-08
1.3023e-08
1.23877e-08
1.29965e-08
1.29814e-08
1.3174e-08
1.20338e-08
1.19804e-08
1.23594e-08
1.27216e-08
1.29682e-08
1.30438e-08
1.30028e-08
1.29742e-08
1.23107e-08
1.23427e-08
1.23818e-08
1.22711e-08
1.23508e-08
1.22887e-08
1.30302e-08
1.21562e-08
1.29533e-08
1.22648e-08
1.20127e-08
1.24043e-08
1.22868e-08
1.29613e-08
1.27509e-08
1.20052e-08
1.29872e-08
1.19988e-08
1.27776e-08
1.27872e-08
1.276e-08
1.19986e-08
1.29037e-08
1.21821e-08
1.29541e-08
1.27651e-08
1.22235e-08
1.2976e-08
1.29265e-08
1.22706e-08
1.31021e-08
1.29798e-08
1.20168e-08
1.28963e-08
1.22076e-08
1.22728e-08
1.28817e-08
1.22388e-08
1.29781e-08
1.23504e-08
1.23385e-08
1.28841e-08
1.29994e-08
1.22591e-08
1.3016e-08
1.21931e-08
1.21964e-08
1.23636e-08
1.22556e-08
1.29085e-08
1.3054e-08
1.22089e-08
1.19796e-08
1.22251e-08
1.2689e-08
1.29124e-08
1.29774e-08
1.27506e-08
1.28962e-08
1.23111e-08
1.28887e-08
1.2319e-08
1.30533e-08
1.1949e-08
1.27705e-08
1.30207e-08
1.28907e-08
1.29005e-08
1.19857e-08
1.22879e-08
1.2193e-08
1.21853e-08
1.29805e-08
1.21988e-08
1.2214e-08
1.31014e-08
1.31215e-08
1.23575e-08
1.21444e-08
1.22525e-08
1.22526e-08
1.22462e-08
1.21857e-08
1.22287e-08
1.29233e-08
1.28585e-08
1.29286e-08
1.28612e-08
1.22837e-08
1.21947e-08
1.28937e-08
1.28678e-08
1.21952e-08
1.30371e-08
1.21667e-08
1.22487e-08
1.27496e-08
1.30519e-08
1.23706e-08
1.30536e-08
1.23135e-08
1.27297e-08
1.22412e-08
1.21715e-08
1.22501e-08
1.20044e-08
1.21841e-08
1.31147e-08
1.23075e-08
1.29721e-08
1.29516e-08
1.31096e-08
1.28585e-08
1.30256e-08
1.20114e-08
1.28019e-08
1.22961e-08
1.23374e-08
1.23657e-08
1.3085e-08
1.31091e-08
1.30091e-08
1.29868e-08
1.29706e-08
1.20892e-08
1.2327e-08
1.30973e-08
1.31055e-08
1.29593e-08
1.22224e-08
1.23394e-08
1.19408e-08
1.31255e-08
1.28191e-08
1.20377e-08
1.28337e-08
1.27506e-08
1.19958e-08
1.21905e-08
1.27007e-08
1.19419e-08
1.27292e-08
1.30991e-08
1.30337e-08
1.21492e-08
1.31951e-08
1.23339e-08
1.22167e-08
1.22663e-08
1.30286e-08
1.28844e-08
1.22651e-08
1.31111e-08
1.2271e-08
1.23204e-08
1.29921e-08
1.2953e-08
1.23104e-08
1.31185e-08
1.22212e-08
1.20591e-08
1.27594e-08
1.22033e-08
1.23475e-08
1.2194e-08
1.29293e-08
1.27109e-08
1.21867e-08
1.21901e-08
1.2276e-08
1.30429e-08
1.22207e-08
1.22096e-08
1.30684e-08
1.20416e-08
1.22046e-08
1.23056e-08
1.3122e-08
1.22393e-08
1.31398e-08
1.22436e-08
1.22461e-08
1.22313e-08
1.27515e-08
1.28777e-08
1.29135e-08
1.31546e-08
1.29707e-08
1.2209e-08
1.28735e-08
1.21645e-08
1.31421e-08
1.1977e-08
1.28623e-08
1.22162e-08
1.2862e-08
1.2795e-08
1.20266e-08
1.22872e-08
1.23237e-08
1.28124e-08
1.3043e-08
1.29386e-08
1.22676e-08
1.28661e-08
1.3142e-08
1.23457e-08
1.23486e-08
1.23036e-08
1.21869e-08
1.31089e-08
1.19846e-08
1.22564e-08
1.22208e-08
1.31195e-08
1.31028e-08
1.20032e-08
1.26908e-08
1.1975e-08
1.28851e-08
1.22237e-08
1.28632e-08
1.2195e-08
1.22102e-08
1.27199e-08
1.31656e-08
1.22666e-08
1.28918e-08
1.29807e-08
1.22314e-08
1.22772e-08
1.31276e-08
1.30117e-08
1.28001e-08
1.3064e-08
1.29888e-08
1.28654e-08
1.23066e-08
1.2217e-08
1.29819e-08
1.20005e-08
1.28036e-08
1.30969e-08
1.22006e-08
1.30868e-08
1.29672e-08
1.22796e-08
1.27655e-08
1.28674e-08
1.30135e-08
1.30311e-08
1.22384e-08
1.3142e-08
1.1933e-08
1.30548e-08
1.21219e-08
1.22576e-08
1.22044e-08
1.28569e-08
1.28021e-08
1.28915e-08
1.22331e-08
1.23647e-08
1.27134e-08
1.27276e-08
1.30553e-08
1.2149e-08
1.31067e-08
1.2201e-08
1.22028e-08
1.21186e-08
1.21196e-08
1.29316e-08
1.2712e-08
1.22127e-08
1.21796e-08
1.28508e-08
1.28581e-08
1.21463e-08
1.22339e-08
1.22335e-08
1.28755e-08
1.2173e-08
1.31149e-08
1.27324e-08
1.19838e-08
1.21622e-08
1.19734e-08
1.27234e-08
1.21949e-08
1.21894e-08
1.22124e-08
1.29077e-08
1.22125e-08
1.22693e-08
1.2248e-08
1.20294e-08
1.2783e-08
1.27067e-08
1.22131e-08
1.22782e-08
1.28554e-08
1.23856e-08
1.20093e-08
1.28721e-08
1.31032e-08
1.27738e-08
1.21825e-08
1.28486e-08
1.19752e-08
1.22982e-08
1.19816e-08
1.19609e-08
1.19473e-08
1.2266e-08
1.22138e-08
1.28989e-08
1.23366e-08
1.21652e-08
1.22496e-08
1.31616e-08
1.21437e-08
1.30468e-08
1.2002e-08
1.27169e-08
1.27251e-08
1.19774e-08
1.21816e-08
1.19553e-08
1.29611e-08
1.29976e-08
1.23805e-08
1.19249e-08
1.21707e-08
1.28875e-08
1.29177e-08
1.29252e-08
1.22464e-08
1.29236e-08
1.29427e-08
1.23106e-08
1.29463e-08
1.23309e-08
1.29772e-08
1.23136e-08
1.29773e-08
1.23646e-08
1.23964e-08
1.23473e-08
1.23596e-08
1.29824e-08
1.23492e-08
1.2991e-08
1.22979e-08
1.29295e-08
1.23446e-08
1.29492e-08
1.23433e-08
1.29833e-08
1.23272e-08
1.29517e-08
1.23758e-08
1.30142e-08
1.23284e-08
1.29281e-08
1.23084e-08
1.295e-08
1.23382e-08
1.29698e-08
1.2312e-08
1.29689e-08
1.23646e-08
1.2953e-08
1.22859e-08
1.29286e-08
1.2286e-08
1.29333e-08
1.23157e-08
1.29622e-08
1.23298e-08
1.29435e-08
1.22853e-08
1.29451e-08
1.22769e-08
1.29165e-08
1.23179e-08
1.2969e-08
1.23285e-08
1.29522e-08
1.23306e-08
1.298e-08
1.23497e-08
1.30339e-08
1.23942e-08
1.30616e-08
1.24494e-08
1.3025e-08
1.2316e-08
1.29517e-08
1.23414e-08
1.29805e-08
1.23095e-08
1.29472e-08
1.22854e-08
1.29137e-08
1.2295e-08
1.29024e-08
1.22855e-08
1.30022e-08
1.23195e-08
1.29473e-08
1.2339e-08
1.29606e-08
1.23402e-08
1.29738e-08
1.22948e-08
1.29667e-08
1.23679e-08
1.29717e-08
1.23374e-08
1.29616e-08
1.2282e-08
1.29283e-08
1.22784e-08
1.29313e-08
1.2317e-08
1.29265e-08
1.2249e-08
1.2876e-08
1.22613e-08
1.28539e-08
1.21695e-08
1.28592e-08
1.22174e-08
1.28782e-08
1.22657e-08
1.28818e-08
1.22711e-08
1.29213e-08
1.23059e-08
1.29725e-08
1.23683e-08
1.29775e-08
1.23086e-08
1.29683e-08
1.23262e-08
1.29922e-08
1.23321e-08
1.29846e-08
1.23411e-08
1.29825e-08
1.23049e-08
1.29763e-08
1.22926e-08
1.29258e-08
1.22917e-08
1.29477e-08
1.23472e-08
1.29714e-08
1.23466e-08
1.29807e-08
1.23377e-08
1.30081e-08
1.23326e-08
1.29895e-08
1.23297e-08
1.29726e-08
1.23347e-08
1.30075e-08
1.23456e-08
1.30082e-08
1.23493e-08
1.3003e-08
1.23832e-08
1.3048e-08
1.24076e-08
1.30371e-08
1.23696e-08
1.30523e-08
1.24212e-08
1.30127e-08
1.23631e-08
1.30303e-08
1.23639e-08
1.30179e-08
1.23493e-08
1.29903e-08
1.23451e-08
1.29734e-08
1.23055e-08
1.29901e-08
1.23291e-08
1.29556e-08
1.23171e-08
1.29847e-08
1.22931e-08
1.29334e-08
1.23379e-08
1.29627e-08
1.23075e-08
1.29498e-08
1.22764e-08
1.29295e-08
1.23106e-08
1.29467e-08
1.22769e-08
1.29268e-08
1.23286e-08
1.29505e-08
1.22768e-08
1.2947e-08
1.22778e-08
1.29104e-08
1.22869e-08
1.29196e-08
1.23113e-08
1.29234e-08
1.22701e-08
1.29178e-08
1.22295e-08
1.29022e-08
1.22522e-08
1.29308e-08
1.23049e-08
1.29238e-08
1.2341e-08
1.29513e-08
1.23691e-08
1.3022e-08
1.24233e-08
1.30965e-08
1.24017e-08
1.30239e-08
1.2324e-08
1.29724e-08
1.23161e-08
1.29595e-08
1.23311e-08
1.29395e-08
1.22338e-08
1.29542e-08
1.22976e-08
1.29123e-08
1.22991e-08
1.2991e-08
1.23333e-08
1.30049e-08
1.23294e-08
1.2948e-08
1.23389e-08
1.29759e-08
1.22959e-08
1.30046e-08
1.23449e-08
1.29623e-08
1.23172e-08
1.29671e-08
1.2273e-08
1.29372e-08
1.22574e-08
1.28996e-08
1.22601e-08
1.29078e-08
1.22609e-08
1.29015e-08
1.22696e-08
1.28779e-08
1.22354e-08
1.29116e-08
1.22803e-08
1.29391e-08
1.22569e-08
1.29342e-08
1.22958e-08
1.29272e-08
1.23094e-08
1.29513e-08
1.23546e-08
1.29917e-08
1.2287e-08
1.29308e-08
1.22951e-08
1.2955e-08
1.23325e-08
1.29871e-08
1.23474e-08
1.29655e-08
1.2301e-08
1.29614e-08
1.22925e-08
1.29298e-08
1.22472e-08
1.29207e-08
1.23006e-08
1.29179e-08
1.2309e-08
1.29368e-08
1.23195e-08
1.29476e-08
1.23007e-08
1.29575e-08
1.2287e-08
1.2912e-08
1.22848e-08
1.29353e-08
1.23148e-08
1.29684e-08
1.23319e-08
1.29877e-08
1.23657e-08
1.29964e-08
1.23834e-08
1.3019e-08
1.23543e-08
1.30187e-08
1.23953e-08
1.30189e-08
1.23308e-08
1.29752e-08
1.23561e-08
1.29935e-08
1.23006e-08
1.29895e-08
1.23352e-08
1.29429e-08
1.22818e-08
1.29891e-08
1.23199e-08
1.30012e-08
1.23276e-08
1.3004e-08
1.23183e-08
1.29814e-08
1.23667e-08
1.29926e-08
1.23187e-08
1.29738e-08
1.22913e-08
1.29768e-08
1.23182e-08
1.296e-08
1.22834e-08
1.29207e-08
1.23026e-08
1.29229e-08
1.22819e-08
1.29563e-08
1.22862e-08
1.29503e-08
1.2293e-08
1.29117e-08
1.2268e-08
1.29133e-08
1.22848e-08
1.29003e-08
1.22502e-08
1.2899e-08
1.22079e-08
1.29338e-08
1.22829e-08
1.29146e-08
1.22595e-08
1.29367e-08
1.22798e-08
1.29629e-08
1.24062e-08
1.30035e-08
1.23267e-08
1.29642e-08
1.23066e-08
1.29488e-08
1.22756e-08
1.29116e-08
1.2313e-08
1.29321e-08
1.22428e-08
1.29502e-08
1.23011e-08
1.29347e-08
1.22978e-08
1.29406e-08
1.233e-08
1.30064e-08
1.23071e-08
1.29716e-08
1.23353e-08
1.29454e-08
1.2289e-08
1.29865e-08
1.23115e-08
1.29443e-08
1.22966e-08
1.29529e-08
1.22824e-08
1.29652e-08
1.22968e-08
1.29634e-08
1.22766e-08
1.29185e-08
1.22684e-08
1.29591e-08
1.22744e-08
1.29124e-08
1.22444e-08
1.29167e-08
1.23079e-08
1.29458e-08
1.22342e-08
1.29288e-08
1.23065e-08
1.29646e-08
1.23312e-08
1.293e-08
1.23423e-08
1.29868e-08
1.23073e-08
1.29766e-08
1.22986e-08
1.29675e-08
1.23418e-08
1.29903e-08
1.23552e-08
1.29712e-08
1.2319e-08
1.29453e-08
1.22875e-08
1.29353e-08
1.2233e-08
1.2911e-08
1.22612e-08
1.28723e-08
1.22202e-08
1.29084e-08
1.22807e-08
1.29312e-08
1.22783e-08
1.2974e-08
1.23163e-08
1.29682e-08
1.23021e-08
1.2943e-08
1.22979e-08
1.29413e-08
1.22954e-08
1.29748e-08
1.23349e-08
1.29612e-08
1.23141e-08
1.29604e-08
1.23101e-08
1.29562e-08
1.23415e-08
1.2999e-08
1.23311e-08
1.2961e-08
1.23398e-08
1.29737e-08
1.23309e-08
1.29945e-08
1.2385e-08
1.29856e-08
1.23118e-08
1.29645e-08
1.23155e-08
1.29999e-08
1.23384e-08
1.29989e-08
1.23097e-08
1.29795e-08
1.23801e-08
1.30216e-08
1.23445e-08
1.29653e-08
1.22742e-08
1.29522e-08
1.23119e-08
1.2953e-08
1.22833e-08
1.29454e-08
1.22796e-08
1.29259e-08
1.22681e-08
1.29121e-08
1.22831e-08
1.29203e-08
1.23009e-08
1.29315e-08
1.22741e-08
1.2911e-08
1.22737e-08
1.28935e-08
1.22364e-08
1.28795e-08
1.21982e-08
1.28966e-08
1.22653e-08
1.29046e-08
1.22558e-08
1.29278e-08
1.22476e-08
1.29759e-08
1.23544e-08
1.30033e-08
1.23503e-08
1.30133e-08
1.2371e-08
1.30134e-08
1.23165e-08
1.29315e-08
1.22887e-08
1.2931e-08
1.22783e-08
1.29571e-08
1.23116e-08
1.2966e-08
1.22778e-08
1.29093e-08
1.22901e-08
1.29563e-08
1.22745e-08
1.2991e-08
1.23503e-08
1.29605e-08
1.23064e-08
1.29996e-08
1.23689e-08
1.30269e-08
1.23717e-08
1.29922e-08
1.23174e-08
1.29911e-08
1.23329e-08
1.29932e-08
1.23153e-08
1.29075e-08
1.22751e-08
1.29353e-08
1.22812e-08
1.29308e-08
1.22549e-08
1.29017e-08
1.23101e-08
1.29572e-08
1.22612e-08
1.28985e-08
1.23011e-08
1.29689e-08
1.23419e-08
1.29676e-08
1.23139e-08
1.29507e-08
1.23109e-08
1.29653e-08
1.2288e-08
1.29772e-08
1.23359e-08
1.29779e-08
1.23485e-08
1.29588e-08
1.22964e-08
1.2918e-08
1.2247e-08
1.29004e-08
1.22224e-08
1.28974e-08
1.22411e-08
1.29074e-08
1.22335e-08
1.29476e-08
1.23152e-08
1.29607e-08
1.2268e-08
1.2944e-08
1.23329e-08
1.29939e-08
1.23254e-08
1.2991e-08
1.23247e-08
1.29638e-08
1.22866e-08
1.29612e-08
1.2343e-08
1.29947e-08
1.23433e-08
1.29848e-08
1.23255e-08
1.29647e-08
1.23124e-08
1.29645e-08
1.2321e-08
1.29775e-08
1.23202e-08
1.29635e-08
1.22929e-08
1.29615e-08
1.23525e-08
1.29673e-08
1.22963e-08
1.29498e-08
1.22697e-08
1.29373e-08
1.23225e-08
1.29751e-08
1.22802e-08
1.29674e-08
1.23631e-08
1.29973e-08
1.23852e-08
1.30134e-08
1.23117e-08
1.2951e-08
1.23408e-08
1.29448e-08
1.23086e-08
1.29425e-08
1.22803e-08
1.29608e-08
1.22603e-08
1.29177e-08
1.2249e-08
1.28862e-08
1.22308e-08
1.29156e-08
1.22524e-08
1.2885e-08
1.22368e-08
1.28618e-08
1.22285e-08
1.28976e-08
1.22503e-08
1.29173e-08
1.22877e-08
1.29238e-08
1.23052e-08
1.2949e-08
1.23035e-08
1.30486e-08
1.23412e-08
1.30084e-08
1.23696e-08
1.30076e-08
1.23772e-08
1.3038e-08
1.23616e-08
1.29918e-08
1.22839e-08
1.2931e-08
1.22754e-08
1.29196e-08
1.22935e-08
1.29434e-08
1.22853e-08
1.2912e-08
1.22557e-08
1.2895e-08
1.22477e-08
1.29483e-08
1.23066e-08
1.29711e-08
1.2287e-08
1.29443e-08
1.233e-08
1.3027e-08
1.23929e-08
1.29789e-08
1.23065e-08
1.29401e-08
1.22874e-08
1.29417e-08
1.22928e-08
1.29319e-08
1.22868e-08
1.29203e-08
1.22869e-08
1.29409e-08
1.22408e-08
1.28786e-08
1.22541e-08
1.29219e-08
1.22482e-08
1.2873e-08
1.22409e-08
1.2889e-08
1.22853e-08
1.29749e-08
1.22872e-08
1.29605e-08
1.23135e-08
1.29226e-08
1.22531e-08
1.29631e-08
1.23249e-08
1.29679e-08
1.23296e-08
1.29579e-08
1.22862e-08
1.293e-08
1.2265e-08
1.29193e-08
1.22688e-08
1.29039e-08
1.22454e-08
1.29362e-08
1.22575e-08
1.29556e-08
1.23507e-08
1.3036e-08
1.23305e-08
1.29798e-08
1.235e-08
1.30031e-08
1.23687e-08
1.30276e-08
1.23684e-08
1.30236e-08
1.23036e-08
1.29838e-08
1.23208e-08
1.29744e-08
1.23455e-08
1.30195e-08
1.23493e-08
1.30022e-08
1.23297e-08
1.29646e-08
1.23086e-08
1.29629e-08
1.23208e-08
1.29824e-08
1.22789e-08
1.29855e-08
1.23675e-08
1.2977e-08
1.23208e-08
1.30088e-08
1.23109e-08
1.2981e-08
1.23341e-08
1.30128e-08
1.23238e-08
1.30254e-08
1.23644e-08
1.29623e-08
1.23507e-08
1.30229e-08
1.22888e-08
1.29643e-08
1.23063e-08
1.29331e-08
1.22879e-08
1.28899e-08
1.22646e-08
1.2956e-08
1.23111e-08
1.2956e-08
1.22933e-08
1.29218e-08
1.22431e-08
1.2907e-08
1.22468e-08
1.28945e-08
1.22356e-08
1.28611e-08
1.22193e-08
1.2863e-08
1.22252e-08
1.29156e-08
1.22762e-08
1.29159e-08
1.22893e-08
1.29144e-08
1.22902e-08
1.30072e-08
1.23166e-08
1.30151e-08
1.235e-08
1.2977e-08
1.23411e-08
1.30043e-08
1.23916e-08
1.30449e-08
1.23298e-08
1.30018e-08
1.2319e-08
1.29357e-08
1.23032e-08
1.29527e-08
1.23229e-08
1.29886e-08
1.22946e-08
1.29218e-08
1.22685e-08
1.29235e-08
1.22736e-08
1.29681e-08
1.23059e-08
1.29205e-08
1.22505e-08
1.29685e-08
1.23703e-08
1.30083e-08
1.2322e-08
1.29811e-08
1.22919e-08
1.29211e-08
1.22495e-08
1.2914e-08
1.22855e-08
1.28961e-08
1.22701e-08
1.29392e-08
1.22641e-08
1.28764e-08
1.22079e-08
1.28674e-08
1.22322e-08
1.28873e-08
1.22194e-08
1.28484e-08
1.23119e-08
1.22525e-08
1.29523e-08
1.2339e-08
1.2975e-08
1.22735e-08
1.29765e-08
1.2333e-08
1.29395e-08
1.23072e-08
1.29677e-08
1.23105e-08
1.29591e-08
1.23053e-08
1.29416e-08
1.23059e-08
1.29419e-08
1.22734e-08
1.29482e-08
1.22802e-08
1.29427e-08
1.23461e-08
1.30138e-08
1.2349e-08
1.30246e-08
1.23418e-08
1.29854e-08
1.23563e-08
1.29907e-08
1.2367e-08
1.29959e-08
1.23225e-08
1.3025e-08
1.23347e-08
1.29631e-08
1.2326e-08
1.30046e-08
1.23727e-08
1.30235e-08
1.23562e-08
1.30054e-08
1.23455e-08
1.29847e-08
1.23442e-08
1.30054e-08
1.22999e-08
1.29894e-08
1.23703e-08
1.29914e-08
1.23525e-08
1.30063e-08
1.23362e-08
1.29691e-08
1.22982e-08
1.29651e-08
1.23203e-08
1.30303e-08
1.2363e-08
1.29565e-08
1.23112e-08
1.29596e-08
1.22847e-08
1.29532e-08
1.2293e-08
1.29823e-08
1.23121e-08
1.29422e-08
1.22828e-08
1.29512e-08
1.23203e-08
1.29731e-08
1.23208e-08
1.2949e-08
1.22751e-08
1.29059e-08
1.22416e-08
1.28932e-08
1.2211e-08
1.28553e-08
1.21724e-08
1.28296e-08
1.21739e-08
1.28669e-08
1.2266e-08
1.28973e-08
1.22745e-08
1.29505e-08
1.2336e-08
1.29787e-08
1.23278e-08
1.30295e-08
1.23712e-08
1.30127e-08
1.23271e-08
1.29671e-08
1.2342e-08
1.29931e-08
1.23075e-08
1.30067e-08
1.2325e-08
1.29589e-08
1.2283e-08
1.29326e-08
1.23065e-08
1.29695e-08
1.2329e-08
1.29619e-08
1.22902e-08
1.29419e-08
1.22995e-08
1.29882e-08
1.23751e-08
1.30168e-08
1.2291e-08
1.29654e-08
1.23701e-08
1.29917e-08
1.23621e-08
1.30079e-08
1.23116e-08
1.29826e-08
1.22575e-08
1.29432e-08
1.22861e-08
1.2884e-08
1.22336e-08
1.29239e-08
1.23116e-08
1.29447e-08
1.2244e-08
1.2887e-08
1.22553e-08
1.29088e-08
1.22353e-08
1.2902e-08
1.22657e-08
1.29286e-08
1.23395e-08
1.29844e-08
1.22988e-08
1.29701e-08
1.23189e-08
1.29474e-08
1.22898e-08
1.29532e-08
1.23027e-08
1.29583e-08
1.22943e-08
1.29254e-08
1.22868e-08
1.29422e-08
1.22797e-08
1.29392e-08
1.22553e-08
1.29262e-08
1.23231e-08
1.29238e-08
1.23217e-08
1.29983e-08
1.23075e-08
1.29745e-08
1.2308e-08
1.29599e-08
1.23423e-08
1.2962e-08
1.23092e-08
1.2993e-08
1.2343e-08
1.29809e-08
1.22957e-08
1.29503e-08
1.23361e-08
1.2999e-08
1.23562e-08
1.29928e-08
1.23401e-08
1.2988e-08
1.23438e-08
1.30086e-08
1.23275e-08
1.29768e-08
1.23392e-08
1.29935e-08
1.23641e-08
1.29867e-08
1.23447e-08
1.30026e-08
1.23193e-08
1.29535e-08
1.23195e-08
1.29816e-08
1.23573e-08
1.29995e-08
1.23137e-08
1.29751e-08
1.23053e-08
1.29384e-08
1.22674e-08
1.2956e-08
1.22886e-08
1.29622e-08
1.22953e-08
1.29523e-08
1.22869e-08
1.2964e-08
1.23319e-08
1.29813e-08
1.23065e-08
1.2931e-08
1.22893e-08
1.29294e-08
1.22776e-08
1.29147e-08
1.22192e-08
1.28954e-08
1.21926e-08
1.28833e-08
1.22632e-08
1.29149e-08
1.2272e-08
1.29717e-08
1.23579e-08
1.29874e-08
1.23079e-08
1.29872e-08
1.23754e-08
1.30428e-08
1.23758e-08
1.29971e-08
1.23534e-08
1.29562e-08
1.23148e-08
1.29423e-08
1.22956e-08
1.2967e-08
1.22775e-08
1.29478e-08
1.22719e-08
1.2899e-08
1.22737e-08
1.29309e-08
1.22834e-08
1.29452e-08
1.22739e-08
1.29438e-08
1.23455e-08
1.30052e-08
1.23113e-08
1.30001e-08
1.23357e-08
1.29871e-08
1.2387e-08
1.29762e-08
1.2326e-08
1.29998e-08
1.22788e-08
1.29771e-08
1.2311e-08
1.29308e-08
1.22466e-08
1.28992e-08
1.2307e-08
1.29587e-08
1.22444e-08
1.29036e-08
1.22592e-08
1.29074e-08
1.22453e-08
1.28993e-08
1.22527e-08
1.29177e-08
1.23105e-08
1.29707e-08
1.23385e-08
1.29787e-08
1.23251e-08
1.29715e-08
1.22828e-08
1.29461e-08
1.23095e-08
1.29648e-08
1.23047e-08
1.29312e-08
1.2252e-08
1.29371e-08
1.22665e-08
1.29169e-08
1.22107e-08
1.29307e-08
1.22981e-08
1.29304e-08
1.23307e-08
1.29892e-08
1.23308e-08
1.3022e-08
1.23257e-08
1.2973e-08
1.23549e-08
1.29972e-08
1.2325e-08
1.29824e-08
1.23516e-08
1.3005e-08
1.22864e-08
1.29528e-08
1.23039e-08
1.29727e-08
1.23657e-08
1.2968e-08
1.23098e-08
1.29699e-08
1.23193e-08
1.29855e-08
1.23369e-08
1.29932e-08
1.23264e-08
1.2976e-08
1.23402e-08
1.2949e-08
1.23335e-08
1.30048e-08
1.23338e-08
1.29891e-08
1.23146e-08
1.29354e-08
1.23262e-08
1.29779e-08
1.23221e-08
1.29867e-08
1.23306e-08
1.298e-08
1.22937e-08
1.29385e-08
1.23061e-08
1.2956e-08
1.23314e-08
1.29908e-08
1.2288e-08
1.29542e-08
1.23212e-08
1.29926e-08
1.23096e-08
1.29431e-08
1.2268e-08
1.28995e-08
1.22657e-08
1.29139e-08
1.22522e-08
1.28963e-08
1.22227e-08
1.28947e-08
1.2254e-08
1.29141e-08
1.22719e-08
1.29454e-08
1.23568e-08
1.30209e-08
1.23197e-08
1.29738e-08
1.2329e-08
1.29957e-08
1.23611e-08
1.30321e-08
1.23459e-08
1.29859e-08
1.23102e-08
1.28848e-08
1.2252e-08
1.29188e-08
1.22743e-08
1.29803e-08
1.22905e-08
1.29406e-08
1.22779e-08
1.29212e-08
1.22958e-08
1.29539e-08
1.22752e-08
1.29694e-08
1.23377e-08
1.29705e-08
1.23369e-08
1.29827e-08
1.22982e-08
1.29893e-08
1.23655e-08
1.29498e-08
1.2322e-08
1.29445e-08
1.22789e-08
1.29509e-08
1.22867e-08
1.2973e-08
1.22758e-08
1.28894e-08
1.22937e-08
1.2922e-08
1.22613e-08
1.29177e-08
1.22645e-08
1.29351e-08
1.22815e-08
1.29265e-08
1.22783e-08
1.29808e-08
1.231e-08
1.29688e-08
1.23226e-08
1.29699e-08
1.23027e-08
1.29748e-08
1.22777e-08
1.29265e-08
1.22929e-08
1.29322e-08
1.23266e-08
1.29289e-08
1.22599e-08
1.29477e-08
1.22942e-08
1.29451e-08
1.22473e-08
1.29241e-08
1.22926e-08
1.29654e-08
1.23311e-08
1.2978e-08
1.2309e-08
1.30008e-08
1.23315e-08
1.29877e-08
1.23443e-08
1.30064e-08
1.23469e-08
1.29982e-08
1.23524e-08
1.29957e-08
1.23247e-08
1.30294e-08
1.23206e-08
1.30058e-08
1.242e-08
1.30234e-08
1.23212e-08
1.29889e-08
1.23106e-08
1.29253e-08
1.23078e-08
1.29655e-08
1.22884e-08
1.297e-08
1.23066e-08
1.29138e-08
1.23004e-08
1.29441e-08
1.23004e-08
1.3002e-08
1.23258e-08
1.29642e-08
1.22952e-08
1.29583e-08
1.23086e-08
1.295e-08
1.23002e-08
1.29867e-08
1.23009e-08
1.29796e-08
1.23075e-08
1.29476e-08
1.23467e-08
1.30058e-08
1.23e-08
1.29513e-08
1.23049e-08
1.29491e-08
1.2303e-08
1.2981e-08
1.22718e-08
1.29223e-08
1.22471e-08
1.29088e-08
1.22729e-08
1.2939e-08
1.22585e-08
1.29363e-08
1.2274e-08
1.29439e-08
1.23003e-08
1.29384e-08
1.235e-08
1.2995e-08
1.23624e-08
1.30094e-08
1.2311e-08
1.29815e-08
1.23501e-08
1.2995e-08
1.23559e-08
1.30161e-08
1.23146e-08
1.29673e-08
1.229e-08
1.29467e-08
1.22861e-08
1.29677e-08
1.23247e-08
1.29941e-08
1.23116e-08
1.29426e-08
1.23021e-08
1.29483e-08
1.22804e-08
1.29709e-08
1.23128e-08
1.29411e-08
1.23021e-08
1.29346e-08
1.22628e-08
1.29562e-08
1.23028e-08
1.29745e-08
1.22996e-08
1.29453e-08
1.22666e-08
1.28778e-08
1.22167e-08
1.29234e-08
1.22767e-08
1.29497e-08
1.22975e-08
1.29351e-08
1.22828e-08
1.29239e-08
1.22472e-08
1.29086e-08
1.22678e-08
1.29225e-08
1.23181e-08
1.30119e-08
1.2342e-08
1.29837e-08
1.233e-08
1.29699e-08
1.23299e-08
1.29945e-08
1.23088e-08
1.29776e-08
1.23063e-08
1.29403e-08
1.23167e-08
1.29219e-08
1.22406e-08
1.2887e-08
1.22672e-08
1.292e-08
1.22603e-08
1.29006e-08
1.22886e-08
1.29563e-08
1.23542e-08
1.30127e-08
1.23242e-08
1.29721e-08
1.23295e-08
1.30175e-08
1.23373e-08
1.3001e-08
1.23451e-08
1.30246e-08
1.23696e-08
1.29849e-08
1.23462e-08
1.30287e-08
1.23479e-08
1.30345e-08
1.24346e-08
1.30383e-08
1.23355e-08
1.30514e-08
1.23417e-08
1.29644e-08
1.23153e-08
1.29435e-08
1.22702e-08
1.29628e-08
1.23e-08
1.29479e-08
1.23067e-08
1.29279e-08
1.22843e-08
1.2969e-08
1.23787e-08
1.30072e-08
1.2321e-08
1.29651e-08
1.23275e-08
1.29659e-08
1.23334e-08
1.29517e-08
1.23174e-08
1.30058e-08
1.23085e-08
1.29552e-08
1.23536e-08
1.29937e-08
1.23336e-08
1.30099e-08
1.23152e-08
1.29259e-08
1.2305e-08
1.29492e-08
1.23017e-08
1.29607e-08
1.22832e-08
1.29087e-08
1.22831e-08
1.29491e-08
1.22592e-08
1.29523e-08
1.22683e-08
1.29592e-08
1.22885e-08
1.29583e-08
1.23053e-08
1.29528e-08
1.23464e-08
1.29622e-08
1.22999e-08
1.3021e-08
1.23443e-08
1.30093e-08
1.23948e-08
1.29726e-08
1.2323e-08
1.29974e-08
1.23309e-08
1.30184e-08
1.2325e-08
1.29943e-08
1.23402e-08
1.30158e-08
1.23703e-08
1.30009e-08
1.23268e-08
1.29805e-08
1.23308e-08
1.30177e-08
1.23694e-08
1.3013e-08
1.23315e-08
1.29839e-08
1.23017e-08
1.29656e-08
1.2326e-08
1.29832e-08
1.23567e-08
1.30207e-08
1.23399e-08
1.29759e-08
1.22637e-08
1.29261e-08
1.22935e-08
1.29545e-08
1.23108e-08
1.29438e-08
1.22846e-08
1.29648e-08
1.22688e-08
1.29381e-08
1.22791e-08
1.2931e-08
1.23143e-08
1.29742e-08
1.23471e-08
1.29974e-08
1.2329e-08
1.29698e-08
1.23232e-08
1.29598e-08
1.22905e-08
1.29571e-08
1.23022e-08
1.29147e-08
1.22763e-08
1.29183e-08
1.22274e-08
1.29018e-08
1.22435e-08
1.28982e-08
1.22645e-08
1.29224e-08
1.22773e-08
1.29147e-08
1.23117e-08
1.29916e-08
1.2328e-08
1.29487e-08
1.23231e-08
1.30093e-08
1.23516e-08
1.30257e-08
1.23873e-08
1.30311e-08
1.23866e-08
1.30278e-08
1.23406e-08
1.30097e-08
1.235e-08
1.30315e-08
1.24164e-08
1.30101e-08
1.23188e-08
1.29693e-08
1.23348e-08
1.29626e-08
1.23199e-08
1.29502e-08
1.22692e-08
1.29145e-08
1.22832e-08
1.29351e-08
1.22817e-08
1.29534e-08
1.22588e-08
1.29362e-08
1.234e-08
1.29932e-08
1.23184e-08
1.2942e-08
1.2298e-08
1.29607e-08
1.22933e-08
1.29076e-08
1.229e-08
1.29511e-08
1.22999e-08
1.29654e-08
1.23232e-08
1.29343e-08
1.23354e-08
1.29877e-08
1.23065e-08
1.29494e-08
1.22817e-08
1.29219e-08
1.22754e-08
1.29322e-08
1.22881e-08
1.29079e-08
1.22767e-08
1.29136e-08
1.2267e-08
1.29424e-08
1.22929e-08
1.29575e-08
1.23173e-08
1.29764e-08
1.23136e-08
1.29858e-08
1.23646e-08
1.29237e-08
1.23186e-08
1.29855e-08
1.23153e-08
1.29822e-08
1.23804e-08
1.29232e-08
1.23305e-08
1.29357e-08
1.233e-08
1.29905e-08
1.22647e-08
1.29585e-08
1.23186e-08
1.29502e-08
1.23529e-08
1.30004e-08
1.23247e-08
1.29738e-08
1.23378e-08
1.29549e-08
1.23588e-08
1.30042e-08
1.23545e-08
1.29952e-08
1.23265e-08
1.29937e-08
1.23125e-08
1.29369e-08
1.23369e-08
1.29527e-08
1.23164e-08
1.29868e-08
1.22804e-08
1.29446e-08
1.22788e-08
1.29088e-08
1.2279e-08
1.28996e-08
1.22724e-08
1.29327e-08
1.22872e-08
1.29587e-08
1.2291e-08
1.29284e-08
1.23261e-08
1.29876e-08
1.23515e-08
1.3011e-08
1.23472e-08
1.30161e-08
1.23414e-08
1.29761e-08
1.2295e-08
1.2947e-08
1.23129e-08
1.29409e-08
1.23008e-08
1.29323e-08
1.22732e-08
1.29442e-08
1.22575e-08
1.28974e-08
1.22573e-08
1.29589e-08
1.23075e-08
1.29318e-08
1.22687e-08
1.29486e-08
1.23183e-08
1.29493e-08
1.23055e-08
1.29493e-08
1.23252e-08
1.30293e-08
1.24e-08
1.30045e-08
1.23862e-08
1.30505e-08
1.23657e-08
1.30085e-08
1.23318e-08
1.29767e-08
1.23585e-08
1.30233e-08
1.22958e-08
1.29438e-08
1.22914e-08
1.29364e-08
1.23065e-08
1.29816e-08
1.22789e-08
1.29483e-08
1.23073e-08
1.29363e-08
1.22897e-08
1.29897e-08
1.22902e-08
1.29665e-08
1.23189e-08
1.2975e-08
1.23415e-08
1.29742e-08
1.23267e-08
1.29625e-08
1.23191e-08
1.29509e-08
1.23158e-08
1.29372e-08
1.23281e-08
1.29787e-08
1.22895e-08
1.29123e-08
1.22866e-08
1.28978e-08
1.22521e-08
1.29024e-08
1.22425e-08
1.29081e-08
1.22518e-08
1.28846e-08
1.22545e-08
1.29142e-08
1.22629e-08
1.29176e-08
1.22709e-08
1.29416e-08
1.22658e-08
1.29245e-08
1.22766e-08
1.29433e-08
1.2269e-08
1.29866e-08
1.23467e-08
1.29557e-08
1.23429e-08
1.29696e-08
1.22868e-08
1.2954e-08
1.23023e-08
1.29161e-08
1.22696e-08
1.29065e-08
1.23279e-08
1.29179e-08
1.21946e-08
1.29105e-08
1.2257e-08
1.28981e-08
1.22791e-08
1.29451e-08
1.22855e-08
1.29901e-08
1.23244e-08
1.29387e-08
1.23018e-08
1.29313e-08
1.23307e-08
1.29559e-08
1.23016e-08
1.2998e-08
1.22625e-08
1.29493e-08
1.23087e-08
1.29053e-08
1.22774e-08
1.29505e-08
1.23275e-08
1.29944e-08
1.23067e-08
1.29708e-08
1.23191e-08
1.29333e-08
1.22907e-08
1.29205e-08
1.22911e-08
1.29477e-08
1.22666e-08
1.29009e-08
1.23432e-08
1.30028e-08
1.23695e-08
1.29891e-08
1.2339e-08
1.29897e-08
1.23286e-08
1.29603e-08
1.22855e-08
1.29319e-08
1.22788e-08
1.29215e-08
1.22657e-08
1.29108e-08
1.22617e-08
1.29036e-08
1.22333e-08
1.28826e-08
1.22519e-08
1.29363e-08
1.23441e-08
1.29901e-08
1.22936e-08
1.29501e-08
1.22984e-08
1.29914e-08
1.22936e-08
1.29533e-08
1.22684e-08
1.29884e-08
1.23804e-08
1.29829e-08
1.23393e-08
1.29941e-08
1.23729e-08
1.30568e-08
1.23564e-08
1.29802e-08
1.23534e-08
1.30135e-08
1.23316e-08
1.30112e-08
1.23081e-08
1.29559e-08
1.23324e-08
1.29682e-08
1.23066e-08
1.29806e-08
1.23242e-08
1.29664e-08
1.23091e-08
1.29736e-08
1.23242e-08
1.30053e-08
1.23173e-08
1.296e-08
1.23161e-08
1.29848e-08
1.23021e-08
1.29457e-08
1.22702e-08
1.29318e-08
1.22736e-08
1.29231e-08
1.22881e-08
1.29353e-08
1.227e-08
1.29145e-08
1.22691e-08
1.28779e-08
1.22317e-08
1.28632e-08
1.22338e-08
1.29146e-08
1.22709e-08
1.29077e-08
1.22553e-08
1.28978e-08
1.22774e-08
1.29118e-08
1.22938e-08
1.29602e-08
1.22895e-08
1.29577e-08
1.22921e-08
1.29535e-08
1.22748e-08
1.29461e-08
1.23268e-08
1.29807e-08
1.23617e-08
1.29786e-08
1.227e-08
1.29438e-08
1.22644e-08
1.29335e-08
1.22408e-08
1.29294e-08
1.23262e-08
1.29391e-08
1.2245e-08
1.29363e-08
1.22973e-08
1.29501e-08
1.23314e-08
1.29646e-08
1.23095e-08
1.2985e-08
1.23345e-08
1.29981e-08
1.22911e-08
1.29119e-08
1.22838e-08
1.29026e-08
1.22966e-08
1.29303e-08
1.22497e-08
1.29778e-08
1.23046e-08
1.297e-08
1.23087e-08
1.29803e-08
1.23714e-08
1.29919e-08
1.2324e-08
1.29882e-08
1.23224e-08
1.29631e-08
1.22916e-08
1.29341e-08
1.22816e-08
1.29262e-08
1.2244e-08
1.29215e-08
1.22844e-08
1.29331e-08
1.23289e-08
1.29495e-08
1.22873e-08
1.29303e-08
1.22937e-08
1.29382e-08
1.22783e-08
1.2927e-08
1.22669e-08
1.28842e-08
1.22381e-08
1.29232e-08
1.22877e-08
1.29271e-08
1.22298e-08
1.29049e-08
1.22404e-08
1.29071e-08