/*--------------------------------*- C++ -*----------------------------------*\
| =========                 |                                                 |
| \\      /  F ield         | OpenFOAM: The Open Source CFD Toolbox           |
|  \\    /   O peration     | Version:  2206                                  |
|   \\  /    A nd           | Website:  www.openfoam.com                      |
|    \\/     M anipulation  |                                                 |
\*---------------------------------------------------------------------------*/
FoamFile
{
    version     2.0;
    format      ascii;
    arch        "LSB;label=32;scalar=64";
    class       volScalarField;
    location    "0.6";
    object      p;
}
// * * * * * * * * * * * * * * * * * * * * * * * * * * * * * * * * * * * * * //

dimensions      [0 2 -2 0 0 0 0];

internalField   nonuniform List<scalar> 
183793
(
0.0614061
0.0581093
0.0616384
0.0588975
0.0616056
0.0612478
0.0592806
0.0596837
0.0565794
0.0586654
0.0587039
0.0590822
0.0617963
0.0632162
0.0592431
0.0579512
0.0585133
0.0602582
0.0614095
0.0614473
0.0616389
0.062225
0.0618031
0.0627777
0.0577187
0.062984
0.0625861
0.061835
0.0618386
0.0551683
0.0641774
0.0624266
0.0578992
0.0582979
0.0532119
0.0649764
0.0621828
0.0604493
0.0623902
0.0649438
0.0534386
0.0633826
0.064143
0.062582
0.0535947
0.0534015
0.0647454
0.0536268
0.0537864
0.0639602
0.0594478
0.053589
0.0520425
0.0538201
0.0592753
0.0539832
0.061999
0.06025
0.0520799
0.0623853
0.05418
0.0606175
0.0522417
0.0647815
0.0649833
0.0522854
0.0522565
0.0594787
0.0631672
0.060216
0.0526754
0.0542191
0.0592444
0.0528273
0.0608456
0.0636089
0.0606472
0.0608464
0.0637688
0.0530116
0.0530238
0.0649464
0.0641851
0.063207
0.0604165
0.0530507
0.0590462
0.0571334
0.0612149
0.0600582
0.0533896
0.0634117
0.0633809
0.0563364
0.0590511
0.0602236
0.0553702
0.0641825
0.0588849
0.0575558
0.0634058
0.0637993
0.0552008
0.0577154
0.0532402
0.0537874
0.05695
0.0530219
0.0536189
0.0526412
0.0530255
0.0643778
0.0544071
0.0563743
0.0545758
0.0584776
0.0524505
0.0586696
0.0598382
0.0542118
0.0596479
0.0643432
0.0630137
0.0555666
0.0567677
0.0636004
0.0532071
0.0639922
0.0543822
0.0639592
0.0547733
0.0569402
0.0537793
0.0539696
0.0540087
0.0641528
0.0571668
0.0639902
0.0629792
0.0641457
0.0541663
0.0542089
0.0543716
0.0622301
0.0544155
0.0557719
0.0544104
0.0567351
0.0545712
0.0628119
0.0651756
0.0645805
0.0526374
0.0546104
0.056969
0.0548077
0.054964
0.0535976
0.0641838
0.0643766
0.0551619
0.054016
0.0549737
0.0546141
0.0533946
0.0546089
0.0583246
0.0545766
0.0581326
0.0550067
0.0647764
0.0547742
0.0645767
0.0588549
0.0524882
0.0585098
0.0548115
0.0584765
0.0553603
0.0526497
0.0520546
0.0651444
0.0555927
0.0582953
0.0588885
0.0596789
0.0526794
0.0559456
0.0651395
0.0563455
0.0520876
0.0651805
0.0637548
0.0645767
0.0645364
0.0610483
0.0629738
0.0625761
0.0616384
0.0561775
0.064375
0.062383
0.0624196
0.0606541
0.0549708
0.0598645
0.0600508
0.0596727
0.0610072
0.0606067
0.0616001
0.0612454
0.0522903
0.063952
0.0610104
0.0623856
0.0604499
0.0612099
0.0614436
0.0647313
0.0596324
0.062615
0.0602538
0.0619884
0.0645398
0.0598281
0.0563757
0.0588545
0.0629737
0.0612061
0.0550097
0.0552064
0.0565731
0.0553761
0.0637585
0.0592341
0.0573266
0.0567305
0.0567721
0.0592744
0.0559858
0.0569738
0.0571735
0.0550027
0.0612063
0.0575519
0.0555534
0.0551995
0.0610511
0.0620299
0.0579392
0.0524429
0.0555766
0.0612502
0.0627759
0.060459
0.06042
0.0610218
0.0612104
0.0554129
0.0621973
0.064574
0.0580934
0.0606205
0.0598667
0.0582864
0.0618014
0.0583259
0.064342
0.0584773
0.0630201
0.0604243
0.0555995
0.0585154
0.0631816
0.0567843
0.05867
0.0587054
0.0588896
0.0606214
0.0590368
0.0538152
0.0617982
0.0528628
0.0585129
0.0620265
0.0618362
0.0645435
0.0563357
0.0604557
0.0634184
0.0557966
0.0651448
0.0643485
0.0594372
0.0557684
0.0619966
0.0594752
0.0629782
0.0651769
0.0565347
0.0628178
0.0637678
0.0600166
0.0584851
0.0555708
0.0558048
0.056578
0.053813
0.0610513
0.0604113
0.0647723
0.0554043
0.0537829
0.054174
0.0606455
0.0649768
0.0622296
0.0536204
0.0612419
0.0628117
0.0620298
0.0608145
0.0635773
0.0647399
0.0625873
0.0602558
0.0594783
0.0575254
0.0627823
0.0626165
0.0581018
0.0579407
0.059072
0.0559588
0.0619932
0.0608412
0.0579099
0.0628111
0.0627813
0.0548091
0.0522866
0.0554057
0.0573659
0.0630116
0.0592418
0.0573643
0.0575217
0.0577145
0.0594454
0.0571382
0.0586629
0.0559982
0.0561511
0.0643725
0.0598664
0.0596732
0.0598332
0.0596421
0.0627725
0.063366
0.0635594
0.0561828
0.0630103
0.0590445
0.0551689
0.0565418
0.0587026
0.0632105
0.0530571
0.0600212
0.0602224
0.0600617
0.0563433
0.0631827
0.0626215
0.0643719
0.0575219
0.0569776
0.0588574
0.0633737
0.0602123
0.0526732
0.0565352
0.0590751
0.0649785
0.0577493
0.0561399
0.0600283
0.0645693
0.0553691
0.0614388
0.0561753
0.0569341
0.0535817
0.0534284
0.0539784
0.0542085
0.0563766
0.057146
0.0544106
0.0636041
0.0534292
0.0532024
0.0645401
0.0573577
0.0624211
0.0561793
0.0577141
0.0612452
0.058328
0.0647391
0.0608545
0.0618326
0.0641831
0.0557659
0.0550032
0.0617991
0.0556036
0.061043
0.0571774
0.0569422
0.0610234
0.0616072
0.0610102
0.0643344
0.0592737
0.064742
0.0524867
0.0608098
0.053248
0.0547741
0.0639822
0.0551711
0.0567433
0.0567769
0.0563717
0.0553998
0.0528354
0.0608014
0.0561455
0.0540086
0.0539837
0.0559598
0.0600553
0.0626186
0.0637939
0.0624184
0.0621936
0.0639918
0.0559893
0.0637936
0.063763
0.0635713
0.0577543
0.0573345
0.0571804
0.0541819
0.0626125
0.0573336
0.0536247
0.0581373
0.0641503
0.0561473
0.0565704
0.0524548
0.0614061
0.0590742
0.0575579
0.0543721
0.0625821
0.0608134
0.0573264
0.0547674
0.0581051
0.0610482
0.0534331
0.0571374
0.0556107
0.0565412
0.0545767
0.054806
0.0549703
0.0557468
0.05579
0.0621983
0.0583004
0.0621917
0.0616029
0.0579466
0.0614049
0.0583309
0.0651392
0.0528666
0.0540143
0.057749
0.0579123
0.0600305
0.056755
0.0606539
0.0624223
0.0522582
0.0635794
0.0575178
0.0651706
0.0619948
0.0620281
0.0622214
0.0587003
0.0569778
0.0649392
0.0528361
0.053054
0.0532426
0.0534034
0.0532119
0.0528605
0.0538191
0.0636019
0.0543758
0.0546093
0.0639522
0.0596493
0.0594863
0.0552009
0.0575579
0.0579171
0.0632063
0.0634082
0.0557985
0.0559555
0.0647759
0.0559868
0.0651793
0.0598726
0.0598378
0.0520559
0.0573656
0.0581321
0.0649457
0.0614445
0.0636121
0.0588531
0.063175
0.0594507
0.0532379
0.052256
0.0581435
0.0524841
0.0638009
0.0520934
0.052292
0.0614457
0.0632116
0.0614121
0.0628129
0.064975
0.0616335
0.0616008
0.0530493
0.0528299
0.0620369
0.0526485
0.0524541
0.0524931
0.0520864
0.0526819
0.0643356
0.0631733
0.0616406
0.0528705
0.0577488
0.0623925
0.0651383
0.0649365
0.0647715
0.0645305
0.0641459
0.0639901
0.0639533
0.0637957
0.0635682
0.063409
0.0633724
0.0622263
0.0618339
0.0630106
0.060847
0.0608096
0.0606499
0.0606124
0.060449
0.0604126
0.0602528
0.0602154
0.060057
0.0600196
0.0598688
0.0598321
0.0596748
0.0596354
0.0594754
0.0594364
0.0592733
0.0592366
0.0590769
0.059042
0.0588895
0.0588546
0.0587037
0.0586673
0.0585155
0.05848
0.0583286
0.0582926
0.0581341
0.0580974
0.0579387
0.0579022
0.057747
0.0577101
0.057559
0.0575231
0.0573672
0.0573338
0.0571762
0.0571402
0.0569765
0.0569392
0.0567789
0.0567439
0.0565776
0.0565384
0.0563767
0.0563354
0.0561764
0.0561392
0.0559859
0.0559476
0.0557935
0.0557577
0.0556002
0.0555633
0.0553996
0.0553612
0.0551999
0.0551625
0.0550006
0.0549647
0.0548037
0.0547654
0.054606
0.0545675
0.0544081
0.0543696
0.0542086
0.0541711
0.0540116
0.0539735
0.0538172
0.0537812
0.0536231
0.0535876
0.0534329
0.0533958
0.0532423
0.0532065
0.0530546
0.0530178
0.0528639
0.0528265
0.0526729
0.0526351
0.0524806
0.0524427
0.0522797
0.052243
0.0520841
0.0520468
0.0651732
0.065135
0.0649709
0.0649347
0.0647697
0.0647324
0.064569
0.0645323
0.0643729
0.0643357
0.0641805
0.0641436
0.0639874
0.063951
0.0637945
0.0637592
0.063604
0.0635685
0.063409
0.0633731
0.0632101
0.0631725
0.0630089
0.0629732
0.062812
0.0627768
0.0626162
0.0625806
0.0624202
0.0623856
0.0622267
0.0621915
0.0620298
0.0619943
0.0618334
0.0617967
0.061637
0.0616023
0.0614416
0.0614045
0.0612434
0.0612067
0.0610424
0.061005
0.0608436
0.060807
0.0606503
0.0606135
0.0604516
0.0604156
0.060252
0.0602162
0.0600564
0.0600206
0.0598657
0.0598293
0.0596714
0.0596348
0.0594763
0.0594391
0.0592747
0.059239
0.0590775
0.0590423
0.0588889
0.0588565
0.0587065
0.0586726
0.0585156
0.058481
0.0583265
0.0582902
0.0581323
0.058097
0.05794
0.0579032
0.0577451
0.0577096
0.0575565
0.0575221
0.0573703
0.057335
0.0571748
0.0571391
0.0569764
0.0569406
0.05678
0.0567428
0.0565736
0.0565361
0.0563745
0.0563349
0.0561756
0.0561397
0.0559832
0.055946
0.0557867
0.0557491
0.0555941
0.0555576
0.055398
0.0553611
0.0551998
0.0551635
0.0550012
0.0549656
0.0548026
0.0547665
0.0546029
0.054565
0.0544048
0.0543678
0.0542092
0.0541718
0.0540132
0.0539766
0.053816
0.05378
0.0536219
0.0535854
0.0534321
0.0533955
0.0532385
0.0532021
0.0530499
0.0530146
0.0528614
0.0528255
0.0526721
0.0526364
0.0524805
0.0524431
0.0522811
0.052245
0.0520822
0.0520463
0.0651732
0.0651351
0.0649713
0.0649342
0.0647697
0.064732
0.0645677
0.0645305
0.0643723
0.0643349
0.0641804
0.0641433
0.0639863
0.0639494
0.0637936
0.0637582
0.063604
0.0635679
0.0634133
0.0633754
0.0632134
0.0631756
0.0630112
0.062974
0.0628114
0.0627748
0.0626181
0.0625821
0.0624248
0.062389
0.0622293
0.0621924
0.0620314
0.0619958
0.0618379
0.0618006
0.0616405
0.061604
0.0614416
0.0614047
0.061243
0.0612068
0.0610437
0.0610055
0.060843
0.0608055
0.0606486
0.0606108
0.0604538
0.0604175
0.0602542
0.0602172
0.0600575
0.0600228
0.0598691
0.0598328
0.0596701
0.0596332
0.0594754
0.0594376
0.0592793
0.0592435
0.0590853
0.0590499
0.0588947
0.05886
0.05871
0.0586736
0.0585179
0.0584812
0.0583249
0.0582877
0.0581322
0.0580961
0.0579405
0.0579049
0.0577484
0.0577111
0.0575595
0.057523
0.0573716
0.0573337
0.057175
0.0571377
0.0569774
0.0569404
0.0567799
0.0567424
0.0565735
0.0565357
0.0563705
0.0563328
0.0561733
0.0561356
0.0559835
0.0559464
0.0557896
0.0557506
0.0555933
0.0555555
0.0553964
0.0553589
0.0552005
0.0551636
0.055003
0.0549653
0.0548031
0.0547651
0.0546036
0.0545669
0.0544046
0.0543671
0.0542058
0.0541673
0.0540143
0.0539761
0.0538162
0.0537789
0.0536208
0.0535844
0.0534318
0.0533957
0.0532407
0.0532039
0.0530505
0.0530151
0.0528606
0.0528237
0.0526711
0.0526328
0.0524791
0.0524442
0.0522835
0.0522469
0.0520852
0.0520492
0.0651698
0.0651314
0.0649677
0.0649303
0.0647682
0.0647317
0.0645684
0.064532
0.0643716
0.0643358
0.0641798
0.0641433
0.0639868
0.0639498
0.0637939
0.0637576
0.0636038
0.0635668
0.0634106
0.0633727
0.0632102
0.0631727
0.0630128
0.0629769
0.0628129
0.0627766
0.062617
0.0625813
0.0624264
0.06239
0.0622309
0.0621933
0.0620319
0.0619943
0.0618358
0.0617983
0.0616394
0.0616014
0.0614419
0.0614032
0.061241
0.0612034
0.0610418
0.0610052
0.0608443
0.0608075
0.0606483
0.0606088
0.0604515
0.060414
0.0602549
0.0602191
0.0600591
0.0600241
0.0598691
0.0598322
0.0596721
0.0596355
0.0594739
0.0594368
0.0592789
0.0592436
0.0590871
0.0590514
0.0588978
0.058862
0.0587095
0.0586722
0.0585171
0.0584799
0.0583256
0.0582891
0.0581333
0.0580953
0.0579403
0.0579043
0.0577488
0.0577121
0.0575583
0.0575202
0.0573658
0.0573283
0.0571725
0.0571334
0.0569751
0.0569376
0.0567771
0.0567403
0.0565761
0.0565397
0.0563739
0.0563373
0.056175
0.0561366
0.0559786
0.0559399
0.0557864
0.0557477
0.0555907
0.0555522
0.0553927
0.0553537
0.0551974
0.0551588
0.0550007
0.0549628
0.0548009
0.0547645
0.0546019
0.0545647
0.0544038
0.0543681
0.054205
0.0541682
0.0540125
0.0539759
0.0538183
0.0537811
0.0536239
0.053587
0.05343
0.0533913
0.0532369
0.0532
0.05305
0.0530142
0.0528594
0.0528253
0.0526687
0.052631
0.0524775
0.052442
0.052284
0.0522465
0.0520835
0.0520461
0.0651685
0.0651314
0.0649701
0.0649336
0.0647703
0.0647349
0.06457
0.0645344
0.0643738
0.0643368
0.0641802
0.0641427
0.0639859
0.0639485
0.0637936
0.0637578
0.0636042
0.0635669
0.0634108
0.0633733
0.0632119
0.0631747
0.0630139
0.0629786
0.0628167
0.0627792
0.0626188
0.0625822
0.0624257
0.062388
0.0622305
0.0621941
0.0620326
0.0619938
0.0618332
0.0617942
0.0616364
0.0615987
0.0614393
0.0614016
0.0612417
0.0612031
0.0610415
0.0610047
0.0608437
0.0608057
0.0606474
0.06061
0.0604551
0.0604169
0.0602565
0.06022
0.0600605
0.0600231
0.0598657
0.0598285
0.0596745
0.0596385
0.0594768
0.0594393
0.0592811
0.0592461
0.0590887
0.059053
0.0589005
0.0588642
0.0587108
0.0586735
0.0585153
0.0584778
0.0583234
0.0582848
0.0581304
0.0580934
0.057938
0.057901
0.0577451
0.0577094
0.0575554
0.0575177
0.0573628
0.0573254
0.0571698
0.0571323
0.0569747
0.0569368
0.0567777
0.0567414
0.0565762
0.0565395
0.0563723
0.0563357
0.0561746
0.0561367
0.0559772
0.0559391
0.0557844
0.0557467
0.0555881
0.0555506
0.0553913
0.0553526
0.0551944
0.0551562
0.0549997
0.0549616
0.0548014
0.0547637
0.054602
0.0545651
0.0544042
0.0543694
0.0542085
0.0541715
0.0540106
0.0539721
0.0538133
0.0537769
0.0536253
0.0535892
0.0534316
0.0533935
0.0532361
0.0531996
0.0530499
0.0530142
0.052859
0.0528242
0.0526677
0.0526311
0.0524765
0.0524385
0.0522816
0.0522444
0.0520845
0.0520463
0.0651671
0.0651309
0.0649686
0.064932
0.0647726
0.0647363
0.0645699
0.0645325
0.0643707
0.0643332
0.0641767
0.06414
0.0639852
0.0639484
0.063795
0.063758
0.0636036
0.0635665
0.0634092
0.0633723
0.0632136
0.063177
0.0630148
0.0629792
0.0628177
0.0627805
0.0626219
0.062584
0.0624274
0.0623894
0.0622295
0.0621919
0.0620307
0.0619943
0.061833
0.0617951
0.0616365
0.0615981
0.0614374
0.0614
0.0612383
0.0612
0.06104
0.0610023
0.0608405
0.0608033
0.060646
0.060608
0.0604522
0.0604141
0.0602565
0.0602204
0.060062
0.0600255
0.0598642
0.0598275
0.0596726
0.0596357
0.0594764
0.0594386
0.0592832
0.0592474
0.0590903
0.0590552
0.0589005
0.0588641
0.0587106
0.0586734
0.0585141
0.0584769
0.0583219
0.058284
0.0581294
0.0580923
0.057938
0.057901
0.0577464
0.0577095
0.0575542
0.0575172
0.0573618
0.0573236
0.0571682
0.0571311
0.0569741
0.0569373
0.0567769
0.0567395
0.0565763
0.0565396
0.0563708
0.0563343
0.056173
0.0561373
0.055976
0.0559383
0.0557813
0.0557427
0.0555832
0.055546
0.0553878
0.0553503
0.0551928
0.0551545
0.0549972
0.0549591
0.0548005
0.0547629
0.0546022
0.0545645
0.0544021
0.0543651
0.0542072
0.0541728
0.0540133
0.0539754
0.0538136
0.0537771
0.0536221
0.0535845
0.0534268
0.0533892
0.0532353
0.0531993
0.0530519
0.0530143
0.0528582
0.0528214
0.0526654
0.0526295
0.0524746
0.0524365
0.0522791
0.0522403
0.052084
0.065169
0.0651328
0.0649694
0.0649329
0.0647705
0.064734
0.0645675
0.0645282
0.0643687
0.0643307
0.0641754
0.0641389
0.0639852
0.0639497
0.063795
0.0637573
0.063601
0.0635645
0.0634087
0.0633726
0.0632163
0.0631804
0.0630163
0.0629786
0.0628148
0.0627788
0.0626206
0.062583
0.0624271
0.0623893
0.062228
0.0621899
0.0620277
0.0619905
0.0618303
0.0617939
0.061636
0.0615978
0.0614377
0.0614
0.0612358
0.0611979
0.0610388
0.0610016
0.0608404
0.0608062
0.0606483
0.0606108
0.0604539
0.0604172
0.0602589
0.060222
0.0600637
0.0600275
0.0598659
0.0598293
0.0596723
0.0596342
0.0594725
0.0594352
0.0592845
0.0592489
0.0590944
0.0590591
0.0589015
0.0588648
0.0587104
0.0586739
0.0585149
0.0584777
0.0583217
0.0582847
0.0581303
0.0580936
0.0579377
0.0578999
0.0577446
0.0577061
0.0575511
0.0575135
0.0573584
0.0573222
0.0571677
0.0571299
0.0569733
0.0569361
0.0567767
0.0567397
0.0565784
0.0565407
0.0563725
0.0563353
0.0561724
0.0561361
0.0559743
0.055937
0.0557787
0.0557409
0.0555827
0.055545
0.0553861
0.0553507
0.0551929
0.055157
0.054997
0.0549598
0.0548002
0.0547632
0.0546047
0.0545683
0.0544055
0.0543674
0.0542069
0.0541709
0.054012
0.0539741
0.053816
0.0537788
0.0536221
0.0535845
0.0534255
0.0533889
0.0532358
0.0532003
0.0530526
0.0530175
0.0528582
0.0528203
0.0526645
0.0526284
0.0524736
0.0524372
0.0522791
0.0522418
0.0651701
0.0651334
0.064971
0.0649325
0.0647675
0.0647287
0.0645617
0.0645232
0.0643665
0.0643299
0.0641738
0.0641369
0.0639826
0.0639467
0.0637939
0.0637581
0.0636007
0.0635647
0.0634078
0.0633713
0.0632176
0.0631812
0.0630192
0.062981
0.0628177
0.0627806
0.0626206
0.062584
0.0624266
0.0623878
0.0622277
0.06219
0.0620278
0.0619897
0.0618293
0.0617932
0.0616337
0.0615955
0.0614363
0.0613981
0.0612358
0.0611988
0.0610392
0.0610021
0.0608406
0.0608051
0.060645
0.0606089
0.0604512
0.0604137
0.0602577
0.06022
0.0600629
0.0600263
0.0598651
0.0598291
0.0596734
0.0596349
0.0594735
0.0594368
0.0592834
0.0592465
0.0590924
0.059057
0.0588999
0.0588634
0.0587113
0.0586752
0.0585142
0.0584775
0.0583207
0.0582838
0.0581282
0.0580917
0.0579376
0.0579009
0.0577445
0.0577066
0.0575499
0.057512
0.0573571
0.057321
0.0571688
0.0571317
0.056975
0.0569371
0.0567762
0.0567384
0.0565785
0.0565432
0.0563774
0.0563396
0.0561735
0.0561354
0.0559732
0.0559358
0.0557774
0.0557406
0.0555845
0.0555465
0.0553852
0.055348
0.0551898
0.0551531
0.0549958
0.0549583
0.0547999
0.0547629
0.0546048
0.0545675
0.0544048
0.0543662
0.0542063
0.0541705
0.0540105
0.0539741
0.0538171
0.0537802
0.0536223
0.0535842
0.0534246
0.0533887
0.0532372
0.0531999
0.0530502
0.053014
0.0528605
0.0528226
0.0526653
0.0526299
0.0524729
0.0524364
0.0522783
0.0522407
0.065168
0.0651309
0.0649685
0.0649308
0.0647652
0.0647267
0.0645595
0.0645218
0.0643633
0.0643269
0.0641739
0.0641387
0.0639839
0.0639479
0.0637924
0.0637558
0.0635982
0.0635625
0.0634074
0.0633724
0.0632171
0.0631786
0.0630156
0.0629775
0.0628161
0.0627778
0.0626205
0.0625829
0.0624255
0.0623866
0.0622244
0.0621863
0.062027
0.0619901
0.0618306
0.0617939
0.0616327
0.0615951
0.0614327
0.0613936
0.0612329
0.0611965
0.0610393
0.0610031
0.0608429
0.0608057
0.060645
0.0606086
0.0604508
0.0604149
0.0602593
0.0602226
0.0600626
0.0600252
0.0598636
0.0598278
0.0596719
0.0596341
0.0594726
0.0594363
0.0592833
0.0592464
0.0590933
0.0590567
0.0588978
0.0588613
0.0587079
0.0586707
0.0585113
0.0584761
0.0583205
0.0582843
0.0581272
0.0580901
0.0579355
0.0578997
0.0577435
0.0577064
0.0575493
0.0575122
0.057356
0.0573198
0.0571659
0.05713
0.0569749
0.0569382
0.0567788
0.0567402
0.0565778
0.0565406
0.0563754
0.0563387
0.0561722
0.0561345
0.0559713
0.0559345
0.0557773
0.0557404
0.0555852
0.0555477
0.055387
0.0553492
0.055189
0.0551513
0.0549941
0.0549571
0.0547991
0.0547608
0.0546029
0.0545661
0.0544041
0.0543676
0.0542064
0.0541688
0.0540096
0.0539739
0.0538168
0.0537785
0.0536195
0.0535816
0.0534243
0.0533897
0.0532402
0.0532042
0.0530472
0.0530112
0.0528563
0.0528185
0.0526655
0.0526285
0.0524725
0.0524363
0.0522755
0.0522396
0.0651684
0.0651306
0.0649677
0.0649306
0.064764
0.0647259
0.0645583
0.0645207
0.0643626
0.0643266
0.0641728
0.0641374
0.0639829
0.0639464
0.0637922
0.0637558
0.0635988
0.063562
0.0634081
0.0633726
0.0632162
0.0631774
0.0630146
0.0629757
0.0628143
0.0627784
0.0626195
0.0625822
0.0624237
0.0623859
0.0622252
0.0621873
0.0620275
0.0619914
0.0618317
0.061795
0.0616321
0.0615943
0.0614329
0.0613941
0.0612338
0.0611967
0.0610388
0.0610018
0.0608439
0.0608061
0.0606463
0.0606096
0.0604503
0.0604135
0.060258
0.0602213
0.0600641
0.060028
0.0598665
0.0598308
0.0596722
0.0596354
0.0594734
0.0594364
0.059281
0.059245
0.0590924
0.0590558
0.0589011
0.0588656
0.0587108
0.0586733
0.0585117
0.0584747
0.0583198
0.0582838
0.0581288
0.0580915
0.057936
0.0578992
0.0577421
0.0577066
0.0575491
0.0575139
0.0573587
0.0573233
0.057168
0.0571316
0.0569734
0.0569363
0.0567789
0.0567418
0.0565822
0.0565446
0.0563757
0.0563376
0.0561727
0.0561352
0.0559736
0.0559379
0.0557792
0.055743
0.055584
0.0555474
0.0553869
0.0553499
0.0551898
0.055152
0.0549945
0.0549579
0.0548008
0.0547627
0.0546041
0.0545656
0.0544038
0.0543669
0.0542067
0.0541687
0.0540112
0.0539755
0.0538167
0.0537795
0.0536178
0.0535811
0.0534252
0.0533891
0.0532394
0.053203
0.0530486
0.0530114
0.0528554
0.0528184
0.0526653
0.0526285
0.0524734
0.0524378
0.052277
0.0522414
0.0651671
0.0651299
0.064966
0.064928
0.064762
0.0647246
0.0645582
0.0645222
0.0643649
0.0643286
0.0641743
0.0641377
0.0639824
0.0639445
0.0637907
0.0637538
0.0635993
0.0635629
0.0634084
0.0633709
0.0632143
0.0631758
0.0630137
0.0629743
0.0628133
0.0627775
0.062618
0.0625815
0.0624227
0.0623852
0.0622248
0.0621871
0.0620279
0.0619902
0.06183
0.0617934
0.0616292
0.0615915
0.0614308
0.0613919
0.0612345
0.0611982
0.0610379
0.061
0.0608431
0.060806
0.060648
0.0606114
0.0604524
0.0604158
0.0602596
0.0602236
0.0600672
0.0600326
0.0598693
0.0598326
0.0596708
0.0596349
0.0594742
0.0594378
0.0592822
0.0592467
0.0590895
0.0590517
0.0588964
0.0588588
0.0587052
0.0586654
0.0585085
0.05847
0.0583163
0.0582801
0.0581262
0.0580899
0.0579359
0.0578994
0.0577427
0.0577073
0.0575504
0.0575144
0.0573587
0.0573234
0.0571681
0.0571309
0.0569722
0.0569355
0.0567756
0.0567383
0.0565789
0.0565395
0.0563741
0.0563372
0.0561703
0.0561339
0.0559758
0.0559386
0.0557837
0.0557464
0.0555846
0.0555475
0.0553857
0.0553488
0.0551891
0.0551521
0.0549939
0.0549572
0.0547981
0.0547624
0.0546053
0.0545677
0.0544059
0.054368
0.0542056
0.0541684
0.0540121
0.0539755
0.0538168
0.0537806
0.0536185
0.0535822
0.053427
0.0533904
0.0532382
0.0532013
0.0530484
0.0530107
0.0528563
0.0528199
0.0526648
0.0526292
0.0524722
0.0524364
0.0522785
0.0522437
0.0651681
0.0651307
0.0649668
0.0649293
0.0647618
0.064725
0.064558
0.0645221
0.0643642
0.0643283
0.064173
0.0641354
0.06398
0.0639426
0.0637873
0.0637507
0.0635968
0.0635609
0.0634051
0.0633656
0.0632115
0.0631731
0.0630121
0.0629727
0.0628136
0.0627765
0.0626193
0.0625837
0.0624227
0.0623864
0.0622239
0.0621877
0.0620274
0.0619888
0.0618296
0.0617918
0.061629
0.0615924
0.0614288
0.0613897
0.061233
0.0611966
0.0610363
0.0609997
0.0608423
0.0608052
0.0606496
0.0606146
0.0604555
0.06042
0.060262
0.0602257
0.0600692
0.0600348
0.0598749
0.0598375
0.0596745
0.0596385
0.0594757
0.0594391
0.0592809
0.0592434
0.0590852
0.0590473
0.0588906
0.0588529
0.0586994
0.0586617
0.0585069
0.0584691
0.0583166
0.0582803
0.0581264
0.0580902
0.0579366
0.0579001
0.0577435
0.0577073
0.057551
0.0575157
0.0573595
0.057325
0.057166
0.0571297
0.0569728
0.056936
0.0567776
0.0567405
0.0565757
0.0565367
0.0563737
0.0563355
0.0561721
0.0561356
0.055977
0.0559384
0.0557835
0.055744
0.0555878
0.0555507
0.0553853
0.055349
0.0551887
0.055154
0.0549957
0.0549591
0.054798
0.0547616
0.0546031
0.0545666
0.0544071
0.0543693
0.0542063
0.0541705
0.0540121
0.0539761
0.0538167
0.0537801
0.0536195
0.0535831
0.0534305
0.0533944
0.0532377
0.0532027
0.0530468
0.0530103
0.052857
0.0528205
0.0526677
0.0526316
0.0524734
0.0524384
0.0522801
0.0522452
0.0651674
0.0651303
0.0649679
0.0649305
0.064763
0.0647255
0.0645595
0.0645236
0.0643649
0.0643292
0.0641721
0.0641344
0.0639797
0.063942
0.0637868
0.0637502
0.0635964
0.0635607
0.0634034
0.0633673
0.0632096
0.0631711
0.0630086
0.0629718
0.0628114
0.0627745
0.062621
0.0625861
0.0624265
0.0623905
0.0622269
0.0621898
0.0620285
0.06199
0.0618277
0.0617889
0.0616281
0.0615909
0.0614286
0.0613899
0.0612316
0.0611945
0.0610376
0.061002
0.0608442
0.0608081
0.0606505
0.0606151
0.0604587
0.0604237
0.060266
0.0602297
0.0600724
0.0600361
0.0598748
0.059839
0.0596761
0.059638
0.0594774
0.0594405
0.0592814
0.0592441
0.0590835
0.0590452
0.0588895
0.0588503
0.0586947
0.0586566
0.0585032
0.0584659
0.0583157
0.0582792
0.0581249
0.0580886
0.0579353
0.0579006
0.0577461
0.0577104
0.0575528
0.0575163
0.0573596
0.0573223
0.0571624
0.0571262
0.0569693
0.0569326
0.056775
0.0567378
0.0565723
0.0565336
0.0563695
0.0563317
0.0561714
0.0561363
0.0559785
0.0559422
0.0557828
0.0557444
0.0555897
0.0555504
0.055387
0.0553513
0.0551903
0.0551552
0.054996
0.0549614
0.0547997
0.0547631
0.0546016
0.0545637
0.0544024
0.0543649
0.054207
0.0541699
0.0540107
0.0539742
0.0538144
0.0537779
0.0536192
0.0535847
0.0534334
0.0533983
0.0532406
0.0532056
0.0530482
0.0530136
0.0528575
0.0528219
0.0526695
0.0526334
0.0524765
0.0524406
0.0522829
0.0522485
0.0651672
0.0651294
0.0649654
0.0649272
0.0647617
0.064725
0.0645592
0.064523
0.0643648
0.0643288
0.0641708
0.0641347
0.063979
0.0639414
0.063784
0.0637486
0.0635968
0.0635622
0.0634054
0.0633704
0.0632102
0.0631724
0.0630095
0.0629733
0.0628149
0.0627773
0.0626218
0.062585
0.0624259
0.0623916
0.0622253
0.0621873
0.0620266
0.0619894
0.061828
0.0617888
0.0616266
0.0615873
0.0614251
0.0613861
0.0612297
0.0611924
0.0610372
0.0610017
0.0608478
0.0608119
0.0606544
0.0606194
0.0604632
0.0604278
0.060269
0.0602338
0.060076
0.0600384
0.0598761
0.0598396
0.059677
0.05964
0.0594775
0.0594383
0.0592783
0.0592398
0.0590794
0.0590417
0.0588855
0.0588473
0.058691
0.0586541
0.0585014
0.0584645
0.058317
0.0582808
0.0581272
0.0580904
0.0579363
0.0578997
0.0577458
0.0577102
0.0575525
0.0575165
0.0573576
0.0573204
0.0571602
0.0571238
0.0569671
0.0569301
0.056773
0.0567361
0.0565746
0.0565374
0.0563733
0.0563359
0.056173
0.0561371
0.0559797
0.0559434
0.055783
0.055749
0.055592
0.0555524
0.0553879
0.0553522
0.055193
0.0551557
0.054997
0.0549593
0.0548002
0.0547628
0.0546012
0.0545622
0.0544009
0.0543654
0.0542084
0.0541706
0.0540116
0.0539746
0.0538163
0.0537813
0.053625
0.0535906
0.053436
0.0534014
0.0532449
0.0532084
0.0530519
0.0530168
0.0528595
0.052824
0.0526698
0.052635
0.052479
0.0524442
0.0522864
0.0522514
0.0651675
0.0651303
0.0649666
0.064928
0.0647639
0.0647273
0.064563
0.0645269
0.0643649
0.0643285
0.0641693
0.0641337
0.0639797
0.0639443
0.0637862
0.0637515
0.0635976
0.063563
0.0634051
0.0633689
0.0632084
0.0631715
0.0630089
0.0629723
0.0628155
0.0627798
0.0626295
0.062593
0.0624329
0.0623976
0.0622277
0.0621901
0.0620254
0.0619877
0.0618272
0.0617881
0.061628
0.0615888
0.0614245
0.0613855
0.0612301
0.0611934
0.0610373
0.0610023
0.0608502
0.0608153
0.0606606
0.0606257
0.0604681
0.0604315
0.0602715
0.0602351
0.0600756
0.060039
0.0598765
0.0598392
0.0596768
0.0596389
0.0594762
0.0594374
0.0592752
0.0592365
0.0590783
0.0590407
0.0588842
0.0588469
0.0586905
0.0586532
0.0585005
0.0584632
0.058317
0.0582805
0.0581291
0.0580938
0.0579405
0.0579042
0.0577469
0.0577097
0.0575516
0.0575139
0.0573567
0.0573195
0.0571598
0.0571225
0.0569639
0.0569281
0.0567683
0.056731
0.0565701
0.0565337
0.0563734
0.0563355
0.0561756
0.0561401
0.0559813
0.055946
0.0557858
0.0557512
0.0555928
0.0555543
0.0553884
0.0553514
0.0551923
0.0551555
0.0549971
0.0549592
0.0547992
0.0547621
0.054601
0.0545615
0.0543995
0.0543619
0.0542056
0.0541701
0.0540105
0.0539734
0.0538163
0.0537814
0.0536275
0.0535921
0.0534374
0.0534017
0.053245
0.0532084
0.0530529
0.0530163
0.0528618
0.0528267
0.0526747
0.052641
0.0524826
0.0524476
0.0522866
0.0522532
0.0651656
0.0651274
0.0649639
0.0649248
0.0647619
0.0647245
0.0645658
0.0645301
0.0643675
0.064332
0.0641707
0.0641348
0.0639796
0.0639453
0.0637905
0.063755
0.0635992
0.0635633
0.0634059
0.0633689
0.0632094
0.0631728
0.0630105
0.0629748
0.062816
0.0627813
0.0626299
0.0625911
0.0624341
0.0623974
0.0622299
0.0621916
0.0620241
0.0619869
0.061824
0.0617859
0.0616253
0.0615862
0.0614233
0.0613854
0.0612302
0.0611938
0.0610407
0.0610065
0.0608542
0.0608196
0.0606636
0.0606265
0.0604688
0.0604329
0.0602737
0.0602371
0.0600751
0.060038
0.0598755
0.0598376
0.0596746
0.0596367
0.0594733
0.059436
0.059273
0.0592351
0.0590755
0.0590381
0.058883
0.0588448
0.0586906
0.0586548
0.0585017
0.058466
0.0583178
0.0582821
0.0581277
0.0580922
0.0579403
0.0579037
0.0577489
0.0577116
0.0575507
0.0575136
0.0573547
0.0573175
0.0571581
0.0571198
0.0569658
0.0569301
0.056772
0.0567346
0.0565707
0.0565346
0.0563733
0.0563378
0.0561795
0.0561436
0.055985
0.0559493
0.0557878
0.0557506
0.0555908
0.0555543
0.0553902
0.0553528
0.0551915
0.0551545
0.0549968
0.0549584
0.0547969
0.0547591
0.0545975
0.0545611
0.0544018
0.0543641
0.0542082
0.0541735
0.054013
0.0539775
0.0538195
0.0537843
0.0536308
0.0535955
0.0534399
0.0534013
0.0532432
0.0532071
0.0530522
0.0530156
0.0528615
0.0528268
0.0526768
0.0526418
0.0524859
0.052448
0.0522887
0.052259
0.0651633
0.065125
0.0649636
0.0649255
0.0647626
0.0647246
0.0645653
0.0645293
0.064369
0.0643343
0.0641734
0.0641378
0.0639812
0.0639475
0.0637935
0.0637573
0.0636
0.0635638
0.0634047
0.0633677
0.0632082
0.0631711
0.0630122
0.0629764
0.0628178
0.0627823
0.0626309
0.0625905
0.0624352
0.0623975
0.0622321
0.0621946
0.0620258
0.0619875
0.0618233
0.0617869
0.0616239
0.0615867
0.0614242
0.0613876
0.061234
0.0611998
0.0610454
0.0610102
0.0608557
0.0608203
0.0606648
0.0606288
0.0604675
0.0604284
0.0602716
0.0602332
0.0600737
0.0600359
0.059875
0.0598368
0.0596728
0.0596352
0.0594717
0.0594353
0.0592721
0.0592344
0.0590735
0.0590377
0.0588805
0.0588437
0.0586901
0.0586536
0.0585013
0.0584667
0.0583185
0.0582828
0.0581284
0.0580927
0.0579385
0.057904
0.0577493
0.0577128
0.0575519
0.0575139
0.0573543
0.0573165
0.0571566
0.0571196
0.0569645
0.0569274
0.0567699
0.0567319
0.0565716
0.0565345
0.0563748
0.0563398
0.0561805
0.0561445
0.0559884
0.0559534
0.0557928
0.0557553
0.0555922
0.0555548
0.0553897
0.0553514
0.0551913
0.0551533
0.0549963
0.0549595
0.0547969
0.0547566
0.0545948
0.0545587
0.054401
0.0543641
0.0542083
0.0541718
0.0540154
0.0539802
0.0538219
0.0537868
0.0536321
0.0535976
0.0534415
0.0534034
0.053245
0.0532087
0.053052
0.0530151
0.0528628
0.0528265
0.0526764
0.052641
0.0524873
0.0524499
0.0522944
0.065162
0.0651246
0.0649622
0.0649245
0.0647643
0.064726
0.064568
0.064531
0.064371
0.064336
0.0641776
0.0641423
0.0639853
0.0639505
0.0637958
0.0637606
0.0636006
0.0635643
0.0634046
0.0633681
0.0632085
0.0631721
0.0630137
0.0629769
0.0628159
0.0627799
0.0626276
0.0625884
0.0624351
0.0623941
0.0622304
0.0621936
0.0620255
0.0619877
0.0618235
0.0617874
0.0616229
0.0615875
0.0614266
0.0613923
0.0612372
0.0612009
0.0610469
0.0610123
0.0608583
0.0608213
0.0606653
0.0606291
0.060467
0.0604281
0.0602699
0.0602302
0.0600732
0.0600353
0.0598726
0.0598334
0.0596701
0.0596327
0.0594696
0.0594319
0.0592699
0.059233
0.0590726
0.0590365
0.0588773
0.0588424
0.0586904
0.0586547
0.0585027
0.0584679
0.0583196
0.0582848
0.0581297
0.0580926
0.0579376
0.0579019
0.0577488
0.0577136
0.0575518
0.0575148
0.0573545
0.0573168
0.0571593
0.0571222
0.0569672
0.0569299
0.0567687
0.0567315
0.056571
0.0565342
0.0563767
0.0563407
0.0561833
0.0561464
0.0559888
0.0559515
0.0557926
0.0557566
0.0555926
0.0555547
0.0553892
0.0553517
0.0551909
0.0551524
0.0549935
0.0549566
0.0547961
0.0547575
0.0545965
0.0545586
0.0544028
0.0543665