/*--------------------------------*- C++ -*----------------------------------*\
| =========                 |                                                 |
| \\      /  F ield         | OpenFOAM: The Open Source CFD Toolbox           |
|  \\    /   O peration     | Version:  2206                                  |
|   \\  /    A nd           | Website:  www.openfoam.com                      |
|    \\/     M anipulation  |                                                 |
\*---------------------------------------------------------------------------*/
FoamFile
{
    version     2.0;
    format      ascii;
    arch        "LSB;label=32;scalar=64";
    class       volScalarField;
    location    "450";
    object      magR;
}
// * * * * * * * * * * * * * * * * * * * * * * * * * * * * * * * * * * * * * //

dimensions      [0 2 -2 0 0 0 0];

internalField   nonuniform List<scalar> 
10720
(
0.023538
0.0274622
0.0324771
0.039289
0.0473598
0.0576333
0.0707696
0.0870426
0.107706
0.134069
0.168129
0.213099
0.273425
0.356422
0.474562
0.647436
0.913674
1.32394
2.04422
3.16549
5.69263
9.51424
22.2739
43.4768
48.1783
46.095
45.2994
46.1299
47.1575
47.4172
46.7879
45.3901
43.1324
40.0442
36.0569
31.2639
24.7594
18.2987
4.26571
0.020032
0.0171884
0.0140008
0.0112669
0.00868558
0.00635914
0.00448041
0.00335174
0.0035062
0.00474346
0.00705509
0.0106247
0.0158801
0.0234977
0.0343389
0.0497158
0.0718252
0.104785
0.156208
0.239903
0.383333
0.637034
1.121
2.05261
4.08369
8.35115
18.6657
38.4623
54.5033
61.3871
63.3397
63.6592
63.2926
62.3973
61.019
59.2336
56.6216
53.5798
43.8851
0.00360469
0.0035844
0.00354304
0.0034405
0.00328197
0.00309976
0.00288482
0.00264314
0.00240398
0.0021695
0.00194594
0.00179066
0.0017693
0.00194391
0.00252448
0.00397275
0.00758986
0.0159147
0.0384806
0.0943277
0.279209
0.771392
2.37072
7.59352
14.8488
22.3453
29.4141
34.4246
35.4238
32.5039
27.7015
22.8386
18.8944
15.872
13.5503
11.7089
10.4219
9.08
9.7498
0.0035722
0.00352402
0.00342528
0.00327883
0.00307843
0.00281403
0.00250372
0.0022027
0.00192412
0.00164763
0.00138453
0.00115676
0.000964327
0.000801118
0.000662815
0.000546301
0.000447472
0.000363859
0.000290609
0.000223737
0.000157664
9.31611e-05
3.22829e-05
5.26501e-06
1.34226e-05
0.00191622
0.0103749
0.0836542
0.281745
0.551419
0.824377
1.06464
1.26669
1.44422
1.61011
1.7808
1.96131
2.36382
3.28789
0.00241978
0.00240068
0.00234654
0.00226375
0.00217717
0.00208202
0.00198581
0.00189929
0.00182488
0.00176715
0.00172253
0.00169696
0.00169016
0.0017049
0.00171133
0.00165523
0.00141302
0.00134622
0.000154442
0.00774102
1.5794e-09
0.00170923
3.73088e-05
0.0205843
0.226291
0.802807
2.03696
4.56901
9.02343
14.9077
20.2203
22.8287
22.3151
20.0358
17.383
14.8926
12.9414
10.7141
12.0389
0.00243862
0.00243561
0.00242913
0.00238586
0.00230911
0.00218026
0.00200263
0.00179981
0.00161135
0.00141748
0.00120888
0.00100688
0.000826097
0.00067042
0.000541888
0.000438106
0.000357222
0.00029587
0.000251244
0.000219186
0.0001971
0.000182769
0.000174901
0.000170576
0.000170353
0.000169185
0.000179941
0.000106714
0.000756699
0.00502245
0.0142336
0.0299796
0.0675792
0.141403
0.25042
0.383915
0.529008
0.633181
1.08074
0.00204214
0.00204636
0.00203608
0.00201912
0.00198413
0.00193205
0.00186712
0.00178607
0.00169343
0.00159096
0.00148086
0.00136465
0.00124346
0.00111951
0.000993921
0.000861643
0.000729496
0.000620694
0.000457375
0.000267216
3.4272e-05
0.000166317
1.31074e-05
0.00515197
0.0267726
0.000358154
0.00481746
0.00713946
0.0509161
0.451962
1.96122
5.33425
9.99667
13.8711
15.5403
15.3159
14.4036
12.6068
13.5766
0.00202024
0.00198706
0.00193497
0.00187223
0.00179357
0.00169056
0.00157029
0.00144231
0.00130906
0.00116444
0.00101496
0.000874827
0.000751019
0.000644317
0.000554162
0.000478581
0.000416398
0.000365753
0.000325104
0.000292011
0.000265121
0.000242534
0.000222291
0.000201004
0.00017913
0.000160942
0.000147193
0.000137313
0.000125328
0.000109898
8.24821e-05
5.1898e-05
0.000415032
0.000706197
0.00264888
0.0142206
0.0466439
0.117886
0.429226
0.0015321
0.00152939
0.00151745
0.00149615
0.0014632
0.00141852
0.00136452
0.00130202
0.00123305
0.00116185
0.00109069
0.00102244
0.00096014
0.000905693
0.000860408
0.000822419
0.000782274
0.000732127
0.000683148
0.000605831
0.000485495
0.000233863
2.78536e-05
5.67186e-06
0
1.79791e-05
0.00103754
0.00660425
0.0331328
0.017084
0.0367363
0.0652908
0.409893
2.39668
6.15423
9.97337
12.3864
12.8389
14.2907
0.00152813
0.00151732
0.0014958
0.00146134
0.00141275
0.0013439
0.00126153
0.00117308
0.00107878
0.000975267
0.000867584
0.000762215
0.000663259
0.000572435
0.000490963
0.000419361
0.000357802
0.000306016
0.000263399
0.000228655
0.000200605
0.000177734
0.000158416
0.000139991
0.000121266
0.000103972
9.02366e-05
8.07406e-05
7.65756e-05
7.07205e-05
8.65926e-05
2.03186e-05
0.0001345
0.000653288
0.00160965
0.0031841
0.00116337
0.00364801
0.0831662
0.0012558
0.00126116
0.00126065
0.00125615
0.00124381
0.00122381
0.00119703
0.0011624
0.00112064
0.00107288
0.00101953
0.000961856
0.00090121
0.000838671
0.00077535
0.000709717
0.000638182
0.000564783
0.000496372
0.000434922
0.000392467
0.000336208
0.000275333
7.29839e-05
1.26446e-05
5.71938e-06
1.29474e-06
0
0
0.00239785
0.00876197
0.045365
0.00813484
0.110969
0.2434
2.28108
6.3677
10.2644
13.6359
0.00124442
0.0012287
0.00120582
0.00117563
0.00113689
0.00108596
0.00102734
0.000964449
0.000896061
0.00082046
0.000741285
0.00066248
0.000587067
0.000516804
0.000452913
0.000396189
0.000346882
0.000304851
0.000269606
0.000240243
0.000215733
0.000194776
0.00017593
0.000157178
0.000137706
0.000119166
0.000102994
8.94592e-05
7.81062e-05
6.86663e-05
6.05719e-05
5.32116e-05
4.21064e-05
2.69815e-05
1.86983e-08
5.38225e-07
0.000194858
0.000837179
0.00945618
0.00101587
0.00102033
0.00102104
0.00101846
0.00101034
0.000996296
0.00097665
0.000950828
0.000919056
0.000882211
0.000840925
0.000796229
0.000749502
0.000702072
0.00065505
0.000610001
0.000569165
0.000531132
0.00049232
0.000451525
0.000412506
0.000380825
0.000358337
0.000298336
0.000198889
0.000101294
1.94739e-05
6.32914e-06
3.52344e-06
3.19625e-07
0
0
0.00102075
0.0350224
0.0265002
0.156831
1.04535
5.23319
10.9392
0.00100752
0.000996226
0.000979795
0.000957167
0.000927813
0.000890147
0.00084782
0.000801682
0.000750874
0.000695161
0.000636603
0.000577412
0.000519381
0.000463748
0.000411553
0.000363628
0.000320435
0.000282254
0.000249085
0.000220536
0.000196058
0.000174833
0.000155813
0.000137535
0.000119233
0.000101891
8.66467e-05
7.38159e-05
6.31341e-05
5.44613e-05
4.7972e-05
4.37494e-05
4.13049e-05
3.84608e-05
3.5161e-05
1.6018e-05
1.54537e-06
7.51613e-08
0.000273265
0.000841976
0.000847724
0.000851137
0.000852512
0.000850178
0.000843802
0.000833637
0.000818937
0.000799699
0.000776333
0.000748804
0.000717647
0.000683474
0.000646845
0.000608411
0.000568959
0.000527993
0.000484457
0.000440379
0.000398599
0.000361436
0.000332292
0.000312001
0.000297907
0.000270098
0.000224269
0.000168532
0.000110957
6.44151e-05
5.04374e-06
3.58484e-06
1.60726e-07
0
0
0.00382522
0.0662817
0.121614
1.18972
6.55402
0.00083334
0.000822931
0.000808981
0.000790464
0.000767262
0.00073851
0.000707098
0.000672473
0.000634133
0.000592539
0.000548627
0.000503774
0.000459085
0.000415399
0.000373568
0.000334403
0.000298396
0.000265982
0.00023732
0.000212244
0.000190353
0.00017103
0.000153436
0.000136467
0.000119547
0.000103401
8.89176e-05
7.63436e-05
6.54157e-05
5.58907e-05
4.77008e-05
4.06893e-05
3.46924e-05
2.95708e-05
2.59992e-05
2.27236e-05
1.60868e-05
1.81458e-06
1.86083e-05
0.000702353
0.000707889
0.000711922
0.00071444
0.000714348
0.000711283
0.000705316
0.000695787
0.000682614
0.000665918
0.000645646
0.000622082
0.000595645
0.000566758
0.000536049
0.000504011
0.000471376
0.000439413
0.000408235
0.000377814
0.000348591
0.000321902
0.000298808
0.000279036
0.000258106
0.000232435
0.000203942
0.000174116
0.00014775
0.000107542
7.13052e-05
3.22914e-06
1.92319e-06
0
0
0
0.0382706
0.164549
2.60798
0.000694767
0.000685984
0.000674636
0.000659564
0.000641189
0.000619003
0.000595089
0.0005686
0.00053931
0.000507822
0.000474579
0.000440363
0.000405839
0.00037152
0.000338
0.000305892
0.000275677
0.000247756
0.000222379
0.000199583
0.000179196
0.000160828
0.000143893
0.000127649
0.000111692
9.64875e-05
8.27671e-05
7.0808e-05
6.04561e-05
5.15339e-05
4.40019e-05
3.79098e-05
3.32638e-05
3.00256e-05
2.81786e-05
2.84362e-05
3.04376e-05
3.21313e-05
1.21545e-06
0.000592105
0.00059753
0.000602055
0.000605556
0.000607185
0.000606763
0.000604233
0.000599033
0.000591079
0.000580363
0.000566712
0.000550259
0.000531199
0.000509743
0.000486231
0.000461003
0.000434583
0.000406926
0.000378222
0.000349708
0.00032287
0.000298813
0.000277784
0.000258118
0.00023701
0.000213043
0.000188194
0.000166588
0.000150069
0.000136574
0.000123641
9.01889e-05
3.82713e-05
3.33226e-06
0
0
0
0.0573018
0.672571
0.000585158
0.000577505
0.000567969
0.000555439
0.000540625
0.000523311
0.000504678
0.000484053
0.00046146
0.000437335
0.0004119
0.000385623
0.000358848
0.000331847
0.000305058
0.000278931
0.000253834
0.000230172
0.0002082
0.000188046
0.000169671
0.000152839
0.000137148
0.000122106
0.000107406
9.33871e-05
8.06237e-05
6.93634e-05
5.94944e-05
5.08551e-05
4.33839e-05
3.70492e-05
3.17622e-05
2.76084e-05
2.4577e-05
2.39839e-05
2.36121e-05
3.97005e-05
1.64086e-05
0.000502712
0.000507792
0.000512347
0.000516192
0.000518656
0.000519673
0.000519069
0.000516458
0.000511668
0.000504668
0.000495243
0.000483426
0.000469289
0.00045292
0.000434563
0.000414489
0.000393001
0.000370586
0.000347751
0.000324952
0.000302916
0.000282216
0.000263086
0.000244534
0.000224463
0.000201765
0.000177976
0.000156422
0.000139226
0.000126889
0.000117933
0.000112754
9.8941e-05
5.74873e-05
3.79582e-06
0
0
0.00305366
0.171758
0.00049649
0.000489865
0.000481863
0.000471376
0.000459293
0.000445617
0.000430844
0.000414548
0.000396941
0.000378277
0.000358624
0.00033828
0.000317429
0.000296192
0.00027481
0.000253602
0.00023284
0.000212838
0.000193866
0.00017608
0.000159506
0.00014404
0.000129442
0.000115398
0.000101729
8.86925e-05
7.67321e-05
6.60864e-05
5.67082e-05
4.84909e-05
4.14017e-05
3.5451e-05
3.06358e-05
2.70239e-05
2.45542e-05
2.42476e-05
2.41281e-05
3.42533e-05
4.26877e-05
0.000429701
0.000434434
0.000438878
0.000442836
0.000445807
0.00044774
0.000448488
0.000447694
0.000445229
0.000441028
0.000434876
0.000426753
0.000416651
0.000404593
0.000390696
0.00037512
0.000358099
0.000339984
0.000320904
0.000301279
0.000281977
0.000263652
0.00024646
0.00022966
0.00021167
0.00019152
0.000170205
0.00015018
0.000133244
0.000119699
0.000108758
0.000101774
9.85376e-05
9.49496e-05
6.19757e-05
3.04923e-06
0
0.000984174
0.0597187
0.000424133
0.000418329
0.000411552
0.000402717
0.000392756
0.00038179
0.000369917
0.000356896
0.000343032
0.000328429
0.000313118
0.000297271
0.000280961
0.000264195
0.000247138
0.000229976
0.000212876
0.000196091
0.000179831
0.000164282
0.000149525
0.00013553
0.00012215
0.000109203
9.66291e-05
8.46181e-05
7.35211e-05
6.35527e-05
5.47039e-05
4.68995e-05
4.01069e-05
3.43329e-05
2.95493e-05
2.58228e-05
2.31782e-05
2.24912e-05
2.27385e-05
2.92263e-05
4.66849e-05
0.000369349
0.000373706
0.000377932
0.000381825
0.000384995
0.000387418
0.000388978
0.000389351
0.000388422
0.00038612
0.000382243
0.000376747
0.000369577
0.000360693
0.000350163
0.000338081
0.000324583
0.00030997
0.000294465
0.000278362
0.000262191
0.000246435
0.000231199
0.000216003
0.000199785
0.00018184
0.000162891
0.000144824
0.000129135
0.000115971
0.000104751
9.54602e-05
8.90566e-05
8.66649e-05
9.12711e-05
4.67179e-05
6.71466e-08
0.000311579
0.0198318
0.000364394
0.000359296
0.000353504
0.000346033
0.000337756
0.000328837
0.000319185
0.000308676
0.000297649
0.000286127
0.0002741
0.00026166
0.000248829
0.000235578
0.000221951
0.000208068
0.000194029
0.000180011
0.000166175
0.000152675
0.000139615
0.000127011
0.000114805
0.000102924
9.13659e-05
8.03023e-05
7.00065e-05
6.06749e-05
5.23316e-05
4.49337e-05
3.84671e-05
3.29544e-05
2.83957e-05
2.48584e-05
2.23687e-05
2.16339e-05
2.19411e-05
2.69065e-05
4.29079e-05
0.000319052
0.000323029
0.000326991
0.000330731
0.000333941
0.000336632
0.000338678
0.000339807
0.000339938
0.000338978
0.000336765
0.00033322
0.000328294
0.000321925
0.000314117
0.000304911
0.000294379
0.000282752
0.000270178
0.000256831
0.000243106
0.000229488
0.00021607
0.000202516
0.00018806
0.000172173
0.000155385
0.000139185
0.000124868
0.00011264
0.000102078
9.28701e-05
8.51775e-05
7.95344e-05
7.84651e-05
9.49361e-05
9.86562e-08
3.08941e-05
0.00497387
0.000314624
0.000310149
0.000305147
0.000298802
0.00029188
0.000284526
0.000276586
0.000268051
0.000259195
0.000250018
0.000240489
0.000230668
0.000220532
0.000210009
0.000199122
0.000187905
0.0001764
0.000164734
0.000153022
0.000141384
0.000129909
0.000118653
0.000107612
9.67916e-05
8.62358e-05
7.60917e-05
6.65895e-05
5.79012e-05
5.00721e-05
4.30868e-05
3.69423e-05
3.16665e-05
2.72594e-05
2.37873e-05
2.12885e-05
2.04295e-05
2.06115e-05
2.49123e-05
3.85945e-05
0.000276794
0.0002804
0.000284081
0.000287602
0.000290745
0.000293541
0.000295838
0.000297434
0.000298261
0.000298223
0.000297184
0.000295075
0.000291815
0.000287339
0.000281614
0.00027466
0.000266518
0.000257313
0.000247212
0.00023633
0.000224877
0.000213271
0.000201596
0.000189616
0.00017681
0.000162789
0.000147936
0.000133419
0.000120354
0.000109041
9.92034e-05
9.06455e-05
8.31514e-05
7.75662e-05
6.98413e-05
8.72998e-05
4.40002e-05
4.14418e-07
0.000319522
0.000272827
0.00026889
0.000264551
0.000259126
0.000253302
0.000247166
0.00024058
0.000233592
0.000226421
0.000219051
0.000211449
0.000203635
0.000195578
0.000187198
0.000178473
0.000169411
0.000160008
0.000150328
0.000140449
0.000130463
0.000120454
0.000110484
0.000100575
9.07623e-05
8.11442e-05
7.18709e-05
6.31267e-05
5.50614e-05
4.77355e-05
4.1156e-05
3.53326e-05
3.03014e-05
2.60736e-05
2.27191e-05
2.02753e-05
1.93463e-05
1.94147e-05
2.30486e-05
3.48102e-05
0.000241037
0.000244305
0.000247696
0.000250974
0.000253997
0.000256781
0.000259193
0.000261065
0.000262342
0.000262938
0.00026273
0.000261649
0.00025963
0.000256592
0.000252511
0.000247361
0.000241156
0.000233956
0.000225921
0.00021709
0.000207578
0.00019773
0.000187642
0.000177159
0.000165904
0.000153598
0.000140521
0.000127575
0.000115702
0.000105256
9.60829e-05
8.80991e-05
8.1066e-05
7.58813e-05
6.91123e-05
7.01425e-05
8.42237e-05
1.79514e-07
2.11209e-05
0.000237494
0.000234006
0.00023023
0.000225566
0.000220638
0.000215469
0.000209957
0.000204191
0.000198336
0.000192369
0.000186255
0.000180006
0.000173571
0.000166865
0.00015986
0.000152521
0.000144835
0.000136822
0.000128524
0.000120002
0.000111319
0.000102538
9.36963e-05
8.48654e-05
7.61551e-05
6.77128e-05
5.96945e-05
5.22359e-05
4.5406e-05
3.92289e-05
3.37244e-05
2.89345e-05
2.48757e-05
2.16182e-05
1.92026e-05
1.81846e-05
1.81484e-05
2.11943e-05
3.13811e-05
0.000210594
0.000213557
0.000216656
0.000219694
0.000222555
0.000225257
0.000227687
0.000229701
0.000231243
0.00023225
0.000232615
0.000232274
0.000231176
0.000229237
0.000226415
0.000222676
0.000218013
0.000212448
0.000206108
0.000199012
0.000191205
0.000182931
0.000174299
0.000165212
0.0001554
0.000144655
0.000133191
0.000121704
0.000110973
0.00010137
9.28427e-05
8.5349e-05
7.87997e-05
7.35093e-05
6.94168e-05
6.12217e-05
9.20854e-05
4.82607e-07
4.5438e-10
0.000207438
0.000204343
0.000201031
0.000197006
0.000192812
0.000188419
0.000183773
0.000178982
0.000174165
0.000169296
0.000164344
0.000159306
0.000154132
0.000148746
0.0001431
0.000137154
0.000130869
0.000124248
0.000117297
0.000110057
0.000102568
9.48775e-05
8.70335e-05
7.91227e-05
7.12702e-05
6.36086e-05
5.62819e-05
4.94088e-05
4.30621e-05
3.72797e-05
3.20902e-05
2.75396e-05
2.36521e-05
2.04989e-05
1.81222e-05
1.70275e-05
1.68957e-05
1.94204e-05
2.82038e-05
0.00018454
0.000187219
0.000190039
0.000192845
0.000195517
0.000198104
0.000200482
0.000202541
0.000204234
0.000205505
0.000206259
0.000206453
0.00020602
0.000204894
0.000203033
0.000200396
0.000196965
0.000192731
0.000187783
0.000182134
0.000175789
0.00016889
0.000161569
0.000153767
0.00014528
0.000135956
0.000125957
0.000115818
0.000106179
9.74044e-05
8.95214e-05
8.25025e-05
7.64046e-05
7.10734e-05
6.80508e-05
5.95451e-05
7.80552e-05
2.95523e-05
5.93318e-07
0.000181723
0.000178975
0.000176058
0.000172567
0.00016898
0.000165217
0.000161275
0.000157265
0.000153271
0.000149266
0.000145226
0.00014114
0.000136958
0.000132606
0.000128039
0.000123207
0.000118064
0.000112593
0.000106786
0.000100651
9.42196e-05
8.75298e-05
8.06197e-05
7.35676e-05
6.65056e-05
5.95802e-05
5.29111e-05
4.66011e-05
4.07242e-05
3.53277e-05
3.04479e-05
2.61329e-05
2.24141e-05
1.93617e-05
1.70197e-05
1.58509e-05
1.56307e-05
1.77215e-05
2.52574e-05
0.000162134
0.000164547
0.000167117
0.000169686
0.000172174
0.000174615
0.000176909
0.000178946
0.000180704
0.000182126
0.000183134
0.000183685
0.000183732
0.000183208
0.000182081
0.000180299
0.000177838
0.000174682
0.00017087
0.000166423
0.000161318
0.00015562
0.000149471
0.000142836
0.000135555
0.000127514
0.000118837
0.000109935
0.000101331
9.33641e-05
8.6118e-05
7.95891e-05
7.38826e-05
6.87991e-05
6.55431e-05
5.99632e-05
6.37438e-05
5.98936e-05
7.08665e-06
0.000159616
0.00015717
0.000154593
0.000151556
0.000148463
0.000145226
0.000141859
0.000138481
0.000135144
0.000131828
0.000128508
0.000125169
0.000121767
0.000118231
0.000114519
0.000110582
0.000106367
0.000101845
9.69969e-05
9.18194e-05
8.63171e-05
8.05143e-05
7.44461e-05
6.81958e-05
6.18868e-05
5.56512e-05
4.95991e-05
4.3824e-05
3.83987e-05
3.33763e-05
2.87986e-05
2.47149e-05
2.11632e-05
1.82114e-05
1.5906e-05
1.46711e-05
1.43698e-05
1.60971e-05
2.25339e-05
0.000142778
0.000144951
0.000147287
0.000149636
0.000151936
0.000154223
0.000156399
0.000158381
0.000160142
0.000161636
0.000162798
0.000163594
0.000163981
0.000163906
0.000163327
0.000162204
0.000160502
0.000158203
0.000155306
0.000151849
0.000147791
0.000143139
0.000138021
0.000132428
0.000126233
0.000119345
0.000111857
0.000104086
9.64521e-05
8.9264e-05
8.26385e-05
7.66072e-05
7.12555e-05
6.65535e-05
6.28574e-05
5.95706e-05
5.62463e-05
6.43923e-05
3.00997e-05
0.000140527
0.000138344
0.000136063
0.000133416
0.000130726
0.000127928
0.000125039
0.000122171
0.000119364
0.000116598
0.00011385
0.000111103
0.000108316
0.000105429
0.000102399
9.91771e-05
9.57145e-05
9.19762e-05
8.79302e-05
8.35633e-05
7.88731e-05
7.38661e-05
6.8564e-05
6.30447e-05
5.74267e-05
5.18298e-05
4.63559e-05
4.10883e-05
3.60966e-05
3.14362e-05
2.71527e-05
2.32954e-05
1.99081e-05
1.70551e-05
1.47863e-05
1.34914e-05
1.31159e-05
1.45508e-05
2.00385e-05
0.000125993
0.000127953
0.000130069
0.000132213
0.00013433
0.000136458
0.000138503
0.0001404
0.000142125
0.000143637
0.000144883
0.000145834
0.000146453
0.000146694
0.000146522
0.000145899
0.000144787
0.000143163
0.000141013
0.000138376
0.000135193
0.000131438
0.000127222
0.000122553
0.000117327
0.000111467
0.000105043
9.82967e-05
9.15654e-05
8.51218e-05
7.90982e-05
7.35579e-05
6.85559e-05
6.42097e-05
6.03613e-05
5.79146e-05
5.32959e-05
5.79269e-05
4.69334e-05
0.00012398
0.000122029
0.000120007
0.000117691
0.00011534
0.000112907
0.000110417
0.000107968
0.000105591
0.000103267
0.000100973
9.86951e-05
9.6398e-05
9.4026e-05
9.154e-05
8.88936e-05
8.60392e-05
8.29431e-05
7.95692e-05
7.58926e-05
7.18983e-05
6.75899e-05
6.29794e-05
5.81267e-05
5.31372e-05
4.81298e-05
4.31963e-05
3.84078e-05
3.38294e-05
2.95166e-05
2.55174e-05
2.18804e-05
1.86538e-05
1.58978e-05
1.36666e-05
1.2319e-05
1.18765e-05
1.30779e-05
1.77552e-05
0.000111386
0.000113151
0.000115071
0.00011702
0.000118966
0.000120934
0.000122843
0.00012464
0.000126301
0.000127794
0.00012907
0.00013011
0.000130881
0.000131343
0.000131471
0.000131221
0.000130565
0.000129477
0.000127929
0.000125951
0.000123487
0.000120498
0.000117065
0.000113203
0.000108835
0.000103889
9.84119e-05
9.25914e-05
8.66939e-05
8.09546e-05
7.55118e-05
7.04476e-05
6.5806e-05
6.17523e-05
5.80155e-05
5.55696e-05
5.17727e-05
5.14204e-05
5.08181e-05
0.000109587
0.000107839
0.000106042
0.000104009
0.000101947
9.98234e-05
9.76664e-05
9.55633e-05
9.35362e-05
9.15676e-05
8.96422e-05
8.77417e-05
8.58332e-05
8.38699e-05
8.18167e-05
7.9634e-05
7.72745e-05
7.47032e-05
7.18847e-05
6.87903e-05
6.5399e-05
6.16996e-05
5.76979e-05
5.34437e-05
4.9033e-05
4.457e-05
4.0136e-05
3.57956e-05
3.16073e-05
2.76261e-05
2.39003e-05
2.04778e-05
1.74077e-05
1.47469e-05
1.25537e-05
1.11603e-05
1.066e-05
1.16806e-05
1.56768e-05
9.86356e-05
0.000100227
0.000101964
0.000103735
0.000105518
0.000107331
0.000109105
0.000110789
0.000112372
0.000113818
0.000115092
0.000116173
0.000117038
0.000117651
0.000117989
0.000118018
0.000117707
0.000117032
0.000115962
0.000114513
0.000112643
0.000110302
0.000107539
0.00010438
0.000100763
9.66206e-05
9.19827e-05
8.69927e-05
8.18593e-05
7.67817e-05
7.18937e-05
6.7287e-05
6.30083e-05
5.92109e-05
5.56951e-05
5.30558e-05
5.01245e-05
4.71782e-05
4.83083e-05
9.70281e-05
9.54602e-05
9.38605e-05
9.20699e-05
9.02533e-05
8.83939e-05
8.65152e-05
8.46997e-05
8.29607e-05
8.1283e-05
7.96517e-05
7.80535e-05
7.64565e-05
7.48227e-05
7.31195e-05
7.13075e-05
6.93481e-05
6.72081e-05
6.48501e-05
6.22436e-05
5.93651e-05
5.61961e-05
5.2733e-05
4.90159e-05
4.51269e-05
4.11607e-05
3.71852e-05
3.32612e-05
2.94405e-05
2.57751e-05
2.23118e-05
1.90964e-05
1.61783e-05
1.36108e-05
1.14558e-05
1.00227e-05
9.47153e-06
1.03592e-05
1.37958e-05
8.74756e-05
8.89083e-05
9.04789e-05
9.20893e-05
9.37162e-05
9.53814e-05
9.70213e-05
9.85928e-05
0.000100083
0.000101467
0.000102709
0.000103799
0.000104711
0.00010542
0.000105906
0.000106136
0.000106086
0.000105728
0.000105036
0.000104014
0.000102627
0.00010083
9.8636e-05
9.60815e-05
9.31145e-05
8.96727e-05
8.57729e-05
8.15233e-05
7.70838e-05
7.26219e-05
6.82601e-05
6.40928e-05
6.017e-05
5.66192e-05
5.33294e-05
5.05822e-05
4.80487e-05
4.43869e-05
4.44356e-05
8.6035e-05
8.46326e-05
8.32041e-05
8.1623e-05
8.00184e-05
7.83837e-05
7.67412e-05
7.51636e-05
7.36621e-05
7.22223e-05
7.08331e-05
6.94801e-05
6.81357e-05
6.67642e-05
6.53389e-05
6.38277e-05
6.21942e-05
6.04067e-05
5.843e-05
5.62338e-05
5.37917e-05
5.10805e-05
4.80895e-05
4.48479e-05
4.14262e-05
3.79069e-05
3.43548e-05
3.08164e-05
2.73399e-05
2.39733e-05
2.07605e-05
1.77446e-05
1.49744e-05
1.24986e-05
1.03817e-05
8.914e-06
8.31939e-06
9.11232e-06
1.20968e-05
7.76818e-05
7.89715e-05
8.03902e-05
8.18538e-05
8.33359e-05
8.48619e-05
8.63719e-05
8.78292e-05
8.92253e-05
9.05344e-05
9.17304e-05
9.28025e-05
9.37306e-05
9.44951e-05
9.50752e-05
9.54488e-05
9.55901e-05
9.54746e-05
9.50781e-05
9.4392e-05
9.33984e-05
9.20458e-05
9.03292e-05
8.82881e-05
8.58829e-05
8.3051e-05
7.97979e-05
7.62036e-05
7.23907e-05
6.84947e-05
6.46274e-05
6.08783e-05
5.72997e-05
5.39974e-05
5.09111e-05
4.81725e-05
4.5719e-05
4.21058e-05
4.09036e-05
7.63903e-05
7.51346e-05
7.38571e-05
7.24582e-05
7.10375e-05
6.95944e-05
6.8154e-05
6.67777e-05
6.54735e-05
6.42305e-05
6.30381e-05
6.18825e-05
6.07401e-05
5.95831e-05
5.83853e-05
5.71165e-05
5.57471e-05
5.42482e-05
5.25876e-05
5.07331e-05
4.86591e-05
4.634e-05
4.37609e-05
4.09404e-05
3.79383e-05
3.48233e-05
3.16552e-05
2.84717e-05
2.53159e-05
2.22298e-05
1.92551e-05
1.64313e-05
1.38047e-05
1.14193e-05
9.33984e-06
7.84105e-06
7.2088e-06
7.94378e-06
1.05731e-05
6.90659e-05
7.02284e-05
7.15097e-05
7.28366e-05
7.41862e-05
7.55805e-05
7.69671e-05
7.8312e-05
7.96126e-05
8.08416e-05
8.19803e-05
8.30174e-05
8.39396e-05
8.47266e-05
8.53651e-05
8.58354e-05
8.61141e-05
8.618e-05
8.60098e-05
8.55888e-05
8.49088e-05
8.39225e-05
8.26052e-05
8.09998e-05
7.90716e-05
7.67623e-05
7.40687e-05
7.10495e-05
6.7798e-05
6.44198e-05
6.10121e-05
5.7658e-05
5.44106e-05
5.13521e-05
4.84568e-05
4.57896e-05
4.33183e-05
3.98976e-05
3.78857e-05
6.791e-05
6.6784e-05
6.56393e-05
6.44e-05
6.31392e-05
6.18617e-05
6.05945e-05
5.93874e-05
5.82492e-05
5.71693e-05
5.61396e-05
5.51466e-05
5.41698e-05
5.31849e-05
5.21705e-05
5.11004e-05
4.99468e-05
4.86835e-05
4.72834e-05
4.57159e-05
4.39534e-05
4.19689e-05
3.97441e-05
3.72919e-05
3.46607e-05
3.19115e-05
2.90908e-05
2.62335e-05
2.3375e-05
2.05523e-05
1.78039e-05
1.51648e-05
1.2677e-05
1.03811e-05
8.33966e-06
6.81178e-06
6.14589e-06
6.85431e-06
9.21168e-06
6.14716e-05
6.25192e-05
6.36768e-05
6.48782e-05
6.61051e-05
6.73772e-05
6.8646e-05
6.98848e-05
7.10892e-05
7.2237e-05
7.33105e-05
7.43023e-05
7.52008e-05
7.59897e-05
7.66587e-05
7.71895e-05
7.75626e-05
7.7761e-05
7.77615e-05
7.75484e-05
7.71165e-05
7.64241e-05
7.54394e-05
7.4197e-05
7.26713e-05
7.08076e-05
6.85968e-05
6.60796e-05
6.33253e-05
6.04161e-05
5.74324e-05
5.44479e-05
5.15149e-05
4.86994e-05
4.59848e-05
4.34169e-05
4.09402e-05
3.76742e-05
3.52129e-05
6.04373e-05
5.94278e-05
5.84007e-05
5.73005e-05
5.61796e-05
5.50452e-05
5.39267e-05
5.28653e-05
5.18673e-05
5.09234e-05
5.00277e-05
4.91688e-05
4.83283e-05
4.74848e-05
4.6619e-05
4.571e-05
4.4733e-05
4.36658e-05
4.24805e-05
4.11508e-05
3.96509e-05
3.7953e-05
3.60352e-05
3.39059e-05
3.16029e-05
2.91787e-05
2.66721e-05
2.41116e-05
2.15269e-05
1.89506e-05
1.64157e-05
1.39535e-05
1.16013e-05
9.39436e-06
7.39108e-06
5.83417e-06
5.13613e-06
5.84711e-06
8.00431e-06
5.4766e-05
5.57087e-05
5.67552e-05
5.78415e-05
5.89558e-05
6.0115e-05
6.12731e-05
6.24114e-05
6.35214e-05
6.45881e-05
6.55931e-05
6.65326e-05
6.73947e-05
6.81698e-05
6.88465e-05
6.94103e-05
6.9847e-05
7.01379e-05
7.02663e-05
7.02131e-05
6.99767e-05
6.95177e-05
6.88047e-05
6.78617e-05
6.66724e-05
6.5187e-05
6.33889e-05
6.1307e-05
5.89901e-05
5.65007e-05
5.39051e-05
5.12656e-05
4.86261e-05
4.60485e-05
4.35131e-05
4.10558e-05
3.86068e-05
3.54635e-05
3.27621e-05
5.38389e-05
5.29343e-05
5.20131e-05
5.10342e-05
5.00362e-05
4.90281e-05
4.80371e-05
4.71002e-05
4.6221e-05
4.53921e-05
4.46085e-05
4.38604e-05
4.31315e-05
4.24047e-05
4.16624e-05
4.08857e-05
4.00537e-05
3.91461e-05
3.81395e-05
3.70089e-05
3.57291e-05
3.42743e-05
3.26211e-05
3.07724e-05
2.87589e-05
2.66237e-05
2.43992e-05
2.21088e-05
1.97765e-05
1.74301e-05
1.50972e-05
1.2805e-05
1.05859e-05
8.46865e-06
6.50465e-06
4.91676e-06
4.18367e-06
4.92519e-06
6.9411e-06
4.88338e-05
4.96833e-05
5.06272e-05
5.16099e-05
5.26205e-05
5.36741e-05
5.47308e-05
5.57726e-05
5.67932e-05
5.77791e-05
5.87152e-05
5.95974e-05
6.0418e-05
6.11674e-05
6.18368e-05
6.24152e-05
6.28889e-05
6.32429e-05
6.34629e-05
6.35302e-05
6.34429e-05
6.31684e-05
6.26738e-05
6.19789e-05
6.10676e-05
5.98967e-05
5.84486e-05
5.67406e-05
5.48063e-05
5.26906e-05
5.04457e-05
4.81242e-05
4.57631e-05
4.34097e-05
4.1055e-05
3.87111e-05
3.63188e-05
3.32943e-05
3.04748e-05
4.80025e-05
4.71928e-05
4.63665e-05
4.54931e-05
4.4604e-05
4.37071e-05
4.28271e-05
4.19973e-05
4.12199e-05
4.0489e-05
3.98003e-05
3.91447e-05
3.8509e-05
3.78777e-05
3.72371e-05
3.65697e-05
3.58574e-05
3.50824e-05
3.42239e-05
3.32595e-05
3.21661e-05
3.09176e-05
2.94912e-05
2.7886e-05
2.61253e-05
2.42471e-05
2.22758e-05
2.02305e-05
1.813e-05
1.59971e-05
1.38553e-05
1.17266e-05
9.63837e-06
7.61266e-06
5.69108e-06
4.06919e-06
3.29256e-06
4.09422e-06
6.0145e-06
4.35779e-05
4.43436e-05
4.51944e-05
4.60828e-05
4.69988e-05
4.79549e-05
4.89177e-05
4.98691e-05
5.08054e-05
5.17133e-05
5.25813e-05
5.34052e-05
5.41789e-05
5.48941e-05
5.55454e-05
5.61214e-05
5.66135e-05
5.70081e-05
5.72916e-05
5.74469e-05
5.74727e-05
5.73411e-05
5.70215e-05
5.65261e-05
5.58431e-05
5.49342e-05
5.37806e-05
5.23908e-05
5.07869e-05
4.90007e-05
4.70711e-05
4.5039e-05
4.29365e-05
4.07998e-05
3.86203e-05
3.63992e-05
3.40836e-05
3.119e-05
2.83357e-05
4.28328e-05
4.21077e-05
4.13671e-05
4.05864e-05
3.97939e-05
3.89948e-05
3.82122e-05
3.74751e-05
3.67857e-05
3.61382e-05
3.55296e-05
3.49531e-05
3.43959e-05
3.38444e-05
3.32877e-05
3.27105e-05
3.20975e-05
3.14333e-05
3.06986e-05
2.98731e-05
2.89361e-05
2.78628e-05
2.66308e-05
2.52369e-05
2.36991e-05
2.20471e-05
2.03025e-05
1.84784e-05
1.65903e-05
1.46558e-05
1.26944e-05
1.07236e-05
8.76529e-06
6.83533e-06
4.96242e-06
3.30404e-06
2.46613e-06
3.36187e-06
5.21827e-06
3.89153e-05
3.96047e-05
4.03719e-05
4.1174e-05
4.20034e-05
4.28709e-05
4.37459e-05
4.46134e-05
4.54705e-05
4.63042e-05
4.71052e-05
4.78704e-05
4.85946e-05
4.92712e-05
4.9896e-05
5.04609e-05
5.09568e-05
5.13724e-05
5.16964e-05
5.19146e-05
5.20239e-05
5.20016e-05
5.182e-05
5.14846e-05
5.09859e-05
5.02921e-05
4.93841e-05
4.8263e-05
4.69427e-05
4.54442e-05
4.37948e-05
4.20262e-05
4.01616e-05
3.823e-05
3.62218e-05
3.41319e-05
3.19073e-05
2.91534e-05
2.63327e-05
3.82473e-05
3.75977e-05
3.6934e-05
3.62363e-05
3.55289e-05
3.48164e-05
3.41195e-05
3.34634e-05
3.28502e-05
3.22748e-05
3.17357e-05
3.12249e-05
3.07335e-05
3.02504e-05
2.97646e-05
2.9263e-05
2.87326e-05
2.81601e-05
2.75287e-05
2.682e-05
2.6015e-05
2.50914e-05
2.40263e-05
2.28144e-05
2.14712e-05
2.00197e-05
1.84773e-05
1.68534e-05
1.51594e-05
1.34095e-05
1.16185e-05
9.80092e-06
7.97272e-06
6.14446e-06
4.33075e-06
2.63869e-06
1.70564e-06
2.74016e-06
4.54639e-06
3.47733e-05
3.53941e-05
3.6085e-05
3.6809e-05
3.75592e-05
3.83453e-05
3.91396e-05
3.99293e-05
4.07119e-05
4.14752e-05
4.22121e-05
4.29198e-05
4.35938e-05
4.42296e-05
4.4823e-05
4.53677e-05
4.58562e-05
4.62792e-05
4.66277e-05
4.68888e-05
4.70578e-05
4.71171e-05
4.70411e-05
4.68315e-05
4.64807e-05
4.5962e-05
4.52562e-05
4.43608e-05
4.3282e-05
4.20323e-05
4.063e-05
3.90975e-05
3.74524e-05
3.5713e-05
3.38717e-05
3.19148e-05
2.97978e-05
2.71959e-05
2.44554e-05
3.41745e-05
3.35929e-05
3.29979e-05
3.23742e-05
3.17426e-05
3.1107e-05
3.04857e-05
2.9901e-05
2.93545e-05
2.88417e-05
2.83618e-05
2.79088e-05
2.74738e-05
2.70476e-05
2.66212e-05
2.61834e-05
2.5723e-05
2.52278e-05
2.4683e-05
2.40732e-05
2.33803e-05
2.25834e-05
2.16615e-05
2.06079e-05
1.94341e-05
1.81598e-05
1.67975e-05
1.5354e-05
1.38377e-05
1.22594e-05
1.06302e-05
8.9609e-06
7.26395e-06
5.54537e-06
3.8075e-06
2.1001e-06
1.01356e-06
2.24615e-06
3.99388e-06
3.10896e-05
3.16483e-05
3.227e-05
3.29234e-05
3.36014e-05
3.43128e-05
3.50333e-05
3.57512e-05
3.64642e-05
3.71619e-05
3.78379e-05
3.84898e-05
3.91142e-05
3.97073e-05
4.02659e-05
4.07855e-05
4.12594e-05
4.16804e-05
4.20401e-05
4.23268e-05
4.25359e-05
4.26542e-05
4.26587e-05
4.25463e-05
4.23123e-05
4.19337e-05
4.13933e-05
4.0685e-05
3.981e-05