/*--------------------------------*- C++ -*----------------------------------*\
| =========                 |                                                 |
| \\      /  F ield         | OpenFOAM: The Open Source CFD Toolbox           |
|  \\    /   O peration     | Version:  2206                                  |
|   \\  /    A nd           | Website:  www.openfoam.com                      |
|    \\/     M anipulation  |                                                 |
\*---------------------------------------------------------------------------*/
FoamFile
{
    version     2.0;
    format      ascii;
    arch        "LSB;label=32;scalar=64";
    class       volScalarField;
    location    "450";
    object      p;
}
// * * * * * * * * * * * * * * * * * * * * * * * * * * * * * * * * * * * * * //

dimensions      [0 2 -2 0 0 0 0];

internalField   nonuniform List<scalar> 
10720
(
-62.2766
-133.563
-217.412
-300.049
-376.41
-454.198
-523.213
-581.157
-631.494
-670.88
-700.869
-722.954
-738.264
-747.524
-750.912
-747.778
-739.03
-723.617
-702.966
-677.137
-649.491
-623.081
-600.477
-573.519
-533.281
-482.202
-429.826
-384.23
-344.987
-308.071
-271.579
-235.418
-199.632
-163.85
-127.669
-90.0575
-51.5565
-6.92099
26.0036
9.09084
74.1323
143.47
208.205
263.523
305.439
330.179
338.464
336.064
323.159
302.13
278.586
255.041
232.257
210.877
190.764
171.975
154.079
136.804
119.661
102.596
85.3013
67.868
50.7084
35.6903
23.8544
14.14
6.25874
0.395649
-3.48395
-5.62836
-6.18579
-5.23894
-2.79406
1.15752
6.96941
15.2157
29.1393
52.8292
43.2082
-10.9464
-71.6187
-136.058
-202.277
-270.052
-335.831
-397.536
-454.483
-504.914
-548.621
-585.609
-615.786
-639.148
-655.513
-664.579
-667.097
-662.952
-653.195
-638.373
-621.134
-603.837
-587.567
-565.162
-528.41
-479.36
-428.215
-383.159
-344.104
-307.267
-270.803
-234.68
-198.966
-163.279
-127.204
-89.6896
-51.2676
-6.61663
25.694
91.9386
138.39
184.723
229.416
268.801
300.267
320.676
329.369
327.941
317.252
300.069
279.871
258.609
237.222
216.418
196.444
177.431
159.196
141.542
124.141
106.892
89.5898
72.3169
55.4981
40.606
28.5677
18.7003
10.5896
4.19958
-0.369695
-3.13104
-4.179
-3.61709
-1.4781
2.23668
7.87166
15.9852
29.8302
52.5892
56.9869
8.33022
-46.4561
-106.946
-169.663
-233.945
-298.227
-359.85
-417.23
-469.368
-515.014
-553.612
-584.857
-608.94
-626.094
-636.737
-640.899
-638.641
-630.61
-617.531
-601.263
-583.839
-566.417
-544.537
-511.359
-467.258
-420.36
-377.831
-340.186
-304.374
-268.758
-233.281
-197.987
-162.552
-126.646
-89.2642
-50.9474
-6.36708
25.8161
100.894
143.551
185.978
226.146
260.846
288.458
306.875
315.793
315.951
308.014
294.061
276.444
256.946
236.734
216.619
197.036
178.184
160.03
142.429
125.14
108.028
90.9529
73.978
57.4857
42.6384
30.3399
20.2189
11.9205
5.43063
0.836823
-1.92439
-3.01089
-2.5406
-0.527794
3.05824
8.57972
16.605
30.3156
52.1929
79.5945
38.8061
-7.79008
-59.0327
-112.832
-169.117
-226.226
-282.397
-336.306
-386.797
-432.749
-473.433
-508.383
-537.449
-560.508
-577.682
-588.52
-592.98
-591.374
-584.318
-573.097
-559.26
-543.642
-523.38
-493.542
-454.078
-411.204
-371.126
-334.898
-300.201
-265.575
-230.924
-196.304
-161.408
-125.894
-88.7839
-50.6484
-6.26779
26.022
116.129
151.216
186.409
220.361
250.08
274.3
291.207
300.32
301.883
296.361
285.347
270.587
253.541
235.309
216.68
198.137
179.955
162.218
144.872
127.77
110.812
93.9231
77.1755
60.9279
46.1396
33.6605
23.3232
14.8043
8.06016
3.1525
0.0252051
-1.42617
-1.27753
0.476375
3.87033
9.25595
17.1825
30.7199
51.7485
85.72
49.404
7.72194
-38.4504
-87.0594
-138.516
-191.447
-244.241
-295.887
-345.229
-391.118
-432.747
-469.436
-500.686
-526.197
-545.66
-558.823
-565.693
-566.506
-561.884
-552.846
-540.678
-526.027
-506.852
-479.343
-443.146
-403.152
-364.861
-329.683
-295.864
-262.079
-228.186
-194.224
-159.896
-124.872
-88.1846
-50.3573
-6.30984
26.0858
118.33
149.48
180.809
211.03
237.501
259.35
275.182
284.417
287.082
283.599
275.12
262.959
248.258
231.978
214.87
197.443
180.031
162.814
145.826
129.008
112.304
95.6859
79.2366
63.2883
48.633
36.0439
25.513
16.783
9.81538
4.67796
1.34411
-0.271772
-0.251637
1.39421
4.69378
9.99253
17.827
31.1552
51.2954
89.5118
57.3596
20.2627
-20.7984
-64.0389
-110.159
-157.878
-205.914
-253.53
-299.667
-343.357
-383.831
-420.353
-452.324
-479.318
-500.96
-517.128
-527.628
-532.465
-532.003
-526.917
-518.101
-505.958
-489.017
-464.367
-431.584
-394.625
-358.369
-324.447
-291.58
-258.612
-225.424
-192.082
-158.307
-123.771
-87.5325
-50.0955
-6.52321
25.9713
118.385
145.862
173.697
200.747
224.57
244.522
259.472
268.741
272.236
270.374
263.999
254.126
241.648
227.365
211.951
195.887
179.524
163.091
146.691
130.336
114.02
97.7572
81.6485
66.0093
51.5149
38.8681
28.1814
19.2749
12.1149
6.76569
3.21322
1.37407
1.17122
2.60134
5.70644
10.8369
18.5161
31.5753
50.8027
89.4312
60.4136
26.8451
-10.3444
-49.4305
-91.3469
-134.957
-179.14
-223.402
-266.804
-308.507
-347.825
-384.01
-416.413
-444.515
-467.866
-486.057
-498.824
-506.015
-507.911
-505.054
-498.15
-487.518
-472.151
-449.869
-420.171
-386.116
-351.902
-319.272
-287.375
-255.235
-222.736
-189.966
-156.7
-122.653
-86.9026
-49.9263
-6.94528
25.6523
115.516
140.261
165.456
190.043
211.779
230.21
244.408
253.629
257.737
257.144
252.491
244.574
234.096
221.701
207.968
193.32
178.099
162.559
146.852
131.047
115.19
99.3342
83.6019
68.2945
53.9979
41.3508
30.5495
21.4896
14.1482
8.58888
4.81219
2.75317
2.3467
3.59824
6.55433
11.5589
19.1126
31.8982
50.2356
87.7512
61.4117
30.8778
-2.9195
-38.3447
-76.4563
-116.208
-156.623
-197.379
-237.677
-276.79
-314.148
-349.061
-380.89
-409.079
-433.117
-452.54
-467.111
-476.627
-481.151
-480.985
-476.558
-468.031
-454.673
-434.888
-408.211
-377.018
-344.91
-313.679
-282.849
-251.628
-219.905
-187.776
-155.051
-121.496
-86.2552
-49.8312
-7.56
25.0772
111.465
133.911
156.893
179.43
199.432
216.602
230.124
239.226
243.784
244.171
240.906
234.634
225.911
215.255
203.144
189.937
175.942
161.417
146.534
131.404
116.113
100.75
85.4545
70.5178
56.4645
43.8775
33.0106
23.8313
16.3349
10.5873
6.60492
4.33877
3.73184
4.7934
7.57616
12.4193
19.8028
32.2471
49.6665
84.8554
60.7371
32.7455
1.78513
-30.5647
-65.4268
-101.855
-138.969
-176.589
-214.018
-250.651
-286.027
-319.523
-350.542
-378.536
-402.967
-423.342
-439.292
-450.532
-456.958
-458.733
-456.154
-449.31
-437.682
-420.104
-396.154
-367.643
-337.609
-307.817
-278.097
-247.829
-216.918
-185.471
-153.332
-120.296
-85.5735
-49.7477
-8.27286
24.2268
106.601
127.153
148.298
169.117
187.655
203.756
216.661
225.598
230.47
231.611
229.46
224.553
217.345
208.248
197.652
185.848
173.101
159.649
145.668
131.295
116.644
101.833
87.0188
72.485
58.7113
46.2345
35.3452
26.076
18.445
12.5231
8.34132
5.86777
5.05744
5.92751
8.53757
13.2199
20.4293
32.5142
49.0377
81.3075
59.0959
33.2988
4.80093
-24.8801
-56.8921
-90.3553
-124.475
-159.173
-193.838
-227.975
-261.214
-293.004
-322.825
-350.151
-374.441
-395.189
-411.986
-424.528
-432.603
-436.213
-435.49
-430.421
-420.607
-405.199
-383.841
-357.916
-329.962
-301.667
-273.106
-243.829
-213.768
-183.038
-151.518
-119.039
-84.8613
-49.6475
-9.0258
23.1508
101.369
120.305
139.881
159.228
176.509
191.676
204.015
212.753
217.831
219.549
218.288
214.506
208.587
200.865
191.655
181.184
169.672
157.323
144.303
130.758
116.821
102.628
88.348
74.2594
60.8094
48.4977
37.6375
28.3164
20.5799
14.5061
10.1407
7.47065
6.46244
7.13967
9.5693
14.0748
21.0839
32.7622
48.3786
77.3744
56.8086
32.9129
6.55059
-20.8102
-50.3304
-81.1833
-112.646
-144.699
-176.813
-208.586
-239.733
-269.771
-298.248
-324.688
-348.578
-369.41
-386.751
-400.238
-409.583
-414.647
-415.457
-411.944
-403.793
-390.382
-371.414
-347.929
-322.017
-295.25
-267.887
-239.637
-210.46
-180.48
-149.613
-117.724
-84.1273
-49.5261
-9.82752
21.915
95.981
113.528
131.747
149.818
166.003
180.341
192.149
200.671
205.871
208.026
207.471
204.614
199.786
193.261
185.297
176.067
165.743
154.492
142.463
129.794
116.625
103.103
89.4027
75.7966
62.71
50.6124
39.8285
30.492
22.6767
16.4712
11.9358
9.07586
7.8722
8.35572
10.6015
14.9223
21.7169
32.9621
47.684
73.2594
54.1363
31.9117
7.42773
-17.8963
-45.2147
-73.7451
-102.821
-132.472
-162.231
-191.766
-220.867
-249.118
-276.139
-301.501
-324.726
-345.332
-362.873
-376.959
-387.274
-393.553
-395.73
-393.677
-387.12
-375.598
-358.862
-337.686
-313.779
-288.565
-262.44
-235.253
-206.995
-177.802
-147.621
-116.356
-83.38
-49.402
-10.6943
20.5458
90.5952
106.93
123.96
140.903
156.125
169.714
181.02
189.316
194.572
197.053
197.061
194.961
191.049
185.558
178.7
170.606
161.403
151.224
140.19
128.425
116.066
103.261
90.1833
77.099
64.4165
52.5817
41.9233
32.6114
24.749
18.4365
13.7492
10.7113
9.3185
9.60873
11.6654
15.7889
22.3479
33.1264
46.9589
69.0922
51.2421
30.4982
7.67805
-15.8444
-41.2077
-67.6684
-94.6023
-122.081
-149.687
-177.14
-204.294
-230.794
-256.32
-280.501
-302.906
-323.079
-340.583
-355.001
-366.007
-373.244
-376.563
-375.798
-370.702
-360.92
-346.242
-327.236
-305.274
-281.625
-256.77
-230.678
-203.373
-175.001
-145.542
-114.935
-82.6188
-49.2965
-11.6271
19.0488
85.301
100.571
116.542
132.482
146.845
159.753
170.585
178.646
183.91
186.63
187.082
185.601
182.456
177.853
171.968
164.898
156.738
147.585
137.53
126.679
115.155
103.099
90.6796
78.1535
65.9135
54.3861
43.9001
34.6531
26.7751
20.3809
15.5604
12.3562
10.7805
10.8784
12.7421
16.6587
22.9648
33.2508
46.2057
64.9589
48.2429
28.8228
7.48918
-14.4265
-38.0424
-62.6495
-87.6558
-113.167
-138.803
-164.328
-189.642
-214.447
-238.476
-261.419
-282.887
-302.457
-319.713
-334.23
-345.677
-353.65
-357.923
-358.297
-354.539
-346.364
-333.586
-316.61
-296.527
-274.443
-250.881
-225.911
-199.591
-172.075
-143.372
-113.459
-81.8406
-49.2167
-12.6229
17.4387
80.1612
94.4804
109.509
124.543
138.134
150.414
160.796
168.62
173.852
176.744
177.546
176.57
174.066
170.22
165.184
159.031
151.827
143.64
134.534
124.588
113.908
102.625
90.8924
78.9565
67.1946
56.0173
45.7492
36.6081
28.7482
22.2999
17.3673
14.0114
12.2611
12.1691
13.8364
17.5351
23.5699
33.3392
45.4285
60.9153
45.2194
26.9904
6.99462
-13.4802
-35.5267
-58.4628
-81.7321
-105.457
-129.29
-153.034
-176.626
-199.815
-222.386
-244.07
-264.53
-283.38
-300.231
-314.665
-326.345
-334.853
-339.894
-341.247
-338.687
-331.975
-320.938
-305.852
-287.569
-267.034
-244.782
-220.956
-195.649
-169.022
-141.112
-111.927
-81.0437
-49.1581
-13.6789
15.7281
75.213
88.6774
102.852
117.067
129.955
141.654
151.61
159.194
164.368
167.375
168.452
167.886
165.918
162.718
158.419
153.08
146.744
139.454
131.25
122.186
112.349
101.849
90.8248
79.5053
68.2529
57.4644
47.4573
38.4624
30.6552
24.1812
19.159
15.6671
13.7516
13.4731
14.9412
18.4126
24.1592
33.3919
44.6309
56.9984
42.2275
25.0771
6.29318
-12.882
-33.5085
-54.9325
-76.6284
-98.7283
-120.913
-143.017
-165.007
-186.667
-207.825
-228.259
-247.674
-265.723
-282.048
-296.25
-307.983
-316.848
-322.491
-324.672
-323.173
-317.782
-308.333
-294.997
-278.43
-259.418
-238.481
-215.818
-191.55
-165.843
-138.759
-110.339
-80.2278
-49.1175
-14.7886
13.9231
70.4772
83.1682
96.566
110.033
122.275
133.435
142.987
150.33
155.424
158.504
159.794
159.562
158.041
155.388
151.727
147.105
141.55
135.086
127.73
119.515
110.504
100.786
90.4825
79.8002
69.0856
58.7205
49.0142
40.205
32.4854
26.0154
20.9276
17.3173
15.2477
14.7874
16.0543
19.2892
24.7315
33.4113
43.817
53.2332
39.304
23.1363
5.45724
-12.5391
-31.8745
-51.9263
-72.1904
-92.8089
-113.487
-134.082
-154.58
-174.802
-194.611
-213.823
-232.182
-249.381
-265.095
-278.946
-290.589
-299.654
-305.747
-308.611
-308.035
-303.822
-295.811
-284.089
-269.143
-251.618
-231.994
-210.505
-187.297
-162.538
-136.314
-108.694
-79.3927
-49.0925
-15.9439
12.0302
65.9644
77.952
90.6382
103.418
115.064
125.718
134.887
141.991
146.988
150.108
151.56
151.599
150.449
148.262
145.152
141.16
136.303
130.591
124.024
116.615
108.404
99.4586
89.8775
79.8458
69.6909
59.7795
50.4104
41.8246
34.2272
27.7916
22.6634
18.9535
16.7422
16.1062
17.1709
20.1612
25.2847
33.3995
42.9908
49.6337
36.4747
21.21
4.53969
-12.3785
-30.5382
-49.336
-68.295
-87.5591
-106.856
-126.059
-145.177
-164.053
-182.582
-200.612
-217.923
-234.248
-249.289
-262.698
-274.136
-283.265
-289.672
-293.086
-293.299
-290.128
-283.411
-273.167
-259.745
-243.657
-225.334
-205.026
-182.894
-159.11
-133.778
-106.992
-78.5367
-49.0824
-17.1358
10.0604
61.6784
73.0213
85.0523
97.1973
108.291
118.471
127.274
134.141
139.03
142.163
143.737
143.995
143.155
141.363
138.728
135.286
131.049
126.017
120.177
113.525
106.08
97.8879
89.0243
79.6497
70.0707
60.6382
51.6386
43.3114
35.8701
29.4993
24.3567
20.5677
18.2282
17.424
18.2866
21.0253
25.817
33.359
42.1571
46.2068
33.7575
19.323
3.58294
-12.349
-29.429
-47.079
-64.8413
-82.866
-100.894
-118.816
-136.654
-154.275
-171.595
-188.492
-204.778
-220.22
-234.551
-247.452
-258.599
-267.675
-274.277
-278.119
-278.992
-276.73
-271.168
-262.27
-250.269
-235.562
-218.52
-199.392
-178.348
-155.562
-131.15
-105.233
-77.6588
-49.0852
-18.3556
8.02571
57.6188
68.3674
79.7921
91.3489
101.925
111.66
120.114
126.749
131.52
134.644
136.309
136.744
136.162
134.705
132.478
129.517
125.829
121.408
116.233
110.284
103.564
96.0985
87.9386
79.2212
70.2295
61.2957
52.6931
44.6567
37.4039
31.1283
25.9978
22.151
19.6983
18.7348
19.3963
21.878
26.3269
33.2923
41.3204
42.9561
31.1634
17.4965
2.61493
-12.4078
-28.4953
-45.0885
-61.7532
-78.6381
-95.499
-112.238
-128.89
-145.339
-161.522
-177.341
-192.635
-207.202
-220.805
-233.152
-243.94
-252.869
-259.564
-263.72
-265.136
-263.656
-259.116
-251.435
-240.754
-227.364
-211.572
-193.616
-173.667
-151.897
-128.433
-103.416
-76.7571
-49.0982
-19.5946
5.93915
53.7814
63.9802
74.8419
85.8507
95.9419
105.255
113.376
119.784
124.432
127.532
129.261
129.837
129.47
128.299
126.423
123.88
120.676
116.802
112.23
106.93
100.89
94.1175
86.6416
78.5743
70.1738
61.7529
53.5704
45.8532
38.8195
32.6685
27.5768
23.6942
21.1444
20.0318
20.4947
22.7155
26.813
33.2022
40.4852
39.881
28.6979
15.7444
1.65897
-12.5242
-27.6942
-43.3133
-58.9662
-74.8007
-90.5852
-106.234
-121.787
-137.146
-152.262
-167.059
-181.4
-195.11
-207.977
-219.741
-230.12
-238.827
-245.525
-249.897
-251.747
-250.932
-247.288
-240.701
-231.235
-219.09
-204.512
-187.714
-168.861
-148.122
-125.63
-101.542
-75.8293
-49.1169
-20.8433
3.81505
50.1616
59.8485
70.1849
80.6809
90.3169
99.2309
107.034
113.22
117.741
120.803
122.575
123.266
123.078
122.147
120.574
118.395
115.618
112.23
108.202
103.496
98.0895
91.9722
85.1548
77.7238
69.9124
62.0132
54.2686
46.8954
40.1086
34.1105
29.084
25.1883
22.5585
21.308
21.5764
23.534
27.2739
33.0915
39.656
36.9794
26.3644
14.0749
0.73082
-12.6732
-26.9933
-41.7105
-56.4286
-71.291
-86.0819
-100.722
-115.258
-129.603
-143.721
-157.554
-170.984
-183.861
-195.999
-207.163
-217.097
-225.524
-232.15
-236.652
-238.837
-238.577
-235.712
-230.102
-221.748
-210.774
-197.365
-181.702
-163.941
-144.242
-122.743
-99.6115
-74.8735
-49.1368
-22.0916
1.66829
46.7513
55.9606
65.805
75.8198
85.0268
93.5636
101.063
107.031
111.423
114.438
116.236
117.017
116.978
116.253
114.94
113.078
110.675
107.72
104.18
100.015
95.1927
89.6898
83.4997
76.686
69.4568
62.0825
54.7885
47.7794
41.2645
35.4456
30.5099
26.6238
23.932
22.556
22.6354
24.3296
27.7083
32.9627
38.8374
34.2474
24.1628
12.4945
-0.157382
-12.8381
-26.3667
-40.2471
-54.0984
-68.0621
-81.9314
-95.6371
-109.229
-122.63
-135.816
-148.742
-161.306
-173.382
-184.805
-195.365
-204.829
-212.936
-219.426
-223.982
-226.417
-226.612
-224.415
-219.669
-212.327
-202.446
-190.154
-175.6
-158.921
-140.267
-119.775
-97.625
-73.887
-49.1526
-23.3304
-0.48701
43.5423
52.3058
61.6882
71.2491
80.0516
88.2302
95.4373
101.195
105.456
108.417
110.228
111.079
111.165
110.616
109.527
107.939
105.865
103.292
100.19
96.5145
92.2279
87.297
81.7
75.4801
68.8202
61.9685
55.1326
48.5032
42.2814
36.6661
31.8457
27.9917
25.2563
23.7682
23.6657
25.0983
28.1152
32.8184
38.0334
31.6798
22.0922
11.0061
-0.997724
-13.003
-25.7945
-38.8957
-51.942
-65.0706
-78.0869
-90.926
-103.641
-116.164
-128.478
-140.551
-152.297
-163.606
-174.334
-184.293
-193.273
-201.03
-207.334
-211.88
-214.489
-215.048
-213.419
-209.434
-203.005
-194.138
-182.908
-169.428
-153.815
-136.205
-116.734
-95.5837
-72.8677
-49.1577
-24.5488
-2.63534
40.5268
48.8712
57.8192
66.9526
75.372
83.2093
90.1365
95.6892
99.8216
102.722
104.534
105.44
105.63
105.23
104.334
102.987
101.2
98.9659
96.253
93.019
89.2212
84.819
79.7789
74.1251
68.0171
61.6804
55.3049
49.0666
43.1556
37.7651
33.083
29.2831
26.5227
24.9367
24.6611
25.8363
28.4935
32.661
37.2481
29.2701
20.1503
9.61104
-1.78481
-13.1577
-25.2606
-37.6343
-49.9305
-62.283
-74.5062
-86.5402
-98.4402
-110.145
-121.647
-132.92
-143.893
-154.471
-164.528
-173.897
-182.387
-189.776
-195.853
-200.337
-203.053
-203.898
-202.744
-199.422
-193.814
-185.88
-175.652
-163.207
-148.639
-132.068
-113.623
-93.4894
-71.8122
-49.1459
-25.7365
-4.76175
37.696
45.6465
54.1843
62.9127
70.9689
78.4813
85.1405
90.4952
94.4992
97.3348
99.1404
100.089
100.364
100.092
99.3639
98.225
96.6908
94.7546
92.388
89.5501
86.1958
82.2792
77.7579
72.6403
67.0628
61.2296
55.3121
49.4711
43.8844
38.7375
34.2143
30.4894
27.7228
26.0539
25.6155
26.5394
28.8422
32.4928
36.4848
27.0126
18.3335
8.30911
-2.51521
-13.295
-24.7528
-36.4464
-48.0425
-59.6714
-71.1558
-82.4414
-93.5825
-104.526
-115.269
-125.793
-136.038
-145.922
-155.336
-164.13
-172.132
-179.14
-184.962
-189.342
-192.108
-193.168
-192.408
-189.658
-184.78
-177.702
-168.414
-156.96
-143.41
-127.866
-110.45
-91.3426
-70.7188
-49.1094
-26.883
-6.851
35.0415
42.6202
50.7701
59.1143
66.8259
74.0287
80.4302
85.5937
89.4712
92.2399
94.0317
95.0115
95.359
95.1959
94.6123
93.655
92.3418
90.6684
88.6096
86.126
83.1724
79.6994
75.6584
71.0442
65.9733
60.6279
55.1616
49.7198
44.467
39.5787
35.2333
31.6029
28.8486
27.1121
26.5224
27.2036
29.1603
32.3154
35.7467
24.901
16.6372
7.09933
-3.18673
-13.4091
-24.2612
-35.3176
-46.2589
-57.212
-68.007
-78.5954
-89.0302
-99.2641
-109.299
-119.122
-128.682
-137.91
-146.709
-154.946
-162.47
-169.091
-174.636
-178.878
-181.646
-182.86
-182.421
-180.162
-175.932
-169.631
-161.219
-150.709
-138.147
-123.613
-107.222
-89.1477
-69.5841
-49.0415
-27.9792
-8.88785
32.5543
39.7817
47.5642
55.5442
62.9275
69.8354
75.9895
80.9675
84.721
87.4212
89.1939
90.1965
90.6034
90.5337
90.0759
89.2772
88.1578
86.7161
84.9297
82.762
80.1687
77.0994
73.5005
69.3568
64.7654
59.8885
54.8625
49.8177
44.9042
40.2863
36.1343
32.6165
29.8923
28.1039
27.3759
27.825
29.4468
32.1303
35.036
22.9283
15.0577
5.97892
-3.79825
-13.4963
-23.7786
-34.2365
-44.5652
-54.8857
-65.0373
-74.975
-84.7518
-94.3235
-103.697
-112.865
-121.781
-130.39
-138.604
-146.307
-153.361
-159.598
-164.852
-168.929
-171.66
-172.977
-172.795
-170.953
-167.292
-161.695
-154.095
-144.478
-132.866
-119.322
-103.946
-86.9055
-68.4064
-48.9355
-29.0144
-10.8585
30.2259
37.1209
44.5552
52.1885
59.2591
65.8858
71.8022
76.6009
80.233
82.864
84.6136
85.6319
86.0885
86.0989
85.7501
85.0899
84.1403
82.9025
81.3572
79.4705
77.2003
74.4966
71.3029
67.5955
63.455
59.0247
54.4249
49.7708
45.1981
40.8586
36.9134
33.5241
30.8467
29.0224
28.1702
28.3999
29.7006
31.9387
34.3547
21.0879
13.5896
4.94567
-4.35034
-13.5539
-23.2999
-33.1947
-42.9482
-52.6763
-62.2263
-71.5555
-80.7179
-89.6727
-98.4285
-106.982
-115.297
-123.321
-130.981
-138.173
-144.772
-150.627
-155.585
-159.476
-162.141
-163.517
-163.535
-162.044
-158.881
-153.917
-147.067
-138.29
-127.589
-115.007
-100.633
-84.6202
-67.1832
-48.7822
-29.98
-12.7496
28.0484
34.6279
41.7315
49.0345
55.8071
62.1648
67.8535
72.4788
75.9924
78.5541
80.2775
81.3058
81.8036
81.8831
81.6286
81.0896
80.2891
79.2307
77.8983
76.2614
74.2804
71.9063
69.0817
65.777
62.0579
58.0503
53.8596
49.5866
45.3525
41.2961
37.5675
34.3207
31.7057
29.861
28.8995
28.9244
29.9206
31.7412
33.7036
19.3734
12.228
3.99653
-4.84409
-13.5806
-22.8201
-32.1849
-41.3975
-50.5697
-59.5558
-68.3166
-76.9047
-85.2831
-93.4625
-101.443
-109.192
-116.668
-123.804
-130.508
-136.669
-142.151
-146.811
-150.503
-153.075
-154.475
-154.645
-153.447
-150.717
-146.32
-140.156
-132.166
-122.334
-110.684
-97.2898
-82.2956
-65.9127
-48.5765
-30.8662
-14.5486
26.0136
32.2932
39.0825
46.0711
52.5591
58.6595
64.1295
68.5874
71.9858
74.4782
76.1731
77.2069
77.7383
77.8775
77.7055
77.2725
76.603
75.7023
74.5578
73.1425
71.4193
69.3414
66.8519
63.9169
60.5892
56.979
53.178
49.2732
45.3721
41.6
38.0953
35.0022
32.4639
30.6139
29.5589
29.3952
30.1056
31.538
33.0832
17.7781
10.968
3.12785
-5.28082
-13.5756
-22.3368
-31.2017
-39.9054
-48.5554
-57.0131
-65.2414
-73.2924
-81.1323
-88.7727
-96.2167
-103.437
-110.397
-117.039
-123.28
-129.021
-134.14
-138.505
-141.989
-144.451
-145.845
-146.127
-145.169
-142.815
-138.923
-133.384
-126.128
-117.118
-106.366
-93.9282
-79.9354
-64.5942
-48.3112
-31.6658
-16.2448
24.1138
30.1086
36.5983
43.287
49.503
55.3571
60.6168
64.9139
68.2002
70.6242
72.2886
73.3238
73.8833
74.0735
73.9736
73.6335
73.079
72.3172
71.3385
70.1193
68.6257
66.8132
64.6266
62.0292
59.0632
55.8244
52.3916
48.8399
45.2631
41.7733
38.4964
35.5661
33.1169
31.276
30.1437
29.8089
30.2543
31.3289
32.4932
16.2959
9.80424
2.33617
-5.66261
-13.5393
-21.8481
-30.241
-38.4656
-46.6245
-54.5857
-62.3154
-69.8634
-77.1996
-84.336
-91.2787
-98.0041
-104.481
-110.657
-116.46
-121.801
-126.569
-130.645
-133.916
-136.252
-137.618
-137.977
-137.217
-135.185
-131.741
-126.772
-120.195
-111.962
-102.068
-90.5574
-77.5446
-63.2271
-47.9809
-32.3713
-17.8285
22.3416
28.0655
34.2695
40.6714
46.6277
52.2459
57.3037
61.4457
64.6231
66.9796
68.6126
69.6464
70.2287
70.4628
70.4256
70.1672
69.7136
69.0742
68.2418
67.1958
65.906
64.3307
62.4172
60.127
57.4932
54.5991
51.5122
48.2961
45.0324
41.8198
38.772
36.0109
33.6616
31.8433
30.6499
30.1626
30.3653
31.1132
31.9323
14.9204
8.73183
1.61773
-5.99167
-13.472
-21.3524
-29.2992
-37.0715
-44.7681
-52.2628
-59.5249
-66.6021
-73.4669
-80.1328
-86.6064
-92.8684
-98.8912
-104.63
-110.02
-114.98
-119.413
-123.206
-126.263
-128.467
-129.785
-130.195
-129.593
-127.836
-124.789
-120.335
-114.385
-106.881
-97.8052
-87.1879
-75.1285
-61.8108
-47.5808
-32.9762
-19.2906
20.6899
26.1556
32.0871
38.2151
43.9228
49.315
54.179
58.1709
61.2433
63.5336
65.1343
66.1637
66.7644
67.0366
67.0543
66.8674
66.5027
65.9706
65.2672
64.3744
63.2652
61.9014
60.2329
58.221
55.8912
53.3153
50.551
47.6518
44.6876
41.7449
38.9244
36.3366
34.0959
32.3127
31.0742
30.4536
30.4373
30.8899
31.3989
13.6456
7.74578
0.968687
-6.27044
-13.3746
-20.8493
-28.3738
-35.7194
-42.98
-50.0361
-56.859
-63.4948
-69.9184
-76.144
-82.1795
-88.0081
-93.6063
-98.935
-103.935
-108.535
-112.647
-116.168
-119.013
-121.078
-122.336
-122.773
-122.297
-120.776
-118.078
-114.089
-108.716
-101.893
-93.5911
-83.8299
-72.6926
-60.3472
-47.1066
-33.4753
-20.6244
19.1518
24.3713
30.0426
35.9087
41.3784
46.554
51.2315
55.0792
58.0495
60.2747
61.8427
62.8657
63.4811
63.786
63.8518
63.7277
63.441
63.0038
62.4136
61.656
60.7067
59.5309
58.0816
56.321
54.2681
51.9845
49.5192
46.917
44.2371
41.5543
38.9571
36.5443
34.419
32.6821
31.4141
30.6799
30.4689
30.6575
30.8906
12.4659
6.84117
0.385226
-6.50162
-13.2487
-20.3385
-27.4635
-34.4058
-41.2554
-47.8985
-54.3087
-60.5308
-66.5414
-72.3549
-77.9804
-83.4038
-88.6046
-93.5484
-98.1824
-102.443
-106.249
-109.509
-112.147
-114.071
-115.26
-115.706
-115.329
-114.008
-111.617
-108.046
-103.201
-97.0108
-89.439
-80.4938
-70.2431
-58.8372
-46.5566
-33.8651
-21.8242
17.7208
22.7054
28.128
33.7435
38.9852
43.953
48.4513
52.16
55.0315
57.193
58.7281
59.7428
60.3699
60.703
60.8108
60.7417
60.5237
60.1698
59.6793
59.0407
58.2325
57.2236
55.9702
54.4354
52.6335
50.617
48.4273
46.1015
43.6895
41.2549
38.875
36.6365
34.6315
32.9508
31.6678
30.8397
30.4586
30.4144
30.4045
11.3756
6.01334
-0.136519
-6.68789
-13.0956
-19.8201
-26.5665
-33.1274
-39.5895
-45.8435
-51.8659
-57.6995
-63.3229
-68.7512
-73.9936
-79.0381
-83.8672
-88.4506
-92.7412
-96.6814
-100.198
-103.21
-105.647
-107.43
-108.543
-108.984
-108.685
-107.533
-105.412
-102.216
-97.8523
-92.2487
-85.3614
-77.1894
-67.7864
-57.2834
-45.9293
-34.1424
-22.886
16.3907
21.1509
26.3357
31.7113
36.7347
41.5029
45.8287
49.4033
52.1794
54.2788
55.7809
56.7859
57.4219
57.7788
57.9233
57.9026
57.7451
57.4641
57.0614
56.5275
55.8438
54.9824
53.9033
52.5712
50.9959
49.2223
47.2853
45.2152
43.0535
40.8542
38.6833
36.6166
34.7349
33.1189
31.8345
30.9318
30.4053
30.1584
29.9373
10.3694
5.25765
-0.600304
-6.83216
-12.9172
-19.2949
-25.6824
-31.8827
-37.9784
-43.8659
-49.5234
-54.9925
-60.253
-65.3204
-70.2045
-74.8952
-79.3771
-83.6234
-87.5922
-91.232
-94.4765
-97.2517
-99.4961
-101.141
-102.175
-102.6
-102.36
-101.351
-99.4666
-96.606
-92.6808
-87.6177
-81.3693
-73.9263
-65.3287
-55.689
-45.224
-34.3059
-23.8073
15.1555
19.7012
24.6585
29.8043
34.6183
39.1949
43.355
46.8003
49.4839
51.5226
52.9917
53.9859
54.6283
55.0057
55.182
55.2038
55.0991
54.8825
54.5567
54.1147
53.5405
52.8096
51.8852
50.7342
49.3626
47.8089
46.1024
44.2674
42.3382
40.3598
38.3885
36.4892
34.732
33.1876
31.9145
30.9556
30.3077
29.8876
29.4853
9.44226
4.56969
-1.00978
-6.93698
-12.7152
-18.7634
-24.8106
-30.6695
-36.4189
-41.961
-47.2753
-52.402
-57.3224
-62.052
-66.6012
-70.961
-75.1187
-79.0503
-82.7181
-86.0759
-89.0646
-91.6166
-93.6773
-95.1883
-96.1405
-96.5438
-96.3474
-95.4597
-93.782
-91.2217
-87.6942
-83.1278
-77.4729
-70.7132
-62.8772
-54.0583
-44.4423
-34.3555
-24.5869
14.0093
18.3502
23.0894
28.0151
32.6283
37.021
41.0213
44.3421
46.9362
48.9157
50.3517
51.334
51.9808
52.3754
52.5794
52.6384
52.5801
52.4197
52.1614
51.7999
51.3222
50.706
49.9185
48.9288
47.74
46.3846
44.887
43.267
41.5522
39.7801
37.9976
36.2598
34.6267
33.1593
31.9085
30.911
30.1649
29.5996
29.0446
8.5892
3.94495
-1.36848
-7.00523
-12.4916
-18.2264
-23.9508
-29.4864
-34.9088
-40.125
-45.1164
-49.9212
-54.5228
-58.9365
-63.1724
-67.2233
-71.0782
-74.716
-78.1029
-81.1971
-83.9456
-86.2878
-88.1745
-89.5565
-90.4284
-90.8038
-90.6397
-89.8545
-88.3582
-86.0659
-82.8983
-78.787
-73.6809
-67.5587
-60.4384
-52.3955
-43.5865
-34.2925
-25.2257
12.9468
17.0917
21.6222
26.3367
30.7574
34.9732
38.8199
42.0203
44.5279
46.4497
47.8528
48.8223
49.4714
49.8804
50.1083
50.1996
50.1821
50.0708
49.8715
49.5806
49.1872
48.672
48.0056
47.159
46.1334
44.956
43.6471
42.2224
40.7043
39.1232
37.518
35.9346
34.4238
33.0372
31.8186
30.7986
29.9764
29.2924
28.6113
7.80552
3.37952
-1.68
-7.03968
-12.2482
-17.6852
-23.103
-28.3324
-33.4457
-38.3545
-43.0415
-47.5442
-51.8468
-55.9645
-59.9078
-63.6703
-67.243
-70.6068
-73.7315
-76.5799
-79.1039
-81.2495
-82.9724
-84.2317
-85.025
-85.3691
-85.2284
-84.53
-83.193
-81.1399
-78.2977
-74.6013
-70.0006
-64.4703
-58.0191
-50.7061
-42.6601
-34.1196
-25.7253
11.9628
15.9203
20.2508
24.7628
28.9986
33.0445
36.7432
39.8274
42.2512
44.1164
45.4869
46.4428
47.0924
47.5132
47.7617
47.8812
47.899
47.8307
47.6828
47.4536
47.134
46.7073
46.1475
45.4276
44.5471
43.5289
42.3897
41.1417
39.8028
38.3974
36.9574
35.5205
34.1289
32.8255
31.6474
30.6196
29.7416
28.9638
28.1815
7.08676
2.86932
-1.94762
-7.04302
-11.987
-17.1407
-22.2675
-27.207
-32.0277
-36.6464
-41.0473
-45.2659
-49.288
-53.1287
-56.7984
-60.2917
-63.6012
-66.7098
-69.5906
-72.2099
-74.5248
-76.4866
-78.0562
-79.1994
-79.9172
-80.2286
-80.1043
-79.4795
-78.2825
-76.4428
-73.8939
-70.5752
-66.438
-61.4546
-55.6257
-48.9956
-41.6677
-33.8406
-26.0887
11.0524
14.8304
18.9694
23.2871
27.3453
31.2277
34.7838
37.7559
40.0984
41.9086
43.2466
44.188
44.8366
45.2669
45.5328
45.6765
45.7251
45.6942
45.5912
45.4156
45.1603
44.8111
44.3447
43.7368
42.9851
42.1085
41.121
40.0321
38.8556
37.6109
36.3238
35.0247
33.7481
32.5291
31.3984
30.3757
29.4608
28.612
27.7513
6.4286
2.41061
-2.17459
-7.01782
-11.7098
-16.5942
-21.4446
-26.1093
-30.6536
-34.9984
-39.1297
-43.0813
-46.8405
-50.4218
-53.8358
-57.0782
-60.1423
-63.0134
-65.6675
-68.0738
-70.1942
-71.9848
-73.4117
-74.4462
-75.0921
-75.3705
-75.2573
-74.6955
-73.6214
-71.9721
-69.6874
-66.7114
-62.9979
-58.5174
-53.2645
-47.2703
-40.6149
-33.4605
-26.3207
10.2109
13.817
17.7724
21.9037
25.7912
29.5164
32.9351
35.7989
38.0624
39.8188
41.1245
42.0507
42.697
43.1345
43.415
43.5796
43.6548
43.6563
43.5921
43.463
43.2637
42.9819
42.5974
42.0879
41.45
40.6992
39.8469
38.9003
37.8703
36.7718
35.6252
34.4548
33.2882
32.1536
31.0756
30.0695
29.1343
28.2353
27.3171
5.82706
1.99967
-2.36393
-6.96665
-11.4185
-16.0467
-20.6348
-25.0391
-29.3217
-33.4081
-37.2853
-40.9862
-44.4986
-47.8373
-51.0126
-54.0209
-56.8568
-59.5072
-61.9503
-64.1592
-66.0989
-67.731
-69.0251
-69.9585
-70.5368
-70.7825
-70.6769
-70.1693
-69.2036
-67.7241
-65.677
-63.0114
-59.6835
-55.6637
-50.9414
-45.536
-39.5076
-32.9853
-26.4267
9.4338
12.8754
16.6546
20.6069
24.3306
27.9045
31.1906
33.9495
36.1365
37.8402
39.1138
40.0242
40.6667
41.1095
41.4022
41.5845
41.6825
41.7118
41.6812
41.5925
41.4416
41.2183
40.9052
40.482
39.9443
39.3046
38.5723
37.7528
36.854
35.8877
34.8695
33.8186
32.7563
31.7049
30.6836
29.7037
28.7631
27.8326
26.8757
5.27821
1.63316
-2.51875
-6.89184
-11.115
-15.4995
-19.8384
-23.9958
-28.031
-31.8735
-35.5115
-38.9766
-42.2579
-45.3695
-48.3217
-51.1117
-53.7353
-56.1806
-58.4284
-60.454
-62.2267
-63.7121
-64.8837
-65.7234
-66.2387
-66.4533
-66.3521
-65.8916
-65.0219
-63.6941
-61.8604
-59.475
-56.4971
-52.8976
-48.6618
-43.7994
-38.3527
-32.4219
-26.4132
8.71691
12.0008
15.6111
19.3916
22.9577
26.3858
29.544
32.2017
34.3143
35.9664
37.2081
38.102
38.7395
39.1857
39.4881
39.6854
39.8028
39.856
39.8543
39.8001
39.691
39.5186
39.2676
38.9197
38.4699
37.9281
37.3018
36.595
35.8135
34.9661
34.0646
33.1237
32.1598
31.1896
30.2278
29.2817
28.3486
27.403
26.4242
4.77839
1.30776
-2.64184
-6.79573
-10.8011
-14.9536
-19.0559
-22.9793
-26.7805
-30.3927
-33.8055
-37.049
-40.1135
-43.0127
-45.7569
-48.3436
-50.7698
-53.0247
-55.0912
-56.9476
-58.5661
-59.9161
-60.9748
-61.7282
-62.1853
-62.3705
-62.2724
-61.8528
-61.0682
-59.8758
-58.2338
-56.1008
-53.4398
-50.2221
-46.4305
-42.0665
-37.1575
-31.7778
-26.2875
8.05622
11.1891
14.6373
18.2527
21.6674
24.9552
27.9899
30.5494
32.5898
34.1914
35.4012
36.2781
36.9092