/*--------------------------------*- C++ -*----------------------------------*\
| =========                 |                                                 |
| \\      /  F ield         | OpenFOAM: The Open Source CFD Toolbox           |
|  \\    /   O peration     | Version:  2206                                  |
|   \\  /    A nd           | Website:  www.openfoam.com                      |
|    \\/     M anipulation  |                                                 |
\*---------------------------------------------------------------------------*/
FoamFile
{
    version     2.0;
    format      ascii;
    arch        "LSB;label=32;scalar=64";
    class       volScalarField;
    location    "450";
    object      turbulenceProperties:I;
}
// * * * * * * * * * * * * * * * * * * * * * * * * * * * * * * * * * * * * * //

dimensions      [0 0 0 0 0 0 0];

internalField   nonuniform List<scalar> 
10720
(
0.00417416
0.00414921
0.00416936
0.00429778
0.0044611
0.00469043
0.00500339
0.00538905
0.00586656
0.00645472
0.00717316
0.00806411
0.00918812
0.0106284
0.0125285
0.0150859
0.0186931
0.0238216
0.0320092
0.0443811
0.0693739
0.111449
0.228024
0.420906
0.507823
0.466933
0.408337
0.366406
0.339385
0.322252
0.31117
0.303449
0.298979
0.296871
0.296934
0.299225
0.307509
0.318101
0.401414
0.00422556
0.0043826
0.0045635
0.00498546
0.00568733
0.00704487
0.0101849
0.0170031
0.013481
0.0087422
0.00732141
0.00706285
0.0073137
0.00787058
0.00865659
0.00966578
0.0109378
0.0125664
0.0146964
0.0175308
0.021403
0.0267188
0.034406
0.0453584
0.0627105
0.088441
0.130981
0.186829
0.221538
0.234699
0.23864
0.240294
0.241518
0.242567
0.243552
0.244663
0.246102
0.249517
0.255933
0.00181803
0.00166489
0.00152729
0.00139741
0.00127677
0.00116854
0.00106937
0.000977946
0.000896853
0.000824206
0.000759314
0.000711283
0.000692093
0.000711362
0.00079572
0.000979831
0.00132919
0.00190061
0.00294631
0.00464774
0.00816867
0.0141482
0.0265276
0.0521019
0.0805229
0.108786
0.136921
0.161279
0.175634
0.177662
0.171223
0.161863
0.153529
0.147629
0.144808
0.145245
0.154559
0.167088
0.320382
0.00198376
0.00219116
0.00247007
0.0028681
0.00346347
0.0043978
0.00583363
0.0071565
0.00638395
0.00446761
0.0031363
0.00234222
0.00183755
0.00148994
0.00123536
0.00104034
0.000884557
0.000756305
0.000645139
0.000542905
0.00043867
0.000325449
0.000185339
7.26329e-05
0.00011308
0.00129855
0.00295737
0.00830059
0.0151197
0.0210815
0.0257811
0.0293932
0.0322556
0.0347429
0.0371134
0.0396027
0.0424672
0.0476504
0.0611854
0.00157882
0.00145486
0.00133338
0.00121912
0.00112084
0.00103368
0.000958232
0.000895783
0.000844885
0.000805012
0.00077413
0.000752506
0.000739215
0.000734118
0.000730183
0.000714843
0.000658677
0.000640949
0.000216469
0.00148411
6.78451e-07
0.000688855
0.000101781
0.0023299
0.00789635
0.0153851
0.0255592
0.0402712
0.0602325
0.0834579
0.105732
0.122357
0.131141
0.13423
0.135524
0.137358
0.144902
0.152881
0.257514
0.00172245
0.00189317
0.00212898
0.0024435
0.00286721
0.00342282
0.0040558
0.00446455
0.00424683
0.00349845
0.00272198
0.00212257
0.00168591
0.00136379
0.00112244
0.0009379
0.000796152
0.000687096
0.000604311
0.000541306
0.000494058
0.000459234
0.000434768
0.000416872
0.000406312
0.000396893
0.000402786
0.00030669
0.000797239
0.00202964
0.00340324
0.00491184
0.00734788
0.0106612
0.0142963
0.0179033
0.0214185
0.0239684
0.0337476
0.00149034
0.0013868
0.00128708
0.00119638
0.00111327
0.00103596
0.000965533
0.000900589
0.00084098
0.000786002
0.000735047
0.000687288
0.000641877
0.000598316
0.000555844
0.000512188
0.000468393
0.000431207
0.000371136
0.000285353
0.000102843
0.000227331
6.37826e-05
0.00123285
0.00280255
0.000338519
0.00122675
0.00152126
0.00415167
0.0127339
0.027665
0.0484337
0.0716632
0.0923712
0.107724
0.118667
0.130888
0.142672
0.216754
0.00160011
0.00172814
0.00189097
0.00210534
0.00237237
0.00268423
0.00299088
0.00316901
0.00308219
0.00273175
0.0022909
0.00189353
0.00157481
0.00132674
0.00113409
0.000982733
0.000862989
0.000767319
0.00069043
0.000627382
0.000575234
0.000530988
0.000491939
0.000454113
0.000417905
0.000387944
0.000364826
0.00034767
0.000328742
0.000305551
0.000263503
0.000208602
0.000577993
0.00076145
0.00145881
0.00340482
0.006262
0.010155
0.0207099
0.00131461
0.0012294
0.00114556
0.00106632
0.000993194
0.000924208
0.000860469
0.000802013
0.000748385
0.000700074
0.000656908
0.000618874
0.000586191
0.000558871
0.000536884
0.000519389
0.000503005
0.000484774
0.000467854
0.000441472
0.000397143
0.000277763
9.65925e-05
4.39518e-05
0
8.04789e-05
0.000619964
0.00155409
0.00353032
0.00257312
0.00383121
0.00520952
0.0134677
0.0342846
0.0593149
0.0834049
0.105609
0.125444
0.183959
0.00140572
0.00150916
0.00163746
0.0017953
0.00197622
0.00216722
0.00233681
0.00242972
0.00238877
0.00220553
0.00194531
0.00167728
0.00143624
0.00123099
0.00105995
0.000918154
0.000800784
0.000703742
0.000623711
0.000557501
0.000502694
0.000456838
0.00041754
0.000381148
0.000345827
0.00031354
0.000287147
0.000267936
0.000258182
0.000246278
0.000270897
0.000131289
0.000334959
0.000725791
0.0011426
0.00161732
0.000990564
0.00178349
0.00900232
0.00119682
0.00112923
0.0010615
0.000997579
0.000938218
0.000881796
0.000829332
0.000780561
0.000735072
0.00069283
0.000653433
0.000616638
0.000582301
0.000550185
0.000520099
0.000490991
0.000461028
0.000430988
0.000402909
0.000377302
0.000359549
0.000334798
0.000305717
0.000159565
6.75082e-05
4.63494e-05
2.2574e-05
0
0
0.00101388
0.00196537
0.00455284
0.00196084
0.00738014
0.0112895
0.0366821
0.0678583
0.0992731
0.15277
0.00126679
0.00134423
0.00143799
0.00155024
0.00167237
0.00179421
0.00189739
0.00195253
0.00193041
0.00182472
0.00166315
0.00148159
0.00130499
0.00114525
0.00100615
0.000887388
0.000787037
0.000702784
0.000632272
0.000573102
0.000523114
0.000480103
0.000441876
0.000405651
0.000370119
0.000337002
0.000307843
0.00028286
0.000261388
0.000243097
0.000227104
0.000212265
0.000188813
0.000151568
4.01395e-06
2.16976e-05
0.000407357
0.000855845
0.00301972
0.00107725
0.00102236
0.00096646
0.000912783
0.000862546
0.000814035
0.000768244
0.000725225
0.000684565
0.000646395
0.000610574
0.000576987
0.000545714
0.000516799
0.00049023
0.000466248
0.000445444
0.000427048
0.000409361
0.000391497
0.00037467
0.000361281
0.00035256
0.000324976
0.000269514
0.000196306
8.81088e-05
5.1467e-05
3.93647e-05
1.21617e-05
0
0
0.000730278
0.00431503
0.00383141
0.00955316
0.0260505
0.0646096
0.119294
0.00113336
0.00119407
0.00126593
0.00134886
0.0014348
0.00151694
0.00158484
0.00162034
0.00160709
0.00154194
0.00143748
0.00131253
0.00118287
0.00105844
0.000944391
0.000842582
0.000753082
0.000675261
0.000608071
0.000550141
0.000500116
0.000456486
0.000417562
0.000381171
0.000345997
0.000313021
0.000283551
0.000257947
0.000235845
0.000217198
0.000202691
0.000192969
0.000187383
0.000181164
0.000174035
0.00011853
3.73213e-05
8.37423e-06
0.000518794
0.000977361
0.000933365
0.000887888
0.000843818
0.000802387
0.000762034
0.000723782
0.000687674
0.000653353
0.000620946
0.000590243
0.000561129
0.000533581
0.00050751
0.000482849
0.000459604
0.000437253
0.000415006
0.000393332
0.00037315
0.000355345
0.00034162
0.000332756
0.000327884
0.000316218
0.000293265
0.000259729
0.000215771
0.000168483
4.83727e-05
4.18888e-05
9.12864e-06
0
0
0.00149849
0.00640139
0.0089234
0.0293853
0.0831442
0.00102152
0.00106852
0.00112331
0.00118507
0.00124698
0.00130454
0.00135163
0.00137584
0.00136745
0.00132513
0.00125489
0.00116713
0.00107157
0.000975474
0.000883652
0.000798742
0.00072184
0.000653341
0.000593006
0.000540135
0.000493783
0.000452811
0.00041585
0.000381219
0.000347911
0.000316633
0.000288358
0.000263263
0.000240841
0.000220654
0.000202611
0.000186481
0.000172027
0.000159068
0.00014978
0.000141072
0.000120353
4.11721e-05
0.000137555
0.00088776
0.000852073
0.000814683
0.000778014
0.000743366
0.000709269
0.000676651
0.000645613
0.000615834
0.00058743
0.000560269
0.000534246
0.000509376
0.000485628
0.000463031
0.000441565
0.00042131
0.000402601
0.000385282
0.000369122
0.000354117
0.00034079
0.000329725
0.000320995
0.000312244
0.000300967
0.000287331
0.000271158
0.000255437
0.000223319
0.000186692
4.08951e-05
3.2529e-05
0
0
0
0.00513329
0.0108814
0.0491435
0.000923122
0.000960164
0.0010028
0.00104972
0.00109556
0.00113744
0.00117135
0.00118856
0.00118306
0.00115439
0.00110567
0.00104282
0.000971822
0.000897651
0.000824097
0.000753652
0.000687812
0.000627408
0.000572726
0.00052363
0.000479668
0.000440111
0.000403971
0.000370064
0.000337636
0.000307102
0.000279292
0.000254469
0.000232317
0.000212532
0.000195133
0.000180437
0.000168806
0.000160577
0.000156182
0.000157976
0.000165464
0.000173013
3.50793e-05
0.000809574
0.000780602
0.000749894
0.00071951
0.000690657
0.000662071
0.000634566
0.000608266
0.000582904
0.00055859
0.000535196
0.000512632
0.000490906
0.000469983
0.000449863
0.000430545
0.000412093
0.000394282
0.000376983
0.000360578
0.000345635
0.000332644
0.000321775
0.000312191
0.000302242
0.000290682
0.000278077
0.000266863
0.000258693
0.000252395
0.000246031
0.000215948
0.000145028
4.4196e-05
0
0
0
0.00652131
0.0242592
0.000837916
0.000867273
0.000900731
0.000936857
0.000971484
0.00100287
0.00102799
0.00104057
0.00103692
0.00101684
0.000982102
0.000936258
0.000882996
0.000825594
0.000766898
0.000708976
0.000653259
0.000600813
0.000552185
0.000507586
0.00046691
0.000429743
0.000395419
0.000363133
0.000332318
0.000303283
0.000276687
0.00025276
0.000231227
0.000211767
0.000194283
0.000178803
0.000165295
0.000154254
0.000146085
0.000145273
0.000145918
0.000192071
0.000128534
0.000740438
0.000716762
0.000691402
0.000666101
0.000641961
0.000617883
0.000594551
0.000572147
0.000550397
0.00052942
0.000509094
0.000489333
0.000470142
0.000451488
0.00043339
0.000415882
0.000398986
0.000382801
0.00036743
0.000352954
0.000339611
0.000327605
0.000317032
0.000307326
0.000297139
0.000285399
0.000272471
0.00026027
0.000250587
0.00024449
0.000241292
0.000241961
0.000233078
0.000183466
4.8851e-05
0
0
0.00152464
0.0121844
0.000763335
0.000786831
0.000813429
0.000841639
0.000868259
0.00089235
0.000911368
0.000920775
0.000918315
0.000903892
0.000878528
0.000844487
0.000804118
0.000759557
0.000712772
0.000665355
0.000618522
0.000573274
0.000530308
0.000490009
0.000452484
0.000417591
0.000384944
0.000354031
0.00032451
0.00029663
0.000270907
0.000247585
0.000226498
0.00020742
0.000190319
0.000175337
0.000162691
0.000152901
0.000146254
0.000146271
0.000147643
0.000178611
0.000206456
0.000679322
0.000659913
0.000638913
0.000617806
0.000597613
0.000577339
0.000557605
0.000538574
0.000520015
0.000502036
0.000484527
0.000467403
0.000450666
0.000434286
0.000418271
0.000402651
0.00038747
0.000372813
0.000358629
0.000345018
0.00033234
0.000320873
0.000310662
0.000301241
0.000291523
0.000280565
0.000268503
0.000256686
0.00024652
0.000238633
0.000232741
0.000230803
0.000233293
0.000235839
0.000197272
4.54579e-05
0
0.000868812
0.00718565
0.000697923
0.000716832
0.000738182
0.000760474
0.00078125
0.000800048
0.000814708
0.000821882
0.000820195
0.00080957
0.000790686
0.000765029
0.000734114
0.000699301
0.000661985
0.000623294
0.000584151
0.000545436
0.000507799
0.00047174
0.000437524
0.000405181
0.000374509
0.000345232
0.00031723
0.000290712
0.000266099
0.000243624
0.000223187
0.000204609
0.000187841
0.00017298
0.000160131
0.000149751
0.000142328
0.000141069
0.000143447
0.000165115
0.000215218
0.000625001
0.000609023
0.000591575
0.00057392
0.000556984
0.000539875
0.000523165
0.000506992
0.000491144
0.000475726
0.000460638
0.000445798
0.000431199
0.000416802
0.00040262
0.000388686
0.000375031
0.000361765
0.000348931
0.00033661
0.00032502
0.000314364
0.000304648
0.000295521
0.000286185
0.000275904
0.000264753
0.000253766
0.000244082
0.000236046
0.000229385
0.000224373
0.000222553
0.000225988
0.000239414
0.000177945
7.0525e-06
0.000492738
0.00413485
0.000640202
0.000655521
0.000672786
0.000690597
0.000707023
0.000721881
0.000733342
0.000738892
0.000737705
0.000729732
0.000715425
0.000695791
0.000671857
0.000644522
0.000614677
0.000583121
0.000550533
0.000517601
0.00048489
0.000452874
0.00042189
0.000392081
0.000363415
0.000335814
0.000309292
0.000284078
0.000260516
0.000238833
0.000218996
0.000200883
0.000184474
0.000169899
0.000157326
0.000147215
0.000140054
0.000138545
0.000141033
0.000158486
0.000205832
0.00057655
0.000563343
0.000548811
0.000534017
0.000519796
0.000505364
0.000491213
0.000477476
0.00046397
0.000450778
0.000437822
0.000425009
0.000412343
0.000399783
0.000387327
0.000375001
0.000362833
0.000350933
0.000339337
0.000328087
0.000317362
0.000307396
0.000298192
0.000289467
0.000280599
0.000270995
0.000260693
0.000250517
0.000241453
0.00023382
0.000227421
0.000222119
0.000218336
0.000217103
0.000222591
0.000253236
8.54769e-06
0.000157957
0.00206243
0.000589008
0.000601496
0.000615539
0.000629898
0.000643034
0.000654883
0.000663923
0.000668294
0.000667427
0.000661325
0.000650303
0.000635093
0.000616386
0.000594759
0.000570831
0.000545101
0.000518025
0.000490132
0.000461873
0.000433657
0.000405811
0.000378556
0.000351972
0.000326135
0.000301168
0.000277305
0.000254862
0.000234052
0.000214889
0.000197301
0.000181285
0.000166969
0.000154495
0.000144294
0.00013686
0.000134819
0.000136812
0.000152534
0.000194771
0.000533143
0.000522188
0.000510063
0.000497635
0.00048568
0.000473504
0.000461513
0.00044985
0.000438349
0.000427079
0.000415973
0.000404948
0.000393988
0.000383057
0.000372141
0.000361269
0.000350473
0.000339826
0.000329408
0.000319254
0.000309458
0.000300247
0.000291623
0.000283358
0.000274983
0.000266029
0.0002565
0.00024705
0.000238525
0.000231283
0.000225214
0.000220276
0.000216398
0.000214938
0.000210492
0.000243266
0.000180388
1.82766e-05
0.000527048
0.000543377
0.000553605
0.000565094
0.000576745
0.000587343
0.000596857
0.000604052
0.00060752
0.000606866
0.000602112
0.000593503
0.000581561
0.000566789
0.000549568
0.00053029
0.000509288
0.000486837
0.000463288
0.000438979
0.000414246
0.000389399
0.000364672
0.000340199
0.000316124
0.000292689
0.000270175
0.000248856
0.000228931
0.000210454
0.000193399
0.000177784
0.000163746
0.000151442
0.000141299
0.000133791
0.000131377
0.000132893
0.000146741
0.000184565
0.000494091
0.000484991
0.000474853
0.000464399
0.000454352
0.000444073
0.000433922
0.000424032
0.000414254
0.000404649
0.000395153
0.000385684
0.000376234
0.000366757
0.00035725
0.000347722
0.000338199
0.000328731
0.000319424
0.000310284
0.000301366
0.000292877
0.000284841
0.000277083
0.000269231
0.000260919
0.000252134
0.000243385
0.000235382
0.000228498
0.000222694
0.000218024
0.000214364
0.000213136
0.00020977
0.000218562
0.000248906
1.20187e-05
0.000137298
0.000502528
0.000510917
0.000520364
0.000529869
0.000538483
0.000546161
0.000551914
0.000554677
0.000554155
0.000550386
0.000543562
0.000534089
0.00052232
0.0005085
0.000492906
0.000475707
0.000457083
0.000437244
0.00041642
0.000394859
0.000372813
0.00035051
0.000328112
0.000305833
0.000283963
0.00026281
0.000242627
0.000223615
0.000205856
0.000189362
0.000174168
0.000160417
0.000148262
0.000138111
0.000130427
0.000127547
0.000128592
0.000140729
0.00017486
0.000458819
0.000451255
0.000442762
0.000433969
0.000425522
0.000416847
0.000408263
0.000399889
0.000391583
0.000383409
0.000375307
0.000367201
0.000359086
0.000350912
0.000342663
0.000334348
0.000325984
0.00031761
0.000309329
0.00030115
0.000293098
0.000285335
0.000277909
0.000270688
0.000263383
0.000255699
0.000247621
0.000239546
0.000232063
0.000225536
0.000219987
0.000215485
0.000212066
0.000210348
0.000210607
0.000204527
0.000260033
1.96913e-05
6.34168e-07
0.000465796
0.000472695
0.000480476
0.000488265
0.000495303
0.000501518
0.000506133
0.000508339
0.000507897
0.000504856
0.000499378
0.000491767
0.000482292
0.00047113
0.000458441
0.000444328
0.00042886
0.00041217
0.00039438
0.000375665
0.000356214
0.00033621
0.000315826
0.000295309
0.000274992
0.000255182
0.000236141
0.000218057
0.000201034
0.000185115
0.000170355
0.000156898
0.000144901
0.000134762
0.000126922
0.000123591
0.000124172
0.000134716
0.000165425
0.000426851
0.000420556
0.000413436
0.000406046
0.000398941
0.000391633
0.00038438
0.000377301
0.000370264
0.000363329
0.000356439
0.00034953
0.000342582
0.000335553
0.000328427
0.000321204
0.000313901
0.000306538
0.000299208
0.000291927
0.000284703
0.000277645
0.00027083
0.000264167
0.000257417
0.00025035
0.00024295
0.000235524
0.000228562
0.000222403
0.000217124
0.000212776
0.000209559
0.000207416
0.000208933
0.00020194
0.000239642
0.000153827
2.28233e-05
0.000432623
0.000438304
0.000444725
0.000451125
0.000456899
0.000461934
0.000465642
0.000467392
0.000466992
0.000464494
0.000460036
0.000453858
0.000446165
0.000437071
0.00042669
0.000415059
0.000402193
0.000388149
0.000372981
0.000356784
0.000339694
0.000321862
0.000303429
0.000284626
0.000265808
0.000247331
0.000229432
0.000212288
0.000196017
0.000180691
0.000166377
0.00015322
0.000141381
0.000131236
0.000123212
0.000119405
0.000119523
0.000128686
0.000156233
0.000397776
0.000392532
0.000386574
0.000380357
0.000374397
0.000368245
0.000362136
0.000356161
0.000350217
0.00034435
0.000338509
0.000332631
0.000326707
0.000320688
0.000314565
0.000308325
0.000301979
0.000295548
0.000289093
0.000282648
0.000276207
0.000269832
0.000263629
0.000257531
0.000251342
0.000244874
0.000238118
0.000231315
0.000224867
0.000219087
0.000214088
0.000209923
0.000206831
0.000204663
0.000205479
0.000202855
0.000216772
0.000218239
7.85683e-05
0.000402547
0.000407226
0.000412528
0.000417801
0.000422536
0.000426621
0.000429594
0.000430974
0.000430588
0.000428501
0.000424825
0.000419751
0.000413444
0.00040598
0.00039743
0.000387806
0.000377076
0.000365247
0.000352326
0.000338352
0.00032339
0.000307544
0.000290934
0.000273793
0.000256468
0.0002393
0.000222526
0.00020632
0.000190809
0.000176084
0.000162224
0.000149371
0.000137691
0.000127535
0.000119316
0.000115028
0.000114683
0.000122638
0.000147286
0.000371245
0.000366881
0.000361898
0.000356679
0.000351687
0.000346525
0.000341386
0.000336364
0.000331358
0.000326411
0.000321479
0.000316506
0.000311479
0.000306357
0.000301118
0.000295757
0.000290274
0.000284686
0.000279027
0.000273354
0.000267652
0.000261941
0.000256333
0.000250794
0.000245159
0.000239275
0.000233133
0.000226927
0.000220983
0.000215586
0.00021087
0.00020691
0.000203897
0.000201899
0.000201663
0.000202409
0.000203702
0.000225843
0.000161187
0.000375185
0.00037903
0.000383411
0.000387763
0.000391632
0.000394943
0.000397322
0.000398386
0.000398
0.000396223
0.000393151
0.00038894
0.000383717
0.000377544
0.000370461
0.000362453
0.000353477
0.000343503
0.000332493
0.000320445
0.000307388
0.000293371
0.000278473
0.000262907
0.000247011
0.00023111
0.000215441
0.000200169
0.000185424
0.000171308
0.000157911
0.000145367
0.000133844
0.000123667
0.000115235
0.000110449
0.000109641
0.000116584
0.000138637
0.000346962
0.000343341
0.00033918
0.000334808
0.000330639
0.000326321
0.000322013
0.000317808
0.000313611
0.000309459
0.000305316
0.000301127
0.000296882
0.000292542
0.000288086
0.000283505
0.000278794
0.000273966
0.000269042
0.000264088
0.000259074
0.000253997
0.000248968
0.000243976
0.000238884
0.000233562
0.000228005
0.000222366
0.000216914
0.000211902
0.000207472
0.000203724
0.000200789
0.000198928
0.000198059
0.000199816
0.000198289
0.000213999
0.000200267
0.000350209
0.000353361
0.000356979
0.000360567
0.00036372
0.00036639
0.000368282
0.000369087
0.000368689
0.000367148
0.000364541
0.000361001
0.000356638
0.000351489
0.000345581
0.000338884
0.000331343
0.000322912
0.000313529
0.000303154
0.000291771
0.000279404
0.000266097
0.000252019
0.000237475
0.000222797
0.000208208
0.00019386
0.00017988
0.000166376
0.000153445
0.00014121
0.000129843
0.000119633
0.00011097
0.000105675
0.0001044
0.000110508
0.000130272
0.000324676
0.000321679
0.000318219
0.000314564
0.000311101
0.000307502
0.000303909
0.000300405
0.000296903
0.000293439
0.000289975
0.000286467
0.000282905
0.000279249
0.000275485
0.000271595
0.000267577
0.000263437
0.000259184
0.000254881
0.000250498
0.000246022
0.000241549
0.000237084
0.00023252
0.00022774
0.000222738
0.000217639
0.000212665
0.000208035
0.000203894
0.000200359
0.000197525
0.000195711
0.000194615
0.00019598
0.000195413
0.000201427
0.000207498
0.000327346
0.000329912
0.000332894
0.000335847
0.000338404
0.000340547
0.000342037
0.00034262
0.000342202
0.000340835
0.000338599
0.000335594
0.000331909
0.000327575
0.000322607
0.000316977
0.000310616
0.000303465
0.000295453
0.000286517
0.000276613
0.000265723
0.000253861
0.000241163
0.000227912
0.000214411
0.000200866
0.000187421
0.000174196
0.000161302
0.000148837
0.000136915
0.000125698
0.000115443
0.000106529
0.000100707
9.89684e-05
0.000104416
0.000122207
0.00030417
0.000301702
0.000298835
0.000295793
0.000292932
0.000289948
0.00028697
0.000284067
0.000281167
0.000278294
0.000275422
0.000272506
0.000269539
0.000266484
0.000263324
0.000260046
0.000256641
0.000253115
0.000249468
0.000245753
0.000241953
0.000238044
0.000234099
0.00023014
0.000226082
0.000221818
0.000217341
0.000212755
0.000208241
0.000203988
0.000200138
0.000196811
0.000194096
0.000192276
0.00019113
0.000191749
0.00019226
0.000192707
0.00020158
0.000306356
0.000308434
0.00031088
0.0003133
0.00031536
0.000317065
0.000318216
0.000318613
0.000318171
0.000316941
0.000314989
0.000312407
0.000309263
0.000305586
0.000301384
0.000296615
0.00029122
0.000285137
0.00027828
0.000270573
0.000261957
0.000252384
0.000241836
0.000230418
0.000218376
0.000205991
0.000193444
0.000180875
0.000168395
0.000156108
0.000144108
0.000132499
0.000121427
0.000111115
0.000101925
9.5549e-05
9.33417e-05
9.83095e-05
0.000114461
0.000285259
0.000283238
0.000280873
0.00027836
0.000276008
0.000273554
0.000271103
0.000268719
0.000266333
0.000263974
0.00026161
0.000259208
0.000256756
0.000254225
0.000251597
0.000248858
0.000245999
0.000243019
0.000239921
0.000236742
0.000233473
0.000230094
0.000226644
0.000223165
0.000219584
0.000215807
0.000211825
0.000207725
0.00020365
0.000199766
0.000196205
0.000193087
0.000190496
0.000188663
0.000187478
0.00018748
0.00018823
0.000186667
0.000192693
0.000287032
0.000288707
0.000290699
0.000292673
0.000294317
0.000295655
0.000296523
0.000296757
0.000296288
0.000295162
0.000293441
0.000291197
0.000288491
0.000285339
0.000281748
0.000277684
0.000273086
0.000267888
0.000262004
0.000255351
0.000247854
0.000239444
0.00023008
0.00021983
0.000208909
0.000197566
0.000185979
0.000174257
0.000162503
0.000150816
0.000139279
0.000127981
0.000117052
0.00010667
9.71778e-05
9.02113e-05
8.75266e-05
9.21787e-05
0.000107022
0.00026778
0.000266136
0.0002642
0.000262141
0.000260225
0.000258225
0.000256227
0.000254288
0.000252349
0.000250429
0.000248507
0.000246549
0.000244545
0.000242471
0.000240306
0.000238041
0.000235663
0.000233171
0.000230564
0.000227865
0.000225083
0.000222186
0.000219195
0.000216164
0.000213036
0.00020972
0.000206204
0.00020256
0.000198904
0.000195376
0.000192101
0.00018919
0.000186723
0.000184889
0.000183633
0.000183214
0.000183614
0.000181556
0.000184291
0.000269203
0.000270539
0.000272149
0.000273746
0.000275041
0.000276069
0.000276702
0.0002768
0.000276303
0.000275258
0.000273717
0.000271741
0.000269383
0.000266661
0.000263573
0.000260083
0.000256139
0.000251677
0.000246612
0.000240852
0.00023432
0.000226931
0.000218625
0.000209442
0.00019956
0.000189195
0.000178513
0.000167601
0.000156554
0.000145453
0.000134374
0.000123387
0.000112597
0.000102137
9.23079e-05
8.46989e-05
8.15145e-05
8.60405e-05
9.99139e-05
0.000251588
0.000250269
0.000248699
0.000247024
0.000245484
0.000243872
0.000242264
0.000240707
0.000239153
0.000237614
0.000236073
0.000234499
0.000232885
0.000231205
0.000229445
0.000227595
0.000225641
0.00022358
0.00022141
0.000219143
0.000216798
0.000214345
0.000211781
0.000209169
0.000206461
0.000203573
0.000200489
0.00019727
0.000194012
0.000190828
0.00018783
0.000185123
0.000182783
0.000180951
0.00017961
0.00017888
0.000178741
0.00017649
0.000176822
0.00025272
0.000253768
0.000255052
0.000256333
0.000257336
0.000258103
0.000258538
0.000258518
0.000257995
0.000257012
0.000255617
0.00025386
0.000251785
0.000249408
0.000246729
0.000243714
0.000240311
0.000236458
0.000232079
0.000227084
0.000221383
0.000214885
0.000207515
0.000199289
0.000190356
0.000180907
0.000171073
0.000160936
0.00015057
0.000140043
0.000129418
0.000118742
0.000108088
9.75422e-05
8.73467e-05
7.90241e-05
7.52982e-05
7.98979e-05
9.3136e-05
0.000236562
0.000235519
0.000234263
0.000232918
0.000231699
0.000230421
0.000229145
0.000227919
0.000226694
0.000225484
0.000224272
0.000223029
0.000221752
0.000220416
0.000219009
0.00021752
0.000215937
0.000214256
0.000212473
0.000210595
0.000208643
0.000206589
0.000204419
0.000202192
0.000199872
0.000197379
0.000194697
0.000191874
0.000188987
0.000186132
0.000183402
0.000180893
0.000178678
0.000176863
0.000175428
0.000174441
0.000173788
0.000171278
0.000169974
0.00023745
0.000238256
0.000239264
0.000240276
0.000241033
0.00024158
0.000241848
0.00024173
0.000241184
0.000240248
0.000238969
0.000237389
0.000235547
0.000233454
0.000231108
0.000228481
0.000225525
0.000222186
0.000218382
0.000214032
0.000209046
0.000203328
0.000196787
0.000189425
0.000181357
0.000172749
0.000163711
0.000154306
0.000144592
0.000134624
0.000124445
0.000114081
0.000103568
9.29325e-05
8.23364e-05
7.32026e-05
6.88618e-05
7.37702e-05
8.67093e-05
0.000222597
0.000221786
0.0002208
0.000219735
0.000218791
0.0002178
0.00021681
0.000215868
0.000214926
0.000214
0.000213069
0.000212114
0.000211125
0.000210087
0.000208985
0.00020781
0.000206552
0.000205204
0.000203765
0.000202233
0.000200633
0.000198936
0.000197124
0.000195247
0.000193282
0.000191154
0.000188842
0.000186386
0.000183846
0.000181299
0.000178828
0.000176514
0.000174415
0.000172627
0.000171106
0.00016989
0.000168793
0.000165972
0.0001635
0.000223275
0.000223878
0.000224654
0.000225438
0.000225988
0.000226352
0.000226478
0.000226276
0.000225709
0.000224812
0.000223626
0.000222191
0.000220537
0.000218679
0.00021661
0.000214305
0.000211721
0.000208806
0.000205488
0.000201686
0.000197312
0.000192269
0.00018646
0.000179869
0.000172586
0.00016475
0.000156451
0.000147737
0.000138648
0.000129224
0.000119488
0.000109439
9.90777e-05
8.83595e-05
7.73347e-05
6.7259e-05
6.21706e-05
6.76818e-05
8.065e-05
0.000209593
0.000208982
0.000208224
0.000207401
0.000206691
0.000205945
0.000205201
0.000204502
0.000203803
0.000203119
0.000202432
0.000201721
0.000200984
0.000200203
0.000199366
0.000198465
0.000197489
0.000196432
0.000195294
0.000194069
0.000192779
0.000191402
0.000189912
0.000188356
0.000186712
0.000184913
0.000182939
0.000180819
0.000178601
0.000176344
0.000174118
0.000171991
0.000170012
0.000168247
0.000166661
0.000165229
0.000163756
0.000160631
0.000157281
0.000210093
0.000210528
0.000211109
0.000211696
0.000212074
0.000212286
0.000212293
0.00021202
0.000211434
0.000210569
0.000209463
0.000208146
0.000206649
0.000204982
0.000203143
0.000201106
0.000198831
0.000196272
0.000193363
0.000190027
0.00018618
0.000181722
0.000176556
0.00017065
0.000164072
0.000156944
0.000149332
0.000141268
0.000132777
0.00012388
0.000114583
0.000104858
9.46647e-05
8.38824e-05
7.24167e-05
6.12355e-05
5.51692e-05
6.16867e-05
7.49905e-05
0.000197468
0.000197027
0.000196463
0.000195847
0.000195338
0.000194799
0.000194268
0.000193776
0.000193287
0.00019281
0.000192332
0.000191833
0.000191311
0.00019075
0.000190141
0.000189473
0.000188743
0.000187942
0.000187066
0.00018611
0.000185095
0.000184
0.000182799
0.000181529
0.000180175
0.000178675
0.000177007
0.000175193
0.000173269
0.000171282
0.000169287
0.000167338
0.000165475
0.000163744
0.000162098
0.000160482
0.000158688
0.000155308
0.000151293
0.000197817
0.000198111
0.000198529
0.000198948
0.000199182
0.000199267
0.000199175
0.000198843
0.000198243
0.000197404
0.000196362
0.000195147
0.000193782
0.000192275
0.000190626
0.000188811
0.000186795
0.000184538
0.000181975
0.000179035
0.000175638
0.000171688
0.000167084
0.000161788
0.00015585
0.000149364
0.000142386
0.000134931
0.00012701
0.000118625
0.000109766
0.000100378
9.03801e-05
7.95754e-05
6.7689e-05
5.52169e-05
4.7757e-05
5.58773e-05
6.97772e-05
0.000186147
0.00018585
0.000185451
0.000185011
0.000184672
0.000184313
0.000183961
0.000183647
0.000183338
0.000183038
0.000182738
0.00018242
0.000182081
0.000181709
0.000181295
0.000180833
0.000180314
0.000179732
0.000179084
0.000178364
0.000177589
0.000176742
0.000175799
0.000174784
0.000173687
0.000172454
0.000171062
0.000169524
0.000167868
0.00016613
0.00016435
0.000162571
0.000160819
0.000159125
0.000157434
0.000155668
0.0001536
0.00015001
0.00014552
0.00018637
0.000186543
0.000186824
0.000187104
0.000187216
0.000187197
0.000187023
0.000186643
0.000186032
0.000185216
0.000184232
0.000183098
0.000181843
0.000180473
0.000178985
0.000177357
0.00017556
0.000173555
0.000171285
0.000168683
0.000165674
0.000162166
0.000158056
0.000153299
0.000147934
0.000142035
0.000135642
0.000128758
0.000121379
0.000113494
0.000105073
9.60445e-05
8.62823e-05
7.55221e-05
6.32893e-05
4.93745e-05
3.97234e-05
5.04274e-05
6.50657e-05
0.000175562
0.000175387
0.000175129
0.000174838
0.000174645
0.000174437
0.000174239
0.000174076
0.000173919
0.00017377
0.000173622
0.000173458
0.000173277
0.000173067
0.00017282
0.000172531
0.000172193
0.0001718
0.00017135
0.000170837
0.000170271
0.000169641
0.000168922
0.000168132
0.000167262
0.000166266
0.000165119
0.00016383
0.000162417
0.000160905
0.000159323
0.000157703
0.000156061
0.000154407
0.000152685
0.000150794
0.00014851
0.000144767
0.000139947
0.000175679
0.000175753
0.000175919
0.000176081
0.000176093
0.000175987
0.000175747
0.000175329
0.00017471
0.000173917
0.00017298
0.000171921
0.000170759
0.000169503
0.00016815
0.000166682
0.000165071
0.000163281
0.00016126
0.000158949
0.000156275
0.000153149
0.000149473
0.000145196
0.000140344
0.000134979
0.000129125
0.000122775
0.000115914
0.000108519
0.000100544
9.18967e-05
8.24247e-05
7.18066e-05
5.93869e-05
4.40702e-05
3.06249e-05
4.5638e-05
6.09268e-05
0.000165655
0.000165582
0.000165442
0.000165279
0.000165208
0.00016513
0.000165062
0.000165028
0.000165