/*--------------------------------*- C++ -*----------------------------------*\
| =========                 |                                                 |
| \\      /  F ield         | OpenFOAM: The Open Source CFD Toolbox           |
|  \\    /   O peration     | Version:  2206                                  |
|   \\  /    A nd           | Website:  www.openfoam.com                      |
|    \\/     M anipulation  |                                                 |
\*---------------------------------------------------------------------------*/
FoamFile
{
    version     2.0;
    format      ascii;
    arch        "LSB;label=32;scalar=64";
    class       volScalarField;
    location    "90";
    object      k;
}
// * * * * * * * * * * * * * * * * * * * * * * * * * * * * * * * * * * * * * //

dimensions      [0 2 -2 0 0 0 0];

internalField   nonuniform List<scalar> 
67442
(
3.32103e-05
5.1959e-05
5.146e-05
5.15233e-05
5.14864e-05
5.01529e-05
5.03874e-05
5.21415e-05
5.07962e-05
5.21808e-05
5.16314e-05
5.24864e-05
5.07894e-05
1.69377e-05
4.73683e-05
1.07781e-05
1.70328e-05
4.67952e-05
3.34982e-05
3.35839e-05
3.30944e-05
4.83529e-05
4.26078e-05
5.86952e-05
1.09244e-05
4.10809e-05
4.84084e-05
5.74696e-05
2.77971e-05
2.76665e-05
1.06775e-05
1.07475e-05
2.78067e-05
2.77134e-05
1.71403e-05
4.77837e-05
4.78083e-05
4.11135e-05
5.68947e-05
4.77014e-05
4.0896e-05
5.65969e-05
2.79558e-05
2.75522e-05
1.07649e-05
4.79334e-05
4.23071e-05
5.78109e-05
1.73173e-05
4.72087e-05
4.2327e-05
4.86498e-05
5.67064e-05
1.72741e-05
4.74044e-05
4.25898e-05
4.77028e-05
5.82704e-05
1.71609e-05
4.80536e-05
2.79135e-05
2.83388e-05
1.08143e-05
4.07043e-05
4.7968e-05
5.77319e-05
1.70155e-05
4.76038e-05
1.69786e-05
4.75454e-05
1.0746e-05
1.06797e-05
1.0033e-05
1.68124e-05
2.64322e-05
2.61894e-05
1.0038e-05
1.33374e-05
4.80406e-05
1.45927e-05
4.2576e-05
1.45337e-05
4.24609e-05
1.33118e-05
1.07378e-05
1.32508e-05
4.6713e-05
4.22604e-05
1.47003e-05
1.00617e-05
1.70238e-05
2.65813e-05
2.62865e-05
1.00767e-05
1.00776e-05
1.70888e-05
2.66729e-05
1.32037e-05
4.69416e-05
4.219e-05
1.46757e-05
4.21753e-05
1.46158e-05
1.32152e-05
1.09176e-05
1.09684e-05
4.54052e-05
5.5787e-05
2.77993e-05
1.6888e-05
5.57922e-05
1.68712e-05
4.5372e-05
4.43184e-05
5.52681e-05
2.74857e-05
1.67147e-05
5.46479e-05
1.65717e-05
4.50761e-05
2.1068e-05
9.65769e-06
9.61924e-06
9.65054e-06
9.59646e-06
2.11061e-05
1.07257e-05
1.07951e-05
1.07743e-05
4.52422e-05
5.51543e-05
2.79091e-05
1.69341e-05
1.69219e-05
5.56951e-05
4.54643e-05
4.47151e-05
5.57049e-05
2.79685e-05
1.6767e-05
1.67676e-05
5.49805e-05
4.49631e-05
2.10215e-05
9.64625e-06
9.63485e-06
9.63987e-06
9.62707e-06
2.10537e-05
1.01468e-05
1.71966e-05
2.64977e-05
2.68317e-05
1.00644e-05
1.34241e-05
4.81081e-05
1.46505e-05
4.31e-05
1.45796e-05
4.32376e-05
1.34271e-05
4.49321e-05
5.55061e-05
2.77742e-05
1.66645e-05
1.67714e-05
5.49285e-05
4.48739e-05
4.46052e-05
5.42675e-05
2.7767e-05
1.69452e-05
5.51415e-05
1.69046e-05
4.50827e-05
2.06903e-05
9.56997e-06
9.59718e-06
9.5486e-06
9.5578e-06
2.08305e-05
1.07889e-05
1.35e-05
4.68027e-05
1.48068e-05
4.30063e-05
1.02624e-05
1.71797e-05
2.69673e-05
2.69824e-05
1.02738e-05
1.02975e-05
1.74052e-05
2.71151e-05
1.34099e-05
4.67459e-05
1.479e-05
4.31307e-05
1.47524e-05
4.31026e-05
1.34865e-05
1.02714e-05
1.72248e-05
2.71305e-05
2.71018e-05
1.02905e-05
1.35556e-05
4.79003e-05
4.34617e-05
1.50288e-05
4.32861e-05
1.49897e-05
1.36572e-05
1.01271e-05
1.71204e-05
2.67999e-05
2.68671e-05
1.01687e-05
1.35059e-05
4.80474e-05
1.49804e-05
4.31207e-05
1.49491e-05
4.31522e-05
1.35268e-05
4.48129e-05
5.54042e-05
2.80544e-05
1.69252e-05
1.69154e-05
5.51829e-05
4.48722e-05
4.5736e-05
5.52797e-05
2.8326e-05
1.70307e-05
5.60677e-05
1.71486e-05
4.56674e-05
2.11224e-05
9.70963e-06
9.7417e-06
9.69364e-06
9.73531e-06
2.10032e-05
1.0828e-05
1.01422e-05
1.70192e-05
2.70035e-05
2.69529e-05
1.01536e-05
1.32877e-05
4.742e-05
4.30787e-05
1.47658e-05
4.3171e-05
1.47554e-05
1.33121e-05
1.00626e-05
1.69848e-05
2.68892e-05
2.6881e-05
1.01138e-05
1.34519e-05
4.7561e-05
4.33915e-05
1.46778e-05
4.30777e-05
1.47104e-05
1.34657e-05
1.07465e-05
1.06104e-05
2.41588e-05
2.52078e-05
1.65297e-05
5.73738e-05
5.80331e-05
5.72883e-05
5.23133e-05
5.81812e-05
5.73429e-05
5.71248e-05
5.69085e-05
5.81398e-05
5.74952e-05
5.2249e-05
5.7746e-05
5.78174e-05
5.68868e-05
5.68838e-05
5.68917e-05
5.81861e-05
5.23601e-05
5.82637e-05
5.79169e-05
5.6427e-05
5.67008e-05
5.8557e-05
5.78122e-05
5.18007e-05
5.72695e-05
5.82472e-05
5.7034e-05
2.43929e-05
2.53872e-05
1.67361e-05
2.50851e-05
2.44177e-05
1.67086e-05
2.51681e-05
2.45805e-05
1.67015e-05
5.53171e-05
5.83481e-05
4.77636e-05
5.61844e-05
5.8285e-05
5.54711e-05
5.6072e-05
5.3749e-05
5.83412e-05
5.83205e-05
5.09479e-05
5.79993e-05
5.16827e-05
5.35228e-05
5.51865e-05
5.80391e-05
4.85123e-05
5.53068e-05
5.81787e-05
5.51483e-05
5.42793e-05
5.17231e-05
5.67442e-05
4.93115e-05
5.67881e-05
4.99357e-05
5.67613e-05
5.19491e-05
5.49537e-05
5.76146e-05
4.72822e-05
5.41101e-05
5.4751e-05
5.78545e-05
5.5061e-05
5.17646e-05
5.75671e-05
5.70762e-05
5.03598e-05
5.70653e-05
5.03063e-05
5.1997e-05
5.4982e-05
5.7314e-05
4.84128e-05
5.5294e-05
5.51408e-05
5.7297e-05
5.47242e-05
5.21298e-05
5.75393e-05
5.70054e-05
5.02858e-05
5.61936e-05
5.03602e-05
5.12763e-05
5.5308e-05
5.78678e-05
4.8033e-05
5.41391e-05
5.52354e-05
5.80495e-05
5.55028e-05
5.30975e-05
5.79577e-05
5.74746e-05
5.10103e-05
5.74615e-05
5.12949e-05
5.30338e-05
5.62827e-05
5.88585e-05
4.82158e-05
5.60617e-05
5.62392e-05
5.83308e-05
5.62048e-05
5.36799e-05
5.77524e-05
5.13211e-05
5.79176e-05
5.10071e-05
5.82016e-05
5.35816e-05
5.55174e-05
5.66499e-05
4.79324e-05
5.4492e-05
5.76487e-05
5.49842e-05
5.5142e-05
5.29996e-05
5.84796e-05
5.16421e-05
5.78606e-05
5.18972e-05
5.78458e-05
5.30055e-05
5.41091e-05
5.69667e-05
4.79291e-05
5.47158e-05
5.75654e-05
5.53382e-05
5.49128e-05
5.22672e-05
5.70501e-05
5.03925e-05
5.76756e-05
4.9999e-05
5.7511e-05
5.15336e-05
3.0555e-06
7.0827e-07
1.27975e-07
4.59385e-08
2.60829e-07
3.05385e-06
7.26104e-07
1.34097e-07
5.08987e-08
2.95022e-07
3.1061e-06
7.19816e-07
1.29911e-07
4.62105e-08
2.61578e-07
3.11803e-06
7.41096e-07
1.36648e-07
5.12349e-08
2.95751e-07
3.04083e-06
7.23383e-07
1.33593e-07
5.08495e-08
2.94992e-07
3.07802e-06
7.31776e-07
1.35025e-07
5.10449e-08
2.95519e-07
3.09404e-06
7.17422e-07
1.29567e-07
4.61139e-08
2.61006e-07
3.08773e-06
7.35573e-07
1.3582e-07
5.1186e-08
2.95922e-07
3.16038e-06
7.32332e-07
1.32034e-07
4.64334e-08
2.61756e-07
3.15263e-06
7.30786e-07
1.31788e-07
4.64312e-08
2.61887e-07
3.1317e-06
7.2603e-07
1.31054e-07
4.6362e-08
2.61815e-07
3.06629e-06
7.28932e-07
1.34579e-07
5.09759e-08
2.95228e-07
3.06831e-06
7.11993e-07
1.28672e-07
4.60357e-08
2.6105e-07
3.06769e-06
7.11409e-07
1.28498e-07
4.59919e-08
2.60922e-07
3.0698e-06
7.29511e-07
1.34638e-07
5.10311e-08
2.95685e-07
3.02618e-06
7.19139e-07
1.32808e-07
5.07533e-08
2.9493e-07
3.08103e-06
7.31569e-07
1.34888e-07
5.09555e-08
2.949e-07
3.0506e-06
7.08539e-07
1.28119e-07
4.60225e-08
2.61363e-07
3.05109e-06
7.26237e-07
1.34158e-07
5.09329e-08
2.95235e-07
2.95001e-06
6.91198e-07
1.26125e-07
4.68429e-08
2.69344e-07
3.08758e-06
7.26754e-07
1.32885e-07
4.8411e-08
2.76581e-07
3.11855e-06
7.39302e-07
1.36137e-07
5.10586e-08
2.94771e-07
3.10686e-06
7.20013e-07
1.29945e-07
4.61833e-08
2.61331e-07
3.11331e-06
7.21167e-07
1.30161e-07
4.62448e-08
2.61641e-07
3.11861e-06
7.42153e-07
1.36858e-07
5.12092e-08
2.95381e-07
3.12745e-06
7.43433e-07
1.37045e-07
5.12807e-08
2.95821e-07
3.15629e-06
7.32011e-07
1.32119e-07
4.67232e-08
2.63928e-07
3.16431e-06
7.33358e-07
1.32276e-07
4.67002e-08
2.6365e-07
3.11758e-06
7.22031e-07
1.30341e-07
4.64891e-08
2.63458e-07
3.11354e-06
7.22192e-07
1.30419e-07
4.65099e-08
2.63557e-07
2.86167e-06
6.77994e-07
1.25301e-07
4.93848e-08
2.89824e-07
2.85135e-06
6.75261e-07
1.24721e-07
4.93044e-08
2.89694e-07
2.86223e-06
6.7818e-07
1.25311e-07
4.93412e-08
2.89474e-07
2.84485e-06
6.74429e-07
1.24638e-07
4.92756e-08
2.89492e-07
3.04197e-06
7.23214e-07
1.33565e-07
5.08843e-08
2.95279e-07
3.07996e-06
7.31945e-07
1.34977e-07
5.09918e-08
2.95151e-07
3.08099e-06
7.32074e-07
1.35027e-07
5.10529e-08
2.956e-07
3.10586e-06
7.20564e-07
1.30139e-07
4.62241e-08
2.61439e-07
3.17117e-06
7.35511e-07
1.3276e-07
4.67976e-08
2.64002e-07
3.17141e-06
7.3548e-07
1.32748e-07
4.67732e-08
2.63805e-07
2.85171e-06
6.76286e-07
1.25069e-07
4.93737e-08
2.89883e-07
2.84673e-06
6.75808e-07
1.25027e-07
4.93369e-08
2.89592e-07
3.08585e-06
7.34383e-07
1.35567e-07
5.11048e-08
2.9546e-07
3.0153e-06
7.06849e-07
1.28807e-07
4.71268e-08
2.6957e-07
3.11715e-06
7.33636e-07
1.3404e-07
4.85326e-08
2.76672e-07
3.17629e-06
7.5365e-07
1.3867e-07
5.13247e-08
2.94958e-07
3.1536e-06
7.32029e-07
1.32044e-07
4.64018e-08
2.61476e-07
3.17141e-06
7.34863e-07
1.32447e-07
4.64782e-08
2.61813e-07
3.1528e-06
7.31216e-07
1.31892e-07
4.64035e-08
2.61562e-07
3.14229e-06
7.46902e-07
1.3763e-07
5.12265e-08
2.94898e-07
3.12879e-06
7.25752e-07
1.31011e-07
4.63126e-08
2.61448e-07
3.1839e-06
7.3829e-07
1.33199e-07
4.6815e-08
2.63767e-07
3.19402e-06
7.39784e-07
1.33364e-07
4.68592e-08
2.64039e-07
2.88611e-06
6.84046e-07
1.26326e-07
4.94901e-08
2.89851e-07
3.06969e-06
7.29644e-07
1.34687e-07
5.10127e-08
2.95451e-07
3.10716e-06
7.37196e-07
1.35879e-07
5.10666e-08
2.94998e-07
3.07054e-06
7.12538e-07
1.2881e-07
4.61079e-08
2.61493e-07
3.09073e-06
7.34322e-07
1.35394e-07
5.10085e-08
2.94941e-07
3.06829e-06
7.11526e-07
1.28527e-07
4.605e-08
2.61357e-07
3.06744e-06
7.29405e-07
1.34621e-07
5.09743e-08
2.95235e-07
3.01794e-06
7.18294e-07
1.32734e-07
5.07749e-08
2.95133e-07
3.10731e-06
7.38227e-07
1.36109e-07
5.10983e-08
2.95058e-07
3.18248e-06
7.55676e-07
1.3907e-07
5.13783e-08
2.95039e-07
2.93289e-06
6.87912e-07
1.25627e-07
4.67291e-08
2.68837e-07
3.03039e-06
7.13959e-07
1.30682e-07
4.80497e-08
2.75434e-07
3.02716e-06
7.14523e-07
1.30927e-07
4.81393e-08
2.75893e-07
2.92368e-06
6.85264e-07
1.25132e-07
4.66126e-08
2.68314e-07
3.07928e-06
7.30011e-07
1.34554e-07
5.08317e-08
2.94178e-07
3.12632e-06
7.25246e-07
1.30974e-07
4.65805e-08
2.63654e-07
3.1339e-06
7.26101e-07
1.31051e-07
4.65879e-08
2.63678e-07
2.84252e-06
6.73854e-07
1.2455e-07
4.93097e-08
2.89798e-07
2.83448e-06
6.72158e-07
1.24306e-07
4.92598e-08
2.89547e-07
3.1141e-06
7.38627e-07
1.36068e-07
5.10968e-08
2.95133e-07
2.94136e-06
6.89089e-07
1.25735e-07
4.67244e-08
2.68706e-07
3.07929e-06
7.24354e-07
1.32424e-07
4.83598e-08
2.76539e-07
3.07543e-06
7.24353e-07
1.32467e-07
4.82786e-08
2.75833e-07
2.94059e-06
6.88815e-07
1.25707e-07
4.67951e-08
2.69298e-07
3.11629e-06
7.39562e-07
1.36304e-07
5.11345e-08
2.9518e-07
3.17986e-06
7.36765e-07
1.32914e-07
4.68097e-08
2.63984e-07
3.18366e-06
7.38097e-07
1.33136e-07
4.67891e-08
2.63661e-07
2.88157e-06
6.82478e-07
1.26038e-07
4.94667e-08
2.89906e-07
2.88411e-06
6.84001e-07
1.26348e-07
4.94527e-08
2.89539e-07
3.15259e-06
7.30275e-07
1.31817e-07
4.66569e-08
2.6358e-07
3.15438e-06
7.30968e-07
1.31924e-07
4.66908e-08
2.63786e-07
2.85563e-06
6.76733e-07
1.25064e-07
4.93189e-08
2.89518e-07
2.85633e-06
6.77246e-07
1.25154e-07
4.93195e-08
2.89459e-07
3.14997e-06
7.29759e-07
1.31667e-07
4.66495e-08
2.63721e-07
3.15657e-06
7.31868e-07
1.32041e-07
4.66632e-08
2.63553e-07
2.85638e-06
6.76675e-07
1.25064e-07
4.93485e-08
2.89729e-07
2.86307e-06
6.79126e-07
1.25515e-07
4.93615e-08
2.89483e-07
2.94535e-06
6.9041e-07
1.25965e-07
4.67705e-08
2.68936e-07
3.03283e-06
7.13511e-07
1.30534e-07
4.80521e-08
2.75559e-07
3.0271e-06
7.13432e-07
1.30657e-07
4.8126e-08
2.75976e-07
2.94022e-06
6.88873e-07
1.25693e-07
4.66953e-08
2.68534e-07
3.09709e-06
7.36296e-07
1.35801e-07
5.09929e-08
2.94435e-07
3.00315e-06
7.04937e-07
1.28567e-07
4.70286e-08
2.6891e-07
3.10425e-06
7.3011e-07
1.33409e-07
4.84656e-08
2.76622e-07
3.10827e-06
7.32102e-07
1.3378e-07
4.84133e-08
2.75913e-07
3.00617e-06
7.03755e-07
1.28239e-07
4.70682e-08
2.69541e-07
3.17886e-06
7.54032e-07
1.3873e-07
5.13749e-08
2.95335e-07
3.18394e-06
7.55548e-07
1.39041e-07
5.14136e-08
2.95369e-07
3.1889e-06
7.57423e-07
1.3936e-07
5.14577e-08
2.95488e-07
3.03577e-06
7.1253e-07
1.29799e-07
4.71395e-08
2.68956e-07
3.15604e-06
7.42195e-07
1.35455e-07
4.86728e-08
2.76804e-07
3.15651e-06
7.4319e-07
1.35674e-07
4.85992e-08
2.76016e-07
3.04143e-06
7.12521e-07
1.29734e-07
4.72159e-08
2.69642e-07
3.00642e-06
7.04129e-07
1.28238e-07
4.69663e-08
2.68799e-07
3.13862e-06
7.37565e-07
1.34629e-07
4.85836e-08
2.76718e-07
3.13751e-06
7.37662e-07
1.34639e-07
4.84875e-08
2.75935e-07
3.00812e-06
7.04885e-07
1.28397e-07
4.70714e-08
2.69522e-07
3.14552e-06
7.46935e-07
1.37649e-07
5.12863e-08
2.95344e-07
2.8846e-06
6.8357e-07
1.26252e-07
4.94851e-08
2.89849e-07
3.10154e-06
7.35806e-07
1.35634e-07
5.09649e-08
2.94361e-07
2.93119e-06
6.87967e-07
1.25637e-07
4.67355e-08
2.68872e-07
3.04893e-06
7.16817e-07
1.31057e-07
4.80954e-08
2.75525e-07
3.04983e-06
7.17704e-07
1.31249e-07
4.81619e-08
2.75923e-07
2.93136e-06
6.87213e-07
1.25447e-07
4.66685e-08
2.68477e-07
3.09463e-06
7.34844e-07
1.35443e-07
5.09338e-08
2.94322e-07
2.94796e-06
6.90176e-07
1.25867e-07
4.67512e-08
2.68869e-07
3.03465e-06
7.13946e-07
1.30619e-07
4.80558e-08
2.7552e-07
3.04004e-06
7.1527e-07
1.30881e-07
4.81333e-08
2.75933e-07
2.94386e-06
6.8915e-07
1.25689e-07
4.66818e-08
2.68452e-07
5.21229e-05
5.23851e-05
5.15651e-05
3.37438e-05
4.68652e-05
4.23344e-05
5.78635e-05
1.72032e-05
4.74471e-05
4.18766e-05
4.87169e-05
5.75667e-05
1.08835e-05
2.82561e-05
1.31868e-05
4.62365e-05
4.20232e-05
1.45961e-05
4.18576e-05
1.46261e-05
1.31351e-05
1.02265e-05
1.72623e-05
2.67291e-05
2.69263e-05
1.02019e-05
1.34823e-05
4.73854e-05
1.4737e-05
4.31491e-05
1.47739e-05
4.2535e-05
1.3476e-05
1.08082e-05
4.49972e-05
5.55636e-05
2.7849e-05
1.66849e-05
5.56111e-05
1.68014e-05
4.45952e-05
4.5475e-05
5.59419e-05
5.56588e-05
4.56888e-05
2.09716e-05
9.62741e-06
9.62139e-06
2.12081e-05
5.69585e-05
5.25324e-05
5.77735e-05
5.69032e-05
5.85447e-05
5.7181e-05
5.69898e-05
2.5259e-05
1.66325e-05
2.52757e-05
2.44977e-05
1.66944e-05
5.29669e-05
5.77309e-05
5.73901e-05
5.05086e-05
5.71542e-05
5.12367e-05
5.27367e-05
5.61214e-05
5.79434e-05
4.84555e-05
5.51056e-05
5.53062e-05
5.83121e-05
5.60182e-05
5.27208e-05
5.78592e-05
5.09312e-05
5.7758e-05
5.16809e-05
5.82114e-05
5.34452e-05
5.41274e-05
5.79757e-05
5.77662e-05
5.45495e-05
5.16719e-05
5.08613e-05
5.1539e-05
3.29052e-05
1.07441e-05
1.072e-05
2.81184e-05
2.80075e-05
1.69493e-05
4.71449e-05
4.78616e-05
4.07234e-05
5.67336e-05
1.69816e-05
4.81433e-05
1.07013e-05
1.07549e-05
4.52981e-05
5.62034e-05
2.76772e-05
1.68519e-05
1.67935e-05
5.53117e-05
4.50813e-05
4.43078e-05
5.57598e-05
2.79999e-05
1.66968e-05
1.66924e-05
5.48055e-05
4.41751e-05
2.09391e-05
9.59195e-06
9.5697e-06
9.60211e-06
9.60937e-06
2.07883e-05
1.00151e-05
1.68637e-05
2.66147e-05
2.65143e-05
1.00178e-05
1.33318e-05
4.71069e-05
1.46445e-05
4.25591e-05
1.45328e-05
4.2867e-05
1.33327e-05
1.00589e-05
1.70354e-05
2.657e-05
2.65972e-05
1.00292e-05
5.68033e-05
5.17472e-05
5.814e-05
5.75765e-05
5.70574e-05
5.74832e-05
5.71205e-05
2.42981e-05
5.48284e-05
5.76595e-05
4.7554e-05
5.44707e-05
5.79307e-05
5.49654e-05
5.49699e-05
5.20359e-05
5.67118e-05
5.71135e-05
5.02319e-05
5.67326e-05
5.03355e-05
5.1939e-05
5.55383e-05
5.7566e-05
4.74489e-05
5.43038e-05
5.66335e-05
5.4348e-05
5.54997e-05
3.14812e-06
7.29883e-07
1.31624e-07
4.63562e-08
2.61452e-07
3.1093e-06
7.3896e-07
1.3627e-07
5.11553e-08
2.9539e-07
3.1651e-06
7.51278e-07
1.38315e-07
5.13589e-08
2.95489e-07
3.14674e-06
7.29273e-07
1.31538e-07
4.64083e-08
2.61926e-07
3.09907e-06
7.37961e-07
1.36211e-07
5.12252e-08
2.95968e-07
2.93587e-06
6.88335e-07
1.25594e-07
4.6798e-08
2.69425e-07
3.06642e-06
7.21289e-07
1.31881e-07
4.82138e-08
2.75781e-07
3.06694e-06
7.21552e-07
1.31948e-07
4.83291e-08
2.76665e-07
2.92898e-06
6.86833e-07
1.25381e-07
4.6689e-08
2.68687e-07
2.99945e-06
7.02723e-07
1.28087e-07
4.70699e-08
2.6967e-07
3.09391e-06
7.27758e-07
1.32998e-07
4.83344e-08
2.75884e-07
3.09675e-06
7.28165e-07
1.33073e-07
4.84488e-08
2.76751e-07
3.00016e-06
7.02689e-07
1.28043e-07
4.69695e-08
2.68903e-07
3.16227e-06
7.50886e-07
1.38269e-07
5.12925e-08
2.94961e-07
3.14943e-06
7.31037e-07
1.3204e-07
4.66949e-08
2.63677e-07
3.15801e-06
7.31765e-07
1.32073e-07
4.67546e-08
2.6418e-07
2.86512e-06
6.79281e-07
1.25541e-07
4.93858e-08
2.89615e-07
2.86428e-06
6.79199e-07
1.25546e-07
4.94488e-08
2.90122e-07
3.04343e-06
7.23039e-07
1.33487e-07
5.08727e-08
2.95263e-07
3.06618e-06
7.29132e-07
1.34589e-07
5.09566e-08
2.95115e-07
3.05645e-06
7.0848e-07
1.28037e-07
4.60087e-08
2.61323e-07
3.10041e-06
7.1936e-07
1.29874e-07
4.61768e-08
2.61305e-07
3.03399e-06
7.21154e-07
1.33206e-07
5.08361e-08
2.95164e-07
3.06679e-06
7.28472e-07
1.34436e-07
5.10083e-08
2.95679e-07
3.06234e-06
7.27715e-07
1.34255e-07
5.08218e-08
2.94297e-07
3.04029e-06
7.04875e-07
1.27415e-07
4.59046e-08
2.60975e-07
3.10313e-06
7.19381e-07
1.29852e-07
4.62257e-08
2.61729e-07
2.84751e-06
6.75139e-07
1.24812e-07
4.92866e-08
2.89442e-07
2.84478e-06
6.74202e-07
1.24627e-07
4.92696e-08
2.89442e-07
3.11687e-06
7.40151e-07
1.36348e-07
5.11414e-08
2.95296e-07
3.1077e-06
7.38042e-07
1.3601e-07
5.10471e-08
2.9476e-07
3.14033e-06
7.27378e-07
1.31256e-07
4.66202e-08
2.63745e-07
3.13538e-06
7.26752e-07
1.31165e-07
4.66084e-08
2.63735e-07
3.14108e-06
7.27719e-07
1.31302e-07
4.65848e-08
2.63498e-07
3.12935e-06
7.25272e-07
1.31e-07
4.66062e-08
2.6385e-07
2.85041e-06
6.74974e-07
1.24725e-07
4.93268e-08
2.89851e-07
2.84472e-06
6.74446e-07
1.24719e-07
4.93053e-08
2.8965e-07
2.92384e-06
6.84965e-07
1.25022e-07
4.66112e-08
2.68413e-07
3.02676e-06
7.12216e-07
1.30355e-07
4.80747e-08
2.75889e-07
3.01629e-06
7.10314e-07
1.30054e-07
4.80029e-08
2.75539e-07
2.92602e-06
6.85638e-07
1.25173e-07
4.66777e-08
2.68826e-07
3.07326e-06
7.29753e-07
1.34572e-07
5.09229e-08
2.94872e-07
5.1306e-05
3.31875e-05
5.24767e-05
5.07657e-05
5.24958e-05
5.24273e-05
5.18919e-05
5.13825e-05
5.09118e-05
5.238e-05
5.06767e-05
5.27169e-05
5.22186e-05
5.26183e-05
5.12256e-05
2.77788e-05
2.75673e-05
5.19995e-05
2.73551e-05
2.75141e-05
4.56388e-05
1.69508e-05
4.73524e-05
1.08395e-05
1.0569e-05
1.66088e-05
4.64024e-05
3.33029e-05
3.37786e-05
3.31395e-05
4.82425e-05
4.28113e-05
5.19682e-05
5.82991e-05
1.08375e-05
4.12781e-05
4.75166e-05
5.67542e-05
2.74713e-05
2.75496e-05
1.07199e-05
1.06849e-05
1.06787e-05
1.06521e-05
5.22703e-05
2.76203e-05
2.77957e-05
2.77526e-05
2.75984e-05
1.06755e-05
1.06668e-05
1.07184e-05
1.0609e-05
1.07394e-05
1.05343e-05
2.80241e-05
2.72452e-05
4.57721e-05
1.7104e-05
1.66969e-05
4.72385e-05
5.67752e-05
4.78082e-05
4.055e-05
4.15922e-05
5.70224e-05
5.65176e-05
4.80494e-05
4.0917e-05
5.09934e-05
4.72244e-05
4.08207e-05
5.74801e-05
2.79388e-05
2.7959e-05
5.14371e-05
2.72557e-05
1.08872e-05
4.68322e-05
4.21873e-05
5.72934e-05
1.70875e-05
4.70552e-05
4.27426e-05
4.81861e-05
5.7102e-05
1.70367e-05
4.72983e-05
4.25486e-05
4.7288e-05
5.75656e-05
1.66606e-05
4.73686e-05
2.78083e-05
2.7807e-05
1.07236e-05
4.10375e-05
4.77384e-05
5.72113e-05
1.68801e-05
4.73628e-05
1.70066e-05
4.74416e-05
1.05949e-05
1.06494e-05
2.08652e-05
9.59049e-06
9.55276e-06
9.6036e-06
9.55981e-06
2.06532e-05
4.53177e-05
5.61633e-05
1.68675e-05
2.7796e-05
1.68518e-05
4.54994e-05
5.62843e-05
4.41726e-05
5.43155e-05
1.65291e-05
2.75201e-05
1.64843e-05
4.40713e-05
5.50146e-05
2.09229e-05
9.62707e-06
9.57931e-06
9.62779e-06
9.57451e-06
2.08124e-05
4.5545e-05
1.67906e-05
2.77288e-05
5.53761e-05
1.68125e-05
4.55118e-05
5.52824e-05
4.39131e-05
1.64197e-05
2.75735e-05
5.47446e-05
1.64712e-05
4.39086e-05
5.46701e-05
1.29971e-05
1.40774e-05
4.16181e-05
4.64074e-05
1.4296e-05
4.20465e-05
1.28419e-05
9.97596e-06
1.69615e-05
2.67576e-05
2.61579e-05
1.01087e-05
9.83199e-06
1.67416e-05
2.56281e-05
1.32348e-05
4.66917e-05
1.45825e-05
4.24107e-05
1.45203e-05
4.22787e-05
1.32611e-05
1.08548e-05
1.07255e-05
9.94659e-06
1.64412e-05
2.60926e-05
2.61017e-05
9.98835e-06
1.32495e-05
4.67005e-05
4.18641e-05
1.44619e-05
4.23178e-05
1.45261e-05
1.32243e-05
1.08326e-05
4.53783e-05
5.53161e-05
1.66898e-05
2.75186e-05
4.53992e-05
5.55388e-05
1.68284e-05
4.47208e-05
5.45572e-05
1.65287e-05
2.76083e-05
4.48153e-05
5.45454e-05
1.65098e-05
2.0911e-05
9.61806e-06
9.57095e-06
2.09339e-05
9.62346e-06
9.54558e-06
1.07312e-05
1.06619e-05
1.06484e-05
1.06732e-05
2.09003e-05
9.5268e-06
9.53087e-06
2.09544e-05
9.58562e-06
9.5282e-06
4.5081e-05
5.56856e-05
1.67283e-05
2.73779e-05
4.52189e-05
1.68081e-05
5.49568e-05
4.45549e-05
5.47036e-05
1.65927e-05
2.74555e-05
4.40308e-05
1.66528e-05
5.52757e-05
2.09975e-05
9.62478e-06
9.59998e-06
2.08204e-05
9.62463e-06
9.5941e-06
4.5323e-05
1.66718e-05
5.54563e-05
2.75972e-05
4.48993e-05
1.67574e-05
5.53495e-05
4.47223e-05
1.66481e-05
5.53784e-05
2.75792e-05
4.45904e-05
1.66168e-05
5.55607e-05
1.06616e-05
1.05886e-05
1.06704e-05
1.0677e-05
1.06879e-05
1.06622e-05
1.05279e-05
4.44295e-05
5.56316e-05
2.79612e-05
1.68601e-05
1.68694e-05
5.54461e-05
4.49913e-05
4.37786e-05
5.48645e-05
2.6943e-05
1.63345e-05
1.6199e-05
5.48723e-05
4.42283e-05
2.7761e-05
5.54961e-05
2.06669e-05
9.59114e-06
9.47827e-06
9.5818e-06
9.45607e-06
2.0803e-05
1.30779e-05
1.41696e-05
4.18111e-05
4.68105e-05
1.43143e-05
4.18941e-05
1.30342e-05
1.01493e-05
1.7171e-05
2.68071e-05
2.66772e-05
1.01262e-05
1.00036e-05
2.59801e-05
1.68979e-05
2.63642e-05
9.92295e-06
1.32155e-05
4.70208e-05
1.45639e-05
4.25735e-05
1.45326e-05
4.17552e-05
1.32911e-05
2.0777e-05
9.61307e-06
9.57982e-06
9.64764e-06
4.42314e-05
5.55065e-05
2.80132e-05
1.66535e-05
1.67149e-05
5.55361e-05
4.49205e-05
4.46326e-05
5.59028e-05
2.80359e-05
1.70012e-05
5.53579e-05
1.69586e-05
4.53716e-05
4.49287e-05
1.64852e-05
2.76199e-05
5.47877e-05
1.67881e-05
5.46105e-05
4.48031e-05
4.53431e-05
2.79063e-05
5.50131e-05
1.68957e-05
2.09781e-05
9.59232e-06
9.68323e-06
9.63376e-06
9.67078e-06
2.10123e-05
1.08827e-05
1.08186e-05
1.02874e-05
1.7119e-05
2.68841e-05
2.67241e-05
1.02428e-05
1.34448e-05
4.70576e-05
1.46951e-05
4.29413e-05
1.45994e-05
4.23457e-05
1.35218e-05
1.33326e-05
4.77565e-05
4.25437e-05
1.47256e-05
1.01699e-05
1.70993e-05
2.67179e-05
2.64724e-05
1.01707e-05
1.01167e-05
1.71055e-05
2.65356e-05
1.33675e-05
4.77471e-05
4.2569e-05
1.47669e-05
4.21279e-05
1.47849e-05
1.33008e-05
1.32199e-05
4.75075e-05
1.47449e-05
4.17684e-05
9.98093e-06
1.66999e-05
2.60909e-05
2.6132e-05
1.00115e-05
9.95443e-06
1.67254e-05
2.61641e-05
1.32216e-05
4.69356e-05
1.47586e-05
4.20667e-05
1.4732e-05
4.20602e-05
1.32953e-05
4.51043e-05
5.51777e-05
2.78528e-05
1.6705e-05
1.67445e-05
5.61421e-05
4.5099e-05
4.55841e-05
5.509e-05
2.78479e-05
1.69449e-05
5.59507e-05
1.69322e-05
4.56051e-05
2.1048e-05
9.69825e-06
9.6879e-06
9.68785e-06
9.67961e-06
2.11521e-05
1.0722e-05
1.00175e-05
1.69169e-05
2.64451e-05
2.62374e-05
1.0009e-05
1.33286e-05
4.74446e-05
4.25929e-05
1.46834e-05
4.21629e-05
1.45549e-05
1.33375e-05
1.01128e-05
1.69026e-05
2.67103e-05
2.64591e-05
1.01107e-05
1.34521e-05
4.73461e-05
4.27342e-05
1.45789e-05
4.31964e-05
1.46775e-05
1.34417e-05
1.05839e-05
1.06047e-05
1.07075e-05
5.69588e-05
5.81442e-05
5.74738e-05
5.11797e-05
5.7211e-05
5.83012e-05
5.77564e-05
2.44226e-05
2.50083e-05
1.66145e-05
5.6888e-05
5.83318e-05
5.76776e-05
5.18064e-05
5.71582e-05
5.82683e-05
5.7398e-05
5.70685e-05
5.16955e-05
5.81027e-05
5.76264e-05
5.61682e-05
5.81527e-05
5.76451e-05
5.59639e-05
5.7186e-05
5.68786e-05
5.20646e-05
5.71177e-05
5.71307e-05
5.62377e-05
5.74157e-05
5.77693e-05
5.72479e-05
5.21845e-05
5.82027e-05
5.77132e-05
5.74671e-05
5.67861e-05
5.74197e-05
5.71524e-05
5.22109e-05
5.79758e-05
5.75752e-05
5.73676e-05
5.68872e-05
5.2001e-05
5.79559e-05
5.78945e-05
5.71144e-05
5.72856e-05
5.78782e-05
2.45809e-05
2.53073e-05
1.64935e-05
2.516e-05
2.45451e-05
1.65354e-05
2.48661e-05
2.44568e-05
1.66253e-05
5.58198e-05
5.83759e-05
4.75571e-05
5.53974e-05
5.85521e-05
5.54921e-05
5.53114e-05
5.52847e-05
4.81294e-05
5.85538e-05
5.51791e-05
5.33973e-05
5.82307e-05
5.81064e-05
5.14073e-05
5.80088e-05
5.21726e-05
5.37513e-05
5.39317e-05
5.70038e-05
4.77359e-05
5.40303e-05
5.67283e-05
5.48631e-05
5.47981e-05
5.19752e-05
5.7012e-05
5.00508e-05
5.59715e-05
5.01348e-05
5.68795e-05
5.12625e-05
5.72322e-05
5.2363e-05
5.79886e-05
5.79642e-05
5.71539e-05
5.7977e-05
5.76823e-05
5.13713e-05
5.61867e-05
5.08389e-05
5.69705e-05
5.66195e-05
5.08657e-05
5.23326e-05
5.45261e-05
5.74933e-05
4.73801e-05
5.47333e-05
5.41846e-05
5.76719e-05
5.46534e-05
5.46923e-05
4.7581e-05
5.43434e-05
5.78051e-05
5.14787e-05
5.72612e-05
5.76317e-05
5.05905e-05
5.7538e-05
5.0679e-05
5.19113e-05
5.21136e-05
5.62458e-05
5.06994e-05
5.65555e-05
5.65046e-05
4.97647e-05
5.23752e-05
5.36464e-05
5.77272e-05
4.82923e-05
5.53051e-05
5.52736e-05
5.79103e-05
5.44659e-05
5.44535e-05
5.40007e-05
4.73268e-05
5.76297e-05
5.46421e-05
5.47454e-05
5.7671e-05
5.20457e-05
5.73255e-05
5.63509e-05
4.96176e-05
5.71877e-05
5.0042e-05
5.17927e-05
5.724e-05
5.22185e-05
5.77365e-05
5.81736e-05
5.80389e-05
5.75486e-05
5.71834e-05
5.41751e-05
5.71535e-05
4.6366e-05
5.44141e-05
5.44765e-05
5.63493e-05
5.44897e-05
5.20725e-05
5.74516e-05
5.65232e-05
5.07217e-05
5.68909e-05
5.08189e-05
5.27441e-05
5.63545e-05
5.81987e-05
4.78277e-05
5.58945e-05
5.53275e-05
5.78552e-05
5.63421e-05
5.3585e-05
5.7989e-05
5.11948e-05
5.80693e-05
5.14154e-05
5.73229e-05
5.27679e-05
5.5468e-05
5.68194e-05
4.68399e-05
5.42358e-05
5.67506e-05
5.45355e-05
5.54046e-05
5.32707e-05
5.76063e-05
5.18385e-05
5.69385e-05
5.17417e-05
5.67513e-05
5.33548e-05
5.49148e-05
5.73449e-05
4.73638e-05
5.44561e-05
5.66407e-05
5.45085e-05
5.50835e-05
5.19021e-05
5.67386e-05
4.99912e-05
5.64436e-05
5.00129e-05
5.73621e-05
5.20904e-05
3.32544e-05
5.11512e-05
5.06941e-05
5.15588e-05
3.34211e-05
5.10113e-05
5.03203e-05
5.17792e-05
3.31154e-05
5.17972e-05
5.10722e-05
5.216e-05
3.29687e-05
5.21486e-05
5.15394e-05
5.18494e-05
3.34528e-05
5.14918e-05
5.13318e-05
5.25793e-05
3.25123e-05
5.11297e-05
5.13341e-05
5.17866e-05
3.28544e-05
5.19349e-05
5.12041e-05
5.1745e-05
3.29818e-05
5.21142e-05
5.0777e-05
5.2424e-05
3.31845e-05
5.12284e-05
5.09776e-05
5.17613e-05
3.33804e-05
5.16449e-05
5.06358e-05
5.06803e-05
3.32824e-05
5.11007e-05
5.14052e-05
5.18703e-05
3.33866e-05
5.17058e-05
5.15135e-05
5.236e-05
3.29334e-05
5.1771e-05
5.11449e-05
5.14569e-05
3.35665e-05
5.19723e-05
5.10631e-05
5.19113e-05
3.27641e-05
5.14421e-05
5.11071e-05
5.2341e-05
3.32262e-05
5.16088e-05
5.06591e-05
5.14374e-05
5.04879e-05
5.14125e-05
5.19216e-05
5.06375e-05
5.19905e-05
5.16436e-05
5.20367e-05
5.25011e-05
5.07009e-05
5.02058e-05
5.16854e-05
5.22794e-05
5.10136e-05
5.13804e-05
5.13857e-05
5.02261e-05
5.15765e-05
5.17941e-05
5.19608e-05
5.15806e-05
5.21171e-05
5.16685e-05
5.24396e-05
5.21299e-05
5.12034e-05
5.22036e-05
5.25859e-05
5.23747e-05
5.08205e-05
5.05868e-05
5.07473e-05
5.25088e-05
5.16592e-05
5.20269e-05
5.05027e-05
5.16428e-05
5.06085e-05
5.06061e-05
5.18364e-05
5.24843e-05
5.19858e-05
5.17346e-05
5.18182e-05
5.25326e-05
5.22083e-05
5.19714e-05
5.19501e-05
5.20985e-05
5.25272e-05
5.02536e-05
5.04647e-05
5.01262e-05
5.13635e-05
5.20399e-05
5.14412e-05
4.9833e-05
5.10981e-05
5.08575e-05
5.10584e-05
5.25145e-05
5.26243e-05
5.20153e-05
5.25042e-05
5.17151e-05
5.13299e-05
5.19181e-05
5.1268e-05
5.2178e-05
5.27031e-05
5.29021e-05
5.08009e-05
5.14785e-05
5.07232e-05
5.19042e-05
5.09335e-05
5.17527e-05
5.02793e-05
5.09303e-05
5.12795e-05
5.16178e-05
5.26725e-05
5.23218e-05
5.16466e-05
5.20445e-05
5.16381e-05
5.167e-05
5.20489e-05
5.22355e-05
5.12794e-05
5.28156e-05
5.29146e-05
5.08445e-05
5.05663e-05
5.05039e-05
5.24888e-05
5.16329e-05
5.21921e-05
5.10982e-05
5.08598e-05
5.12641e-05
5.08487e-05
5.16235e-05
5.18641e-05
5.16963e-05
5.25349e-05
5.1738e-05
5.24646e-05
5.21606e-05
5.19147e-05
5.1844e-05
5.19774e-05
5.23364e-05
5.14005e-05
5.14433e-05
5.11469e-05
5.23296e-05
5.22079e-05
5.17814e-05
5.13346e-05
5.08557e-05
5.12617e-05
5.16244e-05
5.14836e-05
5.14651e-05
5.09072e-05
5.25615e-05
5.06025e-05
5.24709e-05
5.18982e-05
5.21335e-05
5.11385e-05
5.19296e-05
5.28693e-05
5.06435e-05
5.1511e-05
5.05154e-05
5.15702e-05
5.1964e-05
5.22467e-05
5.11678e-05
5.1513e-05
5.00644e-05
5.10613e-05
5.13588e-05
5.19637e-05
5.15503e-05
5.15729e-05
5.07213e-05
5.10816e-05
5.20011e-05
5.14804e-05
5.13128e-05
5.2771e-05
5.1549e-05
4.9883e-05
5.0685e-05
5.09903e-05
5.1711e-05
5.18936e-05
5.20886e-05
5.03726e-05
5.0857e-05
5.09512e-05
5.13073e-05
5.20159e-05
5.197e-05
5.11673e-05
5.18673e-05
5.10473e-05
5.23886e-05
5.21444e-05
5.06617e-05
5.2202e-05
5.22875e-05
5.17747e-05
5.06246e-05
5.02097e-05
5.00225e-05
5.1215e-05
5.2261e-05
5.23512e-05
5.11153e-05
5.09398e-05
5.12603e-05
5.1624e-05
5.2e-05
5.1624e-05
5.20142e-05
5.22195e-05
5.11322e-05
5.22895e-05
5.22853e-05
5.13258e-05
5.20027e-05
5.24513e-05
5.2349e-05
5.06286e-05
5.09926e-05
5.00157e-05
5.10038e-05
5.18085e-05
5.19041e-05
5.13475e-05
5.13293e-05
5.05602e-05
5.13287e-05
5.24898e-05
5.23001e-05
5.15422e-05
5.23407e-05
5.17105e-05
5.22822e-05
5.19624e-05
5.15075e-05
5.16147e-05
5.23212e-05
5.23138e-05
5.07934e-05
5.12165e-05
5.04713e-05
5.17213e-05
5.15408e-05
5.21088e-05
4.98312e-05
5.12649e-05
5.06735e-05
5.16359e-05
5.22818e-05
5.26015e-05
5.16263e-05
5.24508e-05
5.15072e-05
5.20022e-05
5.10923e-05
5.15166e-05
5.04986e-05
5.15925e-05
5.224e-05
4.99823e-05
5.16196e-05
5.09741e-05
5.23644e-05
5.22715e-05
5.17272e-05
5.07974e-05
5.17728e-05
5.01892e-05
5.18122e-05
5.23372e-05
5.23665e-05
5.1255e-05
5.2856e-05
5.13692e-05
5.19647e-05
5.12563e-05
5.20902e-05
5.18445e-05
5.25002e-05
5.25604e-05
5.07217e-05
5.08159e-05
5.11116e-05
5.18017e-05
5.1334e-05
5.2196e-05
5.11275e-05
5.13517e-05
5.05972e-05
5.09155e-05
5.23669e-05
5.22319e-05
5.14363e-05
5.17242e-05
5.15208e-05
5.23177e-05
5.18342e-05
5.20309e-05
5.19059e-05
5.26735e-05
5.20228e-05
5.02472e-05
5.10841e-05
5.02234e-05
5.19152e-05
5.14581e-05
5.20142e-05
5.03077e-05
5.07392e-05
5.13663e-05
5.13515e-05
5.23125e-05
5.14183e-05
5.16584e-05
5.23391e-05
5.05945e-05
5.17811e-05
5.21331e-05
5.24405e-05
5.1924e-05
5.20362e-05
5.21703e-05
5.07933e-05
5.10155e-05
5.07574e-05
5.23313e-05
5.17624e-05
5.17854e-05
5.14116e-05
5.08596e-05
5.08814e-05
5.1219e-05
5.22399e-05
5.22618e-05
5.14134e-05
5.27226e-05
5.08243e-05
5.1945e-05
5.18149e-05
5.19858e-05
5.17441e-05