/*--------------------------------*- C++ -*----------------------------------*\
| =========                 |                                                 |
| \\      /  F ield         | OpenFOAM: The Open Source CFD Toolbox           |
|  \\    /   O peration     | Version:  2206                                  |
|   \\  /    A nd           | Website:  www.openfoam.com                      |
|    \\/     M anipulation  |                                                 |
\*---------------------------------------------------------------------------*/
FoamFile
{
    version     2.0;
    format      ascii;
    arch        "LSB;label=32;scalar=64";
    class       volScalarField;
    location    "90";
    object      nut;
}
// * * * * * * * * * * * * * * * * * * * * * * * * * * * * * * * * * * * * * //

dimensions      [0 2 -1 0 0 0 0];

internalField   nonuniform List<scalar> 
67442
(
1.46389e-06
9.90058e-07
1.00132e-06
9.53295e-07
9.53146e-07
9.72616e-07
9.76366e-07
9.65647e-07
9.67295e-07
9.90921e-07
9.80959e-07
9.71881e-07
9.87642e-07
5.72505e-08
2.5576e-07
2.644e-08
5.71516e-08
2.46965e-07
1.47663e-06
1.47671e-06
1.45694e-06
2.67306e-07
1.13962e-06
5.32022e-07
2.68432e-08
1.13967e-06
2.71718e-07
5.40382e-07
1.43305e-07
1.43504e-07
2.62612e-08
2.63151e-08
1.44513e-07
1.42639e-07
5.81008e-08
2.58058e-07
2.68298e-07
1.14366e-06
5.35243e-07
2.67729e-07
1.13693e-06
5.32564e-07
1.45138e-07
1.41993e-07
2.62394e-08
2.64728e-07
1.1322e-06
5.23595e-07
5.81142e-08
2.49232e-07
1.13297e-06
2.6896e-07
5.13656e-07
5.79761e-08
2.50453e-07
1.13992e-06
2.63699e-07
5.28241e-07
5.7694e-08
2.53849e-07
1.43781e-07
1.47258e-07
2.64784e-08
1.12929e-06
2.68933e-07
5.42796e-07
5.75349e-08
2.57076e-07
5.74815e-08
2.5672e-07
2.62814e-08
2.62023e-08
2.37983e-08
5.70857e-08
1.30801e-07
1.30086e-07
2.37797e-08
4.06435e-08
2.60247e-07
4.76465e-08
2.13388e-07
4.75453e-08
2.13513e-07
4.05661e-08
2.64326e-08
3.98929e-08
2.46562e-07
2.07623e-07
4.74069e-08
2.37234e-08
5.7432e-08
1.29781e-07
1.29476e-07
2.37231e-08
2.36857e-08
5.75498e-08
1.30227e-07
3.97865e-08
2.49925e-07
2.07274e-07
4.73177e-08
2.09033e-07
4.71535e-08
3.97687e-08
2.68098e-08
2.69473e-08
2.27946e-07
3.83676e-07
1.4453e-07
5.49709e-08
3.84268e-07
5.49201e-08
2.26404e-07
2.25818e-07
3.84125e-07
1.434e-07
5.43836e-08
3.80073e-07
5.40128e-08
2.28497e-07
8.88843e-08
2.34544e-08
2.33584e-08
2.34959e-08
2.33524e-08
8.93307e-08
2.64791e-08
2.65683e-08
2.64648e-08
2.27708e-07
3.83091e-07
1.45875e-07
5.52627e-08
5.53947e-08
3.86992e-07
2.27686e-07
2.27212e-07
3.83348e-07
1.45172e-07
5.4463e-08
5.46335e-08
3.78856e-07
2.27117e-07
8.82709e-08
2.359e-08
2.35067e-08
2.34918e-08
2.34063e-08
8.87337e-08
2.39678e-08
5.8161e-08
1.31186e-07
1.33343e-07
2.36993e-08
4.08327e-08
2.60649e-07
4.7809e-08
2.16088e-07
4.75442e-08
2.17517e-07
4.08177e-08
2.28606e-07
3.85387e-07
1.45009e-07
5.42605e-08
5.46142e-08
3.81613e-07
2.27685e-07
2.24276e-07
3.73705e-07
1.44333e-07
5.51364e-08
3.80311e-07
5.49979e-08
2.24845e-07
8.72658e-08
2.32398e-08
2.33023e-08
2.32746e-08
2.32772e-08
8.81973e-08
2.6506e-08
4.06496e-08
2.47127e-07
4.77504e-08
2.11476e-07
2.42043e-08
5.78343e-08
1.3174e-07
1.32967e-07
2.41946e-08
2.42109e-08
5.86126e-08
1.3246e-07
4.04162e-08
2.48956e-07
4.7689e-08
2.12075e-07
4.75908e-08
2.1381e-07
4.05991e-08
2.40827e-08
5.79365e-08
1.32554e-07
1.3358e-07
2.41048e-08
4.08223e-08
2.55287e-07
2.13783e-07
4.8466e-08
2.14814e-07
4.83112e-08
4.10902e-08
2.37471e-08
5.75049e-08
1.30894e-07
1.32381e-07
2.38063e-08
4.06977e-08
2.56022e-07
4.82688e-08
2.11983e-07
4.81387e-08
2.14022e-07
4.06623e-08
2.27958e-07
3.80998e-07
1.45695e-07
5.50049e-08
5.50887e-08
3.79988e-07
2.26977e-07
2.30299e-07
3.84717e-07
1.48086e-07
5.57399e-08
3.90461e-07
5.60405e-08
2.28682e-07
8.87329e-08
2.36917e-08
2.37179e-08
2.35839e-08
2.37641e-08
8.85751e-08
2.66987e-08
2.39646e-08
5.76426e-08
1.33665e-07
1.33917e-07
2.39158e-08
4.04112e-08
2.56903e-07
2.15936e-07
4.81521e-08
2.17131e-07
4.80724e-08
4.04684e-08
2.37103e-08
5.7448e-08
1.33091e-07
1.33547e-07
2.38115e-08
4.08891e-08
2.57625e-07
2.17512e-07
4.78202e-08
2.1665e-07
4.79656e-08
4.08821e-08
2.63466e-08
2.61054e-08
1.46021e-06
1.51809e-06
1.04347e-06
4.40767e-07
6.03704e-07
6.03617e-07
9.41326e-07
5.94619e-07
5.95986e-07
4.39627e-07
4.37096e-07
6.08621e-07
6.0216e-07
9.40987e-07
5.96354e-07
5.94974e-07
4.37959e-07
4.37204e-07
5.9381e-07
6.11439e-07
9.43347e-07
6.01401e-07
5.96683e-07
4.34563e-07
4.36071e-07
6.07811e-07
6.11559e-07
9.3322e-07
5.97495e-07
5.94064e-07
4.39464e-07
1.47665e-06
1.52654e-06
1.054e-06
1.51655e-06
1.48077e-06
1.05395e-06
1.51675e-06
1.4842e-06
1.05192e-06
6.76053e-07
5.29972e-07
2.65769e-07
3.87506e-07
5.23656e-07
3.83408e-07
6.97588e-07
7.30988e-07
5.27663e-07
4.84907e-07
7.91187e-07
4.81591e-07
7.80191e-07
7.44324e-07
6.9841e-07
5.35902e-07
2.73235e-07
3.90396e-07
5.33332e-07
3.89225e-07
6.92559e-07
7.35776e-07
5.32546e-07
7.89429e-07
4.8783e-07
7.93231e-07
4.86671e-07
7.44033e-07
6.97325e-07
5.33811e-07
2.66206e-07
3.81781e-07
3.86286e-07
5.32373e-07
7.04401e-07
7.3775e-07
5.40519e-07
4.90401e-07
8.07988e-07
4.89271e-07
8.0076e-07
7.46255e-07
6.975e-07
5.30521e-07
2.72651e-07
3.90438e-07
3.89352e-07
5.26834e-07
6.99842e-07
7.4293e-07
5.40309e-07
4.89991e-07
8.06587e-07
4.82111e-07
8.01456e-07
7.35722e-07
6.75469e-07
5.24565e-07
2.67014e-07
3.72999e-07
3.81359e-07
5.20592e-07
6.90106e-07
7.22209e-07
5.23877e-07
4.77433e-07
7.92326e-07
4.76557e-07
7.7463e-07
7.37801e-07
6.89563e-07
5.36021e-07
2.68267e-07
3.86641e-07
3.88685e-07
5.25597e-07
7.00887e-07
7.30749e-07
5.22115e-07
7.98083e-07
4.81506e-07
7.71194e-07
4.8319e-07
7.46108e-07
6.80004e-07
5.16247e-07
2.66718e-07
3.75646e-07
5.19742e-07
3.79819e-07
6.87565e-07
7.21706e-07
5.29036e-07
8.02929e-07
4.80929e-07
7.84567e-07
4.80143e-07
7.38257e-07
6.84125e-07
5.24889e-07
2.69599e-07
3.86036e-07
5.26626e-07
3.90377e-07
7.00016e-07
7.43386e-07
5.35392e-07
8.06707e-07
4.95325e-07
7.9424e-07
4.92908e-07
7.37896e-07
4.10664e-09
4.3914e-10
2.89541e-11
2.78797e-12
2.23348e-12
4.20899e-09
4.55613e-10
3.05609e-11
3.09851e-12
2.52346e-12
4.17598e-09
4.46331e-10
2.93915e-11
2.80417e-12
2.23949e-12
4.31074e-09
4.65274e-10
3.11467e-11
3.11943e-12
2.53013e-12
4.20204e-09
4.54115e-10
3.04505e-11
3.09626e-12
2.52427e-12
4.25462e-09
4.59369e-10
3.07743e-11
3.10743e-12
2.52771e-12
4.15043e-09
4.44676e-10
2.93126e-11
2.79826e-12
2.23459e-12
4.25706e-09
4.61616e-10
3.09586e-11
3.1167e-12
2.53201e-12
4.24974e-09
4.54084e-10
2.98719e-11
2.81768e-12
2.2408e-12
4.23137e-09
4.53019e-10
2.98188e-11
2.81801e-12
2.24254e-12
4.20436e-09
4.50068e-10
2.96522e-11
2.81387e-12
2.24209e-12
4.22648e-09
4.5743e-10
3.06749e-11
3.10376e-12
2.5259e-12
4.11691e-09
4.41347e-10
2.91116e-11
2.79371e-12
2.2351e-12
4.11632e-09
4.4098e-10
2.90722e-11
2.79105e-12
2.23387e-12
4.23292e-09
4.57794e-10
3.06875e-11
3.107e-12
2.52955e-12
4.17097e-09
4.51262e-10
3.02679e-11
3.08974e-12
2.52268e-12
4.27768e-09
4.59594e-10
3.07555e-11
3.10354e-12
2.52406e-12
4.09965e-09
4.39409e-10
2.89891e-11
2.79311e-12
2.23805e-12
4.21014e-09
4.55918e-10
3.05773e-11
3.10063e-12
2.52529e-12
4.03329e-09
4.31202e-10
2.86383e-11
2.84816e-12
2.30698e-12
4.22665e-09
4.5493e-10
3.02474e-11
2.94741e-12
2.36948e-12
4.33216e-09
4.64449e-10
3.10395e-11
3.10967e-12
2.52286e-12
4.18198e-09
4.46565e-10
2.94011e-11
2.80254e-12
2.23737e-12
4.18746e-09
4.47207e-10
2.94485e-11
2.80625e-12
2.24003e-12
4.30987e-09
4.6598e-10
3.11957e-11
3.11788e-12
2.52696e-12
4.3224e-09
4.6674e-10
3.12373e-11
3.12221e-12
2.53073e-12
4.24274e-09
4.5404e-10
2.99045e-11
2.83602e-12
2.25975e-12
4.25902e-09
4.55071e-10
2.99424e-11
2.83466e-12
2.25737e-12
4.19061e-09
4.47852e-10
2.95017e-11
2.8218e-12
2.25573e-12
4.1901e-09
4.4814e-10
2.95218e-11
2.82311e-12
2.25657e-12
3.95321e-09
4.24551e-10
2.8509e-11
3.00373e-12
2.47887e-12
3.9381e-09
4.22831e-10
2.83772e-11
2.99879e-12
2.4777e-12
3.95921e-09
4.24868e-10
2.85129e-11
3.00111e-12
2.47588e-12
3.93433e-09
4.22516e-10
2.83604e-11
2.99708e-12
2.47597e-12
4.2027e-09
4.54084e-10
3.04461e-11
3.09841e-12
2.52672e-12
4.25628e-09
4.59542e-10
3.07648e-11
3.10422e-12
2.52456e-12
4.25833e-09
4.596e-10
3.07753e-11
3.10792e-12
2.5284e-12
4.17128e-09
4.4685e-10
2.94448e-11
2.80501e-12
2.2383e-12
4.26162e-09
4.56203e-10
3.00504e-11
2.8407e-12
2.26049e-12
4.26699e-09
4.56404e-10
3.00502e-11
2.83926e-12
2.25881e-12
3.93987e-09
4.23474e-10
2.84567e-11
3.00304e-12
2.47936e-12
3.93794e-09
4.23382e-10
2.84492e-11
3.00083e-12
2.47687e-12
4.26004e-09
4.61088e-10
3.09032e-11
3.11179e-12
2.52806e-12
4.12201e-09
4.4098e-10
2.92474e-11
2.86553e-12
2.309e-12
4.26623e-09
4.59238e-10
3.05106e-11
2.95485e-12
2.37029e-12
4.41244e-09
4.7346e-10
3.16166e-11
3.12585e-12
2.5242e-12
4.23956e-09
4.54006e-10
2.98761e-11
2.81579e-12
2.23839e-12
4.26658e-09
4.55708e-10
2.99659e-11
2.8204e-12
2.24128e-12
4.23796e-09
4.53491e-10
2.98449e-11
2.81637e-12
2.23976e-12
4.35778e-09
4.69141e-10
3.13803e-11
3.1201e-12
2.52415e-12
4.20476e-09
4.50106e-10
2.96448e-11
2.81091e-12
2.23896e-12
4.27934e-09
4.57941e-10
3.01509e-11
2.84205e-12
2.25908e-12
4.29829e-09
4.59066e-10
3.01908e-11
2.84478e-12
2.26141e-12
3.98838e-09
4.28341e-10
2.87417e-11
3.01017e-12
2.47939e-12
4.238e-09
4.58103e-10
3.07019e-11
3.10604e-12
2.5278e-12
4.3074e-09
4.63039e-10
3.09809e-11
3.11031e-12
2.52489e-12
4.12393e-09
4.41895e-10
2.91455e-11
2.79815e-12
2.2389e-12
4.28368e-09
4.61236e-10
3.08713e-11
3.10678e-12
2.52433e-12
4.12089e-09
4.41265e-10
2.90818e-11
2.79464e-12
2.2376e-12
4.23468e-09
4.57945e-10
3.06856e-11
3.10357e-12
2.5257e-12
4.16436e-09
4.50949e-10
3.02536e-11
3.0911e-12
2.52441e-12
4.30659e-09
4.63688e-10
3.10341e-11
3.11214e-12
2.52535e-12
4.41317e-09
4.7465e-10
3.1709e-11
3.12929e-12
2.52515e-12
4.01035e-09
4.292e-10
2.8525e-11
2.84119e-12
2.30231e-12
4.14737e-09
4.46867e-10
2.97438e-11
2.92522e-12
2.35924e-12
4.13955e-09
4.473e-10
2.98017e-11
2.93071e-12
2.36317e-12
3.99497e-09
4.27458e-10
2.84108e-11
2.83407e-12
2.29783e-12
4.27132e-09
4.58502e-10
3.06771e-11
3.09595e-12
2.51789e-12
4.20083e-09
4.49846e-10
2.96467e-11
2.82767e-12
2.25777e-12
4.21697e-09
4.50571e-10
2.96666e-11
2.82815e-12
2.25798e-12
3.92643e-09
4.21968e-10
2.83407e-11
2.99959e-12
2.4793e-12
3.92042e-09
4.21106e-10
2.82869e-11
2.99658e-12
2.47715e-12
4.32248e-09
4.63929e-10
3.1022e-11
3.11197e-12
2.52596e-12
4.02456e-09
4.29961e-10
2.85508e-11
2.84097e-12
2.30151e-12
4.21864e-09
4.53439e-10
3.01424e-11
2.9443e-12
2.36912e-12
4.21226e-09
4.53485e-10
3.01534e-11
2.93936e-12
2.36307e-12
4.02018e-09
4.29712e-10
2.85434e-11
2.84525e-12
2.30659e-12
4.32311e-09
4.64532e-10
3.10765e-11
3.11426e-12
2.52635e-12
4.28185e-09
4.57119e-10
3.00863e-11
2.84156e-12
2.26057e-12
4.28677e-09
4.58039e-10
3.01383e-11
2.84034e-12
2.25781e-12
3.99217e-09
4.27536e-10
2.86764e-11
3.0086e-12
2.47957e-12
3.99261e-09
4.28555e-10
2.87485e-11
3.00778e-12
2.47644e-12
4.24395e-09
4.53094e-10
2.98379e-11
2.83227e-12
2.25714e-12
4.24627e-09
4.53623e-10
2.98642e-11
2.83437e-12
2.25891e-12
3.95665e-09
4.23947e-10
2.84551e-11
2.99957e-12
2.47593e-12
3.95523e-09
4.24313e-10
2.84771e-11
2.99964e-12
2.47543e-12
4.2408e-09
4.52776e-10
2.98029e-11
2.83163e-12
2.25797e-12
4.25255e-09
4.54202e-10
2.98897e-11
2.83249e-12
2.25654e-12
3.95755e-09
4.23926e-10
2.84565e-11
3.00159e-12
2.478e-12
3.96479e-09
4.25516e-10
2.85606e-11
3.00241e-12
2.47589e-12
4.02165e-09
4.30687e-10
2.86029e-11
2.8438e-12
2.3035e-12
4.14057e-09
4.46437e-10
2.97111e-11
2.92555e-12
2.36072e-12
4.13755e-09
4.46602e-10
2.97418e-11
2.93008e-12
2.3643e-12
4.00748e-09
4.29568e-10
2.85393e-11
2.83918e-12
2.30006e-12
4.28461e-09
4.62283e-10
3.09613e-11
3.10567e-12
2.52002e-12
4.10911e-09
4.39849e-10
2.91939e-11
2.85958e-12
2.30335e-12
4.24942e-09
4.57007e-10
3.03671e-11
2.95078e-12
2.36986e-12
4.25424e-09
4.58319e-10
3.04526e-11
2.9476e-12
2.36379e-12
4.10997e-09
4.39033e-10
2.91184e-11
2.86198e-12
2.30876e-12
4.4132e-09
4.73607e-10
3.16287e-11
3.12888e-12
2.52742e-12
4.4172e-09
4.74572e-10
3.16999e-11
3.13124e-12
2.52771e-12
4.41398e-09
4.75566e-10
3.17732e-11
3.13409e-12
2.52899e-12
4.14816e-09
4.44479e-10
2.94712e-11
2.86599e-12
2.30321e-12
4.31206e-09
4.64407e-10
3.08301e-11
2.96327e-12
2.37094e-12
4.31686e-09
4.65225e-10
3.08817e-11
2.95882e-12
2.36419e-12
4.14806e-09
4.44323e-10
2.94549e-11
2.87061e-12
2.30908e-12
4.10789e-09
4.39241e-10
2.91164e-11
2.85543e-12
2.30197e-12
4.28768e-09
4.61512e-10
3.06419e-11
2.95773e-12
2.37023e-12
4.29065e-09
4.61773e-10
3.0646e-11
2.9519e-12
2.36353e-12
4.10249e-09
4.39567e-10
2.91514e-11
2.8618e-12
2.30816e-12
4.35363e-09
4.68977e-10
3.13825e-11
3.1237e-12
2.52797e-12
3.99052e-09
4.28246e-10
2.87269e-11
3.0099e-12
2.47938e-12
4.29256e-09
4.61978e-10
3.09223e-11
3.10406e-12
2.51944e-12
4.00221e-09
4.29153e-10
2.85271e-11
2.84165e-12
2.3028e-12
4.1623e-09
4.48502e-10
2.98294e-11
2.92822e-12
2.36046e-12
4.16754e-09
4.49263e-10
2.98752e-11
2.9322e-12
2.36364e-12
3.99527e-09
4.28531e-10
2.84825e-11
2.83764e-12
2.29964e-12
4.28189e-09
4.6137e-10
3.08797e-11
3.10218e-12
2.51903e-12
4.02507e-09
4.30537e-10
2.85805e-11
2.8426e-12
2.3029e-12
4.14279e-09
4.46706e-10
2.97305e-11
2.92576e-12
2.36039e-12
4.15468e-09
4.47749e-10
2.97926e-11
2.93053e-12
2.36393e-12
4.01212e-09
4.29737e-10
2.85381e-11
2.83834e-12
2.29933e-12
9.89171e-07
9.43223e-07
1.00306e-06
1.48222e-06
2.49496e-07
1.13211e-06
5.23165e-07
5.80309e-08
2.52687e-07
1.12009e-06
2.71058e-07
5.20469e-07
2.67379e-08
1.4674e-07
3.96514e-08
2.44008e-07
2.08247e-07
4.71962e-08
2.05657e-07
4.71759e-08
3.95953e-08
2.39594e-08
5.81331e-08
1.31717e-07
1.3155e-07
2.39916e-08
4.05513e-08
2.50159e-07
4.7663e-08
2.14025e-07
4.76674e-08
2.09157e-07
4.06411e-08
2.64551e-08
2.27165e-07
3.82599e-07
1.43466e-07
5.43862e-08
3.82373e-07
5.46258e-08
2.26793e-07
2.28119e-07
3.89514e-07
3.87323e-07
2.30073e-07
8.90926e-08
2.3404e-08
2.33422e-08
9.02941e-08
4.38785e-07
9.72441e-07
5.8933e-07
5.93635e-07
6.07708e-07
6.04489e-07
4.38237e-07
1.52077e-06
1.04895e-06
1.52754e-06
1.48448e-06
1.05034e-06
7.36504e-07
5.22762e-07
4.76084e-07
7.62551e-07
4.7462e-07
7.95599e-07
7.17273e-07
6.99615e-07
5.22112e-07
2.67851e-07
3.80875e-07
3.81357e-07
5.30865e-07
6.86299e-07
7.33764e-07
5.24004e-07
7.69849e-07
4.79589e-07
8.03381e-07
4.83913e-07
7.27438e-07
6.90466e-07
5.31368e-07
5.33127e-07
6.90159e-07
9.30119e-07
9.85624e-07
9.80872e-07
1.44941e-06
2.64695e-08
2.63049e-08
1.4697e-07
1.45375e-07
5.75744e-08
2.55357e-07
2.69483e-07
1.13188e-06
5.32769e-07
5.71119e-08
2.67626e-07
2.62478e-08
2.62937e-08
2.26834e-07
3.90589e-07
1.43846e-07
5.51811e-08
5.48763e-08
3.84172e-07
2.26894e-07
2.23779e-07
3.84241e-07
1.44125e-07
5.42956e-08
5.42775e-08
3.77087e-07
2.24475e-07
8.90039e-08
2.33652e-08
2.32507e-08
2.33487e-08
2.33001e-08
8.84728e-08
2.36598e-08
5.71797e-08
1.32196e-07
1.3122e-07
2.37114e-08
4.05338e-08
2.54291e-07
4.79233e-08
2.13967e-07
4.74883e-08
2.1484e-07
4.06401e-08
2.35608e-08
5.73973e-08
1.30865e-07
1.29885e-07
2.3578e-08
4.37247e-07
9.57301e-07
6.00342e-07
5.9235e-07
5.97142e-07
6.01813e-07
4.38759e-07
1.46792e-06
7.01096e-07
5.30527e-07
2.6684e-07
3.84367e-07
5.36668e-07
3.87788e-07
6.97448e-07
7.46531e-07
5.33327e-07
4.89783e-07
7.99452e-07
4.87246e-07
8.07278e-07
7.4023e-07
6.90339e-07
5.16151e-07
2.62049e-07
3.74919e-07
5.13132e-07
3.74381e-07
6.77971e-07
4.23341e-09
4.52601e-10
2.97803e-11
2.81302e-12
2.23819e-12
4.29397e-09
4.63892e-10
3.10607e-11
3.11459e-12
2.52704e-12
4.38184e-09
4.71697e-10
3.15331e-11
3.12789e-12
2.52874e-12
4.22309e-09
4.5205e-10
2.97591e-11
2.81615e-12
2.24225e-12
4.27293e-09
4.63098e-10
3.10459e-11
3.11883e-12
2.53199e-12
4.00524e-09
4.29273e-10
2.8517e-11
2.84543e-12
2.30767e-12
4.19701e-09
4.5148e-10
3.00192e-11
2.93542e-12
2.36263e-12
4.18955e-09
4.51503e-10
3.00333e-11
2.94241e-12
2.3702e-12
4.00105e-09
4.28494e-10
2.84701e-11
2.83882e-12
2.30135e-12
4.0923e-09
4.38249e-10
2.90833e-11
2.86207e-12
2.30986e-12
4.23481e-09
4.5554e-10
3.02737e-11
2.94279e-12
2.36354e-12
4.23031e-09
4.55644e-10
3.02897e-11
2.94973e-12
2.37097e-12
4.09873e-09
4.38391e-10
2.90748e-11
2.85599e-12
2.30329e-12
4.3849e-09
4.71658e-10
3.15249e-11
3.12388e-12
2.52422e-12
4.24069e-09
4.53598e-10
2.98895e-11
2.83461e-12
2.25795e-12
4.24409e-09
4.53887e-10
2.98952e-11
2.83821e-12
2.26225e-12
3.96382e-09
4.25493e-10
2.85638e-11
3.00371e-12
2.47708e-12
3.95639e-09
4.25284e-10
2.85637e-11
3.00752e-12
2.48143e-12
4.20162e-09
4.53879e-10
3.04272e-11
3.0977e-12
2.52659e-12
4.23458e-09
4.57681e-10
3.06751e-11
3.10206e-12
2.52426e-12
4.10768e-09
4.39318e-10
2.89698e-11
2.79227e-12
2.23771e-12
4.16868e-09
4.4607e-10
2.93842e-11
2.80214e-12
2.23715e-12
4.18148e-09
4.5255e-10
3.03616e-11
3.09543e-12
2.52575e-12
4.22797e-09
4.57124e-10
3.06392e-11
3.10519e-12
2.52908e-12
4.23912e-09
4.56901e-10
3.06079e-11
3.09534e-12
2.51891e-12
4.07822e-09
4.36911e-10
2.88268e-11
2.7859e-12
2.23473e-12
4.16457e-09
4.45915e-10
2.93774e-11
2.80507e-12
2.24078e-12
3.9405e-09
4.22924e-10
2.83985e-11
2.99764e-12
2.47528e-12
3.93563e-09
4.22327e-10
2.83576e-11
2.99681e-12
2.47554e-12
4.31492e-09
4.64716e-10
3.10852e-11
3.11467e-12
2.52735e-12
4.30938e-09
4.63599e-10
3.10103e-11
3.10896e-12
2.52276e-12
4.22714e-09
4.51338e-10
2.97123e-11
2.83008e-12
2.25856e-12
4.21284e-09
4.50776e-10
2.96894e-11
2.82932e-12
2.25847e-12
4.22871e-09
4.51526e-10
2.97214e-11
2.82773e-12
2.25607e-12
4.20526e-09
4.49841e-10
2.96512e-11
2.82899e-12
2.25908e-12
3.9371e-09
4.22647e-10
2.83784e-11
3.00026e-12
2.47904e-12
3.93201e-09
4.22337e-10
2.83759e-11
2.99874e-12
2.47706e-12
3.98687e-09
4.27137e-10
2.83853e-11
2.83397e-12
2.29868e-12
4.13926e-09
4.45764e-10
2.96706e-11
2.92677e-12
2.36314e-12
4.11727e-09
4.44423e-10
2.96001e-11
2.92236e-12
2.36014e-12
3.99458e-09
4.27726e-10
2.84218e-11
2.83806e-12
2.30222e-12
4.26016e-09
4.58396e-10
3.06833e-11
3.10154e-12
2.52382e-12
9.36679e-07
1.47073e-06
9.90233e-07
9.78379e-07
9.47552e-07
9.63942e-07
9.46424e-07
9.93226e-07
9.83856e-07
9.55539e-07
9.55761e-07
9.86146e-07
9.77471e-07
9.50021e-07
9.86698e-07
1.43328e-07
1.43064e-07
9.50445e-07
1.42033e-07
1.43412e-07
2.43935e-07
5.7021e-08
2.55554e-07
2.66349e-08
2.59554e-08
5.54194e-08
2.45491e-07
1.475e-06
1.49008e-06
1.46308e-06
2.6732e-07
1.12713e-06
1.00187e-06
5.28402e-07
2.6534e-08
1.14005e-06
2.66912e-07
5.33426e-07
1.41948e-07
1.43183e-07
2.62816e-08
2.62299e-08
2.629e-08
2.62706e-08
9.5014e-07
1.43276e-07
1.44811e-07
1.43254e-07
1.43302e-07
2.62357e-08
2.61129e-08
2.64585e-08
2.60853e-08
2.637e-08
2.57644e-08
1.45835e-07
1.4048e-07
2.4468e-07
5.74698e-08
5.594e-08
2.54947e-07
5.22321e-07
2.68641e-07
1.13195e-06
1.1301e-06
5.36533e-07
5.20033e-07
2.69873e-07
1.14243e-06
9.84394e-07
2.63979e-07
1.10905e-06
5.40811e-07
1.45249e-07
1.44474e-07
9.4357e-07
1.41756e-07
2.674e-08
2.58967e-07
1.11159e-06
5.1889e-07
5.71375e-08
2.49056e-07
1.12396e-06
2.66965e-07
5.17235e-07
5.68596e-08
2.50396e-07
1.11904e-06
2.61864e-07
5.21757e-07
5.56087e-08
2.5071e-07
1.43591e-07
1.44714e-07
2.6432e-08
1.13334e-06
2.68013e-07
5.37676e-07
5.67418e-08
2.55773e-07
5.7229e-08
2.56207e-07
2.58758e-08
2.61909e-08
8.70126e-08
2.34306e-08
2.33421e-08
2.34236e-08
2.32699e-08
8.69384e-08
2.27348e-07
3.86253e-07
5.47009e-08
1.44378e-07
5.46906e-08
2.27202e-07
3.87697e-07
2.24886e-07
3.77418e-07
5.36163e-08
1.43462e-07
5.3568e-08
2.23493e-07
3.82612e-07
8.73194e-08
2.34249e-08
2.33437e-08
2.34894e-08
2.3339e-08
8.68996e-08
2.27449e-07
5.44402e-08
1.43096e-07
3.81361e-07
5.45697e-08
2.28257e-07
3.80092e-07
2.22718e-07
5.33365e-08
1.4313e-07
3.80773e-07
5.35052e-08
2.235e-07
3.79845e-07
3.93094e-08
4.54421e-08
2.06774e-07
2.48818e-07
4.6374e-08
2.09592e-07
3.87364e-08
2.34935e-08
5.71368e-08
1.32699e-07
1.29423e-07
2.38347e-08
2.31652e-08
5.62487e-08
1.26617e-07
4.01618e-08
2.51723e-07
4.7311e-08
2.12658e-07
4.7107e-08
2.11594e-07
4.02739e-08
2.66444e-08
2.63363e-08
2.34126e-08
5.50009e-08
1.2769e-07
1.28144e-07
2.34711e-08
3.98825e-08
2.47945e-07
2.06179e-07
4.64595e-08
2.09127e-07
4.66661e-08
3.97543e-08
2.65594e-08
2.2727e-07
3.80802e-07
5.41264e-08
1.42633e-07
2.27028e-07
3.81952e-07
5.46358e-08
2.27399e-07
3.79478e-07
5.36057e-08
1.43743e-07
2.2762e-07
3.79058e-07
5.35373e-08
8.75654e-08
2.34657e-08
2.33439e-08
8.78959e-08
2.34429e-08
2.32509e-08
2.63585e-08
2.61585e-08
2.61337e-08
2.63078e-08
8.73951e-08
2.31458e-08
2.32361e-08
8.81929e-08
2.34069e-08
2.3246e-08
2.25295e-07
3.83272e-07
5.43159e-08
1.41375e-07
2.26568e-07
5.45946e-08
3.77995e-07
2.26169e-07
3.80328e-07
5.38659e-08
1.42619e-07
2.23968e-07
5.40829e-08
3.84238e-07
8.87902e-08
2.35069e-08
2.34331e-08
8.81777e-08
2.34433e-08
2.33911e-08
2.27245e-07
5.41559e-08
3.81403e-07
1.43232e-07
2.24294e-07
5.44795e-08
3.80987e-07
2.27619e-07
5.41224e-08
3.84928e-07
1.43729e-07
2.26237e-07
5.40234e-08
3.86389e-07
2.62088e-08
2.59091e-08
2.62318e-08
2.62274e-08
2.63286e-08
2.62211e-08
2.58742e-08
2.23274e-07
3.86546e-07
1.45942e-07
5.48423e-08
5.49462e-08
3.85099e-07
2.25477e-07
2.21946e-07
3.77572e-07
1.39398e-07
5.28106e-08
5.23833e-08
3.77462e-07
2.23606e-07
1.44348e-07
3.85606e-07
8.64452e-08
2.34173e-08
2.30787e-08
2.33714e-08
2.30037e-08
8.7323e-08
3.95355e-08
4.57437e-08
2.07763e-07
2.51006e-07
4.64104e-08
2.0885e-07
3.93066e-08
2.39209e-08
5.78431e-08
1.32949e-07
1.32014e-07
2.39371e-08
2.35757e-08
1.28016e-07
5.70064e-08
1.30283e-07
2.33569e-08
4.00786e-08
2.53502e-07
4.72577e-08
2.1346e-07
4.71312e-08
2.08977e-07
4.03702e-08
8.63779e-08
2.35222e-08
2.33377e-08
2.34986e-08
2.24807e-07
3.85537e-07
1.46038e-07
5.40631e-08
5.43691e-08
3.856e-07
2.28236e-07
2.24142e-07
3.85529e-07
1.4539e-07
5.51279e-08
3.81739e-07
5.4982e-08
2.26751e-07
2.27277e-07
5.35091e-08
1.43593e-07
3.79435e-07
5.45948e-08
3.79182e-07
2.27019e-07
2.27716e-07
1.44222e-07
3.79762e-07
5.47441e-08
8.80132e-08
2.34079e-08
2.36116e-08
2.34884e-08
2.35433e-08
8.80545e-08
2.66682e-08
2.65244e-08
2.42183e-08
5.74331e-08
1.31681e-07
1.3134e-07
2.41079e-08
4.04757e-08
2.4997e-07
4.72247e-08
2.11714e-07
4.69674e-08
2.09483e-07
4.06994e-08
4.00919e-08
2.53026e-07
2.09879e-07
4.73696e-08
2.39358e-08
5.71029e-08
1.30841e-07
1.3006e-07
2.39056e-08
2.37334e-08
5.71833e-08
1.30078e-07
4.02194e-08
2.537e-07
2.09819e-07
4.74875e-08
2.08355e-07
4.75659e-08
3.9987e-08
3.97525e-08
2.51663e-07
4.73927e-08
2.05942e-07
2.34873e-08
5.58565e-08
1.27723e-07
1.28328e-07
2.35471e-08
2.33525e-08
5.60024e-08
1.28195e-07
3.97781e-08
2.49341e-07
4.74409e-08
2.07235e-07
4.73461e-08
2.07916e-07
3.99656e-08
2.28853e-07
3.79754e-07
1.44241e-07
5.41121e-08
5.42862e-08
3.86033e-07
2.28574e-07
2.28981e-07
3.83519e-07
1.45232e-07
5.51089e-08
3.89186e-07
5.50551e-08
2.28748e-07
8.80939e-08
2.36442e-08
2.36639e-08
2.35845e-08
2.35843e-08
8.87962e-08
2.63747e-08
2.37129e-08
5.70487e-08
1.3105e-07
1.30142e-07
2.35919e-08
4.05186e-08
2.56865e-07
2.1362e-07
4.77519e-08
2.11851e-07
4.73271e-08
4.054e-08
2.39245e-08
5.69986e-08
1.32367e-07
1.31243e-07
2.3907e-08
4.08939e-08
2.56322e-07
2.14342e-07
4.73674e-08
2.1707e-07
4.77474e-08
4.08589e-08
2.60002e-08
2.60515e-08
2.63527e-08
4.37744e-07
6.01623e-07
6.03338e-07
9.17986e-07
4.40112e-07
5.95843e-07
6.00744e-07
1.47853e-06
1.50797e-06
1.0546e-06
4.36867e-07
6.0117e-07
6.03556e-07
9.32363e-07
4.39992e-07
5.96206e-07
5.97601e-07
4.39059e-07
9.58845e-07
5.9931e-07
6.03125e-07
4.31638e-07
6.04411e-07
6.06428e-07
4.29628e-07
5.97033e-07
5.90681e-07
9.39121e-07
5.91093e-07
5.88354e-07
4.32821e-07
4.41392e-07
6.01225e-07
5.96625e-07
9.4155e-07
6.01605e-07
5.95796e-07
4.42808e-07
4.36404e-07
5.9002e-07
5.99915e-07
9.39959e-07
6.05455e-07
5.87583e-07
4.41916e-07
4.37462e-07
9.65954e-07
5.96506e-07
6.0504e-07
4.38965e-07
5.95772e-07
6.09427e-07
1.49098e-06
1.5301e-06
1.04938e-06
1.52099e-06
1.48825e-06
1.05275e-06
1.50658e-06
1.48521e-06
1.06242e-06
6.82969e-07
5.26196e-07
2.64086e-07
3.82509e-07
5.26079e-07
3.82998e-07
6.80314e-07
6.87287e-07
2.66829e-07
5.31983e-07
3.81104e-07
7.25121e-07
5.26432e-07
4.83397e-07
7.82392e-07
4.81354e-07
7.8639e-07
7.34831e-07
6.82072e-07
5.22563e-07
2.68378e-07
3.8127e-07
5.19769e-07
3.86948e-07
6.92465e-07
7.40055e-07
5.34931e-07
7.97974e-07
4.80494e-07
7.9565e-07
4.8755e-07
7.30087e-07
4.39781e-07
9.40251e-07
5.98984e-07
6.07632e-07
4.39664e-07
5.92856e-07
6.00143e-07
7.28756e-07
4.73209e-07
7.91772e-07
5.29338e-07
4.81669e-07
8.04699e-07
7.3357e-07
6.94906e-07
5.31152e-07
2.66535e-07
3.86983e-07
3.81682e-07
5.324e-07
6.95887e-07
6.92158e-07
2.6667e-07
3.81733e-07
5.32693e-07
7.33088e-07
5.34849e-07
4.95957e-07
8.07323e-07
4.91108e-07
8.03627e-07
7.40307e-07
7.39338e-07
4.73725e-07
7.89498e-07
5.25563e-07
4.80664e-07
7.87094e-07
7.34142e-07
6.83404e-07
5.32479e-07
2.71586e-07
3.90901e-07
3.89295e-07
5.33919e-07
6.93263e-07
6.8882e-07
3.76663e-07
2.65205e-07
5.26783e-07
3.83745e-07
6.83992e-07
5.30632e-07
7.41268e-07
5.35438e-07
4.84816e-07
7.91632e-07
4.88032e-07
7.9334e-07
7.38874e-07
4.41032e-07
9.63894e-07
5.95662e-07
6.06295e-07
6.08397e-07
5.99125e-07
4.39352e-07
6.62099e-07
5.13688e-07
2.56911e-07
3.75064e-07
3.75358e-07
5.04847e-07
6.69256e-07
7.06824e-07
5.18937e-07
4.69568e-07
7.71819e-07
4.71358e-07
7.65873e-07
7.20894e-07
6.89969e-07
5.25362e-07
2.65513e-07
3.85886e-07
3.81841e-07
5.20801e-07
6.9343e-07
7.27687e-07
5.23954e-07
7.79675e-07
4.82963e-07
7.75437e-07
4.75505e-07
7.21548e-07
6.79274e-07
5.13269e-07
2.59906e-07
3.74149e-07
5.11239e-07
3.76105e-07
6.82046e-07
7.23967e-07
5.20838e-07
7.89752e-07
4.73329e-07
7.80522e-07
4.7068e-07
7.30168e-07
6.94233e-07
5.24839e-07
2.66095e-07
3.84173e-07
5.18101e-07
3.84319e-07
6.95847e-07
7.38825e-07
5.32291e-07
7.96934e-07
4.84579e-07
7.93711e-07
4.91643e-07
7.4192e-07
1.46533e-06
9.74737e-07
9.86106e-07
9.54317e-07
1.47286e-06
9.72106e-07
9.78863e-07
9.58232e-07
1.45912e-06
9.86888e-07
9.93457e-07
9.65286e-07
1.45263e-06
9.93582e-07
1.00247e-06
9.59257e-07
1.47385e-06
9.81095e-07
9.98402e-07
9.73174e-07
1.43193e-06
9.74095e-07
9.9842e-07
9.58096e-07
1.44679e-06
9.89389e-07
9.95743e-07
9.57061e-07
1.45279e-06
9.92551e-07
9.8735e-07
9.70117e-07
1.46151e-06
9.75204e-07
9.91318e-07
9.57113e-07
1.46953e-06
9.83016e-07
9.84684e-07
9.37023e-07
1.46496e-06
9.72345e-07
9.99134e-07
9.58661e-07
1.4699e-06
9.8348e-07
1.00058e-06
9.66944e-07
1.45059e-06
9.84109e-07
9.9269e-07
9.49345e-07
1.47945e-06
9.86983e-07
9.89837e-07
9.55985e-07
1.44557e-06
9.7531e-07
9.89161e-07
9.61164e-07
1.4685e-06
9.76326e-07
9.78582e-07
9.26155e-07
9.78973e-07
9.96549e-07
9.35125e-07
9.64135e-07
9.87147e-07
9.84124e-07
9.88597e-07
9.45319e-07
9.86384e-07
9.76468e-07
9.30157e-07
9.67832e-07
9.18047e-07
9.9628e-07
9.95933e-07
9.73636e-07
9.99622e-07
9.5904e-07
9.35559e-07
9.82043e-07
9.89497e-07
9.83642e-07
9.95554e-07
9.9037e-07
9.75835e-07
9.91923e-07
9.73404e-07
9.42885e-07
9.88426e-07
9.8402e-07
9.87018e-07
9.45085e-07
9.556e-07
9.36267e-07
9.78805e-07
1.00079e-06
9.80946e-07
9.80818e-07
9.5929e-07
9.45199e-07
9.89729e-07
9.81978e-07
9.86521e-07
9.97133e-07
9.92031e-07
9.90341e-07
9.87132e-07
9.64258e-07
9.45519e-07
9.77335e-07
9.81793e-07
9.74877e-07
9.24444e-07
9.63005e-07
9.25727e-07
9.65969e-07
9.90196e-07
9.86063e-07
9.89589e-07
9.72305e-07
9.48e-07
9.90268e-07
9.96378e-07
9.84431e-07
9.74309e-07
9.86323e-07
9.76971e-07
9.91184e-07
9.75266e-07
9.52294e-07
9.87829e-07
1.00144e-06
9.86264e-07
9.33845e-07
9.42201e-07
9.31394e-07
9.74687e-07
9.87136e-07
9.94134e-07
1.00053e-06
9.75466e-07
9.42383e-07
9.82907e-07
9.87591e-07
9.82922e-07
9.80792e-07
9.88434e-07
9.95521e-07
9.74127e-07
9.77302e-07
9.52836e-07
9.88406e-07
9.8374e-07
9.82256e-07
9.44758e-07
9.55215e-07
9.39336e-07
9.90375e-07
9.85666e-07
9.93704e-07
9.85592e-07
9.55928e-07
9.34193e-07
9.83776e-07
9.96889e-07
9.84981e-07
9.95944e-07
9.90654e-07
9.89419e-07
9.85081e-07
9.61872e-07
9.42291e-07
9.99413e-07
1.00096e-06
9.9464e-07
9.41772e-07
9.65629e-07
9.32134e-07
9.94813e-07
9.85614e-07
9.93647e-07
1.00075e-06
9.53337e-07
9.27087e-07
9.68762e-07
9.97274e-07
9.63398e-07
9.96123e-07
9.8541e-07
9.93766e-07
9.71648e-07
9.60834e-07
9.52354e-07
9.84397e-07
1.00258e-06
9.82492e-07
9.28273e-07
9.61393e-07
9.40452e-07
9.9153e-07
9.98164e-07
9.70488e-07
9.89875e-07
9.50929e-07
9.36248e-07
9.80969e-07
9.78167e-07
9.65818e-07
9.699e-07
9.87157e-07
9.814e-07
9.75204e-07
9.76418e-07
9.28177e-07
9.69484e-07
9.86456e-07
9.91892e-07
9.3119e-07
9.59769e-07
9.3776e-07
9.76001e-07
9.85482e-07
9.87827e-07
9.94526e-07
9.62867e-07
9.36261e-07
9.73543e-07
9.83613e-07
9.72279e-07
9.95131e-07
9.89894e-07
9.65697e-07
9.92405e-07
9.66959e-07
9.32825e-07
9.83847e-07
9.77654e-07
9.73163e-07
9.22176e-07
9.66544e-07
9.42668e-07
9.90303e-07
9.86753e-07
9.93754e-07
1.00079e-06
9.62225e-07
9.30141e-07
9.8953e-07
9.90037e-07
9.74159e-07
9.9362e-07
9.92168e-07
9.78567e-07
9.88761e-07
9.70236e-07
9.43525e-07
9.83549e-07
9.9337e-07
9.73294e-07
9.18584e-07
9.5827e-07
9.34915e-07
9.94556e-07
9.94173e-07
9.80136e-07
9.95195e-07
9.71384e-07
9.42508e-07
9.80138e-07
9.92135e-07
9.85597e-07
9.94307e-07
9.85424e-07
9.82487e-07
9.81894e-07
9.67614e-07
9.43506e-07
9.86586e-07
9.98112e-07
9.82475e-07
9.32e-07
9.52891e-07
9.38957e-07
9.64839e-07
9.92697e-07
9.82651e-07
1.00146e-06
9.66992e-07
9.48799e-07
9.81433e-07
9.93884e-07
9.82245e-07
9.89818e-07
9.68404e-07
9.83335e-07
9.61299e-07
9.53814e-07
9.42312e-07
9.70399e-07
1.00631e-06
9.92857e-07
9.43994e-07
9.66251e-07
9.32405e-07
9.83442e-07
1.00257e-06
9.73561e-07
1.00533e-06
9.68067e-07
9.44774e-07
9.7399e-07
1.00089e-06
9.8026e-07
9.90201e-07
9.70664e-07
9.95094e-07
9.88176e-07
9.69934e-07
9.49158e-07
9.84286e-07
9.91274e-07
9.96251e-07
9.34726e-07
9.48312e-07
9.42281e-07
9.89695e-07
9.94238e-07
9.81895e-07
9.88226e-07
9.68041e-07
9.43207e-07
9.76736e-07
9.78468e-07
9.84449e-07
9.98462e-07
9.80662e-07
9.95082e-07
9.90848e-07
9.72338e-07
9.40827e-07
9.7428e-07
9.97433e-07
9.79904e-07
9.38122e-07
9.49896e-07
9.40059e-07
9.73638e-07
9.81938e-07
9.97455e-07
9.97101e-07
9.65709e-07
9.29545e-07
9.80232e-07
9.88476e-07
9.67985e-07
9.90247e-07
9.84929e-07
1.00418e-06
9.93259e-07
9.58698e-07
9.45829e-07
9.83946e-07
9.97164e-07
9.91555e-07
9.48109e-07
9.53583e-07
9.39067e-07
9.94591e-07
9.83793e-07
9.88862e-07
9.95238e-07
9.62886e-07
9.47748e-07
9.7404e-07
9.93429e-07
9.74485e-07
9.96421e-07
9.76593e-07
9.97266e-07