/*--------------------------------*- C++ -*----------------------------------*\
| =========                 |                                                 |
| \\      /  F ield         | OpenFOAM: The Open Source CFD Toolbox           |
|  \\    /   O peration     | Version:  2206                                  |
|   \\  /    A nd           | Website:  www.openfoam.com                      |
|    \\/     M anipulation  |                                                 |
\*---------------------------------------------------------------------------*/
FoamFile
{
    version     2.0;
    format      ascii;
    arch        "LSB;label=32;scalar=64";
    class       surfaceScalarField;
    location    "90";
    object      phi;
}
// * * * * * * * * * * * * * * * * * * * * * * * * * * * * * * * * * * * * * //

dimensions      [0 3 -1 0 0 0 0];

oriented        oriented;

internalField   nonuniform List<scalar> 
198714
(
6.75556e-14
3.29164e-12
-9.44468e-13
2.56134e-13
-1.21814e-07
1.21812e-07
-3.58702e-11
-2.8246e-12
-1.95773e-12
3.43606e-11
3.74708e-11
-2.96821e-11
-6.03164e-11
5.89207e-11
-6.12252e-11
6.14728e-11
1.14379e-07
-4.08366e-11
-2.56721e-12
-1.45523e-12
2.16669e-11
4.22313e-11
-2.16226e-11
-4.61985e-12
3.00612e-11
-2.96377e-11
6.11937e-12
-1.15478e-07
1.15479e-07
2.49128e-11
4.16644e-11
5.03114e-11
3.53035e-11
2.74332e-08
3.23501e-11
3.52889e-11
4.2981e-11
4.17174e-11
2.74196e-08
-2.7572e-08
2.30461e-13
1.69338e-11
3.37439e-11
-1.75947e-11
1.91143e-11
2.81485e-11
-2.9074e-11
-1.86362e-11
-1.16559e-07
1.16558e-07
-3.25264e-11
1.32474e-12
8.42775e-13
1.73404e-11
3.35867e-11
-2.23343e-11
1.85723e-11
2.7694e-11
-2.7137e-11
-1.88208e-11
1.16586e-07
4.23718e-11
4.22024e-11
2.74206e-08
-1.93927e-12
3.4148e-11
3.73175e-11
-3.3632e-11
-5.95721e-11
5.86163e-11
-5.8599e-11
6.18653e-11
-1.14395e-07
1.14396e-07
-2.4883e-11
-2.05179e-12
-1.59898e-12
3.10688e-11
2.70287e-11
-3.0566e-11
-4.03127e-11
5.76307e-11
-5.79559e-11
4.14328e-11
-1.15452e-07
1.15452e-07
-1.3094e-12
-1.23048e-12
3.07213e-11
2.7041e-11
-3.02484e-11
-4.08652e-11
5.79927e-11
-5.88026e-11
4.16137e-11
1.15459e-07
4.94224e-11
3.5739e-11
2.74246e-08
-2.75754e-08
-5.55665e-13
-6.77814e-14
2.13358e-11
4.25404e-11
-2.20604e-11
-4.47111e-12
2.97433e-11
-2.99423e-11
5.85694e-12
1.15533e-07
-7.56414e-15
-4.7247e-12
1.36249e-08
-1.29718e-12
-2.10253e-12
-1.36168e-08
1.01213e-13
-1.53205e-11
2.05101e-08
2.82679e-12
1.50626e-12
-2.04993e-08
2.01543e-13
-2.35277e-12
6.80018e-09
-2.96002e-12
2.49171e-12
-1.28353e-11
1.3329e-08
-4.138e-12
-1.2674e-12
-1.33132e-08
-4.91601e-11
-3.08465e-14
1.98719e-08
4.67287e-12
1.48389e-11
-1.98422e-08
-1.57381e-12
-1.92307e-13
1.21806e-07
-1.35661e-12
-1.83266e-12
-1.22119e-07
1.22118e-07
-5.33405e-14
-6.6499e-13
1.22148e-07
9.83297e-12
1.26594e-11
-3.01052e-11
2.10885e-08
-1.54829e-11
2.32757e-13
-2.45712e-12
-9.8679e-11
1.32288e-10
-1.30659e-10
9.87701e-11
1.18298e-07
4.93094e-11
1.12562e-13
2.41632e-08
1.07413e-11
-9.42401e-11
-2.35275e-12
-4.87881e-12
6.67015e-09
-1.37529e-12
-6.66154e-09
2.34068e-14
-1.00072e-12
-5.10822e-12
1.3827e-12
-1.08798e-12
4.81876e-12
1.17818e-07
2.7992e-12
4.74906e-12
-1.21137e-11
2.14565e-08
-6.05042e-12
1.95696e-13
1.51826e-11
2.47837e-08
-2.40159e-11
3.92729e-12
-9.8454e-12
4.91345e-12
-2.2453e-11
2.15785e-08
3.90365e-12
-2.93561e-12
2.8836e-12
-1.51114e-11
2.17029e-08
4.32725e-14
-2.99688e-12
6.79888e-09
-2.33825e-12
-6.79356e-09
-4.94611e-12
6.66874e-09
-1.14594e-12
-6.66016e-09
-3.46901e-12
-1.52436e-11
2.18736e-08
6.4077e-13
-2.18585e-08
-9.84181e-12
-2.22936e-11
2.14112e-08
4.49001e-12
-2.13885e-08
-4.41495e-12
1.36319e-08
-1.13829e-12
-2.39483e-12
-1.54449e-11
2.0514e-08
2.98088e-12
1.59286e-12
-1.14854e-11
2.14464e-08
-6.54864e-12
-2.14366e-08
9.11072e-13
-8.31419e-13
1.81791e-11
9.35695e-13
1.92377e-13
-1.69263e-11
-1.20365e-07
1.20362e-07
3.56326e-13
2.47854e-08
4.22184e-12
-2.3833e-11
-2.47815e-08
3.00331e-12
-1.12647e-11
2.14403e-08
-6.18799e-12
5.07207e-13
1.74863e-11
7.15879e-13
-2.02142e-13
-1.74996e-11
1.20376e-07
2.47882e-08
4.28932e-12
-2.3706e-11
-1.50662e-11
2.17575e-08
-9.35235e-14
5.00607e-12
-2.27813e-11
2.15321e-08
4.32779e-12
-2.00513e-12
6.67135e-09
-1.21859e-12
-2.97695e-11
2.10754e-08
-1.57395e-11
-2.10526e-08
6.20234e-13
-3.84423e-12
-9.7854e-11
1.32634e-10
-1.30477e-10
9.96115e-11
-1.18304e-07
1.18301e-07
3.14492e-14
2.41649e-08
1.06446e-11
-9.40944e-11
-2.41306e-08
-1.29594e-11
1.33296e-08
-4.07881e-12
-1.25501e-12
-1.33136e-08
-4.92265e-11
1.9868e-08
1.47909e-11
4.42709e-12
-1.9838e-08
-4.21105e-12
-7.98156e-11
1.31982e-10
-1.30227e-10
8.20746e-11
-1.1957e-07
1.19569e-07
9.94086e-12
-2.98804e-11
2.10626e-08
-1.55063e-11
-2.10401e-08
2.41611e-08
-9.4158e-11
1.03778e-11
-2.41265e-08
1.33342e-08
-3.5308e-12
-1.48007e-12
4.88382e-14
1.98741e-08
4.62257e-12
1.45912e-11
-2.50177e-12
-8.0372e-11
1.31669e-10
-1.30651e-10
8.15803e-11
1.1957e-07
1.28747e-11
-2.98117e-11
2.1073e-08
-1.54836e-11
4.91556e-11
2.4161e-08
-9.40921e-11
1.04427e-11
2.151e-12
1.33273e-08
-4.05002e-12
-1.49883e-12
1.98708e-08
1.44393e-11
4.45902e-12
-2.2303e-11
2.1463e-08
4.15391e-12
-2.14398e-08
2.80293e-12
-1.60798e-11
2.18258e-08
5.95122e-13
4.53719e-13
6.80098e-09
-2.69871e-12
4.15821e-13
-5.05615e-12
1.50499e-12
-1.09308e-12
4.65205e-12
1.17835e-07
4.90659e-12
-1.17312e-11
2.14489e-08
-6.17134e-12
1.50999e-11
2.47874e-08
-2.40014e-11
4.07254e-12
1.36288e-08
-9.35045e-13
-2.40101e-12
9.28604e-14
2.05087e-08
1.39955e-12
2.58212e-12
-2.99931e-13
1.36276e-08
-9.96365e-13
-2.34782e-12
2.05123e-08
1.54238e-12
2.35589e-12
6.6688e-09
-1.56397e-12
6.79864e-09
-2.72941e-12
-2.03601e-12
-5.6552e-09
3.21471e-13
4.22571e-12
5.65269e-09
9.8197e-13
3.7466e-14
4.6545e-12
2.39603e-12
1.36168e-08
2.10062e-08
-1.17246e-12
-2.47861e-12
-9.27121e-12
-2.09946e-08
2.2952e-12
8.46935e-12
2.09944e-08
-2.09985e-13
-3.55912e-12
-5.6526e-09
3.7497e-13
1.16136e-12
-1.00548e-08
2.10378e-12
1.00515e-08
-2.16056e-12
-1.615e-12
1.99062e-13
1.47667e-11
2.0499e-08
1.22204e-08
2.90163e-13
-1.96886e-13
-2.07431e-12
-1.22156e-08
1.94271e-08
2.00184e-12
-1.30925e-11
-1.9417e-08
6.04118e-15
2.11287e-12
1.22165e-08
1.21772e-11
1.94168e-08
-1.94778e-12
-1.00508e-08
1.60593e-13
2.8414e-12
2.05187e-12
6.79512e-09
-1.19105e-11
-1.04279e-12
1.74962e-12
-9.7413e-09
-5.9231e-13
9.7531e-09
4.5943e-12
1.47597e-11
-1.9842e-08
-5.80638e-14
1.98723e-08
-4.95818e-11
6.71269e-12
-1.88304e-08
1.88572e-08
-4.08059e-11
-1.18246e-08
-2.96211e-14
-5.19598e-13
1.18389e-08
2.65603e-12
-5.49494e-09
5.48803e-09
2.12734e-12
2.12964e-12
3.82624e-12
1.33134e-08
-2.16477e-12
1.23947e-11
1.56576e-12
2.04668e-08
3.3986e-12
-7.00156e-12
-2.6582e-11
-2.04408e-08
2.04412e-08
6.75901e-12
2.53498e-11
-1.84828e-12
-1.76884e-12
-5.48792e-09
-3.69896e-12
-1.60517e-12
5.49508e-09
-4.06977e-12
2.45601e-12
-1.21495e-12
1.33292e-08
-1.30635e-11
2.04669e-08
-2.67629e-11
1.15274e-11
1.40238e-12
-9.75268e-09
5.79823e-13
-4.52213e-12
-1.44124e-11
3.26331e-14
4.87093e-11
1.88565e-08
1.19249e-11
-4.0504e-11
-1.88302e-08
1.18381e-08
1.16034e-12
-1.57176e-13
-4.13299e-13
-1.18238e-08
3.98771e-11
6.9385e-15
4.28256e-13
-6.27199e-13
-9.74082e-09
6.66176e-09
2.34861e-12
4.4369e-12
1.60381e-12
-2.44133e-12
-1.16428e-12
6.6704e-09
-5.03726e-12
2.2173e-11
-8.92423e-12
-1.97597e-08
-1.33645e-11
1.99103e-11
1.97399e-08
2.35493e-08
2.29749e-11
-4.3169e-11
-3.39219e-11
2.21178e-11
-4.21099e-12
-4.69539e-12
9.49152e-12
2.15558e-08
1.28493e-08
-9.18357e-12
1.92078e-12
-1.42445e-12
4.28784e-11
3.29836e-11
2.35177e-08
-2.22271e-12
1.28846e-12
1.28371e-08
1.38113e-11
-2.01874e-11
1.78551e-11
-6.75068e-12
-1.89293e-08
-1.23377e-11
1.49545e-11
1.89156e-08
2.29764e-08
1.75386e-11
-3.08109e-11
-2.26095e-11
1.47125e-11
-7.21614e-13
-2.71711e-12
3.29113e-12
2.16883e-08
1.27579e-08
-7.1707e-12
2.69665e-13
-1.86314e-12
2.96962e-11
2.32028e-11
2.29561e-08
-5.50155e-13
1.74825e-12
1.27492e-08
1.23465e-11
-1.6112e-11
-3.2855e-12
-4.0223e-12
-1.52333e-08
1.52149e-08
5.51204e-09
-3.31996e-12
-1.60179e-12
5.54682e-09
-4.0783e-12
-1.82647e-12
1.22939e-12
5.50529e-09
1.52069e-12
5.54074e-09
2.40948e-12
2.87794e-12
6.79363e-09
6.66037e-09
4.43539e-12
1.77133e-12
-1.01843e-12
6.66898e-09
-5.13996e-12
-6.7045e-12
1.7428e-11
-1.9848e-08
-1.12135e-11
1.81789e-11
1.98303e-08
2.3772e-08
1.69496e-11
-3.29621e-11
-2.19054e-11
-2.37493e-08
-3.06418e-13
1.48194e-11
3.25302e-12
2.18582e-08
1.29722e-08
-7.04085e-12
1.96104e-13
-1.67534e-12
-1.2963e-08
-1.1727e-13
1.93788e-12
1.29633e-08
3.22496e-11
2.23946e-11
2.37496e-08
1.12809e-11
-1.89863e-11
-1.98304e-08
-8.59815e-12
2.28563e-11
-1.88449e-08
-1.35332e-11
1.5952e-11
1.88282e-08
2.27698e-08
2.40637e-11
-3.95839e-11
-3.41593e-11
-2.27424e-08
-3.7231e-12
2.19072e-11
8.76548e-12
2.13887e-08
1.26387e-08
-8.99037e-12
2.2539e-12
-1.20596e-12
-1.26263e-08
-1.77934e-12
1.64261e-12
1.26265e-08
3.90573e-11
3.26808e-11
2.27428e-08
1.44664e-11
-1.63369e-11
-1.88279e-08
-3.41479e-12
-3.07377e-12
-1.52345e-08
1.52162e-08
5.54268e-09
-3.8284e-12
-1.85357e-12
-5.5368e-09
5.51567e-09
-3.26773e-12
-1.44552e-12
-5.50871e-09
2.16119e-12
5.53699e-09
1.88075e-12
5.50894e-09
-1.52159e-08
-1.46268e-12
-5.66085e-09
3.20365e-13
3.6131e-12
5.65838e-09
7.7385e-13
5.09918e-12
2.0384e-12
1.36242e-08
2.10212e-08
-1.60497e-12
-2.48463e-12
-9.3056e-12
2.35393e-12
9.05047e-12
2.10091e-08
-2.54691e-13
-3.93621e-12
2.13254e-13
1.70819e-12
-1.00624e-08
1.72273e-12
1.0059e-08
-2.44747e-12
-1.26063e-12
1.47712e-11
2.05032e-08
1.22243e-08
1.65054e-13
-2.08297e-12
1.94367e-08
1.97811e-12
-1.29349e-11
1.99767e-12
1.22201e-08
1.24554e-11
1.94271e-08
-1.99183e-12
1.73269e-11
5.99636e-11
-1.89607e-08
-1.10486e-10
-1.09914e-10
1.91038e-08
2.33519e-08
1.40668e-11
-3.38269e-11
-2.18984e-11
-8.75756e-12
1.05771e-11
3.53684e-12
2.1755e-08
1.27508e-08
-8.70476e-12
-1.81081e-12
-1.83105e-12
-2.07014e-11
1.01696e-12
1.27791e-08
-6.70564e-13
2.65226e-11
2.33966e-08
-1.72495e-12
-3.36661e-11
-1.9889e-11
-3.24164e-11
-1.97458e-08
9.17115e-11
1.36699e-10
1.95697e-08
2.31903e-08
2.66471e-11
-3.91684e-11
-3.47676e-11
2.70377e-11
3.92314e-12
-4.43798e-12
9.18171e-12
2.14964e-08
1.28605e-08
-7.88904e-12
4.04267e-12
-1.3417e-12
7.19615e-11
2.97477e-11
2.30957e-08
1.85008e-11
1.98951e-12
1.28115e-08
2.84304e-11
-3.31355e-12
1.62274e-11
-2.30194e-11
-1.52398e-08
1.52278e-08
5.54651e-09
-6.03917e-12
-1.78123e-12
5.51333e-09
-1.33069e-12
-1.63717e-12
1.09398e-12
5.54094e-09
1.67655e-12
5.50714e-09
2.42861e-12
1.39607e-12
6.66309e-09
-8.81893e-13
-1.21448e-11
1.73152e-12
-9.74045e-09
-5.11902e-13
9.75225e-09
1.47769e-11
4.4052e-12
-1.98385e-08
1.98688e-08
-4.96237e-11
-1.18237e-08
-5.61298e-13
1.18381e-08
6.69201e-12
-1.8824e-08
1.88507e-08
-4.11887e-11
2.76793e-12
-5.494e-09
5.48705e-09
2.15224e-12
2.02587e-12
3.99922e-12
1.3314e-08
1.24104e-11
1.4757e-12
2.04615e-08
3.48406e-12
-6.93901e-12
-2.65963e-11
-2.04355e-08
2.04358e-08
6.88986e-12
2.55554e-11
-1.89195e-12
-1.64821e-12
-5.48697e-09
-3.68135e-12
-1.65206e-12
5.49412e-09
-3.98702e-12
-1.21535e-12
1.333e-08
-1.31589e-11
2.04616e-08
-2.67268e-11
1.46922e-12
1.15914e-11
-9.75188e-09
5.27505e-13
-1.45592e-11
-4.67339e-12
4.88003e-11
1.18371e-08
1.00923e-12
-3.75264e-13
-1.18231e-08
1.885e-08
1.22209e-11
-4.09284e-11
-1.88238e-08
3.68089e-13
3.98613e-11
-4.23454e-13
-9.74012e-09
2.82181e-12
-5.49817e-09
2.14386e-12
1.70069e-12
5.4915e-09
4.1658e-12
1.25278e-11
1.37605e-12
1.33186e-08
2.04737e-08
2.98493e-12
-6.62021e-12
-2.61566e-11
6.84144e-12
2.57696e-11
2.04481e-08
-1.65578e-12
-2.17317e-12
1.15595e-11
1.30763e-12
-9.7594e-09
3.62999e-13
9.74831e-09
-4.51705e-12
-1.44475e-11
2.00415e-13
4.87969e-11
1.9844e-08
1.88599e-08
1.13274e-11
-4.00277e-11
1.18445e-08
1.12072e-12
4.6539e-14
-6.39485e-13
4.01601e-11
1.88336e-08
1.16706e-13
4.2658e-13
1.18309e-08
-8.75301e-13
3.21279e-12
-5.49333e-09
1.95615e-12
1.72769e-12
5.48643e-09
3.88138e-12
-2.53587e-12
1.2894e-11
1.21751e-12
1.33119e-08
2.04596e-08
3.00495e-12
-6.9461e-12
-2.65106e-11
6.65124e-12
2.58928e-11
2.04341e-08
-1.97742e-12
-2.13276e-12
1.11922e-12
1.1687e-11
-9.75184e-09
3.84147e-13
9.74061e-09
-1.45794e-11
-4.42564e-12
4.89389e-11
1.98411e-08
1.1841e-08
1.18123e-12
-7.65581e-13
1.88501e-08
1.19155e-11
-4.07775e-11
4.15443e-13
1.18273e-08
4.01336e-11
1.88239e-08
-6.06204e-13
-8.35954e-12
2.26865e-11
-1.88474e-08
-1.40024e-11
1.5786e-11
1.88313e-08
2.31296e-08
2.35291e-11
-4.13431e-11
-3.36768e-11
-2.31004e-08
-3.88823e-12
2.19105e-11
9.23419e-12
2.14402e-08
1.26299e-08
-8.76463e-12
1.97801e-12
-1.34425e-12
-1.26176e-08
-2.04278e-12
1.35458e-12
1.26184e-08
4.14105e-11
3.32857e-11
2.30995e-08
1.46335e-11
-1.59183e-11
-1.88314e-08
1.72669e-11
-6.93251e-12
-1.98598e-08
-1.06138e-11
1.83758e-11
1.98417e-08
2.34037e-08
1.76766e-11
-3.23991e-11
-2.27035e-11
-2.33824e-08
1.47862e-11
-7.31028e-13
-2.15926e-12
3.0037e-12
2.18109e-08
1.29884e-08
-7.5991e-12
1.95893e-13
-1.85378e-12
3.05527e-11
2.26038e-11
2.33826e-08
-1.08182e-13
2.00497e-12
1.29788e-08
1.09468e-11
-1.99942e-11
-1.98407e-08
-2.72473e-12
-3.82216e-12
-1.52424e-08
1.52243e-08
5.51646e-09
-3.21663e-12
-1.7044e-12
-5.50956e-09
5.54569e-09
-3.88132e-12
-1.76518e-12
1.51661e-12
5.51017e-09
2.20718e-12
5.53954e-09
-1.52239e-08
1.57401e-13
2.58834e-12
6.79608e-09
-1.69685e-12
-5.65652e-09
4.21626e-13
3.75268e-12
5.65405e-09
1.27087e-12
4.57607e-12
2.16161e-12
1.3621e-08
2.10097e-08
-1.26738e-12
-2.21662e-12
-9.67456e-12
2.53841e-12
8.64127e-12
2.09981e-08
-5.19492e-14
-3.8731e-12
1.80322e-12
1.47106e-13
-1.00552e-08
1.67644e-12
1.0052e-08
-1.60092e-12
-2.45268e-12
-1.00734e-13
1.50037e-11
2.04979e-08
1.94268e-08
1.8598e-12
-1.26678e-11
1.22204e-08
2.67177e-13
-3.45145e-14
-2.21354e-12
1.26194e-11
1.94169e-08
-8.12248e-14
1.98736e-12
1.22162e-08
-2.07087e-12
-1.53457e-12
-5.65943e-09
4.73194e-13
3.79593e-12
5.6567e-09
1.02275e-12
-8.0714e-14
4.92952e-12
2.1676e-12
1.36196e-08
2.10165e-08
-1.24744e-12
-2.27129e-12
-9.46584e-12
2.46354e-12
8.71658e-12
2.10048e-08
-8.47554e-14
-3.94125e-12
1.78406e-12
3.44714e-13
-1.00602e-08
1.7854e-12
1.00568e-08
-1.45056e-12
-2.21865e-12
1.49374e-11
2.05009e-08
1.94337e-08
1.7106e-12
-1.25904e-11
1.22223e-08
1.26082e-13
-2.21892e-12
1.2581e-11
1.94239e-08
1.96161e-12
1.22184e-08
-2.14768e-12
1.21795e-12
6.66034e-09
2.35325e-12
6.7935e-09
-2.11437e-13
1.80915e-12
-1.28301e-07
1.28298e-07
-1.32241e-12
8.91069e-13
-1.25596e-07
1.25593e-07
1.21684e-12
-1.04104e-13
-1.37438e-07
1.37435e-07
2.09876e-11
2.32152e-11
-2.29161e-08
2.29068e-08
2.59288e-08
2.25416e-11
2.48799e-08
2.35647e-11
-4.91875e-11
-3.31611e-11
2.75852e-08
2.59133e-08
2.48776e-08
1.88723e-11
2.5688e-11
-2.29079e-08
2.28974e-08
2.60305e-08
1.91205e-11
-2.60227e-08
2.47759e-08
2.69912e-11
-2.47666e-08
-4.11796e-11
-4.0459e-11
2.75723e-08
2.60229e-08
2.47666e-08
-2.28971e-08
-1.82173e-11
6.23518e-11
-2.29158e-08
2.28985e-08
2.59812e-08
1.71046e-11
2.48272e-08
2.8582e-11
-4.67412e-11
-3.53264e-11
2.75737e-08
2.48045e-08
2.59852e-08
2.13369e-11
2.30836e-11
-2.29002e-08
2.289e-08
2.58651e-08
2.44245e-11
-2.58503e-08
2.49176e-08
2.14065e-11
-2.4914e-08
-3.37005e-11
-4.84847e-11
2.7576e-08
2.49141e-08
2.58505e-08
-2.28903e-08
7.02576e-14
1.28298e-07
-1.53473e-12
-1.95844e-13
1.25594e-07
-3.90115e-13
1.37439e-07
-2.3192e-12
-1.29497e-07
1.29495e-07
-4.15975e-13
8.68257e-13
-1.23472e-07
1.23469e-07
1.25445e-12
-1.37588e-07
1.37584e-07
-1.53929e-12
1.29506e-07
7.51622e-13
1.23476e-07
1.37593e-07
-3.73812e-11
-4.93581e-11
-2.59951e-08
-2.58686e-11
2.60473e-08
2.48025e-08
-3.88726e-11
3.00291e-11
1.48101e-11
2.10654e-08
2.3039e-08
-5.01681e-11
-1.41663e-11
2.47637e-08
1.3732e-11
2.30165e-08
2.47303e-11
-7.32682e-11
1.79508e-11
-2.60336e-08
2.59644e-08
-9.86964e-12
9.31982e-11
4.35199e-14
2.41286e-08
2.34238e-08
-7.31837e-11
2.69346e-08
1.8982e-11
7.16599e-12
2.33946e-08
-6.95695e-12
2.69221e-08
-2.13375e-11
-1.34401e-11
-2.63795e-08
-5.41827e-11
2.64638e-08
2.51131e-08
-2.10711e-11
-2.50968e-08
1.18955e-11
6.18149e-12
2.1446e-08
2.35295e-08
-1.49666e-11
-4.06432e-12
2.50966e-08
4.46435e-12
2.35264e-08
5.4554e-11
-2.64639e-08
5.45131e-12
-1.85461e-11
-2.6427e-08
2.63808e-08
2.38559e-11
-4.18326e-12
6.56185e-14
2.4779e-08
2.74418e-08
5.61485e-12
4.07833e-13
2.39585e-08
-1.83535e-11
-8.40768e-15
2.74701e-08
2.39529e-08
-1.27978e-11
-2.4604e-11
-2.63608e-08
7.41128e-12
2.64099e-08
2.51275e-08
-2.45962e-11
-2.51082e-08
5.84188e-12
1.21549e-11
2.14363e-08
2.35292e-08
-1.33352e-11
-7.81996e-12
-2.35238e-08
7.01655e-12
2.35237e-08
2.51084e-08
-7.99478e-12
-2.64094e-08
-1.65293e-11
8.64714e-12
-2.64374e-08
2.64709e-08
-3.75326e-12
2.30041e-11
2.06782e-13
2.47807e-08
2.39606e-08
-1.7757e-11
-2.39595e-08
2.74422e-08
9.39451e-12
5.49942e-13
-2.74751e-08
2.39595e-08
-2.60281e-13
2.74744e-08
-2.64707e-08
-1.30238e-11
-2.50757e-11
-2.63601e-08
7.9395e-12
2.64088e-08
2.50741e-08
-2.42138e-11
5.85419e-12
1.26081e-11
2.14305e-08
2.35332e-08
-1.32952e-11
-7.56845e-12
7.12728e-12
2.35279e-08
2.5061e-08
-7.72238e-12
-1.71149e-11
9.17249e-12
-2.64404e-08
2.64738e-08
-3.68139e-12
2.301e-11
2.47839e-08
2.39663e-08
-1.75843e-11
2.74451e-08
9.16466e-12
2.39651e-08
2.74768e-08
-4.86628e-11
-3.68365e-11
-2.59931e-08
-2.63248e-11
2.60454e-08
2.47476e-08
-3.83658e-11
-2.47145e-08
1.41167e-11
2.95375e-11
2.10529e-08
2.30372e-08
-5.03659e-11
-1.44104e-11
-2.30147e-08
1.36028e-11
2.30144e-08
2.47143e-08
2.49013e-11
-2.60449e-08
-7.31048e-11
1.76842e-11
-2.6036e-08
2.59672e-08
-9.94177e-12
9.33259e-11
-1.15063e-13
2.41303e-08
2.34256e-08
-7.37085e-11
-2.33962e-08
2.69368e-08
1.90022e-11
7.2132e-12
-2.69244e-08
2.33961e-08
-7.11014e-12
2.69244e-08
-2.59662e-08
-4.83342e-11
-4.04076e-11
-2.59632e-08
2.85851e-11
2.5983e-08
2.47519e-08
-4.13235e-11
-2.47165e-08
1.44443e-11
2.97363e-11
2.10401e-08
2.30258e-08
-4.94908e-11
-1.72971e-11
-2.30012e-08
1.64256e-11
2.30011e-08
2.47165e-08
-2.99525e-11
-2.59826e-08
2.10485e-11
-7.2073e-11
-2.60333e-08
2.60331e-08
9.35125e-11
-1.01337e-11
2.41264e-08
2.69334e-08
2.19696e-11
-2.69103e-08
2.34153e-08
-7.35934e-11
-2.33896e-08
2.69106e-08
2.33894e-08
-2.60328e-08
-4.03114e-11
-4.82735e-11
-2.59701e-08
2.87179e-11
2.59891e-08
2.48081e-08
-4.15682e-11
3.01284e-11
1.4405e-11
2.10508e-08
2.30285e-08
-4.91283e-11
-1.71856e-11
2.47721e-08
1.64007e-11
2.30041e-08
-2.97267e-11
2.11438e-11
-7.19789e-11
-2.60359e-08
2.60351e-08
9.35112e-11
-1.00236e-11
2.41265e-08
2.69327e-08
2.19106e-11
2.34175e-08
-7.30328e-11
2.69098e-08
2.3392e-08
-2.12543e-11
-1.34869e-11
-2.63844e-08
-5.45122e-11
2.64692e-08
2.50642e-08
-2.08326e-11
1.19443e-11
6.21345e-12
2.14389e-08
2.35348e-08
-1.48654e-11
-4.13023e-12
2.50481e-08
4.35942e-12
2.35319e-08
5.45186e-11
5.37655e-12
-1.84662e-11
-2.64331e-08
2.63866e-08
2.3557e-11
-3.86489e-12
2.47827e-08
2.74457e-08
5.48585e-12
2.39643e-08
-1.83252e-11
2.74735e-08
2.39589e-08
-1.12838e-12
-1.84573e-13
2.32385e-09
2.72798e-14
-2.32467e-09
-5.35953e-13
-1.44858e-13
1.25045e-09
4.05886e-14
-1.25094e-09
-2.14823e-13
-8.94749e-14
6.13965e-10
3.30857e-14
-6.14225e-10
-5.79352e-14
-4.56073e-14
2.53583e-10
1.88837e-14
-2.5371e-10
-1.18564e-14
6.00716e-11
5.08741e-15
-6.01209e-11
-1.61314e-12
1.80511e-13
4.34741e-09
-3.39228e-13
-7.61877e-13
1.52535e-13
2.33482e-09
-2.06904e-13
-3.04792e-13
9.69506e-14
1.14689e-09
-1.07415e-13
-9.38018e-14
4.90627e-14
4.74559e-10
-4.35196e-14
1.39598e-14
1.12817e-10
-1.34122e-14
-6.83514e-13
1.54354e-13
2.32659e-09
-2.3579e-13
-2.3271e-09
-3.11563e-13
5.30791e-14
1.25192e-09
-1.12482e-13
-1.25224e-09
-1.203e-13
1.73766e-14
6.14679e-10
-4.96198e-14
-6.1484e-10
-3.1404e-14
3.09743e-15
2.53855e-10
-1.91328e-14
-2.53932e-10
1.26928e-16
6.01308e-11
-4.5969e-15
-6.0161e-11
-7.42753e-13
-1.17307e-13
4.35046e-09
1.1171e-13
-4.35109e-09
-3.42449e-13
-3.90291e-14
2.33641e-09
6.97359e-14
-2.33683e-09
-1.3751e-13
-1.64236e-14
1.14768e-09
4.28364e-14
-1.1479e-09
-4.14784e-14
-6.28526e-15
4.74902e-10
2.12067e-14
-4.75002e-10
-3.43209e-16
1.12912e-10
7.3928e-15
-1.12955e-10
-1.21963e-12
4.34637e-09
-2.04401e-13
-4.34747e-09
-5.49717e-13
2.33423e-09
-1.10882e-13
-2.33494e-09
-2.11794e-13
1.14653e-09
-5.57616e-14
-1.1469e-09
-5.9658e-14
4.74406e-10
-2.3921e-14
-4.74585e-10
1.12831e-10
-5.1289e-15
-1.12901e-10
-5.70893e-13
4.3494e-09
1.89032e-13
-4.35e-09
-2.43678e-13
2.33582e-09
1.2372e-13
-2.33621e-09
-1.0063e-13
1.14738e-09
7.43455e-14
-1.14756e-09
-4.03976e-14
4.74734e-10
3.74269e-14
-4.74813e-10
1.12867e-10
9.71403e-15
-1.12906e-10
-1.29901e-12
2.32527e-09
-1.29638e-14
-6.11962e-13
1.25124e-09
2.12019e-14
-2.3536e-13
6.14378e-10
2.10309e-14
-5.92066e-14
2.53727e-10
1.10865e-14
6.00954e-11
4.30843e-15
-5.89442e-13
3.9951e-15
1.52155e-13
4.351e-09
-2.33585e-13
4.25365e-14
9.79598e-14
2.33689e-09
-7.82734e-14
3.27273e-14
5.78524e-14
1.14795e-09
-3.16235e-14
1.79082e-14
2.83161e-14
4.75001e-10
5.44694e-15
8.6315e-15
1.12955e-10
-6.77305e-13
2.32693e-09
-2.41352e-13
-2.32739e-09
-3.04794e-13
1.25217e-09
-1.31416e-13
-1.25245e-09
-1.13536e-13
6.14765e-10
-7.04124e-14
-6.14913e-10
-2.78523e-14
2.53919e-10
-3.45352e-14
-2.53988e-10
6.01328e-11
-6.52176e-15
-6.01623e-11
-8.15231e-13
2.32753e-09
-1.12308e-13
-3.87615e-13
1.25253e-09
-2.95733e-14
-1.57227e-13
6.14996e-10
-4.36121e-16
-4.77803e-14
2.54015e-10
5.5763e-15
6.01685e-11
5.35072e-17
-8.00572e-13
7.64819e-14
2.32661e-09
-2.57099e-13
-3.49866e-13
6.98386e-15
1.25194e-09
-1.33344e-13
-1.16187e-13
-8.18183e-15
6.14663e-10
-6.83277e-14
-2.31634e-14
-9.02625e-15
2.53882e-10
-3.18507e-14
-2.72343e-15
6.01437e-11
-7.04928e-15
-1.5003e-12
2.65492e-13
-2.15906e-13
4.34816e-09
-7.29019e-13
1.91715e-13
-1.12194e-13
2.33516e-09
-3.0365e-13
1.15962e-13
-5.43546e-14
1.1471e-09
-8.91037e-14
5.80699e-14
-2.14043e-14
4.74634e-10
1.55883e-14
-5.83263e-15
1.12858e-10
-1.31544e-12
2.3247e-09
6.45607e-14
-6.26526e-13
1.25099e-09
6.18581e-14
-2.44017e-13
6.14238e-10
3.94397e-14
-5.92687e-14
2.53679e-10
1.74688e-14
6.00857e-11
6.31998e-15
-1.27838e-12
-2.09191e-13
2.32463e-09
4.78099e-14
-6.09825e-13
-1.53188e-13
1.25099e-09
5.19172e-14
-2.41168e-13
-8.89208e-14
6.14219e-10
3.54977e-14
-6.35113e-14
-4.16796e-14
2.53694e-10
1.76392e-14
-1.24291e-14
6.00827e-11
4.8635e-15
-8.94039e-13
9.22479e-14
4.34951e-09
-4.40074e-13
6.25489e-14
2.33591e-09
-1.89745e-13
4.33601e-14
1.14746e-09
-6.40572e-14
2.58309e-14
4.74818e-10
5.96486e-15
1.12891e-10
-1.49657e-12
-2.8287e-13
4.34649e-09
-7.05933e-13
-1.61704e-13
2.33442e-09
-2.77149e-13
-8.24643e-14
1.14665e-09
-7.48682e-14
-3.48495e-14
4.74463e-10
-8.31597e-15
1.12793e-10
2.39694e-12
3.93989e-14
2.02382e-13
-4.34377e-09
4.34536e-09
1.17645e-12
5.20337e-14
1.20796e-13
-2.33085e-09
2.3319e-09
4.7446e-13
3.90949e-14
6.93203e-14
-1.14417e-09
1.14477e-09
1.17547e-13
2.15626e-14
3.4118e-14
-4.73214e-10
4.73519e-10
5.21333e-15
8.18906e-15
-1.12477e-10
1.12584e-10
1.31224e-12
1.82121e-13
2.32479e-09
6.34623e-13
1.45283e-13
1.25103e-09
2.52833e-13
8.83654e-14
6.14293e-10
6.48766e-14
4.2928e-14
2.53747e-10
1.23981e-14
6.01305e-11
1.07875e-12
-1.67079e-13
1.02871e-13
4.34844e-09
5.13181e-13
-1.4091e-13
5.36297e-14
2.33545e-09
2.17191e-13
-9.34495e-14
3.28212e-14
1.14722e-09
7.06719e-14
-5.0831e-14
1.75377e-14
4.74718e-10
-1.24086e-14
3.96412e-15
1.12884e-10
-3.205e-13
-8.71555e-14
-2.66123e-09
1.73391e-13
2.66088e-09
-1.49995e-13
-4.63086e-14
-1.43155e-09
9.20458e-14
1.43134e-09
-6.10309e-14
-2.1441e-14
-7.03203e-10
4.51218e-14
7.03096e-10
-2.3018e-14
-7.01957e-15
-2.90682e-10
1.74556e-14
2.90636e-10
-3.89675e-15
-6.89822e-11
7.37961e-15
6.89569e-11
-2.81893e-13
-1.22919e-14
-2.90533e-09
2.905e-09
-1.27752e-13
-7.54789e-15
-1.56213e-09
1.56193e-09
-4.86065e-14
-3.95693e-15
-7.67614e-10
7.67506e-10
-1.75475e-14
-1.62518e-15
-3.17554e-10
3.17506e-10
-8.41347e-16
-7.54656e-11
7.54404e-11
1.20195e-12
-2.57401e-13
-4.34962e-09
3.95592e-13
4.35042e-09
5.74182e-13
-1.38349e-13
-2.33407e-09
2.41985e-13
2.3346e-09
2.29461e-13
-7.1853e-14
-1.14582e-09
1.37582e-13
1.1461e-09
6.65211e-14
-3.28164e-14
-4.73881e-10
6.5805e-14
4.7401e-10
-7.78471e-15
-1.12639e-10
1.65838e-14
1.12695e-10
8.63842e-13
2.32716e-09
-1.17348e-13
4.11232e-13
1.25228e-09
-3.9525e-14
1.59309e-13
6.14872e-10
-1.47049e-14
4.06117e-14
2.53947e-10
-3.75883e-15
6.01672e-11
-8.12127e-16
-6.42534e-13
8.25401e-14
-1.79451e-13
2.32668e-09
-2.94548e-13
6.58318e-15
-7.21445e-14
1.25199e-09
-1.14392e-13
-6.85923e-15
-2.74106e-14
6.14723e-10
-3.50447e-14
-5.98554e-15
-9.66814e-15
2.53879e-10
-3.01508e-15
-2.36099e-15
6.01346e-11
8.4051e-13
4.3512e-09
1.35478e-13
-1.1374e-13
3.80448e-13
2.33689e-09
3.52807e-14
-5.88206e-14
1.45686e-13
1.14793e-09
5.61247e-15
-2.90521e-14
4.53193e-14
4.75016e-10
-2.75285e-15
-1.20902e-14
1.12962e-10
-8.45686e-16
-4.04465e-15
-6.24862e-13
-1.06816e-13
4.35062e-09
1.51981e-13
-2.87981e-13
-3.08912e-14
2.33649e-09
8.69044e-14
-1.12595e-13
-1.08454e-14
1.14772e-09
4.8852e-14
-3.46181e-14
-4.19841e-15
4.74915e-10
2.3419e-14
1.01732e-15
1.12916e-10
6.47357e-15
-7.54187e-13
2.31045e-09
-4.74813e-14
-3.53847e-13
1.24294e-09
-1.62841e-14
-1.33189e-13
6.10264e-10
-8.45755e-15
-3.21479e-14
2.52034e-10
-5.41386e-15
5.97068e-11
-1.30312e-16
6.34093e-13
-7.46826e-14
2.07336e-13
2.31099e-09
2.86797e-13
-5.87793e-14
1.28693e-13
1.24324e-09
1.0449e-13
-3.06867e-14
7.48376e-14
6.10433e-10
2.38851e-14
-1.13376e-14
3.73863e-14
2.5212e-10
-3.4419e-15
9.15399e-15
5.97401e-11
-1.00856e-12
2.30906e-09
-4.15858e-13
-4.99473e-13
1.24223e-09
-2.17426e-13
-2.05603e-13
6.0991e-10
-1.09101e-13
-5.7137e-14
2.51894e-10
-4.63762e-14
5.96726e-11
-1.26732e-14
9.02752e-13
3.48341e-13
-1.90646e-13
2.30974e-09
4.38402e-13
1.94003e-13
-1.24546e-13
1.24262e-09
1.80262e-13
1.06279e-13
-7.14752e-14
6.10124e-10
5.13323e-14
4.94454e-14
-3.34984e-14
2.52e-10
1.33994e-14
-8.17807e-15
5.97151e-11
-9.89658e-13
2.0068e-13
4.14957e-09
-5.02552e-13
1.16206e-13
2.22882e-09
-2.15224e-13
6.44596e-14
1.09443e-09
-6.65383e-14
3.11245e-14
4.52628e-10
7.03321e-15
1.07527e-10
-1.08963e-12
4.14942e-09
-5.3322e-13
2.22862e-09
-2.16579e-13
1.09438e-09
-5.99762e-14
4.52572e-10
1.07515e-10
6.9025e-13
-2.37816e-13
4.15025e-09
3.35884e-13
-1.48059e-13
2.22924e-09
1.43947e-13
-8.47752e-14
1.09464e-09
4.82228e-14
-4.09818e-14
4.52723e-10
-9.71767e-15
1.07574e-10
8.47414e-13
4.15022e-09
4.07102e-13
2.22913e-09
1.70543e-13
1.09466e-09
5.16119e-14
4.52711e-10
1.07571e-10
1.57966e-12
2.47379e-13
4.3476e-09
7.57067e-13
1.50658e-13
2.33505e-09
3.02906e-13
8.13588e-14
1.14699e-09
7.9877e-14
3.69502e-14
4.74636e-10
8.03078e-15
1.12914e-10
9.46876e-13
4.3502e-09
-1.06254e-13
4.3357e-13
2.33636e-09
-6.57839e-14
1.68565e-13
1.14766e-09
-4.02964e-14
5.23912e-14
4.74862e-10
-2.07411e-14
1.12921e-10
-6.20547e-15
-5.0751e-13
4.34962e-09
1.50297e-13
-2.1478e-13
2.33599e-09
8.95928e-14
-8.27506e-14
1.14748e-09
5.28579e-14
-3.28162e-14
4.74784e-10
2.69333e-14
1.12877e-10
6.93908e-15
1.07179e-12
-6.10884e-14
2.32613e-09
5.08354e-13
-6.64788e-14
1.25175e-09
2.01096e-13
-4.61427e-14
6.14659e-10
5.02483e-14
-2.32474e-14
2.5387e-10
-6.82202e-15
6.01477e-11
-7.38361e-13
2.31108e-09
1.33068e-13
-3.5898e-13
1.24321e-09
1.00093e-13
-1.45412e-13
6.10386e-10
5.91085e-14
-4.457e-14
2.52115e-10
2.7593e-14
5.97233e-11
6.99984e-15
1.02559e-12
9.11171e-14
1.30674e-13
2.31182e-09
4.91313e-13
2.9545e-14
7.77434e-14
1.24364e-09
1.94208e-13
1.51484e-14
4.98085e-14
6.10617e-10
5.25753e-14
7.95821e-15
2.66901e-14
2.52222e-10
1.7161e-15
8.23888e-15
5.97653e-11
-9.8081e-13
4.1506e-09
4.20793e-13
-4.71769e-13
2.22906e-09
2.55906e-13
-1.9104e-13
1.09467e-09
1.37303e-13
-6.08035e-14
4.527e-10
6.08662e-14
1.07545e-10
1.52025e-14
1.00236e-12
1.17131e-15
4.15137e-09
4.8223e-13
7.93488e-15
2.2296e-09
1.93837e-13
1.07942e-14
1.09497e-09
5.99004e-14
7.66502e-15
4.52836e-10
2.5246e-15
1.07605e-10
7.14444e-13
1.75781e-13
4.35165e-09
3.13438e-13
7.64816e-14
2.3373e-09
1.18653e-13
3.51917e-14
1.14816e-09
3.91992e-14
1.34955e-14
4.75099e-10
2.67652e-15
1.13001e-10
-2.71577e-13
-6.00785e-14
-2.66129e-09
1.72831e-13
2.66093e-09
-1.21126e-13
-3.92484e-14
-1.43154e-09
9.86605e-14
1.43133e-09
-4.64395e-14
-2.29403e-14
-7.03153e-10
5.42882e-14
7.0304e-10
-1.58629e-14
-1.08696e-14
-2.90684e-10
2.53357e-14
2.9063e-10
-3.28087e-15
-6.8979e-11
7.50934e-15
6.89543e-11
-3.07646e-13
-2.90518e-09
2.90486e-09
-1.49743e-13
-1.56205e-09
1.56185e-09
-6.3993e-14
-7.6757e-10
7.67466e-10
-2.09147e-14
-3.17535e-10
3.17487e-10
-7.546e-11
7.54362e-11
1.16198e-12
-2.63637e-13
3.84334e-13
-4.3492e-09
4.34994e-09
5.71808e-13
-1.29117e-13
2.23043e-13
-2.33391e-09
2.33439e-09
2.37025e-13
-5.83093e-14
1.18753e-13
-1.14565e-09
1.14591e-09
6.9557e-14
-2.14896e-14
5.2183e-14
-4.73863e-10
4.73986e-10
-7.31811e-15
1.52247e-14
-1.12611e-10
1.12662e-10
8.02344e-13
2.32748e-09
3.73874e-13
1.25251e-09
1.45121e-13
6.14946e-10
4.15066e-14
2.54004e-10
6.01676e-11
-6.59409e-13
-1.95598e-13
2.32701e-09
-3.10312e-13
-9.20545e-14
1.25221e-09
-1.22772e-13
-4.28605e-14
6.14789e-10
-3.72666e-14
-1.85087e-14
2.53929e-10
-4.27765e-15
6.01346e-11
7.41641e-13
3.03584e-13
2.32803e-09
3.55315e-13
1.59409e-13
1.25282e-09
1.44703e-13
7.9385e-14
6.15152e-10
4.03628e-14
3.43597e-14
2.54088e-10
7.90411e-15
6.02009e-11
9.82345e-13
-2.27712e-13
2.63982e-13
-4.34869e-09
4.3494e-09
5.06781e-13
-1.11748e-13
1.44652e-13
-2.33355e-09
2.33396e-09
2.36997e-13
-5.41328e-14
7.13727e-14
-1.14552e-09
1.14572e-09
9.13484e-14
-2.41808e-14
2.75635e-14
-4.73787e-10
4.73874e-10
-5.12463e-15
1.02885e-14
-1.12615e-10
1.12663e-10
6.17067e-13
-1.38044e-13
2.32714e-09
2.68107e-13
-4.10666e-14
1.25224e-09
9.77922e-14
-9.33478e-15
6.14828e-10
2.73744e-14
1.06577e-15
2.53962e-10
6.28532e-16
6.01761e-11
-9.87763e-13
2.31069e-09
-3.72594e-13
-4.76294e-13
1.24297e-09
-1.91647e-13
-1.87753e-13
6.10251e-10
-1.00839e-13
-4.57157e-14
2.52033e-10
-4.78293e-14
5.97233e-11
-1.11645e-14
1.07718e-12
-1.61699e-13
3.85247e-13
2.3114e-09
5.23234e-13
-9.22838e-14
2.24685e-13
1.2434e-09
2.0686e-13
-4.44673e-14
1.26319e-13
6.105e-10
5.31476e-14
-1.67926e-14
6.02367e-14
2.52159e-10
-4.21402e-15
1.49781e-14
5.97717e-11
-9.96921e-13
-2.03138e-13
4.15116e-09
-4.83821e-13
-9.57828e-14
2.22941e-09
-2.02449e-13
-4.18813e-14
1.09473e-09
-6.16631e-14
-1.51217e-14
4.52703e-10
-4.22744e-15
1.07567e-10
1.39384e-12
-1.23299e-13
4.3493e-09
6.63584e-13
-1.10356e-13
2.33589e-09