/*--------------------------------*- C++ -*----------------------------------*\
| =========                 |                                                 |
| \\      /  F ield         | OpenFOAM: The Open Source CFD Toolbox           |
|  \\    /   O peration     | Version:  2206                                  |
|   \\  /    A nd           | Website:  www.openfoam.com                      |
|    \\/     M anipulation  |                                                 |
\*---------------------------------------------------------------------------*/
FoamFile
{
    version     2.0;
    format      ascii;
    arch        "LSB;label=32;scalar=64";
    class       volScalarField;
    location    "0.4";
    object      omega;
}
// * * * * * * * * * * * * * * * * * * * * * * * * * * * * * * * * * * * * * //

dimensions      [0 0 -1 0 0 0 0];

internalField   nonuniform List<scalar> 
66621
(
301.095
152.483
302.089
69.1657
140.82
20.6851
411.824
65.9893
24.9099
20.1589
138.016
32.2923
199.335
197.613
411.005
411.834
32.2464
198.03
199.563
24.9253
139.291
199.515
411.814
69.1684
25.4057
140.847
20.6958
152.482
302.108
69.1657
25.4352
20.6974
140.852
152.483
302.08
69.1614
25.4401
20.6941
140.782
152.481
302.085
32.3077
199.548
197.481
410.304
65.9954
24.8962
20.1531
138.047
148.526
299.958
148.529
299.959
411.755
410.359
210.49
433.015
335.179
168.597
313.39
152.205
168.323
313.31
335.262
434.16
212.331
301.958
212.148
434.165
411.767
246.251
417.819
417.308
417.785
417.271
246.416
161.087
308.23
199.165
100.564
100.324
308.107
161.343
159.604
308.466
197.493
99.2078
99.0112
308.361
159.835
411.778
246.311
416.969
417.891
417.204
417.932
246.372
160.485
307.463
99.4968
307.528
160.624
160.278
309.088
199.398
100.572
309.008
160.501
100.338
417.432
246.709
308.366
100.616
161.064
335.189
313.393
168.597
152.212
313.313
168.334
335.272
434.159
212.342
301.974
212.161
434.163
168.593
313.389
335.262
212.334
434.163
313.391
168.593
335.27
212.333
434.156
246.339
417.799
417.259
417.857
417.175
246.498
160.419
309.013
199.379
100.631
308.95
100.398
160.573
160.348
307.603
197.383
99.225
99.056
307.503
160.51
410.252
332.179
164.618
310.174
148.439
164.521
310.196
332.174
431.254
208.538
299.869
208.459
431.236
332.17
164.618
310.171
148.443
164.523
310.194
332.164
431.259
208.541
299.869
208.461
431.239
410.301
18.7119
17.8896
17.9512
17.7015
18.7146
17.8924
17.9512
17.7015
18.7357
17.9536
17.8883
17.7031
18.7349
17.9532
17.8842
17.7024
39.3314
78.4415
35.4802
68.9395
78.2127
35.3521
39.457
100.522
67.9914
47.7826
37.7531
33.8604
75.1398
65.9196
33.8493
75.058
37.7505
45.997
97.2858
137.931
66.2936
66.2021
97.2084
45.9998
89.5585
32.2529
54.3491
53.8959
54.1862
53.7559
89.7707
89.5869
32.2131
53.8499
54.3991
89.7704
53.7413
54.2238
98.9748
66.9458
46.8593
39.3289
78.4507
35.4825
68.9345
78.2089
35.3498
39.4621
47.66
100.533
140.624
67.981
100.286
67.7689
47.7875
39.3211
35.481
78.4476
68.9303
35.3475
78.2061
39.4576
47.6528
100.543
140.628
67.9291
100.299
47.7794
67.7226
39.3155
35.4775
78.4391
68.9281
35.3448
78.1983
39.4517
47.64
100.521
140.557
67.8802
67.6718
100.276
47.7666
89.7037
32.2706
54.3975
53.9486
53.8214
54.2245
89.8546
37.7575
33.8626
75.1473
65.9261
33.8525
75.0696
37.7554
45.9991
97.2963
137.959
66.3091
66.2127
97.2222
46.005
743.812
1606.59
4403.43
16443.1
116782
743.612
1606.57
4403.6
16445
116802
730.771
1602.6
4400.05
16445.2
116892
730.928
1602.56
4399.91
16443.7
116862
730.778
1602.65
4400.36
16447.5
116912
730.754
1602.52
4399.77
16443.9
116872
743.615
1606.55
4403.57
16445.2
116814
743.595
1606.46
4403.1
16442.3
116781
743.586
1606.5
4403.18
16442.1
116772
731.112
1602.63
4399.92
16444.7
116881
744.091
1606.6
4403.43
16444
116795
744.09
1606.62
4403.41
16444.2
116802
730.756
1602.6
4400.03
16445.3
116892
731.143
1602.71
4400.37
16447.1
116912
735.345
1603.67
4399.19
16433.5
116752
736.618
1602.94
4397.08
16428.3
116727
736.707
1603.06
4397.19
16428.4
116727
735.255
1603.54
4399.06
16433.4
116752
743.723
1606.74
4403.78
16445.2
116802
730.847
1602.73
4400.18
16445.4
116892
742.693
1606.37
4402.97
16443.4
116795
742.777
1606.5
4403.1
16443.5
116795
742.863
1606.4
4403.02
16443.4
116795
742.933
1606.51
4403.14
16443.5
116795
730.852
1602.78
4400.5
16447.7
116912
728.418
1603.08
4401.82
16450
116904
742.658
1606.36
4402.81
16441.8
116778
735.331
1603.66
4399.16
16432.8
116747
736.612
1602.92
4397.02
16428.1
116725
736.701
1603.04
4397.14
16428.2
116725
735.242
1603.53
4399.03
16432.7
116747
743.727
1606.72
4403.75
16445.4
116814
736.616
1602.99
4397.31
16428.7
116749
735.27
1603.63
4399.34
16434.7
116774
736.621
1602.97
4397.32
16429.3
116747
735.267
1603.61
4399.38
16434.8
116769
728.547
1603.11
4402.03
16450.4
116904
742.891
1606.36
4402.69
16440.8
116759
742.963
1606.48
4402.82
16440.9
116759
731.159
1602.73
4400.03
16444.8
116881
735.878
1603.75
4399.46
16434.9
116769
737.153
1603.02
4397.35
16430.2
116747
737.235
1603.11
4397.42
16430.2
116747
735.809
1603.66
4399.37
16434.8
116769
744.174
1606.75
4403.59
16444.1
116795
735.878
1603.76
4399.43
16434.7
116774
737.15
1603.05
4397.35
16429.5
116749
737.232
1603.13
4397.42
16429.6
116749
735.808
1603.67
4399.34
16434.7
116774
744.175
1606.77
4403.57
16444.3
116802
731.191
1602.81
4400.48
16447.2
116912
728.49
1603.07
4401.99
16450.7
116918
728.543
1603.08
4401.92
16450.9
116921
727.94
1600.77
4397.27
16436.8
116835
727.933
1600.91
4397.51
16437.7
116840
727.834
1600.76
4397.35
16437.6
116840
728.46
1603.13
4402.15
16451.3
116918
742.627
1606.35
4402.8
16441.7
116778
742.713
1606.47
4402.92
16441.8
116778
728.565
1603.19
4402.11
16450.7
116918
728.612
1603.2
4402.04
16451
116921
728.501
1603.12
4402.08
16451.4
116933
742.808
1606.36
4402.84
16441.9
116776
742.97
1606.5
4402.96
16442
116776
728.457
1603.09
4401.88
16450.3
116921
742.631
1606.38
4402.96
16443
116795
742.726
1606.51
4403.09
16443.1
116795
728.627
1603.25
4402.19
16451.5
116933
728.564
1603.22
4402
16450.4
116921
727.932
1600.91
4397.54
16437.8
116852
727.833
1600.75
4397.38
16437.6
116852
727.824
1600.71
4397.16
16436.7
116840
727.813
1600.71
4397.22
16436.5
116831
728.555
1603.25
4402.26
16451.4
116918
728.601
1603.23
4402.17
16450.5
116904
728.342
1601.03
4397.48
16437
116835
728.273
1600.9
4397.34
16436.8
116835
728.343
1601
4397.34
16436.9
116840
728.271
1600.87
4397.2
16436.7
116840
411.678
411.975
32.3172
198.794
199.711
152.641
302.3
69.3081
24.9779
141.017
20.3693
152.638
302.316
69.3048
24.9537
20.3711
141.022
24.9575
140.95
302.295
411.954
32.4131
199.77
197.557
410.405
66.0264
24.5932
20.1146
138.143
66.0283
24.5851
20.1149
138.173
148.577
300.094
148.579
300.092
32.3963
199.482
197.723
411.894
410.444
417.593
418.118
246.462
308.194
100.215
161.095
309.292
100.68
160.555
334.712
168.756
313.574
151.538
335.433
167.66
312.875
433.534
212.512
301.463
434.328
211.672
334.72
313.578
168.755
151.532
335.443
312.877
167.656
433.533
212.523
301.476
434.327
211.681
433.527
212.515
301.458
434.32
211.675
411.179
246.053
417.298
417.53
246.725
417.212
416.271
159.66
309.122
100.82
198.89
99.79
160.697
308.097
159.707
307.706
99.2568
197.187
160.64
307.314
98.6286
409.932
332.054
164.676
310.253
148.589
332.246
164.419
310.169
430.884
208.648
299.554
431.353
208.176
332.051
164.671
310.251
148.59
332.233
164.426
310.166
430.904
208.643
299.553
431.345
208.191
245.816
417.944
417.414
246.549
417.291
416.827
160.443
308.391
100.683
198.738
161.473
99.7618
307.672
159.04
308.604
99.3075
197.178
159.955
98.58
307.99
411.15
409.939
18.7285
17.9702
17.8848
17.7068
18.7294
17.971
17.8842
17.7065
18.5984
17.8784
17.8699
17.6963
18.5978
17.8787
17.8689
17.696
54.2488
54.4596
89.8288
38.8147
78.5986
35.5849
68.2845
39.593
77.5381
34.9285
47.1753
100.682
68.1085
139.923
67.1004
47.9451
99.5734
38.8068
35.5844
78.5922
68.2798
39.5812
34.9277
77.53
47.1711
100.691
68.0599
139.924
47.9371
99.5808
67.0475
47.1599
100.669
68.0111
139.857
47.9248
99.5589
67.0111
89.0697
31.9593
54.5259
54.0487
53.6648
89.9913
53.3
37.597
33.8952
75.1992
66.0523
37.8255
33.8716
74.944
45.6655
97.3921
66.4002
137.43
46.1223
65.7074
96.7453
37.6051
33.8959
75.2014
66.054
37.8279
33.8721
74.9545
45.6784
97.3975
66.4177
137.456
46.1261
96.7661
65.7212
89.0022
31.9467
54.4694
54.0068
89.9116
53.6283
53.2687
18.6867
25.2838
18.6866
25.2857
24.8162
32.2313
32.1832
32.2633
24.8441
24.8411
24.8432
24.8365
32.1901
32.2648
25.2766
25.2807
25.2754
25.2793
25.2911
25.2833
25.2865
32.1839
24.8442
24.8368
32.1887
25.2771
25.281
25.289
32.2222
24.8101
148.53
299.915
299.897
148.369
410.348
410.266
152.519
302.051
302.008
152.215
18.6873
18.6868
18.6865
18.6871
18.6877
18.6872
18.6871
69.2207
140.537
20.5763
25.2823
140.864
20.5754
68.9177
148.434
299.877
148.369
299.946
410.332
410.258
152.528
302.03
152.214
302.08
18.6872
18.6866
18.6865
69.2278
140.533
20.5766
25.2831
68.9188
140.877
20.5757
411.814
411.747
65.9639
20.1411
137.844
24.816
20.1402
137.994
65.9052
199.245
197.49
32.2999
199.416
197.613
410.283
410.199
411.861
411.728
197.279
199.392
32.2538
197.427
199.6
410.209
410.276
411.741
411.851
32.1844
197.426
199.602
197.278
199.391
148.536
299.931
299.911
148.384
65.9837
137.841
20.1429
24.8444
138.031
20.1429
65.8702
65.9916
137.899
20.1428
24.8391
138.086
20.1427
65.8798
148.387
299.92
299.91
148.512
148.394
299.933
299.925
148.531
65.8621
24.8449
138.021
20.1429
137.844
20.1428
65.9948
65.8679
24.8387
138.085
20.1427
137.902
20.1426
66.0021
197.477
199.306
32.2572
197.612
199.466
411.814
411.671
410.274
410.344
32.1863
197.605
199.433
197.461
199.252
411.679
411.791
69.2187
140.591
20.5764
25.2755
140.904
20.5758
68.921
152.523
302.072
152.217
302.028
69.2168
20.5829
140.593
25.2796
20.5823
68.9133
140.905
152.21
302.017
302.045
152.547
68.9028
25.2775
140.893
20.5757
140.601
20.5766
69.2247
152.208
302.037
152.543
302.065
68.9007
25.2815
20.5821
140.892
20.583
69.2166
140.6
152.523
302.041
301.998
152.218
69.2146
20.5829
140.528
25.2879
20.5823
68.9061
140.855
152.52
302.052
152.214
302.014
68.8969
25.2846
140.843
20.5753
140.567
20.5761
69.2149
152.204
302.005
302.034
152.541
68.8953
25.2884
20.582
140.843
20.5829
69.2074
140.558
152.203
302.019
152.535
302.051
410.264
410.225
411.835
411.764
197.276
199.39
32.2578
197.405
199.608
148.446
299.895
148.385
299.956
65.9416
137.84
20.1429
24.8437
65.8712
137.994
20.1419
65.9488
137.906
20.1427
24.841
65.8813
138.05
20.1418
197.466
199.246
32.2743
197.596
199.562
411.771
411.737
69.2262
140.591
20.5767
25.2749
68.9217
140.915
20.5754
152.533
302.05
152.216
302.102
69.2242
20.5831
140.59
25.2787
68.9138
20.5819
140.918
152.532
302.018
152.217
302.068
69.2213
20.583
140.539
25.2868
68.9073
20.5818
140.863
152.53
302.032
152.211
302.081
199.342
197.338
32.2959
199.549
197.424
410.299
410.252
197.435
410.287
65.9705
20.1415
137.895
24.8079
20.1402
138.041
65.908
148.456
299.884
299.947
148.411
148.46
299.889
299.957
148.414
65.8513
137.918
65.8552
137.962
148.544
299.872
148.55
299.877
411.771
411.687
410.348
410.317
197.545
410.326
332.182
310.162
164.618
148.381
310.191
164.469
332.145
431.178
299.895
208.45
208.521
431.291
431.288
208.53
299.914
208.447
431.182
332.143
148.517
310.192
164.456
310.16
164.609
332.183
410.262
410.35
335.254
168.636
313.312
152.196
168.316
313.38
335.174
434.048
302.005
212.16
212.356
434.235
434.231
212.365
302.049
212.157
434.054
335.169
152.522
168.323
313.383
168.628
313.307
335.257
332.168
148.429
310.048
164.557
310.175
164.487
332.074
431.197
208.424
299.94
431.274
208.543
332.152
148.512
310.182
164.454
332.173
310.169
164.609
431.267
208.528
299.861
208.43
431.159
410.28
410.305
335.23
152.194
168.646
313.342
168.313
313.358
335.204
434.078
212.144
302.042
434.207
212.369
335.191
152.524
168.321
313.365
335.237
168.631
313.327
434.196
212.374
301.995
212.141
434.094
411.732
411.807
246.392
417.711
417.223
417.807
417.334
246.477
161.139
100.332
199.438
308.251
100.601
308.181
160.792
160.048
99.0294
197.637
308.237
99.2545
308.311
159.827
160.888
308.164
199.21
100.606
100.317
308.181
161.236
159.745
308.381
197.499
99.2693
99.0443
308.376
159.985
246.548
417.759
417.331
417.677
417.219
246.521
410.196
410.28
411.724
411.857
246.332
417.096
417.83
417.236
417.977
246.369
160.708
99.0252
197.425
307.569
307.518
99.249
160.436
160.558
100.307
199.599
309.078
309.019
100.593
160.254
160.449
307.52
197.279
99.2698
307.568
160.709
99.0457
160.268
309.022
199.392
100.611
309.076
160.559
100.322
246.362
417.238
417.979
417.093
417.826
246.339
410.271
410.203
411.844
411.733
246.377
417.233
417.973
246.323
417.099
417.833
160.422
99.2416
197.276
307.524
307.562
99.0353
160.691
160.24
100.591
199.39
309.03
309.068
100.319
160.541
160.69
307.565
99.0554
197.426
160.436
307.521
99.2625
160.541
309.072
100.333
199.601
160.255
309.025
100.609
246.312
417.103
417.838
417.229
417.968
246.389
332.176
310.162
164.63
148.387
310.19
164.479
332.139
431.184
299.909
208.467
208.538
431.298
431.294
208.545
299.929
208.461
431.186
332.138
148.529
310.191
164.477
310.16
164.626
332.178
332.145
310.189
164.468
148.526
332.18
310.163
164.609
431.28
299.897
208.54
431.19
208.428
431.185
208.439
299.901
431.285
208.535
332.176
148.375
310.165
164.6
332.148
310.186
164.455
332.141
310.188
164.482
148.538
332.175
310.163
164.631
431.285
299.915
208.557
208.444
431.195
431.19
208.454
299.914
431.29
208.551
332.172
148.391
310.165
164.627
310.185
164.479
332.143
246.402
417.161
417.726
417.3
417.862
246.413
160.002
99.0452
197.616
308.266
308.285
99.2697
159.776
161.153
100.33
199.489
308.253
100.598
308.169
160.82
159.709
308.345
197.466
99.2763
308.366
99.0574
159.946
160.891
308.154
199.273
100.594
100.312
308.215
161.222
246.48
417.291
417.816
417.155
417.698
246.501
411.671
411.8
410.338
410.268
246.389
417.296
417.87
246.342
417.162
417.737
159.645
99.2846
197.457
308.379
99.0649
308.406
159.912
160.988
100.583
199.236
308.162
308.203
100.306
161.3
159.916
308.398
99.0616
197.609
99.2792
159.665
308.368
161.27
308.204
100.313
199.452
160.949
308.155
100.592
246.305
417.165
417.746
417.29
417.868
246.388
411.783
411.674
335.267
313.316
152.204
168.641
313.384
168.329
335.186
434.048
212.175
302.025
212.368
434.236
335.182
152.529
313.387
168.335
313.312
168.643
335.27
434.231
212.375
302.069
212.169
434.054
335.179
168.333
313.377
152.543
335.251
168.653
313.316
434.217
302.04
212.369
434.068
212.148
434.06
212.153
302.011
434.225
212.37
335.245
152.229
168.647
313.321
335.184
168.339
313.372
335.191
313.381
152.537
168.332
335.263
313.32
168.649
434.218
212.381
302.06
212.159
434.069
335.257
152.221
313.325
168.652
313.376
168.337
335.197
434.06
212.164
302.031
434.225
212.38
335.256
168.634
313.311
152.206
168.325
313.38
335.175
434.047
301.994
212.166
212.354
434.235
434.231
212.362
302.039
212.16
434.053
335.171
152.532
168.334
313.383
168.638
313.308
335.259
335.266
313.314
152.204
168.635
313.383
168.325
335.184
434.04
212.166
302.006
212.361
434.228
335.181
152.527
313.387
168.33
313.311
168.637
335.269
434.223
212.368
302.053
212.161
434.045
335.18
168.327
313.376
152.531
335.252
168.643
313.315
434.217
302.029
212.368
212.15
434.067
434.059
212.155
302
434.225
212.368
335.247
152.216
168.649
313.321
168.335
313.372
335.185
335.188
313.379
152.527
168.326
335.261
313.318
168.641
434.206
212.371
302.043
212.15
434.059
335.256
152.213
313.324
168.643
313.375
168.331
335.194
434.05
212.155
302.016
434.215
212.371
410.217
410.256
411.751
411.825
246.292
417.111
417.852
417.22
417.955
246.409
160.71
99.0263
307.558
197.428
160.435
307.528
99.2495
160.561
100.308
309.063
199.603
160.253
309.036
100.595
246.401
417.224
417.962
246.302
417.107
417.844
160.448
307.531
197.285
99.2762
307.553
160.717
99.0458
160.266
309.053
199.388
100.619
309.057
160.569
100.324
332.162
148.433
310.048
164.574
310.174
164.495
332.07
431.202
208.44
299.954
431.28
208.56
332.146
148.523
310.181
164.476
310.169
332.168
164.626
431.273
208.544
299.876
208.446
431.164
246.469
416.939
417.393
416.687
417.943
246.721
159.928
99.0791
308.401
197.574
308.377
159.687
99.3144
161.213
100.295
308.201
199.386
100.543
161.046
308.212
246.402
417.268
417.875
417.076
246.278
417.79
159.633
307.974
197.529
99.2734
308.221
99.171
159.916
160.969
308.33
199.223
100.647
100.228
308.178
161.197
411.685
411.779
335.242
152.202
313.346
168.652
313.362
168.326
335.216
434.079
212.157
302.063
434.208
212.382
335.204
152.531
313.37
168.333
313.331
335.25
168.646
434.197
212.389
302.015
212.156
434.094
335.231
152.204
168.644
313.342
168.322
313.358
335.204
434.077
212.147
302.028
212.368
434.206
335.192
152.534
168.332
313.365
168.641
335.239
313.327
434.196
212.375
301.985
212.144
434.092
335.241
152.2
313.345
168.646
313.361
168.32
335.214
434.071
212.148
302.043
434.198
212.373
335.202
152.529
313.368
168.326
335.248
313.33
168.64
434.189
212.379
301.997
212.145
434.086
246.268
417.735
417.195
417.906
417.271
246.403
160.565
100.321
199.557
309.035
309.015
100.608
160.25
160.667
98.9991
197.461
307.589
99.2205
307.556
160.395
160.313
309.028
199.348
100.678
309.021
100.344
160.603
160.43
307.608
197.361
99.1989
99.007
307.577
160.551
246.393
417.932
417.268
417.815
417.156
246.286
410.246
410.288
417.332
307.542
332.176
164.586
310.058
148.455
164.504
310.184
332.084
431.197
299.941
208.435
208.554
431.276
431.266
208.537
299.868
208.442
431.16
332.16
148.534
164.492
310.191
164.637
310.177
332.182
332.168
164.591
310.057
148.46
164.508
310.183
332.076
431.202
299.95
208.441
208.563
431.279
431.267
208.543
299.872
208.446
431.163
332.153
148.541
164.493
310.19
164.643
310.177
332.175
164.529
310.415
332.314
208.419
431.306
164.535
310.416
332.31
208.427
431.313
411.681
411.748
410.305
410.349
417.327
308.411
17.8814
17.9223
18.6871
17.8815
17.9226
17.7009
17.7008
17.8814
17.9223
18.6874
17.8815
17.9227
17.7005
17.7008
89.888
54.1898
53.7785
32.3033
54.3982
53.9453
89.6375
89.7936
53.7113
54.2066
32.2543
53.884
54.4176
89.5244
89.545
32.1915
53.8965
54.4286
53.7324
54.2277
89.7938
89.8749
53.7164
54.2251
32.2598
54.4362
53.8898
89.6144
89.5786
32.1916
53.9
54.4419
53.728
54.2358
89.8375
89.7943
53.7118
54.2073
32.2546
89.5253
53.8837
54.4178
89.8382
53.7231
54.2287
32.2641
54.4467
89.58
53.9038
89.7781
54.1576
53.7524
32.2931
53.924
54.3681
89.5084
17.8816
17.9227
18.6877
17.8817
17.9229
17.7011
17.7011
17.9216
17.8816
18.6872
17.9219
17.8817
17.7009
17.7009
17.9216
17.8814
18.6869
17.9219
17.8815
17.7008
17.7008
18.6867
17.8815
17.9227
17.8814
17.9223
17.7008
17.7009
18.6872
17.8817
17.923
17.8816
17.9226
17.7011
17.7011
18.6867
17.9219
17.8817
17.9216
17.8815
17.7009
17.701
18.6865
17.9219
17.8816
17.9216
17.8814
17.7008
17.7009
39.3148
78.4912
35.5093
68.9223
78.1928
35.3414
39.4768
47.8127
67.7292
140.843
100.261
67.9885
100.557
47.6377
47.6247
100.554
140.55
67.9804
67.7118
100.248
47.7966
39.4851
69.2371
78.2018
35.3289
78.5126
35.5094
39.3121
17.8816
17.9226
18.6879
17.8817
17.923
17.7008
17.7011
17.9215
17.8815
18.6873
17.922
17.8818
17.7006
17.7009
17.9215
17.8814
18.6878
17.922
17.8821
17.7005
17.7008
39.3156
68.9235
78.5001
35.5128
78.1948
35.3417
39.4805
47.8125
67.7188
100.262
140.841
47.6368
67.9796
100.561
39.4854
69.2362
78.2026
35.3298
39.3129
78.513
35.5097
47.6261
100.566
140.546
68.0003
67.7092
100.252
47.8038
37.7424
33.865
75.1214
65.8887
33.8155
75.0168
37.752
45.9995
66.1372
138.034
97.1309
66.2931
97.2835
45.9668
45.9773
97.2597
137.873
66.3099
66.1345
97.1545
45.9881
37.7544
66.0212
33.8216
75.0293
33.8688
75.1551
37.7396
89.6218
32.2223
54.3996
53.9489
54.1805
53.7631
89.901
89.5448
32.1771
53.8977
54.4282
89.822
53.7124
54.2065
89.8218
32.2651
53.7325
54.2257
89.5647
53.9125
54.4455
37.6784
75.1187
33.8513
65.8626
74.9845
33.8053
37.7157
45.9866
66.0738
138.028
97.1282
97.2815
66.2391
45.9113
45.9169
97.2893
137.848
66.2553
97.1359
66.0853
45.9935
37.7167
65.9899
74.9877
33.8074
75.118
33.8563
37.6764
37.6813
75.1344
33.8533
65.8728
75.0023
33.8079
37.7191
45.9937
66.0966
138.086
97.1511
97.3069
66.2639
45.9177
45.9238
97.3148
137.905
66.2773
97.1614
45.9999
66.1089
37.721
66.0007
75.0034
33.8088
75.1361
33.8585
37.6797
37.7136
74.9891
33.8005
65.9891
37.6803
75.1242
33.8498
45.9162
66.2391
137.837
97.2785
66.0882
97.1318
45.9799
45.9931
97.1398
66.0991
138.023
66.258
45.9212
97.2868
37.683
65.8702
75.1233
33.8544
74.9922
33.8029
37.7101
37.7173
75.0018
33.8021
65.9938
37.6823
75.1357
33.8507
45.9216
66.2742
137.899
97.3027
97.1538
66.1159
45.9878
45.9982
97.1631
66.1197
138.082
45.9267
97.3095
66.281
37.6859
65.8755
75.1372
33.8551
75.0038
33.8035
37.7146
89.6113
32.1816
53.8975
54.4412
54.2231
53.7156
89.8706
89.8516
32.2655
53.7275
54.2347
53.9061
89.6
54.4523
39.3138
78.498
35.5082
68.9171
78.1901
35.3382
39.4821
47.8138
67.7457
140.897
100.263
100.569
68.0147
47.6369
47.633
100.576
140.6
68.0229
100.267
67.7494
47.813
39.4823
69.233
78.1956
35.3322
78.506
35.5081
39.3123
39.3069
35.5069
68.9136
78.4972
35.3362
78.1883
39.4806
47.808
67.6892
100.276
140.9
100.582
47.625
67.959
39.4794
69.2272
35.3297
78.187
35.5056
78.5023
39.3031
47.6229
100.587
140.601
67.9671
100.279
47.8072
67.694
39.4834
78.186
35.3346
69.2131
39.3142
78.5005
35.5038
47.6449
68.0181
140.593
100.572
67.7627
100.273
47.8186
47.8237
100.275
67.7635
140.9
68.0363
47.6392
100.581
39.3143
68.9081
78.5062
35.5013
78.1926
35.3304
39.4808
39.4801
35.3338
69.2092
78.1815
39.307
35.503
78.4929
47.6305
67.9601
100.581
140.591
100.28
47.8095
67.7045
39.3047
68.9015
35.499
78.4954
35.329
78.1811
39.4756
47.8149
100.283
67.7068
140.899
47.627
100.588
67.9786
39.3034
35.5054
68.9113
78.4901
35.3348
78.181
39.4772
47.7983
67.6566
100.254
140.833
100.562
67.9176
47.6154
39.4745
69.2237
35.3248
78.178
35.5026
78.4938
39.2976
47.6141
100.571
140.54
67.9389
100.261
47.7995
67.6557
39.468
78.1729
35.3309
69.2018
39.3022
78.4844
35.4954
47.6311
67.9936
140.551
100.573
47.8137
67.7328
100.27
47.8031
100.258
67.7208
140.866
47.6173
68.0003
100.57
39.3011
68.8947
78.5039
35.4929
39.4734
78.1827
35.3203
39.4758
35.3308
69.2013
78.1744
39.3037
35.4977
78.4848
47.6232
67.9424
100.561
140.545
100.261
47.8019
67.6919
39.2998
68.8917
35.4926
78.4856
35.3226
78.1723
39.4707
47.8082
100.267
67.6898
140.859
47.6203
100.571
67.9704
89.5462
32.1771
53.9026
54.4327
89.8306
53.7126
54.2079
37.6884
65.8667
75.0977
33.8541
74.9846
33.8055
37.7042
45.9774
66.0746
97.1281
138.028
97.2816
45.9222
66.2382
37.709
65.9899
74.9886
33.8079
75.1184
37.6837
33.8566
45.9374
97.2872
137.852
66.2591
97.1347
66.0854
45.9621
37.6923
65.8767
75.1149
33.8567
75.0035
33.8085
37.7072
45.9873
66.1164
97.1541
138.094
45.932
97.3105
66.2878
37.7141
66.0014
75.0052
33.8095
37.688
75.1376
33.8591
45.9474
97.3145
137.913
66.2855
97.1637
45.9704
66.1331
89.5878
32.1929
53.9299
54.4592
54.2367
53.7462
89.8743
39.3137
68.9182
78.506
35.5112
78.1913
35.3383
39.4846
47.813
67.7463
100.264
140.9
100.57
47.6365
68.0156
39.4821
69.2327
78.1964
35.3334
78.5061
39.3128
35.5084
47.6333
100.585
140.599
68.0281
100.268
67.7516
47.8174
39.3062
68.9146
35.5097
78.5054
35.3359
78.1893
39.4829
47.8063
67.6888
100.275
140.901
47.6237
100.582
67.9585
39.4785
69.2267
35.3306
78.1873
39.3029
35.5056
78.502
47.6224
100.596
140.6
67.9767
100.28
47.8114
67.6956
39.3021
68.9125
35.5083
78.497
35.3347
78.1812
39.4784
47.7976
67.6662
100.256
140.848
67.9304
47.616
100.562
39.4738
69.2231
35.3259
78.1789
35.503
39.2983
78.4931
47.6132
100.575
140.546
67.9344
67.6612
100.259
47.8008
89.5321
32.2148
54.379
53.944
53.7526
54.1561
89.804
37.7458
33.8686
75.1363
65.8967
33.8194
75.031
37.7591
46.0093
66.1686
138.083
97.1599
66.3281
97.3139
45.9778
45.9869
97.2677
137.912
66.3445
66.1695
97.1735
45.9938
37.7611
66.027
33.8233
75.0343
33.8719
75.1652
37.7443
75.0192
97.2353
75.0254
97.246
18.7509
25.3337
24.853
32.2496
18.7237
25.3198
24.8382
32.2459
18.7082
25.2649
24.7977
32.145
18.7038
25.2903
24.8207
32.2408
18.6908
25.2972
24.8239
32.2376
18.6879
25.2901
24.8204
32.2285
18.688
25.2922
24.8225
32.239
18.6884
25.2938
24.8252
32.2439
18.6882
25.2949
24.8242
32.2424
18.6878
25.2896
24.8213
32.2366
18.6871
25.2862
24.817
32.2299
18.6868
25.2825
24.8159
32.2286
18.6869
25.2845
24.8165
32.2307
18.6868
25.283
24.8163
32.2292
18.6868
25.2853
24.8166
32.231
24.8165
32.2295
32.3014
25.352
25.3378
32.2996
25.3269
25.3227
25.335
25.3277
32.3338
24.8554
24.8465
32.3255
32.2313
32.2976
25.0037
24.9861
24.9515
24.9471
32.232
32.3056
25.3209
25.3209
25.3137
25.3149
25.3259
25.3237
25.3209
32.2591
32.3296
24.8437
24.8445
24.8352
32.3242
32.2189
32.1945
24.9254
24.9265
24.8446
24.8425
32.2295
32.2265
25.3078
25.3102
25.2571
25.262
25.3162
25.2707
25.2691
32.2522
32.232
24.8287
24.7979
24.7872
32.2295
32.1111
32.2713
24.8401
24.8304
24.8512
24.8457
32.1376
32.2647
25.2545
25.2598
25.2814
25.2866
25.2668
25.2874
25.2949
32.1483
32.3138
24.7869
24.8198
24.8095
32.3136
32.1994
32.2684
24.8523
24.8476
24.8528
24.8455
32.2005
32.2638
25.2824
25.287
25.2849
25.2873
25.2957
25.2918
25.2977
32.2411
32.2964
24.8111
24.8219
24.814
32.3046
32.2015
32.2694
24.8546
24.8463
24.8486
24.8506
32.1969
32.2829
25.2886
25.2912
25.2838
25.287
25.3017
25.2931
25.2979
32.2303
32.3036
24.8156
24.8211
24.8122
32.3084
32.1882
32.2694
24.8479
24.8465
24.8481
24.8419
32.1985
32.2721
25.2817
25.2856
25.2826
25.2871
25.2961
25.2907
25.2977
32.2225
32.3087
24.8108
24.822
24.8129
32.3149
32.1915
32.2732
24.8487
24.8421
24.85
24.8491
32.1967
32.2824
25.2832
25.2878
25.286
25.291
25.2985
25.2942
25.3017
32.2298
32.3141
24.8134
24.8253
24.8157
32.3204
32.1939
32.2739
24.8503
24.8471
24.8497
24.8434
32.2008
32.2763
25.2861
25.2911
25.2861
25.2909
25.3015
25.2948
25.3013
32.234
32.3144
24.8155
24.8252
24.816
32.3196
32.1937
32.27
24.8494
24.8433
24.8471
24.8478
32.1995
32.2807
25.2852
25.2899
25.2828
25.2871
25.2998
25.2918
25.2974
32.2336
32.3093
24.8147
24.8222
24.812
32.3141
32.1894
32.2641
24.847
24.8451
24.8444
24.8387
32.1978
32.2671
25.2819
25.2862
25.2779
25.282
25.296
25.2866
25.2922
32.2284
32.3029
24.8107
24.8181
24.8086
32.3074
32.1834
32.2625
24.844
24.8382
24.8428
24.8424
32.1896
32.2726
25.2768
25.2808
25.2755
25.2797
25.2905
25.2835
25.2893
32.2217
32.3019
24.807
24.8162
24.8056
32.3056
32.1825
32.2644
24.843
24.8402
24.8437
24.8369
32.1903
32.2652
25.2753
25.2796
25.2762
25.2804
25.2887
25.2836
25.2898
32.2213
32.3034
24.8052
24.8165
24.8061
32.3071
32.1846
32.2628
24.844
24.837
24.8432
24.8423
32.1885
32.2725
25.2763
25.2805
25.2758
25.2801
25.2898
25.2836
25.2898
32.2232
32.3026
24.8057
24.8165
24.8058
32.3063
32.1827
32.2639
24.8435
24.8407
24.8435
24.8368
32.1902
32.2656
25.2757
25.28
25.2761
25.2803
25.2895
25.2839
25.2898
32.2219
32.3034
24.8055
24.8165
24.8062
32.3074
32.1842
32.263
24.8439
24.837
24.8433
24.8418
32.1891
32.272
25.2765
25.2807
25.2756
25.2797
25.2902
25.2832
25.2892
32.2233
32.302
24.8062
24.8162
24.8052
32.3055
32.222
32.3024
24.8046
24.8159
24.8102
32.3062
18.7664
18.7581
18.7324
18.7311
148.142
301.419
151.052
299.831
411.274
410.106
152.506
301.986
152.169
301.953
18.7427
18.7291
18.7279
18.7308
18.7271
18.7114
18.7106
69.2261
140.533
20.6196
25.3302
68.8854
140.858
20.6144
411.787
411.671
66.0242
20.1595
137.854
24.8495
65.9099
20.1576
138.038
199.202
197.529
32.321
199.362
197.626
148.363
299.871
148.208
299.828
410.319
410.202
152.386
302.011
152.166
301.929
18.7216
18.7078
18.7071
18.7093
18.7085
18.7036
18.703
69.2005
140.533
20.6025
25.3087
68.9401
140.744
20.5965
411.823
411.64
65.9172
20.1513
137.8
24.8224
65.8895
20.1469
137.871
199.106
197.432
32.3013
199.241
197.508
148.49
299.888
148.231
299.864
410.332
410.195
152.457
302.012
151.988
301.957
18.707
18.7039
18.7033
18.7071
18.7063
18.7048
18.7042
69.0168
140.321
20.5788
25.2662
68.6575
140.746
20.5797
411.827
411.662
65.9053
20.144
137.698
24.8029
65.6905
20.1478
137.937
199.084
197.426
32.2355
199.299
197.569
148.561
299.908
148.424
299.872
410.339
410.228
152.482
302.04
152.162
301.974
18.704
18.7018
18.7014
18.6924
18.6926
18.6911
18.691
69.1456
140.512
20.5886
25.2898
68.9432
140.797
20.583
411.847
411.676
65.9789
20.1515
137.806
24.8206
65.8562
20.1496
137.999
199.141
197.477
32.2978
199.331
197.598
148.587
299.908
148.419
299.869
410.339
410.194
152.517
302.05
152.213
301.979
18.6912
18.6899
18.6899
18.6882
18.6891
18.6881
18.6882
69.245
140.54
20.5813
25.2987
68.9274
140.855
20.5821
411.853
411.678
66.026
20.146
137.837
24.8243
65.9003
20.1455
138.025
199.164
197.493
32.3224
199.344
197.606
148.544
299.904
148.399
299.868
410.328
410.223
152.503
302.05
152.186
301.982
18.6887
18.688
18.688
18.6878
18.6884
18.6881
18.6881
69.1991
140.518
20.5789
25.2895
68.913
140.842
20.5779
411.854
411.681
66.0008
20.1436
137.828
24.8208
65.897
20.1435
138.023
199.163
197.491
32.2963
199.346
197.607
148.522
299.908
148.373
299.874
410.345
410.211
152.504
302.056
152.2
301.987
18.6886
18.6884
18.6883
18.6884
18.6891
18.6889
18.6888
69.2213
140.516
20.5794
25.2935
68.9235
140.85
20.5801
411.859
411.684
66.0049
20.1445
137.83
24.8243
65.9054
20.1449
138.028
199.167
197.494
32.3032
199.351
197.61
148.517
299.916
148.353
299.883
410.359
410.252
152.51
302.06
152.209
301.989
18.6891
18.6889
18.6889
18.6883
18.689
18.6888
18.6888
69.2279
140.53
20.5813
25.294
68.9208
140.858
20.5813
411.858
411.681
66.0034
20.1453
137.837
24.8258
65.9055
20.1452
138.033
199.17
197.497
32.3037
199.352
197.613
148.529
299.923
148.367
299.889
410.37
410.226
152.509
302.059
152.209
301.989
18.689
18.6887
18.6886
18.6879
18.6888
18.6882
18.6881
69.2264
140.528
20.5813
25.2947
68.9237
140.857
20.5806
411.856
411.681
66.0041
20.1447
137.838
24.8242
65.9095
20.1445
138.033
199.17
197.497
32.2995
199.352
197.612
148.534
299.927
148.374
299.891
410.365
410.253
152.513
302.061
152.211
301.992
18.6886
18.6882
18.6879
18.6873
18.688
18.6875
18.6873
69.2177
140.531
20.5798
25.2884
68.9188
140.859
20.579
411.857
411.683
66.0014
20.1439
137.84
24.8211
65.9055
20.1436
138.036
199.173
197.5
32.2935
199.357
197.617
148.534
299.926
148.375
299.889
410.365
410.221
152.517
302.063
152.216
301.993
18.6879
18.6873
18.6871
18.6868
18.6876
18.6869
18.6867
69.2193
140.533
20.5771
25.2859
68.9148
140.865
20.5761