/*--------------------------------*- C++ -*----------------------------------*\
| =========                 |                                                 |
| \\      /  F ield         | OpenFOAM: The Open Source CFD Toolbox           |
|  \\    /   O peration     | Version:  2206                                  |
|   \\  /    A nd           | Website:  www.openfoam.com                      |
|    \\/     M anipulation  |                                                 |
\*---------------------------------------------------------------------------*/
FoamFile
{
    version     2.0;
    format      ascii;
    arch        "LSB;label=32;scalar=64";
    class       volVectorField;
    location    "0.4";
    object      U;
}
// * * * * * * * * * * * * * * * * * * * * * * * * * * * * * * * * * * * * * //

dimensions      [0 1 -1 0 0 0 0];

internalField   nonuniform List<vector> 
66621
(
(-1.12643e-05 -1.96021e-05 0.0793395)
(-2.59537e-05 6.71134e-07 0.103943)
(-1.83085e-05 -1.9452e-06 0.0790841)
(5.68185e-05 6.41569e-07 0.119521)
(4.51367e-05 -1.29504e-05 0.105844)
(5.71271e-06 -2.16364e-06 0.131676)
(-7.07544e-06 4.68581e-06 0.0682669)
(-4.38515e-07 5.95145e-05 0.120201)
(4.23093e-06 5.23877e-07 0.130212)
(-1.69616e-06 -2.29919e-06 0.131959)
(-1.52132e-05 4.32903e-05 0.106402)
(0.000205916 0.00020937 0.127829)
(1.2652e-05 1.25434e-05 0.0923733)
(1.42203e-05 1.19804e-05 0.0927094)
(-1.04545e-05 -9.56728e-06 0.0684107)
(-8.14439e-06 -3.93068e-06 0.0682732)
(-0.000208825 -0.00021019 0.127789)
(-1.55724e-05 -1.00153e-05 0.0925915)
(-1.36418e-05 -1.18289e-05 0.0923324)
(-1.40549e-06 2.82934e-06 0.130286)
(-1.37601e-05 -4.06656e-05 0.106108)
(1.38494e-05 -1.18592e-05 0.0923675)
(7.84389e-06 -3.90922e-06 0.068278)
(-5.66362e-05 6.40176e-07 0.11952)
(-6.07256e-07 1.0722e-06 0.130039)
(-4.52518e-05 -1.27312e-05 0.105835)
(-5.44966e-06 -1.78158e-06 0.131679)
(-2.60329e-05 -3.72652e-07 0.103944)
(-1.78566e-05 2.99986e-06 0.0790808)
(-5.66676e-05 -6.25024e-07 0.11952)
(-6.56919e-07 -1.3305e-06 0.130023)
(-4.25292e-06 1.88527e-06 0.131669)
(-4.48778e-05 1.34393e-05 0.105832)
(2.61102e-05 6.52397e-07 0.103943)
(1.83394e-05 -2.05142e-06 0.0790869)
(5.68189e-05 -4.71018e-07 0.119521)
(1.43913e-06 -6.76735e-07 0.130019)
(4.86722e-06 2.14724e-06 0.131668)
(4.48492e-05 1.35175e-05 0.105842)
(2.6155e-05 -3.57641e-07 0.103944)
(1.78625e-05 2.88204e-06 0.0790864)
(-0.00020448 0.00020983 0.127832)
(-1.25301e-05 1.17789e-05 0.0923363)
(-1.48962e-05 1.18769e-05 0.0927394)
(-5.52479e-06 7.37562e-06 0.0685025)
(6.43895e-08 5.95746e-05 0.120201)
(-3.60333e-06 4.55289e-07 0.130215)
(1.14611e-06 -2.73791e-06 0.13196)
(1.52634e-05 4.40233e-05 0.106393)
(-2.7381e-07 3.21026e-05 0.104744)
(-3.30347e-06 1.90728e-05 0.0795434)
(1.55552e-07 3.21404e-05 0.104743)
(3.4573e-06 1.94398e-05 0.0795391)
(7.51727e-06 4.74494e-06 0.0682742)
(5.54139e-06 7.25634e-06 0.0684996)
(-9.4248e-07 -2.05914e-05 0.0908701)
(2.57219e-06 -1.49083e-05 0.0660564)
(1.11493e-05 -5.78877e-07 0.0737391)
(-2.60936e-05 1.44318e-06 0.100732)
(-7.38482e-06 1.00877e-06 0.076322)
(2.91315e-05 -5.74441e-08 0.104042)
(2.95651e-05 4.55188e-07 0.100805)
(1.05605e-05 -1.37547e-07 0.0763639)
(-8.12432e-06 2.41458e-06 0.0737088)
(1.08341e-05 -3.35048e-07 0.0658324)
(-2.20613e-05 2.05048e-07 0.0905025)
(2.02056e-05 4.6123e-06 0.0790558)
(2.32719e-05 1.87282e-06 0.0905167)
(-9.37459e-06 2.23055e-06 0.0658307)
(9.65888e-06 -6.17396e-06 0.0682623)
(-1.22163e-05 -1.10391e-05 0.0847787)
(6.12239e-06 4.95045e-06 0.0670182)
(5.57477e-06 5.59022e-06 0.0670729)
(-6.9405e-06 -5.5698e-06 0.0670207)
(-6.60296e-06 -6.03953e-06 0.0670667)
(1.06387e-05 1.06334e-05 0.0847631)
(-3.85036e-05 -1.65651e-05 0.102622)
(9.97038e-06 5.50316e-06 0.0783662)
(-1.34346e-05 -1.41353e-05 0.0923985)
(5.35208e-05 3.01795e-05 0.113227)
(-5.62139e-05 -2.97352e-05 0.11326)
(-1.08941e-05 -6.68143e-06 0.0783693)
(3.65741e-05 1.75906e-05 0.102606)
(-1.68414e-05 -3.7192e-05 0.102658)
(6.21456e-06 9.29524e-06 0.0784354)
(-1.70851e-05 -1.24087e-05 0.0926822)
(2.75424e-05 5.59748e-05 0.113425)
(-3.06462e-05 -5.52474e-05 0.113409)
(-7.82184e-06 -1.00253e-05 0.078412)
(1.53316e-05 3.72489e-05 0.102662)
(8.37553e-06 6.83036e-06 0.0682681)
(1.16661e-05 1.07034e-05 0.0848352)
(-7.16447e-06 -4.61897e-06 0.0670623)
(-6.67559e-06 -4.13591e-06 0.0669971)
(5.39024e-06 5.05137e-06 0.0670903)
(5.62644e-06 5.27246e-06 0.0670326)
(-1.20234e-05 -1.04702e-05 0.0846985)
(1.89318e-05 3.81071e-05 0.102816)
(-9.40292e-06 -8.28193e-06 0.0784969)
(-2.62697e-05 -5.08125e-05 0.113365)
(5.26933e-06 1.04843e-05 0.0785641)
(-1.69267e-05 -3.77557e-05 0.102655)
(3.90391e-05 1.55524e-05 0.102594)
(-1.12128e-05 -4.70352e-06 0.0782518)
(1.28819e-05 1.45174e-05 0.0923583)
(-5.59226e-05 -2.82301e-05 0.113154)
(1.02018e-05 6.34478e-06 0.0782678)
(-3.91573e-05 -1.6202e-05 0.102467)
(5.63853e-05 2.91825e-05 0.113205)
(6.10228e-06 -4.35561e-06 0.0670124)
(1.12032e-05 -1.18562e-05 0.0847094)
(1.1719e-05 -5.82363e-06 0.0783545)
(5.61651e-05 -2.95223e-05 0.113198)
(3.9469e-05 -2.00097e-05 0.102562)
(1.08374e-05 1.30032e-06 0.073739)
(-7.4291e-06 -5.36595e-07 0.076322)
(-2.68672e-05 -8.14647e-07 0.100734)
(2.90004e-05 2.61069e-07 0.104043)
(1.0506e-05 6.2227e-07 0.0763635)
(2.87436e-05 1.79128e-07 0.100806)
(-8.44339e-06 -1.7206e-06 0.0737094)
(1.09302e-05 1.31184e-06 0.0658334)
(-2.18437e-05 8.69717e-07 0.0905017)
(2.05968e-05 -3.76915e-06 0.0790536)
(2.34875e-05 -8.02664e-07 0.0905155)
(-9.33263e-06 -1.24755e-06 0.0658322)
(2.62297e-05 1.39206e-06 0.100735)
(7.47257e-06 1.02404e-06 0.076322)
(8.18557e-06 2.45182e-06 0.0737095)
(2.21096e-05 1.3743e-07 0.0905056)
(9.40424e-06 2.24193e-06 0.0658313)
(7.48456e-06 -5.75122e-07 0.0763217)
(2.68667e-05 -8.40546e-07 0.100735)
(8.41646e-06 -1.76662e-06 0.0737091)
(2.17964e-05 8.31962e-07 0.0905043)
(9.32568e-06 -1.32206e-06 0.0658328)
(1.17485e-05 -1.20269e-05 0.0847742)
(-7.86748e-06 3.69691e-06 0.0669982)
(-6.15846e-06 5.59853e-06 0.0670882)
(6.13286e-06 -6.33167e-06 0.067017)
(5.72869e-06 -6.29265e-06 0.0670642)
(-1.23696e-05 8.42604e-06 0.0847653)
(3.92325e-05 -1.63735e-05 0.102535)
(-9.14487e-06 4.24937e-06 0.0782307)
(1.41227e-05 -1.44926e-05 0.0923592)
(-5.47089e-05 2.93593e-05 0.113196)
(1.14675e-05 -7.45602e-06 0.0782671)
(5.85988e-05 -2.99736e-05 0.11322)
(-3.4813e-05 1.54822e-05 0.102531)
(1.76517e-05 -3.63415e-05 0.102744)
(-6.69074e-06 9.57608e-06 0.0785571)
(1.73591e-05 -1.21342e-05 0.092717)
(-2.82862e-05 5.57622e-05 0.113465)
(3.07853e-05 -5.4204e-05 0.113456)
(7.66568e-06 -9.98035e-06 0.0785072)
(-1.58333e-05 3.35727e-05 0.102743)
(7.49403e-06 -7.37791e-06 0.0684629)
(-1.55261e-06 -9.74022e-06 0.0741082)
(-2.21138e-07 3.06267e-05 0.101542)
(5.31988e-07 9.05052e-06 0.0767379)
(-1.81384e-07 -3.16184e-05 0.104837)
(5.01301e-07 -3.15185e-05 0.101559)
(-6.99239e-07 -9.09899e-06 0.0767659)
(1.99072e-06 9.10551e-06 0.0741151)
(-6.43872e-07 -9.69288e-06 0.0661901)
(-2.05274e-06 2.36602e-05 0.0912348)
(4.67179e-06 -2.12506e-05 0.0794577)
(2.21916e-06 -2.3695e-05 0.0911629)
(8.73636e-07 9.29409e-06 0.0662397)
(1.4907e-06 -9.65942e-06 0.074111)
(1.87338e-07 3.08522e-05 0.10154)
(-5.793e-07 9.0768e-06 0.0767393)
(8.36838e-08 -3.15757e-05 0.104836)
(-5.36624e-07 -3.14014e-05 0.101563)
(6.45289e-07 -9.07122e-06 0.0767668)
(-1.99028e-06 9.20818e-06 0.0741151)
(6.72736e-07 -9.57838e-06 0.0661909)
(1.99765e-06 2.40286e-05 0.0912306)
(-4.43097e-06 -2.10865e-05 0.0794564)
(-2.19899e-06 -2.36121e-05 0.0911652)
(-8.86089e-07 9.36576e-06 0.066236)
(-7.13806e-06 -7.86452e-06 0.0684603)
(3.24819e-06 1.89297e-06 0.132903)
(2.97674e-06 4.26589e-06 0.133672)
(-1.34398e-06 -1.96939e-07 0.133534)
(-1.91421e-06 -3.22536e-06 0.134014)
(-2.351e-06 1.6618e-06 0.132903)
(-4.20323e-06 2.8991e-06 0.133672)
(2.99912e-06 -2.88764e-07 0.133533)
(4.97939e-07 -2.48897e-06 0.134013)
(-2.03363e-06 2.12818e-06 0.132846)
(-1.53077e-06 7.27749e-07 0.133526)
(-1.53832e-06 -2.06995e-06 0.133621)
(-6.44943e-07 -1.68428e-06 0.133987)
(2.21644e-06 2.04603e-06 0.132845)
(1.5935e-06 3.68217e-07 0.133526)
(1.1079e-06 -2.15701e-06 0.133621)
(4.86902e-07 -6.0222e-08 0.133987)
(-0.0002498 -3.53611e-07 0.12585)
(5.79153e-05 1.1031e-06 0.117626)
(0.000238901 1.22029e-07 0.126883)
(-6.00697e-05 -1.25035e-06 0.119594)
(-6.13259e-05 -1.44405e-06 0.11767)
(-0.000237997 -7.69431e-07 0.126884)
(0.000245303 -1.88286e-06 0.125889)
(5.68832e-05 -2.66888e-06 0.113308)
(0.000238695 -1.41135e-05 0.119604)
(0.000259264 -3.55048e-06 0.123816)
(-3.91197e-06 -0.000243073 0.126269)
(2.27411e-07 0.000233744 0.127332)
(-2.23797e-07 5.97282e-05 0.118327)
(-1.18212e-06 -5.84999e-05 0.120265)
(-1.71118e-06 -0.00023191 0.12733)
(-3.81084e-07 -5.92566e-05 0.11831)
(6.80805e-07 0.000240142 0.126347)
(-1.62076e-06 -0.000245805 0.12413)
(-4.30722e-06 5.64552e-05 0.113977)
(1.56486e-05 -4.47368e-05 0.106284)
(-9.68717e-06 0.000236954 0.119986)
(1.14565e-05 -0.000237453 0.119886)
(3.33741e-06 -5.52376e-05 0.113863)
(-7.00845e-08 0.000255252 0.124267)
(-5.21661e-05 -5.05804e-05 0.115501)
(-0.000196558 -0.000196726 0.127741)
(4.96664e-05 0.000218166 0.122743)
(0.000212625 5.13851e-05 0.122784)
(-5.14855e-05 -0.000214875 0.122688)
(-0.000211109 -4.89882e-05 0.122712)
(5.32612e-05 5.45354e-05 0.115548)
(5.28107e-05 5.09399e-05 0.115581)
(0.000197849 0.000199159 0.127779)
(-0.00021519 -5.11052e-05 0.122782)
(-5.01929e-05 -0.000213605 0.122631)
(-5.23496e-05 -5.3694e-05 0.115458)
(0.000215534 5.0892e-05 0.122844)
(4.98732e-05 0.00021269 0.122664)
(-6.77487e-08 -5.65198e-05 0.11358)
(-1.41409e-05 -0.000233672 0.119782)
(-4.08894e-06 -0.00025469 0.124021)
(0.000249944 1.92986e-08 0.125849)
(-5.77731e-05 1.22812e-06 0.117623)
(-0.00023807 1.6016e-07 0.126883)
(6.00712e-05 -1.23577e-06 0.119594)
(6.1242e-05 -1.33796e-06 0.117669)
(0.000238105 -6.58903e-07 0.126884)
(-0.000244582 -1.57142e-06 0.125887)
(0.000252774 1.06154e-06 0.123754)
(-5.6964e-05 -2.44206e-06 0.113304)
(4.64938e-05 1.26954e-05 0.105809)
(-0.000238495 -1.34488e-05 0.119595)
(5.71337e-05 1.45872e-06 0.113304)
(0.000242966 1.19227e-05 0.11957)
(-0.000259383 -2.97165e-06 0.123813)
(0.000245637 3.88082e-07 0.125849)
(-0.000237226 3.53299e-08 0.126878)
(-5.89624e-05 -6.53801e-07 0.117624)
(5.99719e-05 1.08288e-06 0.119594)
(0.000237763 1.08665e-06 0.12688)
(6.02569e-05 1.85955e-06 0.117672)
(-0.000247334 1.57325e-06 0.125881)
(0.000252446 -9.26988e-07 0.12375)
(-5.7155e-05 3.57186e-06 0.113302)
(4.70217e-05 -1.20781e-05 0.105807)
(-0.000236784 1.42321e-05 0.119596)
(5.78105e-05 -3.85678e-07 0.113305)
(-0.000256562 3.23806e-06 0.123802)
(0.000242088 -1.21755e-05 0.11957)
(-0.00024527 7.07314e-07 0.125849)
(0.000237867 3.51381e-07 0.126878)
(5.89409e-05 -4.44573e-07 0.117625)
(-5.99347e-05 1.19077e-06 0.119595)
(-0.000237462 1.28693e-06 0.12688)
(-6.02707e-05 1.96823e-06 0.117673)
(0.000247914 2.09939e-06 0.125881)
(-0.000252436 -6.54716e-07 0.12375)
(5.70215e-05 3.68933e-06 0.113306)
(-4.6807e-05 -1.22142e-05 0.105818)
(0.000236791 1.52022e-05 0.119603)
(-0.000241785 -1.21276e-05 0.119578)
(-5.77838e-05 -4.34092e-07 0.113308)
(0.000256238 3.80094e-06 0.123803)
(5.27663e-05 -5.13323e-05 0.115509)
(0.000196504 -0.000195778 0.127744)
(-4.90322e-05 0.000220046 0.122743)
(-0.000215794 5.17359e-05 0.122798)
(0.00021216 -4.78672e-05 0.122724)
(5.236e-05 -0.00021534 0.122684)
(-5.36279e-05 5.51692e-05 0.115558)
(3.58244e-06 -0.000243084 0.12627)
(-8.77666e-07 0.000233851 0.127332)
(-1.14289e-07 5.99919e-05 0.118325)
(8.55998e-07 -5.84144e-05 0.120265)
(1.03344e-06 -0.000231915 0.12733)
(1.55822e-07 -5.89955e-05 0.118312)
(-1.31882e-06 0.000240251 0.126346)
(1.15504e-06 -0.000245758 0.124129)
(4.06866e-06 5.68711e-05 0.113972)
(-1.55207e-05 -4.42082e-05 0.106275)
(8.96245e-06 0.000236946 0.119975)
(-1.15563e-05 -0.000237315 0.119874)
(-3.40307e-06 -5.50975e-05 0.113863)
(-7.86592e-07 0.00025548 0.124264)
(-6.0349e-06 -8.18698e-06 0.0474373)
(-3.88457e-06 -2.96937e-06 0.0324131)
(-2.44821e-06 -6.59436e-07 0.0203124)
(-1.35953e-06 8.10701e-08 0.0107528)
(-4.50317e-07 1.18137e-07 0.00327809)
(-6.1921e-06 1.70269e-07 0.0473994)
(-2.93252e-06 5.49509e-07 0.0323892)
(-1.33118e-06 5.2442e-07 0.0202968)
(-4.89527e-07 3.52022e-07 0.0107437)
(-1.03084e-07 1.21648e-07 0.003275)
(-3.16286e-06 2.31631e-06 0.0489316)
(-1.3631e-06 1.17911e-06 0.0335499)
(-4.92921e-07 6.31332e-07 0.0210757)
(-9.06425e-08 3.06438e-07 0.0111767)
(1.13368e-08 9.60636e-08 0.00341318)
(-6.07475e-06 -4.42662e-06 0.0489629)
(-3.34842e-06 -1.46645e-06 0.0335701)
(-1.74534e-06 -2.49318e-07 0.0210884)
(-7.87873e-07 8.66443e-08 0.0111841)
(-2.1102e-07 6.51139e-08 0.00341583)
(-3.98705e-06 -1.51088e-06 0.0489365)
(-1.90863e-06 -4.32138e-07 0.0335529)
(-8.50612e-07 -6.0583e-08 0.0210773)
(-2.9287e-07 3.98052e-08 0.0111771)
(-5.4525e-08 2.22121e-08 0.00341326)
(3.6765e-06 -1.44489e-06 0.048939)
(1.69738e-06 -4.71181e-07 0.0335551)
(7.05042e-07 -1.84362e-07 0.0210791)
(2.03588e-07 -8.15888e-08 0.0111786)
(2.30784e-08 -3.18592e-08 0.00341395)
(-5.77995e-06 8.49699e-07 0.0473984)
(-2.59285e-06 3.19828e-07 0.032389)
(-1.08952e-06 1.03365e-07 0.0202968)
(-3.49394e-07 1.29102e-08 0.0107434)
(-5.62285e-08 -1.43757e-09 0.00327478)
(6.04904e-06 1.11603e-07 0.0474002)
(2.8235e-06 4.23197e-07 0.0323902)
(1.24907e-06 3.71441e-07 0.0202979)
(4.36144e-07 2.33143e-07 0.0107445)
(8.34801e-08 7.41637e-08 0.0032753)
(5.83617e-06 5.92639e-07 0.0474007)
(2.64316e-06 1.11496e-07 0.0323901)
(1.12462e-06 -2.99469e-08 0.020298)
(3.69668e-07 -5.73457e-08 0.0107447)
(6.35625e-08 -2.35451e-08 0.00327552)
(-3.1386e-06 3.04625e-06 0.0489544)
(-1.85139e-06 1.05518e-06 0.0335645)
(-1.06933e-06 2.57275e-07 0.0210846)
(-5.34805e-07 -2.84388e-08 0.0111814)
(-1.64537e-07 -4.25434e-08 0.00341481)
(-1.57976e-06 5.35149e-06 0.0474158)
(-1.03239e-06 2.24954e-06 0.0323995)
(-6.3962e-07 8.57869e-07 0.0203029)
(-3.33671e-07 2.20551e-07 0.010747)
(-1.08479e-07 1.76212e-08 0.00327597)
(1.82202e-06 5.42302e-06 0.0474144)
(1.24641e-06 2.24845e-06 0.0323986)
(7.9221e-07 8.35379e-07 0.0203026)
(4.19141e-07 1.99247e-07 0.0107466)
(1.35992e-07 8.25478e-09 0.00327578)
(3.46034e-06 2.29774e-06 0.0489368)
(1.47473e-06 1.14378e-06 0.0335535)
(5.38693e-07 5.99265e-07 0.0210781)
(1.12228e-07 2.81862e-07 0.0111779)
(-4.57552e-09 8.5277e-08 0.00341355)
(3.36249e-06 2.83459e-06 0.0489524)
(2.09075e-06 9.20888e-07 0.0335629)
(1.27786e-06 1.5462e-07 0.0210831)
(6.74244e-07 -9.91759e-08 0.0111803)
(2.15734e-07 -6.98378e-08 0.00341417)
(4.49925e-06 -7.0456e-07 0.0481392)
(2.15372e-06 -6.34712e-07 0.0329388)
(9.6059e-07 -5.06455e-07 0.0206618)
(3.33185e-07 -3.33444e-07 0.0109451)
(6.68217e-08 -1.21979e-07 0.00333895)
(-2.99707e-06 8.0823e-07 0.0484284)
(-1.33475e-06 6.57798e-07 0.0331581)
(-5.66784e-07 4.75289e-07 0.0208092)
(-1.84296e-07 2.83361e-07 0.0110273)
(-3.32316e-08 9.61695e-08 0.00336532)
(3.99759e-06 -1.83001e-07 0.0484428)
(1.86191e-06 -1.88162e-07 0.0331676)
(8.04875e-07 -1.61214e-07 0.0208156)
(2.61421e-07 -1.09789e-07 0.011031)
(4.63345e-08 -3.99472e-08 0.00336658)
(-3.68479e-06 2.16279e-06 0.0481299)
(-1.78422e-06 1.77802e-06 0.0329324)
(-8.29486e-07 1.29078e-06 0.0206572)
(-3.14931e-07 7.74193e-07 0.0109424)
(-7.19084e-08 2.64287e-07 0.00333798)
(6.36363e-06 1.92864e-06 0.0473748)
(2.81319e-06 1.15786e-06 0.0323739)
(1.11921e-06 6.70804e-07 0.0202886)
(3.12319e-07 3.25545e-07 0.01074)
(3.43494e-08 9.73717e-08 0.00327404)
(4.30053e-06 -3.48247e-06 0.0489242)
(1.79058e-06 -1.98393e-06 0.033546)
(5.88009e-07 -1.1239e-06 0.0210742)
(6.97959e-08 -5.60221e-07 0.0111764)
(-3.36015e-08 -1.73277e-07 0.00341325)
(3.64422e-06 1.7812e-06 0.0476323)
(1.64312e-06 7.63449e-07 0.0325483)
(6.78716e-07 3.07178e-07 0.0203962)
(2.1356e-07 9.19922e-08 0.0107958)
(3.49939e-08 1.4652e-08 0.00329079)
(-3.64872e-06 -2.58183e-06 0.0476266)
(-1.54953e-06 -1.36662e-06 0.0325452)
(-5.73045e-07 -6.94864e-07 0.0203952)
(-1.33911e-07 -2.94322e-07 0.0107957)
(-6.96635e-09 -7.71631e-08 0.00329089)
(2.78016e-06 2.93776e-06 0.0476281)
(1.61637e-06 1.06184e-06 0.0325449)
(9.01355e-07 2.68542e-07 0.0203939)
(4.28526e-07 -1.82446e-08 0.0107947)
(1.24933e-07 -3.8605e-08 0.00329046)
(-3.25364e-06 -3.08135e-06 0.0476097)
(-1.78014e-06 -1.1963e-06 0.032534)
(-9.2694e-07 -3.7676e-07 0.0203882)
(-4.08577e-07 -4.41072e-08 0.0107921)
(-1.10794e-07 1.6218e-08 0.0032898)
(3.45365e-06 4.04413e-06 0.0489284)
(1.24917e-06 2.47963e-06 0.0335486)
(2.77898e-07 1.50044e-06 0.0210755)
(-8.033e-08 7.8579e-07 0.0111766)
(-7.53588e-08 2.48675e-07 0.00341325)
(2.70841e-06 -1.11535e-06 0.0488728)
(1.36493e-06 -4.16835e-09 0.0334987)
(7.74564e-07 3.48524e-07 0.0210384)
(4.19863e-07 3.30098e-07 0.0111544)
(1.47212e-07 1.3301e-07 0.00340571)
(3.91282e-06 -6.82543e-07 0.047639)
(1.88986e-06 1.30756e-07 0.0325525)
(8.72907e-07 2.1253e-07 0.0203993)
(3.15306e-07 1.35043e-07 0.0107978)
(6.45098e-08 3.48339e-08 0.00329148)
(4.43831e-06 1.29447e-06 0.0481398)
(2.15628e-06 1.10006e-06 0.032939)
(9.84325e-07 8.29524e-07 0.0206619)
(3.55352e-07 5.17599e-07 0.0109454)
(7.63388e-08 1.82503e-07 0.003339)
(-3.01779e-06 -4.53537e-07 0.0484283)
(-1.34162e-06 -3.97809e-07 0.0331579)
(-5.65623e-07 -3.06807e-07 0.020809)
(-1.80901e-07 -1.92843e-07 0.0110272)
(-3.11361e-08 -6.72659e-08 0.00336527)
(3.98811e-06 5.8978e-07 0.0484425)
(1.86098e-06 5.03115e-07 0.0331673)
(8.08652e-07 3.76493e-07 0.0208154)
(2.65813e-07 2.31929e-07 0.0110309)
(4.84917e-08 8.11681e-08 0.00336653)
(-3.7837e-06 -1.6089e-06 0.0481308)
(-1.80847e-06 -1.3484e-06 0.0329328)
(-8.21067e-07 -9.995e-07 0.0206575)
(-3.00051e-07 -6.11865e-07 0.0109426)
(-6.4575e-08 -2.11582e-07 0.00333804)
(6.75402e-06 -1.12746e-06 0.0473742)
(3.12035e-06 -4.61485e-07 0.0323739)
(1.33627e-06 -1.55249e-07 0.0202887)
(4.37678e-07 -1.93855e-08 0.0107397)
(7.4965e-08 4.77823e-09 0.00327385)
(3.00529e-06 8.21487e-07 0.0484285)
(1.33984e-06 6.65997e-07 0.0331577)
(5.69985e-07 4.80557e-07 0.0208091)
(1.85219e-07 2.86574e-07 0.0110273)
(3.32208e-08 9.77717e-08 0.003365)
(3.68805e-06 2.15218e-06 0.0481293)
(1.78235e-06 1.74738e-06 0.0329315)
(8.26334e-07 1.25822e-06 0.0206568)
(3.11769e-07 7.50646e-07 0.010942)
(7.05236e-08 2.55028e-07 0.00333763)
(3.01531e-06 -4.48977e-07 0.0484278)
(1.34164e-06 -3.79797e-07 0.0331573)
(5.67287e-07 -2.85852e-07 0.0208085)
(1.82115e-07 -1.76858e-07 0.0110268)
(3.15107e-08 -6.12379e-08 0.00336492)
(3.7361e-06 -1.62069e-06 0.0481297)
(1.7807e-06 -1.34364e-06 0.0329317)
(8.08496e-07 -9.85305e-07 0.0206566)
(2.95367e-07 -5.97897e-07 0.0109419)
(6.35274e-08 -2.0568e-07 0.00333769)
(-3.91769e-06 3.10627e-06 0.048885)
(-2.12475e-06 1.1471e-06 0.0335033)
(-1.1077e-06 2.68593e-07 0.0210397)
(-4.94389e-07 -5.48626e-08 0.0111549)
(-1.33771e-07 -6.47284e-08 0.00340579)
(-3.33965e-06 3.90639e-06 0.0476417)
(-1.74667e-06 1.64167e-06 0.0325528)
(-7.77426e-07 5.71896e-07 0.0203989)
(-2.71331e-07 1.42542e-07 0.0107977)
(-5.01707e-08 1.45544e-08 0.00329164)
(3.29993e-06 -2.88853e-06 0.0476145)
(1.90791e-06 -1.06076e-06 0.0325383)
(1.07534e-06 -2.81751e-07 0.0203916)
(5.15878e-07 2.13523e-08 0.0107944)
(1.51954e-07 4.18356e-08 0.00329082)
(4.57842e-06 -2.63671e-06 0.0489258)
(2.89372e-06 -7.34725e-07 0.0335472)
(1.77949e-06 -4.14427e-09 0.021075)
(9.4081e-07 1.98829e-07 0.0111768)
(2.99654e-07 1.04232e-07 0.00341354)
(-1.32127e-06 -3.43765e-06 0.0480741)
(-1.14062e-06 -1.60048e-06 0.0328944)
(-9.1601e-07 -7.44832e-07 0.0206342)
(-6.02485e-07 -2.90717e-07 0.0109306)
(-2.2146e-07 -7.57979e-08 0.00333442)
(2.60178e-07 2.74793e-06 0.0483637)
(1.85481e-07 1.15725e-06 0.033117)
(1.45106e-07 4.77418e-07 0.0207843)
(9.77178e-08 1.58711e-07 0.0110143)
(3.62781e-08 3.62289e-08 0.00336136)
(-5.73442e-07 -2.62056e-06 0.0483649)
(-5.05405e-07 -1.12269e-06 0.0331155)
(-4.05835e-07 -4.87445e-07 0.0207831)
(-2.6478e-07 -1.70173e-07 0.0110137)
(-9.66881e-08 -4.16713e-08 0.0033612)
(1.33674e-06 3.45146e-06 0.0480864)
(1.03958e-06 1.57597e-06 0.0329036)
(7.95964e-07 7.05008e-07 0.0206397)
(5.13961e-07 2.66877e-07 0.0109333)
(1.8689e-07 6.69106e-08 0.00333519)
(2.15557e-06 -6.05502e-06 0.0473653)
(1.34811e-06 -2.58733e-06 0.0323679)
(7.89944e-07 -1.00346e-06 0.0202848)
(3.87583e-07 -2.68762e-07 0.0107381)
(1.17275e-07 -2.674e-08 0.00327343)
(1.28617e-06 -3.38458e-06 0.0480756)
(1.10465e-06 -1.57342e-06 0.0328955)
(8.79194e-07 -7.31932e-07 0.0206351)
(5.73655e-07 -2.85388e-07 0.010931)
(2.08836e-07 -7.42485e-08 0.00333446)
(-3.55116e-07 2.76715e-06 0.0483647)
(-2.93236e-07 1.16811e-06 0.0331175)
(-2.40732e-07 4.82724e-07 0.020785)
(-1.62224e-07 1.61211e-07 0.0110148)
(-6.01346e-08 3.70679e-08 0.00336143)
(5.16613e-07 -2.60677e-06 0.0483658)
(4.41325e-07 -1.1127e-06 0.033116)
(3.45205e-07 -4.81225e-07 0.0207837)
(2.21285e-07 -1.67618e-07 0.0110142)
(7.96009e-08 -4.09074e-08 0.00336128)
(-1.3852e-06 3.49384e-06 0.0480868)
(-1.1002e-06 1.60335e-06 0.032904)
(-8.53594e-07 7.21456e-07 0.0206403)
(-5.54943e-07 2.74643e-07 0.0109336)
(-2.02368e-07 6.90996e-08 0.00333519)
(-1.87655e-06 -6.0196e-06 0.0473651)
(-1.08777e-06 -2.62144e-06 0.0323676)
(-5.8903e-07 -1.05617e-06 0.0202849)
(-2.65093e-07 -3.09608e-07 0.0107378)
(-7.54055e-08 -4.26001e-08 0.00327328)
(-4.16677e-06 -3.03068e-06 0.0489244)
(-2.48326e-06 -1.044e-06 0.033546)
(-1.44989e-06 -2.15885e-07 0.0210738)
(-7.36454e-07 7.98226e-08 0.0111758)
(-2.28341e-07 6.55594e-08 0.00341295)
(3.11656e-06 2.2469e-06 0.0488738)
(1.43245e-06 9.79521e-07 0.0334973)
(5.89837e-07 3.89348e-07 0.0210364)
(1.80338e-07 1.16076e-07 0.011153)
(2.70336e-08 1.92157e-08 0.00340509)
(2.99133e-06 2.47295e-06 0.0488789)
(1.63977e-06 8.71161e-07 0.0335004)
(8.59728e-07 1.87501e-07 0.0210384)
(3.85005e-07 -4.9477e-08 0.0111539)
(1.07084e-07 -4.72951e-08 0.00340527)
(7.36793e-07 -1.01139e-05 0.0487018)
(1.03663e-06 -5.0131e-06 0.0334151)
(1.11217e-06 -2.15655e-06 0.0210014)
(8.1646e-07 -7.62095e-07 0.0111416)
(3.13608e-07 -1.46418e-07 0.0034038)
(6.05599e-06 -5.5424e-07 0.0485755)
(3.00241e-06 -6.23826e-07 0.0333287)
(1.34603e-06 -5.74475e-07 0.0209477)
(4.82609e-07 -4.08746e-07 0.0111133)
(1.02058e-07 -1.55129e-07 0.00339521)
(-5.52328e-06 2.42952e-06 0.0485818)
(-2.85935e-06 2.12435e-06 0.0333323)
(-1.38329e-06 1.60325e-06 0.0209491)
(-5.57816e-07 9.82687e-07 0.0111135)
(-1.3571e-07 3.38352e-07 0.00339513)
(-3.32728e-06 1.13075e-06 0.0488649)
(-1.65559e-06 3.22895e-07 0.0334919)
(-8.09513e-07 -3.9953e-08 0.0210334)
(-3.44134e-07 -1.28763e-07 0.0111515)
(-9.30506e-08 -6.09539e-08 0.00340473)
(-2.48882e-06 7.30625e-07 0.0476112)
(-1.20432e-06 2.4985e-07 0.032536)
(-5.53197e-07 1.08034e-07 0.0203896)
(-1.81442e-07 3.77835e-08 0.0107928)
(-3.09027e-08 1.41769e-08 0.00328994)
(3.7365e-06 -2.84032e-06 0.0476179)
(1.53919e-06 -1.53665e-06 0.0325389)
(5.11774e-07 -8.0734e-07 0.0203915)
(8.15732e-08 -3.66093e-07 0.010794)
(-1.44205e-08 -1.04275e-07 0.00329044)
(-3.44461e-06 -2.8592e-06 0.0488722)
(-1.52002e-06 -1.4568e-06 0.0334972)
(-5.68931e-07 -6.82793e-07 0.0210372)
(-1.37168e-07 -2.60723e-07 0.0111538)
(-7.91012e-09 -6.19872e-08 0.00340547)
(-3.61349e-06 -2.78362e-06 0.0488724)
(-1.95733e-06 -1.08152e-06 0.0334974)
(-9.8636e-07 -3.02981e-07 0.0210374)
(-4.18844e-07 3.98913e-10 0.0111538)
(-1.10477e-07 3.33725e-08 0.00340538)
(-3.59918e-06 -2.29317e-06 0.0488706)
(-1.8799e-06 -7.61247e-07 0.0334964)
(-9.05855e-07 -1.07243e-07 0.0210366)
(-3.76136e-07 6.64464e-08 0.0111532)
(-9.64821e-08 3.92097e-08 0.00340501)
(-4.48962e-06 -3.2619e-06 0.0476338)
(-2.67384e-06 -9.49871e-07 0.0325501)
(-1.5143e-06 5.72861e-10 0.0203982)
(-7.48715e-07 2.09201e-07 0.0107975)
(-2.23474e-07 1.04627e-07 0.0032916)
(1.52375e-06 2.91845e-06 0.047633)
(5.45832e-07 1.41158e-06 0.032547)
(5.70402e-08 7.81874e-07 0.0203959)
(-1.37296e-07 3.76835e-07 0.0107964)
(-8.77533e-08 1.18659e-07 0.00329128)
(-3.91974e-06 -1.36233e-06 0.0488685)
(-2.09578e-06 -2.75964e-07 0.0334953)
(-1.03454e-06 7.7992e-08 0.0210361)
(-4.17377e-07 1.35917e-07 0.011153)
(-9.91285e-08 5.78574e-08 0.00340499)
(-4.4959e-06 -8.81679e-07 0.0476197)
(-2.30046e-06 2.5321e-08 0.0325406)
(-1.12736e-06 2.64733e-07 0.0203922)
(-4.61045e-07 2.40076e-07 0.0107938)
(-1.13298e-07 9.35297e-08 0.00329014)
(3.51319e-06 2.50303e-06 0.0476163)
(1.47897e-06 1.38337e-06 0.0325383)
(5.15476e-07 7.53667e-07 0.0203913)
(9.24494e-08 3.49183e-07 0.0107937)
(-8.92182e-09 1.00937e-07 0.00329024)
(2.8322e-06 2.4142e-06 0.0488795)
(1.48536e-06 1.02937e-06 0.0335003)
(7.04335e-07 3.71687e-07 0.0210388)
(2.71142e-07 7.84082e-08 0.0111544)
(6.45432e-08 1.34579e-09 0.00340545)
(2.82854e-06 2.63103e-06 0.0488789)
(1.15412e-06 1.44007e-06 0.0334999)
(3.32498e-07 7.85069e-07 0.0210388)
(3.4589e-10 3.72125e-07 0.0111546)
(-3.79372e-08 1.12406e-07 0.00340555)
(6.22436e-06 1.46227e-06 0.0485765)
(3.17021e-06 1.36191e-06 0.0333294)
(1.47525e-06 1.09792e-06 0.0209483)
(5.61236e-07 7.11288e-07 0.0111135)
(1.28957e-07 2.55253e-07 0.00339506)
(-5.39015e-06 -1.51474e-06 0.0485831)
(-2.71897e-06 -1.39431e-06 0.0333331)
(-1.27022e-06 -1.09868e-06 0.0209498)
(-4.87526e-07 -6.97998e-07 0.0111138)
(-1.11343e-07 -2.46683e-07 0.00339499)
(5.545e-06 2.40831e-06 0.0485818)
(2.85519e-06 2.07713e-06 0.0333324)
(1.37108e-06 1.54622e-06 0.0209494)
(5.46846e-07 9.3878e-07 0.0111137)
(1.31263e-07 3.21537e-07 0.00339511)
(5.38714e-06 -1.62809e-06 0.0485836)
(2.71566e-06 -1.47599e-06 0.0333335)
(1.26922e-06 -1.13652e-06 0.0209499)
(4.87136e-07 -7.09541e-07 0.0111142)
(1.1139e-07 -2.47993e-07 0.00339534)
(2.6526e-06 -3.47907e-06 0.048872)
(8.60884e-07 -2.0241e-06 0.0334959)
(1.09658e-07 -1.11869e-06 0.0210361)
(-1.19652e-07 -5.24958e-07 0.0111531)
(-7.35912e-08 -1.51191e-07 0.00340533)
(2.69942e-06 -3.3435e-06 0.0488696)
(1.25428e-06 -1.60556e-06 0.0334959)
(5.28271e-07 -6.70497e-07 0.0210366)
(1.77573e-07 -2.02619e-07 0.0111538)
(3.88659e-08 -3.02876e-08 0.00340561)
(-6.69374e-07 -5.58383e-06 0.0486507)
(-7.90493e-07 -2.77367e-06 0.0333781)
(-7.63395e-07 -1.2752e-06 0.0209779)
(-5.52789e-07 -4.88706e-07 0.0111291)
(-2.12092e-07 -1.18613e-07 0.00339995)
(6.94497e-07 5.51275e-06 0.0486921)
(6.3663e-07 2.65137e-06 0.0334047)
(5.57266e-07 1.17194e-06 0.0209934)
(3.91046e-07 4.25589e-07 0.0111368)
(1.47091e-07 9.45545e-08 0.00340219)
(7.61647e-07 -5.50238e-06 0.0486509)
(8.73458e-07 -2.73629e-06 0.0333786)
(8.1808e-07 -1.26419e-06 0.0209783)
(5.80553e-07 -4.88497e-07 0.0111292)
(2.20295e-07 -1.19975e-07 0.00339988)
(-6.96241e-07 5.53654e-06 0.0486898)
(-6.43389e-07 2.67478e-06 0.0334038)
(-5.75918e-07 1.18726e-06 0.0209931)
(-4.10889e-07 4.33843e-07 0.0111365)
(-1.56583e-07 9.72117e-08 0.00340201)
(1.87179e-06 2.81564e-06 0.0683447)
(6.77797e-06 6.32663e-06 0.068259)
(0.000197049 0.000202308 0.127759)
(1.34523e-05 1.28557e-05 0.0925296)
(1.15924e-05 1.38071e-05 0.0923224)
(2.82263e-05 -1.05886e-07 0.103992)
(1.86391e-05 3.50713e-06 0.0790261)
(5.93395e-05 -1.21522e-06 0.119544)
(1.43152e-06 5.06821e-06 0.130307)
(4.5411e-05 1.21757e-05 0.10576)
(3.47506e-06 2.45653e-06 0.131956)
(2.81328e-05 4.21708e-07 0.103993)
(1.89252e-05 -2.60835e-06 0.0790238)
(5.93124e-05 1.23641e-06 0.119544)
(2.01868e-06 -3.14002e-06 0.130325)
(1.00906e-06 -2.69926e-06 0.131952)
(4.56754e-05 -1.10937e-05 0.105758)
(-2.61254e-07 -2.35818e-06 0.130322)
(-4.58223e-05 -1.14925e-05 0.105769)
(-1.88797e-05 -2.8948e-06 0.0790296)
(7.90916e-06 -5.45116e-06 0.0682521)
(0.000198233 -0.000195594 0.127701)
(1.36112e-05 -1.15165e-05 0.09232)
(1.99775e-05 -1.1603e-05 0.0926948)
(7.10996e-06 -7.00222e-06 0.0684569)
(-1.77231e-06 -5.64884e-05 0.120261)
(-2.14096e-06 -1.00661e-06 0.130414)
(-2.10605e-06 2.91992e-08 0.132012)
(1.60941e-05 -4.49896e-05 0.106254)
(1.40153e-06 -5.64471e-05 0.120261)
(6.65153e-07 -1.01841e-06 0.130416)
(9.45161e-07 1.20914e-06 0.132011)
(-1.5814e-05 -4.33123e-05 0.106245)
(3.64862e-08 -3.15093e-05 0.104832)
(3.76044e-06 -2.11245e-05 0.079438)
(-1.58596e-07 -3.14605e-05 0.104831)
(-3.66288e-06 -2.0591e-05 0.0794369)
(-0.000197795 -0.000199248 0.127699)
(-1.22322e-05 -1.34265e-05 0.0923632)
(-1.69947e-05 -1.14057e-05 0.0926564)
(-7.19311e-06 -5.78103e-06 0.0682608)
(-6.70706e-06 -6.82005e-06 0.0684537)
(2.189e-06 4.43208e-06 0.0670818)
(4.90165e-06 4.56709e-06 0.0670255)
(1.03301e-05 1.03134e-05 0.0848226)
(2.27791e-06 9.93147e-06 0.0784722)
(3.27654e-05 5.64468e-05 0.113343)
(1.74589e-05 3.76007e-05 0.102739)
(9.24395e-06 5.08348e-06 0.0782414)
(5.57645e-05 2.84976e-05 0.113156)
(3.76645e-05 1.44378e-05 0.102559)
(-4.08624e-06 3.37249e-06 0.0737357)
(2.85794e-05 4.29654e-08 0.100754)
(8.98154e-06 -3.20337e-07 0.0763376)
(-2.28158e-05 7.75233e-07 0.103994)
(9.48455e-06 -9.79279e-07 0.0737137)
(-2.26234e-05 2.08687e-06 0.100784)
(-3.61079e-06 1.14625e-06 0.0763486)
(-4.76789e-06 2.70927e-06 0.0658354)
(2.18569e-05 1.37128e-06 0.0904776)
(-1.26748e-05 5.41417e-07 0.0791135)
(9.40251e-06 -5.99117e-07 0.0658238)
(-1.73826e-05 -1.30187e-08 0.0905411)
(-4.33853e-06 -2.75919e-06 0.0737364)
(8.94719e-06 7.22137e-07 0.0763372)
(2.77963e-05 6.41694e-07 0.100755)
(-2.28781e-05 -4.26175e-07 0.103995)
(9.17691e-06 1.68709e-06 0.0737136)
(-3.63069e-06 -7.80678e-07 0.0763488)
(-2.33036e-05 -1.47252e-06 0.100786)
(-4.75249e-06 -1.81043e-06 0.065837)
(2.2017e-05 -3.22988e-07 0.0904762)
(-1.25812e-05 3.07588e-07 0.0791106)
(9.48392e-06 1.60772e-06 0.0658249)
(-1.72242e-05 1.01119e-06 0.0905406)
(4.73582e-06 -1.80319e-06 0.0658376)
(-2.20632e-05 -3.91346e-07 0.0904791)
(1.23081e-05 2.2696e-07 0.0791162)
(-9.54996e-06 1.51383e-06 0.0658256)
(1.70826e-05 9.85852e-07 0.0905431)
(-3.25745e-06 2.69454e-06 0.0682702)
(-8.69765e-06 8.30705e-06 0.0848075)
(4.79168e-06 -6.75059e-06 0.0670284)
(3.44731e-06 -5.4569e-06 0.0670461)
(1.15839e-05 -9.18874e-06 0.0847466)
(-3.17275e-06 2.50344e-06 0.0670058)
(-3.21262e-06 1.9224e-06 0.0670821)
(-3.13284e-05 1.10437e-05 0.102574)
(9.42675e-06 -7.07324e-06 0.0782718)
(5.73901e-05 -2.77712e-05 0.113168)
(-9.63372e-06 1.02496e-05 0.0923689)
(-4.92662e-05 2.81883e-05 0.113232)
(3.90587e-05 -1.89503e-05 0.10248)
(-6.9613e-06 9.67299e-07 0.078288)
(-1.61356e-05 3.62953e-05 0.102801)
(6.29164e-06 -8.6796e-06 0.0784576)
(3.37633e-05 -5.64047e-05 0.113424)
(-1.07116e-05 9.32751e-06 0.0927688)
(1.5526e-05 -3.43715e-05 0.102715)
(-4.15458e-06 7.75741e-06 0.0785532)
(-2.72477e-05 4.8662e-05 0.113506)