/*--------------------------------*- C++ -*----------------------------------*\
| =========                 |                                                 |
| \\      /  F ield         | OpenFOAM: The Open Source CFD Toolbox           |
|  \\    /   O peration     | Version:  2206                                  |
|   \\  /    A nd           | Website:  www.openfoam.com                      |
|    \\/     M anipulation  |                                                 |
\*---------------------------------------------------------------------------*/
FoamFile
{
    version     2.0;
    format      ascii;
    arch        "LSB;label=32;scalar=64";
    class       volScalarField;
    location    "70";
    object      nut;
}
// * * * * * * * * * * * * * * * * * * * * * * * * * * * * * * * * * * * * * //

dimensions      [0 2 -1 0 0 0 0];

internalField   nonuniform List<scalar> 
66621
(
3.92616e-08
1.66144e-07
3.84299e-08
3.81377e-07
1.80489e-07
9.8736e-07
1.80217e-08
3.94783e-07
8.15685e-07
9.92554e-07
1.80067e-07
7.69069e-07
9.44975e-08
9.51167e-08
1.78629e-08
1.75788e-08
7.57788e-07
9.63888e-08
9.35656e-08
8.01556e-07
1.79868e-07
9.6272e-08
1.81241e-08
3.76835e-07
7.94666e-07
1.77434e-07
9.84388e-07
1.67217e-07
3.95857e-08
3.82617e-07
8.13104e-07
9.90925e-07
1.8068e-07
1.68784e-07
3.98262e-08
3.79828e-07
8.04232e-07
9.90648e-07
1.79291e-07
1.67642e-07
3.9039e-08
7.69626e-07
9.5911e-08
9.62396e-08
1.79779e-08
3.90926e-07
8.07771e-07
9.80494e-07
1.80077e-07
1.74014e-07
3.95768e-08
1.72774e-07
3.93504e-08
1.7772e-08
1.7821e-08
8.60892e-08
1.5668e-08
2.67585e-08
1.38608e-07
3.14226e-08
1.674e-07
1.40019e-07
3.14272e-08
2.68227e-08
1.57786e-08
8.57838e-08
3.84261e-08
8.55449e-08
1.58444e-08
1.80357e-08
6.10583e-08
1.58096e-08
1.57983e-08
1.57648e-08
1.57246e-08
5.94677e-08
1.50578e-07
3.70576e-08
9.45594e-08
2.63607e-07
2.64651e-07
3.71192e-08
1.50751e-07
1.50686e-07
3.67771e-08
9.54069e-08
2.65824e-07
2.65813e-07
3.69095e-08
1.4921e-07
1.75437e-08
5.94111e-08
1.57872e-08
1.56034e-08
1.57408e-08
1.55333e-08
5.87257e-08
1.47962e-07
3.73465e-08
2.65736e-07
3.73489e-08
1.48958e-07
1.46711e-07
3.5993e-08
9.37592e-08
2.62125e-07
3.58423e-08
1.4885e-07
2.63064e-07
1.59919e-08
5.96057e-08
3.81233e-08
2.62143e-07
1.53951e-07
2.7093e-08
3.16941e-08
1.42322e-07
1.66589e-07
3.17658e-08
1.41893e-07
2.73587e-08
1.61909e-08
8.83495e-08
3.96851e-08
8.82544e-08
1.62918e-08
1.4006e-07
3.18457e-08
2.70869e-08
8.82842e-08
1.62199e-08
3.15844e-08
1.39649e-07
2.67273e-08
8.64213e-08
1.59475e-08
6.15874e-08
1.58271e-08
1.60527e-08
1.5856e-08
1.59924e-08
5.98546e-08
1.50887e-07
3.70759e-08
9.57879e-08
2.6551e-07
3.70299e-08
2.66624e-07
1.50311e-07
1.52179e-07
3.78308e-08
9.64876e-08
2.63268e-07
2.63402e-07
3.81118e-08
1.52322e-07
1.78735e-08
2.73388e-08
1.42838e-07
3.21095e-08
1.74128e-07
1.43872e-07
3.22696e-08
2.73899e-08
1.61335e-08
8.81915e-08
3.93243e-08
8.8408e-08
1.61871e-08
2.73165e-08
1.45066e-07
3.20333e-08
1.71122e-07
1.44747e-07
3.22297e-08
2.72318e-08
1.60761e-08
8.8854e-08
3.94617e-08
8.87183e-08
1.6106e-08
1.7831e-08
1.35468e-06
1.15267e-06
1.18703e-06
9.29985e-07
1.3672e-06
1.16195e-06
1.1984e-06
9.37174e-07
1.36252e-06
1.19175e-06
1.16931e-06
9.34618e-07
1.35936e-06
1.19684e-06
1.17079e-06
9.40077e-07
5.92375e-07
3.42064e-07
6.43963e-07
3.82352e-07
3.42676e-07
6.46119e-07
5.91245e-07
2.65272e-07
3.88043e-07
5.28968e-07
6.00065e-07
6.54308e-07
3.56262e-07
3.9781e-07
6.56357e-07
3.51452e-07
6.02056e-07
5.36266e-07
2.68712e-07
1.8158e-07
3.93222e-07
3.92217e-07
2.69539e-07
5.45472e-07
3.0809e-07
7.64922e-07
4.52251e-07
4.55421e-07
4.47788e-07
4.52832e-07
3.07785e-07
3.01979e-07
7.60725e-07
4.50708e-07
4.51534e-07
3.03134e-07
4.50212e-07
4.53938e-07
2.68382e-07
3.85376e-07
5.33471e-07
5.84952e-07
3.42735e-07
6.41407e-07
3.79309e-07
3.43515e-07
6.44311e-07
5.834e-07
5.22813e-07
2.63141e-07
1.74715e-07
3.81381e-07
2.60241e-07
3.8211e-07
5.19343e-07
5.92352e-07
6.41696e-07
3.43753e-07
3.8499e-07
6.49509e-07
3.46494e-07
5.87003e-07
5.2779e-07
2.66448e-07
1.80656e-07
3.89978e-07
2.64771e-07
5.34706e-07
3.89644e-07
5.88734e-07
6.4449e-07
3.40288e-07
3.82135e-07
6.46213e-07
3.42863e-07
5.81534e-07
5.25459e-07
2.65507e-07
1.76989e-07
3.81611e-07
3.83361e-07
2.64229e-07
5.30655e-07
3.07837e-07
7.69114e-07
4.56284e-07
4.57969e-07
4.60425e-07
4.5105e-07
3.07181e-07
5.94143e-07
6.54152e-07
3.54523e-07
3.95527e-07
6.5477e-07
3.55148e-07
5.93631e-07
5.31307e-07
2.68001e-07
1.8004e-07
3.84384e-07
3.82664e-07
2.70798e-07
5.38735e-07
2.84438e-09
3.07963e-10
2.11726e-11
2.86844e-12
2.53452e-12
2.82635e-09
3.05246e-10
2.09815e-11
2.85904e-12
2.52989e-12
2.94005e-09
3.21316e-10
2.24828e-11
3.20065e-12
2.85846e-12
2.89795e-09
3.17554e-10
2.22712e-11
3.19779e-12
2.86094e-12
2.86598e-09
3.13218e-10
2.19719e-11
3.18481e-12
2.85573e-12
2.96376e-09
3.24305e-10
2.26836e-11
3.20823e-12
2.86083e-12
2.90814e-09
3.14316e-10
2.15558e-11
2.87543e-12
2.53148e-12
2.89277e-09
3.1315e-10
2.14868e-11
2.87502e-12
2.53288e-12
2.85328e-09
3.08554e-10
2.12003e-11
2.86659e-12
2.53175e-12
2.89405e-09
3.16549e-10
2.21951e-11
3.19345e-12
2.85857e-12
2.84614e-09
3.0781e-10
2.11499e-11
2.86454e-12
2.53114e-12
2.8393e-09
3.07404e-10
2.11374e-11
2.86404e-12
2.53071e-12
2.88997e-09
3.16175e-10
2.21673e-11
3.19159e-12
2.85742e-12
2.87587e-09
3.14875e-10
2.20953e-11
3.18916e-12
2.85662e-12
2.70516e-09
2.92569e-10
2.0324e-11
2.90793e-12
2.60146e-12
2.81394e-09
3.05599e-10
2.12381e-11
3.00122e-12
2.67741e-12
2.79827e-09
3.04701e-10
2.11974e-11
2.99755e-12
2.67438e-12
2.7126e-09
2.93145e-10
2.03538e-11
2.91169e-12
2.60481e-12
2.81041e-09
3.04257e-10
2.09336e-11
2.85236e-12
2.52366e-12
2.93104e-09
3.20689e-10
2.24553e-11
3.19573e-12
2.8536e-12
2.88529e-09
3.11265e-10
2.13721e-11
2.89079e-12
2.55379e-12
2.87425e-09
3.10531e-10
2.13336e-11
2.88444e-12
2.54777e-12
2.85646e-09
3.08658e-10
2.12254e-11
2.88689e-12
2.55338e-12
2.84667e-09
3.0787e-10
2.11751e-11
2.87805e-12
2.54501e-12
2.85991e-09
3.12891e-10
2.1956e-11
3.17989e-12
2.8507e-12
2.72932e-09
2.9652e-10
2.08497e-11
3.11436e-12
2.81076e-12
2.9506e-09
3.18536e-10
2.1833e-11
2.9055e-12
2.55666e-12
2.75088e-09
2.97888e-10
2.06683e-11
2.91871e-12
2.60332e-12
2.83682e-09
3.08328e-10
2.14154e-11
3.00637e-12
2.678e-12
2.82628e-09
3.07841e-10
2.13965e-11
3.0034e-12
2.67515e-12
2.76504e-09
2.98831e-10
2.07154e-11
2.92294e-12
2.60673e-12
2.90034e-09
3.13753e-10
2.15231e-11
2.86902e-12
2.52533e-12
2.83036e-09
3.0799e-10
2.13978e-11
3.00517e-12
2.67719e-12
2.75095e-09
2.97865e-10
2.06658e-11
2.92073e-12
2.60557e-12
2.81315e-09
3.06303e-10
2.12805e-11
3.00121e-12
2.6766e-12
2.71702e-09
2.94105e-10
2.04215e-11
2.91343e-12
2.60476e-12
2.7287e-09
2.96047e-10
2.08166e-11
3.11332e-12
2.8104e-12
2.91857e-09
3.14897e-10
2.16051e-11
2.8995e-12
2.55651e-12
2.90208e-09
3.13489e-10
2.15194e-11
2.88921e-12
2.54743e-12
2.88492e-09
3.1595e-10
2.21597e-11
3.1847e-12
2.84984e-12
2.70376e-09
2.93027e-10
2.03629e-11
2.90485e-12
2.59669e-12
2.80503e-09
3.05552e-10
2.12573e-11
3.0015e-12
2.67683e-12
2.80276e-09
3.05435e-10
2.12419e-11
2.99458e-12
2.66975e-12
2.7102e-09
2.93711e-10
2.04061e-11
2.91351e-12
2.60509e-12
2.82862e-09
3.06525e-10
2.10786e-11
2.85314e-12
2.52023e-12
2.68972e-09
2.9145e-10
2.02664e-11
2.90208e-12
2.59632e-12
2.79539e-09
3.04481e-10
2.11935e-11
2.99983e-12
2.67672e-12
2.7895e-09
3.03846e-10
2.1144e-11
2.99186e-12
2.66946e-12
2.70032e-09
2.92641e-10
2.03352e-11
2.91113e-12
2.60452e-12
2.82766e-09
3.06335e-10
2.10688e-11
2.85273e-12
2.52002e-12
2.86636e-09
3.14061e-10
2.20404e-11
3.1797e-12
2.84771e-12
2.70111e-09
2.93381e-10
2.06509e-11
3.10713e-12
2.80845e-12
2.69378e-09
2.92382e-10
2.05832e-11
3.10555e-12
2.80874e-12
2.90623e-09
3.17224e-10
2.22389e-11
3.19587e-12
2.85999e-12
2.91578e-09
3.17589e-10
2.22375e-11
3.18583e-12
2.84909e-12
2.92543e-09
3.18547e-10
2.22931e-11
3.19242e-12
2.85483e-12
2.71602e-09
2.94978e-10
2.07518e-11
3.10996e-12
2.80866e-12
2.90032e-09
3.12985e-10
2.14842e-11
2.89407e-12
2.55407e-12
2.88912e-09
3.12216e-10
2.14394e-11
2.8882e-12
2.54887e-12
2.69305e-09
2.92705e-10
2.06068e-11
3.10146e-12
2.80346e-12
2.68128e-09
2.91526e-10
2.05334e-11
3.09898e-12
2.80284e-12
2.69097e-09
2.92078e-10
2.05653e-11
3.10324e-12
2.80665e-12
2.8969e-09
3.13052e-10
2.1489e-11
2.89508e-12
2.55507e-12
2.889e-09
3.12659e-10
2.14731e-11
2.88788e-12
2.54741e-12
2.66526e-09
2.8917e-10
2.03797e-11
3.09884e-12
2.80718e-12
2.81813e-09
3.04313e-10
2.09455e-11
2.87829e-12
2.55204e-12
2.80896e-09
3.03884e-10
2.09249e-11
2.8725e-12
2.54622e-12
2.68482e-09
2.9178e-10
2.05491e-11
3.09875e-12
2.8022e-12
2.65768e-09
2.88709e-10
2.03536e-11
3.09446e-12
2.80309e-12
2.99455e-09
3.26075e-10
2.2773e-11
3.20128e-12
2.85079e-12
3.0049e-09
3.2704e-10
2.28266e-11
3.20762e-12
2.85637e-12
3.00424e-09
3.26734e-10
2.28077e-11
3.20771e-12
2.85713e-12
2.95481e-09
3.21623e-10
2.24821e-11
3.198e-12
2.85573e-12
2.71464e-09
2.94725e-10
2.07316e-11
3.10554e-12
2.80439e-12
2.71455e-09
2.94837e-10
2.07428e-11
3.1056e-12
2.80397e-12
2.93561e-09
3.19664e-10
2.23549e-11
3.18424e-12
2.84421e-12
2.94146e-09
3.20234e-10
2.23915e-11
3.19595e-12
2.85626e-12
2.92138e-09
3.18255e-10
2.22763e-11
3.18234e-12
2.84411e-12
2.92903e-09
3.1918e-10
2.23317e-11
3.19436e-12
2.85601e-12
1.78306e-08
1.75224e-08
7.53452e-07
9.56778e-08
9.2975e-08
1.66826e-07
3.88356e-08
3.84348e-07
7.74568e-07
1.77792e-07
9.39196e-07
1.67352e-07
3.98762e-08
3.79947e-07
7.82411e-07
9.51598e-07
1.80184e-07
7.82682e-07
1.79432e-07
3.90547e-08
1.79033e-08
7.38751e-07
9.60523e-08
9.51421e-08
1.79302e-08
3.90058e-07
7.93581e-07
9.83585e-07
1.79809e-07
3.96808e-07
7.86314e-07
9.74297e-07
1.80732e-07
1.74557e-07
3.99293e-08
1.74088e-07
4.01912e-08
7.38495e-07
9.36366e-08
9.55343e-08
1.77163e-08
1.79078e-08
1.57526e-08
1.55432e-08
5.91238e-08
3.74226e-08
2.63939e-07
1.49327e-07
3.59779e-08
2.63645e-07
1.48555e-07
2.70124e-08
1.39795e-07
3.16693e-08
1.69119e-07
2.67597e-08
1.416e-07
3.20806e-08
1.60368e-08
8.59415e-08
3.92957e-08
1.58232e-08
8.69914e-08
2.74311e-08
3.17941e-08
1.42374e-07
1.69486e-07
2.70844e-08
3.22869e-08
1.41993e-07
1.64364e-08
8.83177e-08
4.04816e-08
1.62886e-08
8.93198e-08
1.61205e-08
8.62841e-08
3.95613e-08
1.59249e-08
8.77185e-08
1.82855e-08
5.96714e-08
1.6038e-08
1.59606e-08
5.97197e-08
1.60117e-08
1.62248e-08
1.51296e-07
3.75878e-08
2.62787e-07
9.70644e-08
2.67846e-07
1.48477e-07
3.75963e-08
1.52666e-07
3.77369e-08
2.64016e-07
9.72836e-08
1.53171e-07
3.8258e-08
2.68122e-07
1.80835e-08
2.76131e-08
1.4464e-07
3.2487e-08
1.74739e-07
2.73128e-08
1.46209e-07
3.27225e-08
1.63283e-08
8.86791e-08
4.01347e-08
1.61584e-08
8.99056e-08
2.74014e-08
1.45284e-07
3.24358e-08
1.74406e-07
2.73761e-08
1.44761e-07
3.24902e-08
1.62539e-08
8.87563e-08
4.06524e-08
1.6118e-08
8.94691e-08
5.88008e-08
1.58206e-08
1.57953e-08
5.96561e-08
1.60024e-08
1.59703e-08
1.50774e-07
3.70586e-08
2.64924e-07
9.59192e-08
1.50377e-07
2.6156e-07
3.79994e-08
1.51703e-07
3.6655e-08
2.62486e-07
9.68378e-08
1.51535e-07
2.65665e-07
3.75399e-08
1.79863e-08
1.79974e-08
1.35401e-06
1.17799e-06
1.16234e-06
9.29772e-07
1.36918e-06
1.17786e-06
1.16471e-06
9.36411e-07
1.35901e-06
1.15041e-06
1.15713e-06
9.20022e-07
1.35199e-06
1.1536e-06
1.163e-06
9.32201e-07
4.52542e-07
4.51107e-07
3.065e-07
5.75397e-07
3.42405e-07
6.25618e-07
3.83675e-07
5.72872e-07
3.42717e-07
6.28038e-07
5.22538e-07
2.63272e-07
3.80137e-07
1.79343e-07
3.82091e-07
5.20134e-07
2.62489e-07
5.84964e-07
6.30014e-07
3.47015e-07
3.85828e-07
5.83728e-07
6.29638e-07
3.44723e-07
5.27995e-07
2.66863e-07
3.8235e-07
1.79942e-07
5.23867e-07
2.67289e-07
3.88191e-07
5.2461e-07
2.65828e-07
3.79854e-07
1.80665e-07
5.1694e-07
2.63634e-07
3.84797e-07
3.08763e-07
7.48219e-07
4.53583e-07
4.57054e-07
4.53805e-07
3.08869e-07
4.57657e-07
5.98987e-07
6.48598e-07
3.51827e-07
3.95316e-07
5.91896e-07
6.52173e-07
3.56164e-07
5.42337e-07
2.73146e-07
3.90253e-07
1.81175e-07
5.36098e-07
3.92389e-07
2.72726e-07
5.95838e-07
6.53938e-07
3.50922e-07
3.98368e-07
5.97304e-07
6.45591e-07
3.55771e-07
5.36871e-07
2.70147e-07
3.80667e-07
1.83106e-07
5.3225e-07
2.72584e-07
3.88743e-07
3.05824e-07
7.50367e-07
4.49844e-07
4.53757e-07
3.05582e-07
4.51519e-07
4.50088e-07
1.36e-06
7.90184e-07
1.36439e-06
7.92835e-07
8.00838e-07
7.60755e-07
7.54023e-07
7.51201e-07
8.03771e-07
7.95734e-07
8.06419e-07
8.08634e-07
7.55671e-07
7.53791e-07
7.88848e-07
7.9085e-07
7.92394e-07
8.09566e-07
7.8922e-07
7.96691e-07
7.99817e-07
7.50385e-07
8.03497e-07
8.03111e-07
7.56719e-07
7.89252e-07
7.90573e-07
7.8095e-07
7.60603e-07
8.09293e-07
1.75802e-07
3.93019e-08
3.95627e-08
1.73999e-07
1.83337e-08
1.83285e-08
1.68121e-07
3.79343e-08
3.81064e-08
1.67261e-07
1.36761e-06
1.38007e-06
1.36867e-06
1.36266e-06
1.37142e-06
1.36066e-06
1.36239e-06
3.85258e-07
1.77324e-07
9.67317e-07
8.01388e-07
1.80606e-07
9.85843e-07
3.84783e-07
1.7525e-07
3.98805e-08
1.73449e-07
3.97961e-08
1.8205e-08
1.81463e-08
1.6616e-07
3.81801e-08
1.65423e-07
3.82135e-08
1.37865e-06
1.37152e-06
1.37752e-06
3.84418e-07
1.7886e-07
9.55801e-07
8.05677e-07
3.80656e-07
1.80469e-07
9.87679e-07
1.81933e-08
1.81539e-08
4.03877e-07
9.97091e-07
1.84921e-07
8.13831e-07
9.92218e-07
1.8339e-07
4.00588e-07
9.35833e-08
9.54652e-08
7.56477e-07
9.50535e-08
9.58754e-08
1.81148e-08
1.80711e-08
1.764e-08
1.76586e-08
9.65024e-08
9.30636e-08
7.42172e-07
9.69024e-08
9.44543e-08
1.81608e-08
1.81836e-08
1.76675e-08
1.7679e-08
7.48969e-07
9.71923e-08
9.38622e-08
9.72151e-08
9.41876e-08
1.76637e-07
4.01962e-08
4.02863e-08
1.75869e-07
4.0132e-07
1.82538e-07
9.94343e-07
7.97645e-07
1.80564e-07
9.85293e-07
4.04487e-07
4.04099e-07
1.84753e-07
9.90952e-07
8.08184e-07
1.83921e-07
9.96732e-07
4.04432e-07
1.75395e-07
3.98776e-08
4.00502e-08
1.74368e-07
1.74956e-07
4.03962e-08
4.04883e-08
1.76787e-07
4.03402e-07
8.00417e-07
1.81981e-07
9.89436e-07
1.82407e-07
9.94248e-07
4.04106e-07
4.0498e-07
8.04523e-07
1.83832e-07
9.96141e-07
1.83053e-07
9.98472e-07
4.06597e-07
9.73988e-08
9.50821e-08
7.54485e-07
9.79038e-08
9.6151e-08
1.80136e-08
1.80004e-08
1.83003e-08
1.83002e-08
7.62661e-07
9.59486e-08
9.62971e-08
9.7567e-08
9.56203e-08
1.80457e-08
1.80211e-08
3.8332e-07
1.75463e-07
9.6746e-07
7.96858e-07
1.76023e-07
9.76324e-07
3.82716e-07
1.69058e-07
3.93974e-08
1.68564e-07
3.92084e-08
3.79173e-07
9.7114e-07
1.8209e-07
7.98488e-07
9.89859e-07
3.82637e-07
1.81854e-07
1.66649e-07
3.83061e-08
3.81335e-08
1.65673e-07
3.84318e-07
7.83953e-07
1.73789e-07
9.85341e-07
1.73778e-07
9.62692e-07
3.82106e-07
1.67489e-07
3.94976e-08
1.67012e-07
3.95363e-08
3.82382e-07
7.97611e-07
9.89248e-07
1.83053e-07
9.71e-07
3.7859e-07
1.81801e-07
1.69227e-07
3.90593e-08
3.90429e-08
1.69877e-07
3.83827e-07
9.63534e-07
1.75263e-07
7.93618e-07
9.80282e-07
3.83012e-07
1.7584e-07
1.6821e-07
3.80476e-08
1.66869e-07
3.8234e-08
3.84552e-07
7.89727e-07
1.81214e-07
9.83029e-07
1.8022e-07
9.6702e-07
3.82034e-07
1.67221e-07
3.92406e-08
3.9732e-08
1.67874e-07
3.78843e-07
7.90771e-07
9.77888e-07
1.77291e-07
9.5905e-07
3.8084e-07
1.74327e-07
1.67786e-07
3.84565e-08
1.69541e-07
3.86752e-08
1.81827e-08
1.81753e-08
1.76258e-08
1.76281e-08
9.7195e-08
9.28357e-08
7.45878e-07
9.73319e-08
9.38331e-08
1.77393e-07
4.06515e-08
1.77051e-07
4.02359e-08
4.03611e-07
1.84426e-07
9.9202e-07
8.09049e-07
4.04846e-07
1.84103e-07
9.95182e-07
4.05383e-07
1.84517e-07
9.99014e-07
8.06518e-07
4.06932e-07
1.8425e-07
9.91155e-07
9.62701e-08
9.62863e-08
7.53339e-07
9.69803e-08
9.57455e-08
1.79995e-08
1.80644e-08
3.81227e-07
1.75137e-07
9.63232e-07
8.04144e-07
3.83432e-07
1.73814e-07
9.87489e-07
1.67674e-07
4.0227e-08
1.68115e-07
3.96058e-08
3.83683e-07
9.61534e-07
1.81875e-07
8.05918e-07
3.80514e-07
9.92017e-07
1.82255e-07
1.67505e-07
3.97993e-08
1.69376e-07
3.94267e-08
3.85466e-07
9.63214e-07
1.77001e-07
8.03234e-07
3.79869e-07
9.89804e-07
1.7853e-07
1.66445e-07
3.88187e-08
1.66804e-07
3.84243e-08
9.6949e-08
9.72222e-08
7.52058e-07
9.60002e-08
9.83716e-08
1.83302e-08
1.83651e-08
9.73981e-08
1.83204e-08
4.01008e-07
9.9768e-07
1.82376e-07
8.14705e-07
9.95152e-07
1.80517e-07
3.99179e-07
1.75141e-07
4.04089e-08
4.03423e-08
1.76411e-07
1.73369e-07
3.95648e-08
3.95603e-08
1.75752e-07
3.98425e-07
1.84956e-07
4.00901e-07
1.82806e-07
1.73758e-07
4.05291e-08
1.7321e-07
3.95384e-08
1.76714e-08
1.76827e-08
1.8017e-08
1.79893e-08
9.48174e-08
1.79137e-08
2.75017e-08
3.24017e-08
1.46852e-07
1.75299e-07
3.26761e-08
1.46364e-07
2.74779e-08
1.64187e-08
4.00646e-08
8.99492e-08
9.01879e-08
1.6408e-08
1.62778e-08
8.96402e-08
3.98084e-08
8.96619e-08
1.63159e-08
2.757e-08
1.75061e-07
3.21548e-08
1.44798e-07
3.2525e-08
1.46035e-07
2.75671e-08
1.83499e-08
1.82937e-08
2.65462e-08
1.40249e-07
3.13232e-08
1.67239e-07
1.39616e-07
3.14765e-08
2.66719e-08
1.57727e-08
3.82576e-08
8.52926e-08
8.50163e-08
1.5846e-08
1.58596e-08
8.60406e-08
3.84401e-08
8.56687e-08
1.58539e-08
2.67212e-08
1.68826e-07
1.39172e-07
3.10897e-08
1.38412e-07
3.15092e-08
2.66996e-08
2.75488e-08
1.75501e-07
3.2361e-08
1.44992e-07
3.25711e-08
1.4647e-07
2.75838e-08
1.63546e-08
8.88495e-08
4.04035e-08
1.63096e-08
8.97684e-08
2.76149e-08
1.73687e-07
3.22166e-08
1.44561e-07
2.7389e-08
3.26271e-08
1.46501e-07
1.63364e-08
8.96847e-08
3.97167e-08
8.972e-08
1.63544e-08
1.81953e-08
1.81983e-08
2.6517e-08
1.65265e-07
1.39532e-07
3.12479e-08
1.38962e-07
3.14055e-08
2.64112e-08
1.58177e-08
8.56209e-08
3.81719e-08
1.59275e-08
8.52325e-08
2.67438e-08
1.66802e-07
1.37891e-07
3.11716e-08
2.67434e-08
1.40518e-07
3.1308e-08
1.58698e-08
8.6126e-08
3.86238e-08
8.59691e-08
1.5825e-08
1.82708e-08
1.81465e-08
5.76268e-08
1.57728e-08
1.56736e-08
1.57744e-08
1.57039e-08
5.85594e-08
1.48381e-07
2.64095e-07
9.52491e-08
3.70842e-08
2.65552e-07
3.74069e-08
1.48531e-07
1.50367e-07
2.65455e-07
9.50058e-08
3.66012e-08
2.66632e-07
3.68757e-08
1.49665e-07
1.49375e-07
3.69308e-08
9.40757e-08
2.65337e-07
2.64689e-07
3.70349e-08
1.50059e-07
1.48447e-07
3.65628e-08
9.5935e-08
2.65073e-07
2.65181e-07
3.68117e-08
1.49663e-07
5.7831e-08
1.57761e-08
1.57106e-08
1.58031e-08
1.57175e-08
5.795e-08
1.79908e-08
1.80765e-08
1.75899e-08
1.76624e-08
5.67198e-08
1.56499e-08
1.54965e-08
1.56821e-08
1.55174e-08
5.8979e-08
1.49993e-07
2.65238e-07
9.64727e-08
3.7088e-08
3.70364e-08
2.66775e-07
1.49384e-07
1.47764e-07
2.61178e-07
9.43345e-08
3.62364e-08
3.64026e-08
2.5923e-07
1.47545e-07
1.49179e-07
3.71164e-08
9.69678e-08
2.66243e-07
3.74443e-08
1.48285e-07
2.63325e-07
1.47825e-07
3.60451e-08
9.39265e-08
2.61568e-07
3.6476e-08
1.48507e-07
2.61176e-07
5.72987e-08
1.56567e-08
1.55589e-08
1.56843e-08
1.55582e-08
5.73919e-08
1.8153e-08
1.81664e-08
1.76765e-08
1.76537e-08
5.75078e-08
1.57012e-08
1.55913e-08
5.7866e-08
1.57516e-08
1.55153e-08
1.49679e-07
2.63083e-07
9.67413e-08
3.74287e-08
3.75805e-08
2.66571e-07
1.50748e-07
1.48097e-07
2.57445e-07
9.3132e-08
3.62098e-08
3.63649e-08
2.61191e-07
1.48877e-07
1.50347e-07
3.77982e-08
2.65823e-07
9.76038e-08
1.5019e-07
3.75409e-08
2.66757e-07
1.49313e-07
3.63306e-08
2.60831e-07
9.46883e-08
1.46745e-07
3.65233e-08
2.61735e-07
5.88291e-08
1.57678e-08
1.56013e-08
1.57475e-08
1.56246e-08
5.79228e-08
2.77143e-08
3.24407e-08
1.46773e-07
1.76577e-07
3.27337e-08
1.47167e-07
2.7832e-08
1.65942e-08
4.06606e-08
9.06634e-08
9.12152e-08
1.65467e-08
1.64814e-08
9.02155e-08
4.06496e-08
9.07281e-08
1.65411e-08
2.76108e-08
1.76279e-07
3.24871e-08
1.45842e-07
3.25127e-08
1.47408e-07
2.78232e-08
2.75582e-08
3.25483e-08
1.46634e-07
1.76585e-07
2.75019e-08
3.26917e-08
1.4734e-07
1.62685e-08
4.00657e-08
8.98859e-08
1.63466e-08
8.87676e-08
1.62617e-08
8.88619e-08
4.0163e-08
1.62463e-08
8.93235e-08
2.75631e-08
1.75588e-07
3.248e-08
1.46684e-07
2.75032e-08
3.24414e-08
1.46319e-07
2.78763e-08
3.29109e-08
1.46811e-07
1.77632e-07
2.7843e-08
3.27615e-08
1.48563e-07
1.65817e-08
4.05781e-08
8.98675e-08
9.06136e-08
1.65612e-08
1.66331e-08
9.10196e-08
4.07212e-08
1.65394e-08
9.15423e-08
2.78413e-08
1.76802e-07
3.26308e-08
1.48222e-07
3.26365e-08
1.47873e-07
2.79074e-08
5.82064e-08
1.58701e-08
1.58471e-08
1.58879e-08
1.58638e-08
5.94824e-08
1.51466e-07
2.63925e-07
9.80324e-08
3.68411e-08
3.72244e-08
2.68552e-07
1.50481e-07
1.51013e-07
2.64717e-07
9.60548e-08
3.74225e-08
2.66204e-07
3.72472e-08
1.48704e-07
1.51657e-07
3.71426e-08
9.7539e-08
2.67854e-07
3.7368e-08
2.66933e-07
1.52109e-07
1.49452e-07
3.74112e-08
9.58695e-08
2.66112e-07
2.65929e-07
3.76271e-08
1.50692e-07
5.84463e-08
1.58755e-08
1.59e-08
1.58594e-08
1.59064e-08
5.82961e-08
1.8025e-08
1.80492e-08
1.82437e-08
1.83484e-08
5.86341e-08
1.58601e-08
1.59585e-08
5.9023e-08
1.58545e-08
1.59493e-08
1.51111e-07
2.68297e-07
9.69865e-08
3.72079e-08
2.68883e-07
3.76145e-08
1.51537e-07
1.5018e-07
2.65916e-07
9.57549e-08
3.75942e-08
3.77078e-08
2.64022e-07
1.50443e-07
1.52532e-07
3.7634e-08
2.68132e-07
9.80907e-08
2.6796e-07
1.51743e-07
3.72059e-08
1.5102e-07
3.77293e-08
2.67328e-07
9.58859e-08
1.50843e-07
3.78032e-08
2.67933e-07
6.04265e-08
1.58911e-08
1.59903e-08
1.59916e-08
1.6e-08
5.88184e-08
1.80301e-08
1.79652e-08
2.70395e-08
3.13667e-08
1.66875e-07
1.41905e-07
3.1623e-08
1.41452e-07
2.70466e-08
1.6149e-08
8.73203e-08
3.97845e-08
8.70818e-08
1.61963e-08
2.69274e-08
1.69738e-07
3.15377e-08
1.40476e-07
3.17008e-08
1.42793e-07
2.7243e-08
1.61663e-08
8.78356e-08
3.95001e-08
8.72554e-08
1.61268e-08
2.65455e-08
1.39598e-07
3.17142e-08
1.65784e-07
2.67559e-08
1.39246e-07
3.13019e-08
1.58931e-08
3.85868e-08
8.62077e-08
1.58249e-08
8.57301e-08
1.59278e-08
8.59414e-08
3.82706e-08
1.58352e-08
8.64072e-08
2.68878e-08
1.66647e-07
1.39927e-07
3.14898e-08
2.65768e-08
1.39939e-07
3.13618e-08
2.67179e-08
3.19487e-08
1.66415e-07
1.3933e-07
2.69782e-08
3.1628e-08
1.40839e-07
1.61552e-08
8.80261e-08
3.99171e-08
8.75702e-08
1.61466e-08
2.71397e-08
1.68078e-07
3.15689e-08
1.40545e-07
3.17116e-08
1.40729e-07
2.69991e-08
1.61804e-08
8.71795e-08
3.95369e-08
1.61924e-08
8.78199e-08
2.72043e-08
1.41188e-07
3.18296e-08
1.6775e-07
1.42147e-07
3.2052e-08
2.69873e-08
1.60751e-08
3.89785e-08
8.69447e-08
8.66564e-08
1.61403e-08
1.61208e-08
8.74154e-08
3.94257e-08
8.69037e-08
1.61717e-08
2.7155e-08
1.71192e-07
1.42018e-07
3.18069e-08
1.41589e-07
3.16517e-08
2.71474e-08
2.66982e-08
3.16161e-08
1.67718e-07
1.40167e-07
3.16931e-08
1.39402e-07
2.67444e-08
1.57501e-08
8.4102e-08
3.86099e-08
8.54756e-08
1.57642e-08
2.66024e-08
1.67982e-07
3.14458e-08
1.38138e-07
3.16069e-08
1.39928e-07
2.66035e-08
1.57498e-08
8.55314e-08
3.83869e-08
8.52547e-08
1.57881e-08
2.70027e-08
1.41837e-07
3.17555e-08
1.70263e-07
2.71822e-08
1.43424e-07
3.20401e-08
1.61874e-08
3.96173e-08
8.71898e-08
8.7448e-08
1.61953e-08
1.61596e-08
8.62866e-08
3.94083e-08
1.614e-08
8.76144e-08
2.72979e-08
1.68815e-07
1.40656e-07
3.1753e-08
1.42101e-07
3.18224e-08
2.72478e-08
2.6804e-08
3.18494e-08
1.69115e-07
1.39826e-07
2.68667e-08
3.17e-08
1.40755e-07
1.59034e-08
8.59742e-08
3.83319e-08
8.56373e-08
1.5872e-08
2.68886e-08
1.68757e-07
3.17632e-08
1.40368e-07
3.19521e-08
1.40111e-07
2.69048e-08
1.5855e-08
8.52457e-08
3.84961e-08
1.58327e-08
8.53944e-08
1.81887e-08
1.8138e-08
1.76518e-08
1.76334e-08
5.74951e-08
1.57476e-08
1.55967e-08
1.57044e-08
1.55651e-08
5.76255e-08
1.4971e-07
2.67245e-07
3.75214e-08
9.68734e-08
1.49051e-07
3.76847e-08
2.66533e-07
1.48561e-07
2.60959e-07
3.61576e-08
9.40468e-08
1.48097e-07
3.6497e-08
2.61052e-07
5.78674e-08
1.56416e-08
1.56195e-08
5.78162e-08
1.58063e-08
1.56346e-08
1.49977e-07
3.73666e-08
9.73055e-08
2.67308e-07
3.76121e-08
1.49919e-07
2.67513e-07
1.47876e-07
3.60649e-08
9.30408e-08
2.60138e-07
3.62771e-08
1.4681e-07
2.61354e-07
2.7747e-08
1.77364e-07
3.25262e-08
1.4689e-07
3.27797e-08
1.47608e-07
2.78721e-08
1.65286e-08
9.06581e-08
4.05479e-08
1.65343e-08
9.10484e-08
2.76878e-08
1.77732e-07
3.2813e-08
1.47419e-07
3.27593e-08
2.77106e-08
1.47693e-07
1.64937e-08
9.08099e-08
4.02899e-08
9.07153e-08
1.65538e-08
5.82635e-08
1.58778e-08
1.5972e-08
1.59278e-08
1.58852e-08
5.87164e-08
1.51689e-07
2.66208e-07
3.74149e-08
9.58628e-08
3.73989e-08
1.51701e-07
2.65032e-07
1.50927e-07
2.66637e-07
3.7979e-08
9.6771e-08
2.66955e-07
1.4982e-07
3.76675e-08
5.87341e-08
1.58909e-08
1.59343e-08
1.59159e-08
5.88481e-08
1.59589e-08
1.51044e-07
3.67892e-08
9.70853e-08
2.64778e-07
3.72613e-08
2.675e-07
1.49461e-07
1.50611e-07
3.75975e-08
9.6137e-08
2.67155e-07
2.67414e-07
3.76924e-08
1.50948e-07
1.81038e-08
1.80426e-08
2.68705e-08
1.66898e-07
3.12023e-08
1.40211e-07
3.14842e-08
1.40465e-07
2.68795e-08
1.62702e-08
8.8064e-08
3.96132e-08
1.62398e-08
8.8185e-08
2.69881e-08
1.66379e-07
3.18465e-08
1.40369e-07
3.16862e-08
2.70372e-08
1.41568e-07
1.61949e-08
8.76546e-08
4.00835e-08
8.8323e-08
1.62411e-08
2.70782e-08
1.69248e-07
1.42888e-07
3.17207e-08
1.41231e-07
3.17636e-08
2.72358e-08
1.63183e-08
8.79006e-08
3.94099e-08
8.83563e-08
1.62152e-08
2.72465e-08
1.69643e-07
1.41805e-07
3.18315e-08
1.42897e-07
2.72202e-08
3.1907e-08
1.61281e-08
8.76385e-08
3.9765e-08
8.69479e-08
1.62786e-08
2.67811e-08
1.66934e-07
3.15709e-08
1.39203e-07
3.17485e-08
1.40136e-07
2.67917e-08
1.59195e-08
8.59918e-08
3.87758e-08
1.5904e-08
8.62532e-08
2.67941e-08
1.68827e-07
3.20402e-08
1.37897e-07
2.66997e-08
3.1802e-08
1.39949e-07
1.58723e-08
8.64179e-08
3.877e-08
8.62817e-08
1.60124e-08
5.87353e-08
1.60828e-08
1.60544e-08
1.60193e-08
1.61126e-08
5.96894e-08
1.53357e-07
2.65759e-07
9.75704e-08
3.73736e-08
3.75524e-08
2.70107e-07
1.52915e-07
1.50639e-07
2.7087e-07
9.85039e-08
3.77489e-08
2.71702e-07
3.77171e-08
1.52365e-07
1.5162e-07
3.70135e-08
9.68911e-08
2.69596e-07
3.74985e-08
2.69387e-07
1.52984e-07
1.52506e-07
3.79506e-08
9.83177e-08
2.72683e-07
2.72737e-07
3.80234e-08
1.52886e-07
5.93514e-08
1.60877e-08
1.61233e-08
1.61202e-08
1.61368e-08
5.95993e-08
1.8334e-08
1.84151e-08
1.61649e-08
3.81303e-08
2.77644e-08
1.45831e-07
3.2677e-08
1.75512e-07
1.46791e-07
3.2634e-08
2.7776e-08
1.66554e-08
4.07515e-08
9.10362e-08
9.15063e-08
1.66036e-08
1.6513e-08
9.06579e-08
4.05635e-08
9.03921e-08
1.65442e-08
2.78484e-08
1.7745e-07
1.47219e-07
3.26515e-08
1.48021e-07
3.2837e-08
2.78312e-08
2.73432e-08
1.45772e-07
3.21982e-08
1.75726e-07
1.46144e-07
3.25093e-08
2.74135e-08
1.61351e-08
4.01388e-08
8.79866e-08
8.89462e-08
1.61358e-08
1.61854e-08
8.89132e-08
3.9473e-08
8.80933e-08
1.62392e-08
2.74077e-08
1.74523e-07
1.44841e-07
3.23164e-08
1.46013e-07
3.25814e-08
2.73078e-08
1.46883e-07
3.22372e-08
2.74821e-08
9.00573e-08
1.64681e-08
1.43804e-07
3.20687e-08
2.71932e-08
8.82058e-08
1.61073e-08
1.78273e-08
1.77216e-08
1.79722e-08
1.79575e-08
1.57103e-08
3.66632e-08
1.17579e-06
1.18819e-06
1.35365e-06
1.16884e-06
1.17573e-06
9.4458e-07
9.4277e-07
1.17584e-06
1.18931e-06
1.3653e-06
1.17121e-06
1.18455e-06
9.42409e-07
9.34147e-07
3.07301e-07
4.54225e-07
4.54651e-07
7.4851e-07
4.50401e-07
4.56898e-07
3.0381e-07
3.06141e-07
4.55564e-07
4.50319e-07
7.40809e-07
4.51167e-07
4.43811e-07
3.06571e-07
3.06873e-07
7.63613e-07
4.48732e-07
4.4395e-07
4.57321e-07
4.54864e-07
3.06981e-07
3.07223e-07
4.56723e-07
4.59203e-07
7.40225e-07
4.51432e-07
4.49239e-07
3.04069e-07
3.11098e-07
7.67467e-07
4.53366e-07
4.52793e-07
4.56795e-07
4.62302e-07
3.10633e-07
3.02939e-07
4.58331e-07
4.52518e-07
7.4662e-07
3.06833e-07
4.53143e-07
4.46794e-07
3.1092e-07
4.52497e-07
4.57384e-07
7.42428e-07
4.53432e-07
3.11698e-07
4.54044e-07
3.13003e-07
4.5295e-07
4.67688e-07
7.49508e-07
4.58557e-07
4.54954e-07
3.13567e-07
1.1789e-06
1.19217e-06
1.36592e-06
1.17599e-06
1.18499e-06
9.44384e-07
9.41313e-07
1.19355e-06
1.18155e-06
1.36369e-06
1.18717e-06
1.18286e-06
9.44016e-07
9.38756e-07
1.18968e-06
1.17996e-06
1.37448e-06
1.18268e-06
1.17499e-06
9.4708e-07
9.38348e-07
1.36089e-06
1.17368e-06
1.1798e-06
1.17224e-06
1.18396e-06
9.29951e-07
9.38729e-07
1.36521e-06
1.17978e-06
1.19584e-06
1.17004e-06
1.19465e-06
9.34365e-07
9.43959e-07
1.37554e-06
1.19267e-06
1.18634e-06
1.18712e-06
1.18059e-06
9.32974e-07
9.41826e-07
1.38056e-06
1.19044e-06
1.18242e-06
1.18576e-06
1.17572e-06
9.35646e-07
9.45073e-07
5.95244e-07
3.48743e-07
6.28085e-07
3.86861e-07
3.45148e-07
6.44754e-07
5.83943e-07
5.25608e-07
3.85276e-07
1.80194e-07
2.68663e-07
3.79611e-07
2.69583e-07
5.32675e-07
5.28922e-07
2.65666e-07
1.79716e-07
3.85907e-07
3.89498e-07
2.64732e-07
5.25165e-07
5.7387e-07
3.85046e-07
3.48496e-07
6.39645e-07
3.48408e-07
6.18711e-07
5.89336e-07
1.17577e-06
1.19116e-06
1.36365e-06
1.17555e-06
1.19423e-06
9.47695e-07
9.38898e-07
1.18524e-06
1.18255e-06
1.35668e-06
1.18972e-06
1.17988e-06
9.46416e-07
9.37966e-07
1.18968e-06
1.18211e-06
1.36645e-06
1.19302e-06
1.1834e-06
9.49222e-07
9.40594e-07
5.89011e-07
3.81478e-07
3.47505e-07
6.3682e-07
3.48852e-07
6.40871e-07
5.83404e-07
5.21692e-07
3.8021e-07
2.65626e-07
1.80146e-07
5.25032e-07
3.84728e-07
2.67111e-07
5.76554e-07
3.80677e-07
3.48165e-07
6.31814e-07
5.81712e-07
3.47783e-07
6.24619e-07
5.27078e-07
2.66558e-07
1.8026e-07
3.83053e-07
3.89014e-07
2.6346e-07
5.21553e-07
5.99158e-07
6.6168e-07
3.59325e-07
3.98328e-07
6.63546e-07
3.6035e-07
6.05989e-07
5.4417e-07
3.92411e-07
1.83363e-07
2.73906e-07
3.96987e-07
2.75684e-07
5.43982e-07
5.44951e-07
2.74767e-07
1.82893e-07
3.94322e-07
3.92304e-07
2.75779e-07
5.44489e-07
5.97398e-07
3.99425e-07
6.60176e-07
3.60823e-07
6.51523e-07
3.58996e-07
6.02114e-07
3.04133e-07
7.70897e-07
4.53517e-07
4.56084e-07
4.58668e-07
4.61838e-07
3.05705e-07
3.07021e-07
7.62164e-07
4.49719e-07
4.47387e-07
3.0364e-07
4.54748e-07
4.53794e-07
3.06335e-07
7.4321e-07
4.5591e-07
4.46991e-07
3.07187e-07
4.46972e-07
4.47355e-07
6.02205e-07
3.6142e-07
6.53779e-07
3.97004e-07
3.5809e-07
6.58542e-07
6.05095e-07
5.40318e-07
3.90883e-07
1.83804e-07
2.74447e-07
2.75027e-07
3.90523e-07
5.44387e-07
5.42823e-07
2.72172e-07
1.81903e-07
3.88657e-07
2.70901e-07
3.8906e-07
5.37014e-07
6.01685e-07
4.00702e-07
3.62228e-07
6.62918e-07
3.6203e-07
6.54285e-07
6.06262e-07
6.04216e-07
3.60854e-07
6.61789e-07
4.02976e-07
3.62325e-07
6.58634e-07
6.0065e-07
5.44393e-07
3.9446e-07
1.86168e-07
2.74505e-07
2.73902e-07
3.9436e-07
5.48221e-07
5.44631e-07
2.77325e-07
1.85408e-07
3.88487e-07
2.78033e-07
5.40291e-07
3.95e-07
6.02306e-07
3.98923e-07
3.61629e-07
6.56888e-07
3.60384e-07
6.56729e-07
6.00142e-07
6.00621e-07
3.60077e-07
6.61244e-07
4.02922e-07
5.98352e-07
3.55078e-07
6.54255e-07
5.42397e-07
3.87138e-07
1.8362e-07
2.70005e-07
3.91019e-07
2.73042e-07
5.38463e-07
5.36336e-07
2.68985e-07