/*--------------------------------*- C++ -*----------------------------------*\
| =========                 |                                                 |
| \\      /  F ield         | OpenFOAM: The Open Source CFD Toolbox           |
|  \\    /   O peration     | Version:  2206                                  |
|   \\  /    A nd           | Website:  www.openfoam.com                      |
|    \\/     M anipulation  |                                                 |
\*---------------------------------------------------------------------------*/
FoamFile
{
    version     2.0;
    format      ascii;
    arch        "LSB;label=32;scalar=64";
    class       volScalarField;
    location    "70";
    object      omega;
}
// * * * * * * * * * * * * * * * * * * * * * * * * * * * * * * * * * * * * * //

dimensions      [0 0 -1 0 0 0 0];

internalField   nonuniform List<scalar> 
66621
(
294.399
120.601
297.248
44.9264
102.921
19.7262
411.937
43.4559
22.4744
19.4376
106.098
24.9065
181.088
178.499
411.757
412.374
25.1376
171.099
181.121
22.6608
103.253
173.262
413.12
44.8487
22.4854
108.211
19.7904
120.332
297.107
45.402
22.7131
19.7489
109.574
114.741
294.965
45.3292
22.8125
19.7342
109.718
113.493
296.163
24.975
180.931
177.867
410.527
43.3908
22.3319
19.5822
106.027
115.189
294.877
115.66
294.412
411.664
410.735
182.275
429.991
332.157
137.59
309.837
118.927
135.661
309.72
331.554
430.454
191.823
296.865
185.689
429.752
412.345
227.724
414.096
414.868
416.107
415.927
233.047
125.036
307.163
180.043
69.7195
68.4441
307.175
128.241
125.298
306.876
171.656
68.6635
63.3925
304.566
124.03
413.253
230.828
414.198
414.369
415.444
416.389
231.53
123.084
306.293
66.2276
305.996
120.127
125.535
307.781
179.991
70.0288
307.812
124.947
68.868
415.168
231.285
305.725
67.5709
117.737
332.152
309.606
138.239
118.796
309.258
136.558
331.637
430.535
191.147
296.583
189.218
429.231
132.747
308.761
332.772
184.948
430.449
308.922
134.526
332.942
189.001
430.828
227.415
415.274
413.575
416.2
413.862
233.194
126.07
307.546
179.906
69.0859
307.622
67.5296
123.87
120.731
305.869
175.946
68.445
66.8955
303.468
129.074
411.024
328.278
132.427
306.206
107.217
129.627
305.874
328.776
428.383
188.089
294.441
186.917
427.157
328.091
133.549
306.14
114.163
125.199
305.873
329.228
428.122
188.065
293.806
181.319
428.045
411.053
17.712
16.7468
16.6935
16.0673
17.6228
16.6574
16.6083
15.967
17.6758
16.6818
16.6004
16.0501
17.6203
16.5719
16.5574
15.9447
27.5389
50.8785
26.2494
43.916
47.3904
26.0554
27.8313
66.5803
44.1832
31.977
26.8708
25.542
49.2024
40.581
24.7853
48.4071
27.1093
30.6222
67.202
103.856
44.4498
43.8
66.3798
31.9165
55.2356
24.7141
36.1415
36.1132
35.5597
34.0247
60.0712
58.2516
24.9643
36.1486
36.6961
58.1191
34.1449
36.2831
63.0521
41.9949
31.6591
27.1386
51.3892
26.1205
42.6739
47.7004
25.8637
28.2211
32.4297
69.1467
106.055
45.2601
67.9611
44.3896
31.8851
27.6533
26.2014
51.5194
44.7493
25.7841
50.7936
27.9068
32.122
68.6633
108.093
45.1425
67.4631
31.4821
44.523
27.8043
26.2604
51.7467
43.4431
26.008
50.5158
27.5737
32.0588
68.8024
107.94
45.342
44.6891
65.1732
31.7285
57.8308
24.4598
36.2331
36.1075
35.6237
35.3332
59.5245
26.7502
25.4327
49.489
42.7511
24.7221
46.0368
27.0748
31.2786
66.9739
98.5236
44.2594
41.3152
65.9628
30.6483
748.208
1615.53
4420.89
16477.3
116782
747.689
1615.48
4421.01
16479.2
116802
728.593
1596.12
4388.5
16424.5
116892
729.817
1596.38
4388.42
16422.9
116862
728.653
1596.18
4388.84
16426.8
116912
729.456
1596.11
4388.3
16423.2
116872
747.72
1615.49
4421
16479.2
116814
748.723
1615.35
4420.49
16476.4
116781
748.086
1615.51
4420.63
16476.1
116772
728.93
1596.12
4388.35
16423.9
116881
748.223
1615.51
4420.82
16478.1
116795
748.073
1615.5
4420.81
16478.1
116802
729.55
1596.31
4388.5
16424.5
116892
729.154
1596.23
4388.81
16426.4
116912
737.246
1606.71
4405.65
16447
116752
734.758
1600.58
4394.47
16425
116727
736.12
1601.33
4394.84
16425.3
116727
736.243
1605.85
4405.14
16446.7
116752
749.007
1616.32
4421.54
16479.5
116802
729.539
1596.83
4388.91
16424.8
116892
746.861
1614.55
4418.97
16474.9
116795
748.199
1615.36
4419.42
16475.2
116795
747.067
1614.58
4418.99
16474.8
116795
748.023
1615.31
4419.47
16475.2
116795
729.773
1596.88
4389.2
16427.1
116912
728.479
1600.1
4396.27
16440.5
116904
747.231
1614.54
4418.79
16473.1
116778
737.192
1606.68
4405.61
16446.5
116747
734.917
1600.61
4394.41
16424.7
116725
736.313
1601.38
4394.86
16425.1
116725
736.263
1605.87
4405.15
16446.1
116747
748.92
1616.26
4421.47
16479.6
116814
735.96
1600.95
4394.75
16425.4
116749
736.94
1606.08
4405.53
16448
116774
736.046
1601.01
4394.77
16426
116747
736.803
1606.06
4405.57
16448.2
116769
727.351
1599.67
4396.35
16441
116904
747.07
1614.52
4418.64
16472.1
116759
747.999
1615.28
4419.16
16472.5
116759
729.886
1596.8
4388.73
16424.2
116881
737.814
1606.82
4405.95
16448.5
116769
735.425
1600.76
4394.79
16426.8
116747
736.776
1601.46
4395.12
16427.1
116747
737.185
1606
4405.49
16448.2
116769
749.401
1616.29
4421.33
16478.5
116795
737.69
1606.8
4405.9
16448.3
116774
735.51
1600.8
4394.78
16426.2
116749
736.839
1601.49
4395.13
16426.5
116749
737.174
1606
4405.46
16448
116774
749.327
1616.28
4421.3
16478.5
116802
730.485
1596.93
4389.18
16426.7
116912
727.42
1599.67
4396.29
16441.1
116918
727.621
1599.71
4396.25
16441.4
116921
726.228
1595.41
4387.25
16418.7
116835
727.007
1596.03
4387.79
16419.8
116840
726.277
1595.1
4387.27
16419.5
116840
727.209
1599.69
4396.45
16441.8
116918
746.797
1614.56
4418.83
16473.2
116778
748.008
1615.29
4419.25
16473.5
116778
729.089
1600.49
4396.76
16441.5
116918
729.2
1600.48
4396.66
16441.7
116921
727.359
1599.71
4396.41
16442
116933
747.062
1614.56
4418.81
16473.2
116776
748.35
1615.31
4419.24
16473.5
116776
727.296
1599.68
4396.22
16440.9
116921
746.867
1614.58
4418.93
16474.3
116795
748.245
1615.4
4419.45
16474.7
116795
728.722
1600.46
4396.82
16442.3
116933
728.659
1600.4
4396.58
16441.1
116921
727.027
1596.08
4387.89
16420
116852
726.238
1595.09
4387.3
16419.6
116852
725.972
1595.42
4387.19
16418.7
116840
726.44
1595.3
4387.18
16418.4
116831
728.36
1600.45
4396.88
16442.1
116918
728.497
1600.42
4396.78
16441.3
116904
727.291
1596.02
4387.74
16419
116835
726.524
1595.13
4387.2
16418.6
116835
727.352
1596.01
4387.6
16419
116840
726.733
1595.12
4387.06
16418.6
116840
411.473
411.742
24.8108
178.982
173.842
115.749
293.297
42.1439
22.9355
104.131
19.5227
115.651
294.961
43.8739
22.4402
19.5689
105.101
22.4848
105.583
296.586
412.131
24.8105
176.132
173.255
410.71
42.5574
22.1971
19.6583
101.263
40.1401
22.1261
19.6322
100.37
109.029
292.711
106.86
291.091
24.2322
176.512
176.438
412.335
409.641
414.607
415.438
232.392
305.639
66.1472
130.603
305.731
65.6961
127.176
332.092
129.176
308.122
111.845
332.565
129.372
307.615
428.228
191.068
295.284
429.774
186.799
332.237
308.677
133.483
113.203
332.741
307.727
131.121
428.182
187.409
293.568
429.186
187.139
428.771
190.797
295.486
430.829
191.489
409.753
234.238
413.128
415.022
233.059
414.016
412.088
130.163
304.108
66.9591
174.41
65.6783
126.445
305.848
130.727
304.805
65.0832
176.044
125.549
305.125
64.4372
409.023
328.937
128.568
305.018
116.026
328.533
127.092
304.503
425.849
181.385
293.328
427.653
182.673
329.302
131.716
305.34
114.861
328.846
133.291
304.848
426.526
186.271
291.045
427.783
187.297
234.959
414.615
414.877
231.868
413.048
413.093
130.918
305.215
67.1662
173.028
129.99
64.4905
303.357
130.427
305.923
64.573
174.14
124.664
68.8648
304.829
409.87
409.96
17.7398
16.8058
16.6295
16.1517
17.6329
16.8156
16.5799
16.052
17.5408
16.6723
16.6183
16.132
17.4744
16.5708
16.5632
15.917
36.0897
35.0919
58.7764
28.1703
48.6653
25.4589
44.298
28.1802
51.1852
25.3477
33.0253
66.3612
42.8114
106.392
45.0054
32.5362
64.585
28.1532
25.9997
47.3536
42.8323
27.6432
25.5998
50.4654
32.9646
62.5554
43.774
102.662
32.9708
66.9554
42.824
33.2973
64.9174
43.6562
107.057
33.2595
69.1047
42.6392
60.9768
24.3556
35.7166
35.3289
34.8151
60.4621
34.5679
27.4366
25.509
46.9394
41.6037
27.2969
24.9997
46.5836
32.2208
62.1735
42.6649
104.053
31.9989
43.5897
66.5003
27.4136
25.1052
48.7951
42.9977
27.2189
24.708
49.3349
32.0873
62.5202
43.8288
106.148
31.9825
61.4489
44.0615
60.6465
24.7162
35.0971
35.6595
59.6417
34.6196
34.614
17.7369
23.3314
17.7293
23.3307
22.9911
25.698
25.6023
25.4623
23.2206
23.1288
23.1858
23.1114
25.5243
25.5016
23.4515
23.4029
23.4802
23.3951
23.514
23.1502
23.4844
24.9185
22.9364
22.9254
25.0678
23.0107
23.1939
23.2529
25.409
23.1768
118.507
296.823
296.119
118.975
410.352
410.08
123.543
299.14
298.841
124.158
17.6738
17.6662
17.6654
17.7275
17.665
17.6308
17.5903
47.5093
113.576
20.1264
22.8909
112.557
19.957
47.5078
118.378
296.606
119.793
296.032
409.937
410.15
120.627
298.76
125.139
298.525
17.6105
17.6215
17.641
47.0593
113.136
20.109
22.6959
47.2522
112.569
19.9253
411.715
411.812
45.0319
19.7881
110.693
22.4175
19.66
110.039
45.2764
184.181
182.581
25.5427
183.759
181.76
410.248
409.883
412.014
411.642
181.833
184.639
25.5899
181.056
183.607
409.778
410.155
411.689
411.968
24.9248
180.346
184.569
175.542
176.893
118.909
296.493
296.229
119.869
44.4459
110.717
19.8367
22.9386
109.53
19.5099
44.9216
44.4014
110.249
19.8538
22.6497
110.124
19.5083
44.9132
116.248
294.927
293.434
118.759
110.362
295.865
294.861
119.49
43.3299
22.6531
108.718
19.7877
103.315
19.7451
44.0261
42.1716
22.5317
110.117
19.7809
101.739
19.7498
44.6773
181.815
184.591
25.4909
181.557
183.731
412.406
412.245
409.866
410.311
24.6511
181.798
182.867
174.069
181.462
411.184
411.788
47.3744
114.193
20.1435
22.6556
113.516
19.809
47.7409
123.789
298.95
124.201
298.648
47.3155
20.1405
112.866
22.956
20.0445
47.8386
112.187
119.036
298.353
297.272
123.904
46.0612
23.3615
113.419
20.1361
105.447
20.1082
47.0873
121.078
298.117
123.324
297.214
46.2028
22.8047
19.9196
111.393
20.0774
47.0096
105.585
123.489
298.849
298.479
124.173
47.3989
20.1248
113.721
23.1745
19.9558
47.8446
113.463
123.618
298.916
124.536
298.599
45.6516
23.0727
112.307
19.9986
106.357
19.9172
46.7481
117.448
298.412
295.298
122.804
45.8972
22.9169
20.0509
113.339
20.0267
47.0459
104.868
120.847
298.05
122.962
296.319
410.112
409.777
412.297
412.146
173.552
181.991
25.3898
180.143
184.085
118.005
292.923
110.969
295.713
44.2339
103.465
19.6322
22.9855
42.3071
108.457
19.697
44.1139
106.147
19.5976
22.9774
41.9539
109.141
19.6952
179.034
175.269
25.3853
180.77
183.366
412.613
411.828
47.3154
104.318
19.957
23.1771
43.5944
113.294
20.021
123.629
294.764
121.149
298.211
47.1807
20.0459
106.853
23.2336
43.588
20.0597
111.59
122.767
295.464
117.249
298.11
46.8643
19.9478
109.779
23.2998
45.863
20.0128
111.968
123.588
295.998
114.231
297.885
184.242
181.866
25.3712
183.685
180.781
409.95
410.716
177.119
410.114
44.8405
19.823
110.112
22.6282
19.6223
110.089
45.3359
119.146
296.23
296.025
119.092
118.783
296.614
296.093
119.412
42.9797
103.601
42.825
102.597
114.829
294.932
114.784
294.716
412.077
411.876
409.956
410.196
177.104
410.841
330.012
306.976
137.081
111.709
305.311
130.246
329.223
427.002
293.475
192.231
188.859
427.384
427.656
191.536
295.653
186.941
427.446
329.611
113.204
307.081
137.041
305.397
131.356
329.692
410.416
410.802
333.685
142.47
310.615
121.424
136.019
310.358
332.942
429.316
297.089
196.276
191.421
429.81
430.132
195.625
296.872
190.716
429.726
333.095
116.075
142.529
311.286
138.935
309.088
333.044
330.038
116.742
306.811
135.869
306.603
134.084
329.314
427.215
192.155
293.531
427.608
188.78
329.729
111.229
307.612
138.249
329.854
305.35
128.246
427.619
190.937
295.64
186.622
427.395
410.269
410.782
333.766
122.593
140.851
310.824
138.978
309.871
333.259
429.328
195.562
296.523
429.573
190.699
332.991
120.65
142.496
311.203
332.726
133.257
310.447
430.168
195.145
296.513
190.426
429.94
411.947
412.303
236.342
414.035
414.007
414.353
414.353
232.938
134.076
73.6334
179.276
308.047
67.9233
305.725
127.122
133.153
72.2827
177.599
308.101
65.5208
306.494
126.739
131.81
308.233
178.738
73.1925
72.4148
307.938
132.358
130.559
308.357
176.53
71.4965
70.4699
306.816
131.139
235.98
414.006
414.264
414.56
414.63
235.781
411.008
410.305
412.737
412.316
236.174
413.4
414.33
413.993
414.822
229.613
133.498
71.6264
173.234
307.932
306.358
65.705
132.028
133.447
73.0345
176.102
309.102
307.226
69.095
131.578
126.7
307.29
179.666
71.6035
306.232
126.697
70.6107
126.955
308.725
182.142
72.8884
307.602
123.846
68.545
235.928
413.853
414.8
414.22
415.011
235.933
410.599
410.36
411.655
411.722
236.018
415.009
415.327
234.955
413.2
415.449
134.504
70.9624
178.569
306.766
305.634
69.8879
124.174
135.268
72.5482
179.663
308.711
307.087
67.899
130.979
133.619
304.554
67.4366
177.856
127.224
306.518
69.3143
130.004
308.183
71.3262
182.225
132.544
307.294
69.3688
232.081
413.15
414.087
414.231
415.206
234.161
330.193
306.878
136.897
112.62
306.47
135.26
329.356
426.816
294.198
191.755
184.443
427.387
427.773
191.141
294.066
190.13
427.004
329.852
113.914
307.698
137.391
305.566
130.329
329.481
329.946
306.269
133.709
111.958
329.54
305.951
130.447
427.412
294.796
187.718
427.608
188.558
427.287
184.102
293.713
427.572
189.93
329.149
119.109
307.51
137.821
329.601
306.568
137.749
329.672
304.806
129.931
116.88
329.382
306.853
126.242
427.235
293.692
190.338
188.96
427.355
426.931
185.479
293.942
427.444
184.402
329.629
113.914
307.188
136.586
306.382
135.354
329.379
236.048
413.791
413.617
414.294
414.954
229.801
132.775
71.8815
177.313
308.202
306.539
66.3994
126.303
134.129
72.3307
179.697
308.227
68.3112
306.934
127.578
123.816
308.23
176.349
71.8367
306.669
70.9393
131.455
130.138
307.942
178.646
72.327
67.6052
307
128.748
235.687
414.131
414.087
414.479
414.56
235.194
411.442
411.747
410.579
410.163
235.636
414.681
414.436
234.561
414.034
413.945
134.015
70.9014
177.101
307.834
69.4909
306.348
130.11
134.909
72.6449
177.479
307.541
307.035
68.6079
129.16
128.32
305.485
67.2166
179.938
68.9535
129.982
307.075
134.162
306.454
66.3843
179.068
128.047
305.673
71.3919
230.122
413.925
413.946
414.177
414.244
235.162
411.109
412.262
333.585
310.586
117.275
141.831
310.195
134.86
332.888
429.983
195.709
297.112
188.77
430.23
332.965
119.339
311.352
142.345
309.295
136.983
332.76
429.767
195.258
296.768
194.129
429.246
333.599
139.64
308.662
116.818
333.297
136.654
310.533
429.902
296.804
194.409
429.796
194.61
429.63
187.9
297.84
429.97
193.894
332.43
123.753
141.867
309.965
333.188
135.774
309.904
333.475
308.842
117.954
138.88
333.207
310.594
135.647
430.504
194.578
296.02
193.06
429.075
332.31
116.837
310.887
141.216
310.472
134.176
333.059
429.277
189.546
296.224
429.846
188.757
333.684
141.711
310.635
121.555
140.163
309.475
332.826
429.861
296.849
196.985
190.103
429.914
430.922
195.718
296.791
195.096
428.803
333.352
116.401
142.602
311.465
135.379
309.996
333.07
333.729
310.53
117.205
141.889
310.125
140.291
332.706
429.54
196.847
296.202
191.922
429.914
333.448
119.419
311.491
143.268
309.438
136.008
333.638
430.185
195.961
298.129
191.275
429.919
333.045
134.34
309.992
120.032
332.835
131.102
309.369
430.364
296.592
194.415
192.969
429.575
429.204
189.379
297.361
429.771
188.603
333.099
120.487
141.359
310.757
139.999
309.587
332.871
332.987
309.571
117.739
134.42
332.673
309.493
131.029
429.551
194.953
297.326
190.342
429.965
332.991
116.906
310.988
141.302
309.741
139.775
332.59
429.497
193.8
297.2
430.115
191.508
410.05
410.535
411.747
411.853
236.27
413.354
414.613
414.292
414.803
233.386
133.6
67.7576
306.054
179.702
131.927
305.119
69.4435
134.35
68.4309
308.104
179.64
128.168
307.44
65.8209
235.236
414.88
415.05
233.917
413.369
414.776
128.704
306.956
176.68
70.8346
305.563
130.797
69.6158
131.668
309.249
179.244
72.7766
307.873
132.366
71.8119
330.017
114.822
306.893
135.67
306.819
133.684
328.79
427.71
185.284
295.254
427.463
187.678
329.574
117.664
306.31
129.892
306.806
329.691
132.893
427.81
189.829
295.021
188.211
426.812
236.434
413.645
413.814
413.425
414.432
232.513
133.602
67.2435
305.026
176.6
306.932
127.301
69.0466
134.547
66.0276
305.397
181.276
71.0346
127.741
307.47
235.265
414.823
414.85
414.341
235.165
414.348
130.805
307.642
176.441
70.9559
306.593
69.5859
131.391
131.935
307.846
178.612
72.9162
68.7491
306.956
132.574
411.275
411.624
333.7
122.316
310.523
141.065
310.214
134.321
333.158
429.195
186.448
297.064
429.433
192.62
333.33
122.158
309.441
138.673
310.297
332.898
136.37
429.839
194.782
296.273
190.199
429.468
333.649
120.668
141.503
310.503
137.915
309.584
332.708
429.309
189.444
297.695
191.935
429.4
333.212
119.966
136.066
310.15
138.687
333.219
309.64
431.049
194.059
296.012
192.463
428.844
333.707
117.87
310.948
141.152
309.862
134.946
333.453
429.596
188.489
297.033
430.036
194.164
333.524
121.612
309.19
136.018
333.157
310.786
135.595
430.97
194.743
297.06
189.984
428.716
236.12
414.364
413.708
414.848
413.984
233.322
133.917
72.5548
179.346
309.159
308.015
68.9913
127.579
133.008
71.9838
173.095
307.6
67.986
306.114
131.185
130.899
309.356
178.68
72.4782
307.892
67.9046
131.729
128.282
307.184
179.322
71.2214
67.0069
306.514
130.187
235.602
414.695
413.831
415.098
414.219
235.27
411.006
410.22
413.971
305.642
330.111
137.159
307.281
112.523
130.366
305.731
329.708
426.713
294.06
191.806
183.344
427.313
428.255
190.779
293.827
189.342
427.545
329.707
113.16
137.902
307.292
132.157
305.964
329.774
330.251
137.113
307.087
117.055
130.591
306.886
329.755
427.674
293.097
192.461
183.712
428.13
427.265
190.901
295.708
189.681
426.897
330.143
111.893
138.066
307.613
132.57
305.921
329.769
132.607
306.299
330.331
187.558
427.678
131.662
306.305
330.224
184.939
427.674
411.435
411.869
410.496
410.515
414.179
307.17
16.4973
16.5879
17.6973
16.5661
16.7157
15.8781
15.9074
16.5232
16.6204
17.6991
16.5995
16.689
15.914
16.0514
63.073
38.0964
37.7635
25.2303
36.584
36.2651
59.4474
62.7558
37.5121
37.6713
24.829
36.0928
35.5131
59.3672
63.4407
25.2252
37.337
37.5761
35.8868
37.0941
57.8213
60.4216
37.4519
37.734
24.9477
36.293
35.1189
62.4503
62.8572
24.9053
36.9996
37.4498
36.523
35.5834
59.8214
62.9277
36.2827
35.8944
25.0922
62.1027
36.7286
35.0614
63.2867
35.5986
36.934
25.229
37.3269
59.3134
36.4938
62.4655
37.5348
37.3802
24.8332
35.9513
36.1069
58.8038
16.5269
16.5792
17.667
16.5708
16.6676
15.9057
15.9556
16.5639
16.4703
17.65
16.6408
16.5148
15.8976
15.987
16.5554
16.5256
17.6413
16.6006
16.6109
15.872
16.0074
17.7067
16.5506
16.6927
16.5496
16.6498
16.133
15.9761
17.6654
16.4942
16.5733
16.5774
16.5941
16.0746
15.914
17.6535
16.5808
16.4803
16.6522
16.5527
16.0837
15.9344
17.6201
16.5606
16.5147
16.6037
16.6005
16.0535
15.8942
28.8854
53.3354
26.8694
44.6859
52.476
26.1517
27.6325
33.6024
47.0792
103.959
72.4696
44.9541
67.0572
32.2794
31.945
72.2232
110.897
47.0806
44.5114
71.6085
33.3609
28.1795
45.7267
53.6074
26.9823
50.0951
26.6233
28.4392
16.5127
16.6304
17.6563
16.5069
16.6052
15.8641
15.9985
16.6053
16.5149
17.657
16.6016
16.5063
15.8623
15.9979
16.5799
16.5208
17.6428
16.5533
16.5119
15.8319
15.9677
28.758
44.2377
53.6248
26.7155
50.7222
25.9739
27.6327
33.6232
47.0814
72.3406
108.041
32.3187
43.7607
67.0485
28.7024
45.2637
53.9779
26.8087
27.7116
52.6109
26.2412
33.1224
71.9751
106.645
47.03
46.4809
71.317
33.1079
27.8919
25.947
51.1501
42.4769
25.3295
48.4438
27.113
32.4604
45.879
106.81
69.8007
43.0069
66.2884
32.1937
31.5173
69.2488
104.305
45.8748
45.5031
65.3389
31.9037
27.3194
43.2656
26.0799
51.3502
25.5613
50.2188
27.3201
61.7353
24.9326
37.769
37.4702
36.0996
35.8578
62.2898
61.0764
25.4257
37.4628
37.8938
60.0541
35.8181
37.4459
63.0332
25.1474
35.0797
36.2917
59.6337
37.0794
37.0235
27.7317
50.7174
25.7601
41.9511
47.5753
25.5683
27.2635
31.6604
46.3446
101.106
69.9131
66.301
42.7771
32.2426
31.0192
69.2717
108.135
46.0315
65.2427
45.5932
31.6805
27.0329
42.8591
51.1326
25.9227
48.3183
25.1237
27.4267
27.9156
51.0862
25.8301
43.6662
48.5217
25.2575
26.7286
32.5764
46.1151
104.726
69.309
67.0828
43.2134
31.306
32.0328
69.3326
104.091
46.1688
65.4343
31.1642
45.7947
27.7539
41.9534
51.2184
25.9668
50.1046
25.4187
27.6966
27.7668
49.7461
25.1535
42.1462
26.983
48.2985
24.8256
32.8547
45.847
107.155
69.0827
44.8741
68.4686
30.9643
32.5687
68.0705
44.1733
102.226
45.0168
32.4838
68.4789
27.3648
44.968
50.5343
25.8909
47.7844
25.788
26.7823
27.8697
49.4592
25.3237
41.0322
27.7159
48.0445
24.9318
32.7856
45.9042
104.586
68.6841
64.5324
43.6907
31.5506
32.6052
67.7551
42.1467
108.141
32.6381
66.0117
45.129
27.1028
44.2043
50.8432
25.8981
51.3521
25.804
27.3596
56.0938
24.8355
37.4021
37.7232
35.8357
37.0295
61.4181
62.075
25.2383
35.4661
37.0062
35.2285
61.9238
36.3151
28.743
53.566
26.6196
44.9104
52.6764
26.3269
27.6125
33.6401
47.7372
110.311
72.5466
66.1784
46.9888
33.2429
32.4421
71.9338
108.021
47.1688
70.8925
47.1508
32.3236
28.531
46.3602
54.1122
27.0962
50.7854
26.8309
27.6023
28.8483
26.7774
44.6108
53.683
26.5422
50.3856
28.0294
33.5434
47.1973
71.3793
103.554
67.7332
32.2063
43.2751
28.7162
45.8292
27.097
53.8778
26.1604
51.3397
28.6343
32.9527
71.4972
110.527
46.8641
67.2019
32.3662
46.1988
28.8301
50.374
25.924
44.9797
28.5894
49.1581
26.798
34.0469
47.388
108.142
70.7522
44.9078
71.9922
32.8059
33.8709
66.106
45.831
112.05
46.2357
32.4267
71.4564
27.9254
44.4404
53.4791
26.9864
52.7747
26.2943
27.8421
28.8707
26.0337
45.0501
49.6606
27.8343
26.6168
53.0462
33.7187
46.3718
71.6743
109.577
67.8284
32.5533
45.6194
27.429
44.2378
26.7832
53.8509
26.7243
50.917
28.4802
33.5745
65.7158
44.0646
104.537
32.2069
70.479
43.7038
29.0452
26.7015
44.6702
53.6436
26.4791
50.6951
27.5678
33.8118
47.5854
72.788
107.987
66.9565
44.5169
32.483
29.0629
46.2603
26.8668
54.8299
26.0911
52.2331
28.2155
32.0608
72.4188
107.218
47.5813
71.4127
33.3845
46.948
28.8321
51.1985
25.8164
44.784
28.5689
51.5454
26.6455
34.0698
46.7395
106.363
68.7425
32.7019
46.6256
70.1332
33.9453
67.2785
43.6583
106.782
32.7698
46.6231
66.791
27.8244
44.5158
51.3991
26.7297
27.7746
52.4943
26.672
28.8474
26.0955
44.7085
49.3732
28.5528
26.4095
52.8097
33.9799
46.8724
71.8377
107.737
70.8736
32.0323
46.1016
28.0503
44.0738
26.6789
53.7983
26.4362
51.0461
28.3837
33.7026
69.2924
44.5088
111.368
33.5803
70.3846
44.3253
60.5029
25.1588
37.278
37.6762
61.7732
36.8402
37.3425
27.8262
43.6596
50.2967
25.7734
47.761
25.2414
26.8693
32.6834
44.6781
62.5904
106.365
67.4333
32.3978
43.9657
27.7225
41.7783
49.5785
24.8782
48.4487
27.7824
25.5575
30.9577
69.2718
106.774
45.7923
65.6963
43.6276
32.5551
28.1243
43.5478
50.8203
25.7418
50.3952
25.6004
27.2361
32.6753
42.646
67.2599
107.419
31.3875
65.4008
45.4473
27.352
41.7404
49.7067
25.2023
27.5167
50.2749
25.0901
32.1651
68.3894
107.539
46.1605
64.5884
32.2899
44.2123
62.4549
25.2439
37.2274
37.7263
37.3649
36.8151
62.8747
28.8899
45.0388
52.9958
26.8052
52.0621
26.6214
28.0701
33.9243
43.8328
70.4935
110.987
68.9559
32.4722
46.7572
28.7902
46.6372
50.4834
26.551
51.8416
27.7912
26.7207
33.2669
72.0036
107.996
47.5554
67.8611
45.3462
33.4377
27.8584
44.9186
26.9095
53.6586
26.371
50.7731
28.3341
33.7334
44.0864
65.5718
105.979
32.2476
70.4859
45.2983
28.898
46.7174
25.8688
49.3025
27.9546
26.8866
52.9279
33.0371
71.9128
106.347
46.4054
68.0869
33.1675
45.5969
28.8941
43.968
26.3921
53.3705
26.6734
50.1053
27.9554
33.8363
45.271
67.2591
106.951
46.1968
33.5114
65.5653
28.7297
45.0147
25.7647
52.401
26.6777
28.5907
51.3299
32.8482
71.7617
105.831
47.1495
45.398
70.8694
33.1925
61.3386
24.7115
37.6056
37.2722
35.5146
35.777
61.9174
28.0148
25.9472
51.1505
44.167
25.462
48.1996
27.1955
32.7066
46.4584
101.87
69.8849
43.3476
64.7131
31.6391
32.0386
69.6854
108.783
46.2519
46.0181
69.1102
32.1808
27.3278
42.5407
26.1784
51.5386
25.8444
48.9961
27.6343
49.7404
66.3849
49.8329
65.7533
17.7666
23.0844
22.8712
25.1734
17.7778
23.2315
22.9252
25.4949
17.7897
23.2748
22.9185
25.4786
17.774
23.3093
23.0994
25.5314
17.7231
23.4177
22.995
25.6313
17.733
23.2998
22.9628
25.5686
17.7185
23.3237
22.9167
25.7223
17.7218
23.2652
22.9261
25.6297
17.7403
23.4027
22.905
25.543
17.7532
23.4201
22.9353
25.57
17.738
23.3469
22.9392
25.5556
17.7369
23.3095
22.9342
25.558
17.7264
23.2805
23.0137
25.5833
17.6943
23.3145
22.92
25.5684
17.7214
23.3798
22.9012
25.674
22.9808
25.5503
25.2973
22.9837
22.3773
25.1851
23.2262
22.7184
22.485
22.8452
25.1142
22.5452
22.1252
24.5321
24.9425
25.2693
22.6632
22.1283
22.9202
22.8894
24.5514
25.1879
23.006
22.7934
23.4785
23.3464
22.6386
23.0734
23.4551
24.6641
25.2392
22.7326
22.3553
22.9273
24.905
24.6907
25.4703
22.6348
22.5261
23.0246
22.9403
24.7794
25.1885
22.8329
23.0216
23.2791
23.2441
22.5957
23.1251
23.4027
24.7655
25.248
22.6641
22.3584
22.9081
25.2291
25.11
25.4713
22.7756
22.5041
23.0834
22.9808
24.5948
25.2532
22.8961
22.8549
23.3914
23.2525
23.128
22.7017
23.3337
24.9684
25.3059
22.4301
22.5665
22.9064
25.3865
24.9283
25.4892
22.8369
22.6187
23.1081
23.0197
24.8453
25.4319
22.8891
22.7643
23.333
23.2707
22.5473
22.8868
23.4872
25.021
25.3387
22.4954
22.8481
22.9171
25.0475
24.8658
25.4368
22.4369
22.6723
23.2267
23.0271
24.6103
25.4095
22.7973
22.8047
23.4149
23.2992
23.1654
22.6923
23.4559
24.5106
25.3868
22.5471
22.8201
23.0131
25.3861
24.6668
25.4124
22.6541
22.3765
23.1206
23.0248
24.5052
25.4131
22.9121
22.8131
23.3686
23.2408
23.0289
22.7228
23.5824
24.9404
25.2148
22.1647
22.5757
23.0755
25.1871
24.9674
25.4932
22.6465
22.5471
23.1847
23.0049
25.0443
25.3806
22.9955
22.4735
23.3731
23.3974
22.6266
23.1075
23.4765
24.6113
25.2055
22.8054
22.6504
22.9924
25.55
24.6563
25.5961
22.7516
22.3299
23.0955
23.0319
24.9317
25.4951
23.0936
22.6226
23.4244
23.4139
23.2005
22.8454
23.4468
24.7714
25.2632
22.5352
22.7527
23.0261
25.3818
25.1468
25.5917
22.6281
22.3296
23.1218
23.1176
24.8313
25.3968
22.6452
22.8368
23.5652
23.3432
23.0694
22.8606
23.436
24.5215
25.2706
22.2881
22.411
23.1302
24.9959
25.2816
25.6857
22.5785
22.3888
23.0149
23.181
24.8565
25.4041
23.2938
22.7869
23.5266
23.3127
23.2249
23.1926
23.4382
24.8247
25.334
22.8535
22.3657
22.9865
25.4301
25.1575
25.5071
22.5705
22.5873
23.004
23.0522
24.987
25.4185
23.1143
22.4301
23.4961
23.3984
22.9827
23.1418
23.3627
24.8817
25.315
22.1702
22.7829
23.0668
25.4212
24.9881
25.4824
22.5603
22.5731
23.0418
23.1295
24.5978
25.3844
22.9852
23.063
23.4712
23.3224
22.4722
23.1085
23.4613
25.0209
25.2977
22.3244
22.4785
23.1397
25.5058
24.5946
25.5462
22.6044
22.6209
23.0579
23.0132
25.0716
25.4829
22.9718
22.5321
23.4939
23.3649
23.1053
23.1804
23.404
24.9
25.2453
22.7901
22.7652
23.0212
25.4132
24.7632
25.4707
22.3677
22.5563
23.1558
23.0105
25.089
25.4644
23.0558
22.9989
23.3922
23.3439
22.8107
22.8284
23.4395
24.6999
25.2781
22.457
22.6267
23.0569
25.6032
24.8689
25.0321
22.8268
22.6609
22.6707
22.9826
25.0094
25.3539
22.53
22.8359
23.2828
23.2578
22.8745
22.9617
22.9033
24.7277
25.1817
22.5072
22.4723
22.9538
25.3883
24.5738
25.2372
22.5112
22.4486
22.6401
25.0886
17.8175
17.6652
17.739
17.6733
117.11
295.621
121.476
295.79
411.364
409.663
122.31
298.087
122.562
298.154
17.662
17.718
17.6468
17.7831
17.6384
17.6813
17.6393
46.357
112.624
19.9442
22.8455
46.0477
112.104
19.6955
410.842
412.225
44.2686
19.7531
108.874
22.6355
44.0669
19.6884
109.629
182.445
181.228
25.2567
183.217
181.034
118.902
296.61
118.958
296.222
409.414
409.906
123.746
298.597
123.369
298.353
17.6086
17.6338
17.6193
17.7702
17.6479
17.635
17.6295
46.5769
113.39
19.972
22.7461
47.3669
112.401
19.8843
411.187
411.1
44.1429
19.7938
110.19
22.7562
44.098
19.7378
110.164
184.857
182.825
25.4674
183.875
181.712
118.433
296.608
118.648
296.191
409.77
409.812
123.246
298.817
123.61
298.59
17.6141
17.6001
17.5977
17.7802
17.6659
17.6265
17.6451
47.3514
112.495
20.0567
22.9163
47.0118
112.68
19.804
411.12
412.559
44.2778
19.7979
109.475
22.2686
44.4751
19.5243
109.885
184.548
182.428
25.437
183.408
181.6
118.635
296.495
119.075
296.058
409.728
409.869
124.161
299.227
125.171
298.582
17.6507
17.5982
17.5921
17.7496
17.6678
17.646
17.6513
47.3265
112.949
20.1682
22.5809
47.3793
112.939
20.0717
411.432
411.489
45.0607
19.8238
111.143
22.5362
45.4443
19.7345
110.548
183.97
183.262
25.5058
183.912
182.161
118.918
296.823
119.152
296.25
409.781
409.787
123.623
298.924
124.012
298.635
17.648
17.6051
17.5971
17.7396
17.6569
17.6382
17.6539
47.1743
113.343
20.1364
23.1091
47.481
113.005
20.0689
411.474
412.464
44.9027
19.6451
111.815
22.4274
45.3061
19.5507
110.837
185.013
182.926
25.592
184.094
182.218
119.271
296.425
119.61
296.038
409.875
410.041
123.541
298.622
123.754
298.568
17.6404
17.6207
17.6374
17.7005
17.6532
17.6317
17.6585
47.0917
113.241
20.1275
23.0929
47.474
112.453
20.0479
411.098
411.321
44.4221
19.7637
110.275
22.5643
44.5195
19.6643
109.886
185.294
183.26
25.591
184.213
182.279
118.384
296.067
119.151
296.029
409.862
409.965
124.026
299.251
124.867
298.567
17.6303
17.6043
17.6067
17.7076
17.6365
17.6257
17.6588
47.0438
112.873
20.1199
22.7801
47.5171
112.365
20.0428
411.406
411.538
44.0382
19.7805
109.911
22.253
44.3523
19.6424
110.053
184.969
182.406
25.5384
183.766
182.209
118.577
296.113
118.688
295.862
410.419
409.904
124.683
299.546
125.6
298.75
17.608
17.603
17.6147
17.7418
17.6574
17.6584
17.6613
46.9916
113.091
20.0858
22.3989
47.3012
112.69
19.8106
411.037
411.279
44.732
19.7739
110.669
22.3717
45.1642
19.6354
110.095
184.948
182.757
25.4857
184.164
181.323
118.854
296.559
120.033
296.005
409.907
410.435
123.32
299.295
123.887
298.501
17.6515
17.6504
17.644
17.7513
17.6665
17.6705
17.6669
47.0264
112.884
20.1547
22.5308
47.1582
112.91
19.8348
411.124
412.49
44.598
19.7634
109.981
22.5119
45.0056
19.6312
110.041
185.139
182.434
25.4885
184.174
182.112
119.187
296.384
119.157
296.167
409.772
409.94
123.839
298.933
123.944
298.795
17.6472
17.6587
17.6262
17.7133
17.6675
17.674
17.6681
46.8751
112.939
20.1086
23.0365
46.8244
112.865
19.863
411.12
411.302
44.6464
19.7636
110.46
22.7398
44.5626
19.5238
109.942
185.249
182.224
25.5017
184.284
182.072
118.773
296.579
120.03
295.786
409.839
409.91
124.163
298.799
124.474
298.677
17.6464
17.6467
17.6271
17.7419
17.6712
17.6875
17.6733
46.987
112.974
20.0564
22.8161
47.1311
112.855
19.9026
411.237
412.458
44.1608
19.7774
110.497
22.4357
44.4758