/*--------------------------------*- C++ -*----------------------------------*\
| =========                 |                                                 |
| \\      /  F ield         | OpenFOAM: The Open Source CFD Toolbox           |
|  \\    /   O peration     | Version:  2206                                  |
|   \\  /    A nd           | Website:  www.openfoam.com                      |
|    \\/     M anipulation  |                                                 |
\*---------------------------------------------------------------------------*/
FoamFile
{
    version     2.0;
    format      ascii;
    arch        "LSB;label=32;scalar=64";
    class       surfaceScalarField;
    location    "70";
    object      phi;
}
// * * * * * * * * * * * * * * * * * * * * * * * * * * * * * * * * * * * * * //

dimensions      [0 3 -1 0 0 0 0];

oriented        oriented;

internalField   nonuniform List<scalar> 
196294
(
-9.29879e-12
8.12503e-11
1.02276e-11
4.34164e-12
1.40954e-08
4.66746e-11
3.28337e-14
-4.2235e-12
-1.08448e-11
-2.05692e-08
2.05376e-08
-7.66098e-13
9.634e-12
3.19709e-12
-1.40195e-08
3.74846e-12
1.40037e-08
-4.666e-11
-1.00401e-13
-1.0186e-11
9.08294e-11
-2.43647e-08
2.43308e-08
-1.09359e-11
-9.95882e-12
1.3618e-11
2.52642e-11
2.174e-08
8.62394e-12
-5.86805e-12
9.5484e-11
-1.29161e-10
1.28113e-10
-9.76595e-11
1.15617e-07
7.3787e-13
1.67511e-12
-7.02564e-09
5.38871e-12
7.01784e-09
-1.69934e-13
-1.36821e-11
2.09015e-11
-4.69062e-12
-2.49501e-08
2.49477e-08
-2.28689e-12
4.24759e-11
-6.802e-13
2.8016e-12
-3.03386e-11
2.66107e-11
-2.90475e-12
-4.2863e-11
-1.68652e-11
1.9409e-11
1.13552e-07
-3.80876e-11
2.48238e-12
1.41649e-12
1.5837e-12
-1.93253e-12
-3.0989e-12
1.15094e-07
-1.9268e-12
-2.30893e-12
5.89711e-12
-2.2131e-08
9.15848e-12
2.21202e-08
-2.74802e-11
-4.29435e-11
-2.70973e-08
-4.7004e-11
-3.06258e-11
2.72454e-08
7.49239e-12
-1.52198e-12
-1.97213e-12
-2.25988e-08
2.02648e-11
2.25745e-08
2.11638e-12
1.89503e-13
6.43673e-13
-2.27283e-08
1.26358e-11
2.27127e-08
2.81028e-11
6.06689e-12
7.06173e-09
1.37445e-12
-7.02404e-09
5.40658e-12
7.01649e-09
-4.01286e-11
-3.31967e-11
-2.70844e-08
-3.824e-11
-3.93482e-11
2.72353e-08
5.42852e-11
-1.8266e-11
1.20823e-10
2.2714e-08
7.15104e-12
-2.08206e-12
-2.24228e-08
2.04944e-11
2.23986e-08
1.01608e-09
-3.54776e-11
-9.9201e-11
1.38121e-11
-3.41832e-10
-4.39069e-10
1.14467e-07
7.00138e-11
2.00093e-10
2.18588e-08
-2.05788e-12
-4.38258e-11
-7.4046e-12
2.2515e-08
8.72404e-13
5.04242e-12
7.02111e-09
-1.09804e-13
-1.00367e-11
9.07795e-11
-2.43646e-08
2.43307e-08
1.62258e-10
-9.40038e-11
-3.7071e-11
-3.28706e-11
3.21566e-11
5.82754e-11
-5.79907e-11
5.58239e-11
-5.75431e-11
1.12478e-07
1.33866e-11
-2.17502e-08
2.72474e-11
2.17263e-08
3.48967e-11
-8.9069e-11
9.55229e-11
-1.2935e-10
1.28191e-10
-9.60044e-11
1.15859e-07
4.67357e-11
-1.08775e-11
-4.08867e-12
-2.0566e-08
2.05343e-08
9.80022e-12
3.18278e-12
-1.40198e-08
3.81493e-12
1.40037e-08
9.08067e-11
-9.86944e-12
-2.43612e-08
2.43269e-08
-8.84548e-13
2.69969e-11
-2.69567e-12
3.83526e-11
-5.48875e-11
-3.9655e-11
5.47567e-11
-2.65431e-11
-3.41093e-11
2.87416e-11
1.13597e-07
-7.71683e-12
7.8504e-11
-1.28759e-10
1.27846e-10
-7.93422e-11
1.16905e-07
-7.29252e-12
1.33881e-11
-2.17356e-08
2.73465e-11
2.1712e-08
-1.47468e-14
-4.28209e-12
-1.12705e-11
2.05397e-08
3.34676e-12
3.64308e-12
1.40102e-08
-4.66509e-11
9.08364e-11
-1.00303e-11
-2.43624e-08
2.43281e-08
-1.09817e-14
-2.57793e-12
-2.69416e-11
-2.98351e-11
2.8567e-11
3.82685e-11
-5.74869e-11
5.4899e-11
-3.96695e-11
1.13597e-07
-5.83974e-12
7.84574e-11
-1.28875e-10
1.27864e-10
-7.93324e-11
1.16879e-07
-9.89559e-12
1.33763e-11
-2.17483e-08
2.73678e-11
2.17249e-08
-1.12299e-11
-4.22103e-12
2.05361e-08
-8.72611e-13
3.3522e-12
3.58337e-12
1.40025e-08
-2.7091e-08
-4.08126e-11
-3.71607e-11
2.72385e-08
-9.868e-12
-2.24754e-08
1.53496e-11
2.24642e-08
4.16135e-13
8.62392e-12
-2.28532e-08
1.82087e-11
2.2824e-08
-1.00928e-12
-7.164e-09
5.72951e-12
7.15969e-09
-1.40379e-11
2.10002e-11
-4.63748e-12
-2.49533e-08
2.49508e-08
-1.75708e-12
-1.87618e-13
-4.31815e-11
-2.11026e-11
1.95762e-11
2.54111e-12
-2.80445e-11
2.5983e-11
-2.6466e-12
1.13599e-07
1.27581e-12
1.29802e-12
1.48826e-12
-1.61277e-12
-2.88772e-12
1.15035e-07
-2.46802e-12
5.84554e-12
-2.21238e-08
9.01882e-12
2.21135e-08
7.88397e-14
-1.91497e-12
-1.05158e-12
-2.12126e-08
2.12018e-08
1.2038e-12
-1.43362e-08
3.86073e-12
1.43278e-08
-1.74598e-12
-8.91867e-13
-2.12171e-08
2.12058e-08
9.57121e-13
1.15612e-12
-1.43387e-08
3.87387e-12
1.43303e-08
5.27105e-12
7.01734e-09
-7.16367e-09
5.5848e-12
7.15922e-09
-2.22822e-11
1.46322e-10
2.15842e-08
7.52193e-12
5.81712e-09
-8.16694e-12
-8.34983e-13
1.02587e-08
1.03234e-12
-2.93194e-12
-1.95781e-08
-7.90525e-12
-5.97827e-12
3.79859e-11
1.95498e-08
-1.24583e-08
-8.04008e-13
1.17746e-13
3.59239e-12
1.24445e-08
4.07869e-12
1.09278e-11
2.8043e-14
-4.61496e-11
5.93822e-12
-3.74273e-11
7.06508e-15
-2.95759e-12
-9.72298e-13
3.31402e-12
1.02476e-08
3.04388e-13
5.78856e-09
-5.58489e-12
-2.1455e-08
1.2848e-12
2.33457e-11
2.14275e-08
-3.37588e-12
7.95734e-13
-9.44253e-12
-3.34822e-12
-2.34702e-11
6.34451e-12
5.78253e-09
-9.3034e-13
-2.10163e-12
-4.79404e-12
1.30345e-12
1.76878e-12
1.59812e-08
-1.14682e-11
-1.09742e-11
-5.81276e-09
1.11686e-12
-3.30122e-13
5.23222e-12
5.80674e-09
-5.84988e-09
1.41793e-12
-1.30535e-12
5.2749e-12
5.8445e-09
-6.89829e-14
-4.79241e-12
1.02899e-12
-4.79541e-12
1.10842e-11
1.09104e-11
1.59618e-08
-2.14151e-11
6.17226e-12
2.04332e-08
-1.7789e-11
-1.35149e-08
6.06981e-12
3.6342e-12
1.35029e-08
-2.00299e-11
2.23849e-12
-7.72367e-12
-2.40317e-08
-2.12164e-11
4.16686e-11
3.2566e-11
2.3999e-08
-4.12884e-11
-3.28501e-11
-3.12562e-12
1.76259e-11
2.04115e-08
-1.73196e-11
4.33513e-12
1.95755e-08
-1.30449e-11
-1.3421e-08
3.8712e-12
3.73121e-12
1.34127e-08
-1.27823e-11
-7.81807e-13
8.48297e-13
-1.88944e-12
-2.3441e-08
-1.77232e-11
2.75022e-11
2.37174e-11
2.34202e-08
-2.80474e-11
-2.26314e-11
-3.17267e-12
1.21252e-11
1.95605e-08
-2.14826e-12
-4.66423e-12
2.32738e-12
1.89842e-12
1.59798e-08
-9.55369e-12
-1.25481e-11
-5.84525e-09
2.69874e-12
-1.37646e-12
4.33421e-12
5.8396e-09
-5.81575e-09
2.30065e-12
5.77689e-15
4.20338e-12
5.80924e-09
9.63659e-13
-4.27482e-12
-3.91967e-13
-4.142e-12
1.07806e-11
1.23446e-11
1.59616e-08
4.4994e-12
2.05216e-08
-1.63127e-11
-1.36439e-08
3.9184e-11
3.46622e-12
1.35817e-08
-4.77156e-11
1.47495e-10
1.44137e-10
2.41422e-08
-2.86142e-12
1.61935e-11
2.05076e-08
6.67869e-12
1.94892e-08
-2.22551e-11
-1.39984e-11
-1.32926e-08
6.957e-12
3.46441e-12
1.32801e-08
2.36358e-12
-2.01726e-11
-7.48471e-12
-2.15878e-11
-2.32401e-08
3.89584e-11
3.25349e-11
2.32107e-08
-2.96353e-12
1.50069e-11
1.94719e-08
-3.81073e-11
-3.30885e-11
-5.26711e-11
5.62751e-11
3.73193e-12
5.81011e-09
2.46815e-10
1.59774e-08
-6.81895e-11
2.9767e-12
1.34792e-08
-1.57541e-10
5.47217e-11
2.35656e-08
2.02357e-08
-9.37878e-13
-8.29605e-12
1.02567e-08
1.14104e-12
-2.88438e-12
-1.24568e-08
-6.4633e-13
3.54103e-12
1.24431e-08
-1.95716e-08
-7.87321e-12
-5.90844e-12
3.78654e-11
1.95434e-08
1.10327e-11
4.19679e-12
-4.62741e-11
-2.85588e-12
6.03938e-12
-3.77512e-11
-9.19802e-13
3.28563e-12
1.02458e-08
2.94309e-13
5.78728e-09
-5.55849e-12
-2.1448e-08
1.22054e-12
2.34058e-11
2.14207e-08
-3.34068e-12
-9.79857e-12
-3.26759e-12
-2.35011e-11
6.33242e-12
5.78125e-09
-8.20011e-12
-6.12394e-12
3.78697e-11
1.9553e-08
-7.79921e-13
-5.28011e-14
3.2337e-12
1.24471e-08
-1.02635e-12
3.15339e-12
1.02513e-08
1.18231e-12
2.32643e-11
2.14339e-08
6.12763e-12
5.78514e-09
-8.0685e-13
3.24879e-12
1.24433e-08
-8.24081e-12
-6.06149e-12
3.78485e-11
1.95441e-08
-9.37999e-13
3.17803e-12
1.0244e-08
8.16771e-13
2.35534e-11
2.14205e-08
6.04962e-12
5.77989e-09
3.14124e-12
-2.12301e-13
1.5988e-08
1.83429e-12
-2.52162e-11
-5.81661e-09
-1.96535e-11
2.05122e-11
4.69979e-12
5.81105e-09
-5.84706e-09
2.1935e-11
-2.30263e-11
5.70006e-12
5.84245e-09
1.71426e-12
-4.6957e-12
-7.43042e-13
-5.0691e-12
1.14456e-10
-9.86814e-11
1.59745e-08
7.76053e-12
-1.89639e-11
1.95183e-08
-3.26154e-11
-1.32856e-08
-1.8765e-11
3.04144e-12
1.33119e-08
2.20629e-12
-1.98556e-11
-7.74728e-12
-2.36085e-08
-6.45154e-11
3.59631e-11
9.10627e-12
2.36433e-08
-3.09599e-12
-3.27133e-11
-4.22376e-11
-1.11453e-10
1.96609e-08
-2.02599e-11
2.98803e-12
2.05035e-08
8.9827e-13
-1.36551e-08
2.88139e-11
4.31455e-12
1.36076e-08
-1.36708e-11
-3.60504e-13
8.52238e-13
-1.88056e-12
-2.38686e-08
2.64195e-11
1.96153e-11
6.12725e-11
2.37795e-08
-2.26716e-11
-2.71925e-11
-3.24409e-12
1.37459e-10
2.03226e-08
1.06737e-12
-4.66963e-12
-2.15959e-13
-3.16395e-13
1.05792e-08
1.94898e-14
-2.84121e-12
-2.01599e-08
7.97267e-14
-2.65727e-12
1.10237e-11
2.01496e-08
-1.28645e-08
-4.05866e-13
2.16603e-13
3.12076e-12
1.28605e-08
1.79439e-12
1.32233e-12
1.04028e-14
-1.3358e-11
2.42293e-12
-1.06661e-11
1.83059e-13
-2.57634e-12
-1.18288e-13
3.07492e-12
1.05759e-08
3.37833e-12
5.95977e-09
-5.62285e-12
-2.20224e-08
4.55172e-12
6.82553e-12
2.20096e-08
-1.05279e-12
-2.40475e-12
-3.43954e-12
-7.42265e-12
6.45397e-12
5.95773e-09
-1.72025e-13
-5.8539e-13
1.05838e-08
9.03261e-14
-2.9018e-12
-2.0168e-08
5.70282e-15
-2.53344e-12
1.13796e-11
2.01574e-08
-1.28667e-08
-1.18913e-13
3.08974e-12
1.28631e-08
1.93614e-12
1.16302e-12
-1.36131e-11
2.52224e-12
-1.07494e-11
-2.60196e-12
-9.08578e-14
2.9973e-12
1.05808e-08
3.15589e-12
5.9631e-09
-5.6062e-12
-2.20313e-08
4.35289e-12
6.72167e-12
2.20188e-08
-1.22648e-12
-9.62926e-13
-2.60544e-12
-3.41706e-12
-7.47632e-12
6.40073e-12
5.96096e-09
-4.81702e-12
-1.81181e-10
4.28388e-10
1.19338e-07
2.98008e-10
-4.18968e-10
1.27824e-07
-3.52127e-10
3.99718e-11
1.2264e-07
-3.56595e-10
7.5233e-12
1.33228e-07
3.83578e-10
-5.79376e-12
1.19184e-07
1.25691e-12
1.27833e-07
7.63615e-12
1.02596e-11
1.2186e-07
5.15637e-12
1.32538e-07
-5.43978e-12
-1.90934e-12
1.18946e-07
-3.53169e-12
1.257e-07
2.42906e-11
-3.97594e-10
1.20189e-07
-3.65674e-10
1.3349e-07
-1.51311e-11
5.84534e-12
1.18973e-07
3.48679e-12
1.25664e-07
-1.90761e-11
1.19389e-07
1.32656e-07
7.0407e-11
-1.78676e-11
2.58302e-08
-2.37152e-08
7.0814e-11
-1.34739e-11
2.36856e-08
-2.66407e-08
-1.80339e-11
-7.00931e-12
2.66274e-08
1.00625e-11
-9.09464e-11
1.14915e-14
6.94073e-12
2.62344e-11
2.57591e-08
4.66555e-11
2.34895e-08
3.83912e-11
2.49647e-08
2.59976e-08
-5.81409e-12
1.53799e-11
2.61842e-08
-5.34914e-11
-2.70997e-08
-6.26065e-12
-4.74948e-13
2.71289e-08
-2.42225e-08
1.59789e-11
-5.11605e-12
2.42179e-08
-2.1011e-11
4.48488e-12
-6.43527e-14
9.37574e-14
4.5097e-12
5.30891e-11
2.61377e-08
2.15394e-11
1.20364e-11
2.63024e-08
-2.3989e-08
1.07172e-11
2.39859e-08
-9.07093e-12
-5.85244e-12
-2.53023e-08
2.20441e-11
2.52787e-08
2.63854e-08
-1.98781e-11
-2.15434e-11
2.32794e-08
4.80076e-11
3.30022e-11
-2.59467e-08
-1.84608e-11
2.593e-08
-2.48944e-08
-2.09435e-11
2.48911e-08
2.32697e-08
2.32695e-08
-1.58502e-11
-2.42563e-11
4.05093e-11
3.88627e-11
-1.70792e-11
-2.60405e-08
2.60676e-08
-2.26551e-11
-2.47974e-08
2.47868e-08
2.3261e-08
3.01779e-10
2.36305e-08
1.65788e-10
2.51301e-08
2.61138e-08
7.0665e-11
-1.7838e-11
2.58323e-08
-2.58588e-11
-2.37154e-08
7.05859e-11
-1.3485e-11
2.36863e-08
-2.66415e-08
-1.80008e-11
-6.92125e-12
2.66279e-08
1.01173e-11
-9.12218e-11
3.23527e-14
1.35644e-11
6.9882e-12
2.24768e-11
2.57664e-08
4.70753e-11
3.73753e-11
2.59459e-08
-2.35103e-08
4.62463e-11
2.34873e-08
-1.39952e-11
-2.66678e-11
-2.49536e-08
3.69554e-11
2.49184e-08
2.5994e-08
-2.11185e-11
7.06534e-11
2.58308e-08
2.88355e-11
-2.66386e-08
-2.07913e-11
2.66145e-08
-2.37062e-08
6.97035e-11
-1.607e-11
2.36805e-08
-9.13883e-11
1.00655e-11
1.66176e-11
-2.80227e-11
2.58284e-08
4.66593e-11
2.5917e-08
4.05009e-11
-2.34986e-08
4.59494e-11
2.34734e-08
-1.41085e-11
-2.68901e-11
4.01371e-11
-2.4957e-08
2.49253e-08
2.59354e-08
-2.11155e-11
7.03734e-11
2.58326e-08
2.88216e-11
-2.66389e-08
-2.08552e-11
2.66147e-08
-2.37084e-08
6.94493e-11
-1.62393e-11
2.36831e-08
-9.14423e-11
1.00348e-11
1.65485e-11
-2.81316e-11
2.583e-08
4.05591e-11
4.62611e-11
2.59226e-08
-2.35022e-08
4.57617e-11
2.34772e-08
-2.68291e-11
-1.40412e-11
-2.50133e-08
3.99612e-11
2.49758e-08
2.59405e-08
-2.29104e-11
-1.85279e-11
2.32609e-08
3.36172e-11
4.7187e-11
-2.58835e-08
-6.30204e-11
2.58807e-08
-2.49316e-08
2.28196e-11
2.49161e-08
2.32467e-08
-5.7817e-12
1.51606e-11
2.61896e-08
-5.351e-11
-2.71031e-08
-6.13842e-12
2.71312e-08
-2.42291e-08
1.60792e-11
-5.03353e-12
2.42248e-08
-2.10279e-11
4.45903e-12
4.57898e-12
5.31449e-11
2.61435e-08
2.13055e-11
1.20002e-11
2.63058e-08
-2.39946e-08
1.06765e-11
2.39914e-08
-8.62342e-12
-5.99813e-12
-2.52523e-08
2.19925e-11
2.5235e-08
2.6389e-08
2.2279e-12
4.09645e-13
-1.8093e-13
2.45883e-09
1.02364e-12
2.89734e-13
-1.42866e-13
1.32532e-09
3.75716e-13
1.77119e-13
-7.7329e-14
6.51288e-10
7.35286e-14
9.02642e-14
-2.87843e-14
2.69139e-10
1.98253e-14
-1.09659e-14
6.37992e-11
2.06356e-12
-1.53097e-13
-2.45751e-09
2.56312e-13
2.45908e-09
9.88718e-13
-4.87825e-14
-1.32457e-09
1.13479e-13
1.32557e-09
3.97375e-13
-1.5336e-14
-6.50857e-10
4.2631e-14
6.514e-10
1.12305e-13
-5.5201e-15
-2.68888e-10
1.11821e-14
2.69144e-10
2.15953e-15
-6.37035e-11
3.92701e-15
6.37928e-11
2.9055e-12
1.19436e-13
-4.59692e-09
-9.63454e-14
4.59939e-09
1.33474e-12
2.42375e-14
-2.47277e-09
-4.83685e-14
2.4744e-09
4.85199e-13
2.12973e-15
-1.21557e-09
-1.51042e-14
1.21648e-09
9.36769e-14
7.87477e-16
-5.03146e-10
-9.4746e-16
5.0359e-10
-4.62861e-15
-1.19659e-10
-1.66953e-15
1.19799e-10
3.16009e-12
4.3251e-13
4.59852e-09
1.47545e-12
2.58624e-13
2.47373e-09
5.88263e-13
1.25284e-13
1.21603e-09
1.70266e-13
4.34967e-14
5.03376e-10
1.55916e-14
1.19798e-10
2.91261e-12
-4.59585e-09
-1.37787e-13
4.59833e-09
1.34576e-12
-2.47219e-09
-8.21673e-14
2.47381e-09
5.03041e-13
-1.21529e-09
-4.16246e-14
1.21618e-09
1.11114e-13
-5.0299e-10
-1.73612e-14
5.03422e-10
-1.19613e-10
-4.85824e-15
1.19752e-10
2.69539e-12
1.58091e-13
-8.25611e-14
4.60094e-09
1.21106e-12
6.26335e-14
-3.64795e-14
2.47527e-09
4.1574e-13
3.18775e-14
6.76286e-15
1.21692e-09
5.46874e-14
1.99727e-14
2.25529e-14
5.03759e-10
-2.79054e-15
-2.24395e-15
1.1985e-10
2.12013e-12
-2.45791e-09
2.42675e-13
2.45947e-09
1.02224e-12
-1.32486e-09
1.031e-13
1.32585e-09
4.10402e-13
-6.50963e-10
3.83668e-14
6.51503e-10
1.12892e-13
-2.6896e-10
1.1233e-14
2.69213e-10
-6.37074e-11
2.94345e-15
6.37972e-11
2.02076e-12
2.57714e-13
2.46013e-09
9.68847e-13
1.05743e-13
1.32618e-09
3.89082e-13
2.95189e-14
6.51698e-10
1.12972e-13
-9.13832e-16
2.69285e-10
3.57729e-15
6.38287e-11
1.96382e-12
-1.3611e-13
2.47993e-13
2.45901e-09
9.2042e-13
-3.56177e-14
1.1534e-13
1.32549e-09
3.51228e-13
-5.28907e-15
5.20894e-14
6.51333e-10
8.63063e-14
2.30119e-15
2.1941e-14
2.69151e-10
2.56819e-15
4.12808e-15
6.38019e-11
3.15184e-12
-1.25561e-13
1.6305e-13
-4.59495e-09
4.59746e-09
1.51308e-12
-1.21936e-13
9.26096e-14
-2.4717e-09
2.47332e-09
6.25752e-13
-8.05607e-14
3.13894e-14
-1.21512e-09
1.21599e-09
1.93553e-13
-4.31303e-14
1.05129e-15
-5.02962e-10
5.03361e-10
-1.04261e-14
2.75776e-15
-1.19619e-10
1.19767e-10
2.11007e-12
-2.45599e-09
3.37213e-14
2.45759e-09
1.00095e-12
-1.32385e-09
-1.11183e-14
1.32487e-09
3.85721e-13
-6.50493e-10
-1.19474e-14
6.5107e-10
9.07128e-14
-2.6874e-10
-5.58786e-15
2.69028e-10
-6.36709e-11
-2.14711e-15
6.3767e-11
2.11735e-12
1.24838e-13
-2.45649e-09
3.07137e-14
2.45809e-09
1.01072e-12
1.20002e-13
-1.32411e-09
-1.64464e-14
1.32511e-09
3.98189e-13
7.56554e-14
-6.50627e-10
-1.78374e-14
6.5118e-10
1.02257e-13
3.68424e-14
-2.68824e-10
-9.83207e-15
2.69092e-10
1.1318e-14
-6.36813e-11
-2.97702e-15
6.37758e-11
2.87747e-12
-1.52596e-13
4.5988e-09
1.34858e-12
-9.89348e-14
2.47397e-09
5.24974e-13
-6.08019e-14
1.21625e-09
1.36162e-13
-3.24519e-14
5.03485e-10
-7.24571e-15
1.19777e-10
3.01685e-12
1.39893e-13
-4.59463e-09
4.59717e-09
1.40886e-12
7.89107e-14
-2.47166e-09
2.47329e-09
5.52378e-13
3.15359e-14
-1.21499e-09
1.21587e-09
1.50387e-13
5.57406e-15
-5.02914e-10
5.03328e-10
3.7939e-15
-1.19584e-10
1.19731e-10
-1.6838e-12
-1.65668e-13
2.81069e-09
2.78311e-13
-8.28524e-13
-9.54181e-14
1.51457e-09
1.57472e-13
-3.36958e-13
-5.10263e-14
7.44568e-10
8.51066e-14
-9.22691e-14
-2.32745e-14
3.07878e-10
3.99664e-14
-6.08534e-15
7.30648e-11
9.5771e-15
2.01905e-12
-3.06975e-09
-1.99106e-13
3.47826e-14
3.07149e-09
9.74103e-13
-1.65338e-09
-1.18955e-13
2.01269e-14
1.65452e-09
3.85404e-13
-8.13095e-10
-6.14661e-14
9.49849e-15
8.1373e-10
9.65232e-14
-3.36472e-10
-2.5395e-14
3.01063e-15
3.36777e-10
-7.99677e-11
-7.89212e-15
1.29163e-15
8.00667e-11
-1.67853e-12
8.09275e-15
-8.29053e-13
5.10063e-15
-3.38824e-13
5.32919e-16
-8.97734e-14
-2.3107e-15
9.19589e-16
1.8733e-12
-3.36757e-13
2.81226e-09
9.08407e-13
-1.91339e-13
1.5156e-09
3.62088e-13
-1.01457e-13
7.4514e-10
9.59342e-14
-4.60352e-14
3.08151e-10
-1.16701e-14
7.31576e-11
-1.86742e-12
6.25303e-14
-2.22401e-13
-9.07976e-13
-8.30105e-15
-9.61356e-14
-3.70051e-13
-1.4807e-14
-3.52691e-14
-1.04191e-13
-8.94962e-15
-9.46174e-15
-4.83992e-15
-3.29514e-15
-2.65785e-12
-1.11619e-13
7.74488e-14
-1.25995e-12
-2.88136e-14
4.13952e-14
-4.85961e-13
-9.93375e-15
1.46139e-14
-1.07819e-13
-4.6552e-15
-1.73157e-15
1.93185e-15
5.92992e-15
1.95802e-12
-2.44085e-09
2.19077e-14
2.44236e-09
9.34941e-13
-1.31535e-09
-7.16445e-15
1.31629e-09
3.66958e-13
-6.46334e-10
-6.65828e-15
6.46857e-10
9.21941e-14
-2.67021e-10
-4.15802e-15
2.67274e-10
-6.32715e-11
3.08376e-16
6.33574e-11
-1.69808e-12
-2.01155e-14
-8.24524e-13
6.33248e-15
-3.33172e-13
6.86738e-15
-9.04872e-14
3.35941e-15
1.34e-15
2.01644e-12
-2.43995e-09
3.3366e-13
2.44147e-09
9.67727e-13
-1.31491e-09
1.78755e-13
1.31586e-09
3.80094e-13
-6.46114e-10
9.15384e-14
6.46644e-10
9.2438e-14
-2.66937e-10
3.86965e-14
2.67197e-10
-6.32513e-11
1.13928e-14
6.33403e-11
-1.70303e-12
2.27151e-13
-3.53326e-13
-8.2197e-13
1.17923e-13
-1.80948e-13
-3.27469e-13
5.49e-14
-9.04292e-14
-8.51257e-14
2.29212e-14
-4.06524e-14
2.54654e-15
-8.20356e-15
-2.5705e-12
5.62224e-14
-1.21801e-12
2.57063e-14
-4.7599e-13
4.72524e-15
-1.16521e-13
-5.38071e-15
3.51146e-15
1.90523e-12
-5.44937e-15
4.39383e-09
8.27798e-13
5.51405e-14
2.36372e-09
2.72965e-13
6.28554e-14
1.16176e-09
2.22313e-14
4.94696e-14
4.80655e-10
2.08835e-15
1.14256e-10
1.53373e-12
2.44334e-09
7.11219e-13
1.31666e-09
2.79501e-13
6.46982e-10
8.42313e-14
2.67328e-10
6.33797e-11
-1.66811e-12
-2.10764e-13
2.81046e-09
3.23758e-13
-8.26018e-13
-1.25864e-13
1.51443e-09
1.88002e-13
-3.3895e-13
-6.9287e-14
7.44455e-10
1.04631e-13
-9.51653e-14
-3.27212e-14
3.07854e-10
5.13162e-14
-7.67225e-15
7.30571e-11
1.08312e-14
1.99072e-12
-3.0695e-09
-1.31148e-13
3.07121e-09
9.57101e-13
-1.65325e-09
-7.29591e-14
1.65438e-09
3.72964e-13
-8.13032e-10
-3.33579e-14
8.13661e-10
8.70096e-14
-3.36447e-10
-9.49892e-15
3.36749e-10
-7.99605e-11
-5.74503e-15
8.00591e-11
-1.59668e-12
-7.73807e-13
-3.12836e-13
-8.85177e-14
1.84459e-12
-3.01622e-13
2.81206e-09
8.8895e-13
-1.69881e-13
1.51546e-09
3.53398e-13
-9.00387e-14
7.45024e-10
9.66241e-14
-4.07122e-14
3.08121e-10
-1.07255e-14
7.31498e-11
-1.8265e-12
-2.31853e-13
-8.88738e-13
-1.05301e-13
-3.58836e-13
-4.00895e-14
-9.59456e-14
-1.08142e-14
-4.2961e-15
1.79719e-12
-1.53003e-13
-1.96432e-14
3.0722e-09
8.51442e-13
-8.48288e-14
-6.27977e-15
1.65486e-09
3.22326e-13
-3.78395e-14
3.23821e-15
8.13763e-10
6.95786e-14
-1.08049e-14
6.475e-15
3.36878e-10
-5.9373e-15
-3.2435e-16
8.00602e-11
1.7892e-12
-3.4313e-13
2.81322e-09
8.72277e-13
-2.03557e-13
1.51604e-09
3.54506e-13
-1.14356e-13
7.45304e-10
1.00438e-13
-5.61278e-14
3.08249e-10
-1.24168e-14
7.31626e-11
1.83259e-12
-1.77649e-13
3.07102e-09
8.89086e-13
-1.10422e-13
1.6543e-09
3.57526e-13
-6.27036e-14
8.13523e-10
9.7841e-14
-3.0621e-14
3.36724e-10
-7.16684e-15
8.00351e-11
1.79274e-12
-2.8654e-13
2.81133e-09
8.59722e-13
-1.56604e-13
1.51509e-09
3.35511e-13
-7.76566e-14
7.44847e-10
8.25933e-14
-3.1345e-14
3.08045e-10
-9.87707e-15
7.31202e-11
3.28216e-12
-4.02504e-13
2.35235e-13
-4.39096e-09
4.39352e-09
1.62002e-12
-2.20899e-13
1.35071e-13
-2.36208e-09
2.36377e-09
6.84542e-13
-1.24338e-13
6.92846e-14
-1.16076e-09
1.16167e-09
2.10262e-13
-6.09869e-14
2.69916e-14
-4.80171e-10
4.80591e-10
-1.38394e-14
1.07226e-14
-1.14115e-10
1.14265e-10
2.3093e-12
-2.44078e-09
2.44257e-09
1.09875e-12
-1.3152e-09
1.31632e-09
4.21226e-13
-6.46231e-10
6.46869e-10
9.30925e-14
-2.66982e-10
2.673e-10
-6.32823e-11
6.33822e-11
-1.7701e-12
1.73146e-13
-3.04763e-13
-8.50969e-13
6.64025e-14
-1.62182e-13
-3.229e-13
1.24194e-14
-9.00762e-14
-6.51529e-14
-6.49058e-15
-4.80284e-14
-8.64654e-16
-6.41066e-15
-2.56107e-12
2.2255e-13
-1.23347e-12
1.75932e-13
-5.01127e-13
1.11333e-13
-1.38318e-13
6.04049e-14
1.19603e-14
-1.57229e-12
-1.32167e-13
2.80819e-09
1.73722e-13
-7.65582e-13
-9.0864e-14
1.51328e-09
1.03689e-13
-3.04266e-13
-6.04325e-14
7.43903e-10
5.87027e-14
-7.36177e-14
-3.395e-14
3.07618e-10
2.69528e-14
-7.76606e-15
7.29937e-11
8.66657e-15
1.68239e-12
-3.06758e-09
-1.70731e-13
6.92616e-14
3.06911e-09
8.15296e-13
-1.65231e-09
-1.1004e-13
4.27975e-14
1.65323e-09
3.36788e-13
-8.12591e-10
-6.60778e-14
2.41758e-14
8.13095e-10
9.47591e-14
-3.36265e-10
-3.31659e-14
1.18086e-14
3.36511e-10
-7.99054e-11
-8.63176e-15
2.15102e-15
7.99949e-11
-1.3675e-12
5.49616e-14
-6.61961e-13
3.64769e-14
-2.73516e-13
2.30787e-14
-7.9588e-14
1.28981e-14
1.98631e-15
1.68924e-12
-2.55982e-13
2.80967e-09
8.19675e-13
-1.45662e-13
1.51419e-09
3.28924e-13
-8.05189e-14
7.44418e-10
8.37647e-14
-3.69137e-14
3.07876e-10
-1.19497e-14
7.30835e-11
-1.89415e-12
-1.52653e-14
-9.24033e-13
3.04139e-15
-3.72549e-13
-1.56859e-15
-9.04514e-14
-6.61547e-15
1.64806e-15
-1.62274e-12
-2.11889e-13
2.80934e-09
2.08453e-13
-7.99628e-13
-1.33538e-13
1.51386e-09
1.28609e-13
-3.2717e-13
-7.91922e-14
7.44197e-10
7.64334e-14
-8.79828e-14
-3.96164e-14
3.07767e-10
3.84289e-14
-1.02008e-14
7.30197e-11
9.72363e-15
1.64419e-12
-3.06825e-09
-7.18647e-14
3.06983e-09
7.819e-13
-1.6526e-09
-4.67258e-14
1.65355e-09
3.12061e-13
-8.12692e-10
-2.73657e-14
8.13215e-10
8.15865e-14
-3.36354e-10
-1.19686e-14
3.3661e-10
-7.99188e-11
-5.47229e-15
8.00096e-11
-1.39546e-12
-6.80965e-13
-2.81953e-13
-7.88063e-14
1.62592e-12
-2.23976e-13
2.81085e-09
7.83961e-13
-1.3091e-13
1.51477e-09
3.16828e-13
-7.59584e-14
7.44703e-10
8.72783e-14
-3.71987e-14
3.08013e-10
-1.0947e-14
7.31091e-11
-1.88892e-12
-1.8393e-13
-2.68568e-14
-9.22476e-13
-1.46067e-13
1.84145e-15
-3.71401e-13
-8.81053e-14
3.23124e-15
-9.16089e-14
-4.47119e-14
-1.68381e-16
-1.04241e-14
7.76519e-16
-2.65837e-12
-1.28093e-12
-5.14941e-13
-1.3231e-13
2.90179e-12
-1.61575e-13
-4.39015e-09
4.39265e-09
1.37591e-12
-9.52362e-14
-2.36187e-09
2.36348e-09
5.36523e-13
-4.96056e-14
-1.16061e-09
1.16149e-09
1.30415e-13
-2.12885e-14
-4.8014e-10
4.80562e-10
-5.60619e-15
-1.1409e-10
1.14229e-10
2.93328e-12
-4.39041e-09
4.39291e-09
1.40046e-12
-2.3619e-09
2.3635e-09
5.5555e-13
-1.1607e-09
1.16157e-09
1.41924e-13
-4.80152e-10
4.80568e-10
-1.1409e-10
1.14231e-10
3.98855e-12
4.59767e-09
1.86576e-12
2.47131e-09
7.26919e-13
1.21415e-09
1.88667e-13
5.02402e-10
1.19496e-10
-3.2e-12
4.59615e-09
-1.55106e-12
2.4704e-09
-6.13954e-13
1.21366e-09
-1.5174e-13
5.02096e-10
1.19372e-10
3.526e-12
4.5989e-09
1.68189e-12
2.47218e-09
6.54229e-13
1.21465e-09
1.57869e-13
5.02572e-10
1.19527e-10
2.49207e-12
8.33927e-15
-4.39083e-09
4.39328e-09
1.13422e-12
1.8929e-14
-2.36198e-09
2.36351e-09
4.09565e-13
2.02736e-14
-1.16069e-09
1.16154e-09
7.08787e-14
1.70731e-14
-4.80137e-10
4.80564e-10
-2.3628e-16
-1.14103e-10
1.14233e-10
1.65906e-12
-2.4407e-09
2.44196e-09
8.03324e-13
-1.31528e-09
1.31605e-09
3.28477e-13
-6.46307e-10
6.46726e-10
9.45896e-14
-2.6704e-10
2.67236e-10
-6.3281e-11
6.33563e-11
-1.66712e-12
-3.76563e-14
-8.14607e-13
1.21203e-14
-3.38683e-13
2.3645e-14
-1.02727e-13
1.99246e-14
1.83865e-15
-2.7504e-12
1.6021e-13
-1.33903e-12
8.63834e-14
-5.36814e-13
4.14837e-14
-1.38924e-13
1.61262e-14
4.69325e-15
-2.74411e-12
-1.33567e-12
-5.37569e-13
-1.4338e-13
2.31181e-12
-5.21171e-13
2.06357e-13
-4.38967e-09
4.39198e-09
1.11219e-12
-3.01264e-13
1.15993e-13
-2.36147e-09
2.3628e-09
4.78082e-13
-1.67699e-13
5.17307e-14
-1.16049e-09
1.16117e-09
1.59746e-13
-7.93218e-14
1.47895e-14
-4.80121e-10
4.80429e-10
-1.90241e-14
6.55495e-15
-1.14063e-10
1.14181e-10
1.7611e-12
-2.44077e-09
2.44242e-09
8.15907e-13
-1.31521e-09
1.31617e-09
3.09231e-13
-6.46228e-10
6.4676e-10
6.72203e-14
-2.66992e-10
2.67257e-10
-6.32756e-11
6.33598e-11
-1.55442e-12
-3.41361e-13
-7.55944e-13
-1.68528e-13
-3.00525e-13
-8.50961e-14
-7.27738e-14
-4.30586e-14
-4.49286e-15
2.35536e-12
-2.71561e-14
-4.39014e-09
4.39224e-09
1.10994e-12
1.91922e-14
-2.36151e-09
2.3629e-09
4.18993e-13
1.7447e-14
-1.16052e-09
1.1613e-09
8.37952e-14
1.2506e-14
-4.80119e-10
4.80513e-10
-7.99056e-16
-1.1408e-10
1.14204e-10
1.86876e-12
-2.44011e-09
2.44152e-09
9.0378e-13
-1.31489e-09
1.31575e-09
3.64127e-13
-6.4612e-10
6.46592e-10
9.79831e-14
-2.66969e-10
2.67193e-10
-6.32549e-11
6.33353e-11
-1.6157e-12
-3.41857e-14
-7.90386e-13
3.59784e-15
-3.2697e-13
1.01021e-14
-9.89874e-14
9.33582e-15
-6.63409e-16
-2.45808e-12
-1.51751e-13
-1.20395e-12
-6.43246e-14
-4.90501e-13
-1.81282e-14
-1.40475e-13
3.96716e-16
-1.9478e-15
-2.39555e-12
-1.1691e-12
-4.75923e-13
-1.29993e-13
-3.1978e-12
4.59549e-09
-1.55739e-12
2.47012e-09
-6.17986e-13
1.21344e-09
-1.49012e-13
5.02054e-10
1.19338e-10
3.50253e-12
4.59828e-09
1.65833e-12
2.47192e-09
6.41101e-13
1.21443e-09
1.58604e-13
5.02527e-10
1.19494e-10
3.4148e-12
4.60076e-09
1.6252e-12
2.47319e-09
6.30787e-13
1.21515e-09
1.48567e-13
5.02818e-10
1.19568e-10
3.35814e-12
4.59704e-09
1.59163e-12
2.47111e-09
6.20319e-13
1.21405e-09
1.60162e-13
5.02343e-10
1.19478e-10
-2.66361e-12
8.99646e-14
-1.28222e-12
3.58341e-14
-5.06622e-13
7.35067e-15
-1.2366e-13
-4.76388e-15
3.09709e-15
-2.92683e-12
-1.43253e-12
-5.73023e-13
-1.50727e-13
-3.19668e-12
4.59194e-09
-1.56509e-12
2.46819e-09
-6.33457e-13
1.21252e-09
-1.67424e-13
5.01676e-10
1.19264e-10
3.60982e-12
4.59453e-09
1.74645e-12
2.46985e-09
6.94108e-13
1.21344e-09
1.77558e-13
5.0212e-10
1.19425e-10
-3.19876e-12
4.59423e-09
-1.56754e-12
2.46944e-09
-6.32135e-13
1.21322e-09
-1.61383e-13
5.01959e-10
1.19322e-10
3.55817e-12
4.59688e-09
1.71136e-12
2.47113e-09
6.7758e-13
1.21415e-09
1.73787e-13
5.02409e-10
1.19483e-10
2.55036e-11
1.07728e-11
7.02882e-09
-3.35393e-12
-1.91242e-12
-9.4242e-13
7.0243e-09
-4.96166e-12
3.18423e-11
-1.49266e-10
3.8041e-11
1.9181e-10
2.71229e-08
-2.14724e-11
9.90783e-11
5.08512e-11
2.2611e-08
-7.76165e-12
2.75787e-12
-2.03264e-11
2.2422e-08
-4.67027e-11
3.98328e-14
4.27156e-12
1.15708e-11
2.05684e-08
-9.73968e-12
-3.68174e-12
1.402e-08
-3.81222e-12
1.12986e-13
1.04647e-11
-9.00626e-11
2.43635e-08
-3.01591e-10
-1.6218e-09
3.38153e-11
4.86356e-10
5.6257e-11
3.14596e-10
5.82849e-11
1.13106e-07
1.57626e-10
2.2062e-10
-1.43188e-11
-2.60691e-11
2.17492e-08
2.05768e-10
-3.94319e-09
6.13395e-10
1.29058e-10
9.57213e-11
7.08596e-10
1.17748e-07
-4.67367e-11
1.15858e-11
4.28355e-12
2.05652e-08
-1.00581e-11
1.06087e-12
-3.73321e-12
1.40201e-08
-3.69985e-12
-9.00946e-11
1.034e-11
2.43601e-08
-7.91065e-10
-2.97245e-11
-1.88268e-09
4.90135e-10
6.76559e-11
3.99321e-11
3.02492e-10
4.32211e-10
5.84853e-12
2.5727e-10
1.14705e-07
-3.79575e-09
6.20424e-10
1.28335e-10
7.91415e-11
7.08844e-10
1.18579e-07
4.50811e-12
-1.4716e-11
-2.84727e-11
2.17406e-08
-2.61473e-11
-1.88448e-09
4.91528e-10
5.54713e-11
3.89836e-11
3.16463e-10
4.2836e-10
2.90544e-11
2.33465e-10
1.14699e-07
-7.8499e-10
1.0086e-11
7.93013e-12
-1.43352e-11
-2.62164e-11
2.17474e-08
9.32983e-13
-3.53954e-12
1.40189e-08
-3.71449e-12
-1.90272e-12
7.02565e-09
-4.85712e-12
3.83894e-11
2.70953e-08
7.81738e-11
-3.0716e-12
-3.95576e-11
-4.83108e-11
2.25547e-08
1.12054e-12
-5.21225e-12
4.28319e-11
1.51644e-11
2.27701e-08
1.06372e-12
7.16458e-09
-4.82212e-12
1.38465e-13
-1.65572e-11
3.77641e-11
-1.78694e-13
2.49265e-08
-5.08371e-10
-1.2193e-09
4.2968e-10
4.28127e-11
1.71313e-10
3.10223e-10
1.33649e-11
2.87357e-12
2.4707e-10
1.14101e-07
-1.93321e-10
-7.52149e-10
2.10265e-10
-9.88483e-11
-4.32956e-11
9.97722e-11
1.15363e-07
2.70527e-12
-5.72736e-12
-6.0191e-12
2.2124e-08
-1.63206e-11
3.78718e-11
-2.37326e-13
2.49296e-08
-4.71311e-10
-4.25175e-11
-1.20441e-09
3.04178e-10
2.64334e-11
2.96622e-12
2.32648e-10
4.34312e-10
1.9697e-11
1.95297e-10
1.14102e-07
-7.39514e-10
2.05018e-10
-9.92881e-11
-4.41174e-11
9.97981e-11
1.14948e-07
2.75698e-12
1.89836e-12
-5.99663e-12
-8.19591e-12
2.2123e-08
1.59627e-13
-4.80016e-13
-8.37589e-12
2.1194e-08
-1.04167e-12
1.43364e-08
-3.80391e-12
-2.86119e-13
-8.59816e-12
2.11985e-08
-1.01126e-12
-1.19886e-12
1.4339e-08
-3.82427e-12
2.70977e-08
4.72092e-11
3.18016e-11
2.29145e-12
2.59535e-12
-2.06304e-11
2.25982e-08
9.01501e-13
-6.24199e-13
-1.34079e-11
2.27277e-08
7.02535e-09
-4.77699e-12
7.16413e-09
-5.01545e-12
1.5381e-11
1.41702e-11
5.81353e-09
-3.48628e-12
-1.86359e-12
-4.36986e-13
5.81595e-09
-4.41831e-12
1.01843e-11
-1.284e-11
1.59778e-08
5.61259e-11
1.35209e-08
-2.67639e-12
-8.16241e-11
1.91462e-10
2.4018e-08
1.13413e-10
6.32201e-11
2.04291e-08
-6.64478e-12
1.32926e-08
-3.54741e-12
2.28544e-11
-3.8378e-11
-3.37396e-11
2.32396e-08
-1.44629e-11
1.94897e-08
-1.02593e-08
-5.30667e-11
-1.97055e-12
4.69097e-12
1.03079e-08
1.7958e-12
8.61045e-12
1.95773e-08
6.16724e-12
-3.79682e-11
8.76673e-13
1.24587e-08
3.99921e-14
-3.4872e-12
1.24799e-11
6.28139e-11
7.04344e-14
-1.92692e-10
2.06857e-08
1.04671e-12
-3.26989e-12
1.9181e-11
-1.68182e-10
1.96857e-08
3.26344e-14
1.25178e-08
1.67156e-12
-5.78876e-09
-2.61195e-11
5.81625e-09
3.30977e-12
-5.00475e-13
2.14544e-08
-2.39222e-11
-6.54454e-12
-7.13742e-11
9.94511e-12
1.40856e-08
2.38422e-12
-5.70026e-12
-1.21423e-10
2.15624e-08
-1.02576e-08
-1.98044e-12
-5.34033e-11
4.81926e-12
1.03062e-08
1.92071e-12
8.75896e-13
1.24573e-08
-3.47741e-12
8.84361e-12
1.95711e-08
6.23446e-12
-3.84257e-11
6.29192e-11
1.25801e-11
-1.92704e-10
2.06825e-08
1.12609e-12
-3.16494e-12
1.25167e-08
1.62342e-12
1.93125e-11
-1.68519e-10
1.96795e-08
-5.7875e-09
-2.59651e-11
5.81494e-09
3.3357e-12
-3.84944e-13
2.14476e-08
-2.40332e-11
-6.63214e-12
9.92719e-12
-7.12771e-11
1.40858e-08
2.32348e-12
-5.52227e-12
-1.21495e-10
2.15558e-08
-5.78616e-09
-2.61799e-11
-4.80711e-12
5.81364e-09
3.51223e-12
-5.156e-13
2.14475e-08
-2.39012e-11
-6.10599e-12
-6.69785e-12
9.93115e-12
-7.10992e-11