/*--------------------------------*- C++ -*----------------------------------*\
| =========                 |                                                 |
| \\      /  F ield         | OpenFOAM: The Open Source CFD Toolbox           |
|  \\    /   O peration     | Version:  2206                                  |
|   \\  /    A nd           | Website:  www.openfoam.com                      |
|    \\/     M anipulation  |                                                 |
\*---------------------------------------------------------------------------*/
FoamFile
{
    version     2.0;
    format      ascii;
    arch        "LSB;label=32;scalar=64";
    class       volVectorField;
    location    "70";
    object      U;
}
// * * * * * * * * * * * * * * * * * * * * * * * * * * * * * * * * * * * * * //

dimensions      [0 1 -1 0 0 0 0];

internalField   nonuniform List<vector> 
66621
(
(-1.64285e-05 -3.72081e-05 0.0755811)
(-5.8084e-05 3.4145e-07 0.100971)
(-4.28217e-05 -6.81568e-06 0.0753634)
(5.2444e-05 -2.29094e-07 0.117422)
(3.88921e-05 -3.21514e-05 0.103764)
(1.80691e-06 -4.29658e-07 0.134414)
(-2.15928e-05 8.35871e-06 0.064602)
(-6.56653e-07 5.24069e-05 0.117986)
(3.11558e-06 -3.22335e-06 0.132117)
(-3.59133e-06 -2.34378e-06 0.134847)
(-3.56022e-05 3.78874e-05 0.104293)
(0.000193425 0.00019762 0.127889)
(2.01047e-05 2.32939e-05 0.0893619)
(2.74616e-05 1.76411e-05 0.0896893)
(-1.80048e-05 -1.79528e-05 0.0646992)
(-2.19806e-05 -8.09737e-06 0.0645817)
(-0.000194664 -0.000198635 0.127828)
(-2.71859e-05 -1.06774e-05 0.0895638)
(-1.93364e-05 -2.35616e-05 0.0893083)
(5.82842e-06 3.2949e-06 0.132268)
(-3.3185e-05 -3.04647e-05 0.103979)
(1.86145e-05 -2.33815e-05 0.0893653)
(2.01945e-05 -7.95856e-06 0.0646198)
(-5.22794e-05 -9.97771e-07 0.117425)
(2.89254e-07 4.11636e-06 0.131936)
(-3.8955e-05 -3.15706e-05 0.103751)
(-2.23846e-06 -7.72179e-07 0.134425)
(-5.7248e-05 4.10673e-08 0.100973)
(-4.2743e-05 6.95845e-06 0.0753835)
(-5.27327e-05 9.02335e-07 0.117422)
(2.66535e-06 -4.14325e-06 0.1319)
(-1.30479e-06 1.34053e-06 0.134431)
(-3.97905e-05 3.11833e-05 0.103748)
(5.7371e-05 3.95669e-07 0.100975)
(4.20443e-05 -6.39254e-06 0.0753918)
(5.28544e-05 6.55567e-07 0.117423)
(-2.61611e-06 -4.09866e-06 0.131906)
(9.83179e-07 1.60164e-06 0.134433)
(3.94434e-05 3.12355e-05 0.103761)
(5.71274e-05 -4.46098e-07 0.100977)
(4.19467e-05 5.95602e-06 0.0753736)
(-0.000192636 0.000196446 0.127883)
(-1.94372e-05 2.32602e-05 0.0893293)
(-2.85354e-05 1.83766e-05 0.089725)
(-1.22627e-05 2.11676e-05 0.0647926)
(4.11878e-07 5.21502e-05 0.117986)
(-3.13946e-06 -3.70771e-06 0.132129)
(2.6849e-06 -2.37892e-06 0.134852)
(3.55449e-05 3.81171e-05 0.104285)
(3.18822e-07 5.78256e-05 0.101805)
(-1.0537e-05 4.26972e-05 0.0757982)
(5.16485e-07 5.74313e-05 0.101808)
(1.06878e-05 4.29888e-05 0.0757955)
(2.16964e-05 7.9459e-06 0.0645934)
(1.17316e-05 2.11445e-05 0.064787)
(-4.21205e-06 -4.21531e-05 0.0876542)
(-4.58881e-06 -2.62517e-05 0.062723)
(2.01762e-05 -3.28767e-07 0.0689481)
(-5.66766e-05 -5.53771e-07 0.0977071)
(-2.06634e-05 5.34154e-07 0.0714612)
(5.82819e-05 -1.97852e-07 0.101023)
(5.75696e-05 1.06203e-06 0.0977271)
(1.98363e-05 -4.26475e-07 0.0714317)
(-2.17602e-05 4.86896e-07 0.0689928)
(1.97486e-05 1.04696e-07 0.0625287)
(-4.75669e-05 -3.74608e-06 0.0873373)
(4.21009e-05 6.1043e-06 0.0752752)
(4.59748e-05 3.29395e-06 0.0872988)
(-2.33589e-05 3.22492e-07 0.0626013)
(1.92209e-05 -8.13831e-06 0.0645364)
(-2.27278e-05 -1.79896e-05 0.0811726)
(1.2813e-05 1.68408e-05 0.0632267)
(2.0546e-05 9.81241e-06 0.0632805)
(-1.13846e-05 -1.53128e-05 0.063158)
(-1.94609e-05 -7.89074e-06 0.0631993)
(2.27129e-05 1.90412e-05 0.0812156)
(-7.17537e-05 -1.84488e-05 0.100201)
(2.20139e-05 1.74e-05 0.0746317)
(-1.96614e-05 -2.3312e-05 0.0893279)
(6.9426e-05 1.82408e-05 0.111692)
(-7.10769e-05 -1.80466e-05 0.111708)
(-2.06552e-05 -1.54454e-05 0.0745391)
(7.10723e-05 2.01627e-05 0.100255)
(-2.00259e-05 -6.66536e-05 0.10023)
(2.18147e-05 1.98202e-05 0.0746958)
(-2.95592e-05 -1.66727e-05 0.0895863)
(1.88132e-05 6.84227e-05 0.111865)
(-2.29733e-05 -6.76363e-05 0.111826)
(-2.04884e-05 -1.76827e-05 0.074563)
(2.03e-05 6.89225e-05 0.10031)
(1.84889e-05 8.7504e-06 0.0645159)
(2.0895e-05 1.5854e-05 0.081226)
(-1.98819e-05 -4.51343e-06 0.0632527)
(-8.43503e-06 -1.55875e-05 0.0631937)
(1.85321e-05 5.53483e-06 0.0632149)
(8.98329e-06 1.42418e-05 0.0631672)
(-1.7655e-05 -1.52415e-05 0.0811312)
(2.56246e-05 6.60442e-05 0.100387)
(-2.17471e-05 -1.26971e-05 0.0747487)
(-1.76378e-05 -6.16377e-05 0.111786)
(1.94461e-05 1.63873e-05 0.074712)
(-1.99656e-05 -6.33354e-05 0.100287)
(6.97808e-05 1.65689e-05 0.100177)
(-1.90501e-05 -1.70036e-05 0.0745049)
(1.91656e-05 2.34797e-05 0.0892746)
(-6.76633e-05 -1.88986e-05 0.111614)
(1.88542e-05 1.48887e-05 0.0744297)
(-6.73503e-05 -1.83722e-05 0.100105)
(7.01238e-05 1.76615e-05 0.111653)
(8.09362e-06 -1.44876e-05 0.0632306)
(1.79509e-05 -1.56389e-05 0.0811635)
(1.91901e-05 -1.69448e-05 0.0746421)
(6.88161e-05 -2.04855e-05 0.11165)
(6.94464e-05 -2.23063e-05 0.10021)
(2.01978e-05 1.08854e-06 0.068971)
(-2.07659e-05 5.04674e-07 0.0714694)
(-5.66538e-05 9.32198e-07 0.097717)
(5.78044e-05 4.13054e-07 0.101024)
(1.94569e-05 6.17886e-07 0.0714395)
(5.58646e-05 -6.62452e-07 0.0977373)
(-2.18508e-05 8.33179e-08 0.0690161)
(1.96762e-05 3.65444e-07 0.0625533)
(-4.72177e-05 3.96745e-06 0.0873508)
(4.16576e-05 -5.83988e-06 0.0752988)
(4.58608e-05 -3.32012e-06 0.087313)
(-2.32199e-05 -4.31781e-08 0.0626244)
(5.55707e-05 1.18112e-07 0.0977194)
(1.85384e-05 -1.30031e-07 0.0714736)
(2.00136e-05 6.09448e-07 0.069015)
(4.6997e-05 -2.98518e-06 0.0873592)
(2.22703e-05 5.90878e-07 0.0626272)
(1.89131e-05 -5.0834e-07 0.0714667)
(5.62172e-05 3.04892e-07 0.097715)
(2.0467e-05 -1.54872e-07 0.0690023)
(4.64919e-05 3.3893e-06 0.0873439)
(2.18867e-05 2.71976e-07 0.0626081)
(2.21709e-05 -1.91497e-05 0.0811796)
(-1.30545e-05 1.44776e-05 0.0632185)
(-2.28542e-05 9.12366e-06 0.0633012)
(1.07441e-05 -1.53348e-05 0.0631704)
(1.94546e-05 -9.1729e-06 0.0631986)
(-2.45458e-05 1.68574e-05 0.0812269)
(7.18789e-05 -1.71393e-05 0.100115)
(-2.10954e-05 1.6257e-05 0.0745061)
(2.00657e-05 -2.38928e-05 0.0892936)
(-6.95714e-05 1.69857e-05 0.111652)
(2.08664e-05 -1.60708e-05 0.0744513)
(7.23159e-05 -1.80814e-05 0.111661)
(-7.20491e-05 1.69213e-05 0.100182)
(2.12786e-05 -6.62646e-05 0.100313)
(-2.28909e-05 1.99723e-05 0.0748315)
(2.87032e-05 -1.56672e-05 0.0896248)
(-2.06343e-05 6.89868e-05 0.111895)
(2.27504e-05 -6.59342e-05 0.111863)
(1.98847e-05 -1.82021e-05 0.0746637)
(-2.35107e-05 6.86782e-05 0.100389)
(1.30606e-05 -1.64129e-05 0.0646755)
(4.37702e-07 -1.97065e-05 0.0693332)
(-8.98502e-07 5.71771e-05 0.0985402)
(7.85002e-07 1.96455e-05 0.0719514)
(-6.17824e-07 -5.78697e-05 0.10183)
(2.16356e-06 -5.73901e-05 0.0984803)
(1.13761e-07 -1.79762e-05 0.0718901)
(5.07221e-07 2.11192e-05 0.0694402)
(2.36189e-06 -1.91933e-05 0.0627214)
(-6.49942e-06 4.85124e-05 0.0880294)
(1.07535e-05 -4.15767e-05 0.0756267)
(7.0445e-06 -4.54139e-05 0.0878765)
(-1.15178e-06 2.29001e-05 0.0628706)
(2.5886e-07 -1.97057e-05 0.0693303)
(1.67722e-06 5.66771e-05 0.0985371)
(1.24621e-06 1.94988e-05 0.0719499)
(9.77446e-07 -5.81752e-05 0.101833)
(-1.7529e-06 -5.81886e-05 0.0984831)
(1.6674e-06 -1.77941e-05 0.0718867)
(4.16939e-07 2.07728e-05 0.0694353)
(-2.24577e-06 -1.90381e-05 0.0627216)
(6.80661e-06 4.88563e-05 0.0880253)
(-1.00995e-05 -4.13193e-05 0.0756264)
(-6.56919e-06 -4.53682e-05 0.087879)
(1.18516e-06 2.27537e-05 0.0628667)
(-1.28027e-05 -1.69997e-05 0.0646672)
(-4.2339e-06 2.20518e-06 0.137481)
(-1.5701e-06 6.71931e-07 0.139511)
(-7.69266e-06 2.68962e-06 0.139087)
(-5.69459e-06 4.56087e-06 0.141095)
(3.8997e-06 2.13833e-06 0.137473)
(6.54648e-07 2.58588e-07 0.13951)
(7.41735e-06 2.47157e-06 0.139084)
(4.88767e-06 4.82043e-06 0.141097)
(-4.64171e-06 1.37458e-06 0.137345)
(-6.16029e-06 1.74838e-07 0.13907)
(-3.05241e-06 -1.86781e-06 0.139326)
(-4.12915e-06 7.20235e-07 0.140973)
(4.15264e-06 9.80611e-07 0.13735)
(5.74054e-06 1.5535e-07 0.139069)
(2.49615e-06 -2.20035e-06 0.139325)
(3.82818e-06 1.15571e-06 0.14097)
(-0.000224831 2.58115e-07 0.124943)
(5.36534e-05 -2.12392e-06 0.115657)
(0.000218422 7.48666e-07 0.125942)
(-5.58706e-05 -1.74716e-07 0.117483)
(-5.71266e-05 2.59063e-06 0.115683)
(-0.000216422 -8.04096e-07 0.125927)
(0.000222264 -2.32696e-06 0.125006)
(4.99859e-05 -1.1109e-05 0.111464)
(0.000216835 -1.42619e-05 0.118645)
(0.000231927 -7.49058e-06 0.122882)
(-1.97675e-06 -0.000222469 0.12526)
(1.58217e-06 0.000216016 0.126278)
(-1.42841e-06 5.3777e-05 0.116264)
(-8.78406e-07 -5.48294e-05 0.118032)
(-2.26244e-06 -0.000215192 0.126264)
(3.76861e-06 -5.58575e-05 0.11622)
(3.12166e-06 0.000218585 0.125366)
(4.86143e-06 -0.000220741 0.123087)
(-1.19938e-05 5.02451e-05 0.112066)
(3.5374e-05 -3.85714e-05 0.104122)
(-1.15065e-05 0.000214886 0.118976)
(1.42857e-05 -0.000216288 0.118865)
(1.36036e-05 -4.90453e-05 0.111915)
(-2.62243e-06 0.000228682 0.123251)
(-6.56852e-05 -6.28314e-05 0.113988)
(-0.000184958 -0.000183005 0.127729)
(5.69355e-05 0.000190608 0.121988)
(0.000185938 5.74338e-05 0.122019)
(-5.87841e-05 -0.000187683 0.121897)
(-0.000186031 -5.37745e-05 0.121909)
(6.78717e-05 6.85372e-05 0.1141)
(6.87973e-05 6.25506e-05 0.114082)
(0.000189764 0.000185218 0.127783)
(-0.000188993 -5.42474e-05 0.121993)
(-5.36127e-05 -0.000189971 0.121875)
(-6.6439e-05 -6.52613e-05 0.113997)
(0.000196747 5.48881e-05 0.122035)
(5.70848e-05 0.00018692 0.121892)
(-1.1727e-05 -4.57529e-05 0.111646)
(-1.23249e-05 -0.000210015 0.118746)
(-5.87304e-06 -0.000225325 0.122964)
(0.00022507 -3.88346e-07 0.124957)
(-5.45542e-05 -2.76878e-06 0.115664)
(-0.000218804 5.67311e-08 0.125949)
(5.61258e-05 -6.207e-07 0.117487)
(5.70453e-05 1.78532e-06 0.115692)
(0.000216281 -1.39367e-06 0.125934)
(-0.000223093 -2.74815e-06 0.12502)
(0.000227548 3.6303e-06 0.122817)
(-5.0815e-05 -1.11938e-05 0.111465)
(4.17463e-05 2.90899e-05 0.103684)
(-0.000216696 -1.29346e-05 0.118648)
(5.15706e-05 9.15694e-06 0.111443)
(0.000221631 9.76696e-06 0.118616)
(-0.000232346 -6.76385e-06 0.122895)
(0.000220623 -4.63618e-07 0.124944)
(-0.000217903 1.20178e-08 0.125942)
(-5.54615e-05 3.30197e-06 0.115655)
(5.54014e-05 -1.10541e-07 0.117484)
(0.000215453 9.1909e-07 0.125927)
(5.63343e-05 -2.54931e-06 0.115683)
(-0.000224264 2.4467e-06 0.125006)
(0.000225685 -3.81842e-06 0.122794)
(-5.11933e-05 1.20672e-05 0.111454)
(4.05874e-05 -2.8535e-05 0.103682)
(-0.000214424 1.18721e-05 0.118635)
(5.1224e-05 -8.47294e-06 0.111433)
(-0.000228572 6.31033e-06 0.12287)
(0.000220436 -1.0487e-05 0.118602)
(-0.000220664 -2.68625e-07 0.124949)
(0.000217601 1.85864e-07 0.125941)
(5.50529e-05 2.56067e-06 0.115662)
(-5.55287e-05 -2.0956e-07 0.117484)
(-0.000214897 1.48878e-06 0.125926)
(-5.61856e-05 -2.42615e-06 0.115689)
(0.000224731 2.4104e-06 0.125012)
(-0.000226019 -3.69137e-06 0.122803)
(5.00924e-05 1.16363e-05 0.111463)
(-4.12649e-05 -2.91485e-05 0.103695)
(0.000214792 1.25407e-05 0.118652)
(-0.000220591 -1.04056e-05 0.11862)
(-5.18918e-05 -8.65097e-06 0.111441)
(0.000229012 6.84023e-06 0.122879)
(6.62052e-05 -6.26591e-05 0.113987)
(0.000184738 -0.000182236 0.127723)
(-5.64259e-05 0.000188051 0.12198)
(-0.000187502 5.78371e-05 0.122018)
(0.000186548 -5.314e-05 0.121911)
(5.90986e-05 -0.000186894 0.121885)
(-6.79778e-05 6.62955e-05 0.114104)
(1.8862e-06 -0.000223385 0.125265)
(-1.9925e-06 0.000215471 0.126278)
(1.47991e-06 5.35719e-05 0.116266)
(3.4726e-07 -5.44168e-05 0.118034)
(1.82844e-06 -0.000215323 0.126265)
(-3.71127e-06 -5.65291e-05 0.116226)
(-3.4598e-06 0.000218113 0.125368)
(-4.31469e-06 -0.00022064 0.123092)
(1.25353e-05 5.07404e-05 0.112063)
(-3.48533e-05 -3.909e-05 0.104113)
(1.03588e-05 0.000213277 0.118974)
(-1.41213e-05 -0.000217254 0.118862)
(-1.29983e-05 -4.9017e-05 0.111918)
(2.22024e-06 0.000228669 0.123254)
(-9.7303e-06 -1.41817e-05 0.0442673)
(-6.3213e-06 -5.79049e-06 0.0299645)
(-3.80298e-06 -1.71748e-06 0.0186537)
(-1.93498e-06 -4.6937e-08 0.00982701)
(-6.30309e-07 4.59747e-08 0.00298342)
(-1.43203e-05 -3.07022e-06 0.0442397)
(-6.81771e-06 -1.66703e-06 0.0299454)
(-2.91427e-06 -8.7169e-07 0.0186408)
(-1.03658e-06 -4.22467e-07 0.00981938)
(-1.23282e-07 -1.10273e-07 0.00298085)
(-1.05243e-05 4.52271e-06 0.0457442)
(-5.01451e-06 2.17702e-06 0.0311848)
(-2.02214e-06 9.7412e-07 0.0195501)
(-4.94336e-07 2.97806e-07 0.0103684)
(-9.47171e-08 1.29909e-07 0.00317106)
(-1.23013e-05 -8.22912e-06 0.0457489)
(-7.73449e-06 -2.84634e-06 0.0311882)
(-4.56408e-06 -4.73187e-07 0.0195527)
(-2.3518e-06 1.55279e-07 0.0103706)
(-6.99859e-07 2.25991e-07 0.00317206)
(-1.08998e-05 -3.98395e-06 0.0457291)
(-5.33576e-06 -1.62277e-06 0.0311743)
(-2.32001e-06 -4.97782e-07 0.0195433)
(-7.53394e-07 4.5302e-09 0.0103646)
(-1.66828e-07 -1.41955e-08 0.00316982)
(9.90079e-06 -3.86376e-06 0.0457573)
(4.75869e-06 -1.62423e-06 0.0311938)
(1.86391e-06 -6.54713e-07 0.0195558)
(3.1097e-07 -1.7849e-07 0.0103717)
(1.16987e-07 -6.32271e-08 0.00317213)
(-1.45104e-05 3.45653e-06 0.0442576)
(-6.93047e-06 2.02245e-06 0.0299577)
(-2.95305e-06 1.08957e-06 0.0186485)
(-1.02749e-06 4.88287e-07 0.00982316)
(-1.16351e-07 1.74215e-07 0.00298185)
(1.39304e-05 -2.9195e-06 0.0442604)
(6.67207e-06 -1.63267e-06 0.0299593)
(2.87193e-06 -8.82028e-07 0.0186497)
(1.0602e-06 -4.38053e-07 0.00982429)
(1.05013e-07 -1.36655e-07 0.0029823)
(1.36366e-05 2.85991e-06 0.0442472)
(6.4194e-06 1.56581e-06 0.02995)
(2.65859e-06 7.65523e-07 0.018644)
(8.1549e-07 2.91864e-07 0.00982148)
(1.28474e-07 1.17988e-07 0.0029816)
(-7.70207e-06 9.884e-06 0.0457404)
(-4.4115e-06 4.5061e-06 0.0311824)
(-2.26937e-06 1.83273e-06 0.0195489)
(-9.92555e-07 6.80666e-07 0.010368)
(-2.74683e-07 6.18744e-08 0.00317103)
(-6.2608e-06 1.34685e-05 0.044247)
(-4.08257e-06 6.0618e-06 0.0299511)
(-2.4408e-06 2.27874e-06 0.0186447)
(-1.24605e-06 4.83038e-07 0.00982168)
(-3.88625e-07 6.20749e-08 0.00298162)
(6.35497e-06 1.34134e-05 0.0442458)
(4.18818e-06 6.04959e-06 0.0299502)
(2.51997e-06 2.31579e-06 0.0186444)
(1.28372e-06 5.89004e-07 0.00982137)
(4.22144e-07 4.43412e-08 0.00298143)
(1.06084e-05 3.9448e-06 0.0457373)
(5.32378e-06 1.58609e-06 0.0311796)
(2.43132e-06 4.25721e-07 0.0195469)
(9.28035e-07 -4.28495e-08 0.0103667)
(1.81384e-07 -2.3888e-08 0.0031705)
(7.30401e-06 9.59006e-06 0.0457355)
(4.14811e-06 4.25544e-06 0.0311787)
(2.13754e-06 1.61792e-06 0.0195462)
(9.01022e-07 4.88984e-07 0.0103662)
(3.04822e-07 1.52054e-08 0.00317031)
(1.04754e-05 -1.35005e-06 0.0442804)
(5.4511e-06 -1.41226e-06 0.0300774)
(2.49792e-06 -1.19907e-06 0.0187837)
(9.44028e-07 -8.1042e-07 0.00992417)
(1.82841e-07 -2.80945e-07 0.00302231)
(-1.20056e-05 8.36389e-07 0.0446059)
(-5.82545e-06 8.69344e-07 0.0303416)
(-2.48366e-06 6.84356e-07 0.0189802)
(-8.12311e-07 3.99386e-07 0.0100456)
(-1.68968e-07 1.74384e-07 0.00306554)
(9.49585e-06 -6.6623e-07 0.0445705)
(4.77763e-06 -6.41755e-07 0.0303182)
(2.14104e-06 -5.39219e-07 0.0189671)
(7.58427e-07 -3.82321e-07 0.0100395)
(1.47428e-07 -1.07314e-07 0.00306396)
(-1.21686e-05 1.71896e-06 0.0443228)
(-6.11247e-06 1.84481e-06 0.0301039)
(-2.73945e-06 1.50002e-06 0.0187983)
(-1.00636e-06 9.45107e-07 0.00993091)
(-1.97629e-07 3.59972e-07 0.0030241)
(1.23334e-05 2.91341e-06 0.0441698)
(5.95656e-06 1.87837e-06 0.0299001)
(2.57953e-06 1.11126e-06 0.018615)
(8.84356e-07 5.74263e-07 0.00980697)
(1.16088e-07 1.62421e-07 0.00297738)
(9.12241e-06 -4.28365e-06 0.0456913)
(4.57115e-06 -2.08283e-06 0.0311506)
(1.97419e-06 -8.93725e-07 0.0195305)
(5.32569e-07 -2.95554e-07 0.010359)
(1.79112e-07 -2.86837e-08 0.00316838)
(1.26623e-05 7.29271e-06 0.0444258)
(6.44012e-06 2.98568e-06 0.0300698)
(2.93657e-06 8.31657e-07 0.0187202)
(1.15173e-06 -2.8536e-08 0.00986284)
(2.36749e-07 -6.14988e-08 0.0029948)
(-1.07885e-05 -6.20858e-06 0.0443566)
(-5.59499e-06 -2.56536e-06 0.0300254)
(-2.62434e-06 -7.3784e-07 0.018695)
(-1.04565e-06 -2.34629e-08 0.00985069)
(-2.6676e-07 7.85161e-08 0.0029914)
(1.06991e-05 1.07112e-05 0.0444203)
(5.63413e-06 4.89414e-06 0.0300669)
(2.60589e-06 1.83667e-06 0.0187186)
(9.20243e-07 4.96983e-07 0.00986215)
(2.86334e-07 2.1164e-08 0.00299461)
(-9.70896e-06 -8.45592e-06 0.0443288)
(-5.12887e-06 -3.84772e-06 0.0300078)
(-2.45484e-06 -1.414e-06 0.0186845)
(-1.01893e-06 -3.02236e-07 0.00984537)
(-1.93638e-07 -7.53237e-08 0.00298979)
(8.47646e-06 4.82153e-06 0.0456752)
(4.08148e-06 2.61137e-06 0.0311395)
(1.6605e-06 1.34925e-06 0.0195234)
(4.21323e-07 6.22651e-07 0.0103549)
(1.001e-07 1.32741e-07 0.00316713)
(4.44463e-06 -6.85163e-06 0.0455676)
(2.31176e-06 -2.89373e-06 0.0310305)
(1.037e-06 -8.42215e-07 0.0194305)
(2.6959e-07 9.44966e-08 0.0102929)
(1.6104e-07 7.89348e-09 0.00314388)
(9.89509e-06 -5.5864e-06 0.0444457)
(4.96385e-06 -2.09499e-06 0.0300819)
(2.26427e-06 -6.24137e-07 0.0187278)
(9.59744e-07 -1.25024e-07 0.00986729)
(1.5195e-07 8.91797e-09 0.00299617)
(1.04358e-05 2.01102e-06 0.0442968)
(5.50141e-06 1.94748e-06 0.0300879)
(2.56412e-06 1.60308e-06 0.0187901)
(1.00542e-06 1.08623e-06 0.00992768)
(1.99857e-07 3.25244e-07 0.0030233)
(-1.17673e-05 1.07507e-07 0.0446119)
(-5.68166e-06 -7.98893e-08 0.0303454)
(-2.38794e-06 -1.02848e-07 0.0189825)
(-7.26724e-07 -4.68145e-08 0.0100468)
(-1.55584e-07 -7.49388e-08 0.00306586)
(9.13741e-06 1.0436e-06 0.0445774)
(4.52741e-06 9.9806e-07 0.0303228)
(2.00432e-06 7.81078e-07 0.01897)
(7.29771e-07 4.77276e-07 0.0100409)
(1.4312e-07 1.79422e-07 0.00306436)
(-1.19487e-05 -1.12053e-06 0.0443387)
(-5.92759e-06 -1.34769e-06 0.0301141)
(-2.61862e-06 -1.11957e-06 0.0188045)
(-9.70585e-07 -6.74828e-07 0.00993426)
(-1.80796e-07 -3.15808e-07 0.00302505)
(1.22178e-05 -2.53822e-06 0.044189)
(5.9684e-06 -1.50522e-06 0.0299133)
(2.62725e-06 -8.05232e-07 0.0186232)
(8.87642e-07 -3.59481e-07 0.0098111)
(1.57356e-07 -1.05409e-07 0.00297844)
(1.07029e-05 1.22967e-07 0.0446148)
(5.11119e-06 2.68183e-07 0.0303466)
(2.10803e-06 2.68289e-07 0.0189833)
(5.87494e-07 1.82091e-07 0.0100472)
(1.4315e-07 8.73963e-08 0.00306567)
(1.16056e-05 1.61629e-06 0.0443371)
(5.86995e-06 1.73819e-06 0.0301133)
(2.65641e-06 1.41843e-06 0.0188042)
(1.04282e-06 8.86913e-07 0.00993392)
(1.86507e-07 3.43263e-07 0.00302471)
(1.0822e-05 -7.62278e-07 0.04461)
(5.28439e-06 -7.61288e-07 0.0303435)
(2.29024e-06 -5.82129e-07 0.018981)
(8.26832e-07 -3.34721e-07 0.0100458)
(1.35537e-07 -1.44191e-07 0.00306532)
(1.16277e-05 -1.30974e-06 0.0443289)
(5.79544e-06 -1.49424e-06 0.0301081)
(2.53091e-06 -1.2571e-06 0.0188008)
(8.57852e-07 -8.16795e-07 0.00993214)
(1.94935e-07 -3.08648e-07 0.00302429)
(-1.40489e-05 5.58782e-06 0.0455761)
(-8.17679e-06 1.81946e-06 0.0310321)
(-4.64454e-06 -1.55362e-08 0.0194298)
(-2.3819e-06 -4.53935e-07 0.0102923)
(-6.82401e-07 -3.4462e-07 0.00314363)
(-1.26536e-05 1.24901e-05 0.0444413)
(-6.69811e-06 5.61353e-06 0.0300782)
(-3.08696e-06 1.96855e-06 0.0187253)
(-1.10633e-06 3.95935e-07 0.00986595)
(-2.94894e-07 1.9369e-08 0.00299597)
(9.38025e-06 -9.32284e-06 0.0443366)
(4.68323e-06 -4.39264e-06 0.0300128)
(2.01745e-06 -1.73926e-06 0.0186879)
(6.24219e-07 -3.74511e-07 0.00984768)
(9.97652e-08 -1.41484e-07 0.00299067)
(7.96625e-06 -6.82118e-06 0.0456538)
(4.67236e-06 -3.03738e-06 0.0311264)
(2.55882e-06 -1.13525e-06 0.0195161)
(1.2226e-06 -2.69906e-07 0.0103516)
(3.0859e-07 -2.26695e-08 0.00316627)
(-7.55363e-07 -9.85567e-06 0.0442434)
(-1.16163e-06 -5.09195e-06 0.0300526)
(-1.19772e-06 -2.30229e-06 0.0187684)
(-9.00937e-07 -7.91627e-07 0.00991608)
(-3.26388e-07 -2.03782e-07 0.00301967)
(8.59435e-07 9.98393e-06 0.0445985)
(8.95007e-07 4.86718e-06 0.0303395)
(7.83028e-07 2.12072e-06 0.0189798)
(5.44873e-07 7.77797e-07 0.0100455)
(1.72993e-07 1.61776e-07 0.00306543)
(-3.21785e-07 -7.89738e-06 0.0445366)
(-4.82824e-07 -3.88089e-06 0.0302955)
(-5.03806e-07 -1.73464e-06 0.018953)
(-3.84628e-07 -6.47238e-07 0.0100319)
(-1.40141e-07 -1.48998e-07 0.00306145)
(1.34121e-06 1.09525e-05 0.0443248)
(1.63506e-06 5.52419e-06 0.0301069)
(1.51152e-06 2.49432e-06 0.0188007)
(1.04705e-06 9.16396e-07 0.00993234)
(4.17466e-07 2.10035e-07 0.00302445)
(5.97102e-06 -1.14005e-05 0.044133)
(4.03813e-06 -5.23446e-06 0.0298769)
(2.48175e-06 -2.06268e-06 0.0186012)
(1.27496e-06 -4.70948e-07 0.00980003)
(3.9057e-07 -5.57177e-08 0.00297522)
(1.35853e-06 -1.02161e-05 0.0442405)
(1.61553e-06 -5.35168e-06 0.0300509)
(1.51009e-06 -2.47696e-06 0.0187677)
(1.08609e-06 -9.27313e-07 0.00991584)
(3.7596e-07 -2.24901e-07 0.00301948)
(8.28376e-07 9.74706e-06 0.044597)
(4.75489e-07 4.65386e-06 0.0303384)
(2.47384e-07 1.94946e-06 0.0189794)
(1.32669e-07 6.52959e-07 0.0100455)
(-2.16695e-08 1.3918e-07 0.00306534)
(1.6999e-06 -8.13752e-06 0.0445342)
(1.57933e-06 -4.03557e-06 0.0302937)
(1.30379e-06 -1.81516e-06 0.0189523)
(8.85275e-07 -6.57435e-07 0.0100317)
(2.75118e-07 -1.64786e-07 0.0030613)
(-6.11192e-07 1.04856e-05 0.0443208)
(-1.06554e-06 5.22889e-06 0.0301043)
(-1.09568e-06 2.34066e-06 0.0187994)
(-7.76555e-07 8.81355e-07 0.00993174)
(-3.46896e-07 2.05547e-07 0.00302417)
(-5.60536e-06 -1.14842e-05 0.044133)
(-3.73599e-06 -5.36385e-06 0.0298768)
(-2.2354e-06 -2.17229e-06 0.0186014)
(-1.10891e-06 -5.38323e-07 0.00980007)
(-3.4092e-07 -9.71337e-08 0.00297514)
(-8.00595e-06 -7.19441e-06 0.0456476)
(-4.79797e-06 -3.17499e-06 0.0311218)
(-2.70288e-06 -1.11059e-06 0.0195129)
(-1.33959e-06 -1.46163e-07 0.0103497)
(-3.35804e-07 -1.73205e-08 0.00316547)
(7.68793e-06 9.11809e-06 0.0455612)
(3.71537e-06 4.61177e-06 0.0310239)
(1.43409e-06 2.14239e-06 0.0194252)
(3.46341e-07 8.16557e-07 0.0102897)
(1.51201e-08 2.11792e-07 0.00314275)
(1.22796e-05 5.10526e-06 0.0455663)
(7.02452e-06 1.73337e-06 0.0310269)
(3.78032e-06 9.2169e-08 0.019427)
(1.74818e-06 -3.91031e-07 0.0102905)
(5.25343e-07 -2.39288e-07 0.00314297)
(-4.19116e-06 -1.60582e-05 0.0457283)
(-2.68854e-06 -7.37337e-06 0.0311773)
(-1.4589e-06 -2.91975e-06 0.0195471)
(-6.39419e-07 -9.38976e-07 0.0103675)
(-1.85282e-07 -1.30875e-07 0.00317096)
(1.28888e-05 -1.06809e-06 0.0456348)
(6.86429e-06 -1.40149e-06 0.031115)
(3.16549e-06 -1.30749e-06 0.0195091)
(1.1465e-06 -9.09323e-07 0.0103477)
(2.71381e-07 -3.4092e-07 0.00316506)
(-1.45788e-05 1.30384e-06 0.0456961)
(-7.49734e-06 1.60755e-06 0.0311544)
(-3.40007e-06 1.43149e-06 0.0195317)
(-1.20809e-06 9.53252e-07 0.0103587)
(-2.73857e-07 3.74127e-07 0.00316812)
(-6.91391e-06 7.28108e-06 0.0455601)
(-3.45239e-06 3.49134e-06 0.0310236)
(-1.44875e-06 1.3567e-06 0.0194254)
(-3.83777e-07 2.65998e-07 0.0102899)
(-1.07782e-07 7.69945e-08 0.00314289)
(-1.03559e-05 6.0284e-06 0.0444138)
(-5.21033e-06 2.66846e-06 0.0300643)
(-2.37056e-06 1.01337e-06 0.0187178)
(-9.63407e-07 2.73418e-07 0.00986214)
(-1.54901e-07 4.79253e-08 0.00299465)
(1.03874e-05 -6.25125e-06 0.0443596)
(5.44575e-06 -2.67957e-06 0.0300276)
(2.57997e-06 -8.5761e-07 0.0186967)
(1.09467e-06 -1.8026e-07 0.00985194)
(2.58038e-07 8.58868e-08 0.00299187)
(-7.02392e-06 -8.55499e-06 0.0455053)
(-3.54484e-06 -4.4588e-06 0.030988)
(-1.43065e-06 -2.09351e-06 0.0194048)
(-3.70364e-07 -8.21561e-07 0.0102799)
(-5.59331e-08 -1.84081e-07 0.00314007)
(-1.17493e-05 -4.29888e-06 0.0455026)
(-6.73738e-06 -1.57532e-06 0.030986)
(-3.58938e-06 -1.45521e-07 0.0194036)
(-1.66609e-06 3.22634e-07 0.0102791)
(-4.52371e-07 1.7582e-07 0.00313981)
(-1.181e-05 -2.44032e-06 0.0455464)
(-6.94297e-06 -2.74524e-07 0.0310154)
(-3.92635e-06 6.13117e-07 0.0194207)
(-2.02162e-06 5.41657e-07 0.0102874)
(-5.72225e-07 3.34961e-07 0.0031419)
(-1.23424e-05 -7.90653e-06 0.0444224)
(-7.25023e-06 -2.74635e-06 0.0300692)
(-3.89165e-06 -3.20478e-07 0.0187209)
(-1.73724e-06 3.8227e-07 0.00986392)
(-5.83772e-07 2.19398e-07 0.00299533)
(8.46323e-06 8.06445e-06 0.0443505)
(3.975e-06 3.90067e-06 0.030019)
(1.54159e-06 1.74012e-06 0.0186908)
(3.88169e-07 5.71302e-07 0.0098488)
(9.28718e-10 2.11024e-07 0.00299092)
(-5.90632e-06 -7.80553e-06 0.0455468)
(-2.97556e-06 -3.73113e-06 0.0310158)
(-1.11898e-06 -1.6969e-06 0.0194212)
(-1.53163e-07 -6.0597e-07 0.0102878)
(-2.18451e-08 -2.02063e-07 0.00314211)
(-1.20542e-05 -7.10298e-06 0.0444055)
(-6.14327e-06 -2.93203e-06 0.0300576)
(-2.79408e-06 -9.35065e-07 0.0187135)
(-1.11763e-06 -1.24215e-07 0.00985966)
(-1.94117e-07 6.11888e-09 0.00299377)
(1.00895e-05 6.13059e-06 0.0443407)
(5.16673e-06 2.7101e-06 0.0300155)
(2.36828e-06 1.00198e-06 0.0186895)
(9.54702e-07 3.14079e-07 0.00984793)
(1.96513e-07 -2.44684e-08 0.00299056)
(1.11502e-05 3.21318e-06 0.0455055)
(6.33355e-06 1.18495e-06 0.0309867)
(3.3558e-06 8.43955e-08 0.0194038)
(1.59805e-06 -2.67344e-07 0.0102791)
(3.7966e-07 -1.40409e-07 0.00313963)
(5.72546e-06 7.81569e-06 0.0455096)
(2.83216e-06 4.15985e-06 0.0309887)
(1.0358e-06 2.06784e-06 0.0194051)
(1.95475e-07 8.89504e-07 0.0102799)
(-1.69629e-08 2.43916e-07 0.00313995)
(1.293e-05 1.35431e-06 0.0456537)
(6.92966e-06 1.62345e-06 0.0311276)
(3.22364e-06 1.47157e-06 0.019517)
(1.14987e-06 1.03281e-06 0.0103518)
(2.92894e-07 3.59398e-07 0.00316605)
(-1.44839e-05 -1.07741e-06 0.0457141)
(-7.40307e-06 -1.47124e-06 0.0311663)
(-3.33913e-06 -1.37246e-06 0.019539)
(-1.20622e-06 -9.40641e-07 0.0103624)
(-2.57574e-07 -3.61338e-07 0.00316907)
(1.42281e-05 1.64737e-06 0.0457153)
(7.35666e-06 1.91802e-06 0.0311678)
(3.33674e-06 1.65025e-06 0.0195403)
(1.17043e-06 1.06743e-06 0.0103632)
(2.80354e-07 4.24395e-07 0.00316934)
(1.38326e-05 -8.60832e-07 0.0457004)
(7.08936e-06 -1.30738e-06 0.0311572)
(3.2093e-06 -1.26097e-06 0.0195335)
(1.19662e-06 -8.73225e-07 0.0103598)
(2.51003e-07 -3.42672e-07 0.00316844)
(6.42844e-06 -8.83557e-06 0.0455159)
(3.10355e-06 -4.65037e-06 0.0309935)
(1.17018e-06 -2.17397e-06 0.0194078)
(2.27712e-07 -8.07962e-07 0.0102814)
(3.71797e-08 -2.01034e-07 0.00314054)
(1.15264e-05 -5.39823e-06 0.0455017)
(6.50867e-06 -2.31638e-06 0.0309862)
(3.41792e-06 -5.65526e-07 0.019404)
(1.56844e-06 1.3888e-07 0.0102798)
(4.14857e-07 1.26497e-07 0.0031402)
(1.01945e-06 -1.24329e-05 0.0455914)
(-2.0853e-09 -6.54996e-06 0.0310864)
(-5.27518e-07 -3.03254e-06 0.0194918)
(-5.82702e-07 -1.1561e-06 0.0103389)
(-2.06416e-07 -2.44371e-07 0.0031623)
(-5.86917e-07 1.43899e-05 0.0457064)
(1.97984e-07 7.37352e-06 0.0311613)
(6.20437e-07 3.3288e-06 0.0195362)
(5.85937e-07 1.21149e-06 0.0103614)
(2.69082e-07 2.64568e-07 0.00316894)
(-9.23507e-07 -1.24392e-05 0.0455914)
(6.17669e-08 -6.56424e-06 0.0310869)
(5.58397e-07 -3.02645e-06 0.0194924)
(5.97493e-07 -1.12211e-06 0.0103391)
(2.19583e-07 -2.46611e-07 0.00316228)
(5.32044e-07 1.42393e-05 0.0457041)
(-2.65234e-07 7.26252e-06 0.0311604)
(-6.72642e-07 3.26507e-06 0.0195359)
(-6.20964e-07 1.19222e-06 0.0103611)
(-2.64744e-07 2.53437e-07 0.00316879)
(8.23247e-06 1.3536e-05 0.0645611)
(1.96783e-05 7.61198e-06 0.0645176)
(0.000190286 0.000191804 0.127758)
(3.16823e-05 1.74847e-05 0.0894218)
(1.72779e-05 2.22515e-05 0.0892391)
(5.59582e-05 -4.54111e-07 0.100974)
(4.10623e-05 4.86734e-06 0.0752511)
(5.39116e-05 -1.28073e-06 0.117438)
(1.37823e-06 -1.16397e-06 0.132355)
(3.92432e-05 2.74227e-05 0.103636)
(-4.6556e-07 -1.28264e-06 0.135002)
(5.58656e-05 3.29613e-07 0.100974)
(4.04353e-05 -4.63375e-06 0.0752738)
(5.38841e-05 7.14572e-08 0.117435)
(1.16794e-06 -8.05806e-07 0.132386)
(-7.31719e-07 1.25486e-06 0.135014)
(3.8915e-05 -2.67157e-05 0.103633)
(-3.36567e-07 -5.78062e-08 0.132392)
(-3.84819e-05 -2.77072e-05 0.103647)
(-4.03731e-05 -5.31866e-06 0.0752658)
(1.99481e-05 -6.79625e-06 0.064537)
(0.000189754 -0.000189397 0.127667)
(1.8313e-05 -1.93014e-05 0.0892561)
(3.16091e-05 -1.31254e-05 0.089603)
(1.29534e-05 -1.61645e-05 0.0646789)
(-6.3934e-07 -5.39611e-05 0.118029)
(3.25069e-06 4.23335e-07 0.132446)
(-8.8941e-07 -3.6704e-07 0.134953)
(3.57222e-05 -3.7039e-05 0.104089)
(6.92779e-07 -5.45846e-05 0.11803)
(-4.11252e-06 -5.94779e-07 0.132456)
(8.50442e-07 -5.95753e-07 0.134957)
(-3.44924e-05 -3.74674e-05 0.104081)
(1.61145e-07 -5.78486e-05 0.101822)
(1.04358e-05 -4.02192e-05 0.0756091)
(8.94471e-07 -5.76613e-05 0.101824)
(-9.99397e-06 -4.08486e-05 0.0756096)
(-0.00018907 -0.000189806 0.127674)
(-1.70499e-05 -2.21802e-05 0.0892935)
(-2.91813e-05 -1.44345e-05 0.08956)
(-1.89533e-05 -7.56147e-06 0.0645312)
(-1.25554e-05 -1.7383e-05 0.0646717)
(1.50095e-05 6.12327e-06 0.0632098)
(1.00614e-05 1.40871e-05 0.0631657)
(2.05112e-05 1.55725e-05 0.0812184)
(1.61126e-05 1.77373e-05 0.0746167)
(2.83669e-05 6.81447e-05 0.111741)
(2.47949e-05 6.68808e-05 0.100309)
(1.90296e-05 1.41882e-05 0.0744052)
(7.01086e-05 1.57121e-05 0.111603)
(6.99737e-05 1.36765e-05 0.100147)
(-1.20654e-05 4.12117e-06 0.0690142)
(5.52369e-05 -3.94111e-08 0.0976765)
(1.76269e-05 -4.0549e-07 0.0714093)
(-5.24447e-05 6.37119e-07 0.101018)
(1.86731e-05 -8.5293e-07 0.0689323)
(-5.01309e-05 9.38524e-07 0.0977545)
(-1.13594e-05 1.66214e-06 0.0714855)
(-1.22955e-05 2.72454e-06 0.0625939)
(4.42073e-05 2.60198e-06 0.0872622)
(-3.49744e-05 -8.84951e-07 0.0753918)
(2.07446e-05 -4.13908e-07 0.0625359)
(-4.04814e-05 -2.90496e-06 0.0873726)
(-1.2384e-05 -3.8244e-06 0.069038)
(1.74536e-05 5.48868e-07 0.0714185)
(5.31745e-05 1.79115e-07 0.0976877)
(-5.25161e-05 -3.41022e-07 0.10102)
(1.81074e-05 1.00714e-06 0.0689582)
(-1.1001e-05 -1.55992e-06 0.0714944)
(-5.17974e-05 -3.87661e-07 0.0977663)
(-1.21416e-05 -1.69684e-06 0.0626173)
(4.34565e-05 -2.23191e-06 0.0872769)
(-3.44169e-05 6.08162e-07 0.0754113)
(2.03009e-05 9.39889e-07 0.0625608)
(-3.98928e-05 3.61016e-06 0.0873861)
(1.29674e-05 -2.20731e-06 0.0626011)
(-4.422e-05 -2.98048e-06 0.0872738)
(3.39723e-05 1.3788e-06 0.0754007)
(-2.09754e-05 7.15236e-07 0.0625443)
(3.93764e-05 3.22101e-06 0.0873792)
(-1.32468e-05 2.48333e-06 0.064598)
(-1.91205e-05 1.56205e-05 0.081266)
(1.1139e-05 -1.77846e-05 0.0631905)
(1.61257e-05 -9.97311e-06 0.0631902)
(2.06066e-05 -1.71653e-05 0.0811592)
(-7.83072e-06 1.08571e-05 0.0632191)
(-1.40466e-05 3.36563e-06 0.0632853)
(-6.51732e-05 1.13635e-05 0.100215)
(2.1407e-05 -1.71632e-05 0.0744654)
(7.07756e-05 -1.37236e-05 0.111608)
(-1.57503e-05 2.02996e-05 0.089359)
(-6.6088e-05 1.40743e-05 0.111684)
(7.18254e-05 -1.79394e-05 0.100069)
(-1.69931e-05 8.99474e-06 0.0745615)
(-2.34663e-05 7.0681e-05 0.100447)
(1.71493e-05 -1.58039e-05 0.0746154)
(2.49875e-05 -6.55991e-05 0.111832)
(-2.7348e-05 1.26752e-05 0.0897531)
(1.72289e-05 -6.58832e-05 0.100291)
(-1.69036e-05 1.54325e-05 0.0748219)