/*--------------------------------*- C++ -*----------------------------------*\
| =========                 |                                                 |
| \\      /  F ield         | OpenFOAM: The Open Source CFD Toolbox           |
|  \\    /   O peration     | Version:  2206                                  |
|   \\  /    A nd           | Website:  www.openfoam.com                      |
|    \\/     M anipulation  |                                                 |
\*---------------------------------------------------------------------------*/
FoamFile
{
    version     2.0;
    format      ascii;
    arch        "LSB;label=32;scalar=64";
    class       volScalarField;
    location    "0.2";
    object      nut;
}
// * * * * * * * * * * * * * * * * * * * * * * * * * * * * * * * * * * * * * //

dimensions      [0 2 -1 0 0 0 0];

internalField   nonuniform List<scalar> 
66621
(
7.6396e-08
2.55571e-07
7.48508e-08
7.60475e-07
2.79474e-07
1.26731e-06
3.46671e-08
8.09793e-07
1.26417e-06
1.26859e-06
2.8847e-07
1.24229e-06
1.67496e-07
1.71075e-07
3.51375e-08
3.46971e-08
1.24211e-06
1.70304e-07
1.67195e-07
1.26398e-06
2.85129e-07
1.67236e-07
3.46615e-08
7.60435e-07
1.26299e-06
2.79582e-07
1.26733e-06
2.55558e-07
7.47855e-08
7.60451e-07
1.26255e-06
1.26723e-06
2.79442e-07
2.55493e-07
7.47262e-08
7.60516e-07
1.26261e-06
1.26725e-06
2.79606e-07
2.55485e-07
7.46795e-08
1.24138e-06
1.6718e-07
1.71327e-07
3.53828e-08
8.0978e-07
1.26451e-06
1.26861e-06
2.88479e-07
2.6727e-07
7.70204e-08
2.67276e-07
7.70488e-08
3.46312e-08
3.53993e-08
1.54322e-07
3.01271e-08
5.38958e-08
2.17565e-07
6.31579e-08
2.55232e-07
2.17241e-07
6.31023e-08
5.39283e-08
2.96194e-08
1.50385e-07
7.47923e-08
1.50165e-07
2.96371e-08
3.46452e-08
1.01718e-07
3.13375e-08
3.13911e-08
3.13159e-08
3.13614e-08
1.01747e-07
2.22982e-07
6.93579e-08
1.67287e-07
4.42898e-07
4.42492e-07
6.92931e-08
2.23186e-07
2.25872e-07
6.95184e-08
1.70879e-07
4.50676e-07
4.50006e-07
6.94629e-08
2.26088e-07
3.46711e-08
1.01578e-07
3.15602e-08
3.12019e-08
3.14655e-08
3.11269e-08
1.01808e-07
2.24687e-07
7.01011e-08
4.48963e-07
7.00134e-08
2.24823e-07
2.24041e-07
6.87077e-08
1.66938e-07
4.41453e-07
6.85993e-08
2.24223e-07
4.41437e-07
3.13743e-08
1.02353e-07
6.93474e-08
4.42672e-07
2.23787e-07
5.38779e-08
6.31471e-08
2.1749e-07
2.55223e-07
6.30939e-08
2.17166e-07
5.39089e-08
2.95983e-08
1.50254e-07
7.47163e-08
1.50054e-07
2.96168e-08
2.17456e-07
6.31178e-08
5.38587e-08
1.49981e-07
2.95802e-08
6.31122e-08
2.17443e-07
5.38579e-08
1.49986e-07
2.95864e-08
1.01831e-07
3.12381e-08
3.15665e-08
3.12089e-08
3.15503e-08
1.01873e-07
2.23815e-07
6.87549e-08
1.67018e-07
4.41496e-07
6.86935e-08
4.40557e-07
2.23553e-07
2.24164e-07
7.01612e-08
1.71112e-07
4.50925e-07
4.50879e-07
7.01328e-08
2.24819e-07
3.53576e-08
5.55012e-08
2.2708e-07
6.55004e-08
2.66882e-07
2.26664e-07
6.53968e-08
5.55746e-08
3.04471e-08
1.56742e-07
7.69657e-08
1.56507e-07
3.04679e-08
5.55081e-08
2.27098e-07
6.5506e-08
2.66885e-07
2.26684e-07
6.54002e-08
5.55841e-08
3.04478e-08
1.56752e-07
7.69945e-08
1.56525e-07
3.047e-08
3.5383e-08
1.27117e-06
1.27397e-06
1.27374e-06
1.27562e-06
1.2712e-06
1.27399e-06
1.27377e-06
1.27564e-06
1.27116e-06
1.27375e-06
1.2741e-06
1.27564e-06
1.2712e-06
1.27375e-06
1.27409e-06
1.27563e-06
1.23723e-06
6.40469e-07
1.24503e-06
7.60288e-07
6.39928e-07
1.24542e-06
1.2373e-06
4.39061e-07
8.28623e-07
1.20538e-06
1.24499e-06
1.25131e-06
6.79665e-07
8.11367e-07
1.25133e-06
6.7875e-07
1.24515e-06
1.21612e-06
4.60185e-07
2.8793e-07
8.6075e-07
8.54962e-07
4.58611e-07
1.21625e-06
5.46095e-07
1.24245e-06
1.13645e-06
1.15888e-06
1.13175e-06
1.15268e-06
5.47187e-07
5.47394e-07
1.24224e-06
1.14136e-06
1.13789e-06
5.45572e-07
1.15111e-06
1.13858e-06
4.50408e-07
8.48052e-07
1.20766e-06
1.23744e-06
6.40483e-07
1.24508e-06
7.60276e-07
6.4004e-07
1.24545e-06
1.23749e-06
1.20495e-06
4.39314e-07
2.79054e-07
8.28081e-07
4.38528e-07
8.24194e-07
1.20509e-06
1.23697e-06
1.24492e-06
6.40412e-07
7.60264e-07
1.24526e-06
6.39854e-07
1.23704e-06
1.2041e-06
4.39073e-07
2.78876e-07
8.30808e-07
4.38227e-07
1.20424e-06
8.25971e-07
1.23701e-06
1.24498e-06
6.40482e-07
7.60326e-07
1.24534e-06
6.39926e-07
1.23709e-06
1.20406e-06
4.39127e-07
2.79092e-07
8.31822e-07
8.2757e-07
4.38298e-07
1.20419e-06
5.4553e-07
1.24154e-06
1.13349e-06
1.16006e-06
1.15575e-06
1.12766e-06
5.46422e-07
1.24497e-06
1.25132e-06
6.79559e-07
8.11328e-07
1.25134e-06
6.78823e-07
1.24515e-06
1.21636e-06
4.60158e-07
2.87879e-07
8.60289e-07
8.54015e-07
4.58675e-07
1.21653e-06
5.48359e-09
6.07708e-10
4.22347e-11
5.32623e-12
4.61884e-12
5.40898e-09
5.9966e-10
4.17251e-11
5.31531e-12
4.62182e-12
5.50188e-09
6.08607e-10
4.27864e-11
5.7136e-12
5.02991e-12
5.54799e-09
6.13589e-10
4.31075e-11
5.72249e-12
5.02993e-12
5.50729e-09
6.09148e-10
4.28154e-11
5.71301e-12
5.02861e-12
5.50113e-09
6.08531e-10
4.27894e-11
5.7158e-12
5.03178e-12
5.40496e-09
5.99244e-10
4.16992e-11
5.31385e-12
4.62109e-12
5.4e-09
5.98755e-10
4.16792e-11
5.31601e-12
4.62346e-12
5.39909e-09
5.98662e-10
4.16775e-11
5.3171e-12
4.62462e-12
5.55228e-09
6.14175e-10
4.31364e-11
5.71998e-12
5.02691e-12
5.46739e-09
6.06206e-10
4.21306e-11
5.3187e-12
4.61391e-12
5.46953e-09
6.06428e-10
4.21467e-11
5.31834e-12
4.61323e-12
5.49533e-09
6.07995e-10
4.27546e-11
5.7133e-12
5.03014e-12
5.55741e-09
6.14704e-10
4.31633e-11
5.71801e-12
5.02419e-12
5.11049e-09
5.65358e-10
3.98162e-11
5.4758e-12
4.85228e-12
5.28998e-09
5.87551e-10
4.13213e-11
5.57045e-12
4.91434e-12
5.28284e-09
5.86777e-10
4.1278e-11
5.56679e-12
4.91111e-12
5.11699e-09
5.66158e-10
3.9865e-11
5.48049e-12
4.85623e-12
5.39893e-09
5.98608e-10
4.16632e-11
5.30736e-12
4.6143e-12
5.49287e-09
6.07615e-10
4.27288e-11
5.70715e-12
5.02394e-12
5.42696e-09
6.01093e-10
4.18558e-11
5.35958e-12
4.66663e-12
5.41863e-09
6.00199e-10
4.18047e-11
5.35419e-12
4.66169e-12
5.42897e-09
6.01316e-10
4.1863e-11
5.3556e-12
4.66203e-12
5.42039e-09
6.0041e-10
4.18105e-11
5.34942e-12
4.65629e-12
5.49836e-09
6.08156e-10
4.27575e-11
5.70646e-12
5.02253e-12
5.15878e-09
5.70441e-10
4.04007e-11
5.68709e-12
5.06766e-12
5.4338e-09
6.01768e-10
4.19058e-11
5.3627e-12
4.66813e-12
5.10906e-09
5.65205e-10
3.98079e-11
5.47597e-12
4.85264e-12
5.28916e-09
5.8746e-10
4.13156e-11
5.57025e-12
4.91425e-12
5.28203e-09
5.86688e-10
4.12723e-11
5.56658e-12
4.91101e-12
5.11571e-09
5.6601e-10
3.9857e-11
5.48071e-12
4.85664e-12
5.39403e-09
5.98115e-10
4.16328e-11
5.30582e-12
4.6136e-12
5.28588e-09
5.87055e-10
4.12953e-11
5.56846e-12
4.91273e-12
5.10973e-09
5.65353e-10
3.98167e-11
5.47766e-12
4.85453e-12
5.28544e-09
5.87024e-10
4.12903e-11
5.56813e-12
4.91251e-12
5.11009e-09
5.65395e-10
3.98176e-11
5.47808e-12
4.85491e-12
5.17442e-09
5.72223e-10
4.05059e-11
5.68878e-12
5.06676e-12
5.45495e-09
6.04175e-10
4.20523e-11
5.3637e-12
4.66518e-12
5.44748e-09
6.03416e-10
4.20089e-11
5.35781e-12
4.65954e-12
5.5427e-09
6.13126e-10
4.30739e-11
5.71217e-12
5.01954e-12
5.1377e-09
5.68617e-10
4.00078e-11
5.46691e-12
4.83708e-12
5.34469e-09
5.93846e-10
4.17059e-11
5.56557e-12
4.89825e-12
5.33791e-09
5.93161e-10
4.16676e-11
5.56076e-12
4.89359e-12
5.14555e-09
5.69501e-10
4.00621e-11
5.47336e-12
4.84285e-12
5.45508e-09
6.04929e-10
4.20538e-11
5.30886e-12
4.60469e-12
5.13833e-09
5.68688e-10
4.00142e-11
5.4669e-12
4.83694e-12
5.34494e-09
5.9384e-10
4.17085e-11
5.56581e-12
4.89839e-12
5.33818e-09
5.93142e-10
4.16691e-11
5.56097e-12
4.89373e-12
5.14621e-09
5.69572e-10
4.00684e-11
5.47329e-12
4.84264e-12
5.4571e-09
6.05154e-10
4.20701e-11
5.30857e-12
4.60408e-12
5.54797e-09
6.13684e-10
4.31027e-11
5.71038e-12
5.01696e-12
5.15556e-09
5.70157e-10
4.03737e-11
5.68432e-12
5.0658e-12
5.15264e-09
5.69806e-10
4.03497e-11
5.68238e-12
5.06444e-12
5.36544e-09
5.92359e-10
4.17488e-11
5.68648e-12
5.0287e-12
5.28382e-09
5.83273e-10
4.11591e-11
5.65631e-12
5.01218e-12
5.29186e-09
5.84298e-10
4.1223e-11
5.66425e-12
5.01941e-12
5.1426e-09
5.68693e-10
4.02797e-11
5.68105e-12
5.06488e-12
5.40527e-09
5.98797e-10
4.17168e-11
5.35674e-12
4.66723e-12
5.39813e-09
5.98025e-10
4.16731e-11
5.35169e-12
4.66252e-12
5.146e-09
5.69203e-10
4.03199e-11
5.6787e-12
5.06065e-12
5.14394e-09
5.68902e-10
4.02979e-11
5.67648e-12
5.05892e-12
5.16664e-09
5.71287e-10
4.04435e-11
5.68455e-12
5.06421e-12
5.45032e-09
6.03543e-10
4.20086e-11
5.36217e-12
4.6649e-12
5.44026e-09
6.02548e-10
4.19514e-11
5.356e-12
4.65932e-12
5.1345e-09
5.67821e-10
4.02276e-11
5.67973e-12
5.06498e-12
5.4004e-09
5.98179e-10
4.16752e-11
5.35457e-12
4.66621e-12
5.39137e-09
5.97226e-10
4.16196e-11
5.34901e-12
4.66127e-12
5.15655e-09
5.70317e-10
4.03889e-11
5.67888e-12
5.05902e-12
5.12538e-09
5.66898e-10
4.01749e-11
5.67422e-12
5.05992e-12
5.28008e-09
5.8287e-10
4.11339e-11
5.65475e-12
5.01127e-12
5.28838e-09
5.83919e-10
4.11993e-11
5.66277e-12
5.01856e-12
5.28106e-09
5.83119e-10
4.11537e-11
5.66267e-12
5.01958e-12
5.28216e-09
5.83216e-10
4.11599e-11
5.66386e-12
5.02058e-12
5.13514e-09
5.67957e-10
4.02392e-11
5.67606e-12
5.06006e-12
5.167e-09
5.71452e-10
4.04624e-11
5.6828e-12
5.06087e-12
5.34866e-09
5.90547e-10
4.16266e-11
5.6714e-12
5.01539e-12
5.35798e-09
5.91684e-10
4.16994e-11
5.682e-12
5.02538e-12
5.34912e-09
5.90632e-10
4.16321e-11
5.67117e-12
5.01507e-12
5.35835e-09
5.91764e-10
4.17046e-11
5.68163e-12
5.0249e-12
3.50933e-08
3.47163e-08
1.24202e-06
1.69487e-07
1.67116e-07
2.55241e-07
7.4889e-08
7.59044e-07
1.26374e-06
2.79083e-07
1.26763e-06
2.55224e-07
7.48301e-08
7.59026e-07
1.26348e-06
1.26753e-06
2.78919e-07
1.26353e-06
2.79108e-07
7.47515e-08
3.47013e-08
1.24116e-06
1.67209e-07
1.71225e-07
3.53946e-08
8.11039e-07
1.26467e-06
1.26861e-06
2.88025e-07
8.11024e-07
1.26498e-06
1.26863e-06
2.87998e-07
2.66996e-07
7.70848e-08
2.67002e-07
7.71172e-08
1.24206e-06
1.67437e-07
1.71054e-07
3.46633e-08
3.54274e-08
3.14759e-08
3.11757e-08
1.01665e-07
6.99088e-08
4.46869e-07
2.24317e-07
6.87043e-08
4.4119e-07
2.24179e-07
5.42748e-08
2.1728e-07
6.31907e-08
2.56482e-07
5.39642e-08
2.18414e-07
6.35467e-08
2.97991e-08
1.50328e-07
7.52273e-08
2.96509e-08
1.51094e-07
5.42585e-08
6.31795e-08
2.17194e-07
2.56477e-07
5.39448e-08
6.35393e-08
2.18351e-07
2.97818e-08
1.50188e-07
7.51695e-08
2.96317e-08
1.50966e-07
2.97606e-08
1.49963e-07
7.51464e-08
2.96023e-08
1.50807e-07
3.48392e-08
1.0286e-07
3.12728e-08
3.15616e-08
1.02122e-07
3.14125e-08
3.16778e-08
2.23813e-07
6.88877e-08
4.3969e-07
1.67979e-07
4.42577e-07
2.22476e-07
6.9164e-08
2.26032e-07
7.01829e-08
4.51077e-07
1.72024e-07
2.2554e-07
7.05197e-08
4.53038e-07
3.55068e-08
5.57082e-08
2.26756e-07
6.5483e-08
2.67351e-07
5.55646e-08
2.27417e-07
6.56011e-08
3.0581e-08
1.56723e-07
7.73132e-08
3.04834e-08
1.57365e-07
5.57122e-08
2.26775e-07
6.54852e-08
2.67371e-07
5.55726e-08
2.27398e-07
6.56041e-08
3.05789e-08
1.56738e-07
7.7355e-08
3.04843e-08
1.57351e-07
1.02378e-07
3.1275e-08
3.14159e-08
1.01828e-07
3.14129e-08
3.14936e-08
2.24131e-07
6.93931e-08
4.42219e-07
1.68304e-07
2.23061e-07
4.44589e-07
6.96795e-08
2.27004e-07
6.95651e-08
4.49787e-07
1.71771e-07
2.25954e-07
4.5209e-07
6.98077e-08
3.4836e-08
3.55305e-08
1.27116e-06
1.27378e-06
1.27394e-06
1.27559e-06
1.27118e-06
1.27379e-06
1.27396e-06
1.27561e-06
1.27129e-06
1.27399e-06
1.27412e-06
1.27567e-06
1.27132e-06
1.27399e-06
1.27412e-06
1.27565e-06
1.13865e-06
1.13092e-06
5.46556e-07
1.23953e-06
6.39097e-07
1.24452e-06
7.63486e-07
1.23665e-06
6.43078e-07
1.24663e-06
1.20838e-06
4.38471e-07
8.20182e-07
2.80532e-07
8.2993e-07
1.20376e-06
4.40985e-07
1.23916e-06
1.24436e-06
6.38887e-07
7.63527e-07
1.23627e-06
1.24648e-06
6.42954e-07
1.2076e-06
4.38154e-07
8.21635e-07
2.80396e-07
1.20294e-06
4.40722e-07
8.31765e-07
1.20758e-06
4.38215e-07
8.23215e-07
2.80547e-07
1.20291e-06
4.40773e-07
8.33222e-07
5.48803e-07
1.243e-06
1.11904e-06
1.14934e-06
1.13476e-06
5.44266e-07
1.16342e-06
1.24552e-06
1.25124e-06
6.7813e-07
8.07711e-07
1.24485e-06
1.25128e-06
6.79383e-07
1.21798e-06
4.58612e-07
8.51889e-07
2.89272e-07
1.21543e-06
8.61948e-07
4.6131e-07
1.24552e-06
1.25125e-06
6.78239e-07
8.07709e-07
1.24487e-06
1.25126e-06
6.79276e-07
1.21825e-06
4.58688e-07
8.50907e-07
2.89261e-07
1.21573e-06
4.61239e-07
8.61128e-07
5.49506e-07
1.2439e-06
1.12427e-06
1.14717e-06
5.45266e-07
1.13837e-06
1.16143e-06
1.27078e-06
1.26232e-06
1.27077e-06
1.26238e-06
1.26392e-06
1.24125e-06
1.24148e-06
1.24127e-06
1.26366e-06
1.2637e-06
1.26366e-06
1.26373e-06
1.24086e-06
1.24088e-06
1.26259e-06
1.2624e-06
1.26258e-06
1.26238e-06
1.26228e-06
1.26238e-06
1.26224e-06
1.24184e-06
1.26369e-06
1.26379e-06
1.24149e-06
1.26262e-06
1.2624e-06
1.26222e-06
1.2415e-06
1.26412e-06
2.67881e-07
7.6874e-08
7.69623e-08
2.67555e-07
3.52851e-08
3.53315e-08
2.56022e-07
7.46976e-08
7.48822e-08
2.55874e-07
1.27078e-06
1.27081e-06
1.27082e-06
1.27077e-06
1.27078e-06
1.27078e-06
1.27079e-06
7.55877e-07
2.79797e-07
1.26696e-06
1.26235e-06
2.79893e-07
1.26698e-06
7.66184e-07
2.68194e-07
7.69102e-08
2.67429e-07
7.69559e-08
3.53118e-08
3.53394e-08
2.56018e-07
7.47367e-08
2.55816e-07
7.48519e-08
1.27085e-06
1.27082e-06
1.27084e-06
7.58695e-07
2.79773e-07
1.26697e-06
1.26242e-06
7.64078e-07
2.80019e-07
1.267e-06
3.46202e-08
3.4658e-08
8.12724e-07
1.2682e-06
2.88506e-07
1.26394e-06
1.26822e-06
2.89022e-07
8.11005e-07
1.67378e-07
1.70926e-07
1.2412e-06
1.67812e-07
1.71242e-07
3.52816e-08
3.5326e-08
3.46124e-08
3.46928e-08
1.71135e-07
1.66787e-07
1.24126e-06
1.71456e-07
1.67221e-07
3.5328e-08
3.52917e-08
3.46904e-08
3.46232e-08
1.24181e-06
1.71514e-07
1.67241e-07
1.71137e-07
1.66797e-07
2.67802e-07
7.68379e-08
7.69291e-08
2.67488e-07
8.09932e-07
2.88507e-07
1.26812e-06
1.2637e-06
2.88754e-07
1.26813e-06
8.12884e-07
8.09773e-07
2.88369e-07
1.26809e-06
1.26374e-06
2.88633e-07
1.2681e-06
8.12822e-07
2.67418e-07
7.69546e-08
7.68986e-08
2.67935e-07
2.67412e-07
7.6924e-08
7.68634e-08
2.67907e-07
8.12222e-07
1.26369e-06
2.88831e-07
1.26811e-06
2.8838e-07
1.2681e-06
8.10918e-07
8.12183e-07
1.26374e-06
2.88722e-07
1.26812e-06
2.88224e-07
1.26811e-06
8.10818e-07
1.70802e-07
1.67108e-07
1.24063e-06
1.71157e-07
1.67562e-07
3.45938e-08
3.4677e-08
3.53295e-08
3.52991e-08
1.24125e-06
1.71194e-07
1.67599e-07
1.70839e-07
1.67142e-07
3.46742e-08
3.46062e-08
7.55862e-07
2.79786e-07
1.26699e-06
1.26262e-06
2.7988e-07
1.267e-06
7.66162e-07
2.56005e-07
7.46061e-08
2.5587e-07
7.48007e-08
7.55858e-07
1.26688e-06
2.79629e-07
1.26243e-06
1.26688e-06
7.66159e-07
2.79764e-07
2.55787e-07
7.48724e-08
7.47128e-08
2.5606e-07
7.65324e-07
1.26262e-06
2.79971e-07
1.26695e-06
2.79687e-07
1.26698e-06
7.56927e-07
2.55765e-07
7.48054e-08
2.56028e-07
7.4636e-08
7.65304e-07
1.26242e-06
1.26687e-06
2.79861e-07
1.26686e-06
7.56931e-07
2.7954e-07
2.56036e-07
7.45986e-08
7.47937e-08
2.55904e-07
7.55929e-07
1.26688e-06
2.79825e-07
1.26231e-06
1.26688e-06
7.66189e-07
2.79854e-07
2.56028e-07
7.45862e-08
2.55887e-07
7.4777e-08
7.6533e-07
1.26238e-06
2.80004e-07
1.26697e-06
2.79719e-07
1.26697e-06
7.5697e-07
2.55781e-07
7.48081e-08
7.46348e-08
2.56063e-07
7.6534e-07
1.2623e-06
1.26687e-06
2.79979e-07
1.26686e-06
7.56983e-07
2.79678e-07
2.55772e-07
7.47966e-08
2.56051e-07
7.46195e-08
3.5303e-08
3.53204e-08
3.46353e-08
3.46795e-08
1.71197e-07
1.66872e-07
1.24148e-06
1.7153e-07
1.67349e-07
2.68145e-07
7.68803e-08
2.67284e-07
7.69178e-08
8.13095e-07
2.88393e-07
1.26814e-06
1.26368e-06
8.11084e-07
2.89036e-07
1.26816e-06
8.12988e-07
2.88229e-07
1.26822e-06
1.26377e-06
8.11092e-07
2.88944e-07
1.26823e-06
1.70898e-07
1.67195e-07
1.24117e-06
1.71356e-07
1.67562e-07
3.4615e-08
3.465e-08
7.5864e-07
2.79693e-07
1.26699e-06
1.26262e-06
7.63986e-07
2.80004e-07
1.26699e-06
2.56052e-07
7.46699e-08
2.55729e-07
7.47754e-08
7.58668e-07
1.26693e-06
2.79538e-07
1.2624e-06
7.6398e-07
1.26693e-06
2.79905e-07
2.5608e-07
7.46768e-08
2.55753e-07
7.47781e-08
7.58698e-07
1.26693e-06
2.79699e-07
1.26223e-06
7.64038e-07
1.26693e-06
2.80049e-07
2.56071e-07
7.46647e-08
2.55751e-07
7.47834e-08
1.66888e-07
1.71308e-07
1.24142e-06
1.67187e-07
1.71632e-07
3.53205e-08
3.53436e-08
1.71214e-07
3.53366e-08
8.127e-07
1.26818e-06
2.88491e-07
1.26414e-06
1.26819e-06
2.8904e-07
8.1098e-07
2.68005e-07
7.68577e-08
7.68971e-08
2.67326e-07
2.67994e-07
7.68852e-08
7.69248e-08
2.67323e-07
8.10148e-07
2.88344e-07
8.10092e-07
2.88295e-07
2.67014e-07
7.69285e-08
2.6699e-07
7.6955e-08
3.46277e-08
3.46726e-08
3.53203e-08
3.53443e-08
1.70931e-07
3.53533e-08
5.54686e-08
6.54377e-08
2.27589e-07
2.67574e-07
6.53854e-08
2.27317e-07
5.55193e-08
3.0466e-08
7.69547e-08
1.56699e-07
1.56953e-07
3.04293e-08
3.04249e-08
1.56953e-07
7.68878e-08
1.567e-07
3.04588e-08
5.55225e-08
2.67833e-07
6.53807e-08
2.2733e-07
6.5438e-08
2.27574e-07
5.54682e-08
3.53274e-08
3.52923e-08
5.37988e-08
2.17992e-07
6.31734e-08
2.55827e-07
2.17668e-07
6.30165e-08
5.3935e-08
2.96353e-08
7.48812e-08
1.50042e-07
1.50451e-07
2.95587e-08
2.95593e-08
1.50444e-07
7.47024e-08
1.50046e-07
2.96291e-08
5.39437e-08
2.56017e-07
2.17686e-07
6.30149e-08
2.17989e-07
6.318e-08
5.37975e-08
5.54924e-08
2.67309e-07
6.5489e-08
2.27753e-07
6.54182e-08
2.27254e-07
5.5554e-08
3.04571e-08
1.56743e-07
7.69401e-08
3.04333e-08
1.56932e-07
5.55161e-08
2.67973e-07
6.54007e-08
2.27279e-07
5.54892e-08
6.54217e-08
2.27662e-07
3.04326e-08
1.56922e-07
7.69265e-08
1.5676e-07
3.04583e-08
3.53254e-08
3.53325e-08
5.38339e-08
2.5578e-07
2.17948e-07
6.31326e-08
2.17685e-07
6.30536e-08
5.38911e-08
2.96213e-08
1.50085e-07
7.48521e-08
2.9572e-08
1.50397e-07
5.39164e-08
2.56031e-07
2.17687e-07
6.30409e-08
5.38226e-08
2.17967e-07
6.31474e-08
2.95767e-08
1.50488e-07
7.47538e-08
1.50095e-07
2.96136e-08
3.4661e-08
3.46296e-08
1.0185e-07
3.11154e-08
3.13314e-08
3.11669e-08
3.13698e-08
1.02018e-07
2.22655e-07
4.43436e-07
1.67713e-07
6.92616e-08
4.41771e-07
6.93587e-08
2.22546e-07
2.26361e-07
4.51791e-07
1.7123e-07
6.95011e-08
4.50252e-07
6.96117e-08
2.26362e-07
2.227e-07
6.9315e-08
1.67374e-07
4.4217e-07
4.43328e-07
6.92249e-08
2.22888e-07
2.26398e-07
6.96081e-08
1.70923e-07
4.50427e-07
4.51589e-07
6.95136e-08
2.26405e-07
1.0216e-07
3.12062e-08
3.13592e-08
3.11715e-08
3.13685e-08
1.02011e-07
3.53236e-08
3.52857e-08
3.46908e-08
3.46179e-08
1.01418e-07
3.13104e-08
3.09948e-08
3.133e-08
3.10176e-08
1.01742e-07
2.25087e-07
4.52777e-07
1.7145e-07
6.99274e-08
7.00726e-08
4.50528e-07
2.25162e-07
2.24481e-07
4.43349e-07
1.67216e-07
6.8485e-08
6.86771e-08
4.40474e-07
2.2453e-07
2.25122e-07
7.0093e-08
1.71123e-07
4.50686e-07
6.99464e-08
2.25078e-07
4.52729e-07
2.24477e-07
6.86909e-08
1.6679e-07
4.40636e-07
6.85016e-08
2.24463e-07
4.43229e-07
1.01745e-07
3.13083e-08
3.09977e-08
3.13217e-08
3.10061e-08
1.01407e-07
3.53001e-08
3.53282e-08
3.46309e-08
3.46915e-08
1.01749e-07
3.13296e-08
3.10183e-08
1.01429e-07
3.13143e-08
3.09986e-08
2.25163e-07
4.50941e-07
1.71188e-07
7.01053e-08
6.99829e-08
4.52602e-07
2.25122e-07
2.24521e-07
4.40927e-07
1.66843e-07
6.86955e-08
6.85356e-08
4.42981e-07
2.24524e-07
2.25121e-07
6.99673e-08
4.52601e-07
1.71483e-07
2.2515e-07
7.01044e-08
4.50736e-07
2.24516e-07
6.8519e-08
4.43052e-07
1.67224e-07
2.24501e-07
6.86958e-08
4.40712e-07
1.01437e-07
3.13066e-08
3.0993e-08
3.13269e-08
3.10155e-08
1.0174e-07
5.54555e-08
6.54359e-08
2.27508e-07
2.67494e-07
6.53811e-08
2.27226e-07
5.55068e-08
3.0446e-08
7.69186e-08
1.56566e-07
1.5682e-07
3.04078e-08
3.04048e-08
1.56829e-07
7.68524e-08
1.56571e-07
3.04409e-08
5.55093e-08
2.67701e-07
6.53696e-08
2.27204e-07
6.54319e-08
2.27467e-07
5.54522e-08
5.55226e-08
6.53893e-08
2.27299e-07
2.678e-07
5.54757e-08
6.54369e-08
2.27599e-07
3.04306e-08
7.691e-08
1.56957e-07
3.04595e-08
1.56738e-07
3.04628e-08
1.56695e-07
7.69632e-08
3.04314e-08
1.56962e-07
5.54813e-08
2.6746e-07
6.54318e-08
2.27629e-07
5.55198e-08
6.53997e-08
2.27314e-07
5.5509e-08
6.53887e-08
2.27205e-07
2.67774e-07
5.54618e-08
6.54372e-08
2.27502e-07
3.04141e-08
7.68762e-08
1.56858e-07
1.56633e-07
3.04429e-08
3.04458e-08
1.56587e-07
7.69289e-08
3.04108e-08
1.56851e-07
5.54665e-08
2.67453e-07
6.54349e-08
2.27559e-07
6.54003e-08
2.2724e-07
5.55052e-08
1.01715e-07
3.13096e-08
3.11212e-08
3.13399e-08
3.11584e-08
1.01969e-07
2.26122e-07
4.51394e-07
1.71134e-07
6.94562e-08
6.95798e-08
4.49249e-07
2.26144e-07
2.22719e-07
4.44235e-07
1.67541e-07
6.92243e-08
4.41229e-07
6.94033e-08
2.22697e-07
2.26189e-07
6.95672e-08
1.70815e-07
4.49417e-07
6.94474e-08
4.5122e-07
2.26162e-07
2.2288e-07
6.93932e-08
1.67119e-07
4.41523e-07
4.4428e-07
6.92022e-08
2.22914e-07
1.02086e-07
3.13392e-08
3.11808e-08
3.13352e-08
3.11547e-08
1.01862e-07
3.46729e-08
3.46004e-08
3.53058e-08
3.53314e-08
1.01905e-07
3.13282e-08
3.11393e-08
1.01627e-07
3.12833e-08
3.11057e-08
2.26274e-07
4.49882e-07
1.70886e-07
6.9514e-08
4.51073e-07
6.94309e-08
2.26215e-07
2.23142e-07
4.41766e-07
1.67185e-07
6.93609e-08
6.91875e-08
4.44246e-07
2.23205e-07
2.26225e-07
6.94383e-08
4.51122e-07
1.71178e-07
4.49616e-07
2.26247e-07
6.95403e-08
2.23132e-07
6.91947e-08
4.4426e-07
1.67581e-07
2.23051e-07
6.93766e-08
4.41593e-07
1.01564e-07
3.12653e-08
3.10842e-08
3.12966e-08
3.11168e-08
1.01832e-07
3.46122e-08
3.4677e-08
5.37796e-08
6.31619e-08
2.55814e-07
2.17901e-07
6.30046e-08
2.17579e-07
5.3915e-08
2.9614e-08
1.49875e-07
7.47924e-08
1.50287e-07
2.95375e-08
5.39252e-08
2.56008e-07
6.30002e-08
2.17617e-07
6.31669e-08
2.17912e-07
5.37791e-08
2.95382e-08
1.50283e-07
7.4617e-08
1.49883e-07
2.96081e-08
5.39339e-08
2.17652e-07
6.30193e-08
2.56017e-07
5.38038e-08
2.1798e-07
6.31685e-08
2.95665e-08
7.47299e-08
1.50417e-07
2.96247e-08
1.50052e-07
2.96278e-08
1.50032e-07
7.48801e-08
2.95607e-08
1.50416e-07
5.38115e-08
2.55805e-07
2.17994e-07
6.31627e-08
5.39256e-08
2.17672e-07
6.30338e-08
5.3913e-08
6.30076e-08
2.55994e-07
2.17544e-07
5.37831e-08
6.31564e-08
2.17882e-07
2.95483e-08
1.50294e-07
7.46586e-08
1.49923e-07
2.96074e-08
5.37914e-08
2.55781e-07
6.3153e-08
2.17906e-07
6.30224e-08
2.17576e-07
5.39066e-08
2.96084e-08
1.49877e-07
7.48061e-08
2.95404e-08
1.50274e-07
5.37843e-08
2.17932e-07
6.31732e-08
2.55843e-07
2.17609e-07
6.30161e-08
5.39186e-08
2.9612e-08
7.47827e-08
1.49886e-07
1.50298e-07
2.95368e-08
2.9536e-08
1.50283e-07
7.46102e-08
1.49884e-07
2.96052e-08
5.39294e-08
2.56043e-07
2.17651e-07
6.30113e-08
2.1795e-07
6.31784e-08
5.37844e-08
5.37827e-08
6.31657e-08
2.55829e-07
2.17919e-07
6.30087e-08
2.17595e-07
5.3917e-08
2.96147e-08
1.49881e-07
7.47699e-08
1.5029e-07
2.9539e-08
5.39285e-08
2.56035e-07
6.30038e-08
2.17636e-07
6.31708e-08
2.17933e-07
5.37834e-08
2.9538e-08
1.50276e-07
7.45919e-08
1.49879e-07
2.96075e-08
5.39175e-08
2.17559e-07
6.3018e-08
2.56015e-07
5.37873e-08
2.17906e-07
6.31662e-08
2.95487e-08
7.46619e-08
1.50315e-07
1.49939e-07
2.96077e-08
2.9607e-08
1.49873e-07
7.48049e-08
2.95385e-08
1.5028e-07
5.37981e-08
2.55799e-07
2.17944e-07
6.3163e-08
2.17603e-07
6.30317e-08
5.39139e-08
5.39141e-08
6.30106e-08
2.56009e-07
2.17551e-07
5.37845e-08
6.3159e-08
2.17892e-07
2.95494e-08
1.50296e-07
7.4649e-08
1.49924e-07
2.96089e-08
5.37929e-08
2.55795e-07
6.3156e-08
2.17922e-07
6.30248e-08
2.17587e-07
5.39088e-08
2.96084e-08
1.49867e-07
7.47919e-08
2.95399e-08
1.50266e-07
3.53209e-08
3.53099e-08
3.46824e-08
3.46423e-08
1.01477e-07
3.12841e-08
3.09755e-08
3.13113e-08
3.1005e-08
1.01739e-07
2.25142e-07
4.52388e-07
6.99873e-08
1.71516e-07
2.25165e-07
7.00926e-08
4.51016e-07
2.24549e-07
4.42708e-07
6.8546e-08
1.67226e-07
2.24523e-07
6.86842e-08
4.40989e-07
1.01739e-07
3.1327e-08
3.10126e-08
1.01459e-07
3.13083e-08
3.09961e-08
2.25142e-07
7.00849e-08
1.71217e-07
4.51261e-07
6.9992e-08
2.25135e-07
4.523e-07
2.24504e-07
6.86797e-08
1.66906e-07
4.41374e-07
6.85637e-08
2.24555e-07
4.42623e-07
5.54766e-08
2.67271e-07
6.54824e-08
2.27639e-07
6.54129e-08
2.27138e-07
5.55378e-08
3.04443e-08
1.56646e-07
7.69095e-08
3.04231e-08
1.56843e-07
5.55013e-08
2.67894e-07
6.54053e-08
2.271e-07
6.54253e-08
5.54747e-08
2.27497e-07
3.04195e-08
1.56823e-07
7.68899e-08
1.56668e-07
3.04448e-08
1.0176e-07
3.13175e-08
3.11313e-08
3.13365e-08
3.11183e-08
1.02286e-07
2.25737e-07
4.50786e-07
6.94206e-08
1.71185e-07
6.95144e-08
2.26214e-07
4.50111e-07
2.23748e-07
4.44046e-07
6.91739e-08
1.67579e-07
4.41731e-07
2.23212e-07
6.93206e-08
1.01859e-07
3.12827e-08
3.10992e-08
3.1257e-08
1.01532e-07
3.10698e-08
2.24664e-07
6.96299e-08
1.71023e-07
4.49615e-07
6.95306e-08
4.50038e-07
2.24966e-07
2.24397e-07
6.92994e-08
1.67091e-07
4.4285e-07
4.44389e-07
6.91355e-08
2.23839e-07
3.46658e-08
3.46085e-08
5.38197e-08
2.5581e-07
6.3125e-08
2.17917e-07
6.30495e-08
2.17644e-07
5.38771e-08
2.96061e-08
1.49959e-07
7.47862e-08
2.95563e-08
1.50283e-07
5.39014e-08
2.56044e-07
6.30323e-08
2.17581e-07
6.31427e-08
5.38061e-08
2.1792e-07
2.95622e-08
1.50366e-07
7.46841e-08
1.49984e-07
2.95995e-08
5.38275e-08
2.55838e-07
2.17955e-07
6.31339e-08
2.17685e-07
6.30599e-08
5.38834e-08
2.9606e-08
1.49978e-07
7.47927e-08
1.50305e-07
2.95571e-08
5.39092e-08
2.56071e-07
2.17622e-07
6.30428e-08
2.17967e-07
5.38147e-08
6.31537e-08
2.9562e-08
1.5039e-07
7.46904e-08
1.5e-07
2.95989e-08
5.38231e-08
2.55831e-07
6.31295e-08
2.17935e-07
6.30538e-08
2.17666e-07
5.38812e-08
2.96078e-08
1.49964e-07
7.47854e-08
2.9558e-08
1.5029e-07
5.39048e-08
2.56064e-07
6.30361e-08
2.17604e-07
5.3809e-08
6.31469e-08
2.17941e-07
2.95637e-08
1.50377e-07
7.46878e-08
1.49993e-07
2.96013e-08
1.01499e-07
3.09966e-08
3.13245e-08
3.10137e-08
3.1351e-08
1.01831e-07
2.24489e-07
4.42339e-07
1.67204e-07
6.84985e-08
6.86035e-08
4.41138e-07
2.24475e-07
2.25302e-07
4.53132e-07
1.71635e-07
7.00272e-08
4.51158e-07
7.01613e-08
2.25306e-07
2.2438e-07
6.8631e-08
1.66927e-07
4.41551e-07
6.85236e-08
4.42021e-07
2.23917e-07
2.2527e-07
7.01478e-08
1.71292e-07
4.51254e-07
4.53044e-07
7.00309e-08
2.25794e-07
1.01754e-07
3.0991e-08
3.13283e-08
3.09945e-08
3.1341e-08
1.0148e-07
3.53466e-08
3.53294e-08
3.139e-08
7.00341e-08
5.54617e-08
2.27563e-07
6.54297e-08
2.67211e-07
2.27113e-07
6.53967e-08
5.54858e-08
3.04359e-08
7.68903e-08
1.56592e-07
1.56775e-07
3.04119e-08
3.04113e-08
1.56775e-07
7.68871e-08
1.56605e-07
3.04304e-08
5.54829e-08
2.67851e-07
2.27161e-07
6.53826e-08
2.27492e-07
6.54051e-08
5.54559e-08
5.54715e-08
2.27571e-07
6.54306e-08
2.67193e-07
2.27117e-07
6.5396e-08
5.54955e-08
3.04416e-08
7.6919e-08
1.56655e-07
1.56842e-07
3.04172e-08
3.04183e-08
1.56847e-07
7.69164e-08
1.56677e-07
3.04369e-08
5.54904e-08
2.67847e-07
2.27167e-07
6.53777e-08
2.27492e-07
6.54011e-08
5.54628e-08
2.2707e-07
6.53078e-08
5.54357e-08
1.56793e-07
3.04184e-08
2.27072e-07
6.53077e-08
5.54445e-08
1.56855e-07
3.04245e-08
3.46734e-08
3.46363e-08
3.53436e-08
3.53359e-08
3.13706e-08
6.95314e-08
1.27365e-06
1.2734e-06
1.27082e-06
1.27368e-06
1.27342e-06
1.27519e-06
1.27519e-06
1.27364e-06
1.27338e-06
1.27079e-06
1.27367e-06
1.27341e-06
1.2752e-06
1.27519e-06
5.44172e-07
1.13802e-06
1.16081e-06
1.24097e-06
1.1218e-06
1.14644e-06
5.48803e-07
5.43921e-07
1.15729e-06
1.14784e-06
1.24119e-06
1.13831e-06
1.12348e-06
5.50065e-07
5.49648e-07
1.24166e-06
1.14042e-06
1.12698e-06
1.15594e-06
1.14628e-06
5.44385e-07
5.43477e-07
1.15416e-06
1.15068e-06
1.24058e-06
1.1259e-06
1.13521e-06
5.49654e-07
5.49489e-07
1.24122e-06
1.13734e-06
1.12917e-06
1.15213e-06
1.14952e-06
5.44244e-07
5.4479e-07
1.1548e-06
1.14349e-06
1.24152e-06
5.49319e-07
1.14096e-06
1.12701e-06
5.44632e-07
1.15129e-06
1.14717e-06
1.24122e-06
1.12876e-06
5.49203e-07
1.13861e-06
5.45123e-07
1.13479e-06
1.16122e-06
1.24122e-06
1.14891e-06
1.11971e-06
5.49668e-07
1.27364e-06
1.27339e-06
1.27078e-06
1.27363e-06
1.27339e-06
1.2752e-06
1.27522e-06
1.2734e-06
1.27366e-06
1.27081e-06
1.27338e-06
1.27366e-06
1.2752e-06
1.27522e-06
1.2734e-06
1.27365e-06
1.27082e-06
1.27338e-06
1.27365e-06
1.2752e-06
1.27519e-06
1.27081e-06
1.27364e-06
1.27338e-06
1.27367e-06
1.27341e-06
1.27522e-06
1.2752e-06
1.27076e-06
1.27367e-06
1.2734e-06
1.27365e-06
1.27339e-06
1.2752e-06
1.2752e-06
1.27078e-06
1.27342e-06
1.27365e-06
1.27339e-06
1.27363e-06
1.2752e-06
1.2752e-06
1.27078e-06
1.27342e-06
1.27365e-06
1.27341e-06
1.27362e-06
1.27519e-06
1.27519e-06
1.23599e-06
6.37337e-07
1.24359e-06
7.65809e-07
6.44085e-07
1.24433e-06
1.23527e-06
1.20089e-06
8.31621e-07
2.79874e-07
4.40222e-07
8.19452e-07
4.38449e-07
1.20218e-06
1.20244e-06
4.38676e-07
2.79764e-07
8.20353e-07
8.31642e-07
4.40092e-07
1.20141e-06
1.23521e-06
7.55481e-07
6.44342e-07
1.24424e-06
6.37059e-07
1.24362e-06
1.23606e-06
1.27376e-06
1.27348e-06
1.27086e-06
1.27377e-06
1.2735e-06
1.27522e-06
1.2752e-06
1.2735e-06
1.27369e-06
1.27082e-06
1.27351e-06
1.27369e-06
1.27522e-06
1.27521e-06
1.27352e-06
1.27369e-06
1.27084e-06
1.27352e-06
1.2737e-06
1.27522e-06
1.27521e-06
1.23618e-06
7.63216e-07
6.39403e-07
1.24356e-06
6.42321e-07
1.24441e-06
1.23529e-06
1.20115e-06
8.2877e-07
4.39795e-07
2.79998e-07
1.20242e-06
8.21835e-07
4.39045e-07
1.23536e-06
7.57686e-07
6.42909e-07
1.24421e-06
1.23617e-06
6.38669e-07
1.24365e-06
1.2027e-06
4.39345e-07
2.79735e-07
8.24939e-07
8.28936e-07
4.39543e-07
1.20127e-06
1.24371e-06
1.25034e-06
6.79954e-07
8.10064e-07
1.25031e-06
6.79835e-07
1.24348e-06
1.21362e-06
8.57918e-07
2.8893e-07
4.59892e-07
8.56304e-07
4.59995e-07
1.21416e-06
1.21436e-06
4.60216e-07
2.88435e-07
8.57888e-07
8.57374e-07
4.59767e-07
1.21352e-06
1.24367e-06
8.11392e-07
1.25029e-06
6.80234e-07
1.25022e-06
6.7936e-07
1.24378e-06
5.48462e-07
1.24125e-06
1.12582e-06
1.14777e-06
1.13816e-06
1.16014e-06
5.44452e-07
5.49849e-07
1.2415e-06
1.13895e-06
1.12466e-06
5.43989e-07
1.15699e-06
1.14777e-06
5.44244e-07
1.2415e-06
1.1563e-06
1.14622e-06
5.49752e-07
1.13927e-06
1.12467e-06
1.24353e-06
6.78888e-07
1.25014e-06
8.12637e-07
6.81061e-07
1.25013e-06
1.24386e-06
1.21332e-06
8.62307e-07
2.88687e-07
4.60177e-07
4.59757e-07
8.56607e-07
1.21344e-06
1.21358e-06
4.59898e-07
2.88485e-07
8.5712e-07
4.60091e-07
8.62092e-07
1.2138e-06
1.24351e-06
8.09632e-07
6.81173e-07
1.25009e-06
6.78736e-07
1.25001e-06
1.24362e-06
1.24342e-06
6.78709e-07
1.25014e-06
8.12576e-07
6.8096e-07
1.25011e-06
1.24374e-06
1.21336e-06
8.6111e-07
2.88576e-07
4.60033e-07
4.59644e-07
8.55611e-07
1.21355e-06
1.21364e-06
4.59779e-07
2.88338e-07
8.56136e-07
4.59955e-07
1.21385e-06
8.60843e-07
1.24338e-06
8.09466e-07
6.81063e-07
1.25006e-06
6.78541e-07
1.24998e-06
1.24352e-06
1.24359e-06
6.80843e-07
1.25036e-06
8.10264e-07
1.24366e-06
6.79013e-07
1.25022e-06
1.21336e-06
8.58428e-07
2.88433e-07
4.60072e-07
8.61132e-07
4.59998e-07
1.21385e-06
1.21325e-06