/*--------------------------------*- C++ -*----------------------------------*\
| =========                 |                                                 |
| \\      /  F ield         | OpenFOAM: The Open Source CFD Toolbox           |
|  \\    /   O peration     | Version:  2206                                  |
|   \\  /    A nd           | Website:  www.openfoam.com                      |
|    \\/     M anipulation  |                                                 |
\*---------------------------------------------------------------------------*/
FoamFile
{
    version     2.0;
    format      ascii;
    arch        "LSB;label=32;scalar=64";
    class       surfaceScalarField;
    location    "0.2";
    object      phi;
}
// * * * * * * * * * * * * * * * * * * * * * * * * * * * * * * * * * * * * * //

dimensions      [0 3 -1 0 0 0 0];

oriented        oriented;

internalField   nonuniform List<scalar> 
196294
(
-1.43526e-11
9.40568e-11
1.30128e-11
3.32092e-12
1.71423e-08
5.18657e-11
1.84103e-14
-4.89973e-12
-1.76966e-11
-2.27107e-08
2.26814e-08
-2.66928e-12
1.41209e-11
3.82654e-12
-1.70472e-08
1.73681e-12
1.70301e-08
-5.17845e-11
-1.47837e-13
-1.05575e-11
8.88223e-11
-2.4714e-08
2.46877e-08
-1.61934e-11
-1.43717e-11
1.77662e-11
2.26048e-11
2.36077e-08
7.56285e-12
-2.22749e-12
9.15149e-11
-1.22175e-10
1.22811e-10
-9.1965e-11
1.05245e-07
2.4947e-12
6.15238e-12
-8.73546e-09
2.32119e-12
8.72449e-09
-1.95991e-13
-1.58951e-11
1.32275e-11
-4.39105e-12
-2.52356e-08
2.52428e-08
1.45586e-12
4.30972e-11
-5.63824e-13
-4.63149e-12
-2.51934e-11
2.26473e-11
5.61855e-12
-4.24372e-11
-8.40316e-12
1.31027e-11
1.04997e-07
-3.4633e-11
2.69524e-12
-6.47175e-12
9.90342e-12
-9.91899e-12
5.69422e-12
1.04631e-07
-6.85159e-12
-5.89308e-12
9.52229e-12
-2.39743e-08
2.11057e-12
2.39754e-08
-3.03991e-11
-4.36616e-11
-2.58009e-08
-4.48304e-11
-2.79925e-11
2.59478e-08
1.22048e-11
-6.0695e-12
-5.10023e-12
-2.62101e-08
2.42599e-11
2.61848e-08
6.92162e-12
-3.47508e-12
-3.11746e-12
-2.63329e-08
1.53523e-11
2.63172e-08
3.54155e-11
3.83382e-12
8.77989e-09
5.59727e-12
-8.73659e-09
2.4406e-12
8.72589e-09
-4.18688e-11
-3.46264e-11
-2.57889e-08
-3.51824e-11
-3.59891e-11
2.59365e-08
6.52391e-11
-2.53313e-11
1.30677e-10
2.63348e-08
1.2124e-11
-5.33897e-12
-2.60137e-08
2.38753e-11
2.59886e-08
9.18997e-10
-3.51177e-11
-9.52127e-11
8.62469e-12
-3.41982e-10
-4.30572e-10
1.05937e-07
7.7296e-11
2.12216e-10
2.37233e-08
-5.93084e-12
-5.45417e-11
-6.46178e-12
2.6113e-08
2.61261e-12
2.43363e-12
8.72667e-09
-8.99624e-14
-1.06026e-11
8.89508e-11
-2.47131e-08
2.46867e-08
1.49599e-10
-8.10606e-11
-3.80465e-11
-2.75063e-11
2.75152e-11
5.56397e-11
-5.53033e-11
5.43517e-11
-5.33654e-11
1.04089e-07
1.74806e-11
-2.36121e-08
2.50447e-11
2.35958e-08
3.16695e-11
-7.53012e-11
9.14482e-11
-1.22619e-10
1.22769e-10
-9.06314e-11
1.05459e-07
5.18549e-11
-1.76838e-11
-4.83824e-12
-2.2707e-08
2.26776e-08
1.44236e-11
3.56683e-12
-1.70423e-08
1.74034e-12
1.7025e-08
8.89842e-11
-1.04529e-11
-2.47103e-08
2.46835e-08
-3.5713e-13
3.0134e-11
-1.88878e-13
3.45549e-11
-5.17839e-11
-3.41255e-11
5.3285e-11
-2.87865e-11
-2.69962e-11
2.30366e-11
1.05126e-07
-2.79681e-12
7.4163e-11
-1.2208e-10
1.22247e-10
-7.36608e-11
1.06402e-07
-1.19834e-11
1.73645e-11
-2.35964e-08
2.52236e-11
2.35802e-08
-4.0665e-15
-4.88649e-12
-1.76566e-11
2.26826e-08
3.77376e-12
1.73656e-12
1.70311e-08
-5.17704e-11
8.88948e-11
-1.04846e-11
-2.47114e-08
2.46846e-08
-9.88424e-14
-6.51516e-13
-2.91293e-11
-2.31572e-11
2.31834e-11
3.46168e-11
-5.44646e-11
5.35894e-11
-3.41145e-11
1.05121e-07
-1.62717e-12
7.42449e-11
-1.21968e-10
1.22295e-10
-7.35536e-11
1.06376e-07
-1.44263e-11
1.73004e-11
-2.36079e-08
2.52625e-11
2.3592e-08
-1.76489e-11
-4.80543e-12
2.26784e-08
-2.5403e-12
3.61238e-12
1.73236e-12
1.7026e-08
-2.57963e-08
-3.85593e-11
-3.45388e-11
2.59427e-08
-1.45638e-11
-2.60704e-08
1.88382e-11
2.60602e-08
-3.19223e-12
6.30067e-12
-2.64726e-08
2.163e-11
2.6441e-08
1.24009e-12
-8.9047e-09
2.40795e-12
8.89786e-09
-1.61543e-11
1.32107e-11
-4.40254e-12
-2.52386e-08
2.52457e-08
1.23407e-12
-6.33061e-13
-4.27485e-11
-1.37545e-11
1.34604e-11
-4.83012e-12
-2.23892e-11
2.2189e-11
5.85064e-12
1.05034e-07
1.63848e-12
-6.48674e-12
9.891e-12
-9.71057e-12
5.89797e-12
1.04573e-07
-6.02743e-12
9.63187e-12
-2.39677e-08
1.48651e-12
2.39695e-08
-3.14657e-14
-2.13743e-12
-5.13416e-12
-2.33342e-08
2.33256e-08
2.09377e-12
-1.7411e-08
1.77819e-12
1.74025e-08
-2.19523e-12
-4.89094e-12
-2.33384e-08
2.33293e-08
-1.1991e-12
2.08498e-12
-1.74144e-08
1.83151e-12
1.74056e-08
2.38108e-12
8.725e-09
-8.90528e-09
2.40301e-12
8.89821e-09
-3.11715e-11
1.61068e-10
2.52541e-08
5.35852e-12
7.24171e-09
-1.36558e-11
-1.09084e-12
1.28315e-08
1.81802e-12
-1.4885e-12
-2.19294e-08
-1.46086e-11
-7.39365e-12
4.34846e-11
2.1903e-08
-1.55335e-08
-1.36635e-12
3.02718e-14
1.1805e-12
1.55159e-08
4.63158e-12
1.66792e-11
3.84258e-14
-5.0815e-11
6.82953e-12
-4.23094e-11
3.34417e-14
-1.50036e-12
-2.2282e-12
1.17784e-12
1.28166e-08
-4.00422e-12
7.20093e-09
-3.14257e-12
-2.51003e-08
-4.2447e-12
2.80233e-11
2.50729e-08
-3.20929e-12
2.0388e-12
-1.35238e-11
-1.98452e-12
-2.7563e-11
2.7711e-12
7.19169e-09
-2.19744e-12
-5.45771e-12
-2.92361e-12
3.58387e-12
3.15942e-12
1.90751e-08
-1.42759e-11
-1.43322e-11
-7.29967e-09
3.71602e-12
3.20154e-12
2.22221e-12
7.29053e-09
-7.34429e-09
3.36713e-12
2.69417e-12
2.25078e-12
7.33597e-09
-2.98567e-12
-2.39963e-12
-2.6096e-12
-2.39545e-12
1.4485e-11
1.46849e-11
1.9053e-08
-2.10697e-11
1.23354e-11
2.25066e-08
-2.43136e-11
-1.64693e-08
1.24469e-11
1.2606e-12
1.64537e-08
-2.35387e-11
4.49265e-12
-1.18775e-11
-2.50737e-08
-2.0935e-11
4.34958e-11
3.15931e-11
2.50438e-08
-4.32401e-11
-3.18898e-11
-1.36165e-12
2.44613e-11
2.24882e-08
-1.75063e-11
9.29175e-12
2.15578e-08
-1.84179e-11
-1.63504e-08
9.39636e-12
1.2801e-12
1.63393e-08
-1.50976e-11
2.78422e-12
3.19821e-12
-6.55829e-12
-2.4444e-08
-1.7872e-11
2.8696e-11
2.34899e-11
2.44251e-08
-2.88976e-11
-2.30067e-11
-1.3411e-12
1.82768e-11
2.15458e-08
-5.62315e-12
-2.72143e-12
3.31283e-12
3.91737e-12
1.90767e-08
-1.34027e-11
-1.49042e-11
-7.34053e-09
3.19351e-12
2.25481e-12
2.59451e-12
7.33249e-09
-7.30366e-09
3.65193e-12
3.28139e-12
2.36694e-12
7.29436e-09
-2.69575e-12
-2.12299e-12
-3.04691e-12
-2.2094e-12
1.33824e-11
1.47524e-11
1.90554e-08
9.41331e-12
2.25944e-08
-2.1711e-11
-1.66189e-08
4.83035e-11
1.81522e-12
1.65457e-08
-4.96491e-11
1.49325e-10
1.46329e-10
2.51832e-08
-1.04863e-12
2.11041e-11
2.25853e-08
1.23644e-11
2.1475e-08
-2.17029e-11
-2.05172e-11
-1.62052e-08
1.21939e-11
1.32073e-12
1.61896e-08
4.67439e-12
-2.37678e-11
-1.1515e-11
-2.15642e-11
-2.42575e-08
3.97986e-11
3.22748e-11
2.42309e-08
-1.30993e-12
2.03508e-11
2.14601e-08
-3.99638e-11
-3.21472e-11
-6.35108e-11
7.2202e-11
2.16325e-12
7.29337e-09
2.80641e-10
1.90693e-08
-7.39751e-11
1.37513e-12
1.64204e-08
-1.65089e-10
5.50784e-11
2.45964e-08
2.22921e-08
-1.16596e-12
-1.37797e-11
1.28247e-08
1.95461e-12
-1.43236e-12
-1.55297e-08
-1.29695e-12
1.18835e-12
1.55121e-08
-2.192e-08
-1.44734e-11
-7.19946e-12
4.31902e-11
2.18937e-08
1.67066e-11
4.69474e-12
-5.08515e-11
-1.49131e-12
7.08894e-12
-4.25797e-11
-2.08733e-12
1.23775e-12
1.28097e-08
-3.89155e-12
7.19672e-09
-3.11737e-12
-2.5088e-08
-4.31279e-12
2.80148e-11
2.50606e-08
-3.44649e-12
-1.36534e-11
-1.99038e-12
-2.74721e-11
2.83243e-12
7.18749e-09
-1.43555e-11
-7.29271e-12
4.31307e-11
2.19041e-08
-1.37179e-12
2.95089e-14
1.20047e-12
1.55163e-08
-2.1844e-12
1.19663e-12
1.2817e-08
-4.01375e-12
2.77506e-11
2.50741e-08
2.79848e-12
7.19204e-09
-1.30357e-12
1.20478e-12
1.55127e-08
-1.44563e-11
-7.18506e-12
4.31552e-11
2.18946e-08
-2.09824e-12
1.2462e-12
1.28102e-08
-4.3241e-12
2.80471e-11
2.50623e-08
2.82909e-12
7.1877e-09
6.00512e-12
8.54834e-13
1.90817e-08
7.82251e-13
-3.07003e-11
-7.30299e-09
-2.19677e-11
2.84374e-11
2.19919e-12
7.29433e-09
-7.34083e-09
2.82262e-11
-2.34395e-11
2.46799e-12
7.33357e-09
-5.33304e-13
-2.37565e-12
-5.06556e-12
-2.2971e-12
1.31018e-10
-1.10294e-10
1.90672e-08
1.41678e-11
-1.85971e-11
2.15063e-08
-3.92653e-11
-1.6194e-08
-1.59483e-11
1.03103e-12
1.62228e-08
4.57142e-12
-2.33277e-11
-1.19294e-11
-2.46399e-08
-6.75356e-11
3.48611e-11
1.05535e-11
2.46808e-08
-1.42717e-12
-3.17366e-11
-4.48144e-11
-1.13569e-10
2.16674e-08
-2.03018e-11
8.04437e-12
2.25722e-08
-4.28496e-12
-1.66281e-08
3.85605e-11
1.43323e-12
1.6571e-08
-1.59505e-11
3.01387e-12
3.12659e-12
-6.48372e-12
-2.4885e-08
2.85059e-11
1.95965e-11
6.32807e-11
2.47953e-08
-2.29033e-11
-2.773e-11
-1.27806e-12
1.50817e-10
2.23782e-08
-9.66945e-13
-2.57558e-12
-4.31115e-12
-7.42206e-13
1.32115e-08
1.09277e-12
-1.24302e-12
-2.25061e-08
-4.32515e-12
-3.47474e-12
1.41276e-11
2.24976e-08
-1.60097e-08
-7.03452e-13
-1.36698e-14
1.35321e-12
1.6004e-08
2.22471e-12
5.2463e-12
-1.62318e-14
-1.61685e-11
3.55947e-12
-1.37858e-11
-7.32899e-15
-1.20447e-12
-1.06195e-12
1.31005e-12
1.32063e-08
3.0613e-13
7.41974e-09
-2.9993e-12
-2.57152e-08
2.3368e-13
1.021e-11
2.57033e-08
-2.14624e-12
-5.24531e-12
-1.97061e-12
-1.00025e-11
3.03361e-12
7.41588e-09
-4.34077e-12
-7.39629e-13
1.32183e-08
1.129e-12
-1.22529e-12
-2.25153e-08
-4.27424e-12
-3.47827e-12
1.43218e-11
2.25065e-08
-1.60133e-08
-7.30954e-13
1.35824e-12
1.60078e-08
2.22209e-12
5.01867e-12
-1.64482e-11
3.58716e-12
-1.41099e-11
-1.2023e-12
-1.09275e-12
1.32424e-12
1.32131e-08
7.63935e-14
7.42402e-09
-2.97044e-12
-2.57258e-08
9.8374e-14
1.01176e-11
2.57142e-08
-2.19822e-12
1.05895e-12
-5.54394e-12
-1.92984e-12
-1.00422e-11
3.08797e-12
7.41994e-09
-2.61936e-12
-1.52991e-10
3.74659e-10
1.06539e-07
2.53931e-10
-3.6346e-10
1.12644e-07
-3.05678e-10
3.28223e-11
1.08148e-07
-3.10185e-10
-1.1078e-14
1.16001e-07
3.45296e-10
-6.81384e-12
1.06409e-07
-4.03845e-12
1.12657e-07
1.09762e-11
7.08462e-12
1.07464e-07
-7.99683e-13
1.15404e-07
-6.57185e-12
5.90619e-13
1.06181e-07
2.97346e-12
1.10821e-07
2.04557e-11
-3.5036e-10
1.05901e-07
-3.1788e-10
1.16219e-07
-1.55826e-11
6.50642e-12
1.06201e-07
8.17388e-12
1.10788e-07
-1.82988e-11
1.05193e-07
1.15492e-07
6.83703e-11
-1.7424e-11
2.50574e-08
-2.42836e-08
6.93296e-11
-1.50372e-11
2.42619e-08
-2.5706e-08
-1.7396e-11
-6.81028e-12
2.56968e-08
1.05618e-11
-8.83757e-11
2.16155e-14
6.65897e-12
2.4919e-11
2.49924e-08
4.4738e-11
2.45752e-08
3.87061e-11
2.50768e-08
2.55265e-08
-5.61255e-12
8.56663e-12
2.53569e-08
-5.15979e-11
-2.61026e-08
-5.52844e-12
-4.7686e-13
2.61317e-08
-2.47317e-08
8.65049e-12
-6.02582e-12
2.47388e-08
-1.41656e-11
5.00865e-12
-3.85258e-14
5.54359e-14
6.11219e-12
5.19716e-11
2.53137e-08
2.19528e-11
4.21999e-12
2.57826e-08
-2.50238e-08
2.74288e-12
2.50348e-08
-1.50234e-12
-1.00454e-11
-2.53805e-08
2.20061e-11
2.5355e-08
2.58649e-08
-1.75542e-11
-2.01595e-11
2.39869e-08
4.59073e-11
2.95904e-11
-2.55697e-08
-1.67005e-11
2.55619e-08
-2.45306e-08
-1.95173e-11
2.45371e-08
2.39934e-08
2.39768e-08
-1.50411e-11
-2.26891e-11
3.72811e-11
3.72944e-11
-1.50394e-11
-2.56537e-08
2.56877e-08
-2.17775e-11
-2.44449e-08
2.4443e-08
2.39814e-08
3.09974e-10
2.47122e-08
1.63154e-10
2.52402e-08
2.56472e-08
6.86702e-11
-1.71887e-11
2.50566e-08
-2.50487e-11
-2.4282e-08
6.94515e-11
-1.51414e-11
2.42606e-08
-2.57053e-08
-1.75765e-11
-6.61785e-12
2.56959e-08
1.04324e-11
-8.86687e-11
9.74809e-14
1.47633e-11
6.83615e-12
2.12452e-11
2.49966e-08
4.52506e-11
3.6864e-11
2.5471e-08
-2.45867e-08
4.45001e-11
2.45726e-08
-1.76413e-11
-2.43493e-11
-2.50645e-08
3.69323e-11
2.50296e-08
2.55203e-08
-2.06454e-11
6.85458e-11
2.50576e-08
2.84054e-11
-2.57038e-08
-2.02058e-11
2.56843e-08
-2.42745e-08
6.8319e-11
-1.78181e-11
2.42567e-08
-8.87101e-11
1.06214e-11
1.81245e-11
-2.80555e-11
2.50601e-08
4.44298e-11
2.54465e-08
3.98421e-11
-2.45764e-08
4.39671e-11
2.456e-08
-1.77629e-11
-2.43664e-11
3.98355e-11
-2.50707e-08
2.50391e-08
2.54681e-08
-2.05793e-11
6.8296e-11
2.50583e-08
2.83966e-11
-2.57043e-08
-2.02421e-11
2.56847e-08
-2.42756e-08
6.79721e-11
-1.78144e-11
2.42581e-08
-8.87306e-11
1.05693e-11
1.8131e-11
-2.78882e-11
2.50603e-08
3.98974e-11
4.41121e-11
2.54501e-08
-2.45786e-08
4.37084e-11
2.45624e-08
-2.44449e-11
-1.77474e-11
-2.51233e-08
3.94699e-11
2.50862e-08
2.54713e-08
-2.16954e-11
-1.58216e-11
2.39687e-08
3.03977e-11
4.50359e-11
-2.55088e-08
-6.44411e-11
2.55183e-08
-2.45676e-08
2.41447e-11
2.45638e-08
2.39656e-08
-5.48263e-12
8.62278e-12
2.53614e-08
-5.19164e-11
-2.61057e-08
-5.44041e-12
2.61338e-08
-2.47377e-08
8.58126e-12
-6.11356e-12
2.47452e-08
-1.41669e-11
4.96524e-12
6.03642e-12
5.19705e-11
2.53184e-08
2.16313e-11
4.25259e-12
2.57851e-08
-2.50296e-08
2.57681e-12
2.50406e-08
-1.32574e-12
-9.99771e-12
-2.53307e-08
2.22108e-11
2.53111e-08
2.58677e-08
1.33055e-12
-1.37094e-14
8.76711e-14
3.17289e-09
5.23681e-13
-1.12106e-14
4.03618e-14
1.7508e-09
1.74748e-13
-4.66567e-15
1.30224e-14
8.72312e-10
3.49873e-14
-2.18504e-15
7.05719e-16
3.63351e-10
-1.35546e-15
-2.68482e-15
8.65669e-11
8.2433e-13
-1.22508e-13
-3.17362e-09
2.23133e-13
3.17444e-09
3.65323e-13
-5.37489e-14
-1.75179e-09
1.1918e-13
1.75218e-09
1.38141e-13
-2.27362e-14
-8.7288e-10
5.79922e-14
8.73072e-10
3.29573e-14
-8.00024e-15
-3.63547e-10
2.40247e-14
3.63636e-10
-1.43978e-15
-8.65939e-11
5.84539e-15
8.66223e-11
1.13568e-12
4.65987e-14
-5.93701e-09
-3.834e-14
5.93819e-09
4.9443e-13
5.60778e-15
-3.25831e-09
-1.64236e-14
3.25896e-09
1.84926e-13
-5.07356e-15
-1.61672e-09
-4.11301e-15
1.61704e-09
4.35654e-14
-4.86571e-15
-6.71321e-10
-3.52024e-17
6.71467e-10
-1.92694e-15
-1.59599e-10
6.05087e-17
1.59644e-10
1.63205e-12
3.6305e-14
5.93711e-09
6.67337e-13
2.16598e-15
3.25799e-09
2.38202e-13
-5.14924e-15
1.61639e-09
5.44772e-14
-4.48379e-15
6.71168e-10
-1.33269e-15
1.59627e-10
1.19923e-12
-5.93787e-09
-8.16271e-14
5.93907e-09
5.23312e-13
-3.25874e-09
-4.22653e-14
3.2594e-09
1.95217e-13
-1.61691e-09
-1.92817e-14
1.61724e-09
4.5823e-14
-6.71333e-10
-7.23714e-15
6.71482e-10
-1.59591e-10
-1.59292e-15
1.59638e-10
1.18761e-12
1.11732e-13
-7.37428e-14
5.93892e-09
5.17947e-13
4.47353e-14
-4.15185e-14
3.25944e-09
1.93378e-13
1.58243e-14
-1.62978e-14
1.61729e-09
4.53224e-14
4.14526e-15
-4.28985e-15
6.71536e-10
3.10119e-16
-3.99853e-16
1.59688e-10
8.25184e-13
-3.17284e-09
1.52242e-13
3.17365e-09
3.66858e-13
-1.75147e-09
7.17127e-14
1.75186e-09
1.39136e-13
-8.72678e-10
3.13961e-14
8.7287e-10
3.3204e-14
-3.63498e-10
1.21465e-14
3.63587e-10
-8.65668e-11
2.88757e-15
8.65952e-11
8.29875e-13
2.15808e-13
3.17431e-09
3.69885e-13
1.13819e-13
1.75221e-09
1.40021e-13
5.36845e-14
8.73104e-10
3.31845e-14
2.13986e-14
3.63684e-10
4.97058e-15
8.66371e-11
8.27504e-13
-6.10597e-14
1.5981e-13
3.17387e-09
3.69426e-13
-1.38093e-14
7.62105e-14
1.75185e-09
1.40802e-13
-6.08892e-16
3.31489e-14
8.7288e-10
3.35953e-14
2.72634e-15
1.248e-14
3.63599e-10
1.38099e-15
2.82227e-15
8.66278e-11
1.15969e-12
7.80263e-15
4.5811e-14
-5.93412e-09
5.93532e-09
5.02844e-13
-2.71222e-14
4.04123e-14
-3.25665e-09
3.2573e-09
1.88493e-13
-2.36847e-14
2.21916e-14
-1.61596e-09
1.61627e-09
4.50623e-14
-1.32135e-14
9.45292e-15
-6.70972e-10
6.7112e-10
-4.02328e-15
2.29986e-15
-1.59538e-10
1.59585e-10
8.33811e-13
-3.16972e-09
9.70406e-14
3.17057e-09
3.71403e-13
-1.74966e-09
2.92282e-14
1.75006e-09
1.41897e-13
-8.71792e-10
6.45757e-15
8.71991e-10
3.42609e-14
-3.63109e-10
5.30134e-16
3.63203e-10
-8.64901e-11
-2.85365e-16
8.65206e-11
8.65971e-13
1.78957e-14
-3.1704e-09
8.84227e-14
3.17126e-09
3.87112e-13
4.60153e-14
-1.75001e-09
2.37311e-14
1.75042e-09
1.47842e-13
3.45055e-14
-8.71972e-10
3.57346e-15
8.72173e-10
3.55496e-14
1.81295e-14
-3.63209e-10
-5.60278e-16
3.63304e-10
5.33053e-15
-8.65047e-11
-4.3888e-16
8.65355e-11
1.18234e-12
-2.29291e-14
5.93839e-09
5.2111e-13
-3.47918e-15
3.25899e-09
1.95001e-13
1.64007e-15
1.61706e-09
4.58137e-14
1.6408e-15
6.71473e-10
5.8087e-16
1.59646e-10
1.15936e-12
5.88686e-14
-5.93451e-09
5.93571e-09
5.05289e-13
4.91351e-14
-3.25706e-09
3.25771e-09
1.90086e-13
3.05698e-14
-1.61602e-09
1.61633e-09
4.54095e-14
1.45921e-14
-6.71018e-10
6.71166e-10
3.79865e-15
-1.59509e-10
1.59556e-10
-7.76337e-13
-9.42378e-14
3.69759e-09
1.70917e-13
-3.61673e-13
-5.0574e-14
2.03705e-09
8.5524e-14
-1.41401e-13
-2.65897e-14
1.01343e-09
4.3872e-14
-3.43959e-14
-1.21391e-14
4.21558e-10
1.98485e-14
-3.23448e-15
1.00335e-10
5.2952e-15
5.55651e-13
-4.0312e-09
-1.57693e-13
1.20736e-14
4.03197e-09
2.39786e-13
-2.21707e-09
-8.96743e-14
8.22721e-15
2.21747e-09
9.03129e-14
-1.10177e-09
-4.73833e-14
4.7133e-15
1.10197e-09
2.20835e-14
-4.57967e-10
-2.10784e-14
2.17526e-15
4.58054e-10
-1.08972e-10
-5.38252e-15
5.74754e-16
1.08999e-10
-7.61414e-13
1.23211e-14
-3.51457e-13
8.26039e-15
-1.37011e-13
4.7198e-15
-3.34351e-14
2.16777e-15
5.60189e-16
5.81049e-13
-2.88793e-13
3.69832e-09
2.55846e-13
-1.58537e-13
2.03744e-09
9.67352e-14
-8.24999e-14
1.01363e-09
2.33777e-14
-3.65963e-14
4.21647e-10
-9.45736e-15
1.00362e-10
-9.86617e-13
-3.04257e-14
-8.54292e-14
-4.56211e-13
-4.49917e-14
-2.74087e-14
-1.77082e-13
-3.16812e-14
-7.87702e-15
-4.25763e-14
-1.62734e-14
-2.00778e-15
-4.69745e-15
-3.94465e-16
-1.50647e-12
-2.89179e-14
-6.10164e-14
-6.87083e-13
5.42688e-15
-5.05968e-14
-2.63578e-13
1.01221e-14
-3.16812e-14
-6.24632e-14
6.59348e-15
-1.55114e-14
2.25155e-15
-4.20077e-15
5.91959e-13
-3.15513e-09
-5.03959e-14
3.15583e-09
2.60057e-13
-1.74126e-09
-1.6141e-14
1.7416e-09
9.82878e-14
-8.67517e-10
-4.99231e-15
8.67685e-10
2.36836e-14
-3.61239e-10
-1.26556e-15
3.61316e-10
-8.60324e-11
-9.62632e-17
8.60564e-11
-6.73855e-13
-6.19916e-15
-3.11022e-13
-1.64724e-14
-1.21359e-13
-1.12621e-14
-2.96235e-14
-5.20288e-15
-1.25206e-15
5.96006e-13
-3.15345e-09
3.00318e-14
3.15416e-09
2.62656e-13
-1.74035e-09
3.52476e-14
1.74069e-09
9.96542e-14
-8.67039e-10
2.32007e-14
8.6721e-10
2.41497e-14
-3.61049e-10
1.12046e-14
3.61128e-10
-8.59876e-11
3.05168e-15
8.60128e-11
-6.51077e-13
5.5507e-14
-1.52885e-14
-2.99341e-13
3.81997e-14
-1.85787e-14
-1.17164e-13
2.17006e-14
-1.13978e-14
-2.8919e-14
9.96954e-15
-5.23903e-15
2.52682e-15
-1.43816e-15
-1.39201e-12
-6.88031e-14
-6.33517e-13
-5.17871e-14
-2.44151e-13
-3.18858e-14
-5.8594e-14
-1.54592e-14
-4.17999e-15
9.17695e-13
9.63828e-14
5.72452e-09
3.69267e-13
5.10492e-14
3.14402e-09
1.31279e-13
2.41381e-14
1.5609e-09
3.02403e-14
8.70485e-15
6.48298e-10
1.52959e-15
1.54188e-10
6.52542e-13
3.15639e-09
2.78677e-13
1.74177e-09
1.01783e-13
8.67728e-10
2.36774e-14
3.61354e-10
8.60735e-11
-7.46899e-13
-1.21824e-13
3.69599e-09
2.22881e-13
-3.48202e-13
-6.93104e-14
2.03616e-09
1.18716e-13
-1.36554e-13
-3.73531e-14
1.01294e-09
6.23006e-14
-3.33201e-14
-1.70367e-14
4.21386e-10
2.81608e-14
-4.47806e-15
1.00294e-10
7.41434e-15
5.60468e-13
-4.03025e-09
-1.31008e-13
4.03102e-09
2.42119e-13
-2.21656e-09
-7.14388e-14
2.21696e-09
9.10659e-14
-1.10152e-09
-3.81543e-14
1.10172e-09
2.22381e-14
-4.57863e-10
-1.69145e-14
4.57951e-10
-1.08947e-10
-4.25555e-15
1.08974e-10
-7.56303e-13
-3.49044e-13
-1.36066e-13
-3.32277e-14
6.13322e-13
-2.37005e-13
3.69672e-09
2.70803e-13
-1.25055e-13
2.03656e-09
1.01388e-13
-6.40025e-14
1.01314e-09
2.45198e-14
-2.83182e-14
4.21474e-10
-7.34411e-15
1.00321e-10
-9.92049e-13
-1.45211e-13
-4.59535e-13
-6.78705e-14
-1.78213e-13
-3.08863e-14
-4.27135e-14
-1.25062e-14
-3.0886e-15
5.75999e-13
-1.60289e-13
1.47917e-14
4.03219e-09
2.53315e-13
-9.10746e-14
1.06276e-14
2.21758e-09
9.62063e-14
-4.79242e-14
6.39086e-15
1.10186e-09
2.33489e-14
-2.12189e-14
3.08432e-15
4.58129e-10
-5.36572e-15
8.60816e-16
1.0898e-10
5.99906e-13
-2.90694e-13
3.69837e-09
2.68526e-13
-1.58994e-13
2.03739e-09
1.02291e-13
-8.21001e-14
1.01355e-09
2.4575e-14
-3.61907e-14
4.21663e-10
-9.33785e-15
1.00343e-10
5.787e-13
-1.30532e-13
4.03101e-09
2.54625e-13
-6.97492e-14
2.21703e-09
9.66283e-14
-3.5288e-14
1.10164e-09
2.33952e-14
-1.53625e-14
4.57973e-10
-3.92017e-15
1.08954e-10
6.25636e-13
-2.39637e-13
3.69659e-09
2.80025e-13
-1.25245e-13
2.03649e-09
1.06435e-13
-6.30431e-14
1.0131e-09
2.55192e-14
-2.74628e-14
4.21449e-10
-7.04092e-15
1.00303e-10
1.27039e-12
-2.8185e-14
9.81861e-14
-5.72266e-09
5.72378e-09
5.70365e-13
-2.69525e-14
5.84738e-14
-3.14319e-09
3.14386e-09
2.15192e-13
-1.47835e-14
3.06037e-14
-1.56037e-09
1.56071e-09
5.03384e-14
-5.43968e-15
1.32747e-14
-6.48071e-10
6.48228e-10
-8.72894e-16
3.48124e-15
-1.54131e-10
1.54179e-10
6.20988e-13
-3.15355e-09
3.15438e-09
2.66178e-13
-1.7403e-09
1.74067e-09
9.94773e-14
-8.67027e-10
8.67201e-10
2.37351e-14
-3.61051e-10
3.6113e-10
-8.60154e-11
8.60405e-11
-6.28934e-13
8.15022e-14
2.03318e-15
-2.89552e-13
5.66979e-14
-1.24322e-14
-1.13567e-13
3.40264e-14
-1.05485e-14
-2.81868e-14
1.64111e-14
-5.89977e-15
4.44035e-15
-1.81089e-15
-1.27953e-12
5.36991e-15
-5.76727e-13
3.42528e-14
-2.22753e-13
2.63204e-14
-5.40841e-14
1.40801e-14
4.27991e-15
-5.92435e-13
-1.343e-13
3.69041e-09
2.29411e-13
-2.68699e-13
-7.79626e-14
2.03318e-09
1.24242e-13
-1.06395e-13
-4.35334e-14
1.01148e-09
6.77092e-14
-2.70533e-14
-2.04199e-14
4.20779e-10
3.16825e-14
-5.46432e-15
1.00139e-10
8.60133e-15
6.02599e-13
-4.02343e-09
-1.03714e-13
-5.95864e-15
4.02429e-09
2.62821e-13
-2.21291e-09
-5.15221e-14
-4.84119e-15
2.21331e-09
1.01447e-13
-1.09974e-09
-2.62029e-14
-3.184e-15
1.09993e-09
2.55234e-14
-4.57121e-10
-1.18267e-14
-1.59471e-15
4.57211e-10
-1.08759e-10
-3.11086e-15
-4.3401e-16
1.08788e-10
-5.36739e-13
-3.73768e-15
-2.37044e-13
-3.18049e-15
-9.39938e-14
-2.18378e-15
-2.45195e-14
-1.13186e-15
-3.17522e-16
6.14284e-13
-2.0572e-13
3.6912e-09
2.72498e-13
-1.00389e-13
2.03357e-09
1.05088e-13
-5.0268e-14
1.01167e-09
2.60184e-14
-2.26124e-14
4.20869e-10
-6.12384e-15
1.00168e-10
-9.62262e-13
-1.30763e-13
-4.4374e-13
-5.52991e-14
-1.7306e-13
-2.40996e-14
-4.19992e-14
-9.75106e-15
-2.45701e-15
-5.81238e-13
-1.27644e-13
3.69225e-09
2.27887e-13
-2.63101e-13
-7.24741e-14
2.03412e-09
1.22594e-13
-1.0427e-13
-3.97104e-14
1.01196e-09
6.6217e-14
-2.65937e-14
-1.8405e-14
4.21005e-10
3.07609e-14
-4.89152e-15
1.00183e-10
8.30404e-15
6.05135e-13
-4.02455e-09
-1.14598e-13
4.02541e-09
2.63967e-13
-2.21343e-09
-6.05204e-14
2.21382e-09
1.01823e-13
-1.09994e-09
-3.21499e-14
1.10013e-09
2.55776e-14
-4.57272e-10
-1.48359e-14
4.57362e-10
-1.08784e-10
-3.94833e-15
1.08813e-10
-5.35057e-13
-2.36204e-13
-9.36957e-14
-2.44411e-14
6.21932e-13
-2.12068e-13
3.69305e-09
2.76152e-13
-1.06043e-13
2.03451e-09
1.06461e-13
-5.43657e-14
1.01215e-09
2.63117e-14
-2.48074e-14
4.21095e-10
-6.74352e-15
1.00212e-10
-9.3651e-13
1.75306e-14
-1.38379e-13
-4.31137e-13
-1.43915e-14
-6.25121e-14
-1.68247e-13
-1.47503e-14
-2.83762e-14
-4.09864e-14
-8.66755e-15
-1.17064e-14
-2.88635e-15
-2.96821e-15
-1.30455e-12
-5.86818e-13
-2.25783e-13
-5.43343e-14
1.07504e-12
-3.9422e-14
-5.72265e-09
5.72379e-09
4.64056e-13
-2.54489e-14
-3.14347e-09
3.14409e-09
1.72285e-13
-1.38497e-14
-1.56045e-09
1.56075e-09
4.04205e-14
-6.04577e-15
-6.4816e-10
6.48298e-10
-1.47709e-15
-1.5412e-10
1.54162e-10
1.0844e-12
-5.72197e-09
5.72313e-09
4.69032e-13
-3.14303e-09
3.14365e-09
1.74777e-13
-1.56036e-09
1.56067e-09
4.11793e-14
-6.48092e-10
6.4823e-10
-1.54101e-10
1.54143e-10
2.63819e-12
5.9266e-09
1.17983e-12
3.25219e-09
4.37684e-13
1.61336e-09
9.91129e-14
6.69851e-10
1.59263e-10
-1.63916e-12
5.92167e-09
-7.55195e-13
3.2501e-09
-2.92425e-13
1.61253e-09
-6.98566e-14
6.69474e-10
1.59164e-10
1.39241e-12
5.92299e-09
6.19736e-13
3.25084e-09
2.3456e-13
1.61289e-09
5.54595e-14
6.6964e-10
1.59216e-10
1.01474e-12
8.45289e-14
-5.72237e-09
5.72356e-09
4.29564e-13
3.68916e-14
-3.14306e-09
3.14366e-09
1.58488e-13
1.55527e-14
-1.5603e-09
1.56059e-09
3.72077e-14
5.08424e-15
-6.48065e-10
6.48194e-10
6.74778e-16
-1.5411e-10
1.5415e-10
5.25492e-13
-3.15509e-09
3.15564e-09
2.37035e-13
-1.74114e-09
1.74145e-09
9.13522e-14
-8.6744e-10
8.67597e-10
2.26866e-14
-3.61231e-10
3.61304e-10
-8.60389e-11
8.60624e-11
-6.91618e-13
-4.79069e-14
-3.17938e-13
-4.45402e-14
-1.2379e-13
-2.86367e-14
-3.01186e-14
-1.37726e-14
-3.66708e-15
-1.2332e-12
1.61974e-15
-5.60675e-13
-1.27582e-15
-2.1666e-13
-1.41403e-15
-5.24045e-14
-8.63901e-16
-3.14063e-16
-1.21538e-12
-5.50319e-13
-2.12188e-13
-5.0948e-14
1.13557e-12
2.69698e-15
4.7185e-14
-5.72249e-09
5.7239e-09
4.7067e-13
2.26102e-15
1.74201e-14
-3.14317e-09
3.14381e-09
1.72292e-13
5.61916e-15
2.99327e-15
-1.56038e-09
1.56067e-09
4.0761e-14
5.06005e-15
-1.35772e-15
-6.48157e-10
6.48283e-10
2.02103e-15
-9.25672e-16
-1.54094e-10
1.54133e-10
7.57335e-13
-3.15402e-09
3.15512e-09
3.13414e-13
-1.74052e-09
1.74097e-09
1.12819e-13
-8.67105e-10
8.67307e-10
2.58861e-14
-3.61092e-10
3.61181e-10
-8.60114e-11
8.60382e-11
-5.199e-13
-3.55506e-14
-2.40288e-13
-4.1311e-14
-9.65181e-14
-2.5429e-14
-2.51409e-14
-1.20213e-14
-3.45171e-15
1.17147e-12
1.04679e-13
-5.72286e-09
5.724e-09
5.15145e-13
4.74457e-14
-3.14317e-09
3.1438e-09
1.93124e-13
2.01319e-14
-1.56044e-09
1.56074e-09
4.53512e-14
7.16358e-15
-6.48184e-10
6.48324e-10
1.42663e-15
-1.54111e-10
1.54154e-10
6.27092e-13
-3.15527e-09
3.15599e-09
2.77271e-13
-1.74117e-09
1.74153e-09
1.04777e-13
-8.67466e-10
8.67639e-10
2.50905e-14
-3.61251e-10
3.6133e-10
-8.6031e-11
8.60557e-11
-6.4559e-13
-5.25933e-16
-2.9905e-13
-1.41131e-14
-1.17526e-13
-1.18071e-14
-2.89611e-14
-6.17159e-15
-1.65678e-15
-1.05975e-12
-1.91859e-14
-4.76818e-13
-1.27312e-14
-1.85026e-13
-7.01353e-15
-4.50523e-14
-3.12323e-15
-6.88247e-16
-1.12354e-12
-5.08829e-13
-1.98107e-13
-4.88281e-14
-1.62348e-12
5.91856e-09
-7.47678e-13
3.24853e-09
-2.89718e-13
1.61165e-09
-6.92548e-14
6.69184e-10
1.59064e-10
1.42731e-12
5.91988e-09
6.36472e-13
3.24927e-09
2.40715e-13
1.61202e-09
5.66249e-14
6.69352e-10
1.59116e-10
1.42019e-12
5.92293e-09
6.38864e-13
3.25084e-09
2.4317e-13
1.61292e-09
5.745e-14
6.69701e-10
1.59216e-10
1.4397e-12
5.92012e-09
6.48129e-13
3.24924e-09
2.46451e-13
1.61204e-09
5.80413e-14
6.69327e-10
1.59148e-10
-1.18913e-12
-6.96087e-14
-5.31185e-13
-4.54216e-14
-2.0302e-13
-2.45464e-14
-4.87123e-14
-1.07032e-14
-2.68262e-15
-1.16465e-12
-5.25675e-13
-2.03247e-13
-4.95223e-14
-1.50653e-12
5.922e-09
-6.89979e-13
3.24999e-09
-2.69947e-13
1.6123e-09
-6.59575e-14
6.69417e-10
1.59148e-10
1.50344e-12
5.92343e-09
6.76391e-13
3.25075e-09
2.60127e-13
1.61267e-09
6.27388e-14
6.69593e-10
1.59204e-10
-1.4847e-12
5.92507e-09
-6.78615e-13
3.25169e-09
-2.65541e-13
1.61326e-09
-6.4957e-14
6.69809e-10
1.59227e-10
1.53261e-12
5.9265e-09
6.90666e-13
3.25245e-09
2.65421e-13
1.61363e-09
6.37238e-14
6.69985e-10
1.59284e-10
2.84048e-11
1.11918e-11
8.74117e-09
-8.69951e-13
-6.07271e-12
-2.11419e-12
8.73676e-09
-2.68222e-12
3.36041e-11
-1.41965e-10
3.68696e-11
1.77281e-10
2.58308e-08
-2.1607e-11
1.06696e-10
5.07841e-11
2.62274e-08
-1.13229e-11
5.00338e-12
-2.3954e-11
2.60128e-08
-5.0421e-11
6.81216e-14
4.67904e-12
1.71667e-11
2.27099e-08
-1.34845e-11
-3.37533e-12
1.70469e-08
-2.05963e-12
2.6484e-13
1.05855e-11
-8.83813e-11
2.47138e-08
-2.6774e-10
-1.45008e-09
2.8074e-11
4.557e-10
5.41883e-11
2.97423e-10
5.46687e-11
1.046e-07
1.44809e-10
2.06034e-10
-1.76305e-11
-2.43354e-11
2.36129e-08
1.83911e-10
-3.47062e-09
5.68641e-10
1.22121e-10
9.03224e-11
6.55785e-10
1.07041e-07
-5.04473e-11
1.71821e-11
4.77339e-12
2.27062e-08
-1.36596e-11
2.26019e-12
-3.60413e-12
1.70421e-08
-2.04833e-12
-8.84076e-11
1.07201e-11
2.47111e-08
-7.10556e-10
-3.18536e-11
-1.6833e-09
4.59968e-10
6.60705e-11
3.51554e-11
2.86172e-10
4.00184e-10
-3.33428e-12
2.41148e-10
1.06066e-07
-3.34102e-09
5.75551e-10
1.21659e-10
7.36905e-11
6.56216e-10
1.07789e-07
7.78279e-12
-1.79666e-11
-2.70688e-11
2.36038e-08
-2.91152e-11
-1.68501e-09
4.60957e-10
5.34442e-11
3.43352e-11
2.99311e-10
3.95964e-10
2.28757e-11
2.18916e-10
1.06055e-07
-7.05324e-10
1.36391e-11
1.17103e-11
-1.77637e-11
-2.43877e-11
2.36088e-08
2.25516e-12
-3.61276e-12
1.7043e-08
-2.05741e-12
-5.93309e-12
8.73545e-09
-2.76308e-12
3.86288e-11
2.58004e-08
7.82234e-11
-6.47014e-12
-4.44635e-11
-5.42684e-11
2.61608e-08
3.15572e-12
-1.00016e-11
5.44797e-11
1.59361e-11
2.63774e-08
-1.10532e-12
8.90493e-09
-2.80569e-12
8.13956e-14
-1.5324e-11
4.05614e-11
4.91169e-13
2.5217e-08
-4.61724e-10
-1.08763e-09
3.98477e-10
3.89514e-11
1.6204e-10
2.90128e-10
6.33705e-12
-5.1366e-12
2.3328e-10
1.05461e-07
-1.75916e-10
-6.69325e-10
1.95104e-10
-9.34428e-11
-4.38168e-11
9.47591e-11
1.04862e-07
4.93876e-12
-9.91701e-12
1.33324e-12
2.3969e-08
-1.50336e-11
4.05613e-11
2.71859e-13
2.522e-08
-4.28587e-10
-4.22175e-11
-1.07471e-09
2.84637e-10
2.21746e-11
-4.83978e-12
2.19926e-10
4.02211e-10
1.38677e-11
1.84446e-10
1.05457e-07
-6.61886e-10
1.90461e-10
-9.36007e-11
-4.41793e-11
9.49533e-11
1.04483e-07
5.38416e-12
6.26231e-12
-9.89203e-12
-1.53243e-12
2.39693e-08
-1.16056e-14
-3.10016e-13
-6.05487e-12
2.33167e-08
-2.43883e-12
1.74108e-08
-2.00232e-12
-3.39642e-13
-6.27755e-12
2.33209e-08
1.14609e-12
-2.38533e-12
1.74142e-08
-1.93123e-12
2.58009e-08
4.59448e-11
2.96477e-11
6.14853e-12
4.77074e-12
-2.39617e-11
2.62095e-08
3.41038e-12
2.93336e-12
-1.53958e-11
2.63326e-08
8.73614e-09
-2.73605e-12
8.9054e-09
-2.63407e-12
1.8324e-11
1.38938e-11
7.3017e-09
-1.42667e-12
-4.11731e-12
-3.31791e-12
7.30396e-09
-2.16122e-12
9.0189e-12
-1.51502e-11
1.90758e-08
6.01451e-11
1.64785e-08
-6.6483e-13
-8.60854e-11
1.88973e-10
2.50726e-08
1.14469e-10
6.27175e-11
2.25057e-08
-1.23147e-11
1.6205e-08
-1.43387e-12
2.12888e-11
-3.95114e-11
-3.25061e-11
2.42577e-08
-2.1068e-11
2.1475e-08
-1.28316e-08
-5.95948e-11
-2.66142e-12
5.5751e-12
1.28873e-08
9.02868e-13
1.41475e-11
2.19286e-08
6.86313e-12
-4.19645e-11
1.18421e-12
1.55334e-08
4.16048e-14
-1.56471e-12
1.37036e-11
7.03385e-11
2.24696e-14
-2.00381e-10
2.28262e-08
1.92361e-12
-1.57245e-12
2.15458e-11
-1.76693e-10
2.20379e-08
3.56942e-14
1.56002e-08
9.01022e-13
-7.20108e-09
-2.85439e-11
7.23335e-09
1.85108e-12
4.3881e-12
2.50993e-08
-2.72897e-11
-8.53401e-12
-7.89371e-11
1.18089e-11
1.71212e-08
1.45956e-12
-3.07937e-12
-1.31137e-10
2.52149e-08
-1.28247e-08
-2.74144e-12
-5.99415e-11
5.72018e-12
1.28807e-08
9.53088e-13
1.26741e-12
1.55297e-08
-1.56024e-12
1.42775e-11
2.19193e-08
7.06439e-12
-4.21968e-11
7.05632e-11
1.38228e-11
-2.00417e-10
2.28223e-08
2.06679e-12
-1.51905e-12
1.55966e-08
9.07446e-13
2.17441e-11
-1.76939e-10
2.20284e-08
-7.19688e-09
-2.84889e-11
7.22916e-09
1.9324e-12
4.29226e-12
2.50871e-08
-2.72532e-11
-8.74113e-12
1.20179e-11
-7.89989e-11
1.71163e-08
1.47815e-12
-3.03595e-12
-1.31481e-10
2.52031e-08
-7.19709e-09
-2.84189e-11
-5.74735e-12
7.22936e-09
1.89547e-12