/*--------------------------------*- C++ -*----------------------------------*\
| =========                 |                                                 |
| \\      /  F ield         | OpenFOAM: The Open Source CFD Toolbox           |
|  \\    /   O peration     | Version:  2206                                  |
|   \\  /    A nd           | Website:  www.openfoam.com                      |
|    \\/     M anipulation  |                                                 |
\*---------------------------------------------------------------------------*/
FoamFile
{
    version     2.0;
    format      ascii;
    arch        "LSB;label=32;scalar=64";
    class       volVectorField;
    location    "0.2";
    object      U;
}
// * * * * * * * * * * * * * * * * * * * * * * * * * * * * * * * * * * * * * //

dimensions      [0 1 -1 0 0 0 0];

internalField   nonuniform List<vector> 
66621
(
(-1.09873e-05 -2.48769e-05 0.0918512)
(-3.4878e-05 2.41439e-07 0.111525)
(-2.1113e-05 -2.69912e-06 0.0916316)
(6.37272e-05 8.68465e-08 0.119156)
(5.3313e-05 -1.61897e-05 0.112648)
(3.42178e-06 -1.76686e-06 0.122587)
(-8.39072e-06 5.50174e-06 0.0803117)
(-1.1066e-06 6.55505e-05 0.119379)
(4.00677e-06 2.40187e-07 0.122298)
(-1.57667e-06 -2.06115e-06 0.122629)
(-1.85803e-05 5.04888e-05 0.112958)
(0.000222282 0.000224883 0.121711)
(1.6445e-05 1.5125e-05 0.103643)
(1.73117e-05 1.55372e-05 0.103885)
(-9.76321e-06 -1.21683e-05 0.0804119)
(-9.34283e-06 -4.82807e-06 0.0803147)
(-0.000226178 -0.000225738 0.1217)
(-1.78883e-05 -1.56902e-05 0.103804)
(-1.72482e-05 -1.46877e-05 0.103612)
(-4.02415e-06 1.98979e-06 0.122309)
(-1.69416e-05 -5.09055e-05 0.112776)
(1.75557e-05 -1.52221e-05 0.103633)
(9.1698e-06 -4.98873e-06 0.0803139)
(-6.34775e-05 8.10051e-08 0.119155)
(6.3928e-07 1.89382e-06 0.12226)
(-5.32288e-05 -1.57995e-05 0.112646)
(-3.10711e-06 -1.55647e-06 0.122588)
(-3.49357e-05 -1.64143e-07 0.111526)
(-2.07394e-05 3.65889e-06 0.0916297)
(-6.3559e-05 -1.18527e-07 0.119156)
(4.01232e-07 -2.26553e-06 0.122255)
(-1.781e-06 1.4386e-06 0.122587)
(-5.30864e-05 1.6586e-05 0.112645)
(3.51512e-05 2.08773e-07 0.111526)
(2.10667e-05 -2.85181e-06 0.0916323)
(6.37264e-05 2.99346e-08 0.119156)
(3.07935e-07 -1.44013e-06 0.122254)
(2.20711e-06 1.61422e-06 0.122586)
(5.30086e-05 1.65162e-05 0.112647)
(3.51932e-05 -1.34474e-07 0.111526)
(2.07777e-05 3.39248e-06 0.0916317)
(-0.000220246 0.000225479 0.121712)
(-1.65804e-05 1.44632e-05 0.103625)
(-1.77923e-05 1.53882e-05 0.1039)
(-6.1038e-06 8.77748e-06 0.080496)
(6.83894e-07 6.55601e-05 0.119379)
(-3.37369e-06 2.93033e-07 0.122299)
(1.22706e-06 -2.43417e-06 0.12263)
(1.86994e-05 5.13262e-05 0.112956)
(-5.75003e-07 4.22204e-05 0.111997)
(-3.72538e-06 2.22454e-05 0.0920075)
(4.14961e-07 4.22523e-05 0.111997)
(4.00455e-06 2.27263e-05 0.0920059)
(8.75063e-06 5.45026e-06 0.0803119)
(6.32984e-06 8.61763e-06 0.0804968)
(-2.68885e-06 -2.79841e-05 0.102489)
(2.47622e-06 -1.90256e-05 0.0780452)
(1.35161e-05 -1.12273e-06 0.086244)
(-3.36255e-05 5.51176e-07 0.109471)
(-1.00321e-05 1.0536e-06 0.0890978)
(3.81226e-05 2.01378e-07 0.111516)
(3.72507e-05 1.42105e-06 0.109451)
(1.32163e-05 -3.29658e-07 0.0890626)
(-1.04283e-05 2.91981e-06 0.0862869)
(1.22443e-05 -2.41008e-07 0.0777961)
(-2.63969e-05 -1.16323e-06 0.102185)
(2.30274e-05 5.16818e-06 0.091549)
(2.76472e-05 3.37662e-06 0.102135)
(-1.1018e-05 2.25688e-06 0.0778569)
(1.07112e-05 -7.06561e-06 0.0802508)
(-1.42934e-05 -1.41119e-05 0.096894)
(7.3222e-06 5.789e-06 0.0793773)
(6.52394e-06 6.69134e-06 0.0794171)
(-7.72435e-06 -6.76467e-06 0.079327)
(-6.89615e-06 -7.49812e-06 0.0793629)
(1.34657e-05 1.32724e-05 0.0969359)
(-4.43392e-05 -2.12435e-05 0.110386)
(1.26479e-05 6.3768e-06 0.0909146)
(-1.70247e-05 -1.73502e-05 0.103607)
(6.16511e-05 3.42909e-05 0.116561)
(-6.36204e-05 -3.44913e-05 0.116533)
(-1.32149e-05 -8.08046e-06 0.0908589)
(4.34142e-05 2.17288e-05 0.110432)
(-2.01287e-05 -4.39116e-05 0.110406)
(7.20223e-06 1.1828e-05 0.0909502)
(-1.91554e-05 -1.64235e-05 0.103827)
(3.12165e-05 6.39582e-05 0.116652)
(-3.37268e-05 -6.36922e-05 0.116613)
(-8.24221e-06 -1.28626e-05 0.0908819)
(1.93049e-05 4.39004e-05 0.110458)
(9.49321e-06 7.68057e-06 0.0802548)
(1.40907e-05 1.37239e-05 0.0969358)
(-7.48701e-06 -6.99989e-06 0.0794232)
(-8.06093e-06 -5.78128e-06 0.0793548)
(6.23087e-06 6.3015e-06 0.0793875)
(6.80763e-06 6.3021e-06 0.079326)
(-1.50219e-05 -1.43725e-05 0.0968905)
(2.21986e-05 4.44866e-05 0.110509)
(-9.9373e-06 -1.25495e-05 0.0910231)
(-3.07465e-05 -5.98354e-05 0.116612)
(6.52653e-06 1.2658e-05 0.0910201)
(-2.12559e-05 -4.5661e-05 0.110453)
(4.49246e-05 1.9965e-05 0.110365)
(-1.38441e-05 -6.117e-06 0.0908051)
(1.65379e-05 1.76741e-05 0.103576)
(-6.41338e-05 -3.23175e-05 0.116533)
(1.26354e-05 7.58657e-06 0.0907581)
(-4.63966e-05 -2.07258e-05 0.110341)
(6.38564e-05 3.38281e-05 0.116515)
(7.9947e-06 -5.59436e-06 0.0793721)
(1.45353e-05 -1.52423e-05 0.0969007)
(1.45546e-05 -7.14388e-06 0.0909)
(6.4376e-05 -3.38552e-05 0.116546)
(4.65656e-05 -2.38611e-05 0.110407)
(1.31535e-05 1.70739e-06 0.0862436)
(-1.00789e-05 -8.12873e-07 0.0890973)
(-3.45323e-05 -6.69079e-08 0.109472)
(3.79683e-05 -6.90377e-08 0.111516)
(1.31695e-05 6.03644e-07 0.0890618)
(3.6351e-05 -8.32542e-07 0.109451)
(-1.08212e-05 -2.37405e-06 0.0862871)
(1.23425e-05 1.16531e-06 0.0777972)
(-2.63517e-05 2.21396e-06 0.102185)
(2.33455e-05 -4.43543e-06 0.0915479)
(2.78557e-05 -2.38356e-06 0.102134)
(-1.10266e-05 -1.30552e-06 0.0778586)
(3.39014e-05 4.46636e-07 0.109473)
(1.01354e-05 1.07803e-06 0.0890984)
(1.04877e-05 2.94322e-06 0.086288)
(2.64921e-05 -1.35125e-06 0.102188)
(1.0988e-05 2.23282e-06 0.0778576)
(1.0168e-05 -8.20423e-07 0.0890975)
(3.46535e-05 2.81261e-09 0.109473)
(1.08624e-05 -2.44207e-06 0.0862873)
(2.63348e-05 2.2014e-06 0.102186)
(1.09791e-05 -1.36011e-06 0.0778587)
(1.38174e-05 -1.49139e-05 0.0968955)
(-9.12438e-06 5.0203e-06 0.0793571)
(-6.70244e-06 6.82679e-06 0.0794367)
(7.06671e-06 -7.59119e-06 0.0793191)
(5.83591e-06 -7.64852e-06 0.0793703)
(-1.48809e-05 1.14715e-05 0.0969422)
(4.49413e-05 -2.11619e-05 0.110328)
(-1.227e-05 5.61847e-06 0.090804)
(1.76472e-05 -1.75095e-05 0.103575)
(-6.33218e-05 3.3447e-05 0.116556)
(1.36332e-05 -8.83905e-06 0.0907572)
(6.59384e-05 -3.47703e-05 0.116519)
(-4.09503e-05 1.98076e-05 0.110394)
(2.09299e-05 -4.29407e-05 0.110467)
(-7.33836e-06 1.17336e-05 0.0910543)
(1.96171e-05 -1.63032e-05 0.103857)
(-3.19817e-05 6.37971e-05 0.11666)
(3.39733e-05 -6.28196e-05 0.11663)
(7.99015e-06 -1.27844e-05 0.0909822)
(-1.98051e-05 4.06162e-05 0.110502)
(7.44795e-06 -9.14291e-06 0.0804236)
(-2.36171e-06 -1.21564e-05 0.0866247)
(-1.07412e-06 3.91522e-05 0.109993)
(5.47746e-07 1.2257e-05 0.0895125)
(-5.94914e-08 -4.10096e-05 0.112018)
(6.49014e-07 -3.94606e-05 0.109969)
(-8.96367e-07 -1.18515e-05 0.0894917)
(2.27192e-06 1.18796e-05 0.0866728)
(-1.26975e-06 -1.1454e-05 0.0781329)
(-3.25428e-06 2.85176e-05 0.102748)
(4.29683e-06 -2.46261e-05 0.0919014)
(2.59617e-06 -2.85473e-05 0.102662)
(8.94874e-07 1.11877e-05 0.0782169)
(2.33634e-06 -1.20468e-05 0.0866276)
(1.00955e-06 3.94375e-05 0.109991)
(-6.61534e-07 1.22754e-05 0.0895142)
(-8.69451e-08 -4.09608e-05 0.112017)
(-7.3299e-07 -3.93165e-05 0.109972)
(8.13304e-07 -1.18229e-05 0.089493)
(-2.33681e-06 1.19808e-05 0.0866733)
(1.28103e-06 -1.1316e-05 0.0781338)
(3.27201e-06 2.89113e-05 0.102746)
(-4.01485e-06 -2.43633e-05 0.0919022)
(-2.58855e-06 -2.83326e-05 0.102665)
(-8.97014e-07 1.13691e-05 0.0782141)
(-7.03702e-06 -9.58106e-06 0.0804236)
(4.26737e-06 2.13277e-06 0.12275)
(3.5525e-06 3.23e-06 0.122828)
(9.68696e-08 -2.03909e-07 0.122818)
(-1.56057e-06 -4.14503e-06 0.122848)
(-3.05493e-06 1.78927e-06 0.12275)
(-5.17326e-06 1.51206e-06 0.122828)
(1.92674e-06 8.83946e-09 0.122818)
(-3.89543e-07 -3.00701e-06 0.122847)
(-1.09073e-06 1.29258e-06 0.122742)
(9.99193e-07 7.48053e-07 0.122816)
(-1.14051e-06 -2.92571e-06 0.122822)
(1.02387e-06 -1.55902e-06 0.122843)
(1.18524e-06 1.246e-06 0.122742)
(-1.09374e-06 4.53002e-07 0.122815)
(7.83582e-07 -2.95947e-06 0.122821)
(-1.07521e-06 5.16815e-07 0.122842)
(-0.000259556 8.61791e-07 0.121219)
(6.53131e-05 -1.95521e-07 0.118468)
(0.000254845 -1.26319e-07 0.121517)
(-6.6506e-05 -5.0018e-07 0.119143)
(-6.7957e-05 3.62846e-07 0.118446)
(-0.000255206 -3.2135e-07 0.121505)
(0.000254852 -2.57089e-06 0.121242)
(6.52626e-05 -4.03425e-06 0.116596)
(0.000247701 -1.46492e-05 0.119166)
(0.000261107 -3.83489e-06 0.120617)
(-3.85393e-06 -0.000254614 0.121344)
(5.10542e-09 0.000253033 0.12163)
(-1.96172e-06 6.5976e-05 0.118722)
(-5.28754e-07 -6.42132e-05 0.119387)
(-1.54562e-06 -0.000251056 0.121627)
(7.57824e-07 -6.54406e-05 0.118701)
(-1.15499e-07 0.000252593 0.121366)
(-1.97242e-06 -0.000251147 0.120709)
(-5.99871e-06 6.32314e-05 0.116883)
(1.84344e-05 -5.27743e-05 0.112866)
(-9.51546e-06 0.000244807 0.119299)
(1.11193e-05 -0.000245674 0.119251)
(4.59667e-06 -6.28719e-05 0.116815)
(-2.11625e-07 0.000258733 0.120752)
(-5.92483e-05 -5.86528e-05 0.117519)
(-0.000213211 -0.000214992 0.121686)
(5.32309e-05 0.000217175 0.120195)
(0.000212941 5.46484e-05 0.120214)
(-5.38548e-05 -0.000215462 0.120165)
(-0.000210759 -5.26106e-05 0.120181)
(6.12186e-05 6.21854e-05 0.117569)
(5.9368e-05 5.86522e-05 0.11755)
(0.000213518 0.000217345 0.121695)
(-0.000216264 -5.46131e-05 0.120207)
(-5.43608e-05 -0.000212695 0.120164)
(-6.03418e-05 -6.167e-05 0.11753)
(0.000213659 5.39218e-05 0.120217)
(5.21215e-05 0.00021334 0.12016)
(-1.58027e-06 -6.7894e-05 0.116682)
(-1.65351e-05 -0.000244739 0.119216)
(-5.76397e-06 -0.000260892 0.120669)
(0.000259722 1.26255e-06 0.12122)
(-6.50015e-05 -5.71255e-08 0.118467)
(-0.000253895 -1.51882e-07 0.121517)
(6.65879e-05 -4.35723e-07 0.119143)
(6.79154e-05 4.83407e-07 0.118446)
(0.000255368 -1.36824e-07 0.121505)
(-0.000254046 -2.33585e-06 0.121242)
(0.000256378 2.16586e-06 0.120586)
(-6.51352e-05 -3.68575e-06 0.116595)
(5.44648e-05 1.64686e-05 0.112582)
(-0.000247233 -1.38877e-05 0.119167)
(6.51539e-05 3.66262e-06 0.116553)
(0.000251812 1.33341e-05 0.119133)
(-0.000261011 -3.25678e-06 0.120618)
(0.000255955 -6.74755e-07 0.121222)
(-0.000253324 2.95263e-07 0.121517)
(-6.62288e-05 4.10986e-07 0.118468)
(6.64253e-05 3.6233e-07 0.119143)
(0.000254916 7.09165e-07 0.121505)
(6.70228e-05 3.84903e-08 0.118447)
(-0.000256558 2.17155e-06 0.121242)
(0.000255888 -1.93654e-06 0.120586)
(-6.56225e-05 4.80236e-06 0.116594)
(5.48934e-05 -1.58436e-05 0.112579)
(-0.00024566 1.45359e-05 0.119167)
(6.58704e-05 -2.64362e-06 0.116552)
(-0.00025886 3.40427e-06 0.120615)
(0.000250877 -1.36422e-05 0.119132)
(-0.000255562 -2.78776e-07 0.121221)
(0.000254017 5.91403e-07 0.121517)
(6.62295e-05 7.57721e-07 0.118468)
(-6.63529e-05 4.11696e-07 0.119143)
(-0.000254599 8.19332e-07 0.121505)
(-6.69265e-05 1.80621e-07 0.118447)
(0.000257206 2.74036e-06 0.121242)
(-0.000256015 -1.56595e-06 0.120585)
(6.54735e-05 4.98489e-06 0.116595)
(-5.47759e-05 -1.60783e-05 0.112583)
(0.00024566 1.56526e-05 0.119165)
(-0.00025065 -1.37007e-05 0.119131)
(-6.59467e-05 -2.64353e-06 0.116553)
(0.00025862 4.03916e-06 0.120615)
(5.99334e-05 -5.95636e-05 0.117522)
(0.000213276 -0.000213853 0.121687)
(-5.23721e-05 0.000219558 0.120197)
(-0.000216193 5.51244e-05 0.120217)
(0.000211959 -5.15827e-05 0.120183)
(5.48291e-05 -0.000215727 0.120164)
(-6.11782e-05 6.38598e-05 0.117571)
(3.45386e-06 -0.000254562 0.121344)
(-5.94031e-07 0.000253166 0.12163)
(1.55808e-06 6.62963e-05 0.118721)
(1.86841e-07 -6.4189e-05 0.119387)
(9.29346e-07 -0.000251042 0.121627)
(-1.02716e-06 -6.51299e-05 0.118702)
(-6.83122e-07 0.00025275 0.121366)
(1.40404e-06 -0.000251124 0.12071)
(5.69547e-06 6.37329e-05 0.116882)
(-1.83577e-05 -5.21093e-05 0.112864)
(8.73175e-06 0.00024476 0.119299)
(-1.13873e-05 -0.00024568 0.11925)
(-4.78819e-06 -6.27589e-05 0.116816)
(-7.70592e-07 0.00025895 0.120752)
(-4.20119e-06 -1.05939e-05 0.0570911)
(-1.91177e-06 -3.99952e-06 0.0395667)
(-9.73004e-07 -1.17634e-06 0.0249755)
(-5.25106e-07 -2.02525e-07 0.0132639)
(-1.90479e-07 1.29727e-08 0.00404788)
(-6.54155e-06 -1.49529e-07 0.0571096)
(-2.91082e-06 2.99504e-07 0.0395873)
(-1.26671e-06 3.30258e-07 0.0249892)
(-4.51065e-07 2.31043e-07 0.0132705)
(-9.66473e-08 7.80661e-08 0.00404957)
(-3.67324e-06 2.80537e-06 0.0590644)
(-1.45934e-06 1.49217e-06 0.0410788)
(-4.93594e-07 8.14445e-07 0.0259931)
(-8.47005e-08 3.88982e-07 0.0138288)
(7.50489e-09 1.17786e-07 0.00422753)
(-4.02714e-06 -6.23573e-06 0.0590496)
(-1.12326e-06 -2.76552e-06 0.0410668)
(5.72468e-08 -1.19996e-06 0.0259857)
(3.28577e-07 -5.04514e-07 0.0138256)
(1.69959e-07 -1.46089e-07 0.00422699)
(-4.43487e-06 -2.10214e-06 0.0590668)
(-1.95763e-06 -8.23467e-07 0.0410802)
(-8.06863e-07 -3.12813e-07 0.0259935)
(-2.52436e-07 -9.88305e-08 0.0138285)
(-4.38267e-08 -2.43132e-08 0.00422734)
(4.21031e-06 -2.29279e-06 0.0590656)
(1.78466e-06 -1.05717e-06 0.0410799)
(6.75092e-07 -5.41453e-07 0.025994)
(1.65253e-07 -2.55995e-07 0.0138295)
(1.16189e-08 -8.25694e-08 0.00422796)
(-6.19555e-06 1.04938e-06 0.05711)
(-2.61253e-06 4.79957e-07 0.0395882)
(-1.04808e-06 2.4304e-07 0.02499)
(-3.21456e-07 1.05328e-07 0.0132705)
(-5.30556e-08 3.2893e-08 0.00404945)
(6.5098e-06 -2.32282e-07 0.0571093)
(2.90732e-06 2.07246e-07 0.0395878)
(1.24723e-06 2.3239e-07 0.0249901)
(4.2572e-07 1.55159e-07 0.0132713)
(8.39679e-08 4.66272e-08 0.00404992)
(6.23316e-06 8.80045e-07 0.0571104)
(2.67784e-06 3.59424e-07 0.0395881)
(1.09249e-06 1.66285e-07 0.0249907)
(3.41677e-07 6.69879e-08 0.0132718)
(5.79615e-08 2.21754e-08 0.00405028)
(-3.24925e-06 3.75132e-06 0.0590374)
(-1.82982e-06 1.33632e-06 0.0410606)
(-1.05345e-06 3.60922e-07 0.025982)
(-5.3903e-07 3.10276e-09 0.0138231)
(-1.72859e-07 -3.3934e-08 0.00422606)
(-1.63242e-06 5.97037e-06 0.05706)
(-1.07235e-06 2.40128e-06 0.0395513)
(-6.97877e-07 8.88579e-07 0.0249663)
(-3.81704e-07 2.23093e-07 0.0132586)
(-1.29067e-07 2.03693e-08 0.00404596)
(1.9093e-06 6.09229e-06 0.0570594)
(1.30496e-06 2.43039e-06 0.0395509)
(8.57359e-07 8.76539e-07 0.0249664)
(4.68294e-07 2.03652e-07 0.0132583)
(1.55755e-07 1.09148e-08 0.00404578)
(3.98441e-06 2.73739e-06 0.0590647)
(1.62706e-06 1.4075e-06 0.0410793)
(5.74999e-07 7.46731e-07 0.0259937)
(1.16708e-07 3.52181e-07 0.0138292)
(-1.19487e-09 1.07391e-07 0.00422762)
(3.66974e-06 3.46166e-06 0.0590378)
(2.21559e-06 1.13307e-06 0.0410606)
(1.34076e-06 2.20674e-07 0.0259813)
(7.05505e-07 -8.08003e-08 0.0138224)
(2.26629e-07 -6.25657e-08 0.00422546)
(5.09294e-06 -1.11954e-06 0.0582569)
(2.38577e-06 -9.45426e-07 0.0404535)
(1.07525e-06 -7.34468e-07 0.0255653)
(3.87114e-07 -4.74858e-07 0.013587)
(8.57238e-08 -1.71561e-07 0.00414911)
(-3.44841e-06 8.36022e-07 0.0585617)
(-1.42334e-06 6.70846e-07 0.0406736)
(-5.87872e-07 4.821e-07 0.0257106)
(-1.96723e-07 2.86923e-07 0.0136681)
(-4.42716e-08 9.65631e-08 0.00417547)
(4.47786e-06 -2.84453e-07 0.0585322)
(2.00417e-06 -2.37694e-07 0.0406549)
(8.63831e-07 -1.8542e-07 0.0257)
(2.86966e-07 -1.21584e-07 0.013663)
(5.71862e-08 -4.43895e-08 0.0041741)
(-4.2228e-06 2.47191e-06 0.0582917)
(-1.92068e-06 1.97501e-06 0.0404758)
(-8.75884e-07 1.4166e-06 0.0255781)
(-3.3983e-07 8.4562e-07 0.0135931)
(-8.63993e-08 2.86934e-07 0.00415081)
(6.87863e-06 2.17289e-06 0.0570497)
(2.94813e-06 1.31372e-06 0.0395476)
(1.15659e-06 7.65772e-07 0.0249659)
(3.21805e-07 3.74105e-07 0.0132589)
(3.86338e-08 1.12729e-07 0.00404625)
(4.69531e-06 -4.0217e-06 0.059016)
(1.88852e-06 -2.30393e-06 0.0410476)
(6.06861e-07 -1.30114e-06 0.025975)
(6.92985e-08 -6.43669e-07 0.0138199)
(-3.25043e-08 -1.97834e-07 0.00422501)
(4.11158e-06 1.95397e-06 0.0573951)
(1.74623e-06 8.07596e-07 0.0397836)
(7.06967e-07 3.18068e-07 0.025112)
(2.27557e-07 9.56664e-08 0.0133349)
(4.43889e-08 1.93655e-08 0.0040691)
(-4.0306e-06 -2.98527e-06 0.0573533)
(-1.6454e-06 -1.54164e-06 0.0397565)
(-6.08335e-07 -7.68198e-07 0.0250963)
(-1.50507e-07 -3.1899e-07 0.0133272)
(-1.49155e-08 -8.3081e-08 0.00406693)
(2.84006e-06 3.53604e-06 0.0573663)
(1.54158e-06 1.28058e-06 0.0397635)
(8.30048e-07 3.65556e-07 0.0250992)
(3.87229e-07 2.94934e-08 0.0133283)
(1.14208e-07 -1.96485e-08 0.0040671)
(-2.97989e-06 -3.8638e-06 0.0573186)
(-1.50158e-06 -1.57979e-06 0.0397329)
(-7.3211e-07 -5.8824e-07 0.0250814)
(-3.00115e-07 -1.49914e-07 0.0133194)
(-7.87683e-08 -1.71343e-08 0.00406458)
(3.9275e-06 4.48448e-06 0.0590183)
(1.40993e-06 2.70635e-06 0.0410486)
(3.38747e-07 1.6116e-06 0.0259752)
(-5.90233e-08 8.31087e-07 0.0138195)
(-6.80162e-08 2.60956e-07 0.00422477)
(3.77817e-06 -1.8795e-06 0.0593656)
(1.79445e-06 -4.45081e-07 0.0412736)
(8.83727e-07 7.90681e-08 0.0261074)
(3.96396e-07 1.76358e-07 0.0138851)
(1.19111e-07 7.74472e-08 0.00424353)
(4.72414e-06 -1.46688e-06 0.0573998)
(2.18e-06 -2.70373e-07 0.0397853)
(9.77232e-07 1.54955e-08 0.0251132)
(3.35682e-07 5.10181e-08 0.0133358)
(6.40963e-08 9.59757e-09 0.00406943)
(4.98702e-06 1.61754e-06 0.0582577)
(2.36225e-06 1.35816e-06 0.0404538)
(1.08579e-06 1.03132e-06 0.0255655)
(4.03348e-07 6.47859e-07 0.0135873)
(9.33537e-08 2.28532e-07 0.00414919)
(-3.4619e-06 -5.56915e-07 0.0585613)
(-1.42556e-06 -4.18997e-07 0.0406732)
(-5.85053e-07 -2.93793e-07 0.0257103)
(-1.93255e-07 -1.75249e-07 0.0136679)
(-4.25461e-08 -5.9574e-08 0.00417541)
(4.46484e-06 5.72702e-07 0.0585317)
(2.0025e-06 4.94131e-07 0.0406544)
(8.67348e-07 3.7765e-07 0.0256996)
(2.90841e-07 2.36388e-07 0.0136628)
(5.90609e-08 8.27633e-08 0.00417403)
(-4.35021e-06 -1.98719e-06 0.0582927)
(-1.95648e-06 -1.5697e-06 0.0404763)
(-8.70963e-07 -1.12703e-06 0.0255784)
(-3.25693e-07 -6.7865e-07 0.0135935)
(-7.92852e-08 -2.32715e-07 0.0041509)
(7.18917e-06 -1.50123e-06 0.0570504)
(3.20202e-06 -7.32927e-07 0.0395487)
(1.33849e-06 -3.30197e-07 0.0249667)
(4.2732e-07 -1.12207e-07 0.013259)
(7.29496e-08 -2.45858e-08 0.00404614)
(3.52146e-06 8.67205e-07 0.0585621)
(1.49965e-06 6.96625e-07 0.0406734)
(6.28329e-07 5.01687e-07 0.0257108)
(2.09122e-07 2.99375e-07 0.0136683)
(4.52815e-08 1.00855e-07 0.00417516)
(4.30397e-06 2.50222e-06 0.0582912)
(2.00266e-06 1.991e-06 0.040475)
(9.17899e-07 1.42141e-06 0.0255777)
(3.52291e-07 8.45663e-07 0.0135928)
(8.73733e-08 2.86244e-07 0.00415045)
(3.51847e-06 -5.26488e-07 0.058561)
(1.49215e-06 -3.73443e-07 0.0406727)
(6.19611e-07 -2.48114e-07 0.0257099)
(2.02586e-07 -1.42165e-07 0.0136676)
(4.28558e-08 -4.66154e-08 0.00417504)
(4.38942e-06 -1.9994e-06 0.0582915)
(2.00885e-06 -1.54915e-06 0.0404752)
(8.9748e-07 -1.09226e-06 0.0255775)
(3.3121e-07 -6.49301e-07 0.0135927)
(7.83307e-08 -2.20859e-07 0.00415054)
(-4.16769e-06 3.53794e-06 0.059368)
(-2.2096e-06 1.28596e-06 0.0412724)
(-1.09631e-06 3.51735e-07 0.0261055)
(-4.50383e-07 1.23356e-08 0.0138842)
(-1.11068e-07 -2.99748e-08 0.00424318)
(-3.03502e-06 3.91003e-06 0.0573671)
(-1.52308e-06 1.50948e-06 0.0397641)
(-6.69281e-07 5.00406e-07 0.0251002)
(-2.33901e-07 1.3114e-07 0.0133294)
(-4.70435e-08 2.48007e-08 0.00406784)
(2.97301e-06 -3.57356e-06 0.0573185)
(1.59293e-06 -1.373e-06 0.0397336)
(8.67295e-07 -4.53782e-07 0.0250826)
(4.09287e-07 -6.56733e-08 0.0133208)
(1.23768e-07 1.37209e-08 0.00406536)
(4.33993e-06 -3.53844e-06 0.0589814)
(2.65307e-06 -1.1782e-06 0.041024)
(1.60522e-06 -2.31331e-07 0.0259605)
(8.41131e-07 9.66389e-08 0.0138124)
(2.69077e-07 7.45955e-08 0.00422293)
(-1.98464e-06 -4.14548e-06 0.0581685)
(-1.63619e-06 -1.91291e-06 0.0403926)
(-1.25236e-06 -8.99881e-07 0.0255271)
(-7.92345e-07 -3.59475e-07 0.0135668)
(-2.81297e-07 -9.67657e-08 0.00414287)
(2.82931e-07 3.70719e-06 0.0584622)
(1.74326e-07 1.54663e-06 0.0406077)
(1.17526e-07 6.30142e-07 0.0256701)
(7.39174e-08 2.08345e-07 0.0136467)
(2.63531e-08 4.84282e-08 0.00416897)
(-7.24273e-07 -3.23839e-06 0.0584331)
(-6.03309e-07 -1.35882e-06 0.0405863)
(-4.60238e-07 -5.92333e-07 0.0256568)
(-2.88112e-07 -2.11044e-07 0.0136399)
(-1.00671e-07 -5.41861e-08 0.00416697)
(1.62921e-06 4.37003e-06 0.0582086)
(1.21828e-06 1.93848e-06 0.0404204)
(8.8574e-07 8.46092e-07 0.0255439)
(5.53166e-07 3.14744e-07 0.0135753)
(1.96994e-07 7.99117e-08 0.00414537)
(1.66363e-06 -6.88096e-06 0.0569889)
(9.67181e-07 -2.97477e-06 0.0395044)
(5.3628e-07 -1.20471e-06 0.0249384)
(2.46521e-07 -3.6185e-07 0.0132446)
(7.37087e-08 -5.49118e-08 0.00404188)
(1.9444e-06 -4.06591e-06 0.05817)
(1.58056e-06 -1.86676e-06 0.0403936)
(1.1948e-06 -8.7567e-07 0.0255281)
(7.50099e-07 -3.48479e-07 0.0135673)
(2.64956e-07 -9.38299e-08 0.0041429)
(-4.39294e-07 3.73176e-06 0.0584633)
(-3.38272e-07 1.56299e-06 0.0406083)
(-2.56678e-07 6.39893e-07 0.0256709)
(-1.64335e-07 2.13559e-07 0.0136474)
(-5.85151e-08 5.00441e-08 0.00416905)
(6.22912e-07 -3.22393e-06 0.0584342)
(4.94621e-07 -1.34819e-06 0.0405869)
(3.63912e-07 -5.85068e-07 0.0256576)
(2.23275e-07 -2.06961e-07 0.0136406)
(7.70874e-08 -5.29043e-08 0.00416705)
(-1.74011e-06 4.43672e-06 0.0582092)
(-1.3435e-06 1.98102e-06 0.040421)
(-9.9683e-07 8.71759e-07 0.0255447)
(-6.27331e-07 3.28302e-07 0.0135757)
(-2.23849e-07 8.40656e-08 0.00414536)
(-1.41738e-06 -6.7907e-06 0.0569891)
(-7.59468e-07 -2.95534e-06 0.0395043)
(-3.85284e-07 -1.22206e-06 0.0249387)
(-1.57749e-07 -3.84516e-07 0.0132444)
(-4.439e-08 -6.52958e-08 0.00404173)
(-3.88264e-06 -3.9012e-06 0.0589821)
(-2.21527e-06 -1.47e-06 0.0410244)
(-1.25746e-06 -4.36758e-07 0.0259601)
(-6.252e-07 -2.33657e-08 0.0138118)
(-1.93926e-07 3.41703e-08 0.00422239)
(3.67942e-06 2.64041e-06 0.0593676)
(1.62397e-06 1.14661e-06 0.0412734)
(6.58266e-07 4.5613e-07 0.0261063)
(2.06024e-07 1.38636e-07 0.0138843)
(3.71363e-08 2.63487e-08 0.00424302)
(3.42499e-06 3.08029e-06 0.0593596)
(1.79286e-06 1.10394e-06 0.0412684)
(9.05862e-07 2.81217e-07 0.0261037)
(3.93168e-07 -9.93012e-09 0.0138828)
(1.08724e-07 -3.23349e-08 0.0042425)
(1.82538e-06 -1.22261e-05 0.0589184)
(2.14391e-06 -5.80268e-06 0.0410117)
(1.79424e-06 -2.44707e-06 0.0259649)
(1.10692e-06 -8.59476e-07 0.013819)
(3.71543e-07 -1.69713e-07 0.00422592)
(6.80115e-06 -5.50277e-07 0.0588021)
(3.31617e-06 -6.24756e-07 0.040937)
(1.48013e-06 -5.70621e-07 0.0259201)
(5.31591e-07 -4.04258e-07 0.0137959)
(1.15568e-07 -1.52035e-07 0.00421904)
(-6.49262e-06 2.57946e-06 0.0588567)
(-3.2265e-06 2.25821e-06 0.0409734)
(-1.52543e-06 1.68111e-06 0.0259416)
(-6.10872e-07 1.0185e-06 0.0138065)
(-1.53206e-07 3.46418e-07 0.0042221)
(-4.05633e-06 1.71819e-06 0.0593582)
(-1.94676e-06 5.63568e-07 0.0412677)
(-9.07842e-07 8.22857e-08 0.026103)
(-3.5777e-07 -6.22249e-08 0.0138826)
(-8.9111e-08 -3.46617e-08 0.00424264)
(-3.62534e-06 1.21008e-06 0.0573907)
(-1.66618e-06 3.68168e-07 0.0397807)
(-7.65748e-07 1.21809e-07 0.0251107)
(-2.67121e-07 2.13418e-08 0.0133346)
(-5.39443e-08 4.991e-09 0.00406906)
(3.97841e-06 -3.3136e-06 0.0573523)
(1.54045e-06 -1.85341e-06 0.0397552)
(4.70828e-07 -1.01587e-06 0.0250958)
(4.61636e-08 -4.78418e-07 0.0133273)
(-2.54864e-08 -1.40015e-07 0.004067)
(-3.67839e-06 -3.39814e-06 0.0593261)
(-1.59553e-06 -1.73699e-06 0.0412464)
(-6.00508e-07 -8.10926e-07 0.0260906)
(-1.52655e-07 -3.05584e-07 0.0138766)
(-1.63847e-08 -7.06989e-08 0.00424086)
(-3.4358e-06 -3.61747e-06 0.0593158)
(-1.7027e-06 -1.58006e-06 0.0412399)
(-7.70043e-07 -6.11124e-07 0.0260871)
(-2.79176e-07 -1.67142e-07 0.0138746)
(-6.291e-08 -2.27642e-08 0.00424018)
(-3.31773e-06 -3.7263e-06 0.0593603)
(-1.34978e-06 -1.68501e-06 0.0412697)
(-3.68965e-07 -7.39071e-07 0.0261049)
(6.05146e-09 -3.1764e-07 0.0138835)
(4.50679e-08 -9.92437e-08 0.00424261)
(-3.62886e-06 -5.06672e-06 0.0573691)
(-1.56514e-06 -2.06882e-06 0.0397661)
(-5.54398e-07 -7.30176e-07 0.0251018)
(-1.40086e-07 -2.23717e-07 0.0133302)
(-1.57582e-08 -4.79149e-08 0.00406801)
(2.30474e-06 2.8979e-06 0.05733)
(1.28951e-06 1.02731e-06 0.0397389)
(7.04292e-07 3.7369e-07 0.0250852)
(3.02717e-07 8.87203e-08 0.0133218)
(7.84847e-08 1.39017e-08 0.00406556)
(-4.32577e-06 -2.48279e-06 0.0593606)
(-2.02112e-06 -9.88835e-07 0.0412701)
(-8.57716e-07 -3.59657e-07 0.0261052)
(-2.79036e-07 -9.77534e-08 0.0138838)
(-4.94186e-08 -1.81646e-08 0.00424274)
(-4.74795e-06 -1.50071e-06 0.0573915)
(-2.17623e-06 -3.91848e-07 0.0397815)
(-9.72438e-07 -2.06083e-08 0.0251113)
(-3.62439e-07 7.2247e-08 0.0133346)
(-8.41335e-08 3.42422e-08 0.00406893)
(3.83903e-06 2.82266e-06 0.057351)
(1.54178e-06 1.52016e-06 0.0397549)
(5.39448e-07 8.11624e-07 0.0250957)
(1.07855e-07 3.67108e-07 0.0133269)
(1.05601e-10 1.0433e-07 0.00406677)
(3.20866e-06 2.84122e-06 0.0593254)
(1.78365e-06 1.07827e-06 0.0412449)
(9.55481e-07 2.87351e-07 0.0260898)
(4.42269e-07 -1.85261e-08 0.0138759)
(1.31505e-07 -4.0607e-08 0.00424043)
(3.43866e-06 2.94914e-06 0.0593259)
(1.52316e-06 1.47239e-06 0.0412453)
(5.79403e-07 6.94956e-07 0.0260903)
(1.48892e-07 2.70694e-07 0.0138764)
(1.70752e-08 6.81384e-08 0.00424061)
(6.97201e-06 1.41851e-06 0.0588033)
(3.48091e-06 1.33699e-06 0.0409378)
(1.60657e-06 1.08098e-06 0.0259209)
(6.08684e-07 7.01279e-07 0.0137962)
(1.41958e-07 2.49867e-07 0.00421887)
(-6.37802e-06 -1.67404e-06 0.0588582)
(-3.09675e-06 -1.51583e-06 0.0409745)
(-1.41432e-06 -1.15799e-06 0.0259425)
(-5.38776e-07 -7.19776e-07 0.013807)
(-1.27659e-07 -2.4994e-07 0.00422196)
(6.53644e-06 2.52171e-06 0.0588567)
(3.28119e-06 2.18496e-06 0.0409737)
(1.54711e-06 1.61117e-06 0.0259422)
(6.09715e-07 9.69222e-07 0.013807)
(1.4888e-07 3.27402e-07 0.00422214)
(6.41492e-06 -1.70993e-06 0.0588583)
(3.13891e-06 -1.51943e-06 0.0409746)
(1.43494e-06 -1.13757e-06 0.0259426)
(5.40506e-07 -6.95509e-07 0.0138074)
(1.25225e-07 -2.37813e-07 0.00422241)
(3.01628e-06 -3.96228e-06 0.0593236)
(1.02792e-06 -2.2178e-06 0.0412438)
(1.99463e-07 -1.18013e-06 0.0260887)
(-7.35143e-08 -5.32894e-07 0.0138755)
(-5.61488e-08 -1.49675e-07 0.00424061)
(2.56372e-06 -3.99245e-06 0.0593182)
(1.13511e-06 -1.929e-06 0.0412412)
(4.35719e-07 -8.48459e-07 0.0260877)
(1.16532e-07 -2.94548e-07 0.0138755)
(1.79569e-08 -6.21607e-08 0.00424069)
(-1.32083e-06 -6.57592e-06 0.058829)
(-1.28108e-06 -3.25522e-06 0.0409516)
(-1.08559e-06 -1.50876e-06 0.0259283)
(-7.28667e-07 -5.88252e-07 0.0138001)
(-2.65799e-07 -1.46525e-07 0.00422031)
(9.6108e-07 6.61779e-06 0.0588997)
(8.56085e-07 3.11768e-06 0.0409991)
(6.76513e-07 1.35517e-06 0.0259568)
(4.41037e-07 4.88524e-07 0.0138145)
(1.58229e-07 1.1115e-07 0.00422454)
(1.36337e-06 -6.5028e-06 0.0588294)
(1.31249e-06 -3.21389e-06 0.0409524)
(1.09774e-06 -1.4902e-06 0.0259289)
(7.29479e-07 -5.81918e-07 0.0138003)
(2.64422e-07 -1.45631e-07 0.00422024)
(-9.60198e-07 6.73161e-06 0.0588984)
(-8.83877e-07 3.18492e-06 0.0409989)
(-7.22367e-07 1.39281e-06 0.0259569)
(-4.81543e-07 5.06662e-07 0.0138145)
(-1.75619e-07 1.16316e-07 0.00422442)
(2.98641e-06 3.64566e-06 0.0803043)
(8.46525e-06 7.37956e-06 0.0802405)
(0.000213416 0.000218987 0.121689)
(1.56369e-05 1.5347e-05 0.103712)
(1.61103e-05 1.76656e-05 0.103548)
(3.8425e-05 2.7219e-07 0.111481)
(2.23838e-05 4.60054e-06 0.0915225)
(6.70207e-05 -3.52991e-07 0.119117)
(-4.71753e-07 4.56248e-06 0.122321)
(5.43923e-05 1.65816e-05 0.112547)
(8.95478e-07 2.72814e-06 0.122633)
(3.83055e-05 -5.77742e-08 0.111481)
(2.25695e-05 -3.78513e-06 0.0915214)
(6.69291e-05 4.08059e-07 0.119117)
(4.28397e-07 -1.71102e-06 0.122322)
(-2.34431e-06 -3.22779e-06 0.122634)
(5.46599e-05 -1.55011e-05 0.112545)
(1.49055e-06 -7.89074e-07 0.122322)
(-5.4866e-05 -1.60518e-05 0.112549)
(-2.26207e-05 -3.9755e-06 0.0915235)
(9.63397e-06 -6.64212e-06 0.0802364)
(0.000213606 -0.000211563 0.121675)
(1.80363e-05 -1.58765e-05 0.103541)
(2.21558e-05 -1.66214e-05 0.103843)
(7.10569e-06 -9.17394e-06 0.0804134)
(-1.5151e-06 -6.24592e-05 0.119385)
(-4.81306e-06 4.8235e-07 0.122343)
(-2.1706e-06 2.17347e-06 0.122639)
(1.91487e-05 -5.40902e-05 0.112845)
(1.11824e-06 -6.24549e-05 0.119385)
(3.12717e-06 2.72273e-07 0.122344)
(8.16097e-07 3.95805e-06 0.122639)
(-1.89541e-05 -5.17235e-05 0.112843)
(1.33148e-07 -4.07394e-05 0.112014)
(3.67409e-06 -2.49948e-05 0.0918841)
(-3.51889e-07 -4.06935e-05 0.112014)
(-3.4517e-06 -2.45529e-05 0.0918851)
(-0.000213171 -0.000215451 0.121674)
(-1.68647e-05 -1.7327e-05 0.103579)
(-1.96414e-05 -1.62416e-05 0.103807)
(-8.97067e-06 -6.77664e-06 0.0802385)
(-6.69378e-06 -8.88917e-06 0.0804137)
(3.75405e-06 5.63388e-06 0.0793777)
(6.10478e-06 5.74478e-06 0.0793159)
(1.31452e-05 1.35262e-05 0.096922)
(3.87422e-06 1.16645e-05 0.0909463)
(3.56772e-05 6.34238e-05 0.11656)
(2.09494e-05 4.366e-05 0.110451)
(1.20154e-05 6.83993e-06 0.0907339)
(6.35726e-05 3.40424e-05 0.116485)
(4.35359e-05 1.96008e-05 0.110339)
(-7.60022e-06 3.47269e-06 0.0863134)
(3.74155e-05 1.30816e-06 0.109413)
(1.241e-05 -4.30151e-07 0.0890385)
(-3.17843e-05 4.00037e-07 0.111559)
(1.25021e-05 -1.53798e-06 0.086218)
(-3.04001e-05 1.1686e-06 0.109508)
(-7.3619e-06 1.15708e-06 0.0891206)
(-7.72639e-06 2.7086e-06 0.077871)
(2.73838e-05 3.26647e-06 0.102105)
(-1.65726e-05 -9.40189e-07 0.0916566)
(1.1296e-05 -5.91289e-07 0.0777824)
(-2.29647e-05 -1.18348e-06 0.102214)
(-7.94312e-06 -2.89665e-06 0.0863139)
(1.23805e-05 7.61724e-07 0.0890376)
(3.6583e-05 -6.96249e-07 0.109413)
(-3.18411e-05 -2.3766e-07 0.11156)
(1.2166e-05 2.17363e-06 0.0862176)
(-7.38763e-06 -8.26192e-07 0.0891202)
(-3.11997e-05 -6.79992e-07 0.109509)
(-7.81116e-06 -1.77595e-06 0.0778729)
(2.74988e-05 -2.289e-06 0.102104)
(-1.6499e-05 1.84912e-06 0.0916552)
(1.13476e-05 1.5584e-06 0.0777837)
(-2.29911e-05 2.18726e-06 0.102213)
(7.65233e-06 -1.67758e-06 0.0778728)
(-2.76797e-05 -2.23366e-06 0.102105)
(1.61287e-05 1.80787e-06 0.0916569)
(-1.14438e-05 1.59891e-06 0.0777837)
(2.27002e-05 2.31492e-06 0.102214)
(-5.55265e-06 4.10258e-06 0.0803232)
(-1.23754e-05 1.12696e-05 0.0969783)
(6.19519e-06 -7.77063e-06 0.0793265)
(4.56755e-06 -6.63602e-06 0.0793484)
(1.43069e-05 -1.31419e-05 0.0968704)
(-4.94649e-06 3.7406e-06 0.0793706)
(-4.80341e-06 3.97907e-06 0.0794407)
(-3.90208e-05 1.57798e-05 0.11041)
(1.22662e-05 -8.83226e-06 0.0907477)
(6.52629e-05 -3.3521e-05 0.116484)
(-1.40159e-05 1.31962e-05 0.103641)
(-5.81384e-05 3.27222e-05 0.116573)
(4.46898e-05 -2.33632e-05 0.110269)
(-9.95066e-06 2.75909e-06 0.09084)
(-1.98737e-05 4.31909e-05 0.110562)
(7.61617e-06 -1.2168e-05 0.0909491)
(3.7468e-05 -6.58558e-05 0.116615)
(-1.36534e-05 1.33905e-05 0.10393)
(2.05383e-05 -4.25626e-05 0.11046)
(-5.64381e-06 1.1152e-05 0.0910663)
(-3.06405e-05 5.69223e-05 0.116691)
(-5.1379e-06 5.49492e-06 0.0805089)
(2.07314e-06 1.19432e-05 0.0866739)