/*--------------------------------*- C++ -*----------------------------------*\
| =========                 |                                                 |
| \\      /  F ield         | OpenFOAM: The Open Source CFD Toolbox           |
|  \\    /   O peration     | Version:  2206                                  |
|   \\  /    A nd           | Website:  www.openfoam.com                      |
|    \\/     M anipulation  |                                                 |
\*---------------------------------------------------------------------------*/
FoamFile
{
    version     2.0;
    format      ascii;
    arch        "LSB;label=32;scalar=64";
    class       volScalarField;
    location    "0.4";
    object      nut;
}
// * * * * * * * * * * * * * * * * * * * * * * * * * * * * * * * * * * * * * //

dimensions      [0 2 -1 0 0 0 0];

internalField   nonuniform List<scalar> 
66621
(
7.15172e-08
2.57227e-07
6.97004e-08
5.05178e-07
2.63556e-07
1.13876e-06
3.34678e-08
5.26727e-07
9.99779e-07
1.14378e-06
2.71426e-07
9.5586e-07
1.44412e-07
1.48116e-07
3.41637e-08
3.35188e-08
9.44808e-07
1.47296e-07
1.43989e-07
9.82723e-07
2.68968e-07
1.44114e-07
3.35061e-08
5.05264e-07
9.7873e-07
2.63646e-07
1.13877e-06
2.5719e-07
6.95981e-08
5.05264e-07
9.80755e-07
1.13837e-06
2.63323e-07
2.57203e-07
6.96115e-08
5.05242e-07
9.81673e-07
1.13845e-06
2.63623e-07
2.5718e-07
6.96162e-08
9.55244e-07
1.4384e-07
1.48165e-07
3.43529e-08
5.26701e-07
9.99577e-07
1.144e-06
2.7157e-07
2.69291e-07
7.22128e-08
2.6929e-07
7.22612e-08
3.35189e-08
3.4388e-08
1.40723e-07
2.97371e-08
5.00947e-08
2.21368e-07
5.83674e-08
2.57138e-07
2.21363e-07
5.84684e-08
5.0008e-08
2.90332e-08
1.36235e-07
6.9791e-08
1.36468e-07
2.90151e-08
3.34922e-08
8.77186e-08
2.86644e-08
2.88119e-08
2.86789e-08
2.88247e-08
8.75575e-08
2.1988e-07
6.70235e-08
1.44643e-07
3.55003e-07
3.55952e-07
6.71012e-08
2.19647e-07
2.21816e-07
6.71561e-08
1.48277e-07
3.59425e-07
3.60411e-07
6.72176e-08
2.2152e-07
3.35424e-08
8.76353e-08
2.88844e-08
2.85687e-08
2.88693e-08
2.85845e-08
8.75028e-08
2.21219e-07
6.793e-08
3.59155e-07
6.80137e-08
2.21395e-07
2.19818e-07
6.61164e-08
1.44228e-07
3.53871e-07
6.61899e-08
2.19862e-07
3.54687e-07
2.87632e-08
8.79306e-08
6.70291e-08
3.54771e-07
2.1981e-07
5.00639e-08
5.83519e-08
2.21248e-07
2.57075e-07
5.84516e-08
2.21185e-07
4.998e-08
2.90031e-08
1.36048e-07
6.96918e-08
1.36287e-07
2.89846e-08
2.21272e-07
5.83476e-08
4.9977e-08
1.36059e-07
2.89816e-08
5.83432e-08
2.2123e-07
4.99732e-08
1.36042e-07
2.89815e-08
8.78578e-08
2.86314e-08
2.89176e-08
2.86532e-08
2.89413e-08
8.76944e-08
2.19704e-07
6.61384e-08
1.44083e-07
3.53131e-07
6.6207e-08
3.54046e-07
2.18903e-07
2.20331e-07
6.79631e-08
1.48315e-07
3.59325e-07
3.60354e-07
6.80595e-08
2.20661e-07
3.43583e-08
5.17e-08
2.31442e-07
6.04354e-08
2.69082e-07
2.31367e-07
6.04672e-08
5.1669e-08
3.00588e-08
1.42947e-07
7.22408e-08
1.43033e-07
3.00646e-08
5.17073e-08
2.31466e-07
6.04368e-08
2.69072e-07
2.31386e-07
6.04663e-08
5.16771e-08
3.00653e-08
1.42999e-07
7.22899e-08
1.4309e-07
3.00703e-08
3.43949e-08
1.10413e-06
1.0594e-06
1.06453e-06
1.03433e-06
1.10401e-06
1.05944e-06
1.0643e-06
1.03428e-06
1.10422e-06
1.06373e-06
1.0601e-06
1.03451e-06
1.1045e-06
1.06359e-06
1.05994e-06
1.03445e-06
7.81297e-07
4.59475e-07
8.72385e-07
5.06899e-07
4.60894e-07
8.76654e-07
7.79668e-07
3.62631e-07
5.00263e-07
6.69446e-07
8.09747e-07
9.0881e-07
4.7902e-07
5.28644e-07
9.13743e-07
4.80124e-07
8.11104e-07
6.89949e-07
3.76015e-07
2.71726e-07
5.11756e-07
5.11475e-07
3.76388e-07
6.92897e-07
4.03264e-07
9.51367e-07
5.6029e-07
5.68088e-07
5.62157e-07
5.69131e-07
4.01874e-07
4.03236e-07
9.51995e-07
5.60578e-07
5.61647e-07
4.01405e-07
5.66502e-07
5.64935e-07
3.69928e-07
5.07632e-07
6.79035e-07
7.81594e-07
4.59644e-07
8.72519e-07
5.0706e-07
4.6115e-07
8.76736e-07
7.79878e-07
6.70229e-07
3.62864e-07
2.63742e-07
4.99737e-07
3.63384e-07
5.00423e-07
6.69525e-07
7.82725e-07
8.74023e-07
4.59511e-07
5.0703e-07
8.78346e-07
4.60889e-07
7.80888e-07
6.71466e-07
3.62548e-07
2.63417e-07
5.01178e-07
3.62998e-07
6.70871e-07
5.0149e-07
7.82817e-07
8.74016e-07
4.59528e-07
5.06968e-07
8.78404e-07
4.60899e-07
7.80988e-07
6.71882e-07
3.62633e-07
2.63724e-07
5.02379e-07
5.02858e-07
3.63095e-07
6.71285e-07
4.01731e-07
9.50224e-07
5.57814e-07
5.68424e-07
5.69795e-07
5.59393e-07
4.00309e-07
8.09928e-07
9.08692e-07
4.79044e-07
5.28605e-07
9.13706e-07
4.80183e-07
8.11039e-07
6.9011e-07
3.76142e-07
2.71877e-07
5.11698e-07
5.11326e-07
3.76542e-07
6.92944e-07
5.75301e-09
6.42487e-10
4.30945e-11
3.88607e-12
3.02427e-12
5.64989e-09
6.3088e-10
4.23481e-11
3.86067e-12
3.01792e-12
5.68647e-09
6.31278e-10
4.27037e-11
4.10253e-12
3.27315e-12
5.77211e-09
6.40909e-10
4.33203e-11
4.12427e-12
3.27912e-12
5.69443e-09
6.32098e-10
4.27507e-11
4.10321e-12
3.27275e-12
5.69451e-09
6.32167e-10
4.2762e-11
4.106e-12
3.27516e-12
5.64218e-09
6.30048e-10
4.22957e-11
3.85853e-12
3.01722e-12
5.64294e-09
6.30164e-10
4.23078e-11
3.86072e-12
3.019e-12
5.64357e-09
6.30181e-10
4.23115e-11
3.8615e-12
3.01963e-12
5.76858e-09
6.40657e-10
4.33037e-11
4.12141e-12
3.27667e-12
5.74279e-09
6.41559e-10
4.30291e-11
3.88038e-12
3.02002e-12
5.74662e-09
6.41976e-10
4.3058e-11
3.8805e-12
3.01948e-12
5.69571e-09
6.32257e-10
4.27661e-11
4.10479e-12
3.27384e-12
5.77302e-09
6.41123e-10
4.33268e-11
4.11991e-12
3.27459e-12
5.48139e-09
6.07778e-10
4.09943e-11
3.93379e-12
3.13692e-12
5.61352e-09
6.24935e-10
4.21671e-11
4.00968e-12
3.18708e-12
5.61408e-09
6.24857e-10
4.21628e-11
4.01167e-12
3.18944e-12
5.48085e-09
6.07855e-10
4.09988e-11
3.93231e-12
3.13513e-12
5.64783e-09
6.30522e-10
4.23243e-11
3.85853e-12
3.01616e-12
5.68517e-09
6.31022e-10
4.26875e-11
4.10223e-12
3.27327e-12
5.67349e-09
6.31062e-10
4.23362e-11
3.88649e-12
3.04713e-12
5.67224e-09
6.30829e-10
4.23214e-11
3.88627e-12
3.04731e-12
5.68554e-09
6.32504e-10
4.24264e-11
3.88836e-12
3.04654e-12
5.68388e-09
6.32235e-10
4.24086e-11
3.88683e-12
3.04533e-12
5.69302e-09
6.3184e-10
4.27343e-11
4.10277e-12
3.27272e-12
5.21507e-09
5.77438e-10
3.92601e-11
3.99955e-12
3.25823e-12
5.67674e-09
6.31338e-10
4.23587e-11
3.88883e-12
3.04887e-12
5.47875e-09
6.07466e-10
4.09755e-11
3.93355e-12
3.13713e-12
5.61211e-09
6.24775e-10
4.21566e-11
4.00936e-12
3.18703e-12
5.61264e-09
6.24696e-10
4.21524e-11
4.01134e-12
3.18938e-12
5.47828e-09
6.07546e-10
4.09801e-11
3.93209e-12
3.13536e-12
5.64013e-09
6.29685e-10
4.22715e-11
3.85641e-12
3.01551e-12
5.61153e-09
6.24634e-10
4.21483e-11
4.008e-12
3.1859e-12
5.47714e-09
6.07392e-10
4.09686e-11
3.93027e-12
3.1339e-12
5.61104e-09
6.24596e-10
4.21425e-11
4.00771e-12
3.18577e-12
5.47716e-09
6.07398e-10
4.09669e-11
3.93048e-12
3.13413e-12
5.23398e-09
5.79754e-10
3.94091e-11
4.0037e-12
3.25838e-12
5.72089e-09
6.36494e-10
4.26874e-11
3.8983e-12
3.04971e-12
5.71963e-09
6.36273e-10
4.26726e-11
3.89658e-12
3.0482e-12
5.76635e-09
6.40343e-10
4.32824e-11
4.1187e-12
3.27422e-12
5.52133e-09
6.12543e-10
4.12881e-11
3.9334e-12
3.12808e-12
5.65585e-09
6.2993e-10
4.24741e-11
4.01019e-12
3.1791e-12
5.65531e-09
6.29814e-10
4.24662e-11
4.00971e-12
3.1788e-12
5.522e-09
6.1268e-10
4.12977e-11
3.93494e-12
3.12953e-12
5.73924e-09
6.41088e-10
4.29968e-11
3.87544e-12
3.01537e-12
5.52183e-09
6.12597e-10
4.12936e-11
3.93345e-12
3.12803e-12
5.65586e-09
6.2991e-10
4.24761e-11
4.01036e-12
3.1792e-12
5.65526e-09
6.2979e-10
4.24679e-11
4.00987e-12
3.1789e-12
5.52254e-09
6.12736e-10
4.13033e-11
3.93492e-12
3.12939e-12
5.74301e-09
6.41497e-10
4.30251e-11
3.87562e-12
3.01491e-12
5.77071e-09
6.40795e-10
4.33048e-11
4.11728e-12
3.27225e-12
5.20447e-09
5.76388e-10
3.91913e-11
3.99624e-12
3.25663e-12
5.21185e-09
5.7727e-10
3.92489e-11
3.99793e-12
3.25691e-12
5.75743e-09
6.37588e-10
4.3084e-11
4.09811e-12
3.25694e-12
5.64209e-09
6.24558e-10
4.22397e-11
4.061e-12
3.24031e-12
5.64371e-09
6.24829e-10
4.22562e-11
4.0613e-12
3.24019e-12
5.1985e-09
5.75694e-10
3.91471e-11
3.99448e-12
3.25594e-12
5.63216e-09
6.26624e-10
4.20633e-11
3.87859e-12
3.04599e-12
5.63256e-09
6.26578e-10
4.20607e-11
3.87934e-12
3.04689e-12
5.20291e-09
5.76148e-10
3.91769e-11
3.99651e-12
3.25733e-12
5.21031e-09
5.77026e-10
3.92337e-11
3.99771e-12
3.25709e-12
5.22191e-09
5.78256e-10
3.93096e-11
3.99873e-12
3.2561e-12
5.71855e-09
6.35993e-10
4.2649e-11
3.89667e-12
3.04918e-12
5.71451e-09
6.35508e-10
4.26182e-11
3.89532e-12
3.04858e-12
5.18651e-09
5.74382e-10
3.90667e-11
3.99269e-12
3.25633e-12
5.63163e-09
6.26465e-10
4.20497e-11
3.87796e-12
3.04589e-12
5.63074e-09
6.26268e-10
4.2037e-11
3.8778e-12
3.04606e-12
5.21836e-09
5.77864e-10
3.92861e-11
3.99885e-12
3.25691e-12
5.18579e-09
5.74223e-10
3.90571e-11
3.99337e-12
3.25739e-12
5.63577e-09
6.23835e-10
4.21938e-11
4.05916e-12
3.2397e-12
5.63737e-09
6.2411e-10
4.22106e-11
4.05948e-12
3.23959e-12
5.63701e-09
6.24104e-10
4.22119e-11
4.06007e-12
3.24015e-12
5.63721e-09
6.24108e-10
4.22122e-11
4.06083e-12
3.24084e-12
5.19858e-09
5.75641e-10
3.91446e-11
3.99543e-12
3.25707e-12
5.23381e-09
5.79664e-10
3.94035e-11
4.00325e-12
3.25803e-12
5.74445e-09
6.36167e-10
4.29885e-11
4.08901e-12
3.2496e-12
5.7477e-09
6.36578e-10
4.30165e-11
4.09349e-12
3.25385e-12
5.74581e-09
6.3636e-10
4.3001e-11
4.08904e-12
3.24936e-12
5.74898e-09
6.36763e-10
4.30284e-11
4.09332e-12
3.2534e-12
3.40231e-08
3.34782e-08
9.40256e-07
1.46333e-07
1.43824e-07
2.56999e-07
6.96064e-08
5.07365e-07
9.57098e-07
2.63673e-07
1.14152e-06
2.56958e-07
6.95054e-08
5.07344e-07
9.51072e-07
1.14108e-06
2.63358e-07
9.51829e-07
2.63646e-07
6.95228e-08
3.34255e-08
9.25427e-07
1.4361e-07
1.48081e-07
3.43231e-08
5.28474e-07
9.8027e-07
1.14369e-06
2.7168e-07
5.28464e-07
9.80184e-07
1.14384e-06
2.71836e-07
2.68912e-07
7.21368e-08
2.68909e-07
7.21879e-08
9.25825e-07
1.44252e-07
1.47983e-07
3.34783e-08
3.43566e-08
2.88102e-08
2.85378e-08
8.74953e-08
6.76034e-08
3.58339e-07
2.2071e-07
6.60365e-08
3.54699e-07
2.19747e-07
5.03857e-08
2.21145e-07
5.83267e-08
2.58013e-07
4.9974e-08
2.22244e-07
5.8818e-08
2.9157e-08
1.36045e-07
7.01812e-08
2.89801e-08
1.37134e-07
5.03567e-08
5.83105e-08
2.21015e-07
2.57971e-07
4.99454e-08
5.88018e-08
2.22123e-07
2.91267e-08
1.35858e-07
7.00829e-08
2.89495e-08
1.36951e-07
2.91233e-08
1.35848e-07
7.01e-08
2.89463e-08
1.36937e-07
3.36072e-08
8.85519e-08
2.86415e-08
2.88845e-08
8.77096e-08
2.87381e-08
2.90728e-08
2.1932e-07
6.61685e-08
3.53624e-07
1.44783e-07
3.53816e-07
2.18079e-07
6.65613e-08
2.21755e-07
6.78414e-08
3.60649e-07
1.48775e-07
2.21548e-07
6.8305e-08
3.60096e-07
3.44609e-08
5.17598e-08
2.31194e-07
6.04092e-08
2.69222e-07
5.1649e-08
2.31585e-07
6.04218e-08
3.01396e-08
1.42814e-07
7.2531e-08
3.0035e-08
1.43469e-07
5.17631e-08
2.31228e-07
6.04085e-08
2.69224e-07
5.16587e-08
2.31612e-07
6.04225e-08
3.01421e-08
1.42874e-07
7.2583e-08
3.00438e-08
1.43506e-07
8.82116e-08
2.86313e-08
2.87811e-08
8.74794e-08
2.87612e-08
2.8901e-08
2.20553e-07
6.69457e-08
3.55974e-07
1.45318e-07
2.19717e-07
3.55835e-07
6.73753e-08
2.22363e-07
6.70858e-08
3.6039e-07
1.48791e-07
2.21639e-07
3.6009e-07
6.74509e-08
3.36606e-08
3.4491e-08
1.1037e-06
1.06321e-06
1.06027e-06
1.03478e-06
1.10363e-06
1.06341e-06
1.06021e-06
1.03471e-06
1.10208e-06
1.05923e-06
1.05895e-06
1.03354e-06
1.10233e-06
1.05925e-06
1.05894e-06
1.03354e-06
5.64894e-07
5.6137e-07
4.03141e-07
7.71062e-07
4.61241e-07
8.65288e-07
5.0601e-07
7.73836e-07
4.60603e-07
8.60409e-07
6.64642e-07
3.63421e-07
4.97537e-07
2.64499e-07
4.98087e-07
6.63988e-07
3.63825e-07
7.71639e-07
8.66377e-07
4.60997e-07
5.06023e-07
7.74515e-07
8.61471e-07
4.6045e-07
6.65334e-07
3.63029e-07
4.9827e-07
2.64206e-07
6.64486e-07
3.63507e-07
4.99056e-07
6.65762e-07
3.63126e-07
4.99558e-07
2.64476e-07
6.64883e-07
3.63597e-07
5.00277e-07
4.00889e-07
9.36252e-07
5.56167e-07
5.67089e-07
5.54747e-07
4.01385e-07
5.66034e-07
8.08372e-07
9.11862e-07
4.79817e-07
5.2597e-07
8.07837e-07
9.04444e-07
4.78764e-07
6.89002e-07
3.76342e-07
5.09068e-07
2.71953e-07
6.84581e-07
5.10182e-07
3.76579e-07
8.08321e-07
9.11828e-07
4.79919e-07
5.2596e-07
8.08023e-07
9.0431e-07
4.788e-07
6.89079e-07
3.76504e-07
5.08942e-07
2.72109e-07
6.84774e-07
3.76687e-07
5.10143e-07
4.02624e-07
9.37042e-07
5.58603e-07
5.66853e-07
4.03119e-07
5.56882e-07
5.6578e-07
1.10409e-06
9.6459e-07
1.10408e-06
9.62624e-07
9.88001e-07
9.46873e-07
9.5146e-07
9.34718e-07
9.85851e-07
9.85245e-07
9.8956e-07
9.88981e-07
9.51077e-07
9.3428e-07
9.64391e-07
9.62474e-07
9.72755e-07
9.70955e-07
9.62972e-07
9.72972e-07
9.7159e-07
9.46602e-07
9.85427e-07
9.84807e-07
9.46026e-07
9.62406e-07
9.60449e-07
9.60935e-07
9.46186e-07
9.87814e-07
2.69501e-07
7.2279e-08
7.22462e-08
2.69192e-07
3.43229e-08
3.43081e-08
2.57775e-07
6.97856e-08
6.9699e-08
2.56623e-07
1.1039e-06
1.10409e-06
1.10415e-06
1.10411e-06
1.10392e-06
1.1041e-06
1.10416e-06
5.04583e-07
2.63378e-07
1.14067e-06
9.71764e-07
2.6406e-07
1.14062e-06
5.07664e-07
2.69749e-07
7.22887e-08
2.6911e-07
7.22332e-08
3.43274e-08
3.43118e-08
2.57497e-07
6.97835e-08
2.56804e-07
6.96829e-08
1.1039e-06
1.10408e-06
1.10414e-06
5.05056e-07
2.63514e-07
1.14069e-06
9.74493e-07
5.07351e-07
2.63739e-07
1.14056e-06
3.35034e-08
3.3476e-08
5.27356e-07
1.14412e-06
2.7174e-07
9.92818e-07
1.14412e-06
2.71785e-07
5.28115e-07
1.44616e-07
1.48227e-07
9.38823e-07
1.44276e-07
1.48057e-07
3.43529e-08
3.43384e-08
3.35463e-08
3.35143e-08
1.48374e-07
1.44243e-07
9.3224e-07
1.48155e-07
1.43924e-07
3.4337e-08
3.43541e-08
3.35144e-08
3.35449e-08
9.49555e-07
1.48155e-07
1.43913e-07
1.48392e-07
1.44247e-07
2.69374e-07
7.22105e-08
7.21683e-08
2.69061e-07
5.269e-07
2.71499e-07
1.14247e-06
9.8915e-07
2.71629e-07
1.14246e-06
5.28851e-07
5.26705e-07
2.71258e-07
1.14236e-06
9.88585e-07
2.71406e-07
1.14236e-06
5.2869e-07
2.69125e-07
7.22298e-08
7.22926e-08
2.69592e-07
2.68998e-07
7.21612e-08
7.22143e-08
2.69432e-07
5.28743e-07
9.85617e-07
2.71654e-07
1.14246e-06
2.71506e-07
1.14247e-06
5.27093e-07
5.28596e-07
9.85064e-07
2.71389e-07
1.14236e-06
2.71266e-07
1.14237e-06
5.26896e-07
1.48006e-07
1.44424e-07
9.31805e-07
1.47784e-07
1.44108e-07
3.3534e-08
3.34972e-08
3.43116e-08
3.43238e-08
9.49133e-07
1.47799e-07
1.44115e-07
1.48019e-07
1.44429e-07
3.34955e-08
3.35267e-08
5.04705e-07
2.63404e-07
1.14092e-06
9.71559e-07
2.64101e-07
1.14086e-06
5.07717e-07
2.57726e-07
6.96832e-08
2.5655e-07
6.9598e-08
5.04695e-07
1.1405e-06
2.63129e-07
9.6974e-07
1.14045e-06
5.07718e-07
2.63831e-07
2.56671e-07
6.96971e-08
6.97828e-08
2.57637e-07
5.0772e-07
9.63502e-07
2.64057e-07
1.14086e-06
2.63421e-07
1.14093e-06
5.04955e-07
2.56629e-07
6.95976e-08
2.57575e-07
6.96827e-08
5.07707e-07
9.61562e-07
1.14045e-06
2.63798e-07
1.14051e-06
5.04964e-07
2.63149e-07
2.5775e-07
6.97162e-08
6.96272e-08
2.5655e-07
5.04665e-07
1.14042e-06
2.63361e-07
9.70128e-07
1.14036e-06
5.07745e-07
2.64001e-07
2.57731e-07
6.97036e-08
2.56537e-07
6.96144e-08
5.07625e-07
9.637e-07
2.64038e-07
1.14063e-06
2.63354e-07
1.1407e-06
5.04926e-07
2.5666e-07
6.96298e-08
6.97116e-08
2.57592e-07
5.07675e-07
9.61663e-07
1.14037e-06
2.64012e-07
1.14044e-06
5.04986e-07
2.63318e-07
2.56635e-07
6.96194e-08
2.5758e-07
6.96994e-08
3.43525e-08
3.43352e-08
3.35423e-08
3.35158e-08
1.48382e-07
1.44232e-07
9.38599e-07
1.48161e-07
1.43912e-07
2.69618e-07
7.22197e-08
2.6898e-07
7.21672e-08
5.27594e-07
2.71541e-07
1.14246e-06
9.90231e-07
5.28386e-07
2.7162e-07
1.14247e-06
5.2741e-07
2.71255e-07
1.14236e-06
9.89846e-07
5.28222e-07
2.71405e-07
1.14237e-06
1.48023e-07
1.4442e-07
9.37725e-07
1.47835e-07
1.44026e-07
3.35242e-08
3.3505e-08
5.05113e-07
2.63535e-07
1.14093e-06
9.74395e-07
5.074e-07
2.63849e-07
1.14083e-06
2.57447e-07
6.9683e-08
2.5673e-07
6.95796e-08
5.05106e-07
1.14051e-06
2.63269e-07
9.72592e-07
5.07395e-07
1.14041e-06
2.63597e-07
2.57469e-07
6.97141e-08
2.56739e-07
6.96074e-08
5.05118e-07
1.14044e-06
2.63488e-07
9.73302e-07
5.07429e-07
1.14035e-06
2.63825e-07
2.57448e-07
6.97056e-08
2.56731e-07
6.96016e-08
1.44181e-07
1.48518e-07
9.38915e-07
1.43854e-07
1.48362e-07
3.43896e-08
3.43791e-08
1.48474e-07
3.43968e-08
5.27301e-07
1.14417e-06
2.71706e-07
9.92292e-07
1.14418e-06
2.71794e-07
5.28082e-07
2.69591e-07
7.22809e-08
7.22317e-08
2.6891e-07
2.69572e-07
7.2308e-08
7.22602e-08
2.68892e-07
5.2803e-07
2.71675e-07
5.27993e-07
2.7168e-07
2.68476e-07
7.22781e-08
2.68449e-07
7.23055e-08
3.35456e-08
3.35122e-08
3.43877e-08
3.43787e-08
1.48231e-07
3.43964e-08
5.17566e-08
6.04798e-08
2.31734e-07
2.69146e-07
6.05178e-08
2.31444e-07
5.17243e-08
3.00897e-08
7.22378e-08
1.43184e-07
1.43052e-07
3.00938e-08
3.00967e-08
1.43063e-07
7.22895e-08
1.43193e-07
3.00922e-08
5.17209e-08
2.6952e-07
6.05167e-08
2.31483e-07
6.04784e-08
2.31763e-07
5.17549e-08
3.43073e-08
3.43226e-08
5.00961e-08
2.21871e-07
5.83705e-08
2.56683e-07
2.20922e-07
5.84683e-08
5.00127e-08
2.90127e-08
6.97013e-08
1.36482e-07
1.36185e-07
2.90407e-08
2.90399e-08
1.36175e-07
6.9784e-08
1.36485e-07
2.90122e-08
5.00149e-08
2.5782e-07
2.20897e-07
5.84698e-08
2.21948e-07
5.83719e-08
5.00987e-08
5.17602e-08
2.69e-07
6.05665e-08
2.31769e-07
6.05206e-08
2.3143e-07
5.17566e-08
3.00898e-08
1.43206e-07
7.22287e-08
3.00951e-08
1.43043e-07
5.17228e-08
2.69617e-07
6.05209e-08
2.31496e-07
5.17586e-08
6.04813e-08
2.31756e-07
3.00963e-08
1.43075e-07
7.22983e-08
1.43204e-07
3.01019e-08
3.43135e-08
3.43274e-08
5.00916e-08
2.56916e-07
2.21612e-07
5.83679e-08
2.21142e-07
5.84618e-08
5.00093e-08
2.90139e-08
1.36479e-07
6.96914e-08
2.90371e-08
1.36173e-07
5.00152e-08
2.57625e-07
2.21067e-07
5.84637e-08
5.00946e-08
2.2176e-07
5.83723e-08
2.90356e-08
1.36173e-07
6.97902e-08
1.36486e-07
2.90139e-08
3.34767e-08
3.35014e-08
8.80369e-08
2.87262e-08
2.89046e-08
2.87681e-08
2.89297e-08
8.77859e-08
2.19079e-07
3.5534e-07
1.4429e-07
6.7114e-08
3.54677e-07
6.70111e-08
2.18675e-07
2.21973e-07
3.60347e-07
1.48009e-07
6.74008e-08
3.59464e-07
6.73222e-08
2.21762e-07
2.18879e-07
6.69848e-08
1.44604e-07
3.54737e-07
3.55377e-07
6.70769e-08
2.1916e-07
2.2169e-07
6.73013e-08
1.48243e-07
3.59411e-07
3.60316e-07
6.73702e-08
2.2185e-07
8.78697e-08
2.88063e-08
2.89304e-08
2.87593e-08
2.89108e-08
8.81407e-08
3.43374e-08
3.4354e-08
3.35144e-08
3.35457e-08
8.76381e-08
2.88469e-08
2.85624e-08
2.88668e-08
2.85864e-08
8.74813e-08
2.21483e-07
3.60975e-07
1.48145e-07
6.79692e-08
6.79124e-08
3.60049e-07
2.21092e-07
2.20139e-07
3.54668e-07
1.4392e-07
6.61843e-08
6.61086e-08
3.53972e-07
2.19613e-07
2.21054e-07
6.79138e-08
1.48381e-07
3.60055e-07
6.79688e-08
2.21466e-07
3.60963e-07
2.19583e-07
6.61092e-08
1.44246e-07
3.54014e-07
6.61831e-08
2.20114e-07
3.54647e-07
8.74697e-08
2.88664e-08
2.85861e-08
2.88458e-08
2.85614e-08
8.76347e-08
3.43535e-08
3.43384e-08
3.35435e-08
3.35145e-08
8.7488e-08
2.88676e-08
2.85869e-08
8.76587e-08
2.8847e-08
2.85624e-08
2.21182e-07
3.60071e-07
1.48392e-07
6.79125e-08
6.79719e-08
3.60966e-07
2.2148e-07
2.19712e-07
3.54025e-07
1.44239e-07
6.61077e-08
6.61812e-08
3.54653e-07
2.20099e-07
2.21514e-07
6.7972e-08
3.60965e-07
1.48161e-07
2.21118e-07
6.79161e-08
3.60064e-07
2.20147e-07
6.6183e-08
3.54661e-07
1.43921e-07
2.19646e-07
6.61098e-08
3.53986e-07
8.76568e-08
2.88451e-08
2.85608e-08
2.8866e-08
2.85851e-08
8.74662e-08
5.17132e-08
6.0449e-08
2.3152e-07
2.69041e-07
6.04903e-08
2.31241e-07
5.16775e-08
3.00536e-08
7.2166e-08
1.43019e-07
1.42888e-07
3.00582e-08
3.00598e-08
1.42893e-07
7.22128e-08
1.43028e-07
3.00547e-08
5.1678e-08
2.69393e-07
6.0491e-08
2.31251e-07
6.04514e-08
2.31543e-07
5.1713e-08
5.17265e-08
6.05196e-08
2.31454e-07
2.69537e-07
5.17606e-08
6.04808e-08
2.31765e-07
3.0096e-08
7.2287e-08
1.43052e-07
3.0089e-08
1.43219e-07
3.00914e-08
1.43215e-07
7.22414e-08
3.00979e-08
1.43069e-07
5.17608e-08
2.69139e-07
6.04806e-08
2.31788e-07
5.17242e-08
6.05202e-08
2.31501e-07
5.16775e-08
6.04882e-08
2.31232e-07
2.69379e-07
5.1713e-08
6.0448e-08
2.31517e-07
3.00599e-08
7.22139e-08
1.42885e-07
1.43048e-07
3.00538e-08
3.00543e-08
1.43042e-07
7.21669e-08
3.00603e-08
1.42895e-07
5.17143e-08
2.68988e-07
6.0451e-08
2.31538e-07
6.04897e-08
2.31253e-07
5.16792e-08
8.78832e-08
2.88488e-08
2.86883e-08
2.88792e-08
2.87287e-08
8.76575e-08
2.21719e-07
3.59511e-07
1.47779e-07
6.72566e-08
6.71746e-08
3.58626e-07
2.21344e-07
2.18944e-07
3.5513e-07
1.4411e-07
6.70948e-08
3.54454e-07
6.69954e-08
2.18316e-07
2.21303e-07
6.7132e-08
1.48013e-07
3.5864e-07
6.72158e-08
3.59512e-07
2.21647e-07
2.1848e-07
6.69727e-08
1.44431e-07
3.54539e-07
3.55175e-07
6.70632e-08
2.19077e-07
8.77383e-08
2.88898e-08
2.87606e-08
2.88636e-08
2.87174e-08
8.79847e-08
3.35004e-08
3.353e-08
3.43254e-08
3.43098e-08
8.75944e-08
2.88619e-08
2.87022e-08
8.78082e-08
2.88313e-08
2.86682e-08
2.21269e-07
3.5867e-07
1.48025e-07
6.70653e-08
3.59468e-07
6.7144e-08
2.21495e-07
2.18719e-07
3.5458e-07
1.44429e-07
6.69552e-08
6.70312e-08
3.55238e-07
2.19257e-07
2.21576e-07
6.71775e-08
3.59491e-07
1.4779e-07
3.58645e-07
2.21278e-07
6.70962e-08
2.19177e-07
6.70421e-08
3.5522e-07
1.44106e-07
2.1861e-07
6.69599e-08
3.54525e-07
8.77559e-08
2.88138e-08
2.86551e-08
2.88442e-08
2.86844e-08
8.75458e-08
3.35246e-08
3.34957e-08
5.00617e-08
5.83516e-08
2.56622e-07
2.21731e-07
5.84492e-08
2.20751e-07
4.99788e-08
2.89802e-08
1.36287e-07
6.95991e-08
1.35991e-07
2.90079e-08
4.99796e-08
2.57751e-07
5.84499e-08
2.20707e-07
5.83523e-08
2.2177e-07
5.00629e-08
2.90075e-08
1.35986e-07
6.96821e-08
1.36292e-07
2.89802e-08
5.00133e-08
2.20898e-07
5.84657e-08
2.57682e-07
5.00936e-08
2.21795e-07
5.83703e-08
2.90376e-08
6.97826e-08
1.36165e-07
2.90129e-08
1.36475e-07
2.90122e-08
1.36479e-07
6.96981e-08
2.90385e-08
1.36164e-07
5.0094e-08
2.56694e-07
2.21785e-07
5.83716e-08
5.00158e-08
2.20951e-07
5.84643e-08
4.99787e-08
5.84468e-08
2.57642e-07
2.2076e-07
5.00597e-08
5.8351e-08
2.21664e-07
2.90055e-08
1.35979e-07
6.96834e-08
1.36291e-07
2.89806e-08
5.00587e-08
2.56644e-07
5.83516e-08
2.21618e-07
5.84447e-08
2.20794e-07
4.99798e-08
2.89803e-08
1.36292e-07
6.95988e-08
2.90066e-08
1.3598e-07
5.00657e-08
2.21791e-07
5.83535e-08
2.56629e-07
2.20811e-07
5.84506e-08
4.9984e-08
2.89837e-08
6.96312e-08
1.3633e-07
1.36039e-07
2.90109e-08
2.901e-08
1.36031e-07
6.97127e-08
1.36333e-07
2.89834e-08
4.99848e-08
2.57755e-07
2.20749e-07
5.84507e-08
2.21819e-07
5.83534e-08
5.00666e-08
5.00588e-08
5.83472e-08
2.56608e-07
2.21742e-07
5.84434e-08
2.20757e-07
4.9977e-08
2.8981e-08
1.36298e-07
6.96185e-08
1.36e-07
2.90088e-08
4.9978e-08
2.57744e-07
5.84443e-08
2.20713e-07
5.83476e-08
2.2178e-07
5.00605e-08
2.90081e-08
1.35993e-07
6.97002e-08
1.36301e-07
2.89809e-08
4.99834e-08
2.2082e-07
5.84488e-08
2.57677e-07
5.00634e-08
2.21713e-07
5.8353e-08
2.90079e-08
6.9715e-08
1.36025e-07
1.36331e-07
2.8984e-08
2.89835e-08
1.36331e-07
6.96288e-08
2.90088e-08
1.36023e-07
5.0062e-08
2.56672e-07
2.21655e-07
5.83532e-08
2.2084e-07
5.84463e-08
4.99846e-08
4.99773e-08
5.84416e-08
2.57658e-07
2.20768e-07
5.00571e-08
5.83469e-08
2.21675e-07
2.90069e-08
1.35991e-07
6.97039e-08
1.363e-07
2.89822e-08
5.00564e-08
2.56655e-07
5.83471e-08
2.21625e-07
5.84393e-08
2.20802e-07
4.99786e-08
2.89815e-08
1.363e-07
6.96166e-08
2.90074e-08
1.35989e-07
3.43364e-08
3.43522e-08
3.35151e-08
3.35409e-08
8.76483e-08
2.88468e-08
2.8563e-08
2.8865e-08
2.85835e-08
8.74656e-08
2.21382e-07
3.60953e-07
6.79676e-08
1.48147e-07
2.21149e-07
6.79085e-08
3.60068e-07
2.19994e-07
3.54654e-07
6.61788e-08
1.43912e-07
2.19692e-07
6.61048e-08
3.53948e-07
8.74521e-08
2.88645e-08
2.85834e-08
8.76399e-08
2.8845e-08
2.8561e-08
2.21142e-07
6.79089e-08
1.48371e-07
3.60062e-07
6.79667e-08
2.21348e-07
3.60949e-07
2.19706e-07
6.61023e-08
1.44235e-07
3.53973e-07
6.61779e-08
2.19944e-07
3.54647e-07
5.17198e-08
2.68891e-07
6.05391e-08
2.31547e-07
6.04958e-08
2.31242e-07
5.17118e-08
3.00546e-08
1.43042e-07
7.21615e-08
3.00603e-08
1.4288e-07
5.16814e-08
2.69493e-07
6.04944e-08
2.3127e-07
6.0455e-08
5.17171e-08
2.31545e-07
3.00607e-08
1.42907e-07
7.22301e-08
1.43039e-07
3.00657e-08
8.7932e-08
2.88393e-08
2.87153e-08
2.88755e-08
2.869e-08
8.77602e-08
2.20979e-07
3.59471e-07
6.71123e-08
1.4782e-07
6.70661e-08
2.21201e-07
3.58691e-07
2.19837e-07
3.55243e-07
6.70311e-08
1.44168e-07
3.54553e-07
2.18862e-07
6.69292e-08
8.75768e-08
2.88285e-08
2.86719e-08
2.88059e-08
8.77176e-08
2.86513e-08
2.19839e-07
6.72091e-08
1.47979e-07
3.58277e-07
6.72685e-08
3.59041e-07
2.20349e-07
2.20368e-07
6.695e-08
1.44462e-07
3.54812e-07
3.55629e-07
6.69675e-08
2.19978e-07
3.34991e-08
3.35299e-08
5.00574e-08
2.56851e-07
5.83492e-08
2.21473e-07
5.84426e-08
2.20973e-07
4.99759e-08
2.89809e-08
1.3629e-07
6.95897e-08
2.90043e-08
1.35979e-07
4.99797e-08
2.57554e-07
5.84439e-08
2.20878e-07
5.83527e-08
5.00586e-08
2.21584e-07
2.90023e-08
1.35972e-07
6.96877e-08
1.36288e-07
2.89805e-08
5.00619e-08
2.56866e-07
2.2153e-07
5.83516e-08
2.21032e-07
5.84446e-08
4.99818e-08
2.89846e-08
1.36333e-07
6.96194e-08
1.36027e-07
2.90071e-08
4.9985e-08
2.5756e-07
2.20922e-07
5.84454e-08
2.21631e-07
5.00624e-08
5.83546e-08
2.90052e-08
1.36019e-07
6.97143e-08
1.36331e-07
2.89843e-08
5.00567e-08
2.56852e-07
5.83459e-08
2.21486e-07
5.84388e-08
2.20987e-07
4.99754e-08
2.89824e-08
1.36302e-07
6.96127e-08
2.90059e-08
1.35993e-07
4.99788e-08
2.57547e-07
5.84396e-08
2.20889e-07
5.00575e-08
5.83487e-08
2.21593e-07
2.90038e-08
1.35988e-07
6.97099e-08
1.36303e-07
2.8982e-08
8.76997e-08
2.8564e-08
2.88833e-08
2.85782e-08
2.8898e-08
8.75823e-08
2.20049e-07
3.54445e-07
1.43859e-07
6.61018e-08
6.60275e-08
3.53842e-07
2.19823e-07
2.21556e-07
3.61349e-07
1.48306e-07
6.81062e-08
3.60424e-07
6.80472e-08
2.21228e-07
2.19785e-07
6.6045e-08
1.44174e-07
3.5389e-07
6.61028e-08
3.54441e-07
2.19583e-07
2.21235e-07
6.80268e-08
1.48503e-07
3.60419e-07
3.61341e-07
6.81138e-08
2.22071e-07
8.74947e-08
2.85764e-08
2.88966e-08
2.85545e-08
2.88776e-08
8.7686e-08
3.43753e-08
3.43916e-08
2.89315e-08
6.80479e-08
5.17048e-08
2.31598e-07
6.05114e-08
2.68846e-07
2.31279e-07
6.04626e-08
5.17014e-08
3.00621e-08
7.22217e-08
1.43105e-07
1.42939e-07
3.00678e-08
3.00675e-08
1.42971e-07
7.22888e-08
1.43096e-07
3.00768e-08
5.16684e-08
2.69444e-07
2.31296e-07
6.04641e-08
2.31572e-07
6.04254e-08
5.17027e-08
5.17081e-08
2.31591e-07
6.05097e-08
2.68821e-07
2.31253e-07
6.04608e-08
5.17051e-08
3.00635e-08
7.22508e-08
1.43116e-07
1.42959e-07
3.00684e-08
3.00711e-08
1.43005e-07
7.23215e-08
1.43128e-07
3.00796e-08
5.16687e-08
2.6942e-07
2.31288e-07
6.04614e-08
2.31554e-07
6.04218e-08
5.17046e-08
2.31056e-07
6.03311e-08
5.16468e-08
1.43132e-07
3.00571e-08
2.31042e-07
6.03275e-08
5.16484e-08
1.43161e-07
3.00588e-08
3.35161e-08
3.35401e-08
3.43736e-08
3.43916e-08
2.89201e-08
6.73483e-08
1.05936e-06
1.06262e-06
1.1041e-06
1.05936e-06
1.06263e-06
1.03427e-06
1.03427e-06
1.05936e-06
1.06262e-06
1.10411e-06
1.05937e-06
1.06264e-06
1.03427e-06
1.03427e-06
4.00805e-07
5.61709e-07
5.70509e-07
9.28457e-07
5.5478e-07
5.64119e-07
4.02767e-07
4.01289e-07
5.67819e-07
5.65915e-07
9.26903e-07
5.60149e-07
5.56416e-07
4.03525e-07
4.03453e-07
9.55537e-07
5.61026e-07
5.58769e-07
5.67524e-07
5.66467e-07
4.01415e-07
4.0026e-07
5.65757e-07
5.67113e-07
9.26432e-07
5.57492e-07
5.58099e-07
4.02377e-07
4.02608e-07
9.55069e-07
5.58895e-07
5.59785e-07
5.6532e-07
5.67686e-07
4.00634e-07
4.01362e-07
5.67099e-07
5.64243e-07
9.2859e-07
4.03408e-07
5.60864e-07
5.57296e-07
4.00591e-07
5.64874e-07
5.65428e-07
9.28091e-07
5.58104e-07
4.02605e-07
5.58839e-07
4.01679e-07
5.5981e-07
5.71928e-07
9.28472e-07
5.65506e-07
5.53168e-07
4.03665e-07
1.05932e-06
1.06256e-06
1.10391e-06
1.05933e-06
1.06257e-06
1.03425e-06
1.03425e-06
1.06224e-06
1.05978e-06
1.1041e-06
1.06225e-06
1.05978e-06
1.03427e-06
1.03426e-06
1.06223e-06
1.05979e-06
1.10416e-06
1.06224e-06
1.0598e-06
1.03427e-06
1.03427e-06
1.10408e-06
1.05936e-06
1.06264e-06
1.05935e-06
1.06262e-06
1.03427e-06
1.03427e-06
1.1039e-06
1.05933e-06
1.06257e-06
1.05932e-06
1.06255e-06
1.03425e-06
1.03425e-06
1.10408e-06
1.06225e-06
1.05978e-06
1.06223e-06
1.05978e-06
1.03426e-06
1.03427e-06
1.10414e-06
1.06225e-06
1.0598e-06
1.06223e-06
1.05979e-06
1.03427e-06
1.03427e-06
7.85254e-07
4.59161e-07
8.5838e-07
5.07544e-07
4.612e-07
8.82012e-07
7.69127e-07
6.59778e-07
5.0082e-07
2.6413e-07
3.63024e-07
4.95818e-07
3.62818e-07
6.70605e-07
6.72701e-07
3.62864e-07
2.63367e-07
4.97191e-07
5.01954e-07
3.6304e-07
6.62545e-07
7.64458e-07
5.04306e-07
4.61218e-07
8.77149e-07
4.58927e-07
8.52243e-07
7.81631e-07
1.05932e-06
1.06255e-06
1.10392e-06
1.05933e-06
1.06258e-06
1.03425e-06
1.03425e-06
1.06223e-06
1.05978e-06
1.10411e-06
1.06226e-06
1.05979e-06
1.03427e-06
1.03427e-06
1.06223e-06
1.05979e-06
1.10416e-06
1.06226e-06
1.05983e-06
1.03427e-06
1.03427e-06
7.83392e-07
5.07146e-07
4.5941e-07
8.66089e-07
4.60982e-07
8.79541e-07
7.74951e-07
6.61135e-07
4.99591e-07
3.63071e-07
2.63921e-07
6.67874e-07
4.96275e-07
3.62777e-07
7.66412e-07
5.04807e-07
4.61075e-07
8.71228e-07
7.77248e-07
4.59226e-07
8.54689e-07
6.71439e-07
3.62756e-07
2.63486e-07
4.98752e-07
5.01399e-07
3.63065e-07
6.66265e-07
8.12106e-07
9.09084e-07
4.78741e-07
5.27978e-07
9.1513e-07
4.80369e-07
8.09694e-07
6.8753e-07
5.11696e-07
2.71811e-07
3.76625e-07
5.09746e-07
3.75896e-07
6.8951e-07
6.89676e-07
3.75836e-07
2.71701e-07
5.10283e-07
5.11754e-07
3.76669e-07
6.88815e-07
8.06225e-07
5.26984e-07
9.11134e-07
4.80336e-07
9.0456e-07
4.78629e-07
8.09401e-07
4.02827e-07
9.5497e-07
5.57629e-07
5.64569e-07
5.63494e-07
5.70391e-07
4.0089e-07
4.03457e-07
9.56206e-07
5.60589e-07
5.57858e-07
4.01305e-07
5.67909e-07
5.66889e-07
4.01347e-07
9.27437e-07
5.67481e-07
5.65229e-07
4.03448e-07
5.60393e-07
5.56709e-07
8.13826e-07
4.78861e-07
9.0868e-07
5.28812e-07
4.80603e-07
9.16564e-07
8.08441e-07
6.87531e-07
5.13801e-07
2.7164e-07
3.76494e-07
3.75957e-07
5.1054e-07
6.91934e-07
6.92205e-07
3.75958e-07
2.71475e-07
5.10845e-07
3.76489e-07
5.13906e-07
6.88201e-07
8.06638e-07
5.26752e-07
4.80608e-07
9.14436e-07
4.78811e-07
9.06279e-07
8.12358e-07
8.13591e-07
4.78535e-07
9.08521e-07
5.28651e-07
4.80302e-07
9.16405e-07
8.08193e-07
6.87056e-07
5.12748e-07
2.71414e-07
3.76234e-07
3.75697e-07
5.09513e-07
6.91472e-07
6.91738e-07
3.75706e-07
2.71242e-07
5.09836e-07
3.76233e-07
6.87738e-07
5.12844e-07
8.06384e-07
5.2655e-07
4.80314e-07
9.1429e-07
4.78476e-07
9.06121e-07
8.12122e-07
8.06849e-07
4.8057e-07
9.13861e-07
5.26943e-07
8.11694e-07
4.78832e-07
9.06344e-07
6.91659e-07
5.11263e-07
2.71548e-07
3.75938e-07
5.13578e-07
3.7652e-07
6.8889e-07
6.87962e-07
3.76496e-07
5.13449e-07