/*--------------------------------*- C++ -*----------------------------------*\
| =========                 |                                                 |
| \\      /  F ield         | OpenFOAM: The Open Source CFD Toolbox           |
|  \\    /   O peration     | Version:  2206                                  |
|   \\  /    A nd           | Website:  www.openfoam.com                      |
|    \\/     M anipulation  |                                                 |
\*---------------------------------------------------------------------------*/
FoamFile
{
    version     2.0;
    format      ascii;
    arch        "LSB;label=32;scalar=64";
    class       surfaceScalarField;
    location    "0.4";
    object      phi;
}
// * * * * * * * * * * * * * * * * * * * * * * * * * * * * * * * * * * * * * //

dimensions      [0 3 -1 0 0 0 0];

oriented        oriented;

internalField   nonuniform List<scalar> 
196294
(
-1.18771e-11
8.59868e-11
1.1147e-11
2.73829e-12
1.48062e-08
5.19844e-11
4.4932e-14
-4.7229e-12
-1.66478e-11
-2.11784e-08
2.11478e-08
-2.3154e-12
1.31959e-11
3.52997e-12
-1.47172e-08
1.54391e-12
1.47012e-08
-5.19321e-11
-1.38199e-13
-1.08349e-11
9.35893e-11
-2.47997e-08
2.4769e-08
-1.52974e-11
-1.3439e-11
1.73717e-11
2.26281e-11
2.21835e-08
8.21132e-12
-4.3404e-12
9.84677e-11
-1.32019e-10
1.331e-10
-9.86838e-11
1.13143e-07
2.16273e-12
5.48946e-12
-7.42808e-09
1.93972e-12
7.41848e-09
-1.8565e-13
-1.7308e-11
1.77355e-11
-4.71995e-12
-2.54167e-08
2.54212e-08
1.08412e-12
4.19022e-11
-1.27705e-12
-3.12741e-12
-2.76376e-11
2.5079e-11
4.36494e-12
-4.14897e-11
-9.75913e-12
1.43315e-11
1.11856e-07
-3.71304e-11
2.35351e-12
-4.00242e-12
6.2779e-12
-6.35575e-12
3.10386e-12
1.12609e-07
-6.67794e-12
-5.7669e-12
9.49203e-12
-2.25797e-08
3.18818e-12
2.25794e-08
-2.84028e-11
-4.24395e-11
-2.70913e-08
-4.95503e-11
-3.19187e-11
2.72436e-08
1.15379e-11
-5.37802e-12
-4.50991e-12
-2.33681e-08
2.34941e-11
2.33429e-08
6.77043e-12
-3.18359e-12
-2.81094e-12
-2.35037e-08
1.51641e-11
2.34878e-08
3.12466e-11
3.38984e-12
7.47078e-09
4.90867e-12
-7.42937e-09
2.07273e-12
7.42007e-09
-4.00647e-11
-3.30795e-11
-2.7079e-08
-3.95958e-11
-4.04755e-11
2.72322e-08
6.01695e-11
-2.21679e-11
1.24264e-10
2.34922e-08
1.1509e-11
-4.87418e-12
-2.31896e-08
2.31004e-11
2.31648e-08
9.88665e-10
-3.38325e-11
-9.90114e-11
9.33422e-12
-3.51288e-10
-4.48496e-10
1.128e-07
7.45118e-11
2.07059e-10
2.23141e-08
-5.26612e-12
-4.79051e-11
-5.29615e-12
2.32785e-08
2.32366e-12
1.98281e-12
7.42114e-09
-8.6724e-14
-1.08614e-11
9.36965e-11
-2.47986e-08
2.47678e-08
1.58868e-10
-8.85788e-11
-3.63844e-11
-2.86913e-11
2.9174e-11
5.90304e-11
-5.78908e-11
5.71165e-11
-5.62503e-11
1.10794e-07
1.70757e-11
-2.21881e-08
2.49077e-11
2.21708e-08
3.44127e-11
-8.47985e-11
9.84004e-11
-1.32457e-10
1.33017e-10
-9.7269e-11
1.13373e-07
5.19699e-11
-1.66219e-11
-4.62196e-12
-2.11751e-08
2.11444e-08
1.35213e-11
3.25634e-12
-1.47127e-08
1.54262e-12
1.46965e-08
9.37735e-11
-1.075e-11
-2.47959e-08
2.47648e-08
-1.10954e-12
2.80769e-11
-1.10109e-12
3.73636e-11
-5.43495e-11
-3.66011e-11
5.59988e-11
-2.65044e-11
-2.83031e-11
2.46504e-11
1.119e-07
-5.93846e-12
8.04698e-11
-1.31909e-10
1.32457e-10
-7.95467e-11
1.14381e-07
-1.13877e-11
1.69741e-11
-2.21733e-08
2.51224e-11
2.21561e-08
2.41146e-14
-4.72383e-12
-1.66213e-11
2.1149e-08
3.52813e-12
1.52733e-12
1.47025e-08
-5.1925e-11
9.36822e-11
-1.07229e-11
-2.47971e-08
2.47659e-08
-8.81985e-13
-2.0819e-12
-2.68346e-11
-2.42954e-11
2.48153e-11
3.7412e-11
-5.70634e-11
5.63074e-11
-3.65927e-11
1.11893e-07
-4.84099e-12
8.05911e-11
-1.3179e-10
1.32583e-10
-7.94377e-11
1.14353e-07
-1.35145e-11
1.68649e-11
-2.21858e-08
2.51624e-11
2.21688e-08
-1.65999e-11
-4.61703e-12
2.11452e-08
-2.15102e-12
3.26718e-12
1.53368e-12
1.46981e-08
-2.70869e-08
-4.29552e-11
-3.85214e-11
2.72383e-08
-1.28694e-11
-2.32396e-08
1.85358e-11
2.32281e-08
-2.92039e-12
5.46538e-12
-2.36314e-08
2.10421e-11
2.36012e-08
1.0095e-12
-7.57929e-09
2.04401e-12
7.57331e-09
-1.75528e-11
1.7719e-11
-4.71925e-12
-2.54197e-08
2.54241e-08
1.04709e-12
-1.41187e-12
-4.17841e-11
-1.50716e-11
1.46509e-11
-3.33489e-12
-2.47372e-11
2.45947e-11
4.6032e-12
1.11895e-07
1.29704e-12
-4.02234e-12
6.25968e-12
-6.13949e-12
3.30156e-12
1.12547e-07
-5.87401e-12
9.63036e-12
-2.25719e-08
2.612e-12
2.25723e-08
-2.98215e-14
-2.13161e-12
-5.50295e-12
-2.18313e-08
2.18217e-08
1.88856e-12
-1.50532e-08
1.56e-12
1.5045e-08
-2.1701e-12
-5.28547e-12
-2.18352e-08
2.18251e-08
-1.00156e-12
1.87701e-12
-1.50556e-08
1.59787e-12
1.50472e-08
2.02255e-12
7.41968e-09
-7.57944e-09
2.02692e-12
7.57322e-09
-2.73548e-11
1.51876e-10
2.23893e-08
4.3848e-12
6.13013e-09
-1.25444e-11
-8.87019e-13
1.09664e-08
1.5203e-12
-1.27643e-12
-2.01887e-08
-1.34942e-11
-7.00918e-12
4.30198e-11
2.01615e-08
-1.33129e-08
-1.18549e-12
5.30372e-14
9.35545e-13
1.32964e-08
4.44337e-12
1.55971e-11
4.46774e-14
-5.09109e-11
6.44375e-12
-4.18304e-11
5.49288e-14
-1.26887e-12
-1.92362e-12
9.62092e-13
1.09527e-08
-3.40092e-12
6.0912e-09
-2.75683e-12
-2.22384e-08
-3.7132e-12
2.69406e-11
2.22117e-08
-2.9337e-12
1.6756e-12
-1.26122e-11
-1.78181e-12
-2.64967e-11
2.32534e-12
6.08324e-09
-1.83058e-12
-4.74195e-12
-2.59513e-12
3.02716e-12
2.86319e-12
1.66853e-08
-1.34354e-11
-1.32387e-11
-6.16527e-09
3.27654e-12
2.69656e-12
1.85261e-12
6.15745e-09
-6.20465e-09
2.96406e-12
2.30656e-12
1.86314e-12
6.19751e-09
-2.53205e-12
-2.10111e-12
-2.01337e-12
-2.10554e-12
1.35323e-11
1.37157e-11
1.66643e-08
-2.09006e-11
1.14632e-11
2.09183e-08
-2.42415e-11
-1.42011e-08
1.17717e-11
1.06844e-12
1.41865e-08
-2.28919e-11
4.14269e-12
-1.14076e-11
-2.43635e-08
-2.07263e-11
4.48145e-11
3.15909e-11
2.43313e-08
-4.44374e-11
-3.22369e-11
-1.17162e-12
2.45685e-11
2.08983e-08
-1.71574e-11
8.86736e-12
2.00412e-08
-1.87592e-11
-1.41041e-08
8.95024e-12
1.08369e-12
1.40936e-08
-1.50638e-11
2.22122e-12
3.05566e-12
-6.24544e-12
-2.37704e-08
-1.77097e-11
3.00203e-11
2.35659e-11
2.37497e-08
-3.03553e-11
-2.29916e-11
-1.16789e-12
1.85502e-11
2.00276e-08
-4.94368e-12
-2.38363e-12
2.9782e-12
3.43953e-12
1.66865e-08
-1.24208e-11
-1.39841e-11
-6.20087e-09
3.14636e-12
1.74041e-12
2.11728e-12
6.19387e-09
-6.16913e-09
3.25854e-12
2.9032e-12
1.83871e-12
6.16113e-09
-2.33043e-12
-1.78526e-12
-2.5863e-12
-1.84284e-12
1.25891e-11
1.39206e-11
1.66664e-08
8.82665e-12
2.10113e-08
-2.19121e-11
-1.43386e-08
4.45298e-11
1.46648e-12
1.42722e-08
-4.81276e-11
1.50891e-10
1.45404e-10
2.44847e-08
-8.81647e-13
2.1541e-11
2.09987e-08
1.14611e-11
1.99536e-08
-2.1412e-11
-2.04932e-11
-1.39702e-08
1.1459e-11
1.11082e-12
1.39557e-08
4.25291e-12
-2.30162e-11
-1.10501e-11
-2.12398e-11
-2.3562e-08
4.11556e-11
3.22587e-11
2.35329e-08
-1.13944e-12
2.0645e-11
1.99371e-08
-4.11616e-11
-3.24435e-11
-5.438e-11
6.18317e-11
1.56759e-12
6.16005e-09
2.54785e-10
1.66785e-08
-6.60396e-11
1.05961e-12
1.41576e-08
-1.57869e-10
5.48309e-11
2.38941e-08
2.07166e-08
-9.97263e-13
-1.26399e-11
1.09606e-08
1.66983e-12
-1.22792e-12
-1.33097e-08
-1.07867e-12
9.46847e-13
1.32933e-08
-2.01802e-08
-1.33859e-11
-6.76749e-12
4.27412e-11
2.0153e-08
1.56163e-11
4.52313e-12
-5.09439e-11
-1.2587e-12
6.71277e-12
-4.20902e-11
-1.77193e-12
1.01672e-12
1.09469e-08
-3.28296e-12
6.08764e-09
-2.72465e-12
-2.22274e-08
-3.81199e-12
2.69983e-11
2.22007e-08
-3.17988e-12
-1.2698e-11
-1.79434e-12
-2.63865e-11
2.37384e-12
6.07969e-09
-1.32868e-11
-6.93005e-12
4.27215e-11
2.01625e-08
-1.1891e-12
4.77488e-14
9.40574e-13
1.32966e-08
-1.89189e-12
9.65882e-13
1.09529e-08
-3.50519e-12
2.67146e-11
2.22129e-08
2.33381e-12
6.08352e-09
-1.08377e-12
9.48441e-13
1.32936e-08
-1.33962e-11
-6.75376e-12
4.27402e-11
2.01539e-08
-1.78271e-12
1.00541e-12
1.09472e-08
-3.81258e-12
2.70076e-11
2.22025e-08
2.35755e-12
6.07993e-09
5.14091e-12
8.54592e-13
1.66903e-08
6.46454e-14
-2.80903e-11
-6.1681e-09
-1.88102e-11
2.44348e-11
1.7427e-12
6.16074e-09
-6.20124e-09
2.43586e-11
-2.02304e-11
2.16206e-12
6.19495e-09
-4.63276e-13
-2.04576e-12
-4.10497e-12
-2.05061e-12
1.19193e-10
-9.94031e-11
1.6676e-08
1.30222e-11
-1.85966e-11
1.99815e-08
-3.8482e-11
-1.39592e-08
-1.38617e-11
7.07829e-13
1.39839e-08
4.16009e-12
-2.25931e-11
-1.14149e-11
-2.39367e-08
-6.48061e-11
3.48781e-11
1.19387e-11
2.39732e-08
-1.25914e-12
-3.20525e-11
-4.6088e-11
-1.07726e-10
2.01297e-08
-1.98327e-11
7.75776e-12
2.09912e-08
-5.27545e-12
-1.43471e-08
3.53123e-11
1.37186e-12
1.42957e-08
-1.57713e-11
2.41774e-12
3.01083e-12
-6.19284e-12
-2.4206e-08
2.6266e-11
1.95729e-11
6.51137e-11
2.41161e-08
-2.29346e-11
-2.9192e-11
-1.12232e-12
1.45717e-10
2.08077e-08
-6.11986e-13
-2.20882e-12
-4.36423e-12
-5.9328e-13
1.13002e-08
8.61395e-13
-1.02012e-12
-2.07814e-08
-4.48235e-12
-3.38979e-12
1.50318e-11
2.07721e-08
-1.37295e-08
-6.2089e-13
-6.9136e-15
9.97641e-13
1.37236e-08
2.13481e-12
5.47944e-12
-1.07859e-14
-1.73311e-11
3.26228e-12
-1.45092e-11
-4.25307e-15
-9.45657e-13
-9.43243e-13
1.01097e-12
1.12951e-08
1.42062e-13
6.28466e-09
-2.5792e-12
-2.28345e-08
9.04321e-14
1.02569e-11
2.28226e-08
-1.70472e-12
-5.22309e-12
-1.77005e-12
-1.01477e-11
2.52722e-12
6.28128e-09
-4.38672e-12
-5.88972e-13
1.13061e-08
8.88702e-13
-1.00891e-12
-2.07899e-08
-4.45134e-12
-3.39669e-12
1.52166e-11
2.07804e-08
-1.37325e-08
-6.3154e-13
1.00296e-12
1.37269e-08
2.14283e-12
5.27691e-12
-1.76129e-11
3.2836e-12
-1.48169e-11
-9.4327e-13
-9.70039e-13
1.02297e-12
1.13009e-08
-7.39533e-14
6.28822e-09
-2.53757e-12
-2.28436e-08
-6.13686e-14
1.01553e-11
2.2832e-08
-1.73524e-12
6.84472e-13
-5.48082e-12
-1.73807e-12
-1.01814e-11
2.55132e-12
6.28464e-09
-2.27481e-12
-1.67599e-10
4.07971e-10
1.15359e-07
2.77731e-10
-3.96706e-10
1.22555e-07
-3.34181e-10
3.58556e-11
1.17634e-07
-3.39233e-10
6.06898e-13
1.26545e-07
3.74778e-10
-7.62267e-12
1.15217e-07
-3.25463e-12
1.22568e-07
1.1163e-11
7.61465e-12
1.16889e-07
-6.792e-13
1.25893e-07
-7.14379e-12
2.29734e-13
1.14978e-07
1.33754e-12
1.20545e-07
2.2091e-11
-3.81482e-10
1.1523e-07
-3.47064e-10
1.26784e-07
-1.67475e-11
6.59222e-12
1.14999e-07
6.90127e-12
1.20509e-07
-1.98182e-11
1.14459e-07
1.2599e-07
7.13598e-11
-1.82987e-11
2.60161e-08
-2.41185e-08
7.21557e-11
-1.52335e-11
2.40934e-08
-2.68429e-08
-1.83124e-11
-7.09741e-12
2.68299e-08
1.0936e-11
-9.35712e-11
3.16251e-14
6.98819e-12
2.55979e-11
2.59457e-08
4.52616e-11
2.38843e-08
3.93596e-11
2.51671e-08
2.61981e-08
-6.07633e-12
1.17452e-11
2.63913e-08
-5.33013e-11
-2.73262e-08
-5.9191e-12
-4.84908e-13
2.73566e-08
-2.46507e-08
1.18651e-11
-6.4467e-12
2.46556e-08
-1.87174e-11
5.27861e-12
-3.73069e-14
5.3921e-14
6.34707e-12
5.36656e-11
2.63466e-08
2.23198e-11
6.17565e-12
2.65224e-08
-2.43967e-08
4.40574e-12
2.44056e-08
-2.82524e-12
-9.92133e-12
-2.5521e-08
2.24382e-11
2.54937e-08
2.66072e-08
-1.84714e-11
-2.07873e-11
2.35744e-08
5.04967e-11
3.39759e-11
-2.61098e-08
-1.73071e-11
2.60981e-08
-2.50519e-08
-2.03029e-11
2.50552e-08
2.358e-08
2.35648e-08
-1.54781e-11
-2.3491e-11
4.20069e-11
4.13012e-11
-1.60153e-11
-2.62097e-08
2.6238e-08
-2.23106e-11
-2.49514e-08
2.49457e-08
2.35687e-08
3.11037e-10
2.40457e-08
1.66097e-10
2.53513e-08
2.63439e-08
7.16687e-11
-1.8057e-11
2.60151e-08
-2.55473e-11
-2.41166e-08
7.22448e-11
-1.53158e-11
2.40918e-08
-2.68422e-08
-1.84777e-11
-6.9106e-12
2.68288e-08
1.08235e-11
-9.38792e-11
8.48026e-14
1.50028e-11
7.15417e-12
2.18127e-11
2.59498e-08
4.60818e-11
3.76485e-11
2.6143e-08
-2.38973e-08
4.49742e-11
2.3881e-08
-1.74334e-11
-2.43181e-11
-2.51557e-08
3.75604e-11
2.51174e-08
2.61911e-08
-2.16922e-11
7.16361e-11
2.60154e-08
2.95706e-11
-2.68397e-08
-2.12092e-11
2.68159e-08
-2.41093e-08
7.10911e-11
-1.79255e-11
2.40882e-08
-9.38953e-11
1.09447e-11
1.83193e-11
-2.90343e-11
2.60148e-08
4.52809e-11
2.61166e-08
4.06866e-11
-2.38874e-08
4.45624e-11
2.38689e-08
-1.75543e-11
-2.43274e-11
4.05151e-11
-2.51623e-08
2.51274e-08
2.6136e-08
-2.16566e-11
7.13634e-11
2.60162e-08
2.97068e-11
-2.68403e-08
-2.12081e-11
2.68163e-08
-2.41106e-08
7.07355e-11
-1.78324e-11
2.40897e-08
-9.39262e-11
1.0963e-11
1.83311e-11
-2.89576e-11
2.60152e-08
4.07853e-11
4.49963e-11
2.61206e-08
-2.389e-08
4.43279e-11
2.38717e-08
-2.44277e-11
-1.75644e-11
-2.52168e-08
4.01559e-11
2.51763e-08
2.61395e-08
-2.23076e-11
-1.6782e-11
2.35576e-08
3.48175e-11
4.96022e-11
-2.6047e-08
-6.49807e-11
2.60526e-08
-2.50917e-08
2.3715e-11
2.50848e-08
2.35543e-08
-5.93257e-12
1.17813e-11
2.63958e-08
-5.36519e-11
-2.73295e-08
-5.83401e-12
2.73588e-08
-2.46566e-08
1.18187e-11
-6.49798e-12
2.46618e-08
-1.87244e-11
5.24482e-12
6.27682e-12
5.36387e-11
2.63514e-08
2.20045e-11
6.208e-12
2.65244e-08
-2.44018e-08
4.28447e-12
2.44108e-08
-2.54033e-12
-9.90741e-12
-2.54686e-08
2.26317e-11
2.54474e-08
2.66096e-08
1.22135e-12
1.75643e-13
-7.97799e-14
2.63658e-09
5.21969e-13
1.20168e-13
-7.54735e-14
1.43443e-09
1.84616e-13
7.06242e-14
-4.9555e-14
7.09542e-10
3.8902e-14
3.24652e-14
-2.58352e-14
2.94605e-10
8.01329e-15
-8.30791e-15
7.01152e-11
7.85036e-13
-1.36043e-13
-2.63475e-09
2.27013e-13
2.63541e-09
3.57387e-13
-6.85344e-14
-1.43365e-09
1.25685e-13
1.43402e-09
1.3494e-13
-3.20362e-14
-7.09165e-10
6.32939e-14
7.09356e-10
3.12812e-14
-1.22637e-14
-2.94404e-10
2.68814e-14
2.94493e-10
-2.48267e-15
-7.00498e-11
6.68469e-15
7.00766e-11
9.89624e-13
5.19987e-14
-4.92021e-09
-3.1472e-14
4.92114e-09
4.38507e-13
1.46674e-14
-2.66202e-09
-1.48094e-14
2.66257e-09
1.61665e-13
2.47272e-15
-1.31129e-09
-3.36135e-15
1.31157e-09
3.62386e-14
-1.31697e-15
-5.42747e-10
4.40806e-16
5.42874e-10
-1.18279e-15
-1.28898e-10
3.19415e-16
1.28935e-10
1.54365e-12
1.95499e-13
4.92402e-09
6.57067e-13
1.22211e-13
2.66384e-09
2.36393e-13
6.58249e-14
1.31206e-09
5.24303e-14
2.87394e-14
5.43057e-10
7.24968e-15
1.29024e-10
1.05786e-12
-4.92118e-09
-1.12122e-13
4.92217e-09
4.69069e-13
-2.66251e-09
-6.64925e-14
2.6631e-09
1.73129e-13
-1.31152e-09
-3.35345e-14
1.31182e-09
3.90241e-14
-5.42789e-10
-1.38079e-14
5.42925e-10
-1.28899e-10
-3.31978e-15
1.28939e-10
9.89979e-13
1.27153e-13
-9.90967e-14
4.9223e-09
4.30781e-13
5.87992e-14
-5.99451e-14
2.66327e-09
1.57379e-13
2.35359e-14
-2.60575e-14
1.31192e-09
3.54332e-14
7.14163e-15
-8.56009e-15
5.42991e-10
8.27028e-16
-1.58508e-15
1.28985e-10
7.84862e-13
-2.63402e-09
1.48263e-13
2.63468e-09
3.58101e-13
-1.43335e-09
7.4098e-14
1.43372e-09
1.35861e-13
-7.0898e-10
3.49925e-14
7.09169e-10
3.1685e-14
-2.94356e-10
1.43741e-14
2.94444e-10
-7.00256e-11
3.56253e-15
7.00522e-11
7.73253e-13
2.24373e-13
2.63537e-09
3.51075e-13
1.19944e-13
1.43407e-09
1.32491e-13
5.79013e-14
7.09392e-10
3.07754e-14
2.37104e-14
2.94535e-10
5.77549e-15
7.00892e-11
7.78573e-13
-6.7714e-14
1.64404e-13
2.63498e-09
3.53965e-13
-2.37863e-14
8.40229e-14
1.43376e-09
1.33454e-13
-6.58793e-15
3.96917e-14
7.09199e-10
3.09512e-14
-7.56756e-16
1.62158e-14
2.94461e-10
6.36044e-16
4.02618e-15
7.00804e-11
1.01421e-12
-9.51954e-15
5.91653e-14
-4.92159e-09
4.92257e-09
4.46494e-13
-3.23578e-14
4.42822e-14
-2.66264e-09
2.6632e-09
1.6606e-13
-2.41872e-14
2.29796e-14
-1.31162e-09
1.3119e-09
3.8366e-14
-1.28015e-14
9.25206e-15
-5.42848e-10
5.42979e-10
-3.85472e-15
2.07348e-15
-1.28938e-10
1.28978e-10
7.70849e-13
-2.63423e-09
7.58382e-14
2.63493e-09
3.50613e-13
-1.43343e-09
2.30587e-14
1.4338e-09
1.33901e-13
-7.09034e-10
5.90171e-15
7.09221e-10
3.16584e-14
-2.94359e-10
1.1484e-15
2.94448e-10
-7.00383e-11
8.44153e-17
7.00661e-11
7.92646e-13
2.90785e-14
-2.63476e-09
6.67751e-14
2.63547e-09
3.61868e-13
4.69014e-14
-1.4337e-09
1.60412e-14
1.43407e-09
1.38558e-13
3.30859e-14
-7.09171e-10
1.98661e-15
7.09359e-10
3.27981e-14
1.70793e-14
-2.94436e-10
-3.98441e-16
2.94526e-10
5.03565e-15
-7.00492e-11
-2.45527e-16
7.00772e-11
1.03328e-12
-2.22087e-14
4.9218e-09
4.57876e-13
-6.94962e-15
2.66285e-09
1.68457e-13
-9.0917e-17
1.31171e-09
3.76941e-14
7.35932e-16
5.42929e-10
2.52288e-16
1.28948e-10
1.01039e-12
7.25713e-14
-4.92169e-09
4.92266e-09
4.47286e-13
5.55542e-14
-2.66285e-09
2.6634e-09
1.67248e-13
3.32831e-14
-1.3116e-09
1.31188e-09
3.87929e-14
1.55989e-14
-5.4286e-10
5.4299e-10
4.03641e-15
-1.28909e-10
1.28948e-10
-7.02698e-13
-7.16421e-14
3.05426e-09
1.35315e-13
-3.31636e-13
-3.94388e-14
1.65804e-09
6.71005e-14
-1.28437e-13
-2.08298e-14
8.18766e-10
3.44749e-14
-3.04276e-14
-9.52417e-15
3.39475e-10
1.55822e-14
-2.54704e-15
8.07164e-11
4.12385e-15
5.01735e-13
-3.33505e-09
-1.42854e-13
1.47189e-14
3.33561e-09
2.26566e-13
-1.80811e-09
-8.39117e-14
8.20804e-15
1.80846e-09
8.45046e-14
-8.92067e-10
-4.47944e-14
4.05661e-15
8.9225e-10
1.94471e-14
-3.6962e-10
-1.9999e-14
1.66687e-15
3.69703e-10
-8.7861e-11
-5.14823e-15
4.02518e-16
8.7885e-11
-6.91906e-13
1.71349e-14
-3.26117e-13
1.02227e-14
-1.26077e-13
5.43207e-15
-2.98412e-14
2.43341e-15
6.747e-16
5.27358e-13
-2.54903e-13
3.0548e-09
2.41308e-13
-1.4333e-13
1.65839e-09
9.06862e-14
-7.56343e-14
8.18947e-10
2.08874e-14
-3.37265e-14
3.39559e-10
-8.71073e-15
8.07407e-11
-9.23236e-13
-2.68816e-14
-9.08185e-14
-4.32628e-13
-4.12911e-14
-3.24256e-14
-1.67652e-13
-3.01505e-14
-1.11628e-14
-3.98183e-14
-1.60066e-14
-3.69707e-15
-4.81425e-15
-9.70945e-16
-1.36907e-12
-4.18508e-14
-3.55542e-14
-6.26892e-13
-7.09416e-15
-3.19742e-14
-2.36898e-13
2.87235e-15
-2.14513e-14
-5.4444e-14
4.09125e-15
-1.09866e-14
1.81941e-15
-3.0382e-15
5.44531e-13
-2.61928e-09
-3.96066e-14
2.61982e-09
2.46505e-13
-1.42501e-09
-1.47447e-14
1.42532e-09
9.28979e-14
-7.04814e-10
-4.57201e-15
7.04972e-10
2.1597e-14
-2.92541e-10
-9.34213e-16
2.92613e-10
-6.9597e-11
8.53382e-17
6.96187e-11
-6.11594e-13
2.45911e-15
-2.8705e-13
-1.27136e-14
-1.11623e-13
-1.06785e-14
-2.67839e-14
-5.70801e-15
-1.66411e-15
5.41606e-13
-2.61874e-09
4.89875e-14
2.61931e-09
2.45829e-13
-1.42473e-09
4.39092e-14
1.42503e-09
9.31658e-14
-7.04653e-10
2.73401e-14
7.04812e-10
2.18841e-14
-2.92481e-10
1.30249e-14
2.92555e-10
-6.95829e-11
3.53428e-15
6.96054e-11
-5.94672e-13
1.02267e-13
-7.39335e-14
-2.77774e-13
6.22344e-14
-4.96368e-14
-1.08286e-13
3.31509e-14
-2.71072e-14
-2.6215e-14
1.4519e-14
-1.20499e-14
3.5209e-15
-3.14506e-15
-1.24629e-12
-5.12617e-14
-5.6889e-13
-4.16864e-14
-2.16242e-13
-2.71519e-14
-5.04191e-14
-1.35553e-14
-3.64305e-15
6.05455e-13
9.98106e-14
4.71437e-09
2.21282e-13
5.67696e-14
2.55261e-09
7.23728e-14
2.81131e-14
1.25823e-09
1.57459e-14
1.08938e-14
5.20958e-10
2.10921e-15
1.23783e-10
5.03578e-13
2.62023e-09
2.12815e-13
1.42544e-09
7.64228e-14
7.0501e-10
1.75979e-14
2.92649e-10
6.96342e-11
-6.78532e-13
-1.07488e-13
3.05294e-09
1.93455e-13
-3.21139e-13
-6.16566e-14
1.65732e-09
1.03449e-13
-1.25042e-13
-3.25754e-14
8.18369e-10
5.42459e-14
-2.98957e-14
-1.4558e-14
3.39336e-10
2.44482e-14
-3.75587e-15
8.0683e-11
6.44685e-15
5.08445e-13
-3.33428e-09
-1.10514e-13
3.33484e-09
2.29555e-13
-1.8077e-09
-6.42998e-14
1.80805e-09
8.52647e-14
-8.91865e-10
-3.54458e-14
8.9205e-10
1.94311e-14
-3.69537e-10
-1.59855e-14
3.69621e-10
-8.78413e-11
-4.04464e-15
8.78656e-11
-6.85897e-13
-3.23404e-13
-1.25174e-13
-2.98489e-14
5.5672e-13
-1.99226e-13
3.05348e-09
2.54916e-13
-1.09287e-13
1.65766e-09
9.48984e-14
-5.75797e-14
8.1855e-10
2.17254e-14
-2.58802e-14
3.39418e-10
-6.74472e-15
8.07072e-11
-9.3053e-13
-1.61464e-13
-4.36684e-13
-7.93672e-14
-1.69506e-13
-3.75325e-14
-4.01683e-14
-1.55794e-14
-3.93304e-15
5.04255e-13
-1.42946e-13
1.55882e-14
3.33578e-09
2.27762e-13
-8.31975e-14
9.21118e-15
1.80854e-09
8.49582e-14
-4.41025e-14
4.85328e-15
8.92152e-10
1.94882e-14
-1.95877e-14
2.1529e-15
3.69759e-10
-5.01325e-15
5.92646e-16
8.78683e-11
5.28911e-13
-2.53804e-13
3.05482e-09
2.41988e-13
-1.40917e-13
1.65833e-09
9.09243e-14
-7.356e-14
8.18875e-10
2.08716e-14
-3.253e-14
3.39566e-10
-8.34366e-15
8.07241e-11
5.09249e-13
-1.10394e-13
3.33482e-09
2.30315e-13
-6.3673e-14
1.8081e-09
8.59346e-14
-3.38737e-14
8.91979e-10
1.97014e-14
-1.52265e-14
3.69635e-10
-3.98011e-15
8.7848e-11
5.49249e-13
-2.02404e-13
3.05337e-09
2.51023e-13
-1.10457e-13
1.6576e-09
9.4118e-14
-5.75236e-14
8.18513e-10
2.1577e-14
-2.55328e-14
3.39394e-10
-6.55246e-15
8.06913e-11
1.16513e-12
-4.63145e-14
9.9664e-14
-4.71346e-09
4.7144e-09
5.34646e-13
-3.24357e-14
5.8888e-14
-2.55222e-09
2.55283e-09
2.00572e-13
-1.77614e-14
3.29189e-14
-1.25793e-09
1.25825e-09
4.52605e-14
-7.32722e-15
1.55923e-14
-5.2082e-10
5.20968e-10
-1.59456e-15
4.43021e-15
-1.23748e-10
1.23791e-10
6.68708e-13
-2.61932e-09
2.62003e-09
3.00616e-13
-1.42493e-09
1.42531e-09
1.12161e-13
-7.04758e-10
7.04951e-10
2.54316e-14
-2.92527e-10
2.92616e-10
-6.96157e-11
6.96414e-11
-5.91433e-13
1.2493e-13
-5.19032e-14
-2.79933e-13
7.93411e-14
-3.86428e-14
-1.1011e-13
4.44956e-14
-2.30274e-14
-2.692e-14
2.02781e-14
-1.10883e-14
5.18033e-15
-3.10625e-15
-1.11841e-12
7.15372e-14
-5.04904e-13
6.64415e-14
-1.92642e-13
4.18993e-14
-4.57263e-14
2.0647e-14
5.96514e-15
-5.03045e-13
-1.01184e-13
3.04936e-09
1.59715e-13
-2.29723e-13
-6.03988e-14
1.65543e-09
8.70694e-14
-8.9993e-14
-3.49132e-14
8.17451e-10
4.90882e-14
-2.23498e-14
-1.69846e-14
3.38953e-10
2.36961e-14
-4.78373e-15
8.05835e-11
6.56442e-15
4.50507e-13
-3.32936e-09
-8.51452e-14
-3.9109e-15
3.32999e-09
1.96684e-13
-1.80516e-09
-4.50833e-14
-3.39209e-15
1.80546e-09
7.56247e-14
-8.90635e-10
-2.46483e-14
-2.3475e-15
8.90783e-10
1.88738e-14
-3.69029e-10
-1.17097e-14
-1.24675e-15
3.69098e-10
-8.77109e-11
-3.21805e-15
-3.81569e-16
8.7733e-11
-4.3759e-13
-1.83168e-15
-1.94316e-13
-1.61456e-15
-7.58372e-14
-1.15609e-15
-1.90958e-14
-5.97974e-16
-1.32985e-16
4.91266e-13
-1.65363e-13
3.04996e-09
2.21684e-13
-8.24276e-14
1.65573e-09
8.56845e-14
-4.33043e-14
8.17606e-10
2.10771e-14
-2.0221e-14
3.39027e-10
-5.56637e-15
8.06071e-11
-8.86653e-13
-7.2053e-14
-4.12248e-13
-2.3871e-14
-1.60333e-13
-9.25891e-15
-3.85013e-14
-3.95871e-15
-1.27541e-15
-4.96303e-13
-9.62993e-14
3.05089e-09
1.59912e-13
-2.26651e-13
-5.66069e-14
1.6562e-09
8.75275e-14
-8.90914e-14
-3.21149e-14
8.17837e-10
4.9159e-14
-2.23091e-14
-1.53453e-14
3.39137e-10
2.36223e-14
-4.18368e-15
8.06188e-11
6.55782e-15
4.52591e-13
-3.33029e-09
-9.0587e-14
3.33093e-09
1.97279e-13
-1.80558e-09
-5.00334e-14
1.80588e-09
7.56031e-14
-8.90804e-10
-2.80389e-14
8.90952e-10
1.87819e-14
-3.69151e-10
-1.34531e-14
3.6922e-10
-8.77308e-11
-3.67131e-15
8.77531e-11
-4.35386e-13
-1.93215e-13
-7.5617e-14
-1.93679e-14
4.97814e-13
-1.68582e-13
3.05149e-09
2.24767e-13
-8.52359e-14
1.65651e-09
8.67248e-14
-4.55154e-14
8.17992e-10
2.10722e-14
-2.15289e-14
3.3921e-10
-5.99632e-15
8.06422e-11
-8.69436e-13
-4.1343e-14
-8.62375e-14
-4.04001e-13
-4.41513e-14
-3.56129e-14
-1.57241e-13
-2.84713e-14
-1.64281e-14
-3.7846e-14
-1.42784e-14
-7.25604e-15
-4.25122e-15
-2.07311e-15
-1.15754e-12
-5.23415e-13
-1.99255e-13
-4.68487e-14
9.26633e-13
-3.97779e-14
-4.71276e-09
4.71368e-09
4.05751e-13
-2.67215e-14
-2.55209e-09
2.55262e-09
1.4885e-13
-1.46232e-14
-1.25782e-09
1.25809e-09
3.34746e-14
-6.4195e-15
-5.20827e-10
5.20948e-10
-1.59976e-15
-1.23724e-10
1.23759e-10
9.28205e-13
-4.71317e-09
4.71411e-09
4.07051e-13
-2.55221e-09
2.55274e-09
1.50141e-13
-1.25797e-09
1.25824e-09
3.41156e-14
-5.20854e-10
5.20976e-10
-1.23728e-10
1.23764e-10
2.33385e-12
4.89985e-09
1.09137e-12
2.65034e-09
4.13158e-13
1.30523e-09
9.3225e-14
5.40189e-10
1.28308e-10
-1.46626e-12
4.88993e-09
-6.77337e-13
2.64507e-09
-2.5895e-13
1.30271e-09
-6.02492e-14
5.391e-10
1.28039e-10
1.20592e-12
4.89102e-09
5.43643e-13
2.64571e-09
2.03594e-13
1.30304e-09
4.64901e-14
5.39251e-10
1.28084e-10
8.09194e-13
7.04478e-14
-4.71256e-09
4.71352e-09
3.39406e-13
3.06616e-14
-2.55176e-09
2.55226e-09
1.21835e-13
1.296e-14
-1.25771e-09
1.25794e-09
2.72587e-14
4.29147e-15
-5.20752e-10
5.20857e-10
5.6992e-16
-1.23717e-10
1.23748e-10
3.76089e-13
-2.61855e-09
2.61892e-09
1.728e-13
-1.42459e-09
1.42481e-09
6.68851e-14
-7.04598e-10
7.04714e-10
1.64996e-14
-2.92473e-10
2.92528e-10
-6.95885e-11
6.9606e-11
-6.30337e-13
-3.55123e-14
-2.90972e-13
-3.6298e-14
-1.1185e-13
-2.45297e-14
-2.64497e-14
-1.2278e-14
-3.42624e-15
-1.09811e-12
3.98234e-14
-5.00192e-13
2.01476e-14
-1.90338e-13
9.34287e-15
-4.45627e-14
3.70493e-15
8.41932e-16
-1.09444e-12
-4.98309e-13
-1.89844e-13
-4.44523e-14
9.37659e-13
-1.17309e-13
1.13658e-13
-4.71313e-09
4.71432e-09
3.90907e-13
-7.82687e-14
6.33025e-14
-2.55208e-09
2.55265e-09
1.41533e-13
-4.44058e-14
3.15038e-14
-1.25788e-09
1.25814e-09
3.22881e-14
-1.9708e-14
1.2669e-14
-5.20866e-10
5.20983e-10
-4.85931e-15
2.86824e-15
-1.23713e-10
1.23748e-10
6.60658e-13
-2.61969e-09
2.62057e-09
2.87445e-13
-1.42511e-09
1.42553e-09
1.06266e-13
-7.04824e-10
7.05027e-10
2.42917e-14
-2.92564e-10
2.92655e-10
-6.96136e-11
6.96402e-11
-4.68415e-13
2.82548e-15
-2.25881e-13
9.82399e-16
-9.15537e-14
3.90741e-15
-2.33982e-14
3.37185e-15
1.00275e-15
9.43671e-13
1.35686e-13
-4.71327e-09
4.71414e-09
4.22116e-13
7.5679e-14
-2.552e-09
2.55251e-09
1.58177e-13
3.69857e-14
-1.25789e-09
1.25814e-09
3.64596e-14
1.48741e-14
-5.20875e-10
5.20995e-10
3.3718e-15
-1.23724e-10
1.2376e-10
5.71166e-13
-2.61889e-09
2.61946e-09
2.60805e-13
-1.42469e-09
1.42501e-09
9.85349e-14
-7.04653e-10
7.04818e-10
2.28955e-14
-2.92502e-10
2.92579e-10
-6.95849e-11
6.96078e-11
-5.95732e-13
-4.56766e-15
-2.81044e-13
-1.94604e-14
-1.10008e-13
-1.67981e-14
-2.65657e-14
-9.44871e-15
-2.83261e-15
-9.27535e-13
-1.4163e-14
-4.21133e-13
-2.3937e-15
-1.61409e-13
3.0283e-15
-3.84058e-14
2.93395e-15
1.09042e-15
-9.55314e-13
-4.36026e-13
-1.68158e-13
-4.02819e-14
-1.44906e-12
4.88736e-09
-6.69327e-13
2.64378e-09
-2.56198e-13
1.302e-09
-5.98374e-14
5.38865e-10
1.27958e-10
1.23392e-12
4.88845e-09
5.56936e-13
2.64442e-09
2.08439e-13
1.30233e-09
4.7511e-14
5.39015e-10
1.28002e-10
1.20935e-12
4.89095e-09
5.45398e-13
2.64569e-09
2.04304e-13
1.30304e-09
4.65124e-14
5.3929e-10
1.28081e-10
1.22304e-12
4.8887e-09
5.51127e-13
2.64442e-09
2.06035e-13
1.30235e-09
4.67311e-14
5.38995e-10
1.28027e-10
-1.04571e-12
-4.52271e-14
-4.69434e-13
-3.56242e-14
-1.7708e-13
-2.06315e-14
-4.12331e-14
-9.25148e-15
-2.33939e-15
-1.06534e-12
-4.83699e-13
-1.84678e-13
-4.3871e-14
-1.31731e-12
4.89659e-09
-6.05582e-13
2.64848e-09
-2.34968e-13
1.30424e-09
-5.63135e-14
5.39758e-10
1.28191e-10
1.27981e-12
4.89775e-09
5.83828e-13
2.64911e-09
2.24418e-13
1.30456e-09
5.31487e-14
5.3991e-10
1.28239e-10
-1.28991e-12
4.89906e-09
-5.91603e-13
2.64983e-09
-2.29597e-13
1.305e-09
-5.52587e-14
5.40067e-10
1.28253e-10
1.29119e-12
4.90022e-09
5.89115e-13
2.65046e-09
2.26371e-13
1.30532e-09
5.3674e-14
5.40218e-10
1.283e-10
2.45686e-11
9.51816e-12
7.43723e-09
-5.38173e-13
-5.46989e-12
-1.82438e-12
7.4295e-09
-2.13057e-12
3.19156e-11
-1.44493e-10
4.09871e-11
1.8389e-10
2.71199e-08
-1.87103e-11
9.90878e-11
4.65801e-11
2.33898e-08
-1.10198e-11
4.7076e-12
-2.33426e-11
2.3189e-08
-5.10145e-11
7.70022e-14
4.54835e-12
1.64276e-11
2.11777e-08
-1.28506e-11
-3.17324e-12
1.47173e-08
-1.84071e-12
2.64837e-13
1.09868e-11
-9.32132e-11
2.47988e-08
-2.86933e-10
-1.56128e-09
2.94433e-11
4.73895e-10
5.65467e-11
3.04256e-10
5.77245e-11
1.11389e-07
1.49976e-10
2.14018e-10
-1.75421e-11
-2.4181e-11
2.21887e-08
1.98854e-10
-3.76299e-09
5.9664e-10
1.32111e-10
9.69086e-11
6.8985e-10
1.15134e-07
-5.10338e-11
1.64419e-11
4.65574e-12
2.11744e-08
-1.29874e-11
1.98841e-12
-3.42914e-12
1.47128e-08
-1.83251e-12
-9.32156e-11
1.11197e-11
2.47961e-08
-7.61511e-10
-3.0006e-11
-1.81169e-09
4.78085e-10
6.85798e-11
3.76342e-11
2.9256e-10
4.19731e-10
-2.96513e-12
2.5051e-10
1.12959e-07
-3.62057e-09
6.03789e-10
1.31532e-10
7.95644e-11
6.90126e-10
1.15934e-07
7.83525e-12
-1.79184e-11
-2.6783e-11
2.218e-08
-2.69934e-11
-1.81295e-09
4.79077e-10
5.57667e-11
3.67814e-11
3.06084e-10
4.15446e-10
2.38965e-11
2.27245e-10
1.12944e-07
-7.55267e-10
1.299e-11
1.13982e-11
-1.77183e-11
-2.42196e-11
2.21864e-08
1.94955e-12
-3.39604e-12
1.47143e-08
-1.84839e-12
-5.30147e-12
7.42798e-09
-2.20154e-12
3.75045e-11
2.70915e-08
8.34696e-11
-4.15288e-12
-3.87073e-11
-5.18804e-11
2.33212e-08
3.20126e-12
-9.39909e-12
4.78217e-11
1.37995e-11
2.35458e-08
-7.30584e-13
7.57951e-09
-2.26207e-12
9.46055e-14
-1.31978e-11
3.8595e-11
5.70317e-13
2.53951e-08
-4.94093e-10
-1.17076e-09
4.18127e-10
4.02557e-11
1.68055e-10
3.01606e-10
8.61987e-12
-3.85823e-12
2.38762e-10
1.12387e-07
-1.89122e-10
-7.23855e-10
2.03158e-10
-9.50587e-11
-4.35856e-11
9.61893e-11
1.12867e-07
5.09619e-12
-9.85343e-12
5.21948e-13
2.25743e-08
-1.29084e-11
3.85987e-11
3.63377e-13
2.53981e-08
-4.58825e-10
-4.12346e-11
-1.15661e-09
2.95853e-10
2.42636e-11
-3.54553e-12
2.24995e-10
4.22187e-10
1.45422e-11
1.91132e-10
1.12382e-07
-7.14181e-10
1.98173e-10
-9.52872e-11
-4.40466e-11
9.63241e-11
1.12458e-07
5.50157e-12
6.0711e-12
-9.80344e-12
-2.6289e-12
2.25731e-08
-2.23669e-15
-2.44778e-13
-4.63096e-12
2.18134e-08
-1.99708e-12
1.50531e-08
-1.78021e-12
-2.4927e-13
-4.83001e-12
2.18172e-08
7.89926e-13
-1.91753e-12
1.50556e-08
-1.71828e-12
2.70913e-08
5.04494e-11
3.36588e-11
5.54745e-12
4.5321e-12
-2.35439e-11
2.33678e-08
3.3702e-12
2.4829e-12
-1.55129e-11
2.35035e-08
7.42935e-09
-2.17718e-12
7.5795e-09
-2.11484e-12
1.5567e-11
1.16466e-11
6.16758e-09
-9.21764e-13
-3.6817e-12
-2.87408e-12
6.1694e-09
-1.7189e-12
7.76705e-12
-1.43127e-11
1.66848e-08
5.36634e-11
1.42119e-08
-4.95496e-13
-8.14598e-11
1.87313e-10
2.4365e-08
1.12905e-10
5.89722e-11
2.09197e-08
-1.1621e-11
1.39704e-08
-1.21603e-12
2.14119e-11
-4.06577e-11
-3.29132e-11
2.35617e-08
-2.10037e-11
1.99536e-08
-1.09667e-08
-5.17839e-11
-2.11083e-12
4.70917e-12
1.10154e-08
4.71509e-13
1.3321e-11
2.01881e-08
6.5372e-12
-4.19245e-11
1.03704e-12
1.33131e-08
4.81308e-14
-1.32585e-12
1.25007e-11
6.16033e-11
4.38782e-14
-1.91671e-10
2.12952e-08
1.66587e-12
-1.32473e-12
1.92099e-11
-1.67195e-10
2.02968e-08
3.83021e-14
1.33721e-08
4.75608e-13
-6.09128e-09
-2.41097e-11
6.11909e-09
1.00959e-12
3.94113e-12
2.22377e-08
-2.6604e-11
-7.09408e-12
-7.06703e-11
9.91333e-12
1.4784e-08
1.10529e-12
-2.43528e-12
-1.21284e-10
2.2347e-08
-1.09609e-08
-2.21413e-12
-5.20911e-11
4.86503e-12
1.10098e-08
5.23848e-13
1.13519e-12
1.33099e-08
-1.31705e-12
1.34361e-11
2.01797e-08
6.76675e-12
-4.21678e-11
6.18177e-11
1.26087e-11
-1.9164e-10
2.12917e-08
1.80987e-12
-1.26922e-12
1.33691e-08
4.84118e-13
1.94464e-11
-1.6744e-10
2.02882e-08
-6.08773e-09
-2.40177e-11
6.11554e-09
1.06605e-12
3.83382e-12
2.22267e-08
-2.65564e-11
-7.3311e-12
1.00967e-11
-7.06826e-11
1.47795e-08
1.12679e-12
-2.39731e-12
-1.21593e-10
2.23364e-08
-6.08797e-09
-2.39921e-11
-4.8808e-12
6.11578e-09
1.06731e-12
3.82384e-12
2.22286e-08
-2.65243e-11