/*--------------------------------*- C++ -*----------------------------------*\
| =========                 |                                                 |
| \\      /  F ield         | OpenFOAM: The Open Source CFD Toolbox           |
|  \\    /   O peration     | Version:  2206                                  |
|   \\  /    A nd           | Website:  www.openfoam.com                      |
|    \\/     M anipulation  |                                                 |
\*---------------------------------------------------------------------------*/
FoamFile
{
    version     2.0;
    format      ascii;
    arch        "LSB;label=32;scalar=64";
    class       volVectorField;
    location    "0.4";
    object      wallShearStress;
}
// * * * * * * * * * * * * * * * * * * * * * * * * * * * * * * * * * * * * * //

dimensions      [0 2 -2 0 0 0 0];

internalField   uniform (0 0 0);

boundaryField
{
    topPatch
    {
        type            calculated;
        value           nonuniform List<vector> 0();
    }
    wall
    {
        type            calculated;
        value           nonuniform List<vector> 
7709
(
(1.79628e-08 -2.59839e-09 -0.000125246)
(5.21842e-09 -4.18334e-09 -0.000125139)
(3.84066e-10 -4.12692e-09 -0.000130469)
(8.7134e-09 -1.4635e-09 -0.000130553)
(2.9846e-09 -3.87229e-10 -0.000130483)
(-1.66702e-09 1.63813e-09 -0.000130487)
(3.44092e-09 -4.4254e-10 -0.000125137)
(-4.43365e-09 -2.37163e-09 -0.000125139)
(-3.69314e-09 4.15582e-10 -0.000125143)
(6.71754e-09 8.86742e-10 -0.000130525)
(4.61146e-09 -1.82698e-09 -0.000125172)
(-5.69103e-09 -1.52708e-09 -0.000125168)
(-6.89017e-10 -3.73168e-09 -0.000130483)
(-8.6999e-09 1.91539e-09 -0.000130517)
(-3.6337e-09 4.53256e-09 -0.000127555)
(1.94952e-09 -3.6638e-09 -0.000128548)
(-2.76511e-09 1.48363e-09 -0.000128596)
(3.55835e-09 -1.00339e-08 -0.000127518)
(-2.83946e-09 -4.33752e-09 -0.000125102)
(8.80167e-11 7.29463e-09 -0.000130471)
(-2.07921e-09 -1.08709e-09 -0.000125738)
(1.08516e-09 3.55023e-09 -0.000125742)
(-5.29402e-09 7.92849e-10 -0.000125726)
(4.79655e-09 1.28569e-10 -0.000125701)
(1.83615e-09 -1.01052e-08 -0.000130482)
(-5.81299e-09 -4.97078e-09 -0.00013019)
(-2.93763e-09 -1.01201e-09 -0.000125755)
(-3.97205e-09 -6.86251e-09 -0.000127554)
(1.88258e-09 2.55052e-09 -0.000128545)
(-2.83513e-09 -3.06963e-09 -0.000128594)
(3.3258e-09 8.00173e-09 -0.000127518)
(-4.44002e-09 4.3168e-10 -0.000125101)
(-1.95508e-09 -3.72404e-09 -0.000128548)
(-3.51028e-09 -9.67906e-09 -0.000127517)
(-1.90141e-09 2.31941e-09 -0.000128544)
(-3.27388e-09 7.77735e-09 -0.000127516)
(5.97359e-09 1.51416e-09 -0.000130193)
(2.6106e-09 -1.50037e-09 -0.000125751)
(-6.37454e-09 -8.36566e-10 -0.00012572)
(-1.19548e-08 -3.13512e-09 -0.000130476)
(8.43111e-09 3.45292e-09 -0.000127391)
(-1.38472e-09 -1.76098e-09 -0.000128408)
(3.69666e-09 1.93523e-09 -0.000128402)
(-7.09112e-09 -3.13107e-09 -0.000127421)
(-5.04206e-09 2.39992e-09 -0.000125075)
(-7.94933e-09 3.38091e-09 -0.000127395)
(2.29967e-09 -1.7936e-09 -0.000128412)
(-3.04139e-09 1.90637e-09 -0.000128406)
(7.6849e-09 -3.22591e-09 -0.000127423)
(3.41638e-09 2.96814e-09 -0.000125073)
(9.24643e-09 -1.61032e-09 -0.000130471)
(-1.70631e-09 -1.30431e-09 -0.000130174)
(-4.66982e-09 1.17019e-09 -0.000130183)
(-1.13999e-08 8.00917e-09 -0.000130079)
(-5.33158e-09 5.56236e-09 -0.000129753)
(6.37179e-09 -1.26686e-08 -0.00012975)
(4.0637e-09 1.91631e-09 -0.00013016)
(1.6122e-09 -8.44554e-10 -0.000125696)
(-2.79023e-10 4.60915e-09 -0.000125715)
(1.1111e-09 3.06622e-09 -0.000130188)
(4.91518e-09 -4.89404e-10 -0.000130186)
(4.16097e-09 -1.01375e-09 -0.000130179)
(9.14659e-09 -3.1888e-09 -0.000125759)
(2.97817e-09 -5.09861e-09 -0.000125747)
(4.48279e-09 -1.63703e-09 -0.000130172)
(5.12516e-09 -3.03962e-09 -0.000125714)
(-4.41526e-10 -4.45049e-09 -0.000125717)
(-3.01803e-09 -7.21444e-10 -0.000130196)
(8.10048e-10 -4.86411e-09 -0.000130193)
(-6.34728e-09 -9.40989e-09 -0.000129754)
(5.48113e-09 9.13627e-09 -0.000129752)
(-6.20842e-09 -1.20173e-08 -0.000129749)
(-5.4586e-09 9.19265e-09 -0.000129753)
(2.0981e-09 6.41016e-09 -0.000130183)
(-2.14529e-09 1.91248e-09 -0.000130186)
(7.83029e-09 5.67752e-09 -0.000129931)
(-5.3419e-09 -4.7358e-09 -0.000130017)
(-8.15719e-09 5.68995e-09 -0.000129931)
(5.69917e-09 -4.85831e-09 -0.000130012)
(-1.6439e-08 6.819e-09 -0.000130512)
(1.72693e-09 -5.92647e-09 -0.000130514)
(-2.1673e-09 -1.3761e-09 -0.000125133)
(-2.90091e-09 -6.887e-10 -0.000125132)
(3.13044e-09 -1.04762e-09 -0.000125137)
(2.74453e-10 3.0607e-09 -0.0001305)
(-1.6067e-08 -6.38715e-09 -0.000130498)
(-6.70016e-09 6.37599e-10 -0.000125095)
(6.46266e-09 5.33276e-10 -0.000125093)
(-1.10377e-09 4.87879e-09 -0.000130514)
(1.09425e-08 -3.95847e-09 -0.000130492)
(4.65533e-11 -8.72952e-09 -0.000127478)
(-1.08185e-09 1.78331e-09 -0.000128629)
(-2.08672e-09 5.50861e-09 -0.000127589)
(-1.05312e-09 -1.91525e-09 -0.000128509)
(3.33939e-09 -1.52081e-08 -0.000129719)
(3.0488e-09 -6.86327e-09 -0.000125103)
(-4.31364e-11 7.60575e-09 -0.000127478)
(-1.09443e-09 -2.48775e-09 -0.000128627)
(-2.22303e-09 -7.06321e-09 -0.000127589)
(-1.07341e-09 1.26562e-09 -0.000128507)
(2.67639e-09 5.66387e-09 -0.000125103)
(-2.44831e-09 1.16092e-08 -0.000129721)
(-1.62252e-09 3.22083e-09 -0.000125108)
(6.19679e-11 6.48151e-10 -0.000130445)
(-6.43405e-10 -1.72329e-10 -0.000130231)
(-1.28766e-08 -8.04118e-09 -0.00012576)
(4.25177e-09 3.83551e-09 -0.000125738)
(9.8041e-09 5.21922e-09 -0.000130504)
(-1.05749e-09 -1.44046e-09 -0.000127413)
(1.65543e-09 1.4621e-09 -0.000128409)
(3.58988e-09 2.35112e-09 -0.000127402)
(1.64665e-09 -1.39214e-09 -0.000128412)
(6.57627e-09 1.01622e-09 -0.000125152)
(2.76848e-09 -1.73271e-09 -0.000127417)
(-5.17354e-10 1.40169e-09 -0.000128413)
(-2.5055e-09 2.14436e-09 -0.000127406)
(-1.62767e-10 -1.47982e-09 -0.000128416)
(3.99423e-09 -2.60715e-09 -0.00013)
(-4.87946e-09 1.80332e-10 -0.00012515)
(2.45587e-11 8.866e-10 -0.000130155)
(-2.53942e-09 2.78187e-09 -0.000130164)
(9.52767e-10 9.44737e-10 -0.000125771)
(-1.16574e-10 7.39868e-10 -0.000125711)
(6.7515e-09 -2.7751e-09 -0.000125726)
(-4.54591e-09 3.12274e-09 -0.000125703)
(1.68878e-09 -2.00216e-09 -0.000130458)
(-8.96995e-09 4.3524e-09 -0.000130501)
(3.72667e-09 6.36273e-09 -0.000130203)
(8.60028e-10 3.79996e-10 -0.000130219)
(5.85708e-09 -3.70969e-09 -0.000130215)
(-9.34642e-09 6.8643e-09 -0.000130216)
(-6.64687e-09 3.05211e-09 -0.00012578)
(-3.70609e-09 2.49851e-09 -0.000130217)
(-2.82838e-09 1.54912e-09 -0.000125746)
(-3.82184e-09 7.6138e-09 -0.000129789)
(2.8596e-09 1.31843e-08 -0.000129721)
(-4.52875e-09 -1.03918e-08 -0.00012979)
(4.7031e-09 -1.08763e-08 -0.00012979)
(-3.50095e-09 -1.94384e-09 -0.000125728)
(2.35712e-09 2.53761e-09 -0.000125668)
(-3.00329e-09 -4.225e-09 -0.000130145)
(-3.07082e-09 -7.07139e-10 -0.000130176)
(-2.59308e-09 -2.12948e-09 -0.000130002)
(2.93715e-09 3.44826e-09 -0.00012995)
(-2.42599e-09 3.19538e-09 -0.00012995)
(-1.0134e-09 -3.43299e-09 -0.00012508)
(2.75734e-09 2.59824e-09 -0.000125159)
(6.15704e-09 3.84822e-10 -0.000130461)
(-7.84862e-09 -1.59659e-09 -0.000130499)
(-2.61609e-09 -2.51447e-09 -0.000125132)
(3.99881e-09 -8.89281e-10 -0.000125138)
(1.76897e-09 -4.72206e-09 -0.000125055)
(3.90739e-09 2.71609e-09 -0.000125184)
(7.66803e-09 1.01255e-09 -0.000130435)
(-7.52189e-09 -3.70268e-10 -0.000130523)
(-2.4421e-09 -3.73904e-09 -0.000125105)
(4.74466e-09 -1.62504e-09 -0.000125172)
(2.75038e-09 1.07511e-08 -0.00013047)
(1.76786e-09 -2.76696e-09 -0.000130513)
(-8.11132e-09 1.67091e-09 -0.000130471)
(7.20642e-09 -1.25746e-09 -0.000130507)
(2.06739e-09 -8.73588e-09 -0.000130503)
(3.81912e-10 4.48602e-09 -0.000130489)
(8.21519e-09 -1.64731e-09 -0.000130521)
(-8.17996e-09 1.61477e-09 -0.00013046)
(7.33874e-10 4.16889e-09 -0.000130504)
(2.23948e-09 -9.32984e-09 -0.000130492)
(-1.03143e-09 -4.25833e-09 -0.000125073)
(-4.02317e-09 2.14124e-09 -0.000125153)
(1.90981e-09 3.0521e-09 -0.000125172)
(-2.68249e-10 -3.81238e-09 -0.00012507)
(-2.63458e-09 2.7853e-09 -0.000125167)
(-7.72646e-10 -4.21239e-09 -0.000125063)
(-3.34183e-09 -1.07274e-08 -0.000130507)
(-1.07758e-09 3.20416e-09 -0.000130494)
(-8.60006e-09 -1.90014e-09 -0.000130515)
(8.7666e-09 1.89036e-09 -0.00013045)
(-1.30447e-09 3.20441e-09 -0.000130507)
(-2.32239e-09 -9.46561e-09 -0.000130496)
(-2.81981e-09 2.02332e-09 -0.000125133)
(3.91856e-09 7.57209e-10 -0.000125139)
(4.32983e-09 -1.31022e-09 -0.000125154)
(-2.5308e-09 -3.09611e-09 -0.000125121)
(4.22003e-09 1.01998e-09 -0.000125155)
(-2.67695e-09 2.76272e-09 -0.000125121)
(1.92361e-09 -4.25117e-09 -0.000125131)
(-4.55314e-09 -2.39698e-09 -0.000125139)
(2.24163e-09 3.37795e-09 -0.000125136)
(-2.72884e-09 -2.13202e-09 -0.000125143)
(-4.69206e-09 -2.23339e-09 -0.000125155)
(2.00452e-09 -4.44498e-09 -0.000125121)
(-4.58863e-09 1.73565e-09 -0.000125156)
(4.57915e-09 -1.91497e-09 -0.000125124)
(-7.9062e-09 1.29491e-09 -0.000130444)
(9.62731e-09 -1.80756e-09 -0.000130531)
(2.56614e-09 -1.02569e-08 -0.000130477)
(1.65657e-09 3.14278e-09 -0.000130519)
(-2.56531e-09 -4.9971e-09 -0.000125049)
(-1.85664e-09 3.54347e-09 -0.000125179)
(-3.00384e-09 -1.08631e-08 -0.000130481)
(6.66908e-11 5.92558e-09 -0.000130524)
(-2.64333e-09 3.30634e-09 -0.000125105)
(4.62035e-09 1.38725e-09 -0.000125172)
(2.0032e-09 -4.75034e-09 -0.000125105)
(-3.74507e-09 8.94573e-10 -0.000125173)
(1.46683e-09 6.05077e-09 -0.000125109)
(-5.50297e-09 3.59889e-09 -0.000125178)
(-8.2465e-09 -1.51975e-09 -0.000130459)
(9.85639e-09 1.76247e-09 -0.00013055)
(-4.87197e-09 5.64476e-10 -0.000130467)
(6.50396e-11 4.01604e-09 -0.000125064)
(3.04031e-09 -3.18045e-09 -0.000125197)
(-2.05743e-09 4.84224e-09 -0.000125059)
(-4.31402e-09 -2.65265e-09 -0.000125189)
(2.01134e-09 4.32044e-09 -0.000125065)
(-1.80921e-09 4.12817e-09 -0.000125059)
(-4.67906e-09 1.36304e-08 -0.000130481)
(-2.39655e-09 -1.68825e-09 -0.000130526)
(6.07558e-09 -8.10954e-11 -0.000130451)
(-9.80731e-09 1.80957e-09 -0.000130535)
(4.08843e-09 8.14814e-10 -0.000130455)
(9.06249e-09 -3.17668e-09 -0.000127402)
(-2.15476e-09 1.83417e-09 -0.00012842)
(2.26756e-09 -1.77843e-09 -0.000128399)
(-8.26041e-09 3.15076e-09 -0.000127425)
(2.87309e-09 2.53745e-09 -0.000125154)
(-5.10039e-10 -3.65628e-09 -0.000125076)
(-8.59613e-09 -2.12774e-09 -0.000130494)
(7.67288e-09 1.32276e-09 -0.000130455)
(-2.86252e-09 6.61111e-09 -0.000127584)
(1.71532e-09 -2.53617e-09 -0.000128549)
(-1.79933e-09 2.26815e-09 -0.000128624)
(3.25522e-09 -9.83971e-09 -0.000127517)
(6.12907e-09 -1.22863e-08 -0.000129754)
(3.96641e-09 -9.24415e-10 -0.000125132)
(-5.0455e-09 8.18503e-09 -0.000129772)
(-2.65433e-09 -2.57812e-09 -0.000125127)
(8.44025e-09 -2.96512e-09 -0.000127387)
(-3.83705e-09 1.82979e-09 -0.000128439)
(2.60359e-09 -1.72307e-09 -0.000128383)
(-1.095e-08 3.58203e-09 -0.000127443)
(-8.82551e-09 5.39946e-09 -0.000130023)
(2.12411e-09 3.04664e-09 -0.00012518)
(1.3825e-08 -6.67219e-09 -0.000129941)
(3.255e-09 -5.3272e-09 -0.000125047)
(-9.00529e-09 -1.95105e-09 -0.000130521)
(3.29098e-09 -1.39069e-09 -0.000130426)
(-3.22006e-09 6.13278e-09 -0.000127551)
(2.21265e-09 -2.65154e-09 -0.000128584)
(-2.20195e-09 2.39507e-09 -0.000128592)
(3.72126e-09 -9.77492e-09 -0.000127552)
(6.48056e-09 -1.22128e-08 -0.000129786)
(4.35233e-09 -1.13677e-09 -0.000125164)
(-2.47086e-09 -4.00974e-09 -0.000125097)
(7.27549e-10 -4.35933e-09 -0.00013051)
(2.22255e-09 1.03273e-08 -0.000130462)
(-1.97592e-09 6.40612e-09 -0.000125759)
(-2.50209e-09 -8.9632e-10 -0.000125767)
(2.77139e-09 9.70845e-10 -0.000125704)
(-5.65344e-09 1.13594e-09 -0.00012571)
(-2.99768e-09 -1.83904e-10 -0.000125767)
(-2.41133e-09 7.95471e-09 -0.000125745)
(-5.35048e-09 7.76405e-10 -0.00012572)
(1.95579e-09 1.1449e-09 -0.000125711)
(3.83766e-09 -2.36847e-09 -0.000130213)
(7.80313e-09 -3.24286e-09 -0.000130182)
(6.91091e-09 -1.10589e-09 -0.000130502)
(-8.15281e-09 1.66029e-09 -0.000130467)
(3.29957e-10 4.50111e-09 -0.000130483)
(2.16657e-09 -9.02604e-09 -0.000130498)
(-8.17336e-09 1.54774e-09 -0.000130453)
(7.701e-09 -1.42957e-09 -0.000130513)
(2.39327e-09 -9.77589e-09 -0.000130485)
(5.07357e-10 4.47258e-09 -0.000130496)
(-9.76717e-09 -3.27246e-09 -0.000127403)
(1.79467e-09 1.81325e-09 -0.000128422)
(-2.73798e-09 -1.79826e-09 -0.000128402)
(7.80267e-09 3.10413e-09 -0.000127425)
(-4.83473e-09 1.7734e-09 -0.000125148)
(-1.33534e-08 -6.61918e-09 -0.000129943)
(-1.28888e-09 -4.3534e-09 -0.000125068)
(-8.01952e-09 3.13358e-09 -0.000127429)
(2.22132e-09 -1.80985e-09 -0.000128393)
(8.86852e-09 -3.18296e-09 -0.000127398)
(-2.07044e-09 1.85084e-09 -0.000128425)
(5.49054e-10 -4.18361e-09 -0.000125063)
(2.21058e-09 2.88853e-09 -0.000125165)
(7.84214e-09 3.11769e-09 -0.000127429)
(-2.43987e-09 -1.80792e-09 -0.000128397)
(-9.18567e-09 -3.21408e-09 -0.000127399)
(1.87324e-09 1.83947e-09 -0.000128428)
(-1.30344e-08 -6.5837e-09 -0.000129939)
(-1.28601e-09 -4.47121e-09 -0.000125057)
(-2.91811e-09 2.64237e-09 -0.000125159)
(2.5027e-10 -2.885e-09 -0.000125773)
(-1.21608e-09 2.42714e-09 -0.000125733)
(-1.22588e-09 2.286e-09 -0.000125735)
(-3.05434e-10 -4.22357e-09 -0.000125764)
(4.61689e-09 3.13174e-09 -0.000130219)
(-1.60405e-09 2.31601e-09 -0.000130488)
(-2.75321e-09 -1.0036e-08 -0.000130504)
(9.10897e-09 1.98992e-09 -0.000130444)
(-7.96823e-09 -1.55859e-09 -0.000130506)
(1.05714e-09 -2.05782e-09 -0.000130208)
(-1.7917e-09 2.14428e-09 -0.000125749)
(-2.32631e-10 -4.46254e-09 -0.000125742)
(-1.36418e-10 -4.1921e-09 -0.000125753)
(-1.2533e-09 2.47052e-09 -0.000125741)
(-8.03938e-11 -3.53772e-09 -0.000130196)
(-2.33518e-09 -9.59708e-09 -0.000130488)
(-1.02837e-09 3.48337e-09 -0.000130499)
(-2.81056e-09 -6.56808e-09 -0.000127583)
(1.75997e-09 3.37428e-09 -0.000128545)
(-1.7587e-09 -1.6532e-09 -0.000128621)
(3.3546e-09 1.01088e-08 -0.000127516)
(3.82797e-09 6.45401e-10 -0.000125133)
(-5.28395e-09 -9.09726e-09 -0.000129773)
(-2.85608e-09 2.1088e-09 -0.000125127)
(3.35956e-09 -1.00887e-08 -0.000127524)
(-1.86406e-09 2.3327e-09 -0.000128618)
(-2.93228e-09 6.5581e-09 -0.000127577)
(1.78487e-09 -2.6375e-09 -0.000128556)
(-2.45098e-09 -3.49141e-09 -0.000125113)
(4.20207e-09 -1.17216e-09 -0.000125146)
(3.47759e-09 1.04163e-08 -0.000127524)
(-1.81036e-09 -1.5172e-09 -0.000128615)
(-2.85011e-09 -6.39302e-09 -0.000127576)
(1.83783e-09 3.53355e-09 -0.000128553)
(-2.63753e-09 3.04545e-09 -0.000125113)
(4.14781e-09 1.05706e-09 -0.000125146)
(2.77866e-09 6.02061e-09 -0.000127581)
(-1.75629e-09 -3.18057e-09 -0.000128548)
(1.77663e-09 1.88854e-09 -0.000128624)
(-3.35466e-09 -1.05065e-08 -0.000127515)
(-4.68493e-09 -2.8164e-09 -0.000125132)
(4.8514e-09 7.32452e-09 -0.000129767)
(1.94142e-09 -4.41645e-09 -0.000125127)
(2.84473e-09 -6.86301e-09 -0.000127581)
(-1.74198e-09 2.67984e-09 -0.000128544)
(1.76884e-09 -1.93981e-09 -0.00012862)
(-3.23029e-09 9.22159e-09 -0.000127514)
(-4.11561e-09 1.35588e-09 -0.000125137)
(5.31301e-09 -9.18492e-09 -0.000129773)
(2.73199e-09 2.45121e-09 -0.000125133)
(-3.42053e-09 -1.0524e-08 -0.000127523)
(1.83716e-09 1.86237e-09 -0.000128617)
(2.86327e-09 6.09322e-09 -0.000127574)
(-1.81205e-09 -3.15452e-09 -0.000128556)
(2.02905e-09 -4.52051e-09 -0.000125113)
(-4.61721e-09 -2.30526e-09 -0.000125146)
(-3.34009e-09 9.48418e-09 -0.000127521)
(1.82939e-09 -2.14256e-09 -0.000128613)
(2.99454e-09 -7.47319e-09 -0.000127575)
(-1.80532e-09 2.93256e-09 -0.000128552)
(3.3411e-09 1.02093e-09 -0.000125113)
(-1.98747e-09 -4.46911e-09 -0.000125146)
(9.14122e-09 -1.95914e-09 -0.000130529)
(-6.31243e-09 1.4745e-10 -0.000130437)
(1.01707e-09 3.88616e-09 -0.000130513)
(2.55197e-09 -1.06101e-08 -0.00013047)
(-8.50116e-09 -2.98275e-09 -0.000127388)
(3.94587e-09 1.81546e-09 -0.000128442)
(-2.76527e-09 -1.73753e-09 -0.000128386)
(1.11154e-08 3.60097e-09 -0.000127443)
(-2.39038e-09 2.94642e-09 -0.000125174)
(-1.39149e-08 -6.69584e-09 -0.000129934)
(-3.35689e-09 -5.28194e-09 -0.000125041)
(-3.52294e-09 -2.11419e-09 -0.0001302)
(-1.13443e-09 -5.75123e-09 -0.000125736)
(-2.1948e-09 1.75242e-09 -0.000125756)
(6.60492e-10 4.67498e-09 -0.000125771)
(-4.15417e-09 -9.20277e-09 -0.000125743)
(-8.86891e-10 4.26106e-09 -0.000130518)
(-3.48134e-09 -1.25698e-08 -0.000130476)
(-3.19968e-09 -5.97797e-09 -0.00012755)
(2.20799e-09 3.8244e-09 -0.000128581)
(-2.16184e-09 -1.67208e-09 -0.000128589)
(3.86464e-09 1.02199e-08 -0.000127551)
(4.19875e-09 8.13996e-10 -0.000125164)
(-5.42221e-09 -7.86147e-09 -0.000129742)
(-2.74686e-09 3.4333e-09 -0.000125096)
(3.35395e-09 6.89691e-09 -0.000127549)
(-2.1486e-09 -1.93843e-09 -0.000128584)
(2.26126e-09 3.27981e-09 -0.000128592)
(-3.59714e-09 -8.87204e-09 -0.000127551)
(-4.50281e-09 -1.52065e-09 -0.000125165)
(5.26967e-09 7.22428e-09 -0.000129737)
(2.59276e-09 -3.8517e-09 -0.000125097)
(2.9844e-09 -4.49232e-09 -0.000127549)
(-2.2376e-09 4.67841e-09 -0.00012858)
(2.10568e-09 -5.45668e-10 -0.000128588)
(-4.02667e-09 1.13273e-08 -0.00012755)
(-5.37086e-09 3.76086e-09 -0.000125169)
(4.85767e-09 -5.74369e-09 -0.000129743)
(1.47114e-09 6.59452e-09 -0.000125103)
(-2.77429e-09 8.60069e-10 -0.000125736)
(4.21055e-09 -1.11793e-10 -0.000125755)
(4.53372e-09 -1.16765e-11 -0.000125758)
(-2.28164e-09 1.13893e-09 -0.000125736)
(-1.57833e-09 1.48143e-09 -0.000130189)
(8.02372e-09 1.20966e-09 -0.000130546)
(-7.7989e-09 -1.06375e-09 -0.000130454)
(4.81761e-09 6.44308e-09 -0.000130201)
(-1.38375e-09 9.08558e-10 -0.000125752)
(6.57333e-09 2.8076e-09 -0.000127377)
(-4.34623e-09 -1.78764e-09 -0.000128434)
(2.2716e-09 1.78822e-09 -0.000128376)
(-1.31604e-08 -3.84973e-09 -0.000127435)
(5.86128e-10 -3.77391e-09 -0.000125192)
(1.104e-08 5.94657e-09 -0.00012993)
(1.37272e-09 4.60036e-09 -0.000125057)
(-7.16491e-09 2.88978e-09 -0.00012738)
(3.78055e-09 -1.81129e-09 -0.000128438)
(-3.11234e-09 1.84509e-09 -0.000128379)
(1.26593e-08 -3.75808e-09 -0.000127437)
(-3.21975e-09 -2.71671e-09 -0.000125186)
(-1.17143e-08 6.11973e-09 -0.000129927)
(-3.24151e-09 5.33495e-09 -0.00012505)
(1.45996e-09 1.38199e-09 -0.000128381)
(1.59971e-11 1.69804e-09 -0.000127377)
(-1.68164e-09 1.45318e-09 -0.000128384)
(-1.78045e-11 1.69862e-09 -0.000127379)
(-2.71288e-09 -9.27601e-10 -0.00013052)
(-3.69599e-09 1.27173e-08 -0.000130476)
(-1.07729e-08 2.86323e-09 -0.000130534)
(7.02847e-09 -5.00361e-10 -0.000130443)
(-9.43376e-10 3.08752e-09 -0.000125719)
(-9.65968e-09 4.58227e-10 -0.000125194)
(1.72679e-09 3.37148e-09 -0.000125212)
(7.52155e-09 1.02994e-09 -0.000130548)
(-2.47092e-08 -1.04212e-08 -0.000130527)
(-4.0489e-09 8.45583e-10 -0.000125157)
(4.27692e-09 -2.35167e-09 -0.00012511)
(-1.59555e-09 2.30713e-09 -0.000130523)
(-1.15235e-09 -6.36004e-09 -0.000130452)
(5.519e-09 -6.533e-09 -0.000125094)
(8.42471e-09 -5.82888e-13 -0.000125124)
(-3.22639e-09 -5.04229e-09 -0.00013048)
(-1.16044e-08 -3.94575e-09 -0.000130476)
(-2.18682e-09 -3.06455e-09 -0.000125159)
(4.15072e-09 -1.56885e-09 -0.00012512)
(1.50549e-09 7.44024e-09 -0.00013052)
(3.50372e-10 -4.15165e-09 -0.000130463)
(-1.22527e-09 -3.4239e-09 -0.000125072)
(2.50578e-09 2.52579e-09 -0.000125116)
(9.35597e-09 2.07487e-09 -0.000130463)
(-2.24103e-09 1.43622e-09 -0.000130465)
(-3.27076e-09 -3.91599e-10 -0.000125169)
(3.23046e-09 6.06303e-10 -0.000125127)
(1.5838e-09 7.6032e-09 -0.000130533)
(2.15257e-10 -4.25278e-09 -0.000130471)
(-3.56157e-09 -2.42794e-09 -0.00012507)
(6.57309e-10 3.3141e-09 -0.000125117)
(9.11269e-09 2.00152e-09 -0.000130461)
(-4.02314e-09 3.70533e-10 -0.000130468)
(-3.69487e-09 4.94143e-10 -0.000125168)
(2.81363e-09 1.57286e-09 -0.000125124)
(1.87907e-09 8.28067e-09 -0.000130533)
(7.1704e-10 -3.27417e-09 -0.000130468)
(-6.71607e-09 -1.11251e-09 -0.000125074)
(-2.12455e-09 4.46448e-09 -0.000125123)
(1.32541e-08 4.32435e-09 -0.000130466)
(9.56896e-10 3.2822e-09 -0.000130472)
(-4.15458e-09 1.78962e-09 -0.000125165)
(2.58655e-09 2.17617e-09 -0.000125121)
(2.17563e-09 8.79605e-09 -0.000130529)
(8.4557e-10 -3.10007e-09 -0.000130465)
(-6.308e-09 -1.18164e-09 -0.000125085)
(-3.16871e-10 3.79587e-09 -0.000125136)
(1.08355e-08 3.02667e-09 -0.000130474)
(-3.9297e-09 5.26496e-10 -0.000130484)
(-3.74185e-09 7.78572e-10 -0.000125164)
(3.35769e-09 2.54188e-10 -0.000125121)
(2.00928e-09 8.42021e-09 -0.000130528)
(5.3858e-10 -3.68729e-09 -0.000130465)
(-2.62801e-09 -2.6566e-09 -0.000125097)
(3.86358e-09 2.12486e-09 -0.000125146)
(9.37537e-09 2.25929e-09 -0.000130482)
(-4.89884e-09 9.90446e-11 -0.000130487)
(-2.61334e-09 -2.22271e-09 -0.000125162)
(4.43362e-09 -2.57721e-09 -0.000125119)
(1.54658e-09 7.62009e-09 -0.000130527)
(2.25031e-11 -4.57486e-09 -0.000130463)
(1.19115e-11 -3.77219e-09 -0.000125102)
(5.16044e-09 1.55107e-09 -0.000125147)
(4.11108e-09 -6.7455e-10 -0.000130483)
(-9.71558e-09 -2.69941e-09 -0.000130487)
(-2.01368e-09 -3.8018e-09 -0.000125159)
(4.70902e-09 -3.38478e-09 -0.000125115)
(1.28921e-09 7.1601e-09 -0.000130524)
(-8.77324e-12 -4.58995e-09 -0.00013046)
(-5.97559e-10 -3.5698e-09 -0.000125098)
(4.18844e-09 1.93911e-09 -0.000125142)
(6.75805e-09 7.7227e-10 -0.000130479)
(-5.62187e-09 -3.343e-10 -0.00013048)
(-2.21889e-09 -3.29873e-09 -0.000125155)
(4.34853e-09 -2.42959e-09 -0.000125111)
(1.54807e-09 7.62794e-09 -0.00013052)
(2.77303e-10 -4.14334e-09 -0.000130456)
(-1.48386e-09 -3.20882e-09 -0.000125095)
(3.49545e-09 2.20286e-09 -0.00012514)
(5.88218e-09 2.75432e-10 -0.000130475)
(-7.61287e-09 -1.5629e-09 -0.00013048)
(-2.56085e-09 -2.36399e-09 -0.000125153)
(4.04922e-09 -1.60091e-09 -0.00012511)
(1.68448e-09 7.83551e-09 -0.000130518)
(3.81585e-10 -3.98048e-09 -0.000130455)
(-1.78542e-09 -3.09155e-09 -0.000125094)
(3.45202e-09 2.23202e-09 -0.000125139)
(8.51465e-09 1.73931e-09 -0.000130475)
(-4.24088e-09 4.16767e-10 -0.000130477)
(-2.74669e-09 -1.88632e-09 -0.000125152)
(3.97978e-09 -1.41431e-09 -0.000125109)
(1.74642e-09 7.94088e-09 -0.000130518)
(4.15303e-10 -3.91229e-09 -0.000130455)
(-1.82151e-09 -3.06991e-09 -0.000125093)
(3.3005e-09 2.28936e-09 -0.000125139)
(6.36061e-09 5.39822e-10 -0.000130474)
(-7.33182e-09 -1.39885e-09 -0.000130479)
(-2.76054e-09 -1.87141e-09 -0.000125152)
(3.97553e-09 -1.41299e-09 -0.000125109)
(1.73991e-09 7.93898e-09 -0.000130517)
(4.21014e-10 -3.92117e-09 -0.000130455)
(-1.74773e-09 -3.09963e-09 -0.000125093)
(3.39033e-09 2.26896e-09 -0.00012514)
(8.55814e-09 1.77127e-09 -0.000130474)
(-4.25802e-09 4.12829e-10 -0.000130478)
(-2.73078e-09 -1.95804e-09 -0.000125151)
(3.97803e-09 -1.37086e-09 -0.000125111)
(1.76113e-09 7.95514e-09 -0.000130517)
(3.53128e-10 -4.06455e-09 -0.000130456)
(-1.60901e-09 -3.1519e-09 -0.000125092)
(3.21754e-09 2.32993e-09 -0.000125141)
(6.18809e-09 4.40515e-10 -0.000130473)
(-7.35089e-09 -1.38922e-09 -0.000130482)
(-2.70102e-09 -2.04955e-09 -0.000125149)
(3.98036e-09 -1.36527e-09 -0.000125113)
(1.74298e-09 7.96284e-09 -0.000130515)
(3.42571e-10 -4.0941e-09 -0.000130459)
(-1.44908e-09 -3.24379e-09 -0.000125089)
(3.14871e-09 2.40065e-09 -0.000125146)
(8.38276e-09 1.64764e-09 -0.00013047)
(-4.2956e-09 4.35098e-10 -0.000130484)
(-2.70908e-09 -2.12784e-09 -0.000125145)
(3.9535e-09 -1.10329e-09 -0.000125121)
(1.79078e-09 8.13076e-09 -0.00013051)
(3.28928e-10 -4.26765e-09 -0.000130467)
(1.93405e-09 8.55893e-09 -0.000130497)
(3.97273e-10 -4.42797e-09 -0.000130485)
(-3.47463e-09 4.30415e-09 -0.000130586)
(-1.55233e-09 8.86784e-09 -0.000130468)
(-2.16409e-09 3.71243e-09 -0.000125269)
(1.14132e-08 -7.65928e-09 -0.000125157)
(6.4698e-10 3.08021e-09 -0.000125266)
(-9.99681e-09 -7.08546e-09 -0.000125152)
(1.23969e-09 2.98215e-09 -0.000130583)
(1.7771e-08 7.7328e-09 -0.000130504)
(-9.11652e-10 4.53052e-09 -0.00013047)
(-7.89382e-10 -4.34953e-09 -0.000130517)
(3.25239e-09 2.57668e-09 -0.000125118)
(2.71623e-09 -4.03654e-09 -0.000125121)
(-4.07626e-09 2.31548e-10 -0.000125118)
(2.67925e-09 -1.98931e-10 -0.000125132)
(-2.70453e-09 -3.85714e-09 -0.000125123)
(-2.25868e-09 -1.02529e-08 -0.000130463)
(5.26498e-09 -3.92185e-10 -0.000130506)
(1.89373e-09 -3.53865e-09 -0.000125155)
(-1.3428e-09 -3.81059e-09 -0.000125158)
(1.40828e-09 -8.75555e-09 -0.000130468)
(-7.16918e-09 6.18717e-10 -0.00013051)
(-7.62828e-09 1.41125e-09 -0.000130557)
(2.74657e-08 -1.21154e-08 -0.00013054)
(1.80962e-10 -5.40297e-09 -0.000130526)
(1.81045e-09 1.16795e-09 -0.000130462)
(1.86111e-08 -7.96576e-09 -0.0001305)
(1.27655e-08 -9.90727e-09 -0.000130527)
(1.61527e-09 1.86643e-09 -0.000130466)
(3.17836e-09 -1.06511e-08 -0.000130525)
(7.62197e-09 -4.73183e-10 -0.000125188)
(6.52491e-11 4.09794e-09 -0.000125205)
(1.02871e-08 -1.21433e-09 -0.00012515)
(3.18687e-09 -5.54985e-09 -0.000125155)
(-1.16296e-08 -1.77817e-09 -0.000125146)
(-1.60191e-09 -4.86033e-09 -0.000125148)
(-1.75113e-09 -8.1363e-09 -0.000130533)
(-2.98921e-10 3.834e-09 -0.000130468)
(-2.08328e-08 -9.35203e-09 -0.000130496)
(-1.35121e-08 -1.00024e-08 -0.000130515)
(-2.97836e-09 -2.53643e-10 -0.000130467)
(-3.74567e-09 -1.19261e-08 -0.000130531)
(-5.25463e-09 -3.99518e-09 -0.000125162)
(1.88781e-09 -3.49627e-09 -0.00012511)
(4.62769e-09 -2.80686e-09 -0.000125114)
(-2.17446e-09 -3.28471e-09 -0.000125153)
(3.16114e-09 -9.1763e-10 -0.000125113)
(-4.29297e-09 -2.02346e-09 -0.000125153)
(3.21365e-09 -1.53794e-09 -0.000125157)
(-3.79077e-09 -1.15257e-09 -0.000125109)
(4.78877e-09 -2.74335e-09 -0.000125163)
(-2.35862e-09 -2.31522e-09 -0.000125113)
(-5.0154e-09 -3.74679e-09 -0.000125112)
(2.64451e-09 -2.2391e-09 -0.000125152)
(-3.62991e-09 2.85523e-10 -0.000125116)
(3.86363e-09 -8.97532e-10 -0.000125156)
(-1.10337e-08 -3.32233e-09 -0.000130502)
(5.60567e-09 5.15245e-10 -0.000130505)
(8.55481e-11 -4.59168e-09 -0.000130456)
(5.304e-10 5.90557e-09 -0.000130514)
(6.76435e-09 8.82871e-10 -0.000130508)
(-9.33881e-09 -2.36786e-09 -0.000130499)
(-4.17467e-09 2.1911e-09 -0.000125107)
(1.54809e-09 -2.97043e-09 -0.000125152)
(3.45027e-09 2.5483e-09 -0.000125111)
(-2.76199e-09 -2.43263e-09 -0.000125149)
(1.97946e-09 -3.07422e-09 -0.000125155)
(-4.29778e-09 2.07581e-09 -0.000125102)
(-2.53956e-09 -2.83636e-09 -0.000125151)
(3.11081e-09 2.59866e-09 -0.0001251)
(3.49002e-10 4.38221e-09 -0.000130529)
(6.64898e-10 -5.52136e-09 -0.000130462)
(9.45911e-09 -2.30087e-09 -0.000130506)
(-6.20151e-09 9.09163e-10 -0.000130502)
(-4.83214e-10 -3.94827e-09 -0.000130464)
(-7.91347e-10 6.31733e-09 -0.000130523)
(-6.54461e-09 7.93248e-10 -0.000130504)
(9.39019e-09 -2.34152e-09 -0.000130496)
(1.36112e-09 -3.82776e-09 -0.000130491)
(1.07041e-08 -3.46413e-09 -0.000130483)
(2.69949e-09 -9.57279e-09 -0.000130531)
(7.32458e-10 3.59797e-09 -0.000130473)
(6.18459e-09 -9.1681e-10 -0.000130476)
(-5.41125e-09 1.08314e-11 -0.000130478)
(-2.50597e-10 5.35312e-09 -0.000130478)
(1.71532e-09 -7.64894e-09 -0.000130537)
(-7.97154e-09 -7.54562e-09 -0.000125087)
(-9.9547e-09 -5.80835e-10 -0.000125118)
(4.41536e-09 1.73558e-09 -0.000125118)
(2.35097e-09 -4.87139e-09 -0.000125077)
(-5.24186e-09 1.44953e-09 -0.000125114)
(-3.6885e-09 -5.40365e-09 -0.00012507)
(-4.14919e-09 -1.18589e-08 -0.000130535)
(-1.59805e-09 1.9103e-09 -0.000130477)
(-7.37493e-09 -1.57978e-09 -0.000130472)
(6.08022e-09 3.36971e-10 -0.000130467)
(-8.24259e-10 3.38203e-09 -0.00013048)
(-1.81934e-09 -7.85234e-09 -0.000130543)
(-3.37542e-09 9.85492e-11 -0.000125158)
(3.49759e-09 -5.68835e-11 -0.000125119)
(3.57573e-09 -1.20026e-10 -0.000125125)
(-2.67759e-09 -1.75395e-09 -0.000125165)
(3.59223e-09 2.81342e-10 -0.000125125)
(-3.05324e-09 8.84283e-10 -0.000125165)
(1.32295e-09 -5.21323e-09 -0.000125158)
(-4.73364e-09 -3.16954e-09 -0.00012512)
(2.94109e-09 1.16577e-09 -0.000125162)
(-3.69655e-09 4.83033e-10 -0.000125123)
(-4.09556e-09 -1.59736e-09 -0.000125125)
(2.05744e-09 -3.34684e-09 -0.000125165)
(-3.86176e-09 1.00931e-09 -0.000125129)
(2.87984e-09 1.32646e-09 -0.000125168)
(-8.5417e-09 -2.06183e-09 -0.000130504)
(7.36145e-09 1.21225e-09 -0.000130514)
(3.17881e-10 -4.17816e-09 -0.000130469)
(1.6486e-09 7.62162e-09 -0.000130528)
(7.47202e-09 1.31696e-09 -0.000130519)
(-8.0437e-09 -1.80907e-09 -0.000130511)
(-3.41991e-09 2.3027e-09 -0.000125108)
(2.86566e-09 -2.71151e-09 -0.000125161)
(2.87103e-09 2.54246e-09 -0.000125106)
(-3.12594e-09 -2.59012e-09 -0.000125158)
(2.96487e-09 -2.61646e-09 -0.000125166)
(-2.97339e-09 2.47945e-09 -0.000125114)
(-2.87492e-09 -2.6396e-09 -0.000125162)
(2.60918e-09 2.65502e-09 -0.000125112)
(-1.69419e-09 7.69622e-09 -0.000130528)
(-5.91299e-10 -3.75412e-09 -0.000130471)
(9.09426e-09 -2.31682e-09 -0.000130501)
(-7.059e-09 1.08134e-09 -0.00013051)
(-6.81345e-10 -3.55027e-09 -0.000130477)
(-1.68991e-09 7.64984e-09 -0.000130535)
(-6.90847e-09 1.03693e-09 -0.000130515)
(8.67607e-09 -2.10218e-09 -0.000130508)
(-9.27479e-09 2.19459e-09 -0.000130472)
(4.50244e-09 3.09478e-11 -0.000130473)
(8.43235e-10 -6.11338e-09 -0.000130542)
(-7.70897e-10 6.17758e-09 -0.00013048)
(4.03688e-09 3.42697e-10 -0.000130472)
(-1.043e-08 2.873e-09 -0.00013047)
(-9.56971e-10 6.48485e-09 -0.000130478)
(4.58524e-10 -5.50915e-09 -0.000130542)
(2.86058e-10 -3.77775e-09 -0.000125067)
(-6.17291e-10 3.27472e-09 -0.000125112)
(1.85856e-09 2.82866e-09 -0.000125115)
(-2.86881e-09 -2.73355e-09 -0.00012507)
(-2.45229e-09 2.56781e-09 -0.000125112)
(4.7656e-09 -1.93525e-09 -0.000125066)
(-1.27323e-09 -6.71602e-09 -0.000130546)
(2.63399e-09 9.46829e-09 -0.000130485)
(-6.35241e-09 -1.08592e-09 -0.00013047)
(9.42855e-09 2.58573e-09 -0.000130461)
(-3.54133e-10 4.45073e-09 -0.000130478)
(-7.97524e-10 -6.37795e-09 -0.000130547)
(-3.08822e-09 9.34879e-10 -0.000125169)
(3.58314e-09 4.15768e-10 -0.000125127)
(3.08249e-09 9.35046e-10 -0.000125126)
(-3.48359e-09 3.73994e-12 -0.00012517)
(3.85032e-09 1.20539e-09 -0.000125125)
(-2.93868e-09 1.43013e-09 -0.00012517)
(2.63068e-09 -1.92549e-09 -0.00012517)
(-2.53206e-09 2.37181e-09 -0.000125128)
(2.79464e-09 1.65793e-09 -0.000125173)
(-3.74837e-09 8.3338e-10 -0.000125131)
(-3.35215e-09 2.46577e-10 -0.000125124)
(4.15392e-09 1.57314e-09 -0.00012517)
(-4.02514e-09 1.62799e-09 -0.00012513)
(2.81213e-09 1.73456e-09 -0.000125174)
(-7.98796e-09 -1.70576e-09 -0.000130515)
(7.59272e-09 1.45853e-09 -0.000130521)
(5.27834e-10 -3.64841e-09 -0.00013047)
(1.55695e-09 7.62788e-09 -0.000130534)
(7.39803e-09 1.36361e-09 -0.000130519)
(-7.93125e-09 -1.62263e-09 -0.000130515)
(-2.74189e-09 2.65466e-09 -0.000125118)
(3.48066e-09 -2.32851e-09 -0.000125167)
(2.78584e-09 2.66005e-09 -0.000125116)
(-3.30655e-09 -2.40875e-09 -0.000125163)
(3.09733e-09 -2.48598e-09 -0.000125166)