/*--------------------------------*- C++ -*----------------------------------*\
| =========                 |                                                 |
| \\      /  F ield         | OpenFOAM: The Open Source CFD Toolbox           |
|  \\    /   O peration     | Version:  2206                                  |
|   \\  /    A nd           | Website:  www.openfoam.com                      |
|    \\/     M anipulation  |                                                 |
\*---------------------------------------------------------------------------*/
FoamFile
{
    version     2.0;
    format      ascii;
    arch        "LSB;label=32;scalar=64";
    class       volScalarField;
    location    "70";
    object      k;
}
// * * * * * * * * * * * * * * * * * * * * * * * * * * * * * * * * * * * * * //

dimensions      [0 2 -2 0 0 0 0];

internalField   nonuniform List<scalar> 
66701
(
7.26825e-06
6.71012e-06
1.12638e-05
1.708e-05
8.78661e-06
2.92485e-05
2.65945e-05
9.55234e-06
6.88808e-06
1.15967e-05
1.74915e-05
8.85852e-06
2.95845e-05
9.63799e-06
2.69409e-05
7.43223e-06
2.09555e-06
5.02025e-07
9.68182e-08
5.23331e-08
3.33698e-07
2.10066e-06
5.02909e-07
9.69097e-08
5.22874e-08
3.33225e-07
2.08266e-06
4.86844e-07
9.17424e-08
4.69713e-08
2.95106e-07
2.14955e-06
5.0266e-07
9.44409e-08
4.72486e-08
2.95305e-07
2.14084e-06
5.12764e-07
9.86931e-08
5.255e-08
3.33951e-07
2.15725e-06
5.15887e-07
9.91321e-08
5.25185e-08
3.33394e-07
1.97396e-06
4.65463e-07
8.87834e-08
4.77997e-08
3.0407e-07
2.02556e-06
4.79799e-07
9.18026e-08
4.91508e-08
3.12526e-07
1.99929e-06
4.72269e-07
9.00076e-08
4.79401e-08
3.0423e-07
2.05441e-06
4.87288e-07
9.3088e-08
4.92817e-08
3.12584e-07
7.26153e-06
7.25985e-06
3.33668e-05
1.78604e-05
1.80264e-05
1.13791e-05
3.3749e-05
3.00062e-05
2.88281e-05
1.12859e-05
3.51987e-05
3.37316e-05
2.95228e-05
2.93424e-05
2.94524e-05
1.16527e-05
3.50369e-05
3.40516e-05
2.97412e-05
3.03618e-05
7.40865e-06
3.35874e-05
1.82289e-05
7.24933e-06
1.36619e-05
6.5226e-06
6.50801e-06
1.36886e-05
6.49861e-06
6.50811e-06
2.82996e-05
1.13282e-05
3.39347e-05
1.80853e-05
2.83168e-05
1.13436e-05
3.3988e-05
2.83149e-05
1.11887e-05
3.37847e-05
1.78444e-05
2.83602e-05
1.12234e-05
3.38319e-05
8.77226e-06
2.67832e-05
9.54018e-06
2.91171e-05
8.79125e-06
2.67939e-05
9.52152e-06
6.74013e-06
1.71225e-05
1.11923e-05
6.74854e-06
1.71085e-05
8.87169e-06
9.66945e-06
2.68768e-05
2.96874e-05
8.89014e-06
9.69142e-06
2.69357e-05
6.90687e-06
1.76003e-05
1.16488e-05
6.89269e-06
1.75885e-05
7.4068e-06
1.39373e-05
6.614e-06
6.64026e-06
2.8037e-05
3.4303e-05
1.80725e-05
3.43886e-05
1.13565e-05
2.86333e-05
1.83145e-05
1.15413e-05
3.42345e-05
7.42908e-06
2.44049e-05
1.93898e-05
1.95854e-05
1.55597e-05
2.43267e-05
1.93545e-05
1.9594e-05
1.55097e-05
1.95853e-05
1.54406e-05
1.9494e-05
1.54253e-05
3.48492e-05
3.34887e-05
3.57417e-05
3.54496e-05
3.48497e-05
3.56761e-05
3.53557e-05
3.40609e-05
3.33093e-05
3.53176e-05
2.99851e-05
3.53068e-05
3.42253e-05
3.30138e-05
3.35123e-05
3.50804e-05
3.30228e-05
3.50119e-05
3.36564e-05
3.51267e-05
3.31105e-05
3.47372e-05
3.37892e-05
3.52733e-05
2.96597e-05
3.46872e-05
3.46466e-05
3.39184e-05
3.36898e-05
3.3233e-05
3.51456e-05
3.4385e-05
3.36783e-05
3.31334e-05
3.48245e-05
3.42701e-05
3.44144e-05
3.5027e-05
3.01874e-05
3.47444e-05
3.44523e-05
3.54874e-05
3.5251e-05
3.39112e-05
3.5593e-05
3.61696e-05
3.54436e-05
2.09222e-06
5.01625e-07
9.67589e-08
5.23088e-08
3.33525e-07
2.09911e-06
5.03161e-07
9.70183e-08
5.23454e-08
3.33644e-07
2.09367e-06
4.89197e-07
9.21067e-08
4.69757e-08
2.94892e-07
2.09445e-06
4.89817e-07
9.22214e-08
4.70133e-08
2.95108e-07
2.15572e-06
5.03845e-07
9.46388e-08
4.72702e-08
2.95318e-07
2.14067e-06
5.1325e-07
9.88093e-08
5.25618e-08
3.33938e-07
2.09508e-06
5.0229e-07
9.68703e-08
5.23335e-08
3.33648e-07
1.97252e-06
4.6544e-07
8.87881e-08
4.77696e-08
3.0382e-07
2.02952e-06
4.81577e-07
9.21523e-08
4.91939e-08
3.12583e-07
1.97366e-06
4.65838e-07
8.88614e-08
4.78125e-08
3.04116e-07
2.0235e-06
4.79805e-07
9.18195e-08
4.91108e-08
3.12175e-07
2.08522e-06
4.88243e-07
9.20139e-08
4.70115e-08
2.95221e-07
2.00106e-06
4.72642e-07
9.00876e-08
4.79182e-08
3.03977e-07
2.06098e-06
4.88854e-07
9.33625e-08
4.93152e-08
3.12642e-07
2.00439e-06
4.7322e-07
9.01714e-08
4.79621e-08
3.0429e-07
2.06001e-06
4.88443e-07
9.32657e-08
4.92544e-08
3.12231e-07
2.15522e-06
5.03769e-07
9.46331e-08
4.7282e-08
2.95404e-07
2.1394e-06
5.12893e-07
9.87262e-08
5.255e-08
3.33919e-07
2.18412e-06
5.10441e-07
9.58822e-08
4.77812e-08
2.9831e-07
2.12656e-06
5.09496e-07
9.81373e-08
5.24973e-08
3.3393e-07
1.95052e-06
4.65739e-07
9.01617e-08
5.09871e-08
3.28023e-07
2.14231e-06
5.00336e-07
9.40951e-08
4.75372e-08
2.97822e-07
2.14109e-06
4.99928e-07
9.40378e-08
4.75938e-08
2.98294e-07
1.95147e-06
4.65821e-07
9.01735e-08
5.09788e-08
3.2802e-07
2.13209e-06
4.98395e-07
9.38042e-08
4.74973e-08
2.97719e-07
2.13424e-06
4.98527e-07
9.38142e-08
4.75168e-08
2.9789e-07
1.9482e-06
4.65596e-07
9.01595e-08
5.1018e-08
3.28278e-07
1.95169e-06
4.66029e-07
9.02148e-08
5.09982e-08
3.28128e-07
2.10682e-06
5.04011e-07
9.70893e-08
5.23139e-08
3.33281e-07
2.1073e-06
5.04136e-07
9.71046e-08
5.23067e-08
3.33232e-07
2.15895e-06
5.16238e-07
9.91971e-08
5.25343e-08
3.33453e-07
2.15919e-06
5.16377e-07
9.92097e-08
5.25295e-08
3.33421e-07
2.16486e-06
5.05665e-07
9.50371e-08
4.76649e-08
2.9808e-07
1.98822e-06
4.75233e-07
9.18344e-08
5.11897e-08
3.28351e-07
1.99376e-06
4.76398e-07
9.20479e-08
5.12258e-08
3.28433e-07
3.19429e-05
3.29058e-05
2.52332e-05
3.24534e-05
3.26724e-05
3.33429e-05
2.52946e-05
3.24775e-05
3.253e-05
3.35879e-05
2.511e-05
3.31063e-05
3.312e-05
3.39991e-05
2.489e-05
3.39519e-05
3.37743e-05
3.40954e-05
2.46458e-05
3.4545e-05
3.41872e-05
3.42914e-05
2.4377e-05
3.4699e-05
3.40209e-05
3.40481e-05
2.43795e-05
3.46135e-05
3.40097e-05
3.39038e-05
2.43392e-05
3.46194e-05
3.41795e-05
3.39469e-05
2.45723e-05
3.43371e-05
3.38687e-05
3.38791e-05
2.45291e-05
3.42682e-05
3.41175e-05
3.36996e-05
2.43249e-05
3.37751e-05
3.38172e-05
3.31734e-05
2.44769e-05
3.40789e-05
3.38064e-05
3.34887e-05
2.41845e-05
3.40601e-05
3.34291e-05
3.35148e-05
2.42242e-05
3.40529e-05
3.36879e-05
3.30373e-05
2.43271e-05
3.36693e-05
3.3751e-05
3.3441e-05
2.44031e-05
3.34673e-05
3.35544e-05
3.34003e-05
3.21892e-05
3.25937e-05
3.26364e-05
3.26656e-05
3.28474e-05
3.31574e-05
3.35912e-05
3.38794e-05
3.29631e-05
3.2746e-05
3.2953e-05
3.2481e-05
3.33165e-05
3.36227e-05
3.30192e-05
3.31867e-05
3.33402e-05
3.27269e-05
3.29456e-05
3.24294e-05
3.26836e-05
3.27453e-05
3.36776e-05
3.27672e-05
3.27931e-05
3.3153e-05
3.36807e-05
3.38201e-05
3.4072e-05
3.27567e-05
3.22686e-05
3.31641e-05
3.2481e-05
3.37115e-05
3.3652e-05
3.34823e-05
3.31228e-05
3.32972e-05
3.29486e-05
3.27339e-05
3.28845e-05
3.31714e-05
3.37321e-05
3.39862e-05
3.31761e-05
3.2933e-05
3.35008e-05
3.41825e-05
3.41065e-05
3.41028e-05
3.36453e-05
3.26776e-05
3.39291e-05
3.31987e-05
3.39899e-05
3.42025e-05
3.31596e-05
3.31694e-05
3.37051e-05
3.38896e-05
3.34488e-05
3.37539e-05
3.43248e-05
3.39953e-05
3.42587e-05
3.39303e-05
3.37338e-05
3.40739e-05
3.41613e-05
3.3878e-05
3.39583e-05
3.39791e-05
3.35741e-05
3.42953e-05
3.41247e-05
3.42491e-05
3.4377e-05
3.37824e-05
3.40707e-05
3.43843e-05
3.42689e-05
3.42892e-05
3.45595e-05
3.43575e-05
3.39829e-05
3.42636e-05
3.40503e-05
3.41134e-05
3.37886e-05
3.42665e-05
3.4236e-05
3.4083e-05
3.38697e-05
3.42782e-05
3.40841e-05
3.43688e-05
3.43867e-05
3.40775e-05
3.42396e-05
3.46705e-05
3.43741e-05
3.45143e-05
3.47542e-05
3.46925e-05
3.45304e-05
3.4241e-05
3.43685e-05
3.38762e-05
3.41223e-05
3.39457e-05
3.39986e-05
3.4077e-05
3.38824e-05
3.40655e-05
3.40374e-05
3.40454e-05
3.43143e-05
3.39956e-05
3.42076e-05
3.41268e-05
3.46277e-05
3.42953e-05
3.43464e-05
3.44506e-05
3.46012e-05
3.44497e-05
3.43267e-05
3.38688e-05
3.39619e-05
3.37694e-05
3.36862e-05
3.38793e-05
3.37788e-05
3.41624e-05
3.41627e-05
3.4242e-05
3.40769e-05
3.39222e-05
3.42527e-05
3.379e-05
3.40339e-05
3.43327e-05
3.43532e-05
3.42711e-05
3.40273e-05
3.46135e-05
3.4107e-05
3.41447e-05
3.44642e-05
3.38688e-05
3.42106e-05
3.3507e-05
3.38956e-05
3.42031e-05
3.3999e-05
3.41969e-05
3.39054e-05
3.3966e-05
3.39296e-05
3.41063e-05
3.3733e-05
3.40731e-05
3.44811e-05
3.4366e-05
3.41321e-05
3.41426e-05
3.4455e-05
3.41305e-05
3.44654e-05
3.4154e-05
3.38595e-05
3.41654e-05
3.38935e-05
3.39897e-05
3.4053e-05
3.38759e-05
3.43286e-05
3.39463e-05
3.42361e-05
3.40459e-05
3.38025e-05
3.39963e-05
3.44146e-05
3.45282e-05
3.42092e-05
3.45353e-05
3.44354e-05
3.44051e-05
3.4335e-05
3.41098e-05
3.3429e-05
3.35481e-05
3.41354e-05
3.3849e-05
3.36865e-05
3.38881e-05
3.33895e-05
3.41446e-05
3.40793e-05
3.40879e-05
3.39516e-05
3.39368e-05
3.38563e-05
3.42143e-05
3.45597e-05
3.38065e-05
3.42735e-05
3.42403e-05
3.4168e-05
3.39163e-05
3.3691e-05
3.39511e-05
3.38752e-05
3.36998e-05
3.382e-05
3.36337e-05
3.37451e-05
3.37586e-05
3.40963e-05
3.39993e-05
3.37125e-05
3.39423e-05
3.39022e-05
3.35578e-05
3.41633e-05
3.42692e-05
3.41869e-05
3.39435e-05
3.42355e-05
3.40885e-05
3.40486e-05
3.34901e-05
3.38628e-05
3.37523e-05
3.34846e-05
3.36541e-05
3.31702e-05
3.38152e-05
3.38502e-05
3.40358e-05
3.39219e-05
3.39246e-05
3.33757e-05
3.35084e-05
3.36983e-05
3.41511e-05
3.43179e-05
3.40031e-05
3.40656e-05
3.40249e-05
3.40086e-05
3.40636e-05
3.35644e-05
3.33249e-05
3.34959e-05
3.376e-05
3.36484e-05
3.31736e-05
3.38227e-05
3.3624e-05
3.3644e-05
3.33804e-05
3.39755e-05
3.37589e-05
3.32861e-05
3.37419e-05
3.3784e-05
3.41865e-05
3.36811e-05
3.41577e-05
3.37914e-05
3.41077e-05
3.38098e-05
3.3707e-05
3.3745e-05
3.36036e-05
3.37454e-05
3.34372e-05
3.32004e-05
3.34594e-05
3.34917e-05
3.35613e-05
3.37953e-05
3.3715e-05
3.31857e-05
3.36767e-05
3.36507e-05
3.38038e-05
3.41542e-05
3.37012e-05
3.41136e-05
3.38031e-05
3.39662e-05
3.37516e-05
3.3624e-05
3.35573e-05
3.35582e-05
3.38215e-05
3.36988e-05
3.35042e-05
3.34551e-05
3.35034e-05
3.38045e-05
3.35172e-05
3.38227e-05
3.37813e-05
3.35945e-05
3.34683e-05
3.37426e-05
3.41942e-05
3.37126e-05
3.36447e-05
3.37109e-05
3.31769e-05
3.35411e-05
3.39418e-05
3.37407e-05
3.34305e-05
3.32827e-05
3.32551e-05
3.32836e-05
3.38412e-05
3.30565e-05
3.37078e-05
3.39735e-05
3.33816e-05
3.37805e-05
3.32808e-05
7.35815e-06
7.41796e-06
3.49156e-05
2.8726e-05
2.90284e-05
3.2348e-05
2.90563e-05
3.42943e-05
2.88237e-05
1.72801e-05
1.77621e-05
3.30056e-05
1.77844e-05
1.75635e-05
2.99164e-05
1.14914e-05
1.15206e-05
2.98434e-05
7.33748e-06
7.3286e-06
3.0116e-05
1.13784e-05
1.14704e-05
2.99805e-05
2.52453e-05
2.53236e-05
2.50993e-05
2.53513e-05
2.51137e-05
2.53865e-05
2.50716e-05
3.63825e-05
3.04245e-05
2.96273e-05
3.28025e-05
3.08169e-05
2.98359e-05
3.61339e-05
7.41598e-06
7.39413e-06
3.5311e-05
2.93601e-05
3.01017e-05
3.28159e-05
3.49973e-05
2.94176e-05
3.04149e-05
1.79893e-05
1.81594e-05
3.34678e-05
1.82514e-05
1.83199e-05
3.0054e-05
1.16103e-05
2.99497e-05
1.15755e-05
7.37873e-06
7.3561e-06
2.96545e-05
1.14588e-05
2.9738e-05
1.1522e-05
2.50466e-05
2.53739e-05
2.50594e-05
2.51529e-05
2.49445e-05
2.52705e-05
2.49989e-05
3.67798e-05
3.10267e-05
2.96101e-05
3.25752e-05
3.66251e-05
3.10983e-05
2.98734e-05
7.45076e-06
7.44596e-06
3.52155e-05
2.97139e-05
3.01803e-05
3.2531e-05
3.53337e-05
2.96879e-05
3.03819e-05
1.84186e-05
1.83364e-05
3.40165e-05
1.84396e-05
1.84109e-05
3.02859e-05
1.15668e-05
3.01817e-05
1.16094e-05
7.47703e-06
7.47596e-06
3.01239e-05
1.15876e-05
3.01575e-05
1.16338e-05
2.4934e-05
2.5169e-05
2.49848e-05
2.4953e-05
2.48607e-05
2.49941e-05
2.48629e-05
3.6436e-05
3.10939e-05
2.99717e-05
3.32896e-05
3.67341e-05
3.09641e-05
3.00799e-05
7.46633e-06
7.4965e-06
3.56331e-05
2.97648e-05
3.06038e-05
3.34386e-05
3.50246e-05
2.97958e-05
3.0078e-05
1.83604e-05
1.82099e-05
3.39599e-05
1.83741e-05
1.82313e-05
2.97633e-05
1.16878e-05
3.00431e-05
1.17034e-05
7.50537e-06
7.48295e-06
2.99236e-05
1.16142e-05
2.99814e-05
1.16213e-05
2.48348e-05
2.49384e-05
2.48201e-05
2.47223e-05
2.47024e-05
2.47522e-05
2.46519e-05
3.66311e-05
3.05723e-05
2.99389e-05
3.40855e-05
3.62328e-05
3.10294e-05
3.02285e-05
7.51401e-06
7.47713e-06
3.56795e-05
2.99385e-05
3.05795e-05
3.39453e-05
3.55444e-05
2.97643e-05
3.07036e-05
1.82198e-05
1.83442e-05
3.41598e-05
1.83664e-05
1.83324e-05
3.0102e-05
1.1747e-05
2.99865e-05
1.17186e-05
7.54083e-06
7.54702e-06
2.99812e-05
1.16077e-05
2.97418e-05
1.15902e-05
2.46474e-05
2.46895e-05
2.45963e-05
2.44467e-05
2.44792e-05
2.44998e-05
2.4413e-05
3.64942e-05
3.08826e-05
3.01976e-05
3.46523e-05
3.63374e-05
3.06289e-05
3.01908e-05
7.51942e-06
7.47127e-06
3.55043e-05
2.98587e-05
3.06204e-05
3.42137e-05
3.54778e-05
2.99077e-05
3.08383e-05
1.81933e-05
1.81135e-05
3.41976e-05
1.81281e-05
1.8291e-05
3.05091e-05
1.17372e-05
3.05544e-05
1.17528e-05
7.52427e-06
7.53185e-06
3.01946e-05
1.1616e-05
2.99924e-05
1.16239e-05
2.44073e-05
2.44382e-05
2.43512e-05
2.43424e-05
2.41806e-05
2.44471e-05
2.41907e-05
3.58575e-05
3.07949e-05
3.02819e-05
3.42983e-05
3.65399e-05
3.04484e-05
3.02476e-05
7.53181e-06
7.49103e-06
3.58661e-05
2.98224e-05
3.06028e-05
3.43926e-05
3.55622e-05
2.9876e-05
3.0896e-05
1.82496e-05
1.83112e-05
3.39044e-05
1.81874e-05
1.82991e-05
3.07633e-05
1.18552e-05
3.03014e-05
1.19304e-05
7.58726e-06
7.59247e-06
3.03935e-05
1.15589e-05
3.0256e-05
1.15811e-05
2.4385e-05
2.45062e-05
2.4053e-05
2.45251e-05
2.42059e-05
2.45308e-05
2.41339e-05
3.63221e-05
3.06503e-05
3.0254e-05
3.44197e-05
3.63545e-05
3.04096e-05
3.02659e-05
7.56007e-06
7.56579e-06
3.55893e-05
2.9608e-05
3.09441e-05
3.37701e-05
3.57102e-05
2.97691e-05
3.01451e-05
1.8219e-05
1.81082e-05
3.38551e-05
1.81675e-05
1.82143e-05
3.0785e-05
1.19843e-05
3.06115e-05
1.18705e-05
7.53879e-06
7.51842e-06
3.01096e-05
1.1434e-05
3.02011e-05
1.14771e-05
2.44034e-05
2.45526e-05
2.43623e-05
2.45491e-05
2.45049e-05
2.4669e-05
2.41696e-05
3.56324e-05
3.08804e-05
3.00014e-05
3.41851e-05
3.57269e-05
3.02454e-05
3.02354e-05
7.61203e-06
7.53349e-06
3.53384e-05
2.96064e-05
3.08103e-05
3.42719e-05
3.49156e-05
2.98303e-05
3.01355e-05
1.81725e-05
1.79469e-05
3.38639e-05
1.82088e-05
1.79874e-05
3.02787e-05
1.17951e-05
3.04093e-05
1.18132e-05
7.45911e-06
7.4205e-06
3.0299e-05
1.14552e-05
3.02392e-05
1.14957e-05
2.4526e-05
2.44721e-05
2.43867e-05
2.45127e-05
2.45342e-05
2.46663e-05
2.44475e-05
3.54651e-05
3.05518e-05
2.99188e-05
3.43817e-05
3.60834e-05
3.05962e-05
3.01061e-05
7.57416e-06
7.51182e-06
3.51819e-05
2.9833e-05
3.04985e-05
3.41964e-05
3.5288e-05
2.96828e-05
3.03919e-05
1.80553e-05
1.80769e-05
3.39082e-05
1.81982e-05
1.81561e-05
3.04696e-05
1.17998e-05
3.05892e-05
1.17417e-05
7.42803e-06
7.38662e-06
3.0076e-05
1.15277e-05
3.00952e-05
1.15624e-05
2.44486e-05
2.46411e-05
2.44542e-05
2.44833e-05
2.44398e-05
2.45266e-05
2.4391e-05
3.54234e-05
3.01016e-05
3.01842e-05
3.42292e-05
3.53184e-05
3.00043e-05
3.00451e-05
7.52721e-06
7.52178e-06
3.50736e-05
2.97796e-05
3.0617e-05
3.41142e-05
3.46985e-05
2.95669e-05
3.0394e-05
1.79588e-05
1.81109e-05
3.3801e-05
1.78769e-05
1.79515e-05
3.05392e-05
1.1667e-05
3.05384e-05
1.17325e-05
7.39049e-06
7.42031e-06
3.00587e-05
1.14923e-05
2.98154e-05
1.15425e-05
2.44625e-05
2.45219e-05
2.43923e-05
2.43025e-05
2.45168e-05
2.43112e-05
2.41798e-05
3.56618e-05
3.06866e-05
2.98677e-05
3.40867e-05
3.55747e-05
3.03758e-05
3.00676e-05
7.5129e-06
7.47971e-06
3.54898e-05
2.93056e-05
3.0185e-05
3.38472e-05
3.54467e-05
2.94618e-05
3.02706e-05
1.79004e-05
1.80306e-05
3.34863e-05
1.7815e-05
1.8166e-05
3.00415e-05
1.17401e-05
3.00615e-05
1.17116e-05
7.41586e-06
7.4427e-06
2.96213e-05
1.15505e-05
2.99654e-05
1.15846e-05
2.44717e-05
2.45095e-05
2.43092e-05
2.4375e-05
2.44383e-05
2.45378e-05
2.43952e-05
3.565e-05
3.0129e-05
2.97749e-05
3.4063e-05
3.57366e-05
3.03948e-05
2.96835e-05
7.48836e-06
7.49054e-06
3.52655e-05
2.93269e-05
3.02624e-05
3.38432e-05
3.51573e-05
2.93594e-05
3.02959e-05
1.79167e-05
1.81085e-05
3.34498e-05
1.80915e-05
1.79555e-05
3.01351e-05
1.17885e-05
3.05095e-05
1.17382e-05
7.46686e-06
7.44955e-06
3.00024e-05
1.14958e-05
2.98197e-05
1.1509e-05
2.44125e-05
2.45097e-05
2.43377e-05
2.43822e-05
2.44251e-05
2.45092e-05
2.42469e-05
3.51623e-05
3.01724e-05
2.98902e-05
3.37591e-05
3.53114e-05
3.03949e-05
2.99498e-05
7.46634e-06
7.46585e-06
3.48509e-05
2.95346e-05
3.03643e-05
3.37849e-05
3.49492e-05
2.9529e-05
3.01295e-05
1.81214e-05
1.8062e-05
3.35997e-05
1.80229e-05
1.81218e-05
2.9708e-05
1.17492e-05
3.03013e-05
1.16811e-05
7.43803e-06
7.47543e-06
2.98577e-05
1.14657e-05
3.00514e-05
1.14914e-05
2.42891e-05
2.42823e-05
2.42866e-05
2.43557e-05
2.43548e-05
2.43075e-05
2.42813e-05
3.55409e-05
3.05476e-05
2.98276e-05
3.36932e-05
3.53323e-05
3.00912e-05
2.97929e-05
7.50545e-06
7.49039e-06
3.49012e-05
2.95476e-05
2.99905e-05
3.37676e-05
3.47349e-05
2.95324e-05
3.03684e-05
1.79461e-05
1.81063e-05
3.33934e-05
1.81376e-05
1.80121e-05
2.94669e-05
1.17178e-05
2.98124e-05
1.16749e-05
7.46739e-06
7.43701e-06
2.92728e-05
1.14387e-05
2.98375e-05
1.14829e-05
2.4289e-05
2.43243e-05
2.41161e-05
2.43926e-05
2.43695e-05
2.39314e-05
2.3832e-05
3.54807e-05
3.02409e-05
2.98971e-05
3.38838e-05
3.52947e-05
3.01151e-05
2.99056e-05
7.50718e-06
7.48872e-06
3.51104e-05
2.92946e-05
3.0471e-05
3.33691e-05
3.50258e-05
2.94793e-05
3.00089e-05
1.80831e-05
1.79721e-05
3.35229e-05
1.81232e-05
1.80889e-05
7.40531e-06
1.16356e-05
2.95813e-05
2.41984e-05
2.36957e-05
2.35872e-05
3.01972e-05
2.93058e-05
3.54536e-05
7.54921e-06
2.93833e-05
3.0338e-05
3.50324e-05
1.80731e-05
1.81304e-05
1.81382e-05
1.77684e-05
3.194e-05
1.78563e-05
1.81654e-05
7.19666e-06
7.28475e-06
7.35035e-06
7.37821e-06
3.21154e-05
1.81272e-05
1.82431e-05
1.81309e-05
1.82767e-05
7.42224e-06
7.34724e-06
3.48515e-05
2.88441e-05
2.95724e-05
3.27053e-05
2.95956e-05
3.41139e-05
2.89159e-05
2.93779e-05
1.13552e-05
1.14405e-05
2.91934e-05
2.95556e-05
1.14699e-05
1.14739e-05
2.95869e-05
3.49313e-05
3.24194e-05
2.91065e-05
3.00725e-05
2.92601e-05
3.50325e-05
2.89259e-05
3.48372e-05
3.28233e-05
2.915e-05
2.95938e-05
2.96856e-05
3.49011e-05
2.90466e-05
2.93384e-05
1.16796e-05
1.15441e-05
2.96517e-05
2.92566e-05
1.16043e-05
1.1605e-05
2.98192e-05
7.10609e-06
7.23797e-06
7.24983e-06
7.29326e-06
3.30473e-05
1.80903e-05
1.81777e-05
1.80811e-05
1.78008e-05
7.39683e-06
7.29048e-06
7.40192e-06
7.34077e-06
7.29524e-06
7.29268e-06
7.28083e-06
7.2867e-06
1.7929e-05
1.79098e-05
3.36904e-05
1.81177e-05
1.79268e-05
7.37299e-06
7.35281e-06
7.30237e-06
7.30564e-06
3.37535e-05
1.82615e-05
1.79761e-05
1.82277e-05
1.79837e-05
2.98232e-05
1.16024e-05
1.15531e-05
2.99579e-05
3.53078e-05
2.9877e-05
2.91908e-05
3.30696e-05
2.95429e-05
2.93787e-05
3.49537e-05
3.5131e-05
2.98986e-05
2.91545e-05
3.22709e-05
2.99698e-05
2.93166e-05
3.49621e-05
2.97306e-05
1.16184e-05
1.15854e-05
3.00638e-05
2.95422e-05
1.16729e-05
1.16317e-05
2.95946e-05
3.50898e-05
3.30689e-05
3.01518e-05
2.95658e-05
2.99514e-05
2.95287e-05
3.48852e-05
3.45946e-05
3.25924e-05
3.02397e-05
2.96883e-05
3.00525e-05
2.94253e-05
3.51601e-05
1.80994e-05
1.84114e-05
3.35014e-05
1.80569e-05
1.83055e-05
7.54481e-06
7.50561e-06
7.32689e-06
7.32779e-06
3.34078e-05
1.81584e-05
1.86511e-05
1.80506e-05
1.85709e-05
7.5896e-06
7.57325e-06
3.57627e-05
3.00226e-05
2.96991e-05
3.34339e-05
2.98249e-05
2.99195e-05
3.5326e-05
3.00105e-05
1.15233e-05
1.15637e-05
2.96508e-05
3.57897e-05
2.98025e-05
2.98465e-05
3.32932e-05
2.97895e-05
3.01258e-05
3.53372e-05
3.02684e-05
1.14982e-05
1.1522e-05
2.9993e-05
3.57332e-05
3.3528e-05
3.00966e-05
2.97705e-05
2.98112e-05
2.9867e-05
3.54525e-05
2.98559e-05
1.16359e-05
1.16022e-05
2.96217e-05
3.55972e-05
3.31744e-05
2.98344e-05
2.993e-05
3.00785e-05
3.03042e-05
3.60125e-05
3.07281e-05
1.18297e-05
1.18853e-05
3.05573e-05
3.60302e-05
2.96152e-05
2.98767e-05
3.29668e-05
2.97861e-05
3.02803e-05
3.60051e-05
3.05497e-05
1.16484e-05
1.17061e-05
3.00768e-05
3.64959e-05
3.24972e-05
3.10036e-05
2.97491e-05
3.07363e-05
2.97649e-05
3.67091e-05
3.08972e-05
1.19403e-05
1.19224e-05
3.08328e-05
3.60402e-05
3.29235e-05
2.98736e-05
3.04436e-05
2.96675e-05
3.06255e-05
3.65931e-05
3.0741e-05
1.18233e-05
1.18061e-05
3.08872e-05
1.83025e-05
1.82064e-05
3.33211e-05
1.82751e-05
1.84569e-05
7.41983e-06
7.48466e-06
7.41583e-06
7.41334e-06
3.35133e-05
1.81583e-05
1.83453e-05
1.8322e-05
1.82754e-05
7.47952e-06
7.46187e-06
3.52227e-05
2.93085e-05
3.00268e-05
3.26914e-05
3.44966e-05
2.94199e-05
3.0367e-05
3.02492e-05
1.17171e-05
3.0031e-05
1.17436e-05
2.99202e-05
1.16965e-05
2.99168e-05
1.16998e-05
3.54798e-05
3.24228e-05
2.95751e-05
3.05926e-05
2.96152e-05
3.05335e-05
3.53247e-05
3.53301e-05
3.29584e-05
2.96936e-05
3.05012e-05
2.95876e-05
3.04783e-05
3.53957e-05
3.0233e-05
1.17151e-05
1.1816e-05
3.01515e-05
2.97057e-05
1.16462e-05
1.1694e-05
3.01988e-05
7.37796e-06
7.43285e-06
7.40235e-06
7.38323e-06
3.34345e-05
1.84721e-05
1.83979e-05
1.83771e-05
1.83495e-05
7.49022e-06
7.47097e-06
7.44066e-06
7.42943e-06
7.34988e-06
7.352e-06
7.27033e-06
7.33153e-06
1.80852e-05
1.7829e-05
3.39998e-05
1.80492e-05
1.80477e-05
7.39002e-06
7.35837e-06
7.38009e-06
7.35999e-06
3.40061e-05
1.82451e-05
1.82132e-05
1.83292e-05
1.81353e-05
2.99556e-05
1.16374e-05
3.00685e-05
1.17055e-05
3.54657e-05
3.015e-05
2.98302e-05
3.29223e-05
3.49373e-05
3.00544e-05
2.98564e-05
3.5311e-05
2.99293e-05
2.97061e-05
3.22605e-05
3.50683e-05
3.03629e-05
2.97843e-05
3.01427e-05
1.1649e-05
1.15499e-05
3.02461e-05
2.98026e-05
1.17662e-05
1.171e-05
2.97711e-05
3.54561e-05
3.30473e-05
3.03886e-05
2.96724e-05
2.98959e-05
2.98217e-05
3.55329e-05
3.53872e-05
3.23828e-05
3.0367e-05
2.97639e-05
3.05084e-05
2.97192e-05
3.54087e-05
1.8194e-05
1.86299e-05
3.35537e-05
1.80766e-05
1.86327e-05
7.56234e-06
7.58525e-06
7.43287e-06
7.38485e-06
3.38811e-05
1.81791e-05
1.85388e-05
1.81748e-05
1.867e-05
7.55862e-06
7.60206e-06
3.59706e-05
3.02357e-05
2.96907e-05
3.30445e-05
3.60022e-05
3.01567e-05
2.96023e-05
2.9974e-05
1.16998e-05
3.00664e-05
1.16891e-05
3.61126e-05
3.001e-05
3.01989e-05
3.28589e-05
3.61071e-05
2.97946e-05
3.02938e-05
2.99929e-05
1.16033e-05
1.15774e-05
3.01828e-05
3.6018e-05
3.3402e-05
3.04355e-05
2.94648e-05
3.03146e-05
2.9544e-05
3.60216e-05
2.99262e-05
1.17722e-05
1.16912e-05
3.02562e-05
3.58605e-05
3.28366e-05
2.97071e-05
3.03417e-05
2.97427e-05
3.03179e-05
3.61724e-05
3.07053e-05
1.20031e-05
3.11557e-05
1.20007e-05
3.59647e-05
2.97669e-05
3.07708e-05
3.28492e-05
3.64775e-05
2.96816e-05
3.08238e-05
3.08488e-05
1.1872e-05
3.10434e-05
1.18746e-05
3.67922e-05
3.2713e-05
3.12145e-05
2.99526e-05
3.11184e-05
2.98717e-05
3.67169e-05
3.08687e-05
1.19e-05
1.20712e-05
3.09046e-05
3.64802e-05
3.29693e-05
3.00237e-05
3.08075e-05
2.99805e-05
3.0787e-05
3.62821e-05
3.03781e-05
1.19113e-05
1.19328e-05
3.06788e-05
1.8325e-05
1.85171e-05
3.39318e-05
1.83063e-05
1.84023e-05
7.45008e-06
7.45583e-06
7.44023e-06
7.46828e-06
3.39762e-05
1.83367e-05
1.85447e-05
1.8371e-05
1.8436e-05
7.51957e-06
7.44608e-06
3.52934e-05
2.99996e-05
3.03633e-05
3.3419e-05
3.53629e-05
2.9914e-05
3.06352e-05
3.00731e-05
1.17091e-05
2.97231e-05
1.16866e-05
3.001e-05
1.17444e-05
3.0031e-05
1.17198e-05
3.52709e-05
3.26768e-05
2.97556e-05
3.06075e-05
2.97133e-05
3.04376e-05
3.56286e-05
3.53144e-05
3.34414e-05
2.96175e-05
3.03952e-05
2.97814e-05
3.06006e-05
3.57488e-05
3.02402e-05
1.18304e-05
1.17458e-05
3.01672e-05
3.05072e-05
1.17431e-05
1.1754e-05
3.06027e-05
7.49295e-06
7.49857e-06
7.4235e-06
7.42386e-06
3.39865e-05
1.84267e-05
1.83966e-05
1.85173e-05
1.84993e-05
7.50449e-06
7.51294e-06
7.45177e-06
7.46874e-06
7.36338e-06
7.40641e-06
7.39665e-06
7.3992e-06
1.8118e-05
1.82108e-05
3.39781e-05
1.83558e-05
1.8254e-05
7.47379e-06
7.4428e-06
7.39048e-06
7.41734e-06
3.39577e-05
1.84954e-05
1.81949e-05
1.84659e-05
1.82873e-05
2.99155e-05
1.18261e-05
2.99738e-05
1.17337e-05
3.54833e-05
3.0373e-05
2.99172e-05
3.37276e-05
3.51431e-05
3.01341e-05
2.96798e-05
3.5338e-05
3.05484e-05
2.98281e-05
3.28465e-05
3.50942e-05
3.06713e-05
2.96335e-05
3.02798e-05
1.17192e-05
1.16682e-05
3.03522e-05
3.04482e-05
1.17876e-05
1.18929e-05
3.05406e-05
3.50809e-05
3.35479e-05
3.07343e-05
2.98998e-05
3.0673e-05
2.98415e-05
3.56167e-05
3.53788e-05
3.30627e-05
3.0786e-05
2.92556e-05
3.05916e-05
2.9421e-05
3.5368e-05
1.84823e-05
1.8706e-05
3.41668e-05
1.83866e-05
1.86599e-05
7.59279e-06
7.59269e-06
7.50256e-06
7.47954e-06
3.41321e-05
1.85245e-05
1.86593e-05
1.8502e-05
1.86832e-05
7.59145e-06
7.57284e-06
3.55624e-05
3.03867e-05
2.94287e-05
3.34788e-05
3.56076e-05
3.04191e-05
2.92919e-05
3.02885e-05
1.18167e-05
3.04234e-05
1.1798e-05
3.53882e-05
2.99725e-05
3.03014e-05
3.33326e-05
3.60949e-05
2.9783e-05
3.03405e-05
3.01028e-05
1.16252e-05
1.16814e-05
3.01118e-05
3.60258e-05
3.35765e-05
2.99419e-05
2.935e-05
3.00785e-05
2.95497e-05
3.58298e-05
3.03688e-05
1.18206e-05
1.18265e-05
3.01057e-05
3.58421e-05
3.37081e-05
2.99078e-05
3.01192e-05
3.00017e-05
3.0046e-05
3.59387e-05
3.03292e-05
1.20236e-05
3.09587e-05
1.19788e-05
3.62316e-05
3.00023e-05
3.0656e-05
3.36673e-05
3.60218e-05
3.00674e-05
3.041e-05
3.08517e-05
1.19262e-05
3.07791e-05
1.18997e-05
3.64996e-05
3.34758e-05
3.08814e-05
3.00458e-05
3.12615e-05
3.01281e-05
3.63974e-05
3.07971e-05
1.19352e-05
1.20419e-05
3.06103e-05
3.60667e-05
3.39249e-05
2.99276e-05
3.08731e-05
3.01054e-05
3.09746e-05
3.65086e-05
3.09846e-05
1.17591e-05
1.19208e-05
3.05403e-05
1.82489e-05
1.86368e-05
3.40942e-05
1.83642e-05
1.85842e-05
7.52147e-06
7.52017e-06
7.48672e-06
7.51831e-06
3.40245e-05
1.84669e-05
1.85267e-05
1.84699e-05
1.84571e-05
7.52653e-06
7.50143e-06
3.55357e-05
2.95199e-05
3.05404e-05
3.39386e-05
3.54819e-05
2.9277e-05
3.04209e-05
3.05483e-05
1.18651e-05
3.07109e-05
1.1807e-05
3.05669e-05
1.17701e-05
3.06877e-05
1.17445e-05
3.56622e-05
3.3582e-05
2.99715e-05
3.05952e-05
2.97292e-05
3.04512e-05
3.5632e-05
3.56704e-05
3.40586e-05
2.95653e-05
3.03798e-05
2.95213e-05
3.0195e-05
3.51546e-05
3.03113e-05
1.1828e-05
1.1846e-05
3.02016e-05
3.04628e-05
1.17292e-05
1.17903e-05
3.06745e-05
7.47507e-06
7.493e-06
7.43426e-06
7.43671e-06
3.40553e-05
1.84061e-05
1.83933e-05
1.84981e-05
1.83383e-05
7.49812e-06
7.51516e-06
7.45333e-06
7.43868e-06
7.45415e-06
7.45979e-06
7.39667e-06
7.37726e-06
1.8552e-05
1.82168e-05
3.42325e-05
1.83463e-05
1.81856e-05
7.44864e-06
7.46122e-06
7.39867e-06
7.39157e-06
3.42292e-05
1.82627e-05
1.82092e-05
1.84978e-05
1.81766e-05
3.03055e-05
1.18398e-05
3.06772e-05
1.17821e-05
3.53433e-05
3.04311e-05
2.99338e-05
3.41405e-05
3.50424e-05
3.05897e-05
2.99632e-05
3.55096e-05
3.04716e-05
2.91294e-05
3.36529e-05
3.51783e-05
3.0513e-05
2.92907e-05
3.01584e-05
1.17547e-05
1.17406e-05
3.02594e-05
3.03151e-05
1.18147e-05
1.18982e-05
3.03661e-05
3.52435e-05
3.42442e-05
3.04357e-05
2.99793e-05
3.02967e-05
2.99623e-05
3.52944e-05
3.55969e-05
3.40683e-05
3.05726e-05
2.94551e-05
3.02526e-05
2.91685e-05
3.56318e-05
1.83296e-05
1.87872e-05
3.40602e-05
1.85696e-05
1.85912e-05
7.61423e-06
7.60197e-06
7.5107e-06
7.52384e-06
3.44083e-05
1.84221e-05
1.87109e-05
1.8473e-05
1.85906e-05
7.58119e-06
7.60305e-06
3.57823e-05
3.03551e-05
2.96411e-05
3.42371e-05
3.59384e-05
3.02381e-05
2.94029e-05
2.96589e-05
1.18541e-05
3.04038e-05
1.18418e-05
3.57222e-05
3.01764e-05
3.03679e-05
3.41857e-05
3.59449e-05
3.01472e-05
3.05355e-05
3.00365e-05
1.16225e-05
1.16458e-05
2.99794e-05
3.58028e-05
3.42697e-05
3.01177e-05
2.97404e-05
2.99406e-05
2.96395e-05
3.53598e-05
3.01237e-05
1.17939e-05
1.18844e-05
3.00895e-05
3.57121e-05
3.43157e-05
3.00061e-05
3.04305e-05
2.99813e-05
3.04934e-05
3.59236e-05
3.05826e-05
1.19551e-05
3.04615e-05
1.19075e-05
3.63713e-05
3.01964e-05
3.08688e-05
3.43151e-05
3.6451e-05
3.01901e-05
3.055e-05
3.0562e-05
1.19014e-05
3.08968e-05
1.18585e-05
3.67688e-05
3.41335e-05
3.09007e-05
3.01922e-05
3.09738e-05
2.99728e-05
3.65874e-05
3.06533e-05
1.18502e-05
1.18869e-05
3.03298e-05
3.63327e-05
3.4428e-05
3.01617e-05
3.038e-05
3.0182e-05
3.02936e-05
3.58263e-05
3.03322e-05
1.18111e-05
1.18796e-05
3.07171e-05
1.83228e-05
1.85174e-05
3.44107e-05
1.83903e-05
1.86026e-05
7.52209e-06
7.55158e-06
7.5026e-06
7.47375e-06
3.41554e-05
1.84591e-05
1.86499e-05
1.84525e-05
1.85551e-05
7.57798e-06
7.56258e-06
3.559e-05
2.9554e-05
3.05718e-05
3.4115e-05
3.5176e-05
2.94395e-05
3.06279e-05
3.05461e-05
1.18785e-05
3.06868e-05
1.18974e-05
3.00234e-05
1.18169e-05
3.03632e-05
1.17475e-05
3.57539e-05
3.41485e-05
2.98931e-05
3.10234e-05
2.96473e-05
3.07214e-05
3.54874e-05
3.51301e-05
3.38932e-05
2.97042e-05
3.05537e-05
2.96823e-05
3.05372e-05
3.56801e-05
3.04732e-05
1.19289e-05
1.19113e-05
3.02859e-05
3.03754e-05
1.17843e-05
1.18871e-05
3.03633e-05
7.44907e-06
7.48388e-06
7.44687e-06
7.44201e-06
3.42019e-05
1.83868e-05
1.80124e-05
1.82647e-05
1.83984e-05
7.47963e-06
7.48841e-06
7.40633e-06
7.4634e-06
7.46684e-06
7.46083e-06
7.38887e-06
7.40875e-06
1.85307e-05
1.8198e-05
3.42413e-05
1.83358e-05
1.82372e-05
7.45546e-06
7.44119e-06
7.40802e-06
7.42074e-06
3.42349e-05
1.81697e-05
1.82648e-05
1.84667e-05
1.82843e-05
3.06568e-05
1.19341e-05
3.04869e-05
1.19381e-05
3.56888e-05
3.05695e-05
2.99783e-05
3.40543e-05
3.52863e-05
3.04859e-05
2.99888e-05
3.56997e-05
3.09692e-05
2.94953e-05
3.43554e-05
3.53444e-05
3.06641e-05
2.93298e-05
3.06046e-05
1.17476e-05
1.1771e-05
3.05336e-05
3.06183e-05
1.19199e-05
1.19619e-05
3.05715e-05
3.56138e-05
3.37562e-05
3.06313e-05
2.98832e-05
3.03369e-05
2.98712e-05
3.52089e-05
3.57396e-05
3.44123e-05
3.09134e-05
2.93331e-05
3.09728e-05
2.9579e-05
3.57225e-05
1.8642e-05
1.87977e-05
3.42502e-05
1.84413e-05
1.85716e-05
7.59823e-06
7.52891e-06
7.54989e-06
7.53801e-06
3.38394e-05
1.86249e-05
1.83684e-05
1.86142e-05
1.84667e-05
7.54459e-06
7.54267e-06
3.56064e-05
3.02545e-05
2.9802e-05
3.43555e-05
3.56427e-05
3.01676e-05
2.98645e-05
2.96344e-05
1.18405e-05
3.00632e-05
1.17696e-05
3.53732e-05
2.99661e-05
3.04628e-05
3.47319e-05
3.59728e-05
3.02444e-05
3.02462e-05
2.99253e-05
1.16397e-05
1.15648e-05
3.02551e-05
3.57024e-05
3.44352e-05
3.03865e-05
2.98679e-05
3.00341e-05
2.98305e-05
3.58748e-05
3.00797e-05
1.17477e-05
1.17482e-05
3.00017e-05
3.58253e-05
3.47704e-05
3.02631e-05
3.07361e-05
3.00508e-05
3.06977e-05
3.58134e-05
3.07198e-05
1.19105e-05
3.0831e-05
1.18314e-05
3.62267e-05
3.02406e-05
3.02896e-05
3.4323e-05
3.62396e-05
3.02864e-05
3.04657e-05
3.06745e-05
1.18323e-05
3.08745e-05
1.17935e-05
3.6069e-05
3.46263e-05
3.03997e-05
3.02588e-05
3.06723e-05
3.02695e-05
3.65498e-05
3.07015e-05
1.18597e-05
1.18532e-05