/*--------------------------------*- C++ -*----------------------------------*\
| =========                 |                                                 |
| \\      /  F ield         | OpenFOAM: The Open Source CFD Toolbox           |
|  \\    /   O peration     | Version:  2206                                  |
|   \\  /    A nd           | Website:  www.openfoam.com                      |
|    \\/     M anipulation  |                                                 |
\*---------------------------------------------------------------------------*/
FoamFile
{
    version     2.0;
    format      ascii;
    arch        "LSB;label=32;scalar=64";
    class       volScalarField;
    location    "70";
    object      omega;
}
// * * * * * * * * * * * * * * * * * * * * * * * * * * * * * * * * * * * * * //

dimensions      [0 0 -1 0 0 0 0];

internalField   nonuniform List<scalar> 
66701
(
411.196
429.848
298.098
194.684
333.589
121.899
139.744
310.611
429.914
297.825
194.522
333.872
123.01
310.879
139.42
411.387
728.542
1595.97
4389.01
16427.1
116912
724.932
1595.25
4387.6
16419.8
116840
747.764
1615.57
4421.46
16479.5
116802
747.713
1615.66
4421.33
16479.5
116814
728.426
1596.19
4388.72
16424.7
116892
725.324
1595.27
4387.66
16419.9
116852
735.598
1605.75
4405.46
16446.9
116752
734.587
1600.39
4394.66
16425.1
116727
735.412
1605.89
4405.41
16446.3
116747
734.957
1600.69
4394.65
16425
116725
411.657
411.906
25.516
183.567
184.54
297.548
23.0012
105.242
124.852
299.626
47.566
23.3437
114.282
20.0604
124.941
298.91
47.8013
23.1798
20.0364
113.42
411.736
25.5931
183.092
412.952
235.61
414.589
415.575
234.634
413.621
414.567
133.116
307.908
72.3798
178.306
131.991
306.242
66.5359
133.644
309.086
73.6576
181.187
128.06
307.976
70.8257
333.022
142.533
311.169
120.424
333.039
138.18
310.343
429.49
196.829
298.22
429.654
194.482
333.099
311.252
142.973
122.355
332.842
310.926
137.459
429.523
196.394
297.604
429.656
194.272
412.537
235.25
414.61
413.853
132.831
72.8789
177.285
70.4502
308.239
132.506
179.92
306.805
70.9665
410.594
17.7037
16.6134
16.6801
16.0018
17.6594
16.5405
16.5937
15.8852
16.6997
15.8623
16.6166
15.8037
62.6673
25.0908
37.7347
38.0969
59.3012
35.7452
36.6312
32.7598
64.4268
46.5784
106.672
44.437
32.8855
63.2804
28.8121
54.1889
26.8999
44.8675
27.8189
52.2988
26.1609
33.5498
72.4329
47.6909
108.214
44.8254
33.1671
67.7165
28.8297
26.9955
54.674
45.6518
27.9796
26.4258
50.8388
33.5325
72.1228
46.6933
109.892
32.3351
68.8705
44.5253
62.2235
25.0788
37.6254
36.232
37.3891
728.37
1596.08
4389.04
16426.5
116912
728.212
1596.26
4389.12
16427.2
116912
747.764
1615.92
4421.48
16480.2
116814
748.074
1615.8
4421.42
16479.4
116802
747.941
1615.83
4421.38
16479.5
116814
728.721
1596.24
4388.77
16424.8
116892
728.707
1596.12
4388.91
16426.9
116912
735.27
1605.79
4405.25
16446.8
116752
734.826
1600.8
4394.75
16425.2
116727
735.361
1606.04
4405.48
16446.9
116752
735.18
1600.58
4394.52
16425
116727
747.625
1615.4
4420.97
16479.1
116802
735.596
1605.75
4405.26
16446.2
116747
734.861
1600.79
4394.7
16425
116725
735.834
1606.11
4405.47
16446.3
116747
735.178
1600.42
4394.43
16424.8
116725
748.154
1615.37
4421.01
16479.3
116814
728.238
1595.84
4388.5
16424.6
116892
747.018
1614.58
4418.75
16472.2
116759
728.932
1596.11
4388.38
16423.9
116881
727.255
1599.82
4396.42
16439.7
116901
747.154
1614.81
4419.16
16472.8
116776
747.312
1614.62
4418.99
16472.7
116776
727.3
1599.85
4396.5
16441.3
116921
747.216
1614.85
4419.33
16474.6
116795
746.144
1614.39
4418.82
16474.2
116795
727.355
1599.49
4396.04
16439.5
116901
727.355
1599.63
4396.3
16441
116921
725.256
1595.02
4387.4
16419.5
116840
725.693
1595.45
4387.63
16419.7
116840
725.505
1595.08
4387.44
16419.6
116852
725.766
1595.49
4387.71
16419.9
116852
746.725
1614.53
4418.83
16473.2
116778
727.052
1599.67
4396.5
16441.8
116918
727.328
1599.67
4396.38
16441
116904
22.5458
25.415
17.7745
23.2469
22.9377
25.4075
17.7594
23.2933
23.0014
25.6215
17.7669
23.4069
23.0447
25.6225
17.7352
23.3655
23.0299
25.6951
17.6995
23.3037
23.0544
25.7074
17.7012
23.2827
22.9692
25.7031
17.6721
23.332
23.0705
25.6522
17.6545
23.3522
23.0375
25.6366
17.6887
23.3442
23.094
25.6447
17.6827
23.4115
23.0981
25.4895
17.6842
23.3661
23.0092
25.5577
17.6974
23.3473
22.9497
25.5204
17.6875
23.3341
22.9813
25.6016
17.7118
23.3353
22.9307
25.6094
17.7145
23.4444
22.9575
25.6516
17.7413
22.3775
22.9548
25.3098
25.0462
25.1992
22.8566
22.8147
22.9663
25.2495
25.4582
25.2837
23.0297
23.0726
23.097
23.055
25.4
25.4121
23.1886
23.0012
23.1393
23.1667
23.3725
22.6947
23.3705
24.4119
25.2262
22.4287
22.4818
22.9517
25.0628
24.5007
25.3239
22.8119
22.4722
23.078
23.0741
25.082
25.4328
22.4388
22.9062
23.2645
23.2875
22.5783
22.8536
23.4728
24.6705
25.221
22.2161
22.545
23.0902
25.5038
24.8108
25.4546
22.6692
22.2985
23.0382
23.1069
25.0397
25.4667
22.9974
22.8931
23.4165
23.5021
23.1818
23.0954
23.3501
24.4715
25.3207
22.304
22.4549
23.1485
25.1199
24.879
25.429
22.6581
22.8224
23.0317
23.0106
25.0116
25.3068
23.0853
22.547
23.4053
23.3837
22.6286
23.166
23.5413
24.8326
25.4542
22.8258
22.9212
23.1172
25.6132
24.6271
25.4807
22.5875
22.6861
23.0275
23.0574
24.6803
25.336
23.191
22.8407
23.4332
23.3216
22.9571
23.099
23.4537
24.8225
25.4531
22.3821
22.8233
23.1283
25.1382
25.0606
25.5356
22.14
22.3484
23.0621
23.1555
24.7851
25.3315
22.899
22.8784
23.3909
23.3424
22.8679
23.1983
23.3539
25.0771
25.2396
22.8576
22.5114
23.0576
25.4986
25.1795
25.4776
22.8003
22.9034
22.9637
23.1252
24.8721
25.5087
22.6268
22.4325
23.4957
23.3538
22.9579
23.1914
23.4451
24.8963
25.1858
22.76
22.4697
23.0571
25.5212
25.1353
25.535
22.7062
22.7392
23.0813
23.108
25.1769
25.5936
23.2291
22.4921
23.4194
23.3793
22.5444
23.2148
23.4905
24.9073
25.363
22.744
22.5808
23.0717
25.4958
25.2529
25.4044
22.5385
22.7304
23.1218
23.1194
25.187
25.3706
22.9389
23.0699
23.3486
23.2643
23.2039
22.8454
23.3393
25.0154
25.3639
22.5962
22.5935
23.059
25.293
24.596
25.471
22.3335
22.8398
23.1332
23.1028
25.0464
25.533
22.6218
22.9186
23.4402
23.2464
23.0844
22.7526
23.3604
24.9549
25.1666
22.5111
22.8761
22.9611
25.4353
24.9939
25.4275
22.5949
22.6677
23.0696
23.018
25.0795
25.482
22.6836
22.9855
23.4735
23.3036
23.0208
22.739
23.3672
24.6028
25.2422
22.5103
22.5938
23.0057
25.3397
24.6017
25.3754
22.531
22.5768
23.0037
22.9831
25.1008
25.4286
22.8767
22.9054
23.3969
23.3015
23.0262
22.7237
23.3579
24.673
25.2281
22.5797
22.6327
22.982
25.5004
24.8171
25.5121
22.6527
22.5399
23.0573
22.9546
24.7727
25.3651
22.8198
22.4345
23.3166
23.4275
23.018
22.7369
23.4086
24.8138
25.3179
22.515
22.7828
22.9575
25.4606
25.1048
25.4103
22.6143
22.5084
23.0286
22.9688
24.5809
25.3423
22.5858
23.1436
23.4283
23.349
22.6522
22.896
23.4039
24.927
25.248
22.2623
22.7841
23.0636
25.5203
24.5678
25.5228
22.569
22.6132
23.2624
23.3278
24.8315
25.4422
23.19
23.1546
23.2545
23.123
23.0564
22.4296
23.0122
24.4904
25.1118
22.8165
22.8451
23.0271
25.2807
23.0378
24.9068
23.0478
22.6022
22.2962
24.2761
22.4883
411.468
410.262
43.9758
19.5405
107.261
22.2635
107.458
44.1811
19.6701
182.661
180.888
25.3529
181.028
183.124
118.475
296.566
296.077
119.669
410.228
410.024
123.151
299.061
298.532
124.179
17.7518
17.7663
17.718
17.7582
17.7743
17.7837
17.7345
46.9349
113.538
20.0406
23.0466
112.941
19.9796
47.2657
411.373
411.447
44.5474
19.7816
110.182
22.2008
44.9644
19.6852
110.064
184.591
181.971
25.3797
183.437
181.275
119.371
296.938
119.794
296.143
409.837
410.816
123.716
298.959
124.721
298.542
17.7685
17.782
17.7311
17.764
17.7677
17.7853
17.7461
47.3701
112.833
20.0926
22.5117
46.7667
112.639
19.7699
411.404
412.487
44.6124
19.8225
111.311
22.228
44.6357
19.7531
110.417
184.124
182.16
25.579
183.847
181.695
119.192
296.478
120.593
296.175
409.58
409.886
123.985
298.947
124.874
298.303
17.7429
17.7674
17.7122
17.7651
17.7657
17.7672
17.7486
46.8816
113.269
19.9531
22.6216
47.2292
112.861
19.7224
411.396
412.523
44.7925
19.8487
111.235
22.7703
45.3058
19.5984
110.366
184.646
181.845
25.5606
183.76
181.741
117.827
296.116
119.373
295.823
409.819
409.778
124.061
298.808
125.442
298.632
17.743
17.7468
17.6974
17.7364
17.7042
17.7248
17.742
47.1356
112.938
20.1347
22.7625
46.8622
113.035
19.9123
411.344
412.334
44.7432
19.8895
110.653
22.7756
44.8966
19.7693
109.71
184.588
182.616
25.6185
183.659
181.878
118.702
296.36
119.688
295.99
409.606
409.877
124.113
298.92
124.428
298.615
17.68
17.6829
17.7211
17.6908
17.6836
17.7261
17.7227
47.2106
113.492
20.0957
22.7888
47.3767
113.069
19.9316
411.267
412.287
45.0191
19.8455
110.513
22.4322
44.7653
19.6263
109.743
184.412
182.67
25.595
183.966
182.002
119.36
296.417
119.131
295.896
409.908
409.962
124.191
299.142
125.644
298.622
17.6476
17.6992
17.6768
17.7082
17.69
17.7159
17.7063
47.2163
113.479
20.1242
22.8266
47.6045
112.989
19.7683
411.434
412.463
44.6922
19.8254
110.552
22.5879
45.1866
19.7399
109.785
184.411
182.951
25.6409
184.052
182.057
119.389
296.334
120.504
296.104
409.943
409.969
123.901
298.919
124.639
298.701
17.6375
17.7018
17.6597
17.6924
17.6758
17.708
17.6992
46.7585
112.965
20.1195
22.5257
47.1437
113.165
20.0122
411.111
411.279
45.1631
19.8514
111.037
22.9081
45.5783
19.7734
110.591
185.339
183.183
25.5882
183.765
182.25
119.543
296.572
119.654
296.263
409.95
409.933
123.13
299.373
124.839
298.457
17.6455
17.6848
17.6573
17.6676
17.6968
17.6774
17.7009
47.0897
113.896
20.0778
22.8443
47.4306
113.504
19.8797
411.222
411.41
44.6832
19.8748
110.997
22.2789
45.1608
19.7231
110.606
184.954
182.479
25.5271
184.216
182.242
119.379
296.61
120.063
296.209
410.054
411.06
124.227
298.896
124.799
298.651
17.6713
17.6676
17.6777
17.6849
17.6807
17.6801
17.6717
47.2796
113.113
20.0855
22.4585
47.2102
112.996
19.7975
411.409
411.425
44.7803
19.8418
110.549
22.3391
45.2507
19.6326
109.872
184.325
182.287
25.5249
184.201
181.707
118.668
296.837
119.902
296.128
409.879
409.922
124.212
298.742
124.317
298.449
17.6635
17.6634
17.6334
17.6641
17.6602
17.6732
17.6588
47.2009
113.223
20.129
23.1242
47.0588
113.161
20.0268
411.445
411.307
44.8584
19.8142
110.73
22.7159
45.4329
19.5202
110.483
184.061
182.027
25.531
183.959
181.825
119.212
296.728
119.589
296.005
409.715
409.867
123.863
299.016
124.11
298.513
17.619
17.621
17.6232
17.7
17.6613
17.6536
17.6746
47.0336
113.993
20.0708
23.1733
47.1598
113.357
19.9805
411.093
412.468
44.6135
19.8413
110.827
22.6015
44.69
19.7448
110.3
184.144
182.746
25.4627
183.671
182.063
118.897
296.411
119.767
296.169
410.605
409.85
123.766
299.059
124.425
298.464
17.6097
17.6119
17.6397
17.6873
17.6572
17.6619
17.6859
46.9973
113.288
20.0756
23.1203
47.1196
113.228
19.7724
411.384
412.613
44.3849
19.8066
110.522
22.288
44.7931
19.5796
109.548
184.157
182.973
25.5224
183.408
181.82
119.451
296.372
120.939
296.187
409.675
409.798
124.36
298.863
125.004
298.165
17.6459
17.6365
17.6695
17.7167
17.6492
17.6912
17.695
47.0511
113.492
20.1137
23.1292
47.8788
113.465
20.0114
411.38
411.359
44.7139
19.8159
110.186
22.4303
44.4852
19.6179
109.98
184.855
182.755
25.4922
184.148
181.55
119.491
296.748
119.973
296.234
409.409
409.737
123.627
299.202
124.117
298.638
17.6023
17.6717
17.6813
17.7101
17.6451
17.7256
17.7003
47.0126
113.664
20.0716
22.5558
47.712
113.341
19.807
411.369
412.413
45.2323
19.7931
110.293
22.4534
45.3104
19.5421
110.221
184.269
182.329
25.5655
183.496
182.108
120.938
296.453
120.249
296.504
410.3
410.517
124.196
299.038
124.616
298.35
17.6373
17.7201
17.6941
17.7803
17.6802
17.6441
17.6272
46.8949
113.629
20.1519
22.7065
47.1744
113.342
19.8601
411.342
411.294
45.1093
19.8692
110.556
22.6306
45.788
19.7542
110.402
184.982
181.969
25.5485
184.038
181.922
410.859
297.659
124.31
17.6429
17.6015
17.5329
112.837
19.5928
46.3587
410.562
19.778
110.463
45.6251
183.103
182.231
182.65
179.151
24.797
178.722
181.095
409.344
409.256
411.269
411.062
24.6663
183.505
180.357
174.102
174.06
409.84
409.962
44.2089
19.7798
108.274
22.2004
108.714
43.939
19.5781
117.805
294.576
294.26
117.434
117.482
295.063
295.583
117.026
42.4474
22.1267
19.7094
108.868
103.265
44.48
19.548
43.1994
22.8427
19.8141
108.935
106.753
44.4589
19.7944
115.879
295.735
291.058
118.813
112.041
295.794
292.981
117.845
410.8
411.21
410.257
409.638
24.4961
183.977
181.29
173.491
175.638
411.312
412.001
409.408
410.431
410.335
409.93
411.76
412.447
181.7
184.287
25.4118
180.829
184.006
409.757
410.066
412.186
411.875
24.7325
181.152
183.195
173.094
181.54
118.749
296.375
296.217
119.189
44.4272
110.601
19.7756
22.7852
109.994
19.4988
44.8309
44.5446
110.643
19.8455
22.2396
109.839
19.5686
44.2394
114.044
295.318
293.63
114.045
111.951
296.086
292.754
119.855
41.3476
22.5476
108.886
19.7918
104.04
19.7438
44.9172
41.5156
22.9181
109.722
19.8426
101.387
19.8113
45.1027
182.235
183.584
25.3533
181.661
183.535
411.366
412.239
409.721
411.161
25.0451
180.784
182.787
179.038
181.232
411.182
411.788
46.6331
112.889
19.972
22.9823
112.52
19.8716
46.9835
122.987
298.613
298.314
122.756
46.1854
19.7586
112.816
22.824
20.0097
112.07
45.0582
114.328
298.613
297.033
123.989
45.5945
22.9086
111.287
20.126
105.937
20.0615
46.9568
117.186
298.135
297.181
122.777
44.1107
22.5392
20.1046
112.609
20.033
103.712
47.0262
122.444
298.687
298.54
123.857
46.5305
20.0534
112.722
23.0449
19.7578
112.352
47.1433
123.028
298.841
298.234
123.968
45.4856
22.8138
111.52
20.0289
103.587
20.0061
45.283
116.497
298.032
297.384
122.452
44.6022
22.786
20.078
112.471
20.0329
103.632
46.7236
114.161
297.894
295.873
123.863
175.991
176.179
25.2005
183.112
180.278
409.856
410.393
411.484
411.741
24.8775
182.475
179.931
177.645
175.541
409.512
411.051
44.5317
19.5137
106.598
22.6671
43.1527
19.7563
109.16
118.602
292.675
116.289
295.66
119.175
293.112
114.321
296.058
42.3638
22.8629
19.6927
106.379
19.6581
107.153
44.1451
41.4639
22.7514
19.8695
109.172
19.6894
107.071
44.6428
114.998
296.023
294.733
118.519
111.562
295.934
294.696
118.306
412.953
411.323
410.276
410.053
24.749
183.25
181.444
177.82
178.407
410.906
412.082
409.692
410.947
410.333
409.653
412.63
411.323
178.043
180.719
25.2839
180.118
183.199
409.749
410.593
411.588
412.001
24.8298
180.83
183.49
172.484
181.021
118.794
294.296
111.868
295.503
44.7847
103.24
19.5406
22.9395
43.9095
109.173
19.8007
44.9404
100.767
19.6877
22.2173
44.0733
109.89
19.7565
113.198
295.781
293.982
115.305
110.083
295.701
292.581
119.934
43.9517
22.9366
108.498
19.8336
104.325
19.8309
44.5141
43.2881
22.9466
109.702
19.8201
100.767
19.7791
44.8174
178.007
180.353
25.4028
180.61
182.698
412.609
411.369
409.66
409.64
24.5243
180.829
182.715
171.63
180.535
411.797
412.31
46.8254
106.206
20.0014
23.1675
45.1318
111.682
20.0837
122.516
294.819
117.125
298.193
46.6191
19.8613
108.625
23.0766
44.4283
20.1399
105.74
116.732
298.594
296.882
119.609
45.1341
22.8579
112.382
20.1708
108.183
20.126
46.9278
118.286
298.142
296.887
123.084
44.5502
23.0966
20.1436
113.368
20.1834
109.737
46.8265
123.888
296.564
112.803
297.952
47.3507
19.9176
109.173
23.2522
43.4613
19.8357
111.972
123.777
296.284
114.04
298.034
46.0882
23.1755
112.424
20.0862
106.434
20.0517
46.0359
120.558
298.605
295.489
123.228
45.9863
22.8986
20.1377
111.176
20.1171
106.176
47.1799
120.47
297.933
294.547
123.169
177.381
175.641
25.1905
183.037
180.214
411.019
409.89
411.338
411.358
24.6893
182.854
180.423
177.681
174.998
409.695
410.652
44.5992
19.7917
101.111
22.8658
43.1007
19.8435
110.298
118.348
294.081
112.97
295.808
117.924
292.645
112.32
296.252
42.5387
22.8462
19.6422
110.676
19.6989
101.973
43.479
41.2948
22.5618
19.8979
109.711
19.8699
102.178
45.1286
112.474
295.923
293.015
118.929
113.866
295.674
294.575
118.913
412.585
412.005
411.52
410.077
24.8581
184.061
180.548
177.314
173.572
411.025
412.529
409.433
410.832
410.103
409.728
412.356
412.524
177.878
181.271
25.3182
180.29
183.386
409.806
410.293
411.622
411.771
24.8399
180.754
183.515
177.624
179.735
118.134
293.878
113.035
295.636
44.7543
105.872
19.5844
22.8262
41.4168
108.616
19.8402
44.6825
106.644
19.6624
22.9548
44.0232
109.323
19.7491
115.148
295.659
294.669
118.576
110.379
295.902
292.115
118.899
41.5281
22.9117
109.41
19.8537
100.792
19.8379
44.2966
43.4638
22.5626
108.865
19.8084
106.998
19.7651
44.5502
172.959
177.776
25.2796
181.445
183.556
412.485
411.061
409.736
410.781
24.4735
181.218
182.664
173.391
178.948
411.034
412.568
46.8257
109.224
20.0079
22.7857
45.4889
111.734
19.9733
123.001
295.326
114.168
298.239
46.66
20.0913
106.724
22.679
45.223
19.9607
112.42
119.918
298.069
295.178
120.236
44.6126
23.137
113.336
20.1868
108.847
19.9644
47.1937
117.047
297.942
296.299
122.697
45.0324
23.4204
20.1657
111.289
20.1773
105.335
47.349
123.19
297.092
120.638
297.983
47.0244
19.9543
105.889
22.8453
46.1068
20.013
111.648
123.055
296.895
120.775
297.917
44.0927
23.3083
111.714
19.9195
104.308
20.0558
44.4911
114.373
298.315
294.726
124.163
45.4455
23.0041
20.0695
112.723
20.0254
102.441
46.9185
114.324
297.891
296.442
124.005
177.873
175.48
25.2293
183.009
180.475
411.257
410.499
411.189
411.312
24.6516
182.564
180.544
176.817
176.34
409.491
411.25
44.6579
19.7326
105.427
22.9324
41.8767
19.7966
109.225
118.993
293.27
108.571
295.672
118.988
293.492
109.998
295.677
41.4943
22.5463
19.7058
109.899
19.8279
107.259
44.4134
42.8894
22.6081
19.868
108.841
19.8197
104.072
44.6584
110.554
295.634
293.652
118.276
109.747
295.469
293.197
119.47
412.108
411.389
410.516
409.981
25.1979
184.022
178.171
176.789
175.207
410.905
412.208
409.377
410.704
410.031
409.632
412.225
412.564
175.689
178.273
25.4969
180.678
183.989
409.715
410.913
412.192
411.808
24.8502
180.652
183.34
176.209
179.473
117.393
294.29
112.602
295.912
44.1084
105.492
19.6667
22.4986
42.3772
108.885
19.5894
44.1502
106.513
19.6826
22.5463
42.4399
108.914
19.649
113.312
295.997
293.128
113.836
111.286
295.731
292.723
118.585
42.1325
22.4436
108.625
19.6577
103.621
19.8249
44.1758
42.214
22.6696
108.943
19.8013
106.696
19.7893
43.0243
178.29
174.521
25.2852
180.333
183.455
411.8
411.457
409.635
410.462
24.6735
180.389
182.581
177.982
180.884
410.927
412.246
46.7641
110.621
20.1117
22.8684
44.336
113.104
19.9439
122.735
295.89
116.617
298.008
46.9837
19.8737
105.516
23.2814
46.3544
20.1779
112.632
116.895
298.262
296.629
118.485
44.5043
22.8964
112.026
20.219
107.429
20.198
46.8578
113.165
298.432
294.444
124.785
46.1267
23.2384
20.1645
113.061
20.1844
108.487
47.3965
122.854
297.068
116.868
298.13
46.7689
19.9221
104.539
23.3318
44.4673
19.8859
112.288
123.965
295.858
113.989
297.86
43.6099
22.6122
112.698
20.0402
110.871
19.8299
46.9597
116.559
298.152
297.177
123.759
44.3244
22.9746
20.1041
111.967
19.8746
106.738
47.3022
121.043
297.944
296.266
123.877
178.88
175.972
25.3081
183.277
180.146
411.114
410.592
411.168
412.036
24.9557
182.307
180.864
177.717
171.687
409.557
409.984
44.5237
19.7135
99.8841
22.9455
42.2876
19.6505
110.192
119.23
293.433
109.001
296.114
118.78
293.554
116.551
295.658
41.7738
22.87
19.8618
109.627
19.6768
103.751
43.0383
41.1404
22.9646
19.9174
109.154
19.9034
107.332
45.2879
116.398
296.319
295.368
119.287
116.023
296.027
292.963
119.029
411.967
411.39
411.294
410.023
25.2261
183.296
182.061
179.583
174.991
411.04
412.326
409.766
410.758
410.783
409.668
412.917
412.254
173.963
180.275
25.3714
180.986
183.401
409.807
410.174
412.461
412.12
24.4233
180.385
183.109
177.379
179.971
118.488
293.279
113.714
295.737
44.0811
103.653
19.7611
22.201
41.9958
108.715
19.6446
44.8328
106.636
19.7052
22.8571
44.2626
109.019
19.5842
109.59
296.045
293.117
117.6
115.072
295.657
293.246
118.46
41.9604
22.9095
108.54
19.7941
103.994
19.6067
44.2306
41.1813
22.8918
109.632
19.68
101.062
19.8307
44.9739
173.052
175.181
25.3909
181.378
183.55
411.736
411.443
409.661
410.938
24.6573
180.693
182.777
178.675
180.919
411.073
412.793
46.911
108.27
20.0072
22.9424
44.5369
112.42
19.9284
124.007
294.939
121.074
298.432
47.4067
20.0136
110.512
23.0867
46.5132
20.0504
112.366
117.226
297.537
296.303
120.467
43.1238
22.8304
112.233
20.135
108.098
19.8988
47.5747
119.61
298.221
294.823
124.328
46.6564
23.1582
20.1235
111.178
20.0726
106.21
47.6563
123.022
296.99
116.059
298.231
46.9821
20.0166
106
22.5365
44.6808
19.8892
112.271
124.471
296.417
115.315
298.065
44.8271
22.9828
108.241
20.0665
110.363
19.8892
47.244
116.176
297.962
297.351
124.112
44.7876
23.3331
20.1728
111.527
20.168
105.961
47.1964
114.818
298.02
297.187
124.28
177.212
177.616
25.3897
183.059
180.325
410.599
409.899
411.197
412.328
24.4196
182.889
181.134
177.161
176.378
410.496
411.24
45.1984
19.6067
101.091
23.0328
41.8129
19.8552
110.214
118.835
295.152
116.745
295.972
118.783
294.41
114.426
295.672
43.901
22.3104
19.7287
109.62
19.6671
103.785
44.7717
43.8418
22.5906
19.9136
110.145
19.7323
101.391
44.8187
116.234
296.305
293.139
118.352
115.729
295.922
293.577
118.636
411.911
411.435
411.287
410.044
25.2893
183.252
182.305
179.619
175.391
411.11
413.053
409.932
410.979
410.058
409.921
411.498
412.589
175.38
177.78
25.3057
180.453
183.518
410.738
410.432
412.308
411.268
24.4651
180.682
183.651
173.072
174.592
119.122
293.359
108.802
295.537
44.7258
104.396
19.6938
22.7989
40.9336
108.858
19.7359
44.5695
100.902
19.7259
23.022
43.864
110.162
19.7742
116.115
295.944
293.087
114.76
116.012
295.816
293.946
118.162
43.6216
22.508
108.641
19.7869
105.226
19.7399
44.5588
43.9499
22.6133
109.848
19.828
101.218
19.7863
44.7357
178.941
177.971
25.3533
181.372
182.936
412.685
410.971
409.82
410.849
24.7538
181.237
182.738
173.31
178.286
411.23
412.619
46.9542
109.421
19.8222
22.4882
46.3503
112.614
20.0827
123.769
296.861
120.028
298.177
47.2407
19.9684
105.706
23.1048
45.3628
19.9251
111.564
120.089
298.586
295.837
123.572
43.4552
23.2544
111.834
20.1462
106.394
19.9391
47.4135
115.834
297.957
294.988
122.597
43.343
23.2046
20.1241
111.139
19.9063
105.546
47.2335
122.564
295.015
117.332
298.357
46.9309
19.9907
106.254
23.1261
44.9715
19.9186
111.735
123.611
296.952
114.254
297.97
45.6407
23.0376
111.638
19.9064
103.722
20.0402
46.8061
116.675
298.332
295.011
122.225
42.9996
23.1662
20.1115
111.915
19.8919
106.657
47.2576
120.154
298.107
294.951
122.71
179.562
179.201
25.4384
184.028
181.058
410.571
410.419
412.031
411.957
25.0718
182.401
180.158
178.656
174.76
409.466
411.288
44.8324
19.6096
106.969
22.5661
43.6391
19.8382
109.264
118.579
294.492
115.694
295.716
118.617
292.944
116.212
295.579
41.568
22.5364
19.6401
105.879
19.6833
103.016
45.0942
42.2711
22.7684
19.8803
110.305
19.7055
101.333
45.0307
111.115
295.725
293.661
119.989
110.375
296.313
294.075
119.768
412.194
411.568
411.466
410.134
25.0287
184.955
182.642
176.299
175.406
411.429
413.084
410.102
411.145
410.974
409.705
411.744
412.398
173.469
180.836
25.4464
180.946
183.258
410.165
410.159
411.393
411.931
24.9385
181.074
183.157
177.461
180.894
118.301
294.282
115.351
295.916
44.3741
103.524
19.6056
22.5052
43.6935
108.592
19.6826
44.7364
106.845
19.6085
22.5767
40.9426
109.365
19.5231
116.079
294.342
294.928
114.121
115.509
295.77
292.885
118.938
41.3869
22.5184
108.974
19.7774
104.728
19.7162
44.8347
43.5198
22.8731
109.282
19.8365
107.082
19.8002
45.1928
178.573
180.673
25.3003
180.619
183.757
412.919
411.517
409.827
410.2
24.968
180.998
182.487
174.134
177.63
411.088
412.906
46.8331
107.926
19.8015
23.2413
45.9506
112.956
20.0722
122.573
295.876
118.783
297.825
46.6039
19.9119
106.58
23.1287
45.8737
19.7599
111.634
120.327
299.178
295.423
124.374
46.0316
22.9245
112.773
20.1502
104.204
19.9306
47.5269
116.747
297.849
295.691
123.451
43.315
22.7836
20.1038
111.63
20.0681
103.705
47.2184
122.285
295.175
115.917
297.964
47.1427
20.0055
106.002
22.7448
43.2928
20.0518
112.169
123.266
296.91
120.693
297.87
43.8635
23.2318
108.722
19.8661
106.279
19.9209
45.303
116.109
298.681
297.779
122.484
45.5327
23.2685
20.1043
111.599
20.0582
105.921
46.9065
116.717
298.165
294.795
123.945
177.12
175.495
25.172
182.316
179.825
410.445
409.935
411.157
411.763
24.7126
182.456
180.028
177.825
174.293
409.533
410.634
44.7013
19.5856
107.118
22.4977
42.3284
19.8169
109.528
118.965
294.484
116.042
296.022
118.519
295.343
113.058
296.306
43.6671
22.6354
19.83
105.804
19.8191
102.984
43.1978
42.6109
22.8088
19.8813
109.493
19.7006
106.402
44.7398
109.005
295.78
294.435
119.352
111.044
295.944
295.341
119.449
413.127
411.396
411.629
410.167
25.2249
180.592
181.215
178.28
179.946
410.996
412.793
409.675
411.768
411.162
410.746
412.006
411.887
177.261
180.799
25.5001
180.79
183.144
409.739
410.243
411.326
412.68
25.1953
180.714
183.371
178.604
180.916
119.126
294.093
108.735
295.893
44.9875
106.911
19.6571
22.883
41.4802
109.506
19.6008
44.9005
106.952
19.5583
22.9241
43.731
109.544
19.8098
115.821
294.983
293.793
114.433
111.16
296.513
294.507
119.589
41.6872
22.9148
109.243
19.8099
106.35
19.731
45.0129
42.6513
22.9614
110.065
19.8685
106.819
19.8457
45.1778
176.488
177.326
25.4302
181.596
183.19
412.105
411.423
410.088
410.483
24.5837
181.198
182.527
177.35
177.458
410.965
412.152
47.2116
109.619
20.0111
22.8281
46.3307
111.954
20.0642
123.36
295.615
112.628
297.879
46.8284
19.8434
106.299
23.1514
45.8369
19.7379
111.286
117.026
298.488
295.965
123.428
45.2956
23.2359
112.445
20.1033
109.066
20.0666
47.1422
120.048
298.386
296.53
123.078
45.0441
22.7911
20.097
111.481
20.0602
104.698
47.1684
122.981
297.42
118.5
298.657
46.891
19.8966
102.424
23.2356
45.7727
19.985
112.71
123.674
297.075
113.336
298.07
43.4214
23.0668
111.979
20.0307
104.874
19.8198
46.8229
113.768
298.234
297.622
123.975
42.7599
22.9193
20.0854
112.094
20.038
110.028
47.2272
120.438
297.889
296.689
123.048
177.821
175.452
25.2169
182.843
180.143
410.484
409.887
411.424
411.914
24.9201
182.69
181.184
178.491
172.178
409.549
410.465
44.7615
19.6776
104.934
22.5615
43.1847
19.5459
109.429
119.248
294.908
109.938
295.972
119.234
294.844
115.554
295.887
42.6394
22.8915
19.7606
109.631
19.6759
103.974
44.8178
41.5049
22.5045
19.8546
109.385
19.8204
107.091
44.957
110.803
295.74
293.918
119.508
114.081
295.802
294.907
118.484
412.957
411.527
411.365
410.149
25.0412
183.09
181.244
181.537
179.506
411.052
412.404
409.596
410.982
410.274
410.593
411.949
411.647
173.345
181.176
25.4615
181.519
183.655
410.995
411
412.667
411.994
24.9225
181.245
183.849
174.218
174.784
118.407
294.025
116.614
296.225
44.8124
103.206
19.6038
22.2463
41.516
109.377
19.4938
44.8507
103.534
19.6553
22.6025
43.3736
109.893
19.532
116.351
295.134
293.728
118.81
110.683
295.792
293.7
119.193
41.3689
23.0067
108.904
19.8148
104.605
19.7799
44.9291
41.2989
22.6113
108.937
19.8425
103.81
19.8098
45.1178
177.708
177.7
25.4621
182.22
182.451
411.78
411.307
409.774
410.509
24.9845
182.228
182.295
176.401
177.403
410.671
412.014
47.1309
109.137
19.8943
23.118
45.4869
112.956
19.8876
123.17
296.778
120.687
298.058
47.0982
19.7276
107.234
22.7133
46.1094
20.013
111.936
121.573
298.509
297.612
122.177
45.4046
23.1611
111.985
20.1166
106.712
19.8872
47.3302
120.715
297.959
295.769
123.366
43.7213
22.9904
20.1028
111.758
19.8976
104.11
47.5324
124.426
295.002
119.962
298.454
47.4175
19.8373
108.502
22.8731
43.7959
19.7215
112.126
123.178
295.785
119.456
297.848
43.4497
23.1366
111.969
19.9212
110.419
20.0797
46.6542
122.173
298.043
295.598
124.371
43.5228
22.8903
20.0924
111.461
20.0459
105.843
47.6463
118.766
297.989
296.148
123.83
178.235
178.851
25.2584
182.562
180.784
410.478
409.96
412.239
412.395
24.4553
183.844
179.985
174.59
175.648
409.502
410.652
44.7108
19.5299
106.896
22.2024
43.3652
19.7726
109.335
118.775
293.158
115.252
295.765
118.148
292.621
112.011
296.057
42.5892
22.9636
19.7623
105.435
19.5873
102.957
43.4376
42.2083
22.9361
19.8469
109.296
19.6701
107.139
44.7105
114.125
295.611
293.428
118.913
111.982
295.706
294.869
118.944
412.054
412.431
410.56
410.266
24.7345
179.513
180.728
181.454
174.352
410.573
412.216
409.687
411.025
409.905
410.701
411.317
412.517
174.319
175.873
25.3437
180.869
184.188
409.801
410.09
411.268
411.694
24.7256
180.339
183.197
177.277
181.305
117.943
293.236
113.03
295.515
44.5896
106.356
19.6521
22.9866
43.5029
109.006
19.6215
44.4376
103.136
19.6809
22.9626
42.5175
109.064
19.6079
110.394
296.591
293.325
113.648
108.358
295.426
293.472
119.384
40.8595
22.5745
108.177
19.8105
103.335
19.6039
44.7055
42.4603
22.96
108.016
19.8445
102.005
19.8105
44.5015
178.494
175.346
25.361
180.712
183.064
411.598
411.474
409.682
410.321
24.5427
180.499
183.524
176.473
180.08
411.215
412.927
47.0714
106.429
19.8596
23.3255
46.446
112.002
19.8731
123.839
295.859
114.082
297.961
46.8555
19.8028
107.099
22.6901
46.1982
20.0801
111.718
114.641
297.469
295.972
122.71
44.4691
22.8643
111.502
20.0923
106.183
20.0372
47.0638
114.428
298.038
295.858
124.405
45.9687
22.8464
20.0881
111.472
20.0342
106.441
47.073
124.213
296.222
114.932
298.362
47.2816
19.7762
106.966
22.7813
46.2156
20.0703
112.15
125.168
295.951
120.387
298.082
43.4594
22.8827
108.683
19.8901
105.807
19.9203
46.7349
114.441
297.923
295.849
124.221
43.7365
23.095
20.0201
112.29
20.1071
109.739
47.7726
123.404
298.554
294.944
124.702
181.208
173.246
25.3365
182.848
180.502
410.372
409.864
410.971
411.63
24.6681
182.571
180.183
175.782
174.898
409.403
410.516
44.3296
19.7382
106.833
22.7405
41.8923
19.628
109.122
118.411
292.655
114.93
294.995
117.921
294.677
112.517
295.736
43.5315
22.8302
19.6573
105.522
19.7715
107.527
42.8509
42.2613
22.7884
19.6677
109.269
19.8689
102.193
44.5232
110.224
296.309
292.956
118.351
110.366
295.941
293.03
118.387
411.75
411.591
410.559
410.121
25.1734
183.068
178.114
181.914
179.116
411.102
412.546
409.442
411.563
410.754
409.812
412.691
411.242
171.795
180.868
25.4185
181.202
183.19
409.764
410.32
411.997
412.373
24.7387
180.866
183.878
173.076
175.752
118.397
293.419
115.555
295.399
44.4787
102.94
19.5375
22.2379
43.6312
108.501
19.7675
44.4823
102.545
19.697
22.8344
42.2306
108.219
19.6
115.524
296.103
293.237
118.982
111.786
295.862
293.662
118.404
43.6342
22.9539
108.318
19.8342
102.94
19.6531
44.4377
42.2537
22.8977
108.758
19.7911
104.594
19.7267
44.5484
175.404
181.456
25.3971
181.012
183.047
412.235
411.599
409.796
410.297
24.549
181.331
183.584
176.727
176.725
411.281
412.28
47.3552
102.235
19.8463
23.3451
42.8029