/*--------------------------------*- C++ -*----------------------------------*\
| =========                 |                                                 |
| \\      /  F ield         | OpenFOAM: The Open Source CFD Toolbox           |
|  \\    /   O peration     | Version:  2206                                  |
|   \\  /    A nd           | Website:  www.openfoam.com                      |
|    \\/     M anipulation  |                                                 |
\*---------------------------------------------------------------------------*/
FoamFile
{
    version     2.0;
    format      ascii;
    arch        "LSB;label=32;scalar=64";
    class       volScalarField;
    location    "70";
    object      p;
}
// * * * * * * * * * * * * * * * * * * * * * * * * * * * * * * * * * * * * * //

dimensions      [0 2 -2 0 0 0 0];

internalField   nonuniform List<scalar> 
66701
(
-0.00707299
-0.00707316
-0.007073
-0.00707293
-0.00707312
-0.00707282
-0.00707286
-0.00707309
-0.00707317
-0.00707302
-0.00707295
-0.0070731
-0.00707283
-0.00707308
-0.00707288
-0.00707305
-0.00707306
-0.00707306
-0.00707306
-0.00707307
-0.00707307
-0.00707316
-0.00707316
-0.00707316
-0.00707317
-0.00707317
-0.00707317
-0.00707318
-0.00707318
-0.00707319
-0.0070732
-0.0070732
-0.00707321
-0.00707321
-0.00707322
-0.00707322
-0.00707312
-0.00707313
-0.00707313
-0.00707314
-0.00707314
-0.00707318
-0.00707318
-0.00707318
-0.00707319
-0.00707319
-0.00707314
-0.00707314
-0.00707314
-0.00707315
-0.00707315
-0.00707312
-0.00707313
-0.00707313
-0.00707313
-0.00707314
-0.00707313
-0.00707314
-0.00707314
-0.00707314
-0.00707315
-0.00707312
-0.00707313
-0.00707313
-0.00707314
-0.00707314
-0.00702387
-0.00702381
-0.00702382
-0.00702392
-0.00702386
-0.00702405
-0.00703563
-0.00702464
-0.0070236
-0.00702379
-0.00702447
-0.00703584
-0.00702437
-0.00703579
-0.0070236
-0.00702385
-0.00702447
-0.0070359
-0.00703586
-0.00702441
-0.00702388
-0.00702376
-0.00702393
-0.00704794
-0.00704793
-0.00702386
-0.00702385
-0.00702364
-0.0070477
-0.00704779
-0.00704777
-0.007024
-0.00702346
-0.00704751
-0.00702381
-0.00704753
-0.00704802
-0.00704781
-0.00702401
-0.00702337
-0.00704783
-0.00702375
-0.00704766
-0.00704817
-0.00704798
-0.00702363
-0.0070239
-0.0070482
-0.00702391
-0.00704816
-0.007048
-0.00704789
-0.00702374
-0.00704799
-0.00702397
-0.00704808
-0.00704799
-0.0070239
-0.00702363
-0.0070482
-0.0070239
-0.007048
-0.00704818
-0.00704792
-0.00702376
-0.00704807
-0.00702398
-0.00704812
-0.00704801
-0.00704805
-0.0070479
-0.00704785
-0.00704793
-0.00702349
-0.00704792
-0.00704827
-0.00704778
-0.00704785
-0.00704774
-0.00704767
-0.00704815
-0.00704784
-0.00703585
-0.00703605
-0.00703599
-0.00703642
-0.0070359
-0.00703605
-0.00703604
-0.00703643
-0.00703607
-0.00703643
-0.00703615
-0.00703649
-0.00704647
-0.0070479
-0.0070242
-0.00702417
-0.00702518
-0.00704736
-0.00704743
-0.00704772
-0.0070248
-0.00702329
-0.00704665
-0.00704812
-0.00702373
-0.00704642
-0.00704853
-0.00702448
-0.00702304
-0.00704729
-0.0070231
-0.00704728
-0.00704863
-0.00704843
-0.00702445
-0.00702302
-0.00704737
-0.00704856
-0.00702313
-0.00704725
-0.00704858
-0.00702307
-0.00702448
-0.00704731
-0.00702315
-0.00704866
-0.00704729
-0.00704847
-0.00702447
-0.00702307
-0.00704744
-0.0070232
-0.00704731
-0.00704861
-0.0070466
-0.00704797
-0.00702424
-0.00704751
-0.00704747
-0.00702381
-0.00702381
-0.00702382
-0.00702384
-0.00702385
-0.00702387
-0.00702388
-0.00702388
-0.00702388
-0.00702389
-0.00702389
-0.00702389
-0.0070239
-0.00702391
-0.00702393
-0.00702397
-0.00702398
-0.00702398
-0.00702399
-0.007024
-0.00702402
-0.00702403
-0.00702403
-0.00702403
-0.00702404
-0.00702395
-0.00702395
-0.00702396
-0.00702396
-0.00702397
-0.00704789
-0.00704788
-0.00704788
-0.00704788
-0.00704787
-0.00704796
-0.00704796
-0.00704796
-0.00704795
-0.00704795
-0.00702392
-0.00702392
-0.00702392
-0.00702393
-0.00702393
-0.00702393
-0.00702393
-0.00702394
-0.00702394
-0.00702395
-0.00704798
-0.00704798
-0.00704798
-0.00704798
-0.00704797
-0.00704785
-0.00704784
-0.00704784
-0.00704783
-0.00704783
-0.00704796
-0.00704796
-0.00704796
-0.00704796
-0.00704796
-0.00702392
-0.00702392
-0.00702393
-0.00702393
-0.00702394
-0.00702392
-0.00702393
-0.00702393
-0.00702394
-0.00702394
-0.00704798
-0.00704798
-0.00704798
-0.00704798
-0.00704798
-0.00704791
-0.0070479
-0.0070479
-0.00704789
-0.00704789
-0.00704796
-0.00704795
-0.00704794
-0.00704794
-0.00704793
-0.00704778
-0.00704779
-0.00704779
-0.00704778
-0.00704777
-0.00704782
-0.00704782
-0.00704782
-0.00704781
-0.0070478
-0.00702385
-0.00702385
-0.00702386
-0.00702387
-0.00702388
-0.00702385
-0.00702385
-0.00702386
-0.00702388
-0.00702388
-0.00704759
-0.0070476
-0.0070476
-0.0070476
-0.00704759
-0.00702387
-0.00702387
-0.00702387
-0.00702388
-0.00702388
-0.00702395
-0.00702394
-0.00702395
-0.00702396
-0.00702396
-0.00704776
-0.00704777
-0.00704776
-0.00704775
-0.00704775
-0.00704768
-0.00704769
-0.00704769
-0.00704768
-0.00704767
-0.00704778
-0.00704778
-0.00704778
-0.00704777
-0.00704776
-0.00704789
-0.0070479
-0.00704789
-0.00704789
-0.00704788
-0.00702397
-0.00702396
-0.00702397
-0.00702398
-0.00702398
-0.00704791
-0.00704792
-0.00704791
-0.00704791
-0.0070479
-0.00702398
-0.00702398
-0.00702398
-0.00702399
-0.007024
-0.00704787
-0.00704788
-0.00704787
-0.00704787
-0.00704786
-0.00704788
-0.00704788
-0.00704788
-0.00704787
-0.00704786
-0.00704784
-0.00704784
-0.00704784
-0.00704783
-0.00704782
-0.00379825
-0.00378633
-0.00399628
-0.0039966
-0.00399651
-0.00398456
-0.00419254
-0.00419256
-0.0041926
-0.00418057
-0.00438764
-0.00438766
-0.00438769
-0.00437571
-0.0045826
-0.00458264
-0.00458261
-0.00457064
-0.00477778
-0.0047778
-0.00477773
-0.00476577
-0.00497333
-0.00497335
-0.00497331
-0.00496128
-0.00516912
-0.00516909
-0.00516915
-0.00515708
-0.00536511
-0.00536508
-0.00536514
-0.00535303
-0.00556127
-0.00556127
-0.00556132
-0.00554921
-0.00575752
-0.00575751
-0.00575752
-0.00574543
-0.00595398
-0.00595399
-0.00595399
-0.0059419
-0.00615059
-0.00615061
-0.00615058
-0.00613849
-0.00634736
-0.00634739
-0.00634736
-0.00633526
-0.00654417
-0.00654417
-0.00654415
-0.00653205
-0.00674092
-0.00674091
-0.00674089
-0.00672874
-0.00693738
-0.00693739
-0.00693743
-0.00692536
-0.00378675
-0.00395941
-0.00379852
-0.00394768
-0.00394745
-0.00395948
-0.00398452
-0.00415567
-0.00399659
-0.00399665
-0.00414371
-0.00414369
-0.0039846
-0.00415566
-0.00399645
-0.00399637
-0.00414368
-0.00414364
-0.00399653
-0.00414364
-0.00414359
-0.00398442
-0.00415567
-0.00399659
-0.00414371
-0.00414371
-0.00415566
-0.00418059
-0.00435086
-0.00419258
-0.00419257
-0.00433896
-0.00433894
-0.0041806
-0.00435085
-0.00419254
-0.00419253
-0.00433892
-0.00433891
-0.00419249
-0.0043389
-0.00433891
-0.00418059
-0.00435087
-0.00419254
-0.00433895
-0.00433895
-0.00435086
-0.00437571
-0.00454582
-0.00438765
-0.00438762
-0.00453392
-0.00453391
-0.0043757
-0.00454585
-0.00438763
-0.0043876
-0.00453391
-0.0045339
-0.00438759
-0.0045339
-0.00453391
-0.0043757
-0.0045458
-0.00438765
-0.0045339
-0.00453394
-0.0045458
-0.00457064
-0.00474083
-0.0045826
-0.00458258
-0.00472896
-0.004729
-0.00457068
-0.00474091
-0.00458258
-0.00458256
-0.00472892
-0.00472891
-0.00458259
-0.00472899
-0.00472898
-0.00457062
-0.00474081
-0.00458261
-0.00472893
-0.00472902
-0.0047409
-0.00476572
-0.00493631
-0.00477773
-0.00477775
-0.0049244
-0.00492444
-0.00476581
-0.00493637
-0.0047777
-0.00477766
-0.00492439
-0.00492436
-0.00477775
-0.00492445
-0.00492443
-0.0047657
-0.00493632
-0.00477775
-0.00492439
-0.00492443
-0.00493634
-0.00496126
-0.00513213
-0.00497328
-0.00497329
-0.00512018
-0.00512016
-0.0049613
-0.00513209
-0.00497329
-0.00497325
-0.00512019
-0.0051202
-0.00497329
-0.00512015
-0.00512017
-0.00496126
-0.00513214
-0.00497328
-0.00512021
-0.00512021
-0.00513211
-0.00515709
-0.00532806
-0.00516909
-0.00516905
-0.0053161
-0.00531607
-0.00515705
-0.00532802
-0.00516911
-0.0051691
-0.00531613
-0.00531612
-0.00516906
-0.00531606
-0.00531609
-0.00515709
-0.00532808
-0.0051691
-0.00531613
-0.00531611
-0.00532802
-0.00535305
-0.00552423
-0.00536507
-0.00536501
-0.00551225
-0.00551224
-0.00535301
-0.00552418
-0.00536508
-0.00536508
-0.00551225
-0.00551228
-0.00536502
-0.00551221
-0.00551223
-0.00535306
-0.00552424
-0.00536506
-0.0055123
-0.00551226
-0.0055242
-0.00554923
-0.00572041
-0.00556127
-0.00556125
-0.00570848
-0.00570849
-0.00554921
-0.00572042
-0.00556126
-0.00556125
-0.00570848
-0.00570846
-0.00556123
-0.00570843
-0.00570845
-0.00554925
-0.00572039
-0.00556126
-0.00570847
-0.00570848
-0.0057204
-0.00574545
-0.00591683
-0.00575751
-0.00575747
-0.00590486
-0.00590487
-0.00574544
-0.00591685
-0.0057575
-0.00575746
-0.00590486
-0.00590483
-0.00575746
-0.00590484
-0.00590485
-0.00574541
-0.0059168
-0.00575748
-0.00590484
-0.00590488
-0.00591685
-0.00594192
-0.00611339
-0.00595398
-0.00595396
-0.00610144
-0.00610146
-0.00594193
-0.00611341
-0.00595396
-0.00595393
-0.00610142
-0.00610141
-0.00595394
-0.00610144
-0.00610142
-0.00594186
-0.0061134
-0.00595396
-0.00610144
-0.00610147
-0.0061134
-0.00613848
-0.00631017
-0.00615059
-0.00615057
-0.00629818
-0.00629821
-0.00613853
-0.00631019
-0.00615054
-0.00615053
-0.00629818
-0.00629817
-0.00615054
-0.00629818
-0.00629816
-0.00613849
-0.00631017
-0.00615057
-0.00629816
-0.00629819
-0.00631017
-0.0063353
-0.00650692
-0.00634738
-0.00634736
-0.00649494
-0.00649493
-0.00633534
-0.00650689
-0.00634736
-0.00634731
-0.00649494
-0.00649491
-0.00634732
-0.00649492
-0.00649494
-0.00633528
-0.00650693
-0.00634733
-0.00649495
-0.00649496
-0.00650692
-0.00653211
-0.0067036
-0.00654416
-0.00654413
-0.00669168
-0.0066917
-0.00653209
-0.00670362
-0.00654416
-0.0065441
-0.00669166
-0.00669163
-0.0065441
-0.00669167
-0.00669164
-0.00653205
-0.00670365
-0.00654411
-0.00669167
-0.00669168
-0.00670363
-0.00672887
-0.00690022
-0.00674095
-0.00674093
-0.00688869
-0.0068886
-0.00672889
-0.0069002
-0.00674088
-0.00674083
-0.00688839
-0.00688843
-0.00674083
-0.00688834
-0.00688832
-0.00672877
-0.00690047
-0.00674084
-0.0068884
-0.00688844
-0.00690041
-0.0069371
-0.00692545
-0.00693729
-0.00693733
-0.00693726
-0.00692539
-0.00693737
-0.00378637
-0.00386032
-0.00385933
-0.00379831
-0.00378721
-0.00384849
-0.00385975
-0.00378745
-0.00384837
-0.0037863
-0.00378659
-0.00386055
-0.00386024
-0.00386065
-0.00405762
-0.00398485
-0.0040577
-0.00398485
-0.00398469
-0.00405764
-0.00405803
-0.00398473
-0.00405788
-0.00398446
-0.00399649
-0.00399628
-0.00399646
-0.00414362
-0.00414361
-0.00414361
-0.00414357
-0.00405698
-0.00398508
-0.00399648
-0.00404561
-0.00405712
-0.00404549
-0.00398516
-0.00398472
-0.0040578
-0.00405657
-0.00399642
-0.00398546
-0.00404564
-0.0039858
-0.00404549
-0.00405694
-0.00398456
-0.00398481
-0.00405767
-0.00405767
-0.00405755
-0.00425315
-0.0041807
-0.0041808
-0.00425317
-0.0041807
-0.00425318
-0.00425346
-0.00418049
-0.00418033
-0.0042533
-0.00419253
-0.0041925
-0.00419248
-0.00433888
-0.00433889
-0.00433888
-0.0043389
-0.00425258
-0.00418109
-0.00419249
-0.00424134
-0.0041812
-0.00425274
-0.00424128
-0.00418051
-0.00425326
-0.00425212
-0.00419251
-0.00418136
-0.00424136
-0.00418172
-0.00424129
-0.00425246
-0.00418057
-0.00418073
-0.00425332
-0.00425322
-0.00425308
-0.00444811
-0.00437581
-0.00437591
-0.0044482
-0.00437582
-0.00444821
-0.00444847
-0.00437559
-0.00437544
-0.00444829
-0.00438756
-0.00438756
-0.00438755
-0.00453388
-0.00453389
-0.00453389
-0.00453392
-0.00444761
-0.0043762
-0.00438758
-0.00443635
-0.00437632
-0.00444773
-0.00443631
-0.00437565
-0.00444828
-0.00444714
-0.00438762
-0.00437649
-0.00443641
-0.00437687
-0.00443635
-0.00444746
-0.00437568
-0.00437583
-0.00444834
-0.00444821
-0.00444805
-0.00464307
-0.00457074
-0.0045708
-0.00464311
-0.00457075
-0.00464313
-0.00464342
-0.00457055
-0.00457039
-0.00464324
-0.00458257
-0.00458255
-0.00458257
-0.00472894
-0.004729
-0.00472896
-0.00472902
-0.0046426
-0.00457119
-0.00458258
-0.00463138
-0.00457132
-0.00464277
-0.00463134
-0.00457059
-0.00464322
-0.00464209
-0.00458258
-0.00457144
-0.00463133
-0.00457182
-0.00463131
-0.00464244
-0.00457067
-0.0045708
-0.00464329
-0.00464323
-0.00464305
-0.00483833
-0.00476584
-0.00476594
-0.00483836
-0.00476587
-0.0048384
-0.00483865
-0.00476562
-0.00476546
-0.00483849
-0.00477773
-0.0047777
-0.00477773
-0.0049244
-0.00492446
-0.00492443
-0.00492446
-0.00483788
-0.00476632
-0.00477775
-0.00482661
-0.00476644
-0.00483799
-0.00482657
-0.00476566
-0.00483847
-0.00483735
-0.00477771
-0.00476653
-0.00482655
-0.00476688
-0.00482653
-0.00483765
-0.00476577
-0.00476591
-0.00483854
-0.00483845
-0.0048383
-0.00503397
-0.00496138
-0.00496145
-0.00503406
-0.00496137
-0.00503399
-0.00503442
-0.0049612
-0.00496106
-0.00503425
-0.00497329
-0.00497327
-0.00497328
-0.00512017
-0.00512018
-0.00512023
-0.0051202
-0.00503353
-0.0049618
-0.0049733
-0.00502223
-0.004962
-0.00503366
-0.00502221
-0.00496125
-0.00503421
-0.00503301
-0.00497327
-0.00496207
-0.00502223
-0.00496243
-0.00502219
-0.00503336
-0.00496132
-0.00496144
-0.00503421
-0.00503414
-0.00503396
-0.00522977
-0.00515717
-0.0051572
-0.00522986
-0.00515712
-0.00522983
-0.00523027
-0.00515704
-0.00515693
-0.00523006
-0.00516905
-0.0051691
-0.00516906
-0.00531609
-0.0053161
-0.00531615
-0.0053161
-0.0052293
-0.00515758
-0.00516906
-0.00521803
-0.00515773
-0.00522941
-0.00521801
-0.00515711
-0.00523007
-0.00522886
-0.00516909
-0.00515789
-0.00521811
-0.00515825
-0.00521805
-0.00522922
-0.00515708
-0.00515721
-0.00523007
-0.00522994
-0.00522979
-0.00542583
-0.0053531
-0.00535318
-0.0054259
-0.00535305
-0.00542584
-0.00542631
-0.00535297
-0.00535284
-0.00542616
-0.00536502
-0.00536507
-0.00536501
-0.00551221
-0.00551223
-0.00551225
-0.00551224
-0.00542533
-0.00535351
-0.00536502
-0.0054141
-0.00535368
-0.00542549
-0.00541404
-0.005353
-0.00542609
-0.00542491
-0.00536506
-0.00535384
-0.00541413
-0.00535421
-0.00541407
-0.00542526
-0.00535302
-0.00535318
-0.00542607
-0.00542599
-0.00542585
-0.00562209
-0.00554931
-0.00554936
-0.00562211
-0.00554929
-0.00562216
-0.00562249
-0.00554919
-0.00554907
-0.00562233
-0.0055612
-0.00556122
-0.00556119
-0.00570845
-0.00570847
-0.00570847
-0.00570847
-0.00562159
-0.00554974
-0.00556121
-0.0056103
-0.00554987
-0.00562169
-0.00561024
-0.00554922
-0.0056223
-0.00562111
-0.00556124
-0.00555
-0.00561032
-0.00555038
-0.00561026
-0.00562146
-0.00554921
-0.00554935
-0.00562232
-0.00562218
-0.00562205
-0.00581835
-0.00574548
-0.00574558
-0.0058184
-0.0057455
-0.00581838
-0.00581874
-0.00574532
-0.00574519
-0.00581858
-0.00575746
-0.00575746
-0.00575743
-0.00590483
-0.00590485
-0.00590485
-0.00590485
-0.00581784
-0.00574593
-0.00575745
-0.00580656
-0.00574608
-0.00581801
-0.00580652
-0.00574536
-0.00581853
-0.00581734
-0.00575746
-0.0057462
-0.00580656
-0.00574658
-0.00580651
-0.00581769
-0.0057454
-0.00574556
-0.00581855
-0.00581846
-0.00581833
-0.00601491
-0.00594201
-0.00594209
-0.00601495
-0.00594201
-0.00601498
-0.00601526
-0.00594183
-0.00594166
-0.00601511
-0.00595392
-0.00595392
-0.0059539
-0.00610142
-0.00610146
-0.00610143
-0.00610146
-0.00601439
-0.00594244
-0.00595393
-0.00600311
-0.00594256
-0.00601451
-0.00600306
-0.00594184
-0.00601505
-0.00601393
-0.00595395
-0.00594268
-0.00600309
-0.00594303
-0.00600305
-0.00601425
-0.00594189
-0.00594204
-0.00601509
-0.00601501
-0.00601485
-0.00621157
-0.00613858
-0.00613864
-0.00621163
-0.00613857
-0.00621159
-0.00621195
-0.00613838
-0.00613826
-0.00621176
-0.00615054
-0.00615051
-0.00615052
-0.00629815
-0.00629819
-0.00629817
-0.00629819
-0.00621106
-0.00613901
-0.00615054
-0.00619973
-0.00613913
-0.00621124
-0.00619968
-0.00613841
-0.00621175
-0.00621058
-0.00615053
-0.00613927
-0.00619972
-0.00613965
-0.00619969
-0.00621091
-0.00613847
-0.0061386
-0.00621177
-0.00621168
-0.00621154
-0.00640833
-0.0063354
-0.00633548
-0.00640836
-0.0063354
-0.00640838
-0.00640872
-0.00633523
-0.00633509
-0.00640855
-0.00634731
-0.00634729
-0.00634731
-0.00649493
-0.00649494
-0.00649494
-0.00649494
-0.00640784
-0.00633585
-0.00634733
-0.00639651
-0.00633598
-0.00640793
-0.00639647
-0.00633525
-0.00640851
-0.00640734
-0.00634731
-0.0063361
-0.00639651
-0.00633646
-0.00639648
-0.00640767
-0.00633531
-0.00633544
-0.00640852
-0.00640845
-0.0064083
-0.00660511
-0.00653223
-0.00653226
-0.00660513
-0.00653223
-0.00660512
-0.00660552
-0.00653202
-0.00653188
-0.00660535
-0.0065441
-0.00654409
-0.00654406
-0.00669167
-0.00669168
-0.00669165
-0.00669164
-0.00660458
-0.00653262
-0.00654411
-0.0065933
-0.00653275
-0.00660476
-0.00659324
-0.00653206
-0.00660533
-0.00660414
-0.00654408
-0.00653287
-0.00659326
-0.00653321
-0.00659323
-0.0066045
-0.00653208
-0.00653223
-0.00660529
-0.00660528
-0.00660511
-0.00680179
-0.00672899
-0.00672903
-0.00680151
-0.00672899
-0.00680175
-0.00680219
-0.00672875
-0.00672862
-0.00680205
-0.00674088
-0.00674086
-0.00674085
-0.00688829
-0.00688836
-0.00688826
-0.00688825
-0.00680121
-0.00672937
-0.00674087
-0.00678999
-0.00672949
-0.00680139
-0.0067899
-0.0067288
-0.00680202
-0.00680083
-0.00674081
-0.00672962
-0.00678998
-0.00672999
-0.00678996
-0.00680117
-0.00672885
-0.006729
-0.00680197
-0.00680196
-0.00680182
-0.00692568
-0.00692533
-0.00692509
-0.00693727
-0.00693738
-0.00693733
-0.00692586
-0.00693731
-0.00692606
-0.00692545
-0.00693739
-0.00692612
-0.00692666
-0.00692539
-0.00692559
-0.00378657
-0.00378672
-0.00386054
-0.00386028
-0.00386035
-0.00378654
-0.00386053
-0.0039597
-0.00388581
-0.00388673
-0.00395951
-0.0039594
-0.00388621
-0.00388603
-0.00395957
-0.0038861
-0.00385933
-0.00379837
-0.00378721
-0.0038483
-0.00385973
-0.00378747
-0.00384824
-0.00386038
-0.00378654
-0.0038605
-0.0037865
-0.00386037
-0.00378646
-0.00386046
-0.0037865
-0.0038871
-0.00389819
-0.00394744
-0.00395866
-0.00388689
-0.00395826
-0.00389794
-0.00388709
-0.00389802
-0.00394738
-0.00395872
-0.00388672
-0.00395824
-0.00389792
-0.00388614
-0.00395955
-0.00388608
-0.0039593
-0.00388613
-0.00395943
-0.00388603
-0.00395927
-0.00378636
-0.00386067
-0.00378648
-0.00386043
-0.00388586
-0.00395933
-0.00395938
-0.00388589
-0.00388611
-0.00395944
-0.00388594
-0.00395944
-0.00388596
-0.00398483
-0.00405771
-0.00398472
-0.00405781
-0.00398486
-0.00398471
-0.00405771
-0.0040576
-0.00405772
-0.00415554
-0.00408292
-0.00415562
-0.00408278
-0.00408272
-0.00415546
-0.00415556
-0.00408297
-0.00408283
-0.00405761
-0.00398471
-0.00405764
-0.00398482
-0.0040566
-0.00398546
-0.00399653
-0.00404564
-0.00405698
-0.00404556
-0.00398578
-0.0040566
-0.0039854
-0.00399657
-0.00404565
-0.00405692
-0.00404555
-0.00398577
-0.00408293
-0.00415553
-0.00408295
-0.00415549
-0.00408293
-0.00415556
-0.0040829
-0.00415548
-0.00408389
-0.00409471
-0.00415486
-0.00414367
-0.00408363
-0.00409464
-0.00415449
-0.00408389
-0.00409467
-0.00415487
-0.00414365
-0.00408358
-0.00409461
-0.00415449
-0.00398473
-0.00398455
-0.00405768
-0.00405753
-0.00405764
-0.00398452
-0.00405771
-0.00415556
-0.00408287
-0.00408266
-0.00415548
-0.00415555
-0.00408293
-0.00408275
-0.00415561
-0.0040827
-0.00405707
-0.0039852
-0.00399628
-0.00404562
-0.00405722
-0.0040455
-0.00398526
-0.00405802
-0.00398471
-0.00405787
-0.00398448
-0.00405707
-0.00399627
-0.00398519
-0.00404555
-0.00404551
-0.00405722
-0.00398524
-0.00408256
-0.00415567
-0.00408278
-0.00415584
-0.0040834
-0.0040947
-0.00415509
-0.00414363
-0.00408337
-0.00409462
-0.00415493
-0.00408257
-0.00415567
-0.00408277
-0.00415582
-0.0040834
-0.00409464
-0.00414364
-0.00415508
-0.00409463
-0.00408335
-0.00415494
-0.00405792
-0.0039845
-0.00405775
-0.00398431
-0.00405698
-0.00399649
-0.00398511
-0.00404552
-0.00404549
-0.00405715
-0.00398516
-0.00405792
-0.00398451
-0.00405779
-0.00398432
-0.00408331
-0.00409461
-0.00415506
-0.00414359
-0.00408329
-0.00409453
-0.0041549
-0.00408247
-0.00415566
-0.00408269
-0.00415579
-0.00408331
-0.00409456
-0.00414361
-0.00415508
-0.00409455
-0.0040833
-0.00415491
-0.00408248
-0.00415568
-0.00408271
-0.0041558
-0.00398471
-0.00398487
-0.00405769
-0.00405771
-0.00405757
-0.00398485
-0.00405768
-0.00415561
-0.00408277
-0.00408267
-0.00415555
-0.00415543
-0.00408282
-0.00408296
-0.00415552
-0.00408289
-0.00405656
-0.00399642
-0.00398546
-0.00404564
-0.00398578
-0.00404546
-0.00405693
-0.00405762
-0.00398488
-0.0039849
-0.00405768
-0.0040576
-0.00398478
-0.00398488
-0.00405766
-0.0040839
-0.00409469
-0.00414363
-0.00415481
-0.00409458
-0.00408363
-0.00415448
-0.00408389
-0.00409473
-0.00414362
-0.00415482
-0.0040946
-0.00408362
-0.00415446
-0.00408297
-0.00415552
-0.00408294
-0.00415544
-0.00408296
-0.00415551
-0.00408293
-0.00415545
-0.00398453
-0.00405775
-0.00398475
-0.00405767
-0.00408267
-0.00415557
-0.00415543
-0.00408277
-0.00408296
-0.00415563
-0.00408273
-0.00415553
-0.00408289
-0.00418066
-0.00425318
-0.00418051
-0.00425325
-0.00418073
-0.00418057
-0.00425333
-0.00425306
-0.00425317
-0.00435073
-0.0042783
-0.00435078
-0.00427814
-0.00427818
-0.00435065
-0.00435074
-0.00427838
-0.00427822
-0.00425314
-0.00418073
-0.00418082
-0.00425319
-0.00425214
-0.00418141
-0.00419255
-0.00424136
-0.00418174
-0.00425246
-0.00424131
-0.00425215
-0.00418141
-0.00419254
-0.00424135
-0.00418174
-0.00425243
-0.00424131
-0.00427836
-0.00435072
-0.00427834
-0.00435064
-0.00427837
-0.00435075
-0.00427837
-0.00435064
-0.00427933
-0.00429016
-0.00435003
-0.00433894
-0.00427903
-0.00429014
-0.00434967
-0.00427933
-0.00429017
-0.00435004
-0.00433893
-0.00427905
-0.00429015
-0.00434969
-0.00418077
-0.00418057
-0.00425334
-0.00425295
-0.00425337
-0.00418052
-0.00425332
-0.00435075
-0.00427834
-0.00427819
-0.00435067
-0.00435074
-0.00427844
-0.00427822
-0.00435078
-0.00427815
-0.00425255
-0.00418111
-0.0041925
-0.00424132
-0.00418121
-0.00425265
-0.00424127
-0.00425345
-0.00418048
-0.00418035
-0.00425331
-0.00425255
-0.00419251
-0.00418108
-0.00424129
-0.00418122
-0.0042413
-0.00425267
-0.0042779
-0.00435083
-0.00427811
-0.00435097
-0.00427879
-0.00429012
-0.00435023
-0.00433889
-0.00427873
-0.0042901
-0.0043501
-0.00427792
-0.00435083
-0.00427814
-0.00435096
-0.00427879
-0.00429012
-0.0043389
-0.00435026
-0.00429013
-0.00427874
-0.0043501
-0.00425347
-0.0041805
-0.00418035
-0.00425333
-0.00425259
-0.0041925
-0.00418111
-0.00424128
-0.0041812
-0.00424127
-0.00425272
-0.0042535
-0.0041805
-0.00418035
-0.00425332
-0.00427882
-0.00429009
-0.00435024
-0.00433885
-0.00427876
-0.00429005
-0.00435012
-0.00427793
-0.00435084
-0.00427812
-0.00435098
-0.00427882
-0.00429012
-0.00433889
-0.00435023
-0.0042901
-0.00427874
-0.00435011
-0.00427794
-0.00435082
-0.00427814
-0.00435097
-0.00418054
-0.0041807
-0.00425331
-0.00425319
-0.00425307
-0.00418064
-0.00425317
-0.0043508
-0.00427815
-0.00427817
-0.00435075
-0.00435062
-0.00427822
-0.00427839
-0.00435071
-0.00427831
-0.0042521
-0.00419245
-0.00418138
-0.00424134
-0.00418173
-0.00424126
-0.00425247
-0.00425312
-0.00418067
-0.00418081
-0.00425317
-0.00425312
-0.00418069
-0.0041808
-0.00425317
-0.00427932
-0.00429014
-0.00433888
-0.00435002
-0.00429008
-0.00427905
-0.00434967
-0.00427932
-0.00429019
-0.0043389
-0.00435
-0.00429012
-0.00427903
-0.00434965
-0.00427837
-0.00435071
-0.00427835
-0.0043506
-0.00427838
-0.0043507
-0.00427832
-0.00435061
-0.00418053
-0.00425328
-0.00418066
-0.00425318
-0.0042782
-0.00435073
-0.00435061
-0.0042782
-0.00427836
-0.00435078
-0.00427816
-0.00435069
-0.00427828
-0.0043758
-0.0044482
-0.00437563
-0.00444826
-0.00437586
-0.00437569
-0.00444833
-0.00444811
-0.00444818
-0.00454564
-0.0044733
-0.00454574
-0.00447313
-0.00447318
-0.00454557
-0.00454571
-0.00447338
-0.00447321
-0.00444811
-0.00437585
-0.00437594
-0.00444819
-0.00444716
-0.00437651
-0.00438761
-0.00443635
-0.00437685
-0.00444749
-0.00443634
-0.00444714
-0.00437652
-0.00438758
-0.00443635
-0.00437685
-0.00444749
-0.00443633
-0.00447335
-0.00454563
-0.00447333
-0.00454559
-0.00447336
-0.00454568
-0.00447333
-0.00454559
-0.00447432
-0.00448516
-0.00454496
-0.00453391
-0.00447402
-0.00448515
-0.00454464
-0.00447431
-0.00448517
-0.00454501
-0.0045339
-0.00447405
-0.00448516
-0.00454461
-0.00437589
-0.00437568
-0.00444833
-0.00444811
-0.00444824
-0.00437563
-0.00444829
-0.00454568
-0.0044733
-0.00447318
-0.00454562
-0.00454571
-0.00447337
-0.00447324
-0.00454577
-0.00447316
-0.00444758
-0.00437624
-0.00438758
-0.00443636
-0.00437632
-0.00444768
-0.0044363
-0.00444846
-0.00437561
-0.00437546
-0.00444831
-0.00444758
-0.00438756
-0.00437621
-0.00443633
-0.00437633
-0.00443631
-0.00444769
-0.0044729
-0.00454579
-0.0044731
-0.00454594
-0.0044738
-0.00448514
-0.0045452
-0.00453387
-0.00447375
-0.0044851
-0.00454505
-0.00447292
-0.0045458
-0.00447313
-0.00454592
-0.00447381
-0.00448514
-0.00453388
-0.00454519
-0.00448514
-0.00447374
-0.00454506
-0.00444849
-0.00437559
-0.00437547
-0.00444833
-0.00444761
-0.00438755
-0.00437621
-0.00443634
-0.00437632
-0.0044363
-0.00444771
-0.0044485
-0.0043756
-0.00437547
-0.0044483
-0.0044738
-0.00448512
-0.00454523
-0.00453384
-0.00447377
-0.00448508
-0.00454511
-0.00447294
-0.00454582
-0.00447313
-0.00454599
-0.00447381
-0.00448515
-0.00453388
-0.00454521
-0.00448513
-0.00447373
-0.00454513
-0.00447295
-0.00454581
-0.00447312
-0.00454597
-0.0043757
-0.00437583
-0.00444834
-0.00444821
-0.00444808
-0.00437578
-0.00444816
-0.00454575
-0.00447315
-0.00447318
-0.0045457
-0.00454557
-0.00447322
-0.00447338
-0.00454566
-0.00447327
-0.00444713
-0.00438759
-0.00437649
-0.00443639
-0.00437685
-0.00443633
-0.00444744
-0.00444811
-0.0043758
-0.0043759
-0.00444815
-0.00444811
-0.00437581
-0.0043759
-0.00444814
-0.00447432
-0.00448513
-0.00453388
-0.00454495
-0.00448511
-0.00447403
-0.00454462
-0.0044743
-0.00448519
-0.0045339
-0.00454495
-0.00448515
-0.00447401
-0.00454462
-0.00447334
-0.00454565
-0.0044733
-0.00454555
-0.00447335
-0.00454564
-0.00447331
-0.00454557
-0.00437563
-0.00444827
-0.00437577
-0.00444815
-0.0044732
-0.00454572
-0.00454556
-0.00447319
-0.00447333
-0.00454577
-0.00447314
-0.00454564
-0.00447326
-0.00457072
-0.00464312
-0.00457058
-0.00464321
-0.00457079
-0.00457065
-0.00464326
-0.00464303
-0.00464315
-0.00474068
-0.00466824
-0.00474077
-0.00466809
-0.00466812
-0.00474061
-0.00474073
-0.00466833
-0.00466817
-0.00464308
-0.00457077
-0.00457087
-0.00464314
-0.00464209
-0.00457143
-0.00458258
-0.00463133
-0.00457181
-0.00464243
-0.00463131
-0.00464212
-0.00457148
-0.00458256
-0.00463134
-0.00457179
-0.0046424
-0.00463131
-0.0046683
-0.00474069
-0.00466827
-0.00474065
-0.00466833
-0.00474075
-0.00466832
-0.00474064
-0.00466928
-0.00468014
-0.00474
-0.00472896
-0.00466897
-0.00468015
-0.00473967
-0.0046693
-0.0046802
-0.00474006
-0.00472897
-0.00466903
-0.00468018
-0.00473967
-0.00457084
-0.00457066
-0.00464333
-0.00464291
-0.0046434
-0.00457063
-0.00464333
-0.00474075
-0.00466829
-0.0046682
-0.00474068
-0.00474079
-0.00466839
-0.00466823
-0.00474085
-0.00466816
-0.00464252
-0.00457118
-0.00458253
-0.00463131
-0.00457127
-0.00464263
-0.00463125
-0.00464343
-0.00457057
-0.00457041
-0.00464325
-0.00464255
-0.00458253
-0.00457115
-0.00463129
-0.00457128
-0.00463126
-0.00464267
-0.00466787
-0.00474081
-0.00466807
-0.00474096
-0.00466874
-0.00468011
-0.00474022
-0.00472888
-0.00466869
-0.00468007
-0.00474006
-0.00466788
-0.00474082
-0.00466807
-0.00474097
-0.00466876
-0.00468011
-0.0047289
-0.00474023
-0.0046801
-0.00466872
-0.00474008
-0.0046435
-0.0045706
-0.00457048
-0.00464335
-0.0046426
-0.00458256
-0.00457118
-0.00463133
-0.00457134
-0.00463133
-0.00464274
-0.0046435
-0.00457058
-0.00457047
-0.00464331
-0.00466882
-0.00468016
-0.00474031
-0.00472897
-0.00466876
-0.00468015
-0.00474017
-0.00466796
-0.0047409
-0.00466814
-0.00474106
-0.00466883
-0.00468017
-0.00472898
-0.0047403
-0.00468018
-0.00466876
-0.00474017
-0.00466797
-0.00474091
-0.00466815
-0.00474104
-0.00457065
-0.00457081
-0.00464327
-0.00464317
-0.00464305
-0.00457074
-0.00464314
-0.00474078
-0.0046681
-0.00466813
-0.00474073
-0.00474061
-0.00466818
-0.00466835
-0.00474068
-0.00466826
-0.00464209
-0.00458256
-0.00457146
-0.00463136
-0.00457182
-0.00463131
-0.00464241
-0.00464308
-0.00457077
-0.00457086
-0.00464313
-0.00464307
-0.00457075
-0.00457088
-0.00464313
-0.0046693
-0.00468012
-0.00472892
-0.00473999
-0.0046801
-0.004669
-0.00473965
-0.00466931
-0.00468022
-0.00472896
-0.00474002
-0.00468016
-0.00466898
-0.00473966
-0.00466833
-0.00474069
-0.0046683
-0.00474061
-0.00466831
-0.0047407
-0.00466828
-0.00474061
-0.00457062
-0.00464329
-0.00457072
-0.00464314
-0.00466817
-0.00474078
-0.00474062
-0.00466823
-0.00466833
-0.00474085
-0.00466817
-0.00474069
-0.00466825
-0.0047658
-0.00483836
-0.00476565
-0.00483845
-0.00476585
-0.00476571
-0.00483848
-0.00483826
-0.00483837
-0.00493618
-0.00486353
-0.0049363
-0.0048634
-0.00486343
-0.00493611
-0.00493624
-0.00486362
-0.00486346
-0.00483831
-0.00476589
-0.00476597
-0.00483838
-0.00483732
-0.00476649
-0.0047777
-0.00482654
-0.00476686
-0.00483766
-0.00482655
-0.00483734
-0.00476656
-0.0047777
-0.00482659
-0.00476688
-0.00483772
-0.00482656
-0.0048636
-0.00493618
-0.00486357
-0.00493611
-0.00486361
-0.00493618
-0.0048636
-0.00493608
-0.00486457
-0.00487546
-0.0049355
-0.0049244
-0.00486428
-0.00487548
-0.00493514
-0.00486458
-0.00487554
-0.00493551
-0.00492442
-0.00486432
-0.00487552
-0.00493514
-0.00476594
-0.00476576
-0.00483855
-0.00483833
-0.00483847
-0.00476574
-0.00483852
-0.00493619
-0.00486357
-0.00486347
-0.00493614
-0.00493625
-0.00486368
-0.00486356
-0.00493632
-0.00486348
-0.00483775
-0.00476623
-0.00477764
-0.00482651
-0.00476633
-0.00483787
-0.00482647
-0.00483865
-0.00476562
-0.0047655
-0.00483851
-0.00483777
-0.00477763
-0.00476621
-0.00482648
-0.00476634
-0.00482648
-0.0048379
-0.00486317
-0.00493634
-0.00486338
-0.00493649
-0.00486406
-0.00487545
-0.00493573
-0.00492437
-0.00486399
-0.00487541
-0.00493557
-0.00486318
-0.00493635
-0.0048634
-0.00493648
-0.00486407
-0.00487544
-0.00492439
-0.00493575
-0.00487546
-0.004864
-0.00493561
-0.00483875
-0.00476571
-0.00476558
-0.00483856
-0.0048379
-0.00477773
-0.00476629
-0.0048266
-0.00476644
-0.00482658
-0.00483796
-0.00483875
-0.00476571
-0.0047656
-0.00483856
-0.00486413
-0.00487551
-0.00493575
-0.0049244
-0.00486409
-0.00487547
-0.00493566
-0.00486327
-0.00493638