/*--------------------------------*- C++ -*----------------------------------*\
| =========                 |                                                 |
| \\      /  F ield         | OpenFOAM: The Open Source CFD Toolbox           |
|  \\    /   O peration     | Version:  2206                                  |
|   \\  /    A nd           | Website:  www.openfoam.com                      |
|    \\/     M anipulation  |                                                 |
\*---------------------------------------------------------------------------*/
FoamFile
{
    version     2.0;
    format      ascii;
    arch        "LSB;label=32;scalar=64";
    class       surfaceScalarField;
    location    "70";
    object      phi;
}
// * * * * * * * * * * * * * * * * * * * * * * * * * * * * * * * * * * * * * //

dimensions      [0 3 -1 0 0 0 0];

oriented        oriented;

internalField   nonuniform List<scalar> 
196491
(
-1.84196e-12
-2.1643e-12
-7.01645e-09
-2.28251e-12
-1.66529e-12
-3.00651e-12
-5.78158e-09
-3.91666e-12
-2.04017e-12
-1.40041e-08
-6.55008e-12
-2.14304e-08
-1.05344e-11
-1.14471e-12
-1.35977e-12
-1.02466e-08
4.42366e-12
1.33077e-11
4.77263e-14
-2.05399e-08
-1.95524e-08
4.01872e-15
-1.34482e-12
-1.24432e-08
-2.05472e-12
-1.88549e-12
-2.95134e-12
-5.77995e-09
-4.19032e-12
2.13082e-12
-2.02762e-12
-1.40046e-08
-6.77736e-12
-2.14228e-08
-1.22704e-12
-1.06056e-11
-1.27516e-12
-1.02433e-08
1.33795e-11
4.51989e-12
-2.05355e-08
-1.2686e-12
-1.24418e-08
-1.95443e-08
-2.11492e-12
-7.01795e-09
-1.19038e-12
4.30916e-14
-4.59764e-09
-6.06367e-13
1.22937e-13
-2.47321e-09
-2.99257e-13
1.15885e-13
-1.21575e-09
-1.36763e-13
8.08591e-14
-5.03164e-10
1.12716e-14
-1.19708e-10
-1.74558e-12
1.91385e-13
-2.29253e-13
-4.59749e-09
-8.90647e-13
7.98784e-14
-1.03925e-13
-2.47128e-09
-4.03694e-13
4.19234e-14
-3.56667e-14
-1.21411e-09
-1.47974e-13
2.64825e-14
-3.0179e-15
-5.02296e-10
1.04197e-15
-6.79412e-15
-1.19468e-10
-1.11101e-12
-2.45848e-09
-5.29925e-13
-1.32517e-09
-2.10639e-13
-6.51174e-10
-4.74899e-14
-2.69044e-10
-6.37628e-11
-1.10787e-12
1.29531e-13
-2.95992e-13
-2.45884e-09
-5.30082e-13
2.72947e-14
-1.38803e-13
-1.32539e-09
-2.13975e-13
8.06683e-16
-5.98533e-14
-6.51226e-10
-6.05093e-14
-4.05274e-15
-2.20377e-14
-2.69077e-10
-3.10724e-15
-5.75039e-15
-6.37637e-11
-1.14117e-12
-4.59882e-09
-5.41235e-13
-2.4739e-09
-2.19182e-13
-1.21614e-09
-6.06185e-14
-5.03403e-10
-1.19757e-10
-1.67453e-12
-3.52735e-13
-4.5966e-09
-8.16972e-13
-2.03894e-13
-2.47089e-09
-3.29065e-13
-1.09258e-13
-1.21385e-09
-8.58804e-14
-4.93151e-14
-5.02253e-10
-1.31104e-14
-1.19428e-10
-7.62072e-13
-1.53976e-13
-2.81141e-09
-3.70481e-13
-9.31654e-14
-1.51505e-09
-1.43647e-13
-5.86231e-14
-7.44833e-10
-2.6472e-14
-3.41074e-14
-3.08009e-10
-4.77559e-15
-7.31194e-11
-7.55587e-13
2.23288e-14
-3.07042e-09
-3.77759e-13
2.42142e-14
-1.65384e-09
-1.62394e-13
1.9668e-14
-8.13329e-10
-5.30073e-14
1.28676e-14
-3.36579e-10
1.39787e-15
-8.00213e-11
-7.05146e-13
-1.86202e-13
-2.81087e-09
-3.4588e-13
-1.03614e-13
-1.51475e-09
-1.47764e-13
-4.88375e-14
-7.44635e-10
-4.90067e-14
-1.64352e-14
-3.07938e-10
-7.1173e-15
-7.31061e-11
-6.97753e-13
-3.07013e-09
-3.41827e-13
-1.65367e-09
-1.40679e-13
-8.13252e-10
-3.64359e-14
-3.36554e-10
-8.00117e-11
-2.84439e-11
-1.05833e-11
-4.86435e-12
-7.06103e-09
-4.00501e-12
-2.03279e-12
7.02477e-09
-2.2e-12
-7.01653e-09
4.07374e-11
3.39789e-11
2.70843e-08
3.82151e-11
3.8569e-11
-2.72358e-08
-5.42524e-11
1.91218e-11
-1.20361e-10
2.28361e-08
-2.2709e-08
-8.4894e-12
3.50082e-12
-2.14124e-11
2.24245e-08
-2.24021e-08
-8.07427e-11
-3.75195e-12
-1.40934e-08
-1.01789e-09
3.66468e-11
9.68961e-11
-1.45433e-11
5.18961e-10
3.38749e-10
1.15042e-10
4.37621e-10
-1.14483e-07
-7.00022e-11
-1.97797e-10
2.19906e-08
-2.18578e-08
-4.73565e-11
-1.11586e-13
4.53678e-12
1.33063e-11
2.05696e-08
-2.054e-08
-1.1203e-11
-4.02011e-12
1.40197e-08
-2.07503e-12
-1.40045e-08
-2.47568e-15
1.05506e-11
-9.03407e-11
2.43645e-08
-2.43321e-08
-1.76315e-10
9.50438e-11
3.90189e-11
3.0576e-11
-3.13146e-11
-5.61813e-11
5.4573e-11
-5.50026e-11
5.56193e-11
-1.12462e-07
-1.48589e-11
-2.67787e-11
2.17502e-08
-2.17283e-08
-3.5436e-11
8.832e-11
-9.40577e-11
1.26548e-10
9.29227e-11
-1.25766e-10
-1.15873e-07
-4.73978e-11
1.33836e-11
4.43141e-12
2.05652e-08
-2.05358e-08
-1.12648e-11
2.29479e-12
-4.46124e-12
1.40203e-08
-2.09074e-12
-1.40048e-08
-9.05145e-11
1.02594e-11
2.43609e-08
-2.43281e-08
2.87274e-12
-8.57406e-11
-3.65862e-11
5.47164e-11
3.71039e-11
-5.56821e-11
8.67041e-11
9.27478e-12
-9.92233e-12
-1.13639e-07
-1.92092e-11
-2.62472e-12
-7.56878e-11
1.25995e-10
7.692e-11
-1.25284e-10
-1.169e-07
8.95327e-12
-1.4884e-11
-2.66157e-11
2.17352e-08
-2.17139e-08
-3.91252e-12
7.02646e-09
-2.28656e-12
-7.01797e-09
2.72738e-08
8.92992e-11
-2.73304e-08
-1.32401e-10
1.3959e-11
-2.15678e-11
2.24789e-08
-2.24556e-08
3.38879e-12
3.77728e-12
1.96971e-12
2.52015e-12
-1.59822e-08
-3.61721e-12
-2.60303e-12
1.10911e-11
1.3676e-11
-3.22841e-12
5.84556e-09
2.49555e-13
-3.34772e-12
-5.83923e-09
-3.10463e-12
5.81687e-09
-1.42229e-12
-2.34554e-12
-5.81e-09
-1.15087e-11
-1.36302e-11
-1.59634e-08
1.57969e-13
2.44838e-12
1.52503e-12
2.69421e-12
-2.0522e-08
-5.94175e-12
1.74391e-11
1.64719e-11
-3.95951e-11
1.36422e-08
-2.61427e-12
-1.35806e-08
4.76139e-11
2.42661e-08
-1.46988e-10
-1.43039e-10
-2.41441e-08
-2.16974e-13
-3.80989e-11
-4.91798e-11
-1.68631e-11
-2.05086e-08
2.20578e-12
3.10072e-11
-1.33934e-11
-1.94894e-08
-7.65602e-12
2.32576e-11
1.43904e-11
-8.02582e-12
1.32952e-08
-2.01388e-12
-1.32832e-08
2.31733e-11
2.32384e-08
-3.80448e-11
-3.33298e-11
-2.32116e-08
-3.67772e-12
2.11371e-11
8.31605e-12
-1.49717e-11
-1.94729e-08
2.07566e-12
3.76572e-11
3.30017e-11
-1.02579e-08
1.0949e-11
1.12229e-12
-1.83998e-12
1.09113e-12
1.04948e-11
1.95783e-08
6.6909e-12
-3.84518e-11
-1.95525e-08
1.27309e-12
1.24569e-08
-3.88928e-14
-1.41208e-12
-1.24434e-08
-4.47119e-12
-1.36936e-11
-2.6657e-14
4.78721e-11
1.78402e-12
-1.45936e-12
-1.02465e-08
-6.70859e-12
3.90831e-11
-1.16983e-14
1.04714e-12
-5.78848e-09
2.13982e-12
2.8983e-12
2.08911e-12
2.14557e-08
-2.47403e-11
-2.14304e-08
4.05145e-12
1.15168e-11
2.03814e-12
-3.12535e-12
-5.78148e-09
2.48612e-11
-1.02547e-08
1.03474e-12
1.08792e-11
-1.65285e-12
1.12865e-12
1.18629e-12
1.24554e-08
-1.42299e-12
-1.24419e-08
1.08441e-11
1.95705e-08
6.8746e-12
-3.91264e-11
-1.95447e-08
-1.36415e-11
-4.388e-12
4.77725e-11
1.99791e-12
-1.27933e-12
-1.02434e-08
1.06887e-12
-6.5033e-12
3.91879e-11
-5.78693e-09
2.38123e-12
2.94222e-12
2.10749e-12
2.14487e-08
-2.50076e-11
-2.14234e-08
3.49393e-12
-1.82518e-12
1.20912e-11
1.89017e-12
-2.92046e-12
-5.77991e-09
2.52677e-11
4.3312e-12
2.3516e-12
-2.77771e-12
-2.91784e-12
1.23995e-11
1.19208e-11
-1.59902e-08
1.22367e-12
2.71355e-12
-5.81836e-09
-2.83392e-13
3.1207e-12
-5.84818e-09
1.65422e-11
-8.03466e-12
2.07878e-11
-1.94892e-08
2.36143e-08
-3.16181e-11
-4.56072e-11
-2.35753e-08
1.66716e-11
2.18868e-11
-2.88965e-12
8.45845e-12
3.08989e-11
4.57595e-11
2.04202e-12
-1.32843e-08
-5.00328e-12
3.11809e-11
5.72626e-12
-2.05383e-08
-2.06354e-12
9.97459e-12
-1.3791e-12
-2.28583e-08
9.48551e-12
2.51289e-12
-1.36626e-08
-3.8041e-12
-2.38797e-08
6.70568e-11
3.33448e-12
-7.1651e-09
3.07451e-13
2.45509e-10
-4.81877e-10
-1.19346e-07
-3.39736e-10
4.42201e-10
-1.27731e-07
3.94908e-10
-4.14335e-11
-1.22741e-07
3.79741e-10
-7.10334e-12
-1.33227e-07
-3.87833e-10
1.08084e-11
-1.19184e-07
2.80774e-12
-1.27811e-07
-1.5576e-11
-8.54669e-12
-1.21858e-07
-2.6343e-12
-1.32505e-07
-1.08213e-12
-1.25693e-07
-1.56372e-11
3.81931e-10
-1.33491e-07
1.33286e-11
-1.07795e-11
-1.25663e-07
-1.68029e-11
-1.32626e-07
-2.40775e-11
-2.32686e-08
1.59693e-11
2.32537e-11
-3.83971e-11
-3.71439e-11
1.652e-11
2.60412e-08
-2.60696e-08
2.3315e-11
2.47959e-08
-2.47882e-08
-2.32606e-08
1.13446e-10
-2.62252e-08
4.17463e-10
-3.00409e-10
2.37868e-08
-2.36332e-08
2.52965e-08
-1.65089e-10
-2.51335e-08
-2.13376e-10
-8.89013e-11
-2.61153e-08
-2.58295e-08
-7.04264e-11
1.74253e-11
2.62038e-11
-6.98811e-11
2.37157e-08
1.40885e-11
-2.36878e-08
1.86717e-11
2.66386e-08
6.92857e-12
-2.6628e-08
-9.88799e-12
9.03732e-11
-3.60283e-14
-2.1352e-11
-2.57665e-08
-1.36075e-11
-6.93574e-12
-3.68838e-11
-2.59449e-08
-4.6104e-11
-4.66462e-11
2.35105e-08
-2.34894e-08
2.49529e-08
-3.82318e-11
-2.49202e-08
2.69858e-11
1.39444e-11
-2.59955e-08
-2.58283e-08
2.07979e-11
-6.91989e-11
-2.84467e-11
2.13337e-11
2.66364e-08
-2.66153e-08
-7.00161e-11
2.37061e-08
1.70052e-11
-2.3682e-08
8.99631e-11
-9.93207e-12
2.90341e-11
-2.58291e-08
-1.61898e-11
-2.59154e-08
-4.59456e-11
-4.00324e-11
-4.60707e-11
2.34971e-08
-2.34739e-08
-4.09778e-11
2.49581e-08
-2.49207e-08
1.3762e-11
2.7899e-11
-2.59364e-08
-1.54457e-11
5.76881e-11
-2.32687e-08
-8.6179e-11
-1.26905e-11
1.22341e-10
2.59606e-08
-2.58921e-08
-1.55637e-11
1.90597e-10
-2.5085e-08
-2.38168e-12
1.12478e-13
-1.3077e-13
-4.59893e-09
-1.03919e-12
7.82925e-14
-6.29168e-14
-2.4742e-09
-3.55505e-13
3.19494e-14
-4.6735e-14
-1.21629e-09
-4.05121e-14
3.31338e-15
-3.76692e-14
-5.03488e-10
8.75122e-15
1.02379e-15
-1.19754e-10
-1.27299e-12
-7.69539e-14
4.59654e-09
1.10314e-13
-4.59748e-09
-6.5508e-13
2.87175e-14
2.47256e-09
6.8095e-14
-2.4732e-09
-3.25786e-13
5.14113e-14
1.21547e-09
5.1991e-14
-1.21579e-09
-1.59865e-13
4.3155e-14
5.0309e-10
3.8827e-14
-5.0321e-10
7.2673e-15
1.19632e-10
2.8767e-15
-1.19709e-10
-1.8604e-12
-2.45898e-09
-8.58483e-13
-1.32547e-09
-3.36677e-13
-6.51291e-10
-9.08738e-14
-2.69084e-10
-6.37717e-11
-1.1861e-12
2.45766e-09
-2.5285e-13
-2.4584e-09
-5.78671e-13
1.32464e-09
-1.15728e-13
-1.32516e-09
-2.19479e-13
6.50864e-10
-5.32128e-14
-6.51184e-10
-3.82081e-14
2.68875e-10
-2.53247e-14
-2.69051e-10
6.37092e-11
-2.71267e-15
-6.37663e-11
-1.19969e-12
2.16907e-13
2.45805e-09
-3.74278e-13
-2.45879e-09
-5.88345e-13
9.0974e-14
1.32493e-09
-1.96431e-13
-1.32544e-09
-2.35306e-13
3.9184e-14
6.50981e-10
-9.50823e-14
-6.51283e-10
-6.27387e-14
1.40858e-14
2.68961e-10
-3.92598e-14
-2.69114e-10
1.3223e-15
6.37129e-11
-1.00868e-14
-6.37707e-11
-1.33492e-12
4.5977e-09
-4.59867e-09
2.27181e-13
-6.63765e-13
2.47319e-09
-2.47391e-09
1.38344e-13
-2.70504e-13
1.21575e-09
-1.21619e-09
7.58836e-14
-7.1143e-14
5.0322e-10
-5.03441e-10
3.43191e-14
1.1968e-10
-1.19763e-10
1.00739e-14
1.33016e-12
1.47513e-13
-2.54726e-13
6.45464e-13
5.29638e-14
-2.11182e-13
2.89424e-13
1.02634e-14
-1.58362e-13
1.28284e-13
-9.79969e-15
-9.83021e-14
3.96893e-15
-1.66815e-14
5.71176e-13
-2.81073e-09
1.82486e-13
-3.27979e-13
2.67702e-13
-1.51465e-09
1.25926e-13
-1.97404e-13
1.03959e-13
-7.44604e-10
7.96639e-14
-1.07262e-13
2.35739e-14
-3.07891e-10
4.28207e-14
-4.69246e-14
-7.3075e-11
8.77671e-15
-1.50122e-14
-8.50152e-13
1.94287e-13
3.06976e-09
-9.25663e-16
-3.07052e-09
-4.36423e-13
1.14726e-13
1.65347e-09
5.06368e-15
-1.65399e-09
-1.87918e-13
6.42328e-14
8.13144e-10
7.16146e-15
-8.13451e-10
-6.25313e-14
3.1345e-14
3.36499e-10
6.53593e-15
-3.36647e-10
6.95078e-15
7.99775e-11
2.97408e-16
-8.00357e-11
-8.80354e-13
3.10078e-13
-2.81144e-09
-4.45418e-13
1.66022e-13
-1.51516e-09
-1.78849e-13
7.9101e-14
-7.44917e-10
-4.29528e-14
2.9335e-14
-3.08052e-10
1.04348e-14
-7.31311e-11
5.36195e-13
4.97103e-15
2.53423e-13
2.7303e-15
1.07761e-13
-1.92089e-15
4.18296e-14
-4.18418e-15
9.54817e-16
1.10503e-12
3.2484e-13
5.35888e-13
2.00816e-13
2.19988e-13
1.22281e-13
5.31311e-14
6.63615e-14
1.17211e-14
6.04872e-13
-2.81026e-09
1.36835e-13
-2.38765e-13
2.93082e-13
-1.5144e-09
8.35828e-14
-1.41306e-13
1.2673e-13
-7.44451e-10
4.61055e-14
-8.23147e-14
4.68268e-14
-3.07854e-10
2.08397e-14
-4.16548e-14
-7.30639e-11
6.09538e-15
-1.02759e-14
-8.58031e-13
1.74426e-13
3.06946e-09
-3.07021e-09
-4.38219e-13
1.00581e-13
1.65328e-09
-1.65381e-09
-1.76489e-13
4.90995e-14
8.13037e-10
-8.13361e-10
-4.10741e-14
1.74922e-14
3.36447e-10
-3.36612e-10
6.68755e-15
7.99675e-11
-8.00254e-11
-7.52588e-13
3.89041e-13
-2.811e-09
-3.72911e-13
2.34327e-13
-1.51491e-09
-1.52123e-13
1.29693e-13
-7.44748e-10
-4.77631e-14
6.06625e-14
-3.07998e-10
1.5021e-14
-7.31195e-11
5.54412e-13
2.67712e-13
1.15125e-13
3.71572e-14
9.90651e-13
-3.6608e-14
1.37332e-13
4.61555e-13
1.07621e-14
5.40075e-14
1.85334e-13
9.11829e-15
1.94558e-14
5.85665e-14
3.75604e-15
5.3338e-15
2.3115e-15
2.6274e-15
1.24722e-12
-6.98015e-14
5.86885e-13
-4.9596e-14
2.37174e-13
-3.36043e-14
6.93432e-14
-1.72343e-14
-6.71281e-15
1.32534e-12
-1.47035e-13
3.13461e-13
-2.44124e-09
6.35695e-13
-8.65008e-14
1.68091e-13
-1.31542e-09
2.52902e-13
-4.42763e-14
8.94878e-14
-6.46319e-10
6.85981e-14
-1.85438e-14
4.09592e-14
-2.67014e-10
-4.19087e-15
1.09155e-14
-6.32915e-11
1.84769e-12
-4.59561e-09
-1.23472e-13
8.97903e-13
-2.47195e-09
-1.21456e-13
3.69949e-13
-1.21516e-09
-8.02312e-14
1.07055e-13
-5.02941e-10
-4.16738e-14
-1.19624e-10
-1.18082e-14
-1.77751e-12
1.87293e-13
-8.29834e-14
4.39043e-09
-4.39216e-09
-7.84328e-13
2.7666e-14
-3.03593e-14
2.36191e-09
-2.36302e-09
-2.27928e-13
-2.57656e-14
-2.56718e-14
1.16053e-09
-1.16119e-09
2.94917e-14
-3.42645e-14
-2.61117e-14
4.80097e-10
-4.80468e-10
-8.55371e-16
2.20088e-15
1.1411e-10
-1.14208e-10
-1.30152e-12
2.44125e-09
-2.44244e-09
-6.1229e-13
1.31561e-09
-1.31624e-09
-2.58351e-13
6.46364e-10
-6.46665e-10
-9.85268e-14
2.67103e-10
-2.67225e-10
6.32891e-11
-6.3351e-11
1.28601e-12
4.26873e-13
6.72328e-13
2.3198e-13
3.05994e-13
9.941e-14
1.14491e-13
2.26733e-14
1.92119e-14
-1.41216e-12
1.13911e-13
4.39104e-09
-4.39212e-09
-7.32687e-13
9.37771e-14
2.36197e-09
-2.36265e-09
-3.61158e-13
8.18306e-14
1.16076e-09
-1.16108e-09
-1.73758e-13
5.87139e-14
4.80246e-10
-4.80355e-10
7.53034e-15
1.14098e-10
-1.14179e-10
-1.10571e-12
2.44057e-09
-2.44132e-09
-5.37468e-13
1.31505e-09
-1.31556e-09
-1.97784e-13
6.46142e-10
-6.46473e-10
-2.1766e-14
2.66946e-10
-2.6714e-10
6.32617e-11
-6.33169e-11
1.06716e-12
-6.83313e-14
5.04887e-13
-6.15622e-14
1.85279e-13
-1.807e-14
2.44406e-14
1.19148e-14
-9.67588e-15
1.50955e-12
3.81654e-13
7.60901e-13
2.93398e-13
3.05441e-13
1.98263e-13
6.28033e-14
1.11787e-13
2.03588e-14
1.50652e-12
7.16779e-13
2.75627e-13
8.44111e-14
1.59327e-12
-4.59626e-09
7.5819e-13
-2.47053e-09
3.04496e-13
-1.21374e-09
9.54993e-14
-5.02142e-10
-1.19384e-10
-1.85441e-12
-4.59745e-09
-9.19984e-13
-2.47137e-09
-3.71436e-13
-1.21421e-09
-1.08368e-13
-5.02364e-10
-1.19481e-10
1.6475e-12
-4.59541e-09
8.00831e-13
-2.47013e-09
3.25633e-13
-1.21343e-09
8.91749e-14
-5.02052e-10
-1.19346e-10
-1.7576e-12
-4.59657e-09
-8.90265e-13
-2.47097e-09
-3.6543e-13
-1.21393e-09
-9.48481e-14
-5.02308e-10
-1.19439e-10
1.06498e-12
3.01644e-14
-2.44117e-09
5.10039e-13
-1.69804e-14
-1.31547e-09
2.08279e-13
-2.19127e-14
-6.46366e-10
6.357e-14
-1.44316e-14
-2.67049e-10
-3.44298e-15
-6.32884e-11
1.56035e-12
-1.70904e-13
-4.39226e-09
7.56459e-13
-1.08679e-13
-2.3627e-09
3.04954e-13
-6.18255e-14
-1.161e-09
8.42435e-14
-2.81397e-14
-4.80263e-10
-8.67168e-15
-1.14134e-10
1.79234e-12
-4.39196e-09
8.74823e-13
-2.36256e-09
3.55446e-13
-1.16094e-09
1.00306e-13
-4.80217e-10
-1.14138e-10
3.03022e-10
2.78351e-10
1.1302e-07
1.91548e-10
2.59188e-10
1.30683e-10
2.12378e-11
2.23566e-10
6.13739e-11
8.30074e-11
-1.13822e-07
-7.49607e-10
-1.37791e-11
5.55625e-11
7.88736e-12
2.71342e-08
-2.72942e-08
1.10364e-10
-2.6296e-11
-3.19865e-11
6.36587e-11
-1.65057e-11
1.18569e-07
-1.18558e-07
-4.13339e-11
3.05795e-11
-7.01643e-13
1.12641e-07
2.82615e-11
3.70251e-11
-3.33284e-11
-6.04192e-11
5.13299e-11
-5.95799e-11
5.31699e-11
-1.12646e-07
-1.13291e-07
6.97217e-12
5.24457e-10
-8.0931e-10
1.13567e-07
1.93856e-11
4.02011e-11
-2.11861e-11
-5.06188e-12
1.99817e-11
-2.02466e-11
-3.10188e-11
-2.7279e-08
8.69383e-11
3.56504e-13
4.49661e-11
2.70787e-11
2.71197e-08
-1.60299e-11
-1.4012e-11
-1.18589e-07
1.26262e-11
1.33014e-11
1.18593e-07
-1.12607e-07
-3.97177e-11
1.4985e-11
5.16357e-12
1.12595e-07
3.0079e-11
3.86466e-11
-2.85877e-11
-5.82259e-11
5.33528e-11
5.56146e-11
-5.99301e-11
-1.1362e-07
-4.50125e-11
1.61706e-11
5.79996e-12
1.13611e-07
1.73333e-11
4.33982e-11
-2.01467e-11
-3.39339e-12
2.38738e-11
2.09797e-13
-2.86153e-11
-2.72609e-08
2.93405e-11
4.58356e-11
4.56916e-11
3.11411e-11
2.71089e-08
-9.3039e-12
-7.93203e-12
-1.186e-07
7.04262e-12
8.48152e-12
1.18602e-07
-1.12569e-07
-3.88655e-11
8.75489e-12
2.59878e-12
1.12561e-07
3.08421e-11
3.93442e-11
-3.14308e-11
-5.75648e-11
5.42145e-11
5.63263e-11
-5.67437e-11
-1.13586e-07
-4.40984e-11
9.19352e-12
2.68382e-12
1.13581e-07
1.80988e-11
4.35757e-11
-1.98228e-11
-2.33486e-12
2.49204e-11
1.2566e-12
-2.76117e-11
-2.7256e-08
2.84602e-11
4.50839e-11
4.6229e-11
3.1789e-11
2.71044e-08
-5.78622e-12
-4.20221e-12
-1.18604e-07
3.66558e-12
5.27627e-12
1.18605e-07
-1.12542e-07
-3.84821e-11
5.16344e-12
1.12782e-12
1.12536e-07
3.12389e-11
3.96106e-11
-2.75012e-11
-5.73533e-11
5.42782e-11
5.65066e-11
-5.90293e-11
-1.13565e-07
-4.3737e-11
5.38629e-12
1.46743e-12
1.13561e-07
1.82914e-11
4.38672e-11
-1.97942e-11
-1.62117e-12
2.55061e-11
1.84655e-12
-2.71796e-11
-2.72531e-08
2.81391e-11
4.47733e-11
4.64445e-11
3.20841e-11
2.71017e-08
-3.43402e-12
-3.22413e-12
-1.18608e-07
2.25721e-12
2.84083e-12
1.1861e-07
-1.12527e-07
-3.8448e-11
2.62982e-12
1.74945e-13
1.12526e-07
3.12254e-11
3.9733e-11
-3.11491e-11
-5.71179e-11
5.44385e-11
5.66994e-11
-5.64468e-11
-1.1355e-07
-4.41064e-11
3.49435e-12
1.93707e-12
1.13548e-07
1.80076e-11
4.35541e-11
-2.01721e-11
-1.5354e-12
2.57783e-11
2.09148e-12
-2.67655e-11
-2.72509e-08
2.8342e-11
4.4569e-11
4.67016e-11
3.17435e-11
2.70995e-08
-2.93571e-12
-3.54999e-12
-1.18614e-07
2.82746e-12
2.11777e-12
1.18615e-07
-1.12522e-07
-3.865e-11
8.44415e-13
7.24395e-14
1.12521e-07
3.09073e-11
3.94804e-11
-2.77898e-11
-5.68063e-11
5.4798e-11
5.6893e-11
-5.83938e-11
-1.13541e-07
-4.43189e-11
2.54109e-12
2.81163e-12
1.1354e-07
1.76929e-11
4.32813e-11
-2.04287e-11
-1.48287e-12
2.57819e-11
2.10978e-12
-2.69554e-11
-2.72495e-08
2.84642e-11
4.43796e-11
4.6857e-11
3.16283e-11
2.70981e-08
-2.89024e-12
-2.67006e-12
-1.18618e-07
2.65564e-12
1.97368e-12
1.18619e-07
-1.1252e-07
-3.88317e-11
-1.27453e-13
5.71373e-13
1.1252e-07
3.04428e-11
3.94427e-11
-3.14169e-11
-5.64134e-11
5.49902e-11
5.70983e-11
-5.57671e-11
-1.13537e-07
-4.40399e-11
1.49685e-12
2.28374e-12
1.13537e-07
1.81256e-11
4.36775e-11
-1.98968e-11
-1.64978e-12
2.54242e-11
1.86605e-12
-2.71841e-11
-2.72487e-08
2.82993e-11
4.42012e-11
4.7007e-11
3.1609e-11
2.70976e-08
-3.51534e-12
-1.18469e-12
-1.18621e-07
1.71904e-12
2.32732e-12
1.18621e-07
-1.12519e-07
-3.90615e-11
-2.40526e-13
1.21903e-12
1.12519e-07
3.02323e-11
3.93243e-11
-2.7786e-11
-5.64773e-11
5.48243e-11
5.70961e-11
-5.84341e-11
-1.13536e-07
-4.37035e-11
1.69677e-12
9.01041e-13
1.13536e-07
1.84403e-11
4.41052e-11
-1.95247e-11
-1.80657e-12
2.51895e-11
1.62676e-12
-2.73566e-11
-2.72494e-08
2.83481e-11
4.43245e-11
4.68559e-11
3.16179e-11
2.70982e-08
-3.19862e-12
-2.00196e-13
-1.18622e-07
4.47748e-13
2.01054e-12
1.18623e-07
-1.12522e-07
-3.89068e-11
-2.47645e-13
6.66694e-13
1.12523e-07
3.04071e-11
3.94616e-11
-3.12188e-11
-5.66119e-11
5.46554e-11
5.68703e-11
-5.60375e-11
-1.13538e-07
-4.34473e-11
1.05235e-12
-4.163e-13
1.1354e-07
1.86898e-11
4.43525e-11
-1.93251e-11
-1.90873e-12
2.52557e-11
1.51358e-12
-2.73899e-11
-2.72495e-08
2.82966e-11
4.44719e-11
4.66703e-11
3.17222e-11
2.70983e-08
-3.03928e-12
8.34235e-13
-1.18625e-07
-5.65951e-13
1.91565e-12
1.18626e-07
-1.12524e-07
-3.87863e-11
-4.62875e-13
3.78398e-13
1.12523e-07
3.05416e-11
3.95624e-11
-2.73645e-11
-5.65906e-11
5.46282e-11
5.68807e-11
-5.82186e-11
-1.13542e-07
-4.34664e-11
1.37951e-12
-7.77833e-13
1.13543e-07
1.85685e-11
4.43877e-11
-1.93299e-11
-1.62939e-12
2.54125e-11
1.67166e-12
-2.70643e-11
-2.72496e-08
2.82791e-11
4.4578e-11
4.6663e-11
3.17244e-11
2.70984e-08
-2.70517e-12
9.40722e-13
-1.18627e-07
-8.57709e-13
1.84435e-12
1.18628e-07
-1.12525e-07
-3.87081e-11
-2.73045e-13
6.25259e-14
1.12525e-07
3.06542e-11
3.96369e-11
-3.11613e-11
-5.65257e-11
5.46592e-11
5.68911e-11
-5.60201e-11
-1.13544e-07
-4.3557e-11
1.0646e-12
-5.09238e-13
1.13545e-07
1.83979e-11
4.43025e-11
-1.96399e-11
-1.38502e-12
2.55281e-11
1.80439e-12
-2.68013e-11
-2.72492e-08
2.81962e-11
4.45595e-11
4.66151e-11
3.18014e-11
2.70981e-08
-2.16942e-12
6.8922e-13
-1.18629e-07
-7.69507e-13
1.48029e-12
1.1863e-07
-1.12526e-07
-3.85599e-11
-5.15471e-13
3.40582e-15
1.12526e-07
3.06816e-11
3.97543e-11
-2.74249e-11
-5.6659e-11
5.47257e-11
5.69341e-11
-5.82942e-11
-1.13545e-07
-4.36428e-11
1.01147e-12
-2.92934e-13
1.13546e-07
1.84291e-11
4.42071e-11
-1.9637e-11
-1.42241e-12
2.56867e-11
1.81348e-12
-2.67561e-11
-2.7249e-08
2.8202e-11
4.45166e-11
4.67264e-11
3.18219e-11
2.70977e-08
-1.81335e-12
9.60221e-13
-1.18631e-07
-9.22211e-13
1.40287e-12
1.18632e-07
-1.12528e-07
-3.84147e-11
-8.50909e-13
-4.41492e-13
1.12528e-07
3.10349e-11
3.97358e-11
-3.09096e-11
-5.66159e-11
5.4929e-11
5.69593e-11
-5.58131e-11
-1.13546e-07
-4.37041e-11
1.29397e-12
1.49994e-13
1.13547e-07
1.84138e-11
4.41657e-11
-1.97212e-11
-1.53223e-12
2.57007e-11
1.94623e-12
-2.69894e-11
-2.72487e-08
2.82284e-11
4.44343e-11
4.6768e-11
3.18848e-11
2.70973e-08
-1.4338e-12
1.21319e-12
-1.18632e-07
-1.02031e-12
1.07652e-12
1.18633e-07
-1.12528e-07
-3.82425e-11
-1.24911e-12
-7.04029e-13
1.12528e-07
3.10708e-11
3.96519e-11
-2.74623e-11
-5.64323e-11
5.48558e-11
5.71334e-11
-5.82396e-11
-1.13546e-07
-4.36276e-11
8.4898e-13
5.25067e-14
1.13546e-07
1.8441e-11
4.41244e-11
-1.97152e-11
-1.47771e-12
2.5825e-11
2.13454e-12
-2.68579e-11
-2.72482e-08
2.81879e-11
4.42865e-11
4.69359e-11
3.17924e-11
2.7097e-08
-1.17402e-12
1.07571e-12
-1.18634e-07
-3.70543e-12
3.46538e-12
1.18634e-07
-1.1253e-07
-3.78676e-11
-1.58218e-12
-1.71173e-12
1.12531e-07
3.13676e-11
3.94057e-11
-3.11763e-11
-5.63956e-11
5.50678e-11
5.73901e-11
-5.57686e-11
-1.13544e-07
-4.33857e-11
-5.77035e-13
-4.34878e-13
1.13545e-07
1.86408e-11
4.42105e-11
-1.96019e-11
-1.33816e-12
2.60192e-11
2.38833e-12
-2.67405e-11
-2.72478e-08
2.80014e-11
4.41687e-11
4.70623e-11
3.18985e-11
2.70967e-08
7.38972e-13
-1.19395e-07
-1.74527e-13
-8.36765e-13
-6.52228e-13
1.19396e-07
-1.13397e-07
-4.36466e-11
-1.64061e-12
-2.65768e-12
9.82362e-11
4.56034e-11
-9.69534e-11
-4.57378e-10
3.39486e-10
4.59332e-10
-3.39571e-10
-1.14095e-07
2.53732e-10
4.65118e-13
1.44213e-12
1.92331e-10
-2.51829e-10
-1.92396e-10
-1.11525e-10
2.43146e-10
1.13071e-10
-2.43576e-10
1.14091e-07
-2.74133e-08
-2.76049e-10
-2.53953e-10
3.17009e-10
2.59515e-10
2.73667e-08
3.119e-10
2.52426e-10
2.73956e-08
-2.74481e-08
-2.08801e-10
1.02461e-11
2.72712e-08
-2.71172e-08
-5.17375e-11
-3.12663e-11
-8.12574e-11
2.08278e-10
1.1323e-07
1.62725e-11
-1.90827e-11
-3.1979e-11
9.41982e-12
1.67488e-11
-2.9366e-11
-2.49464e-11
-1.13375e-07
-1.36144e-11
-1.13692e-07
2.19619e-10
-3.8044e-10
-2.63429e-11
-1.94397e-10
-3.32689e-10
-3.10251e-11
9.47508e-12
-2.41672e-10
1.38907e-09
-6.65984e-12
1.13276e-07
-1.13156e-07
-2.32779e-10
3.21743e-12
-2.6696e-11
2.1275e-11
-2.35069e-11
-3.08052e-11
1.42647e-11
1.02158e-11
1.50967e-10
-2.71236e-08
-5.20027e-11
-2.97717e-11
-8.03566e-11
3.90139e-11
4.20675e-11
3.62817e-11
3.5646e-11
2.71055e-08
-2.72585e-08
-3.47306e-11
-3.7987e-11
2.72492e-08
-2.70981e-08
-3.97559e-11
-3.85785e-11
1.68372e-11
1.14714e-07
1.11052e-11
3.25937e-11
-1.76315e-11
1.79825e-11
1.92835e-11
-2.97934e-11
-2.71113e-11
-1.14725e-07
-3.91995e-11
2.4915e-11
1.74517e-11
1.14761e-07
1.09802e-11
3.29744e-11
-1.84041e-11
1.88337e-11
1.95649e-11
-2.92679e-11
-2.72736e-11
-1.14772e-07
1.14683e-07
1.81436e-11
-1.14693e-07
7.92116e-12
-3.67732e-11
-1.63238e-11
1.26823e-11
-2.44808e-11
-2.78997e-11
2.19745e-11
2.00505e-11
3.44679e-11
1.14731e-07
1.77888e-11
-1.14741e-07
9.94298e-12
-3.74181e-11
-1.72692e-11
1.28914e-11
-2.4601e-11
-2.73753e-11
2.16193e-11
2.00918e-11
3.64353e-11
3.63372e-11
2.7105e-08
-2.72583e-08
-3.85423e-11
2.725e-08
-2.70982e-08
-3.91021e-11
-3.96372e-11
3.15391e-12
1.12652e-07
2.79415e-11
3.58301e-11
-3.37368e-11
-6.03239e-11
5.01815e-11
-5.93443e-11
5.27252e-11
-1.12658e-07
-9.44236e-11
-3.19817e-10
6.89925e-10
1.13829e-07
2.00422e-11
2.707e-11
-3.0903e-11
-4.13973e-11
5.0217e-11
-5.86167e-11
4.72398e-11
-1.14119e-07
1.12619e-07
1.68033e-11
-1.1263e-07
6.53467e-12
-3.99205e-11
-3.24123e-11
2.97292e-11
5.52597e-11
-5.74386e-11
5.27621e-11
-5.8365e-11
2.77232e-11
1.13672e-07
1.73039e-11
-1.13683e-07
8.79274e-12
-3.00221e-11
-2.96075e-11
2.62594e-11
3.51814e-11
-5.68609e-11
5.16462e-11
-3.88699e-11
-3.03698e-10
7.02208e-10
1.13841e-07
2.13214e-11
3.03211e-11
-2.98779e-11
-4.19997e-11
5.06035e-11
-5.94185e-11
4.77837e-11
-1.14172e-07
1.72366e-11
-1.12618e-07
5.6044e-12
-3.98411e-11
-3.22899e-11
3.00079e-11
5.51723e-11
-5.77924e-11
-5.8493e-11
5.30255e-11
2.81686e-11
1.13677e-07
1.96078e-11
-1.13691e-07
8.77185e-12
-2.96104e-11
-2.91598e-11
2.59954e-11
3.52448e-11
-5.74742e-11
5.20651e-11
-3.9499e-11
4.66146e-11
2.54062e-11
2.71118e-08
-4.33233e-11
2.72523e-08
-2.71025e-08
-4.63654e-11
-3.23081e-11
5.13429e-10
-8.36583e-10
1.13607e-07
1.80167e-11
3.59545e-11
-2.32189e-11
-5.58695e-12
1.94608e-11
-3.05934e-11
-2.10045e-11
1.86423e-11
-1.13631e-07
7.09544e-12
-4.52789e-11
-2.01749e-11
1.71533e-11
-6.5373e-13
-2.90909e-11
-3.75356e-12
2.34192e-11
4.30339e-11
1.13672e-07
1.78262e-11
-1.13681e-07
7.53321e-12
-4.60858e-11
-2.07694e-11
1.70343e-11
-5.31316e-13
-2.83497e-11
2.31324e-11
-3.43155e-12
-2.71106e-08
-4.7737e-11
-3.14119e-11
3.6428e-11
3.95672e-11
3.87654e-11
3.79442e-11
2.70965e-08
-3.53819e-11
-3.87042e-11
2.72445e-08
-2.70931e-08
-3.90694e-11
-3.82221e-11
6.84178e-12
1.14674e-07
1.30608e-11
3.4826e-11
-1.59993e-11
2.03775e-11
2.22073e-11
-2.41652e-11
-2.75328e-11
-3.72118e-11
1.6179e-11
8.74393e-12
1.14722e-07
1.3081e-11
3.47319e-11
-2.07986e-11
2.05712e-11
2.23996e-11
-2.41692e-11
-2.47726e-11
1.14651e-07
1.0572e-11
-1.14658e-07
4.29357e-12
-3.58179e-11
-1.55857e-11
1.34582e-11
-2.33144e-11
-2.6726e-11
2.31716e-11
2.10191e-11
3.50773e-11
1.14695e-07
1.15556e-11
-1.14703e-07
6.94967e-12
-3.65875e-11
-1.68906e-11
1.34902e-11
-2.33579e-11
-2.6577e-11
2.31434e-11
2.12183e-11
3.84034e-11
3.80569e-11
2.70966e-08
-3.92224e-11
2.72446e-08
-2.70927e-08
-3.84997e-11
-3.91254e-11
5.44094e-12
1.1261e-07
2.98542e-11
3.81288e-11
-3.23078e-11
-5.79829e-11
5.30961e-11
5.55822e-11
-5.71918e-11
-2.96533e-11
1.50463e-11
7.65415e-12
1.13661e-07
2.64766e-11
2.79257e-11
-2.93343e-11
-3.84777e-11
5.19314e-11
3.55371e-11
-5.64864e-11
1.12588e-07
9.08571e-12
-1.12594e-07
3.93969e-12
-3.89506e-11
-3.19158e-11
3.03242e-11
5.61486e-11
-5.66598e-11
5.3675e-11
-5.75966e-11
2.86227e-11
1.13635e-07
1.02719e-11
-1.13643e-07
4.97793e-12
-2.88393e-11
-2.89175e-11
2.70411e-11
3.59916e-11
-5.59472e-11
5.26147e-11
-3.80448e-11
1.66572e-11
7.69125e-12
1.13665e-07
2.63167e-11
2.83483e-11
-2.90203e-11
-3.91872e-11
5.22861e-11
-5.70686e-11
3.55288e-11
1.06527e-11
-1.12578e-07
2.96796e-12
-3.89849e-11
-3.15083e-11
3.07809e-11
5.63016e-11
-5.68334e-11
-5.76782e-11
5.3965e-11
2.89501e-11
1.13635e-07
1.1708e-11
-1.13644e-07
4.3135e-12
-2.86311e-11
-2.8404e-11
2.69183e-11
3.60428e-11
-5.66963e-11
5.29291e-11
-3.87694e-11
4.54771e-11
3.12585e-11
2.71009e-08
-4.36678e-11
2.72474e-08
-2.70976e-08
-4.59545e-11
-3.1576e-11
1.58748e-11
6.77508e-12
1.13662e-07
1.73229e-11
4.32755e-11
-2.06996e-11
-2.85868e-12
2.35662e-11
-2.80605e-11
-7.11282e-14
1.14273e-11
-1.13594e-07
3.26681e-12
-4.40602e-11
-1.99601e-11
1.81674e-11
1.09462e-12
-2.79285e-11
-2.51216e-12
2.46935e-11
4.37998e-11
1.13639e-07
1.06897e-11
-1.13645e-07
4.45266e-12
-4.51584e-11
-2.03484e-11
1.77161e-11
8.13278e-13
-2.73907e-11
2.42957e-11
-2.16203e-12
-2.71052e-08
-4.72127e-11
-3.07785e-11
3.56842e-11
3.87928e-11
3.93244e-11
3.84789e-11
2.70922e-08
-3.58023e-11
-3.92677e-11
2.72414e-08
-2.70902e-08
-3.81961e-11
-3.79515e-11
3.522e-12
1.14645e-07
1.35808e-11
3.55314e-11
-1.55325e-11
2.14095e-11
2.35211e-11
-2.30816e-11
-2.64577e-11
-3.64471e-11
9.96314e-12
6.38981e-12
1.14687e-07
1.34918e-11
3.53194e-11
-1.66396e-11
2.15803e-11
2.32951e-11
-2.30126e-11
-2.6295e-11
1.1463e-07
6.08403e-12
-1.14634e-07
2.09893e-12
-3.53933e-11
-1.52613e-11
1.38555e-11
-2.25596e-11
-2.61334e-11
2.39179e-11
2.18097e-11
3.54274e-11
1.14667e-07
7.15754e-12
-1.14673e-07
5.37261e-12
-3.62681e-11
-1.65649e-11
1.37128e-11
-2.26093e-11
-2.59824e-11
2.38359e-11
2.1719e-11
3.91255e-11
3.86737e-11
2.70915e-08
-3.97282e-11
2.72412e-08
-2.7089e-08
-3.80006e-11
-3.89824e-11
3.11184e-12
1.12581e-07
3.05122e-11
3.88655e-11
-3.16623e-11
-5.72522e-11
5.37386e-11
5.62304e-11
-5.6437e-11
-2.87574e-11
8.98907e-12
4.52074e-12
1.13628e-07
2.70466e-11
2.86963e-11
-2.88719e-11
-3.77324e-11
5.28004e-11
3.62608e-11
-5.57315e-11
1.12565e-07
4.48768e-12
-1.1257e-07
1.72103e-12
-3.83365e-11
-3.13768e-11
3.08576e-11
5.67475e-11
-5.61286e-11
5.42582e-11
-5.68281e-11
2.90307e-11
1.1361e-07
5.7236e-12
-1.13615e-07
2.7037e-12
-2.83851e-11
-2.85186e-11
2.74787e-11
3.6595e-11
-5.53197e-11
5.32515e-11
-3.75704e-11
1.03053e-11
3.42757e-12
1.13628e-07
2.71598e-11
2.9184e-11
-2.81891e-11
-3.8666e-11
5.28361e-11
-5.65506e-11
3.61222e-11
6.50943e-12
-1.12548e-07
1.18353e-12
-3.84224e-11
-3.10781e-11
3.12332e-11
5.65834e-11
-5.65844e-11
-5.73889e-11
5.43531e-11
2.93503e-11
1.13611e-07
7.28839e-12
-1.13616e-07
1.64266e-12
-2.81913e-11
-2.80551e-11
2.74093e-11
3.65664e-11
-5.62769e-11
5.31883e-11
-3.81818e-11
4.5842e-11
3.20328e-11
2.70967e-08
-4.40205e-11
2.72442e-08
-2.70944e-08
-4.56106e-11
-3.11491e-11
8.71732e-12
3.85729e-12
1.13633e-07
1.77277e-11
4.39071e-11
-2.02136e-11
-1.764e-12
2.45742e-11
-2.70302e-11
1.15207e-12
6.47856e-12
-1.1357e-07
1.66791e-12
-4.36637e-11
-1.97376e-11
1.84052e-11
1.77256e-12
-2.71544e-11
-1.91674e-12
2.54333e-11
4.40619e-11
1.13619e-07
5.65641e-12
-1.13623e-07
2.8626e-12
-4.48984e-11
-2.01178e-11
1.781e-11
1.52575e-12
-2.66893e-11
2.50978e-11
-1.49864e-12
-2.71023e-08
-4.69465e-11
-3.04296e-11
3.55318e-11
3.83805e-11
3.95069e-11
3.85016e-11
2.70895e-08
-3.54858e-11
-3.95832e-11
2.72389e-08
-2.70876e-08
-3.7801e-11
-3.83593e-11
2.18232e-12
1.14626e-07
1.36795e-11
3.56549e-11
-1.55121e-11
2.20941e-11
2.40038e-11
-2.25082e-11
-2.59309e-11
-3.61892e-11
6.40053e-12
4.92623e-12
1.14663e-07
1.3797e-11
3.55258e-11
-2.02484e-11
2.19252e-11
2.40691e-11
-2.26026e-11
-2.33898e-11
1.14617e-07
3.72502e-12
-1.1462e-07
2.23491e-12
-3.5702e-11
-1.56596e-11
1.34675e-11
-2.2253e-11