/*--------------------------------*- C++ -*----------------------------------*\
| =========                 |                                                 |
| \\      /  F ield         | OpenFOAM: The Open Source CFD Toolbox           |
|  \\    /   O peration     | Version:  2206                                  |
|   \\  /    A nd           | Website:  www.openfoam.com                      |
|    \\/     M anipulation  |                                                 |
\*---------------------------------------------------------------------------*/
FoamFile
{
    version     2.0;
    format      ascii;
    arch        "LSB;label=32;scalar=64";
    class       volVectorField;
    location    "70";
    object      U;
}
// * * * * * * * * * * * * * * * * * * * * * * * * * * * * * * * * * * * * * //

dimensions      [0 1 -1 0 0 0 0];

internalField   nonuniform List<vector> 
66701
(
(9.67963e-06 5.13574e-06 0.0646062)
(1.05288e-05 -1.05295e-06 0.0626127)
(3.23959e-05 1.51664e-06 0.0754035)
(3.67242e-05 1.26486e-06 0.0874709)
(9.4617e-06 -2.31574e-06 0.0690566)
(5.17853e-05 -4.81574e-07 0.101246)
(5.02679e-05 -1.11359e-06 0.0979459)
(8.82063e-06 -8.4806e-07 0.0715424)
(1.07862e-05 2.69194e-06 0.0626331)
(3.27409e-05 -4.95989e-07 0.0754296)
(3.71793e-05 -3.70151e-08 0.0874829)
(9.34109e-06 3.20153e-06 0.069072)
(5.09744e-05 8.15297e-07 0.101241)
(8.64082e-06 9.62515e-07 0.0715505)
(4.91546e-05 1.87478e-06 0.0979481)
(9.81334e-06 -3.76501e-06 0.0646272)
(3.22418e-06 3.05397e-06 0.0457228)
(1.40176e-06 2.21578e-06 0.0311651)
(6.01529e-07 1.52582e-06 0.0195365)
(4.17456e-07 9.42581e-07 0.0103606)
(-5.91177e-08 2.7629e-07 0.00316889)
(7.13119e-06 -1.62766e-06 0.0456771)
(3.95379e-06 -1.33639e-06 0.0311367)
(2.01386e-06 -9.92913e-07 0.0195198)
(1.00459e-06 -5.79702e-07 0.0103522)
(1.79768e-07 -2.47267e-07 0.0031664)
(6.98609e-06 1.53324e-06 0.0442152)
(3.06401e-06 1.78361e-06 0.0299226)
(1.08037e-06 1.53104e-06 0.0186255)
(5.91551e-08 1.02211e-06 0.00981108)
(2.9822e-08 2.78535e-07 0.00297863)
(7.60745e-06 5.56622e-09 0.0442351)
(3.67682e-06 -2.8479e-07 0.0299362)
(1.61988e-06 -2.95095e-07 0.0186339)
(5.5102e-07 -2.03729e-07 0.00981529)
(9.03661e-08 -7.96183e-08 0.00297975)
(3.92372e-06 -1.38956e-06 0.0457383)
(2.02533e-06 -6.08073e-07 0.0311751)
(9.62146e-07 -2.52428e-07 0.0195426)
(3.56264e-07 -6.83997e-08 0.0103639)
(8.99834e-08 -2.82402e-08 0.00316995)
(7.39455e-06 3.38657e-06 0.0456929)
(4.15254e-06 2.90878e-06 0.0311467)
(2.09006e-06 2.18774e-06 0.0195258)
(8.48887e-07 1.34542e-06 0.0103551)
(2.46077e-07 4.74448e-07 0.0031671)
(4.87224e-06 -2.07563e-06 0.0443256)
(2.55014e-06 -1.55415e-06 0.0301)
(1.15777e-06 -1.05922e-06 0.0187945)
(2.97441e-07 -6.03285e-07 0.00992856)
(1.44792e-07 -2.31324e-07 0.00302362)
(4.15823e-06 -5.65574e-07 0.0446159)
(2.14859e-06 -4.08312e-07 0.0303419)
(1.01644e-06 -3.2697e-07 0.0189788)
(4.21489e-07 -2.49983e-07 0.0100444)
(9.78847e-08 -4.5833e-08 0.00306542)
(4.74797e-06 3.06179e-06 0.0443378)
(2.52094e-06 2.46326e-06 0.0301083)
(1.24352e-06 1.73393e-06 0.0187998)
(5.40348e-07 9.71219e-07 0.00993147)
(1.55266e-07 3.89917e-07 0.00302449)
(3.92062e-06 9.57208e-07 0.0446214)
(1.9546e-06 8.07571e-07 0.030345)
(8.87718e-07 5.76453e-07 0.0189804)
(2.80068e-07 3.24009e-07 0.0100451)
(9.6843e-08 1.23524e-07 0.00306563)
(1.23844e-05 1.62014e-05 0.0646147)
(1.06098e-05 3.84857e-06 0.0646056)
(0.000194446 0.000194441 0.127848)
(2.68589e-05 1.17172e-05 0.0895727)
(1.19944e-05 1.91187e-05 0.0894379)
(7.59383e-06 3.72859e-05 0.0754414)
(3.37633e-06 4.84033e-06 0.132279)
(3.24504e-05 3.56143e-05 0.103888)
(5.17136e-05 -9.69308e-07 0.101245)
(3.31488e-05 7.71093e-07 0.0754048)
(5.34295e-05 -6.84306e-07 0.117722)
(-7.06134e-07 2.25442e-06 0.132128)
(3.55218e-05 2.5501e-05 0.103905)
(-1.36035e-06 -9.99779e-07 0.134696)
(5.18006e-05 2.09565e-07 0.10124)
(3.34236e-05 6.39777e-07 0.0754289)
(5.28377e-05 8.54797e-08 0.117718)
(7.37285e-07 -2.57727e-06 0.132122)
(-1.85399e-06 1.40497e-06 0.134704)
(3.67774e-05 -2.45683e-05 0.103901)
(1.13944e-05 -2.61841e-06 0.0646269)
(0.000192498 -0.000191598 0.127851)
(1.33236e-05 -1.80979e-05 0.089463)
(-1.16357e-05 -3.85803e-06 0.0644986)
(-1.691e-05 -1.02785e-05 0.0810584)
(1.59966e-05 3.01367e-06 0.0632664)
(4.27727e-06 1.02536e-05 0.0632378)
(1.56467e-05 1.19625e-05 0.0813147)
(-1.4141e-05 -9.8675e-07 0.063198)
(-6.54514e-06 -9.24927e-06 0.0631417)
(-2.10572e-05 -6.30914e-05 0.100184)
(1.73727e-05 1.15677e-05 0.074748)
(2.49824e-05 6.5235e-05 0.111995)
(-2.67724e-05 -1.09077e-05 0.0895736)
(1.97512e-05 6.22153e-05 0.100489)
(-1.53639e-05 -1.15454e-05 0.0746858)
(-2.08685e-05 -6.30724e-05 0.111749)
(-6.71421e-05 -1.1763e-05 0.0999498)
(1.29787e-05 9.11645e-06 0.0745503)
(6.94545e-05 1.42704e-05 0.11185)
(-1.25329e-05 -1.77744e-05 0.0891506)
(6.68018e-05 1.13237e-05 0.100325)
(-1.41677e-05 -9.07067e-06 0.0744062)
(-6.73312e-05 -1.40635e-05 0.111391)
(-8.3005e-06 2.38707e-06 0.0688642)
(5.04421e-05 -1.55905e-06 0.0979448)
(9.04826e-06 -1.26565e-06 0.0715423)
(-4.84677e-05 7.81775e-07 0.10074)
(1.00049e-05 -3.1643e-06 0.0690561)
(-4.66895e-05 1.70214e-06 0.0974806)
(-7.43653e-06 6.53499e-07 0.0713242)
(-1.06233e-05 2.56021e-06 0.0625098)
(3.76668e-05 9.54117e-07 0.0874696)
(-3.1786e-05 -1.47881e-06 0.0752265)
(1.09604e-05 -1.77947e-06 0.0626117)
(-3.71964e-05 1.17759e-07 0.0871647)
(-8.68952e-06 -1.7303e-06 0.0688785)
(8.64723e-06 6.74863e-07 0.071551)
(4.873e-05 1.99425e-06 0.0979475)
(-4.86695e-05 -6.69943e-07 0.100735)
(8.78011e-06 3.41169e-06 0.069072)
(-7.57737e-06 -5.98298e-07 0.0713329)
(-4.70167e-05 -9.63577e-07 0.0974821)
(-1.04278e-05 -9.74815e-07 0.0625296)
(3.74258e-05 4.3511e-07 0.0874835)
(-3.05308e-05 2.81248e-06 0.075249)
(1.04343e-05 3.25017e-06 0.0626334)
(-3.60646e-05 1.6785e-06 0.0871756)
(-1.05088e-05 4.61742e-06 0.0645196)
(-1.6195e-05 1.1772e-05 0.0810891)
(-5.81269e-06 1.02211e-05 0.0631627)
(-1.51458e-05 3.65765e-06 0.0632274)
(-6.53469e-05 1.29875e-05 0.0999533)
(6.90786e-05 -1.44683e-05 0.11187)
(-1.13715e-05 1.84699e-05 0.0891735)
(-6.68671e-05 1.54963e-05 0.111414)
(-1.30928e-05 9.96367e-06 0.0744158)
(-1.89598e-05 6.44321e-05 0.100207)
(-2.38373e-05 1.11752e-05 0.0896166)
(-1.61264e-05 1.29359e-05 0.0747274)
(-1.87554e-05 6.53979e-05 0.111717)
(-7.76684e-06 1.29482e-05 0.0647415)
(-2.52291e-06 1.85575e-06 0.137514)
(-1.89771e-06 1.41408e-06 0.139413)
(-1.59807e-06 1.51613e-06 0.13928)
(-2.5297e-06 1.49256e-06 0.141066)
(2.63185e-06 1.78904e-06 0.137514)
(6.72327e-07 1.37626e-06 0.13942)
(9.97083e-07 1.78008e-06 0.139279)
(1.23507e-06 1.28692e-06 0.141073)
(-2.19442e-06 -1.37841e-06 0.139303)
(-2.44022e-06 -1.36382e-06 0.141069)
(2.14954e-06 -1.16498e-06 0.139308)
(1.19184e-06 -1.87114e-06 0.14107)
(-6.93156e-05 -6.26648e-05 0.11388)
(-0.000200007 -0.000199327 0.12775)
(0.000198067 5.6849e-05 0.122129)
(5.96788e-05 0.000191545 0.122022)
(6.80091e-05 6.07477e-05 0.114188)
(-0.000195805 -5.5251e-05 0.121901)
(-5.97904e-05 -0.000192494 0.12172)
(-3.03444e-06 -0.000229078 0.12308)
(1.12693e-05 4.98219e-05 0.111596)
(1.68439e-05 0.000223249 0.118798)
(-3.37719e-05 -3.5694e-05 0.104078)
(-1.20683e-05 -0.000215471 0.118822)
(6.74304e-06 0.000227815 0.122852)
(-1.41265e-05 -5.05617e-05 0.111765)
(-0.000230717 -1.46038e-06 0.124782)
(5.41797e-05 1.19946e-06 0.115929)
(0.000228207 -1.13713e-06 0.126128)
(-5.05556e-05 -3.97782e-07 0.117174)
(0.000236159 -1.15557e-06 0.125151)
(-5.16501e-05 -2.08278e-06 0.115413)
(-0.000226833 6.22648e-07 0.125709)
(-0.000240114 -5.06454e-06 0.122679)
(4.79157e-05 7.59298e-06 0.111676)
(0.000229293 9.27972e-06 0.118821)
(-3.43473e-05 -2.81961e-05 0.10352)
(-0.000223742 -1.15929e-05 0.11842)
(0.000236819 2.26488e-06 0.123008)
(-4.61172e-05 -9.16688e-06 0.111218)
(-0.000233019 2.33261e-06 0.124771)
(0.000227194 1.80193e-06 0.126124)
(5.25416e-05 -9.06229e-07 0.11592)
(-5.13059e-05 8.33379e-07 0.117171)
(0.00023124 1.4183e-06 0.125138)
(-0.000226665 3.18849e-07 0.125706)
(-5.21174e-05 3.37568e-06 0.115404)
(-0.000235677 5.59063e-06 0.122652)
(4.78927e-05 -6.17664e-06 0.11166)
(0.000228825 -8.88558e-06 0.1188)
(-3.2358e-05 2.79516e-05 0.103514)
(0.000235663 -1.98034e-06 0.12298)
(-4.6068e-05 1.10778e-05 0.111201)
(-0.000219559 1.20834e-05 0.1184)
(-6.6542e-05 6.53074e-05 0.113878)
(-0.000199044 0.000201368 0.127732)
(6.0566e-05 -0.000194319 0.122056)
(-5.79913e-05 0.000192565 0.121758)
(-0.000189799 5.71858e-05 0.121829)
(7.10566e-06 7.62225e-06 0.045694)
(3.6223e-06 3.13499e-06 0.0311512)
(1.79355e-06 9.16819e-07 0.0195292)
(7.54691e-07 -1.4323e-07 0.0103572)
(2.32941e-07 3.78803e-08 0.00316775)
(4.07389e-06 1.88708e-06 0.0457208)
(2.13284e-06 1.21361e-06 0.0311637)
(1.05591e-06 7.87605e-07 0.0195357)
(6.75977e-07 5.44606e-07 0.0103603)
(1.63143e-08 1.35468e-07 0.0031686)
(5.50931e-06 1.25965e-05 0.0441858)
(3.6549e-06 5.51209e-06 0.0299102)
(2.11266e-06 2.00962e-06 0.0186196)
(1.04835e-06 5.90853e-07 0.00980829)
(3.39154e-07 1.0457e-08 0.00297758)
(7.71899e-06 6.32173e-07 0.0442153)
(3.78044e-06 9.6526e-07 0.029923)
(1.51457e-06 8.83965e-07 0.0186259)
(1.95273e-07 5.70241e-07 0.00981143)
(7.73413e-08 2.02086e-07 0.00297864)
(8.39509e-06 8.39431e-07 0.0442346)
(4.43752e-06 5.01407e-07 0.0299368)
(2.09846e-06 3.7487e-07 0.0186347)
(7.6785e-07 2.47133e-07 0.00981596)
(1.5159e-07 6.88358e-08 0.0029798)
(5.06779e-06 -4.86888e-07 0.0457374)
(2.98732e-06 1.7939e-07 0.031175)
(1.57165e-06 3.89674e-07 0.0195428)
(6.5197e-07 3.43278e-07 0.0103643)
(1.7829e-07 1.19237e-07 0.00316991)
(-5.13729e-06 -1.03722e-06 0.045691)
(-2.99403e-06 2.84736e-07 0.0311537)
(-1.81786e-06 7.45394e-07 0.0195315)
(-1.15575e-06 6.12284e-07 0.0103583)
(-2.19237e-07 2.57661e-07 0.00316821)
(-3.90845e-06 2.85925e-06 0.0442705)
(-2.0628e-06 2.58305e-06 0.0300774)
(-1.03576e-06 2.03093e-06 0.0187842)
(-4.06607e-07 1.30586e-06 0.00992404)
(-1.28972e-07 4.53618e-07 0.00302222)
(4.47963e-06 -9.30101e-07 0.0446175)
(2.51974e-06 -7.00841e-07 0.0303441)
(1.18905e-06 -4.95776e-07 0.0189806)
(4.84531e-07 -2.87989e-07 0.0100456)
(1.00304e-07 -1.03208e-07 0.00306566)
(5.4865e-06 -2.82983e-06 0.0443267)
(3.12811e-06 -2.22847e-06 0.0301018)
(1.48895e-06 -1.59614e-06 0.0187961)
(5.0426e-07 -9.41197e-07 0.00992965)
(1.55213e-07 -3.49889e-07 0.00302385)
(-3.06541e-06 9.39612e-07 0.0445522)
(-1.4786e-06 9.03842e-07 0.0303131)
(-7.06925e-07 7.29714e-07 0.0189644)
(-3.49386e-07 4.75378e-07 0.0100376)
(-5.66953e-08 1.56896e-07 0.00306338)
(-7.8335e-06 2.06528e-07 0.0441937)
(-3.96838e-06 4.49856e-07 0.029922)
(-1.93972e-06 4.92964e-07 0.0186282)
(-6.86376e-07 3.81547e-07 0.00981314)
(-2.06031e-07 1.51283e-07 0.00297917)
(-3.90898e-06 -2.14701e-06 0.044282)
(-2.08465e-06 -1.90026e-06 0.0300847)
(-1.06965e-06 -1.49802e-06 0.0187885)
(-5.39603e-07 -9.64305e-07 0.00992632)
(-1.06579e-07 -3.40223e-07 0.00302294)
(4.53301e-06 6.67701e-07 0.0446232)
(2.53388e-06 5.70381e-07 0.0303473)
(1.15336e-06 4.18782e-07 0.0189823)
(3.31688e-07 2.432e-07 0.0100463)
(1.07051e-07 9.51598e-08 0.00306588)
(4.86566e-06 3.18075e-06 0.0443402)
(2.76716e-06 2.5999e-06 0.0301109)
(1.34485e-06 1.88594e-06 0.0188018)
(5.68228e-07 1.10151e-06 0.00993278)
(1.33434e-07 4.06081e-07 0.00302478)
(-3.09892e-06 -6.60808e-07 0.0445581)
(-1.51775e-06 -5.71927e-07 0.0303167)
(-7.26925e-07 -4.57737e-07 0.0189666)
(-2.96821e-07 -3.16739e-07 0.0100387)
(-7.30108e-08 -8.19892e-08 0.00306368)
(-6.45471e-06 1.36304e-06 0.0442105)
(-2.89993e-06 1.05082e-06 0.0299327)
(-1.23554e-06 6.81252e-07 0.0186345)
(-4.45423e-07 3.74687e-07 0.00981611)
(-6.17877e-08 1.0067e-07 0.00297995)
(-4.02315e-06 2.33838e-06 0.0457079)
(-1.98226e-06 1.10491e-06 0.0311659)
(-9.50343e-07 4.11319e-07 0.0195396)
(-3.78118e-07 7.73577e-08 0.010363)
(-1.14725e-07 -6.20222e-09 0.00316963)
(-7.55493e-06 6.53514e-06 0.0444053)
(-4.13847e-06 2.92542e-06 0.0300598)
(-2.07626e-06 9.78454e-07 0.018715)
(-9.13052e-07 1.80853e-07 0.00986058)
(-2.41535e-07 -1.79322e-08 0.00299457)
(-5.07096e-06 5.18118e-06 0.0457159)
(-3.18891e-06 2.31391e-06 0.0311687)
(-1.89318e-06 8.18495e-07 0.0195405)
(-9.78443e-07 1.45766e-07 0.0103633)
(-3.01872e-07 -1.34248e-08 0.00316981)
(8.39351e-06 2.44904e-06 0.0455369)
(4.13424e-06 1.08114e-06 0.0310026)
(1.73414e-06 1.37684e-07 0.019411)
(3.41146e-07 -4.58231e-07 0.0102822)
(2.10073e-07 -3.09476e-09 0.00314076)
(6.78014e-06 7.57793e-06 0.0443883)
(2.77432e-06 3.80019e-06 0.030042)
(9.19116e-07 1.74577e-06 0.018703)
(3.45524e-07 9.03148e-07 0.00985446)
(-5.5195e-08 1.44526e-07 0.0029924)
(-8.13003e-06 -4.84461e-06 0.0443991)
(-5.32448e-06 -2.12289e-06 0.0300579)
(-3.15393e-06 -6.13784e-07 0.0187143)
(-1.68926e-06 -2.10696e-07 0.00986041)
(-4.49881e-07 1.75152e-07 0.00299437)
(1.99186e-06 5.82043e-06 0.0455475)
(6.05537e-07 3.78013e-06 0.0310086)
(-1.00438e-07 2.41429e-06 0.0194149)
(-4.86441e-08 1.54025e-06 0.0102841)
(-2.23149e-07 3.67501e-07 0.00314103)
(6.75789e-06 3.92142e-06 0.0443868)
(3.4426e-06 2.02163e-06 0.0300381)
(1.36398e-06 8.64972e-07 0.0186997)
(1.69181e-07 1.6249e-07 0.00985192)
(1.15042e-07 7.98382e-08 0.00299166)
(-8.00398e-06 -2.4092e-06 0.044372)
(-4.59182e-06 2.07701e-08 0.0300407)
(-2.45423e-06 9.42431e-07 0.0187045)
(-9.54242e-07 1.0154e-06 0.00985511)
(-4.20593e-07 3.6327e-07 0.0029926)
(-9.68131e-06 1.0537e-06 0.0455276)
(-6.8803e-06 1.88114e-06 0.031008)
(-4.41711e-06 2.03144e-06 0.0194174)
(-2.2713e-06 1.57942e-06 0.0102862)
(-8.55614e-07 5.5684e-07 0.00314206)
(-4.91516e-06 -3.5607e-06 0.0455221)
(-3.2857e-06 -9.27911e-07 0.0310023)
(-1.93127e-06 1.29351e-07 0.0194134)
(-9.82764e-07 2.58321e-07 0.0102837)
(-2.83897e-07 2.27934e-07 0.00314113)
(-7.12931e-06 3.50815e-06 0.0456499)
(-4.05403e-06 3.28214e-06 0.0311301)
(-2.14552e-06 2.70266e-06 0.0195182)
(-1.05742e-06 1.79835e-06 0.0103519)
(-2.39056e-07 5.90323e-07 0.00316629)
(7.67775e-06 -2.39904e-06 0.045677)
(4.37974e-06 -2.05274e-06 0.0311369)
(2.14055e-06 -1.5644e-06 0.0195203)
(8.94446e-07 -9.71191e-07 0.0103527)
(1.94212e-07 -3.40693e-07 0.00316642)
(-6.75243e-06 -1.43478e-06 0.0456662)
(-3.64792e-06 -1.34129e-06 0.0311413)
(-1.78047e-06 -1.15565e-06 0.0195253)
(-7.08572e-07 -8.04804e-07 0.0103555)
(-1.95193e-07 -3.01445e-07 0.00316721)
(7.71449e-06 4.10581e-06 0.0456939)
(4.64052e-06 3.65419e-06 0.0311478)
(2.4268e-06 2.835e-06 0.0195267)
(1.03374e-06 1.78901e-06 0.0103559)
(2.82544e-07 6.10791e-07 0.00316723)
(-6.83088e-06 3.82463e-06 0.0443834)
(-3.64652e-06 1.4107e-06 0.0300478)
(-1.81777e-06 2.11241e-07 0.0187084)
(-8.42822e-07 -1.50212e-07 0.00985714)
(-2.1672e-07 -1.42384e-07 0.00299339)
(-3.64716e-06 5.10841e-06 0.045539)
(-2.07324e-06 2.39442e-06 0.0310139)
(-1.02103e-06 9.322e-07 0.0194201)
(-4.17147e-07 2.64004e-07 0.0102871)
(-1.02746e-07 2.48716e-08 0.00314228)
(-9.03081e-06 1.49974e-06 0.0455439)
(-5.4918e-06 4.87399e-08 0.0310168)
(-3.19014e-06 -6.22085e-07 0.0194217)
(-1.6199e-06 -6.388e-07 0.0102881)
(-5.11611e-07 -2.93435e-07 0.0031427)
(3.89978e-05 -5.66884e-05 0.132641)
(-0.000221566 -0.000219318 0.128017)
(2.47351e-05 2.65017e-05 0.137428)
(-2.69074e-05 1.76007e-05 0.132259)
(1.98654e-05 -3.15076e-05 0.1324)
(-0.000203152 -0.000202488 0.127953)
(1.57663e-05 1.7051e-05 0.137464)
(-1.32465e-05 9.21234e-06 0.132206)
(1.05212e-05 -1.55199e-05 0.132349)
(-0.000196918 -0.000194212 0.127911)
(8.93905e-06 1.00995e-05 0.137474)
(-7.45803e-06 4.93826e-06 0.132162)
(6.46103e-06 -8.81856e-06 0.13231)
(-0.000194396 -0.000191215 0.127888)
(4.72048e-06 6.01479e-06 0.137479)
(-4.465e-06 2.93363e-06 0.132133)
(4.50018e-06 -5.07862e-06 0.132287)
(-0.00019323 -0.000190217 0.127875)
(3.35407e-06 3.48476e-06 0.137484)
(-2.63425e-06 1.86592e-06 0.132117)
(5.12939e-06 -3.50192e-06 0.13227)
(-0.000192534 -0.000191751 0.127864)
(3.62779e-06 2.48159e-06 0.13749)
(-1.34382e-06 1.90722e-06 0.132111)
(6.22582e-06 -2.86935e-06 0.13226)
(-0.000192019 -0.000192192 0.127858)
(3.22926e-06 2.07635e-06 0.137494)
(-5.72226e-08 2.45514e-06 0.132108)
(5.31265e-06 -2.09853e-06 0.132257)
(-0.000191208 -0.000191842 0.127855)
(2.11634e-06 2.44842e-06 0.137496)
(9.44668e-09 3.36934e-06 0.132108)
(3.92818e-06 -3.07061e-06 0.132255)
(-0.00019193 -0.000192169 0.127858)
(4.68148e-07 1.77696e-06 0.137498)
(-1.03416e-07 2.49626e-06 0.132111)
(2.63793e-06 -2.99726e-06 0.132259)
(-0.000192614 -0.000191911 0.127858)
(-8.31557e-07 1.77718e-06 0.137501)
(1.22188e-07 2.20268e-06 0.132112)
(2.06721e-06 -2.82109e-06 0.132262)
(-0.000193066 -0.000191902 0.127859)
(-1.10757e-06 1.68198e-06 0.137503)
(-2.93018e-07 1.75371e-06 0.132112)
(2.4488e-06 -2.2593e-06 0.132264)
(-0.000192977 -0.000191725 0.127857)
(-7.83025e-07 1.31045e-06 0.137505)
(-2.3585e-07 1.94569e-06 0.132114)
(2.59646e-06 -2.00686e-06 0.132264)
(-0.00019297 -0.000191584 0.127855)
(-1.07877e-06 1.21337e-06 0.137507)
(2.30859e-07 1.12089e-06 0.132113)
(3.00061e-06 -2.21418e-06 0.132264)
(-0.000192631 -0.000191718 0.127853)
(-9.12396e-07 1.05191e-06 0.137508)
(1.05136e-06 9.18831e-07 0.13211)
(3.04957e-06 -1.58215e-06 0.132261)
(-0.000191837 -0.000191542 0.127848)
(1.71105e-07 1.30349e-06 0.137511)
(2.73592e-06 -6.25349e-07 0.132108)
(1.77475e-06 3.60955e-07 0.132255)
(-0.000191115 -0.000190834 0.127836)
(-5.22573e-07 -7.14784e-07 0.137513)
(3.39666e-06 -2.51829e-06 0.132346)
(1.26579e-06 1.30508e-06 0.132442)
(-0.000192046 -0.000191818 0.128035)
(0.000216277 -0.000214996 0.128016)
(-0.000186785 0.000183162 0.127856)
(-3.70503e-05 -5.72071e-05 0.132474)
(2.22464e-05 -3.82118e-05 0.132421)
(-2.44142e-05 -3.57295e-05 0.132435)
(0.000187861 0.000189861 0.127859)
(0.000204536 0.00020701 0.127953)
(-0.000196029 -0.000195661 0.127813)
(2.09036e-05 3.19876e-05 0.132412)
(-2.26979e-05 3.15481e-05 0.132435)
(1.22286e-05 1.89947e-05 0.132377)
(-1.47413e-05 1.9099e-05 0.132398)
(-0.000203338 0.000202634 0.127949)
(0.000193304 -0.000196448 0.127815)
(2.97969e-05 2.05619e-05 0.132257)
(3.02261e-05 -2.24815e-05 0.132275)
(1.56017e-05 1.11138e-05 0.132221)
(1.68098e-05 -1.2662e-05 0.132232)
(-2.88536e-05 -1.96286e-05 0.132292)
(-1.56411e-05 9.27603e-06 0.132218)
(-1.78427e-05 -1.16166e-05 0.132241)
(0.000204365 -0.000208435 0.127947)
(-0.000195211 0.000195283 0.1278)
(-2.16021e-05 -3.04793e-05 0.132418)
(1.1656e-05 -1.83622e-05 0.13236)
(-1.36582e-05 -1.72253e-05 0.132377)
(0.000192217 0.000197589 0.127813)
(0.000194363 0.00019507 0.127909)
(-0.000197483 -0.00019777 0.127791)
(1.10413e-05 1.62654e-05 0.132366)
(-1.32193e-05 1.60222e-05 0.132387)
(7.67543e-06 1.09504e-05 0.132338)
(-1.03492e-05 1.17427e-05 0.132355)
(-0.000196144 0.000194649 0.12791)
(0.000194784 -0.000198513 0.127789)
(1.27858e-05 9.79072e-06 0.13221)
(1.42183e-05 -1.12461e-05 0.13222)
(8.70326e-06 6.76167e-06 0.132182)
(9.97827e-06 -7.59627e-06 0.132188)
(-1.52586e-05 -1.0623e-05 0.132227)
(-8.94785e-06 4.89064e-06 0.132172)
(-1.13289e-05 -6.77192e-06 0.132191)
(0.000194441 -0.000195399 0.127897)
(-0.000196604 0.000198308 0.127778)
(-1.22759e-05 -1.4641e-05 0.132367)
(6.87589e-06 -1.10711e-05 0.132318)
(-8.56901e-06 -9.91614e-06 0.132337)
(0.000194521 0.000200116 0.127789)
(0.000192124 0.000192311 0.127887)
(-0.00019843 -0.000199845 0.127778)
(6.95937e-06 9.2938e-06 0.132331)
(-9.72462e-06 9.68771e-06 0.132346)
(4.75973e-06 6.54532e-06 0.132313)
(-8.24602e-06 7.57949e-06 0.132322)
(-0.000193218 0.000191308 0.127885)
(0.0001956 -0.000200389 0.127773)
(7.24845e-06 6.06371e-06 0.132174)
(8.46682e-06 -7.19195e-06 0.132179)
(4.48491e-06 3.47987e-06 0.132154)
(5.96932e-06 -4.88822e-06 0.132157)
(-9.7145e-06 -5.75034e-06 0.132182)
(-5.71511e-06 2.43008e-06 0.132139)
(-7.16807e-06 -3.41396e-06 0.132161)
(0.000192632 -0.000191908 0.127877)
(-0.000197825 0.000199683 0.127763)
(-7.88591e-06 -7.82058e-06 0.13233)
(4.54089e-06 -6.23214e-06 0.132292)
(-6.34499e-06 -5.26349e-06 0.132312)
(0.000195259 0.00020121 0.127776)
(0.000191882 0.000190689 0.127875)
(-0.00019672 -0.000201107 0.127766)
(5.28495e-06 6.10675e-06 0.132308)
(-7.72432e-06 6.33813e-06 0.132315)
(4.76769e-06 4.37678e-06 0.132297)
(-6.50548e-06 5.9935e-06 0.1323)
(-0.00019306 0.000190185 0.127869)
(0.000197248 -0.000200527 0.127761)
(3.87116e-06 3.70226e-06 0.132149)
(5.0957e-06 -4.81521e-06 0.132151)
(3.39998e-06 1.58278e-06 0.132136)
(4.33104e-06 -3.13546e-06 0.132138)
(-6.39787e-06 -3.38203e-06 0.132156)
(-3.26001e-06 1.3489e-06 0.13212)
(-4.76679e-06 -2.40953e-06 0.132142)
(0.00019131 -0.000190585 0.127861)
(-0.000195896 0.000200559 0.127749)
(-6.05003e-06 -4.38132e-06 0.132308)
(4.35082e-06 -4.12105e-06 0.132273)
(-4.45661e-06 -4.06059e-06 0.132298)
(0.000196845 0.000200744 0.127766)
(0.000193739 0.000189406 0.127863)
(-0.00019609 -0.000201085 0.127756)
(5.48397e-06 3.63016e-06 0.132294)
(-6.12247e-06 5.4367e-06 0.132296)
(6.49532e-06 3.64843e-06 0.132289)
(-4.26676e-06 4.74626e-06 0.13229)
(-0.000191594 0.000190517 0.127859)
(0.000198087 -0.00019986 0.127757)
(3.11641e-06 1.68157e-06 0.132133)
(4.09084e-06 -3.07676e-06 0.132135)
(3.72143e-06 4.95805e-07 0.132126)
(4.81182e-06 -1.65004e-06 0.132125)
(-3.90777e-06 -2.75729e-06 0.132139)
(-2.10615e-06 8.23269e-07 0.132113)
(-2.5688e-06 -2.70146e-06 0.132135)
(0.000193308 -0.000189486 0.127848)
(-0.000195151 0.000201016 0.12774)
(-4.64248e-06 -4.08188e-06 0.132296)
(5.6942e-06 -3.44582e-06 0.132262)
(-3.64254e-06 -4.73552e-06 0.132291)
(0.000197822 0.000200618 0.127758)
(0.000194406 0.000190321 0.127853)
(-0.000197592 -0.000199836 0.127749)
(7.40089e-06 3.53534e-06 0.132286)
(-4.0521e-06 4.31796e-06 0.132289)
(5.93582e-06 3.9601e-06 0.13228)
(-3.03506e-06 4.52088e-06 0.132288)
(-0.000191258 0.000191455 0.127854)
(0.000199882 -0.000199872 0.127755)
(3.67051e-06 1.37265e-06 0.132124)
(4.91963e-06 -2.43086e-06 0.132122)
(2.76857e-06 6.21965e-07 0.132119)
(4.33691e-06 -1.75064e-06 0.132116)
(-2.25194e-06 -3.43083e-06 0.132134)
(-7.92012e-07 1.36849e-06 0.132111)
(-1.67411e-06 -2.53904e-06 0.132133)
(0.000194091 -0.000189761 0.127839)
(-0.000196522 0.000200522 0.127733)
(-3.79084e-06 -4.01469e-06 0.132288)
(5.24427e-06 -2.57449e-06 0.132257)
(-3.02187e-06 -3.9088e-06 0.132285)
(0.000198941 0.000201001 0.127754)
(0.000192984 0.00019156 0.127847)
(-0.00019946 -0.000198556 0.127744)
(5.95234e-06 3.97407e-06 0.132277)
(-3.50944e-06 4.57707e-06 0.132286)
(4.34361e-06 4.82806e-06 0.132274)
(-3.39708e-06 5.18622e-06 0.132286)
(-0.000190429 0.000192376 0.127853)
(0.000198881 -0.000198878 0.127751)
(2.25491e-06 1.44577e-06 0.132116)
(3.92548e-06 -2.25376e-06 0.132113)
(9.89081e-07 1.8815e-06 0.132113)
(2.65754e-06 -1.36716e-06 0.132109)
(-1.33022e-06 -2.67533e-06 0.132131)
(1.81329e-08 1.81435e-06 0.13211)
(-1.83278e-06 -2.02467e-06 0.132132)
(0.000192878 -0.000190616 0.127833)
(-0.000197921 0.000199196 0.127734)
(-3.17441e-06 -3.54802e-06 0.132284)
(3.80067e-06 -3.02997e-06 0.132255)
(-2.65425e-06 -3.35249e-06 0.132285)
(0.000198663 0.000201152 0.127757)
(0.000191475 0.000193104 0.127844)
(-0.000199979 -0.000197727 0.127746)
(4.59009e-06 4.9813e-06 0.132271)
(-3.68301e-06 5.01497e-06 0.132283)
(2.89435e-06 5.17303e-06 0.132272)
(-4.14757e-06 5.48433e-06 0.132285)
(-0.000191754 0.00019322 0.127849)
(0.000198361 -0.000199117 0.127751)
(3.78879e-07 2.47654e-06 0.13211)
(1.68603e-06 -1.72866e-06 0.132107)
(1.35255e-07 2.40611e-06 0.132111)
(1.88344e-06 -1.92817e-06 0.13211)
(-1.45755e-06 -2.47535e-06 0.13213)
(-3.46979e-08 1.85335e-06 0.132112)
(-1.80516e-06 -1.61599e-06 0.132133)
(0.000191382 -0.000191548 0.127834)
(-0.000199523 0.000200244 0.127737)
(-3.288e-06 -3.00755e-06 0.132284)
(2.29403e-06 -3.16739e-06 0.132258)
(-3.03705e-06 -2.60036e-06 0.132285)
(0.000198039 0.000201341 0.127758)
(0.000190744 0.000193634 0.127846)
(-0.000200638 -0.000198675 0.127748)
(3.30375e-06 5.21777e-06 0.132269)
(-4.42286e-06 5.17758e-06 0.132283)
(2.19948e-06 5.08541e-06 0.132274)
(-4.41296e-06 4.99793e-06 0.132287)
(-0.000192065 0.000192846 0.127849)
(0.000198223 -0.0001999 0.127752)
(9.39695e-08 2.93034e-06 0.132109)
(1.28881e-06 -2.50817e-06 0.132109)
(-8.57934e-07 2.36702e-06 0.132114)
(5.60578e-07 -2.10776e-06 0.132115)
(-1.6127e-06 -2.17509e-06 0.132131)
(-2.78814e-07 8.9239e-07 0.132115)
(-1.77143e-06 -1.42498e-06 0.132136)
(0.000190581 -0.000191493 0.127838)
(-0.000200335 0.000200354 0.127738)
(-3.80497e-06 -2.42447e-06 0.132285)
(1.83911e-06 -3.31944e-06 0.132263)
(-3.5141e-06 -2.63822e-06 0.132288)
(0.000198349 0.000202262 0.127759)
(0.000190871 0.000193259 0.127846)
(-0.00020022 -0.000199093 0.12775)
(2.79839e-06 4.92001e-06 0.13227)
(-4.49286e-06 4.3626e-06 0.132282)
(1.96943e-06 4.17397e-06 0.132276)
(-4.07564e-06 4.17653e-06 0.132288)
(-0.000192193 0.000192166 0.127849)
(0.000198802 -0.000200388 0.12775)
(-5.76769e-07 3.24027e-06 0.132112)
(2.49979e-07 -2.73232e-06 0.132112)
(-5.16671e-07 2.51528e-06 0.132119)
(3.75372e-07 -1.96457e-06 0.132119)
(-1.09101e-06 -2.07671e-06 0.132132)
(-7.08728e-07 9.08223e-07 0.132117)
(-1.66147e-06 -1.06066e-06 0.132139)
(0.000190775 -0.000191848 0.127838)
(-0.000199645 0.000200585 0.127738)
(-4.3287e-06 -2.70356e-06 0.132286)
(1.5735e-06 -2.85431e-06 0.132266)
(-3.83773e-06 -2.6061e-06 0.132289)
(0.000198266 0.00020254 0.127757)
(0.000191431 0.000192823 0.127848)
(-0.000199761 -0.000200086 0.127749)
(3.21944e-06 4.14575e-06 0.132271)
(-5.02734e-06 4.00731e-06 0.132281)
(2.56811e-06 3.69072e-06 0.132278)
(-4.05026e-06 3.94821e-06 0.132288)
(-0.000192173 0.000192047 0.127847)
(0.000199028 -0.000201074 0.12775)
(-6.4103e-07 2.98076e-06 0.132115)
(3.87653e-07 -2.7961e-06 0.132114)
(-4.05464e-07 1.68919e-06 0.132123)
(9.42308e-07 -1.28136e-06 0.132123)
(-1.31417e-06 -1.64047e-06 0.132133)
(-1.99797e-07 2.77627e-07 0.13212)
(-1.30338e-06 -8.81043e-07 0.132143)
(0.000191251 -0.000191109 0.127838)
(-0.000199395 0.000201465 0.127739)
(-4.13066e-06 -2.18812e-06 0.132286)
(1.88009e-06 -2.29405e-06 0.132269)
(-3.62582e-06 -2.17586e-06 0.13229)
(0.000198519 0.000202988 0.127756)
(0.000191812 0.000191488 0.127846)
(-0.000199137 -0.000200203 0.127751)
(3.94908e-06 3.59657e-06 0.132269)
(-4.73338e-06 3.42396e-06 0.13228)
(2.70957e-06 3.26254e-06 0.132279)
(-3.34365e-06 3.63648e-06 0.132292)
(-0.000191705 0.000191184 0.127846)
(0.000198836 -0.000200868 0.127753)
(-6.19588e-07 2.19153e-06 0.132116)
(4.00003e-07 -2.04962e-06 0.132115)
(-6.53372e-07 8.70822e-07 0.132126)
(1.08032e-06 -1.48833e-06 0.132128)
(-1.06617e-06 -1.9175e-06 0.132135)
(-3.15704e-07 7.52929e-08 0.132123)
(-1.13693e-06 -1.27753e-06 0.132147)
(0.000191892 -0.000191029 0.127839)
(-0.000198751 0.000200674 0.12774)
(-3.61677e-06 -1.69125e-06 0.132286)
(2.23372e-06 -2.1325e-06 0.132271)
(-3.02764e-06 -2.04224e-06 0.132292)
(0.000198362 0.000201927 0.127756)
(0.000191802 0.000190644 0.127844)
(-0.000198409 -0.000200035 0.127757)
(4.33689e-06 2.88866e-06 0.132266)
(-4.56858e-06 3.38972e-06 0.132279)
(2.98874e-06 2.84698e-06 0.132282)
(-2.86507e-06 3.36661e-06 0.132295)
(-0.000191755 0.000190899 0.127845)
(0.000198613 -0.000200748 0.127762)
(-5.5192e-07 1.85483e-06 0.132116)
(3.03659e-07 -2.46862e-06 0.132115)
(-8.20102e-08 1.75075e-07 0.132132)
(9.54303e-07 -1.13497e-06 0.132132)
(-1.06943e-07 -1.90518e-06 0.132133)
(-3.69366e-07 -3.2901e-07 0.132127)
(-1.24115e-06 -1.53521e-06 0.13215)
(0.000192147 -0.000191431 0.127838)
(-0.00019808 0.000200697 0.127741)
(-3.43418e-06 -1.87759e-06 0.132285)
(2.7592e-06 -2.28253e-06 0.132272)
(-2.74234e-06 -1.87677e-06 0.132294)
(0.000198997 0.000202016 0.127756)
(0.000191701 0.000190022 0.127837)
(-0.000198145 -0.000199401 0.127778)
(4.54789e-06 2.35985e-06 0.132264)
(-4.3666e-06 2.75885e-06 0.132278)
(4.0126e-06 3.5432e-06 0.132286)
(-3.74358e-06 3.96797e-06 0.132301)
(-0.000191008 0.000189675 0.127841)
(0.000197885 -0.000199293 0.127782)
(-1.16196e-06 7.61093e-07 0.132116)
(-4.27775e-07 -1.81918e-06 0.132114)
(6.22969e-07 2.11946e-07 0.132139)
(2.23862e-06 -1.73003e-06 0.132135)
(2.23613e-07 -1.78947e-06 0.13213)
(-4.22708e-07 -1.38445e-07 0.132132)
(-2.27468e-06 -2.45121e-06 0.132153)
(0.000191495 -0.000190413 0.127834)
(-0.000198701 0.000200915 0.127747)
(-2.98003e-06 -1.96562e-06 0.132283)
(2.83177e-06 -2.96651e-06 0.132274)
(-3.0851e-06 -2.79282e-06 0.132294)
(0.00019854 0.000201635 0.127763)
(0.000190768 0.000188795 0.127816)
(-0.000196152 -0.000200375 0.12778)
(3.58948e-06 1.94157e-06 0.132261)
(-3.44415e-06 1.67826e-06 0.132275)
(9.0357e-06 3.48033e-06 0.132041)
(-9.51584e-06 4.7075e-06 0.13205)
(-0.000189958 0.000188521 0.127819)
(0.000196574 -0.000200297 0.127782)
(-2.19212e-06 -3.20588e-07 0.132114)
(-1.68053e-06 -6.2799e-07 0.132106)
(4.3107e-06 2.36989e-06 0.132148)
(6.41214e-06 -5.27107e-06 0.132141)
(2.42648e-06 -4.27889e-07 0.132122)
(-4.25736e-06 2.21636e-06 0.13214)
(-6.57484e-06 -5.09681e-06 0.132156)
(0.000190366 -0.000190016 0.127825)
(-0.000198393 0.000201287 0.127763)
(-2.53529e-06 -1.95906e-07 0.132277)
(4.54499e-06 -6.34193e-06 0.132277)
(-4.68287e-06 -6.27138e-06 0.132296)
(0.000199454 0.000203101 0.127785)
(-3.2768e-06 1.65336e-06 0.132039)
(-0.00019378 0.000190212 0.12781)
(-2.54467e-06 -1.74801e-06 0.132357)
(-2.94184e-06 6.25946e-07 0.132383)
(3.30404e-06 1.86034e-06 0.132393)
(0.000192479 -0.000192525 0.128031)
(-1.99387e-06 1.20146e-06 0.132463)
(2.24612e-05 -9.42019e-06 0.0647552)
(-7.71329e-06 6.53667e-06 0.0648056)
(-7.31103e-07 3.21864e-05 0.1181)
(1.33003e-05 -6.73735e-05 0.135037)
(3.65102e-05 -5.84923e-05 0.104454)
(3.42285e-05 -5.08691e-05 0.132623)
(-3.23775e-05 1.62423e-05 0.104475)
(8.3996e-07 -8.28624e-05 0.118194)
(1.10068e-05 -6.003e-05 0.134997)
(-2.41587e-05 -2.58759e-05 0.089572)
(-3.05184e-05 -2.62114e-05 0.0897846)
(0.000184039 0.00018318 0.127892)
(2.64384e-05 -9.12414e-07 0.0896237)
(4.99124e-06 9.94269e-06 0.0892653)
(-2.01164e-06 -5.08895e-05 0.101803)
(6.09519e-06 4.25474e-05 0.0757254)
(-9.64265e-06 -3.10185e-05 0.0757196)
(-3.66069e-08 6.41457e-05 0.101906)
(-1.07197e-05 1.61054e-05 0.06475)
(7.73641e-06 -1.03778e-05 0.06474)
(-4.56594e-05 5.23532e-07 0.100801)
(3.7822e-05 -1.4558e-06 0.0754579)
(-2.98513e-05 -2.90334e-06 0.0752698)
(5.7355e-05 -1.264e-06 0.101319)
(-2.74019e-05 2.7077e-05 0.137436)
(2.52459e-05 -2.92461e-05 0.137433)
(-2.80662e-05 -2.90911e-05 0.13744)
(1.75688e-05 1.89591e-05 0.137458)
(-1.95381e-05 1.92586e-05 0.137466)
(1.80876e-05 -2.07609e-05 0.137458)
(-2.03404e-05 -2.05332e-05 0.137464)