/*--------------------------------*- C++ -*----------------------------------*\
| =========                 |                                                 |
| \\      /  F ield         | OpenFOAM: The Open Source CFD Toolbox           |
|  \\    /   O peration     | Version:  2206                                  |
|   \\  /    A nd           | Website:  www.openfoam.com                      |
|    \\/     M anipulation  |                                                 |
\*---------------------------------------------------------------------------*/
FoamFile
{
    version     2.0;
    format      ascii;
    arch        "LSB;label=32;scalar=64";
    class       volScalarField;
    location    "50";
    object      k;
}
// * * * * * * * * * * * * * * * * * * * * * * * * * * * * * * * * * * * * * //

dimensions      [0 2 -2 0 0 0 0];

internalField   nonuniform List<scalar> 
66940
(
2.16589e-05
2.69772e-05
2.69446e-05
2.62672e-05
2.16304e-05
2.69594e-05
2.68898e-05
2.62932e-05
2.16033e-05
2.69772e-05
2.69596e-05
2.63022e-05
2.1599e-05
2.70083e-05
2.69632e-05
2.62084e-05
2.16053e-05
2.69742e-05
2.70466e-05
2.6348e-05
2.16188e-05
2.69869e-05
2.70346e-05
2.63247e-05
2.16172e-05
2.70266e-05
2.70936e-05
2.62729e-05
2.16052e-05
2.69278e-05
2.70523e-05
2.62005e-05
2.15842e-05
2.68743e-05
2.70589e-05
2.611e-05
2.15607e-05
2.69191e-05
2.69387e-05
2.62328e-05
2.1533e-05
2.69252e-05
2.69683e-05
2.63353e-05
2.33518e-05
2.69762e-05
2.69718e-05
2.56152e-05
2.62272e-05
2.68248e-05
2.68997e-05
2.63809e-05
2.67977e-05
2.71178e-05
2.6888e-05
2.69038e-05
2.64829e-05
2.69673e-05
2.6791e-05
2.62679e-05
2.61009e-05
2.61654e-05
2.68126e-05
2.68522e-05
2.6849e-05
2.69488e-05
2.63734e-05
2.64331e-05
2.68153e-05
2.70563e-05
2.68288e-05
2.71681e-05
2.68366e-05
2.69965e-05
2.68607e-05
2.65721e-05
2.65622e-05
2.67916e-05
2.69238e-05
2.67624e-05
2.63013e-05
2.61778e-05
2.6205e-05
2.68444e-05
2.69508e-05
2.67785e-05
2.69153e-05
2.64225e-05
2.62868e-05
2.6749e-05
2.71418e-05
2.67258e-05
2.71386e-05
2.68321e-05
2.69619e-05
2.68991e-05
2.65602e-05
2.64772e-05
2.6714e-05
2.69926e-05
2.67869e-05
2.63254e-05
2.61884e-05
2.63108e-05
2.67904e-05
2.69399e-05
2.68156e-05
2.69921e-05
2.63428e-05
2.64198e-05
2.67302e-05
2.71385e-05
2.67861e-05
2.71298e-05
2.69029e-05
2.70071e-05
2.68086e-05
2.63821e-05
2.65567e-05
2.67435e-05
2.69637e-05
2.68071e-05
2.6274e-05
2.6298e-05
2.63868e-05
2.68455e-05
2.69819e-05
2.68987e-05
2.69998e-05
2.63314e-05
2.64505e-05
2.67832e-05
2.71507e-05
2.68804e-05
2.70462e-05
2.67685e-05
2.7004e-05
2.6886e-05
2.65542e-05
2.66265e-05
2.68372e-05
2.70273e-05
2.6864e-05
2.63428e-05
2.63897e-05
2.63486e-05
2.69307e-05
2.69976e-05
2.70273e-05
2.70299e-05
2.64452e-05
2.6454e-05
2.68588e-05
2.71223e-05
2.68784e-05
2.71614e-05
2.68767e-05
2.70325e-05
2.67979e-05
2.66216e-05
2.66368e-05
2.6881e-05
2.71334e-05
2.68852e-05
2.63234e-05
2.63393e-05
2.63332e-05
2.70359e-05
2.69455e-05
2.68713e-05
2.69612e-05
2.64392e-05
2.64556e-05
2.68761e-05
2.71562e-05
2.68548e-05
2.7094e-05
2.6883e-05
2.70419e-05
2.68609e-05
2.66311e-05
2.65682e-05
2.68923e-05
2.71137e-05
2.6874e-05
2.62751e-05
2.63365e-05
2.62879e-05
2.69181e-05
2.70538e-05
2.6893e-05
2.70182e-05
2.64317e-05
2.64445e-05
2.6874e-05
2.70254e-05
2.68296e-05
2.70969e-05
2.67896e-05
2.70472e-05
2.6802e-05
2.65657e-05
2.64308e-05
2.68724e-05
2.70495e-05
2.687e-05
2.61958e-05
2.62681e-05
2.6238e-05
2.68864e-05
2.70261e-05
2.69799e-05
2.7015e-05
2.64303e-05
2.63042e-05
2.68667e-05
2.70071e-05
2.68518e-05
2.70826e-05
2.67917e-05
2.68124e-05
2.67864e-05
2.63699e-05
2.64189e-05
2.68735e-05
2.70547e-05
2.67611e-05
2.61899e-05
2.62425e-05
2.62546e-05
2.69939e-05
2.70213e-05
2.69866e-05
2.70252e-05
2.63194e-05
2.63308e-05
2.686e-05
2.70999e-05
2.6831e-05
2.71067e-05
2.68045e-05
2.69064e-05
2.67885e-05
2.64341e-05
2.64599e-05
2.67908e-05
2.70239e-05
2.67134e-05
2.62121e-05
2.62913e-05
2.63783e-05
2.69911e-05
2.70289e-05
2.69686e-05
2.70216e-05
2.63748e-05
2.64928e-05
2.68271e-05
2.71142e-05
2.68349e-05
2.71061e-05
2.67805e-05
2.69937e-05
2.68262e-05
2.64866e-05
2.65676e-05
2.67768e-05
2.70263e-05
2.68369e-05
2.63209e-05
2.63892e-05
2.60587e-05
2.69151e-05
2.69681e-05
2.69136e-05
2.70048e-05
2.65054e-05
2.61293e-05
2.6769e-05
2.70356e-05
2.67832e-05
2.70486e-05
2.67896e-05
2.69009e-05
2.68679e-05
2.65779e-05
2.62441e-05
2.67745e-05
2.69671e-05
2.67827e-05
2.60335e-05
2.56459e-05
2.69695e-05
2.70098e-05
2.56536e-05
2.67856e-05
2.71215e-05
2.35148e-05
2.34915e-05
2.34002e-05
2.6863e-05
2.58517e-05
2.68529e-05
5.90268e-06
2.16642e-05
2.17686e-05
2.18072e-05
2.17171e-05
2.46507e-05
2.68952e-05
2.09809e-05
2.57298e-05
2.62245e-05
1.29906e-05
1.3089e-05
2.05472e-05
9.37174e-06
2.05276e-05
9.40484e-06
5.90013e-06
5.91977e-06
2.00815e-05
9.08433e-06
2.01477e-05
9.12016e-06
2.17624e-05
2.17943e-05
2.17082e-05
2.16367e-05
2.17449e-05
2.17805e-05
2.17077e-05
2.45211e-05
2.08742e-05
2.57225e-05
2.69864e-05
2.4729e-05
2.09515e-05
2.57303e-05
5.98293e-06
5.98565e-06
2.4277e-05
2.56881e-05
2.08089e-05
2.69583e-05
2.42954e-05
2.56765e-05
2.07666e-05
1.2945e-05
1.30968e-05
2.62794e-05
1.30168e-05
1.31737e-05
2.04863e-05
9.37062e-06
2.05646e-05
9.38367e-06
5.92793e-06
5.96676e-06
2.00176e-05
9.09331e-06
2.00463e-05
9.09822e-06
2.1737e-05
2.17691e-05
2.17001e-05
2.16074e-05
2.17022e-05
2.17284e-05
2.16641e-05
2.45301e-05
2.09711e-05
2.57275e-05
2.69628e-05
2.45995e-05
2.08075e-05
2.57509e-05
5.99239e-06
5.99254e-06
2.43251e-05
2.56824e-05
2.08237e-05
2.6982e-05
2.4131e-05
2.56889e-05
2.07856e-05
1.28611e-05
1.31412e-05
2.62197e-05
1.29058e-05
1.31608e-05
2.02489e-05
9.3795e-06
2.02609e-05
9.40502e-06
5.98444e-06
5.98923e-06
1.98202e-05
9.11599e-06
2.01627e-05
9.08166e-06
2.1695e-05
2.17196e-05
2.16655e-05
2.16013e-05
2.16841e-05
2.17062e-05
2.16823e-05
2.45871e-05
2.10341e-05
2.57559e-05
2.69935e-05
2.45833e-05
2.08429e-05
2.57618e-05
5.98852e-06
5.97465e-06
2.43843e-05
2.57093e-05
2.07227e-05
2.69616e-05
2.42436e-05
2.57238e-05
2.07516e-05
1.28644e-05
1.31686e-05
2.63113e-05
1.28921e-05
1.31372e-05
2.08657e-05
9.48377e-06
2.07836e-05
9.42295e-06
5.9851e-06
5.97633e-06
2.00117e-05
9.14049e-06
2.01396e-05
9.11253e-06
2.16852e-05
2.17047e-05
2.16764e-05
2.16099e-05
2.16729e-05
2.17047e-05
2.16637e-05
2.48018e-05
2.0854e-05
2.57451e-05
2.70197e-05
2.47641e-05
2.08141e-05
2.57687e-05
5.97925e-06
5.97931e-06
2.4785e-05
2.5757e-05
2.10594e-05
2.69426e-05
2.46356e-05
2.577e-05
2.11741e-05
1.27985e-05
1.32463e-05
2.62835e-05
1.2842e-05
1.33151e-05
2.08124e-05
9.39715e-06
2.10597e-05
9.37501e-06
5.97886e-06
5.95652e-06
1.98275e-05
9.10219e-06
1.99689e-05
9.07449e-06
2.16633e-05
2.16986e-05
2.16627e-05
2.16234e-05
2.16644e-05
2.17092e-05
2.16939e-05
2.45738e-05
2.09561e-05
2.57828e-05
2.69448e-05
2.4718e-05
2.09487e-05
2.57795e-05
5.97246e-06
5.94954e-06
2.49873e-05
2.58148e-05
2.13518e-05
2.7053e-05
2.48074e-05
2.58125e-05
2.1271e-05
1.27317e-05
1.33121e-05
2.63356e-05
1.2789e-05
1.31437e-05
2.05854e-05
9.36943e-06
2.07762e-05
9.31029e-06
5.93644e-06
5.92173e-06
1.97097e-05
9.04375e-06
1.97899e-05
9.04681e-06
2.16517e-05
2.17004e-05
2.16807e-05
2.16309e-05
2.1656e-05
2.17109e-05
2.16658e-05
2.4738e-05
2.0884e-05
2.58174e-05
2.69566e-05
2.46022e-05
2.08761e-05
2.58356e-05
5.96405e-06
5.92959e-06
2.48616e-05
2.584e-05
2.12166e-05
2.71025e-05
2.47394e-05
2.58601e-05
2.10138e-05
1.27242e-05
1.30219e-05
2.62467e-05
1.28197e-05
1.31102e-05
2.07014e-05
9.25646e-06
2.07599e-05
9.24177e-06
5.91488e-06
5.91914e-06
1.95593e-05
8.97682e-06
1.98271e-05
9.00109e-06
2.16429e-05
2.16977e-05
2.16458e-05
2.16245e-05
2.16537e-05
2.17123e-05
2.1653e-05
2.4516e-05
2.08297e-05
2.58475e-05
2.70397e-05
2.46751e-05
2.04915e-05
2.58551e-05
5.95013e-06
5.93975e-06
2.49128e-05
2.58694e-05
2.10275e-05
2.70991e-05
2.48611e-05
2.58762e-05
2.10774e-05
1.27444e-05
1.30373e-05
2.61893e-05
1.28097e-05
1.29634e-05
2.05459e-05
9.29131e-06
2.05842e-05
9.28667e-06
5.92836e-06
5.90937e-06
1.94445e-05
8.97448e-06
1.96085e-05
8.95661e-06
2.16369e-05
2.16959e-05
2.16268e-05
2.1601e-05
2.16391e-05
2.17052e-05
2.16072e-05
2.43386e-05
2.05295e-05
2.58344e-05
2.69444e-05
2.43653e-05
2.07502e-05
2.58346e-05
5.88201e-06
5.9012e-06
2.46383e-05
2.58503e-05
2.10565e-05
2.70537e-05
2.46882e-05
2.58485e-05
2.09669e-05
1.26895e-05
1.29558e-05
2.61448e-05
1.27815e-05
1.2906e-05
2.05734e-05
9.25359e-06
2.05984e-05
9.26427e-06
5.91883e-06
5.91798e-06
1.96776e-05
8.96943e-06
1.96559e-05
8.97868e-06
2.16289e-05
2.16924e-05
2.15932e-05
2.15517e-05
2.16192e-05
2.16662e-05
2.15765e-05
2.45225e-05
2.07144e-05
2.57686e-05
2.68849e-05
2.45456e-05
2.0394e-05
2.57228e-05
5.92272e-06
5.91594e-06
2.46736e-05
2.58054e-05
2.08617e-05
2.70536e-05
2.47186e-05
2.57774e-05
2.09006e-05
1.27912e-05
1.29677e-05
2.61452e-05
1.28338e-05
1.29612e-05
2.05623e-05
9.30957e-06
2.04462e-05
9.28823e-06
5.96858e-06
5.98341e-06
1.97809e-05
9.01131e-06
1.95229e-05
8.95151e-06
2.16429e-05
2.16753e-05
2.15862e-05
2.14991e-05
2.15968e-05
2.16184e-05
2.15277e-05
2.4579e-05
2.07264e-05
2.57415e-05
2.69499e-05
2.45076e-05
2.07831e-05
2.57243e-05
5.93186e-06
5.95778e-06
2.46596e-05
2.57751e-05
2.07652e-05
2.70106e-05
2.46671e-05
2.57572e-05
2.08318e-05
1.27761e-05
1.29663e-05
2.62605e-05
1.27e-05
1.29456e-05
1.97505e-05
9.32507e-06
2.00406e-05
9.14502e-06
6.00369e-06
6.04313e-06
1.95811e-05
9.07934e-06
1.9929e-05
8.96806e-06
2.16373e-05
2.16517e-05
2.15621e-05
2.34011e-05
2.34768e-05
2.35387e-05
2.34367e-05
2.41692e-05
2.10195e-05
2.5707e-05
2.70335e-05
2.44676e-05
2.07411e-05
2.55735e-05
5.98958e-06
6.09607e-06
2.39286e-05
2.58375e-05
2.07416e-05
2.7053e-05
2.41393e-05
2.57806e-05
2.03939e-05
1.28396e-05
1.30894e-05
2.63023e-05
1.24987e-05
1.26949e-05
1.49051e-05
2.25578e-06
1.55104e-05
5.34261e-06
3.43862e-06
4.54519e-06
1.48947e-05
2.23081e-06
1.54052e-05
5.29534e-06
1.86611e-05
2.03636e-05
2.0196e-05
2.44165e-05
1.7947e-05
2.16486e-05
2.13609e-05
2.11337e-05
1.28362e-05
2.6048e-05
2.69061e-05
2.11924e-05
1.03833e-05
2.61119e-05
3.44484e-06
4.58333e-06
2.10776e-05
2.62069e-05
1.26936e-05
2.7006e-05
2.11717e-05
2.6295e-05
1.02982e-05
8.40324e-06
8.5813e-06
2.59489e-05
7.38472e-06
7.23478e-06
5.94255e-06
5.90604e-06
5.83335e-06
5.81535e-06
2.62277e-05
1.32112e-05
1.3013e-05
1.32667e-05
1.29618e-05
9.20917e-06
2.69162e-05
2.03968e-05
2.03193e-05
9.37337e-06
9.28023e-06
2.05592e-05
2.01633e-05
9.22457e-06
9.21817e-06
2.04266e-05
2.45285e-05
2.68306e-05
2.08927e-05
2.56577e-05
2.07555e-05
2.56476e-05
2.46985e-05
2.45351e-05
2.69018e-05
2.05801e-05
2.56653e-05
2.0323e-05
2.56546e-05
2.46744e-05
2.63466e-05
1.30733e-05
1.3276e-05
5.95276e-06
5.90794e-06
5.88793e-06
2.63514e-05
1.31972e-05
1.343e-05
1.30987e-05
1.34197e-05
6.01179e-06
5.98947e-06
2.01019e-05
9.12857e-06
9.10819e-06
2.01496e-05
2.46179e-05
2.68143e-05
2.06393e-05
2.56662e-05
2.06321e-05
2.56291e-05
2.46184e-05
2.01849e-05
9.35865e-06
9.30915e-06
2.03475e-05
2.44874e-05
2.71345e-05
2.57097e-05
2.1052e-05
2.57029e-05
2.09696e-05
2.46494e-05
2.02678e-05
9.27784e-06
2.45865e-05
2.68832e-05
2.56693e-05
2.05363e-05
2.0159e-05
9.05122e-06
2.46886e-05
2.69483e-05
2.10178e-05
2.57197e-05
2.09735e-05
2.57189e-05
2.47362e-05
2.04079e-05
9.35732e-06
9.32769e-06
2.03692e-05
2.43946e-05
2.68155e-05
2.56842e-05
2.05958e-05
2.56482e-05
2.0369e-05
2.46166e-05
2.01042e-05
9.08304e-06
9.07956e-06
2.02659e-05
5.96642e-06
5.9807e-06
2.64321e-05
1.33233e-05
1.3253e-05
1.33683e-05
1.32612e-05
5.97284e-06
5.96311e-06
2.42287e-05
2.68853e-05
2.56823e-05
2.08248e-05
2.56692e-05
2.04857e-05
2.41295e-05
2.42693e-05
2.67772e-05
2.56462e-05
2.05853e-05
2.5638e-05
2.03624e-05
2.43596e-05
1.96973e-05
9.40658e-06
9.30821e-06
1.97689e-05
1.97198e-05
9.24891e-06
9.19986e-06
1.98652e-05
5.7854e-06
5.88394e-06
2.61314e-05
1.29923e-05
1.31663e-05
1.304e-05
1.31673e-05
5.81489e-06
5.82058e-06
5.90926e-06
5.87196e-06
5.95191e-06
5.95361e-06
5.8513e-06
5.85535e-06
1.32556e-05
1.30778e-05
2.61373e-05
1.32327e-05
1.30795e-05
5.94356e-06
5.95988e-06
5.8719e-06
5.8705e-06
2.61486e-05
1.32503e-05
1.31491e-05
1.32326e-05
1.31313e-05
2.04387e-05
9.26018e-06
2.04973e-05
9.29664e-06
2.47463e-05
2.08526e-05
2.56658e-05
2.67911e-05
2.47237e-05
2.08555e-05
2.56585e-05
2.45739e-05
2.05461e-05
2.5675e-05
2.68648e-05
2.46727e-05
2.06461e-05
2.568e-05
2.06347e-05
9.4034e-06
9.42055e-06
2.05857e-05
2.06283e-05
9.26853e-06
9.31008e-06
2.06086e-05
2.47633e-05
2.67645e-05
2.07474e-05
2.56607e-05
2.09153e-05
2.56565e-05
2.46758e-05
2.47665e-05
2.68563e-05
2.06138e-05
2.5671e-05
2.05013e-05
2.56704e-05
2.47319e-05
1.32283e-05
1.34047e-05
2.64127e-05
1.31937e-05
1.33525e-05
6.02228e-06
6.01138e-06
5.93659e-06
5.92399e-06
2.64162e-05
1.32431e-05
1.33426e-05
1.31801e-05
1.34627e-05
6.01159e-06
6.02184e-06
2.46029e-05
2.06858e-05
2.56664e-05
2.68254e-05
2.46076e-05
2.0498e-05
2.56482e-05
2.04205e-05
9.40028e-06
2.04036e-05
9.39218e-06
2.47345e-05
2.57133e-05
2.0978e-05
2.71519e-05
2.45994e-05
2.56967e-05
2.0961e-05
2.02574e-05
9.11792e-06
9.16755e-06
2.02126e-05
2.44644e-05
2.67763e-05
2.07071e-05
2.56386e-05
2.07069e-05
2.5639e-05
2.46611e-05
2.04928e-05
9.37523e-06
9.40368e-06
2.01277e-05
2.47534e-05
2.71616e-05
2.57044e-05
2.09166e-05
2.56985e-05
2.10571e-05
2.45911e-05
2.04202e-05
9.36935e-06
2.04042e-05
9.31433e-06
2.46867e-05
2.56658e-05
2.065e-05
2.69031e-05
2.45989e-05
2.56441e-05
2.04866e-05
2.03265e-05
9.12536e-06
2.03014e-05
9.115e-06
2.47356e-05
2.69675e-05
2.08049e-05
2.57563e-05
2.07874e-05
2.57532e-05
2.43792e-05
2.04927e-05
9.33557e-06
9.37619e-06
2.04317e-05
2.47106e-05
2.68394e-05
2.56704e-05
2.0245e-05
2.56811e-05
2.04826e-05
2.44965e-05
2.0299e-05
9.11719e-06
9.14691e-06
2.03635e-05
1.33296e-05
1.33339e-05
2.65918e-05
1.33294e-05
1.33951e-05
5.98909e-06
6.00072e-06
5.97577e-06
6.00316e-06
2.65349e-05
1.31958e-05
1.33117e-05
1.33465e-05
1.34269e-05
6.00648e-06
6.00848e-06
2.42921e-05
2.56521e-05
2.04373e-05
2.67336e-05
2.43342e-05
2.56425e-05
2.06403e-05
2.00208e-05
9.40122e-06
1.9953e-05
9.38303e-06
1.99523e-05
9.25372e-06
2.00067e-05
9.2706e-06
2.42985e-05
2.69486e-05
2.56804e-05
2.09641e-05
2.56764e-05
2.09799e-05
2.42979e-05
2.4356e-05
2.67845e-05
2.56447e-05
2.06694e-05
2.56418e-05
2.06567e-05
2.43649e-05
2.00089e-05
9.38546e-06
9.37828e-06
2.00568e-05
1.98644e-05
9.30995e-06
9.28703e-06
2.00583e-05
5.81843e-06
5.81825e-06
5.91022e-06
5.9053e-06
2.6264e-05
1.29207e-05
1.31772e-05
1.30055e-05
1.32108e-05
5.80238e-06
5.82357e-06
5.89783e-06
5.89814e-06
5.95727e-06
5.95213e-06
5.88264e-06
5.87933e-06
1.32525e-05
1.31975e-05
2.6208e-05
1.32886e-05
1.3151e-05
5.97059e-06
5.97337e-06
5.8915e-06
5.88924e-06
2.61814e-05
1.33e-05
1.31816e-05
1.32811e-05
1.31769e-05
2.04845e-05
9.32693e-06
2.0592e-05
9.36612e-06
2.45305e-05
2.06946e-05
2.56653e-05
2.6831e-05
2.46131e-05
2.08327e-05
2.5674e-05
2.46146e-05
2.07271e-05
2.56781e-05
2.68821e-05
2.46766e-05
2.08167e-05
2.56844e-05
2.03488e-05
9.36735e-06
9.40283e-06
2.02621e-05
2.03177e-05
9.41997e-06
9.4059e-06
2.04864e-05
2.42633e-05
2.68327e-05
2.06138e-05
2.56965e-05
2.07814e-05
2.56813e-05
2.42493e-05
2.45397e-05
2.69569e-05
2.07637e-05
2.5701e-05
2.09082e-05
2.56925e-05
2.43409e-05
1.33078e-05
1.34742e-05
2.62528e-05
1.33423e-05
1.34521e-05
6.02754e-06
6.02028e-06
5.99267e-06
5.97079e-06
2.63372e-05
1.33525e-05
1.3469e-05
1.33804e-05
1.34982e-05
6.02e-06
6.03416e-06
2.46229e-05
2.06674e-05
2.56482e-05
2.67946e-05
2.46345e-05
2.04402e-05
2.56572e-05
2.03404e-05
9.41115e-06
2.03048e-05
9.34913e-06
2.47209e-05
2.57104e-05
2.08581e-05
2.71392e-05
2.45466e-05
2.57153e-05
2.0815e-05
2.02231e-05
9.14245e-06
9.1148e-06
2.0192e-05
2.46082e-05
2.67397e-05
2.06913e-05
2.56677e-05
2.06422e-05
2.56623e-05
2.45997e-05
2.02752e-05
9.40503e-06
9.4015e-06
2.02718e-05
2.47566e-05
2.71509e-05
2.57283e-05
2.09948e-05
2.57206e-05
2.10417e-05
2.46636e-05
2.0539e-05
9.38253e-06
2.05502e-05
9.2815e-06
2.4713e-05
2.56653e-05
2.03306e-05
2.68014e-05
2.46608e-05
2.57038e-05
2.04859e-05
2.03874e-05
9.15344e-06
2.04998e-05
9.028e-06
2.47363e-05
2.69709e-05
2.09109e-05
2.57206e-05
2.0995e-05
2.57271e-05
2.45796e-05
2.06094e-05
9.28818e-06
9.32049e-06
2.05727e-05
2.45181e-05
2.69015e-05
2.57195e-05
2.05157e-05
2.57078e-05
2.04624e-05
2.46564e-05
2.04908e-05
8.96801e-06
9.02431e-06
2.04681e-05
1.33141e-05
1.34719e-05
2.64526e-05
1.32872e-05
1.34226e-05
6.02231e-06
6.00508e-06
5.98712e-06
5.98533e-06
2.6501e-05
1.32876e-05
1.33577e-05
1.33335e-05
1.33885e-05
6.00334e-06
6.01139e-06
2.42986e-05
2.56491e-05
2.0618e-05
2.6716e-05
2.43671e-05
2.56566e-05
2.06368e-05
1.98661e-05
9.40963e-06
2.01265e-05
9.33985e-06
2.00661e-05
9.33631e-06
2.01188e-05
9.25327e-06
2.42884e-05
2.69874e-05
2.57049e-05
2.08412e-05
2.56944e-05
2.09118e-05
2.42491e-05
2.42918e-05
2.67009e-05
2.56762e-05
2.04257e-05
2.56658e-05
2.06519e-05
2.44218e-05
2.00627e-05
9.39262e-06
9.35562e-06
2.02395e-05
2.00869e-05
9.30351e-06
9.30971e-06
2.02932e-05
5.81617e-06
5.77516e-06
5.90469e-06
5.90253e-06
2.63024e-05
1.28678e-05
1.30807e-05
1.29906e-05
1.31262e-05
5.74085e-06
5.78478e-06
5.88941e-06
5.89089e-06
5.96518e-06
5.98667e-06
5.87706e-06
5.8844e-06
1.32734e-05
1.31557e-05
2.62392e-05
1.33171e-05
1.31215e-05
6.02556e-06
6.01859e-06
5.87941e-06
5.89628e-06
2.62537e-05
1.33478e-05
1.31658e-05
1.33849e-05
1.32156e-05
2.03809e-05
9.4348e-06
2.04953e-05
9.40679e-06
2.45535e-05
2.05983e-05
2.57059e-05
2.67132e-05
2.43043e-05
2.07212e-05
2.57211e-05
2.43143e-05
2.08184e-05
2.57109e-05
2.6885e-05
2.42269e-05
2.07984e-05
2.57177e-05
2.05343e-05
9.48163e-06
9.42602e-06
2.05902e-05
2.03676e-05
9.41991e-06
9.4402e-06
2.04121e-05
2.46619e-05
2.67656e-05
2.09147e-05
2.57421e-05
2.09078e-05
2.57292e-05
2.48078e-05
2.43874e-05
2.69782e-05
2.09395e-05
2.5762e-05
2.06583e-05
2.57442e-05
2.47709e-05
1.33656e-05
1.34255e-05
2.63978e-05
1.33126e-05
1.32316e-05
6.01866e-06
5.95473e-06
5.98825e-06
5.99255e-06
2.64096e-05
1.33455e-05
1.33155e-05
1.32761e-05
1.33333e-05
5.94973e-06
5.95644e-06
2.46553e-05
2.06171e-05
2.5677e-05
2.67409e-05
2.46151e-05
2.04577e-05
2.56918e-05
2.01321e-05
9.43878e-06
2.02282e-05
9.30774e-06
2.47035e-05
2.57262e-05
2.10021e-05
2.70361e-05
2.46846e-05
2.57569e-05
2.07474e-05
2.00259e-05
9.12674e-06
9.11761e-06
2.01373e-05
2.4668e-05
2.67782e-05
2.06795e-05
2.57359e-05
2.06348e-05
2.56963e-05
2.46357e-05
2.00018e-05
9.26781e-06
9.33528e-06
2.01204e-05
2.47258e-05
2.71029e-05
2.57943e-05
2.09994e-05
2.57549e-05
2.0912e-05
2.46994e-05
2.03592e-05
9.28785e-06
2.05908e-05
9.20019e-06
2.47025e-05
2.57202e-05
2.05317e-05
2.69033e-05
2.47234e-05
2.57267e-05
2.03965e-05
2.05329e-05
9.04726e-06
2.04054e-05
9.05086e-06
2.47828e-05
2.69923e-05
2.09399e-05
2.57422e-05
2.08743e-05
2.57531e-05
2.47759e-05
2.05999e-05
9.23049e-06
9.23359e-06
2.04362e-05
2.47007e-05
2.68864e-05
2.57246e-05
2.04691e-05
2.5725e-05
2.053e-05
2.48014e-05
2.05984e-05
9.08539e-06
9.04784e-06
2.04023e-05
1.32669e-05
1.34228e-05
2.64932e-05
1.32538e-05
1.34687e-05
6.02446e-06
6.04592e-06
5.9774e-06
5.98687e-06
2.64416e-05
1.33092e-05
1.35021e-05
1.33429e-05
1.34439e-05
6.08159e-06
6.04779e-06
2.4359e-05
2.568e-05
2.04582e-05
2.67983e-05
2.44881e-05
2.56976e-05
2.07576e-05
2.02129e-05
9.41183e-06
2.0132e-05
9.42804e-06
2.02318e-05
9.31374e-06
2.01849e-05
9.29995e-06
2.4381e-05
2.69589e-05
2.57452e-05
2.09617e-05
2.57307e-05
2.07554e-05
2.45908e-05
2.45483e-05
2.67962e-05
2.57158e-05
2.08608e-05
2.57023e-05
2.07537e-05
2.45768e-05
2.02432e-05
9.49953e-06
9.451e-06
2.01892e-05
2.02366e-05
9.36895e-06
9.35529e-06
2.04224e-05
5.76779e-06
5.76073e-06
5.91739e-06
5.93144e-06
2.63112e-05
1.28997e-05
1.33135e-05
1.29369e-05
1.32294e-05
5.75689e-06
5.76974e-06
5.95219e-06
5.94255e-06
6.02622e-06
6.02496e-06
5.89834e-06
5.87841e-06
1.3367e-05
1.31665e-05
2.63215e-05
1.34355e-05
1.30555e-05
6.01437e-06
6.03816e-06
5.88078e-06
5.88159e-06
2.63034e-05
1.34076e-05
1.3135e-05
1.34708e-05
1.31745e-05
2.09251e-05
9.43052e-06
2.0688e-05
9.46165e-06
2.51157e-05
2.11456e-05
2.57521e-05
2.6901e-05
2.50404e-05
2.11339e-05
2.57629e-05
2.49979e-05
2.09125e-05
2.57678e-05
2.69222e-05
2.47702e-05
2.11357e-05
2.57774e-05
2.09098e-05
9.41121e-06
9.46153e-06
2.10557e-05
2.09702e-05
9.38814e-06
9.43136e-06
2.09425e-05
2.51188e-05
2.6918e-05
2.11009e-05
2.5797e-05
2.10755e-05
2.57902e-05
2.49278e-05
2.50335e-05
2.70133e-05
2.1029e-05
2.57918e-05
2.11626e-05
2.57794e-05
2.49213e-05
1.33471e-05
1.33592e-05
2.64649e-05
1.33483e-05
1.32998e-05
5.96378e-06
5.94457e-06
5.97959e-06
5.98766e-06
2.64689e-05
1.33452e-05
1.32746e-05
1.33322e-05
1.32973e-05
5.93645e-06
5.95244e-06
2.45698e-05
2.06606e-05
2.57426e-05
2.68838e-05
2.46316e-05
2.06153e-05
2.57614e-05
1.98976e-05
9.32998e-06
2.00954e-05
9.31483e-06
2.46325e-05
2.5799e-05
2.09866e-05
2.71656e-05
2.47033e-05
2.58123e-05
2.08558e-05
2.00046e-05
9.12084e-06
9.13694e-06
1.99594e-05
2.45516e-05
2.68742e-05
2.05736e-05
2.5777e-05
2.0666e-05
2.57694e-05
2.44424e-05
2.00802e-05
9.2707e-06
9.3459e-06
1.99008e-05
2.45782e-05
2.71356e-05
2.58113e-05
2.0993e-05
2.58074e-05
2.1004e-05
2.45215e-05
2.04507e-05
9.25785e-06
2.03569e-05
9.23624e-06
2.46795e-05
2.5722e-05
2.03303e-05
2.68645e-05
2.47694e-05
2.57325e-05
2.02127e-05
2.04202e-05
9.11717e-06
2.05369e-05
9.06232e-06
2.47597e-05
2.69951e-05
2.07815e-05
2.57648e-05
2.08343e-05
2.57743e-05
2.45835e-05
2.04514e-05
9.26795e-06
9.27895e-06
2.02268e-05
2.46101e-05
2.68739e-05
2.57425e-05
2.02533e-05
2.57354e-05
2.0365e-05
2.46099e-05
2.03934e-05
9.01396e-06
9.05747e-06
2.03182e-05
1.3362e-05
1.35262e-05
2.66024e-05
1.33413e-05
1.35738e-05
6.0987e-06
6.08978e-06
5.96849e-06
5.98244e-06
2.659e-05
1.33191e-05
1.35989e-05
1.33659e-05
1.35617e-05
6.10717e-06
6.10806e-06
2.4874e-05
2.5729e-05
2.07912e-05
2.68402e-05
2.47819e-05
2.57386e-05
2.09397e-05
2.0704e-05
9.54877e-06
2.03142e-05
9.56738e-06
2.06052e-05
9.37214e-06
2.04633e-05
9.37901e-06
2.49701e-05
2.70393e-05
2.58102e-05
2.13494e-05
2.57903e-05
2.11279e-05
2.49109e-05
2.49233e-05
2.6859e-05
2.57725e-05
2.09271e-05
2.57641e-05
2.10081e-05
2.48907e-05
2.06673e-05
9.61804e-06
9.5985e-06
2.07386e-05
2.07113e-05
9.39477e-06
9.4501e-06
2.07473e-05
5.75928e-06
5.7481e-06
5.97843e-06
5.96915e-06
2.62709e-05
1.28142e-05
1.33207e-05
1.28851e-05
1.33535e-05
5.75124e-06
5.75664e-06
5.94406e-06
5.95496e-06
6.01178e-06
5.96588e-06
5.88872e-06
5.86036e-06
1.34286e-05
1.31674e-05
2.63703e-05
1.33362e-05
1.3053e-05
5.95385e-06
5.96231e-06
5.81493e-06
5.86836e-06
2.63709e-05
1.33336e-05
1.30327e-05
1.32633e-05
1.30931e-05
2.09235e-05
9.4008e-06
2.09602e-05
9.37147e-06
2.48903e-05
2.10985e-05
2.57823e-05
2.69256e-05
2.48552e-05
2.1028e-05
2.58161e-05
2.49981e-05
2.11118e-05
2.5797e-05
2.70217e-05
2.49592e-05
2.10678e-05
2.58048e-05
2.1024e-05
9.39112e-06
9.37497e-06
2.07729e-05
2.08834e-05
9.38113e-06
9.41117e-06
2.0664e-05
2.50778e-05
2.70191e-05
2.08335e-05
2.58245e-05
2.09696e-05
2.58172e-05
2.4967e-05
2.49812e-05
2.70264e-05
2.07984e-05
2.58101e-05
2.10057e-05
2.58038e-05
2.4916e-05
1.33945e-05
1.3309e-05
2.64337e-05
1.32878e-05
1.32223e-05
5.95116e-06
5.94721e-06
5.94096e-06
5.9427e-06
2.63454e-05
1.32001e-05
1.33043e-05
1.32895e-05
1.33356e-05
5.95734e-06
5.96376e-06
2.42943e-05
2.05381e-05
2.57771e-05
2.6876e-05
2.42721e-05
2.06827e-05
2.57832e-05
1.9757e-05
9.31939e-06
1.98386e-05
9.20897e-06
2.42413e-05
2.5802e-05
2.10499e-05
2.71455e-05
2.43563e-05
2.58089e-05
2.08039e-05
1.9847e-05
9.07117e-06
9.1114e-06
1.96247e-05
2.41358e-05
2.68784e-05
2.05652e-05
2.57713e-05
2.05724e-05
2.57712e-05
2.41391e-05
1.96992e-05
9.237e-06
9.23656e-06
1.9784e-05
2.42707e-05
2.71564e-05
2.58073e-05
2.08642e-05
2.58033e-05
2.07798e-05
2.42403e-05
2.03355e-05
9.30266e-06
2.03972e-05
9.26584e-06
2.46166e-05
2.5743e-05
2.04474e-05
2.68818e-05
2.45298e-05
2.57493e-05
2.04282e-05
2.02132e-05
9.02963e-06
2.02777e-05
8.99968e-06
2.47776e-05
2.70441e-05
2.09259e-05
2.57993e-05
2.09263e-05
2.57865e-05
2.47629e-05
2.02238e-05
9.29582e-06
9.29553e-06
2.02416e-05
2.44134e-05
2.68692e-05
2.57311e-05
2.04053e-05
2.57465e-05
2.04163e-05
2.44994e-05
2.01094e-05
9.03908e-06
9.06478e-06
2.01045e-05
1.33158e-05
1.35766e-05
2.66363e-05
1.32659e-05
1.34937e-05
6.10888e-06
6.05708e-06
5.96291e-06
5.95826e-06
2.66346e-05
1.33244e-05
1.34977e-05
1.33132e-05
1.35288e-05
6.03992e-06
6.0656e-06
2.49331e-05
2.5767e-05
2.08022e-05
2.68897e-05
2.47187e-05
2.58023e-05
2.08142e-05
2.07515e-05
9.64573e-06
2.09221e-05
9.51953e-06
2.07389e-05
9.42894e-06
2.05592e-05
9.31436e-06
2.49501e-05
2.7042e-05
2.58292e-05
2.12182e-05
2.58153e-05
2.12393e-05
2.49237e-05
2.48771e-05
2.6898e-05
2.57924e-05
2.07037e-05
2.57975e-05
2.06978e-05
2.48165e-05
2.07998e-05
9.52256e-06
9.47162e-06
2.05785e-05
2.05854e-05
9.35022e-06
9.34703e-06
2.04678e-05
5.7517e-06
5.71208e-06
5.95778e-06
5.91333e-06
2.63305e-05
1.27674e-05
1.30801e-05
1.2859e-05
1.30543e-05
5.738e-06
5.74361e-06
5.8999e-06
5.91264e-06
5.96541e-06
5.9347e-06
5.83345e-06
5.8143e-06
1.33403e-05
1.3082e-05
2.63087e-05
1.32026e-05
1.30323e-05
5.93033e-06
5.936e-06
5.80102e-06
5.81323e-06
2.62426e-05
1.32705e-05
1.30219e-05
1.32901e-05
1.30155e-05
2.06761e-05
9.40151e-06
2.08304e-05
9.32677e-06
2.47792e-05
2.07286e-05
2.58246e-05
2.69504e-05
2.49914e-05
2.08628e-05
2.58304e-05
2.48509e-05
2.0982e-05
2.58061e-05
2.7011e-05
2.47844e-05
2.09644e-05
2.58138e-05
2.07925e-05
9.28706e-06
9.32304e-06
2.07671e-05
2.05811e-05
9.35127e-06
9.37482e-06
2.06765e-05
2.49055e-05
2.69108e-05
2.09085e-05
2.58238e-05
2.08737e-05
2.58228e-05
2.48953e-05
2.48766e-05
2.69896e-05
2.06021e-05
2.58126e-05
2.07476e-05
2.58078e-05
2.46428e-05
1.32013e-05
1.32638e-05
2.64754e-05
1.31855e-05
1.31876e-05
5.95325e-06
5.95045e-06
5.92428e-06
5.91704e-06
2.64858e-05
1.31982e-05
1.32686e-05
1.32191e-05
1.32949e-05
5.9278e-06
5.95725e-06
2.42357e-05
2.06342e-05
2.5765e-05
2.68016e-05
2.4343e-05
2.05702e-05
2.57693e-05
1.97192e-05
9.28634e-06
1.97434e-05
9.22301e-06
2.42084e-05
2.58003e-05
2.09259e-05
2.71611e-05
2.42988e-05
2.58026e-05
2.08684e-05
1.96534e-05
9.00285e-06
9.08743e-06
1.98193e-05
2.41535e-05
2.68755e-05
2.03976e-05
2.57636e-05
2.055e-05
2.5761e-05
2.43078e-05
1.97693e-05
9.21126e-06
9.23761e-06
1.96943e-05
2.4318e-05
2.70451e-05
2.57928e-05
2.07962e-05
2.57923e-05
2.07443e-05
2.43081e-05
2.03116e-05
9.32562e-06
2.03911e-05
9.28806e-06
2.45293e-05
2.57368e-05
2.04398e-05
2.67863e-05
2.46401e-05
2.57573e-05
2.03494e-05
2.02372e-05
9.03369e-06
2.02991e-05
9.00028e-06
2.47724e-05
2.7044e-05
2.08639e-05
2.5851e-05
2.08686e-05
2.58406e-05
2.47052e-05
2.04527e-05
9.24513e-06
9.31689e-06
2.02183e-05
2.43818e-05
2.68459e-05
2.57665e-05
2.03888e-05
2.5759e-05
2.04277e-05
2.45627e-05
2.01413e-05
8.86818e-06
9.02056e-06
2.01099e-05
1.32847e-05
1.34375e-05
2.66166e-05
1.33e-05
1.32931e-05
6.04558e-06
6.00624e-06
5.9433e-06
5.94087e-06
2.66047e-05
1.33051e-05
1.33941e-05
1.32792e-05
1.33813e-05
5.99423e-06
6.00017e-06
2.45474e-05
2.58121e-05
2.05646e-05
2.68755e-05
2.47664e-05
2.58216e-05
2.0773e-05
2.05484e-05
9.53714e-06
2.07469e-05
9.43167e-06
2.0613e-05
9.37381e-06
2.05339e-05
9.36077e-06
2.48127e-05
2.70369e-05
2.58717e-05
2.10578e-05
2.58617e-05
2.11086e-05
2.4846e-05
2.46934e-05
2.68893e-05
2.58258e-05
2.07292e-05
2.582e-05
2.07957e-05
2.48063e-05
2.07629e-05
9.39806e-06
9.45504e-06
2.05034e-05
2.06689e-05
9.26286e-06
9.3791e-06
2.06121e-05
5.74192e-06
5.72038e-06
5.89588e-06
5.89856e-06
2.62846e-05
1.27747e-05
1.30962e-05
1.2821e-05
1.31555e-05
5.69702e-06
5.72586e-06
5.85296e-06
5.90686e-06
5.9332e-06
5.9388e-06
5.80899e-06
5.81097e-06
1.32751e-05
1.30132e-05
2.63229e-05
1.32879e-05
1.30046e-05
5.94834e-06
5.94412e-06
5.79932e-06
5.82267e-06
2.63235e-05
1.33169e-05
1.29411e-05
1.3265e-05
1.3071e-05
2.07018e-05
9.38809e-06
2.07322e-05
9.39653e-06
2.44917e-05
2.08917e-05
2.5816e-05
2.68816e-05
2.47318e-05
2.07558e-05
2.58163e-05
2.48067e-05
2.07827e-05
2.58086e-05
2.69878e-05
2.48369e-05
2.078e-05
2.5812e-05
2.06936e-05
9.32111e-06
9.29971e-06
2.06703e-05
2.06109e-05
9.41309e-06
9.42622e-06
2.07552e-05
2.46403e-05
2.68915e-05
2.08863e-05
2.58037e-05
2.07258e-05
2.58047e-05
2.45088e-05
2.46382e-05
2.70043e-05
2.08527e-05
2.58006e-05
2.07432e-05
2.5798e-05
2.4754e-05
1.31643e-05
1.31832e-05
2.6445e-05
1.31477e-05
1.31675e-05
5.91184e-06
5.90042e-06
5.93515e-06
5.93375e-06
2.64457e-05
1.31753e-05
1.31701e-05
1.32236e-05
1.30791e-05
5.90552e-06
5.88517e-06
2.41383e-05
2.0507e-05
2.57576e-05
2.68756e-05
2.43079e-05
2.03687e-05
2.57599e-05
1.98026e-05
9.25366e-06
1.97657e-05
9.24387e-06
2.42227e-05
2.5785e-05
2.0792e-05
2.71159e-05
2.43197e-05
2.57889e-05
2.08188e-05
1.96801e-05
9.00251e-06
9.0485e-06
1.96809e-05
2.43102e-05
2.68689e-05
2.05385e-05
2.57506e-05
2.03502e-05
2.57504e-05
2.40455e-05
1.98141e-05
9.24104e-06
9.28021e-06
1.97351e-05
2.41973e-05
2.70982e-05
2.57835e-05
2.06688e-05
2.57819e-05
2.08254e-05
2.42404e-05
2.01395e-05
9.29241e-06
2.04345e-05
9.18071e-06
2.45445e-05
2.57622e-05
2.02519e-05
2.67999e-05
2.45231e-05
2.57677e-05
2.03421e-05
2.01827e-05
8.95871e-06
2.0229e-05
8.94586e-06
2.43869e-05
2.70484e-05
2.07472e-05
2.58525e-05
2.06691e-05
2.58501e-05
2.45524e-05
2.02656e-05
9.22755e-06
9.22357e-06
2.02791e-05
2.43521e-05
2.6814e-05
2.57665e-05
2.03407e-05
2.57628e-05
2.02913e-05
2.45181e-05
2.00955e-05
9.0102e-06
9.00215e-06
2.02167e-05
1.33144e-05
1.33347e-05
2.65233e-05
1.32251e-05
1.33819e-05
5.97697e-06
5.99331e-06
5.90093e-06
5.93944e-06
2.65383e-05
1.31221e-05
1.3389e-05
1.31698e-05
1.33397e-05
5.98299e-06
6.00017e-06
2.48232e-05
2.58011e-05
2.07492e-05
2.68763e-05
2.4818e-05
2.58064e-05
2.06043e-05
2.06979e-05
9.38622e-06
2.0751e-05
9.35647e-06
2.05319e-05
9.28227e-06
2.06837e-05
9.20465e-06
2.47655e-05
2.70513e-05
2.58664e-05
2.10684e-05
2.58631e-05
2.1073e-05
2.4787e-05
2.46376e-05
2.68717e-05
2.57839e-05
2.07116e-05
2.57827e-05
2.05076e-05
2.47044e-05
2.0716e-05
9.42247e-06
9.40775e-06
2.06472e-05
2.04089e-05
9.20589e-06
9.24366e-06
2.04129e-05
5.70876e-06
5.72474e-06
5.84972e-06
5.84181e-06
2.61085e-05
1.27576e-05
1.30071e-05
1.28374e-05
1.29363e-05
5.73017e-06
5.72174e-06
5.83415e-06
5.84028e-06
5.95917e-06
5.92562e-06
5.80229e-06
5.7849e-06
1.33588e-05
1.3075e-05
2.62614e-05
1.32515e-05
1.29475e-05
5.90259e-06
5.92988e-06
5.76778e-06
5.78853e-06
2.62427e-05
1.31062e-05
1.29163e-05