/*--------------------------------*- C++ -*----------------------------------*\
| =========                 |                                                 |
| \\      /  F ield         | OpenFOAM: The Open Source CFD Toolbox           |
|  \\    /   O peration     | Version:  2206                                  |
|   \\  /    A nd           | Website:  www.openfoam.com                      |
|    \\/     M anipulation  |                                                 |
\*---------------------------------------------------------------------------*/
FoamFile
{
    version     2.0;
    format      ascii;
    arch        "LSB;label=32;scalar=64";
    class       volScalarField;
    location    "50";
    object      p;
}
// * * * * * * * * * * * * * * * * * * * * * * * * * * * * * * * * * * * * * //

dimensions      [0 2 -2 0 0 0 0];

internalField   nonuniform List<scalar> 
66940
(
-0.0190555
-0.0190556
-0.0190555
-0.0190424
-0.0192742
-0.0192741
-0.0192742
-0.0192609
-0.0194926
-0.0194926
-0.0194926
-0.0194794
-0.0197112
-0.0197112
-0.0197113
-0.019698
-0.0199301
-0.0199301
-0.0199301
-0.0199168
-0.0201492
-0.020149
-0.0201491
-0.0201356
-0.0203682
-0.0203676
-0.0203677
-0.0203538
-0.0205874
-0.0205853
-0.0205855
-0.0205706
-0.0208067
-0.0208008
-0.0208011
-0.0207855
-0.0210183
-0.0210065
-0.0210071
-0.020997
-0.0211236
-0.0211473
-0.0211476
-0.0211913
-0.0200914
-0.0206757
-0.0206345
-0.0210822
-0.019014
-0.0190009
-0.0190007
-0.019014
-0.0190007
-0.0190007
-0.0190007
-0.0190006
-0.019014
-0.0190009
-0.0190008
-0.019014
-0.0190423
-0.0192327
-0.0190555
-0.0190556
-0.0192196
-0.0192196
-0.0190424
-0.0192327
-0.0190555
-0.0190554
-0.0192195
-0.0192195
-0.0190556
-0.0192195
-0.0192195
-0.0190423
-0.0192327
-0.0190557
-0.0192196
-0.0192196
-0.0192327
-0.0192609
-0.0194511
-0.0192742
-0.0192741
-0.0194379
-0.0194379
-0.0192609
-0.0194511
-0.0192741
-0.0192741
-0.0194379
-0.0194379
-0.019274
-0.0194379
-0.0194379
-0.0192609
-0.0194511
-0.0192742
-0.0194379
-0.0194379
-0.0194511
-0.0194794
-0.0196696
-0.0194926
-0.0194926
-0.0196563
-0.0196563
-0.0194794
-0.0196696
-0.0194926
-0.0194925
-0.0196563
-0.0196563
-0.0194924
-0.0196563
-0.0196563
-0.0194794
-0.0196696
-0.0194927
-0.0196563
-0.0196563
-0.0196696
-0.019698
-0.0198884
-0.0197112
-0.0197112
-0.0198751
-0.0198751
-0.019698
-0.0198884
-0.0197112
-0.0197112
-0.019875
-0.019875
-0.0197111
-0.019875
-0.0198751
-0.019698
-0.0198883
-0.0197112
-0.019875
-0.019875
-0.0198884
-0.0199169
-0.0201073
-0.0199301
-0.0199301
-0.020094
-0.020094
-0.0199168
-0.0201073
-0.0199301
-0.0199301
-0.020094
-0.020094
-0.01993
-0.020094
-0.020094
-0.0199168
-0.0201073
-0.0199302
-0.0200939
-0.0200939
-0.0201073
-0.0201356
-0.0203263
-0.020149
-0.020149
-0.020313
-0.020313
-0.0201356
-0.0203263
-0.020149
-0.020149
-0.020313
-0.0203129
-0.0201489
-0.0203129
-0.020313
-0.0201356
-0.0203263
-0.0201491
-0.0203129
-0.0203129
-0.0203263
-0.0203537
-0.0205451
-0.0203676
-0.0203676
-0.0205319
-0.0205319
-0.0203537
-0.020545
-0.0203676
-0.0203676
-0.020532
-0.0205319
-0.0203675
-0.0205319
-0.0205319
-0.0203538
-0.020545
-0.0203677
-0.0205318
-0.0205318
-0.020545
-0.0205705
-0.0207639
-0.0205853
-0.0205853
-0.020752
-0.0207519
-0.0205705
-0.0207638
-0.0205853
-0.0205853
-0.0207521
-0.020752
-0.0205853
-0.020752
-0.020752
-0.0205706
-0.0207638
-0.0205855
-0.0207517
-0.0207517
-0.0207638
-0.0207853
-0.0209829
-0.0208008
-0.0208008
-0.0209761
-0.0209759
-0.0207854
-0.0209828
-0.0208007
-0.0208007
-0.0209763
-0.0209762
-0.0208007
-0.0209762
-0.0209763
-0.0207855
-0.0209828
-0.0208011
-0.0209756
-0.0209756
-0.0209828
-0.0209966
-0.0211923
-0.0210065
-0.0210067
-0.0211987
-0.0211982
-0.0209971
-0.0211921
-0.0210064
-0.0210064
-0.0211991
-0.0211992
-0.0210064
-0.0211991
-0.0211996
-0.0209969
-0.0211921
-0.021007
-0.0211977
-0.0211976
-0.0211922
-0.0211909
-0.0211549
-0.0211461
-0.0211468
-0.0211581
-0.0211535
-0.0211924
-0.021164
-0.0211474
-0.021147
-0.0211538
-0.0211569
-0.021147
-0.0211616
-0.0211564
-0.0211911
-0.0211548
-0.0211474
-0.0211553
-0.0211565
-0.0211551
-0.021082
-0.0206358
-0.0206297
-0.0211033
-0.0206352
-0.020638
-0.0200601
-0.0200932
-0.0200925
-0.0206381
-0.0210821
-0.0206339
-0.0189045
-0.0190008
-0.0190006
-0.0190008
-0.0190006
-0.0189039
-0.0188919
-0.0189041
-0.0188921
-0.0189046
-0.0189047
-0.0189044
-0.0191233
-0.0190422
-0.0190424
-0.0191234
-0.0190422
-0.0191234
-0.0191236
-0.0190422
-0.0190421
-0.0191235
-0.0190556
-0.0190554
-0.0190556
-0.0192195
-0.0192196
-0.0192196
-0.0192196
-0.0191226
-0.0190429
-0.0190556
-0.0191102
-0.0190431
-0.0191228
-0.0191102
-0.0190422
-0.0191235
-0.0191222
-0.0190555
-0.019043
-0.0191102
-0.0190434
-0.0191101
-0.0191226
-0.0190422
-0.0190424
-0.0191234
-0.0191235
-0.0191232
-0.0193419
-0.019261
-0.0192611
-0.0193419
-0.019261
-0.019342
-0.019342
-0.0192608
-0.0192606
-0.019342
-0.0192741
-0.0192741
-0.019274
-0.0194379
-0.0194379
-0.0194379
-0.0194379
-0.019341
-0.0192615
-0.019274
-0.0193286
-0.0192617
-0.0193412
-0.0193286
-0.0192608
-0.0193419
-0.0193408
-0.0192742
-0.0192618
-0.0193287
-0.0192622
-0.0193287
-0.0193411
-0.0192608
-0.0192611
-0.0193419
-0.0193418
-0.0193418
-0.0195602
-0.0194794
-0.0194795
-0.0195603
-0.0194793
-0.0195603
-0.0195605
-0.0194791
-0.019479
-0.0195604
-0.0194925
-0.0194925
-0.0194925
-0.0196563
-0.0196564
-0.0196564
-0.0196564
-0.0195594
-0.0194799
-0.0194925
-0.019547
-0.0194801
-0.0195597
-0.019547
-0.0194792
-0.0195603
-0.0195591
-0.0194926
-0.0194802
-0.019547
-0.0194805
-0.019547
-0.0195594
-0.0194792
-0.0194795
-0.0195603
-0.0195604
-0.01956
-0.0197788
-0.0196979
-0.0196979
-0.0197789
-0.0196979
-0.0197789
-0.0197791
-0.0196977
-0.0196976
-0.019779
-0.0197111
-0.0197111
-0.0197111
-0.019875
-0.0198751
-0.0198751
-0.0198751
-0.0197781
-0.0196985
-0.0197112
-0.0197656
-0.0196987
-0.0197783
-0.0197656
-0.0196978
-0.019779
-0.0197777
-0.0197112
-0.0196987
-0.0197656
-0.019699
-0.0197655
-0.0197781
-0.0196978
-0.019698
-0.0197789
-0.0197789
-0.0197788
-0.0199977
-0.0199167
-0.0199168
-0.0199978
-0.0199167
-0.0199977
-0.019998
-0.0199166
-0.0199164
-0.0199979
-0.01993
-0.01993
-0.01993
-0.0200939
-0.0200939
-0.0200939
-0.0200939
-0.019997
-0.0199173
-0.01993
-0.0199844
-0.0199175
-0.0199972
-0.0199844
-0.0199166
-0.0199979
-0.0199966
-0.01993
-0.0199175
-0.0199844
-0.0199178
-0.0199844
-0.0199969
-0.0199166
-0.0199168
-0.0199978
-0.019998
-0.0199975
-0.0202166
-0.0201356
-0.0201357
-0.0202167
-0.0201356
-0.0202168
-0.020217
-0.0201355
-0.0201354
-0.0202169
-0.0201491
-0.0201491
-0.0201491
-0.0203125
-0.0203125
-0.0203125
-0.0203125
-0.0202159
-0.0201363
-0.0201489
-0.0202034
-0.0201364
-0.0202162
-0.0202035
-0.0201356
-0.0202169
-0.0202155
-0.0201489
-0.0201365
-0.0202034
-0.0201368
-0.0202034
-0.0202159
-0.0201356
-0.0201358
-0.0202168
-0.0202168
-0.0202167
-0.0204353
-0.0203544
-0.0203544
-0.0204354
-0.0203544
-0.0204354
-0.0204357
-0.0203543
-0.0203542
-0.0204356
-0.0203682
-0.0203682
-0.0203681
-0.0205303
-0.0205303
-0.0205303
-0.0205303
-0.0204345
-0.0203551
-0.0203674
-0.0204223
-0.020355
-0.0204349
-0.0204224
-0.0203544
-0.0204356
-0.0204341
-0.0203675
-0.0203554
-0.0204223
-0.0203554
-0.0204223
-0.0204347
-0.0203543
-0.0203546
-0.0204356
-0.0204356
-0.0204352
-0.0206539
-0.0205728
-0.0205727
-0.0206539
-0.0205728
-0.0206539
-0.0206542
-0.0205727
-0.0205724
-0.020654
-0.0205873
-0.0205874
-0.0205873
-0.0207472
-0.0207471
-0.0207471
-0.0207472
-0.0206525
-0.0205737
-0.0205852
-0.0206416
-0.0205728
-0.0206534
-0.0206415
-0.0205728
-0.0206539
-0.0206522
-0.0205854
-0.0205739
-0.0206415
-0.0205732
-0.0206413
-0.0206533
-0.0205727
-0.020573
-0.0206544
-0.020654
-0.0206539
-0.020872
-0.020791
-0.0207906
-0.0208719
-0.0207912
-0.0208717
-0.0208723
-0.0207909
-0.0207903
-0.020872
-0.0208067
-0.0208067
-0.0208067
-0.0209626
-0.0209625
-0.0209626
-0.0209626
-0.0208692
-0.0207924
-0.0208013
-0.0208632
-0.0207891
-0.0208719
-0.020862
-0.0207911
-0.0208718
-0.0208689
-0.0208016
-0.0207926
-0.0208629
-0.0207896
-0.0208616
-0.0208717
-0.0207912
-0.0207914
-0.0208733
-0.020872
-0.0208716
-0.0210912
-0.0210098
-0.0210076
-0.0210911
-0.0210107
-0.0210902
-0.0210915
-0.0210098
-0.0210074
-0.0210912
-0.0210184
-0.0210183
-0.0210182
-0.0211589
-0.0211584
-0.0211587
-0.0211589
-0.0210825
-0.021012
-0.0210076
-0.0210902
-0.0210002
-0.021092
-0.0210854
-0.0210107
-0.0210902
-0.0210821
-0.0210079
-0.0210121
-0.0210893
-0.0210009
-0.0210846
-0.0210917
-0.0210109
-0.0210111
-0.0210913
-0.0210901
-0.0210901
-0.0213339
-0.0212355
-0.0212221
-0.0213585
-0.021241
-0.0213523
-0.021335
-0.0212359
-0.0212215
-0.0213587
-0.0211243
-0.021124
-0.0211237
-0.0209187
-0.0209042
-0.0209187
-0.0209193
-0.0212669
-0.0212327
-0.021126
-0.0212668
-0.0211853
-0.0213369
-0.0212539
-0.0212412
-0.0213525
-0.0212643
-0.0211237
-0.0212326
-0.021266
-0.0211871
-0.0212521
-0.0213359
-0.0212378
-0.0212377
-0.021252
-0.0213458
-0.021345
-0.0217806
-0.021574
-0.0214511
-0.0226117
-0.0216573
-0.0228413
-0.0217772
-0.0215744
-0.0214518
-0.0226115
-0.0185565
-0.0204694
-0.0204722
-0.0197078
-0.020424
-0.0191271
-0.0191223
-0.0209661
-0.0214735
-0.0204228
-0.0200848
-0.0211474
-0.0220763
-0.0195846
-0.0216569
-0.02284
-0.0209653
-0.0204242
-0.0214717
-0.0200577
-0.0211492
-0.019591
-0.0220783
-0.0216121
-0.0216125
-0.0202934
-0.0223661
-0.0223667
-0.0190138
-0.0189328
-0.0190141
-0.0189329
-0.0189329
-0.0190138
-0.019014
-0.0189329
-0.0189329
-0.0189045
-0.0188913
-0.0189035
-0.0189329
-0.0190138
-0.018933
-0.0190137
-0.0189329
-0.0190138
-0.018933
-0.0190137
-0.0189338
-0.0189458
-0.0190131
-0.0190008
-0.0189337
-0.0189456
-0.0190128
-0.0189338
-0.0189456
-0.0190131
-0.0190008
-0.0189337
-0.0189455
-0.0190128
-0.0189046
-0.0189044
-0.0189047
-0.0189048
-0.0190138
-0.0189329
-0.0189327
-0.0190138
-0.019014
-0.018933
-0.0189329
-0.0190141
-0.0189329
-0.0189327
-0.0190141
-0.0189329
-0.0190143
-0.0189337
-0.0189462
-0.0190134
-0.0190007
-0.0189336
-0.0189462
-0.0190132
-0.0189327
-0.0190142
-0.0189329
-0.0190143
-0.0189338
-0.0189462
-0.0190007
-0.0190134
-0.0189462
-0.0189336
-0.0190132
-0.0189049
-0.0189048
-0.0189039
-0.018892
-0.0188921
-0.0189041
-0.0189049
-0.0189048
-0.0189337
-0.0189459
-0.0190134
-0.0190007
-0.0189336
-0.0189459
-0.0190132
-0.0189327
-0.0190142
-0.0189329
-0.0190142
-0.0189337
-0.0189458
-0.0190006
-0.0190134
-0.0189458
-0.0189336
-0.0190132
-0.0189327
-0.0190142
-0.0189329
-0.0190142
-0.0190142
-0.0189329
-0.0189329
-0.0190141
-0.0190138
-0.0189329
-0.0189329
-0.0190138
-0.0189329
-0.0189339
-0.0189459
-0.0190008
-0.0190131
-0.0189455
-0.0189337
-0.0190128
-0.0189339
-0.0189458
-0.0190008
-0.0190131
-0.0189455
-0.0189337
-0.0190128
-0.0189329
-0.0190138
-0.018933
-0.0190137
-0.0189329
-0.0190138
-0.018933
-0.0190137
-0.0189048
-0.0189045
-0.0189327
-0.019014
-0.0190138
-0.0189329
-0.018933
-0.0190141
-0.0189329
-0.0190139
-0.0189328
-0.0190422
-0.0191234
-0.0190422
-0.0191235
-0.0190423
-0.0190423
-0.0191234
-0.0191233
-0.0191233
-0.0192328
-0.0191518
-0.0192327
-0.0191516
-0.0191516
-0.0192326
-0.0192327
-0.0191519
-0.0191517
-0.0191233
-0.0190422
-0.0190424
-0.0191234
-0.0191222
-0.019043
-0.0190555
-0.0191101
-0.0190434
-0.0191225
-0.0191101
-0.0191222
-0.0190431
-0.0190555
-0.0191102
-0.0190434
-0.0191225
-0.0191101
-0.0191518
-0.0192327
-0.0191518
-0.0192327
-0.0191518
-0.0192328
-0.0191518
-0.0192327
-0.0191528
-0.0191649
-0.0192319
-0.0192196
-0.0191526
-0.0191649
-0.0192316
-0.0191528
-0.0191649
-0.0192319
-0.0192196
-0.0191526
-0.0191649
-0.0192316
-0.0190424
-0.0190423
-0.0191234
-0.0191231
-0.0191235
-0.0190422
-0.0191235
-0.0192328
-0.0191518
-0.0191516
-0.0192326
-0.0192326
-0.0191519
-0.0191517
-0.0192327
-0.0191516
-0.0191225
-0.0190429
-0.0190554
-0.0191101
-0.0190431
-0.0191227
-0.0191101
-0.0191236
-0.0190422
-0.0190421
-0.0191235
-0.0191226
-0.0190554
-0.0190429
-0.0191101
-0.0190431
-0.0191101
-0.0191227
-0.0191514
-0.0192328
-0.0191516
-0.0192328
-0.0191524
-0.0191649
-0.019232
-0.0192195
-0.0191523
-0.0191649
-0.0192318
-0.0191514
-0.0192328
-0.0191516
-0.0192328
-0.0191524
-0.0191649
-0.0192195
-0.019232
-0.0191649
-0.0191523
-0.0192318
-0.0191236
-0.0190422
-0.0190422
-0.0191235
-0.0191226
-0.0190557
-0.0190429
-0.0191103
-0.0190431
-0.0191102
-0.0191228
-0.0191236
-0.0190422
-0.0190422
-0.0191235
-0.0191524
-0.0191648
-0.019232
-0.0192194
-0.0191523
-0.0191648
-0.0192318
-0.0191514
-0.0192327
-0.0191516
-0.0192328
-0.0191524
-0.0191648
-0.0192195
-0.019232
-0.0191648
-0.0191523
-0.0192318
-0.0191514
-0.0192327
-0.0191516
-0.0192328
-0.0190423
-0.0190423
-0.0191234
-0.0191234
-0.0191232
-0.0190422
-0.0191234
-0.0192328
-0.0191516
-0.0191517
-0.0192327
-0.0192326
-0.0191517
-0.0191519
-0.0192328
-0.0191518
-0.0191222
-0.0190555
-0.0190431
-0.0191102
-0.0190434
-0.0191101
-0.0191225
-0.0191233
-0.0190422
-0.0190424
-0.0191234
-0.0191233
-0.0190422
-0.0190424
-0.0191234
-0.0191529
-0.0191649
-0.0192195
-0.0192319
-0.0191649
-0.0191526
-0.0192316
-0.0191528
-0.0191651
-0.0192196
-0.0192319
-0.0191649
-0.0191526
-0.0192316
-0.0191518
-0.0192328
-0.0191518
-0.0192327
-0.0191518
-0.0192328
-0.0191518
-0.0192327
-0.0190422
-0.0191235
-0.0190422
-0.0191234
-0.0191516
-0.0192327
-0.0192326
-0.0191516
-0.019152
-0.0192327
-0.0191516
-0.0192328
-0.0191518
-0.019261
-0.0193419
-0.0192608
-0.0193419
-0.0192611
-0.0192609
-0.0193419
-0.0193418
-0.0193418
-0.0194511
-0.0193702
-0.0194511
-0.01937
-0.0193702
-0.019451
-0.019451
-0.0193703
-0.0193701
-0.0193419
-0.0192611
-0.0192612
-0.0193419
-0.0193408
-0.0192618
-0.0192741
-0.0193287
-0.0192621
-0.0193411
-0.0193287
-0.0193408
-0.0192618
-0.0192741
-0.0193287
-0.0192621
-0.0193411
-0.0193286
-0.0193703
-0.0194511
-0.0193702
-0.019451
-0.0193703
-0.0194511
-0.0193703
-0.019451
-0.0193713
-0.0193834
-0.0194503
-0.0194379
-0.0193711
-0.0193834
-0.01945
-0.0193713
-0.0193835
-0.0194503
-0.0194379
-0.0193711
-0.0193835
-0.01945
-0.0192611
-0.0192609
-0.0193419
-0.0193418
-0.0193418
-0.0192608
-0.0193419
-0.0194511
-0.0193702
-0.0193702
-0.019451
-0.019451
-0.0193704
-0.0193701
-0.0194511
-0.01937
-0.019341
-0.0192615
-0.019274
-0.0193286
-0.0192616
-0.0193412
-0.0193286
-0.019342
-0.0192608
-0.0192607
-0.0193419
-0.019341
-0.019274
-0.0192615
-0.0193286
-0.0192616
-0.0193286
-0.0193412
-0.0193698
-0.0194511
-0.01937
-0.0194512
-0.0193709
-0.0193834
-0.0194504
-0.0194378
-0.0193708
-0.0193833
-0.0194502
-0.0193698
-0.0194511
-0.01937
-0.0194512
-0.0193709
-0.0193834
-0.0194379
-0.0194504
-0.0193834
-0.0193708
-0.0194502
-0.019342
-0.0192608
-0.0192607
-0.0193419
-0.019341
-0.019274
-0.0192615
-0.0193286
-0.0192617
-0.0193286
-0.0193412
-0.019342
-0.0192608
-0.0192607
-0.0193419
-0.0193709
-0.0193833
-0.0194504
-0.0194378
-0.0193708
-0.0193833
-0.0194502
-0.0193698
-0.0194511
-0.01937
-0.0194512
-0.0193709
-0.0193834
-0.0194379
-0.0194504
-0.0193834
-0.0193708
-0.0194502
-0.0193698
-0.0194511
-0.01937
-0.0194512
-0.0192609
-0.0192611
-0.0193419
-0.0193419
-0.0193418
-0.019261
-0.019342
-0.0194511
-0.01937
-0.0193702
-0.0194511
-0.019451
-0.0193701
-0.0193703
-0.0194511
-0.0193702
-0.0193408
-0.0192741
-0.0192619
-0.0193287
-0.0192622
-0.0193286
-0.0193411
-0.0193419
-0.0192611
-0.0192612
-0.0193419
-0.0193419
-0.0192611
-0.0192612
-0.0193419
-0.0193714
-0.0193834
-0.0194379
-0.0194503
-0.0193834
-0.0193711
-0.01945
-0.0193714
-0.0193835
-0.0194379
-0.0194503
-0.0193834
-0.0193711
-0.01945
-0.0193703
-0.0194511
-0.0193703
-0.019451
-0.0193703
-0.0194511
-0.0193703
-0.019451
-0.0192608
-0.0193419
-0.0192611
-0.019342
-0.0193702
-0.019451
-0.019451
-0.0193701
-0.0193703
-0.0194511
-0.01937
-0.0194511
-0.0193702
-0.0194794
-0.0195603
-0.0194792
-0.0195603
-0.0194794
-0.0194793
-0.0195603
-0.0195602
-0.0195602
-0.0196696
-0.0195886
-0.0196696
-0.0195885
-0.0195886
-0.0196695
-0.0196696
-0.0195887
-0.0195886
-0.0195602
-0.0194794
-0.0194795
-0.0195603
-0.0195591
-0.0194802
-0.0194925
-0.019547
-0.0194805
-0.0195594
-0.019547
-0.0195591
-0.0194802
-0.0194925
-0.019547
-0.0194805
-0.0195594
-0.019547
-0.0195887
-0.0196695
-0.0195886
-0.0196695
-0.0195887
-0.0196696
-0.0195886
-0.0196694
-0.0195897
-0.0196019
-0.0196687
-0.0196563
-0.0195894
-0.0196019
-0.0196684
-0.0195897
-0.0196019
-0.0196687
-0.0196563
-0.0195895
-0.0196019
-0.0196684
-0.0194795
-0.0194792
-0.0195603
-0.01956
-0.0195604
-0.0194792
-0.0195604
-0.0196696
-0.0195886
-0.0195886
-0.0196695
-0.0196696
-0.0195887
-0.0195886
-0.0196696
-0.0195885
-0.0195595
-0.0194799
-0.0194925
-0.0195469
-0.01948
-0.0195596
-0.0195469
-0.0195605
-0.0194792
-0.0194791
-0.0195603
-0.0195595
-0.0194925
-0.0194799
-0.0195469
-0.0194801
-0.0195469
-0.0195596
-0.0195883
-0.0196697
-0.0195884
-0.0196698
-0.0195893
-0.0196019
-0.0196689
-0.0196563
-0.0195892
-0.0196018
-0.0196688
-0.0195883
-0.0196697
-0.0195885
-0.0196698
-0.0195893
-0.0196019
-0.0196563
-0.019669
-0.0196019
-0.0195892
-0.0196688
-0.0195605
-0.0194792
-0.0194791
-0.0195604
-0.0195594
-0.0194925
-0.0194799
-0.019547
-0.0194801
-0.019547
-0.0195596
-0.0195605
-0.0194792
-0.0194791
-0.0195604
-0.0195893
-0.0196018
-0.0196689
-0.0196563
-0.0195892
-0.0196018
-0.0196688
-0.0195883
-0.0196697
-0.0195885
-0.0196697
-0.0195893
-0.0196018
-0.0196563
-0.0196689
-0.0196019
-0.0195892
-0.0196688
-0.0195883
-0.0196696
-0.0195884
-0.0196697
-0.0194793
-0.0194794
-0.0195603
-0.0195603
-0.0195601
-0.0194793
-0.0195603
-0.0196697
-0.0195885
-0.0195886
-0.0196696
-0.0196694
-0.0195886
-0.0195887
-0.0196696
-0.0195886
-0.0195591
-0.0194925
-0.0194802
-0.0195469
-0.0194805
-0.0195469
-0.0195594
-0.0195602
-0.0194794
-0.0194795
-0.0195603
-0.0195602
-0.0194794
-0.0194795
-0.0195603
-0.0195897
-0.0196019
-0.0196563
-0.0196687
-0.0196018
-0.0195894
-0.0196684
-0.0195897
-0.019602
-0.0196563
-0.0196687
-0.0196019
-0.0195895
-0.0196684
-0.0195887
-0.0196696
-0.0195887
-0.0196694
-0.0195887
-0.0196696
-0.0195886
-0.0196694
-0.0194792
-0.0195604
-0.0194794
-0.0195603
-0.0195887
-0.0196696
-0.0196694
-0.0195884
-0.0195888
-0.0196696
-0.0195884
-0.0196696
-0.0195886
-0.0196979
-0.0197789
-0.0196977
-0.019779
-0.019698
-0.0196978
-0.0197789
-0.0197788
-0.0197789
-0.0198883
-0.0198072
-0.0198884
-0.0198072
-0.0198074
-0.0198882
-0.0198884
-0.0198074
-0.0198073
-0.0197788
-0.0196979
-0.019698
-0.0197789
-0.0197778
-0.0196987
-0.0197112
-0.0197655
-0.019699
-0.0197781
-0.0197656
-0.0197778
-0.0196987
-0.0197111
-0.0197655
-0.019699
-0.0197781
-0.0197655
-0.0198073
-0.0198883
-0.0198073
-0.0198882
-0.0198073
-0.0198883
-0.0198073
-0.0198882
-0.0198084
-0.0198207
-0.0198875
-0.0198751
-0.0198081
-0.0198206
-0.0198872
-0.0198084
-0.0198207
-0.0198875
-0.0198751
-0.0198081
-0.0198207
-0.0198872
-0.019698
-0.0196978
-0.0197789
-0.0197788
-0.0197789
-0.0196977
-0.019779
-0.0198883
-0.0198072
-0.0198074
-0.0198882
-0.0198884
-0.0198074
-0.0198073
-0.0198885
-0.0198071
-0.0197781
-0.0196985
-0.0197111
-0.0197655
-0.0196986
-0.0197783
-0.0197655
-0.0197791
-0.0196977
-0.0196977
-0.019779
-0.0197781
-0.0197111
-0.0196985
-0.0197655
-0.0196987
-0.0197655
-0.0197783
-0.019807
-0.0198885
-0.0198071
-0.0198885
-0.019808
-0.0198207
-0.0198877
-0.019875
-0.0198079
-0.0198206
-0.0198876
-0.019807
-0.0198885
-0.0198071
-0.0198885
-0.0198081
-0.0198207
-0.0198751
-0.0198878
-0.0198207
-0.0198079
-0.0198876
-0.0197791
-0.0196977
-0.0196977
-0.019779
-0.0197781
-0.0197111
-0.0196985
-0.0197655
-0.0196986
-0.0197655
-0.0197783
-0.0197791
-0.0196977
-0.0196977
-0.019779
-0.0198081
-0.0198206
-0.0198877
-0.019875
-0.0198079
-0.0198206
-0.0198876
-0.019807
-0.0198885
-0.0198071
-0.0198886
-0.0198081
-0.0198207
-0.0198751
-0.0198877
-0.0198207
-0.0198079
-0.0198876
-0.019807
-0.0198885
-0.0198071
-0.0198886
-0.0196979
-0.0196979
-0.0197789
-0.0197789
-0.0197787
-0.0196978
-0.0197789
-0.0198885
-0.0198071
-0.0198074
-0.0198884
-0.0198882
-0.0198072
-0.0198074
-0.0198883
-0.0198072
-0.0197777
-0.0197111
-0.0196987
-0.0197655
-0.019699
-0.0197655
-0.0197781
-0.0197788
-0.0196979
-0.019698
-0.0197789
-0.0197788
-0.0196979
-0.019698
-0.0197789
-0.0198084
-0.0198207
-0.019875
-0.0198875
-0.0198206
-0.0198081
-0.0198872
-0.0198084
-0.0198207
-0.019875
-0.0198875
-0.0198206
-0.0198081
-0.0198872
-0.0198073
-0.0198883
-0.0198073
-0.0198882
-0.0198073
-0.0198883
-0.0198073
-0.0198882
-0.0196977
-0.019779
-0.0196979
-0.0197789
-0.0198074
-0.0198883
-0.0198882
-0.0198072
-0.0198074
-0.0198884
-0.0198071
-0.0198883
-0.0198072
-0.0199167
-0.0199978
-0.0199166
-0.0199979
-0.0199168
-0.0199167
-0.0199978
-0.0199977
-0.0199978
-0.0201073
-0.0200262
-0.0201074
-0.0200261
-0.0200263
-0.0201072
-0.0201073
-0.0200263
-0.0200262
-0.0199977
-0.0199167
-0.0199168
-0.0199977
-0.0199966
-0.0199175
-0.01993
-0.0199844
-0.0199178
-0.019997
-0.0199844
-0.0199966
-0.0199175
-0.01993
-0.0199844
-0.0199178
-0.0199969
-0.0199844
-0.0200262
-0.0201073
-0.0200262
-0.0201072
-0.0200262
-0.0201073
-0.0200262
-0.0201072
-0.0200273
-0.0200396
-0.0201065
-0.020094
-0.0200271
-0.0200395
-0.0201062
-0.0200273
-0.0200396
-0.0201065
-0.020094
-0.0200271
-0.0200396
-0.0201062
-0.0199168
-0.0199167
-0.0199978
-0.0199975
-0.019998
-0.0199166
-0.019998
-0.0201073
-0.0200262
-0.0200262
-0.0201072
-0.0201073
-0.0200263
-0.0200262
-0.0201074
-0.0200261
-0.019997
-0.0199173
-0.01993
-0.0199844
-0.0199175
-0.0199972
-0.0199844
-0.019998
-0.0199166
-0.0199165
-0.0199979
-0.019997
-0.01993
-0.0199173
-0.0199844
-0.0199175
-0.0199844
-0.0199972
-0.0200259
-0.0201074
-0.0200261
-0.0201075
-0.020027
-0.0200396
-0.0201067
-0.020094
-0.0200269
-0.0200395
-0.0201065
-0.0200259
-0.0201074
-0.0200261
-0.0201075
-0.020027
-0.0200396
-0.020094
-0.0201067
-0.0200396
-0.0200269
-0.0201065
-0.0199981
-0.0199166
-0.0199165
-0.0199979
-0.019997
-0.01993
-0.0199173
-0.0199844
-0.0199175
-0.0199844
-0.0199972
-0.0199981
-0.0199166
-0.0199165
-0.0199979
-0.020027
-0.0200396
-0.0201067
-0.020094
-0.0200269
-0.0200395
-0.0201065
-0.020026
-0.0201074
-0.0200261
-0.0201075
-0.020027
-0.0200395
-0.020094
-0.0201067
-0.0200396
-0.0200269
-0.0201065
-0.020026
-0.0201074
-0.0200261
-0.0201075
-0.0199167
-0.0199167
-0.0199978
-0.0199978
-0.0199976
-0.0199166
-0.0199978
-0.0201074
-0.0200261
-0.0200263
-0.0201074
-0.0201071
-0.0200262
-0.0200263
-0.0201073
-0.0200262
-0.0199966
-0.01993
-0.0199175
-0.0199844
-0.0199178
-0.0199844
-0.0199969
-0.0199977
-0.0199167
-0.0199168
-0.0199977
-0.0199977
-0.0199167
-0.0199168
-0.0199977
-0.0200273
-0.0200396
-0.020094
-0.0201065
-0.0200395
-0.0200271
-0.0201061
-0.0200273
-0.0200398
-0.020094
-0.0201065
-0.0200396
-0.0200271
-0.0201062
-0.0200262
-0.0201072
-0.0200262
-0.0201071
-0.0200262
-0.0201073
-0.0200262
-0.0201071
-0.0199166
-0.0199979
-0.0199166
-0.0199977
-0.0200263
-0.0201073
-0.0201072
-0.0200261
-0.0200264
-0.0201074
-0.0200261
-0.0201073
-0.0200261
-0.0201356
-0.0202168
-0.0201355
-0.0202169
-0.0201357
-0.0201356
-0.0202168
-0.0202167
-0.0202168
-0.0203262
-0.0202451
-0.0203263
-0.020245
-0.0202448
-0.0203261
-0.0203262
-0.0202452
-0.0202451
-0.0202166
-0.0201356
-0.0201357
-0.0202167
-0.0202155
-0.0201365
-0.0201489
-0.0202034
-0.0201367
-0.0202159
-0.0202034
-0.0202156
-0.0201365
-0.0201489
-0.0202034
-0.0201367
-0.0202159
-0.0202034
-0.0202451
-0.0203261
-0.0202451
-0.020326
-0.0202451
-0.0203261
-0.0202451
-0.020326
-0.0202461
-0.0202584
-0.0203254
-0.0203131
-0.020246
-0.0202583
-0.0203249
-0.0202461
-0.0202584
-0.0203254
-0.020313
-0.020246
-0.0202583
-0.0203249
-0.0201357
-0.0201356
-0.0202168
-0.0202167
-0.0202168
-0.0201355
-0.0202169
-0.0203262
-0.0202451
-0.0202448
-0.0203261
-0.0203262
-0.0202452
-0.0202451
-0.0203262
-0.020245
-0.0202159
-0.0201363
-0.0201489
-0.0202034
-0.0201364
-0.0202162
-0.0202034
-0.020217
-0.0201355
-0.0201355
-0.0202169
-0.0202159
-0.0201489
-0.0201363
-0.0202033
-0.0201364
-0.0202034
-0.0202162
-0.0202449
-0.0203263
-0.020245
-0.0203264
-0.0202458
-0.0202584
-0.0203256
-0.0203131
-0.0202459
-0.0202583
-0.0203253
-0.0202449
-0.0203263
-0.020245
-0.0203264
-0.0202458
-0.0202584
-0.0203131
-0.0203256
-0.0202583
-0.0202459
-0.0203253
-0.020217
-0.0201355
-0.0201355
-0.0202169
-0.0202159
-0.0201489
-0.0201363
-0.0202034
-0.0201364
-0.0202034
-0.0202162
-0.020217
-0.0201355
-0.0201355
-0.0202169
-0.0202458
-0.0202584
-0.0203256
-0.020313
-0.0202459
-0.0202582
-0.0203253
-0.0202449
-0.0203263
-0.020245
-0.0203263
-0.0202458
-0.0202584
-0.0203131
-0.0203256
-0.0202583
-0.0202458
-0.0203253
-0.0202449
-0.0203263
-0.020245
-0.0203263
-0.0201356
-0.0201357
-0.0202168
-0.0202168
-0.0202166
-0.0201356
-0.0202168
-0.0203263
-0.020245
-0.0202448
-0.0203263
-0.0203261
-0.0202451
-0.0202452
-0.0203262
-0.0202451
-0.0202155
-0.0201489
-0.0201365
-0.0202033
-0.0201368
-0.0202034
-0.0202159
-0.0202166
-0.0201356
-0.0201358
-0.0202167
-0.0202166
-0.0201357
-0.0201358
-0.0202167
-0.0202462
-0.0202585
-0.020313
-0.0203254
-0.0202583
-0.0202461
-0.0203249
-0.0202462
-0.0202585
-0.020313
-0.0203254
-0.0202583
-0.0202461
-0.0203249
-0.0202452
-0.0203261
-0.0202451
-0.020326
-0.0202452
-0.0203261
-0.0202451
-0.020326
-0.0201355
-0.0202169
-0.0201356
-0.0202168
-0.0202449
-0.0203262
-0.0203261
-0.0202451
-0.0202452
-0.0203262
-0.020245
-0.0203262
-0.0202451
-0.0203544
-0.0204355
-0.0203543
-0.0204356
-0.0203545
-0.0203544
-0.0204357
-0.0204354
-0.0204355
-0.0205447
-0.0204637
-0.0205448
-0.0204636
-0.0204623
-0.0205447
-0.0205448
-0.0204638
-0.0204637
-0.0204353
-0.0203544
-0.0203545
-0.0204354
-0.0204341
-0.0203554
-0.0203674
-0.0204223
-0.0203553
-0.0204347
-0.0204224
-0.0204341
-0.0203553
-0.0203674
-0.0204223
-0.0203553
-0.0204346
-0.0204224
-0.0204636
-0.0205447
-0.0204637
-0.0205446
-0.0204637
-0.0205447
-0.0204637
-0.0205446
-0.0204644
-0.0204766
-0.020544
-0.020532
-0.0204647
-0.0204765
-0.0205433
-0.0204644
-0.0204767
-0.020544
-0.020532
-0.0204647
-0.0204765
-0.0205433
-0.0203545
-0.0203544
-0.0204357
-0.0204352
-0.0204356
-0.0203543
-0.0204356
-0.0205447
-0.0204637
-0.0204623
-0.0205447
-0.0205448
-0.0204638
-0.0204637
-0.0205448
-0.0204636
-0.0204345
-0.0203552
-0.0203674
-0.0204223
-0.020355
-0.0204349
-0.0204224
-0.0204357
-0.0203543
-0.0203542
-0.0204356
-0.0204345
-0.0203674
-0.0203552
-0.0204223
-0.020355
-0.0204224
-0.0204349
-0.0204634
-0.0205448
-0.0204636
-0.0205449
-0.020464
-0.0204766
-0.0205442
-0.020532
-0.0204645
-0.0204764
-0.0205436
-0.0204634
-0.0205448
-0.0204636
-0.0205449
-0.0204641
-0.0204767
-0.020532
-0.0205442
-0.0204765
-0.0204646
-0.0205436
-0.0204357
-0.0203543
-0.0203542
-0.0204356
-0.0204345
-0.0203674
-0.0203551
-0.0204223
-0.020355
-0.0204224
-0.0204349
-0.0204357
-0.0203543
-0.0203542
-0.0204356
-0.020464
-0.0204766
-0.0205442
-0.020532
-0.0204645
-0.0204764
-0.0205436
-0.0204634
-0.0205448
-0.0204636
-0.0205449
-0.020464
-0.0204766
-0.020532
-0.0205442
-0.0204765
-0.0204645
-0.0205436
-0.0204634
-0.0205448
-0.0204636
-0.0205449
-0.0203544
-0.0203545
-0.0204357
-0.0204356
-0.0204353
-0.0203544
-0.0204355
-0.0205448
-0.0204636
-0.0204624
-0.0205448
-0.0205446
-0.0204637
-0.0204638
-0.0205447
-0.0204637
-0.0204341
-0.0203675
-0.0203554
-0.0204222
-0.0203554
-0.0204223
-0.0204346
-0.0204353
-0.0203544
-0.0203545
-0.0204354
-0.0204353
-0.0203544
-0.0203545
-0.0204354
-0.0204645
-0.0204767
-0.0205318
-0.020544
-0.0204766
-0.0204647
-0.0205433
-0.0204644
-0.0204769
-0.0205319
-0.020544
-0.0204766
-0.0204647
-0.0205433
-0.0204637
-0.0205447
-0.0204637
-0.0205446
-0.0204637
-0.0205447
-0.0204637
-0.0205446
-0.0203543
-0.0204356
-0.0203544
-0.0204354
-0.0204624
-0.0205448
-0.0205447
-0.0204635
-0.0204639
-0.0205448
-0.0204636
-0.0205447
-0.0204637
-0.0205728
-0.0206538
-0.0205727
-0.0206539
-0.0205729
-0.0205728
-0.0206544
-0.0206538
-0.0206539
-0.0207629
-0.020682
-0.020763
-0.0206819
-0.0206782
-0.0207629
-0.020763
-0.0206821
-0.020682
-0.0206539
-0.0205728
-0.0205728
-0.0206539
-0.0206522
-0.0205739
-0.0205852
-0.0206416
-0.0205732
-0.0206533
-0.0206415
-0.0206522
-0.0205739
-0.0205852
-0.0206415
-0.0205732
-0.0206533
-0.0206414
-0.0206817
-0.0207629
-0.0206819
-0.020763
-0.0206817
-0.020763
-0.020682
-0.020763
-0.0206816
-0.0206935
-0.0207625
-0.0207515
-0.0206833
-0.0206937
-0.0207608
-0.0206816
-0.0206936
-0.0207625
-0.0207514
-0.0206833
-0.0206938
-0.0207608
-0.0205729
-0.0205728
-0.0206544
-0.0206538
-0.0206539
-0.0205727
-0.0206539
-0.0207629
-0.020682
-0.0206783
-0.0207629
-0.020763
-0.0206822
-0.020682
-0.020763
-0.0206819
-0.0206525
-0.0205737
-0.0205851
-0.0206416
-0.0205728
-0.0206535
-0.0206415
-0.0206542
-0.0205727
-0.0205725
-0.020654
-0.0206525
-0.0205852
-0.0205737
-0.0206415
-0.0205728
-0.0206414
-0.0206535
-0.0206814
-0.0207631
-0.0206818
-0.0207633
-0.0206812
-0.0206935
-0.0207627
-0.0207516
-0.020683
-0.0206936
-0.0207611
-0.0206814
-0.0207631
-0.0206819
-0.0207633
-0.0206812
-0.0206936
-0.0207514
-0.0207627
-0.0206938
-0.0206831
-0.0207611
-0.0206542
-0.0205727
-0.0205725
-0.020654
-0.0206525
-0.0205852
-0.0205737
-0.0206415
-0.0205728
-0.0206414
-0.0206534
-0.0206542
-0.0205727
-0.0205725
-0.020654
-0.0206812
-0.0206935
-0.0207627
-0.0207515
-0.020683
-0.0206936
-0.0207611
-0.0206814
-0.0207631
-0.0206818
-0.0207633
-0.0206812
-0.0206935
-0.0207514
-0.0207627
-0.0206938
-0.020683
-0.0207612
-0.0206814
-0.0207631
-0.0206818
-0.0207633
-0.0205728
-0.0205729
-0.0206544
-0.020654
-0.0206538
-0.0205728
-0.0206538
-0.020763
-0.0206819
-0.0206784
-0.0207631
-0.0207629
-0.0206821
-0.0206822
-0.0207629
-0.020682
-0.0206522
-0.0205853
-0.020574
-0.0206414
-0.0205732
-0.0206413
-0.0206533
-0.0206538
-0.0205728
-0.0205728
-0.0206538
-0.0206538
-0.0205728
-0.0205728
-0.0206539
-0.0206817
-0.0206937
-0.0207512
-0.0207625
-0.0206939
-0.0206833
-0.0207608
-0.0206817
-0.0206938
-0.0207513
-0.0207625
-0.0206939
-0.0206833
-0.0207608
-0.0206818
-0.0207629
-0.020682
-0.0207629
-0.0206818
-0.020763
-0.020682
-0.0207629
-0.0205727
-0.0206539
-0.0205728
-0.0206539
-0.0206784
-0.020763
-0.020763
-0.020682
-0.0206822
-0.020763
-0.0206819
-0.0207629
-0.020682
-0.0207912
-0.0208717
-0.0207911
-0.0208718
-0.0207913
-0.0207912
-0.0208734
-0.0208718
-0.0208719
-0.0209805
-0.0209006
-0.0209806
-0.0209006
-0.0208916
-0.0209806
-0.0209807
-0.0209009
-0.0209008
-0.020872
-0.020791
-0.0207906
-0.0208719
-0.0208689
-0.0207926
-0.0208014