/*--------------------------------*- C++ -*----------------------------------*\
| =========                 |                                                 |
| \\      /  F ield         | OpenFOAM: The Open Source CFD Toolbox           |
|  \\    /   O peration     | Version:  2206                                  |
|   \\  /    A nd           | Website:  www.openfoam.com                      |
|    \\/     M anipulation  |                                                 |
\*---------------------------------------------------------------------------*/
FoamFile
{
    version     2.0;
    format      ascii;
    arch        "LSB;label=32;scalar=64";
    class       surfaceScalarField;
    location    "50";
    object      phi;
}
// * * * * * * * * * * * * * * * * * * * * * * * * * * * * * * * * * * * * * //

dimensions      [0 3 -1 0 0 0 0];

oriented        oriented;

internalField   nonuniform List<scalar> 
199822
(
-1.84252e-12
5.49163e-13
-1.14393e-07
-7.78226e-13
7.81127e-13
1.14395e-07
-1.09359e-07
-3.93564e-11
-1.83757e-12
6.13386e-13
1.09358e-07
2.89764e-11
3.98968e-11
-2.57184e-11
-5.31243e-11
5.2421e-11
5.46618e-11
-5.48063e-11
-1.10288e-07
-4.43226e-11
6.37704e-13
-5.65638e-13
1.10291e-07
1.66877e-11
4.42309e-11
-1.78817e-11
2.86976e-13
2.24699e-11
-4.25448e-13
-2.42912e-11
-2.65914e-08
-1.1552e-10
1.78507e-10
-7.57367e-11
1.61221e-10
2.64429e-08
-2.08403e-12
3.53859e-13
-1.14394e-07
-2.13553e-13
1.33105e-12
1.14395e-07
-1.09358e-07
-3.91972e-11
-8.14518e-13
-1.88546e-13
1.09357e-07
2.89851e-11
4.01515e-11
-2.92178e-11
-5.32992e-11
5.22237e-11
5.44988e-11
-5.26377e-11
-1.10292e-07
-4.38346e-11
2.89868e-13
7.12458e-13
1.10292e-07
1.70534e-11
4.42815e-11
-1.79034e-11
5.96757e-13
2.28362e-11
-2.00142e-13
-2.39263e-11
-2.65913e-08
5.09759e-11
2.46668e-11
5.83043e-11
1.54436e-11
2.64419e-08
-3.28212e-12
-1.91183e-12
-1.14393e-07
1.70256e-12
2.70863e-12
1.14393e-07
-1.09356e-07
-3.88807e-11
6.05284e-13
9.48183e-13
1.09352e-07
2.92045e-11
4.02782e-11
-2.55623e-11
-5.3743e-11
5.19655e-11
5.41532e-11
-5.53582e-11
-1.10292e-07
-4.39378e-11
2.04249e-12
-5.63146e-14
1.10291e-07
1.68881e-11
4.4065e-11
-1.8124e-11
7.34215e-13
2.32083e-11
1.92829e-13
-2.3828e-11
-2.65906e-08
-1.159e-10
1.78442e-10
-7.58882e-11
1.62133e-10
2.64418e-08
-6.70677e-12
-5.65739e-12
-1.14391e-07
5.26055e-12
5.83858e-12
1.14392e-07
-1.09354e-07
-3.88033e-11
4.73466e-12
-9.95168e-14
1.0935e-07
2.92523e-11
4.02353e-11
-2.92117e-11
-5.42543e-11
5.16068e-11
5.38511e-11
-5.34584e-11
-1.1029e-07
-4.40846e-11
5.45438e-12
2.05835e-12
1.10285e-07
1.665e-11
4.37866e-11
-1.84887e-11
3.38758e-13
2.30475e-11
2.39768e-14
-2.41714e-11
-2.65905e-08
5.06634e-11
2.50444e-11
5.76643e-11
1.61667e-11
2.64409e-08
-1.19304e-11
-1.13343e-11
-1.1439e-07
1.10261e-11
1.12726e-11
1.14391e-07
-1.09354e-07
-3.88038e-11
9.85261e-12
-2.21092e-13
1.09346e-07
2.92053e-11
4.00859e-11
-2.58166e-11
-5.47049e-11
5.1195e-11
5.35003e-11
-5.63656e-11
-1.10289e-07
-4.40873e-11
1.22525e-11
-1.01584e-12
1.10283e-07
1.66995e-11
4.37402e-11
-1.84599e-11
-2.50715e-13
2.25498e-11
-3.76898e-13
-2.47871e-11
-2.65902e-08
-1.15856e-10
1.78781e-10
-7.63962e-11
1.62122e-10
2.64416e-08
-2.20317e-11
-2.05936e-11
-1.14391e-07
2.17394e-11
2.24112e-11
1.1439e-07
-1.09355e-07
-3.86646e-11
1.92292e-11
-7.89582e-12
1.09347e-07
2.94343e-11
4.03144e-11
-2.91359e-11
-5.52331e-11
5.07665e-11
5.30738e-11
-5.43789e-11
-1.10291e-07
-4.35482e-11
2.2975e-11
-8.02642e-12
1.10282e-07
1.74859e-11
4.43342e-11
-1.77191e-11
-1.30105e-12
2.15473e-11
-1.37283e-12
-2.57839e-11
-2.659e-08
5.05768e-11
2.44637e-11
5.79562e-11
1.57522e-11
2.64412e-08
-4.16987e-11
-3.75739e-11
-1.14396e-07
4.34773e-11
4.64293e-11
1.14385e-07
-1.09354e-07
-3.78285e-11
3.52122e-11
-2.62991e-11
1.09349e-07
3.07122e-11
4.15478e-11
-2.42568e-11
-5.6317e-11
4.88626e-11
5.11274e-11
-5.78767e-11
-1.10292e-07
-4.2428e-11
4.57023e-11
-3.22688e-11
1.10287e-07
1.89987e-11
4.57561e-11
-1.63293e-11
-2.75676e-12
1.9356e-11
-3.59929e-12
-2.70375e-11
-2.65888e-08
-1.16821e-10
1.7712e-10
-7.57166e-11
1.62008e-10
2.64422e-08
-7.9447e-11
-6.98488e-11
-1.14406e-07
8.66404e-11
9.64586e-11
1.14373e-07
-1.09345e-07
-3.58974e-11
6.73046e-11
-7.50235e-11
1.09366e-07
3.38323e-11
4.43187e-11
-2.49753e-11
-6.00003e-11
4.36741e-11
4.57037e-11
-5.89978e-11
-1.10286e-07
-4.04965e-11
8.65792e-11
-8.33948e-11
1.103e-07
2.20271e-11
4.83174e-11
-1.37822e-11
-6.75345e-12
1.39224e-11
-9.26597e-12
-3.08276e-11
-2.65856e-08
4.78613e-11
2.15956e-11
5.86561e-11
1.64066e-11
2.64411e-08
-1.30236e-10
-1.11227e-10
-1.14428e-07
1.46123e-10
1.72461e-10
1.14351e-07
-1.09312e-07
-3.23497e-11
1.07381e-10
-1.75259e-10
1.09417e-07
3.91044e-11
4.98409e-11
-1.58564e-11
-7.08643e-11
3.26765e-11
3.40693e-11
-7.3213e-11
-1.10256e-07
-3.70993e-11
1.45171e-10
-1.93989e-10
1.10349e-07
2.7346e-11
5.32499e-11
-8.61626e-12
-1.79946e-11
2.88537e-12
-2.12015e-11
-4.26544e-11
-2.658e-08
-1.22175e-10
1.71952e-10
-7.40988e-11
1.63356e-10
2.64409e-08
-1.00321e-10
-6.85346e-11
-1.14406e-07
8.77977e-11
1.4341e-10
1.14344e-07
-1.09182e-07
-3.58679e-11
6.58276e-11
-3.55281e-10
1.09577e-07
3.73551e-11
7.13056e-11
-2.39123e-13
-8.56055e-11
3.34113e-12
-8.59709e-13
-9.51225e-11
-1.10129e-07
-4.09906e-11
1.25682e-10
-3.79791e-10
1.10499e-07
2.58887e-11
7.34478e-11
9.81011e-12
-3.3844e-11
-2.68215e-11
-5.70128e-11
-6.68063e-11
-2.65688e-08
4.79072e-11
2.22214e-11
5.08991e-11
1.01318e-11
2.64376e-08
-1.02238e-10
7.87942e-10
-1.13709e-07
-7.28535e-10
-9.68682e-10
1.14721e-07
-1.08637e-07
-6.65472e-11
-7.99275e-10
-5.49176e-10
1.09829e-07
1.77493e-11
2.40021e-10
1.21062e-10
2.26146e-11
-2.73588e-11
-7.65317e-11
-7.37539e-11
-1.09589e-07
-6.98062e-11
8.53583e-11
2.73551e-10
1.10511e-07
9.58068e-12
2.39787e-10
5.36644e-11
-3.67413e-10
-1.90959e-10
-6.08149e-10
-3.47272e-10
-2.65445e-08
-8.72681e-11
2.0359e-10
-1.1535e-10
1.20437e-10
2.64231e-08
6.24931e-10
7.19543e-10
-1.25821e-07
-6.70964e-09
-6.76988e-09
2.97748e-08
2.97538e-08
2.98918e-08
2.98956e-08
1.7432e-09
4.30627e-09
3.29801e-09
1.76892e-09
4.26637e-09
3.25806e-09
-2.66723e-08
-3.02838e-09
1.56303e-10
-3.32368e-09
1.56925e-09
3.12989e-08
-2.5493e-08
-7.17832e-10
-2.57045e-09
7.7426e-10
-2.88409e-09
3.08913e-08
-2.6766e-08
2.56391e-09
2.56492e-09
-2.74829e-09
-2.43777e-09
2.68232e-08
-3.65319e-11
-3.97417e-11
2.65782e-08
-2.64293e-08
-3.6555e-11
-3.60868e-11
1.11328e-07
1.02501e-12
-1.11326e-07
6.38492e-13
-3.61363e-11
-1.33062e-11
1.22662e-11
-2.40133e-11
-2.30645e-11
2.11181e-11
2.35003e-11
3.68316e-11
1.11354e-07
4.09941e-13
-1.11355e-07
2.10908e-12
-3.57651e-11
-1.38589e-11
1.33568e-11
-2.37127e-11
-2.26944e-11
2.12944e-11
2.39181e-11
-4.02426e-11
2.65782e-08
-2.64286e-08
-3.63696e-11
-3.61456e-11
1.0938e-07
-8.77203e-13
-1.09379e-07
1.48184e-13
-3.9389e-11
-2.92612e-11
2.8648e-11
5.42421e-11
-5.23308e-11
5.17264e-11
-5.32311e-11
3.01532e-11
1.10387e-07
2.55209e-13
-1.10388e-07
9.86314e-14
-2.92336e-11
-2.61269e-11
2.92501e-11
3.44751e-11
-5.18583e-11
4.83019e-11
-3.44232e-11
-2.43938e-12
-1.09359e-07
-5.34883e-13
-3.93549e-11
-2.89669e-11
2.91214e-11
5.45988e-11
-5.22753e-11
-5.29961e-11
5.23426e-11
5.29679e-11
1.1035e-07
4.92295e-11
-1.10401e-07
-2.5577e-11
-2.7367e-11
-2.51592e-11
2.53102e-11
3.50526e-11
-5.06008e-11
5.1485e-11
-3.42406e-11
-4.45015e-11
2.65817e-08
-2.64337e-08
-4.3868e-11
-2.94477e-11
5.78688e-13
-1.10286e-07
-2.87138e-13
-4.44059e-11
-1.74179e-11
1.31544e-11
3.79628e-14
-2.40921e-11
5.22372e-13
2.52658e-11
2.50086e-11
1.10396e-07
-6.77575e-11
-1.10339e-07
3.22379e-11
-4.5829e-11
-1.70427e-11
1.71751e-11
-1.04891e-13
-2.45137e-11
2.27033e-11
1.32724e-12
-2.64418e-08
-5.79136e-11
-1.36885e-11
3.60671e-11
3.92756e-11
3.67294e-11
3.69557e-11
2.64292e-08
-3.68302e-11
-4.00242e-11
2.6578e-08
-2.64291e-08
-3.62169e-11
-3.58426e-11
1.40033e-12
1.11328e-07
1.21695e-11
3.65809e-11
-1.33823e-11
2.33559e-11
2.0837e-11
-2.44659e-11
-2.32513e-11
-3.58006e-11
1.17641e-12
1.55877e-12
1.11355e-07
1.32061e-11
3.65101e-11
-1.79074e-11
2.34959e-11
2.10058e-11
-2.41637e-11
-2.06769e-11
1.11329e-07
3.25158e-13
-1.11329e-07
6.03667e-13
-3.57419e-11
-1.3132e-11
1.24676e-11
-2.4144e-11
-2.29125e-11
2.12416e-11
2.36293e-11
3.67052e-11
1.11356e-07
1.26283e-12
-1.11355e-07
6.0954e-13
-3.5676e-11
-1.41313e-11
1.31963e-11
-2.42991e-11
-2.30525e-11
2.09335e-11
2.34457e-11
3.67467e-11
3.74209e-11
2.64289e-08
-4.03e-11
2.65782e-08
-2.64288e-08
-3.62038e-11
-3.6126e-11
2.05928e-13
1.09379e-07
2.86963e-11
3.96838e-11
-2.93814e-11
-5.31372e-11
5.18841e-11
5.43495e-11
-5.22641e-11
-2.91684e-11
3.30873e-13
5.37946e-13
1.10387e-07
2.55973e-11
3.00413e-11
-2.63043e-11
-3.42706e-11
5.08019e-11
3.46066e-11
-5.17968e-11
1.09379e-07
-2.43178e-12
-1.09378e-07
-3.64034e-13
-3.89601e-11
-2.91009e-11
2.89446e-11
5.46067e-11
-5.21873e-11
5.21084e-11
-5.31052e-11
3.04836e-11
1.10386e-07
-1.08451e-12
-1.10387e-07
-7.08249e-13
-2.8759e-11
-2.6058e-11
2.95029e-11
3.48556e-11
-5.16678e-11
4.86824e-11
-3.42414e-11
4.50036e-10
-1.35761e-10
1.09615e-07
7.28426e-11
1.94299e-10
6.71063e-11
-3.69163e-11
5.13136e-11
-7.87437e-11
3.60815e-11
-1.10823e-12
-1.09358e-07
-1.45679e-12
-3.91853e-11
-2.90793e-11
2.90969e-11
5.47301e-11
-5.23345e-11
-5.31024e-11
5.24989e-11
-1.13935e-10
1.10348e-07
-4.50628e-10
-1.09615e-07
1.36424e-10
-1.92681e-10
-7.34866e-11
-6.51994e-11
3.78401e-11
-5.1777e-11
7.57441e-11
-3.51923e-11
4.42157e-11
3.02554e-11
2.64337e-08
-4.45501e-11
2.65816e-08
-2.64339e-08
-4.3597e-11
-2.9083e-11
-5.42559e-10
1.69521e-10
1.11175e-07
-2.85106e-11
-1.13866e-10
-1.14297e-10
3.89368e-12
2.20276e-11
4.90638e-12
-1.57365e-12
-5.95962e-13
-1.10292e-07
1.03453e-12
-4.37627e-11
-1.75327e-11
1.35916e-11
-1.06504e-13
-2.38373e-11
6.47574e-13
2.54117e-11
1.79059e-10
1.104e-07
5.42307e-10
-1.11174e-07
-1.70097e-10
1.13996e-10
2.83829e-11
1.1105e-10
-3.98281e-12
-2.3557e-11
-3.88111e-12
1.64607e-12
-2.64426e-08
7.61686e-11
-1.59719e-10
3.58614e-11
3.89589e-11
3.72109e-11
3.71814e-11
2.64288e-08
-3.6874e-11
-4.04896e-11
2.65772e-08
-2.64281e-08
-3.57176e-11
-3.59619e-11
1.34056e-12
1.11329e-07
1.2297e-11
3.65759e-11
-1.33922e-11
2.36613e-11
2.11408e-11
-2.42068e-11
-2.29615e-11
-3.58202e-11
2.37359e-12
1.59872e-12
1.11356e-07
1.30401e-11
3.65542e-11
-1.4311e-11
2.35973e-11
2.08727e-11
-2.43266e-11
-2.30123e-11
1.11327e-07
-1.7407e-12
-1.11327e-07
2.18223e-13
-3.57762e-11
-1.3085e-11
1.24139e-11
-2.35109e-11
-2.22369e-11
2.18111e-11
2.4329e-11
3.68426e-11
1.11355e-07
-1.2734e-12
-1.11354e-07
-1.03091e-13
-3.56925e-11
-1.40144e-11
1.3264e-11
-2.36005e-11
-2.23234e-11
2.16174e-11
2.42354e-11
3.70016e-11
3.74891e-11
2.64287e-08
-4.08339e-11
2.65777e-08
-2.64282e-08
-3.56741e-11
-3.61311e-11
3.09775e-14
1.09378e-07
2.88767e-11
3.99089e-11
-2.92447e-11
-5.3269e-11
5.19414e-11
5.43703e-11
-5.23428e-11
-2.88418e-11
6.8478e-13
2.53254e-13
1.10385e-07
2.56965e-11
3.03146e-11
-2.62024e-11
-3.43712e-11
5.08025e-11
3.46561e-11
-5.19074e-11
1.09376e-07
-3.24896e-12
-1.09376e-07
-1.30563e-12
-3.85512e-11
-2.87002e-11
2.92599e-11
5.45066e-11
-5.21484e-11
5.20039e-11
-5.30684e-11
3.09015e-11
1.10384e-07
-2.14101e-12
-1.10384e-07
-1.77174e-12
-2.84059e-11
-2.56927e-11
2.97737e-11
3.48016e-11
-5.16502e-11
4.86067e-11
-3.41701e-11
-4.90105e-11
2.54328e-11
1.10396e-07
2.4246e-11
2.89419e-11
-2.60433e-11
-3.42795e-11
5.01276e-11
-5.20398e-11
3.52566e-11
-2.87128e-12
-1.09356e-07
-1.613e-12
-3.87066e-11
-2.86041e-11
2.94399e-11
5.46556e-11
-5.22794e-11
-5.30895e-11
5.23794e-11
5.33304e-11
1.10346e-07
4.79577e-11
-1.10394e-07
-2.69352e-11
-2.67724e-11
-2.55454e-11
2.49428e-11
3.49248e-11
-5.08687e-11
5.13428e-11
-3.45879e-11
4.44751e-11
3.07148e-11
2.64338e-08
-4.46496e-11
2.65811e-08
-2.64333e-08
-4.36478e-11
-2.86507e-11
6.66016e-11
-3.11287e-11
1.10343e-07
1.74219e-11
4.61141e-11
-1.73008e-11
7.55521e-13
2.33071e-11
-2.3837e-11
-1.07582e-12
-2.49094e-12
-1.10291e-07
-1.05968e-12
-4.37524e-11
-1.74908e-11
1.362e-11
5.85729e-13
-2.31507e-11
1.41954e-12
2.6055e-11
2.52819e-11
1.10397e-07
-6.88829e-11
-1.10341e-07
3.06859e-11
-4.55848e-11
-1.64184e-11
1.77669e-11
1.41519e-13
-2.3928e-11
2.32129e-11
1.86441e-12
-2.64412e-08
-5.79987e-11
-1.28153e-11
3.59892e-11
3.86777e-11
3.76477e-11
3.69956e-11
2.64279e-08
-3.6869e-11
-4.0683e-11
2.6577e-08
-2.64276e-08
-3.56371e-11
-3.61723e-11
2.26401e-12
1.11324e-07
1.21268e-11
3.63304e-11
-1.36882e-11
2.37596e-11
2.14348e-11
-2.38971e-11
-2.28317e-11
-3.58437e-11
3.15757e-12
1.80313e-12
1.11354e-07
1.29458e-11
3.63635e-11
-1.81786e-11
2.38018e-11
2.1276e-11
-2.39523e-11
-2.03104e-11
1.11324e-07
-4.16799e-12
-1.11321e-07
2.39341e-13
-3.59068e-11
-1.31801e-11
1.22296e-11
-2.33456e-11
-2.19752e-11
2.19101e-11
2.47124e-11
3.68347e-11
1.11354e-07
-4.02464e-12
-1.11351e-07
-4.01214e-13
-3.57774e-11
-1.41291e-11
1.29681e-11
-2.33145e-11
-2.19054e-11
2.17939e-11
2.46813e-11
3.74768e-11
3.74046e-11
2.64281e-08
-4.10837e-11
2.65777e-08
-2.6428e-08
-3.54767e-11
-3.63388e-11
4.5883e-13
1.09374e-07
2.90331e-11
4.00294e-11
-2.9236e-11
-5.36736e-11
5.15815e-11
5.40619e-11
-5.28065e-11
-2.86956e-11
2.8443e-12
7.41373e-13
1.10382e-07
2.57185e-11
3.03176e-11
-2.63057e-11
-3.4759e-11
5.0438e-11
3.43562e-11
-5.2345e-11
1.09374e-07
-5.42489e-12
-1.09371e-07
-1.83927e-12
-3.84768e-11
-2.8498e-11
2.93167e-11
5.437e-11
-5.21043e-11
5.18423e-11
-5.29771e-11
3.10836e-11
1.10383e-07
-4.39622e-12
-1.10381e-07
-2.13798e-12
-2.83951e-11
-2.55266e-11
2.97539e-11
3.46856e-11
-5.15928e-11
4.83738e-11
-3.40089e-11
4.53062e-10
-1.35198e-10
1.09609e-07
7.24064e-11
1.94729e-10
6.67998e-11
-3.74067e-11
5.06777e-11
-7.93125e-11
3.5485e-11
-4.46688e-12
-1.09352e-07
-3.56791e-12
-3.86053e-11
-2.82886e-11
2.95888e-11
5.46156e-11
-5.22036e-11
-5.29159e-11
5.229e-11
-1.13075e-10
1.10343e-07
-4.53901e-10
-1.09608e-07
1.34614e-10
-1.92085e-10
-7.29765e-11
-6.49913e-11
3.76475e-11
-5.15809e-11
7.55254e-11
-3.49932e-11
4.4307e-11
3.10478e-11
2.64331e-08
-4.46803e-11
2.6581e-08
-2.64329e-08
-4.38716e-11
-2.8492e-11
-5.41037e-10
1.6964e-10
1.11173e-07
-2.81739e-11
-1.14003e-10
-1.14128e-10
4.17838e-12
2.2469e-11
5.29384e-12
-1.2419e-12
-5.34332e-12
-1.10288e-07
3.57226e-13
-4.38776e-11
-1.74823e-11
1.34518e-11
7.38997e-13
-2.27984e-11
1.66532e-12
2.62468e-11
1.79133e-10
1.10396e-07
5.37028e-10
-1.11169e-07
-1.70886e-10
1.13827e-10
2.85779e-11
1.11054e-10
-3.03717e-12
-2.23739e-11
-2.97284e-12
2.76936e-12
-2.64414e-08
7.57372e-11
-1.5873e-10
3.61977e-11
3.86627e-11
3.76744e-11
3.67556e-11
2.64277e-08
-3.6718e-11
-4.06472e-11
2.65768e-08
-2.64275e-08
-3.5712e-11
-3.62326e-11
3.39885e-12
1.11319e-07
1.18016e-11
3.59466e-11
-1.41881e-11
2.3504e-11
2.12e-11
-2.39653e-11
-2.32828e-11
-3.61109e-11
6.46985e-12
2.83196e-12
1.1135e-07
1.25317e-11
3.59567e-11
-1.5035e-11
2.35459e-11
2.11527e-11
-2.39987e-11
-2.30751e-11
1.11323e-07
-9.32798e-12
-1.11316e-07
1.27066e-12
-3.62395e-11
-1.33569e-11
1.1898e-11
-2.31356e-11
-2.15612e-11
2.20689e-11
2.51174e-11
3.66557e-11
1.11355e-07
-9.24922e-12
-1.11348e-07
1.19876e-12
-3.61539e-11
-1.42922e-11
1.26535e-11
-2.31525e-11
-2.14676e-11
2.19913e-11
2.50768e-11
3.76018e-11
3.71233e-11
2.64281e-08
-4.10639e-11
2.65777e-08
-2.6428e-08
-3.5552e-11
-3.64543e-11
9.28248e-13
1.09369e-07
2.89905e-11
3.98726e-11
-2.93675e-11
-5.42179e-11
5.11126e-11
5.36743e-11
-5.33459e-11
-2.8715e-11
6.3127e-12
1.5144e-12
1.10379e-07
2.56926e-11
3.01136e-11
-2.6456e-11
-3.52326e-11
5.00342e-11
3.39871e-11
-5.28727e-11
1.09374e-07
-9.82966e-12
-1.09367e-07
-1.0899e-12
-3.86467e-11
-2.86019e-11
2.91335e-11
5.44234e-11
-5.17377e-11
5.18967e-11
-5.26341e-11
3.0999e-11
1.10385e-07
-8.9889e-12
-1.10379e-07
-1.54064e-12
-2.86219e-11
-2.56697e-11
2.94907e-11
3.48044e-11
-5.12047e-11
4.84362e-11
-3.35873e-11
-4.32415e-11
2.6495e-11
1.10388e-07
2.41521e-11
2.89221e-11
-2.6354e-11
-3.51942e-11
4.93185e-11
-5.30737e-11
3.45759e-11
-9.16412e-12
-1.09349e-07
-1.69017e-12
-3.87086e-11
-2.84237e-11
2.94176e-11
5.4596e-11
-5.18872e-11
-5.26389e-11
5.22725e-11
5.35161e-11
1.10345e-07
4.16988e-11
-1.10387e-07
-2.68437e-11
-2.68806e-11
-2.56126e-11
2.46935e-11
3.48426e-11
-5.05998e-11
5.1051e-11
-3.41412e-11
4.40917e-11
3.11212e-11
2.6433e-08
-4.45962e-11
2.6581e-08
-2.64329e-08
-4.38887e-11
-2.86183e-11
7.13916e-11
-3.0044e-11
1.10335e-07
1.70709e-11
4.54898e-11
-1.79016e-11
6.35089e-13
2.36093e-11
-2.40112e-11
-7.35997e-13
-9.96759e-12
-1.10282e-07
6.98352e-14
-4.41232e-11
-1.75398e-11
1.32197e-11
9.09702e-13
-2.24077e-11
2.07667e-12
2.63397e-11
2.50623e-11
1.10395e-07
-7.71815e-11
-1.10333e-07
3.17955e-11
-4.61407e-11
-1.65861e-11
1.73092e-11
5.74341e-13
-2.30073e-11
2.36601e-11
2.74717e-12
-2.64405e-08
-5.84867e-11
-1.26562e-11
3.62543e-11
3.86205e-11
3.75243e-11
3.67075e-11
2.64277e-08
-3.65128e-11
-4.01043e-11
2.65765e-08
-2.64277e-08
-3.60782e-11
-3.6101e-11
1.96179e-12
1.11316e-07
1.17898e-11
3.58739e-11
-1.41887e-11
2.30159e-11
2.0923e-11
-2.42812e-11
-2.36835e-11
-3.6163e-11
1.19347e-11
1.62326e-12
1.11349e-07
1.25624e-11
3.58448e-11
-1.87229e-11
2.302e-11
2.08742e-11
-2.42901e-11
-2.11023e-11
1.11325e-07
-1.77993e-11
-1.11315e-07
6.30244e-12
-3.63989e-11
-1.36654e-11
1.17882e-11
-2.30695e-11
-2.10886e-11
2.20512e-11
2.55578e-11
3.6463e-11
1.11357e-07
-1.76923e-11
-1.11348e-07
7.0429e-12
-3.62828e-11
-1.45921e-11
1.25908e-11
-2.31037e-11
-2.11599e-11
2.18755e-11
2.55089e-11
3.74824e-11
3.70334e-11
2.64282e-08
-4.04389e-11
2.65772e-08
-2.64281e-08
-3.60253e-11
-3.62469e-11
-5.68626e-13
1.09366e-07
2.90285e-11
3.98421e-11
-2.94497e-11
-5.46555e-11
5.08582e-11
5.33639e-11
-5.37407e-11
-2.87932e-11
1.18815e-11
7.76927e-13
1.10378e-07
2.55645e-11
2.99485e-11
-2.66954e-11
-3.56334e-11
4.97502e-11
3.37019e-11
-5.3258e-11
1.09374e-07
-1.7898e-11
-1.09365e-07
4.10816e-12
-3.91079e-11
-2.93156e-11
2.86548e-11
5.47385e-11
-5.09898e-11
5.22044e-11
-5.19215e-11
3.05647e-11
1.10387e-07
-1.66825e-11
-1.10379e-07
3.44401e-12
-2.90277e-11
-2.63315e-11
2.90263e-11
3.50173e-11
-5.04788e-11
4.87028e-11
-3.29833e-11
4.62508e-10
-1.3526e-10
1.09603e-07
7.21424e-11
1.94428e-10
6.63382e-11
-3.84025e-11
4.98769e-11
-8.03593e-11
3.47939e-11
-1.63723e-11
-1.09347e-07
2.81081e-12
-3.93164e-11
-2.92196e-11
2.88237e-11
5.50199e-11
-5.10372e-11
-5.18184e-11
5.27409e-11
-1.1368e-10
1.10346e-07
-4.65838e-10
-1.09603e-07
1.40262e-10
-1.92794e-10
-7.39798e-11
-6.58641e-11
3.80919e-11
-5.04992e-11
7.58855e-11
-3.39004e-11
4.40709e-11
3.09255e-11
2.64331e-08
-4.43182e-11
2.65807e-08
-2.64331e-08
-4.38193e-11
-2.89409e-11
-5.31214e-10
1.68504e-10
1.11165e-07
-2.83903e-11
-1.14495e-10
-1.14471e-10
3.31977e-12
2.19835e-11
4.39261e-12
-1.66966e-12
-2.00534e-11
-1.10281e-07
7.35778e-12
-4.43765e-11
-1.78417e-11
1.30746e-11
9.38691e-13
-2.19469e-11
2.58772e-12
2.62714e-11
1.78762e-10
1.10398e-07
5.21687e-10
-1.11164e-07
-1.63787e-10
1.13313e-10
2.835e-11
1.10846e-10
-2.79833e-12
-2.14572e-11
-2.85124e-12
3.75523e-12
-2.64414e-08
7.57624e-11
-1.59261e-10
3.56501e-11
3.83626e-11
3.73371e-11
3.70307e-11
2.64281e-08
-3.5543e-11
-3.8721e-11
2.65754e-08
-2.64284e-08
-3.6517e-11
-3.6148e-11
-6.11169e-12
1.11317e-07
1.26072e-11
3.65427e-11
-1.33367e-11
2.20395e-11
1.9955e-11
-2.52175e-11
-2.46158e-11
-3.55341e-11
2.28881e-11
-6.32037e-12
1.11348e-07
1.34044e-11
3.65591e-11
-1.42131e-11
2.19498e-11
1.97465e-11
-2.53045e-11
-2.46577e-11
1.11326e-07
-3.39528e-11
-1.11318e-07
2.26825e-11
-3.67856e-11
-1.52686e-11
1.144e-11
-2.25428e-11
-1.92119e-11
2.25197e-11
2.74419e-11
3.55108e-11
1.11357e-07
-3.424e-11
-1.11349e-07
2.37707e-11
-3.66826e-11
-1.61393e-11
1.22829e-11
-2.25985e-11
-1.92488e-11
2.23086e-11
2.73958e-11
3.71369e-11
3.74665e-11
2.64284e-08
-3.91713e-11
2.65761e-08
-2.64287e-08
-3.63943e-11
-3.6325e-11
-7.59496e-12
1.09366e-07
2.93522e-11
4.01597e-11
-2.91146e-11
-5.5237e-11
5.02901e-11
5.28175e-11
-5.42557e-11
-2.8539e-11
2.11129e-11
-5.36586e-12
1.10378e-07
2.58904e-11
3.02689e-11
-2.63673e-11
-3.63104e-11
4.92241e-11
3.30937e-11
-5.37828e-11
1.09374e-07
-3.35115e-11
-1.09366e-07
2.02665e-11
-3.9965e-11
-3.12491e-11
2.79079e-11
5.56052e-11
-4.89292e-11
5.29479e-11
-4.98168e-11
2.93889e-11
1.10388e-07
-3.17272e-11
-1.1038e-07
1.84006e-11
-2.97579e-11
-2.80702e-11
2.83866e-11
3.57921e-11
-4.84542e-11
4.94239e-11
-3.10074e-11
-2.82662e-11
1.98622e-11
1.10386e-07
2.42023e-11
2.89418e-11
-2.64382e-11
-3.62497e-11
4.85509e-11
-5.40089e-11
3.38105e-11
-3.21351e-11
-1.09348e-07
1.99452e-11
-4.00526e-11
-3.10941e-11
2.81237e-11
5.58967e-11
-4.89845e-11
-4.97474e-11
5.34324e-11
5.17558e-11
1.10346e-07
1.87957e-11
-1.10386e-07
-6.43392e-12
-2.81032e-11
-2.82125e-11
2.34041e-11
3.59342e-11
-4.78113e-11
5.21309e-11
-3.14937e-11
4.42981e-11
3.07634e-11
2.64336e-08
-4.33552e-11
2.65797e-08
-2.64338e-08
-4.38878e-11
-2.92624e-11
8.90407e-11
-4.03499e-11
1.10334e-07
1.80388e-11
4.60553e-11
-1.70181e-11
-1.07409e-12
2.21626e-11
-2.55479e-11
-2.17271e-12
-3.78266e-11
-1.10283e-07
2.32206e-11
-4.48689e-11
-1.94048e-11
1.26859e-11
1.60889e-12
-1.98398e-11
4.68675e-12
2.68518e-11
2.39341e-11
1.10399e-07
-1.05578e-10
-1.10334e-07
5.4678e-11
-4.67382e-11
-1.82727e-11
1.69877e-11
1.33404e-12
-2.03966e-11
2.41878e-11
5.41944e-12
-2.64413e-08
-5.84429e-11
-1.33959e-11
3.4549e-11
3.75268e-11
3.74303e-11
3.74164e-11
2.64284e-08
-3.28729e-11
-3.57522e-11
2.65722e-08
-2.64293e-08
-3.73116e-11
-3.69457e-11
-2.81797e-11
1.11321e-07
1.42769e-11
3.80441e-11
-1.16996e-11
2.06908e-11
1.77561e-11
-2.7454e-11
-2.57864e-11
-3.44103e-11
4.33499e-11
-2.90778e-11
1.11353e-07
1.50894e-11
3.80538e-11
-1.6245e-11
2.0481e-11
1.75732e-11
-2.75774e-11
-2.33516e-11
1.11319e-07
-6.5708e-11
-1.11326e-07
6.4182e-11
-3.78131e-11
-1.96468e-11
1.05477e-11
-2.06388e-11
-1.39653e-11
2.4284e-11
3.2852e-11
3.28699e-11
1.11349e-07
-6.7474e-11
-1.11356e-07
6.52927e-11
-3.76943e-11
-2.05344e-11
1.13481e-11
-2.05528e-11
-1.38299e-11
2.42509e-11
3.30414e-11
3.73318e-11
3.78407e-11
2.64286e-08
-3.64125e-11
2.6573e-08
-2.64295e-08
-3.70828e-11
-3.71373e-11
-2.76948e-11
1.09369e-07
3.06601e-11
4.14521e-11
-2.78012e-11
-5.61131e-11
4.85836e-11
5.10543e-11
-5.50651e-11
-2.77444e-11
3.7951e-11
-2.42566e-11
1.10381e-07
2.72444e-11
3.14484e-11
-2.50136e-11
-3.73472e-11
4.74577e-11
3.12948e-11
-5.47011e-11
1.09367e-07
-6.26812e-11
-1.09374e-07
5.97291e-11
-4.13623e-11
-3.56893e-11
2.69768e-11
5.76023e-11
-4.4021e-11
5.47528e-11
-4.45132e-11
2.66822e-11
1.1038e-07
-5.97315e-11
-1.10387e-07
5.59206e-11
-3.09282e-11
-3.23837e-11
2.75085e-11
3.76942e-11
-4.36308e-11
5.11955e-11
-2.58731e-11
4.88556e-10
-1.60105e-10
1.09606e-07
7.36792e-11
1.95862e-10
6.78259e-11
-4.00499e-11
4.7544e-11
-8.18106e-11
3.24188e-11
-5.97525e-11
-1.09355e-07
5.72662e-11
-4.13816e-11
-3.51933e-11
2.73474e-11
5.78773e-11
-4.39098e-11
-4.44269e-11
5.54035e-11
-1.17522e-10
1.10338e-07
-5.09155e-10
-1.0961e-07
1.93411e-10
-1.94755e-10
-8.01069e-11
-6.74349e-11
4.06879e-11
-4.36645e-11
7.82991e-11
-2.68383e-11
4.47053e-11
3.08622e-11
2.64339e-08
-4.06864e-11
2.65768e-08
-2.64348e-08
-4.46881e-11
-2.99679e-11
-4.97066e-10
1.37165e-10
1.1117e-07
-2.60428e-11
-1.12561e-10
-1.12338e-10
7.83453e-13
1.8758e-11
2.07551e-12
-4.9145e-12
-7.45226e-11
-1.1029e-07
6.7154e-11
-4.60254e-11
-2.36055e-11
1.18357e-11
3.68751e-12
-1.43822e-11
1.04344e-11
2.88041e-11
1.75045e-10
1.10393e-07
4.66883e-10
-1.11173e-07
-1.03689e-10
1.11656e-10
2.26085e-11
1.09583e-10
-7.48668e-15
-1.38321e-11
-3.03749e-13
1.17131e-11
-2.64427e-08
7.47297e-11
-1.60167e-10
3.26922e-11
3.56189e-11
3.78322e-11
3.78797e-11
2.64281e-08
-2.71289e-11
-2.96795e-11
2.65663e-08
-2.64315e-08
-3.90938e-11
-3.88981e-11
-7.93354e-11
1.11335e-07
1.73669e-11
4.06555e-11
-8.89709e-12
1.69109e-11
1.24082e-11
-3.30314e-11
-2.93037e-11
-3.26822e-11
8.21539e-11
-8.03237e-11
1.11365e-07
1.79866e-11
4.04993e-11
-9.96688e-12
1.66304e-11
1.20982e-11
-3.32235e-11
-2.95104e-11
1.11285e-07
-1.17106e-10
-1.11352e-07
1.54878e-10
-3.90065e-11
-2.88175e-11
9.67124e-12
-1.30719e-11
-3.05849e-12
3.18557e-11
4.45199e-11
2.73285e-11
1.11317e-07
-1.21409e-10
-1.11382e-07
1.55674e-10
-3.89843e-11
-2.93947e-11
1.05442e-11
-1.27383e-11
-2.46997e-12
3.20805e-11
4.5065e-11
3.78157e-11
3.82232e-11
2.64283e-08
-3.07062e-11
2.65674e-08
-2.64317e-08
-3.86238e-11
-3.90462e-11
-7.53701e-11
1.09383e-07
3.3713e-11
4.42278e-11
-2.49099e-11
-5.94356e-11
4.35178e-11
4.58903e-11
-5.84109e-11
-2.5992e-11
6.91282e-11
-7.02179e-11
1.10395e-07
3.02232e-11
3.3992e-11
-2.2197e-11
-4.05145e-11
4.24857e-11
2.62797e-11
-5.79152e-11
1.09334e-07
-1.06687e-10
-1.09401e-07
1.4529e-10
-4.30548e-11
-4.47118e-11
2.62058e-11
6.5103e-11
-3.388e-11
6.2243e-11
-3.38089e-11
2.07284e-11
1.10348e-07
-1.01803e-10
-1.10414e-07
1.39807e-10
-3.23802e-11
-4.16645e-11
2.67022e-11
4.49501e-11
-3.37117e-11
5.84325e-11
-1.53414e-11
2.03293e-11
-4.55416e-11
1.10402e-07
2.86949e-11
3.27786e-11
-2.2242e-11
-4.05752e-11
4.16594e-11
-5.82433e-11
2.674e-11
-1.034e-10
-1.09384e-07
1.42837e-10
-4.28478e-11
-4.38613e-11
2.6691e-11
6.55605e-11
-3.33499e-11
-3.31537e-11
6.2898e-11
4.31564e-11
1.10304e-07
-5.09782e-11
-1.10419e-07
1.16375e-10
-3.06393e-11
-4.16789e-11
2.18847e-11
4.48043e-11
-3.32518e-11
6.08595e-11
-1.60634e-11
4.52041e-11
3.12378e-11
2.64338e-08
-3.50856e-11
2.65711e-08
-2.6437e-08
-4.66243e-11
-3.16791e-11
1.53541e-10
-1.14985e-10
1.1035e-07
2.24408e-11
4.98396e-11
-1.32509e-11
-6.59614e-12
1.4462e-11
-3.07054e-11
-1.01617e-11
-1.31342e-10
-1.10316e-07
1.57454e-10
-4.74027e-11
-3.22481e-11
1.11479e-11
1.15368e-11
-3.10505e-12
2.25363e-11
3.64949e-11
1.5686e-11
1.10361e-07
-2.00038e-10
-1.10366e-07
1.8825e-10
-4.93779e-11
-3.10482e-11
1.54429e-11
1.14393e-11
-3.25155e-12
3.40638e-11
2.36015e-11
-2.64442e-08
-6.12874e-11
-1.55919e-11
2.95561e-11
3.18725e-11
3.88973e-11
3.88418e-11
2.64271e-08
-2.69384e-11
-2.81586e-11
2.65549e-08
-2.64374e-08
-3.09354e-11
-3.14751e-11
-1.87781e-10
1.11384e-07
2.28263e-11
4.55237e-11
-3.51772e-12
6.26593e-12
1.49449e-12
-4.46247e-11
-4.04904e-11
-2.9875e-11
1.35678e-10
-1.8728e-10
1.11415e-07
2.31031e-11
4.52896e-11
-8.54675e-12
5.57554e-12
1.11741e-12
-4.49967e-11
-3.86426e-11
1.11154e-07
-1.58872e-10
-1.11442e-07
3.12596e-10
-4.04379e-11
-3.46891e-11
1.03579e-11
7.77607e-12
2.85243e-11
5.62264e-11
8.01643e-11
2.8484e-11
1.11186e-07
-1.68333e-10
-1.1147e-07
3.09632e-10
-4.05079e-11
-3.38127e-11
1.11427e-11
8.54843e-12
2.97631e-11
5.68707e-11
8.1769e-11
3.88758e-11
3.89222e-11
2.64274e-08
-2.99415e-11
2.65567e-08
-2.64375e-08
-3.00294e-11
-3.0783e-11
-1.77777e-10
1.09434e-07
3.9259e-11
5.00137e-11
-1.9238e-11
-6.97837e-11
3.31732e-11
3.47614e-11
-6.95367e-11
-2.25968e-11
1.0811e-10
-1.71074e-10
1.10446e-07
3.58269e-11
3.9289e-11
-1.66581e-11
-5.03295e-11
3.24886e-11
1.56063e-11
-6.85224e-11
1.09206e-07
-1.36939e-10
-1.09492e-07
2.95402e-10
-4.60679e-11
-5.1124e-11
2.6441e-11
8.6647e-11
-3.71677e-12
8.67809e-11
4.34611e-13
1.91727e-11
1.10219e-07
-1.28487e-10
-1.10506e-07
2.8985e-10
-3.42788e-11
-4.83551e-11
2.72428e-11
6.55434e-11
-4.52094e-12
8.24777e-11
1.75357e-11
5.59829e-10
-3.0904e-10
1.09668e-07
8.25248e-11
2.04327e-10
7.65103e-11
-5.32629e-11
3.2335e-11
-9.58733e-11
1.64045e-11
-1.32594e-10
-1.09477e-07
2.90576e-10
-4.59297e-11
-4.94543e-11
2.67766e-11
8.77643e-11
-1.84653e-12
1.97104e-12
8.83567e-11
-1.24178e-10
1.10172e-07
-5.79316e-10
-1.09727e-07
4.30032e-10
-1.98623e-10
-9.61422e-11
-6.7783e-11
6.89851e-11
-4.68045e-12
1.1004e-10
1.67054e-11
4.62839e-11
3.22034e-11
2.64329e-08
-3.48903e-11
2.65602e-08
-2.64432e-08
-3.88588e-11
-2.40809e-11
-3.97801e-10
-2.25915e-11
1.11231e-07
-1.78667e-11
-1.05323e-10
-1.04903e-10
-1.4632e-11
2.1528e-12
-1.36685e-11
-2.26725e-11
-1.84749e-10
-1.10403e-07
3.16637e-10
-4.98533e-11
-3.74494e-11
1.11238e-11
3.31199e-11
2.92055e-11
5.94971e-11
6.14308e-11
1.69461e-10
1.10236e-07
3.57916e-10
-1.11286e-07
1.42716e-10
1.0817e-10
9.16395e-12
1.0955e-10
2.94323e-11
2.99706e-11
3.23657e-11
6.07965e-11
-2.64508e-08
8.08483e-11
-1.53561e-10
3.3489e-11
3.46798e-11
2.99831e-11
3.11817e-11
2.64254e-08
-1.43453e-10
-1.3812e-10
2.65306e-08
-2.64504e-08
1.0489e-10
9.64524e-11
-3.78172e-10
1.1154e-07
2.17299e-11
6.55133e-11
1.52757e-11
-7.60366e-12
-2.79918e-11
-7.96226e-11
-6.28656e-11
-3.50999e-11
1.10926e-10
-3.71802e-10
1.11567e-07
2.07426e-11
6.45496e-11
1.34361e-11
-9.71832e-12
-2.85964e-11
-8.04694e-11
-6.52132e-11
1.10597e-07
-1.82107e-10
-1.11688e-07
3.07839e-10
-3.12838e-11
6.6641e-11
4.10363e-11
9.22083e-11
1.99049e-10
1.73146e-10
2.811e-10
1.48505e-10
1.10633e-07
-1.97889e-10
-1.1171e-07
2.91063e-10
-3.18482e-11
7.14735e-11
4.18759e-11
9.32605e-11
2.01772e-10
1.74148e-10
2.84659e-10
2.94346e-11
3.07432e-11
2.64254e-08
-1.4109e-10
2.65338e-08
-2.64507e-08
1.05055e-10
1.01351e-10
-3.58595e-10
1.09591e-07
3.88249e-11
7.15722e-11
-8.63062e-13
-8.38531e-11
5.32602e-12
9.73572e-13
-9.31076e-11
-2.56343e-11
6.16616e-11
-3.54619e-10
1.10605e-07
3.50857e-11
6.07222e-11
2.65354e-12
-6.26741e-11
5.05993e-12
-1.72213e-11
-9.01656e-11
1.08672e-07
-1.73248e-10
-1.09734e-07
2.96323e-10
-4.28101e-11
4.56121e-11
5.37769e-11
1.75107e-10
1.63113e-10
2.06497e-10
1.99287e-10
1.336e-10
1.09675e-07
-1.53512e-10
-1.10754e-07
2.90994e-10
-2.71376e-11
5.20246e-11
5.7637e-11
1.51326e-10
1.60507e-10
1.99956e-10
2.12955e-10
1.37466e-11
-3.32894e-10
1.10609e-07
3.33631e-11
6.02052e-11
3.02504e-12
-6.28018e-11
4.30453e-12
-9.09838e-11
-1.72279e-11
-1.63942e-10
-1.09724e-07
2.87822e-10
-4.24356e-11
4.93576e-11
5.38867e-11
1.76876e-10
1.70337e-10
2.05358e-10
2.08886e-10
1.5678e-10
1.09626e-07
-1.05565e-10
-1.10758e-07
2.72319e-10
-2.63253e-11
5.19762e-11
5.27815e-11
1.51368e-10
1.61887e-10
2.03026e-10
2.13281e-10
3.79758e-11
2.43495e-11
2.64311e-08
-1.46055e-10
2.65366e-08
-2.64562e-08
9.42226e-11
1.05018e-10
1.92652e-10
-4.09395e-10
1.1055e-07
2.66521e-11
7.46827e-11
1.0241e-11
-3.40914e-11
-2.68178e-11
-6.69964e-11
-5.80658e-11
-2.28944e-10
-1.1064e-07
3.162e-10
-4.39814e-11
5.97695e-11
3.77921e-11
1.20157e-10
2.01509e-10
2.63305e-10
1.7976e-10
1.27568e-10
1.09695e-07
-2.96708e-10
-1.1069e-07
3.40358e-10
-4.55853e-11
6.11568e-11
4.31803e-11
1.20575e-10
2.018e-10
1.76794e-10
2.65627e-10
-2.64631e-08
8.14411e-11
1.2151e-10
6.39913e-11
6.43672e-11
-6.50441e-12
2.9724e-13
2.64083e-08
-3.77112e-10
3.73936e-10
2.67659e-08
-2.59717e-08
-1.74513e-10
-6.16469e-10
1.85287e-10