/*--------------------------------*- C++ -*----------------------------------*\
| =========                 |                                                 |
| \\      /  F ield         | OpenFOAM: The Open Source CFD Toolbox           |
|  \\    /   O peration     | Version:  2206                                  |
|   \\  /    A nd           | Website:  www.openfoam.com                      |
|    \\/     M anipulation  |                                                 |
\*---------------------------------------------------------------------------*/
FoamFile
{
    version     2.0;
    format      ascii;
    arch        "LSB;label=32;scalar=64";
    class       volVectorField;
    location    "50";
    object      wallShearStress;
}
// * * * * * * * * * * * * * * * * * * * * * * * * * * * * * * * * * * * * * //

dimensions      [0 2 -2 0 0 0 0];

internalField   uniform (0 0 0);

boundaryField
{
    topPatch
    {
        type            calculated;
        value           nonuniform List<vector> 0();
    }
    wall
    {
        type            calculated;
        value           nonuniform List<vector> 
7778
(
(-5.55488e-06 1.78867e-05 -0.000241939)
(-2.57359e-06 -6.21059e-06 -0.000137438)
(1.79212e-05 -5.56584e-06 -0.000241667)
(-6.236e-06 -2.57027e-06 -0.00013727)
(5.50864e-06 1.79282e-05 -0.000242031)
(1.7849e-05 5.51595e-06 -0.000241638)
(-1.78492e-05 -5.57701e-06 -0.000241706)
(-1.7911e-05 5.62947e-06 -0.000241737)
(-5.53664e-06 -1.7878e-05 -0.000241918)
(-2.56964e-06 6.19649e-06 -0.000137447)
(5.54673e-06 -1.79345e-05 -0.000241937)
(1.04385e-05 4.66212e-05 -0.000194594)
(-2.22214e-05 -5.29141e-06 -0.00030712)
(-8.86888e-06 7.63058e-06 -0.000237235)
(-3.15132e-05 3.40483e-05 -0.000229939)
(4.6393e-05 1.00001e-05 -0.000194248)
(-5.17763e-06 -2.20304e-05 -0.000306694)
(7.69464e-06 -8.69522e-06 -0.000237051)
(3.41146e-05 -3.13663e-05 -0.000229617)
(2.19271e-05 -5.28153e-06 -0.000306295)
(3.12114e-05 3.44063e-05 -0.000229917)
(8.35642e-06 7.90963e-06 -0.000237306)
(-5.28963e-06 2.19035e-05 -0.000306212)
(3.43462e-05 3.12204e-05 -0.000229838)
(7.86085e-06 8.37727e-06 -0.000237335)
(-1.00925e-05 4.64529e-05 -0.000194544)
(5.25326e-06 2.2057e-05 -0.000306699)
(-7.58649e-06 8.75721e-06 -0.00023702)
(-3.40185e-05 3.14201e-05 -0.000229556)
(4.65393e-05 -1.04481e-05 -0.000194358)
(-4.63181e-05 9.9444e-06 -0.000194143)
(-4.61885e-05 -9.52265e-06 -0.000194094)
(2.21135e-05 5.26613e-06 -0.000307082)
(8.78639e-06 -7.60328e-06 -0.0002373)
(3.14644e-05 -3.40375e-05 -0.000229872)
(1.04554e-05 -4.66064e-05 -0.000194595)
(-1.00456e-05 -4.64524e-05 -0.000194472)
(5.23435e-06 -2.18703e-05 -0.000306067)
(-3.44062e-05 -3.11694e-05 -0.00022971)
(-7.92486e-06 -8.29121e-06 -0.000237168)
(-2.19401e-05 5.33469e-06 -0.000306479)
(-3.12313e-05 -3.43585e-05 -0.000230019)
(-8.41593e-06 -7.86501e-06 -0.000237473)
(-1.14334e-05 1.08987e-05 -0.000175006)
(-3.22071e-06 2.29028e-05 -0.000165642)
(1.08992e-05 -1.14302e-05 -0.000174792)
(1.14168e-05 1.08677e-05 -0.000175028)
(3.20296e-06 2.28999e-05 -0.000165701)
(1.08588e-05 1.14188e-05 -0.000174803)
(2.28818e-05 3.23463e-06 -0.000165504)
(-1.08021e-05 -1.13598e-05 -0.000174809)
(-1.58128e-05 1.05003e-05 -0.000185392)
(-1.08548e-05 1.13979e-05 -0.000174791)
(-1.14547e-05 -1.0872e-05 -0.000174982)
(1.0481e-05 -1.58461e-05 -0.000185531)
(1.14347e-05 -1.09013e-05 -0.000174964)
(2.53026e-06 -6.20797e-06 -0.000137477)
(-6.23868e-06 2.56796e-06 -0.000137341)
(1.05075e-05 1.58187e-05 -0.000185454)
(2.28873e-05 -3.24011e-06 -0.000165473)
(1.58193e-05 1.04733e-05 -0.000185275)
(1.5818e-05 -1.04744e-05 -0.000185327)
(6.24903e-06 -2.50622e-06 -0.000137363)
(-2.28586e-05 -3.19207e-06 -0.000165545)
(6.24224e-06 2.52453e-06 -0.000137304)
(-2.28727e-05 3.21749e-06 -0.000165474)
(-1.58099e-05 -1.04848e-05 -0.000185274)
(-3.25794e-06 -2.2902e-05 -0.000165652)
(2.54485e-06 6.20095e-06 -0.000137393)
(3.23106e-06 -2.28925e-05 -0.000165628)
(2.33428e-06 2.00756e-05 -0.000178954)
(2.00619e-05 2.32992e-06 -0.000178776)
(-2.37525e-06 2.00528e-05 -0.00017898)
(-1.05346e-05 1.58237e-05 -0.000185581)
(2.00271e-05 -2.31754e-06 -0.00017881)
(-1.99858e-05 2.37705e-06 -0.000178846)
(-2.00183e-05 -2.35714e-06 -0.000178851)
(2.32709e-06 -2.00714e-05 -0.000178928)
(-2.36074e-06 -2.00834e-05 -0.000178894)
(-1.05035e-05 -1.5823e-05 -0.000185475)
(-2.71911e-08 -3.79429e-09 -0.000133332)
(1.30688e-08 -1.76615e-08 -0.000125115)
(3.05391e-08 -2.39856e-09 -0.000125284)
(-1.52922e-08 -1.80483e-08 -0.000133148)
(-2.03911e-08 -1.87874e-09 -0.000133279)
(-3.418e-09 -1.41258e-08 -0.000125163)
(8.33428e-09 2.60071e-09 -0.000125293)
(-6.57611e-10 1.29856e-08 -0.000133238)
(7.59518e-09 -3.45106e-10 -0.000133335)
(-2.21343e-08 -6.70808e-10 -0.000124995)
(6.43769e-09 9.36676e-09 -0.000125214)
(2.37467e-08 1.17704e-09 -0.000133041)
(-1.14027e-09 7.78045e-09 -0.000133222)
(-7.59132e-09 -5.78718e-09 -0.000125172)
(7.44946e-09 9.98983e-09 -0.000125298)
(-8.75513e-09 1.78208e-09 -0.000133237)
(4.04746e-09 -7.63966e-09 -0.000133329)
(-2.77992e-08 2.26729e-10 -0.000124987)
(3.01146e-09 8.06242e-09 -0.00012523)
(2.58942e-08 5.2901e-09 -0.000133049)
(1.86473e-09 8.81479e-09 -0.000133239)
(-8.44968e-09 4.02686e-10 -0.000125173)
(4.60802e-09 9.15615e-09 -0.000125296)
(-1.08313e-08 -3.07992e-09 -0.00013323)
(1.60524e-09 -1.07409e-08 -0.000133324)
(-2.15412e-08 -4.94669e-09 -0.000125021)
(1.2473e-08 5.37634e-09 -0.00012526)
(2.00884e-08 1.42933e-09 -0.000133074)
(-8.98925e-09 3.25872e-09 -0.000133267)
(-7.98364e-09 -5.79994e-09 -0.000125183)
(5.88489e-09 4.34404e-09 -0.000125301)
(-8.51946e-09 9.65622e-11 -0.000133227)
(5.69546e-09 -4.15656e-09 -0.000133327)
(-1.47129e-08 -5.36383e-09 -0.000125048)
(1.92389e-08 4.18474e-09 -0.000125281)
(1.38093e-08 -1.45022e-09 -0.000133101)
(-1.43938e-08 2.2375e-09 -0.000133287)
(-5.06381e-09 -6.74931e-09 -0.000125199)
(7.90954e-09 4.46196e-09 -0.000125316)
(-4.0364e-09 4.57312e-09 -0.000133243)
(6.24801e-09 -3.94647e-09 -0.000133341)
(-9.2636e-09 -3.85644e-09 -0.000125051)
(2.24053e-08 5.99437e-09 -0.000125269)
(9.68973e-09 -2.08768e-09 -0.000133104)
(-2.0652e-08 -6.95782e-10 -0.000133278)
(-4.80967e-09 -7.01932e-09 -0.000125192)
(1.10825e-08 3.70496e-09 -0.000125302)
(-2.51807e-09 7.17063e-09 -0.000133253)
(8.26747e-09 -1.31717e-09 -0.00013334)
(-1.04121e-08 -6.03792e-09 -0.000125034)
(2.10677e-08 4.56815e-09 -0.000125212)
(9.98722e-09 -3.4012e-09 -0.00013308)
(-7.62438e-09 3.97955e-09 -0.000133242)
(-3.62929e-09 -7.18914e-09 -0.000125183)
(6.72877e-09 3.20313e-09 -0.000125246)
(-4.00916e-09 2.86486e-09 -0.000133236)
(8.40831e-09 1.33202e-09 -0.00013331)
(7.20269e-10 -1.09655e-08 -0.000125104)
(-8.39036e-09 1.87718e-08 -0.000125075)
(-8.85906e-09 -1.25222e-08 -0.000133079)
(3.27453e-08 2.12394e-08 -0.000133216)
(-1.2697e-08 4.73664e-09 -0.000125242)
(2.19858e-08 -2.07645e-08 -0.000125117)
(-1.49893e-08 -1.82048e-08 -0.000133229)
(2.5931e-08 3.75465e-08 -0.00013329)
(4.54622e-08 -3.10161e-08 -0.000125309)
(-6.50576e-08 4.22723e-08 -0.000124829)
(-9.77687e-08 -6.64051e-08 -0.00013304)
(1.78851e-07 1.08067e-07 -0.000133341)
(-3.15034e-08 5.19238e-08 -0.000125452)
(4.1971e-08 -7.88769e-08 -0.000124873)
(-7.03108e-08 -1.11059e-07 -0.000133181)
(1.1126e-07 1.84181e-07 -0.000133418)
(2.12091e-07 -1.00711e-07 -0.000125862)
(-2.14133e-07 1.17755e-07 -0.000124704)
(-4.81457e-07 -2.82545e-07 -0.000132936)
(7.24549e-07 4.28719e-07 -0.000134264)
(-9.87188e-08 2.13053e-07 -0.000126015)
(1.20189e-07 -2.27232e-07 -0.000124752)
(-2.84749e-07 -4.88074e-07 -0.000133064)
(4.43204e-07 7.50632e-07 -0.000134347)
(5.57521e-07 -2.58683e-07 -0.000131371)
(-1.46406e-06 6.5544e-07 -0.000110537)
(-1.56748e-06 -9.07113e-07 -0.000136893)
(2.19472e-06 4.01546e-07 -0.000128938)
(-2.45704e-07 5.15901e-07 -0.000131443)
(6.60567e-07 -1.46775e-06 -0.000110614)
(-8.94732e-07 -1.53758e-06 -0.00013699)
(3.97037e-07 2.18973e-06 -0.000128966)
(1.36307e-05 3.07728e-05 -0.000126834)
(7.56032e-06 -3.21282e-06 -0.000137322)
(3.07126e-05 1.36182e-05 -0.000126787)
(-3.15502e-06 7.67439e-06 -0.000137232)
(4.5976e-08 -1.8387e-08 -0.000133335)
(2.74898e-09 -6.63173e-09 -0.000133153)
(1.0788e-08 -9.52683e-09 -0.000133278)
(-1.13487e-09 -1.24469e-08 -0.000133187)
(-2.05294e-08 3.81746e-09 -0.000125342)
(4.65706e-08 -4.41922e-09 -0.000125362)
(-5.28042e-09 -8.77451e-09 -0.000125118)
(-4.69217e-08 -5.04224e-09 -0.000125356)
(4.19044e-09 -8.32928e-09 -0.000125111)
(-7.93245e-09 -2.85331e-09 -0.000133322)
(-5.10584e-08 -1.96907e-08 -0.000133338)
(-1.40025e-09 -9.16477e-09 -0.000133143)
(-1.4193e-08 -1.2301e-08 -0.000133314)
(1.97673e-09 -1.34226e-08 -0.000133218)
(1.14725e-08 -2.53747e-09 -0.000125278)
(-4.69361e-09 -1.26513e-08 -0.000125153)
(1.1693e-08 1.62241e-09 -0.000125324)
(-5.00828e-09 1.20171e-08 -0.000125195)
(-7.16453e-09 1.43614e-09 -0.000125321)
(-6.47726e-09 -2.49251e-09 -0.000125288)
(-1.16091e-08 -2.67741e-09 -0.000125308)
(4.2644e-09 -1.1996e-08 -0.000125181)
(-1.28886e-08 4.53591e-09 -0.000125277)
(5.18399e-09 9.91742e-09 -0.000125146)
(8.84384e-09 5.92973e-09 -0.000133325)
(-3.41264e-09 6.49659e-09 -0.000133224)
(4.1746e-08 1.36749e-08 -0.000133356)
(-1.77183e-09 5.77021e-09 -0.000133185)
(4.79997e-08 3.83425e-09 -0.00012537)
(-7.99323e-09 9.13707e-09 -0.000125131)
(-4.56039e-08 6.35003e-09 -0.00012535)
(5.51096e-09 8.53783e-09 -0.000125114)
(-7.24269e-09 -1.62576e-10 -0.000133288)
(-2.32118e-08 2.52246e-09 -0.000133329)
(-1.26636e-08 1.04851e-08 -0.000133276)
(2.04185e-09 1.15755e-08 -0.000133169)
(-4.58865e-08 1.49933e-08 -0.00013334)
(-2.24316e-09 8.78574e-09 -0.000133156)
(1.59054e-08 -1.66698e-08 -0.000133152)
(2.42516e-08 -2.16625e-09 -0.000133286)
(1.37457e-09 -1.41178e-08 -0.0001332)
(9.05373e-09 -3.10871e-09 -0.000133297)
(9.89465e-09 4.23131e-09 -0.000133242)
(-8.55122e-09 -5.76539e-09 -0.000133093)
(4.91476e-09 5.33293e-09 -0.000133298)
(-3.22734e-09 -7.68968e-09 -0.000133211)
(-1.49396e-08 -1.69968e-08 -0.000125106)
(-2.66048e-08 -4.65898e-10 -0.000125274)
(1.47179e-08 5.14224e-09 -0.000125226)
(-7.03115e-09 -8.18033e-09 -0.000125042)
(-1.45558e-08 4.50651e-09 -0.000125214)
(6.91999e-09 -8.04155e-09 -0.000125031)
(-1.28048e-09 -1.62624e-08 -0.000133234)
(-8.06658e-09 3.2917e-09 -0.000133338)
(-9.81231e-09 3.42538e-09 -0.000133235)
(1.13144e-08 -3.338e-09 -0.000133094)
(-7.96134e-09 3.83729e-09 -0.000133334)
(2.48906e-09 -5.47121e-09 -0.000133247)
(-3.81919e-09 1.26923e-08 -0.0001252)
(9.47415e-09 -1.73822e-09 -0.000125334)
(7.24829e-09 7.85786e-09 -0.000125291)
(-6.48094e-09 -7.49299e-09 -0.000125174)
(6.22264e-09 -6.67515e-09 -0.000125332)
(-6.10949e-09 8.15136e-09 -0.000125215)
(1.77779e-09 -1.69765e-08 -0.000125192)
(-7.26632e-09 4.35383e-09 -0.000125325)
(2.03038e-09 1.53662e-08 -0.00012516)
(-6.75108e-09 -5.63114e-09 -0.00012529)
(-8.00696e-09 6.46489e-09 -0.000125321)
(5.98937e-09 -6.80271e-09 -0.000125208)
(-5.79602e-09 -6.62478e-09 -0.000125286)
(6.22227e-09 8.41774e-09 -0.000125172)
(1.31657e-08 1.68073e-08 -0.000133175)
(2.4209e-08 2.57072e-09 -0.000133314)
(2.64116e-09 -7.40541e-09 -0.000133336)
(-5.16756e-09 3.87719e-09 -0.000133244)
(6.55542e-09 -9.57507e-09 -0.00013327)
(-1.21139e-08 9.52803e-10 -0.000133136)
(1.09409e-08 1.60133e-08 -0.00012512)
(2.95896e-08 8.74789e-10 -0.000125299)
(-1.10089e-08 1.55269e-08 -0.000125111)
(-2.23806e-08 -1.55519e-10 -0.000125275)
(1.1105e-08 -5.52008e-09 -0.000125232)
(-9.0725e-09 8.24967e-09 -0.000125055)
(-1.18527e-08 -4.13235e-09 -0.000125218)
(1.32917e-08 5.02463e-09 -0.000125043)
(-1.88214e-09 1.72653e-08 -0.000133189)
(-6.5099e-09 -4.94439e-09 -0.000133292)
(-1.37725e-08 1.66105e-08 -0.000133155)
(-1.79446e-08 -1.99182e-09 -0.000133288)
(-7.27922e-09 -4.32292e-09 -0.000133288)
(3.34563e-09 8.84815e-09 -0.000133192)
(-7.16875e-09 -6.93896e-09 -0.000133245)
(1.17788e-08 4.49616e-09 -0.000133104)
(-2.12265e-08 1.02643e-09 -0.000133054)
(2.08117e-09 9.25075e-09 -0.000133232)
(-7.9287e-09 -5.08583e-10 -0.000133206)
(6.9651e-09 6.86891e-09 -0.000133303)
(1.39944e-09 9.83005e-09 -0.000133235)
(-2.77052e-08 4.47625e-09 -0.000133056)
(3.51665e-09 9.00437e-09 -0.000133299)
(-7.9126e-09 1.53627e-11 -0.000133212)
(2.13911e-08 -1.8029e-09 -0.000124976)
(-8.0607e-09 1.0259e-08 -0.000125204)
(6.1183e-09 9.98651e-09 -0.000125214)
(-2.62602e-08 -3.82972e-11 -0.000124981)
(-6.61893e-09 8.45819e-09 -0.000125202)
(2.37693e-08 -1.37205e-09 -0.000124969)
(5.48171e-09 -1.20492e-09 -0.000133244)
(-3.62833e-09 4.37473e-09 -0.00013333)
(-4.02176e-09 7.06409e-09 -0.000133227)
(2.81755e-08 7.10526e-09 -0.000133047)
(-5.2816e-09 6.61686e-09 -0.000133327)
(8.81298e-09 5.6665e-10 -0.000133252)
(-7.20845e-09 4.69492e-09 -0.00012521)
(7.43223e-09 -9.98404e-09 -0.000125331)
(7.0451e-09 1.16868e-08 -0.000125293)
(-8.82858e-09 -2.18014e-09 -0.000125173)
(3.97682e-09 -1.14486e-08 -0.000125322)
(-7.61299e-09 1.93403e-09 -0.000125209)
(6.52703e-09 -6.9312e-09 -0.000125201)
(-8.23718e-09 8.43593e-09 -0.000125332)
(3.94514e-09 8.21977e-09 -0.000125168)
(-7.55618e-09 -6.28865e-09 -0.000125295)
(-6.05049e-09 9.95163e-09 -0.00012532)
(8.61404e-09 -4.00201e-09 -0.000125206)
(-8.25827e-09 -8.51694e-09 -0.000125293)
(6.63496e-09 4.17344e-09 -0.000125171)
(-2.60657e-08 -3.69703e-09 -0.000133083)
(-2.69622e-09 -1.32207e-08 -0.00013326)
(1.6879e-09 -1.08422e-08 -0.000133328)
(-8.7129e-09 -2.29828e-09 -0.000133235)
(-3.22855e-09 -1.22085e-08 -0.000133262)
(-3.56805e-08 -9.57836e-09 -0.000133091)
(-2.66266e-08 -7.75736e-10 -0.000125002)
(2.67204e-09 -1.0785e-08 -0.000125226)
(2.35201e-08 8.57321e-10 -0.000124987)
(-5.65127e-09 -8.46934e-09 -0.000125203)
(3.76935e-09 -9.02724e-09 -0.000125225)
(-3.21544e-08 -1.55256e-09 -0.000124996)
(-6.0446e-09 -9.28954e-09 -0.000125206)
(2.86203e-08 -2.71718e-09 -0.000124978)
(5.4753e-09 4.98012e-09 -0.00013319)
(-4.29613e-09 -7.6966e-09 -0.000133289)
(2.33563e-08 -3.435e-09 -0.000133057)
(1.54069e-09 -1.17626e-08 -0.000133224)
(-3.58104e-09 -6.41317e-09 -0.000133278)
(8.52851e-09 2.36473e-11 -0.000133192)
(2.96535e-09 -1.10928e-08 -0.000133231)
(3.19823e-08 -6.70471e-09 -0.000133052)
(-2.68522e-08 6.85368e-09 -0.00013306)
(6.42855e-10 7.63909e-09 -0.000133251)
(-9.10751e-09 2.9329e-09 -0.000133208)
(3.99144e-09 7.28348e-09 -0.000133307)
(5.88468e-09 3.70262e-09 -0.000133261)
(-2.83365e-08 5.00435e-09 -0.000133077)
(4.0554e-09 5.33296e-09 -0.000133307)
(-8.04635e-09 -2.6103e-09 -0.000133215)
(2.72089e-08 -5.68082e-10 -0.000124973)
(-2.09238e-09 9.47565e-09 -0.000125219)
(1.12656e-08 6.1536e-09 -0.000125245)
(-2.66491e-08 -5.11998e-10 -0.000125005)
(-1.08075e-08 4.80584e-09 -0.000125228)
(2.75243e-08 -7.27012e-10 -0.000124996)
(6.91056e-09 2.12901e-09 -0.000133244)
(-2.07918e-09 1.05482e-08 -0.000133335)
(-8.21304e-09 4.59207e-09 -0.000133253)
(2.85987e-08 4.91815e-09 -0.00013307)
(-5.2109e-09 3.67769e-09 -0.000133331)
(8.25991e-09 -1.63594e-09 -0.00013324)
(-8.26628e-09 -9.71345e-10 -0.000125204)
(4.50707e-09 -1.05186e-08 -0.000125321)
(5.70032e-09 8.03251e-09 -0.000125295)
(-8.5936e-09 -2.57445e-09 -0.000125178)
(2.63224e-09 -9.88909e-09 -0.000125313)
(-8.40038e-09 6.8309e-10 -0.000125204)
(7.67003e-09 -3.07921e-09 -0.000125201)
(-6.90918e-09 9.53078e-09 -0.000125326)
(7.59907e-09 3.14762e-09 -0.000125166)
(-4.55981e-09 -1.21964e-08 -0.000125288)
(-3.77189e-09 7.5494e-09 -0.000125316)
(7.22598e-09 -4.20884e-09 -0.000125203)
(-4.33382e-09 -8.05453e-09 -0.000125278)
(9.95788e-09 1.75868e-09 -0.000125165)
(-3.0951e-08 -7.37584e-09 -0.000133093)
(-3.50147e-09 -1.20821e-08 -0.000133286)
(1.50221e-09 -1.02299e-08 -0.000133324)
(-1.13941e-08 -3.53123e-09 -0.000133224)
(1.90491e-09 -1.00246e-08 -0.000133296)
(-3.56249e-08 -8.81403e-09 -0.000133119)
(-2.95887e-08 -1.4217e-09 -0.000125004)
(1.66249e-09 -1.07218e-08 -0.000125253)
(3.06829e-08 -1.27947e-09 -0.000124981)
(5.2918e-09 -1.18356e-08 -0.000125229)
(7.16517e-09 -6.57798e-09 -0.000125263)
(-3.15762e-08 -1.51456e-09 -0.000125032)
(-6.46737e-09 -6.59769e-09 -0.000125245)
(3.39682e-08 -2.54933e-09 -0.000125009)
(6.87551e-09 1.24478e-09 -0.000133187)
(2.61959e-09 -1.46073e-08 -0.000133271)
(3.10024e-08 -7.45489e-09 -0.000133062)
(1.03464e-08 -1.40735e-08 -0.000133255)
(-3.3337e-09 -7.32522e-09 -0.000133268)
(6.966e-09 2.01202e-10 -0.000133177)
(-9.3151e-10 -7.19187e-09 -0.000133266)
(3.22666e-08 -8.49038e-09 -0.000133091)
(-1.94023e-08 1.43025e-09 -0.00013309)
(1.06445e-08 4.35984e-09 -0.000133278)
(-7.46916e-09 -2.69347e-09 -0.000133219)
(9.74724e-09 1.18975e-09 -0.000133319)
(1.5998e-08 1.80832e-09 -0.000133287)
(-1.75949e-08 -3.56602e-10 -0.000133104)
(6.46755e-09 4.20199e-09 -0.000133322)
(-4.40133e-09 -8.60078e-09 -0.000133226)
(2.26673e-08 -3.72299e-09 -0.000125005)
(-1.28442e-08 7.31501e-09 -0.000125252)
(1.758e-08 2.5458e-09 -0.000125268)
(-1.694e-08 -3.26343e-09 -0.000125041)
(-1.74684e-08 2.86926e-09 -0.000125263)
(1.92679e-08 -5.99362e-09 -0.000125025)
(7.29397e-09 -2.6605e-09 -0.000133242)
(-6.68438e-09 1.26145e-09 -0.000133335)
(-1.64299e-08 -1.13137e-09 -0.00013328)
(1.94284e-08 -3.25509e-10 -0.000133092)
(-8.5204e-09 1.31441e-09 -0.000133338)
(6.50433e-09 -5.20043e-09 -0.00013325)
(-8.57533e-09 2.16095e-09 -0.0001252)
(6.28289e-09 -4.43917e-09 -0.000125318)
(6.81375e-09 5.34014e-09 -0.000125309)
(-5.62546e-09 -6.2886e-09 -0.000125192)
(6.71331e-09 -7.04542e-09 -0.000125328)
(-7.81822e-09 6.9761e-09 -0.000125203)
(7.49895e-09 -5.92747e-09 -0.000125204)
(-7.04469e-09 3.41704e-09 -0.000125324)
(7.94992e-09 5.70388e-09 -0.000125164)
(-4.92913e-09 -2.3943e-09 -0.000125285)
(-6.44288e-09 4.901e-09 -0.000125327)
(7.3331e-09 -9.0512e-09 -0.000125212)
(-6.22022e-09 -4.94283e-09 -0.000125291)
(7.61417e-09 7.53875e-09 -0.000125175)
(-2.46677e-08 -2.59961e-09 -0.000133123)
(6.7877e-09 -6.04155e-09 -0.000133314)
(3.4595e-09 -3.49857e-09 -0.000133333)
(-8.64879e-09 3.04931e-09 -0.000133231)
(1.12951e-08 -2.02056e-09 -0.000133318)
(-2.36984e-08 -1.84263e-09 -0.000133148)
(-2.7658e-08 9.19081e-10 -0.000125046)
(1.03364e-08 -6.32825e-09 -0.00012529)
(2.52335e-08 3.66505e-09 -0.000125019)
(-1.21613e-08 -5.66824e-09 -0.000125263)
(1.7383e-08 -4.17515e-09 -0.000125303)
(-2.18117e-08 4.90509e-09 -0.000125071)
(-1.97235e-08 -3.01713e-09 -0.000125275)
(2.04215e-08 6.35848e-09 -0.000125039)
(5.72123e-09 1.27584e-09 -0.000133179)
(-5.04958e-09 -6.62475e-09 -0.000133278)
(2.49555e-08 -4.6026e-09 -0.000133096)
(-6.86106e-09 -2.54565e-09 -0.000133272)
(-7.74485e-09 -2.11972e-09 -0.000133281)
(9.2284e-09 3.64336e-09 -0.00013318)
(-1.32987e-08 -2.94562e-10 -0.000133287)
(2.1253e-08 -7.99522e-10 -0.000133111)
(-1.18761e-08 -3.20742e-09 -0.000133108)
(1.62285e-08 -8.10004e-10 -0.000133291)
(-5.67719e-09 -2.11962e-09 -0.000133233)
(6.6649e-09 2.41743e-09 -0.000133325)
(1.87051e-08 1.09883e-10 -0.000133285)
(-1.12398e-08 -3.73242e-09 -0.000133116)
(7.17658e-09 1.68854e-09 -0.000133318)
(-5.49952e-09 -4.29802e-09 -0.000133238)
(1.35993e-08 -6.90708e-09 -0.000125033)
(-1.58971e-08 4.73682e-09 -0.000125275)
(2.40303e-08 2.51833e-09 -0.000125275)
(-1.24388e-08 -6.3805e-09 -0.000125052)
(-2.4616e-08 3.4112e-09 -0.000125279)
(1.3709e-08 -5.55135e-09 -0.000125052)
(4.79818e-09 -5.23424e-09 -0.000133252)
(-5.24777e-09 6.11611e-09 -0.000133346)
(-2.04576e-08 -1.57749e-09 -0.000133286)
(1.30298e-08 -2.68959e-09 -0.000133117)
(-1.03948e-08 -1.74974e-09 -0.000133343)
(4.31879e-09 -4.78634e-09 -0.000133257)
(-8.98096e-09 4.74718e-09 -0.000125203)
(8.50901e-09 -5.59501e-09 -0.000125338)
(6.21075e-09 5.51167e-09 -0.000125307)
(-8.14367e-09 -7.89365e-09 -0.000125196)
(7.49757e-09 -6.50205e-09 -0.000125335)
(-9.55646e-09 6.18829e-09 -0.000125214)
(4.97174e-09 -7.92151e-09 -0.000125215)
(-7.02465e-09 9.17088e-09 -0.000125336)
(7.79818e-09 8.52258e-09 -0.000125173)
(-7.85292e-09 -9.33646e-09 -0.000125304)
(-8.10373e-09 2.79663e-09 -0.000125329)
(7.77228e-09 -5.44977e-09 -0.000125218)
(-1.06458e-08 -4.59206e-09 -0.000125299)
(8.61059e-09 6.40242e-09 -0.000125178)
(-1.40131e-08 4.51465e-10 -0.000133152)
(1.62502e-08 -3.22644e-10 -0.000133332)
(6.97086e-09 -4.0383e-09 -0.000133345)
(-6.01765e-09 2.49739e-09 -0.000133253)
(1.45383e-08 -1.6722e-10 -0.000133314)
(-1.43552e-08 1.56738e-09 -0.000133167)
(-1.72914e-08 4.09808e-09 -0.000125078)
(1.729e-08 -5.63506e-09 -0.000125317)
(1.52806e-08 6.04831e-09 -0.000125047)
(-1.34029e-08 -6.4912e-09 -0.000125287)
(1.97935e-08 -5.84836e-09 -0.000125305)
(-1.48525e-08 6.19665e-09 -0.000125089)
(-2.11845e-08 -6.44945e-09 -0.000125284)
(1.67164e-08 7.58002e-09 -0.000125062)
(2.8175e-09 6.68174e-09 -0.000133187)
(-3.03533e-09 -7.85736e-09 -0.000133285)
(1.31983e-08 2.04662e-09 -0.000133118)
(-9.30859e-09 -4.93411e-09 -0.000133302)
(-6.1649e-09 -1.4791e-09 -0.00013328)
(3.168e-09 5.34447e-09 -0.000133192)
(-1.60612e-08 5.12446e-10 -0.000133291)
(1.1613e-08 1.60403e-09 -0.000133138)
(-9.61694e-09 -2.57508e-09 -0.000133109)
(1.92419e-08 2.0836e-10 -0.000133279)
(-3.00897e-09 -6.30692e-09 -0.00013323)
(7.42186e-09 -7.54665e-10 -0.000133309)
(2.05576e-08 -1.62022e-09 -0.000133255)
(-9.35184e-09 -2.041e-09 -0.000133106)
(6.55525e-09 1.67357e-09 -0.00013329)
(-2.3428e-09 -9.1642e-09 -0.000133225)
(9.04754e-09 -5.34969e-09 -0.000125046)
(-2.27258e-08 4.8141e-09 -0.000125271)
(2.48595e-08 3.67418e-09 -0.000125238)
(-1.21175e-08 -6.65737e-09 -0.000125041)
(-2.32211e-08 3.00091e-09 -0.000125242)
(1.29079e-08 -4.79393e-09 -0.000125048)
(1.71727e-09 -8.38825e-09 -0.000133258)
(-9.9703e-09 -2.10139e-09 -0.000133339)
(-1.98004e-08 -2.87711e-09 -0.000133258)
(1.11465e-08 -4.00544e-09 -0.000133099)
(-8.22637e-09 -2.75815e-09 -0.000133317)
(3.61636e-09 -8.73448e-09 -0.000133256)
(-6.37493e-09 7.54285e-09 -0.000125214)
(1.08344e-08 -3.81153e-09 -0.000125332)
(9.25293e-09 4.52269e-09 -0.000125273)
(-6.61332e-09 -1.02272e-08 -0.000125183)
(8.12181e-09 -5.85751e-09 -0.000125308)
(-4.98648e-09 9.57044e-09 -0.000125216)
(4.20386e-09 -1.13938e-08 -0.000125214)
(-1.09751e-08 2.2499e-09 -0.000125329)
(5.10536e-09 1.05802e-08 -0.000125175)
(-9.49153e-09 -4.02765e-09 -0.000125296)
(-8.17923e-09 6.0848e-10 -0.000125296)
(3.42155e-09 -1.34278e-08 -0.000125216)
(-1.02085e-08 -4.9798e-09 -0.000125276)
(4.66735e-09 1.09716e-08 -0.00012518)
(-1.14278e-08 4.01733e-10 -0.000133148)
(1.46585e-08 -2.01708e-09 -0.000133308)
(5.66676e-09 -3.43321e-09 -0.000133328)
(-4.31553e-09 6.18591e-09 -0.000133246)
(1.44746e-08 4.21038e-10 -0.000133275)
(-1.69128e-08 -8.80523e-10 -0.000133142)
(-1.67073e-08 4.97228e-09 -0.000125072)
(1.85906e-08 -6.26274e-09 -0.000125296)
(1.43481e-08 6.39963e-09 -0.000125052)
(-2.24966e-08 -4.46135e-09 -0.000125267)
(2.02288e-08 -2.7496e-09 -0.000125256)
(-1.79794e-08 3.60653e-09 -0.000125071)
(-2.02237e-08 -3.29572e-09 -0.000125237)
(1.50084e-08 5.62045e-09 -0.000125045)
(3.07461e-09 8.39633e-09 -0.000133194)
(-8.17315e-09 -4.49888e-09 -0.000133288)
(1.25871e-08 1.9416e-09 -0.000133121)
(-1.70434e-08 -5.82064e-10 -0.000133276)
(-7.39826e-09 -2.53319e-09 -0.00013327)
(4.28661e-09 5.77481e-09 -0.000133191)
(-1.81719e-08 3.54385e-10 -0.00013326)
(1.34288e-08 1.77186e-09 -0.000133107)
(-5.59752e-09 -3.90519e-09 -0.000133087)
(1.36937e-08 1.82844e-10 -0.000133246)
(-4.34348e-09 -3.14051e-09 -0.000133208)
(8.02449e-09 -1.38769e-09 -0.000133284)
(-1.81013e-09 7.70196e-09 -0.000133231)
(-3.63487e-09 -8.13988e-09 -0.000133089)
(1.20466e-08 -1.49919e-08 -0.000133264)
(-7.50008e-09 1.22183e-10 -0.000133209)
(1.17552e-08 -7.25465e-09 -0.000125034)
(-1.46521e-08 8.48005e-09 -0.000125213)
(1.13738e-08 5.54844e-09 -0.000125155)
(-6.20158e-09 -8.78661e-09 -0.000125052)
(-9.37219e-09 4.51783e-09 -0.000125155)
(1.11612e-08 -5.29201e-09 -0.000125061)
(4.07286e-09 -6.6069e-09 -0.000133238)
(-7.08122e-09 3.11853e-09 -0.000133313)
(1.43393e-09 7.65447e-09 -0.000133226)
(6.26031e-09 -3.70577e-09 -0.000133092)
(-1.49312e-08 -1.62154e-08 -0.000133293)
(7.82978e-09 2.55576e-09 -0.000133236)
(-7.88773e-09 7.00146e-09 -0.000125207)
(1.04556e-08 -3.13314e-09 -0.000125279)
(1.06338e-08 -4.22743e-09 -0.000125197)
(-8.24416e-09 -3.49596e-09 -0.000125197)
(1.17997e-08 3.43792e-09 -0.000125228)
(-7.34611e-09 2.54888e-09 -0.00012523)
(5.31575e-09 -1.37665e-08 -0.000125205)
(-8.07892e-09 6.67545e-09 -0.000125282)
(5.99658e-09 8.11235e-09 -0.000125175)
(-6.61004e-09 -1.11559e-08 -0.000125251)
(-9.37516e-09 -2.62323e-09 -0.000125226)
(8.92814e-09 -1.70513e-09 -0.000125227)
(-8.32129e-09 1.24736e-09 -0.000125197)
(9.62088e-09 -6.30073e-10 -0.000125197)
(-1.05642e-08 3.99095e-09 -0.000133112)
(1.38074e-08 -3.37205e-09 -0.000133271)
(1.48906e-08 1.35881e-08 -0.000133299)
(-8.84162e-09 -2.19997e-09 -0.000133229)
(-5.03853e-09 -1.04699e-08 -0.00013325)
(-6.7155e-09 3.28795e-09 -0.000133123)
(-1.54152e-08 8.50109e-09 -0.000125051)
(1.90057e-08 -6.65689e-09 -0.000125237)
(1.48716e-08 4.54571e-09 -0.000125036)
(-1.16411e-08 -8.34895e-09 -0.00012521)
(1.12907e-08 -6.76797e-09 -0.000125174)
(-9.16456e-09 6.86829e-09 -0.00012508)
(-9.34209e-09 -6.10085e-09 -0.000125151)
(1.29808e-08 5.11386e-09 -0.000125059)
(3.48486e-09 5.12177e-09 -0.000133181)
(-2.83107e-09 -8.71577e-09 -0.000133256)
(1.05509e-08 3.74749e-09 -0.000133093)
(-5.58622e-09 -6.20492e-09 -0.000133248)
(-1.26384e-08 1.19297e-08 -0.000133246)
(8.82786e-09 -3.87495e-09 -0.000133176)
(4.32461e-09 -8.87042e-09 -0.000133226)
(7.83252e-09 4.21009e-09 -0.000133102)
(1.14137e-08 -1.53399e-08 -0.000133086)
(-2.96841e-08 2.24796e-08 -0.000133226)
(-1.54506e-08 1.66543e-08 -0.000133205)
(2.88241e-08 -4.05623e-08 -0.000133262)
(-7.97551e-08 5.20179e-08 -0.000133244)
(4.13383e-08 -3.16843e-08 -0.000133084)
(5.34213e-08 -8.94623e-08 -0.000133281)
(-3.3179e-08 4.66406e-08 -0.000133198)
(-4.46453e-10 -1.01843e-08 -0.000125101)
(8.70478e-09 1.68563e-08 -0.000125075)
(-2.90105e-08 2.20709e-08 -0.000124951)
(1.27205e-08 -1.54577e-08 -0.000125182)
(2.73774e-08 2.44622e-08 -0.000124955)
(-1.46649e-08 -1.68281e-08 -0.000125184)
(1.50597e-08 1.61114e-08 -0.000133234)
(-2.89344e-08 -4.09667e-08 -0.000133296)
(7.85652e-08 5.17547e-08 -0.000133238)
(-3.61382e-08 -2.96937e-08 -0.000133074)
(-5.3872e-08 -9.20873e-08 -0.000133311)
(3.47204e-08 4.99875e-08 -0.000133231)
(-1.24749e-08 -6.50746e-09 -0.000125272)
(1.78781e-08 1.83655e-08 -0.000125144)
(2.78961e-08 -3.9841e-08 -0.000124999)
(-1.54592e-08 2.01145e-08 -0.000125324)
(2.63174e-08 3.64346e-08 -0.000125032)
(-1.71472e-08 -2.43396e-08 -0.000125357)
(1.1312e-08 4.88875e-09 -0.000125276)
(-1.6685e-08 -1.96212e-08 -0.000125151)
(1.10656e-08 -7.89388e-09 -0.000125249)
(-1.66334e-08 1.96582e-08 -0.00012512)
(-2.76305e-08 -4.0688e-08 -0.000125034)
(1.72112e-08 2.52471e-08 -0.000125366)
(-2.57753e-08 4.09263e-08 -0.000125001)
(1.96263e-08 -2.52125e-08 -0.000125334)
(8.7148e-09 1.31021e-08 -0.00013311)
(-2.56447e-08 -2.52699e-08 -0.000133253)
(5.60416e-08 8.56766e-08 -0.000133318)
(-3.72518e-08 -5.15506e-08 -0.000133212)
(-7.89405e-08 -5.14836e-08 -0.000133269)
(3.75467e-08 3.0941e-08 -0.000133113)
(1.53261e-11 8.39729e-09 -0.000125123)
(-5.52886e-09 -1.18996e-08 -0.000125091)
(1.67879e-09 9.00497e-09 -0.000125099)
(5.7671e-09 -1.45186e-08 -0.000125058)
(-2.72486e-08 -2.33557e-08 -0.000124972)
(1.71871e-08 1.36767e-08 -0.000125217)
(2.82405e-08 -2.21897e-08 -0.000124933)
(-1.60875e-08 1.4252e-08 -0.000125178)
(1.66762e-08 -1.73124e-08 -0.000133184)
(-2.5093e-08 3.62352e-08 -0.000133248)
(-7.88022e-09 1.30852e-08 -0.000133089)
(2.68271e-08 -2.16662e-08 -0.000133209)
(-5.38208e-08 9.00793e-08 -0.000133264)
(3.56274e-08 -5.27443e-08 -0.000133176)
(7.82481e-08 -5.03725e-08 -0.00013323)
(-4.06844e-08 3.00781e-08 -0.000133077)
(1.01097e-07 -6.83087e-08 -0.000133043)
(-1.73309e-07 1.09122e-07 -0.000133345)
(-6.87294e-08 1.07754e-07 -0.00013316)
(1.11658e-07 -1.84163e-07 -0.000133386)
(-3.68275e-07 2.16098e-07 -0.000133585)
(2.27135e-07 -1.37459e-07 -0.000132996)
(2.23864e-07 -3.80353e-07 -0.000133633)
(-1.40639e-07 2.31688e-07 -0.000133113)
(-4.61997e-08 -3.19161e-08 -0.00012531)
(6.92471e-08 4.08079e-08 -0.00012483)
(-1.28361e-07 6.907e-08 -0.000124689)
(1.04934e-07 -5.43309e-08 -0.000125514)
(1.2253e-07 7.12596e-08 -0.000124696)
(-1.04017e-07 -5.4133e-08 -0.000125532)
(7.11487e-08 1.09485e-07 -0.000133192)
(-1.11545e-07 -1.76253e-07 -0.000133425)
(3.65721e-07 2.19125e-07 -0.000133587)
(-2.22954e-07 -1.37908e-07 -0.000133006)
(-2.24693e-07 -3.87478e-07 -0.000133666)
(1.45357e-07 2.35837e-07 -0.000133133)
(-3.47804e-08 -5.5868e-08 -0.00012548)
(4.56066e-08 7.81217e-08 -0.000124903)
(7.27803e-08 -1.41217e-07 -0.000124734)
(-5.44079e-08 1.0914e-07 -0.000125659)
(7.54233e-08 1.42278e-07 -0.000124762)
(-5.55732e-08 -1.08822e-07 -0.000125691)
(3.36717e-08 5.54269e-08 -0.000125487)
(-3.95585e-08 -7.82154e-08 -0.000124905)
(3.45426e-08 -5.41194e-08 -0.00012546)
(-3.94822e-08 7.39293e-08 -0.000124875)
(-7.54566e-08 -1.46165e-07 -0.000124762)
(5.71377e-08 1.12162e-07 -0.000125695)
(-7.67328e-08 1.42656e-07 -0.000124733)
(5.71003e-08 -1.1657e-07 -0.000125671)
(1.02408e-07 6.70565e-08 -0.000133076)
(-1.73363e-07 -1.07149e-07 -0.000133371)
(2.26308e-07 3.84631e-07 -0.000133669)
(-1.42624e-07 -2.36388e-07 -0.00013313)
(-3.70801e-07 -2.15126e-07 -0.000133601)
(2.19902e-07 1.35139e-07 -0.000133038)
(4.49554e-08 3.19672e-08 -0.00012533)
(-6.56336e-08 -4.29545e-08 -0.000124851)
(-4.36228e-08 3.30297e-08 -0.000125294)
(7.02863e-08 -4.37293e-08 -0.000124812)
(-1.29155e-07 -6.87557e-08 -0.0001247)
(9.77707e-08 5.22278e-08 -0.000125543)
(1.2655e-07 -6.79158e-08 -0.000124671)
(-9.92093e-08 4.97473e-08 -0.000125512)
(7.03205e-08 -1.08458e-07 -0.000133137)
(-1.0888e-07 1.78781e-07 -0.000133374)
(-9.8139e-08 6.40591e-08 -0.000133039)
(1.79615e-07 -1.11965e-07 -0.000133338)
(-2.29715e-07 3.84675e-07 -0.000133628)
(1.44554e-07 -2.35838e-07 -0.000133077)
(3.65807e-07 -2.19121e-07 -0.000133589)
(-2.2125e-07 1.35791e-07 -0.000132999)
(4.80271e-07 -2.82559e-07 -0.000132921)
(-7.30936e-07 4.29707e-07 -0.000134267)
(-2.80142e-07 4.86055e-07 -0.000133037)
(4.36913e-07 -7.45784e-07 -0.000134323)
(-1.26343e-06 8.07978e-07 -0.000135611)
(9.76804e-07 -5.5978e-07 -0.000133197)
(8.00346e-07 -1.2435e-06 -0.00013571)
(-5.55139e-07 9.77118e-07 -0.000133299)
(-2.14007e-07 -9.57207e-08 -0.000125881)
(2.05908e-07 1.13258e-07 -0.000124707)
(-2.69387e-07 2.09964e-07 -0.000125011)