/*--------------------------------*- C++ -*----------------------------------*\
| =========                 |                                                 |
| \\      /  F ield         | OpenFOAM: The Open Source CFD Toolbox           |
|  \\    /   O peration     | Version:  2206                                  |
|   \\  /    A nd           | Website:  www.openfoam.com                      |
|    \\/     M anipulation  |                                                 |
\*---------------------------------------------------------------------------*/
FoamFile
{
    version     2.0;
    format      ascii;
    arch        "LSB;label=32;scalar=64";
    class       volScalarField;
    location    "130";
    object      k;
}
// * * * * * * * * * * * * * * * * * * * * * * * * * * * * * * * * * * * * * //

dimensions      [0 2 -2 0 0 0 0];

internalField   nonuniform List<scalar> 
66928
(
0.000115817
0.000110865
0.000110678
0.000110902
0.000116416
0.000110193
0.000115895
0.000117286
7.64917e-05
7.54131e-05
2.12486e-05
2.12988e-05
5.15711e-05
5.13452e-05
3.33525e-05
8.76111e-05
3.32857e-05
8.51184e-05
8.75722e-05
9.35386e-05
0.0001142
3.37171e-05
8.5277e-05
9.35907e-05
8.85363e-05
0.000114568
2.15914e-05
5.2016e-05
5.19805e-05
2.14975e-05
8.82206e-05
3.36705e-05
2.13049e-05
2.13359e-05
2.13437e-05
2.13228e-05
5.17062e-05
5.14717e-05
0.000116462
5.17899e-05
5.144e-05
2.14477e-05
2.13699e-05
2.14147e-05
2.13873e-05
0.000116576
5.20309e-05
5.1639e-05
5.19269e-05
5.16035e-05
2.12573e-05
8.43404e-05
0.000105057
5.16243e-05
3.34348e-05
3.34854e-05
0.000105119
8.42856e-05
8.32257e-05
0.000104476
5.14527e-05
3.31076e-05
3.31725e-05
0.000104505
8.31095e-05
4.06608e-05
1.96434e-05
1.96292e-05
1.9664e-05
1.96595e-05
4.05837e-05
3.33847e-05
4.96786e-05
4.97148e-05
1.97735e-05
4.92471e-05
1.98799e-05
7.74153e-05
2.90167e-05
2.64714e-05
4.97792e-05
2.01091e-05
2.90447e-05
7.81399e-05
2.66607e-05
8.40907e-05
0.000105688
5.21271e-05
3.35189e-05
0.000105772
3.35824e-05
8.39908e-05
8.49115e-05
0.000105191
5.20601e-05
3.37737e-05
3.38287e-05
0.000105201
8.47917e-05
4.10589e-05
1.98649e-05
1.98595e-05
1.98943e-05
1.98856e-05
4.09928e-05
2.15313e-05
3.36784e-05
5.01251e-05
5.01544e-05
2.00929e-05
2.12933e-05
2.13463e-05
2.12997e-05
2.13567e-05
4.07855e-05
1.97149e-05
1.96842e-05
1.97324e-05
1.9708e-05
4.06945e-05
8.44154e-05
0.000105327
3.35284e-05
5.16629e-05
8.44881e-05
3.34959e-05
0.000105344
8.32844e-05
0.000104689
3.31872e-05
5.13822e-05
8.34103e-05
3.31309e-05
0.000104671
4.06316e-05
1.96947e-05
1.96785e-05
4.07203e-05
1.96768e-05
1.96517e-05
8.46473e-05
3.35565e-05
5.18229e-05
0.000105543
3.36031e-05
8.45484e-05
0.000105545
8.35696e-05
3.31828e-05
5.15306e-05
0.000104873
3.32402e-05
8.34544e-05
0.000104906
2.14527e-05
2.13689e-05
2.14367e-05
2.13599e-05
4.07667e-05
1.97747e-05
1.97447e-05
4.08645e-05
1.97582e-05
1.97245e-05
8.49564e-05
0.000105951
5.20592e-05
3.37062e-05
3.37445e-05
0.000105962
8.48964e-05
8.39375e-05
0.000105345
5.17168e-05
3.33226e-05
3.33736e-05
0.000105431
8.38278e-05
8.47209e-05
3.3671e-05
0.000105751
5.19012e-05
8.48289e-05
3.36263e-05
0.000105761
8.36427e-05
3.32989e-05
0.000105098
5.15213e-05
8.37663e-05
3.32427e-05
0.000105078
4.09623e-05
1.98063e-05
1.97753e-05
1.98222e-05
1.97935e-05
4.08743e-05
0.000109803
0.000115576
0.000119613
0.000119072
0.000119392
0.000118884
0.000109811
0.000110642
0.000116168
0.000120579
0.000119405
0.000120469
0.00011924
0.000110652
0.000110026
0.000119723
0.000119164
0.000116127
0.000110064
0.000119951
0.000119391
0.000110817
0.000116992
0.000120764
0.000120478
0.000120577
0.000120216
0.000110863
5.67058e-05
5.65102e-05
0.000115564
0.000113751
8.76877e-05
0.000103394
0.000113691
0.00010339
0.000115657
0.000116051
0.000114154
8.7698e-05
0.000103227
0.000114041
0.000103388
0.000116222
0.000115129
0.00011422
0.000111219
0.000114089
0.000111245
0.00011383
0.000115535
0.00011663
0.000115052
8.8679e-05
0.000104162
0.000104234
0.000114996
0.000116877
0.000115639
0.00011457
0.000114082
0.000112091
0.000113859
0.000112102
0.000116049
0.000115915
0.000114283
8.82737e-05
0.000104074
0.000114197
0.000104078
0.000116134
0.000110257
0.000116205
0.000120245
0.000119691
0.000110288
0.000120136
0.000119499
0.000110556
0.000116837
0.000120381
0.000119831
0.000110536
0.000120492
0.000120049
7.5506e-05
0.000112478
0.000110671
0.000114354
7.63682e-05
0.000113546
0.000112953
0.000116243
7.92471e-05
0.000113826
0.000113413
0.000117936
8.15885e-05
0.000116097
0.00011353
0.000118839
8.32137e-05
0.000118095
0.000115231
0.000119436
8.5123e-05
0.000119379
0.000117283
0.000119852
8.59337e-05
0.000119749
0.000118566
0.000120107
8.64337e-05
0.00012004
0.000118704
0.000120558
8.70575e-05
0.000120504
0.000119457
0.000120449
8.71491e-05
0.000120356
0.000119768
0.000120681
8.71918e-05
0.000120145
0.000119654
0.000120573
8.66276e-05
0.000120639
0.000119661
0.000120576
8.60154e-05
0.000120079
0.000119702
0.000120589
8.601e-05
0.000119675
0.000119257
0.000120513
8.6284e-05
0.000119586
0.000118925
0.000120429
8.66519e-05
0.000119542
0.000118786
0.000119808
8.71301e-05
0.000119855
0.000118662
0.000120176
0.000110798
0.000111808
0.000111644
0.000112582
0.000116607
0.000116958
0.000110805
0.00011169
0.000112268
0.000113578
0.00010942
0.000113449
0.00011175
0.00011652
0.000117982
0.000109217
0.000112371
0.000111135
0.000116152
0.000117441
0.000119476
0.000112018
0.000112877
0.000113599
0.000114113
0.000117088
0.000118499
0.000113041
0.000114022
0.000114529
0.000115108
0.00011266
0.000113651
0.000113626
0.000118078
0.000118673
0.000111577
0.000113641
0.000112843
0.000117874
0.000119542
0.000120258
0.000114003
0.000114819
0.000115687
0.000114734
0.000118699
0.000119796
0.000115122
0.000115455
0.000116349
0.000116654
0.000113785
0.000115569
0.000114926
0.000118954
0.00012001
0.000113247
0.000113404
0.000114388
0.000118697
0.000120499
0.000120983
0.000115684
0.000115098
0.000116583
0.000116266
0.000119865
0.00012105
0.000116784
0.000116726
0.000117945
0.000117164
0.000115463
0.000117817
0.000117199
0.000120022
0.000120815
0.000114702
0.000114761
0.000114825
0.00011951
0.000121023
0.000121044
0.000116938
0.000116793
0.000117341
0.000117672
0.000121203
0.00012189
0.000118164
0.000117428
0.000118839
0.000118595
0.000117564
0.000119183
0.000118258
0.000120853
0.000121593
0.000114789
0.000116624
0.00011574
0.000120003
0.000120769
0.000121447
0.000117879
0.00011788
0.000117927
0.000118398
0.000121698
0.000121773
0.000118816
0.000119206
0.000119015
0.000119273
0.000118466
0.000119895
0.000119122
0.000121666
0.00012187
0.000116139
0.000118137
0.000116927
0.000120042
0.000121421
0.000121478
0.000118218
0.000118622
0.000118226
0.000119022
0.000121465
0.000121922
0.000119096
0.000119769
0.000119194
0.000119848
0.000118978
0.000120229
0.000119589
0.000121753
0.000122312
0.000117041
0.000119029
0.000117494
0.000120708
0.000121431
0.000121453
0.000118588
0.000119129
0.000118114
0.000119028
0.000121788
0.000121963
0.000119074
0.000120381
0.000119492
0.000120808
0.00011975
0.000120246
0.000119304
0.000122253
0.00012258
0.000117423
0.00011946
0.000117938
0.000120542
0.000121179
0.000121162
0.000118496
0.000119022
0.000117962
0.000118562
0.000122007
0.000121799
0.000119636
0.000120868
0.000119846
0.000120871
0.000119615
0.000120293
0.000119755
0.000122612
0.00012255
0.000118038
0.000119746
0.000117798
0.000120905
0.000121146
0.000121046
0.000118423
0.000118554
0.000118046
0.00011876
0.000121796
0.00012153
0.000119844
0.000120833
0.000119757
0.000120303
0.0001196
0.000120189
0.000119314
0.000122107
0.000121845
0.000118101
0.000119948
0.00011823
0.000120805
0.000120969
0.000120935
0.000118311
0.000118614
0.000118292
0.000118697
0.000121532
0.000121462
0.000119533
0.000120788
0.000119684
0.000120435
0.000119558
0.00012069
0.00011942
0.000122189
0.000121721
0.000118257
0.00011952
0.000118009
0.000120562
0.000120933
0.000121
0.000118075
0.000118794
0.000118399
0.0001183
0.000121393
0.000121058
0.000119725
0.000120669
0.000119585
0.000120957
0.000119042
0.000120337
0.000119087
0.000121977
0.000122463
0.000118377
0.00011944
0.000118099
0.000120296
0.000120993
0.000120536
0.000118394
0.000117797
0.000118032
0.000118072
0.000121035
0.000121243
0.000119436
0.000121016
0.000118889
0.000120483
0.000119563
0.000119725
0.000119704
0.00012246
0.000121908
0.000118533
0.000119495
0.000118087
0.000120815
0.000120532
0.000120877
0.00011822
0.000117988
0.000117887
0.000118594
0.000121047
0.000121491
0.000119258
0.000120904
0.000119225
0.000120857
0.000119821
0.00011944
0.000119834
0.000121626
0.000122121
0.000117992
0.000119313
0.000118153
0.000120754
0.000120964
0.000120804
0.000118279
0.000118837
0.00011842
0.000118756
0.000121584
0.000121826
0.000119193
0.000120648
0.000119157
0.000120874
0.000119896
0.000119625
0.000119883
0.00012199
0.000121766
0.000118193
0.00011869
0.000118111
0.000120218
0.000120505
0.00012106
0.000118415
0.000118882
0.000118396
0.000118963
0.000121829
0.000121791
0.000119248
0.000120862
0.000119462
0.000120299
0.0001196
0.000119877
0.000119501
0.000121533
0.000121717
0.00011812
0.000118696
0.000117454
0.000120317
0.000121034
0.000118791
0.000118997
0.000121689
0.000119518
0.000120588
0.000119745
0.000119797
0.000121773
0.000117877
0.000117489
0.000119915
8.5247e-05
3.34024e-05
8.5333e-05
3.33867e-05
2.15086e-05
2.15246e-05
8.52506e-05
3.33583e-05
8.53157e-05
3.331e-05
7.80388e-05
7.5932e-05
7.40746e-05
7.59254e-05
7.91302e-05
7.78815e-05
7.54963e-05
0.000115375
8.80213e-05
9.58987e-05
0.000112835
8.80806e-05
9.57867e-05
0.000115319
2.16349e-05
2.16057e-05
0.000115183
9.23719e-05
8.83696e-05
0.000111404
9.38575e-05
8.84435e-05
0.000114967
5.14793e-05
5.14312e-05
0.00011533
5.14826e-05
5.15128e-05
8.54084e-05
3.36134e-05
8.53882e-05
3.36855e-05
2.16362e-05
2.16684e-05
8.57149e-05
3.35585e-05
8.56919e-05
3.36006e-05
7.90231e-05
7.9167e-05
7.63529e-05
7.82909e-05
7.85781e-05
8.03005e-05
7.85764e-05
0.000116096
8.86513e-05
9.57686e-05
0.000113693
0.000115896
8.87726e-05
9.54417e-05
2.17386e-05
2.17689e-05
0.000115876
9.55918e-05
8.88579e-05
0.000113086
0.000115491
9.58185e-05
8.89591e-05
5.18993e-05
5.18783e-05
0.000117085
5.19537e-05
5.19729e-05
8.58978e-05
3.40012e-05
8.57437e-05
3.40195e-05
2.18406e-05
2.18593e-05
8.60179e-05
3.39289e-05
8.60872e-05
3.39198e-05
7.87451e-05
7.94896e-05
7.92173e-05
8.18549e-05
8.03082e-05
8.04988e-05
8.04549e-05
0.000116736
8.93444e-05
9.70495e-05
0.000114351
0.000116606
8.92755e-05
9.78352e-05
2.19497e-05
2.19654e-05
0.000116212
9.71899e-05
8.94252e-05
0.000113589
0.000116385
9.73914e-05
8.95334e-05
5.23136e-05
5.22966e-05
0.000118428
5.22731e-05
5.22938e-05
8.62093e-05
3.40362e-05
8.60877e-05
3.40504e-05
2.19501e-05
2.1945e-05
8.61772e-05
3.40472e-05
8.62779e-05
3.3994e-05
8.13674e-05
8.13023e-05
8.06805e-05
8.25084e-05
8.29617e-05
8.24347e-05
8.04925e-05
0.000116959
8.9604e-05
9.99742e-05
0.000116693
0.000116773
8.95265e-05
0.000100939
2.21039e-05
2.2098e-05
0.000116645
9.71647e-05
8.98836e-05
0.000113967
0.00011637
9.72507e-05
8.99217e-05
5.23238e-05
5.24003e-05
0.000119374
5.22163e-05
5.23334e-05
8.63279e-05
3.40648e-05
8.63172e-05
3.40256e-05
2.19556e-05
2.18509e-05
8.6137e-05
3.40529e-05
8.62731e-05
3.40052e-05
8.32607e-05
8.22335e-05
8.09202e-05
8.46349e-05
8.42923e-05
8.32471e-05
8.28568e-05
0.00011732
8.97468e-05
0.000102584
0.000118467
0.000117218
8.9578e-05
0.000103007
2.21583e-05
2.20879e-05
0.000116726
9.67585e-05
9.00519e-05
0.000115675
0.000116863
9.73319e-05
8.98937e-05
5.22534e-05
5.21628e-05
0.00011968
5.21322e-05
5.20922e-05
8.64733e-05
3.38497e-05
8.65251e-05
3.38529e-05
2.18349e-05
2.17997e-05
8.63263e-05
3.39427e-05
8.6385e-05
3.38959e-05
8.43461e-05
8.38333e-05
8.34098e-05
8.5278e-05
8.61156e-05
8.5468e-05
8.49205e-05
0.000117315
8.9748e-05
0.000103974
0.000119539
0.000117352
8.96403e-05
0.000103759
2.21181e-05
2.2076e-05
0.000116684
9.97686e-05
8.98536e-05
0.000117552
0.000116582
0.000100029
8.97689e-05
5.21621e-05
5.21276e-05
0.000120265
5.2072e-05
5.20577e-05
8.65839e-05
3.38244e-05
8.65266e-05
3.38121e-05
2.18003e-05
2.17485e-05
8.61674e-05
3.40079e-05
8.6314e-05
3.39361e-05
8.61526e-05
8.53179e-05
8.50264e-05
8.57372e-05
8.60495e-05
8.63043e-05
8.55889e-05
0.000117311
8.96337e-05
0.000104485
0.000119807
0.000117192
8.95316e-05
0.000104547
2.21199e-05
2.20512e-05
0.000116564
0.000100917
8.98588e-05
0.000118501
0.000116371
0.000101148
8.97597e-05
5.22215e-05
5.21215e-05
0.000120392
5.21488e-05
5.21075e-05
8.64137e-05
3.37384e-05
8.64189e-05
3.3721e-05
2.17688e-05
2.1761e-05
8.61255e-05
3.38891e-05
8.6243e-05
3.38084e-05
8.66838e-05
8.62016e-05
8.5616e-05
8.68788e-05
8.72175e-05
8.73488e-05
8.64338e-05
0.000117358
8.96068e-05
0.00010493
0.000120472
0.000117382
8.95122e-05
0.000104269
2.20428e-05
2.19541e-05
0.000116399
0.000101728
8.98121e-05
0.000119178
0.000116244
0.000101792
8.98318e-05
5.21408e-05
5.20865e-05
0.000120567
5.20432e-05
5.20637e-05
8.66969e-05
3.36199e-05
8.66233e-05
3.36125e-05
2.1832e-05
2.18118e-05
8.63917e-05
3.38324e-05
8.64981e-05
3.37604e-05
8.65428e-05
8.70852e-05
8.66841e-05
8.71348e-05
8.67675e-05
8.75162e-05
8.67629e-05
0.000117141
8.95307e-05
0.000104905
0.00012057
0.000117174
8.93892e-05
0.000105183
2.19217e-05
2.18441e-05
0.000116393
0.00010214
8.98374e-05
0.000119573
0.000116242
0.000102061
8.98276e-05
5.21674e-05
5.206e-05
0.000120709
5.20971e-05
5.19868e-05
8.65352e-05
3.36011e-05
8.6671e-05
3.35843e-05
2.18423e-05
2.18278e-05
8.62982e-05
3.38447e-05
8.64934e-05
3.37431e-05
8.7559e-05
8.75913e-05
8.63659e-05
8.72124e-05
8.76137e-05
8.78821e-05
8.65562e-05
0.000117283
8.96302e-05
0.000104911
0.000120333
0.000117266
8.95004e-05
0.000105599
2.1826e-05
2.17737e-05
0.000116361
0.000102119
8.98352e-05
0.000119616
0.000116366
0.000102373
8.95985e-05
5.21592e-05
5.19019e-05
0.000120795
5.20647e-05
5.18873e-05
8.65194e-05
3.37201e-05
8.64787e-05
3.36859e-05
2.18626e-05
2.18247e-05
8.61061e-05
3.37777e-05
8.61977e-05
3.36792e-05
8.73556e-05
8.80395e-05
8.6771e-05
8.6809e-05
8.73541e-05
8.72579e-05
8.68333e-05
0.000117241
8.92678e-05
0.000105539
0.000120593
0.000117282
8.90856e-05
0.000105677
2.18354e-05
2.18043e-05
0.0001166
0.000101985
8.94846e-05
0.000119846
0.000116379
0.000101919
8.94836e-05
5.21248e-05
5.19686e-05
0.000120581
5.20356e-05
5.19119e-05
8.65065e-05
3.36561e-05
8.65419e-05
3.36272e-05
2.18552e-05
2.18394e-05
8.60332e-05
3.3763e-05
8.6148e-05
3.371e-05
8.7336e-05
8.79281e-05
8.68149e-05
8.70883e-05
8.71237e-05
8.80468e-05
8.65829e-05
0.000117374
8.89271e-05
0.000105901
0.000120657
0.000117251
8.88496e-05
0.000105784
2.18764e-05
2.18476e-05
0.000116744
0.000102858
8.94426e-05
0.000119404
0.000116614
0.000102464
8.94661e-05
5.2005e-05
5.20555e-05
0.000120699
5.19031e-05
5.19372e-05
8.66869e-05
3.36666e-05
8.6648e-05
3.36377e-05
2.18727e-05
2.18535e-05
8.63204e-05
3.37547e-05
8.63569e-05
3.36916e-05
8.65305e-05
8.75475e-05
8.63057e-05
8.61254e-05
8.70727e-05
8.79067e-05
8.6643e-05
0.000117139
8.88715e-05
0.000105054
0.000120119
0.000117207
8.86678e-05
0.000105195
2.1925e-05
2.18734e-05
0.000116603
0.000102468
8.93982e-05
0.000119809
0.000116799
0.00010279
8.94162e-05
5.20775e-05
5.18872e-05
0.000120784
5.19948e-05
5.18575e-05
8.66376e-05
3.37567e-05
8.66438e-05
3.37586e-05
2.18969e-05
2.18876e-05
8.61655e-05
3.38157e-05
8.61966e-05
3.37449e-05
8.72114e-05
8.76906e-05
8.73953e-05
8.56532e-05
8.73397e-05
8.80177e-05
8.72319e-05
0.000117448
8.8745e-05
0.000105702
0.000119587
0.00011729
8.86707e-05
0.000105296
2.18941e-05
2.18301e-05
0.000116322
0.000102905
8.95259e-05
0.000119721
0.000116396
0.000102908
8.96181e-05
5.20882e-05
5.1935e-05
0.000120771
5.19637e-05
5.19114e-05
8.65732e-05
3.38775e-05
8.65624e-05
3.3829e-05
2.19116e-05
2.18459e-05
8.61263e-05
3.38301e-05
8.62587e-05
3.37653e-05
8.73486e-05
8.79032e-05
8.71874e-05
8.66511e-05
8.73557e-05
8.73902e-05
8.72726e-05
0.000117045
8.88881e-05
0.000105593
0.000119662
0.000117064
8.88029e-05
0.000105582
2.18657e-05
2.18228e-05
0.000116317
0.000102504
8.94074e-05
0.000118746
0.000116152
0.00010268
8.93168e-05
5.18827e-05
5.18579e-05
0.000120478
5.17498e-05
5.17987e-05
8.65402e-05
3.38446e-05
8.65127e-05
3.38394e-05
2.18437e-05
2.18193e-05
8.64198e-05
3.38986e-05
8.64347e-05
3.38686e-05
8.68429e-05
8.65312e-05
8.73784e-05
8.63751e-05
8.73781e-05
8.73134e-05
8.72496e-05
0.00011681
8.91145e-05
0.000104746
0.000120084
0.000117095
8.90579e-05
0.000105468
2.18953e-05
2.18458e-05
0.00011626
0.000102499
8.91606e-05
0.00011879
0.00011616
0.000102302
8.90158e-05
5.16737e-05
5.18949e-05
0.000119872
5.15897e-05
5.18629e-05
8.65445e-05
3.37597e-05
8.64722e-05
3.37607e-05
2.1838e-05
2.18218e-05
8.64027e-05
3.39181e-05
8.65191e-05
3.38361e-05
8.72778e-05
8.68014e-05
8.64063e-05
8.70068e-05
0.00011714
8.92739e-05
0.000105057
0.000119538
0.000116991
8.91037e-05
0.00010491
2.18694e-05
2.182e-05
0.00011624
0.000102602
8.91597e-05
0.00011875
0.000116533
0.000102626
8.91787e-05
5.16963e-05
5.19427e-05
0.000120373
5.16282e-05
5.1929e-05
8.53336e-05
3.37086e-05
3.36964e-05
8.53108e-05
0.000113456
8.7787e-05
9.37937e-05
0.000111047
9.31947e-05
0.000113342
8.79497e-05
0.000113657
8.87101e-05
9.34885e-05
0.000112217
8.87512e-05
9.45841e-05
0.000113375
8.52187e-05
3.35174e-05
8.52866e-05
3.34609e-05
8.52735e-05
3.37451e-05
3.3759e-05
8.53459e-05
0.000113662
0.000111415
8.83499e-05
9.372e-05
9.38694e-05
0.000113828
8.81873e-05
0.000113728
0.000112438
8.88551e-05
9.41484e-05
8.88947e-05
9.46616e-05
0.000114022
5.20825e-05
5.16638e-05
0.000117003
5.21247e-05
5.16394e-05
2.14551e-05
2.14554e-05
2.15903e-05
2.15698e-05
0.000116964
5.22964e-05
5.18174e-05
5.22641e-05
5.17959e-05
2.15296e-05
2.15198e-05
0.000114389
8.77657e-05
9.38812e-05
0.000111137
9.42395e-05
0.00011438
8.77333e-05
8.53342e-05
3.37863e-05
3.37367e-05
8.54406e-05
0.000114654
9.41462e-05
8.86642e-05
0.000112497
9.45358e-05
8.86587e-05
0.000114546
8.54157e-05
3.3428e-05
8.54219e-05
3.34191e-05
0.000114514
0.000111796
8.80855e-05
9.54664e-05
9.49877e-05
0.00011496
8.80157e-05
8.55396e-05
3.38222e-05
3.38392e-05
8.54808e-05
0.000114757
0.000113238
9.58736e-05
8.89149e-05
9.52653e-05
8.88817e-05
0.000114963
8.62696e-05
3.36201e-05
3.36126e-05
8.63393e-05
0.000115139
9.39669e-05
8.80027e-05
0.000110108
9.46914e-05
8.80837e-05
0.000115029
8.60305e-05
3.36496e-05
3.36339e-05
8.61234e-05
0.000115473
0.0001129
8.84311e-05
9.50462e-05
8.83164e-05
9.5939e-05
0.000115758
8.64361e-05
3.37338e-05
3.37241e-05
8.64336e-05
0.000115284
0.000111019
9.43265e-05
8.84364e-05
9.44624e-05
8.83159e-05
0.00011551
8.62325e-05
3.37419e-05
3.37451e-05
8.62125e-05
5.21237e-05
5.20566e-05
0.000117145
5.2075e-05
5.20514e-05
2.15208e-05
2.15117e-05
2.16679e-05
2.1665e-05
0.000117428
5.21993e-05
5.22254e-05
5.22113e-05
5.21979e-05
2.15599e-05
2.15502e-05
0.000115326
9.18682e-05
8.80371e-05
0.000109694
9.29264e-05
8.81579e-05
0.000115
8.67145e-05
3.37244e-05
3.36938e-05
8.66487e-05
8.67544e-05
3.3581e-05
3.36117e-05
8.66087e-05
0.000115395
0.000111976
9.50415e-05
8.87468e-05
9.46035e-05
8.86484e-05
0.000115419
0.000115331
0.000110558
9.4496e-05
8.85073e-05
9.36049e-05
8.83433e-05
0.000115503
8.68184e-05
3.37837e-05
3.3787e-05
8.68446e-05
8.68844e-05
3.37612e-05
3.37046e-05
8.69691e-05
2.14118e-05
2.14105e-05
2.13144e-05
2.13459e-05
0.000115584
5.17033e-05
5.17498e-05
5.16719e-05
5.16549e-05
2.14963e-05
2.14783e-05
2.14309e-05
2.14005e-05
2.15154e-05
2.15671e-05
2.15002e-05
2.15618e-05
5.21899e-05
5.18422e-05
0.000118319
5.23089e-05
5.1963e-05
2.17178e-05
2.16324e-05
2.17124e-05
2.16594e-05
0.000118622
5.26149e-05
5.23313e-05
5.25035e-05
5.22054e-05
8.55561e-05
3.38108e-05
8.54662e-05
3.38032e-05
0.000114184
8.86091e-05
9.39955e-05
0.000112538
0.000114001
8.88866e-05
9.46464e-05
0.000114206
8.89878e-05
9.45169e-05
0.00011326
0.000114079
8.90371e-05
9.4702e-05
8.55155e-05
3.38665e-05
3.38427e-05
8.5584e-05
8.57107e-05
3.39831e-05
3.39005e-05
8.57072e-05
0.000114277
0.000113094
8.928e-05
9.57811e-05
8.91222e-05
9.53488e-05
0.000114388
0.000114213
0.00011364
8.93933e-05
9.56681e-05
8.92408e-05
9.4982e-05
0.00011447
5.24296e-05
5.19912e-05
0.00011785
5.24952e-05
5.20315e-05
2.15988e-05
2.16246e-05
2.17866e-05
2.17435e-05
0.000117936
5.26999e-05
5.22818e-05
5.26658e-05
5.22421e-05
2.17246e-05
2.17e-05
0.0001155
8.83871e-05
9.62765e-05
0.000113647
0.000115183
8.86059e-05
9.70529e-05
8.57795e-05
3.39353e-05
8.57393e-05
3.39433e-05
0.000115456
9.65284e-05
8.91486e-05
0.00011438
0.000115091
9.70809e-05
8.92626e-05
8.60165e-05
3.38108e-05
3.37605e-05
8.59075e-05
0.000115701
0.000114227
8.90536e-05
9.806e-05
8.89194e-05
9.76287e-05
0.000115777
8.60325e-05
3.41065e-05
3.40763e-05
8.61051e-05
0.000115663
0.000114709
9.78153e-05
8.96394e-05
9.75373e-05
8.95153e-05
0.000115832
8.67518e-05
3.38562e-05
8.67053e-05
3.38685e-05
0.000116108
9.48587e-05
8.86841e-05
0.000113382
0.000115697
9.5511e-05
8.87922e-05
8.65893e-05
3.38577e-05
8.65127e-05
3.38615e-05
0.000116244
0.000113713
8.91225e-05
9.6263e-05
8.90587e-05
9.56063e-05
0.000116526
8.69865e-05
3.40056e-05
3.39896e-05
8.70606e-05
0.000116353
0.000113576
9.70416e-05
8.90995e-05
9.64003e-05
8.9031e-05
0.000116603
8.68879e-05
3.3981e-05
3.39861e-05
8.69962e-05
5.23731e-05
5.23473e-05
0.00011831
5.24267e-05
5.23854e-05
2.15996e-05
2.1619e-05
2.18791e-05
2.18496e-05
0.000118299
5.26748e-05
5.26078e-05
5.26354e-05
5.25264e-05
2.17411e-05
2.16873e-05
0.000116209
9.52031e-05
8.87171e-05
0.00011196
0.000115708
9.58293e-05
8.88584e-05
8.71926e-05
3.38506e-05
8.70417e-05
3.38333e-05
8.73754e-05
3.38419e-05
8.71625e-05
3.38696e-05
0.000116124
0.000112949
9.7189e-05
8.92672e-05
9.66891e-05
8.9125e-05
0.000116267
0.000116403
0.000112469
9.6521e-05
8.92122e-05
9.63976e-05
8.9055e-05
0.000116505
8.73782e-05
3.40045e-05
3.39707e-05
8.75331e-05
8.75874e-05
3.40454e-05
3.40153e-05
8.77505e-05
2.15671e-05
2.15877e-05
2.14694e-05
2.15393e-05
0.000117252
5.21721e-05
5.2169e-05
5.21255e-05
5.21146e-05
2.16729e-05
2.16573e-05
2.16238e-05
2.16008e-05
2.17818e-05
2.1807e-05
2.17861e-05
2.17929e-05
5.28076e-05
5.25141e-05
0.000119897
5.28562e-05
5.25391e-05
2.18437e-05
2.18545e-05
2.18103e-05
2.18508e-05
0.000119942
5.29536e-05
5.25739e-05
5.30003e-05
5.26954e-05
8.60602e-05
3.40781e-05
8.59555e-05
3.41254e-05
0.000114811
8.95043e-05
9.6774e-05
0.000114709
0.000114539
8.96109e-05
9.68948e-05
0.000114834
8.96173e-05
9.60577e-05
0.000114869
0.000114624
8.97388e-05
9.64515e-05
8.60455e-05
3.40658e-05
3.40441e-05
8.61583e-05
8.61942e-05
3.42535e-05
3.4228e-05
8.62877e-05
0.000114953
0.000115192
8.97107e-05
9.78036e-05
8.97365e-05
9.78265e-05
0.000115061
0.000115051
0.000114686
8.99582e-05
9.76366e-05
8.99152e-05
9.74583e-05
0.000115252
5.28545e-05
5.24754e-05
0.000119471
5.28617e-05
5.24541e-05
2.17918e-05
2.17959e-05
2.19158e-05
2.19026e-05
0.000119529
5.29668e-05
5.25497e-05
5.30015e-05
5.26075e-05
2.18222e-05
2.18528e-05
0.000116024
8.9329e-05
9.85504e-05
0.000115632
0.000115816
8.93237e-05
9.89338e-05
8.62988e-05
3.42269e-05
8.63325e-05
3.42413e-05
0.000116108
9.81663e-05
8.98287e-05
0.000116153
0.000115916
9.84176e-05
8.98585e-05
8.62483e-05
3.39613e-05
3.40099e-05
8.61619e-05
0.000115996
0.000115904
8.93709e-05
0.0001002
8.94858e-05
9.96276e-05
0.000115802
8.65092e-05
3.43555e-05
3.43635e-05
8.64054e-05
0.000116094
0.000116465
9.9276e-05
9.00895e-05
9.88913e-05
9.00434e-05
0.000115976
8.7095e-05
3.41249e-05
8.72199e-05
3.40526e-05
0.000116685
9.7721e-05
8.93682e-05
0.00011412
0.000116622
9.85809e-05
8.93698e-05
8.7248e-05
3.40639e-05
8.72297e-05
3.40328e-05
0.000116732
0.000114949
8.94684e-05
9.9483e-05
8.95038e-05
9.86997e-05
0.000116787
8.73002e-05
3.4083e-05
3.41272e-05
8.72024e-05
0.000116806
0.000114631
0.000100506
8.94379e-05
9.95568e-05
8.95106e-05
0.000116829
8.74466e-05
3.41188e-05
3.41362e-05
8.73562e-05
5.28408e-05
5.27523e-05
0.00011918
5.28631e-05
5.28297e-05
2.18012e-05
2.18387e-05
2.204e-05
2.20336e-05
0.000119401
5.3025e-05
5.29575e-05
5.30169e-05
5.29536e-05
2.1883e-05
2.18863e-05
0.000116584
9.74363e-05
8.93544e-05
0.000113604
0.00011666
9.74089e-05
8.94383e-05
8.75835e-05
3.41001e-05
8.76803e-05
3.41437e-05
8.78469e-05
3.41039e-05
8.78769e-05
3.40789e-05
0.000116326
0.00011351
9.7429e-05
8.97806e-05
9.72875e-05
8.97089e-05
0.000116428
0.000116551
0.0001143
9.69006e-05
8.95624e-05
9.76536e-05
8.95351e-05
0.000116644
8.7725e-05
3.41618e-05
3.42159e-05
8.76938e-05
8.79239e-05
3.41686e-05
3.41994e-05
8.79157e-05
2.17316e-05
2.17042e-05
2.16617e-05
2.16625e-05
0.00011845
5.22361e-05
5.23527e-05
5.23726e-05
5.23906e-05
2.17116e-05
2.17536e-05
2.16949e-05
2.16994e-05
2.1866e-05
2.18358e-05
2.18571e-05
2.18152e-05
5.30315e-05
5.26823e-05
0.000120681
5.29533e-05
5.25898e-05
2.17994e-05
2.18557e-05
2.18313e-05
2.18646e-05
0.000120539
5.28589e-05
5.26039e-05
5.29653e-05
5.269e-05
8.63418e-05
3.42976e-05
8.62649e-05
3.42725e-05
0.000115195
8.98472e-05
9.744e-05
0.000116129
0.000115076
8.98465e-05
9.75122e-05
0.000115438
9.00909e-05
9.78286e-05
0.000115447
0.000115191
9.00851e-05
9.78872e-05
8.63098e-05
3.40859e-05
3.41101e-05
8.62547e-05
8.64603e-05
3.43168e-05
3.43579e-05
8.64774e-05
0.000115375
0.000116093
8.98707e-05
9.80765e-05
8.98938e-05
9.77337e-05
0.000115373
0.000115434
0.000115908
9.00312e-05
9.91294e-05
9.01734e-05
9.87413e-05
0.000115362
5.30915e-05
5.26877e-05
0.000120237
5.30743e-05
5.264e-05
2.18747e-05
2.18516e-05
2.19245e-05
2.19796e-05
0.000120382
5.30247e-05
5.26685e-05
5.31749e-05
5.27497e-05
2.18635e-05
2.1903e-05
0.000115705
8.95218e-05
0.000100724
0.000117094
0.000115805
8.94532e-05
0.0001013
8.64606e-05
3.44603e-05
8.65739e-05
3.44279e-05
0.000115944
0.000100248
9.02652e-05
0.000117321
0.000115971
0.000100711
9.02269e-05
8.6329e-05
3.40401e-05
3.40873e-05
8.62815e-05
0.000115621
0.000117321
8.96452e-05
0.000101831
8.9666e-05
0.000101902
0.000115761
8.66398e-05
3.44589e-05
3.45222e-05
8.65895e-05
0.000115943
0.000117358
0.000101233
9.02006e-05
0.000101042
9.03505e-05
0.000115917
8.72232e-05
3.41688e-05
8.73704e-05
3.4136e-05
0.000117117
0.000100672
8.95374e-05
0.000116193
0.000116972
0.000100483
8.93596e-05
8.74641e-05
3.41545e-05
8.75618e-05
3.40465e-05
0.000117078
0.000117275
8.96364e-05
0.000102114
8.96732e-05
0.000101775
0.000117233
8.73619e-05
3.41803e-05
3.42314e-05
8.71831e-05
0.000117146
0.000116581
0.000101255
8.93417e-05
0.000100754
8.94542e-05
0.000117223
8.76733e-05
3.40283e-05
3.41547e-05
8.7598e-05
5.31847e-05
5.30363e-05
0.000120359
5.31832e-05
5.30322e-05
2.19121e-05
2.19054e-05
2.21127e-05
2.21518e-05
0.000120394
5.32008e-05
5.31345e-05
5.32965e-05
5.31303e-05
2.19076e-05
2.19354e-05
0.000116892
9.74193e-05
8.96672e-05
0.000114706
0.000116746
9.7553e-05
8.96649e-05
8.76487e-05
3.42323e-05
8.76472e-05
3.4252e-05
8.77682e-05
3.423e-05
8.79422e-05
3.41759e-05
0.000116687
0.000114343
9.65228e-05
8.99299e-05
9.70222e-05
9.00111e-05
0.000116868
0.000116983
0.000114447
9.68647e-05
8.95704e-05
9.75603e-05
8.97173e-05
0.000117119
8.76891e-05
3.42272e-05
3.42279e-05
8.76271e-05
8.7922e-05
3.41154e-05
3.4133e-05
8.7849e-05
2.17507e-05
2.16861e-05
2.17208e-05
2.16833e-05
0.00011922
5.22361e-05
5.21931e-05
5.23158e-05
5.23202e-05
2.168e-05
2.17309e-05
2.15901e-05
2.16619e-05
2.182e-05
2.17709e-05
2.18774e-05
2.18277e-05
5.29016e-05
5.27222e-05
0.000121225
5.27887e-05
5.25927e-05
2.17255e-05
2.17836e-05
2.17738e-05
2.18659e-05
0.000121122
5.27207e-05
5.24592e-05
5.28337e-05
5.26371e-05
8.65364e-05
3.43284e-05
8.64632e-05
3.42749e-05
0.000115386
8.99091e-05
9.8549e-05
0.000117128
0.000115387
8.97379e-05
9.88261e-05
0.0001154
9.01745e-05
9.93085e-05
0.000117098
0.000115524
9.00665e-05
9.96971e-05
8.64514e-05
3.39105e-05
3.39665e-05
8.64311e-05
8.66523e-05
3.41833e-05
3.42236e-05
8.6657e-05
0.000115454
0.000117379
8.9481e-05
9.96751e-05
8.96706e-05
9.88793e-05
0.000115615
0.000115597
0.000117545
8.98581e-05
9.99219e-05
9.00838e-05
9.93047e-05
0.000115771
5.30911e-05
5.27805e-05
0.000121427
5.29155e-05
5.26838e-05
2.19094e-05
2.18704e-05
2.18119e-05
2.18507e-05
0.000121464
5.2749e-05
5.27021e-05
5.29612e-05
5.28028e-05
2.18737e-05
2.19197e-05
0.000115879
8.97895e-05
0.000102451
0.000118315
0.000115767
8.96838e-05
0.00010238
8.65811e-05
3.45278e-05
8.66813e-05
3.43679e-05
0.000116117
0.00010149
9.03786e-05
0.000117776
0.000116131
0.000101616
9.01893e-05
8.63428e-05
3.39459e-05
3.40902e-05
8.63662e-05
0.000115928
0.0001188
8.95382e-05
0.000102729
8.97408e-05
0.000102601
0.00011619
8.67823e-05
3.43506e-05
3.44531e-05
8.67591e-05
0.000116327
0.000118112
0.000102471
9.01914e-05
0.000102144
9.03356e-05
0.000116497
8.73709e-05
3.42658e-05
8.74667e-05
3.41888e-05
0.000117482
0.000101685
8.94122e-05
0.000117808
0.000117335
0.000102228
8.92345e-05
8.75196e-05
3.4112e-05
8.77701e-05
3.4066e-05
0.000117333
0.00011878
8.95696e-05
0.000104044
8.97946e-05
0.000103203
0.000117351
8.7518e-05
3.42014e-05
3.42695e-05
8.74646e-05
0.000117636
0.000117983
0.000102982
8.92166e-05
0.00010266
8.93746e-05
0.000117597
8.76528e-05
3.39586e-05
3.40855e-05
8.74633e-05
5.3302e-05
5.315e-05
0.000121131
5.31513e-05
5.30318e-05
2.19174e-05
2.18823e-05
2.20732e-05
2.21278e-05
0.000121167
5.31349e-05
5.29621e-05
5.32424e-05
5.30444e-05
2.18464e-05
2.19049e-05
0.000116876
9.73705e-05
8.95052e-05
0.000115005
0.000117112
9.77517e-05
8.9374e-05
8.7537e-05
3.42126e-05
8.77173e-05
3.41885e-05
8.78358e-05
3.40512e-05
8.7927e-05
3.40038e-05
0.000116773
0.000116219
9.84155e-05
8.9826e-05
9.80197e-05
8.99477e-05
0.000116754
0.000116849
0.000115521
9.85798e-05
8.93344e-05
9.82198e-05
8.93489e-05
0.000116778
8.76068e-05
3.40976e-05
3.42235e-05
8.75534e-05
8.7777e-05
3.3941e-05
3.39402e-05
8.76966e-05
2.17164e-05
2.16536e-05
2.15869e-05
2.15629e-05
0.000119727
5.21466e-05
5.2139e-05
5.22397e-05
5.21821e-05
2.16313e-05
2.16935e-05
2.15617e-05
2.15853e-05
2.17405e-05
2.16683e-05
2.18035e-05
2.1743e-05
5.27755e-05
5.25442e-05
0.000121338
5.26389e-05
5.24485e-05
2.16553e-05
2.16871e-05
2.17454e-05
2.17891e-05
0.000121379
5.25776e-05
5.24528e-05
5.26591e-05
5.25473e-05
8.68354e-05
3.42552e-05
8.68458e-05
3.4204e-05
0.000115869
8.95301e-05
9.95318e-05
0.0001179
0.000115768
8.94766e-05
9.99314e-05
0.000116091
8.99513e-05
9.97723e-05
0.000117867
0.000115811
8.98455e-05
0.000100568
8.65952e-05
3.38517e-05
3.38481e-05