/*--------------------------------*- C++ -*----------------------------------*\
| =========                 |                                                 |
| \\      /  F ield         | OpenFOAM: The Open Source CFD Toolbox           |
|  \\    /   O peration     | Version:  2206                                  |
|   \\  /    A nd           | Website:  www.openfoam.com                      |
|    \\/     M anipulation  |                                                 |
\*---------------------------------------------------------------------------*/
FoamFile
{
    version     2.0;
    format      ascii;
    arch        "LSB;label=32;scalar=64";
    class       volScalarField;
    location    "130";
    object      nut;
}
// * * * * * * * * * * * * * * * * * * * * * * * * * * * * * * * * * * * * * //

dimensions      [0 2 -1 0 0 0 0];

internalField   nonuniform List<scalar> 
66928
(
1.78069e-06
1.73089e-06
1.70381e-06
1.70141e-06
1.78838e-06
1.72573e-06
1.82921e-06
1.8059e-06
2.30592e-06
2.2664e-06
5.34733e-08
5.3377e-08
2.50421e-07
2.47175e-07
1.12617e-07
4.90481e-07
1.11622e-07
4.55092e-07
4.85633e-07
1.92775e-06
9.42522e-07
1.13054e-07
4.56176e-07
1.92648e-06
4.92053e-07
9.4609e-07
5.40991e-08
2.50641e-07
2.52377e-07
5.40808e-08
4.94548e-07
1.13669e-07
5.35967e-08
5.36862e-08
5.3469e-08
5.34341e-08
2.50987e-07
2.47806e-07
1.79213e-06
2.51453e-07
2.4761e-07
5.3962e-08
5.37562e-08
5.36565e-08
5.35734e-08
1.84099e-06
2.52655e-07
2.48563e-07
2.52206e-07
2.48435e-07
5.34856e-08
4.26478e-07
7.00234e-07
2.50528e-07
1.09317e-07
1.09464e-07
7.00723e-07
4.28147e-07
4.2481e-07
6.9294e-07
2.47915e-07
1.07773e-07
1.07956e-07
6.92844e-07
4.26491e-07
1.63872e-07
4.88983e-08
4.87494e-08
4.89329e-08
4.88068e-08
1.63536e-07
1.12697e-07
2.32572e-07
2.32367e-07
4.76341e-08
2.27539e-07
4.76048e-08
3.88725e-07
9.37836e-08
8.04098e-08
2.30112e-07
4.81424e-08
9.38719e-08
3.92904e-07
8.09809e-08
4.3019e-07
7.01199e-07
2.51305e-07
1.09109e-07
7.01519e-07
1.09288e-07
4.31994e-07
4.2975e-07
7.03815e-07
2.52949e-07
1.10374e-07
1.10529e-07
7.03963e-07
4.31117e-07
1.65542e-07
4.93281e-08
4.94208e-08
4.93827e-08
4.94696e-08
1.65231e-07
5.4151e-08
1.13678e-07
2.34883e-07
2.34926e-07
4.83831e-08
5.35827e-08
5.36999e-08
5.33795e-08
5.35014e-08
1.643e-07
4.90713e-08
4.88823e-08
4.90996e-08
4.89239e-08
1.63978e-07
4.28779e-07
7.02189e-07
1.09592e-07
2.50991e-07
4.27215e-07
1.0951e-07
7.02164e-07
4.27339e-07
6.93964e-07
1.08006e-07
2.47452e-07
4.25719e-07
1.07853e-07
6.94129e-07
1.63717e-07
4.90086e-08
4.88534e-08
1.64093e-07
4.89801e-08
4.88051e-08
4.27996e-07
1.09689e-07
2.5186e-07
7.03513e-07
1.0982e-07
4.29418e-07
7.03647e-07
4.26498e-07
1.08012e-07
2.48304e-07
6.95423e-07
1.08172e-07
4.28175e-07
6.95312e-07
5.39625e-08
5.37684e-08
5.36941e-08
5.35247e-08
1.64256e-07
4.92024e-08
4.90127e-08
1.64644e-07
4.91785e-08
4.89815e-08
4.2954e-07
7.06262e-07
2.53054e-07
1.10158e-07
1.10259e-07
7.06458e-07
4.31164e-07
4.28341e-07
6.98497e-07
2.49184e-07
1.08452e-07
1.08593e-07
6.98749e-07
4.30057e-07
4.30263e-07
1.10031e-07
7.05044e-07
2.52155e-07
4.2889e-07
1.0991e-07
7.04944e-07
4.29101e-07
1.08362e-07
6.96572e-07
2.48086e-07
4.27475e-07
1.08208e-07
6.96716e-07
1.65029e-07
4.92957e-08
4.91046e-08
4.93195e-08
4.91318e-08
1.64711e-07
7.99894e-07
1.82358e-06
1.08434e-06
1.07807e-06
1.09684e-06
1.09421e-06
7.97906e-07
8.08051e-07
1.83006e-06
1.08222e-06
1.0941e-06
1.09901e-06
1.10721e-06
8.06007e-07
7.99452e-07
1.09999e-06
1.09693e-06
1.78622e-06
8.01741e-07
1.08758e-06
1.08118e-06
8.07265e-07
1.84821e-06
1.09551e-06
1.09166e-06
1.10827e-06
1.10718e-06
8.05497e-07
2.54969e-06
2.54195e-06
1.29173e-06
9.46119e-07
4.89575e-07
6.98584e-07
9.53252e-07
6.98889e-07
1.2806e-06
1.26857e-06
9.30736e-07
4.83805e-07
6.86561e-07
9.40048e-07
6.87135e-07
1.24977e-06
1.3407e-06
9.45317e-07
8.59905e-07
1.44076e-06
8.61885e-07
1.473e-06
1.31955e-06
1.27918e-06
9.43416e-07
4.90334e-07
6.94341e-07
6.94268e-07
9.53286e-07
1.26128e-06
1.34776e-06
9.48735e-07
1.44258e-06
8.68281e-07
1.47521e-06
8.70108e-07
1.32667e-06
1.29076e-06
9.46745e-07
4.93554e-07
7.03712e-07
9.53549e-07
7.04411e-07
1.28182e-06
8.03084e-07
1.83494e-06
1.09052e-06
1.08416e-06
8.01319e-07
1.1039e-06
1.10024e-06
8.03269e-07
1.79841e-06
1.10635e-06
1.10347e-06
8.05212e-07
1.09276e-06
1.08751e-06
2.27603e-06
1.73299e-06
1.73349e-06
1.80046e-06
2.31061e-06
1.75232e-06
1.77203e-06
1.83372e-06
2.4062e-06
1.75902e-06
1.78031e-06
1.8613e-06
2.48482e-06
1.79622e-06
1.78423e-06
1.8773e-06
2.54086e-06
1.82857e-06
1.81323e-06
1.88689e-06
2.60525e-06
1.84944e-06
1.84728e-06
1.89244e-06
2.63441e-06
1.85565e-06
1.86826e-06
1.89655e-06
2.65387e-06
1.86029e-06
1.87027e-06
1.90284e-06
2.67554e-06
1.86761e-06
1.88288e-06
1.90017e-06
2.68022e-06
1.86566e-06
1.88859e-06
1.90389e-06
2.68116e-06
1.86229e-06
1.88778e-06
1.90224e-06
2.66447e-06
1.86951e-06
1.88745e-06
1.90177e-06
2.64399e-06
1.85996e-06
1.88746e-06
1.90209e-06
2.64388e-06
1.85372e-06
1.8796e-06
1.90079e-06
2.65233e-06
1.85226e-06
1.87393e-06
1.89913e-06
2.66431e-06
1.85186e-06
1.87179e-06
1.88867e-06
2.67888e-06
1.85684e-06
1.86959e-06
1.89437e-06
1.73041e-06
1.74531e-06
1.74664e-06
1.75985e-06
1.83986e-06
1.80006e-06
1.70645e-06
1.71414e-06
1.73193e-06
1.74596e-06
1.67813e-06
1.75014e-06
1.71738e-06
1.83769e-06
1.81548e-06
1.70781e-06
1.76241e-06
1.74062e-06
1.78518e-06
1.85566e-06
1.83973e-06
1.75305e-06
1.76487e-06
1.77891e-06
1.78564e-06
1.84931e-06
1.82511e-06
1.74436e-06
1.75319e-06
1.7686e-06
1.77101e-06
1.73196e-06
1.75563e-06
1.74821e-06
1.86445e-06
1.82693e-06
1.74794e-06
1.78356e-06
1.76933e-06
1.81242e-06
1.88853e-06
1.85164e-06
1.78554e-06
1.79677e-06
1.81269e-06
1.7967e-06
1.87526e-06
1.84512e-06
1.77814e-06
1.77659e-06
1.79823e-06
1.7961e-06
1.75094e-06
1.78741e-06
1.77054e-06
1.87942e-06
1.84909e-06
1.77593e-06
1.78169e-06
1.7955e-06
1.82647e-06
1.90382e-06
1.863e-06
1.81304e-06
1.80275e-06
1.82801e-06
1.82205e-06
1.89397e-06
1.86494e-06
1.80518e-06
1.7974e-06
1.82388e-06
1.80527e-06
1.7793e-06
1.8239e-06
1.80768e-06
1.8977e-06
1.86149e-06
1.80079e-06
1.80539e-06
1.80453e-06
1.83964e-06
1.91228e-06
1.86259e-06
1.834e-06
1.83054e-06
1.84073e-06
1.84549e-06
1.91531e-06
1.87827e-06
1.82736e-06
1.80945e-06
1.8381e-06
1.82832e-06
1.81344e-06
1.84616e-06
1.82526e-06
1.91061e-06
1.87286e-06
1.80438e-06
1.83645e-06
1.82073e-06
1.84637e-06
1.90659e-06
1.86768e-06
1.84937e-06
1.84879e-06
1.85019e-06
1.85753e-06
1.92411e-06
1.87635e-06
1.83785e-06
1.8378e-06
1.84093e-06
1.8397e-06
1.82854e-06
1.85792e-06
1.83917e-06
1.92282e-06
1.87621e-06
1.82708e-06
1.86154e-06
1.84023e-06
1.84691e-06
1.91591e-06
1.86815e-06
1.85492e-06
1.86101e-06
1.8553e-06
1.86757e-06
1.91993e-06
1.87855e-06
1.84224e-06
1.84727e-06
1.84403e-06
1.84879e-06
1.8369e-06
1.86326e-06
1.84644e-06
1.92334e-06
1.88345e-06
1.84205e-06
1.87554e-06
1.84952e-06
1.85672e-06
1.91593e-06
1.86745e-06
1.86104e-06
1.86911e-06
1.85374e-06
1.86728e-06
1.92507e-06
1.87915e-06
1.84217e-06
1.85683e-06
1.84878e-06
1.86437e-06
1.84859e-06
1.86343e-06
1.84151e-06
1.93145e-06
1.88863e-06
1.84822e-06
1.88274e-06
1.8565e-06
1.85293e-06
1.91178e-06
1.86238e-06
1.85959e-06
1.86688e-06
1.85092e-06
1.85988e-06
1.92828e-06
1.87604e-06
1.85108e-06
1.8655e-06
1.8544e-06
1.86637e-06
1.84592e-06
1.86471e-06
1.8485e-06
1.93843e-06
1.88854e-06
1.8576e-06
1.88815e-06
1.85396e-06
1.85862e-06
1.91061e-06
1.86007e-06
1.85807e-06
1.8595e-06
1.85193e-06
1.86277e-06
1.92462e-06
1.87146e-06
1.85423e-06
1.86565e-06
1.85244e-06
1.85793e-06
1.84585e-06
1.86303e-06
1.84126e-06
1.93094e-06
1.87709e-06
1.85851e-06
1.89227e-06
1.86056e-06
1.85679e-06
1.90732e-06
1.858e-06
1.85599e-06
1.86028e-06
1.85551e-06
1.86198e-06
1.91995e-06
1.86961e-06
1.84872e-06
1.86532e-06
1.85087e-06
1.85964e-06
1.84459e-06
1.87065e-06
1.84244e-06
1.93198e-06
1.87436e-06
1.86079e-06
1.88564e-06
1.85717e-06
1.8526e-06
1.90626e-06
1.85861e-06
1.85222e-06
1.86319e-06
1.85718e-06
1.8551e-06
1.9172e-06
1.86276e-06
1.85142e-06
1.86282e-06
1.84873e-06
1.86666e-06
1.83635e-06
1.86433e-06
1.83757e-06
1.92731e-06
1.88462e-06
1.86272e-06
1.88353e-06
1.85851e-06
1.84871e-06
1.90711e-06
1.85163e-06
1.85703e-06
1.84695e-06
1.8513e-06
1.85182e-06
1.91044e-06
1.86569e-06
1.84634e-06
1.86742e-06
1.8381e-06
1.85912e-06
1.84471e-06
1.8546e-06
1.8478e-06
1.93398e-06
1.87609e-06
1.86525e-06
1.88369e-06
1.85852e-06
1.8568e-06
1.9002e-06
1.85734e-06
1.85459e-06
1.85039e-06
1.84917e-06
1.86034e-06
1.91147e-06
1.86992e-06
1.84397e-06
1.8655e-06
1.84328e-06
1.8652e-06
1.84956e-06
1.85023e-06
1.85059e-06
1.92089e-06
1.87934e-06
1.85678e-06
1.88014e-06
1.85966e-06
1.85548e-06
1.90728e-06
1.85605e-06
1.85548e-06
1.86398e-06
1.85764e-06
1.86265e-06
1.92009e-06
1.87546e-06
1.84265e-06
1.8617e-06
1.84212e-06
1.86504e-06
1.85117e-06
1.85318e-06
1.85138e-06
1.92643e-06
1.87391e-06
1.85977e-06
1.8704e-06
1.8584e-06
1.84672e-06
1.89946e-06
1.86097e-06
1.85756e-06
1.86441e-06
1.85752e-06
1.86626e-06
1.92469e-06
1.87517e-06
1.84351e-06
1.86453e-06
1.8471e-06
1.85612e-06
1.84681e-06
1.85726e-06
1.84524e-06
1.91894e-06
1.87353e-06
1.85846e-06
1.87045e-06
1.84783e-06
1.84795e-06
1.909e-06
1.86364e-06
1.86681e-06
1.9222e-06
1.84781e-06
1.8603e-06
1.84861e-06
1.84963e-06
1.92257e-06
1.85421e-06
1.84836e-06
1.8419e-06
4.61181e-07
1.12775e-07
4.60493e-07
1.12735e-07
5.40974e-08
5.41521e-08
4.55649e-07
1.11835e-07
4.52544e-07
1.11689e-07
2.35308e-06
2.28255e-06
2.2304e-06
2.29561e-06
2.39062e-06
2.34712e-06
2.27802e-06
9.53197e-07
4.86223e-07
1.97555e-06
1.73906e-06
4.88998e-07
1.9744e-06
9.55469e-07
5.41879e-08
5.41348e-08
9.74681e-07
1.97572e-06
4.94042e-07
1.74603e-06
2.00989e-06
4.95663e-07
9.75524e-07
2.47867e-07
2.4943e-07
1.771e-06
2.47947e-07
2.49978e-07
4.61793e-07
1.13459e-07
4.60478e-07
1.13725e-07
5.4412e-08
5.45089e-08
4.57975e-07
1.1246e-07
4.54351e-07
1.12642e-07
2.38806e-06
2.38783e-06
2.3058e-06
2.37584e-06
2.38082e-06
2.42567e-06
2.37998e-06
9.58865e-07
4.89637e-07
1.97677e-06
1.75507e-06
9.60115e-07
4.92906e-07
1.97156e-06
5.44388e-08
5.45369e-08
9.80676e-07
2.04979e-06
4.96628e-07
1.77449e-06
9.79822e-07
2.05553e-06
4.98526e-07
2.49851e-07
2.517e-07
1.80004e-06
2.50192e-07
2.5224e-07
4.64554e-07
1.14746e-07
4.62385e-07
1.14835e-07
5.49194e-08
5.49835e-08
4.59557e-07
1.13694e-07
4.56351e-07
1.13701e-07
2.3881e-06
2.40185e-06
2.40065e-06
2.49205e-06
2.44342e-06
2.43697e-06
2.44324e-06
9.63583e-07
4.9347e-07
2.00915e-06
1.76736e-06
9.65507e-07
4.95611e-07
2.02719e-06
5.49614e-08
5.50208e-08
9.83363e-07
2.08648e-06
4.99982e-07
1.78345e-06
9.87506e-07
2.09156e-06
5.01942e-07
2.51875e-07
2.53701e-07
1.8214e-06
2.51833e-07
2.53803e-07
4.66343e-07
1.14854e-07
4.64368e-07
1.14933e-07
5.51904e-08
5.51941e-08
4.60501e-07
1.14083e-07
4.5741e-07
1.13941e-07
2.47793e-06
2.46266e-06
2.4509e-06
2.51856e-06
2.53161e-06
2.50251e-06
2.45065e-06
9.65178e-07
4.94895e-07
2.07556e-06
1.80582e-06
9.66473e-07
4.97034e-07
2.09698e-06
5.5342e-08
5.53524e-08
9.86759e-07
2.08899e-06
5.02585e-07
1.79177e-06
9.87038e-07
2.09197e-06
5.04072e-07
2.51853e-07
2.5414e-07
1.83766e-06
2.51354e-07
2.53822e-07
4.66986e-07
1.14945e-07
4.65652e-07
1.14843e-07
5.52021e-08
5.49588e-08
4.6035e-07
1.14095e-07
4.5755e-07
1.13982e-07
2.54193e-06
2.49782e-06
2.46547e-06
2.59e-06
2.57726e-06
2.53522e-06
2.53137e-06
9.68138e-07
4.95613e-07
2.1333e-06
1.83444e-06
9.70248e-07
4.9718e-07
2.14305e-06
5.54776e-08
5.53247e-08
9.86929e-07
2.08487e-06
5.03404e-07
1.82057e-06
9.90955e-07
2.09882e-06
5.03779e-07
2.51437e-07
2.52892e-07
1.84169e-06
2.51059e-07
2.52574e-07
4.67858e-07
1.14221e-07
4.66837e-07
1.14265e-07
5.49013e-08
5.48323e-08
4.61316e-07
1.13729e-07
4.58048e-07
1.13616e-07
2.58007e-06
2.55485e-06
2.54996e-06
2.6143e-06
2.63791e-06
2.6098e-06
2.60086e-06
9.67878e-07
4.95588e-07
2.16423e-06
1.85215e-06
9.71143e-07
4.97591e-07
2.16017e-06
5.53752e-08
5.52937e-08
9.8606e-07
2.15484e-06
5.02069e-07
1.85186e-06
9.87891e-07
2.16109e-06
5.02844e-07
2.51024e-07
2.52667e-07
1.8504e-06
2.50669e-07
2.52381e-07
4.684e-07
1.14136e-07
4.66831e-07
1.14129e-07
5.48171e-08
5.47063e-08
4.604e-07
1.13948e-07
4.57655e-07
1.13752e-07
2.63933e-06
2.60623e-06
2.60442e-06
2.63212e-06
2.63935e-06
2.6389e-06
2.62519e-06
9.6785e-07
4.94914e-07
2.17588e-06
1.85662e-06
9.6958e-07
4.96817e-07
2.17752e-06
5.53781e-08
5.52303e-08
9.84956e-07
2.18178e-06
5.0203e-07
1.86731e-06
9.85906e-07
2.18705e-06
5.02774e-07
2.51293e-07
2.52594e-07
1.85232e-06
2.51041e-07
2.52614e-07
4.67456e-07
1.13851e-07
4.66193e-07
1.13825e-07
5.47386e-08
5.47367e-08
4.60131e-07
1.13551e-07
4.57179e-07
1.13321e-07
2.65908e-06
2.6368e-06
2.62703e-06
2.67051e-06
2.67663e-06
2.67321e-06
2.65425e-06
9.68237e-07
4.9468e-07
2.18569e-06
1.86687e-06
9.71355e-07
4.96762e-07
2.17195e-06
5.51871e-08
5.49916e-08
9.8317e-07
2.20043e-06
5.01762e-07
1.87791e-06
9.84587e-07
2.20181e-06
5.03155e-07
2.5091e-07
2.52443e-07
1.85368e-06
2.50622e-07
2.52465e-07
4.6912e-07
1.1345e-07
4.67376e-07
1.13456e-07
5.48973e-08
5.48648e-08
4.61686e-07
1.13359e-07
4.58612e-07
1.1316e-07
2.65599e-06
2.66558e-06
2.66282e-06
2.68028e-06
2.66356e-06
2.67973e-06
2.66519e-06
9.65919e-07
4.94199e-07
2.18578e-06
1.86847e-06
9.69236e-07
4.95858e-07
2.1922e-06
5.48896e-08
5.47208e-08
9.83157e-07
2.20987e-06
5.01806e-07
1.88487e-06
9.84294e-07
2.20822e-06
5.03054e-07
2.5104e-07
2.52353e-07
1.85555e-06
2.50878e-07
2.52036e-07
4.68179e-07
1.13386e-07
4.6769e-07
1.13362e-07
5.49217e-08
5.49018e-08
4.61216e-07
1.13397e-07
4.5869e-07
1.13101e-07
2.68801e-06
2.68244e-06
2.653e-06
2.68306e-06
2.69083e-06
2.69397e-06
2.65859e-06
9.67106e-07
4.94606e-07
2.18674e-06
1.86513e-06
9.69826e-07
4.96486e-07
2.20145e-06
5.46538e-08
5.45457e-08
9.82757e-07
2.20934e-06
5.017e-07
1.88649e-06
9.85397e-07
2.21537e-06
5.01563e-07
2.50985e-07
2.51525e-07
1.85695e-06
2.50633e-07
2.51572e-07
4.68001e-07
1.13783e-07
4.66531e-07
1.13703e-07
5.49698e-08
5.48939e-08
4.60089e-07
1.13178e-07
4.57031e-07
1.12893e-07
2.68349e-06
2.69903e-06
2.66478e-06
2.67083e-06
2.68474e-06
2.67525e-06
2.66676e-06
9.66578e-07
4.92426e-07
2.19985e-06
1.86908e-06
9.69877e-07
4.93847e-07
2.20272e-06
5.46752e-08
5.46221e-08
9.84966e-07
2.20722e-06
4.99435e-07
1.89075e-06
9.85541e-07
2.20601e-06
5.00696e-07
2.50826e-07
2.51835e-07
1.85325e-06
2.50573e-07
2.51713e-07
4.67989e-07
1.13572e-07
4.66855e-07
1.13502e-07
5.49518e-08
5.4928e-08
4.59705e-07
1.1313e-07
4.56735e-07
1.12999e-07
2.68378e-06
2.69592e-06
2.66641e-06
2.67837e-06
2.67772e-06
2.69963e-06
2.65966e-06
9.67855e-07
4.90336e-07
2.20698e-06
1.8696e-06
9.69672e-07
4.92494e-07
2.20453e-06
5.47791e-08
5.47293e-08
9.86446e-07
2.22632e-06
4.99187e-07
1.88326e-06
9.87786e-07
2.21768e-06
5.00639e-07
2.50247e-07
2.52301e-07
1.85449e-06
2.49899e-07
2.51767e-07
4.69055e-07
1.13598e-07
4.67549e-07
1.13527e-07
5.49902e-08
5.49596e-08
4.61342e-07
1.13109e-07
4.57932e-07
1.12938e-07
2.65978e-06
2.68391e-06
2.6518e-06
2.64811e-06
2.67623e-06
2.69402e-06
2.66187e-06
9.65684e-07
4.90013e-07
2.18935e-06
1.86062e-06
9.6915e-07
4.91372e-07
2.1925e-06
5.49002e-08
5.47957e-08
9.85052e-07
2.21786e-06
4.9892e-07
1.88908e-06
9.89396e-07
2.22474e-06
5.00314e-07
2.50602e-07
2.51464e-07
1.8567e-06
2.50244e-07
2.51413e-07
4.68718e-07
1.13902e-07
4.6752e-07
1.13939e-07
5.50486e-08
5.50438e-08
4.60472e-07
1.13312e-07
4.57074e-07
1.13115e-07
2.67952e-06
2.6869e-06
2.68523e-06
2.63334e-06
2.68308e-06
2.69644e-06
2.68003e-06
9.68731e-07
4.89347e-07
2.20256e-06
1.85242e-06
9.70136e-07
4.91562e-07
2.19419e-06
5.48255e-08
5.46872e-08
9.82282e-07
2.22675e-06
4.99707e-07
1.88673e-06
9.85571e-07
2.22648e-06
5.01566e-07
2.50617e-07
2.51703e-07
1.856e-06
2.50069e-07
2.51775e-07
4.68334e-07
1.14309e-07
4.66993e-07
1.14177e-07
5.50863e-08
5.4941e-08
4.60333e-07
1.13353e-07
4.57442e-07
1.13183e-07
2.6824e-06
2.69356e-06
2.67927e-06
2.66425e-06
2.68264e-06
2.67838e-06
2.68337e-06
9.65167e-07
4.90258e-07
2.20043e-06
1.85341e-06
9.68246e-07
4.92317e-07
2.20056e-06
5.47516e-08
5.46697e-08
9.82177e-07
2.21765e-06
4.9904e-07
1.87113e-06
9.83326e-07
2.22183e-06
4.99817e-07
2.49647e-07
2.51375e-07
1.85086e-06
2.49073e-07
2.51227e-07
4.68224e-07
1.14197e-07
4.66749e-07
1.14214e-07
5.49176e-08
5.48741e-08
4.62011e-07
1.13582e-07
4.58495e-07
1.13519e-07
2.66658e-06
2.65222e-06
2.68716e-06
2.6555e-06
2.68325e-06
2.67675e-06
2.68293e-06
9.6322e-07
4.91604e-07
2.18289e-06
1.86041e-06
9.68481e-07
4.93919e-07
2.19837e-06
5.48302e-08
5.47278e-08
9.82176e-07
2.21751e-06
4.97592e-07
1.87196e-06
9.83617e-07
2.21293e-06
4.98085e-07
2.48604e-07
2.51574e-07
1.84147e-06
2.48292e-07
2.51507e-07
4.6837e-07
1.13915e-07
4.66677e-07
1.13946e-07
5.4904e-08
5.48839e-08
4.61928e-07
1.13642e-07
4.59006e-07
1.13416e-07
2.67935e-06
2.6606e-06
2.65649e-06
2.67381e-06
9.66039e-07
4.92597e-07
2.18931e-06
1.85185e-06
9.6766e-07
4.94179e-07
2.18656e-06
5.4761e-08
5.46629e-08
9.82105e-07
2.21908e-06
4.97633e-07
1.87094e-06
9.87196e-07
2.21965e-06
4.99034e-07
2.48671e-07
2.51796e-07
1.84898e-06
2.48437e-07
2.51774e-07
4.61715e-07
1.1377e-07
1.13754e-07
4.60434e-07
9.59537e-07
4.90212e-07
2.00853e-06
1.73569e-06
1.99742e-06
9.61372e-07
4.92399e-07
9.61158e-07
4.95556e-07
2.00185e-06
1.75256e-06
4.97136e-07
2.02752e-06
9.6173e-07
4.59708e-07
1.13161e-07
4.61234e-07
1.12975e-07
4.60091e-07
1.13913e-07
1.13955e-07
4.61637e-07
9.63633e-07
1.74227e-06
4.94677e-07
2.01201e-06
2.01332e-06
9.6233e-07
4.92453e-07
9.64178e-07
1.75693e-06
4.97591e-07
2.02065e-06
4.96642e-07
2.03046e-06
9.63952e-07
2.52626e-07
2.48809e-07
1.80006e-06
2.52841e-07
2.48841e-07
5.375e-08
5.3767e-08
5.43144e-08
5.4252e-08
1.84605e-06
2.53896e-07
2.49657e-07
2.53609e-07
2.49374e-07
5.39493e-08
5.39051e-08
9.43878e-07
4.84097e-07
1.93544e-06
1.71268e-06
1.9448e-06
9.4654e-07
4.86357e-07
4.56277e-07
1.13254e-07
1.13107e-07
4.53436e-07
9.46581e-07
1.93855e-06
4.90121e-07
1.72776e-06
1.9482e-06
4.92517e-07
9.48457e-07
4.52971e-07
1.12063e-07
4.56478e-07
1.12031e-07
9.47589e-07
1.72378e-06
4.88247e-07
1.97312e-06
1.9619e-06
9.4848e-07
4.85365e-07
4.53792e-07
1.13374e-07
1.13427e-07
4.56899e-07
9.50107e-07
1.73987e-06
1.97877e-06
4.93835e-07
1.96502e-06
4.91182e-07
9.48879e-07
4.617e-07
1.12696e-07
1.12704e-07
4.58592e-07
9.51232e-07
1.9332e-06
4.86388e-07
1.68998e-06
1.94965e-06
4.89273e-07
9.53128e-07
4.60282e-07
1.12786e-07
1.12766e-07
4.57343e-07
9.56642e-07
1.7408e-06
4.90975e-07
1.96097e-06
4.87723e-07
1.97838e-06
9.56238e-07
4.59003e-07
1.13099e-07
1.13049e-07
4.62531e-07
9.55099e-07
1.70498e-06
1.94472e-06
4.91155e-07
1.94605e-06
4.87989e-07
9.54139e-07
4.57784e-07
1.13111e-07
1.13112e-07
4.61204e-07
2.51224e-07
2.52776e-07
1.8015e-06
2.50927e-07
2.5302e-07
5.41254e-08
5.41201e-08
5.42852e-08
5.42645e-08
1.85364e-06
2.51472e-07
2.53773e-07
2.51754e-07
2.53546e-07
5.42384e-08
5.42021e-08
9.76028e-07
1.96506e-06
4.91516e-07
1.71611e-06
1.98958e-06
4.93425e-07
9.75899e-07
4.69754e-07
1.13836e-07
1.13754e-07
4.68131e-07
4.70036e-07
1.13341e-07
1.13474e-07
4.67958e-07
9.78911e-07
1.75558e-06
2.03709e-06
4.97277e-07
2.02666e-06
4.95507e-07
9.76657e-07
9.78449e-07
1.73052e-06
2.0252e-06
4.95364e-07
2.00519e-06
4.93178e-07
9.77493e-07
4.69038e-07
1.14046e-07
1.14052e-07
4.70467e-07
4.69446e-07
1.13968e-07
1.13772e-07
4.71231e-07
5.36392e-08
5.3656e-08
5.3607e-08
5.37031e-08
1.82196e-06
2.48983e-07
2.51193e-07
2.49055e-07
2.50774e-07
5.38664e-08
5.38053e-08
5.39141e-08
5.38245e-08
5.41182e-08
5.42602e-08
5.38497e-08
5.40239e-08
2.53516e-07
2.49548e-07
1.82211e-06
2.54085e-07
2.50152e-07
5.46332e-08
5.44084e-08
5.43979e-08
5.42499e-08
1.87448e-06
2.55504e-07
2.51952e-07
2.54885e-07
2.51555e-07
4.62697e-07
1.14122e-07
4.61012e-07
1.14108e-07
9.65067e-07
4.94876e-07
2.01927e-06
1.76153e-06
9.66213e-07
4.97863e-07
2.03459e-06
9.65232e-07
4.97058e-07
2.02984e-06
1.77146e-06
9.66898e-07
4.98671e-07
2.03509e-06
4.61106e-07
1.14319e-07
1.1424e-07
4.62767e-07
4.6227e-07
1.1471e-07
1.14423e-07
4.63538e-07
9.68277e-07
1.77085e-06
5.00252e-07
2.06139e-06
4.97935e-07
2.05117e-06
9.66664e-07
9.67774e-07
1.77787e-06
5.00799e-07
2.0574e-06
4.98574e-07
2.0422e-06
9.67399e-07
2.54424e-07
2.50396e-07
1.81476e-06
2.54869e-07
2.50713e-07
5.4102e-08
5.41847e-08
5.48025e-08
5.46837e-08
1.86327e-06
2.55932e-07
2.51907e-07
2.55896e-07
2.51575e-07
5.4432e-08
5.43524e-08
9.52594e-07
4.87397e-07
1.99115e-06
1.75437e-06
9.53031e-07
4.91246e-07
2.00867e-06
4.58426e-07
1.13732e-07
4.54708e-07
1.13776e-07
9.52734e-07
1.9937e-06
4.92581e-07
1.75912e-06
9.5265e-07
2.00639e-06
4.95779e-07
4.55997e-07
1.13339e-07
1.1316e-07
4.5896e-07
9.56946e-07
1.76362e-06
4.93846e-07
2.03227e-06
4.90468e-07
2.02216e-06
9.54538e-07
4.56215e-07
1.14313e-07
1.14204e-07
4.6018e-07
9.57196e-07
1.7645e-06
2.02336e-06
4.97936e-07
2.017e-06
4.94649e-07
9.55549e-07
4.64248e-07
1.13482e-07
4.60409e-07
1.13542e-07
9.58959e-07
1.95731e-06
4.89968e-07
1.74367e-06
9.58399e-07
1.97253e-06
4.93121e-07
4.63274e-07
1.13473e-07
4.59255e-07
1.13509e-07
9.62749e-07
1.75604e-06
4.94842e-07
1.99126e-06
4.91903e-07
1.97639e-06
9.62109e-07
4.61921e-07
1.13982e-07
1.13919e-07
4.65941e-07
9.63643e-07
1.74701e-06
2.00697e-06
4.94827e-07
1.99255e-06
4.91885e-07
9.62719e-07
4.61319e-07
1.13891e-07
1.13901e-07
4.65547e-07
2.52159e-07
2.54197e-07
1.8208e-06
2.52536e-07
2.54408e-07
5.43225e-08
5.43841e-08
5.48092e-08
5.47208e-08
1.86839e-06
2.53864e-07
2.55422e-07
2.53789e-07
2.55154e-07
5.46849e-08
5.45397e-08
9.835e-07
2.04122e-06
4.95258e-07
1.75452e-06
9.81643e-07
2.05598e-06
4.97365e-07
4.72403e-07
1.14252e-07
4.70257e-07
1.14206e-07
4.73505e-07
1.14225e-07
4.70996e-07
1.14332e-07
9.85252e-07
1.77236e-06
2.08612e-06
5.00352e-07
2.07488e-06
4.9819e-07
9.83964e-07
9.87626e-07
1.7629e-06
2.07231e-06
4.99362e-07
2.06893e-06
4.97188e-07
9.85949e-07
4.72146e-07
1.14767e-07
1.14653e-07
4.74332e-07
4.73366e-07
1.14914e-07
1.14811e-07
4.7561e-07
5.40227e-08
5.40948e-08
5.3996e-08
5.41851e-08
1.84984e-06
2.51269e-07
2.53168e-07
2.51106e-07
2.52988e-07
5.43045e-08
5.42482e-08
5.43949e-08
5.43244e-08
5.47808e-08
5.48576e-08
5.45634e-08
5.45997e-08
2.56506e-07
2.52908e-07
1.84569e-06
2.56701e-07
2.52943e-07
5.49458e-08
5.49634e-08
5.46405e-08
5.47264e-08
1.8945e-06
2.57176e-07
2.53073e-07
2.57623e-07
2.53854e-07
4.65515e-07
1.15015e-07
4.63641e-07
1.1519e-07
9.70061e-07
5.00243e-07
2.08309e-06
1.79686e-06
9.70385e-07
5.02262e-07
2.08679e-06
9.70301e-07
5.00817e-07
2.06675e-06
1.79822e-06
9.71198e-07
5.02932e-07
2.07641e-06
4.64101e-07
1.14983e-07
1.14911e-07
4.66033e-07
4.65003e-07
1.1561e-07
1.15524e-07
4.66796e-07
9.73705e-07
1.8049e-06
5.02841e-07
2.10771e-06
5.01675e-07
2.10782e-06
9.71984e-07
9.74649e-07
1.79565e-06
5.04144e-07
2.10354e-06
5.02639e-07
2.09915e-06
9.73652e-07
2.56503e-07
2.52696e-07
1.84028e-06
2.56406e-07
2.52579e-07
5.45808e-08
5.46044e-08
5.51214e-08
5.50799e-08
1.88844e-06
2.57033e-07
2.5304e-07
2.57265e-07
2.53533e-07
5.46669e-08
5.47264e-08
9.56433e-07
4.92812e-07
2.04336e-06
1.78627e-06
9.5761e-07
4.95387e-07
2.05251e-06
4.61249e-07
1.14698e-07
4.57822e-07
1.14759e-07
9.57663e-07
2.03154e-06
4.96439e-07
1.7878e-06
9.58953e-07
2.03773e-06
4.99224e-07
4.57217e-07
1.13832e-07
1.13989e-07
4.60364e-07
9.58904e-07
1.79109e-06
4.95627e-07
2.08124e-06
4.93725e-07
2.06831e-06
9.54234e-07
4.58813e-07
1.1513e-07
1.15146e-07
4.61895e-07
9.60259e-07
1.79282e-06
2.05733e-06
5.00612e-07
2.04858e-06
4.97702e-07
9.56312e-07
4.66123e-07
1.14358e-07
4.63194e-07
1.14134e-07
9.63082e-07
2.02215e-06
4.93733e-07
1.75685e-06
9.65559e-07
2.04138e-06
4.96312e-07
4.66947e-07
1.14144e-07
4.63226e-07
1.14068e-07
9.66277e-07
1.77725e-06
4.96737e-07
2.06427e-06
4.94275e-07
2.04683e-06
9.63748e-07
4.63614e-07
1.14223e-07
1.14356e-07
4.66665e-07
9.66842e-07
1.76527e-06
2.08306e-06
4.96616e-07
2.06271e-06
4.94493e-07
9.64253e-07
4.64427e-07
1.14341e-07
1.1439e-07
4.6759e-07
2.54474e-07
2.56205e-07
1.83562e-06
2.54607e-07
2.56511e-07
5.48205e-08
5.49268e-08
5.52043e-08
5.51722e-08
1.88714e-06
2.55367e-07
2.57102e-07
2.55377e-07
2.57148e-07
5.5034e-08
5.50308e-08
9.86528e-07
2.09269e-06
4.98864e-07
1.7821e-06
9.89709e-07
2.0929e-06
5.00646e-07
4.74593e-07
1.15078e-07
4.73835e-07
1.15236e-07
4.76107e-07
1.15095e-07
4.74968e-07
1.15026e-07
9.86786e-07
1.78272e-06
2.09376e-06
5.03321e-07
2.0899e-06
5.0163e-07
9.85008e-07
9.88695e-07
1.79352e-06
2.08337e-06
5.01346e-07
2.09902e-06
4.9989e-07
9.86926e-07
4.74031e-07
1.15279e-07
1.15461e-07
4.75101e-07
4.75186e-07
1.15313e-07
1.15418e-07
4.76434e-07
5.44314e-08
5.43824e-08
5.44756e-08
5.4489e-08
1.86981e-06
2.51503e-07
2.54135e-07
2.52167e-07
2.54123e-07
5.4399e-08
5.44857e-08
5.45688e-08
5.45666e-08
5.49877e-08
5.49268e-08
5.47406e-08
5.46544e-08
2.57478e-07
2.53824e-07
1.85822e-06
2.57092e-07
2.53147e-07
5.48335e-08
5.49639e-08
5.469e-08
5.4758e-08
1.90452e-06
2.5664e-07
2.53141e-07
2.57336e-07
2.5364e-07
4.67103e-07
1.15751e-07
4.65416e-07
1.15677e-07
9.72994e-07
5.02279e-07
2.10034e-06
1.82005e-06
9.74596e-07
5.03583e-07
2.10276e-06
9.75108e-07
5.03597e-07
2.10883e-06
1.80855e-06
9.75624e-07
5.04878e-07
2.11071e-06
4.65613e-07
1.15044e-07
1.15118e-07
4.66604e-07
4.66488e-07
1.15814e-07
1.15954e-07
4.67856e-07
9.77003e-07
1.82018e-06
5.03659e-07
2.1165e-06
5.02507e-07
2.10841e-06
9.74437e-07
9.77613e-07
1.81616e-06
5.04539e-07
2.13865e-06
5.04064e-07
2.12999e-06
9.7437e-07
2.57777e-07
2.53574e-07
1.85186e-06
2.57623e-07
2.53545e-07
5.47787e-08
5.47421e-08
5.51413e-08
5.52692e-08
1.9021e-06
2.5737e-07
2.53573e-07
2.58387e-07
2.53903e-07
5.47714e-08
5.48508e-08
9.53294e-07
4.93894e-07
2.09278e-06
1.81018e-06
9.57015e-07
4.96082e-07
2.10555e-06
4.62261e-07
1.15463e-07
4.59223e-07
1.15382e-07
9.55933e-07
2.0786e-06
4.9903e-07
1.80696e-06
9.58996e-07
2.08894e-06
5.0147e-07
4.57763e-07
1.14088e-07
1.14236e-07
4.61166e-07
9.5544e-07
1.81419e-06
4.97151e-07
2.11763e-06
4.9468e-07
2.11857e-06
9.53855e-07
4.59654e-07
1.1548e-07
1.15679e-07
4.6306e-07
9.58709e-07
1.80793e-06
2.10071e-06
5.01334e-07
2.09654e-06
4.9957e-07
9.55766e-07
4.66781e-07
1.14486e-07
4.63958e-07
1.14401e-07
9.66711e-07
2.0871e-06
4.94549e-07
1.79136e-06
9.68286e-07
2.084e-06
4.96093e-07
4.68211e-07
1.14437e-07
4.65103e-07
1.141e-07
9.6901e-07
1.81522e-06
4.97606e-07
2.123e-06
4.9524e-07
2.11533e-06
9.67473e-07
4.63927e-07
1.14549e-07
1.14695e-07
4.66591e-07
9.69776e-07
1.79767e-06
2.10155e-06
4.95943e-07
2.09054e-06
4.94024e-07
9.6761e-07
4.65742e-07
1.14038e-07
1.14438e-07
4.68991e-07
2.56193e-07
2.57398e-07
1.85473e-06
2.56367e-07
2.57402e-07
5.50923e-08
5.50907e-08
5.53871e-08
5.54679e-08
1.90367e-06
2.56412e-07
2.57909e-07
2.56738e-07
2.57952e-07
5.50952e-08
5.51519e-08
9.8896e-07
2.09501e-06
5.0063e-07
1.80167e-06
9.90277e-07
2.09889e-06
5.0191e-07
4.74764e-07
1.15502e-07
4.73519e-07
1.15583e-07
4.75552e-07
1.15505e-07
4.75223e-07
1.15339e-07
9.8954e-07
1.79811e-06
2.0786e-06
5.04051e-07
2.08819e-06
5.03237e-07
9.88479e-07
9.92163e-07
1.79797e-06
2.08595e-06
5.0128e-07
2.10002e-06
5.00882e-07
9.90792e-07
4.73655e-07
1.15495e-07
1.15487e-07
4.74589e-07
4.75054e-07
1.15126e-07
1.15183e-07
4.75939e-07
5.44776e-08
5.4336e-08
5.46183e-08
5.45373e-08
1.88339e-06
2.51424e-07
2.53159e-07
2.51862e-07
2.53795e-07
5.43202e-08
5.44285e-08
5.4303e-08
5.4469e-08
5.48723e-08
5.47647e-08
5.47871e-08
5.46831e-08
2.56911e-07
2.53749e-07
1.86639e-06
2.5629e-07
2.53042e-07
5.46495e-08
5.47838e-08
5.45485e-08
5.47603e-08
1.91303e-06
2.55891e-07
2.52489e-07
2.56654e-07
2.53304e-07
4.68203e-07
1.15842e-07
4.66521e-07
1.15677e-07
9.74583e-07
5.02527e-07
2.12713e-06
1.83703e-06
9.77063e-07
5.0281e-07
2.13372e-06
9.74747e-07
5.04037e-07
2.14305e-06
1.83589e-06
9.78368e-07
5.04752e-07
2.15197e-06
4.66382e-07
1.14453e-07
1.14634e-07
4.67608e-07
4.67584e-07
1.15364e-07
1.15493e-07
4.68945e-07
9.77717e-07
1.8413e-06
5.0123e-07
2.15314e-06
5.01085e-07
2.13551e-06
9.76626e-07
9.79048e-07
1.84329e-06
5.03361e-07
2.15727e-06
5.03509e-07
2.14399e-06
9.78027e-07
2.57743e-07
2.54144e-07
1.871e-06
2.56682e-07
2.53685e-07
5.48673e-08
5.4785e-08
5.48613e-08
5.49456e-08
1.91981e-06
2.5604e-07
2.5368e-07
2.56916e-07
2.54331e-07
5.47915e-08
5.48881e-08
9.54834e-07
4.95374e-07
2.13072e-06
1.82995e-06
9.5677e-07
4.97406e-07
2.13004e-06
4.63034e-07
1.15696e-07
4.5997e-07
1.15181e-07
9.5748e-07
2.10652e-06
4.99734e-07
1.81502e-06
9.60373e-07
2.10975e-06
5.01277e-07
4.57856e-07
1.13778e-07
1.14253e-07
4.61532e-07
9.58084e-07
1.83751e-06
4.9658e-07
2.13877e-06
4.95151e-07
2.13543e-06
9.57465e-07
4.60516e-07
1.15117e-07
1.15445e-07
4.63984e-07
9.62049e-07
1.82051e-06
2.12879e-06
5.01276e-07
2.12156e-06
4.99499e-07
9.60633e-07
4.67622e-07
1.14812e-07
4.64512e-07
1.14576e-07
9.6987e-07
2.11123e-06
4.93745e-07
1.81763e-06
9.71428e-07
2.12327e-06
4.95286e-07
4.68576e-07
1.14298e-07
4.66304e-07
1.14174e-07
9.71053e-07
1.83949e-06
4.97189e-07
2.16575e-06
4.95778e-07
2.14794e-06
9.6825e-07
4.64799e-07
1.14609e-07
1.1482e-07
4.68137e-07
9.73956e-07
1.82062e-06
2.14029e-06
4.95044e-07
2.13306e-06
4.93472e-07
9.70727e-07
4.65666e-07
1.13808e-07
1.14217e-07
4.6823e-07
2.56738e-07
2.58052e-07
1.86606e-06
2.56024e-07
2.57539e-07
5.51053e-08
5.50329e-08
5.52857e-08
5.54055e-08
1.91509e-06
2.55905e-07
2.57063e-07
2.56465e-07
2.57673e-07
5.49417e-08
5.50762e-08
9.88402e-07
2.09786e-06
4.99581e-07
1.80834e-06
9.93158e-07
2.10756e-06
5.00037e-07
4.74077e-07
1.1543e-07
4.73777e-07
1.15371e-07
4.75842e-07
1.14895e-07
4.75046e-07
1.14755e-07
9.89744e-07
1.82955e-06
2.12448e-06
5.03246e-07
2.11501e-06
5.0274e-07
9.86746e-07
9.90574e-07
1.81687e-06
2.12765e-06
4.99704e-07
2.11884e-06
4.98579e-07
9.87139e-07
4.7314e-07
1.15059e-07
1.15477e-07
4.74123e-07
4.74187e-07
1.14537e-07
1.14527e-07
4.75027e-07
5.43917e-08
5.42559e-08
5.4281e-08
5.42359e-08
1.89039e-06
2.51026e-07
2.52807e-07
2.51736e-07
2.53049e-07
5.41998e-08
5.43367e-08
5.42321e-08
5.42771e-08
5.46741e-08
5.45084e-08
5.4605e-08
5.44752e-08
2.56179e-07
2.52957e-07
1.86629e-06
2.55497e-07
2.5245e-07
5.44748e-08
5.4542e-08
5.44779e-08
5.45715e-08
1.91557e-06
2.55217e-07
2.5241e-07
2.5566e-07
2.52982e-07
4.69965e-07
1.15597e-07
4.68712e-07
1.15437e-07
9.78775e-07
5.00164e-07
2.15022e-06
1.84967e-06
9.80464e-07
5.01133e-07
2.15957e-06
9.8077e-07
5.0255e-07
2.15464e-06
1.84894e-06
9.80938e-07
5.032e-07
2.17228e-06
4.6721e-07
1.14255e-07
1.14243e-07
4.67513e-07