/*--------------------------------*- C++ -*----------------------------------*\
| =========                 |                                                 |
| \\      /  F ield         | OpenFOAM: The Open Source CFD Toolbox           |
|  \\    /   O peration     | Version:  2206                                  |
|   \\  /    A nd           | Website:  www.openfoam.com                      |
|    \\/     M anipulation  |                                                 |
\*---------------------------------------------------------------------------*/
FoamFile
{
    version     2.0;
    format      ascii;
    arch        "LSB;label=32;scalar=64";
    class       volScalarField;
    location    "130";
    object      omega;
}
// * * * * * * * * * * * * * * * * * * * * * * * * * * * * * * * * * * * * * //

dimensions      [0 0 -1 0 0 0 0];

internalField   nonuniform List<scalar> 
66928
(
56.6038
47.974
49.8979
49.8978
56.8153
48.3521
55.6923
56.7067
29.0025
29.6368
397.369
399.026
205.937
207.728
296.16
160.649
298.199
172.449
163.373
36.7192
101.32
298.239
172.427
36.7279
163.117
101.174
399.109
207.531
205.963
397.508
161.205
296.217
397.505
397.419
399.18
399.049
206.011
207.71
56.5682
205.962
207.746
397.459
397.533
399.108
399.214
55.6045
205.936
207.75
205.891
207.714
397.44
180.117
129.967
206.062
305.853
305.903
129.075
180.232
180.052
131.157
207.542
307.197
307.277
130.821
179.949
248.125
401.719
402.655
401.857
402.803
248.164
296.233
213.606
213.95
415.112
216.434
417.602
184.936
309.401
329.206
216.326
417.7
309.407
184.664
329.222
179.739
130.859
207.426
307.206
130.129
307.283
179.686
180.235
129.831
205.813
305.993
306.06
129.495
180.237
248.027
402.709
401.845
402.859
401.976
248.094
397.616
296.262
213.405
213.49
415.288
397.391
397.51
399.024
399.18
248.239
401.76
402.687
401.886
402.83
248.17
180.512
129.201
305.939
205.835
179.966
305.869
128.868
180.052
130.583
307.273
207.645
179.721
307.186
130.704
248.182
401.863
402.806
248.153
401.731
402.656
180.323
305.923
205.761
130.108
305.983
180.28
129.717
180.033
307.213
207.53
131.164
307.291
179.805
130.543
397.548
397.425
399.238
399.067
248.19
401.905
402.849
248.199
401.766
402.693
180.701
130.165
205.724
305.981
306.048
129.385
180.443
180.144
131.272
207.544
307.256
307.329
130.295
179.753
180.643
306.014
129.33
205.83
180.18
305.943
129.688
179.9
307.292
130.615
207.675
179.574
307.211
130.809
248.213
401.786
402.718
401.914
402.866
248.157
121.216
56.2899
86.2295
86.7777
85.7662
86.2652
121.263
120.498
56.453
86.8223
86.1499
85.1244
85.7537
120.308
121.843
85.4834
85.9566
56.0412
120.831
85.9125
86.5437
121.819
56.1538
86.548
87.1039
86.1405
86.6077
120.603
22.0644
22.0883
74.7492
99.5717
160.407
125.509
98.5324
125.001
74.946
76.8065
101.769
163.114
129.221
101.29
128.236
77.3366
64.86
100.844
110.036
59.8211
108.573
59.411
64.5279
76.9128
101.267
162.941
129.008
128.542
100.483
76.5309
64.8248
100.66
59.9309
109.761
59.5083
109.337
64.4086
74.2253
100.115
160.99
126.675
99.7215
126.396
75.4338
121.33
55.8649
86.5154
86.9966
121.015
85.2293
86.4899
121.771
56.0912
85.8969
86.1096
120.761
86.2251
86.661
29.6601
50.1672
48.5031
57.058
30.1831
49.9929
49.0203
57.2526
30.0317
49.7999
48.7778
57.5868
29.8957
49.8344
48.8538
57.8011
29.9533
49.8318
48.8212
58.0798
29.8593
50.1449
48.817
58.2093
29.9562
50.315
48.9117
58.2608
29.9257
50.4072
48.9261
58.1731
29.8878
50.3912
48.6944
58.0994
29.9894
50.0037
48.7204
58.1463
29.8819
50.0585
48.6769
58.1985
29.8085
50.1653
48.767
58.1834
29.8104
50.2474
48.7972
58.1481
29.8443
50.1677
48.8262
58.2009
29.8992
50.1437
48.8293
58.1107
29.9104
50.2314
49.0812
58.2008
29.8101
50.5012
49.1719
58.1821
47.3036
48.7829
49.0272
48.8574
56.618
56.4934
50.0372
50.0602
50.3873
50.5027
50.2508
49.7305
50.2561
55.939
56.8442
48.9462
48.1524
48.9407
57.1016
55.8054
56.6519
48.6685
47.8859
49.1072
48.8602
55.9342
56.3795
49.1487
50.0361
50.3142
50.3233
49.6956
48.9537
50.0731
55.241
56.5156
48.5822
47.9375
48.9201
56.5477
55.841
57.1043
48.4772
47.6518
49.1062
49.2398
54.7314
56.9851
49.8717
49.7385
50.4116
50.3363
48.5744
48.9087
50.2889
55.4269
57.0374
48.3523
48.5585
48.8587
57.6801
56.2087
57.2417
48.4516
48.7617
49.3027
49.0269
56.4252
57.075
49.5634
49.9858
50.3995
50.4882
49.7245
48.8311
50.2676
56.4288
56.787
48.0103
48.4853
48.9295
57.9132
56.2098
57.2508
48.5197
48.4732
49.0965
49.18
55.2461
57.1556
49.471
49.6187
50.6452
50.3732
49.6564
49.2647
50.44
55.0335
57.054
48.3522
47.9295
49.0808
58.0784
56.3595
57.213
48.475
48.5348
49.104
49.188
56.2722
57.1232
50.118
49.6162
50.3525
50.2815
49.7561
49.9791
50.4567
55.8072
56.9621
48.6518
48.6999
49.3954
58.1185
56.2368
57.242
48.5298
48.734
49.258
49.3789
56.4054
57.4473
49.7366
49.8459
50.392
50.353
49.6568
50.1344
50.5482
55.9826
56.9915
48.1178
48.0285
49.4574
57.9929
55.3827
57.5174
48.7186
49.0272
49.2798
49.3781
56.5792
57.3857
49.8548
49.0471
50.341
50.3381
49.8066
49.5686
50.4825
55.4689
57.0559
48.9881
48.4231
49.2925
57.7703
55.66
57.5778
48.1959
48.596
49.311
49.2778
56.2382
57.3437
49.7388
49.3113
50.436
50.5161
49.1862
49.7136
50.7279
55.3866
57.4554
48.6352
48.3619
49.3162
57.8079
56.6172
57.6093
48.1944
47.9211
49.426
49.3893
56.132
57.37
49.7243
49.6501
50.3853
50.4856
50.3478
49.7576
50.6668
56.5977
57.3229
48.7071
48.3784
49.3202
57.8783
56.9347
57.4062
48.9581
48.8476
49.2656
49.3552
56.1782
57.3058
49.1365
49.3682
50.6014
50.7307
49.2723
49.8181
50.7957
55.9312
57.1341
48.7364
48.3952
49.3292
58.0019
56.2946
57.3218
48.508
48.6991
49.1687
49.578
55.8068
57.5906
50.097
49.4909
50.5792
50.531
49.9542
50.033
50.6831
56.2524
57.1981
48.7955
48.4975
49.2538
57.8339
56.7964
57.4743
48.5733
48.7521
49.3997
49.3867
55.7498
57.2361
49.5153
49.7262
50.7035
50.5397
49.5614
49.3069
50.831
56.5927
57.0848
48.4212
48.4775
49.2598
57.9355
55.4726
57.4921
49.025
48.6101
49.2919
49.3015
56.6379
57.3826
50.128
49.3714
50.6391
50.684
50.3999
49.8468
50.7213
56.3066
57.0916
48.4767
48.5239
49.1126
57.8005
56.2623
57.2961
48.7022
48.6915
49.2794
49.3817
56.4479
57.3073
49.7789
49.7215
50.3588
50.4544
49.8156
49.9173
50.4217
55.8354
57.1979
47.979
48.1786
49.3394
57.8946
55.81
57.6499
48.9328
48.706
49.3202
49.4748
56.5964
57.326
49.5191
49.7674
50.3779
50.5142
49.7919
49.7047
50.6335
55.6209
57.1669
48.8777
48.8801
49.1871
57.1885
57.1135
47.9029
48.7431
56.1912
49.0984
49.152
49.9211
50.5634
56.2303
48.5793
49.1671
57.6545
169.7
296.187
169.383
296.152
397.591
397.485
173.087
298.281
172.141
298.239
29.6715
29.7877
29.82
30.0704
29.6571
30.0628
29.889
101.454
163.416
36.9068
49.5112
163.474
36.5731
101.129
399.257
399.108
97.8785
35.1107
160.793
48.5848
34.626
161.088
98.0881
207.689
206.195
56.8389
207.636
206.069
169.879
296.259
169.917
296.202
397.637
397.521
173.21
298.403
173.191
298.295
29.0501
29.6387
29.3373
29.8678
29.6079
30.0111
29.8632
101.297
163.406
36.8812
48.4248
101.031
163.414
35.9767
399.323
399.16
97.8394
35.0887
161.197
48.5959
98.0128
34.1622
161.191
207.721
206.112
56.9773
207.656
206.046
170.032
296.318
170
296.247
397.685
397.561
173.152
298.423
173.138
298.324
29.0006
29.5821
29.3675
29.5429
29.572
29.9754
29.9262
101.894
163.471
36.771
48.3174
101.645
163.556
36.0877
399.365
399.22
98.1225
35.2755
161.319
48.2739
98.2675
34.8012
161.303
207.697
206.135
57.4442
207.57
206.041
169.972
296.342
170.079
296.262
397.716
397.596
173.227
298.443
173.246
298.346
29.0963
29.3395
29.424
29.3889
29.6947
29.9412
29.8809
101.846
163.727
36.6245
49.3338
101.847
163.721
35.5018
399.406
399.224
98.4459
35.148
161.501
48.1408
98.4417
34.4804
161.524
207.755
206.187
57.5405
207.74
206.182
170.172
296.356
170.095
296.278
397.731
397.586
173.273
298.462
173.264
298.337
29.1402
29.5129
29.7417
29.6832
29.8588
29.9546
30.1152
102.023
163.704
36.6053
48.6723
101.965
163.713
35.9262
399.409
399.241
98.4909
35.2258
161.551
47.3353
98.6062
34.7543
161.53
207.819
206.265
57.8965
207.649
206.245
170.005
296.352
170.056
296.266
397.712
397.57
173.414
298.452
173.259
298.338
29.365
29.5619
29.7822
29.5117
30.0241
29.9575
30.1102
102.019
163.877
36.5292
49.5915
102.08
163.836
35.8214
399.423
399.25
98.6559
35.1433
161.67
48.2676
98.7873
34.766
161.643
207.797
206.31
57.9002
207.732
206.267
170.044
296.352
170.064
296.262
397.691
397.55
173.348
298.451
173.383
298.335
29.7452
29.6179
29.4455
29.7909
30.2549
30.0666
30.2735
101.955
163.832
36.5984
49.7294
101.921
163.866
36.1144
399.434
399.258
98.8148
35.2275
161.631
47.6069
98.8828
34.7598
161.594
207.811
206.345
58.0379
207.73
206.274
170.124
296.338
170.061
296.253
397.687
397.558
173.358
298.448
173.441
298.341
29.7798
29.432
29.972
29.3584
30.0601
30.059
30.0839
101.969
163.916
36.729
49.0624
101.887
163.802
35.5714
399.42
399.227
98.8571
35.2786
161.574
48.059
99.0071
34.2589
161.561
207.807
206.33
57.9431
207.656
206.222
170.02
296.341
170.063
296.259
397.688
397.556
173.424
298.453
173.318
298.342
29.561
29.6523
29.6842
29.5061
29.9722
29.9641
30.0744
102.339
163.869
36.766
49.405
102.177
163.894
35.8323
399.379
399.192
98.8297
35.2257
161.664
47.8088
98.879
34.5312
161.585
207.805
206.299
58.0548
207.659
206.267
170.114
296.344
170.093
296.258
397.699
397.579
173.214
298.461
173.328
298.345
29.2661
29.5684
29.9044
29.7221
29.9673
29.9566
30.1916
102.11
163.874
36.8991
49.0877
102.064
163.886
36.3792
399.349
399.182
98.7588
35.0806
161.648
47.8525
98.8425
34.6053
161.646
207.818
206.349
58.1275
207.732
206.252
170.041
296.354
170.035
296.263
397.719
397.58
173.348
298.448
173.374
298.329
29.6046
29.5737
29.7059
29.6189
29.957
29.9551
30.1355
102.214
163.966
36.7688
49.2731
102.091
163.87
36.1932
399.366
399.186
98.6503
35.3204
161.757
47.8019
98.8446
34.9116
161.757
207.812
206.36
58.1015
207.667
206.234
170.017
296.342
170.092
296.27
397.715
397.599
173.39
298.446
173.362
298.321
29.3031
29.3092
29.592
29.6067
30.1648
30.0762
30.0228
102.09
164.033
36.775
49.4165
102.011
163.917
36.145
399.358
399.195
98.7152
35.2094
161.813
47.9582
99.0012
34.4639
161.674
207.814
206.323
57.9013
207.696
206.291
169.99
296.367
170.004
296.297
397.756
397.628
173.268
298.427
173.332
298.319
29.3504
29.5917
29.6369
29.6468
29.9099
30.1144
30.1632
102.053
163.785
36.749
48.891
102.052
163.837
35.6743
399.361
399.181
98.679
35.1133
161.794
47.9331
98.5913
34.6333
161.669
207.809
206.341
58.1039
207.777
206.264
170.059
296.367
170.083
296.288
397.774
397.641
173.323
298.429
173.304
298.324
29.3696
29.5235
29.9483
29.6996
29.9412
30.0551
30.0655
102.104
163.841
36.7665
49.3527
102.14
163.845
36.3287
399.341
399.182
98.9967
35.2378
161.625
47.9773
98.8804
34.0365
161.562
207.84
206.334
58.1175
207.798
206.182
170.091
296.369
170.134
296.286
397.768
397.625
173.265
298.449
173.355
298.325
29.2153
29.5214
29.2749
29.7296
30.1137
30.0355
29.985
102.148
163.956
36.8465
49.3566
102.099
163.87
36.3367
399.361
399.176
98.7317
35.1651
161.665
48.1792
99.0487
34.2395
161.71
207.824
206.297
58.0634
207.77
206.183
170.176
296.371
170.191
296.281
397.755
397.624
173.294
298.451
173.225
298.351
29.8866
29.619
29.4922
29.2808
30.1165
30.1553
30.0226
101.98
163.963
36.8856
49.1635
101.921
163.924
36.3124
399.329
399.172
98.6136
35.293
161.82
48.6042
98.891
34.9564
161.721
207.855
206.281
58.0418
207.779
206.209
170.102
296.36
170.104
296.286
397.749
397.6
173.268
298.464
173.237
298.335
29.5946
29.6605
29.3361
30.2053
101.889
163.851
36.8162
49.2072
101.939
163.754
36.4725
399.36
399.174
98.8601
35.1487
161.62
48.5904
98.6362
34.1408
161.562
207.89
206.289
57.9231
207.812
206.252
169.672
296.287
296.223
169.397
97.9783
160.301
35.209
48.5296
34.2139
97.6278
160.803
98.0019
161.146
35.1936
47.5127
161.241
34.239
97.7549
169.477
296.192
169.878
296.181
169.391
296.237
296.249
169.813
96.8536
48.1076
160.961
35.2444
35.0402
98.0907
160.018
96.8559
48.5786
161.272
35.2206
160.83
35.0443
98.025
206.165
207.645
56.6975
206.156
207.52
399.164
399.044
397.505
397.586
56.0683
205.975
207.554
206.081
207.704
399.072
399.216
101.663
162.89
36.2879
49.8957
37.1449
99.6734
163.555
173.065
298.324
298.271
172.686
101.496
36.8947
162.883
49.937
36.682
163.406
100.462
172.863
298.297
173.184
298.301
100.949
49.558
163.634
37.1661
37.0009
101.754
162.926
172.877
298.323
298.336
173.136
100.891
49.6072
37.203
163.402
37.0057
163.043
101.726
172.838
298.325
298.239
172.835
101.397
36.919
163.41
49.6743
36.5051
163.452
101.251
172.846
298.347
298.262
172.838
99.8932
49.7009
163.042
36.1681
162.935
36.2885
100.211
172.582
298.269
298.314
172.752
100.659
49.3147
36.9323
163.477
36.2296
163.157
101.194
172.772
298.309
298.335
172.774
207.479
205.94
56.7221
207.53
205.72
397.61
397.481
399.15
399.248
56.1643
207.575
205.795
207.39
205.872
397.502
397.589
97.8531
35.3871
161.306
48.1692
34.2936
161.254
97.8524
169.622
296.255
296.199
169.643
169.55
296.281
296.206
169.606
96.5786
48.2522
34.3949
160.764
34.4609
160.54
97.8767
96.5699
47.9675
35.2209
161.133
35.05
160.638
97.8052
169.203
296.228
296.241
169.579
169.102
296.235
296.247
169.563
399.183
399.032
397.605
397.479
55.1994
207.658
206.016
207.472
205.982
399.067
399.186
397.5
397.597
397.563
397.475
399.263
399.115
205.864
207.744
56.7637
205.872
207.726
397.521
397.593
399.141
399.253
55.5525
205.926
207.703
205.989
207.53
169.879
296.27
169.37
296.239
98.2501
160.112
34.5096
48.1964
97.3727
161.023
34.0701
98.1712
160.991
34.5026
47.3652
96.7915
161.249
34.8204
169.423
296.246
296.243
169.972
169.442
296.251
296.273
169.87
96.4897
48.6758
161.026
35.177
160.769
34.9994
98.4163
97.3745
48.59
161.159
35.1117
160.92
34.9257
98.2859
206.072
207.636
56.6231
205.969
207.534
399.224
399.091
397.547
397.623
56.0427
205.914
207.544
205.81
207.66
399.115
399.247
101.407
163.366
36.3515
50.0847
100.823
163.496
35.8741
173.108
298.38
172.948
298.334
101.465
36.6737
162.955
49.4055
101.035
36.4195
163.339
172.977
298.315
298.344
173.131
100.657
49.4212
163.531
36.9896
163.193
36.8183
101.507
172.994
298.362
298.38
172.98
100.751
49.9524
37.237
163.321
37.1323
162.809
101.438
172.931
298.341
172.401
298.292
101.232
35.8055
162.956
49.9034
100.324
36.5826
163.449
172.746
298.376
172.216
298.317
100.129
49.4323
163.375
36.6228
162.607
36.7247
100.875
172.489
298.342
298.366
172.924
100.494
49.7885
36.8075
163.497
36.1756
162.937
101.405
172.923
298.365
298.384
172.934
207.699
205.932
56.4931
207.601
205.911
397.618
397.525
399.187
399.293
55.2743
207.493
205.964
207.398
205.861
397.571
397.642
97.7155
34.2332
160.565
48.1085
95.7394
35.0304
161.092
169.559
296.28
169.17
296.247
169.461
296.273
169.044
296.238
96.4061
48.1296
34.6466
161.27
34.9267
160.593
98.1093
97.0709
47.9837
35.0951
161.251
34.844
160.758
97.769
169.171
296.291
296.292
169.592
169.033
296.269
296.273
169.506
399.223
399.072
397.611
397.514
55.7678
207.634
206.064
207.583
205.996
399.099
399.225
397.534
397.626
397.618
397.521
399.281
399.14
205.872
207.641
56.9709
205.905
207.711
397.551
397.619
399.161
399.275
55.1957
205.904
207.742
205.728
207.581
169.969
296.293
169.594
296.253
98.4112
160.547
34.4528
48.7919
96.6874
161.125
34.7731
98.4463
160.887
34.6189
48.6751
97.6727
161.165
34.3563
169.481
296.269
296.265
170.059
169.323
296.285
296.284
169.938
97.74
48.7932
161.206
35.1009
160.644
34.9092
98.2849
97.2846
48.3667
161.19
35.1652
160.886
34.9456
98.276
206.058
207.662
56.7808
206.164
207.674
399.258
399.16
397.592
397.652
55.0539
206.07
207.674
206.019
207.497
399.185
399.31
101.548
163.293
36.3378
49.3091
100.633
163.551
36.5428
173.084
298.41
172.902
298.376
101.692
36.4658
162.914
49.4681
100.806
36.6626
163.412
173.057
298.345
298.362
173.033
100.93
50.2504
163.591
36.786
163
36.6358
101.754
173.011
298.406
298.433
173.081
101.065
49.3839
36.8501
163.415
36.6377
162.966
101.756
172.933
298.403
172.846
298.356
101.7
35.6678
162.737
49.6315
100.845
36.4561
163.519
172.832
298.429
172.7
298.355
101.207
49.3518
163.645
36.4121
163.339
35.8749
101.154
172.891
298.39
298.428
173.042
101.056
49.3178
36.8569
163.665
36.158
162.842
101.726
172.827
298.394
298.42
173.004
207.647
205.899
56.8495
207.626
205.954
397.684
397.597
399.245
399.361
54.8914
207.642
205.978
207.602
205.927
397.628
397.711
98.1137
34.469
160.679
48.5473
97.1726
34.7727
161.206
169.667
296.322
169.238
296.295
169.604
296.31
169.113
296.27
97.4287
48.5045
34.9414
161.43
34.9581
160.896
98.1411
97.7613
48.5297
35.1447
161.252
34.8712
160.695
98.4361
169.33
296.34
296.34
169.73
169.249
296.313
296.308
169.694
399.247
399.104
397.641
397.557
55.8611
207.696
206.003
207.69
206.163
399.118
399.254
397.571
397.668
397.653
397.544
399.285
399.149
205.965
207.554
56.9453
205.97
207.744
397.557
397.637
399.183
399.295
55.2944
205.965
207.805
205.822
207.735
169.903
296.306
169.707
296.278
98.2978
160.647
34.6179
48.0983
97.8034
161.166
34.3186
98.2814
160.613
34.0499
48.1547
97.31
161.164
34.8256
169.562
296.285
296.306
169.788
169.573
296.31
296.306
169.943
97.2929
49.1572
161.25
35.061
160.794
34.7489
98.4493
97.6694
48.5516
161.251
35.232
160.744
34.5731
98.5486
205.959
207.781
57.1181
206.016
207.616
399.329
399.173
397.605
397.682
56.4144
206.025
207.705
205.795
207.755
399.177
399.319
102.085
163.102
36.1449
49.9061
101.267
163.583
36.4184
173.135
298.455
173.063
298.383
101.901
35.925
162.993
49.3658
100.933
36.7284
163.418
172.588
298.368
298.394
173.241
101.39
50.0323
163.627
36.7955
163.11
36.5014
102.133
173.098
298.398
298.431
173.146
101.08
50.3355
37.1441
163.464
36.5179
163.175
101.968
173.117
298.454
172.697
298.389
101.768
36.4445
162.987
49.9085
100.896
36.6382
163.56
172.904
298.456
172.887
298.391
100.379
48.9953
163.376
35.8705
163.498
36.3668
101.835
172.85
298.391
298.457
172.999
100.892
49.9124
36.8686
163.652
36.6498
163.494
101.812
172.977
298.393
298.455
173.036
207.596
206.048
57.0764
207.45
206.029
397.734
397.624
399.239
399.363
56.4854
207.482
206.021
207.591
205.969
397.631
397.726
98.1794
34.7273
160.803
48.4516
97.5687
34.6495
161.352
169.816
296.377
169.318
296.341
169.71
296.352
169.332
296.307
96.8937
47.9153
35.0371
161.432
34.8209
161.255
97.6597
96.9535
48.6256
35.3562
161.372
34.6684
160.819
98.1903
169.391
296.352
296.379
169.769
169.367
296.332
296.338
169.756
399.259
399.112
397.684
397.587
55.9959
207.761
206.167
207.716
206.151
399.115
399.256
397.586
397.692
397.651
397.535
399.317
399.168
205.914
207.773
57.3558
205.973
207.842
397.542
397.63
399.164
399.302
55.2693
206.028
207.768
205.855
207.802
169.941
296.339
169.776
296.299
98.7186
160.762
34.5219
48.1802
97.7473
161.255
34.7539
98.6035
160.773
34.3249
48.1042
98.126
161.285
35.087
169.901
296.283
296.305
169.995
169.635
296.309
296.327
169.998
98.0635
48.5744
161.322
35.0789
160.935
34.8077
98.6066
97.8869
48.8569
161.288
35.2868
160.791
34.6353
98.5223
205.984
207.679
57.3778
206.152
207.674
399.317
399.204
397.582
397.679
56.5374
206.018
207.75
206.142
207.614
399.217
399.353
101.874
163.159
35.9974
50.3703
101.412
163.563
36.7646
173.184
298.437
172.846
298.381
101.758
36.6488
162.777
49.1657
100.743
36.7669
163.482
173.142
298.351
298.376
173.027
100.562
49.8663
163.595
36.9206
163.045
36.229
101.783
172.982
298.397
298.439
173.162
100.839
50.1449
36.9258
163.521
36.7197
163.282
101.881
173.017
298.45
172.687
298.395
101.741
35.9743
163.226
49.9806
100.628
36.7593
163.583
172.904
298.449
172.754
298.368
101.1
49.6747
163.837
36.2875
163.637
35.618
101.438
172.918
298.418
298.462
173.006
100.458
50.166
37.0177
163.656
36.368
163.089
101.73
172.919
298.384
298.427
172.896
207.613
205.966
57.0812
207.603
205.918
397.736
397.621
399.257
399.38
56.564
207.635
206.027
207.601
205.86
397.63
397.72
98.4807
34.4708
160.924
48.1033
97.2381
35.2108
161.426
169.871
296.392
169.413
296.335
169.764
296.368
169.307
296.317
96.9743
48.3578
34.4487
161.331
34.5662
161.039
97.8513
97.7477
48.3801
35.2952
161.561
35.1171
160.952
98.4468
169.432
296.349
296.366
169.89
169.392
296.332
296.352
169.844
399.26
399.102
397.688
397.577
56.3439
207.734
206.241
207.517
206.213
399.104
399.242
397.582
397.686
397.638
397.521
399.295
399.135
206.01
207.72
57.0887
206.025
207.758
397.528
397.622
399.159
399.276
55.5133
206.012
207.808
205.973
207.712
169.965
296.332
169.68
296.299
98.4474
160.804
34.3024
48.7484
97.9782
161.334
35.0857
98.4267
160.876
34.4503
48.1978
96.6806
161.333
35.1967
169.365
296.282
296.283
169.993
169.348
296.305
296.322
170.016
97.9237
48.7637
161.427
35.2453
160.569
34.5962
98.6549
97.7967
48.7434
161.33
35.2284
160.924
34.7243
98.4269
206.124
207.831
57.1636
205.95
207.619
399.354
399.185
397.567
397.675
56.3009
206.033
207.703
206.09
207.445
399.166
399.308
102.199
163.225
36.5534
49.4329
101.043
163.6
36.1201
173.28
298.454
173.014
298.379
102.187
36.354
163.272
49.3063
101.345
36.1357
163.511
173.159
298.358
298.385
173.366
101.66
50.0633
163.721
36.9212
163.155
36.7335
102.337
173.117
298.394
298.429
173.228
101.534
49.684
37.0156
163.533
36.7935
163.221
102.224
172.993
298.481
172.697
298.409
101.648
36.4857
163.107
50.0839
100.715
36.6293
163.551
172.93
298.442
172.929
298.358
101.044
49.8416
163.764
36.36
163.579
35.6796
101.8
173.015
298.409
298.474
173.021
100.788
50.1081
36.7831
163.63
36.5853
163.069
101.826
172.98
298.377
298.415
172.806
207.61
206.073
57.1349
207.612
206.109
397.734
397.625
399.266
399.389
55.8286
207.63
206.081
207.59
206.06
397.617
397.724
98.4895
34.7121
161.048
48.9737
97.6269
34.5341
161.546
169.92
296.392
169.568
296.342
169.943
296.367
169.364
296.311
97.7365
48.5224
35.0076
161.57
34.9495
161.087
98.5986
96.9642
49.0497
35.398
161.561
35.2236
161.032
98.4969
169.668
296.368
296.382
169.934
169.835
296.335
296.352
169.966
399.25
399.086
397.69
397.572
56.3388
207.756
206.275
207.69
206.221
399.096
399.235
397.581
397.68
397.622
397.5
399.298
399.154
205.974
207.789
57.2052
205.962
207.828
397.506
397.594
399.173
399.3
56.0385
206.022
207.828
205.859
207.798
169.903
296.329
169.682
296.286
98.4935
160.846
34.7727
48.8303
98.0815
161.271
34.958
98.4381
161.036
34.6716
48.476
97.8813
161.327
34.2639
169.406
296.269
296.288
169.961
169.48
296.315
296.315
169.939
96.9646
49.0011
161.347
35.2145
160.785
35.0662
98.8119
97.9793
48.4461
161.412
35.3509
160.647
35.1685
98.6579
206.027
207.655
57.2557
206.196
207.791
399.303
399.2
397.566
397.638
55.5948
206.143
207.844
206.083
207.648
399.206
399.351
102.359
163.209
36.2682
49.5065
101.63
163.632
36.5173
173.216
298.438
172.846
298.388
102.112
36.5278
162.859
50.0263
101.5
36.2983
163.451
173.023
298.351
298.376
173.277
101.667
49.4906
163.716
36.8302
163.159
36.5603
102.521
172.863
298.421
298.457
173.194
101.474
50.1324
36.9735
163.456
36.2762
163.357
102.337
172.972
298.468
172.354
298.403
101.902
35.6679
163.204
49.1517
100.988
36.4749
163.577
172.949
298.436
172.489
298.354
101.287
49.4798
163.656
36.4752
163.29
35.9648
101.736
172.5
298.413
298.462
172.99
101.043
50.2808
36.9061
163.686
36.2081
162.996
101.938
173.026
298.378
298.406
172.901
207.603
205.986
57.0522
207.526
206.024
397.716
397.605
399.269
399.4
55.5409
207.667
206.072
207.684
205.9
397.615
397.705
98.3974
34.7502
161.085
49.0247
97.343
34.9595
161.559
169.997
296.396
169.598
296.342
169.937
296.376
169.575
296.327
97.9639
48.6192
35.1338
161.465
34.9756
160.881
98.891
97.2996
48.6016
35.2441
161.552
35.0073
161.055
98.4223
169.702
296.347
296.377
170.008
169.578
296.333
296.362
169.956
399.245
399.089
397.686
397.571
57.4883
207.741
206.284
207.679
206.212
399.092
399.241
397.577
397.681
397.598
397.477
399.309
399.151
205.986
207.789
57.4545
206.029
207.825
397.484
397.576
399.159
399.284
55.672
206.047
207.84
205.981
207.613
169.94
296.332
169.558
296.297
98.6166
160.829
34.6882
48.4446
98.2023
161.34
34.468
98.5557
160.708
34.6725
48.4066
98.1634
161.405
34.9867
169.854
296.271
296.279
169.802
169.497
296.312
296.323
169.943
97.4082
48.3868
161.385
35.1537
160.883
34.5833
98.4161
97.7025
49.1079
161.231
35.2682
160.946
35.0896
98.4813
206.068
207.798
57.4049
206.07
207.844
399.346
399.195
397.566
397.65
56.2839
206.061
207.711
205.98
207.815
399.175
399.336
102.018
163.287
36.353
50.0213
101.723
163.766
36.0887
173.209
298.464
173.189
298.395
101.99
36.3337
162.968
50.0983
101.462
35.7372
163.451
173.168
298.358
298.391
173.302
100.005
50.0303
163.828
36.9715
163.443
36.7755
102.083
172.975
298.426
298.454
173.2
101.272
49.8884
36.8741
163.581
36.6816
163.255
102.031
173.134
298.476
172.709
298.409
101.894
36.5124
163.481
50.0858
101.055
36.6998
163.662
172.968
298.443
173.008
298.354
101.083
50.0248
163.821
36.0783
163.678
36.4233
101.467
172.521
298.421
298.478
172.973
101.014
50.245
36.8325
163.664
36.6456
163.274
101.965
172.694
298.371
298.42
173.128
207.566
206.033
57.0785
207.625
206.065
397.724
397.615
399.222
399.347
56.2144
207.693
206.123
207.48
205.948
397.629
397.72
98.4385
34.6296
161.002
48.4247
97.4536
34.9342
161.441
169.96
296.371
169.579
296.328
169.918
296.362
169.5
296.305
98.1525
47.5975
34.5797
161.559
35.0055
161.31
98.553
96.7523
48.9023
35.2934
161.489
35.1136
160.955
98.8624
169.588
296.36
296.374
169.911
169.623
296.312
296.335
169.991
399.233
399.075
397.673
397.548
56.9935
207.751
206.229
207.512
206.033
399.086
399.216
397.555
397.652
397.574
397.458
399.291
399.123
205.979
207.809
57.6557
206.054
207.822
397.465
397.563
399.124
399.262
57.0429
206.004
207.838
206.014
207.792
169.977
296.331
169.61
296.29
98.4213
160.911
34.8432
49.1171
97.3235
161.423
35.0692
98.4847
160.773
34.5277
48.9056
97.644
161.191
34.1993
169.765
296.276
296.298
169.811
169.765
296.303
296.318
169.965
97.7103
48.4528
161.525
35.3292
161.116
35.1042
98.5487
98.0434
48.9464
161.248
35.3256
160.905
35.1306
98.7442
205.917
207.745
57.4512
206.154
207.789
399.31
399.184
397.575
397.648
56.1331
206.119
207.773
206.093
207.567
399.168
399.324
102.257
163.296
36.4585
50.0405
101.412
163.745
36.6325
173.223
298.472
172.915
298.396
102.227
36.1721
163.093
50.2625
101.579
36.5272
163.584
173.098
298.356
298.391
173.379
101.623
50.2127
163.841
36.8913
163.453
36.7416
102.387
172.61
298.41
298.452
173.278
101.569
49.6377
36.8413
163.643
36.5899
163.278
102.44
173.19
298.484
172.911
298.415
102.025
35.6826
163.054
50.2117
101.114
36.5113
163.687
173.008
298.432
172.723
298.374
100.939
48.9169
163.799
36.2306
163.664
36.5896
101.408
172.775
298.435
298.482
173.018
101.114
49.8233
36.9461
163.668
36.251
163.524
101.918
172.924
298.385
298.441
173.043
207.646
206.08
57.3682
207.621
206.083
397.735
397.611
399.18
399.317
55.6696
207.638
206.114
207.518
205.989
397.604
397.709
98.7096
34.8037
161.052
48.9372
98.072
35.0789
161.582
169.985
296.399
169.292
296.344
170.065
296.347
169.496
296.296
97.8939
48.1929
34.861
161.52
34.2517
161.169
97.9048
97.8727
48.9812
35.3347
161.644
35.1134
161.251
98.7226
169.693
296.352
296.377
169.96
169.859
296.324
296.341
170.077
399.233
399.084
397.659
397.542
57.3986
207.761
206.3
207.756
206.219
399.087
399.232
397.553
397.655
397.564
397.451
399.252
399.098
206.059
207.738
57.5422
206.064
207.82
397.479
397.555
399.111
399.245
55.7419
206.093
207.847
206.001
207.772
170.025
296.328
169.718
296.297
98.5212
160.841
34.4678
49.1402
97.8131
161.56
35.1934
98.54
160.785
34.8014
48.8908
97.3247
161.287
35.0342
169.845
296.28
296.279
169.979
169.779
296.327
296.328
170.004
97.9858
48.5742
161.547
35.3042
160.785
34.6539
98.6043
97.5688
48.4813
161.297
35.3058
160.713
35.1384
98.5936
206.04
207.722
57.3935
206.051
207.753
399.304
399.14
397.596
397.67
56.1056
206.069
207.853
205.824
207.601
399.147
399.273
102.187
163.528
36.213
50.0379
101.67
163.879
36.4512
173.133
298.463
173.091
298.401
102.176
36.2209
163.245
49.0421
101.789
36.5176
163.616
172.8
298.344
298.395
173.399
101.221
50.06
163.836
36.7801
163.617
36.5005
102.141
172.831
298.421
298.46
173.313
101.16
50.1993
36.8185
163.707
36.5639
163.251
101.959
173.104
298.498
173.049
298.413
101.713
36.6673
163.377
50.4404
100.665
36.326
163.595
172.858
298.441
172.776
298.361
101.383
48.8776
163.681
36.5617
163.663
36.5302
101.981
172.67
298.419
298.474
173.132
100.436
50.493
36.9582
163.659
36.2642
163.332
101.803
172.818
298.379
298.425
172.991
207.78
205.988
57.3343
207.78
206.108
397.703
397.582
399.197
399.315
56.452
207.799
206.143
207.593
206.081
397.575
397.683
98.6533
34.4894
161.167
48.9542
97.9519
35.242
161.646
170.005
296.388
169.608
296.345
170.057
296.36
169.534
296.309
97.3843
47.5683
34.65
161.704
34.5859
161.17
98.622
97.9162
49.0804
35.4105
161.668
34.7794
160.76
98.6451
169.696
296.365
296.383
170.044
169.899
296.319
296.342
169.976
399.223
399.07
397.655
397.535
57.513
207.754
206.302
207.683
206.092
399.089
399.223
397.545
397.639
397.57
397.458
399.239
399.091
205.985
207.669
57.5016
205.974
207.859
397.469
397.56
399.111
399.242
56.3259
206.065
207.903
206.092
207.841
169.979
296.348
169.801
296.317
98.4203
161.213
34.6073
48.3402
97.3005
161.467
34.1034
98.4686
160.75
34.6958
49.0697
97.5466
161.252
34.9116
169.739
296.272
296.293
170.07
169.363
296.34
296.348
169.963
96.98
48.9738
161.433
35.1929
161.152
34.9988
98.4675
97.3707
49.0421
161.359
35.2191
160.774
34.9667
98.5288
206.012
207.846
57.2985
206.202
207.773
399.287
399.147
397.593
397.67
56.2348
206.016
207.888
206.143
207.914
399.123
399.296
102.155
163.723
36.3504
50.1004
101.204
163.868
36.6028
173.182
298.469
172.887
298.395
101.977
35.9628
163.349
50.3336
100.998
36.774
163.766
173.089
298.341
298.38
173.217
100.927
49.7445
163.91
36.9109
163.51
36.7232
102.157
173.081
298.413
298.455
173.168
100.233
49.9078
37.0549
163.637
36.3777
163.468
102.307
173.145
298.486
173.012
298.397
101.862
36.6942
163.341
50.2561
100.422
36.3167
163.58
173.094
298.443
172.658
298.35
101.581
49.6581
163.778
36.5949
163.382
35.9943
101.882
172.771
298.401
298.46
173.159
101.016
49.9296
36.958
163.674
36.5913
163.038
101.933
172.964
298.351
298.405
173.108
207.791
206.076
57.084
207.735
206.018
397.672
397.554
399.187
399.317
56.1057
207.664
206.124
207.616
206.128
397.552
397.657
98.432
34.9151
161.333
48.4591
97.5079
35.0541
161.584
170.048
296.406
169.819
296.351
170.012
296.356
169.679
296.312
97.5274
48.212
35.026
161.49
35.0301
161.481
98.1207
97.3458
48.4124
35.2583
161.693
35.0512
160.916