/*--------------------------------*- C++ -*----------------------------------*\
| =========                 |                                                 |
| \\      /  F ield         | OpenFOAM: The Open Source CFD Toolbox           |
|  \\    /   O peration     | Version:  2206                                  |
|   \\  /    A nd           | Website:  www.openfoam.com                      |
|    \\/     M anipulation  |                                                 |
\*---------------------------------------------------------------------------*/
FoamFile
{
    version     2.0;
    format      ascii;
    arch        "LSB;label=32;scalar=64";
    class       volScalarField;
    location    "130";
    object      p;
}
// * * * * * * * * * * * * * * * * * * * * * * * * * * * * * * * * * * * * * //

dimensions      [0 2 -2 0 0 0 0];

internalField   nonuniform List<scalar> 
66928
(
-0.00662821
-0.00661732
-0.0066168
-0.00661676
-0.00662814
-0.00661693
-0.00664989
-0.00680483
-0.00661695
-0.00661652
-0.00662817
-0.00662825
-0.00662817
-0.00662827
-0.00662809
-0.00662787
-0.00662829
-0.00662852
-0.00662804
-0.00661665
-0.00662812
-0.0066283
-0.00662853
-0.00661664
-0.00662808
-0.00662815
-0.00662828
-0.0066283
-0.00662815
-0.00662814
-0.00662776
-0.00662811
-0.00665034
-0.00671657
-0.00665014
-0.00671667
-0.00665029
-0.00665009
-0.00671654
-0.00671657
-0.0067167
-0.00680485
-0.00673875
-0.00680499
-0.00673856
-0.00673831
-0.00680486
-0.00680502
-0.00673872
-0.00673854
-0.00660617
-0.00660594
-0.0066285
-0.0066062
-0.0066281
-0.0066062
-0.00660585
-0.00662829
-0.00660581
-0.00662862
-0.00660594
-0.00662818
-0.00660609
-0.00660547
-0.00662834
-0.00660591
-0.00662822
-0.00662822
-0.0066061
-0.00660609
-0.00662837
-0.00660615
-0.00662815
-0.00660608
-0.006628
-0.00662834
-0.0066282
-0.00662847
-0.00662829
-0.00662828
-0.00662837
-0.00662823
-0.00662828
-0.00662849
-0.00662828
-0.00660587
-0.00662864
-0.00660597
-0.0066282
-0.00660554
-0.00660612
-0.00662837
-0.00660598
-0.00662847
-0.00660616
-0.00662811
-0.00660624
-0.00660575
-0.00662828
-0.00660596
-0.00662824
-0.0066282
-0.0066061
-0.00660615
-0.00662837
-0.00660618
-0.00660622
-0.0066281
-0.00660622
-0.00662801
-0.00667238
-0.00669454
-0.00667247
-0.00669434
-0.00669431
-0.0067166
-0.00671662
-0.0066945
-0.00669445
-0.00671677
-0.00667253
-0.00664988
-0.00665037
-0.0066724
-0.00665013
-0.00667232
-0.00667272
-0.00667259
-0.00664961
-0.00665026
-0.00667252
-0.00665003
-0.00667239
-0.00667291
-0.00667258
-0.0066503
-0.00665025
-0.00665012
-0.00667242
-0.00667242
-0.00669433
-0.00671651
-0.00669447
-0.00671687
-0.00669457
-0.00671674
-0.00669404
-0.00669423
-0.00671659
-0.00669428
-0.00671708
-0.00669446
-0.00671681
-0.0066938
-0.00678286
-0.00676074
-0.00678269
-0.00676085
-0.00676093
-0.00673868
-0.00673863
-0.00673847
-0.00676077
-0.0067608
-0.00678263
-0.00680517
-0.00678279
-0.00680482
-0.0067829
-0.00678235
-0.00680503
-0.00678255
-0.00680539
-0.00678263
-0.0068049
-0.0067828
-0.00678213
-0.00680512
-0.00676085
-0.00673877
-0.00673831
-0.00676074
-0.00673851
-0.00676068
-0.00676106
-0.00676093
-0.00673866
-0.00673808
-0.00676089
-0.00673842
-0.00676076
-0.00676127
-0.00678265
-0.0068049
-0.00680493
-0.00678283
-0.00678279
-0.00680508
-0.00660654
-0.00660582
-0.00662807
-0.00662819
-0.00660599
-0.00660575
-0.00662747
-0.0066066
-0.00660571
-0.00662821
-0.00662811
-0.00660583
-0.00660595
-0.00662749
-0.00667176
-0.00665002
-0.0066499
-0.0066724
-0.00665077
-0.00667229
-0.00667247
-0.00678327
-0.00678238
-0.00680478
-0.00680494
-0.00678255
-0.00678242
-0.00680428
-0.00661653
-0.00661643
-0.00660627
-0.0066288
-0.00660657
-0.00662791
-0.00660584
-0.00660649
-0.0066288
-0.00660506
-0.00662893
-0.00660614
-0.00662802
-0.00660505
-0.00660609
-0.00662879
-0.00660491
-0.00660595
-0.00662807
-0.00662909
-0.00660603
-0.00660479
-0.00662894
-0.00660511
-0.00662899
-0.00660617
-0.00662807
-0.00660613
-0.00660513
-0.00662885
-0.00660492
-0.00660597
-0.0066291
-0.0066281
-0.0066048
-0.00660604
-0.00662898
-0.00660578
-0.00662864
-0.00660654
-0.0066276
-0.00660557
-0.00660665
-0.00662831
-0.00669497
-0.00669406
-0.00671646
-0.00671664
-0.00671598
-0.00669421
-0.0066941
-0.00676007
-0.00676077
-0.00673847
-0.00673834
-0.00673915
-0.00676067
-0.00676083
-0.00666109
-0.0066612
-0.00666121
-0.00664993
-0.00683732
-0.0068374
-0.00683748
-0.00682633
-0.00701369
-0.00701394
-0.00701377
-0.00700272
-0.00719033
-0.0071905
-0.00719044
-0.00717918
-0.00736703
-0.00736714
-0.00736718
-0.00735594
-0.00754405
-0.00754421
-0.00754428
-0.00753299
-0.00772132
-0.00772141
-0.00772138
-0.00771013
-0.00789865
-0.00789869
-0.00789862
-0.00788729
-0.00807612
-0.00807612
-0.00807611
-0.00806475
-0.00825376
-0.0082537
-0.00825381
-0.00824235
-0.00843133
-0.00843135
-0.0084314
-0.00841997
-0.00860896
-0.00860898
-0.00860896
-0.00859765
-0.00878651
-0.00878657
-0.00878652
-0.00877518
-0.00896393
-0.0089639
-0.00896398
-0.0089526
-0.00914145
-0.00914147
-0.00914154
-0.00913021
-0.00931895
-0.00931892
-0.00931902
-0.00930772
-0.00949653
-0.00949651
-0.00949647
-0.00948507
-0.00666116
-0.00666134
-0.00679356
-0.00679349
-0.00665004
-0.00680468
-0.00666108
-0.00666109
-0.00679354
-0.00679347
-0.00666105
-0.00679333
-0.00679344
-0.00664991
-0.00680469
-0.00666117
-0.00679345
-0.00679342
-0.00680469
-0.00682646
-0.00698115
-0.0068376
-0.0068375
-0.00696988
-0.00696981
-0.00682631
-0.00698108
-0.00683759
-0.00683751
-0.0069699
-0.00696977
-0.00683754
-0.00696983
-0.00696985
-0.00682632
-0.00698099
-0.00683752
-0.0069697
-0.00696979
-0.00698107
-0.00700278
-0.00715761
-0.00701397
-0.00701389
-0.00714631
-0.00714635
-0.00700273
-0.00715761
-0.007014
-0.00701387
-0.00714637
-0.00714637
-0.00701394
-0.00714635
-0.00714625
-0.00700262
-0.00715763
-0.00701388
-0.00714629
-0.0071462
-0.00715753
-0.00717927
-0.00733432
-0.00719047
-0.00719046
-0.00732304
-0.00732296
-0.00717927
-0.00733423
-0.00719052
-0.00719052
-0.00732304
-0.00732296
-0.0071904
-0.00732294
-0.00732297
-0.00717928
-0.00733424
-0.00719034
-0.00732295
-0.00732295
-0.00733423
-0.00735596
-0.00751112
-0.00736722
-0.00736715
-0.00749989
-0.00749994
-0.00735593
-0.00751122
-0.00736721
-0.00736717
-0.00749989
-0.0074999
-0.00736718
-0.00749992
-0.00749999
-0.00735595
-0.00751126
-0.0073672
-0.00750001
-0.00750004
-0.00751127
-0.00753283
-0.00768833
-0.00754414
-0.00754419
-0.00767704
-0.00767709
-0.00753294
-0.00768838
-0.00754413
-0.00754419
-0.00767704
-0.00767705
-0.00754428
-0.00767711
-0.0076771
-0.00753297
-0.00768835
-0.00754431
-0.0076771
-0.00767712
-0.00768841
-0.00771006
-0.00786565
-0.00772136
-0.00772137
-0.00785439
-0.0078544
-0.00771011
-0.00786565
-0.00772137
-0.00772134
-0.00785439
-0.00785429
-0.0077214
-0.00785435
-0.00785434
-0.00771007
-0.00786556
-0.00772143
-0.0078543
-0.00785433
-0.00786556
-0.00788742
-0.00804309
-0.00789875
-0.00789872
-0.00803181
-0.00803176
-0.00788741
-0.00804303
-0.00789874
-0.00789866
-0.00803178
-0.00803174
-0.00789865
-0.00803175
-0.00803171
-0.00788732
-0.00804303
-0.00789864
-0.00803171
-0.00803172
-0.00804296
-0.00806484
-0.0082206
-0.00807617
-0.00807609
-0.00820936
-0.00820929
-0.0080648
-0.00822055
-0.00807614
-0.00807612
-0.00820935
-0.00820934
-0.0080761
-0.00820928
-0.00820927
-0.0080648
-0.00822063
-0.00807611
-0.00820934
-0.00820929
-0.00822057
-0.00824237
-0.00839819
-0.00825373
-0.00825367
-0.00838689
-0.00838693
-0.00824234
-0.00839824
-0.00825373
-0.00825378
-0.00838691
-0.00838701
-0.00825369
-0.00838695
-0.00838688
-0.00824243
-0.0083983
-0.00825372
-0.00838705
-0.00838694
-0.00839819
-0.00841997
-0.00857588
-0.00843129
-0.00843132
-0.00856462
-0.00856459
-0.00842003
-0.00857583
-0.00843132
-0.00843139
-0.0085646
-0.00856453
-0.00843133
-0.00856457
-0.00856456
-0.00842006
-0.00857583
-0.00843135
-0.00856458
-0.00856459
-0.00857586
-0.00859766
-0.00875336
-0.00860897
-0.00860896
-0.00874212
-0.00874218
-0.00859764
-0.00875344
-0.00860897
-0.00860891
-0.00874208
-0.00874206
-0.00860899
-0.00874222
-0.00874214
-0.00859761
-0.00875337
-0.00860899
-0.00874214
-0.00874215
-0.00875342
-0.00877513
-0.00893093
-0.00878647
-0.0087865
-0.00891962
-0.00891958
-0.0087752
-0.00893083
-0.00878645
-0.00878646
-0.00891965
-0.00891958
-0.00878651
-0.00891954
-0.00891955
-0.00877513
-0.00893086
-0.0087865
-0.00891959
-0.00891958
-0.00893082
-0.00895267
-0.00910839
-0.00896396
-0.00896389
-0.0090971
-0.00909707
-0.00895258
-0.00910833
-0.00896397
-0.00896396
-0.00909712
-0.00909718
-0.0089639
-0.00909705
-0.00909716
-0.00895262
-0.00910844
-0.00896395
-0.00909717
-0.00909721
-0.00910842
-0.00913013
-0.00928585
-0.00914145
-0.00914143
-0.0092746
-0.00927461
-0.00913012
-0.00928588
-0.00914148
-0.00914153
-0.00927461
-0.00927463
-0.00914158
-0.00927457
-0.00927473
-0.00913021
-0.00928592
-0.00914161
-0.00927466
-0.00927473
-0.00928598
-0.0093076
-0.00946339
-0.00931894
-0.0093189
-0.00945214
-0.0094521
-0.00930762
-0.00946337
-0.00931894
-0.00931899
-0.0094521
-0.00945205
-0.00931905
-0.0094521
-0.00945206
-0.00930766
-0.00946332
-0.00931906
-0.00945208
-0.00945203
-0.00946329
-0.00948514
-0.00949651
-0.00949649
-0.00948518
-0.00949645
-0.00949643
-0.00949641
-0.00962965
-0.0094851
-0.00949639
-0.00962966
-0.00964101
-0.00671648
-0.00665032
-0.00665051
-0.00671652
-0.00665038
-0.00671645
-0.00671693
-0.0066501
-0.0066498
-0.00671669
-0.00666116
-0.006661
-0.00666098
-0.00679337
-0.00679332
-0.00679325
-0.00679314
-0.00671646
-0.0066503
-0.0066611
-0.00670529
-0.00671642
-0.00670522
-0.00665012
-0.00665014
-0.0067166
-0.00671587
-0.00666115
-0.00665056
-0.00670532
-0.00670526
-0.0067161
-0.00665084
-0.00665011
-0.00665031
-0.00671651
-0.00671665
-0.00671648
-0.00689286
-0.00682698
-0.00682693
-0.00689292
-0.00682687
-0.00689291
-0.00689333
-0.00682678
-0.00682644
-0.00689312
-0.00683725
-0.00683725
-0.00683715
-0.00696965
-0.00696963
-0.00696966
-0.00696967
-0.00689291
-0.00682674
-0.00683737
-0.00688154
-0.00682657
-0.0068928
-0.0068815
-0.00682666
-0.00689298
-0.00689208
-0.00683735
-0.00682702
-0.00688153
-0.00682722
-0.00688148
-0.00689235
-0.00682664
-0.00682676
-0.00689289
-0.00689304
-0.00689281
-0.00706911
-0.00700317
-0.00700315
-0.00706914
-0.00700314
-0.00706914
-0.00706962
-0.00700294
-0.00700268
-0.00706935
-0.00701363
-0.00701368
-0.00701368
-0.00714621
-0.00714611
-0.00714619
-0.00714613
-0.00706935
-0.00700311
-0.00701381
-0.0070581
-0.00700298
-0.00706925
-0.00705795
-0.00700294
-0.00706934
-0.00706847
-0.00701378
-0.00700326
-0.00705792
-0.00700348
-0.00705791
-0.00706875
-0.00700294
-0.00700304
-0.00706928
-0.00706937
-0.00706915
-0.00724566
-0.00717958
-0.00717958
-0.00724567
-0.00717961
-0.00724571
-0.00724617
-0.0071794
-0.00717913
-0.00724591
-0.00719018
-0.00719025
-0.00719017
-0.00732289
-0.0073228
-0.00732281
-0.00732279
-0.00724586
-0.00717961
-0.00719038
-0.00723463
-0.00717942
-0.00724573
-0.00723455
-0.00717946
-0.00724587
-0.00724511
-0.00719033
-0.00717986
-0.0072346
-0.00718004
-0.00723445
-0.0072454
-0.00717936
-0.0071795
-0.00724586
-0.00724587
-0.00724567
-0.00742244
-0.00735624
-0.00735625
-0.00742242
-0.0073562
-0.00742239
-0.00742292
-0.00735606
-0.00735578
-0.00742263
-0.00736694
-0.00736693
-0.00736692
-0.00749982
-0.00749981
-0.00749974
-0.00749983
-0.00742258
-0.00735618
-0.00736705
-0.00741139
-0.00735604
-0.00742249
-0.00741132
-0.00735608
-0.00742262
-0.00742199
-0.00736707
-0.00735659
-0.00741146
-0.00735681
-0.00741137
-0.00742219
-0.00735601
-0.00735618
-0.00742272
-0.00742265
-0.00742249
-0.00759948
-0.00753317
-0.00753323
-0.00759945
-0.00753321
-0.00759954
-0.00759994
-0.00753295
-0.00753274
-0.00759965
-0.00754404
-0.00754398
-0.00754407
-0.00767706
-0.00767705
-0.007677
-0.00767703
-0.00759971
-0.00753321
-0.00754417
-0.00758852
-0.00753307
-0.00759955
-0.00758846
-0.00753304
-0.00759967
-0.00759905
-0.00754419
-0.00753357
-0.00758853
-0.00753384
-0.00758845
-0.00759925
-0.00753308
-0.00753324
-0.00759984
-0.00759979
-0.00759963
-0.00777671
-0.00771036
-0.0077104
-0.0077767
-0.00771037
-0.0077767
-0.00777715
-0.00771012
-0.00770988
-0.00777689
-0.00772128
-0.00772126
-0.00772126
-0.00785437
-0.00785435
-0.00785429
-0.00785427
-0.00777688
-0.00771034
-0.00772136
-0.00776575
-0.00771019
-0.00777677
-0.00776564
-0.00771018
-0.00777685
-0.00777615
-0.00772133
-0.00771068
-0.0077657
-0.00771094
-0.00776562
-0.00777638
-0.0077102
-0.0077104
-0.00777697
-0.00777694
-0.00777678
-0.00795405
-0.00788765
-0.00788767
-0.00795403
-0.00788766
-0.00795407
-0.00795452
-0.00788742
-0.00788717
-0.00795424
-0.00789861
-0.00789854
-0.00789855
-0.0080318
-0.00803177
-0.0080317
-0.00803174
-0.00795416
-0.00788761
-0.00789866
-0.00794302
-0.00788746
-0.00795404
-0.00794298
-0.00788743
-0.00795416
-0.00795339
-0.00789857
-0.00788784
-0.00794294
-0.00788805
-0.00794289
-0.00795364
-0.00788737
-0.00788753
-0.00795424
-0.00795418
-0.00795397
-0.00813151
-0.00806506
-0.00806508
-0.00813149
-0.00806506
-0.00813148
-0.00813202
-0.00806487
-0.00806463
-0.00813174
-0.00807608
-0.00807602
-0.00807605
-0.00820939
-0.00820928
-0.00820935
-0.00820932
-0.00813176
-0.00806504
-0.0080761
-0.00812053
-0.00806491
-0.0081316
-0.00812046
-0.00806488
-0.00813168
-0.00813099
-0.00807607
-0.00806534
-0.00812048
-0.00806557
-0.00812045
-0.00813124
-0.00806484
-0.00806495
-0.00813176
-0.00813174
-0.00813152
-0.00830909
-0.00824261
-0.00824263
-0.00830911
-0.00824259
-0.00830909
-0.00830961
-0.00824243
-0.0082422
-0.00830931
-0.00825366
-0.00825371
-0.00825367
-0.00838697
-0.00838696
-0.00838697
-0.00838699
-0.00830926
-0.00824257
-0.00825365
-0.00829809
-0.00824246
-0.00830908
-0.00829807
-0.00824248
-0.00830934
-0.00830869
-0.00825374
-0.00824296
-0.00829821
-0.00824321
-0.00829812
-0.00830888
-0.00824241
-0.00824258
-0.00830939
-0.0083093
-0.00830919
-0.00848678
-0.00842028
-0.00842029
-0.00848676
-0.00842024
-0.00848673
-0.00848724
-0.00842003
-0.00841981
-0.00848695
-0.0084313
-0.00843134
-0.00843131
-0.00856462
-0.00856461
-0.00856459
-0.00856458
-0.0084869
-0.00842021
-0.00843132
-0.00847579
-0.00842008
-0.00848679
-0.00847574
-0.00842014
-0.00848694
-0.0084863
-0.00843135
-0.00842063
-0.00847577
-0.00842088
-0.00847573
-0.00848651
-0.00842004
-0.00842026
-0.00848705
-0.00848694
-0.00848683
-0.00866442
-0.00859793
-0.00859796
-0.0086644
-0.00859791
-0.00866443
-0.0086649
-0.00859773
-0.00859748
-0.00866462
-0.00860898
-0.00860892
-0.00860893
-0.00874225
-0.00874223
-0.00874215
-0.00874213
-0.00866456
-0.00859787
-0.00860902
-0.00865338
-0.00859776
-0.00866439
-0.00865337
-0.00859775
-0.00866457
-0.00866382
-0.00860894
-0.00859818
-0.00865335
-0.00859845
-0.0086533
-0.00866404
-0.00859768
-0.00859786
-0.00866465
-0.00866462
-0.00866442
-0.00884187
-0.00877546
-0.00877551
-0.00884188
-0.00877549
-0.00884189
-0.00884236
-0.00877524
-0.008775
-0.00884207
-0.00878649
-0.00878646
-0.00878643
-0.00891963
-0.00891961
-0.00891968
-0.00891958
-0.00884209
-0.00877547
-0.0087865
-0.00883093
-0.00877534
-0.00884197
-0.00883082
-0.00877528
-0.00884203
-0.00884139
-0.00878649
-0.00877573
-0.00883085
-0.008776
-0.00883083
-0.00884157
-0.00877529
-0.00877542
-0.00884213
-0.00884212
-0.00884191
-0.00901937
-0.00895294
-0.00895294
-0.00901939
-0.0089529
-0.00901937
-0.00901984
-0.00895273
-0.00895246
-0.00901958
-0.0089639
-0.00896397
-0.00896392
-0.00909715
-0.00909711
-0.0090972
-0.0090972
-0.00901949
-0.00895285
-0.00896391
-0.00900826
-0.00895269
-0.00901932
-0.00900824
-0.00895274
-0.00901954
-0.00901886
-0.00896402
-0.00895319
-0.00900836
-0.00895339
-0.00900835
-0.00901906
-0.00895265
-0.00895281
-0.00901959
-0.00901948
-0.00901934
-0.00919684
-0.00913046
-0.00913045
-0.00919686
-0.00913042
-0.00919682
-0.0091974
-0.00913026
-0.00913002
-0.00919712
-0.00914141
-0.00914152
-0.00914155
-0.00927463
-0.00927461
-0.00927471
-0.0092747
-0.00919709
-0.00913041
-0.00914149
-0.00918587
-0.00913028
-0.00919696
-0.0091859
-0.00913031
-0.00919709
-0.00919645
-0.00914157
-0.00913076
-0.00918597
-0.00913103
-0.00918597
-0.00919663
-0.00913022
-0.00913042
-0.0091973
-0.00919713
-0.00919697
-0.00937427
-0.00930787
-0.00930787
-0.00937428
-0.00930784
-0.0093743
-0.00937483
-0.00930773
-0.00930748
-0.00937455
-0.00931886
-0.009319
-0.00931898
-0.00945214
-0.00945216
-0.0094521
-0.00945214
-0.00937447
-0.00930791
-0.00931891
-0.00936328
-0.00930776
-0.00937432
-0.00936321
-0.00930774
-0.0093745
-0.00937386
-0.00931901
-0.00930823
-0.00936339
-0.00930852
-0.00936333
-0.00937406
-0.00930778
-0.00930794
-0.00937459
-0.00937457
-0.00937441
-0.00955195
-0.00948544
-0.00948547
-0.00955196
-0.00948543
-0.00955195
-0.00955238
-0.0094852
-0.00948496
-0.00955213
-0.00949645
-0.00949646
-0.00949642
-0.00962966
-0.00955209
-0.00948538
-0.00949648
-0.00954092
-0.00948525
-0.00955201
-0.00954086
-0.00948525
-0.00955206
-0.00955134
-0.00949648
-0.00948568
-0.00954086
-0.00948593
-0.0095408
-0.00955163
-0.00948517
-0.00948535
-0.00955209
-0.0095521
-0.00955192
-0.00671647
-0.00665035
-0.00671644
-0.00665051
-0.00671591
-0.00665061
-0.00666132
-0.00670522
-0.00670524
-0.00665111
-0.00671619
-0.00671591
-0.00665068
-0.00666138
-0.0067053
-0.0067161
-0.00670526
-0.00665112
-0.00673869
-0.00680481
-0.00680474
-0.00673877
-0.00673868
-0.0068047
-0.00673866
-0.00680471
-0.00673915
-0.00674946
-0.00680447
-0.00679349
-0.00674945
-0.00680415
-0.00673905
-0.00673914
-0.00674944
-0.00680439
-0.00679343
-0.00673896
-0.00674937
-0.0068041
-0.00665038
-0.00665011
-0.00671653
-0.00671638
-0.00671671
-0.00665016
-0.00671661
-0.00680475
-0.00673864
-0.00673825
-0.00680479
-0.00680479
-0.0067386
-0.00673841
-0.0068048
-0.00673843
-0.00671656
-0.00665026
-0.00666104
-0.00670523
-0.00670508
-0.00665007
-0.00671648
-0.00671692
-0.0066501
-0.00671663
-0.0066498
-0.00671657
-0.00666102
-0.00665027
-0.00670522
-0.00670509
-0.00671643
-0.00665009
-0.0067382
-0.00680501
-0.00680519
-0.00673852
-0.00673846
-0.00674943
-0.00680479
-0.00679339
-0.00674926
-0.0068048
-0.00673873
-0.00673818
-0.00680487
-0.00673843
-0.00680516
-0.00673846
-0.00674937
-0.00679337
-0.00680466
-0.00674927
-0.00673863
-0.00680478
-0.00671687
-0.00665014
-0.00671662
-0.00664984
-0.0067165
-0.00666105
-0.00665029
-0.00670521
-0.00670517
-0.00671645
-0.00665013
-0.00671688
-0.00665013
-0.00671666
-0.00664986
-0.00673835
-0.00674935
-0.00680459
-0.0067933
-0.00673855
-0.0067493
-0.00680467
-0.00673812
-0.00680483
-0.0067384
-0.00680509
-0.00673837
-0.00674935
-0.00679331
-0.00680469
-0.00674927
-0.00673864
-0.0068047
-0.00673813
-0.0068049
-0.00673846
-0.00680512
-0.0066501
-0.00665026
-0.00671652
-0.00671663
-0.00671645
-0.00665029
-0.00671643
-0.00680483
-0.00673845
-0.00673823
-0.00680486
-0.00680464
-0.00673843
-0.00673857
-0.00680462
-0.00673857
-0.00671587
-0.00666115
-0.00665064
-0.00670531
-0.00670527
-0.00671612
-0.00665085
-0.00671641
-0.00665031
-0.0067164
-0.00665034
-0.0067164
-0.00665036
-0.00671642
-0.00665034
-0.00673908
-0.00674938
-0.00679332
-0.00680427
-0.00674929
-0.00673893
-0.00680396
-0.00673908
-0.00674937
-0.00679325
-0.0068043
-0.00674925
-0.00673895
-0.00680397
-0.00673859
-0.00680459
-0.00673861
-0.00680456
-0.0067386
-0.00680463
-0.00673863
-0.00680457
-0.00665016
-0.00671663
-0.00665034
-0.00671646
-0.00673823
-0.00680489
-0.00680468
-0.00673845
-0.00673861
-0.00680486
-0.00673849
-0.00680466
-0.00673861
-0.00682697
-0.00689296
-0.00682682
-0.0068931
-0.00682694
-0.00682679
-0.00689292
-0.00689296
-0.00689312
-0.00698103
-0.00691507
-0.00698116
-0.0069149
-0.00691463
-0.00698105
-0.00698119
-0.00691505
-0.00691487
-0.00689285
-0.00682688
-0.00682692
-0.00689288
-0.00689227
-0.00682723
-0.00683748
-0.00688165
-0.00682741
-0.00689255
-0.00688153
-0.00689226
-0.00682713
-0.00683741
-0.00688159
-0.00682738
-0.00689252
-0.00688149
-0.00691502
-0.00698101
-0.00691508
-0.00698096
-0.00691502
-0.006981
-0.00691506
-0.00698096
-0.00691545
-0.00692579
-0.00698069
-0.00696975
-0.00691534
-0.00692569
-0.00698035
-0.00691546
-0.00692573
-0.00698067
-0.00696975
-0.00691531
-0.00692569
-0.00698033
-0.00682684
-0.0068266
-0.00689284
-0.00689291
-0.00689304
-0.00682665
-0.00689302
-0.00698103
-0.00691503
-0.00691457
-0.00698106
-0.00698118
-0.006915
-0.00691483
-0.00698117
-0.00691486
-0.00689294
-0.00682693
-0.00683743
-0.00688164
-0.00682671
-0.00689286
-0.00688152
-0.00689333
-0.00682664
-0.00682644
-0.00689303
-0.00689294
-0.00683741
-0.00682679
-0.00688157
-0.00682669
-0.00688151
-0.00689278
-0.00691452
-0.00698118
-0.00691486
-0.00698143
-0.00691477
-0.00692578
-0.00698098
-0.00696977
-0.00691501
-0.00692568
-0.00698107
-0.00691452
-0.00698115
-0.00691479
-0.00698141
-0.00691475
-0.0069257
-0.00696977
-0.00698093
-0.00692569
-0.00691494
-0.00698105
-0.00689329
-0.00682662
-0.00682637
-0.00689304
-0.00689293
-0.0068374
-0.00682682
-0.00688168
-0.00682662
-0.00688157
-0.00689282
-0.00689331
-0.00682667
-0.0068264
-0.00689305
-0.00691475
-0.00692572
-0.00698098
-0.00696973
-0.00691498
-0.00692565
-0.00698111
-0.00691452
-0.00698121
-0.00691482
-0.00698146
-0.00691478
-0.00692581
-0.00696976
-0.006981
-0.00692572
-0.00691498
-0.00698109
-0.00691454
-0.00698121
-0.00691482
-0.00698145
-0.0068266
-0.00682671
-0.00689278
-0.00689299
-0.00689274
-0.00682674
-0.00689273
-0.00698111
-0.0069148
-0.00691449
-0.00698114
-0.0069809
-0.00691475
-0.00691484
-0.00698088
-0.00691485
-0.00689211
-0.00683731
-0.00682707
-0.00688162
-0.00682725
-0.00688145
-0.00689241
-0.00689269
-0.00682677
-0.00682679
-0.00689271
-0.0068927
-0.00682681
-0.00682681
-0.00689276
-0.0069153
-0.00692566
-0.00696964
-0.0069805
-0.0069256
-0.00691515
-0.00698023
-0.00691531
-0.00692575
-0.00696971
-0.00698059
-0.00692564
-0.00691522
-0.00698026
-0.00691486
-0.00698084
-0.00691488
-0.0069808
-0.00691488
-0.0069809
-0.00691494
-0.00698081
-0.00682669
-0.00689301
-0.00682678
-0.0068928
-0.00691458
-0.00698119
-0.00698096
-0.0069148
-0.00691491
-0.00698116
-0.00691484
-0.00698093
-0.00691491
-0.00700314
-0.00706916
-0.00700297
-0.00706932
-0.00700311
-0.00700293
-0.00706932
-0.00706918
-0.00706935
-0.0071574
-0.0070913
-0.00715757
-0.00709116
-0.00709101
-0.00715743
-0.00715761
-0.00709128
-0.00709113
-0.00706912
-0.00700317
-0.00700317
-0.00706913
-0.00706851
-0.00700343
-0.00701381
-0.00705803
-0.0070036
-0.00706881
-0.00705792
-0.00706853
-0.00700341
-0.00701381
-0.00705801
-0.00700361
-0.00706877
-0.00705792
-0.0070913
-0.00715737
-0.00709132
-0.00715735
-0.00709132
-0.00715742
-0.00709136
-0.00715735
-0.00709176
-0.00710216
-0.00715708
-0.00714624
-0.00709163
-0.0071021
-0.00715678
-0.00709178
-0.00710219
-0.00715713
-0.00714625
-0.00709165
-0.00710211
-0.0071568
-0.00700313
-0.00700294
-0.00706932
-0.00706908
-0.0070695
-0.007003
-0.00706941
-0.00715746
-0.00709132
-0.00709106
-0.00715753
-0.00715761
-0.0070913
-0.0070912
-0.0071576
-0.00709122
-0.00706929
-0.00700311
-0.00701388
-0.00705808
-0.00700295
-0.00706914
-0.00705801
-0.00706962
-0.00700292
-0.00700268
-0.00706937
-0.00706927
-0.00701387
-0.00700306
-0.00705803
-0.00700294
-0.007058
-0.00706916
-0.00709086
-0.00715761
-0.00709114
-0.00715786
-0.00709115
-0.00710223
-0.00715742
-0.00714632
-0.00709134
-0.00710216
-0.00715753
-0.00709087
-0.00715765
-0.00709117
-0.00715787
-0.00709115
-0.00710223
-0.00714635
-0.00715745
-0.00710219
-0.00709135
-0.00715754
-0.00706967
-0.00700298
-0.00700272
-0.00706942
-0.00706933
-0.0070138
-0.00700314
-0.00705804
-0.007003
-0.0070579
-0.00706916
-0.00706966
-0.00700297
-0.00700271
-0.00706938
-0.00709118
-0.00710225
-0.00715745
-0.00714623
-0.00709137
-0.00710212
-0.00715753
-0.00709089
-0.00715764
-0.00709119
-0.00715788
-0.00709115
-0.00710216
-0.0071462
-0.00715741
-0.00710208
-0.00709134
-0.00715752
-0.00709089
-0.00715761
-0.00709116
-0.00715788
-0.00700289
-0.00700298
-0.00706925
-0.00706937
-0.00706913
-0.00700301
-0.00706911
-0.00715762
-0.0070912
-0.00709099
-0.00715765
-0.00715744
-0.00709117
-0.00709126
-0.00715741
-0.00709127
-0.00706848
-0.00701383
-0.00700336
-0.00705797
-0.00700353
-0.00705794
-0.00706877
-0.00706901
-0.00700303
-0.00700302
-0.00706907
-0.00706903
-0.00700308
-0.00700304
-0.00706909
-0.00709173
-0.00710214
-0.00714621
-0.00715708
-0.00710206
-0.00709158
-0.00715677
-0.00709174
-0.0071021
-0.0071462
-0.00715703
-0.00710206
-0.0070916
-0.00715676
-0.00709124
-0.00715738
-0.00709129
-0.00715732
-0.00709125
-0.00715735
-0.0070913
-0.00715732
-0.00700298
-0.00706934
-0.00700305
-0.00706913
-0.00709097
-0.00715759
-0.00715739
-0.00709114
-0.00709126
-0.00715757
-0.00709118
-0.00715737
-0.00709128
-0.00717955
-0.0072457
-0.00717942
-0.00724587
-0.00717953
-0.00717939
-0.0072459
-0.00724573
-0.0072459
-0.00733404
-0.00726787
-0.00733421
-0.00726775
-0.00726764
-0.00733408
-0.00733426
-0.00726787
-0.00726772
-0.00724566
-0.00717962
-0.00717961
-0.00724568
-0.00724512
-0.00717987
-0.00719039
-0.00723463
-0.00718009
-0.00724536
-0.00723455
-0.00724511
-0.00717991
-0.00719036
-0.00723459
-0.00718012
-0.00724537
-0.0072345
-0.00726788
-0.00733402
-0.0072679
-0.00733399
-0.00726787
-0.007334
-0.00726789
-0.00733399
-0.00726837
-0.00727884
-0.00733376
-0.0073229
-0.0072682
-0.00727873
-0.00733347
-0.00726837
-0.00727877
-0.00733374
-0.00732291
-0.00726818
-0.0072787
-0.00733346
-0.0071796
-0.00717942
-0.00724587
-0.00724574
-0.00724592
-0.00717946
-0.00724589
-0.00733402
-0.00726787
-0.00726759
-0.00733407
-0.0073342
-0.00726786
-0.00726773
-0.00733417
-0.00726775
-0.00724582
-0.00717958
-0.00719045
-0.00723464
-0.00717946
-0.0072457
-0.00723459
-0.00724616
-0.00717943
-0.00717916
-0.0072459
-0.00724582
-0.00719046
-0.00717959
-0.00723467
-0.00717948
-0.00723463
-0.0072457
-0.00726742
-0.00733425
-0.00726773
-0.00733448
-0.00726768
-0.00727885
-0.00733406
-0.00732294
-0.00726792
-0.00727879
-0.00733413
-0.00726743
-0.00733423
-0.0072677
-0.00733448
-0.00726769
-0.00727882
-0.00732291
-0.00733406
-0.00727879
-0.00726789
-0.00733414
-0.0072462
-0.00717943
-0.00717917
-0.00724593
-0.00724582
-0.00719032
-0.00717956
-0.00723461
-0.00717943
-0.00723455
-0.00724568
-0.00724618
-0.0071794
-0.00717916
-0.00724589
-0.00726772
-0.0072788
-0.00733401
-0.00732288
-0.00726792
-0.00727872
-0.00733416
-0.00726745
-0.00733421
-0.00726772
-0.0073345
-0.0072677
-0.00727881
-0.00732288
-0.00733405
-0.00727876
-0.00726787
-0.00733417
-0.00726744
-0.00733422
-0.00726769
-0.00733451
-0.00717942
-0.00717955
-0.0072459
-0.00724591
-0.00724576
-0.00717958
-0.00724575
-0.0073342
-0.00726773
-0.00726761
-0.00733426
-0.00733413
-0.00726771
-0.0072679
-0.00733411
-0.00726792
-0.0072451
-0.00719029
-0.00717983
-0.00723453
-0.00718006
-0.00723443
-0.00724532
-0.00724566
-0.0071796
-0.00717958
-0.00724571
-0.00724565
-0.00717955
-0.00717958
-0.00724563
-0.00726836
-0.0072788
-0.00732281
-0.00733378
-0.00727864
-0.00726823
-0.0073335
-0.00726835
-0.00727876
-0.0073228
-0.00733372
-0.00727866
-0.00726818
-0.00733348
-0.0072679
-0.00733408
-0.00726795
-0.00733404
-0.0072679
-0.007334
-0.00726786
-0.00733402
-0.00717941
-0.00724584
-0.00717952
-0.00724566
-0.00726757
-0.00733421
-0.00733403
-0.00726767
-0.00726781
-0.00733417
-0.00726771
-0.00733401
-0.00726782
-0.00735622
-0.00742244
-0.00735609
-0.00742259
-0.0073562
-0.00735606
-0.00742264
-0.00742246
-0.00742263
-0.00751092
-0.00744464
-0.00751105
-0.00744448
-0.00744438
-0.00751095
-0.0075111
-0.00744463
-0.00744447
-0.00742244
-0.00735623
-0.00735626
-0.0074224
-0.00742189
-0.00735656
-0.00736709
-0.00741139
-0.00735679
-0.00742214
-0.00741128
-0.0074219
-0.00735653
-0.0073671
-0.00741133
-0.00735676
-0.00742208
-0.00741125
-0.0074447
-0.00751091
-0.00744467
-0.00751093
-0.0074447
-0.00751096
-0.00744469
-0.00751093
-0.00744517
-0.00745564
-0.00751063
-0.00749983
-0.00744501
-0.00745556
-0.00751035
-0.00744518
-0.00745564
-0.00751068
-0.00749983
-0.00744503
-0.00745551
-0.00751036
-0.00735619
-0.007356
-0.00742264
-0.00742235
-0.00742275
-0.00735605
-0.00742266
-0.007511
-0.00744464
-0.00744443
-0.00751106
-0.00751113
-0.00744464
-0.00744451
-0.00751113
-0.00744454
-0.00742259
-0.00735624
-0.00736707
-0.0074114
-0.0073561
-0.00742244
-0.00741129
-0.00742293
-0.00735604
-0.0073558
-0.00742265
-0.00742257
-0.00736707
-0.00735623
-0.0074114
-0.0073561
-0.00741127
-0.00742246
-0.00744422
-0.00751109
-0.00744447
-0.00751141
-0.0074445
-0.00745567
-0.00751093
-0.00749978
-0.00744467
-0.00745556
-0.00751106
-0.00744423
-0.00751116
-0.0074445
-0.00751142
-0.0074445
-0.00745567
-0.00749978
-0.007511
-0.00745552
-0.00744469
-0.00751111
-0.00742292
-0.00735602
-0.00735579
-0.00742266
-0.00742259
-0.00736706
-0.00735622
-0.00741142
-0.0073561
-0.00741131
-0.00742246
-0.00742292
-0.00735604
-0.00735581
-0.00742264
-0.00744448
-0.00745567
-0.00751099
-0.0074999
-0.00744467
-0.00745564
-0.00751113
-0.00744422
-0.00751117
-0.00744451
-0.00751146
-0.00744451
-0.00745571
-0.00749991
-0.00751105
-0.00745561
-0.00744471
-0.00751115
-0.00744423
-0.00751122
-0.0074445
-0.00751147
-0.00735605
-0.00735626
-0.0074227
-0.00742267
-0.00742252
-0.00735628
-0.0074225
-0.00751114
-0.00744453
-0.00744448
-0.00751119
-0.00751105
-0.00744451
-0.0074447
-0.00751103
-0.00744471
-0.00742198
-0.00736704
-0.00735657
-0.00741147
-0.00735683
-0.00741135
-0.00742216
-0.00742248
-0.00735631
-0.00735633
-0.00742248
-0.00742247
-0.00735624
-0.00735632
-0.00742247
-0.00744527
-0.00745575
-0.0074999
-0.00751073
-0.00745563
-0.00744507
-0.0075105
-0.00744528
-0.00745577
-0.00749995
-0.00751074
-0.00745567
-0.00744507
-0.0075105
-0.00744475
-0.007511
-0.00744474
-0.00751101
-0.00744475
-0.00751102
-0.00744474
-0.00751101
-0.00735605
-0.00742261
-0.0073562
-0.00742249
-0.00744449
-0.00751123
-0.00751106
-0.0074445
-0.00744468
-0.00751119
-0.00744453
-0.00751104
-0.0074447
-0.00753313
-0.00759947
-0.00753297
-0.00759961
-0.00753311
-0.00753295
-0.00759966
-0.00759949
-0.00759964
-0.00768809
-0.00762171
-0.00768821
-0.00762155
-0.00762145
-0.00768812
-0.00768824
-0.0076217
-0.00762152
-0.0075995
-0.00753323
-0.00753324
-0.00759952
-0.00759898
-0.00753347
-0.00754406
-0.00758842
-0.00753374
-0.00759915
-0.0075884
-0.00759896
-0.00753351
-0.00754408
-0.00758851
-0.00753373
-0.00759922
-0.0075884
-0.00762177
-0.00768807
-0.00762175
-0.00768809