/*--------------------------------*- C++ -*----------------------------------*\
| =========                 |                                                 |
| \\      /  F ield         | OpenFOAM: The Open Source CFD Toolbox           |
|  \\    /   O peration     | Version:  2206                                  |
|   \\  /    A nd           | Website:  www.openfoam.com                      |
|    \\/     M anipulation  |                                                 |
\*---------------------------------------------------------------------------*/
FoamFile
{
    version     2.0;
    format      ascii;
    arch        "LSB;label=32;scalar=64";
    class       surfaceScalarField;
    location    "130";
    object      phi;
}
// * * * * * * * * * * * * * * * * * * * * * * * * * * * * * * * * * * * * * //

dimensions      [0 3 -1 0 0 0 0];

oriented        oriented;

internalField   nonuniform List<scalar> 
197159
(
-2.56552e-11
-2.90059e-11
2.75418e-08
-2.73902e-08
-4.95702e-11
-4.73841e-11
-1.40963e-11
-2.24239e-11
-2.32164e-11
2.55402e-11
-7.71095e-12
-3.50335e-11
3.73308e-11
1.14386e-11
1.17155e-07
1.51273e-11
-1.46363e-12
-1.67004e-11
-2.67238e-11
-3.97215e-11
4.09235e-11
7.16429e-11
-6.38378e-11
6.73937e-11
-6.69505e-11
1.14858e-07
2.08593e-11
4.44034e-11
-6.99553e-12
4.46789e-12
-3.5647e-11
4.20505e-11
5.10123e-11
-6.3425e-11
6.60039e-11
-4.7912e-11
1.15905e-07
-2.16397e-11
-2.74117e-08
-5.79505e-11
-3.20815e-11
2.75442e-08
-4.48689e-11
-9.72128e-11
-3.74665e-11
-3.13013e-11
1.65846e-11
-3.41596e-11
4.9663e-11
-1.18778e-11
1.16068e-07
-2.01633e-11
5.11223e-11
4.98125e-11
2.73911e-08
2.3057e-11
2.66836e-11
-2.73936e-08
-4.90756e-11
-4.78782e-11
-2.50987e-11
-2.88299e-11
2.75445e-08
-6.18057e-11
1.24808e-07
7.71817e-11
-1.34701e-11
1.25117e-07
-2.25219e-11
5.28937e-12
2.71777e-13
6.56636e-09
-6.57202e-09
9.96374e-14
6.88335e-12
2.78449e-12
6.44078e-09
-5.18241e-13
4.5739e-12
2.10816e-08
1.85279e-11
-2.1098e-08
-1.4208e-12
1.12981e-11
2.06378e-08
2.44942e-11
-2.06616e-08
-5.1671e-12
7.80189e-12
-1.31724e-08
7.56687e-13
1.31632e-08
9.79644e-13
1.77689e-11
-2.07736e-08
7.19107e-12
2.07611e-08
1.55394e-11
3.63015e-12
1.28791e-08
2.94423e-13
5.26315e-11
1.23588e-13
-4.86189e-12
-1.75998e-11
1.92397e-08
3.46786e-11
-2.04123e-08
1.61303e-11
2.03884e-08
6.43554e-14
-7.56933e-13
1.10152e-10
-1.38782e-10
1.44288e-10
-1.05663e-10
1.20175e-07
7.39403e-14
-2.37291e-08
-1.05842e-11
9.96273e-11
2.36926e-08
1.60056e-11
-2.51977e-12
3.32409e-12
1.28858e-08
1.30009e-13
5.24568e-11
-1.75046e-11
-4.46934e-12
1.92374e-08
-5.98011e-12
9.23464e-11
-1.3794e-10
1.44034e-10
-8.73361e-11
1.21455e-07
-1.12478e-11
3.51389e-11
-2.04016e-08
1.59289e-11
2.03778e-08
-2.37245e-08
9.94285e-11
-1.00869e-11
2.36877e-08
7.23666e-12
6.44557e-09
-5.4831e-13
2.48671e-11
-2.07188e-08
-4.70019e-12
2.06946e-08
-4.59872e-12
4.92899e-12
1.77986e-11
-2.10613e-08
-1.49268e-12
2.10447e-08
1.91027e-13
-6.57749e-09
6.57177e-09
9.35106e-13
-7.38868e-12
1.70252e-11
-2.0783e-08
7.44707e-12
2.07708e-08
-1.31816e-08
7.58489e-13
1.31724e-08
1.22419e-12
-4.02756e-12
6.57219e-09
-5.71731e-13
-1.21946e-12
4.66356e-12
6.56694e-09
-6.57245e-09
3.30788e-13
5.17697e-13
-6.62443e-12
6.44999e-09
-3.50547e-12
8.97063e-13
7.21567e-12
6.44108e-09
-6.45012e-09
2.30865e-12
-4.82243e-13
-1.804e-11
2.11514e-12
2.10993e-08
-5.75181e-12
-2.51005e-11
5.95774e-12
2.06624e-08
-1.19902e-11
2.75432e-08
-2.73921e-08
-4.93551e-11
-4.78512e-11
-2.53135e-11
-2.86338e-11
2.10836e-08
-1.97271e-12
-2.11004e-08
1.81287e-11
5.24553e-12
2.06391e-08
-4.36139e-12
-2.06631e-08
2.49067e-11
1.06629e-11
4.50759e-12
-6.57345e-09
2.02718e-13
6.56811e-09
6.29843e-13
-4.42128e-12
6.57289e-09
-4.67377e-13
-1.06768e-12
7.33621e-12
-6.45073e-09
2.11414e-12
6.44182e-09
-5.45672e-13
-6.03052e-12
6.45036e-09
-3.73076e-12
4.86298e-13
2.73929e-08
5.15496e-11
4.96152e-11
2.30599e-11
2.60548e-11
1.78042e-11
-2.11033e-08
-2.03115e-12
4.91446e-12
2.10871e-08
2.48436e-11
-2.06653e-08
-4.1762e-12
1.02283e-11
2.06417e-08
1.49968e-12
-1.84787e-11
2.11015e-08
-5.32259e-12
6.46686e-12
-2.47468e-11
2.06639e-08
-1.25223e-11
-3.56945e-12
-3.67505e-13
-2.01346e-12
-6.56605e-09
9.94147e-12
-1.9249e-11
1.92505e-08
1.3714e-11
-2.37772e-11
-2.31541e-08
-1.82453e-11
2.31312e-08
3.69696e-11
2.26898e-11
2.49497e-12
-1.76827e-11
-6.35926e-12
-1.2553e-08
1.06508e-11
-1.5601e-12
1.25422e-08
3.24628e-13
1.71349e-12
-6.21483e-13
-3.72242e-11
-2.37906e-11
-1.29224e-11
1.92319e-08
2.39119e-11
1.22271e-11
-2.41846e-11
1.82716e-08
1.5319e-11
-2.20972e-11
-2.21669e-08
-2.43266e-11
2.21394e-08
4.26176e-11
3.36959e-11
5.39741e-12
-2.52469e-11
-1.15372e-11
-1.22336e-08
1.16285e-11
-3.39227e-12
1.22199e-08
2.65324e-13
3.54388e-12
-1.99124e-13
-4.45638e-11
-3.4183e-11
-1.562e-11
1.82538e-08
2.0778e-11
4.48967e-12
4.69722e-12
1.47469e-08
-5.36537e-09
5.06267e-12
5.35876e-09
-3.1646e-14
-5.3398e-09
4.32461e-12
5.3325e-09
-4.04025e-13
-4.25264e-13
5.4526e-13
1.47278e-08
-6.32362e-12
-3.30152e-11
-1.06236e-12
-1.31325e-08
-2.0287e-08
7.99286e-12
1.23888e-11
2.02672e-08
1.43178e-13
-1.29966e-10
3.42276e-11
-2.01678e-08
-2.97444e-11
5.47149e-09
1.48377e-12
-5.4636e-09
-1.38424e-12
-5.69852e-12
7.25967e-12
2.89836e-11
1.97508e-08
2.23375e-12
5.31686e-09
-2.40763e-13
-1.45634e-11
4.39039e-11
1.82431e-08
-1.16397e-12
-8.04244e-14
1.14868e-08
-9.02726e-13
9.46242e-09
-6.66636e-13
-6.17549e-12
6.85328e-12
2.95175e-11
1.97511e-08
2.01406e-12
5.31753e-09
-3.95489e-13
-1.12808e-12
1.14866e-08
-8.0835e-13
-1.46751e-11
4.3898e-11
1.82397e-08
9.46358e-09
-6.90218e-13
-2.58902e-11
1.18338e-11
1.82749e-08
1.5541e-11
-2.10776e-11
-2.25164e-08
-2.36558e-11
4.49477e-11
3.28176e-11
2.24871e-08
-2.49184e-11
6.23605e-12
-1.22657e-11
-1.22301e-08
1.18822e-11
-2.9531e-12
1.22163e-08
1.50403e-13
-4.51888e-11
-3.44179e-11
3.75444e-12
-6.41251e-14
-1.49991e-11
2.13583e-11
1.82567e-08
1.0346e-11
-1.65505e-11
1.92662e-08
1.29543e-11
-2.58874e-11
-2.27939e-08
-1.852e-11
3.38533e-11
2.46345e-11
2.27718e-08
2.1372e-12
-1.90772e-11
4.38475e-12
-4.26919e-12
-1.25743e-08
1.0011e-11
-1.56091e-12
1.25637e-08
6.65729e-13
1.64636e-12
-5.15492e-13
-4.75634e-11
-7.45408e-12
-1.30541e-11
2.31191e-11
1.92476e-08
4.12844e-12
4.97449e-12
1.47584e-08
-5.34344e-09
4.46276e-12
5.33625e-09
-2.2403e-13
-5.36975e-09
4.67509e-12
5.36336e-09
1.51085e-13
4.36079e-13
8.27723e-14
1.47395e-08
-6.03963e-13
-6.84765e-13
-1.30914e-12
-7.61809e-12
-1.13586e-12
-2.02932e-08
-6.68145e-13
1.18303e-11
2.02802e-08
2.55667e-12
-1.27445e-11
7.3555e-13
-3.07166e-12
5.4759e-09
2.08887e-12
-5.47918e-09
5.25509e-13
6.56655e-09
5.11096e-12
3.32068e-13
1.82464e-13
-4.21107e-12
-5.44068e-13
-1.13101e-12
6.44088e-09
7.17445e-12
2.56117e-12
-6.10832e-13
-6.25995e-12
-3.59896e-12
6.10478e-13
5.15704e-12
4.10016e-12
1.47481e-08
-1.47284e-08
-1.31193e-11
-1.58483e-11
-5.36579e-09
4.82261e-12
1.96798e-12
5.35921e-09
-2.08156e-13
-5.3403e-09
4.84237e-12
3.00854e-12
5.33297e-09
-5.2102e-13
-5.359e-09
-1.49528e-12
-1.28268e-13
-5.33273e-09
-3.85012e-12
3.80304e-13
1.34941e-11
1.52293e-11
1.47291e-08
-1.92512e-08
-1.05698e-11
1.86273e-11
-1.33032e-11
1.92326e-08
2.38113e-11
1.88232e-11
2.31548e-08
-3.75183e-11
-2.29937e-11
-1.03852e-11
1.25535e-08
1.74535e-12
-5.61958e-13
-1.86494e-12
1.84531e-11
2.10827e-08
5.12084e-12
1.34443e-11
-2.42387e-11
-1.81281e-12
1.25426e-08
3.19098e-13
2.3132e-08
3.68815e-11
2.30748e-11
-1.82724e-08
-1.19255e-11
2.40425e-11
-1.54272e-11
1.82546e-08
2.11087e-11
2.46451e-11
2.21685e-08
-4.41216e-11
-3.46882e-11
-1.21241e-11
1.22342e-08
3.78179e-12
1.40623e-14
-4.81941e-12
2.47943e-11
2.06385e-08
1.10583e-11
1.57084e-11
-2.18308e-11
-3.2061e-12
1.22206e-08
1.37778e-13
2.21409e-08
4.29575e-11
3.34829e-11
-1.47476e-08
-4.91981e-12
-4.63827e-12
-4.95899e-12
5.3656e-09
-1.04486e-13
-4.35888e-12
5.34007e-09
5.39252e-13
-1.5334e-13
-4.55789e-13
1.04899e-11
1.92517e-08
-1.85631e-11
-2.41267e-11
-1.25539e-08
1.04662e-11
1.2543e-08
3.94301e-13
1.70288e-12
-1.81657e-11
-5.45364e-12
-1.85377e-11
-2.31555e-08
2.31327e-08
3.63982e-11
2.3081e-11
-6.18164e-13
1.92337e-08
2.34035e-11
-3.73868e-11
-2.28486e-11
1.18755e-11
1.82734e-08
-2.49013e-11
-2.15814e-11
-1.22349e-08
1.21384e-11
1.22213e-08
1.07585e-13
6.21797e-12
-2.47992e-11
-1.22471e-11
-2.35429e-11
-2.21699e-08
2.21421e-08
4.31205e-11
3.31764e-11
-5.77955e-14
1.8256e-08
2.12371e-11
-4.38317e-11
-3.4938e-11
-6.56739e-09
-4.6277e-12
-5.76759e-13
-8.51459e-13
4.7631e-12
4.4447e-13
2.95331e-13
-6.44131e-09
-6.11657e-12
-3.89748e-12
6.02715e-13
7.62218e-12
2.26542e-12
-8.40983e-13
-1.4749e-08
-4.61221e-12
-4.86752e-12
1.35864e-11
1.50179e-11
1.47298e-08
-5.28973e-12
5.36602e-09
-1.36678e-12
-1.49886e-13
-3.90049e-12
5.34055e-09
-3.99658e-12
3.12887e-13
-1.29701e-11
-1.60655e-11
2.15751e-12
5.35947e-09
-2.14879e-13
3.00164e-12
5.33323e-09
-5.30627e-13
1.09653e-11
-1.85654e-11
1.92539e-08
-1.92347e-08
1.312e-11
-2.46677e-11
-2.31577e-08
-1.8512e-11
3.61269e-11
2.31351e-08
2.27403e-11
1.61283e-12
-1.86364e-11
-2.10853e-08
-5.57693e-12
-1.25555e-08
1.00352e-11
-2.08376e-12
1.2545e-08
4.6842e-13
-1.25437e-08
1.38951e-12
-5.28534e-13
-2.3134e-08
-3.778e-11
-2.30931e-11
-1.34518e-11
2.29143e-11
1.92359e-08
1.19223e-11
-2.55633e-11
1.8276e-08
-1.82572e-08
1.64578e-11
-2.16141e-11
-2.21728e-08
-2.30324e-11
4.30697e-11
2.21449e-08
3.26915e-11
6.68548e-12
-2.48363e-11
-2.06404e-08
-1.28501e-11
-1.22366e-08
1.20243e-11
-2.84573e-12
1.22232e-08
1.09431e-13
-1.22221e-08
4.11106e-12
-4.2763e-14
-2.21438e-08
-4.38605e-11
-3.55315e-11
-1.47072e-11
2.11729e-11
1.82586e-08
-1.9253e-08
-1.02276e-11
1.88752e-11
2.31945e-11
-1.0634e-11
1.25544e-08
-6.51895e-13
1.84833e-11
2.31563e-08
-3.77394e-11
-2.2885e-11
-2.3009e-12
1.79903e-11
5.31745e-12
-2.43777e-11
3.50796e-13
3.61973e-11
2.30077e-11
-1.82749e-08
-1.21407e-11
2.35442e-11
2.12926e-11
-1.17309e-11
1.22356e-08
-1.36665e-13
2.52009e-11
2.21713e-08
-4.38842e-11
-3.5232e-11
-4.43107e-12
2.50233e-11
1.05244e-11
-2.15417e-11
-2.44455e-15
4.31254e-11
3.29362e-11
5.52191e-12
3.98665e-12
1.47499e-08
-5.36639e-09
4.49844e-12
5.35992e-09
-1.1123e-13
-5.3409e-09
4.82408e-12
5.33364e-09
-3.97204e-13
-2.94737e-15
4.22069e-13
1.47311e-08
-2.73919e-11
-3.34731e-11
2.23775e-08
5.06979e-11
5.03603e-11
-2.57187e-08
-2.52732e-11
2.57082e-08
-2.44634e-08
-3.28172e-11
2.44518e-08
2.23641e-08
-4.51128e-11
-1.54377e-11
2.23693e-08
4.27088e-11
9.42158e-11
-2.55411e-08
-2.88302e-11
2.55213e-08
-2.4611e-08
-2.91885e-11
2.46045e-08
2.23557e-08
-2.23788e-08
2.56121e-11
3.26921e-11
2.23654e-08
2.69605e-11
2.57196e-08
-2.47542e-11
3.37401e-11
2.44649e-08
-4.12038e-11
-4.95086e-11
-4.77167e-11
2.75424e-08
-2.54375e-11
-2.86785e-11
2.57091e-08
2.34306e-11
2.44532e-08
3.96623e-11
-2.66616e-11
-3.43948e-11
2.23829e-08
-2.23681e-08
5.16782e-11
4.96299e-11
-2.75442e-08
2.32614e-11
2.60785e-11
-2.57229e-08
-2.56856e-11
2.37e-11
2.5712e-08
-2.4469e-08
-3.20006e-11
3.92897e-11
2.44569e-08
-2.57112e-08
-2.44722e-11
-2.4456e-08
-4.16741e-11
2.23693e-08
-7.89547e-13
1.29803e-07
5.82821e-11
1.3384e-07
-7.47555e-12
2.5411e-11
1.03545e-10
2.60862e-08
-3.37368e-11
-2.46605e-08
2.46763e-11
2.46412e-08
-1.84271e-11
-1.93311e-11
-2.29295e-08
1.96983e-11
2.29216e-08
7.78523e-12
-4.94316e-11
2.61345e-08
7.53104e-12
3.84281e-11
5.80305e-11
2.56914e-08
2.4256e-11
-2.4267e-08
3.72602e-11
2.42343e-08
-3.62157e-11
-1.67831e-11
-2.24377e-08
5.50641e-11
1.44484e-11
2.24133e-08
-1.49152e-11
-2.50373e-11
2.57418e-08
8.19523e-11
-1.88292e-11
2.59078e-08
1.06026e-11
-1.02906e-10
2.3364e-13
-2.29264e-08
7.93197e-11
2.28949e-08
-2.6909e-08
-1.86608e-11
-7.12464e-12
2.68956e-08
7.13694e-12
2.58377e-08
5.68153e-11
4.21887e-11
2.56565e-08
-3.07216e-11
-2.42672e-08
3.99679e-11
2.42318e-08
-1.71032e-11
-3.59139e-11
-2.24248e-08
5.48694e-11
1.67955e-11
2.23986e-08
-1.81044e-11
2.88485e-11
2.56745e-08
-2.24493e-11
8.11816e-11
2.5901e-08
-1.02862e-10
1.10691e-11
-2.69041e-08
-2.13414e-11
2.68798e-08
-2.29141e-08
7.83471e-11
2.28864e-08
2.58995e-08
2.04141e-11
2.23282e-11
2.61097e-08
5.21469e-11
-2.46409e-08
2.10522e-11
2.46274e-08
-1.93273e-11
-8.15975e-12
-2.29284e-08
1.97858e-11
2.29233e-08
4.61131e-12
-5.56443e-12
2.61927e-08
-5.41322e-11
2.23803e-08
-2.67525e-11
-3.38827e-11
5.12792e-11
4.96197e-11
2.31387e-11
2.6362e-11
-2.55854e-11
-2.57209e-08
2.571e-08
2.35086e-11
-3.24314e-11
-2.44663e-08
2.44544e-08
3.96363e-11
2.2367e-08
-2.46015e-11
-4.12151e-11
-2.23819e-08
2.58726e-11
3.23842e-11
-4.91863e-11
-4.79163e-11
-2.52964e-11
-2.89136e-11
2.67246e-11
2.57219e-08
-2.47902e-11
3.41356e-11
2.44677e-08
-4.16636e-11
2.35459e-11
3.93107e-11
4.49724e-12
7.60244e-12
-2.10228e-13
-5.67172e-12
1.24802e-07
-2.6698e-11
-9.25974e-12
-4.60619e-12
1.14839e-07
4.10508e-11
2.96492e-11
-3.50376e-11
-6.69926e-11
6.76584e-11
-6.64123e-11
7.17276e-11
-1.14841e-07
-3.32301e-11
-8.40187e-12
-6.87117e-12
1.16074e-07
2.7594e-11
3.48019e-11
-2.68954e-11
-1.21405e-11
3.86881e-11
-3.55608e-11
1.61048e-11
1.51742e-11
3.207e-11
5.9081e-11
4.33829e-11
2.74067e-08
-2.75564e-08
6.83644e-12
6.41831e-12
-1.24779e-07
-2.91627e-12
-3.81709e-12
1.24772e-07
-1.14842e-07
-2.65513e-11
-8.94991e-12
-3.46108e-12
1.14841e-07
4.12514e-11
2.96612e-11
-3.86935e-11
-6.72837e-11
6.74126e-11
7.15306e-11
-6.44015e-11
-1.16077e-07
-3.18923e-11
-6.99216e-12
-2.27753e-12
1.16077e-07
2.85403e-11
3.42207e-11
-2.74233e-11
-1.24277e-11
3.84349e-11
1.58066e-11
-3.58286e-11
-2.75583e-08
1.61401e-11
3.25366e-11
5.90005e-11
4.27943e-11
2.74078e-08
5.18993e-12
6.51343e-12
-1.24751e-07
-3.01616e-12
-2.56148e-12
1.24745e-07
-1.14844e-07
-2.70269e-11
-8.43131e-12
-3.13941e-12
1.14845e-07
4.07846e-11
2.89173e-11
-3.55754e-11
-6.78584e-11
6.7276e-11
7.10134e-11
-6.69837e-11
-1.16075e-07
-3.18899e-11
-4.70473e-12
-1.47369e-12
1.16074e-07
2.86558e-11
3.41512e-11
-2.74639e-11
-1.29979e-11
3.8043e-11
1.54164e-11
-3.64286e-11
-2.7559e-08
1.59606e-11
3.23902e-11
5.90659e-11
4.29067e-11
2.74086e-08
3.48495e-12
6.29465e-12
-1.2473e-07
-4.25427e-12
-2.83155e-12
1.24727e-07
-1.14854e-07
-2.71208e-11
-6.59427e-12
-2.45109e-12
1.14856e-07
4.05578e-11
2.88097e-11
-3.94929e-11
-6.81333e-11
6.68445e-11
7.08832e-11
-6.51109e-11
-1.16072e-07
-3.20238e-11
-2.87797e-12
-2.29823e-12
1.16073e-07
2.84642e-11
3.39587e-11
-2.76424e-11
-1.35177e-11
3.75149e-11
1.48651e-11
-3.68373e-11
-2.75613e-08
1.60728e-11
3.25917e-11
5.88185e-11
4.26132e-11
2.74112e-08
2.85172e-12
4.94769e-12
-1.24717e-07
-3.23132e-12
-2.00705e-12
1.24715e-07
-1.14858e-07
-2.71854e-11
-4.11326e-12
-1.5235e-12
1.14858e-07
4.03954e-11
2.85984e-11
-3.59989e-11
-6.86693e-11
6.6365e-11
7.04107e-11
-6.80185e-11
-1.16078e-07
-3.24485e-11
-3.8574e-12
-2.02082e-12
1.16081e-07
2.80078e-11
3.34829e-11
-2.81381e-11
-1.34277e-11
3.76365e-11
1.4892e-11
-3.67523e-11
-2.75647e-08
1.61007e-11
3.33843e-11
5.80662e-11
4.25375e-11
2.74146e-08
1.98676e-12
3.4312e-12
-1.24709e-07
-2.46356e-12
-1.91788e-12
1.24708e-07
-1.14865e-07
-2.72723e-11
-2.96191e-12
-1.01197e-12
1.14866e-07
4.02875e-11
2.87095e-11
-3.97993e-11
-6.90777e-11
6.5956e-11
6.99238e-11
-6.5973e-11
-1.16093e-07
-3.27221e-11
-3.69409e-12
-7.44909e-13
1.16096e-07
2.78473e-11
3.31549e-11
-2.83148e-11
-1.37818e-11
3.71523e-11
1.4641e-11
-3.72098e-11
-2.75682e-08
1.64515e-11
3.36539e-11
5.79113e-11
4.21941e-11
2.74179e-08
1.07498e-13
1.67698e-12
-1.24707e-07
-1.18572e-12
-1.08705e-12
1.24707e-07
-1.14872e-07
-2.74661e-11
-3.2551e-12
-4.66485e-13
1.14873e-07
4.01481e-11
2.83872e-11
-3.61692e-11
-6.92933e-11
6.60179e-11
6.97465e-11
-6.83238e-11
-1.16106e-07
-3.28036e-11
-2.30892e-12
-1.08609e-13
1.16108e-07
2.78405e-11
3.30233e-11
-2.83554e-11
-1.36596e-11
3.72473e-11
1.46469e-11
-3.71555e-11
-2.75708e-08
1.65288e-11
3.34487e-11
5.79889e-11
4.228e-11
2.74206e-08
3.9926e-13
1.85462e-13
-1.24707e-07
-1.59317e-13
-9.28764e-13
1.24707e-07
-1.1488e-07
-2.72519e-11
-1.45794e-12
-1.20402e-12
1.14881e-07
4.04666e-11
2.86831e-11
-3.94991e-11
-6.9486e-11
6.56653e-11
6.95796e-11
-6.63313e-11
-1.16111e-07
-3.25961e-11
9.7855e-14
2.11887e-13
1.16112e-07
2.78064e-11
3.32291e-11
-2.83303e-11
-1.42444e-11
3.68292e-11
1.42745e-11
-3.76617e-11
-2.75722e-08
1.68203e-11
3.34191e-11
5.81339e-11
4.21196e-11
2.74217e-08
1.87449e-12
2.93066e-13
-1.24709e-07
-1.36708e-12
-2.81867e-12
1.24711e-07
-1.14882e-07
-2.72817e-11
5.5967e-14
-1.27384e-12
1.14881e-07
4.04197e-11
2.86092e-11
-3.59159e-11
-6.95313e-11
6.5518e-11
6.94009e-11
-6.87461e-11
-1.16111e-07
-3.23814e-11
2.7081e-12
-4.56226e-13
1.16111e-07
2.80509e-11
3.3464e-11
-2.80556e-11
-1.47135e-11
3.62142e-11
1.36325e-11
-3.81201e-11
-2.75723e-08
1.7017e-11
3.33959e-11
5.8218e-11
4.19704e-11
2.74217e-08
2.41293e-13
8.75969e-13
-1.24717e-07
-2.06112e-12
-1.86942e-12
1.24719e-07
-1.14887e-07
-2.76101e-11
-4.81941e-13
-1.96938e-12
1.14888e-07
4.02617e-11
2.84813e-11
-3.97049e-11
-6.94294e-11
6.56821e-11
6.96044e-11
-6.61854e-11
-1.16111e-07
-3.27359e-11
3.05276e-12
-9.67919e-13
1.16112e-07
2.77001e-11
3.31639e-11
-2.83309e-11
-1.48637e-11
3.62053e-11
1.35045e-11
-3.8115e-11
-2.75723e-08
1.69432e-11
3.35005e-11
5.82098e-11
4.18991e-11
2.74218e-08
-5.92249e-13
6.09932e-13
-1.24724e-07
-1.32447e-12
-6.90058e-13
1.24726e-07
-1.14893e-07
-2.74477e-11
-8.76809e-13
-1.55781e-12
1.14894e-07
4.03342e-11
2.8612e-11
-3.58175e-11
-6.96333e-11
6.54698e-11
6.93034e-11
-6.86574e-11
-1.16119e-07
-3.28275e-11
1.03448e-12
-1.72373e-12
1.16121e-07
2.78625e-11
3.31856e-11
-2.82547e-11
-1.4269e-11
3.67682e-11
1.40746e-11
-3.75226e-11
-2.75722e-08
1.69343e-11
3.3765e-11
5.77954e-11
4.21266e-11
2.74216e-08
-1.01722e-12
3.43161e-13
-1.24728e-07
-7.34828e-13
-2.09382e-13
1.2473e-07
-1.14902e-07
-2.72688e-11
-1.13062e-12
-2.05379e-12
1.14903e-07
4.07601e-11
2.88841e-11
-3.97142e-11
-6.93884e-11
6.55882e-11
6.95487e-11
-6.62068e-11
-1.16124e-07
-3.30795e-11
4.64528e-13
-1.52721e-13
1.16125e-07
2.76441e-11
3.28175e-11
-2.84171e-11
-1.39144e-11
3.69181e-11
1.45104e-11
-3.73623e-11
-2.75724e-08
1.66875e-11
3.38593e-11
5.76985e-11
4.22581e-11
2.74219e-08
-5.17888e-14
2.08304e-13
-1.24735e-07
-8.35765e-13
-4.69392e-13
1.24736e-07
-1.14907e-07
-2.75329e-11
-1.06634e-12
-1.96101e-12
1.14907e-07
4.05177e-11
2.84151e-11
-3.62042e-11
-6.90667e-11
6.57363e-11
6.97183e-11
-6.8342e-11
-1.16127e-07
-3.31946e-11
1.29832e-12
7.2558e-13
1.16128e-07
2.72774e-11
3.27513e-11
-2.87709e-11
-1.41393e-11
3.6957e-11
1.42861e-11
-3.7491e-11
-2.75726e-08
1.66536e-11
3.3523e-11
5.81185e-11
4.21813e-11
2.74221e-08
-1.12559e-12
5.69615e-13
-1.24735e-07
-1.01539e-14
9.77968e-13
1.24735e-07
-1.1491e-07
-2.73777e-11
-1.81082e-12
-1.77486e-12
1.1491e-07
4.0567e-11
2.85685e-11
-3.99571e-11
-6.86687e-11
6.63077e-11
7.02574e-11
-6.54355e-11
-1.16126e-07
-3.27263e-11
1.54002e-12
6.06687e-13
1.16125e-07
2.78193e-11
3.3135e-11
-2.82613e-11
-1.42826e-11
3.65876e-11
1.41033e-11
-3.766e-11
-2.75725e-08
1.69298e-11
3.36566e-11
5.79476e-11
4.19591e-11
2.7422e-08
-1.51416e-12
2.03725e-12
-1.24735e-07
-5.48338e-13
1.13013e-12
1.24734e-07
-1.14907e-07
-2.78402e-11
-9.62254e-13
9.07964e-13
1.14904e-07
4.01815e-11
2.80261e-11
-3.67722e-11
-6.89248e-11
6.61938e-11
7.00667e-11
-6.80069e-11
-1.16126e-07
-3.29887e-11
1.49444e-13
5.25346e-13
1.16127e-07
2.75308e-11
3.30081e-11
-2.85932e-11
-1.40212e-11
3.689e-11
1.43135e-11
-3.74061e-11
-2.75741e-08
1.70279e-11
3.3948e-11
5.75301e-11
4.19464e-11
2.74236e-08
-1.8443e-12
1.59414e-12
-1.2473e-07
-9.43084e-13
2.38617e-12
1.24729e-07
-1.14899e-07
-2.79316e-11
-1.3804e-12
2.05613e-12
1.14896e-07
3.99867e-11
2.80412e-11
-4.05431e-11
-6.87045e-11
6.63526e-11
7.02999e-11
-6.55725e-11
-1.1613e-07
-3.28328e-11
-1.56911e-12
-2.93954e-13
1.16132e-07
2.75694e-11
3.31676e-11
-2.84842e-11
-1.36241e-11
3.72841e-11
1.46206e-11
-3.69675e-11
-2.75757e-08
1.61562e-11
3.34447e-11
5.82018e-11
4.26669e-11
2.74252e-08
-1.61147e-12
6.68111e-13
-1.24725e-07
-2.75738e-13
2.16706e-12
1.24724e-07
-1.14893e-07
-2.77459e-11
-1.38662e-12
7.02279e-13
1.14891e-07
4.02652e-11
2.81755e-11
-3.65817e-11
-6.91153e-11
6.59617e-11
6.98935e-11
-6.82824e-11
-1.16134e-07
-3.26712e-11
-1.12511e-12
-5.48151e-13
1.16133e-07
2.80242e-11
3.31481e-11
-2.43634e-11
-1.37297e-11
3.73179e-11
1.46768e-11
-3.95629e-11
-2.7575e-08
1.64397e-11
3.34426e-11
5.83668e-11
4.24609e-11
2.74243e-08
-2.11401e-12
1.17155e-07
1.14558e-11
3.63107e-11
-9.2437e-12
-3.53411e-11
-2.33571e-11
-6.13545e-12
-2.64584e-12
1.17185e-07
2.46035e-11
2.57945e-11
-2.76453e-11
1.14486e-11
3.60399e-11
-3.23402e-11
-9.23533e-12
-1.17182e-07
1.17159e-07
-6.65058e-12
-1.17158e-07
-1.41382e-12
-8.74451e-12
-3.49562e-11
1.14447e-11
3.66274e-11
2.55151e-11
1.17187e-07
-6.63194e-12
-1.17188e-07
-1.50542e-12
-2.34022e-11
-2.34702e-11
2.85207e-11
-9.0381e-12
-3.46138e-11
3.37097e-11
1.16915e-11
5.04384e-11
5.06281e-11
2.73903e-08
-2.75414e-08
-2.94661e-11
2.75448e-08
-2.73931e-08
-4.84315e-11
-4.82816e-11
-2.73661e-12
1.14858e-07
-6.74137e-11
6.70507e-11
7.12939e-11
-6.42028e-11
-1.49825e-11
-6.57492e-12
-4.19696e-12
1.15904e-07
3.84828e-11
1.85884e-11
-3.6163e-11
-4.78814e-11
6.58662e-11
-6.34237e-11
5.11785e-11
1.14859e-07
-6.54152e-12
-1.14859e-07
-3.60553e-12
7.08826e-11
-6.45923e-11
-6.78808e-11
6.6709e-11
1.8305e-11
1.15904e-07
-5.87712e-12
-1.15904e-07
-2.36417e-12
-1.57651e-11
-3.66367e-11
3.80347e-11
5.08684e-11
-6.38697e-11
6.56993e-11
-4.8224e-11
-7.18151e-12
-3.75225e-12
1.15932e-07
3.83591e-11
1.92519e-11
-3.56564e-11
-4.79814e-11
6.69136e-11
-6.39766e-11
5.15164e-11
-1.15934e-07
-8.20153e-12
-1.14841e-07
-3.63112e-12
-2.67862e-11
-3.88213e-11
3.73586e-11
7.15144e-11
-6.443e-11
-6.72435e-11
6.97562e-11
1.82294e-11
1.15928e-07
-5.95878e-12
-1.15928e-07
-2.3616e-12
-1.60419e-11
-3.64941e-11
3.75696e-11
5.13682e-11
-6.4127e-11
6.62879e-11
-4.82529e-11
5.83494e-11
4.44139e-11
2.73933e-08
-3.41346e-11
2.75437e-08
-2.73943e-08
-5.5863e-11
-4.1118e-11
-9.41841e-12
-2.40895e-12
1.16151e-07
2.88871e-11
3.49958e-11
-2.67195e-11
-1.17665e-11
3.83043e-11
-3.50657e-11
1.58762e-11
-1.16152e-07
-6.8317e-12
-1.16077e-07
-1.74196e-12
-3.20439e-11
-2.76551e-11
2.83032e-11
1.57861e-11
-3.59405e-11
-1.25355e-11
3.83225e-11
3.49749e-11
1.16151e-07
-6.26946e-12
-1.16151e-07
-3.12808e-12
-3.25554e-11
-2.70957e-11
2.86115e-11
1.53934e-11
-3.55317e-11
3.76895e-11
-1.22275e-11
-2.74079e-08
-5.65845e-11
-4.06603e-11
2.31418e-11
2.59288e-11
5.18357e-11
4.97491e-11
2.73938e-08
-2.49583e-11
-2.84534e-11
2.7545e-08
-2.73941e-08
-4.94706e-11
-4.79648e-11
-2.01325e-12
1.17159e-07
2.47023e-11
2.51425e-11
-2.35132e-11
1.14628e-11
3.68509e-11
-8.64334e-12
-3.48643e-11
-2.3295e-11
-7.6751e-12
-2.23096e-12
1.17188e-07
2.47613e-11
2.57397e-11
-2.32117e-11
1.17367e-11
3.64767e-11
-8.94448e-12
-3.43572e-11
1.17163e-07
-6.0631e-12
-1.17162e-07
-1.473e-12
-2.32844e-11
-2.38623e-11
2.45691e-11
-8.85743e-12
-3.51225e-11
3.67528e-11
1.11685e-11
2.57485e-11
1.17192e-07
-7.20354e-12
-1.17191e-07
-2.65694e-12
-2.30245e-11
-2.33017e-11
2.49076e-11
-9.07751e-12
-3.46137e-11
3.64344e-11
1.14811e-11
5.07335e-11
5.05548e-11
2.73936e-08
-2.90292e-11
2.75466e-08
-2.7395e-08
-4.8653e-11
-4.81398e-11
-4.09934e-12
1.14859e-07
4.19326e-11
2.88769e-11
-3.91261e-11
-6.78345e-11
6.67855e-11
7.08653e-11
-6.45691e-11
-1.57603e-11
-6.42749e-12
-2.19965e-12
1.15904e-07
3.81005e-11
1.82792e-11
-3.65354e-11
-4.81575e-11
6.58654e-11
5.09053e-11
-6.36987e-11
1.14862e-07
-7.04254e-12
-1.1486e-07
-3.30727e-12
-2.62595e-11
-3.96923e-11
4.15344e-11
7.08679e-11
-6.47271e-11
6.67075e-11
-6.80752e-11
1.78313e-11
1.15902e-07
-5.98404e-12
-1.15903e-07
-9.09686e-13
-1.60572e-11
-3.66873e-11
3.80549e-11
5.09449e-11
-6.38666e-11
6.58411e-11
-4.82965e-11
-7.64198e-12
-2.7558e-12
1.15929e-07
3.75961e-11
1.82478e-11
-3.63552e-11
-4.81361e-11
6.65195e-11
-6.38925e-11
5.14624e-11
-8.42935e-12
-1.14842e-07
-2.75837e-12
-2.68429e-11
-3.92208e-11
4.08436e-11
7.11417e-11
-6.45205e-11
-6.7819e-11
6.73884e-11
1.81687e-11
1.15934e-07
-7.68883e-12
-1.15933e-07
-2.10536e-12
-1.6025e-11
-3.65377e-11
3.76511e-11
5.14445e-11
-6.40165e-11
6.6501e-11
-4.82547e-11
5.81178e-11
4.36103e-11
2.73943e-08
-3.3989e-11
2.75434e-08
-2.73941e-08
-5.5975e-11
-4.15286e-11
-6.89394e-12
-4.04563e-12
1.16152e-07
2.86668e-11
3.50558e-11
-2.69289e-11
-1.22171e-11
3.78826e-11
-3.54039e-11
1.54228e-11
-5.06531e-12
-1.16076e-07
-1.4047e-12
-3.19779e-11
-2.76119e-11
2.85304e-11
1.56524e-11
-3.629e-11
-1.28207e-11
3.81595e-11
3.50018e-11
1.16154e-07
-5.9422e-12
-1.16154e-07
-3.27934e-12
-3.2375e-11
-2.71065e-11
2.86286e-11
1.52568e-11
-3.56284e-11
3.77838e-11
-1.25038e-11
-2.74084e-08
-5.66346e-11
-4.07339e-11
2.3151e-11
2.63417e-11
5.13836e-11
4.9754e-11
2.73943e-08
-2.49198e-11
-2.78984e-11
2.75466e-08
-2.73956e-08
-5.00672e-11
-4.81226e-11
-1.74036e-12
1.17165e-07
2.4485e-11
2.49414e-11
-2.38646e-11
1.08808e-11
3.65209e-11
-9.03185e-12
-3.53628e-11
-2.30588e-11
-7.26401e-12
-3.2065e-12
1.17196e-07
2.49191e-11
2.56915e-11
-2.73556e-11
1.13793e-11
3.63816e-11
-9.14077e-12
-3.2147e-11
1.17169e-07
-4.12737e-12
-1.17168e-07
-1.20595e-12
-2.32337e-11
-2.40151e-11
2.43491e-11
-9.42975e-12
-3.55172e-11
3.62656e-11
1.05432e-11
2.52787e-11
1.17201e-07
-4.92943e-12
-1.17201e-07
-1.62862e-12
-2.32867e-11
-2.37205e-11
2.85586e-11
-9.64246e-12
-3.52716e-11
3.32133e-11
1.10076e-11
5.0434e-11
5.07236e-11
2.73953e-08
-2.8628e-11
2.75484e-08
-2.73969e-08
-4.89998e-11
-4.86559e-11
-3.03317e-12
1.14864e-07
4.13431e-11
2.82696e-11
-3.9921e-11
-6.81514e-11
6.65407e-11
7.06025e-11
-6.49134e-11
-1.60416e-11
-6.06301e-12
-1.08146e-12
1.15901e-07
3.80866e-11
1.79264e-11
-3.67204e-11
-4.83043e-11
6.57509e-11
5.08313e-11
-6.39919e-11
1.14871e-07
-6.55021e-12
-1.14869e-07
-8.35548e-13
-2.68109e-11
-4.02497e-11
4.08383e-11
7.06669e-11
-6.50284e-11
6.64252e-11
-6.81676e-11
1.78576e-11
1.15906e-07
-6.49226e-12
-1.15904e-07
-1.39554e-12
-1.60742e-11
-3.68518e-11
3.79054e-11
5.07404e-11
-6.42415e-11
6.54453e-11
-4.84356e-11
-7.6962e-12
-2.1465e-12
1.15935e-07
3.76706e-11
1.82888e-11
-3.63661e-11
-4.83883e-11
6.646e-11
-6.41129e-11
5.13791e-11
-6.72007e-12
-1.1485e-07
-2.36722e-12
-2.73286e-11
-3.96089e-11
3.67925e-11
7.08994e-11
-6.51121e-11
-6.80449e-11
6.92214e-11
1.80215e-11
1.15938e-07
-6.47903e-12
-1.15937e-07
-1.6313e-12
-1.59816e-11
-3.64708e-11
3.76556e-11
5.10568e-11
-6.4284e-11
6.62268e-11
-4.87117e-11
5.81052e-11
4.33297e-11
2.7394e-08
-3.38627e-11
2.75447e-08
-2.7395e-08
-5.62917e-11
-4.16979e-11
-6.2176e-12
-3.04456e-12
1.16154e-07
2.86875e-11
3.50431e-11
-2.70561e-11
-1.25395e-11
3.77442e-11
-3.56417e-11
1.51737e-11
-2.68894e-12
-1.16073e-07
-1.50592e-12
-3.21335e-11
-2.77466e-11
2.84664e-11
1.49931e-11
-3.68992e-11
-1.34852e-11
3.75213e-11
3.46994e-11
1.16155e-07
-4.86075e-12
-1.16155e-07
-1.83985e-12
-3.25216e-11
-2.736e-11
2.84099e-11
1.50584e-11
-3.59448e-11
3.74965e-11
-1.27536e-11
-2.74106e-08
-5.69727e-11
-4.10047e-11
2.31752e-11
2.66783e-11
5.10245e-11
4.96151e-11
2.73962e-08
-2.45744e-11
-2.80741e-11
2.75489e-08
-2.7398e-08
-4.99252e-11
-4.84152e-11
-1.36104e-12
1.17171e-07
2.43174e-11
2.49252e-11
-2.40335e-11
1.04899e-11
3.61147e-11
-9.53798e-12
-3.56732e-11
-2.34791e-11
-4.75255e-12
-1.5761e-12
1.17203e-07
2.43633e-11
2.51944e-11
-2.38472e-11
1.09722e-11
3.57171e-11
-9.56865e-12
-3.51023e-11
1.17178e-07
-2.9017e-12
-1.17175e-07
-1.29322e-12
-2.35134e-11
-2.41349e-11
2.41187e-11
-9.64568e-12
-3.59454e-11
3.58187e-11
1.03412e-11
2.46645e-11
1.17208e-07
-3.08926e-12
-1.17207e-07
1.08664e-13
-2.3967e-11
-2.42256e-11
2.40414e-11
-9.75096e-12
-3.54022e-11
3.56639e-11
1.08086e-11
5.04003e-11
5.02723e-11
2.73971e-08
-2.85487e-11
2.75497e-08
-2.73981e-08
-4.91252e-11
-4.92437e-11
-1.37368e-12
1.14873e-07
4.09425e-11
2.80055e-11
-4.01813e-11
-6.82888e-11
6.63601e-11
7.0557e-11
-6.50835e-11
-1.59448e-11
-7.06122e-12
-2.11942e-12
1.15908e-07
3.79699e-11
1.80074e-11
-3.68017e-11
-4.85026e-11
6.54662e-11
5.06487e-11
-6.41915e-11
1.1488e-07
-5.68309e-12
-1.14878e-07
-2.04487e-12
-2.65509e-11
-4.00535e-11
4.10678e-11
7.02825e-11
-6.51315e-11
6.62243e-11
-6.84894e-11
1.79169e-11
1.15917e-07
-6.28916e-12
-1.15914e-07
-2.71535e-12
-1.58791e-11
-3.66797e-11
3.81149e-11
5.04741e-11
-6.42901e-11
6.53881e-11
-4.86752e-11
-6.26338e-12
-1.92629e-12
1.15939e-07
3.77126e-11
1.81529e-11
-3.63169e-11
-4.88355e-11
6.61951e-11
-6.4428e-11
5.0974e-11
-4.47731e-12
-1.14858e-07
-1.11171e-12
-2.7214e-11
-3.97235e-11
4.0387e-11
7.05163e-11
-6.54395e-11
-6.85318e-11
6.66208e-11
1.79725e-11
1.15947e-07
-5.46045e-12
-1.15944e-07
-2.77238e-12
-1.60702e-11
-3.65569e-11
3.75999e-11
5.05138e-11
-6.49149e-11
6.56574e-11
-4.91892e-11
5.78314e-11
4.32387e-11
2.73957e-08
-3.35035e-11
2.75473e-08
-2.73977e-08
-5.65643e-11
-4.1654e-11
-5.00075e-12
-2.19211e-12
1.16155e-07
2.84178e-11
3.48264e-11
-2.72982e-11
-1.28021e-11
3.74601e-11
-3.60041e-11
1.49832e-11
-3.28089e-12
-1.16076e-07
-2.16035e-12
-3.23308e-11
-2.81704e-11
2.80479e-11
1.50117e-11
-3.67675e-11
-1.35023e-11
3.76099e-11
3.41256e-11
1.16161e-07
-3.93329e-12
-1.16158e-07
-1.67638e-12
-3.3055e-11
-2.80001e-11
2.78754e-11
1.46771e-11
-3.63525e-11
3.69799e-11
-1.30525e-11
-2.74139e-08
-5.76123e-11
-4.11271e-11
2.35173e-11
2.66032e-11
5.10631e-11
4.93095e-11
2.73984e-08
-2.4335e-11
-2.78896e-11
2.75506e-08
-2.73998e-08
-5.00714e-11
-4.85725e-11
-2.14191e-12
1.17181e-07
2.41035e-11
2.47108e-11
-2.40728e-11
1.0333e-11
3.58038e-11
-9.72533e-12
-3.58865e-11
-2.39088e-11
-2.88437e-12
-2.3108e-13
1.17211e-07
2.3984e-11
2.46933e-11
-2.83039e-11
1.07817e-11
3.55443e-11
-9.79431e-12
-3.29548e-11
1.17191e-07
-2.49816e-12
-1.17188e-07
-8.61671e-13
-2.38148e-11
-2.45659e-11
2.37156e-11
-9.66585e-12
-3.58688e-11
3.58698e-11
1.03762e-11
2.4699e-11
1.17216e-07
-1.67454e-12
-1.17215e-07
-3.47622e-13
-2.38875e-11
-2.42625e-11
2.78172e-11
-1.03091e-11
-3.5715e-11
3.2733e-11
1.03838e-11
5.02788e-11
4.98353e-11
2.73984e-08
-2.83779e-11
2.75514e-08
-2.73997e-08
-4.93539e-11
-4.92424e-11
-2.84014e-12
1.14883e-07
4.09852e-11
2.81506e-11
-4.00315e-11
-6.85887e-11
6.61481e-11
7.02497e-11
-6.52558e-11
-1.58455e-11
-6.02197e-12
-3.25288e-12
1.1592e-07
3.81386e-11
1.80468e-11
-3.66244e-11
-4.88775e-11
6.54148e-11
5.0329e-11
-6.42977e-11
1.14892e-07
-4.36156e-12
-1.14889e-07
-2.2581e-12
-2.68216e-11
-4.04474e-11
4.073e-11
7.01756e-11
-6.53551e-11
6.60136e-11
-6.86043e-11
1.78856e-11
1.15931e-07
-3.95484e-12
-1.15928e-07