/*--------------------------------*- C++ -*----------------------------------*\
| =========                 |                                                 |
| \\      /  F ield         | OpenFOAM: The Open Source CFD Toolbox           |
|  \\    /   O peration     | Version:  2206                                  |
|   \\  /    A nd           | Website:  www.openfoam.com                      |
|    \\/     M anipulation  |                                                 |
\*---------------------------------------------------------------------------*/
FoamFile
{
    version     2.0;
    format      ascii;
    arch        "LSB;label=32;scalar=64";
    class       volVectorField;
    location    "130";
    object      U;
}
// * * * * * * * * * * * * * * * * * * * * * * * * * * * * * * * * * * * * * //

dimensions      [0 1 -1 0 0 0 0];

internalField   nonuniform List<vector> 
66928
(
(-0.00012768 -0.000126324 0.129158)
(-6.18845e-06 -7.79714e-06 0.135227)
(-1.18602e-05 -3.52284e-06 0.134842)
(-1.00607e-05 5.94668e-06 0.134824)
(-0.000128548 0.000129667 0.129134)
(-4.33116e-06 1.18349e-05 0.135212)
(0.000115891 0.000115778 0.129324)
(-0.00012548 -0.000126794 0.129174)
(-7.62066e-06 -5.4801e-06 0.144671)
(-7.85623e-06 8.15775e-06 0.144666)
(-7.66446e-06 1.15051e-06 0.059321)
(7.44085e-07 -3.83887e-07 0.0591504)
(-1.69239e-05 2.35635e-06 0.082463)
(6.37244e-07 -5.55782e-06 0.0820611)
(-5.02659e-06 -1.49534e-05 0.0694989)
(-2.11033e-05 -1.75026e-05 0.0977118)
(-1.01716e-05 1.23106e-06 0.0691172)
(-1.54668e-05 2.03875e-06 0.0942879)
(-1.66139e-05 -9.42643e-06 0.0970578)
(-1.36047e-05 -1.52019e-06 0.139999)
(-2.93674e-05 1.99321e-06 0.114017)
(-8.53806e-06 -4.13707e-07 0.0691727)
(-1.60292e-05 -7.76524e-07 0.094293)
(-1.40308e-05 3.94046e-06 0.140001)
(-1.45725e-05 1.00708e-05 0.0970693)
(-3.02887e-05 2.80516e-07 0.114008)
(1.58715e-06 1.90238e-06 0.0592015)
(1.96241e-06 6.93918e-06 0.0821135)
(-1.58029e-05 -2.71221e-07 0.0825072)
(-7.8111e-06 1.5247e-06 0.0593732)
(-1.98843e-05 1.93432e-05 0.097722)
(-6.57301e-06 1.59681e-05 0.06955)
(5.72866e-06 3.46358e-06 0.0594293)
(-7.11546e-06 -9.5228e-07 0.0593249)
(-1.39477e-08 -2.87292e-06 0.0593736)
(1.31034e-06 -2.60619e-06 0.0591528)
(1.29707e-05 9.83392e-07 0.0827207)
(-8.60035e-07 3.38095e-06 0.0824754)
(-0.000126226 -0.00012615 0.129167)
(-1.44875e-05 7.59189e-07 0.0824713)
(2.10095e-06 -8.38166e-06 0.0820666)
(-7.19835e-06 -1.26148e-06 0.0593349)
(6.64793e-06 2.39529e-06 0.0594356)
(1.85607e-06 -3.33726e-06 0.0591591)
(1.89471e-06 -4.05748e-06 0.059377)
(0.000116216 0.000114536 0.129331)
(-1.50303e-05 -4.79176e-07 0.0824844)
(1.81122e-06 -9.68034e-06 0.082077)
(1.50188e-05 -5.61886e-07 0.0827282)
(8.62106e-07 1.3564e-06 0.0824799)
(6.35904e-06 5.59188e-06 0.0594277)
(7.04929e-06 2.92864e-05 0.0943227)
(-1.5742e-05 -3.20371e-05 0.106638)
(1.0394e-05 1.72994e-06 0.0827168)
(-7.49431e-06 1.23095e-06 0.0686457)
(6.91192e-06 1.7962e-06 0.0688422)
(1.15917e-05 3.35004e-05 0.107046)
(-1.05866e-05 -2.71253e-05 0.093902)
(3.0441e-05 1.30737e-06 0.0941153)
(-3.76945e-05 -5.8866e-06 0.106186)
(-1.21581e-06 5.38454e-06 0.0824729)
(-2.44512e-06 -2.77104e-08 0.0683839)
(1.2567e-06 -1.02114e-06 0.0686611)
(3.35032e-05 5.41787e-06 0.106747)
(-3.36413e-05 8.19447e-07 0.0936289)
(4.38376e-06 1.24385e-06 0.0750767)
(-6.995e-06 5.05831e-06 0.0579473)
(1.14515e-06 6.51478e-08 0.0579026)
(6.5898e-06 -2.52577e-06 0.0581148)
(-2.17824e-06 -1.20912e-07 0.0581005)
(-6.43024e-06 1.07079e-06 0.0747335)
(6.55541e-06 1.45325e-05 0.0696131)
(-7.66214e-06 -2.13545e-05 0.0809098)
(3.48633e-07 1.69886e-05 0.0810342)
(-1.61504e-06 -5.40878e-06 0.0576529)
(-1.21663e-05 3.77587e-06 0.0802656)
(4.73543e-07 3.08354e-06 0.057426)
(-1.57131e-05 5.19919e-06 0.0908821)
(5.93646e-06 3.13859e-07 0.0657814)
(4.05309e-06 3.02911e-06 0.0635348)
(-1.03623e-05 -2.40549e-06 0.0803053)
(1.44883e-06 -1.48781e-06 0.0574678)
(5.60118e-06 -1.04392e-06 0.0657961)
(-1.54595e-05 -2.89668e-06 0.0909042)
(4.44518e-06 -1.89975e-06 0.0635771)
(3.17049e-05 6.47067e-07 0.0941334)
(-3.67536e-05 7.85256e-06 0.106222)
(1.46541e-06 -2.88823e-06 0.082526)
(-8.79152e-07 1.51656e-06 0.068429)
(3.47701e-05 -4.03171e-06 0.106782)
(3.03512e-06 3.30647e-06 0.0687063)
(-3.19112e-05 1.31061e-06 0.0936489)
(8.7682e-06 -2.75464e-05 0.0943588)
(-1.51381e-05 3.51029e-05 0.1066)
(1.35389e-05 6.84813e-07 0.08276)
(-8.40192e-06 6.92882e-07 0.0687045)
(6.45229e-06 -2.63329e-07 0.0688979)
(1.33075e-05 -3.08715e-05 0.107004)
(-9.28471e-06 2.95582e-05 0.0939411)
(6.57667e-06 1.32344e-06 0.0751243)
(1.59685e-06 1.39185e-06 0.0579469)
(-6.62039e-06 -4.10049e-06 0.0579959)
(3.73229e-08 1.65529e-06 0.0581423)
(6.44462e-06 5.14676e-06 0.0581626)
(-5.47718e-06 3.13767e-07 0.0747838)
(5.74695e-06 -2.10375e-06 0.0594809)
(4.32912e-06 -1.61504e-05 0.0696639)
(-4.51004e-06 2.10692e-05 0.0809669)
(3.05294e-06 -1.99982e-05 0.0811128)
(-1.16829e-06 6.99939e-06 0.0577031)
(-7.41858e-06 5.41729e-07 0.0593223)
(6.13323e-06 2.93444e-06 0.0594317)
(1.46772e-06 -1.48699e-06 0.0591516)
(1.17416e-06 -3.34297e-06 0.0593748)
(6.61692e-06 -1.70052e-06 0.0750824)
(-4.99371e-06 4.31022e-06 0.0579517)
(3.22204e-06 -1.69773e-06 0.0579083)
(7.33798e-06 -5.15106e-06 0.0581203)
(2.01028e-07 -1.66248e-06 0.0581049)
(-3.89042e-06 -3.73097e-07 0.0747403)
(-9.17615e-06 -2.76526e-05 0.0939065)
(1.43173e-05 3.30162e-05 0.107048)
(7.17817e-06 7.36979e-07 0.0688447)
(-1.49332e-05 2.205e-06 0.0824672)
(8.42335e-06 2.78385e-05 0.094325)
(-6.56933e-06 8.4268e-07 0.0686483)
(-1.44634e-05 -3.26017e-05 0.106642)
(-3.22049e-05 -4.37158e-07 0.0936342)
(3.46148e-05 4.24935e-06 0.106754)
(1.6601e-06 -2.75111e-06 0.0686642)
(1.81564e-06 -6.73343e-06 0.0820641)
(3.09434e-05 -6.08293e-07 0.0941183)
(-1.0238e-06 -9.07938e-07 0.0683876)
(-3.65225e-05 -7.00001e-06 0.106194)
(-4.92555e-06 2.36102e-07 0.0747379)
(6.25497e-06 -4.36007e-06 0.058118)
(-8.36272e-07 -1.24828e-06 0.0581028)
(5.28787e-06 -8.5793e-07 0.0750796)
(-5.87123e-06 4.6676e-06 0.0579499)
(2.38378e-06 -8.7124e-07 0.0579058)
(9.75632e-06 2.71683e-05 0.0943279)
(-6.33667e-06 4.3389e-07 0.0686503)
(1.45985e-05 6.26035e-07 0.0827257)
(-1.47089e-05 -3.37317e-05 0.106646)
(8.38078e-06 2.65775e-07 0.0688468)
(-8.90683e-06 -2.83908e-05 0.0939105)
(1.51975e-05 3.24079e-05 0.107053)
(3.2122e-05 -1.42381e-06 0.0941223)
(1.48303e-07 -2.122e-06 0.0683913)
(5.73521e-07 2.55802e-06 0.0824787)
(-3.58073e-05 -8.93047e-06 0.1062)
(2.78184e-06 -3.18499e-06 0.0686678)
(-3.13694e-05 -2.05548e-06 0.0936397)
(3.58393e-05 3.25832e-06 0.106762)
(6.46048e-06 1.70155e-06 0.0594398)
(-6.43543e-06 -2.34342e-07 0.0593293)
(1.65602e-06 -4.63503e-06 0.0593795)
(2.91564e-06 -2.86121e-06 0.059155)
(-3.50457e-06 -1.25884e-06 0.0747442)
(8.21823e-06 -5.65207e-06 0.0581229)
(1.02865e-06 -2.22725e-06 0.0581078)
(7.78981e-06 -2.158e-06 0.075087)
(-4.07117e-06 3.4495e-06 0.0579541)
(3.25381e-06 -1.88627e-06 0.0579109)
(1.01054e-05 2.48352e-05 0.0943381)
(-1.52442e-05 -3.5056e-05 0.106658)
(1.45478e-05 -1.11169e-06 0.0827349)
(-5.96474e-06 -1.20363e-06 0.0686604)
(8.55211e-06 -1.32146e-06 0.0688539)
(1.46371e-05 3.03624e-05 0.10706)
(-8.67838e-06 -3.04204e-05 0.0939214)
(3.20899e-05 -4.41521e-06 0.0941359)
(-3.5919e-05 -1.07303e-05 0.106215)
(4.61518e-07 3.44074e-07 0.0824855)
(-1.11062e-07 -2.54712e-06 0.0684018)
(3.08049e-06 -4.44709e-06 0.0686766)
(3.58502e-05 5.55915e-07 0.106774)
(-3.17099e-05 -4.55681e-06 0.0936534)
(-7.67526e-06 -2.93017e-05 0.0939168)
(8.83911e-06 -1.17561e-07 0.0688495)
(1.48269e-05 3.09868e-05 0.107054)
(-1.36087e-05 5.89546e-07 0.0824784)
(1.0139e-05 2.64183e-05 0.0943347)
(-5.23225e-06 -5.05319e-07 0.0686541)
(-1.41988e-05 -3.46085e-05 0.106653)
(-3.11124e-05 -2.48665e-06 0.0936476)
(3.80096e-06 -3.88649e-06 0.068672)
(3.59813e-05 1.50145e-06 0.106766)
(2.96291e-06 -8.43873e-06 0.0820722)
(3.2796e-05 -2.84572e-06 0.0941308)
(3.57692e-07 -1.66809e-06 0.0683958)
(-3.5541e-05 -9.4345e-06 0.10621)
(7.08053e-06 -3.8282e-06 0.0750903)
(-4.27494e-06 3.18036e-06 0.0579588)
(3.17504e-06 -2.60597e-06 0.0579154)
(8.17357e-06 -6.51464e-06 0.0581262)
(7.03904e-07 -2.82457e-06 0.0581109)
(-3.96647e-06 -2.38202e-06 0.0747504)
(3.44187e-05 3.13263e-05 0.109877)
(0.000113361 0.000116451 0.12932)
(-0.000133254 -3.49139e-05 0.120319)
(-4.1141e-05 -0.000127904 0.120016)
(0.000122755 3.30937e-05 0.120668)
(3.19584e-05 0.000123307 0.120436)
(-4.03189e-05 -3.14871e-05 0.109425)
(3.52311e-05 -3.04739e-05 0.109875)
(0.000114222 -0.000113015 0.129298)
(-4.13846e-05 0.000131475 0.12008)
(-0.000131035 3.78565e-05 0.120197)
(3.35826e-05 -0.000122744 0.120499)
(0.000124374 -2.94534e-05 0.120544)
(-3.82731e-05 3.42841e-05 0.109424)
(-3.94007e-05 -3.22923e-05 0.109433)
(0.000126464 3.28756e-05 0.120671)
(3.42173e-05 0.000122922 0.120442)
(-0.000126513 -0.000126051 0.129162)
(3.56051e-05 3.03449e-05 0.109882)
(-0.000131476 -3.53021e-05 0.120323)
(-3.96241e-05 -0.000127991 0.120023)
(3.66475e-05 2.75802e-05 0.1099)
(0.000116334 0.000113937 0.129336)
(-0.000130705 -3.7564e-05 0.120338)
(-3.92779e-05 -0.000130208 0.120044)
(0.000127566 3.05684e-05 0.120684)
(3.53137e-05 0.00011997 0.120462)
(-3.9231e-05 -3.54642e-05 0.109452)
(-5.80273e-06 -1.62716e-06 0.148323)
(-6.48725e-06 2.29933e-07 0.148368)
(1.04384e-06 0.000141654 0.122291)
(-1.02156e-05 -0.00014498 0.115692)
(1.31257e-05 1.60653e-05 0.0979659)
(-1.05155e-05 -2.95279e-05 0.106924)
(5.79469e-06 0.000140667 0.115973)
(4.35837e-06 2.61221e-05 0.10714)
(-5.47037e-06 -0.000152338 0.12217)
(0.000148049 -3.16811e-06 0.121853)
(-0.000153505 -5.50297e-06 0.115094)
(1.43168e-05 7.67709e-06 0.0975859)
(-2.76929e-05 -8.27168e-07 0.106053)
(0.000145569 1.54111e-06 0.115613)
(2.24425e-05 -1.71742e-06 0.106645)
(-0.00016297 -1.07419e-06 0.121422)
(0.000147393 -3.99603e-06 0.125582)
(2.44972e-05 -1.13723e-06 0.114727)
(-3.01959e-05 2.27386e-06 0.111477)
(-0.00015787 1.91077e-06 0.126921)
(2.59833e-05 -3.0589e-06 0.11214)
(0.000140997 -1.58056e-06 0.127458)
(-0.000160724 1.57471e-06 0.125096)
(0.000147896 5.40731e-06 0.1218)
(-0.000151531 7.33559e-06 0.115065)
(1.64499e-05 -6.10298e-06 0.0975979)
(-2.55296e-05 2.02004e-06 0.106038)
(2.43694e-05 3.03177e-06 0.106629)
(0.000144693 8.45674e-07 0.115581)
(-0.000159275 3.04489e-06 0.121366)
(0.000144667 6.01204e-06 0.125544)
(2.36379e-05 3.06118e-06 0.114717)
(-0.000158109 -8.75757e-08 0.126905)
(-3.04692e-05 2.70585e-07 0.111454)
(0.000139676 3.48589e-06 0.127442)
(2.51059e-05 5.34435e-06 0.112116)
(-0.000161014 7.05309e-07 0.125054)
(2.41357e-06 -0.000141653 0.12232)
(-1.17122e-05 0.000150363 0.115678)
(1.68172e-05 -1.70581e-05 0.0979721)
(-9.07116e-06 3.28304e-05 0.106919)
(7.42228e-06 -0.000139903 0.115955)
(6.74494e-06 -2.67255e-05 0.107136)
(-5.70824e-06 0.000157656 0.1222)
(3.65149e-05 2.97896e-05 0.109888)
(0.000116356 0.000115395 0.129329)
(-0.000131702 -3.62711e-05 0.120328)
(-3.89312e-05 -0.000128902 0.12003)
(-3.91419e-05 -3.32129e-05 0.109439)
(0.000127168 3.20684e-05 0.120676)
(3.53442e-05 0.000122231 0.12045)
(-3.8517e-05 -3.38837e-05 0.109447)
(-0.000125767 -0.000126724 0.129173)
(0.000126616 3.07306e-05 0.120679)
(3.52969e-05 0.00012066 0.120454)
(3.6611e-05 2.86363e-05 0.109896)
(-0.00013082 -3.72151e-05 0.120335)
(-3.90715e-05 -0.000129531 0.120038)
(-6.20954e-06 -5.35166e-06 0.144667)
(1.18375e-05 -5.65767e-06 0.134835)
(-4.23238e-06 1.05719e-05 0.135214)
(-0.000115205 -0.00011316 0.129337)
(-5.02546e-06 -6.44395e-06 0.144631)
(1.07755e-05 -5.76661e-06 0.134835)
(-3.13896e-06 7.7768e-06 0.135217)
(-0.000115536 -0.00011645 0.129344)
(-4.38585e-06 -4.30756e-06 0.144598)
(9.1839e-06 -3.31384e-06 0.134839)
(-2.5891e-06 5.3354e-06 0.135213)
(-0.000114485 -0.000115334 0.129347)
(-5.94186e-06 -4.06103e-06 0.144576)
(6.89087e-06 -1.94141e-06 0.134851)
(-1.95252e-06 2.73783e-06 0.13521)
(-0.000115538 -0.000116111 0.129358)
(-4.17335e-06 -2.82608e-06 0.144562)
(4.41059e-06 -1.3865e-06 0.134855)
(-9.23848e-07 3.67168e-06 0.135218)
(-0.000118935 -0.000116475 0.129374)
(-3.08758e-06 -2.47139e-06 0.144553)
(2.39328e-06 -5.93885e-07 0.134863)
(7.08464e-07 2.62822e-06 0.135236)
(-0.000119634 -0.000117583 0.12939)
(-1.47144e-06 -1.458e-06 0.144551)
(2.18423e-06 -5.0754e-07 0.134871)
(8.81893e-07 1.44901e-06 0.13525)
(-0.000118918 -0.000117649 0.129402)
(-2.62303e-07 -1.33746e-06 0.144552)
(8.27655e-07 -1.35567e-06 0.134881)
(1.00045e-06 -5.70547e-07 0.135257)
(-0.000118533 -0.000118474 0.129408)
(-1.21557e-06 -3.00246e-06 0.144555)
(9.51423e-08 -1.35638e-06 0.134883)
(-5.04756e-07 -3.05758e-06 0.135256)
(-0.000118504 -0.000119271 0.129408)
(-1.76042e-06 -1.58388e-06 0.144564)
(4.95535e-07 -1.33584e-06 0.13489)
(3.92426e-07 -3.70416e-06 0.135256)
(-0.000118541 -0.000119108 0.129409)
(-1.27136e-06 -4.30975e-08 0.144573)
(1.98107e-07 -1.27656e-06 0.134897)
(-9.66364e-07 -1.28604e-06 0.135266)
(-0.000119871 -0.000118756 0.129408)
(-7.59652e-07 9.90984e-08 0.144577)
(3.41348e-07 -1.45096e-06 0.134907)
(1.48577e-06 -9.43022e-07 0.135271)
(-0.000120482 -0.00011811 0.129409)
(-4.31423e-07 -4.1516e-07 0.144586)
(1.24752e-06 -9.71472e-07 0.134914)
(2.95854e-06 -1.338e-06 0.135275)
(-0.000118921 -0.000117926 0.12941)
(-1.09371e-08 1.22661e-06 0.144584)
(2.28654e-06 -1.50934e-06 0.134916)
(1.66409e-06 -1.89479e-06 0.135272)
(-0.000119549 -0.000119347 0.12941)
(-8.60643e-07 1.3935e-06 0.144584)
(1.89292e-06 1.11006e-06 0.134911)
(1.43269e-06 -6.53051e-07 0.135273)
(-0.000121035 -0.000119499 0.129417)
(-1.08005e-06 2.23322e-06 0.144578)
(2.11492e-06 2.01355e-06 0.134902)
(6.75399e-07 6.71807e-07 0.135279)
(-0.000118775 -0.000116143 0.129425)
(-2.79024e-07 2.20165e-06 0.144572)
(1.4085e-06 1.03687e-06 0.134895)
(3.92291e-07 9.30022e-07 0.135283)
(-0.000118351 -0.00011751 0.129421)
(-3.26177e-06 -5.86209e-06 0.135225)
(2.60822e-06 -6.54491e-06 0.135223)
(-1.50126e-06 -7.16457e-06 0.135228)
(1.21451e-06 -6.32916e-06 0.135228)
(-0.000115308 0.000115006 0.129315)
(0.000125829 -0.000126569 0.129169)
(-9.7585e-06 -3.50929e-06 0.134843)
(-8.11389e-06 4.91677e-06 0.134824)
(-7.9177e-06 -4.24764e-06 0.134844)
(-7.13879e-06 2.4992e-06 0.134822)
(8.85764e-06 6.00146e-06 0.134858)
(1.00352e-05 -5.50326e-06 0.134836)
(7.1075e-06 2.13275e-06 0.134852)
(0.00011441 -0.000112595 0.1293)
(-0.00012641 0.000126528 0.129142)
(4.5478e-06 1.11163e-05 0.135259)
(-2.11996e-06 7.52424e-06 0.135215)
(3.60909e-06 7.39089e-06 0.135258)
(0.000127079 0.000126389 0.129181)
(0.000116029 0.000113596 0.129337)
(-0.000125181 -0.000124748 0.129177)
(-2.00245e-06 -7.17234e-06 0.135229)
(2.65661e-06 -7.30612e-06 0.135228)
(-7.21413e-07 -6.37615e-06 0.135233)
(3.40199e-06 -6.96929e-06 0.135232)
(-0.000115269 0.000114267 0.129331)
(0.000126515 -0.000124921 0.129178)
(-7.60481e-06 -5.13325e-06 0.134844)
(-7.42164e-06 2.75166e-06 0.134824)
(-8.29279e-06 -3.86638e-06 0.134846)
(-6.85272e-06 8.07655e-07 0.13482)
(9.11175e-06 2.70241e-06 0.134854)
(9.21489e-06 -3.46175e-06 0.134836)
(9.11969e-06 2.05273e-06 0.134859)
(0.000114997 -0.000114262 0.129304)
(-0.000125527 0.000124475 0.129141)
(4.46013e-06 7.56849e-06 0.135259)
(-2.09397e-06 5.5254e-06 0.135214)
(3.59115e-06 6.3502e-06 0.135262)
(0.00012706 0.000126016 0.129184)
(0.000115395 0.000115179 0.129339)
(-0.00012476 -0.000122691 0.129184)
(-9.77636e-07 -5.15427e-06 0.135234)
(4.15816e-06 -7.1246e-06 0.135234)
(-9.90326e-07 -3.74256e-06 0.13524)
(1.58702e-06 -4.19706e-06 0.135242)
(-0.000114422 0.000115813 0.129338)
(0.000124217 -0.000123491 0.129187)
(-7.43431e-06 -3.28708e-06 0.134848)
(-6.52706e-06 1.10237e-06 0.13482)
(-6.65131e-06 -8.44836e-07 0.134856)
(-7.28843e-06 1.69112e-06 0.134823)
(8.53621e-06 2.41846e-06 0.13486)
(6.98708e-06 -1.67852e-06 0.134848)
(6.59729e-06 1.95703e-06 0.134864)
(0.000114937 -0.000115207 0.129303)
(-0.000124804 0.000124101 0.129147)
(3.33736e-06 6.48043e-06 0.135262)
(-1.16782e-06 2.46179e-06 0.135209)
(2.50315e-06 4.8885e-06 0.135263)
(0.00012559 0.000125037 0.129195)
(0.000115613 0.000116239 0.129347)
(-0.000123097 -0.000123012 0.129196)
(-1.08513e-06 -2.82224e-06 0.135241)
(1.59993e-06 -4.13275e-06 0.135246)
(-1.70571e-07 -1.55652e-06 0.135249)
(-5.0416e-07 -2.20696e-06 0.13525)
(-0.000115769 0.000115495 0.129347)
(0.000121773 -0.00012285 0.129193)
(-6.17157e-06 -1.30107e-06 0.134858)
(-7.39267e-06 2.60675e-06 0.134826)
(-5.47188e-06 -2.19505e-06 0.134867)
(-5.47679e-06 2.46582e-06 0.134836)
(5.68586e-06 2.18338e-06 0.134864)
(4.66355e-06 -1.25207e-06 0.134854)
(5.06701e-06 2.50745e-06 0.134873)
(0.000115524 -0.000115202 0.129309)
(-0.000122927 0.000124269 0.129159)
(2.8936e-06 5.05739e-06 0.135263)
(-8.98731e-07 2.95068e-06 0.135215)
(1.20714e-06 3.94521e-06 0.135269)
(0.000122793 0.000124811 0.129211)
(0.000117339 0.000116262 0.129357)
(-0.000122459 -0.000122567 0.129204)
(-1.11018e-06 -1.97622e-06 0.135252)
(-4.25189e-07 -2.04912e-06 0.135252)
(8.64547e-07 -1.75627e-06 0.135265)
(-5.42404e-07 -1.41272e-06 0.135259)
(-0.000117336 0.000115853 0.129352)
(0.000121924 -0.000122575 0.129201)
(-4.93795e-06 -2.73547e-06 0.134869)
(-5.07834e-06 3.18513e-06 0.134839)
(-4.35111e-06 -1.91262e-06 0.134881)
(-3.28707e-06 2.68973e-06 0.134852)
(5.00824e-06 3.47215e-06 0.134877)
(2.66929e-06 -2.09331e-07 0.134861)
(2.69872e-06 1.71075e-06 0.134893)
(0.000117428 -0.000114793 0.129321)
(-0.000121065 0.000123959 0.12917)
(4.1528e-07 3.88221e-06 0.135272)
(1.20553e-06 2.48009e-06 0.135231)
(-1.59137e-06 2.11969e-06 0.135288)
(0.000121403 0.000123709 0.129227)
(0.000118266 0.000116979 0.129365)
(-0.000121516 -0.000121283 0.129207)
(9.67142e-07 -1.13596e-06 0.135267)
(1.1387e-07 -1.00882e-06 0.135262)
(2.85849e-06 7.72152e-07 0.135275)
(-6.65815e-07 1.51716e-06 0.135271)
(-0.000117101 0.00011581 0.129361)
(0.000122677 -0.000121802 0.129212)
(-3.41e-06 -1.42086e-06 0.134883)
(-3.42255e-06 3.1673e-06 0.134855)
(-2.86475e-06 1.65828e-07 0.134891)
(-7.70075e-07 4.73599e-07 0.134865)
(2.66183e-06 1.59828e-06 0.134897)
(2.25613e-06 -4.96779e-07 0.13487)
(1.66535e-06 -1.22623e-07 0.134908)
(0.000118178 -0.000114411 0.129333)
(-0.000121003 0.000122706 0.129182)
(-1.23013e-06 1.79664e-06 0.135292)
(1.15784e-06 1.26042e-06 0.135248)
(-8.6349e-07 2.36679e-07 0.135303)
(0.00012204 0.000123233 0.12924)
(0.000120083 0.000119067 0.129368)
(-0.000120797 -0.000122013 0.129219)
(1.9913e-06 1.25533e-06 0.135278)
(4.89587e-07 9.10288e-07 0.135273)
(2.32784e-06 6.61812e-07 0.135286)
(-1.81092e-06 1.51762e-06 0.135281)
(-0.000116572 0.000117058 0.129371)
(0.000121021 -0.000122646 0.129221)
(-1.65563e-06 3.37766e-07 0.134893)
(-1.08847e-06 5.77276e-07 0.134867)
(-5.62281e-07 5.95289e-07 0.134899)
(-1.21016e-07 -1.71964e-06 0.134867)
(1.65746e-06 4.4116e-07 0.13491)
(1.89675e-06 -1.09403e-06 0.13488)
(1.92648e-06 -5.39301e-07 0.13492)
(0.00011853 -0.000116217 0.129343)
(-0.000121783 0.000120851 0.129183)
(1.07647e-08 9.48142e-07 0.135305)
(1.5453e-06 1.70298e-08 0.135254)
(3.41187e-08 -1.76491e-07 0.135313)
(0.000122605 0.000122687 0.129247)
(0.000119967 0.000117451 0.129381)
(-0.000121899 -0.000123401 0.129228)
(2.55782e-06 1.19182e-06 0.13529)
(-1.62645e-06 5.43093e-07 0.135284)
(1.43175e-06 6.78049e-08 0.1353)
(-2.61888e-06 6.5344e-07 0.135288)
(-0.000118703 0.000116022 0.12938)
(0.000120556 -0.00012298 0.129226)
(6.22052e-07 3.06717e-07 0.134902)
(-7.84465e-07 -2.06455e-06 0.134868)
(4.88263e-07 -1.48363e-06 0.13491)
(-1.71521e-06 -2.49666e-06 0.134869)
(1.83145e-06 -7.73974e-07 0.134923)
(-7.19359e-07 -8.40834e-07 0.134883)
(1.58334e-06 -1.81743e-06 0.134931)
(0.000117143 -0.000117964 0.129343)
(-0.00012323 0.000119131 0.129187)
(-2.03793e-07 -6.77971e-07 0.135316)
(6.97827e-07 -3.31563e-06 0.135255)
(-6.01359e-07 -1.91091e-06 0.135321)
(0.000122109 0.000121426 0.129247)
(0.000118886 0.000116268 0.12939)
(-0.000121702 -0.00012278 0.129239)
(3.11012e-07 -2.36686e-07 0.135304)
(-2.32065e-06 5.47361e-07 0.135291)
(8.39461e-07 2.55628e-07 0.135316)
(-2.72751e-06 1.75648e-06 0.135293)
(-0.000119028 0.000116299 0.129384)
(0.000121454 -0.000121861 0.129232)
(7.65495e-07 -1.82643e-06 0.134912)
(-1.77956e-06 -2.03079e-06 0.134871)
(-1.32156e-07 -1.02379e-06 0.134919)
(-1.13383e-06 -1.67171e-06 0.134879)
(6.44958e-07 -1.84902e-06 0.134932)
(5.31312e-07 -1.53841e-06 0.134887)
(8.77695e-08 -2.01161e-06 0.13493)
(0.000116467 -0.000119879 0.129349)
(-0.000121292 0.00012029 0.129201)
(-5.47094e-08 -1.35152e-06 0.135324)
(5.98738e-07 -4.5196e-06 0.135254)
(-1.19374e-06 -2.58555e-06 0.135324)
(0.000122931 0.000122385 0.129247)
(0.000119628 0.000117463 0.129401)
(-0.000121704 -0.000122666 0.129244)
(1.36428e-06 1.07723e-06 0.13532)
(-2.82394e-06 2.48069e-06 0.135295)
(2.45403e-06 1.42146e-06 0.135325)
(-2.63993e-06 2.36535e-06 0.135298)
(-0.000118931 0.000118013 0.129391)
(0.000120751 -0.000121741 0.129238)
(-8.47127e-08 -9.93708e-07 0.134922)
(-1.06398e-06 -9.08815e-07 0.134883)
(-8.71378e-07 -6.63358e-07 0.134927)
(1.1553e-06 -8.92557e-07 0.134894)
(2.33745e-08 -1.50962e-06 0.13493)
(-3.46491e-07 -4.97289e-07 0.134894)
(-7.66089e-07 -2.30635e-06 0.13493)
(0.000118305 -0.000117731 0.129363)
(-0.000119958 0.000121276 0.129213)
(-1.5977e-06 -2.66039e-06 0.135325)
(-1.19461e-07 -2.31862e-06 0.135264)
(-2.51833e-06 -2.89695e-06 0.135323)
(0.000121505 0.00012243 0.129247)
(0.000119563 0.000117529 0.129404)
(-0.000121762 -0.000123306 0.12925)
(1.66588e-06 1.06431e-06 0.135326)
(-1.74218e-06 2.46158e-06 0.1353)
(2.24941e-06 1.59255e-06 0.135328)
(-2.61681e-06 2.56078e-06 0.135303)
(-0.000119076 0.000117361 0.129397)
(0.000121572 -0.000123776 0.129247)
(1.0655e-07 -9.81508e-07 0.134927)
(3.98028e-07 -2.9495e-08 0.134895)
(-4.193e-07 -1.4305e-06 0.134932)
(1.23123e-06 -6.69581e-07 0.134899)
(-5.43397e-07 -1.83127e-06 0.13493)
(3.9418e-07 -1.62267e-06 0.134905)
(-6.92281e-07 -8.47117e-07 0.134932)
(0.000119366 -0.000117345 0.129374)
(-0.000120631 0.000122411 0.129214)
(-2.13776e-06 -2.39258e-06 0.135323)
(1.26926e-06 -1.14425e-06 0.13527)
(-2.02602e-06 -2.29107e-06 0.135322)
(0.000120448 0.00012282 0.129247)
(0.00011982 0.00011705 0.12941)
(-0.000122718 -0.000124104 0.129246)
(2.02919e-06 1.95955e-06 0.135329)
(-2.45994e-06 2.0174e-06 0.135303)
(2.51665e-06 1.97791e-07 0.135328)
(-2.71413e-06 7.63029e-07 0.135306)
(-0.000119399 0.000116127 0.129406)
(0.000120949 -0.000122338 0.129241)
(3.30745e-07 -8.32766e-07 0.134934)
(1.28553e-06 -7.17237e-07 0.134898)
(3.21813e-07 -8.56586e-07 0.134932)
(1.27853e-06 -1.24561e-06 0.134896)
(-8.70756e-07 -1.24062e-07 0.134933)
(7.31909e-07 -5.31667e-07 0.134911)
(-1.5776e-06 -7.67826e-07 0.134933)
(0.000119841 -0.000117039 0.129373)
(-0.000119607 0.000121788 0.129207)
(-2.17904e-06 -1.89576e-06 0.135323)
(3.12087e-06 -1.25261e-06 0.135273)
(-1.73969e-06 -5.30232e-07 0.135323)
(0.000121679 0.000123111 0.129249)
(0.000118566 0.000116239 0.129405)
(-0.000122909 -0.000122387 0.129246)
(2.28264e-06 3.72402e-07 0.135326)
(-2.06722e-06 9.42468e-07 0.135307)
(1.49277e-06 1.10204e-06 0.135327)
(-2.44518e-06 2.24681e-06 0.135303)
(-0.000118769 0.000117319 0.129399)
(0.000122739 -0.000122612 0.129238)
(-2.67867e-07 -1.53265e-06 0.134931)
(8.69088e-07 -9.05942e-07 0.134893)
(-7.38789e-07 -1.04221e-06 0.134932)
(1.01792e-06 -1.87023e-06 0.13489)
(-7.13233e-07 -3.65031e-07 0.134934)
(2.46942e-06 -1.68675e-06 0.134917)
(4.54162e-08 -1.30721e-06 0.13493)
(0.000119705 -0.000116865 0.129367)
(-0.000122289 0.000121394 0.129203)
(-1.17032e-06 -7.12522e-07 0.135325)
(2.17137e-06 -2.20691e-06 0.135273)
(-1.37014e-06 -1.61193e-06 0.135324)
(0.000122637 0.000122404 0.129248)
(0.000117769 0.000117318 0.129407)
(-0.000124436 -0.000121988 0.129248)
(3.20954e-07 1.3987e-06 0.135326)
(-1.25369e-06 1.45802e-06 0.1353)
(8.19695e-08 1.71854e-06 0.135324)
(-2.25728e-06 2.35459e-06 0.135295)
(-0.000117038 0.000116655 0.129397)
(0.000122664 -0.000121773 0.129232)
(-8.26928e-07 -1.32902e-06 0.134932)
(1.03153e-06 -1.75292e-06 0.134887)
(-1.57382e-06 6.20619e-07 0.134932)
(4.29981e-07 -2.1118e-06 0.134888)
(-8.79003e-08 -9.81868e-07 0.134931)
(1.68969e-06 1.99959e-07 0.134913)
(-1.33174e-06 -1.42525e-06 0.134931)
(0.000117688 -0.000117771 0.129362)
(-0.000121024 0.000121399 0.129199)
(-1.7382e-06 -1.93272e-06 0.135326)
(1.33903e-06 -8.38203e-07 0.135272)
(-2.25371e-06 -1.72684e-06 0.135327)
(0.000120698 0.000122304 0.129255)
(0.000117056 0.000118378 0.129408)
(-0.000124534 -0.00012151 0.129247)
(-7.55212e-07 1.87594e-06 0.135323)
(-1.13393e-06 1.71994e-06 0.135293)
(-1.08475e-07 1.81126e-06 0.135321)
(-1.3546e-06 2.7858e-06 0.135289)
(-0.000117401 0.000118393 0.129388)
(0.000123683 -0.000120578 0.129225)
(-2.68798e-06 -6.42804e-07 0.134932)
(4.09834e-07 -7.8676e-07 0.134889)
(-1.79517e-06 2.15704e-06 0.134932)
(4.64903e-09 1.64594e-06 0.134894)
(-1.73325e-06 -9.62956e-07 0.134935)
(1.25307e-06 2.4152e-06 0.134904)
(-8.21176e-07 1.28822e-06 0.134943)
(0.000119368 -0.000117457 0.129359)
(-0.000120897 0.000123512 0.129207)
(-1.50129e-06 -8.115e-07 0.13533)
(2.09697e-06 -6.32523e-07 0.135276)
(-9.43709e-07 -2.78383e-07 0.135337)
(0.000122944 0.000125551 0.129263)
(0.000116854 0.000118591 0.129405)
(-0.00012229 -0.000122169 0.12924)
(-5.68849e-07 1.7257e-06 0.135321)
(-1.16929e-06 3.2003e-06 0.135288)
(1.08144e-06 1.93926e-06 0.135315)
(-2.10732e-06 4.06369e-06 0.135284)
(-0.000116466 0.00011866 0.129383)
(0.000122259 -0.000121649 0.129223)
(-2.27847e-06 1.10709e-06 0.134932)
(2.74013e-07 1.95754e-06 0.134895)
(-1.11489e-06 1.60789e-06 0.134924)
(-1.20527e-07 2.73269e-06 0.134899)
(-1.30399e-07 2.68544e-06 0.134947)
(2.1072e-06 1.04693e-06 0.134897)
(9.84859e-07 1.39763e-06 0.134948)
(0.000118672 -0.000115187 0.129367)
(-0.000121689 0.000124467 0.129211)
(-2.55421e-07 3.91896e-07 0.13534)
(2.96415e-08 9.16411e-07 0.135282)
(-1.25583e-06 -3.66469e-07 0.135337)
(0.000123847 0.00012477 0.129261)
(0.000118483 0.000116987 0.129398)
(8.0909e-07 1.11467e-06 0.135315)
(-7.6722e-07 3.06454e-06 0.135284)
(-0.000118023 0.000117971 0.129381)
(-1.70395e-06 5.21888e-08 0.134924)
(-5.91416e-07 2.64842e-06 0.134899)
(1.28035e-06 1.18001e-06 0.134949)
(1.27895e-06 2.14296e-07 0.134945)
(0.000117733 -0.000114463 0.129368)
(-1.54911e-06 -6.75321e-07 0.135337)
(-1.39553e-06 -8.69443e-07 0.13533)
(0.000122563 0.000124434 0.129258)
(1.61923e-07 -2.75191e-05 0.0953093)
(5.71615e-06 1.65695e-05 0.0696135)
(1.20408e-06 2.57422e-05 0.0955041)
(-5.73577e-06 -1.46779e-05 0.0694993)
(-4.79334e-06 3.78419e-06 0.0594483)
(8.53856e-06 -1.59645e-06 0.0593427)
(-1.57074e-05 -2.42825e-07 0.0942951)
(1.12372e-05 -5.5091e-06 0.0694251)
(1.53054e-05 -1.87082e-06 0.094925)
(-9.94859e-06 -8.53763e-07 0.0691195)
(7.23363e-06 -5.43026e-06 0.144653)
(-7.37852e-06 6.89586e-06 0.144664)
(6.40567e-06 6.89207e-06 0.144721)
(-5.12981e-06 -6.20754e-06 0.144639)
(7.27746e-06 -6.98562e-06 0.144634)
(-4.40128e-06 5.53338e-06 0.144638)
(4.21443e-06 4.3242e-06 0.144687)
(3.00725e-05 1.88311e-06 0.114013)
(-1.2753e-05 5.84433e-06 0.0976006)
(1.44451e-05 -3.4303e-06 0.139976)
(1.09064e-05 -4.88718e-06 0.134834)
(1.64015e-05 -1.18342e-05 0.0970812)
(1.45936e-05 -3.16842e-06 0.139973)
(-2.22851e-05 -1.52103e-06 0.114711)
(7.34047e-07 3.30815e-06 0.0594246)
(3.73321e-07 1.23734e-06 0.0592036)
(-1.34697e-06 3.62522e-05 0.115165)
(-1.82905e-06 9.18669e-06 0.140627)
(1.67227e-05 -1.63931e-05 0.0979766)
(-2.40208e-06 8.88942e-06 0.135214)
(-1.33956e-06 9.63224e-06 0.140623)
(-1.90102e-05 1.9771e-05 0.09773)
(-5.71895e-07 -3.0732e-05 0.115371)
(6.19797e-07 -3.63218e-06 0.0825271)
(-1.45902e-05 1.78579e-06 0.0826765)
(0.000128 0.000128931 0.129176)
(1.26474e-09 5.43424e-06 0.0821229)
(1.63287e-05 -1.39565e-07 0.0824299)
(-1.24904e-06 -3.23859e-05 0.095321)
(2.93705e-06 1.51941e-05 0.0696293)
(-7.99489e-07 2.5095e-05 0.0955154)
(-8.78269e-06 -1.72549e-05 0.0695281)
(-5.38972e-06 1.4524e-06 0.0594635)
(7.64743e-06 -3.04852e-06 0.0593635)
(-1.79645e-05 -2.14973e-07 0.0943003)
(1.12057e-05 -8.0695e-06 0.0694371)
(1.42307e-05 -5.06409e-06 0.0949372)
(-1.22233e-05 -2.12751e-06 0.0691386)
(7.70463e-06 -8.14842e-06 0.144631)
(-5.37016e-06 6.05477e-06 0.144633)
(5.37159e-06 5.31507e-06 0.144678)
(-4.93133e-06 -5.16066e-06 0.144606)
(7.55603e-06 -7.76829e-06 0.144609)
(-5.35629e-06 5.07641e-06 0.144617)
(6.19406e-06 6.05267e-06 0.144653)
(3.00324e-05 -6.75056e-07 0.114029)
(-1.34415e-05 3.23608e-06 0.0976201)
(1.36794e-05 -1.46041e-06 0.139966)
(1.12813e-05 -4.91604e-06 0.134834)
(-2.31646e-05 -3.14935e-06 0.11473)
(1.69644e-05 -1.18514e-05 0.0971002)
(1.41219e-05 -9.36666e-07 0.139965)
(-7.94492e-07 9.47311e-07 0.0594322)
(-1.79035e-06 -9.21707e-07 0.0592141)
(-7.81566e-07 3.74094e-05 0.115173)
(-1.01988e-06 8.30675e-06 0.140624)
(1.72049e-05 -1.44584e-05 0.0979949)
(-3.02745e-06 7.94036e-06 0.135215)
(-2.98398e-08 -3.03041e-05 0.115379)
(-9.72601e-07 8.43843e-06 0.14062)
(-1.97344e-05 2.19081e-05 0.0977484)
(2.1353e-06 -2.88866e-06 0.082544)
(-1.18702e-05 2.04535e-06 0.0826899)
(0.000126879 0.000125708 0.129181)
(2.18337e-06 6.73447e-06 0.0821405)
(1.73951e-05 1.20536e-06 0.082444)
(-2.85807e-08 -3.15419e-05 0.09532)
(3.42117e-06 1.30095e-05 0.0696633)
(-6.78745e-07 2.31319e-05 0.0955204)
(-6.63734e-06 -1.75166e-05 0.069558)
(-4.09165e-06 9.82492e-07 0.0594888)
(8.23236e-06 -3.73372e-06 0.0593857)
(-1.8011e-05 1.9938e-06 0.094301)
(9.3159e-06 -4.83158e-06 0.0694582)
(1.25989e-05 -2.97318e-06 0.0949342)
(-1.26244e-05 2.40117e-06 0.0691565)
(7.15083e-06 -7.34638e-06 0.144604)
(-5.47418e-06 4.57081e-06 0.144614)
(6.26393e-06 5.98803e-06 0.144648)
(-6.01264e-06 -4.57681e-06 0.144581)
(5.58027e-06 -4.91982e-06 0.144583)
(-5.04998e-06 3.00101e-06 0.144594)
(6.25744e-06 5.2438e-06 0.144628)
(2.9163e-05 -9.06914e-07 0.11404)
(-1.25915e-05 5.83555e-06 0.0976376)
(1.23232e-05 -2.50305e-06 0.139961)
(8.494e-06 -2.28882e-06 0.134841)
(-2.3656e-05 -4.35149e-06 0.114741)
(1.68991e-05 -1.07038e-05 0.0971156)
(1.20864e-05 -3.08809e-06 0.139962)
(-1.15927e-06 2.18142e-06 0.0594503)
(-1.07371e-06 2.78837e-07 0.0592342)
(-5.37721e-07 3.69497e-05 0.115179)
(-7.50124e-07 7.72461e-06 0.140618)
(1.61224e-05 -1.51124e-05 0.098003)
(-1.67496e-06 4.61027e-06 0.13521)
(8.31615e-07 -3.03029e-05 0.115384)
(-7.76542e-07 8.39217e-06 0.140617)
(-1.89598e-05 1.89173e-05 0.0977536)
(2.90699e-06 -3.36858e-06 0.0825571)