/*--------------------------------*- C++ -*----------------------------------*\
| =========                 |                                                 |
| \\      /  F ield         | OpenFOAM: The Open Source CFD Toolbox           |
|  \\    /   O peration     | Version:  2206                                  |
|   \\  /    A nd           | Website:  www.openfoam.com                      |
|    \\/     M anipulation  |                                                 |
\*---------------------------------------------------------------------------*/
FoamFile
{
    version     2.0;
    format      ascii;
    arch        "LSB;label=32;scalar=64";
    class       volScalarField;
    location    "0.2";
    object      k;
}
// * * * * * * * * * * * * * * * * * * * * * * * * * * * * * * * * * * * * * //

dimensions      [0 2 -2 0 0 0 0];

internalField   nonuniform List<scalar> 
66701
(
1.35674e-05
1.20227e-05
2.04255e-05
2.51126e-05
1.57513e-05
3.00573e-05
2.96124e-05
1.73296e-05
1.20153e-05
2.0407e-05
2.50906e-05
1.57439e-05
3.00574e-05
1.73291e-05
2.9603e-05
1.35568e-05
4.06589e-06
9.85602e-07
1.88738e-07
9.38931e-08
5.87261e-07
3.89433e-06
9.44539e-07
1.81604e-07
9.30333e-08
5.85837e-07
4.05511e-06
9.72419e-07
1.84132e-07
8.732e-08
5.38991e-07
4.05182e-06
9.7166e-07
1.84002e-07
8.72931e-08
5.38948e-07
4.06299e-06
9.84976e-07
1.88647e-07
9.38973e-08
5.87331e-07
3.8919e-06
9.43926e-07
1.81498e-07
9.30058e-08
5.8577e-07
3.80006e-06
9.16978e-07
1.75758e-07
9.0029e-08
5.66604e-07
3.93465e-06
9.51406e-07
1.8214e-07
9.1492e-08
5.73306e-07
3.79848e-06
9.16592e-07
1.75695e-07
9.00239e-08
5.66612e-07
3.93457e-06
9.51386e-07
1.82137e-07
9.14896e-08
5.73287e-07
1.37223e-05
1.3568e-05
2.58366e-05
2.52387e-05
2.50281e-05
2.07126e-05
2.57711e-05
2.98224e-05
3.00614e-05
2.04318e-05
2.82437e-05
2.57759e-05
2.97123e-05
2.57174e-05
3.00614e-05
2.0411e-05
2.82422e-05
2.57746e-05
2.57157e-05
2.96949e-05
1.35579e-05
2.58413e-05
2.50192e-05
1.35578e-05
1.92164e-05
1.20282e-05
1.19528e-05
1.92266e-05
1.20162e-05
1.19405e-05
2.82496e-05
1.99941e-05
2.84253e-05
2.52515e-05
2.82561e-05
1.99777e-05
2.84255e-05
2.80725e-05
1.96977e-05
2.83789e-05
2.50291e-05
2.8083e-05
1.96786e-05
2.83807e-05
1.5736e-05
2.96174e-05
1.73344e-05
3.00499e-05
1.57567e-05
2.96015e-05
1.73149e-05
1.20137e-05
2.51161e-05
2.04133e-05
1.20263e-05
2.50991e-05
1.57285e-05
1.73347e-05
2.96081e-05
3.00501e-05
1.57495e-05
1.73146e-05
2.95921e-05
1.20062e-05
2.50927e-05
2.03943e-05
1.20179e-05
2.50766e-05
1.35474e-05
1.92212e-05
1.19457e-05
1.20427e-05
2.80444e-05
2.83804e-05
2.50197e-05
2.83817e-05
1.96668e-05
2.82709e-05
2.53428e-05
2.00279e-05
2.8419e-05
1.37757e-05
2.57469e-05
2.5793e-05
2.57922e-05
2.58221e-05
2.57498e-05
2.57944e-05
2.57974e-05
2.582e-05
2.57941e-05
2.58204e-05
2.57954e-05
2.58197e-05
2.79209e-05
2.58414e-05
2.67862e-05
2.68028e-05
2.79171e-05
2.67925e-05
2.68095e-05
2.67716e-05
2.91873e-05
2.77297e-05
2.98177e-05
2.77164e-05
2.6806e-05
2.91623e-05
2.63526e-05
2.85899e-05
2.61628e-05
2.82547e-05
2.63468e-05
2.85978e-05
2.61724e-05
2.68054e-05
2.91097e-05
2.77533e-05
2.9703e-05
2.77615e-05
2.67979e-05
2.91142e-05
2.63471e-05
2.61612e-05
2.85832e-05
2.82531e-05
2.63413e-05
2.61706e-05
2.8591e-05
2.6796e-05
2.90961e-05
2.77406e-05
2.96854e-05
2.67883e-05
2.91009e-05
2.77486e-05
2.79076e-05
2.58455e-05
2.68117e-05
2.68178e-05
2.6789e-05
4.09927e-06
9.93807e-07
1.90178e-07
9.40529e-08
5.87424e-07
4.06503e-06
9.85383e-07
1.88697e-07
9.38795e-08
5.87192e-07
4.10153e-06
9.83956e-07
1.86142e-07
8.75378e-08
5.39199e-07
4.05524e-06
9.72357e-07
1.84113e-07
8.73065e-08
5.38908e-07
4.05146e-06
9.71503e-07
1.83969e-07
8.72842e-08
5.38909e-07
4.06235e-06
9.8479e-07
1.88615e-07
9.38927e-08
5.87326e-07
4.06508e-06
9.85665e-07
1.88775e-07
9.39511e-08
5.87676e-07
3.79936e-06
9.1699e-07
1.75769e-07
9.00444e-08
5.66717e-07
3.93502e-06
9.5138e-07
1.82131e-07
9.14831e-08
5.7325e-07
3.80083e-06
9.17068e-07
1.75767e-07
9.00249e-08
5.66565e-07
3.93396e-06
9.5141e-07
1.82158e-07
9.15057e-08
5.73377e-07
4.05639e-06
9.72926e-07
1.84248e-07
8.74083e-08
5.39593e-07
3.79785e-06
9.16615e-07
1.75709e-07
9.00413e-08
5.66739e-07
3.93508e-06
9.51391e-07
1.82133e-07
9.14821e-08
5.73238e-07
3.79943e-06
9.16722e-07
1.75713e-07
9.00231e-08
5.66592e-07
3.93393e-06
9.51401e-07
1.82156e-07
9.15035e-08
5.73359e-07
4.05287e-06
9.72111e-07
1.8411e-07
8.73841e-08
5.39574e-07
4.06231e-06
9.85078e-07
1.88692e-07
9.39607e-08
5.87782e-07
4.08127e-06
9.78845e-07
1.85415e-07
8.81596e-08
5.44496e-07
4.09697e-06
9.93154e-07
1.90064e-07
9.40431e-08
5.8737e-07
3.80229e-06
9.23708e-07
1.7818e-07
9.35005e-08
5.91981e-07
4.07735e-06
9.77968e-07
1.85275e-07
8.81582e-08
5.44655e-07
4.07492e-06
9.77556e-07
1.85224e-07
8.82178e-08
5.45145e-07
3.78107e-06
9.18383e-07
1.77231e-07
9.33576e-08
5.91659e-07
4.04108e-06
9.69265e-07
1.83758e-07
8.79675e-08
5.44359e-07
4.04119e-06
9.69606e-07
1.83845e-07
8.8025e-08
5.44725e-07
3.80005e-06
9.23375e-07
1.78145e-07
9.35548e-08
5.92412e-07
3.78042e-06
9.18545e-07
1.77286e-07
9.34176e-08
5.92064e-07
3.89443e-06
9.44716e-07
1.81666e-07
9.31113e-08
5.86409e-07
3.89528e-06
9.44658e-07
1.81626e-07
9.30323e-08
5.85809e-07
3.89196e-06
9.44094e-07
1.81559e-07
9.3086e-08
5.86363e-07
3.89257e-06
9.43996e-07
1.81513e-07
9.30078e-08
5.85773e-07
4.03994e-06
9.69362e-07
1.83809e-07
8.80383e-08
5.44821e-07
3.78215e-06
9.18903e-07
1.77337e-07
9.34239e-08
5.92041e-07
3.80742e-06
9.24958e-07
1.7839e-07
9.35476e-08
5.92155e-07
2.58022e-05
2.58731e-05
2.57924e-05
2.58131e-05
2.5811e-05
2.58749e-05
2.57517e-05
2.5777e-05
2.57742e-05
2.58451e-05
2.5744e-05
2.57755e-05
2.57697e-05
2.58434e-05
2.57455e-05
2.57724e-05
2.57708e-05
2.58415e-05
2.57458e-05
2.57674e-05
2.57694e-05
2.5836e-05
2.57465e-05
2.57665e-05
2.57705e-05
2.58368e-05
2.57462e-05
2.57659e-05
2.57706e-05
2.58375e-05
2.5746e-05
2.57661e-05
2.57705e-05
2.58373e-05
2.5746e-05
2.57661e-05
2.57706e-05
2.58374e-05
2.57461e-05
2.57659e-05
2.57705e-05
2.58373e-05
2.57461e-05
2.57661e-05
2.57706e-05
2.58373e-05
2.57461e-05
2.5766e-05
2.57706e-05
2.58373e-05
2.57461e-05
2.57662e-05
2.57706e-05
2.58372e-05
2.57461e-05
2.57661e-05
2.57707e-05
2.58372e-05
2.57461e-05
2.57662e-05
2.57705e-05
2.58371e-05
2.57466e-05
2.57547e-05
2.5769e-05
2.58274e-05
2.58579e-05
2.58847e-05
2.5806e-05
2.58118e-05
2.5808e-05
2.58807e-05
2.58799e-05
2.58656e-05
2.58071e-05
2.58074e-05
2.57875e-05
2.5791e-05
2.58776e-05
2.58624e-05
2.58233e-05
2.58219e-05
2.57976e-05
2.57974e-05
2.58103e-05
2.57858e-05
2.57844e-05
2.58844e-05
2.58675e-05
2.58068e-05
2.57882e-05
2.57793e-05
2.58527e-05
2.58525e-05
2.58453e-05
2.57762e-05
2.57806e-05
2.57664e-05
2.57716e-05
2.58557e-05
2.58528e-05
2.57831e-05
2.57826e-05
2.57688e-05
2.57678e-05
2.57785e-05
2.57755e-05
2.5773e-05
2.58538e-05
2.58467e-05
2.57745e-05
2.57695e-05
2.57705e-05
2.58472e-05
2.58466e-05
2.58452e-05
2.57712e-05
2.5776e-05
2.57705e-05
2.57747e-05
2.58535e-05
2.5849e-05
2.57727e-05
2.57715e-05
2.57707e-05
2.57689e-05
2.57763e-05
2.57749e-05
2.57726e-05
2.58477e-05
2.58449e-05
2.57751e-05
2.57716e-05
2.5774e-05
2.58469e-05
2.58453e-05
2.58376e-05
2.57727e-05
2.57767e-05
2.5769e-05
2.57726e-05
2.58493e-05
2.58404e-05
2.57722e-05
2.57703e-05
2.57674e-05
2.57657e-05
2.57738e-05
2.5769e-05
2.57683e-05
2.5845e-05
2.58373e-05
2.57761e-05
2.57697e-05
2.57734e-05
2.5841e-05
2.58382e-05
2.58366e-05
2.57709e-05
2.57742e-05
2.57686e-05
2.57704e-05
2.58374e-05
2.5834e-05
2.57697e-05
2.57678e-05
2.57691e-05
2.5767e-05
2.57701e-05
2.57669e-05
2.5768e-05
2.58378e-05
2.58364e-05
2.57756e-05
2.57706e-05
2.57739e-05
2.58406e-05
2.58378e-05
2.5838e-05
2.5771e-05
2.57725e-05
2.57692e-05
2.57703e-05
2.58349e-05
2.5834e-05
2.57729e-05
2.57707e-05
2.57702e-05
2.57686e-05
2.57703e-05
2.57661e-05
2.57683e-05
2.58374e-05
2.58381e-05
2.57762e-05
2.5771e-05
2.57745e-05
2.58418e-05
2.58389e-05
2.58377e-05
2.57713e-05
2.57724e-05
2.5769e-05
2.57699e-05
2.58346e-05
2.58327e-05
2.57724e-05
2.57709e-05
2.57702e-05
2.5769e-05
2.57703e-05
2.57661e-05
2.57682e-05
2.58389e-05
2.58384e-05
2.57767e-05
2.57708e-05
2.57745e-05
2.58415e-05
2.58387e-05
2.58377e-05
2.57713e-05
2.57721e-05
2.57692e-05
2.57702e-05
2.58337e-05
2.58339e-05
2.57724e-05
2.57712e-05
2.57702e-05
2.57689e-05
2.57703e-05
2.57667e-05
2.57683e-05
2.58392e-05
2.58385e-05
2.57766e-05
2.57709e-05
2.57744e-05
2.58415e-05
2.58387e-05
2.58378e-05
2.57715e-05
2.57724e-05
2.57694e-05
2.577e-05
2.58345e-05
2.58326e-05
2.57724e-05
2.57711e-05
2.57702e-05
2.57689e-05
2.57704e-05
2.57659e-05
2.57682e-05
2.58393e-05
2.58384e-05
2.57766e-05
2.57708e-05
2.57745e-05
2.58415e-05
2.58387e-05
2.5838e-05
2.57715e-05
2.57722e-05
2.57692e-05
2.57702e-05
2.58337e-05
2.58339e-05
2.57723e-05
2.5771e-05
2.57703e-05
2.5769e-05
2.57703e-05
2.57666e-05
2.57682e-05
2.58392e-05
2.58385e-05
2.57766e-05
2.57708e-05
2.57744e-05
2.58415e-05
2.58389e-05
2.58379e-05
2.57715e-05
2.57724e-05
2.57693e-05
2.57699e-05
2.58345e-05
2.5833e-05
2.57725e-05
2.57711e-05
2.57702e-05
2.57689e-05
2.57704e-05
2.57661e-05
2.57683e-05
2.58393e-05
2.58384e-05
2.57766e-05
2.57707e-05
2.57743e-05
2.58415e-05
2.58388e-05
2.58379e-05
2.57715e-05
2.57722e-05
2.57692e-05
2.57703e-05
2.5834e-05
2.5834e-05
2.57724e-05
2.57711e-05
2.57703e-05
2.57689e-05
2.57704e-05
2.57667e-05
2.57682e-05
2.58392e-05
2.58385e-05
2.57765e-05
2.57709e-05
2.57744e-05
2.58414e-05
2.58389e-05
2.58376e-05
2.57715e-05
2.57724e-05
2.57693e-05
2.57701e-05
2.58346e-05
2.58331e-05
2.57724e-05
2.57711e-05
2.57703e-05
2.57688e-05
2.57703e-05
2.57661e-05
2.57681e-05
2.58393e-05
2.58384e-05
2.57766e-05
2.57709e-05
2.57745e-05
2.58414e-05
2.58387e-05
2.58377e-05
2.57714e-05
2.57723e-05
2.57692e-05
2.57702e-05
2.58341e-05
2.58339e-05
2.57724e-05
2.5771e-05
2.57703e-05
2.57688e-05
2.57702e-05
2.57668e-05
2.57681e-05
2.58392e-05
2.58384e-05
2.57766e-05
2.57708e-05
2.57743e-05
2.58412e-05
2.58388e-05
2.58408e-05
2.57712e-05
2.57722e-05
2.57877e-05
2.57893e-05
2.58347e-05
2.58355e-05
2.57724e-05
2.5771e-05
2.57677e-05
2.57664e-05
2.57702e-05
2.57646e-05
2.57656e-05
2.58392e-05
2.58377e-05
2.57764e-05
2.57705e-05
2.5773e-05
2.58401e-05
2.57901e-05
2.58372e-05
2.57697e-05
2.57688e-05
2.57676e-05
2.58279e-05
2.57756e-05
1.36557e-05
1.37499e-05
2.82119e-05
2.57591e-05
2.98758e-05
2.58018e-05
2.99274e-05
2.81922e-05
2.57579e-05
2.51192e-05
2.53313e-05
2.58791e-05
2.53433e-05
2.5124e-05
3.04393e-05
2.09051e-05
2.08949e-05
3.04302e-05
1.37869e-05
1.37881e-05
3.0131e-05
2.06105e-05
2.05735e-05
3.01231e-05
2.5793e-05
2.57905e-05
2.57928e-05
2.57672e-05
2.5768e-05
2.57667e-05
2.57662e-05
2.83214e-05
2.98289e-05
2.57516e-05
2.58116e-05
2.98293e-05
2.57482e-05
2.83033e-05
1.36599e-05
1.36508e-05
2.82393e-05
2.57527e-05
2.99719e-05
2.581e-05
2.82282e-05
2.57516e-05
2.99832e-05
2.51566e-05
2.53819e-05
2.58736e-05
2.51438e-05
2.53815e-05
3.04655e-05
2.08953e-05
3.0463e-05
2.0896e-05
1.38e-05
1.37965e-05
3.01429e-05
2.05475e-05
3.01547e-05
2.05205e-05
2.57564e-05
2.57546e-05
2.57553e-05
2.5744e-05
2.57449e-05
2.57429e-05
2.57448e-05
2.83007e-05
2.98342e-05
2.57125e-05
2.57773e-05
2.82943e-05
2.98236e-05
2.57134e-05
1.36442e-05
1.36266e-05
2.82361e-05
2.57167e-05
2.99826e-05
2.57718e-05
2.82287e-05
2.5718e-05
2.99842e-05
2.51403e-05
2.5397e-05
2.5845e-05
2.51225e-05
2.5391e-05
3.04871e-05
2.09183e-05
3.04873e-05
2.09185e-05
1.38084e-05
1.38005e-05
3.01508e-05
2.05119e-05
3.01656e-05
2.04778e-05
2.57499e-05
2.57482e-05
2.57494e-05
2.57456e-05
2.57474e-05
2.57458e-05
2.57467e-05
2.83003e-05
2.98249e-05
2.57115e-05
2.57784e-05
2.8289e-05
2.98016e-05
2.57158e-05
1.36163e-05
1.35866e-05
2.82563e-05
2.57174e-05
2.99936e-05
2.57738e-05
2.82431e-05
2.57226e-05
2.99909e-05
2.51232e-05
2.5411e-05
2.58465e-05
2.50935e-05
2.54002e-05
3.04791e-05
2.08957e-05
3.04897e-05
2.08718e-05
1.37879e-05
1.37701e-05
3.00853e-05
2.04402e-05
3.0125e-05
2.04004e-05
2.57502e-05
2.57485e-05
2.57495e-05
2.57458e-05
2.57474e-05
2.57463e-05
2.57472e-05
2.82743e-05
2.97774e-05
2.57107e-05
2.57734e-05
2.82733e-05
2.97451e-05
2.57132e-05
1.35639e-05
1.35388e-05
2.82639e-05
2.57218e-05
2.99817e-05
2.57728e-05
2.82582e-05
2.5725e-05
2.99599e-05
2.50695e-05
2.53831e-05
2.58416e-05
2.50378e-05
2.53622e-05
3.04595e-05
2.08553e-05
3.04689e-05
2.08487e-05
1.37672e-05
1.37623e-05
3.00571e-05
2.03881e-05
3.00732e-05
2.03722e-05
2.57502e-05
2.57493e-05
2.57502e-05
2.57473e-05
2.57477e-05
2.57475e-05
2.5748e-05
2.82555e-05
2.97335e-05
2.57098e-05
2.57693e-05
2.82479e-05
2.97164e-05
2.57133e-05
1.35345e-05
1.35244e-05
2.82587e-05
2.57218e-05
2.99454e-05
2.57719e-05
2.82544e-05
2.57255e-05
2.99328e-05
2.50309e-05
2.53584e-05
2.58381e-05
2.50187e-05
2.53485e-05
3.04645e-05
2.08555e-05
3.04604e-05
2.08513e-05
1.37709e-05
1.37642e-05
3.00775e-05
2.03951e-05
3.00835e-05
2.03865e-05
2.57505e-05
2.57504e-05
2.57508e-05
2.57466e-05
2.57475e-05
2.5748e-05
2.5748e-05
2.82602e-05
2.97302e-05
2.57098e-05
2.57686e-05
2.82448e-05
2.97264e-05
2.57125e-05
1.35405e-05
1.35349e-05
2.8261e-05
2.57225e-05
2.99423e-05
2.57729e-05
2.82543e-05
2.57254e-05
2.99417e-05
2.50453e-05
2.53621e-05
2.58402e-05
2.50344e-05
2.5352e-05
3.04662e-05
2.08524e-05
3.04636e-05
2.08496e-05
1.37663e-05
1.37634e-05
3.00729e-05
2.03906e-05
3.00896e-05
2.03799e-05
2.57502e-05
2.57507e-05
2.57508e-05
2.57463e-05
2.57475e-05
2.5748e-05
2.57481e-05
2.82568e-05
2.97257e-05
2.57093e-05
2.57681e-05
2.82444e-05
2.97148e-05
2.57122e-05
1.35405e-05
1.35324e-05
2.82621e-05
2.57227e-05
2.9942e-05
2.57729e-05
2.82569e-05
2.57253e-05
2.9941e-05
2.50384e-05
2.53631e-05
2.584e-05
2.50258e-05
2.53516e-05
3.04676e-05
2.08569e-05
3.04641e-05
2.08527e-05
1.37688e-05
1.37628e-05
3.00775e-05
2.03956e-05
3.00901e-05
2.03822e-05
2.57503e-05
2.57507e-05
2.57509e-05
2.57463e-05
2.57476e-05
2.5748e-05
2.57481e-05
2.82579e-05
2.97289e-05
2.57095e-05
2.57685e-05
2.82444e-05
2.97224e-05
2.57128e-05
1.35416e-05
1.3533e-05
2.82604e-05
2.57224e-05
2.99423e-05
2.57729e-05
2.82555e-05
2.57258e-05
2.99414e-05
2.50438e-05
2.53619e-05
2.58398e-05
2.50295e-05
2.53504e-05
3.04679e-05
2.08585e-05
3.04651e-05
2.08527e-05
1.37671e-05
1.37633e-05
3.00765e-05
2.03948e-05
3.00878e-05
2.03832e-05
2.57503e-05
2.57508e-05
2.57509e-05
2.57463e-05
2.57474e-05
2.5748e-05
2.57481e-05
2.8258e-05
2.97286e-05
2.57095e-05
2.57682e-05
2.8245e-05
2.97188e-05
2.57123e-05
1.35418e-05
1.35331e-05
2.82617e-05
2.57226e-05
2.99426e-05
2.5773e-05
2.82563e-05
2.57253e-05
2.99417e-05
2.50444e-05
2.53627e-05
2.584e-05
2.50304e-05
2.53504e-05
3.04662e-05
2.08561e-05
3.04644e-05
2.08521e-05
1.37687e-05
1.37624e-05
3.00767e-05
2.0395e-05
3.00882e-05
2.03828e-05
2.57502e-05
2.57508e-05
2.57509e-05
2.57463e-05
2.57475e-05
2.5748e-05
2.57481e-05
2.82575e-05
2.97287e-05
2.57095e-05
2.57684e-05
2.82446e-05
2.97213e-05
2.5713e-05
1.35422e-05
1.35338e-05
2.82609e-05
2.57224e-05
2.99422e-05
2.57729e-05
2.82557e-05
2.57257e-05
2.99414e-05
2.50435e-05
2.53616e-05
2.58398e-05
2.50289e-05
2.53489e-05
3.04636e-05
2.08558e-05
3.04618e-05
2.08509e-05
1.3767e-05
1.37634e-05
3.0077e-05
2.03945e-05
3.00884e-05
2.03825e-05
2.57503e-05
2.57507e-05
2.57509e-05
2.57463e-05
2.57474e-05
2.5748e-05
2.57481e-05
2.82579e-05
2.97288e-05
2.57095e-05
2.57682e-05
2.82451e-05
2.97183e-05
2.57122e-05
1.35416e-05
1.35328e-05
2.82619e-05
2.57225e-05
2.9942e-05
2.57728e-05
2.82557e-05
2.57252e-05
2.99409e-05
2.50434e-05
2.5362e-05
2.58399e-05
2.50279e-05
2.53491e-05
3.0462e-05
2.08548e-05
3.04599e-05
2.08506e-05
1.37702e-05
1.3764e-05
3.0077e-05
2.0395e-05
3.00887e-05
2.03825e-05
2.57502e-05
2.57508e-05
2.57509e-05
2.57463e-05
2.57475e-05
2.5748e-05
2.57481e-05
2.82576e-05
2.97296e-05
2.57095e-05
2.57686e-05
2.82446e-05
2.9722e-05
2.5713e-05
1.35414e-05
1.35332e-05
2.82612e-05
2.57221e-05
2.99413e-05
2.57729e-05
2.8256e-05
2.5725e-05
2.99403e-05
2.50428e-05
2.53617e-05
2.58397e-05
2.50274e-05
2.53487e-05
3.0463e-05
2.08563e-05
3.04598e-05
2.08519e-05
1.37678e-05
1.37645e-05
3.00771e-05
2.03949e-05
3.00886e-05
2.03823e-05
2.57503e-05
2.57507e-05
2.57509e-05
2.57464e-05
2.57475e-05
2.5748e-05
2.57481e-05
2.82576e-05
2.97291e-05
2.57095e-05
2.57683e-05
2.8245e-05
2.9718e-05
2.57122e-05
1.35414e-05
1.35323e-05
2.82622e-05
2.57224e-05
2.99411e-05
2.57729e-05
2.82561e-05
2.57254e-05
2.99404e-05
2.50425e-05
2.53605e-05
2.58398e-05
2.50274e-05
2.5347e-05
3.04654e-05
2.08566e-05
3.04626e-05
2.0852e-05
1.37707e-05
1.37648e-05
3.00769e-05
2.0394e-05
3.00887e-05
2.03823e-05
2.57503e-05
2.57507e-05
2.57509e-05
2.57463e-05
2.57475e-05
2.57479e-05
2.57481e-05
2.82578e-05
2.97292e-05
2.57096e-05
2.57687e-05
2.82446e-05
2.97216e-05
2.5713e-05
1.35413e-05
1.3533e-05
2.82628e-05
2.57226e-05
2.9942e-05
2.57729e-05
2.82571e-05
2.57253e-05
2.99413e-05
2.5043e-05
2.53594e-05
2.58396e-05
2.5029e-05
2.53469e-05
3.04329e-05
2.08494e-05
3.0466e-05
2.08686e-05
1.37664e-05
1.37863e-05
3.00771e-05
2.03951e-05
3.00886e-05
2.03831e-05
2.57503e-05
2.57507e-05
2.57509e-05
2.57474e-05
2.57468e-05
2.57503e-05
2.57504e-05
2.82579e-05
2.97288e-05
2.57096e-05
2.57683e-05
2.82454e-05
2.97175e-05
2.57123e-05
1.35421e-05
1.3533e-05
2.82625e-05
2.57223e-05
2.99423e-05
2.57727e-05
2.8257e-05
2.57258e-05
2.99414e-05
2.50439e-05
2.53612e-05
2.58396e-05
2.50297e-05
2.53493e-05
1.37122e-05
2.04945e-05
3.00944e-05
2.57487e-05
2.57548e-05
2.5755e-05
2.9719e-05
2.57084e-05
2.81776e-05
1.36121e-05
2.57234e-05
2.99383e-05
2.82575e-05
2.50971e-05
2.53986e-05
2.51401e-05
2.53675e-05
2.58466e-05
2.54499e-05
2.52463e-05
1.38188e-05
1.384e-05
1.36475e-05
1.36976e-05
2.58583e-05
2.51578e-05
2.54283e-05
2.54473e-05
2.52055e-05
1.38058e-05
1.38272e-05
2.82111e-05
2.57584e-05
2.99023e-05
2.58083e-05
2.99416e-05
2.81911e-05
2.57571e-05
3.03327e-05
2.09305e-05
2.09584e-05
3.02759e-05
3.03292e-05
2.08628e-05
2.08615e-05
3.02729e-05
2.82082e-05
2.58026e-05
2.57541e-05
2.9956e-05
2.99458e-05
2.82305e-05
2.57541e-05
2.82075e-05
2.58083e-05
2.57527e-05
2.99816e-05
2.99526e-05
2.82297e-05
2.57531e-05
3.03537e-05
2.09226e-05
2.09605e-05
3.03956e-05
3.03515e-05
2.08618e-05
2.08686e-05
3.03939e-05
1.35982e-05
1.36003e-05
1.37796e-05
1.37759e-05
2.58795e-05
2.51433e-05
2.53688e-05
2.53609e-05
2.51434e-05
1.36066e-05
1.36153e-05
1.37804e-05
1.37813e-05
1.37885e-05
1.37907e-05
1.3662e-05
1.36529e-05
2.53867e-05
2.51662e-05
2.58873e-05
2.53821e-05
2.51535e-05
1.37957e-05
1.37984e-05
1.36427e-05
1.36606e-05
2.58827e-05
2.53847e-05
2.51462e-05
2.53913e-05
2.51647e-05
3.04395e-05
2.0865e-05
2.08604e-05
3.04294e-05
2.82509e-05
2.99301e-05
2.57587e-05
2.5806e-05
2.99481e-05
2.57566e-05
2.82337e-05
2.8251e-05
2.99677e-05
2.57585e-05
2.58078e-05
2.99722e-05
2.57564e-05
2.82336e-05
3.04474e-05
2.08897e-05
2.09002e-05
3.04595e-05
3.04488e-05
2.0864e-05
2.08676e-05
3.04553e-05
2.82457e-05
2.58015e-05
2.9951e-05
2.57354e-05
2.99457e-05
2.57508e-05
2.82538e-05
2.82459e-05
2.5804e-05
2.997e-05
2.57356e-05
2.99651e-05
2.57508e-05
2.8254e-05
2.53712e-05
2.51666e-05
2.58834e-05
2.53732e-05
2.516e-05
1.36171e-05
1.36121e-05
1.37934e-05
1.37952e-05
2.58779e-05
2.53804e-05
2.51614e-05
2.53834e-05
2.51726e-05
1.36119e-05
1.36215e-05
2.83016e-05
2.9758e-05
2.57625e-05
2.58209e-05
2.97786e-05
2.5759e-05
2.82946e-05
3.01355e-05
2.06026e-05
2.05682e-05
3.01231e-05
2.83007e-05
2.57625e-05
2.97488e-05
2.58198e-05
2.5759e-05
2.97699e-05
2.82931e-05
3.01394e-05
2.05394e-05
2.05803e-05
3.01469e-05
2.82818e-05
2.58144e-05
2.98051e-05
2.57326e-05
2.97926e-05
2.57508e-05
2.829e-05
3.01312e-05
2.0536e-05
2.05747e-05
3.01427e-05
2.82809e-05
2.58138e-05
2.5732e-05
2.97959e-05
2.57506e-05
2.97836e-05
2.82893e-05
3.01761e-05
2.04937e-05
2.04817e-05
3.01862e-05
2.83215e-05
2.57511e-05
2.98221e-05
2.58086e-05
2.57482e-05
2.98219e-05
2.83032e-05
3.01769e-05
2.05e-05
2.04869e-05
3.0186e-05
2.83032e-05
2.58018e-05
2.98298e-05
2.57207e-05
2.98235e-05
2.5737e-05
2.83099e-05
3.01816e-05
2.04786e-05
2.04936e-05
3.01757e-05
2.83037e-05
2.57998e-05
2.57215e-05
2.98206e-05
2.57379e-05
2.98198e-05
2.831e-05
3.01825e-05
2.04828e-05
2.04986e-05
3.01762e-05
2.51689e-05
2.54373e-05
2.58884e-05
2.51578e-05
2.54348e-05
1.38186e-05
1.38196e-05
1.36365e-05
1.36579e-05
2.58838e-05
2.51387e-05
2.54268e-05
2.51651e-05
2.54408e-05
1.38202e-05
1.3826e-05
2.82378e-05
2.57527e-05
2.99766e-05
2.58034e-05
2.82254e-05
2.57499e-05
2.99819e-05
3.0424e-05
2.09272e-05
3.04048e-05
2.09165e-05
3.04216e-05
2.08658e-05
3.04033e-05
2.08551e-05
2.82315e-05
2.58041e-05
2.57243e-05
2.99792e-05
2.57412e-05
2.99772e-05
2.82344e-05
2.82304e-05
2.57935e-05
2.57227e-05
2.99757e-05
2.5738e-05
2.99708e-05
2.82332e-05
3.04121e-05
2.0901e-05
2.09192e-05
3.04255e-05
3.04089e-05
2.08551e-05
2.08596e-05
3.04198e-05
1.36151e-05
1.36038e-05
1.37892e-05
1.3789e-05
2.58662e-05
2.51312e-05
2.53889e-05
2.51534e-05
2.53914e-05
1.35995e-05
1.36123e-05
1.37952e-05
1.37969e-05
1.38017e-05
1.37974e-05
1.36492e-05
1.36303e-05
2.53838e-05
2.51514e-05
2.58455e-05
2.53751e-05
2.51299e-05
1.38025e-05
1.38044e-05
1.36198e-05
1.36376e-05
2.58463e-05
2.53828e-05
2.5127e-05
2.53834e-05
2.51373e-05
3.04561e-05
2.08704e-05
3.04443e-05
2.08723e-05
2.82499e-05
2.99485e-05
2.5725e-05
2.57695e-05
2.82467e-05
2.99578e-05
2.57194e-05
2.82494e-05
2.99699e-05
2.57257e-05
2.57753e-05
2.82466e-05
2.99752e-05
2.57204e-05
3.04614e-05
2.09092e-05
2.09061e-05
3.04828e-05
3.04605e-05
2.08885e-05
2.08828e-05
3.04739e-05
2.82436e-05
2.57664e-05
2.99682e-05
2.57162e-05
2.99524e-05
2.57161e-05
2.8257e-05
2.82431e-05
2.57716e-05
2.99796e-05
2.5717e-05
2.99651e-05
2.57169e-05
2.82558e-05
2.53868e-05
2.51675e-05
2.58539e-05
2.53752e-05
2.5146e-05
1.36201e-05
1.36111e-05
1.38018e-05
1.38034e-05
2.58544e-05
2.53795e-05
2.5145e-05
2.53766e-05
2.51574e-05
1.35985e-05
1.36191e-05
2.82786e-05
2.98089e-05
2.57187e-05
2.57744e-05
2.82696e-05
2.98102e-05
2.57105e-05
3.01459e-05
2.05429e-05
3.01432e-05
2.05098e-05
2.82786e-05
2.57178e-05
2.97994e-05
2.57739e-05
2.82693e-05
2.57094e-05
2.97998e-05
3.01485e-05
2.05028e-05
2.05295e-05
3.01561e-05
2.82628e-05
2.5769e-05
2.98119e-05
2.57055e-05
2.98057e-05
2.57056e-05
2.8284e-05
3.0153e-05
2.04892e-05
2.0518e-05
3.01608e-05
2.82631e-05
2.57681e-05
2.5704e-05
2.9803e-05
2.57041e-05
2.97928e-05
2.82848e-05
3.01752e-05
2.04881e-05
3.01679e-05
2.04734e-05
2.83016e-05
2.57158e-05
2.98209e-05
2.57761e-05
2.82899e-05
2.57132e-05
2.98143e-05
3.01731e-05
2.04926e-05
3.01698e-05
2.04755e-05
2.82846e-05
2.57761e-05
2.98203e-05
2.57115e-05
2.98176e-05
2.5712e-05
2.83011e-05
3.01676e-05
2.04619e-05
2.04851e-05
3.0169e-05
2.82861e-05
2.5773e-05
2.57106e-05
2.98072e-05
2.57105e-05
2.98055e-05
2.83027e-05
3.01766e-05
2.04638e-05
2.04864e-05
3.01759e-05
2.51445e-05
2.54285e-05
2.58469e-05
2.51235e-05
2.54229e-05
1.38257e-05
1.38212e-05
1.36098e-05
1.36334e-05
2.58475e-05
2.51192e-05
2.54257e-05
2.5131e-05
2.54298e-05
1.38214e-05
1.38273e-05
2.82358e-05
2.57192e-05
2.99664e-05
2.57724e-05
2.82267e-05
2.57174e-05
2.99816e-05
3.04303e-05
2.09038e-05
3.0417e-05
2.09017e-05
3.0434e-05
2.08633e-05
3.04211e-05
2.08622e-05
2.82305e-05
2.57695e-05
2.57171e-05
2.99892e-05
2.57171e-05
2.99785e-05
2.82459e-05
2.82303e-05
2.57703e-05
2.5716e-05
2.99873e-05
2.57156e-05
2.99761e-05
2.82453e-05
3.04352e-05
2.09088e-05
2.09108e-05
3.04517e-05
3.04279e-05
2.08752e-05
2.08717e-05
3.04451e-05
1.36077e-05
1.35964e-05
1.38021e-05
1.37997e-05
2.58463e-05
2.51151e-05
2.54021e-05
2.51329e-05
2.54009e-05
1.35868e-05
1.36048e-05
1.38053e-05
1.38068e-05
1.38087e-05
1.37999e-05
1.36259e-05
1.35966e-05
2.53919e-05
2.51374e-05
2.58472e-05
2.53877e-05
2.51062e-05
1.37819e-05
1.38023e-05
1.35715e-05
1.3602e-05
2.58481e-05
2.5362e-05
2.50695e-05
2.5392e-05
2.51104e-05
3.04748e-05
2.08976e-05
3.04663e-05
2.0895e-05
2.82676e-05
2.99644e-05
2.57217e-05
2.57711e-05
2.82523e-05
2.99751e-05
2.57216e-05
2.82649e-05
2.99753e-05
2.57225e-05
2.5776e-05
2.82511e-05
2.99824e-05
2.57225e-05
3.04775e-05
2.08938e-05
2.09231e-05
3.04872e-05
3.04632e-05
2.08762e-05
2.08987e-05
3.04744e-05
2.82625e-05
2.57707e-05
2.99682e-05
2.57216e-05
2.99653e-05
2.57216e-05
2.82738e-05
2.82598e-05
2.57754e-05
2.99749e-05
2.57225e-05
2.99716e-05
2.57222e-05
2.82711e-05
2.53892e-05
2.51498e-05
2.58518e-05
2.5384e-05
2.51141e-05
1.36053e-05
1.35774e-05
1.37849e-05
1.3803e-05
2.58522e-05
2.53599e-05
2.50787e-05
2.53878e-05
2.51181e-05
1.35556e-05
1.35833e-05
2.82908e-05
2.98176e-05
2.57106e-05
2.57729e-05
2.82708e-05
2.98161e-05
2.57106e-05
3.01547e-05
2.04967e-05
3.01519e-05
2.04558e-05
2.8291e-05
2.57091e-05
2.97965e-05
2.57717e-05
2.82716e-05
2.57091e-05
2.97964e-05
3.01499e-05
2.04341e-05
2.04838e-05
3.01229e-05
2.82755e-05
2.57725e-05
2.9788e-05
2.57087e-05
2.98103e-05
2.57096e-05
2.82827e-05
3.01506e-05
2.04104e-05
2.04612e-05
3.01251e-05
2.82758e-05
2.57711e-05
2.57078e-05
2.97701e-05
2.5708e-05
2.97891e-05
2.82833e-05
3.01549e-05
2.04695e-05
3.0158e-05
2.04307e-05
2.83006e-05
2.57156e-05
2.97993e-05
2.5776e-05
2.82878e-05
2.57155e-05
2.97942e-05
3.01561e-05
2.04715e-05
3.01663e-05
2.04365e-05
2.82807e-05
2.57772e-05
2.97764e-05
2.57113e-05
2.98001e-05
2.57145e-05
2.82891e-05
3.0154e-05
2.03967e-05
2.04372e-05
3.0126e-05
2.82818e-05
2.57746e-05
2.5712e-05
2.97661e-05
2.57133e-05
2.97878e-05
2.82898e-05
3.01537e-05
2.04041e-05
2.04435e-05
3.01265e-05
2.51279e-05
2.54321e-05
2.58476e-05
2.50937e-05
2.54121e-05
1.3825e-05
1.38068e-05
1.3558e-05
1.35914e-05
2.58481e-05
2.50555e-05
2.53817e-05
2.5098e-05
2.54131e-05
1.37857e-05
1.3809e-05
2.8254e-05
2.57216e-05
2.99811e-05
2.57751e-05
2.82403e-05
2.57216e-05
2.99878e-05
3.04537e-05
2.09156e-05
3.04466e-05
2.08983e-05
3.04457e-05
2.08838e-05
3.04396e-05
2.08754e-05
2.82506e-05
2.57735e-05
2.57217e-05
2.9982e-05
2.57225e-05
2.99825e-05
2.82626e-05
2.82485e-05
2.57744e-05
2.57216e-05
2.99799e-05
2.57214e-05
2.99763e-05
2.82601e-05
3.04413e-05
2.08719e-05
2.09007e-05
3.04526e-05
3.04344e-05
2.08618e-05
2.08763e-05
3.04453e-05
1.35936e-05
1.35671e-05
1.38116e-05
1.3801e-05
2.58469e-05
2.50624e-05
2.53786e-05
2.50987e-05
2.54004e-05
1.35468e-05
1.35739e-05
1.379e-05
1.38045e-05
1.37836e-05
1.37644e-05
1.35764e-05
1.35484e-05
2.53632e-05
2.50732e-05
2.58405e-05
2.53345e-05
2.50334e-05
1.37542e-05
1.37671e-05
1.35384e-05
1.35552e-05
2.58409e-05
2.53139e-05
2.50101e-05
2.53356e-05
2.50381e-05
3.04663e-05
2.08767e-05
3.04622e-05
2.08571e-05
2.82753e-05
2.99585e-05
2.57264e-05
2.57724e-05
2.82681e-05
2.9959e-05
2.57261e-05
2.82724e-05
2.99647e-05
2.57274e-05
2.57765e-05
2.82654e-05
2.99656e-05
2.57272e-05
3.04712e-05
2.08518e-05
2.08735e-05
3.04683e-05
3.04535e-05
2.0845e-05
2.08577e-05
3.04608e-05
2.82671e-05
2.57704e-05
2.99409e-05
2.57227e-05
2.99467e-05
2.57238e-05
2.82681e-05
2.82645e-05
2.57747e-05
2.99522e-05
2.57232e-05
2.9953e-05
2.57245e-05
2.82662e-05
2.53606e-05
2.50828e-05
2.58451e-05
2.53287e-05
2.50453e-05
1.35621e-05
1.354e-05
1.37625e-05
1.37736e-05
2.5845e-05
2.53173e-05
2.50279e-05
2.53287e-05
2.50501e-05
1.35291e-05
1.35465e-05
2.82662e-05
2.9787e-05
2.57111e-05
2.57714e-05
2.82614e-05
2.97596e-05
2.57108e-05
3.00922e-05
2.04155e-05
3.01238e-05
2.03753e-05
2.82667e-05
2.57103e-05
2.97689e-05
2.57697e-05
2.82623e-05
2.571e-05
2.97404e-05
3.00836e-05
2.0378e-05
2.04079e-05
3.00684e-05
2.82455e-05
2.57684e-05
2.97404e-05
2.5708e-05
2.9757e-05
2.57083e-05
2.82529e-05
3.00919e-05
2.03547e-05
2.03827e-05
3.00712e-05
2.8246e-05
2.57669e-05
2.57074e-05
2.97198e-05
2.57076e-05
2.97372e-05
2.82531e-05
3.01032e-05
2.04036e-05
3.01243e-05
2.03697e-05
2.82756e-05
2.57142e-05
2.97645e-05
2.57732e-05
2.82695e-05
2.57138e-05
2.97406e-05
3.01036e-05
2.04115e-05
3.01255e-05
2.03781e-05
2.82538e-05
2.57722e-05
2.97311e-05
2.571e-05
2.97441e-05
2.57123e-05
2.82624e-05
3.01028e-05
2.03551e-05
2.03782e-05
3.00819e-05
2.82551e-05
2.57702e-05
2.57102e-05
2.97254e-05
2.57112e-05
2.97385e-05
2.82631e-05
3.01021e-05
2.03627e-05
2.03865e-05
3.00841e-05
2.50592e-05
2.53821e-05
2.58404e-05
2.50195e-05
2.53552e-05
1.3788e-05
1.37695e-05
1.35262e-05
1.35452e-05
2.58406e-05
2.49963e-05
2.53359e-05
2.50245e-05
2.53566e-05
1.37605e-05
1.37726e-05
2.82616e-05
2.57263e-05
2.99687e-05
2.57759e-05
2.82541e-05
2.57258e-05
2.99744e-05
3.04462e-05
2.08726e-05
3.04405e-05
2.08466e-05
3.04395e-05
2.08642e-05
3.04336e-05
2.08507e-05
2.82555e-05
2.57721e-05
2.57218e-05
2.99445e-05
2.5724e-05
2.9953e-05
2.82599e-05
2.82545e-05
2.57742e-05
2.57223e-05
2.99649e-05
2.57228e-05
2.99621e-05
2.82586e-05
3.04336e-05
2.08353e-05
2.08492e-05
3.04447e-05
3.04276e-05
2.08477e-05
2.08535e-05
3.04389e-05
1.35536e-05
1.35332e-05
1.37936e-05
1.37812e-05
2.58424e-05
2.50209e-05
2.53519e-05
2.50437e-05
2.53622e-05
1.35268e-05
1.35411e-05
1.37777e-05
1.37856e-05
1.37573e-05
1.37491e-05
1.35456e-05
1.35326e-05
2.53144e-05
2.5016e-05
2.5836e-05
2.5303e-05
2.4998e-05
1.37519e-05
1.37548e-05
1.35397e-05
1.35425e-05
2.58372e-05
2.53047e-05
2.50051e-05
2.53085e-05
2.50082e-05
3.04486e-05
2.08481e-05
3.04466e-05
2.08409e-05
2.82638e-05
2.9938e-05
2.57253e-05
2.57707e-05
2.82604e-05
2.99324e-05
2.57251e-05
2.82615e-05
2.9945e-05
2.57256e-05
2.57737e-05
2.82586e-05
2.99419e-05
2.57254e-05
3.04483e-05
2.08492e-05
2.08554e-05
3.04576e-05
3.04391e-05
2.08441e-05
2.0847e-05
3.04522e-05
2.82567e-05
2.57689e-05
2.99209e-05
2.57227e-05
2.99209e-05
2.57233e-05
2.82626e-05
2.82542e-05
2.57714e-05
2.99342e-05
2.57225e-05
2.99304e-05
2.57231e-05
2.82602e-05
2.53217e-05
2.50337e-05
2.58347e-05
2.53133e-05
2.50176e-05
1.35372e-05
1.35269e-05
1.37652e-05
1.37684e-05
2.58354e-05
2.53172e-05
2.50199e-05
2.53203e-05
2.50273e-05
1.35305e-05
1.35367e-05
2.82468e-05
2.97401e-05
2.57109e-05
2.57696e-05
2.82345e-05
2.97282e-05
2.57109e-05
3.0062e-05
2.03637e-05
3.0068e-05
2.03481e-05
2.82462e-05
2.57106e-05
2.97189e-05
2.57678e-05
2.82346e-05
2.57106e-05
2.97075e-05
3.00643e-05
2.03812e-05
2.03855e-05
3.00733e-05
2.82323e-05
2.57691e-05
2.97338e-05
2.57098e-05
2.97311e-05
2.57098e-05
2.82526e-05
3.00671e-05
2.03573e-05
2.03615e-05
3.00747e-05
2.82316e-05
2.5767e-05
2.5709e-05
2.97135e-05
2.57092e-05
2.97089e-05
2.82519e-05
3.00773e-05
2.03646e-05
3.00803e-05
2.03512e-05
2.82562e-05
2.57127e-05
2.97216e-05
2.57699e-05
2.82444e-05
2.57126e-05
2.97174e-05
3.00762e-05
2.03726e-05
3.00803e-05
2.03565e-05
2.82396e-05
2.57686e-05
2.97235e-05
2.57101e-05
2.97188e-05
2.57126e-05
2.82562e-05
3.00811e-05