/*--------------------------------*- C++ -*----------------------------------*\
| =========                 |                                                 |
| \\      /  F ield         | OpenFOAM: The Open Source CFD Toolbox           |
|  \\    /   O peration     | Version:  2206                                  |
|   \\  /    A nd           | Website:  www.openfoam.com                      |
|    \\/     M anipulation  |                                                 |
\*---------------------------------------------------------------------------*/
FoamFile
{
    version     2.0;
    format      ascii;
    arch        "LSB;label=32;scalar=64";
    class       volScalarField;
    location    "0.2";
    object      nut;
}
// * * * * * * * * * * * * * * * * * * * * * * * * * * * * * * * * * * * * * //

dimensions      [0 2 -1 0 0 0 0];

internalField   nonuniform List<scalar> 
66701
(
3.46461e-08
2.95891e-08
7.4787e-08
1.50074e-07
5.38668e-08
2.55631e-07
2.1752e-07
6.30883e-08
2.9571e-08
7.47126e-08
1.4994e-07
5.38397e-08
2.55626e-07
6.30861e-08
2.17437e-07
3.46251e-08
5.50405e-09
6.09194e-10
4.2815e-11
5.70815e-12
5.02312e-12
5.28857e-09
5.84408e-10
4.12238e-11
5.65932e-12
5.01403e-12
5.40875e-09
5.99996e-10
4.17448e-11
5.30944e-12
4.61455e-12
5.40442e-09
5.99537e-10
4.17157e-11
5.30775e-12
4.61373e-12
5.49999e-09
6.0883e-10
4.27974e-11
5.7092e-12
5.02457e-12
5.28566e-09
5.84031e-10
4.11994e-11
5.65759e-12
5.01291e-12
5.11707e-09
5.66518e-10
3.98833e-11
5.47797e-12
4.85307e-12
5.29074e-09
5.88041e-10
4.13504e-11
5.56872e-12
4.91153e-12
5.11491e-09
5.66282e-10
3.98692e-11
5.47788e-12
4.85331e-12
5.29065e-09
5.88034e-10
4.13501e-11
5.56864e-12
4.91143e-12
3.51647e-08
3.46437e-08
1.24097e-06
1.69817e-07
1.66804e-07
7.61697e-08
1.26356e-06
2.83981e-07
2.55646e-07
7.48004e-08
7.66702e-07
1.26208e-06
2.7953e-07
1.267e-06
2.55639e-07
7.47173e-08
7.6667e-07
1.26183e-06
1.26687e-06
2.79397e-07
3.46243e-08
1.24102e-06
1.66825e-07
3.47338e-08
1.01829e-07
3.12863e-08
3.10221e-08
1.01418e-07
3.12611e-08
3.09946e-08
2.24827e-07
6.99713e-08
4.50513e-07
1.70881e-07
2.2492e-07
7.01286e-08
4.49618e-07
2.24539e-07
6.85819e-08
4.4328e-07
1.67359e-07
2.2461e-07
6.87744e-08
4.39997e-07
5.4036e-08
2.17531e-07
6.31e-08
2.5575e-07
5.38814e-08
2.17817e-07
6.32761e-08
2.96762e-08
1.50087e-07
7.49956e-08
2.95952e-08
1.50511e-07
5.40089e-08
6.31003e-08
2.17447e-07
2.55747e-07
5.38554e-08
6.32743e-08
2.17739e-07
2.9658e-08
1.49944e-07
7.49196e-08
2.95749e-08
1.50377e-07
3.47138e-08
1.01857e-07
3.10098e-08
3.13378e-08
2.24339e-07
4.43002e-07
1.67373e-07
4.39647e-07
6.87392e-08
2.25177e-07
1.71632e-07
7.02437e-08
4.50792e-07
3.5375e-08
1.27065e-06
1.27345e-06
1.27346e-06
1.27515e-06
1.27071e-06
1.27348e-06
1.27355e-06
1.27513e-06
1.27345e-06
1.27515e-06
1.2735e-06
1.27513e-06
5.43606e-07
1.24107e-06
1.15443e-06
1.14895e-06
5.50676e-07
1.13705e-06
1.1219e-06
1.20677e-06
4.48662e-07
8.45152e-07
2.86141e-07
8.51849e-07
1.20342e-06
4.5168e-07
1.23361e-06
6.44592e-07
1.24277e-06
7.5443e-07
1.23463e-06
6.36023e-07
1.24215e-06
1.19887e-06
4.40129e-07
8.31722e-07
2.79509e-07
8.17859e-07
1.20026e-06
4.38005e-07
1.2332e-06
1.24263e-06
6.44416e-07
7.54419e-07
1.23426e-06
1.24201e-06
6.35959e-07
1.1982e-06
4.39842e-07
8.34088e-07
2.79373e-07
1.1996e-06
4.37771e-07
8.20258e-07
5.43757e-07
1.24098e-06
1.14076e-06
1.11389e-06
1.14635e-06
5.54782e-09
6.14251e-10
4.3142e-11
5.71797e-12
5.02452e-12
5.50238e-09
6.09033e-10
4.28057e-11
5.70731e-12
5.02253e-12
5.46912e-09
6.07099e-10
4.21996e-11
5.32243e-12
4.61588e-12
5.40887e-09
5.99968e-10
4.17406e-11
5.30862e-12
4.61384e-12
5.40369e-09
5.99448e-10
4.17081e-11
5.30721e-12
4.6134e-12
5.49885e-09
6.0869e-10
4.27902e-11
5.70892e-12
5.02453e-12
5.50327e-09
6.09243e-10
4.28246e-11
5.7117e-12
5.02667e-12
5.11691e-09
5.66534e-10
3.98867e-11
5.47893e-12
4.85404e-12
5.29104e-09
5.88006e-10
4.13483e-11
5.56817e-12
4.91105e-12
5.11793e-09
5.66539e-10
3.98852e-11
5.47771e-12
4.85273e-12
5.29046e-09
5.88054e-10
4.13553e-11
5.56958e-12
4.91214e-12
5.41164e-09
6.00373e-10
4.17729e-11
5.31486e-12
4.6197e-12
5.1148e-09
5.66304e-10
3.98732e-11
5.47896e-12
4.8544e-12
5.29112e-09
5.88018e-10
4.13492e-11
5.56819e-12
4.91102e-12
5.11596e-09
5.66326e-10
3.98731e-11
5.47782e-12
4.85314e-12
5.29041e-09
5.88054e-10
4.13554e-11
5.56952e-12
4.91205e-12
5.40696e-09
5.99877e-10
4.17418e-11
5.31333e-12
4.61909e-12
5.49946e-09
6.089e-10
4.28089e-11
5.71309e-12
5.02844e-12
5.45004e-09
6.04072e-10
4.20455e-11
5.36191e-12
4.66343e-12
5.54462e-09
6.13906e-10
4.31215e-11
5.71829e-12
5.02539e-12
5.15266e-09
5.70477e-10
4.04033e-11
5.68367e-12
5.06395e-12
5.44429e-09
6.0347e-10
4.20103e-11
5.36169e-12
4.66408e-12
5.44137e-09
6.03238e-10
4.19998e-11
5.36535e-12
4.66828e-12
5.12412e-09
5.67183e-10
4.01877e-11
5.67456e-12
5.06035e-12
5.3963e-09
5.98083e-10
4.16657e-11
5.34945e-12
4.6608e-12
5.39711e-09
5.98325e-10
4.16866e-11
5.35298e-12
4.66393e-12
5.14997e-09
5.70294e-10
4.03964e-11
5.68701e-12
5.06763e-12
5.12363e-09
5.67307e-10
4.02014e-11
5.67825e-12
5.0638e-12
5.28967e-09
5.84538e-10
4.12392e-11
5.6641e-12
5.01893e-12
5.28982e-09
5.84449e-10
4.12289e-11
5.65925e-12
5.01379e-12
5.2866e-09
5.84155e-10
4.12145e-11
5.66251e-12
5.01798e-12
5.286e-09
5.84038e-10
4.12029e-11
5.65772e-12
5.01294e-12
5.39588e-09
5.98205e-10
4.16801e-11
5.35421e-12
4.66546e-12
5.12626e-09
5.67535e-10
4.02106e-11
5.67828e-12
5.06374e-12
5.16021e-09
5.71278e-10
4.04504e-11
5.68611e-12
5.0653e-12
1.26442e-06
1.24206e-06
1.27261e-06
1.26463e-06
1.26484e-06
1.24295e-06
1.27106e-06
1.26291e-06
1.26407e-06
1.24207e-06
1.27068e-06
1.26279e-06
1.26388e-06
1.24207e-06
1.27075e-06
1.26266e-06
1.26394e-06
1.24198e-06
1.27077e-06
1.26239e-06
1.26387e-06
1.24171e-06
1.2708e-06
1.26238e-06
1.26392e-06
1.24175e-06
1.27079e-06
1.26232e-06
1.26394e-06
1.24178e-06
1.27078e-06
1.26236e-06
1.26393e-06
1.24177e-06
1.27078e-06
1.26233e-06
1.26393e-06
1.24178e-06
1.27079e-06
1.26234e-06
1.26393e-06
1.24177e-06
1.27078e-06
1.26234e-06
1.26393e-06
1.24177e-06
1.27078e-06
1.26236e-06
1.26393e-06
1.24177e-06
1.27078e-06
1.26234e-06
1.26393e-06
1.24177e-06
1.27078e-06
1.26236e-06
1.26394e-06
1.24177e-06
1.27078e-06
1.26234e-06
1.26392e-06
1.24177e-06
1.27074e-06
1.2634e-06
1.2642e-06
1.24338e-06
1.2431e-06
1.24211e-06
1.26416e-06
1.26406e-06
1.26541e-06
1.24283e-06
1.24244e-06
1.24226e-06
1.26452e-06
1.26545e-06
1.26451e-06
1.26487e-06
1.2438e-06
1.24258e-06
1.26312e-06
1.26298e-06
1.26376e-06
1.26361e-06
1.26438e-06
1.26334e-06
1.26314e-06
1.24267e-06
1.24228e-06
1.26551e-06
1.26469e-06
1.26445e-06
1.24198e-06
1.24222e-06
1.24161e-06
1.26391e-06
1.26428e-06
1.26355e-06
1.26385e-06
1.24275e-06
1.24175e-06
1.26309e-06
1.26293e-06
1.26256e-06
1.26236e-06
1.26274e-06
1.2628e-06
1.26257e-06
1.24225e-06
1.24166e-06
1.26413e-06
1.26386e-06
1.26402e-06
1.24186e-06
1.24219e-06
1.24161e-06
1.26371e-06
1.26397e-06
1.26376e-06
1.26403e-06
1.24226e-06
1.24175e-06
1.26268e-06
1.26247e-06
1.26265e-06
1.26243e-06
1.26266e-06
1.26278e-06
1.26255e-06
1.24222e-06
1.2416e-06
1.26416e-06
1.26397e-06
1.26418e-06
1.24186e-06
1.24213e-06
1.24125e-06
1.26377e-06
1.26406e-06
1.26368e-06
1.2639e-06
1.24229e-06
1.24113e-06
1.26262e-06
1.26242e-06
1.26249e-06
1.26226e-06
1.26252e-06
1.26247e-06
1.26234e-06
1.24212e-06
1.24124e-06
1.26421e-06
1.26389e-06
1.26416e-06
1.24156e-06
1.24179e-06
1.2412e-06
1.26369e-06
1.2639e-06
1.26366e-06
1.26382e-06
1.24148e-06
1.24104e-06
1.26251e-06
1.26229e-06
1.26257e-06
1.26233e-06
1.26233e-06
1.26239e-06
1.26232e-06
1.24178e-06
1.2412e-06
1.26419e-06
1.26393e-06
1.26419e-06
1.24154e-06
1.24177e-06
1.24127e-06
1.26371e-06
1.26386e-06
1.26369e-06
1.26379e-06
1.24161e-06
1.24083e-06
1.26267e-06
1.26243e-06
1.26262e-06
1.26241e-06
1.26234e-06
1.26233e-06
1.26233e-06
1.24176e-06
1.24127e-06
1.26422e-06
1.26395e-06
1.26422e-06
1.2416e-06
1.24182e-06
1.24125e-06
1.26372e-06
1.2638e-06
1.26368e-06
1.2638e-06
1.24135e-06
1.24097e-06
1.26264e-06
1.26245e-06
1.26262e-06
1.26243e-06
1.26234e-06
1.26235e-06
1.26233e-06
1.24183e-06
1.24129e-06
1.26424e-06
1.26394e-06
1.26421e-06
1.24158e-06
1.24181e-06
1.24126e-06
1.26372e-06
1.26384e-06
1.26369e-06
1.26378e-06
1.24155e-06
1.24083e-06
1.26263e-06
1.26245e-06
1.26262e-06
1.26242e-06
1.26235e-06
1.26237e-06
1.26233e-06
1.24184e-06
1.2413e-06
1.26424e-06
1.26394e-06
1.26421e-06
1.24159e-06
1.24182e-06
1.24125e-06
1.26373e-06
1.2638e-06
1.2637e-06
1.2638e-06
1.24134e-06
1.24094e-06
1.26264e-06
1.26245e-06
1.26262e-06
1.26242e-06
1.26235e-06
1.26234e-06
1.26233e-06
1.24185e-06
1.24129e-06
1.26424e-06
1.26394e-06
1.26421e-06
1.24158e-06
1.24181e-06
1.24126e-06
1.26373e-06
1.26384e-06
1.26369e-06
1.26378e-06
1.24152e-06
1.24083e-06
1.26264e-06
1.26244e-06
1.26263e-06
1.26242e-06
1.26235e-06
1.26236e-06
1.26233e-06
1.24184e-06
1.24129e-06
1.26424e-06
1.26394e-06
1.26421e-06
1.24158e-06
1.24182e-06
1.24126e-06
1.26373e-06
1.26381e-06
1.2637e-06
1.2638e-06
1.24135e-06
1.24099e-06
1.26265e-06
1.26245e-06
1.26263e-06
1.26242e-06
1.26234e-06
1.26235e-06
1.26233e-06
1.24185e-06
1.24129e-06
1.26424e-06
1.26393e-06
1.26421e-06
1.24158e-06
1.24182e-06
1.24126e-06
1.26373e-06
1.26384e-06
1.26369e-06
1.26379e-06
1.24157e-06
1.24083e-06
1.26264e-06
1.26245e-06
1.26263e-06
1.26242e-06
1.26235e-06
1.26236e-06
1.26233e-06
1.24184e-06
1.2413e-06
1.26423e-06
1.26394e-06
1.26421e-06
1.24158e-06
1.24182e-06
1.24125e-06
1.26373e-06
1.26381e-06
1.2637e-06
1.2638e-06
1.24135e-06
1.24099e-06
1.26264e-06
1.26245e-06
1.26263e-06
1.26242e-06
1.26235e-06
1.26235e-06
1.26233e-06
1.24185e-06
1.24129e-06
1.26424e-06
1.26395e-06
1.26421e-06
1.24158e-06
1.24181e-06
1.24125e-06
1.26373e-06
1.26384e-06
1.26369e-06
1.26378e-06
1.24157e-06
1.24084e-06
1.26264e-06
1.26244e-06
1.26263e-06
1.26242e-06
1.26235e-06
1.26237e-06
1.26232e-06
1.24184e-06
1.24129e-06
1.26424e-06
1.26394e-06
1.26421e-06
1.24157e-06
1.24182e-06
1.2412e-06
1.26371e-06
1.2638e-06
1.26212e-06
1.26227e-06
1.24136e-06
1.24088e-06
1.26264e-06
1.26244e-06
1.26306e-06
1.26292e-06
1.26234e-06
1.26256e-06
1.26282e-06
1.24185e-06
1.24172e-06
1.26423e-06
1.26421e-06
1.26446e-06
1.24197e-06
1.26223e-06
1.24118e-06
1.26326e-06
1.26308e-06
1.26287e-06
1.24336e-06
1.26454e-06
3.49798e-08
3.54077e-08
8.07853e-07
1.26815e-06
2.89078e-07
1.26457e-06
2.90861e-07
8.10206e-07
1.26831e-06
1.67857e-07
1.70765e-07
1.24253e-06
1.71501e-07
1.68189e-07
2.67265e-07
7.70147e-08
7.71168e-08
2.66903e-07
3.53442e-08
3.54108e-08
2.56538e-07
7.5411e-08
7.55714e-08
2.56247e-07
1.2728e-06
1.2725e-06
1.2728e-06
1.27181e-06
1.27184e-06
1.27175e-06
1.27175e-06
7.56498e-07
2.80893e-07
1.26897e-06
1.26453e-06
2.80967e-07
1.26874e-06
7.68715e-07
3.4856e-08
3.49645e-08
8.07399e-07
1.26951e-06
2.88719e-07
1.26527e-06
8.11409e-07
1.26945e-06
2.89076e-07
1.68123e-07
1.71092e-07
1.24276e-06
1.68575e-07
1.7152e-07
2.67744e-07
7.70182e-08
2.67396e-07
7.71437e-08
3.53801e-08
3.54449e-08
2.56711e-07
7.52477e-08
2.56585e-07
7.54171e-08
1.27116e-06
1.27105e-06
1.2711e-06
1.27066e-06
1.27069e-06
1.27059e-06
1.27068e-06
7.55753e-07
2.80959e-07
1.26711e-06
1.26284e-06
7.68432e-07
2.80889e-07
1.26705e-06
3.48489e-08
3.49246e-08
8.07831e-07
1.26792e-06
2.89024e-07
1.2639e-06
8.1172e-07
1.26786e-06
2.89254e-07
1.68002e-07
1.71257e-07
1.24178e-06
1.68424e-07
1.7164e-07
2.68057e-07
7.71048e-08
2.67808e-07
7.72226e-08
3.53972e-08
3.54417e-08
2.56738e-07
7.51249e-08
2.56706e-07
7.5256e-08
1.27082e-06
1.27074e-06
1.2708e-06
1.27075e-06
1.27082e-06
1.27074e-06
1.27079e-06
7.55639e-07
2.80834e-07
1.26706e-06
1.26285e-06
7.68041e-07
2.80672e-07
1.26715e-06
3.47849e-08
3.48236e-08
8.08736e-07
1.26795e-06
2.89215e-07
1.26402e-06
8.12629e-07
1.2681e-06
2.89333e-07
1.67888e-07
1.71376e-07
1.24187e-06
1.68231e-07
1.7171e-07
2.67986e-07
7.70167e-08
2.67854e-07
7.70462e-08
3.53467e-08
3.53745e-08
2.56079e-07
7.48557e-08
2.56249e-07
7.49676e-08
1.27085e-06
1.27077e-06
1.27082e-06
1.27075e-06
1.27082e-06
1.27076e-06
1.27082e-06
7.55033e-07
2.80379e-07
1.26702e-06
1.26265e-06
7.67704e-07
2.80103e-07
1.26703e-06
3.46505e-08
3.47013e-08
8.08973e-07
1.26817e-06
2.89048e-07
1.26397e-06
8.1315e-07
1.26822e-06
2.88976e-07
1.67524e-07
1.71173e-07
1.24162e-06
1.67848e-07
1.71435e-07
2.67807e-07
7.68655e-08
2.67662e-07
7.69607e-08
3.52896e-08
3.53411e-08
2.55816e-07
7.46632e-08
2.55758e-07
7.48635e-08
1.27085e-06
1.2708e-06
1.27085e-06
1.27083e-06
1.27084e-06
1.27082e-06
1.27085e-06
7.5456e-07
2.79928e-07
1.26698e-06
1.26242e-06
7.67087e-07
2.79828e-07
1.26704e-06
3.4576e-08
3.46649e-08
8.08818e-07
1.26817e-06
2.88665e-07
1.26393e-06
8.1304e-07
1.26825e-06
2.88699e-07
1.67256e-07
1.70999e-07
1.24145e-06
1.67713e-07
1.7134e-07
2.67853e-07
7.68665e-08
2.67588e-07
7.69719e-08
3.53024e-08
3.53585e-08
2.55999e-07
7.46901e-08
2.55852e-07
7.49174e-08
1.27086e-06
1.27086e-06
1.27088e-06
1.27079e-06
1.27082e-06
1.27085e-06
1.27086e-06
7.5466e-07
2.79908e-07
1.26698e-06
1.26242e-06
7.66978e-07
2.79908e-07
1.26699e-06
3.45916e-08
3.46919e-08
8.08891e-07
1.2682e-06
2.88636e-07
1.26397e-06
8.13041e-07
1.26823e-06
2.8879e-07
1.67351e-07
1.71026e-07
1.24155e-06
1.67818e-07
1.71366e-07
2.67869e-07
7.68546e-08
2.67616e-07
7.69652e-08
3.52877e-08
3.53443e-08
2.5596e-07
7.46735e-08
2.55906e-07
7.48927e-08
1.27085e-06
1.27087e-06
1.27088e-06
1.27077e-06
1.27083e-06
1.27085e-06
1.27086e-06
7.54572e-07
2.79848e-07
1.26696e-06
1.26235e-06
7.66965e-07
2.79808e-07
1.26698e-06
3.45916e-08
3.46855e-08
8.08926e-07
1.26822e-06
2.88637e-07
1.26397e-06
8.1312e-07
1.26824e-06
2.88784e-07
1.67304e-07
1.71034e-07
1.24154e-06
1.67759e-07
1.71363e-07
2.67881e-07
7.68714e-08
2.67621e-07
7.69765e-08
3.52975e-08
3.53556e-08
2.55999e-07
7.46916e-08
2.5591e-07
7.49009e-08
1.27085e-06
1.27087e-06
1.27089e-06
1.27078e-06
1.27083e-06
1.27085e-06
1.27086e-06
7.54602e-07
2.79894e-07
1.26696e-06
1.26242e-06
7.66967e-07
2.79868e-07
1.267e-06
3.45945e-08
3.46871e-08
8.08872e-07
1.2682e-06
2.8864e-07
1.26397e-06
8.13088e-07
1.26826e-06
2.88789e-07
1.6734e-07
1.71025e-07
1.24153e-06
1.67784e-07
1.71356e-07
2.67885e-07
7.68774e-08
2.6763e-07
7.69766e-08
3.52901e-08
3.53442e-08
2.5599e-07
7.46887e-08
2.5589e-07
7.49048e-08
1.27085e-06
1.27087e-06
1.27089e-06
1.27079e-06
1.27082e-06
1.27085e-06
1.27086e-06
7.54603e-07
2.79875e-07
1.26696e-06
1.26237e-06
7.66979e-07
2.79846e-07
1.26698e-06
3.45949e-08
3.46872e-08
8.08901e-07
1.2682e-06
2.88642e-07
1.26397e-06
8.13111e-07
1.26823e-06
2.88791e-07
1.67344e-07
1.7103e-07
1.24154e-06
1.6779e-07
1.71356e-07
2.67868e-07
7.68682e-08
2.67624e-07
7.69741e-08
3.52974e-08
3.53545e-08
2.55992e-07
7.46893e-08
2.55894e-07
7.49032e-08
1.27085e-06
1.27087e-06
1.27089e-06
1.27077e-06
1.27083e-06
1.27085e-06
1.27086e-06
7.5459e-07
2.79892e-07
1.26696e-06
1.26241e-06
7.66971e-07
2.79857e-07
1.26701e-06
3.45959e-08
3.46891e-08
8.08876e-07
1.26819e-06
2.88638e-07
1.26397e-06
8.13088e-07
1.26825e-06
2.88788e-07
1.67338e-07
1.71023e-07
1.24153e-06
1.6778e-07
1.71345e-07
2.67844e-07
7.68671e-08
2.676e-07
7.69696e-08
3.52898e-08
3.53444e-08
2.55994e-07
7.46876e-08
2.55895e-07
7.49022e-08
1.27085e-06
1.27087e-06
1.27089e-06
1.27078e-06
1.27082e-06
1.27085e-06
1.27086e-06
7.54599e-07
2.79877e-07
1.26696e-06
1.26236e-06
7.66984e-07
2.79841e-07
1.26698e-06
3.45943e-08
3.46866e-08
8.08906e-07
1.2682e-06
2.88636e-07
1.26397e-06
8.13081e-07
1.26823e-06
2.88783e-07
1.67337e-07
1.71026e-07
1.24154e-06
1.67773e-07
1.71346e-07
2.67827e-07
7.68636e-08
2.67585e-07
7.69682e-08
3.53011e-08
3.53583e-08
2.55993e-07
7.46894e-08
2.55899e-07
7.49022e-08
1.27085e-06
1.27088e-06
1.27089e-06
1.27079e-06
1.27083e-06
1.27085e-06
1.27086e-06
7.54592e-07
2.79902e-07
1.26696e-06
1.26242e-06
7.66981e-07
2.79863e-07
1.26702e-06
3.45939e-08
3.46876e-08
8.08893e-07
1.26819e-06
2.8863e-07
1.26397e-06
8.13084e-07
1.26822e-06
2.88777e-07
1.67333e-07
1.71024e-07
1.24152e-06
1.67769e-07
1.71344e-07
2.67844e-07
7.68706e-08
2.67581e-07
7.69702e-08
3.52928e-08
3.53454e-08
2.55993e-07
7.46895e-08
2.55899e-07
7.49007e-08
1.27085e-06
1.27087e-06
1.27089e-06
1.27078e-06
1.27083e-06
1.27085e-06
1.27086e-06
7.54631e-07
2.79883e-07
1.26696e-06
1.26237e-06
7.66975e-07
2.79837e-07
1.26699e-06
3.45941e-08
3.4685e-08
8.08956e-07
1.26819e-06
2.88628e-07
1.26397e-06
8.13067e-07
1.26824e-06
2.88778e-07
1.67333e-07
1.71016e-07
1.24154e-06
1.67768e-07
1.7133e-07
2.67939e-07
7.68784e-08
2.67573e-07
7.69599e-08
3.53073e-08
3.5353e-08
2.55992e-07
7.46885e-08
2.55901e-07
7.48975e-08
1.27086e-06
1.27088e-06
1.27089e-06
1.27078e-06
1.27083e-06
1.27085e-06
1.27086e-06
7.54819e-07
2.79896e-07
1.26697e-06
1.26242e-06
7.66863e-07
2.79864e-07
1.26702e-06
3.45945e-08
3.46856e-08
8.09069e-07
1.26821e-06
2.88637e-07
1.26398e-06
8.13031e-07
1.26823e-06
2.88789e-07
1.6734e-07
1.71012e-07
1.24152e-06
1.67773e-07
1.71325e-07
2.66182e-07
7.6878e-08
2.67401e-07
7.69417e-08
3.53073e-08
3.53645e-08
2.55965e-07
7.46996e-08
2.55906e-07
7.48875e-08
1.27085e-06
1.27087e-06
1.27089e-06
1.27075e-06
1.27068e-06
1.27101e-06
1.27102e-06
7.55181e-07
2.79884e-07
1.26696e-06
1.26237e-06
7.66569e-07
2.79813e-07
1.26698e-06
3.45998e-08
3.46798e-08
8.09178e-07
1.26819e-06
2.88657e-07
1.26397e-06
8.12938e-07
1.26826e-06
2.88762e-07
1.67363e-07
1.71038e-07
1.24159e-06
1.67749e-07
1.71328e-07
3.50141e-08
7.52378e-08
2.58145e-07
1.27063e-06
1.27114e-06
1.27115e-06
2.82231e-07
1.26749e-06
7.81334e-07
3.48328e-08
1.26831e-06
2.90374e-07
8.13221e-07
1.6862e-07
1.71943e-07
1.68765e-07
1.7215e-07
1.24546e-06
1.73624e-07
1.71372e-07
3.55293e-08
3.56263e-08
3.4932e-08
3.51409e-08
1.24442e-06
1.68294e-07
1.72135e-07
1.73067e-07
1.69961e-07
3.54365e-08
3.5542e-08
8.07648e-07
1.26812e-06
2.87684e-07
1.26443e-06
2.88318e-07
8.10231e-07
1.26828e-06
2.66349e-07
7.73276e-08
7.75439e-08
2.65645e-07
2.66276e-07
7.69171e-08
7.70142e-08
2.65619e-07
8.10106e-07
1.2644e-06
1.26923e-06
2.88718e-07
2.90564e-07
8.06138e-07
1.26879e-06
8.10211e-07
1.26488e-06
1.26925e-06
2.8867e-07
2.88249e-07
8.06064e-07
1.26873e-06
2.66258e-07
7.7197e-08
7.74491e-08
2.66669e-07
2.66233e-07
7.70097e-08
7.69169e-08
2.66656e-07
3.4753e-08
3.48493e-08
3.53303e-08
3.54023e-08
1.24314e-06
1.68574e-07
1.7141e-07
1.71221e-07
1.67765e-07
3.48912e-08
3.47703e-08
3.53822e-08
3.5352e-08
3.53356e-08
3.54167e-08
3.4855e-08
3.49631e-08
1.71533e-07
1.67736e-07
1.24273e-06
1.71956e-07
1.68246e-07
3.54377e-08
3.53733e-08
3.4951e-08
3.48715e-08
1.24315e-06
1.72019e-07
1.68233e-07
1.7163e-07
1.67788e-07
2.6726e-07
7.68987e-08
7.70051e-08
2.66907e-07
8.08005e-07
2.88389e-07
1.26961e-06
1.26494e-06
2.8879e-07
1.26964e-06
8.11759e-07
8.07931e-07
2.88422e-07
1.26966e-06
1.26557e-06
2.887e-07
1.26966e-06
8.11785e-07
2.67133e-07
7.71129e-08
7.70225e-08
2.67556e-07
2.67154e-07
7.70231e-08
7.69119e-08
2.67519e-07
8.12232e-07
1.26509e-06
2.88905e-07
1.26877e-06
2.88644e-07
1.26949e-06
8.0825e-07
8.12301e-07
1.26551e-06
2.88783e-07
1.26879e-06
2.88481e-07
1.26951e-06
8.08191e-07
1.71111e-07
1.68102e-07
1.24367e-06
1.71549e-07
1.6861e-07
3.47925e-08
3.48951e-08
3.54237e-08
3.5366e-08
1.2439e-06
1.71617e-07
1.68632e-07
1.71223e-07
1.68141e-07
3.48971e-08
3.48028e-08
7.56201e-07
2.80198e-07
1.26858e-06
1.26385e-06
2.80467e-07
1.26881e-06
7.6853e-07
2.56572e-07
7.53769e-08
7.55475e-08
2.56238e-07
7.56193e-07
1.26856e-06
2.80148e-07
1.26366e-06
1.26878e-06
2.80421e-07
7.6851e-07
2.56416e-07
7.54733e-08
7.53442e-08
2.56704e-07
7.68388e-07
1.26424e-06
2.80705e-07
1.268e-06
2.80541e-07
1.26879e-06
7.55698e-07
2.5634e-07
7.5456e-08
7.53192e-08
2.56664e-07
7.68378e-07
1.26407e-06
1.26793e-06
2.80655e-07
1.26875e-06
2.80489e-07
7.55734e-07
2.569e-07
7.50564e-08
7.527e-08
2.56783e-07
7.5653e-07
1.26892e-06
2.80833e-07
1.26427e-06
1.26871e-06
2.80906e-07
7.68773e-07
2.56902e-07
7.50731e-08
7.52839e-08
2.56779e-07
7.6874e-07
1.26409e-06
2.80963e-07
1.26752e-06
2.80854e-07
1.26823e-06
7.56144e-07
2.56745e-07
7.52608e-08
7.50553e-08
2.56894e-07
7.68805e-07
1.26389e-06
1.26746e-06
2.80886e-07
1.26826e-06
2.80822e-07
7.56194e-07
2.56751e-07
7.52703e-08
7.50668e-08
2.56894e-07
1.67836e-07
1.71787e-07
1.24259e-06
1.68361e-07
1.72237e-07
3.54072e-08
3.5485e-08
3.49419e-08
3.48716e-08
1.24301e-06
1.68269e-07
1.72229e-07
1.67876e-07
1.71876e-07
3.54948e-08
3.54381e-08
8.07353e-07
1.26943e-06
2.88491e-07
1.26543e-06
8.11272e-07
1.26936e-06
2.88727e-07
2.6711e-07
7.70989e-08
2.66657e-07
7.71997e-08
2.6709e-07
7.69041e-08
2.6665e-07
7.69866e-08
8.11517e-07
1.26533e-06
1.26829e-06
2.89126e-07
1.26901e-06
2.88884e-07
8.07514e-07
8.11507e-07
1.26514e-06
1.26819e-06
2.88764e-07
1.2689e-06
2.88504e-07
8.07458e-07
2.66797e-07
7.7158e-08
7.70956e-08
2.67231e-07
2.66774e-07
7.69913e-08
7.68845e-08
2.67187e-07
3.47985e-08
3.48821e-08
3.53381e-08
3.54046e-08
1.243e-06
1.68483e-07
1.71603e-07
1.68094e-07
1.71187e-07
3.4871e-08
3.47893e-08
3.54221e-08
3.5359e-08
3.53891e-08
3.54472e-08
3.48552e-08
3.49276e-08
1.71621e-07
1.67729e-07
1.24162e-06
1.71986e-07
1.68137e-07
3.54606e-08
3.53994e-08
3.4903e-08
3.48321e-08
1.24216e-06
1.72045e-07
1.68105e-07
1.7164e-07
1.67641e-07
2.67661e-07
7.69263e-08
2.67245e-07
7.7053e-08
8.08379e-07
2.88757e-07
1.26815e-06
1.26359e-06
8.12449e-07
2.89053e-07
1.26788e-06
8.08304e-07
2.88621e-07
1.2682e-06
1.26401e-06
8.12524e-07
2.88924e-07
1.26794e-06
2.67508e-07
7.7191e-08
7.70621e-08
2.67984e-07
2.67514e-07
7.71131e-08
7.69716e-08
2.67903e-07
8.12616e-07
1.26353e-06
2.89191e-07
1.26782e-06
2.88864e-07
1.26779e-06
8.08804e-07
8.12664e-07
1.26385e-06
2.8901e-07
1.26786e-06
2.88689e-07
1.26783e-06
8.08694e-07
1.71291e-07
1.68097e-07
1.24212e-06
1.71714e-07
1.6843e-07
3.47992e-08
3.48842e-08
3.54461e-08
3.53862e-08
1.24254e-06
1.71653e-07
1.68515e-07
1.71242e-07
1.6803e-07
3.48645e-08
3.48e-08
7.55284e-07
2.80681e-07
1.26725e-06
1.26271e-06
7.67869e-07
2.80733e-07
1.26687e-06
2.56733e-07
7.52256e-08
2.56481e-07
7.53726e-08
7.55347e-07
1.26717e-06
2.80625e-07
1.26254e-06
7.67895e-07
1.26677e-06
2.8067e-07
2.56567e-07
7.53523e-08
7.51911e-08
2.56828e-07
7.67605e-07
1.26256e-06
2.80706e-07
1.26674e-06
2.80625e-07
1.26672e-06
7.55416e-07
2.566e-07
7.52963e-08
7.5143e-08
2.56864e-07
7.67649e-07
1.26236e-06
1.26663e-06
2.80653e-07
1.26662e-06
2.80534e-07
7.55491e-07
2.56881e-07
7.50376e-08
2.56622e-07
7.52458e-08
7.55837e-07
1.26708e-06
2.80822e-07
1.26263e-06
7.68372e-07
1.26697e-06
2.80815e-07
2.56857e-07
7.50471e-08
2.56638e-07
7.52463e-08
7.68021e-07
1.26282e-06
2.80855e-07
1.26705e-06
2.80771e-07
1.267e-06
7.55628e-07
2.56612e-07
7.52042e-08
7.50303e-08
2.56824e-07
7.68125e-07
1.26256e-06
1.26696e-06
2.80739e-07
1.26692e-06
2.80665e-07
7.55723e-07
2.56688e-07
7.52047e-08
7.5027e-08
2.56877e-07
1.67767e-07
1.71836e-07
1.24166e-06
1.68177e-07
1.72232e-07
3.54448e-08
3.55015e-08
3.48835e-08
3.48275e-08
1.2422e-06
1.68132e-07
1.72253e-07
1.6768e-07
1.71866e-07
3.55019e-08
3.54515e-08
8.078e-07
1.26792e-06
2.8856e-07
1.26403e-06
8.11667e-07
1.26784e-06
2.88912e-07
2.67406e-07
7.70523e-08
2.66963e-07
7.7167e-08
2.67444e-07
7.69019e-08
2.67007e-07
7.70178e-08
8.12058e-07
1.26383e-06
1.26793e-06
2.89329e-07
1.26785e-06
2.89052e-07
8.08341e-07
8.12051e-07
1.26401e-06
1.26786e-06
2.89016e-07
1.26783e-06
2.88736e-07
8.08287e-07
2.67247e-07
7.71912e-08
7.70817e-08
2.67679e-07
2.67191e-07
7.70643e-08
7.69323e-08
2.67624e-07
3.4778e-08
3.48642e-08
3.53734e-08
3.5433e-08
1.24237e-06
1.68376e-07
1.71724e-07
1.67952e-07
1.71302e-07
3.48407e-08
3.47718e-08
3.54468e-08
3.5385e-08
3.54105e-08
3.5453e-08
3.48033e-08
3.4843e-08
1.71696e-07
1.67624e-07
1.24178e-06
1.72067e-07
1.67938e-07
3.54065e-08
3.53935e-08
3.47787e-08
3.47416e-08
1.24228e-06
1.71876e-07
1.67667e-07
1.71683e-07
1.67415e-07
2.67946e-07
7.70253e-08
2.67636e-07
7.71364e-08
8.09173e-07
2.88999e-07
1.26799e-06
1.26372e-06
8.13066e-07
2.89249e-07
1.26799e-06
8.09011e-07
2.88823e-07
1.26802e-06
1.26399e-06
8.13078e-07
2.89053e-07
1.26803e-06
2.67747e-07
7.71289e-08
7.712e-08
2.68062e-07
2.67635e-07
7.70662e-08
7.70291e-08
2.67948e-07
8.13396e-07
1.26376e-06
2.89153e-07
1.2681e-06
2.88987e-07
1.26807e-06
8.09335e-07
8.13359e-07
1.26405e-06
2.88989e-07
1.26815e-06
2.88791e-07
1.26811e-06
8.09175e-07
1.71312e-07
1.67998e-07
1.24179e-06
1.71683e-07
1.68304e-07
3.47667e-08
3.48105e-08
3.53998e-08
3.53842e-08
1.24233e-06
1.71506e-07
1.68064e-07
1.71309e-07
1.67775e-07
3.47549e-08
3.4709e-08
7.55578e-07
2.80688e-07
1.2669e-06
1.26269e-06
7.67822e-07
2.80678e-07
1.2669e-06
2.56765e-07
7.50626e-08
2.56583e-07
7.5169e-08
7.55635e-07
1.26678e-06
2.80515e-07
1.26249e-06
7.67873e-07
1.26679e-06
2.80519e-07
2.56518e-07
7.50926e-08
7.50178e-08
2.56439e-07
7.67926e-07
1.26274e-06
2.80343e-07
1.26691e-06
2.80547e-07
1.26693e-06
7.55291e-07
2.56517e-07
7.49992e-08
7.49279e-08
2.56453e-07
7.67965e-07
1.26253e-06
1.26682e-06
2.80198e-07
1.26681e-06
2.8037e-07
7.55352e-07
2.56696e-07
7.49737e-08
2.56527e-07
7.50881e-08
7.55694e-07
1.26711e-06
2.80601e-07
1.26265e-06
7.68064e-07
1.26711e-06
2.80617e-07
2.567e-07
7.49736e-08
2.56596e-07
7.51042e-08
7.6787e-07
1.26284e-06
2.80415e-07
1.26705e-06
2.80597e-07
1.26712e-06
7.55367e-07
2.56484e-07
7.49608e-08
7.48539e-08
2.5644e-07
7.67949e-07
1.26265e-06
1.26703e-06
2.8035e-07
1.26708e-06
2.80494e-07
7.55439e-07
2.56481e-07
7.4983e-08
7.487e-08
2.56439e-07
1.67638e-07
1.71879e-07
1.24178e-06
1.67931e-07
1.72145e-07
3.54451e-08
3.54632e-08
3.47503e-08
3.47208e-08
1.24228e-06
1.67649e-07
1.71918e-07
1.67408e-07
1.71731e-07
3.54084e-08
3.54029e-08
8.08625e-07
1.26804e-06
2.88824e-07
1.26416e-06
8.12529e-07
1.26804e-06
2.89037e-07
2.67731e-07
7.70963e-08
2.67416e-07
7.71484e-08
2.67663e-07
7.69752e-08
2.67362e-07
7.70634e-08
8.12919e-07
1.26403e-06
1.26816e-06
2.89215e-07
1.26812e-06
2.89088e-07
8.08928e-07
8.12834e-07
1.2642e-06
1.26814e-06
2.8895e-07
1.26811e-06
2.88786e-07
8.08812e-07
2.67393e-07
7.70478e-08
7.70378e-08
2.67726e-07
2.67342e-07
7.70111e-08
7.69459e-08
2.67665e-07
3.47439e-08
3.479e-08
3.53965e-08
3.5435e-08
1.24241e-06
1.68019e-07
1.71554e-07
1.67724e-07
1.713e-07
3.47368e-08
3.4693e-08
3.54065e-08
3.53779e-08
3.53451e-08
3.53613e-08
3.46765e-08
3.47197e-08
1.71472e-07
1.67143e-07
1.24145e-06
1.71677e-07
1.67409e-07
3.5335e-08
3.53026e-08
3.4694e-08
3.46225e-08
1.24193e-06
1.7153e-07
1.67244e-07
1.71274e-07
1.66895e-07
2.67872e-07
7.69463e-08
2.67628e-07
7.69926e-08
8.09408e-07
2.88894e-07
1.26823e-06
1.26378e-06
8.13552e-07
2.89042e-07
1.26822e-06
8.09245e-07
2.88712e-07
1.26828e-06
1.26404e-06
8.13526e-07
2.88898e-07
1.26828e-06
2.67686e-07
7.69718e-08
7.69336e-08
2.67886e-07
2.67547e-07
7.69484e-08
7.68745e-08
2.67818e-07
8.13559e-07
1.26375e-06
2.88851e-07
1.26815e-06
2.88761e-07
1.26817e-06
8.09234e-07
8.13533e-07
1.264e-06
2.88754e-07
1.26818e-06
2.88614e-07
1.26822e-06
8.091e-07
1.71137e-07
1.67514e-07
1.24162e-06
1.714e-07
1.67728e-07
3.46523e-08
3.47012e-08
3.53422e-08
3.53072e-08
1.24203e-06
1.71218e-07
1.67696e-07
1.70915e-07
1.67282e-07
3.46847e-08
3.46133e-08
7.54824e-07
2.80265e-07
1.26692e-06
1.2626e-06
7.67476e-07
2.80034e-07
1.26691e-06
2.56131e-07
7.4758e-08
2.56231e-07
7.48689e-08
7.54876e-07
1.26684e-06
2.80114e-07
1.2624e-06
7.67527e-07
1.26683e-06
2.79876e-07
2.55861e-07
7.48848e-08
7.47365e-08
2.55915e-07
7.67031e-07
1.26254e-06
2.79831e-07
1.26686e-06
2.79946e-07
1.26686e-06
7.54452e-07
2.55924e-07
7.47928e-08
7.46372e-08
2.55933e-07
7.67063e-07
1.26233e-06
1.2668e-06
2.79661e-07
1.26679e-06
2.79779e-07
7.54496e-07
2.56239e-07
7.4728e-08
2.56223e-07
7.48595e-08
7.55112e-07
1.26704e-06
2.80272e-07
1.2625e-06
7.67652e-07
1.26702e-06
2.80108e-07
2.56237e-07
7.47506e-08
2.56232e-07
7.48854e-08
7.67243e-07
1.26262e-06
2.79969e-07
1.26699e-06
2.80032e-07
1.26701e-06
7.54741e-07
2.56034e-07
7.48038e-08
7.46325e-08
2.56051e-07
7.67324e-07
1.26243e-06
1.26694e-06
2.79959e-07
1.26697e-06
2.80024e-07
7.54802e-07
2.56025e-07
7.48273e-08
7.46572e-08
2.56063e-07
1.67124e-07
1.71502e-07
1.24144e-06
1.67391e-07
1.71726e-07
3.53485e-08
3.53665e-08
3.46692e-08
3.46031e-08
1.24193e-06
1.67228e-07
1.71589e-07
1.66879e-07
1.71319e-07
3.53437e-08
3.53092e-08
8.08864e-07
1.26827e-06
2.88698e-07
1.26421e-06
8.13011e-07
1.26825e-06
2.88883e-07
2.67666e-07
7.69312e-08
2.67387e-07
7.69528e-08
2.67613e-07
7.68994e-08
2.67337e-07
7.69691e-08
8.1308e-07
1.26396e-06
1.26817e-06
2.88814e-07
1.26819e-06
2.88749e-07
8.08849e-07
8.13033e-07
1.26419e-06
1.26818e-06
2.88784e-07
1.26818e-06
2.88622e-07
8.08776e-07
2.67323e-07
7.69107e-08
7.68437e-08
2.6765e-07
2.67282e-07
7.6958e-08
7.68591e-08
2.67605e-07
3.46399e-08
3.47004e-08
3.53495e-08
3.5384e-08
1.24218e-06
1.67729e-07
1.71363e-07
1.67346e-07
1.71025e-07
3.46833e-08
3.46067e-08
3.53754e-08
3.53294e-08
3.52772e-08
3.53218e-08
3.4598e-08
3.46794e-08
1.71124e-07
1.6674e-07
1.24123e-06
1.71452e-07
1.67161e-07
3.53293e-08
3.52706e-08
3.46979e-08
3.45903e-08
1.24175e-06
1.71465e-07
1.67211e-07
1.71084e-07
1.66688e-07
2.67708e-07
7.68389e-08
2.67483e-07
7.69323e-08
8.09115e-07
2.88668e-07
1.26817e-06
1.26369e-06
8.13395e-07
2.88759e-07
1.26817e-06
8.08973e-07
2.8852e-07
1.26819e-06
1.26389e-06
8.13407e-07
2.8865e-07
1.26819e-06
2.67481e-07
7.69637e-08
7.68662e-08
2.67791e-07
2.67416e-07
7.69444e-08
7.68343e-08
2.6774e-07
8.13299e-07
1.26367e-06
2.88642e-07
1.26815e-06
2.88504e-07
1.26815e-06
8.09081e-07
8.13288e-07
1.26385e-06
2.88583e-07
1.26815e-06
2.88359e-07
1.26815e-06
8.0893e-07
1.70839e-07
1.67189e-07
1.24098e-06
1.71186e-07
1.67627e-07
3.45907e-08
3.46791e-08
3.53471e-08
3.5294e-08
1.24153e-06
1.71203e-07
1.67651e-07
1.70829e-07
1.67141e-07
3.46894e-08
3.45883e-08
7.54281e-07
2.7977e-07
1.26691e-06
1.26252e-06
7.66709e-07
2.79711e-07
1.26691e-06
2.5585e-07
7.45672e-08
2.55706e-07
7.47684e-08
7.54305e-07
1.26686e-06
2.7959e-07
1.26229e-06
7.66737e-07
1.26686e-06
2.7954e-07
2.55683e-07
7.48975e-08
7.46541e-08
2.5596e-07
7.66638e-07
1.26257e-06
2.79767e-07
1.26696e-06
2.79683e-07
1.26694e-06
7.54413e-07
2.55699e-07
7.48029e-08
7.45592e-08
2.55965e-07
7.66644e-07
1.26233e-06
1.26688e-06
2.79599e-07
1.26687e-06
2.79493e-07
7.54436e-07
2.56008e-07
7.45814e-08
2.55835e-07
7.47892e-08
7.54615e-07
1.26696e-06
2.79859e-07
1.26234e-06
7.67043e-07
1.26696e-06
2.79879e-07
2.55992e-07
7.4605e-08
2.55832e-07
7.48039e-08
7.66862e-07
1.26241e-06
2.79886e-07
1.26699e-06
2.79792e-07
1.26703e-06
7.54555e-07