/*--------------------------------*- C++ -*----------------------------------*\
| =========                 |                                                 |
| \\      /  F ield         | OpenFOAM: The Open Source CFD Toolbox           |
|  \\    /   O peration     | Version:  2206                                  |
|   \\  /    A nd           | Website:  www.openfoam.com                      |
|    \\/     M anipulation  |                                                 |
\*---------------------------------------------------------------------------*/
FoamFile
{
    version     2.0;
    format      ascii;
    arch        "LSB;label=32;scalar=64";
    class       volScalarField;
    location    "300";
    object      div(phi);
}
// * * * * * * * * * * * * * * * * * * * * * * * * * * * * * * * * * * * * * //

dimensions      [0 0 -1 0 0 0 0];

internalField   nonuniform List<scalar> 
10720
(
1.54717e-06
-1.85964e-06
7.05459e-07
-1.43252e-06
3.11974e-07
-9.61193e-08
8.73193e-07
6.64411e-07
2.61919e-07
-2.19727e-07
-3.90107e-07
-5.7444e-07
-5.27017e-07
-4.89977e-07
-3.20433e-07
-2.88976e-07
-1.94935e-07
-2.62125e-07
-1.25087e-07
-1.75209e-07
2.21828e-07
2.32678e-07
9.76251e-07
4.38408e-06
7.22296e-06
-9.86329e-06
4.61516e-06
7.73882e-06
-1.42941e-06
-7.96689e-06
6.92866e-06
7.61254e-06
1.62742e-06
5.85678e-06
4.33742e-06
8.3338e-06
1.1247e-05
3.31437e-05
0.000407026
-1.71844e-06
8.81626e-07
-6.77431e-07
1.09472e-07
-1.13273e-07
4.61122e-09
6.47683e-08
4.40896e-08
-1.38727e-07
-1.01314e-08
4.72596e-10
1.3739e-07
1.3153e-07
1.87382e-07
1.3581e-07
1.57087e-07
9.99988e-08
1.42007e-07
5.21086e-08
1.07037e-07
-9.60623e-08
-7.11215e-08
-5.40716e-07
-6.68934e-07
-6.81063e-07
-6.38917e-07
-3.52983e-07
-1.11867e-07
-5.66e-07
-1.1672e-06
-7.62582e-07
2.03e-07
-1.42897e-06
-3.61338e-06
1.0062e-06
3.5545e-06
-6.9433e-06
3.21828e-06
-7.17086e-06
6.17725e-07
-5.93316e-07
4.3325e-07
-1.00808e-06
5.50473e-07
3.00609e-07
8.88472e-07
6.1254e-07
7.88046e-08
-2.79236e-07
-4.43726e-07
-5.83864e-07
-4.82794e-07
-4.27538e-07
-2.44727e-07
-2.31528e-07
-1.14933e-07
-1.49601e-07
-2.24253e-09
-8.45814e-09
2.62546e-07
2.19551e-07
5.38944e-07
1.05865e-06
1.88879e-06
-2.53128e-07
2.20144e-06
3.42547e-06
4.96695e-07
-2.53042e-06
4.7857e-06
4.38538e-06
1.9751e-06
4.60897e-06
4.92869e-06
7.55247e-06
1.0888e-05
2.97517e-05
0.00023773
-1.6105e-07
4.35458e-07
-3.46749e-07
9.55257e-08
-1.47243e-07
6.28671e-08
9.01848e-08
-9.7978e-09
-9.22533e-08
-3.97559e-08
2.74456e-09
1.09389e-07
1.16257e-07
1.69543e-07
1.27539e-07
1.60053e-07
1.11863e-07
1.49183e-07
7.48601e-08
9.19202e-08
-7.21963e-08
-1.26062e-07
-5.23495e-07
-6.79954e-07
-8.05245e-07
-7.362e-07
-5.49591e-07
-2.3859e-07
-4.89052e-07
-1.04724e-06
-7.803e-07
-9.26938e-09
-7.51202e-07
-2.98857e-06
-2.70479e-07
2.27557e-06
-6.55018e-06
4.02482e-06
-5.92537e-06
-1.74628e-06
1.08412e-06
-1.22798e-06
7.86132e-07
-4.29354e-08
9.35599e-07
8.36445e-07
3.47018e-07
-7.52733e-08
-3.26762e-07
-5.55449e-07
-5.53805e-07
-5.75238e-07
-4.25987e-07
-3.72135e-07
-2.76519e-07
-2.67083e-07
-2.51957e-07
-2.20588e-07
-1.82581e-07
-1.51638e-09
1.03079e-07
3.60138e-07
1.59725e-06
2.50691e-06
-4.33851e-06
1.93602e-06
4.18122e-06
-1.23117e-06
-5.42768e-06
4.03933e-06
4.16595e-06
5.38964e-07
2.93797e-06
1.50114e-06
3.39556e-06
3.81748e-06
8.25477e-06
0.000121197
1.13073e-06
-6.49394e-07
3.03509e-07
-2.45616e-07
8.1205e-08
5.625e-08
8.1867e-08
-5.79232e-08
-2.40079e-08
-4.07072e-08
7.87994e-08
8.27628e-08
1.59717e-07
1.29639e-07
1.54145e-07
1.12664e-07
1.21245e-07
9.30158e-08
8.80037e-08
5.47898e-08
-6.50596e-09
-8.69349e-08
-3.08026e-07
-4.50161e-07
-4.71293e-07
-4.35778e-07
-2.44528e-07
-3.14472e-09
-6.11551e-07
-9.88071e-07
-6.77798e-07
3.59896e-07
-1.55136e-06
-3.90159e-06
1.56407e-06
4.15948e-06
-7.05059e-06
1.94276e-06
-4.74399e-06
9.88845e-07
-6.41624e-07
4.17176e-07
-5.24102e-09
7.62275e-07
9.11059e-07
5.57599e-07
2.29332e-07
-1.75621e-07
-4.11798e-07
-5.94633e-07
-5.58536e-07
-5.32803e-07
-3.46345e-07
-3.17768e-07
-1.79617e-07
-2.15742e-07
-1.02073e-07
-1.13448e-07
5.01132e-08
1.2166e-07
2.6949e-07
3.58177e-07
9.68161e-07
1.39342e-06
3.72173e-07
1.7301e-06
2.59375e-06
6.55038e-07
-1.54961e-06
3.93301e-06
3.01345e-06
1.65938e-06
3.64045e-06
3.99469e-06
5.72453e-06
7.93597e-06
2.00215e-05
0.000124153
-4.63892e-07
1.41274e-07
-2.51616e-07
-1.14005e-08
1.55194e-08
1.75499e-07
5.41156e-08
-2.7648e-08
-5.56475e-08
-2.25327e-08
5.01197e-08
8.12641e-08
1.38454e-07
1.14706e-07
1.47318e-07
1.03238e-07
1.36503e-07
8.90268e-08
1.09005e-07
3.48189e-08
-4.24622e-09
-1.50075e-07
-3.36656e-07
-5.45458e-07
-6.4012e-07
-6.8872e-07
-5.34553e-07
-2.8496e-07
-4.93316e-07
-8.62308e-07
-7.39623e-07
3.96883e-08
-6.54171e-07
-3.19372e-06
-2.6818e-07
2.71655e-06
-7.46885e-06
3.78163e-06
-5.10354e-06
5.15809e-07
7.98604e-08
1.29929e-07
5.32369e-07
7.96418e-07
7.19427e-07
4.88571e-07
4.34826e-08
-2.21431e-07
-5.21905e-07
-5.50691e-07
-6.1757e-07
-4.68461e-07
-4.34935e-07
-3.11054e-07
-3.16249e-07
-2.58747e-07
-2.81414e-07
-2.4242e-07
-2.0661e-07
-7.09e-08
3.92633e-08
1.41903e-07
1.06895e-06
1.81564e-06
-3.59838e-06
1.57835e-06
4.68e-06
-1.60285e-06
-5.63368e-06
4.63203e-06
3.32073e-06
2.86148e-07
2.63324e-06
1.09005e-06
2.57293e-06
2.72477e-06
3.85641e-06
6.28938e-05
-2.30296e-07
-1.19797e-07
-2.2268e-07
-7.54831e-08
1.87685e-07
1.11471e-07
3.07715e-08
-2.04209e-08
-6.31477e-08
2.66244e-08
3.92689e-08
1.28529e-07
1.07004e-07
1.51922e-07
1.06461e-07
1.30226e-07
8.53221e-08
1.06207e-07
6.13316e-08
7.22229e-08
-4.90329e-09
-2.9913e-08
-1.99675e-07
-2.40264e-07
-3.54813e-07
-2.87377e-07
-1.91638e-07
9.62353e-08
-6.45445e-07
-7.65372e-07
-5.81723e-07
5.36045e-07
-1.43948e-06
-4.2052e-06
1.8271e-06
5.18888e-06
-7.78645e-06
1.80004e-06
-3.53718e-06
-2.5592e-08
1.0964e-07
5.14627e-07
4.62161e-07
7.44743e-07
6.38626e-07
3.02899e-07
-2.19108e-08
-3.1399e-07
-5.4139e-07
-5.71109e-07
-5.63173e-07
-4.07702e-07
-3.6005e-07
-2.19685e-07
-2.39543e-07
-1.39588e-07
-1.79344e-07
-4.55416e-08
-2.76445e-08
1.62557e-07
1.47286e-07
3.23769e-07
7.34452e-07
1.17367e-06
5.16655e-07
1.69727e-06
2.32761e-06
8.64243e-07
-1.23206e-06
4.09135e-06
2.57349e-06
1.61664e-06
3.78705e-06
4.09202e-06
5.8189e-06
7.34303e-06
1.69261e-05
8.088e-05
-6.09548e-08
-2.66183e-07
-3.00382e-07
6.04518e-08
1.22444e-07
1.66614e-07
4.50984e-08
-4.46059e-08
-4.06833e-08
-3.56656e-10
5.49777e-08
1.05732e-07
1.10939e-07
1.29371e-07
1.02545e-07
1.15452e-07
8.65755e-08
9.84309e-08
6.52694e-08
4.80887e-08
-1.43909e-08
-1.02831e-07
-2.36374e-07
-3.94027e-07
-5.06871e-07
-6.01304e-07
-5.05368e-07
-3.3059e-07
-4.39884e-07
-6.63187e-07
-6.26267e-07
6.5162e-08
-4.64568e-07
-2.92616e-06
-2.79985e-07
2.66116e-06
-7.27887e-06
3.17623e-06
-3.99775e-06
-6.05151e-07
5.64213e-07
1.63914e-07
6.06698e-07
6.41062e-07
4.59144e-07
1.83952e-07
-2.67394e-08
-4.08236e-07
-4.91674e-07
-6.00069e-07
-4.65523e-07
-4.42266e-07
-3.06029e-07
-3.10093e-07
-2.41966e-07
-2.76618e-07
-2.4149e-07
-2.54964e-07
-1.91288e-07
-1.25851e-07
-6.12999e-08
-1.20652e-07
5.61286e-07
9.33213e-07
-2.51274e-06
1.42529e-06
3.92912e-06
-1.41891e-06
-5.82736e-06
4.77271e-06
2.60965e-06
-1.42268e-07
2.57016e-06
4.63492e-07
2.50855e-06
1.84911e-06
2.37452e-06
3.78939e-05
4.05587e-08
-5.69017e-07
-7.75359e-08
-3.26594e-09
1.92483e-07
9.91719e-08
3.43401e-08
-4.91243e-08
-2.46177e-08
-2.74901e-09
8.60405e-08
8.72355e-08
1.3884e-07
9.91332e-08
1.25333e-07
7.80865e-08
1.01799e-07
5.53847e-08
8.29124e-08
2.23272e-08
4.66102e-08
-5.82286e-08
-5.25573e-08
-1.98206e-07
-1.59113e-07
-2.75748e-07
-6.19981e-08
4.85856e-08
-5.70223e-07
-7.35368e-07
-4.63893e-07
6.24419e-07
-1.21463e-06
-4.15241e-06
2.10923e-06
5.47009e-06
-8.08536e-06
1.60146e-06
-2.31883e-06
1.06842e-06
1.71815e-07
5.30563e-07
5.41453e-07
4.47165e-07
3.75214e-07
2.04635e-07
-1.60134e-07
-3.74092e-07
-4.99784e-07
-5.29189e-07
-4.12527e-07
-3.62301e-07
-2.32197e-07
-2.3452e-07
-1.39965e-07
-1.86753e-07
-9.24687e-08
-1.11261e-07
4.43681e-08
6.51406e-08
1.57731e-07
1.75016e-07
6.26534e-07
8.27331e-07
6.25242e-07
1.41519e-06
1.99895e-06
9.30124e-07
-6.54726e-07
3.57991e-06
1.96257e-06
1.42213e-06
3.48446e-06
3.91026e-06
5.82222e-06
7.26698e-06
1.59405e-05
5.873e-05
-5.87009e-07
-1.97177e-08
-2.34925e-07
9.28484e-08
1.16388e-07
1.3654e-07
1.05843e-08
-4.22864e-08
-4.35468e-08
1.40434e-08
6.38131e-08
1.06745e-07
1.1323e-07
1.10859e-07
9.50699e-08
8.7954e-08
7.15037e-08
7.17799e-08
4.63369e-08
3.81153e-08
-1.64686e-08
-6.48769e-08
-1.66239e-07
-2.70785e-07
-3.8464e-07
-4.80104e-07
-4.45158e-07
-3.28495e-07
-3.83034e-07
-5.05789e-07
-5.41896e-07
4.2285e-08
-3.34881e-07
-2.5842e-06
-2.66448e-07
2.41883e-06
-6.71267e-06
2.48505e-06
-2.89343e-06
-2.43546e-07
5.24968e-07
4.61829e-07
3.88893e-07
4.61345e-07
2.90458e-07
1.06072e-07
-1.15303e-07
-3.38848e-07
-5.14818e-07
-4.14547e-07
-4.13011e-07
-2.68541e-07
-2.79163e-07
-1.90747e-07
-2.38132e-07
-1.92054e-07
-2.50667e-07
-1.95168e-07
-2.13953e-07
-1.14545e-07
-2.03234e-07
-2.1475e-07
1.32767e-07
5.23505e-07
-1.60306e-06
9.33767e-07
2.99599e-06
-1.23778e-06
-5.88005e-06
4.56902e-06
1.90015e-06
-4.13061e-07
2.04749e-06
-1.19425e-07
1.67038e-06
9.00818e-07
1.4857e-06
2.41669e-05
1.45853e-07
-3.57384e-07
-2.20727e-08
4.84503e-08
1.6856e-07
7.74008e-08
5.15598e-09
-3.85862e-08
-3.77965e-08
2.56529e-08
6.22895e-08
1.16901e-07
1.0073e-07
1.15422e-07
7.75328e-08
8.69187e-08
5.06858e-08
6.62981e-08
2.76814e-08
4.73596e-08
-5.8113e-09
6.08312e-09
-7.11775e-08
-6.88254e-08
-1.55486e-07
-1.34135e-07
-1.01674e-07
8.24398e-08
-5.5784e-07
-6.28062e-07
-4.9351e-07
7.5944e-07
-9.6078e-07
-4.15396e-06
2.12323e-06
6.02224e-06
-8.06348e-06
1.80769e-06
-1.41802e-06
4.90794e-07
4.4079e-07
3.64712e-07
4.23741e-07
2.78666e-07
3.12679e-07
1.27599e-07
-2.07348e-07
-3.51283e-07
-4.3306e-07
-3.80084e-07
-3.26211e-07
-2.25476e-07
-2.02793e-07
-1.34064e-07
-1.50577e-07
-1.02545e-07
-1.22195e-07
-4.75331e-08
-5.54678e-10
7.96911e-08
7.58367e-08
1.55138e-07
4.81079e-07
6.5757e-07
5.40319e-07
1.17255e-06
1.70864e-06
9.36352e-07
-1.73354e-07
2.98227e-06
1.50704e-06
1.19262e-06
2.99928e-06
3.39156e-06
5.13769e-06
6.35102e-06
1.45056e-05
4.48056e-05
-1.82806e-07
-1.34602e-07
-9.41374e-08
1.382e-07
1.18662e-07
9.8483e-08
1.58923e-10
-5.10909e-08
-2.94696e-08
1.00053e-08
8.23205e-08
9.50389e-08
1.19865e-07
8.66402e-08
9.20939e-08
5.45823e-08
6.68583e-08
3.28383e-08
4.71348e-08
6.25135e-09
5.03506e-09
-6.089e-08
-9.3216e-08
-1.99456e-07
-2.56788e-07
-3.71752e-07
-3.34204e-07
-3.02624e-07
-2.97997e-07
-4.00739e-07
-4.59548e-07
5.38754e-09
-2.68596e-07
-2.27682e-06
-2.44361e-07
2.17077e-06
-6.04443e-06
1.98137e-06
-2.12084e-06
4.73112e-07
3.61861e-07
3.25515e-07
2.54964e-07
3.85953e-07
2.08756e-07
-8.38252e-09
-6.59937e-08
-3.77171e-07
-3.42107e-07
-3.67405e-07
-2.33048e-07
-2.39251e-07
-1.40215e-07
-1.87853e-07
-1.27616e-07
-2.04905e-07
-1.52256e-07
-2.27475e-07
-1.25253e-07
-2.06528e-07
-1.66166e-07
-3.57722e-07
7.87413e-08
1.51929e-07
-9.43587e-07
3.30146e-07
2.1047e-06
-1.51439e-06
-5.16706e-06
4.05816e-06
1.67453e-06
-5.64648e-07
1.63427e-06
-6.57202e-07
9.56067e-07
-2.65228e-07
6.54179e-08
1.8042e-05
-1.75685e-07
-1.35717e-07
5.01188e-08
7.51987e-08
1.55743e-07
5.69288e-08
-2.36721e-09
-4.06878e-08
-2.64228e-08
2.28262e-08
7.49499e-08
1.01867e-07
1.02987e-07
8.94421e-08
7.0973e-08
5.58198e-08
4.37946e-08
3.1824e-08
2.68695e-08
1.13698e-08
8.72817e-09
-2.01074e-08
-2.4104e-08
-7.36701e-08
-7.73368e-08
-1.35324e-07
-5.02283e-08
-1.30185e-09
-4.51664e-07
-5.88438e-07
-4.23517e-07
8.22607e-07
-7.3385e-07
-4.04913e-06
2.29083e-06
6.19506e-06
-8.33756e-06
1.94418e-06
-8.68764e-07
1.45938e-07
2.33929e-07
2.09968e-07
3.2541e-07
1.91594e-07
2.29234e-07
1.24144e-07
-2.25441e-07
-2.62445e-07
-3.25669e-07
-2.81706e-07
-2.25045e-07
-1.60786e-07
-1.31468e-07
-1.00635e-07
-1.04418e-07
-8.165e-08
-9.19194e-08
-3.24094e-08
-4.3833e-09
6.39159e-08
3.78699e-08
1.45349e-07
3.85389e-07
5.0661e-07
4.30016e-07
9.51613e-07
1.41807e-06
8.41546e-07
2.06259e-07
2.41802e-06
1.14568e-06
1.04093e-06
2.47784e-06
2.94109e-06
4.34794e-06
5.23476e-06
1.20529e-05
3.20936e-05
9.07381e-09
-1.20152e-08
-1.5253e-08
1.66369e-07
1.06271e-07
7.74056e-08
-1.36971e-08
-4.38588e-08
-3.2853e-08
3.26883e-08
6.64548e-08
1.10102e-07
8.88897e-08
9.29786e-08
5.45882e-08
5.98737e-08
2.66544e-08
4.04981e-08
8.75741e-09
2.31773e-08
-1.81982e-08
-1.81171e-08
-7.8236e-08
-1.10096e-07
-1.88992e-07
-2.40542e-07
-2.49591e-07
-2.20569e-07
-2.43606e-07
-3.02689e-07
-3.81487e-07
-2.8596e-08
-2.42604e-07
-1.88747e-06
-2.22539e-07
1.84962e-06
-5.42857e-06
1.56649e-06
-1.59415e-06
2.19917e-07
1.37541e-07
1.99939e-07
1.62828e-07
3.25346e-07
1.58506e-07
1.39832e-08
-5.11571e-08
-2.36383e-07
-3.11982e-07
-2.33691e-07
-2.16399e-07
-1.25868e-07
-1.39161e-07
-8.95861e-08
-1.39385e-07
-1.0876e-07
-1.77008e-07
-1.25332e-07
-1.81083e-07
-1.22005e-07
-2.63536e-07
-2.29358e-07
-9.60284e-08
1.05868e-07
-7.6847e-07
1.1834e-07
9.51601e-07
-1.27212e-06
-4.3706e-06
3.29364e-06
1.34955e-06
-4.57047e-07
1.28587e-06
-9.22089e-07
2.76255e-07
-1.02724e-06
-5.61743e-07
1.06474e-05
1.14689e-08
-2.56885e-08
1.47984e-07
9.93582e-08
1.40692e-07
3.8258e-08
-8.63483e-09
-3.80542e-08
-1.41631e-08
2.28028e-08
7.84857e-08
8.34676e-08
9.72237e-08
6.31595e-08
6.42808e-08
3.14626e-08
3.67876e-08
1.24492e-08
1.8518e-08
2.80225e-10
8.13173e-10
-1.63644e-08
-2.47606e-08
-4.95567e-08
-6.93145e-08
-1.00082e-07
-6.17029e-08
-3.00672e-08
-3.56831e-07
-4.73936e-07
-3.38003e-07
6.90441e-07
-5.62733e-07
-3.91493e-06
2.18983e-06
6.37896e-06
-8.25848e-06
2.18605e-06
-4.4924e-07
9.44448e-08
1.15412e-07
1.11997e-07
2.57978e-07
1.37375e-07
2.29563e-07
1.11502e-07
-1.44057e-07
-2.3044e-07
-2.46635e-07
-2.4916e-07
-1.52267e-07
-1.41779e-07
-6.80714e-08
-9.859e-08
-4.70329e-08
-9.47098e-08
-3.30226e-08
-6.0688e-08
3.51764e-08
6.47573e-09
6.48865e-08
9.65645e-08
3.47491e-07
3.4095e-07
3.71944e-07
7.18433e-07
1.16568e-06
7.07647e-07
4.36577e-07
1.84818e-06
9.03565e-07
8.71471e-07
2.05037e-06
2.43512e-06
3.68881e-06
4.16327e-06
9.6158e-06
2.07341e-05
2.07362e-08
1.16465e-07
6.00666e-08
1.79503e-07
9.42349e-08
5.75659e-08
-1.69207e-08
-4.47029e-08
-1.16261e-08
2.58514e-08
7.68357e-08
8.30065e-08
8.60197e-08
6.16562e-08
5.43618e-08
3.01262e-08
3.21405e-08
1.10461e-08
2.11005e-08
-1.82212e-09
6.43833e-09
-2.50506e-08
-3.02984e-08
-8.04829e-08
-1.06142e-07
-1.65618e-07
-1.51257e-07
-1.61548e-07
-1.72295e-07
-2.39889e-07
-2.94059e-07
-6.53492e-08
-2.20708e-07
-1.56619e-06
-2.08157e-07
1.5367e-06
-4.73027e-06
1.29013e-06
-1.20909e-06
6.11683e-08
4.30005e-08
1.31687e-07
1.19121e-07
2.91216e-07
1.3255e-07
2.78792e-08
-2.34056e-08
-2.30892e-07
-2.57749e-07
-2.24051e-07
-1.68206e-07
-1.15739e-07
-9.09199e-08
-8.22409e-08
-8.7724e-08
-1.0547e-07
-1.13161e-07
-1.31526e-07
-1.16334e-07
-1.5632e-07
-1.84872e-07
-2.32157e-07
-4.81241e-08
-6.11983e-08
-4.8527e-07
-1.8191e-07
5.15429e-07
-1.18492e-06
-3.11471e-06
2.37298e-06
1.09929e-06
-2.94948e-07
1.13239e-06
-9.51687e-07
-2.02191e-07
-1.53303e-06
-1.17994e-06
5.1671e-06
7.13181e-08
4.8955e-08
1.80138e-07
1.07567e-07
1.22693e-07
2.42059e-08
-1.38331e-08
-2.63325e-08
-1.38739e-08
3.59802e-08
5.21879e-08
8.43878e-08
5.72343e-08
6.63453e-08
2.9896e-08
4.02197e-08
9.46773e-09
2.28832e-08
-1.70212e-09
9.99293e-09
-1.12808e-08
-5.32427e-09
-2.72919e-08
-3.28235e-08
-6.25981e-08
-7.60439e-08
-6.46732e-08
-4.39472e-08
-2.56114e-07
-3.31031e-07
-2.77987e-07
5.01313e-07
-4.65389e-07
-3.90488e-06
2.17611e-06
6.25948e-06
-8.18733e-06
2.29808e-06
-1.57084e-07
3.30917e-08
5.85165e-08
7.22623e-08
2.11855e-07
1.02786e-07
2.1443e-07
1.16217e-07
-1.69535e-07
-1.82646e-07
-2.60934e-07
-1.92163e-07
-1.70053e-07
-8.0853e-08
-9.21304e-08
-3.58771e-08
-7.87499e-08
-2.97919e-08
-7.05571e-08
2.34727e-09
-2.01827e-08
4.89473e-08
9.42285e-09
1.40431e-07
2.30111e-07
2.90729e-07
2.56943e-07
6.08682e-07
9.05083e-07
6.08378e-07
5.12988e-07
1.42757e-06
7.0874e-07
7.84956e-07
1.60705e-06
2.01439e-06
2.95886e-06
3.25435e-06
7.37889e-06
1.27211e-05
3.29613e-08
1.39992e-07
8.40039e-08
1.73408e-07
8.09491e-08
4.7193e-08
-2.57199e-08
-2.89456e-08
-1.00966e-08
3.62151e-08
5.8933e-08
6.96041e-08
6.04663e-08
4.98827e-08
3.49023e-08
2.76777e-08
1.49642e-08
1.64911e-08
4.10055e-09
1.14723e-08
-5.80225e-09
6.62373e-10
-2.80551e-08
-3.25109e-08
-7.75946e-08
-8.71572e-08
-1.06077e-07
-9.35468e-08
-1.35569e-07
-1.75411e-07
-2.32652e-07
-6.68036e-08
-2.48614e-07
-1.26422e-06
-2.10471e-07
1.11373e-06
-4.11174e-06
1.04925e-06
-9.28212e-07
6.60343e-09
2.48748e-09
9.55026e-08
8.31006e-08
2.64571e-07
1.27774e-07
1.39325e-09
1.30078e-08
-2.29834e-07
-2.32995e-07
-2.29726e-07
-1.34825e-07
-1.19477e-07
-5.7132e-08
-8.13665e-08
-5.36375e-08
-9.27443e-08
-7.64047e-08
-1.04768e-07
-9.17083e-08
-1.27434e-07
-1.46644e-07
-1.5622e-07
-5.28117e-08
-7.53501e-08
-3.38206e-07
-1.71005e-07
2.45208e-07
-8.30569e-07
-2.01073e-06
1.53693e-06
7.56219e-07
-1.09742e-07
8.83255e-07
-8.11734e-07
-5.15328e-07
-1.89906e-06
-1.21449e-06
1.82919e-06
7.24155e-08
7.15183e-08
1.78951e-07
1.08121e-07
1.08054e-07
1.18351e-08
-1.23991e-08
-2.77893e-08
1.07413e-09
1.73104e-08
5.43184e-08
4.33525e-08
5.76884e-08
2.90295e-08
3.99016e-08
1.12595e-08
2.52148e-08
7.71059e-10
1.52474e-08
-5.75849e-09
4.92717e-09
-1.40617e-08
-1.13907e-08
-3.28457e-08
-4.3398e-08
-6.48023e-08
-5.2336e-08
-4.90692e-08
-1.58347e-07
-2.34743e-07
-2.03899e-07
2.88658e-07
-5.38665e-07
-3.19747e-06
2.04549e-06
6.03546e-06
-7.80424e-06
2.28009e-06
1.13334e-07
-3.22632e-10
3.75938e-08
4.07169e-08
1.80124e-07
9.40772e-08
1.89753e-07
1.23968e-07
-1.57689e-07
-1.90972e-07
-2.18181e-07
-2.01455e-07
-1.22937e-07
-9.78961e-08
-4.60048e-08
-6.02724e-08
-2.83014e-08
-5.7466e-08
-1.48479e-08
-3.41126e-08
2.622e-08
2.74129e-09
5.98754e-08
9.06968e-08
2.17526e-07
1.87326e-07
2.5029e-07
4.7414e-07
7.32716e-07
4.98828e-07
5.40953e-07
1.05715e-06
6.29242e-07
6.67886e-07
1.27873e-06
1.58737e-06
2.30126e-06
2.36409e-06
5.51634e-06
7.56139e-06
3.89764e-08
1.36992e-07
9.40025e-08
1.58903e-07
7.06242e-08
2.62564e-08
-2.16002e-08
-2.89488e-08
3.68445e-09
2.72481e-08
4.75791e-08
4.75472e-08
4.23793e-08
3.45222e-08
2.5167e-08
1.79993e-08
1.34584e-08
6.64554e-09
9.88069e-09
1.3616e-10
7.5938e-09
-8.55494e-09
-3.47099e-09
-3.09424e-08
-3.52177e-08
-6.64216e-08
-5.52044e-08
-7.49982e-08
-9.095e-08
-1.52965e-07
-1.72084e-07
-9.33958e-08
-2.48836e-07
-9.95819e-07
-2.1077e-07
7.00556e-07
-3.44723e-06
8.94953e-07
-6.99826e-07
-2.80721e-09
-1.62906e-08
7.03506e-08
7.3265e-08
2.39472e-07
9.65393e-08
8.2974e-09
-2.42932e-09
-1.8624e-07
-2.43318e-07
-1.62656e-07
-1.4916e-07
-6.22956e-08
-7.86809e-08
-2.8202e-08
-6.8587e-08
-3.57823e-08
-7.71111e-08
-4.47461e-08
-8.4281e-08
-6.67231e-08
-1.1173e-07
-7.10266e-08
-4.36197e-08
-3.73288e-08
-2.03799e-07
-7.9645e-08
1.42614e-07
-4.7497e-07
-1.13532e-06
8.31363e-07
4.34621e-07
-2.42922e-08
6.36417e-07
-6.34608e-07
-6.76165e-07
-1.99223e-06
-1.26281e-06
2.76597e-08
6.83876e-08
8.07309e-08
1.68268e-07
1.02228e-07
8.20503e-08
1.19745e-08
-2.16909e-08
-1.82907e-08
-1.0137e-08
2.30411e-08
2.22381e-08
4.1828e-08
2.28321e-08
3.4844e-08
1.15342e-08
2.423e-08
1.71448e-09
1.72972e-08
-2.85493e-09
1.09504e-08
-7.85163e-09
7.63096e-10
-1.762e-08
-1.76784e-08
-4.01763e-08
-4.33981e-08
-4.73864e-08
-3.51883e-08
-1.01982e-07
-1.5711e-07
-1.59544e-07
1.07965e-07
-4.14526e-07
-2.35454e-06
1.71053e-06
6.05286e-06
-7.11295e-06
2.13617e-06
3.23722e-07
-4.65389e-09
2.10639e-08
2.99004e-08
1.56012e-07
5.43404e-08
1.83668e-07
1.02937e-07
-1.68731e-07
-1.57068e-07
-1.89272e-07
-1.46227e-07
-1.07664e-07
-5.93394e-08
-4.83427e-08
-2.32996e-08
-3.68326e-08
-1.34905e-08
-2.74152e-08
1.1366e-08
5.23039e-10
4.80223e-08
3.80791e-08
1.23476e-07
1.48103e-07
1.84812e-07
1.94507e-07
4.22653e-07
5.46453e-07
4.63204e-07
4.71647e-07
8.21301e-07
5.46477e-07
6.27401e-07
9.93907e-07
1.28139e-06
1.66602e-06
1.60859e-06
3.95656e-06
4.44979e-06
4.07609e-08
1.29196e-07
9.52144e-08
1.39199e-07
6.19184e-08
9.88911e-09
-2.59786e-08
-1.81156e-08
1.25361e-09
2.43237e-08
3.13444e-08
3.12221e-08
2.87062e-08
2.1959e-08
1.79869e-08
1.05191e-08
7.90592e-09
5.73657e-09
2.30799e-09
5.27843e-09
-3.01856e-09
2.55179e-09
-1.352e-08
-1.12227e-08
-3.68598e-08
-3.53863e-08
-5.18359e-08
-4.81952e-08
-8.78064e-08
-1.24387e-07
-1.56732e-07
-9.00049e-08
-2.53805e-07
-7.96212e-07
-1.9287e-07
3.42285e-07
-2.83732e-06
7.49802e-07
-5.17753e-07
-1.14545e-08
-2.88872e-08
5.55856e-08
4.43829e-08
2.2102e-07
8.01556e-08
-2.46892e-08
4.71572e-08
-1.81214e-07
-1.48945e-07
-1.51887e-07
-7.17941e-08
-7.41494e-08
-1.58273e-08
-4.4517e-08
-6.02574e-09
-4.32806e-08
-8.96043e-09
-4.29619e-08
-1.00563e-08
-5.15199e-08
-2.368e-08
-3.72773e-08
2.19115e-08
-1.68047e-08
-5.9402e-08
-1.2066e-08
1.40508e-07
-2.15291e-07
-5.95546e-07
3.73752e-07
2.4243e-07
-5.91327e-08
3.76443e-07
-5.79376e-07
-5.92156e-07
-2.15874e-06
-9.51612e-07
-6.06362e-07
6.44917e-08
8.38929e-08
1.55165e-07
9.51786e-08
6.43595e-08
8.32892e-09
-2.0918e-08
-2.88229e-08
-1.32851e-09
2.55349e-09
2.35285e-08
1.36875e-08
2.72133e-08
8.27263e-09
2.08531e-08
-7.78692e-10
1.41067e-08
-3.53842e-09
1.18784e-08
-5.84644e-09
5.96786e-09
-1.20069e-08
-5.47653e-09
-2.46282e-08
-2.40061e-08
-4.15816e-08
-2.96814e-08
-3.62544e-08
-5.8151e-08
-1.16263e-07
-1.15275e-07
4.79223e-08
-2.46571e-07
-1.52653e-06
1.66882e-06
4.99968e-06
-6.10279e-06
1.80867e-06
5.20545e-07
-1.69919e-08
1.5544e-08
1.17354e-08
1.33937e-07
4.36247e-08
1.56427e-07
1.1997e-07
-1.42673e-07
-9.62004e-08
-1.18695e-07
-1.01569e-07
-6.26876e-08
-3.93253e-08
-1.4725e-08
-1.37641e-08
2.21362e-10
-7.12066e-09
1.42481e-08
1.14601e-08
4.136e-08
4.24784e-08
8.13801e-08
1.02309e-07
1.54683e-07
1.4186e-07
2.03185e-07
3.32768e-07
4.49967e-07
3.81125e-07
4.24828e-07
6.33188e-07
5.16865e-07
5.66014e-07
8.07133e-07
1.03439e-06
1.1725e-06
9.59961e-07
2.8022e-06
2.58167e-06
4.14819e-08
1.19341e-07
9.40501e-08
1.23615e-07
5.23198e-08
-9.96713e-09
-2.62934e-08
-1.67271e-08
1.65717e-09
1.70291e-08
2.00566e-08
2.22554e-08
1.58024e-08
1.85913e-08
2.57623e-09
7.81551e-09
1.60904e-09
2.59407e-09
1.29054e-10
-1.2424e-09
-1.3668e-10
-7.76779e-09
-6.7909e-09
-2.11041e-08
-2.45144e-08
-3.92116e-08
-3.91089e-08
-5.30388e-08
-7.74156e-08
-1.20501e-07
-1.34613e-07
-9.28629e-08
-2.425e-07
-6.17459e-07
-1.5692e-07
-2.99451e-08
-2.26253e-06
6.44599e-07
-3.48558e-07
-1.08123e-08
-3.46729e-08
4.05454e-08
3.76055e-08
1.96214e-07
6.11082e-08
5.45059e-09
5.57613e-08
-8.26557e-08
-1.17596e-07
-6.64152e-08
-6.80526e-08
-8.86413e-09
-2.44759e-08
1.66537e-08
-1.24058e-08
2.14983e-08
-7.80726e-09
2.6559e-08
-1.13587e-09
2.75735e-08
-5.28441e-10
4.44999e-08
3.25517e-08
5.65714e-08
3.63622e-09
8.02068e-08
1.14981e-07
-3.61086e-08
-3.14261e-07
1.87342e-07
6.24714e-08
-4.50448e-08
2.70635e-08
-3.71182e-07
-6.81618e-07
-1.94482e-06
-7.91797e-07
-9.24657e-07
5.91128e-08
8.23518e-08
1.42388e-07
8.1595e-08
4.40815e-08
8.88521e-09
-3.32223e-08
-2.26433e-08
-1.2443e-08
6.96095e-09
5.71849e-09
1.71291e-08
9.74195e-09
8.52649e-09
-1.45377e-09
6.65193e-09
-1.0665e-08
7.80683e-09
-5.95141e-09
7.2901e-09
-8.87189e-09
-1.35555e-09
-1.88569e-08
-1.46722e-08
-3.29049e-08
-2.62612e-08
-3.68633e-08
-2.23767e-08
-5.23154e-08
-7.17673e-08
-8.5357e-08
5.97616e-08
-1.09387e-07
-7.64188e-07
1.27241e-06
3.71422e-06
-4.69489e-06
1.57053e-06
7.51225e-07
-1.47327e-08
6.8049e-09
7.2826e-09
1.13177e-07
1.7773e-08
1.57855e-07
1.05833e-07
-8.36753e-08
-4.26418e-08
-6.50669e-08
-5.70139e-08
-3.10806e-08
-1.24626e-08
6.6397e-09
1.29509e-08
1.99489e-08
2.38514e-08
3.21561e-08
4.25721e-08
5.39141e-08
7.29001e-08
9.06261e-08
1.17907e-07
1.36424e-07
1.4114e-07
1.82696e-07
2.81785e-07
3.51145e-07
3.24108e-07
3.6659e-07
5.10022e-07
4.64333e-07
5.15861e-07
6.63175e-07
8.7554e-07
7.83483e-07
5.42385e-07
1.95318e-06
1.47784e-06
3.83284e-08
1.09027e-07
8.47441e-08
1.08141e-07
4.32341e-08
-2.80859e-08
-2.36395e-08
-1.66474e-08
2.69231e-09
1.00849e-08
1.6891e-08
1.46616e-08
1.02165e-08
1.75851e-09
-8.39094e-10
-1.74938e-08
1.55765e-08
-1.53709e-08
8.06156e-10
-3.99491e-09
-3.17921e-09
-8.15068e-09
-1.37296e-08
-2.16844e-08
-2.98482e-08
-3.77862e-08
-4.30512e-08
-5.36043e-08
-7.86504e-08
-1.10872e-07
-1.19378e-07
-8.77329e-08
-2.14135e-07
-4.84622e-07
-1.36046e-07
-2.69826e-07
-1.70742e-06
5.36573e-07
-2.13406e-07
-1.51369e-08
-3.99627e-08
3.11295e-08
1.8901e-08
1.78205e-07
5.58772e-08
1.81784e-08
9.93314e-08
-5.69169e-08
-4.62793e-08
-5.79871e-08
-1.60186e-08
-1.4094e-08
2.31728e-08
1.21938e-08
3.86262e-08
2.21649e-08
4.72807e-08
3.14252e-08
5.87366e-08
3.95955e-08
6.70505e-08
5.57588e-08
8.78687e-08
6.8418e-08
8.41825e-08
9.37763e-08
1.38609e-07
1.74719e-08
-1.02386e-07
6.26239e-08
2.60552e-08
-1.13835e-07
-8.10457e-08
-3.10914e-07
-5.88436e-07
-1.82722e-06
-4.22185e-07
-8.8115e-07
5.38086e-08
7.61135e-08
1.28893e-07
7.00592e-08
2.91721e-08
9.46054e-09
-3.4108e-08
-2.70324e-08
-8.53403e-09
-1.37652e-11
1.00222e-08
5.02848e-09
7.69614e-09
-9.26168e-09
-1.97321e-08
2.16132e-08
-1.82418e-08
-6.25812e-09
-1.41228e-08
-7.11494e-09
-3.63729e-10
-1.29399e-08
-1.34064e-08
-2.80734e-08
-2.67668e-08
-3.72098e-08
-2.91146e-08
-3.43582e-08
-3.69181e-08
-6.04115e-08
-4.07624e-08
5.62775e-08
1.08717e-08
-4.09795e-07
8.96685e-07
2.31064e-06
-3.47237e-06
1.31139e-06
8.69688e-07
-2.20999e-08
5.24991e-09
-3.9165e-09
9.49003e-08
1.68392e-08
1.44384e-07
1.21731e-07
-4.70676e-08
2.16701e-09
-3.3397e-08
-2.91089e-08
-2.09629e-08
8.11451e-09
1.59974e-08
3.5829e-08
3.40598e-08
4.87487e-08
4.79069e-08
6.51484e-08
6.72783e-08
9.12073e-08
1.00374e-07
1.23985e-07
1.27088e-07
1.36189e-07
1.64772e-07
2.32381e-07
2.75948e-07
2.71101e-07
3.14556e-07
4.08595e-07
4.0374e-07
4.4957e-07
5.67152e-07
7.3592e-07
5.29385e-07
2.95109e-07
1.41517e-06
8.64671e-07
3.4622e-08
9.76766e-08
7.61639e-08
9.46967e-08
3.47439e-08
-3.74053e-08
-2.41344e-08
-1.38448e-08
-2.89788e-10
1.06454e-08
1.11438e-08
1.38237e-08
-6.5524e-09
-1.98589e-08
1.66328e-08
-8.12415e-09
4.5075e-09
-3.58579e-08
-1.18337e-08
-1.91617e-08
-1.31118e-08
-1.00245e-08
-1.95752e-08
-2.55105e-08
-3.56209e-08
-4.06949e-08
-4.69674e-08
-5.63614e-08
-7.70314e-08
-1.00005e-07
-1.02263e-07
-7.82843e-08
-1.96849e-07
-3.80508e-07
-1.27591e-07
-4.18863e-07
-1.26996e-06
4.1597e-07
-1.25113e-07
-1.40819e-08
-4.10408e-08
2.09901e-08
1.7675e-08
1.57407e-07
5.03292e-08
4.63463e-08
1.02303e-07
-7.20451e-09
-3.62759e-08
-2.95524e-08
-2.13137e-08
7.30707e-09
1.97832e-08
3.86736e-08
4.07891e-08
5.29748e-08
5.27676e-08
6.43969e-08
6.53064e-08
7.82688e-08
7.70782e-08
9.03911e-08
9.09734e-08
1.01857e-07
1.00337e-07
1.21967e-07
1.23095e-07
7.20468e-08
-1.03098e-08
5.24241e-08
-1.19875e-08
-9.31525e-08
-1.39734e-07
-1.53234e-07
-5.90863e-07
-1.5113e-06
-1.892e-07
-7.40682e-07
4.74585e-08
6.83377e-08
1.1573e-07
5.47466e-08
1.8864e-08
6.92466e-09
-3.63171e-08
-2.56258e-08
-8.54202e-09
1.55202e-09
8.51338e-09
-7.72296e-10
-1.36099e-08
8.63026e-09
-9.63029e-09
2.27496e-08
-3.41972e-08
-8.63151e-09
-5.00595e-08
-1.84958e-08
-2.53134e-08
-1.79357e-08
-2.46858e-08
-2.99542e-08
-3.76441e-08
-3.78472e-08
-3.89223e-08
-3.55508e-08
-4.1084e-08
-4.37986e-08
-2.39909e-08
5.56732e-08
2.75765e-08
-2.36784e-07
5.66673e-07
1.04921e-06
-2.30991e-06
1.08457e-06
9.38769e-07
-1.8289e-08
-1.43635e-11
-4.85055e-09
7.88988e-08
5.40126e-09
1.43132e-07
1.11654e-07
-1.33418e-08
1.91431e-08
-1.57604e-08
-2.74078e-08
-1.19991e-08
3.97077e-09
2.81695e-08
3.70347e-08
5.0688e-08
5.35161e-08
6.44847e-08
6.84909e-08
8.12789e-08
9.04686e-08
1.08595e-07
1.15434e-07
1.21779e-07
1.22264e-07
1.47236e-07
1.85479e-07
2.1826e-07
2.21416e-07
2.65117e-07
3.201e-07
3.33215e-07
3.74893e-07
4.88564e-07
6.11618e-07
3.47707e-07
1.98794e-07
1.05784e-06
5.41954e-07
2.91522e-08
8.66075e-08
6.2524e-08
8.24969e-08
2.5535e-08
-4.16953e-08
-2.26941e-08
-1.22588e-08
-3.53621e-10
9.15014e-09
1.00531e-08
1.76673e-09
2.06983e-10
-8.2935e-09
2.2245e-08
-8.76242e-09
-3.91129e-09
-4.66754e-08
-2.39239e-08
-4.40499e-08
-3.47519e-08
-2.82362e-08
-2.6242e-08
-3.29691e-08
-3.91923e-08
-4.51532e-08
-4.85694e-08
-5.753e-08
-7.08128e-08
-8.68956e-08
-8.33738e-08
-7.2047e-08
-1.78836e-07
-2.82929e-07
-1.42687e-07
-4.66377e-07
-8.95741e-07
2.95569e-07
-7.46365e-08
-1.70869e-08
-4.30515e-08
1.53344e-08
7.42789e-09
1.42213e-07
5.0746e-08
5.22995e-08
1.17597e-07
9.41399e-10
-2.00899e-08
-3.17255e-08
-1.9377e-08
3.28544e-09
2.37652e-08
3.91491e-08
4.90799e-08
5.6368e-08
6.23659e-08
6.80628e-08
7.4868e-08
8.28665e-08
8.81026e-08
9.12887e-08
9.69499e-08
1.03699e-07
1.11163e-07
1.19415e-07
1.20442e-07
8.97041e-08
5.09091e-08
5.11674e-08
-4.11201e-09
-7.06997e-08
-9.06719e-08
-5.464e-08
-5.35108e-07
-1.21188e-06
3.50536e-08
-5.32705e-07
4.17268e-08
5.89319e-08
1.01865e-07
4.33851e-08
1.26147e-08
6.55264e-09
-3.52032e-08
-2.24262e-08
-7.66061e-09
2.73414e-09
6.17116e-09
-4.19253e-09
-1.17987e-09
9.65443e-09
9.59667e-09
-3.18774e-09
-1.75661e-08
-1.8189e-08
-4.10458e-08
-5.06985e-08
-4.76855e-08
-3.09612e-08
-3.15176e-08
-3.71025e-08
-4.18657e-08
-4.40795e-08
-4.30114e-08
-4.16145e-08
-4.11422e-08
-3.83676e-08
-1.45886e-08
3.92414e-08
1.17865e-08
-1.30181e-07
2.77829e-07
3.54165e-07
-1.4573e-06
8.42895e-07
8.77464e-07
-2.29468e-08
1.61872e-11
-1.1748e-08
6.59617e-08
8.67316e-09
1.30282e-07
1.17689e-07
3.46754e-09
3.04745e-08
-8.8939e-09
-2.68889e-08
-1.7005e-08
3.47812e-09
2.37541e-08
3.91298e-08
4.89372e-08
5.65674e-08
6.24013e-08
6.93298e-08
7.67455e-08
8.68044e-08
9.87572e-08
1.05199e-07
1.05925e-07
1.0855e-07
1.22024e-07
1.47467e-07
1.67983e-07
1.79022e-07
2.12119e-07
2.42401e-07
2.58866e-07
3.00142e-07
4.15693e-07
4.81383e-07
2.19166e-07
1.67497e-07
8.18861e-07
3.97596e-07
2.46603e-08
7.53326e-08
5.22465e-08
7.12881e-08
2.00217e-08
-4.16685e-08
-1.87318e-08
-1.23479e-08
1.10784e-10
7.25555e-09
7.10733e-09
-4.20144e-10
-2.1647e-09
1.09598e-08
5.40898e-09
-4.42917e-09
-1.00362e-08
-2.02577e-08
-4.50205e-08
-6.43424e-08
-3.79464e-08
-4.14972e-08
-3.53265e-08
-3.66944e-08
-4.20016e-08
-4.55771e-08
-4.85596e-08
-5.38195e-08
-6.21089e-08
-7.08284e-08
-6.45712e-08
-6.52332e-08
-1.46961e-07
-2.01271e-07
-1.45136e-07
-4.23563e-07
-6.19734e-07
1.80187e-07
-6.2273e-08
-1.61587e-08
-4.21292e-08
8.81699e-09
8.73729e-09
1.25214e-07
4.66692e-08
6.40708e-08
1.10478e-07
1.77808e-08
-1.80025e-08
-3.03771e-08
-2.25754e-08
-1.32998e-09