/*--------------------------------*- C++ -*----------------------------------*\
| =========                 |                                                 |
| \\      /  F ield         | OpenFOAM: The Open Source CFD Toolbox           |
|  \\    /   O peration     | Version:  2206                                  |
|   \\  /    A nd           | Website:  www.openfoam.com                      |
|    \\/     M anipulation  |                                                 |
\*---------------------------------------------------------------------------*/
FoamFile
{
    version     2.0;
    format      ascii;
    arch        "LSB;label=32;scalar=64";
    class       volVectorField;
    location    "300";
    object      momentError;
}
// * * * * * * * * * * * * * * * * * * * * * * * * * * * * * * * * * * * * * //

dimensions      [0 1 -2 0 0 0 0];

internalField   nonuniform List<vector> 
10720
(
(-0.00479266 0.0198535 -4.16809e-15)
(-0.00333276 0.0190977 -2.46703e-15)
(-0.000318399 0.0136864 -2.159e-14)
(0.000784365 0.0133784 9.99606e-14)
(0.00158442 0.0118635 7.47645e-14)
(0.00212667 0.0104333 -1.85203e-13)
(0.00253348 0.00900522 -1.39605e-13)
(0.00265641 0.00747703 -1.07636e-13)
(0.00257014 0.00611796 2.15562e-14)
(0.00235604 0.0048333 5.47729e-15)
(0.00207396 0.00401335 -1.55947e-14)
(0.00119018 0.0023403 6.73868e-14)
(0.000574109 0.00133828 -2.19399e-13)
(0.000101998 0.000546922 -4.01295e-13)
(-0.000400902 -0.000136723 7.43392e-14)
(-0.000865378 -0.000698905 -1.061e-13)
(-0.00134482 -0.00111463 1.15558e-13)
(-0.00174029 -0.00135917 8.86656e-13)
(-0.00213325 -0.00141302 2.3472e-13)
(-0.00220587 -0.00127704 -4.66668e-13)
(-0.00178874 -0.00119761 -2.31273e-13)
(-0.00207774 -0.00103659 9.59122e-14)
(-0.0104738 -0.00178528 3.38025e-13)
(-0.0123477 -0.0029498 -2.47184e-13)
(0.008255 -9.48902e-05 4.58948e-14)
(0.01754 0.00368235 -4.01733e-14)
(0.00633565 0.00401242 -6.94601e-14)
(-0.00193766 0.00202991 1.31304e-14)
(-0.00337561 0.000106351 1.00901e-14)
(-0.00404266 -0.000669593 2.09902e-13)
(-0.00245253 -0.00050164 1.55012e-13)
(-0.000420788 -0.0001987 -1.77294e-13)
(0.0007854 -0.000103748 -1.3341e-13)
(0.000756691 -6.64234e-05 -2.39317e-13)
(0.000498383 6.13847e-05 -1.5971e-13)
(0.000178437 0.0012154 1.54565e-13)
(0.00190672 0.0113899 -1.08638e-14)
(0.05412 0.0718617 -5.8901e-16)
(1.09262 -0.120698 -6.35184e-14)
(-0.00546896 0.0185754 8.10137e-15)
(-0.00576735 0.0152202 -1.99991e-14)
(-0.00562994 0.011501 2.29116e-14)
(-0.00481895 0.00817503 1.04266e-13)
(-0.00391741 0.0054974 3.60534e-14)
(-0.00296232 0.00315041 -2.84847e-13)
(-0.00125856 0.00097068 -1.5589e-13)
(-0.000144714 4.23352e-06 1.61112e-13)
(-0.000461362 0.000481046 -6.37302e-14)
(-0.00134879 0.00126814 5.91438e-14)
(-0.00151509 0.0010492 -8.07694e-14)
(-0.00127506 0.000733563 -1.38047e-13)
(-0.00113422 0.000590887 3.60499e-14)
(-0.00105913 0.000498171 7.11314e-14)
(-0.000951075 0.000402905 -1.1741e-13)
(-0.00082805 0.000327417 -1.0147e-13)
(-0.000726144 0.000272099 -7.24093e-14)
(-0.00064188 0.000229413 -8.85999e-14)
(-0.000568356 0.000193115 -3.26439e-14)
(-0.000501897 0.000162654 -2.83543e-15)
(-0.000443564 0.000135985 3.106e-14)
(-0.000391747 0.000113643 6.2695e-14)
(-0.000346615 9.34075e-05 -2.99261e-14)
(-0.000304248 7.63062e-05 -2.12927e-14)
(-0.000261636 5.93571e-05 2.58302e-14)
(-0.000219068 5.08372e-05 -4.02156e-15)
(-0.000184793 4.22428e-05 -9.92918e-16)
(-0.000163852 1.78317e-05 -2.05447e-15)
(-0.000146994 -2.37291e-06 4.72546e-16)
(-0.00013042 -8.10484e-06 1.08757e-16)
(-9.82176e-05 -8.1338e-06 4.95018e-16)
(-7.49805e-05 -8.85375e-06 -1.32784e-15)
(-8.22762e-05 -1.1769e-05 -2.5209e-15)
(-2.58894e-05 -8.74355e-06 -4.04491e-15)
(4.88636e-05 1.06799e-06 -5.3358e-15)
(2.14229e-05 -5.18983e-06 -2.36647e-15)
(6.30876e-05 -2.33614e-05 1.28166e-14)
(0.000258381 -0.000187169 -3.38535e-15)
(0.00179349 -0.00156244 -5.83616e-14)
(0.00100585 0.0145698 -3.87729e-15)
(0.00240133 0.0140573 2.20184e-15)
(0.00352728 0.0104442 -1.58156e-17)
(0.00477263 0.0102938 -7.56274e-15)
(0.00555522 0.00936853 1.00022e-14)
(0.00605617 0.0084355 6.72265e-14)
(0.00653671 0.00740112 8.02984e-14)
(0.00672109 0.00633706 2.64657e-14)
(0.006642 0.00531817 -8.61733e-14)
(0.00649499 0.00443877 -4.19044e-14)
(0.00609064 0.00347996 -2.56396e-13)
(0.00602881 0.00384038 -4.7224e-13)
(0.00585113 0.00374543 -2.36427e-14)
(0.00570462 0.00333304 -2.07082e-14)
(0.00513759 0.00310845 -8.27921e-14)
(0.00465612 0.00282506 8.65263e-14)
(0.00409057 0.00260038 3.88991e-13)
(0.00366785 0.00228918 -6.87403e-13)
(0.00334671 0.00179181 -5.72286e-13)
(0.00852738 -0.000148239 -3.58412e-13)
(-0.000536032 0.00220007 2.15263e-13)
(-0.00774603 0.000933691 2.96459e-13)
(0.00838268 -0.0020311 -3.85858e-13)
(0.0641513 0.00652095 5.93699e-14)
(0.0550351 0.0127758 -2.10283e-15)
(-0.0164998 0.0063386 -1.16475e-14)
(-0.0462764 -0.000462489 -4.08235e-15)
(-0.0134092 -0.000754762 1.23264e-14)
(0.00574698 -0.000327756 -2.74891e-14)
(-0.0028375 -0.00128299 -1.02075e-14)
(-0.00432588 -0.00123641 9.34869e-15)
(-0.00156173 -0.000489433 -5.55504e-15)
(2.79131e-05 -7.68545e-05 -1.14731e-13)
(0.000916587 -4.46906e-05 -7.19314e-14)
(0.000801698 -3.00962e-05 1.60286e-13)
(0.000486548 0.000211608 2.84519e-14)
(0.000299259 0.00194909 6.3543e-14)
(-0.0301648 0.0137908 -1.17608e-14)
(-0.890668 0.107858 -3.25984e-14)
(7.62024e-05 0.0137416 -1.63895e-14)
(-0.0010001 0.0115138 1.50167e-13)
(-0.00180936 0.00898645 -4.71362e-14)
(-0.0021309 0.00694005 -1.15825e-13)
(-0.00224349 0.00502343 8.28658e-14)
(-0.00206815 0.00317139 6.68952e-14)
(-0.00133126 0.00159579 2.93367e-14)
(-0.000807672 0.000895717 1.5406e-13)
(-0.00096027 0.00100828 -3.18861e-15)
(-0.00140292 0.00119419 -4.3947e-14)
(-0.00157944 0.000896105 7.30037e-14)
(-0.00149032 0.000626505 -9.49587e-14)
(-0.00137159 0.000474508 1.99508e-14)
(-0.00127163 0.000347847 1.04101e-14)
(-0.00115215 0.000237324 2.46945e-14)
(-0.00101855 0.000166528 2.7702e-14)
(-0.000900267 0.000121901 4.69723e-14)
(-0.000799907 9.16715e-05 -1.40555e-14)
(-0.000712597 6.75877e-05 3.03533e-15)
(-0.000634446 4.91555e-05 -7.02033e-15)
(-0.000565436 3.35098e-05 1.82747e-14)
(-0.000504145 2.10541e-05 5.30206e-14)
(-0.00044948 9.7291e-06 -8.85198e-16)
(-0.000397657 -2.45551e-06 -1.76553e-14)
(-0.000347055 -1.65602e-05 -1.49747e-14)
(-0.000298394 -2.82986e-05 2.14213e-14)
(-0.00025387 -3.30826e-05 6.15965e-15)
(-0.000219437 -3.37266e-05 -1.60955e-15)
(-0.000193388 -3.04541e-05 4.65853e-17)
(-0.000162718 -2.59464e-05 -1.06278e-16)
(-0.000140193 -2.09969e-05 -1.9974e-16)
(-0.000125846 -1.7559e-05 -4.2655e-16)
(-0.000105638 -1.85223e-05 2.17129e-15)
(-7.93358e-05 -1.41095e-05 2.40041e-15)
(-4.33394e-05 -2.07799e-06 2.7467e-15)
(-8.87689e-05 -3.74107e-06 -7.42376e-15)
(-7.60228e-05 -1.48163e-05 7.83555e-16)
(0.000103144 -1.83926e-05 1.33871e-14)
(0.0013279 0.000153797 1.58037e-14)
(-0.00105011 0.011783 2.10326e-15)
(-0.000249844 0.0113158 -1.44504e-15)
(0.00075687 0.0087092 -2.63416e-15)
(0.00153066 0.00886524 1.3731e-15)
(0.00203407 0.00834291 5.77719e-14)
(0.00247154 0.0076834 -6.42957e-14)
(0.00288382 0.00701527 -8.82181e-14)
(0.00311458 0.00627168 1.60676e-13)
(0.00319956 0.00548881 6.5631e-14)
(0.00320269 0.00475939 8.88526e-14)
(0.00309823 0.00408315 2.04995e-14)
(0.0029227 0.00338676 -7.72697e-16)
(0.00274148 0.00270459 3.55702e-13)
(0.00249211 0.00216844 1.20217e-14)
(0.00252944 0.00162068 2.16454e-13)
(0.00267289 0.00117296 1.21362e-15)
(0.00280055 0.000928166 -6.83904e-13)
(0.00277468 0.000985305 4.11956e-13)
(0.0022863 0.0022695 9.19939e-13)
(-0.00163086 0.00459973 1.65791e-13)
(0.0057462 -0.00185857 -2.66078e-14)
(0.00425361 -0.00253062 -6.80312e-14)
(0.00458873 -0.00346432 1.65025e-13)
(-0.0133888 -0.00818286 1.19046e-13)
(-0.0466635 -0.00974141 -9.77539e-14)
(-0.0656356 -0.0107393 -2.18982e-14)
(-0.00805609 -0.000365057 -5.62708e-14)
(0.0154395 0.00247212 3.08556e-14)
(-0.00215247 0.00029094 -2.82683e-14)
(0.00426356 -0.00217934 -1.56259e-13)
(0.00770226 -0.00155612 -7.79845e-15)
(0.00293808 -0.000281826 2.37326e-13)
(-0.00070558 0.00029286 3.59814e-14)
(-0.000217748 0.000319 1.1221e-13)
(0.000184937 0.000124991 1.33266e-13)
(0.000370027 5.04967e-05 2.20525e-14)
(-0.000679954 0.000827838 -8.48677e-14)
(-0.013846 0.00138798 8.498e-15)
(-0.110471 0.00872532 1.56828e-14)
(-0.00161872 0.0111846 2.43062e-14)
(-0.00195926 0.00948466 -3.70343e-14)
(-0.00215444 0.00742319 -4.64922e-14)
(-0.00221366 0.00591643 -1.31075e-14)
(-0.00208756 0.00445987 1.12905e-14)
(-0.00180031 0.00304841 -1.20784e-13)
(-0.00132458 0.00179576 2.34473e-14)
(-0.00109568 0.00133586 -1.49182e-13)
(-0.00128507 0.00136386 -1.24947e-13)
(-0.00152987 0.00132489 -1.15761e-13)
(-0.00161329 0.00110757 1.18273e-13)
(-0.00153468 0.000899504 1.03752e-13)
(-0.00140787 0.000738578 -6.46459e-14)
(-0.00128314 0.000595258 -1.48458e-13)
(-0.00115332 0.000472508 4.05281e-14)
(-0.00101743 0.000380943 6.98215e-14)
(-0.0008935 0.000313082 -1.89677e-14)
(-0.000787826 0.000259429 -9.26496e-14)
(-0.000697007 0.000214689 -2.68398e-14)
(-0.000617127 0.000177542 2.52923e-15)
(-0.000547398 0.000145812 -2.07066e-14)
(-0.000486051 0.000118781 -4.14011e-14)
(-0.000430962 9.41174e-05 9.13087e-15)
(-0.000378449 7.07097e-05 -6.39662e-16)
(-0.000327381 4.86906e-05 2.87824e-15)
(-0.000278823 3.1741e-05 -9.69481e-15)
(-0.000234621 2.17769e-05 -1.78662e-14)
(-0.000198743 1.42816e-05 3.97719e-15)
(-0.000170535 6.38124e-06 7.54246e-16)
(-0.000142908 -1.0777e-06 -1.6992e-16)
(-0.000115181 -8.60787e-06 1.19315e-16)
(-9.68906e-05 -1.19589e-05 4.6632e-16)
(-9.22889e-05 -1.62889e-05 -7.52856e-16)
(-5.89014e-05 -2.30036e-05 -1.42606e-15)
(-3.26869e-05 -1.14304e-05 6.41835e-16)
(-0.000133846 4.39652e-05 -1.1596e-15)
(-3.60476e-05 5.406e-05 8.75372e-15)
(0.000194942 -4.01925e-06 8.1274e-15)
(0.00100474 0.000157894 -8.32028e-14)
(3.6576e-05 0.00948237 1.05165e-14)
(0.000775606 0.00907517 2.78677e-15)
(0.00147158 0.00721948 1.07791e-15)
(0.00220206 0.0073577 -6.52109e-15)
(0.00267887 0.00689206 1.03816e-15)
(0.00310995 0.00633326 -1.45284e-14)
(0.00353576 0.00577779 1.04223e-13)
(0.00378615 0.00513617 3.08759e-14)
(0.00391425 0.00445869 -2.52761e-13)
(0.00396605 0.00381628 8.51155e-14)
(0.00390143 0.00319565 2.72147e-13)
(0.00375868 0.0026154 3.41646e-13)
(0.00353415 0.00214367 7.88008e-14)
(0.00326944 0.00178429 -3.85301e-13)
(0.00307075 0.00143257 -9.78989e-14)
(0.00263499 0.00135209 -9.90466e-14)
(0.00235712 0.00120485 -1.79052e-13)
(0.0021421 0.000995402 -3.62146e-13)
(0.00204658 0.000656426 -6.29181e-13)
(0.00132891 -0.00159736 1.59064e-13)
(0.00280255 0.00169774 -1.26926e-13)
(0.0047838 0.00186557 -1.78376e-13)
(0.00261977 -0.000320568 2.34675e-15)
(0.00260077 0.00148652 -2.52355e-13)
(0.00453054 -0.0012891 -4.64137e-14)
(-0.0247379 0.012685 4.40501e-14)
(-0.0378439 0.00878414 5.28183e-14)
(-0.0590942 0.00419239 -2.40889e-14)
(0.0273175 -0.00203462 3.35088e-14)
(0.0255438 0.00266028 6.48173e-14)
(0.0395645 -0.00289311 -5.63505e-14)
(0.00453499 0.00121257 1.2152e-14)
(-0.00292506 0.000648439 1.77475e-13)
(-0.00292885 0.000861887 8.07456e-14)
(-0.000825346 0.000381329 -3.26368e-14)
(0.000687355 -2.50676e-05 -1.08675e-13)
(0.000983823 8.33039e-05 -2.72196e-14)
(-0.00362032 -0.00098245 -1.97184e-14)
(-0.0303234 0.00801554 5.50514e-14)
(-0.000562364 0.00901475 -1.739e-15)
(-0.00103604 0.00781424 -3.89751e-14)
(-0.00139539 0.00625468 -3.4565e-14)
(-0.00161908 0.00514057 -2.81535e-14)
(-0.00166613 0.00399681 1.13935e-13)
(-0.00153174 0.00286017 2.05752e-13)
(-0.00124429 0.00187267 1.17402e-14)
(-0.00117608 0.00157582 1.4146e-13)
(-0.00143349 0.00160707 5.52788e-16)
(-0.00157335 0.00145417 -3.11004e-14)
(-0.00161902 0.0012161 -9.01252e-14)
(-0.00156565 0.00098204 -2.98069e-14)
(-0.00145664 0.000780284 -1.54095e-14)
(-0.00133455 0.00060818 7.44063e-14)
(-0.00120772 0.000464753 -3.90141e-14)
(-0.00107569 0.00035251 -1.32305e-13)
(-0.000951846 0.000268499 -1.68066e-14)
(-0.000842276 0.000204847 8.63661e-14)
(-0.000746617 0.000155418 -2.61239e-15)
(-0.00066181 0.000117004 -2.43543e-14)
(-0.000587279 8.66573e-05 -6.56512e-14)
(-0.000520983 6.24411e-05 2.68038e-14)
(-0.000460542 4.17642e-05 3.5223e-14)
(-0.000402689 2.31499e-05 -6.07169e-15)
(-0.000347235 5.97301e-06 -2.76342e-15)
(-0.000295712 -7.4482e-06 6.02577e-15)
(-0.000249105 -1.53734e-05 8.66548e-15)
(-0.000210366 -2.03233e-05 -2.03205e-15)
(-0.000178639 -2.36289e-05 -7.47363e-16)
(-0.000147921 -2.63709e-05 1.84642e-16)
(-0.000116765 -2.61569e-05 -9.99853e-17)
(-9.53349e-05 -2.10908e-05 -1.62544e-16)
(-8.02149e-05 1.02269e-05 6.63176e-17)
(4.70286e-05 0.000334963 -2.65388e-16)
(0.000623831 0.00200551 -2.04213e-15)
(0.000865801 0.00292475 1.47386e-14)
(-0.000351697 -0.00164302 -2.21293e-14)
(8.17132e-05 -0.000273281 -5.55027e-14)
(0.000917257 0.000198541 -3.03468e-14)
(-0.000195022 0.00794585 -8.92491e-15)
(0.00034016 0.00760812 4.79738e-15)
(0.000865975 0.00623442 4.19977e-15)
(0.00142983 0.00642651 -1.74134e-14)
(0.00179642 0.0060975 -1.48645e-14)
(0.00214011 0.00568416 3.52545e-14)
(0.00249607 0.00531525 -1.29224e-14)
(0.00270868 0.00484462 1.36858e-14)
(0.0028429 0.00433252 -9.40837e-14)
(0.00291671 0.00384029 -2.87336e-13)
(0.00289273 0.00334698 -1.03083e-14)
(0.00280553 0.00287745 -1.25297e-13)
(0.00266271 0.00245393 -8.11921e-14)
(0.00249739 0.00206964 -1.43797e-14)
(0.0023105 0.00173205 -3.30151e-13)
(0.00218218 0.00134124 2.99813e-13)
(0.00211639 0.00100674 1.71967e-13)
(0.00203583 0.000785512 -3.86756e-13)
(0.00194686 0.000621017 1.2223e-13)
(0.0018092 0.000474523 -2.00995e-13)
(0.00204916 0.000415847 -1.39537e-13)
(0.0016263 3.72867e-05 2.51217e-13)
(0.000842772 -0.000713281 6.08718e-15)
(0.00312092 -0.000160713 2.21531e-13)
(0.007306 0.00213905 1.01123e-13)
(0.0494722 -0.00269578 -2.04916e-14)
(0.0278399 -0.00389203 6.24772e-15)
(0.0288738 -0.00930087 2.47331e-14)
(-0.0164669 -0.00750377 -3.01272e-14)
(-0.0116241 0.00218965 -5.40549e-14)
(0.0147072 0.00615329 2.18259e-14)
(0.0015453 -0.000308398 -5.27679e-14)
(0.00043421 0.00105169 -4.00096e-14)
(-0.00695627 0.000869785 -1.49127e-13)
(-0.00408671 0.000428044 -2.39486e-13)
(-0.000434929 -0.00012952 4.13559e-14)
(0.00193808 -0.000299334 -1.05327e-14)
(-0.000251364 -0.00156432 -9.33627e-15)
(-0.0165878 0.00828986 -1.94179e-14)
(-0.000629824 0.00755322 2.00405e-14)
(-0.000948124 0.00661977 3.82076e-14)
(-0.00119184 0.00535731 -5.0494e-14)
(-0.00136782 0.00448318 -1.94848e-14)
(-0.00142452 0.00356677 7.47464e-14)
(-0.00134017 0.00265369 -1.50774e-13)
(-0.00122084 0.00199905 -9.96643e-14)
(-0.0012627 0.0017766 2.05248e-13)
(-0.00146838 0.00170894 1.92422e-13)
(-0.0015722 0.0015233 -8.43055e-15)
(-0.00159799 0.0012942 -5.58784e-14)
(-0.00155335 0.00106778 -3.47669e-14)
(-0.00145579 0.000865738 1.17142e-13)
(-0.00133861 0.000693784 -5.81244e-14)
(-0.00121579 0.00055069 -1.30495e-14)
(-0.00108731 0.000434741 9.83334e-14)
(-0.000965319 0.00034526 -4.44085e-14)
(-0.000854451 0.000276286 4.07456e-14)
(-0.000756683 0.000221877 2.43709e-14)
(-0.000669598 0.000178192 4.24741e-15)
(-0.000592879 0.000142493 6.83563e-14)
(-0.000524553 0.000112787 -2.56306e-14)
(-0.000462098 8.6634e-05 -4.77363e-14)
(-0.000402372 6.28764e-05 -7.62343e-15)
(-0.000345753 4.1661e-05 1.9087e-14)
(-0.000293854 2.50706e-05 6.49882e-16)
(-0.000247102 1.41754e-05 9.25875e-15)
(-0.000208065 7.08498e-06 -1.73675e-15)
(-0.000175971 1.51198e-06 1.12659e-16)
(-0.000145043 -3.3556e-06 -2.76983e-16)
(-0.000112904 -4.15336e-06 -5.08681e-16)
(-9.01466e-05 -6.09166e-06 4.00419e-17)
(-8.27925e-05 -5.81916e-05 4.1193e-17)
(-5.96119e-05 -0.00055771 4.90599e-16)
(-0.000158776 -0.00294514 -1.39938e-15)
(-0.000323081 -0.00389602 5.3434e-15)
(-0.000117079 0.00225669 1.75899e-15)
(0.000123669 0.000247985 -1.14632e-14)
(0.000738697 1.69677e-05 4.31299e-14)
(-1.453e-05 0.00669925 2.18058e-15)
(0.000450372 0.0064115 -4.3078e-16)
(0.000874627 0.00537798 2.42906e-15)
(0.00137592 0.00555305 -3.35417e-15)
(0.00170454 0.00528009 1.1302e-14)
(0.00201718 0.00493627 -1.48848e-15)
(0.00235291 0.00463635 -4.2044e-14)
(0.00256509 0.00423481 7.85605e-14)
(0.00271489 0.00379474 1.69779e-13)
(0.00281641 0.00336228 -1.05817e-13)
(0.0028276 0.00291849 -1.08108e-13)
(0.00278188 0.00248557 6.48744e-14)
(0.00268849 0.00208364 -1.49827e-13)
(0.00255097 0.00171845 -2.85164e-14)
(0.00239372 0.00138882 -4.6133e-14)
(0.0022367 0.00107975 1.98237e-14)
(0.00203965 0.00093141 4.02828e-14)
(0.00193489 0.000790993 4.47036e-13)
(0.00185947 0.000650226 3.53084e-13)
(0.00181618 0.000456109 -1.57638e-13)
(0.00183522 0.000185337 2.26043e-13)
(0.00173494 -0.000472815 1.87451e-14)
(0.00089445 -0.00160778 -5.70809e-14)
(-0.000295626 -0.00140223 -1.18273e-13)
(-0.000150017 0.00111068 9.30157e-15)
(0.00172469 0.00286232 3.23204e-14)
(0.00869846 8.07826e-05 4.00239e-14)
(0.00269485 -0.00339724 -3.78665e-14)
(-0.00855763 -0.00371494 9.842e-15)
(0.0160837 -0.00480689 7.59964e-14)
(-0.0226102 0.00333356 -2.97451e-14)
(0.00599161 0.00104565 -1.67252e-13)
(0.0020366 0.00109027 -8.94012e-14)
(-0.000389489 0.000232928 -6.14351e-14)
(-0.00328279 -8.78101e-05 6.35091e-14)
(-0.000936972 -0.000841552 5.7282e-14)
(0.00209734 -0.000360059 5.81287e-14)
(0.000576823 -0.00160101 6.38965e-14)
(-0.0132718 0.00878228 -1.02466e-15)
(-0.000402692 0.0063777 -9.1382e-15)
(-0.000702226 0.00565239 -1.05321e-14)
(-0.000941208 0.00463575 2.56596e-15)
(-0.00112179 0.00393608 3.37414e-14)
(-0.00119741 0.00319447 2.23317e-14)
(-0.0011664 0.00244734 -1.9415e-13)
(-0.0011597 0.00201604 -1.16759e-13)
(-0.00127337 0.00186498 -1.84549e-13)
(-0.00144171 0.0017534 2.24201e-14)
(-0.00152666 0.00155657 2.06519e-14)
(-0.00154737 0.00133451 -5.19111e-14)
(-0.0015132 0.00111578 4.96219e-15)
(-0.00143156 0.000913823 -2.45841e-14)
(-0.00132754 0.000737907 -4.58492e-14)
(-0.001215 0.000589058 -1.42149e-13)
(-0.00109546 0.000464942 -1.19717e-14)
(-0.000979554 0.000365726 8.63236e-14)
(-0.000871749 0.000287384 -1.33717e-14)
(-0.000774741 0.000225062 1.66983e-14)
(-0.000687388 0.000175024 -3.05273e-14)
(-0.000609519 0.000134589 -4.6866e-14)
(-0.000539444 0.000101462 -4.23195e-15)
(-0.000474772 7.34085e-05 1.76786e-14)
(-0.000412806 4.90787e-05 1.90841e-14)
(-0.000354238 2.81472e-05 -5.84722e-16)
(-0.000301093 1.17996e-05 -1.00601e-14)
(-0.000253358 1.00499e-06 -1.69562e-14)
(-0.000213223 -5.98807e-06 3.28318e-15)
(-0.000179965 -1.1345e-05 -1.9336e-16)
(-0.000148234 -1.61342e-05 3.04919e-16)
(-0.000115961 -1.8817e-05 4.84383e-16)
(-9.31373e-05 -1.57931e-05 -4.01257e-17)
(-9.24841e-05 -1.72366e-06 2.0255e-16)
(-0.000110588 0.000134941 -9.98141e-16)
(-0.000307098 0.00091154 3.25296e-16)
(-0.000491702 0.000962716 -1.44507e-14)
(0.000338891 -0.000823711 2.26705e-14)
(0.0002394 -2.23847e-05 5.79123e-14)
(0.00102259 -0.000363301 -2.15362e-14)
(-4.78478e-06 0.00574013 9.79383e-16)
(0.000374414 0.00549988 -2.7522e-16)
(0.000717187 0.00471116 6.50449e-16)
(0.00113752 0.00488362 3.38199e-15)
(0.00141415 0.0046679 -9.03003e-15)
(0.00168217 0.0043938 -1.90974e-14)
(0.00197359 0.00417311 4.55404e-14)
(0.002162 0.00385508 -8.91433e-15)
(0.00230182 0.00350274 5.05106e-14)
(0.00240432 0.00315595 1.03044e-13)
(0.00242821 0.00278866 2.22779e-14)
(0.00240407 0.00242465 3.44871e-14)
(0.00233814 0.00208095 2.16572e-13)
(0.00222875 0.00175922 3.67257e-13)
(0.00210062 0.00146359 3.32889e-13)
(0.00195414 0.00120407 -5.40207e-15)
(0.00181843 0.000951694 4.05426e-13)
(0.00175978 0.00074787 2.67982e-14)
(0.00171966 0.000581079 -1.19176e-13)
(0.00167901 0.000401151 1.57442e-13)
(0.00166852 0.000191158 -2.60874e-13)
(0.00161276 -0.000279154 1.10147e-13)
(0.000863245 -0.0010917 1.1051e-13)
(-0.000476844 -0.00103493 4.48905e-14)
(-0.000702173 0.000638166 1.20497e-13)
(0.00110246 0.00194771 -4.95026e-14)
(0.00230872 0.00109932 -4.27955e-14)
(0.00230239 -0.0013166 6.31855e-15)
(-0.000307674 -0.00254786 2.63878e-14)
(-0.00466106 -0.00108314 -7.0313e-14)
(-0.00290529 0.000499795 -6.87184e-14)
(0.00108853 0.000846215 1.40207e-13)
(0.0033927 0.000728204 3.15605e-14)
(0.00354442 -1.78372e-05 -6.03528e-14)
(0.00219829 -0.000792945 -4.97142e-16)
(0.0220766 -0.00799495 -1.43336e-13)
(-0.0057755 0.00226742 -5.09427e-14)
(0.000496188 -0.00205666 -1.97455e-14)
(-0.0100153 0.00786386 -3.18901e-14)
(-0.000323828 0.00546777 -6.63866e-15)
(-0.00057505 0.00488438 -1.26889e-14)
(-0.000780533 0.00404923 6.03959e-15)
(-0.000944018 0.00347783 8.31862e-14)
(-0.00102152 0.00286408 3.54652e-14)
(-0.00102051 0.0022366 6.93779e-16)
(-0.00106848 0.00195142 1.82787e-13)
(-0.00123682 0.00187779 -8.38761e-14)
(-0.00137964 0.00174389 -1.35018e-13)
(-0.00145658 0.00155101 4.91506e-14)
(-0.00147959 0.00134354 9.80696e-14)
(-0.00145495 0.0011388 -2.41942e-14)
(-0.00138795 0.000945966 6.85742e-14)
(-0.00129854 0.000775186 9.31326e-15)
(-0.00119775 0.000628691 3.5315e-14)
(-0.00108786 0.000504059 1.24858e-14)
(-0.000979472 0.000402258 -3.93507e-14)
(-0.000876221 0.000320374 3.24399e-14)
(-0.000781193 0.000254641 -2.44848e-14)
(-0.000694444 0.000201439 4.50391e-15)
(-0.00061636 0.000158281 6.51192e-14)
(-0.000545259 0.000122632 -2.25317e-14)
(-0.000479236 9.23597e-05 -3.04338e-14)
(-0.000415973 6.60734e-05 6.58208e-15)
(-0.000356587 4.37249e-05 -1.63426e-15)
(-0.000303034 2.62164e-05 2.98891e-15)
(-0.000255061 1.41311e-05 8.57143e-15)
(-0.000214493 6.14686e-06 -1.47254e-15)
(-0.000180707 -1.29459e-07 -1.41133e-16)
(-0.000148703 -5.70936e-06 1.95265e-16)
(-0.000116538 -7.98931e-06 1.44338e-15)
(-9.284e-05 -8.30412e-06 1.80555e-16)
(-8.59484e-05 -1.09337e-05 -9.91621e-16)
(-5.4215e-05 -2.02996e-05 -1.7739e-16)
(1.01216e-05 -4.26335e-05 -4.28261e-16)
(4.05203e-05 8.53052e-05 4.32705e-15)
(2.58849e-05 0.000128826 -8.98747e-15)
(9.36962e-05 -2.61362e-06 -1.42604e-14)
(0.000473467 0.000328598 -5.28203e-14)
(4.15224e-05 0.0049586 2.71719e-15)
(0.000365266 0.00475228 -3.04972e-15)
(0.00065319 0.00413959 -6.95703e-17)
(0.00102089 0.00429787 2.68018e-15)
(0.00126559 0.00412042 -2.04424e-15)
(0.00150354 0.00389224 2.54236e-15)
(0.001768 0.00371837 8.73723e-15)
(0.00194277 0.00345185 -1.09224e-13)
(0.00207868 0.00315391 -1.4709e-14)
(0.00218716 0.0028597 1.70532e-13)
(0.00222509 0.00253877 -7.21362e-14)
(0.00222163 0.00221474 -1.53112e-13)
(0.00218044 0.001902 -2.98938e-13)
(0.00209771 0.00160184 -2.46545e-13)
(0.00199228 0.00132233 -1.69468e-13)
(0.00186922 0.0010662 -6.17361e-14)
(0.00173714 0.000829224 -2.27029e-13)
(0.00164923 0.000666333 -3.15598e-13)
(0.00160755 0.000522835 -1.39072e-13)
(0.00156472 0.000358483 3.57539e-13)
(0.00153463 0.00015714 3.28319e-13)
(0.00143895 -0.000223806 -2.15522e-14)
(0.000898302 -0.000779008 -5.04634e-14)
(-3.6156e-05 -0.000670296 -1.59424e-13)
(-0.000199031 0.000581352 -9.28705e-14)
(0.000950027 0.00152714 4.27742e-14)
(0.00230134 0.000759748 3.30699e-14)
(0.00255548 -0.00092864 3.72154e-15)
(0.00107213 -0.00174415 -1.98444e-14)
(-0.000514731 -0.0011845 7.40405e-14)
(-0.00170625 5.03696e-06 1.54724e-13)
(-0.000617399 0.000665251 -1.04855e-14)
(0.00100475 0.000663312 2.72402e-14)
(0.00209893 0.000339221 4.74001e-14)
(0.00101137 0.00182409 -1.85036e-14)
(-0.0150015 0.00177817 1.74108e-13)
(-0.00426119 -0.00176521 7.94645e-14)
(-0.000297356 -0.00236907 -6.40101e-14)
(-0.00574985 0.00609879 -1.89319e-14)
(-0.000237327 0.00472523 1.65613e-14)
(-0.000459359 0.00425051 2.03027e-14)
(-0.000645647 0.0035608 8.2233e-15)
(-0.000798732 0.00308696 9.76786e-14)
(-0.000880651 0.00256868 -1.73032e-13)
(-0.000916008 0.00210373 8.97484e-14)
(-0.00100691 0.00190575 1.5156e-13)
(-0.00117763 0.00183832 6.62212e-14)
(-0.0013018 0.00170146 -3.68015e-14)
(-0.00137153 0.00151921 -3.43634e-14)
(-0.00139887 0.00132906 2.17015e-14)
(-0.00138442 0.00114081 3.71913e-14)
(-0.0013313 0.000960135 -8.99278e-14)
(-0.0012569 0.000797406 6.45165e-14)
(-0.00116913 0.000654968 1.64839e-14)
(-0.00107055 0.000531038 -1.11043e-14)
(-0.000971401 0.000427282 -5.77554e-14)
(-0.000874571 0.000341776 -5.77544e-14)
(-0.000783483 0.000271843 4.90029e-14)
(-0.000698883 0.000214468 1.42874e-14)
(-0.000621766 0.000167457 4.91009e-15)
(-0.000550691 0.000128504 5.16097e-14)
(-0.000484106 9.56253e-05 2.09248e-14)
(-0.000420061 6.74966e-05 -2.4467e-15)
(-0.00036025 4.39191e-05 6.8289e-15)
(-0.000306407 2.55248e-05 -4.75005e-15)
(-0.000258184 1.24844e-05 -9.34142e-15)
(-0.000217114 3.78874e-06 1.37066e-15)
(-0.000182616 -3.09684e-06 -1.20208e-15)
(-0.000150228 -8.93474e-06 -4.11399e-16)
(-0.000118077 -1.17584e-05 -1.06373e-15)
(-9.34036e-05 -1.10313e-05 1.15382e-15)
(-8.57077e-05 -1.28673e-05 2.87112e-15)
(-5.46338e-05 -1.57115e-05 2.4281e-15)
(1.40922e-06 6.69687e-06 1.38912e-15)
(-2.26473e-05 4.03308e-05 -5.26666e-15)
(-2.54362e-05 2.48469e-05 3.21208e-15)
(9.43182e-05 5.74808e-05 3.60623e-14)
(8.37387e-05 0.000543508 4.11174e-14)
(6.32788e-05 0.00431477 7.45282e-16)
(0.000339298 0.00414206 1.78199e-15)
(0.000582549 0.00366106 -2.57014e-15)
(0.000901264 0.00380464 3.65583e-15)
(0.00111498 0.00366086 -7.17314e-15)
(0.00132359 0.00347029 1.08624e-14)
(0.00155871 0.00333549 -1.31823e-14)
(0.00171696 0.0031165 -2.4731e-14)
(0.00184294 0.0028687 -3.28676e-14)
(0.00194861 0.00262531 -4.65295e-14)
(0.00199211 0.00235258 1.86739e-14)
(0.00199942 0.00207314 1.77999e-13)
(0.00197371 0.00179961 2.41165e-13)
(0.00190872 0.00153201 3.87583e-14)
(0.00182102 0.00127945 4.91099e-15)
(0.00171583 0.00104564 1.13653e-14)
(0.00159633 0.000835072 -4.05358e-14)
(0.0015037 0.000644668 1.28431e-13)
(0.00147359 0.000491126 1.17389e-13)
(0.00143657 0.00033339 -2.7052e-13)
(0.00139103 0.000145147 -2.75393e-14)
(0.00127325 -0.000144887 5.69547e-14)
(0.000859666 -0.000517752 -7.35944e-14)
(0.000200418 -0.000416641 7.8012e-14)
(7.8784e-05 0.00048943 1.13805e-15)
(0.00091959 0.00116788 -1.45189e-14)
(0.00182425 0.000563623 -4.25938e-14)
(0.00161578 -0.000709461 1.75318e-15)
(0.000414138 -0.00126854 -4.27779e-17)
(-0.000722134 -0.000728669 3.50196e-14)
(-0.00108774 0.000143381 1.7024e-14)
(-0.000743834 0.000651872 -7.45475e-14)
(3.96917e-05 0.000634539 -3.44086e-14)
(0.000815341 0.000310907 1.72324e-13)
(0.000166315 0.000220484 2.68291e-14)
(-0.00907171 0.00502102 -1.27659e-13)
(0.00601032 -0.00360014 -4.21489e-14)
(0.0133288 -0.0139464 5.03989e-14)
(0.00145199 0.00783979 -1.68532e-15)
(-0.000177649 0.00411437 3.43827e-15)
(-0.000373098 0.00372299 -4.87373e-14)
(-0.000540321 0.00314711 2.41653e-14)
(-0.000681906 0.00274732 2.13132e-14)
(-0.000763456 0.00230753 4.61627e-14)
(-0.000828307 0.00198044 -1.54608e-14)
(-0.000945886 0.00184464 -3.71632e-14)
(-0.00110377 0.00176793 -3.78478e-15)
(-0.00121621 0.0016362 -2.61899e-15)
(-0.00128096 0.00146875 1.39852e-14)
(-0.00131207 0.00129644 4.01327e-14)
(-0.00130677 0.00112576 6.60108e-14)
(-0.00126649 0.000959759 -4.63109e-15)
(-0.00120632 0.000808017 -1.3475e-13)
(-0.00113133 0.000672341 2.62886e-14)
(-0.00104443 0.000552047 7.69949e-14)
(-0.000955193 0.000449309 5.91211e-14)
(-0.000865455 0.00036271 2.68695e-14)
(-0.000779398 0.000290735 -2.22981e-14)
(-0.000697995 0.000231031 -5.95142e-15)
(-0.000622623 0.00018165 -2.35553e-14)
(-0.000552222 0.000140529 -4.3216e-14)
(-0.000485671 0.000105813 1.78025e-14)
(-0.000421493 7.6223e-05 1.67753e-14)
(-0.000361739 5.16012e-05 2.9929e-15)
(-0.000308049 3.23824e-05 1.69952e-14)
(-0.000259902 1.85107e-05 5.94313e-15)
(-0.000218674 9.05294e-06 -1.00131e-15)
(-0.000183775 1.6076e-06 1.12692e-15)
(-0.000151185 -4.67346e-06 4.60594e-16)
(-0.000119086 -7.69003e-06 -1.28966e-15)
(-9.40097e-05 -7.33909e-06 -1.52539e-15)
(-8.57616e-05 -9.67594e-06 -7.65327e-16)
(-5.46261e-05 -1.45186e-05 -4.2357e-16)
(2.98544e-06 -6.14013e-06 2.77303e-15)
(-1.9237e-05 1.40618e-05 -4.82857e-16)
(-1.9592e-05 1.34032e-05 1.16868e-14)
(0.000117215 3.55733e-05 -1.28395e-14)
(0.000439631 0.000139857 -6.19541e-15)
(8.25282e-05 0.00377728 3.83299e-15)
(0.000320686 0.00362952 -1.38118e-15)
(0.000530319 0.00324726 -2.60381e-15)
(0.00080953 0.00337607 -3.58022e-15)
(0.0009993 0.0032581 1.34943e-14)
(0.00118475 0.00309785 -1.80232e-14)
(0.00139587 0.00299096 -5.32327e-15)
(0.00153927 0.00280612 3.49569e-14)
(0.00165779 0.00259799 1.94676e-14)
(0.00176013 0.00239264 3.56161e-14)
(0.00180737 0.00215631 8.01046e-14)
(0.00182417 0.00191192 6.46535e-14)
(0.00181078 0.00166872 -1.52445e-13)
(0.00176094 0.00142625 -2.45621e-13)
(0.00168999 0.00119451 4.21462e-14)
(0.00159981 0.000977161 3.12433e-13)
(0.00149607 0.000775111 6.40653e-14)
(0.0013906 0.000592679 -1.77669e-13)
(0.00135834 0.00044533 -3.36402e-14)
(0.00132301 0.000304985 3.06978e-14)
(0.00126963 0.000138521 -6.90853e-14)
(0.00115027 -9.0631e-05 -8.93709e-14)
(0.000822567 -0.000343272 1.02228e-14)
(0.000338735 -0.000237159 6.91484e-14)
(0.000244547 0.0004362 6.00148e-14)
(0.00086082 0.000934839 -3.41394e-15)
(0.00150775 0.000457715 3.58836e-14)
(0.00127308 -0.0005618 6.43444e-15)
(0.000288405 -0.00100705 6.16436e-14)
(-0.000498811 -0.000551297 -4.58671e-14)
(-0.000623274 0.000188406 -1.60024e-13)
(-0.000305522 0.000615563 -5.10158e-14)
(0.000141549 0.000591174 2.84634e-14)
(0.000550129 0.000293592 1.5451e-14)
(0.000785624 -3.50578e-05 -4.28656e-15)
(0.00169238 -0.0010114 5.12212e-15)
(0.000700729 0.000593097 1.81656e-14)
(-0.0114054 0.00454076 4.58337e-15)
(-0.00343873 0.00563452 2.44474e-14)
(-0.00012827 0.0036029 -8.58913e-15)
(-0.000302795 0.00327547 -7.71651e-15)
(-0.000454225 0.00279178 -1.34551e-14)
(-0.000583526 0.00245267 -1.72027e-14)
(-0.000663153 0.00207742 2.98332e-14)
(-0.000747902 0.00185276 -4.30626e-14)
(-0.000879019 0.0017605 -1.7214e-14)
(-0.00102334 0.00168073 6.62172e-14)
(-0.00112745 0.00155737 -3.99427e-14)
(-0.00118878 0.00140501 7.04447e-14)
(-0.00122328 0.00125116 6.77592e-14)
(-0.00122575 0.00109801 4.37171e-14)
(-0.00119647 0.000947229 3.29644e-14)
(-0.00114927 0.000807767 4.9007e-14)
(-0.00108697 0.000680815 -1.39877e-14)
(-0.00101147 0.000565695 3.09904e-15)
(-0.000932285 0.000465538 3.52952e-14)
(-0.000850461 0.000379187 2.71885e-14)
(-0.000770191 0.000306041 -2.56775e-15)
(-0.000692867 0.000244425 -5.44062e-14)
(-0.000620121 0.000192906 -9.50353e-15)
(-0.000551191 0.000149599 2.09107e-16)
(-0.000485394 0.000112956 -3.83818e-14)
(-0.000421628 8.17908e-05 4.1841e-15)
(-0.000362414 5.60128e-05 -6.3418e-15)
(-0.000309176 3.5816e-05 -1.29908e-14)
(-0.000261325 2.10144e-05 9.08808e-16)
(-0.000220045 1.06784e-05 8.48417e-17)