/*--------------------------------*- C++ -*----------------------------------*\
| =========                 |                                                 |
| \\      /  F ield         | OpenFOAM: The Open Source CFD Toolbox           |
|  \\    /   O peration     | Version:  2206                                  |
|   \\  /    A nd           | Website:  www.openfoam.com                      |
|    \\/     M anipulation  |                                                 |
\*---------------------------------------------------------------------------*/
FoamFile
{
    version     2.0;
    format      ascii;
    arch        "LSB;label=32;scalar=64";
    class       volScalarField;
    location    "300";
    object      nuTilda;
}
// * * * * * * * * * * * * * * * * * * * * * * * * * * * * * * * * * * * * * //

dimensions      [0 2 -1 0 0 0 0];

internalField   nonuniform List<scalar> 
10720
(
6.29153e-05
6.61203e-05
7.02224e-05
7.53256e-05
8.16954e-05
8.97562e-05
0.000100173
0.000113497
0.00013099
0.000154102
0.000185147
0.000227493
0.000285677
0.000367581
0.000486657
0.000664787
0.000946478
0.00139571
0.00221812
0.00359001
0.0069055
0.0127141
0.0339481
0.0760713
0.0937182
0.0946336
0.0956835
0.0992247
0.102744
0.104482
0.104458
0.103209
0.100841
0.097411
0.0927923
0.0869115
0.078449
0.068319
0.0332574
6.00062e-05
5.73657e-05
5.46103e-05
5.19114e-05
4.91626e-05
4.63804e-05
4.36767e-05
4.15967e-05
4.34426e-05
4.7294e-05
5.28998e-05
6.05886e-05
7.10539e-05
8.55558e-05
0.000105896
0.000135056
0.000177795
0.00024219
0.000342354
0.000503134
0.00077371
0.00124196
0.00211722
0.00376917
0.0073264
0.0147198
0.0324698
0.0663114
0.0934623
0.105021
0.108429
0.109371
0.109467
0.108972
0.10797
0.106574
0.104428
0.101993
0.0924569
3.80705e-05
3.78503e-05
3.76491e-05
3.74804e-05
3.72847e-05
3.71028e-05
3.69668e-05
3.68467e-05
3.67949e-05
3.68407e-05
3.69023e-05
3.75074e-05
3.96497e-05
4.43008e-05
5.39232e-05
7.20712e-05
0.000107882
0.000173937
0.000319132
0.000589849
0.00132188
0.00283124
0.00712116
0.0204936
0.0394703
0.0632568
0.0925533
0.123742
0.148782
0.162731
0.168018
0.168833
0.16724
0.163886
0.159372
0.153868
0.148555
0.139531
0.139938
3.82435e-05
3.8475e-05
3.86698e-05
3.89307e-05
3.9194e-05
3.94565e-05
3.9706e-05
3.99138e-05
3.97968e-05
3.95291e-05
3.91566e-05
3.86935e-05
3.81514e-05
3.75299e-05
3.67956e-05
3.59244e-05
3.48276e-05
3.34379e-05
3.15609e-05
2.89731e-05
2.51731e-05
1.98029e-05
1.18096e-05
4.78809e-06
7.58297e-06
0.000115445
0.00054084
0.00415509
0.0141122
0.0287153
0.0437228
0.0550584
0.0618217
0.0656039
0.068002
0.0699925
0.0717244
0.0752966
0.0784573
4.03657e-05
4.03973e-05
4.043e-05
4.04651e-05
4.0508e-05
4.05559e-05
4.06105e-05
4.06742e-05
4.0749e-05
4.08363e-05
4.09395e-05
4.10658e-05
4.12041e-05
4.14525e-05
4.14866e-05
4.06973e-05
3.7426e-05
3.6674e-05
1.23622e-05
0.000118317
2.43394e-07
6.25908e-05
2.23948e-05
0.000557831
0.00298872
0.00756695
0.015709
0.0310645
0.0574167
0.0938864
0.132915
0.164598
0.184988
0.196818
0.203509
0.206388
0.207632
0.201532
0.210316
4.03415e-05
4.03068e-05
4.02802e-05
4.02406e-05
4.02065e-05
4.01699e-05
4.01372e-05
4.01113e-05
4.01201e-05
4.01476e-05
4.01838e-05
4.02279e-05
4.02817e-05
4.03417e-05
4.04092e-05
4.04834e-05
4.05674e-05
4.06633e-05
4.07772e-05
4.09148e-05
4.109e-05
4.13123e-05
4.1624e-05
4.19509e-05
4.23862e-05
4.19229e-05
4.20749e-05
3.135e-05
0.000107614
0.000790613
0.00301664
0.00754041
0.0142505
0.0224331
0.0311547
0.0395998
0.0470009
0.0536711
0.0631641
4.00345e-05
4.003e-05
4.00289e-05
4.00296e-05
4.00313e-05
4.00362e-05
4.00453e-05
4.00578e-05
4.00764e-05
4.01016e-05
4.01348e-05
4.01781e-05
4.02344e-05
4.03056e-05
4.04006e-05
4.04911e-05
4.02859e-05
3.98372e-05
3.58508e-05
2.73713e-05
8.62472e-06
1.72346e-05
4.51129e-06
0.000114512
0.000625798
3.00323e-05
0.000226732
0.000852235
0.00417991
0.0136838
0.0356931
0.0728368
0.118909
0.161419
0.193308
0.215441
0.232026
0.239215
0.255297
4.00357e-05
4.00401e-05
4.00459e-05
4.005e-05
4.0057e-05
4.00608e-05
4.00632e-05
4.00649e-05
4.00609e-05
4.0056e-05
4.00495e-05
4.00426e-05
4.00361e-05
4.00298e-05
4.00236e-05
4.00171e-05
4.00103e-05
4.00029e-05
3.99935e-05
3.9984e-05
3.9974e-05
3.99633e-05
3.99506e-05
3.99389e-05
3.99262e-05
3.99306e-05
3.9917e-05
4.00274e-05
3.98728e-05
3.97794e-05
3.83379e-05
3.60235e-05
0.000232922
0.00104722
0.00305723
0.00691926
0.0131054
0.0218236
0.0392119
4.0081e-05
4.0082e-05
4.00825e-05
4.00842e-05
4.0087e-05
4.00907e-05
4.00956e-05
4.01022e-05
4.01109e-05
4.01223e-05
4.01373e-05
4.01568e-05
4.01824e-05
4.02151e-05
4.02597e-05
4.03129e-05
4.03885e-05
4.04291e-05
4.0873e-05
4.02361e-05
3.69764e-05
2.58433e-05
8.5452e-06
3.61071e-06
0
6.32706e-06
4.85395e-05
0.000185187
0.000939388
0.000551669
0.00165614
0.0080186
0.0296021
0.0707653
0.124209
0.175155
0.217275
0.248126
0.278333
4.00811e-05
4.00785e-05
4.00798e-05
4.00778e-05
4.00795e-05
4.00772e-05
4.00733e-05
4.00698e-05
4.00679e-05
4.00674e-05
4.00674e-05
4.00672e-05
4.00678e-05
4.00688e-05
4.00706e-05
4.00729e-05
4.00757e-05
4.00791e-05
4.00832e-05
4.00878e-05
4.00929e-05
4.00985e-05
4.01049e-05
4.01119e-05
4.0121e-05
4.01289e-05
4.01533e-05
4.01158e-05
4.03774e-05
3.9294e-05
4.43733e-05
2.15118e-05
6.26869e-05
0.000250913
0.000716854
0.00164865
0.000735998
0.00164095
0.013682
4.00696e-05
4.00692e-05
4.00697e-05
4.00702e-05
4.00704e-05
4.00711e-05
4.00722e-05
4.00737e-05
4.00759e-05
4.0079e-05
4.00833e-05
4.00893e-05
4.00973e-05
4.01083e-05
4.01234e-05
4.01434e-05
4.01696e-05
4.01983e-05
4.02897e-05
4.04759e-05
4.12033e-05
4.00611e-05
3.70818e-05
1.86253e-05
7.64017e-06
5.17006e-06
2.34774e-06
0
0
0.000122277
0.000371609
0.00183019
0.000379936
0.00874681
0.0381198
0.0933772
0.16051
0.224085
0.278392
4.00688e-05
4.00675e-05
4.00692e-05
4.00688e-05
4.00719e-05
4.00714e-05
4.00689e-05
4.00666e-05
4.00648e-05
4.00637e-05
4.00629e-05
4.0062e-05
4.00615e-05
4.00612e-05
4.00612e-05
4.00612e-05
4.00615e-05
4.00618e-05
4.00623e-05
4.00628e-05
4.00632e-05
4.00634e-05
4.00635e-05
4.00629e-05
4.00628e-05
4.00633e-05
4.00641e-05
4.00674e-05
4.00667e-05
4.0084e-05
4.00524e-05
4.0218e-05
3.88157e-05
3.41797e-05
1.00299e-06
5.76629e-06
0.000174468
0.000431197
0.00237776
4.00701e-05
4.00705e-05
4.00707e-05
4.00708e-05
4.00711e-05
4.00712e-05
4.00715e-05
4.00722e-05
4.00731e-05
4.00744e-05
4.00763e-05
4.0079e-05
4.00828e-05
4.00881e-05
4.00955e-05
4.01058e-05
4.01196e-05
4.0135e-05
4.01533e-05
4.01672e-05
4.02846e-05
4.07187e-05
4.16171e-05
3.98526e-05
3.41591e-05
2.60126e-05
1.16243e-05
7.30807e-06
5.70252e-06
1.74592e-06
0
0
8.66446e-05
0.00205587
0.00168559
0.0217682
0.0782897
0.16627
0.252377
4.00692e-05
4.00672e-05
4.00679e-05
4.00674e-05
4.00704e-05
4.00703e-05
4.00681e-05
4.00659e-05
4.00643e-05
4.00633e-05
4.00627e-05
4.00623e-05
4.00621e-05
4.00622e-05
4.00621e-05
4.00621e-05
4.00624e-05
4.00629e-05
4.00635e-05
4.00643e-05
4.00652e-05
4.00663e-05
4.00675e-05
4.0069e-05
4.00708e-05
4.00732e-05
4.00763e-05
4.00801e-05
4.0085e-05
4.0091e-05
4.00974e-05
4.01051e-05
4.02006e-05
3.96344e-05
3.85605e-05
2.57377e-05
7.924e-06
1.56187e-06
8.954e-05
4.00693e-05
4.00695e-05
4.007e-05
4.007e-05
4.00696e-05
4.00694e-05
4.00691e-05
4.00688e-05
4.00687e-05
4.00687e-05
4.00689e-05
4.00693e-05
4.007e-05
4.00711e-05
4.00727e-05
4.00753e-05
4.0079e-05
4.00835e-05
4.00893e-05
4.00907e-05
4.00811e-05
4.01553e-05
4.04567e-05
4.12143e-05
4.13934e-05
4.04709e-05
3.79147e-05
3.34606e-05
2.76358e-05
8.34874e-06
7.15193e-06
1.53319e-06
0
0
0.000389946
0.00542866
0.016181
0.0905056
0.20012
4.00682e-05
4.00661e-05
4.00661e-05
4.00653e-05
4.00683e-05
4.00685e-05
4.00669e-05
4.00649e-05
4.00634e-05
4.00626e-05
4.0062e-05
4.00617e-05
4.00616e-05
4.00617e-05
4.00619e-05
4.00621e-05
4.00622e-05
4.00622e-05
4.00624e-05
4.00626e-05
4.00628e-05
4.0063e-05
4.00634e-05
4.00636e-05
4.00639e-05
4.00642e-05
4.00646e-05
4.00651e-05
4.00656e-05
4.00657e-05
4.00666e-05
4.00623e-05
4.00869e-05
4.00356e-05
4.04115e-05
3.90787e-05
3.29751e-05
8.93993e-06
2.13571e-05
4.00691e-05
4.00694e-05
4.00696e-05
4.00693e-05
4.00689e-05
4.00684e-05
4.0068e-05
4.00678e-05
4.00675e-05
4.00674e-05
4.00675e-05
4.00677e-05
4.00681e-05
4.00689e-05
4.007e-05
4.00718e-05
4.00744e-05
4.00779e-05
4.00816e-05
4.00856e-05
4.00834e-05
4.00759e-05
4.00826e-05
4.0254e-05
4.06106e-05
4.10487e-05
4.15327e-05
4.15047e-05
4.12563e-05
3.76536e-05
3.25883e-05
7.20314e-06
5.78071e-06
0
0
0
0.00443152
0.031005
0.132968
4.00681e-05
4.00657e-05
4.00651e-05
4.0064e-05
4.00668e-05
4.00673e-05
4.0066e-05
4.00643e-05
4.0063e-05
4.00621e-05
4.00617e-05
4.00614e-05
4.00613e-05
4.00615e-05
4.00616e-05
4.00619e-05
4.00622e-05
4.00624e-05
4.00626e-05
4.00626e-05
4.00627e-05
4.00629e-05
4.00632e-05
4.00636e-05
4.0064e-05
4.00646e-05
4.00655e-05
4.00668e-05
4.00683e-05
4.00703e-05
4.00728e-05
4.00755e-05
4.00798e-05
4.00773e-05
4.0143e-05
4.02656e-05
4.09856e-05
3.68278e-05
5.53386e-06
4.0069e-05
4.0069e-05
4.0069e-05
4.00685e-05
4.00679e-05
4.00674e-05
4.00668e-05
4.00664e-05
4.0066e-05
4.00657e-05
4.00654e-05
4.00652e-05
4.0065e-05
4.00649e-05
4.00649e-05
4.00649e-05
4.0065e-05
4.00651e-05
4.00655e-05
4.00671e-05
4.00688e-05
4.00685e-05
4.00652e-05
4.00636e-05
4.00994e-05
4.02024e-05
4.04082e-05
4.07663e-05
4.13479e-05
4.20076e-05
4.25239e-05
3.83003e-05
2.5952e-05
7.89639e-06
0
0
0
0.008718
0.0716776
4.0068e-05
4.00657e-05
4.00645e-05
4.0063e-05
4.00656e-05
4.00663e-05
4.00652e-05
4.00636e-05
4.00625e-05
4.00618e-05
4.00615e-05
4.00612e-05
4.0061e-05
4.00611e-05
4.00613e-05
4.00615e-05
4.00619e-05
4.00622e-05
4.00625e-05
4.00628e-05
4.0063e-05
4.00631e-05
4.00631e-05
4.00632e-05
4.00632e-05
4.00634e-05
4.00637e-05
4.00642e-05
4.00649e-05
4.00656e-05
4.00664e-05
4.00677e-05
4.00671e-05
4.00775e-05
4.0045e-05
4.02316e-05
3.95436e-05
4.44546e-05
2.13944e-05
4.00687e-05
4.00685e-05
4.00682e-05
4.00676e-05
4.00669e-05
4.00663e-05
4.00658e-05
4.00654e-05
4.00651e-05
4.00648e-05
4.00646e-05
4.00645e-05
4.00645e-05
4.00646e-05
4.00648e-05
4.00652e-05
4.00658e-05
4.00667e-05
4.00678e-05
4.00689e-05
4.007e-05
4.00704e-05
4.0071e-05
4.00706e-05
4.00654e-05
4.00563e-05
4.00507e-05
4.00893e-05
4.02217e-05
4.06453e-05
4.13819e-05
4.27105e-05
4.2009e-05
3.30356e-05
8.67213e-06
0
0
0.000681465
0.032631
4.00681e-05
4.00658e-05
4.00642e-05
4.00624e-05
4.00647e-05
4.00655e-05
4.00646e-05
4.00631e-05
4.00621e-05
4.00615e-05
4.00612e-05
4.00609e-05
4.00607e-05
4.00607e-05
4.00609e-05
4.00611e-05
4.00614e-05
4.00618e-05
4.00621e-05
4.00625e-05
4.00628e-05
4.0063e-05
4.00633e-05
4.00634e-05
4.00635e-05
4.00637e-05
4.00639e-05
4.00643e-05
4.00649e-05
4.00658e-05
4.00667e-05
4.00683e-05
4.00682e-05
4.00766e-05
4.00484e-05
4.01798e-05
3.96021e-05
4.19088e-05
3.65111e-05
4.00684e-05
4.00679e-05
4.00674e-05
4.00667e-05
4.0066e-05
4.00654e-05
4.00649e-05
4.00645e-05
4.00641e-05
4.00639e-05
4.00637e-05
4.00636e-05
4.00635e-05
4.00634e-05
4.00634e-05
4.00635e-05
4.00636e-05
4.00639e-05
4.00643e-05
4.0065e-05
4.00663e-05
4.00676e-05
4.00688e-05
4.00712e-05
4.00741e-05
4.00738e-05
4.00624e-05
4.0038e-05
4.00052e-05
4.00335e-05
4.01541e-05
4.07795e-05
4.20356e-05
4.29807e-05
3.56358e-05
7.83308e-06
0
0.000282502
0.0128996
4.0068e-05
4.00659e-05
4.0064e-05
4.0062e-05
4.0064e-05
4.00647e-05
4.0064e-05
4.00626e-05
4.00618e-05
4.00612e-05
4.00609e-05
4.00607e-05
4.00604e-05
4.00604e-05
4.00604e-05
4.00606e-05
4.00609e-05
4.00613e-05
4.00616e-05
4.0062e-05
4.00624e-05
4.00628e-05
4.00632e-05
4.00634e-05
4.00637e-05
4.00639e-05
4.0064e-05
4.00641e-05
4.00644e-05
4.00648e-05
4.00654e-05
4.00662e-05
4.00666e-05
4.00695e-05
4.00632e-05
4.00958e-05
3.99853e-05
4.02515e-05
4.0175e-05
4.0068e-05
4.00672e-05
4.00666e-05
4.00659e-05
4.00652e-05
4.00646e-05
4.00641e-05
4.00637e-05
4.00634e-05
4.00633e-05
4.00632e-05
4.00631e-05
4.0063e-05
4.0063e-05
4.00631e-05
4.00632e-05
4.00634e-05
4.00637e-05
4.00642e-05
4.00648e-05
4.00656e-05
4.00665e-05
4.00675e-05
4.00688e-05
4.00715e-05
4.00758e-05
4.00788e-05
4.00748e-05
4.00562e-05
4.00253e-05
3.99829e-05
3.99928e-05
4.03396e-05
4.13377e-05
4.41194e-05
3.14264e-05
1.16834e-06
9.81439e-05
0.00427446
4.00679e-05
4.0066e-05
4.00639e-05
4.00617e-05
4.00635e-05
4.00641e-05
4.00634e-05
4.00622e-05
4.00614e-05
4.00609e-05
4.00606e-05
4.00603e-05
4.00601e-05
4.006e-05
4.006e-05
4.00601e-05
4.00604e-05
4.00607e-05
4.00611e-05
4.00616e-05
4.0062e-05
4.00625e-05
4.00629e-05
4.00633e-05
4.00636e-05
4.00639e-05
4.0064e-05
4.00641e-05
4.00642e-05
4.00645e-05
4.0065e-05
4.00655e-05
4.00663e-05
4.0067e-05
4.0069e-05
4.00654e-05
4.00915e-05
3.99715e-05
4.03489e-05
4.00674e-05
4.00665e-05
4.00658e-05
4.00651e-05
4.00644e-05
4.00638e-05
4.00634e-05
4.00631e-05
4.00629e-05
4.00628e-05
4.00628e-05
4.00627e-05
4.00627e-05
4.00627e-05
4.00627e-05
4.00628e-05
4.0063e-05
4.00632e-05
4.00634e-05
4.00639e-05
4.00645e-05
4.00653e-05
4.00663e-05
4.00674e-05
4.00689e-05
4.00716e-05
4.00758e-05
4.00802e-05
4.00818e-05
4.00746e-05
4.0055e-05
4.00006e-05
3.9965e-05
4.00421e-05
4.11559e-05
4.65813e-05
1.40959e-06
2.60748e-05
0.00108194
4.00677e-05
4.0066e-05
4.00639e-05
4.00615e-05
4.0063e-05
4.00636e-05
4.0063e-05
4.00618e-05
4.00611e-05
4.00606e-05
4.00603e-05
4.006e-05
4.00597e-05
4.00596e-05
4.00596e-05
4.00597e-05
4.00599e-05
4.00603e-05
4.00606e-05
4.00611e-05
4.00616e-05
4.0062e-05
4.00625e-05
4.0063e-05
4.00634e-05
4.00637e-05
4.0064e-05
4.00641e-05
4.00642e-05
4.00643e-05
4.00645e-05
4.00649e-05
4.00654e-05
4.00658e-05
4.00678e-05
4.00641e-05
4.00835e-05
4.00253e-05
4.01457e-05
4.00668e-05
4.00658e-05
4.00651e-05
4.00644e-05
4.00638e-05
4.00632e-05
4.00628e-05
4.00626e-05
4.00625e-05
4.00625e-05
4.00625e-05
4.00625e-05
4.00626e-05
4.00627e-05
4.00627e-05
4.00628e-05
4.00629e-05
4.00631e-05
4.00633e-05
4.00637e-05
4.00641e-05
4.00647e-05
4.00655e-05
4.00665e-05
4.00676e-05
4.00692e-05
4.00718e-05
4.00755e-05
4.00801e-05
4.0084e-05
4.00852e-05
4.00784e-05
4.0019e-05
4.00761e-05
3.91971e-05
4.51753e-05
3.19044e-05
3.08589e-06
8.74648e-05
4.00673e-05
4.00659e-05
4.00638e-05
4.00614e-05
4.00626e-05
4.00631e-05
4.00625e-05
4.00615e-05
4.00608e-05
4.00602e-05
4.00599e-05
4.00597e-05
4.00594e-05
4.00592e-05
4.00592e-05
4.00593e-05
4.00595e-05
4.00598e-05
4.00601e-05
4.00606e-05
4.0061e-05
4.00616e-05
4.00621e-05
4.00626e-05
4.00631e-05
4.00635e-05
4.00638e-05
4.0064e-05
4.00641e-05
4.00642e-05
4.00643e-05
4.00645e-05
4.00649e-05
4.00653e-05
4.00663e-05
4.0066e-05
4.00705e-05
4.00639e-05
4.00736e-05
4.00662e-05
4.00652e-05
4.00644e-05
4.00638e-05
4.00632e-05
4.00627e-05
4.00624e-05
4.00623e-05
4.00623e-05
4.00624e-05
4.00624e-05
4.00625e-05
4.00626e-05
4.00627e-05
4.00628e-05
4.00629e-05
4.0063e-05
4.00631e-05
4.00633e-05
4.00636e-05
4.00639e-05
4.00644e-05
4.0065e-05
4.00658e-05
4.00668e-05
4.00681e-05
4.00699e-05
4.00723e-05
4.00755e-05
4.00798e-05
4.00834e-05
4.00954e-05
4.00632e-05
4.01815e-05
3.95363e-05
4.07138e-05
4.58493e-05
2.07407e-06
2.01461e-05
4.00669e-05
4.00658e-05
4.00638e-05
4.00613e-05
4.00622e-05
4.00627e-05
4.00621e-05
4.00612e-05
4.00605e-05
4.00599e-05
4.00596e-05
4.00594e-05
4.00591e-05
4.00589e-05
4.00588e-05
4.00589e-05
4.00591e-05
4.00593e-05
4.00597e-05
4.00601e-05
4.00606e-05
4.00611e-05
4.00616e-05
4.00622e-05
4.00627e-05
4.00632e-05
4.00636e-05
4.00639e-05
4.00641e-05
4.00642e-05
4.00643e-05
4.00644e-05
4.00646e-05
4.00649e-05
4.00654e-05
4.0066e-05
4.00664e-05
4.00708e-05
4.00651e-05
4.00656e-05
4.00646e-05
4.00638e-05
4.00632e-05
4.00627e-05
4.00622e-05
4.00621e-05
4.00621e-05
4.00622e-05
4.00623e-05
4.00625e-05
4.00626e-05
4.00627e-05
4.00628e-05
4.00629e-05
4.0063e-05
4.00631e-05
4.00633e-05
4.00634e-05
4.00636e-05
4.00639e-05
4.00643e-05
4.00648e-05
4.00654e-05
4.00663e-05
4.00674e-05
4.00689e-05
4.00707e-05
4.0073e-05
4.00761e-05
4.00788e-05
4.00873e-05
4.00834e-05
4.01053e-05
4.02308e-05
3.84533e-05
4.898e-05
3.45969e-06
9.65636e-08
4.00664e-05
4.00656e-05
4.00637e-05
4.00612e-05
4.00619e-05
4.00623e-05
4.00617e-05
4.00608e-05
4.00601e-05
4.00596e-05
4.00593e-05
4.0059e-05
4.00587e-05
4.00586e-05
4.00585e-05
4.00585e-05
4.00587e-05
4.00589e-05
4.00593e-05
4.00597e-05
4.00601e-05
4.00606e-05
4.00612e-05
4.00618e-05
4.00623e-05
4.00628e-05
4.00633e-05
4.00636e-05
4.00639e-05
4.00641e-05
4.00642e-05
4.00643e-05
4.00644e-05
4.00646e-05
4.00649e-05
4.00655e-05
4.00657e-05
4.00692e-05
4.00668e-05
4.00651e-05
4.00641e-05
4.00632e-05
4.00627e-05
4.00622e-05
4.00619e-05
4.00619e-05
4.0062e-05
4.00622e-05
4.00624e-05
4.00625e-05
4.00627e-05
4.00629e-05
4.0063e-05
4.00631e-05
4.00632e-05
4.00633e-05
4.00634e-05
4.00636e-05
4.00638e-05
4.0064e-05
4.00643e-05
4.00647e-05
4.00653e-05
4.0066e-05
4.00669e-05
4.00682e-05
4.00698e-05
4.00717e-05
4.00741e-05
4.00769e-05
4.00788e-05
4.00948e-05
4.00293e-05
4.0448e-05
3.85358e-05
4.54867e-05
2.79965e-05
3.65258e-06
4.00659e-05
4.00653e-05
4.00636e-05
4.00611e-05
4.00616e-05
4.00619e-05
4.00614e-05
4.00605e-05
4.00598e-05
4.00593e-05
4.0059e-05
4.00587e-05
4.00584e-05
4.00582e-05
4.00582e-05
4.00582e-05
4.00583e-05
4.00586e-05
4.00589e-05
4.00593e-05
4.00597e-05
4.00602e-05
4.00608e-05
4.00613e-05
4.00619e-05
4.00624e-05
4.00629e-05
4.00634e-05
4.00637e-05
4.0064e-05
4.00642e-05
4.00643e-05
4.00643e-05
4.00644e-05
4.00646e-05
4.0065e-05
4.00654e-05
4.00677e-05
4.00673e-05
4.00645e-05
4.00635e-05
4.00627e-05
4.00622e-05
4.00619e-05
4.00618e-05
4.00618e-05
4.0062e-05
4.00622e-05
4.00624e-05
4.00626e-05
4.00628e-05
4.0063e-05
4.00631e-05
4.00633e-05
4.00634e-05
4.00635e-05
4.00636e-05
4.00637e-05
4.00639e-05
4.00641e-05
4.00644e-05
4.00647e-05
4.00651e-05
4.00657e-05
4.00665e-05
4.00676e-05
4.0069e-05
4.00707e-05
4.00726e-05
4.00758e-05
4.0075e-05
4.0095e-05
4.00255e-05
4.03253e-05
3.93896e-05
4.15298e-05
4.13943e-05
1.31186e-05
4.00654e-05
4.0065e-05
4.00634e-05
4.0061e-05
4.00613e-05
4.00615e-05
4.0061e-05
4.00602e-05
4.00595e-05
4.0059e-05
4.00587e-05
4.00584e-05
4.00581e-05
4.00579e-05
4.00579e-05
4.00579e-05
4.0058e-05
4.00583e-05
4.00585e-05
4.00589e-05
4.00593e-05
4.00598e-05
4.00604e-05
4.00609e-05
4.00615e-05
4.0062e-05
4.00626e-05
4.0063e-05
4.00634e-05
4.00638e-05
4.0064e-05
4.00642e-05
4.00643e-05
4.00643e-05
4.00645e-05
4.00647e-05
4.00651e-05
4.00669e-05
4.00668e-05
4.0064e-05
4.00631e-05
4.00623e-05
4.00619e-05
4.00617e-05
4.00616e-05
4.00618e-05
4.0062e-05
4.00623e-05
4.00625e-05
4.00627e-05
4.00629e-05
4.00631e-05
4.00633e-05
4.00634e-05
4.00636e-05
4.00637e-05
4.00638e-05
4.00639e-05
4.00641e-05
4.00643e-05
4.00645e-05
4.00648e-05
4.00651e-05
4.00656e-05
4.00663e-05
4.00673e-05
4.00684e-05
4.007e-05
4.00716e-05
4.00744e-05
4.00742e-05
4.00875e-05
4.00556e-05
4.01566e-05
4.0018e-05
3.96386e-05
4.4048e-05
2.82824e-05
4.00649e-05
4.00647e-05
4.00632e-05
4.00609e-05
4.00611e-05
4.00612e-05
4.00607e-05
4.00599e-05
4.00592e-05
4.00587e-05
4.00584e-05
4.0058e-05
4.00578e-05
4.00577e-05
4.00576e-05
4.00577e-05
4.00578e-05
4.0058e-05
4.00582e-05
4.00586e-05
4.0059e-05
4.00594e-05
4.006e-05
4.00605e-05
4.00611e-05
4.00616e-05
4.00622e-05
4.00626e-05
4.00631e-05
4.00635e-05
4.00638e-05
4.00641e-05
4.00642e-05
4.00643e-05
4.00644e-05
4.00645e-05
4.00648e-05
4.00663e-05
4.00663e-05
4.00636e-05
4.00627e-05
4.00619e-05
4.00616e-05
4.00615e-05
4.00616e-05
4.00618e-05
4.00621e-05
4.00623e-05
4.00626e-05
4.00628e-05
4.00631e-05
4.00633e-05
4.00635e-05
4.00636e-05
4.00638e-05
4.00639e-05
4.00641e-05
4.00642e-05
4.00643e-05
4.00645e-05
4.00647e-05
4.0065e-05
4.00653e-05
4.00657e-05
4.00663e-05
4.00671e-05
4.00681e-05
4.00694e-05
4.00709e-05
4.00731e-05
4.00743e-05
4.00797e-05
4.0079e-05
4.00677e-05
4.02354e-05
3.93663e-05
4.26123e-05
3.70154e-05
4.00644e-05
4.00643e-05
4.0063e-05
4.00608e-05
4.00608e-05
4.00608e-05
4.00603e-05
4.00596e-05
4.00589e-05
4.00584e-05
4.00581e-05
4.00577e-05
4.00575e-05
4.00574e-05
4.00574e-05
4.00574e-05
4.00575e-05
4.00577e-05
4.00579e-05
4.00582e-05
4.00586e-05
4.0059e-05
4.00596e-05
4.00601e-05
4.00606e-05
4.00612e-05
4.00617e-05
4.00622e-05
4.00627e-05
4.00631e-05
4.00635e-05
4.00638e-05
4.00641e-05
4.00643e-05
4.00643e-05
4.00643e-05
4.00645e-05
4.00659e-05
4.00659e-05
4.00631e-05
4.00623e-05
4.00615e-05
4.00614e-05
4.00614e-05
4.00616e-05
4.00618e-05
4.00621e-05
4.00624e-05
4.00627e-05
4.00629e-05
4.00632e-05
4.00634e-05
4.00636e-05
4.00638e-05
4.0064e-05
4.00641e-05
4.00643e-05
4.00644e-05
4.00646e-05
4.00647e-05
4.00649e-05
4.00652e-05
4.00654e-05
4.00658e-05
4.00663e-05
4.0067e-05
4.00679e-05
4.0069e-05
4.00704e-05
4.00721e-05
4.00742e-05
4.00754e-05
4.00861e-05
4.00501e-05
4.0218e-05
3.96709e-05
4.09914e-05
4.01476e-05
4.00639e-05
4.0064e-05
4.00627e-05
4.00607e-05
4.00606e-05
4.00605e-05
4.006e-05
4.00593e-05
4.00586e-05
4.00582e-05
4.00578e-05
4.00575e-05
4.00573e-05
4.00572e-05
4.00571e-05
4.00572e-05
4.00573e-05
4.00574e-05
4.00576e-05
4.00579e-05
4.00582e-05
4.00587e-05
4.00591e-05
4.00597e-05
4.00602e-05
4.00607e-05
4.00613e-05
4.00618e-05
4.00623e-05
4.00628e-05
4.00632e-05
4.00636e-05
4.00639e-05
4.00641e-05
4.00643e-05
4.00643e-05
4.00644e-05
4.00655e-05
4.00655e-05
4.00627e-05
4.0062e-05
4.00613e-05
4.00613e-05
4.00614e-05
4.00615e-05
4.00618e-05
4.00621e-05
4.00624e-05
4.00628e-05
4.00631e-05
4.00633e-05
4.00636e-05
4.00638e-05
4.0064e-05
4.00642e-05
4.00643e-05
4.00645e-05
4.00647e-05
4.00648e-05
4.0065e-05
4.00652e-05
4.00654e-05
4.00656e-05
4.0066e-05
4.00664e-05
4.0067e-05
4.00678e-05
4.00687e-05
4.007e-05
4.00714e-05
4.00736e-05
4.0074e-05
4.00838e-05
4.0061e-05
4.01456e-05
3.99571e-05
4.01918e-05
4.06342e-05
4.00635e-05
4.00636e-05
4.00625e-05
4.00605e-05
4.00603e-05
4.00602e-05
4.00596e-05
4.00589e-05
4.00583e-05
4.00579e-05
4.00575e-05
4.00572e-05
4.0057e-05
4.00569e-05
4.00569e-05
4.00569e-05
4.0057e-05
4.00571e-05
4.00573e-05
4.00576e-05
4.00579e-05
4.00583e-05
4.00587e-05
4.00592e-05
4.00598e-05
4.00603e-05
4.00608e-05
4.00613e-05
4.00619e-05
4.00624e-05
4.00628e-05
4.00632e-05
4.00636e-05
4.00639e-05
4.00642e-05
4.00642e-05
4.00643e-05
4.00652e-05
4.00652e-05
4.00624e-05
4.00617e-05
4.00611e-05
4.00612e-05
4.00613e-05
4.00615e-05
4.00618e-05
4.00622e-05
4.00625e-05
4.00629e-05
4.00632e-05
4.00635e-05
4.00637e-05
4.0064e-05
4.00642e-05
4.00644e-05
4.00646e-05
4.00647e-05
4.00649e-05
4.00651e-05
4.00653e-05
4.00654e-05
4.00656e-05
4.00659e-05
4.00662e-05
4.00666e-05
4.00671e-05
4.00678e-05
4.00686e-05
4.00697e-05
4.0071e-05
4.00729e-05
4.00738e-05
4.00795e-05
4.00731e-05
4.00964e-05
4.00861e-05
3.99896e-05
4.03997e-05
4.0063e-05
4.00632e-05
4.00622e-05
4.00603e-05
4.006e-05
4.00598e-05
4.00593e-05
4.00586e-05
4.0058e-05
4.00575e-05
4.00572e-05
4.00569e-05
4.00568e-05
4.00567e-05
4.00566e-05
4.00567e-05
4.00567e-05
4.00568e-05
4.0057e-05
4.00573e-05
4.00575e-05
4.00579e-05
4.00583e-05
4.00588e-05
4.00593e-05
4.00598e-05
4.00604e-05
4.00609e-05
4.00614e-05
4.00619e-05
4.00624e-05
4.00629e-05
4.00633e-05
4.00637e-05
4.0064e-05
4.00641e-05
4.00642e-05
4.00649e-05
4.0065e-05
4.0062e-05
4.00614e-05
4.00609e-05
4.00611e-05
4.00613e-05
4.00615e-05
4.00619e-05
4.00622e-05
4.00626e-05
4.00629e-05
4.00633e-05
4.00636e-05
4.00639e-05
4.00641e-05
4.00644e-05
4.00646e-05
4.00648e-05
4.0065e-05
4.00652e-05
4.00653e-05
4.00655e-05
4.00657e-05
4.00659e-05
4.00662e-05
4.00664e-05
4.00668e-05
4.00672e-05
4.00678e-05
4.00686e-05
4.00696e-05
4.00707e-05
4.00723e-05
4.00738e-05
4.00766e-05
4.00786e-05
4.0078e-05
4.01109e-05
4.00123e-05
4.018e-05
4.00626e-05
4.00628e-05
4.00619e-05
4.00601e-05
4.00597e-05
4.00595e-05
4.00589e-05
4.00582e-05
4.00577e-05
4.00572e-05
4.00569e-05
4.00566e-05
4.00565e-05
4.00564e-05
4.00564e-05
4.00564e-05
4.00564e-05
4.00566e-05
4.00567e-05
4.00569e-05
4.00572e-05
4.00575e-05
4.0058e-05
4.00584e-05
4.00589e-05
4.00594e-05
4.00599e-05
4.00604e-05
4.00609e-05
4.00615e-05
4.0062e-05
4.00625e-05
4.00629e-05
4.00634e-05
4.00637e-05
4.0064e-05
4.0064e-05
4.00646e-05
4.00647e-05
4.00617e-05
4.00612e-05
4.00608e-05
4.0061e-05
4.00612e-05
4.00615e-05
4.00619e-05
4.00623e-05
4.00627e-05
4.0063e-05
4.00634e-05
4.00637e-05
4.0064e-05
4.00643e-05
4.00646e-05
4.00648e-05
4.0065e-05
4.00652e-05
4.00654e-05
4.00656e-05
4.00658e-05
4.0066e-05
4.00662e-05
4.00664e-05
4.00667e-05
4.0067e-05
4.00674e-05
4.0068e-05
4.00686e-05
4.00695e-05
4.00706e-05
4.00719e-05
4.00735e-05
4.00752e-05
4.00792e-05
4.00757e-05
4.01003e-05
4.00614e-05
4.00932e-05
4.00622e-05
4.00624e-05
4.00616e-05
4.00599e-05
4.00595e-05
4.00591e-05
4.00586e-05
4.00579e-05
4.00573e-05
4.00569e-05
4.00566e-05
4.00563e-05
4.00562e-05
4.00561e-05
4.00561e-05
4.00561e-05
4.00561e-05
4.00563e-05
4.00564e-05
4.00566e-05
4.00569e-05
4.00572e-05
4.00576e-05
4.0058e-05
4.00585e-05
4.00589e-05
4.00594e-05
4.00599e-05
4.00605e-05
4.0061e-05
4.00615e-05
4.00621e-05
4.00626e-05
4.0063e-05
4.00634e-05
4.00638e-05
4.00638e-05
4.00642e-05
4.00644e-05
4.00614e-05
4.0061e-05
4.00606e-05
4.00609e-05
4.00612e-05
4.00615e-05
4.00619e-05
4.00623e-05
4.00627e-05
4.00631e-05
4.00635e-05
4.00638e-05
4.00642e-05
4.00645e-05
4.00647e-05
4.0065e-05
4.00652e-05
4.00655e-05
4.00657e-05
4.00659e-05
4.00661e-05
4.00663e-05
4.00665e-05
4.00668e-05
4.0067e-05
4.00673e-05
4.00677e-05
4.00682e-05
4.00688e-05
4.00695e-05
4.00705e-05
4.00717e-05
4.00732e-05
4.00747e-05
4.00781e-05
4.00774e-05
4.00884e-05
4.00849e-05
4.00806e-05
4.00619e-05
4.00621e-05
4.00613e-05
4.00597e-05
4.00592e-05
4.00588e-05
4.00582e-05
4.00575e-05
4.0057e-05
4.00565e-05
4.00562e-05
4.0056e-05
4.00559e-05
4.00558e-05
4.00558e-05
4.00558e-05
4.00558e-05
4.00559e-05
4.00561e-05
4.00563e-05
4.00565e-05
4.00568e-05
4.00572e-05
4.00576e-05
4.0058e-05
4.00585e-05
4.00589e-05
4.00594e-05
4.006e-05
4.00605e-05
4.00611e-05
4.00616e-05
4.00621e-05
4.00626e-05
4.00631e-05
4.00635e-05
4.00636e-05
4.00639e-05
4.00642e-05
4.00611e-05
4.00607e-05
4.00605e-05
4.00608e-05
4.00611e-05
4.00615e-05
4.00619e-05
4.00624e-05
4.00628e-05
4.00632e-05
4.00636e-05
4.0064e-05
4.00643e-05
4.00646e-05
4.00649e-05
4.00652e-05
4.00654e-05
4.00657e-05
4.00659e-05
4.00662e-05
4.00664e-05
4.00666e-05
4.00668e-05
4.00671e-05
4.00673e-05
4.00676e-05
4.0068e-05
4.00684e-05
4.0069e-05
4.00697e-05
4.00705e-05
4.00716e-05
4.0073e-05
4.00744e-05
4.00769e-05
4.00785e-05
4.00828e-05
4.00888e-05
4.0087e-05
4.00615e-05
4.00617e-05
4.0061e-05
4.00594e-05
4.00588e-05
4.00584e-05
4.00578e-05
4.00571e-05
4.00566e-05
4.00562e-05
4.00559e-05
4.00557e-05
4.00555e-05
4.00555e-05
4.00554e-05
4.00555e-05
4.00555e-05
4.00556e-05
4.00557e-05
4.00559e-05
4.00561e-05
4.00564e-05
4.00568e-05
4.00572e-05
4.00576e-05
4.0058e-05
4.00585e-05
4.00589e-05
4.00595e-05
4.006e-05
4.00605e-05
4.00611e-05
4.00617e-05
4.00622e-05
4.00627e-05
4.00631e-05
4.00634e-05
4.00636e-05
4.0064e-05
4.00609e-05
4.00605e-05
4.00604e-05
4.00607e-05
4.00611e-05
4.00615e-05
4.00619e-05
4.00624e-05
4.00629e-05
4.00633e-05
4.00637e-05
4.00641e-05
4.00645e-05
4.00648e-05
4.00651e-05
4.00654e-05
4.00657e-05
4.00659e-05
4.00662e-05
4.00664e-05
4.00667e-05
4.00669e-05
4.00672e-05
4.00674e-05
4.00677e-05
4.00679e-05
4.00683e-05
4.00687e-05
4.00692e-05
4.00698e-05
4.00706e-05
4.00716e-05
4.00728e-05
4.00743e-05
4.00762e-05
4.00785e-05
4.00812e-05
4.00862e-05
4.00914e-05
4.00611e-05
4.00613e-05
4.00606e-05
4.00592e-05
4.00585e-05
4.0058e-05
4.00574e-05
4.00567e-05
4.00562e-05
4.00558e-05
4.00555e-05
4.00553e-05
4.00552e-05
4.00551e-05
4.00551e-05
4.00551e-05
4.00552e-05
4.00553e-05
4.00554e-05
4.00556e-05
4.00558e-05
4.0056e-05
4.00563e-05
4.00567e-05
4.00571e-05
4.00575e-05
4.0058e-05
4.00584e-05
4.00589e-05
4.00595e-05
4.006e-05
4.00606e-05
4.00612e-05
4.00617e-05
4.00622e-05
4.00627e-05
4.00631e-05
4.00632e-05
4.00637e-05
4.00606e-05
4.00603e-05
4.00602e-05
4.00606e-05
4.0061e-05
4.00614e-05
4.00619e-05
4.00624e-05
4.00629e-05
4.00634e-05
4.00638e-05
4.00642e-05
4.00646e-05
4.00649e-05
4.00653e-05
4.00656e-05
4.00659e-05
4.00662e-05
4.00664e-05
4.00667e-05
4.0067e-05
4.00672e-05
4.00675e-05
4.00677e-05
4.0068e-05
4.00683e-05
4.00686e-05
4.0069e-05
4.00695e-05
4.007e-05
4.00708e-05
4.00717e-05
4.00728e-05
4.00742e-05
4.00759e-05
4.0078e-05
4.00808e-05
4.00835e-05
4.00915e-05
4.00608e-05
4.0061e-05
4.00603e-05
4.00589e-05
4.00582e-05
4.00576e-05
4.0057e-05
4.00563e-05
4.00558e-05
4.00554e-05
4.00551e-05
4.00549e-05
4.00548e-05
4.00548e-05
4.00547e-05
4.00548e-05
4.00548e-05
4.00549e-05
4.0055e-05
4.00552e-05
4.00554e-05
4.00556e-05
4.00559e-05
4.00563e-05
4.00566e-05
4.0057e-05
4.00574e-05
4.00579e-05
4.00584e-05
4.00589e-05
4.00595e-05
4.006e-05
4.00606e-05
4.00612e-05
4.00618e-05
4.00623e-05
4.00627e-05
4.00629e-05
4.00634e-05
4.00603e-05
4.00601e-05
4.00601e-05
4.00605e-05
4.0061e-05
4.00614e-05
4.0062e-05
4.00625e-05
4.0063e-05
4.00635e-05
4.00639e-05
4.00643e-05
4.00647e-05
4.00651e-05
4.00654e-05
4.00658e-05
4.00661e-05
4.00664e-05
4.00667e-05
4.0067e-05
4.00672e-05
4.00675e-05
4.00678e-05
4.00681e-05
4.00683e-05
4.00686e-05
4.00689e-05
4.00693e-05
4.00698e-05
4.00703e-05
4.0071e-05
4.00718e-05
4.00728e-05
4.00741e-05
4.00757e-05
4.00776e-05
4.00806e-05
4.00821e-05
4.00901e-05
4.00605e-05
4.00606e-05
4.00599e-05
4.00586e-05
4.00578e-05
4.00572e-05
4.00566e-05
4.00559e-05
4.00554e-05
4.0055e-05
4.00547e-05
4.00545e-05
4.00544e-05
4.00544e-05
4.00544e-05
4.00544e-05
4.00544e-05
4.00545e-05
4.00546e-05
4.00548e-05
4.00549e-05
4.00552e-05
4.00554e-05
4.00558e-05
4.00561e-05
4.00565e-05
4.00569e-05
4.00573e-05
4.00578e-05
4.00583e-05
4.00589e-05
4.00594e-05
4.006e-05
4.00606e-05
4.00612e-05
4.00618e-05
4.00623e-05
4.00625e-05
4.00632e-05
4.00601e-05
4.00599e-05
4.006e-05
4.00604e-05
4.00609e-05
4.00614e-05
4.0062e-05
4.00625e-05
4.0063e-05
4.00635e-05
4.0064e-05
4.00644e-05
4.00648e-05
4.00652e-05
4.00656e-05
4.00659e-05
4.00663e-05
4.00666e-05
4.00669e-05
4.00672e-05
4.00675e-05
4.00678e-05
4.00681e-05
4.00684e-05
4.00687e-05
4.0069e-05
4.00693e-05
4.00697e-05
4.00701e-05
4.00706e-05
4.00712e-05
4.0072e-05
4.00729e-05
4.00741e-05
4.00756e-05
4.00773e-05
4.00802e-05
4.00814e-05
4.00886e-05
4.00601e-05
4.00602e-05
4.00596e-05
4.00582e-05
4.00574e-05
4.00568e-05
4.00561e-05
4.00554e-05
4.00549e-05
4.00546e-05
4.00543e-05
4.00541e-05
4.0054e-05
4.0054e-05
4.00539e-05
4.0054e-05
4.0054e-05
4.00541e-05
4.00542e-05
4.00543e-05
4.00545e-05
4.00547e-05
4.0055e-05
4.00553e-05
4.00556e-05
4.00559e-05
4.00563e-05
4.00567e-05
4.00572e-05
4.00577e-05
4.00582e-05