/*--------------------------------*- C++ -*----------------------------------*\
| =========                 |                                                 |
| \\      /  F ield         | OpenFOAM: The Open Source CFD Toolbox           |
|  \\    /   O peration     | Version:  2206                                  |
|   \\  /    A nd           | Website:  www.openfoam.com                      |
|    \\/     M anipulation  |                                                 |
\*---------------------------------------------------------------------------*/
FoamFile
{
    version     2.0;
    format      ascii;
    arch        "LSB;label=32;scalar=64";
    class       volScalarField;
    location    "300";
    object      turbulenceProperties:epsilon;
}
// * * * * * * * * * * * * * * * * * * * * * * * * * * * * * * * * * * * * * //

dimensions      [0 2 -3 0 0 0 0];

internalField   nonuniform List<scalar> 
10720
(
0.259473
0.340229
0.453159
0.623814
0.840513
1.13525
1.53131
2.03562
2.6849
3.51553
4.57923
5.96608
7.80436
10.2936
13.7746
18.7626
26.2431
37.3623
56.0583
83.0256
139.682
211.724
435.247
738.878
735.685
666.769
636.983
637.103
643.084
639.445
622.793
593.288
548.367
489.334
416.508
334.343
232.325
145.725
16.2676
0.194208
0.147136
0.100407
0.0666971
0.0405653
0.0221852
0.0111858
0.00631497
0.0068503
0.01225
0.0258797
0.054208
0.107132
0.19763
0.340055
0.553554
0.870144
1.35258
2.12131
3.40133
5.64533
9.71167
17.6401
33.2222
67.6477
140.815
318.89
663.123
944.903
1066.81
1100.07
1101.64
1088.03
1062.28
1025.3
978.835
912.789
836.861
619.309
0.00736171
0.00728067
0.00711501
0.00671019
0.00610692
0.00544837
0.00471956
0.00396244
0.00327834
0.00267057
0.00214905
0.00182027
0.00177336
0.00210622
0.0033101
0.006718
0.0165773
0.0442566
0.13927
0.45054
1.76039
6.26359
23.5483
83.9045
166.484
235.179
278.459
285.196
251.076
193.21
135.896
91.9235
63.5129
45.734
34.2756
26.5066
21.75
17.5772
20.2109
0.0072281
0.00703248
0.00664194
0.00608352
0.00536002
0.00447651
0.00354165
0.00273973
0.00209118
0.00153432
0.00108422
0.000757413
0.000526754
0.000363743
0.000249056
0.000169139
0.000113325
7.46819e-05
4.72833e-05
2.75711e-05
1.31807e-05
4.21841e-06
4.01232e-07
6.83529e-09
5.53934e-08
0.000986028
0.00606139
0.0512597
0.170713
0.319709
0.46659
0.615267
0.773727
0.946624
1.13439
1.34782
1.59517
2.2072
4.09687
0.00330288
0.00325078
0.00310566
0.00289031
0.00267336
0.00244471
0.00222398
0.00203435
0.00187796
0.00176087
0.00167276
0.00162297
0.00160928
0.00163606
0.00164791
0.00154511
0.00113192
0.00102731
9.35211e-06
0.0155187
1.21809e-13
0.00138531
7.0352e-07
0.0229301
0.513849
2.54885
7.89494
20.0705
42.3209
70.5899
91.6687
94.2969
80.1381
60.7065
44.1878
31.9787
24.0018
16.9479
20.502
0.00335469
0.00334665
0.00332907
0.00321184
0.00300879
0.0026827
0.00226361
0.00182841
0.00146548
0.00113401
0.00082474
0.000572088
0.000385049
0.000253569
0.000165641
0.000108258
7.19671e-05
4.93655e-05
3.5593e-05
2.7085e-05
2.18952e-05
1.88178e-05
1.7218e-05
1.63637e-05
1.63037e-05
1.61169e-05
1.82285e-05
6.37725e-06
0.000167413
0.000991936
0.00208793
0.00364156
0.00958801
0.0265152
0.0598318
0.110632
0.176988
0.222062
0.549783
0.00235445
0.00236421
0.00234053
0.00230172
0.00222265
0.00210751
0.00196825
0.00180107
0.00161908
0.00142907
0.00123811
0.00105138
0.000872896
0.000707499
0.0005576
0.000419004
0.000300535
0.000217821
0.000125417
4.54959e-05
3.8575e-07
1.26986e-05
4.18533e-08
0.00713698
0.0342308
8.31842e-05
0.00312634
0.00178575
0.0187482
0.44773
3.22308
11.6648
25.0639
35.5162
37.2018
32.4107
26.6102
19.7702
21.482
0.00230419
0.00222909
0.00211372
0.00197884
0.001816
0.00161339
0.00139198
0.00117431
0.000967362
0.000765447
0.000581553
0.000432052
0.000318415
0.000234365
0.000173369
0.000129304
9.78872e-05
7.55258e-05
5.96734e-05
4.81454e-05
3.96884e-05
3.32159e-05
2.79048e-05
2.28182e-05
1.81249e-05
1.46342e-05
1.2245e-05
1.06571e-05
8.88602e-06
6.83231e-06
3.86802e-06
1.5322e-06
2.28602e-05
1.51716e-05
6.84405e-05
0.000868377
0.00493495
0.0189288
0.139718
0.00132502
0.00132035
0.0012998
0.00126358
0.00120853
0.00113585
0.00105101
0.00095693
0.000858247
0.000761988
0.000671515
0.000590107
0.000520393
0.000463047
0.000417891
0.000381768
0.000345329
0.000302418
0.000264105
0.000204061
0.00012492
2.83045e-05
2.54306e-07
6.86708e-09
0
1.07924e-07
0.000607771
0.00716133
0.0349811
0.0159565
0.0244725
0.0157987
0.170357
2.42575
9.09517
16.9191
21.0232
19.7714
21.8331
0.00131817
0.00129959
0.00126298
0.00120546
0.00112663
0.00101952
0.00089837
0.000776817
0.000656949
0.00053693
0.000424907
0.000327963
0.000248333
0.000184978
0.000136072
9.92765e-05
7.22698e-05
5.28639e-05
3.91653e-05
2.95143e-05
2.27172e-05
1.78324e-05
1.41666e-05
1.10629e-05
8.30162e-06
6.10315e-06
4.5978e-06
3.68255e-06
3.3114e-06
2.83223e-06
4.16917e-06
2.07794e-07
8.52713e-06
5.1296e-05
0.000108161
0.000183241
5.47041e-05
0.000241027
0.0150404
0.000890252
0.000897861
0.000897136
0.000890742
0.000873328
0.000845472
0.00080887
0.000762745
0.000708927
0.000649785
0.00058677
0.000522253
0.000458469
0.000397045
0.000339351
0.000284324
0.000229884
0.000180035
0.000139072
0.000107483
8.78099e-05
6.37469e-05
4.30534e-05
2.5132e-06
4.96734e-08
8.58155e-09
2.45665e-10
0
0
0.00145524
0.00622928
0.0336676
0.00544489
0.0420489
0.0466358
1.66391
7.52837
13.9979
19.8761
0.000874192
0.000852235
0.000820793
0.000780208
0.00072963
0.000665724
0.000595796
0.000525081
0.00045326
0.000380005
0.000310203
0.000247753
0.000194558
0.000150773
0.000115797
8.86074e-05
6.79242e-05
5.24603e-05
4.10308e-05
3.25795e-05
2.62706e-05
2.14141e-05
1.74705e-05
1.39445e-05
1.07035e-05
8.0155e-06
5.98773e-06
4.51765e-06
3.4442e-06
2.66244e-06
2.0726e-06
1.59954e-06
1.00485e-06
4.12047e-07
4.10702e-14
7.85048e-11
6.58829e-06
4.84869e-05
0.001119
0.000582557
0.000587685
0.000588505
0.000585532
0.00057624
0.000560328
0.000538447
0.00051035
0.000476812
0.000439347
0.000399185
0.000357877
0.000317104
0.000278239
0.000242215
0.000210045
0.000182863
0.000159236
0.000136808
0.000115168
9.59088e-05
8.13749e-05
7.19389e-05
5.01725e-05
2.22959e-05
5.61277e-06
1.22759e-07
1.19859e-08
3.44664e-09
1.72063e-11
0
0
0.000395429
0.0178804
0.0126297
0.033668
0.416929
4.90719
14.1135
0.000573032
0.000560255
0.000541924
0.000517183
0.000485947
0.000447293
0.000405766
0.000362806
0.000318279
0.000272801
0.000228777
0.000188211
0.00015228
0.000121405
9.56141e-05
7.46421e-05
5.79627e-05
4.49725e-05
3.50232e-05
2.74547e-05
2.16981e-05
1.72541e-05
1.37038e-05
1.06771e-05
8.02442e-06
5.85982e-06
4.23748e-06
3.07537e-06
2.24971e-06
1.67413e-06
1.29904e-06
1.08056e-06
9.63078e-07
8.36222e-07
7.00216e-07
1.37064e-07
7.57181e-10
7.95186e-13
2.55824e-05
0.000400192
0.000405675
0.000408948
0.000410271
0.000408028
0.00040193
0.000392305
0.000378592
0.000361014
0.000340225
0.000316524
0.00029073
0.000263701
0.000236193
0.000208958
0.000182736
0.000157366
0.000132482
0.000109469
8.96902e-05
7.37751e-05
6.23201e-05
5.48765e-05
4.99152e-05
4.10056e-05
2.84194e-05
1.58542e-05
6.89724e-06
2.32594e-06
9.33552e-09
3.90894e-09
3.55676e-12
0
0
0.00114047
0.02419
0.0272932
0.466472
6.39122
0.000392026
0.000382296
0.000369444
0.000352726
0.000332321
0.000307881
0.000282247
0.000255283
0.000227005
0.000198203
0.000169914
0.000143267
0.000118976
9.74099e-05
7.87788e-05
6.31258e-05
5.02634e-05
3.9936e-05
3.17924e-05
2.54286e-05
2.04532e-05
1.65113e-05
1.32886e-05
1.05117e-05
8.06649e-06
6.03462e-06
4.46235e-06
3.28946e-06
2.41511e-06
1.76299e-06
1.28418e-06
9.34468e-07
6.7934e-07
4.93697e-07
3.81314e-07
2.92195e-07
1.45782e-07
1.10764e-09
1.73086e-07
0.000278472
0.000282878
0.000286111
0.000288139
0.000288065
0.000285599
0.000280827
0.000273291
0.000263041
0.00025033
0.00023532
0.000218457
0.000200283
0.000181327
0.000162209
0.000143398
0.000125428
0.000108994
9.40752e-05
8.05766e-05
6.85992e-05
5.85005e-05
5.04059e-05
4.3937e-05
3.75571e-05
3.04271e-05
2.34446e-05
1.69782e-05
1.22381e-05
6.56944e-06
2.87097e-06
3.10534e-09
9.94689e-10
0
0
0
0.00988347
0.0260407
1.52369
0.00027249
0.000265645
0.000256929
0.000245578
0.000232084
0.0002163
0.000199911
0.00018251
0.000164192
0.000145579
0.000127143
0.00010947
9.29783e-05
7.79179e-05
6.44917e-05
5.28206e-05
4.2901e-05
3.46506e-05
2.79156e-05
2.24855e-05
1.81261e-05
1.46004e-05
1.16872e-05
9.19722e-06
7.04141e-06
5.25468e-06
3.86641e-06
2.82974e-06
2.06275e-06
1.49878e-06
1.09264e-06
8.11003e-07
6.24385e-07
5.08734e-07
4.48005e-07
4.56083e-07
5.21489e-07
5.852e-07
3.91878e-10
0.00019791
0.000201554
0.000204618
0.000207005
0.00020812
0.000207832
0.000206102
0.00020257
0.000197227
0.00019014
0.000181301
0.000170927
0.00015929
0.000146681
0.000133462
0.000119972
0.000106614
9.34753e-05
8.07529e-05
6.90365e-05
5.8848e-05
5.04075e-05
4.35649e-05
3.76162e-05
3.17136e-05
2.56189e-05
1.99928e-05
1.56124e-05
1.26254e-05
1.04388e-05
8.55022e-06
4.60342e-06
7.77863e-07
3.496e-09
0
0
0
0.0112348
0.188091
0.000193294
0.000188273
0.000182106
0.000174161
0.000164994
0.000154594
0.000143782
0.00013227
0.000120211
0.00010797
9.57764e-05
8.39463e-05
7.26933e-05
6.21653e-05
5.25334e-05
4.39199e-05
3.63716e-05
2.99065e-05
2.4469e-05
1.9961e-05
1.62503e-05
1.31858e-05
1.06172e-05
8.4158e-06
6.51133e-06
4.92236e-06
3.66872e-06
2.71542e-06
1.99763e-06
1.45954e-06
1.06216e-06
7.74594e-07
5.69282e-07
4.30103e-07
3.40867e-07
3.24473e-07
3.15017e-07
8.74003e-07
1.34907e-07
0.000142663
0.000145561
0.000148184
0.000150417
0.000151857
0.000152453
0.000152099
0.000150573
0.000147793
0.000143777
0.000138456
0.000131928
0.000124324
0.000115803
0.000106605
9.69836e-05
8.71882e-05
7.7526e-05
6.82665e-05
5.96088e-05
5.17993e-05
4.4963e-05
3.90754e-05
3.37603e-05
2.84465e-05
2.29851e-05
1.78864e-05
1.38163e-05
1.09366e-05
9.07126e-06
7.8177e-06
7.11228e-06
5.48877e-06
1.85292e-06
4.75598e-09
0
0
0.000407906
0.0269659
0.000139154
0.000135466
0.000131076
0.000125434
0.000119085
0.000112098
0.000104789
9.70127e-05
8.89465e-05
8.07788e-05
7.2603e-05
6.45991e-05
5.68807e-05
4.95241e-05
4.2632e-05
3.63056e-05
3.06041e-05
2.55717e-05
2.12159e-05
1.75014e-05
1.43614e-05
1.17112e-05
9.45756e-06
7.51651e-06
5.84124e-06
4.43994e-06
3.32312e-06
2.46492e-06
1.81492e-06
1.32699e-06
9.67312e-07
7.09196e-07
5.296e-07
4.12061e-07
3.40209e-07
3.31665e-07
3.28886e-07
6.58304e-07
1.0329e-06
0.000104234
0.000106542
0.000108734
0.000110704
0.000112195
0.000113169
0.000113548
0.000113146
0.000111904
0.000109802
0.00010676
0.000102809
9.79994e-05
9.24094e-05
8.61698e-05
7.94359e-05
7.23909e-05
6.52521e-05
5.81336e-05
5.12408e-05
4.4886e-05
3.92427e-05
3.42929e-05
2.9778e-05
2.52957e-05
2.07089e-05
1.63563e-05
1.27352e-05
1.00251e-05
8.08927e-06
6.67572e-06
5.83603e-06
5.44853e-06
5.03554e-06
2.16807e-06
2.9176e-09
0
0.000102399
0.0082468
0.00010155
9.87902e-05
9.56153e-05
9.15548e-05
8.70816e-05
8.22862e-05
7.72481e-05
7.19057e-05
6.64277e-05
6.08921e-05
5.53468e-05
4.98862e-05
4.45622e-05
3.94021e-05
3.44784e-05
2.98561e-05
2.5581e-05
2.17059e-05
1.82552e-05
1.52346e-05
1.26204e-05
1.03684e-05
8.42204e-06
6.7312e-06
5.27021e-06
4.04137e-06
3.05081e-06
2.27953e-06
1.68888e-06
1.24131e-06
9.07751e-07
6.65166e-07
4.92701e-07
3.7625e-07
3.03133e-07
2.8542e-07
2.91835e-07
4.81858e-07
1.23e-06
7.70104e-05
7.88382e-05
8.06314e-05
8.23014e-05
8.36741e-05
8.47305e-05
8.54144e-05
8.55782e-05
8.51704e-05
8.41641e-05
8.24825e-05
8.01274e-05
7.71063e-05
7.3444e-05
6.92182e-05
6.4524e-05
5.94746e-05
5.42397e-05
4.89493e-05
4.37424e-05
3.88081e-05
3.42848e-05
3.01773e-05
2.63416e-05
2.25346e-05
1.86682e-05
1.49799e-05
1.18413e-05
9.41494e-06
7.59369e-06
6.19595e-06
5.14526e-06
4.47453e-06
4.22542e-06
4.62689e-06
1.21566e-06
5.25538e-13
3.03655e-05
0.00274394
7.49583e-05
7.2876e-05
7.05453e-05
6.75957e-05
6.44003e-05
6.10435e-05
5.75129e-05
5.3788e-05
5.00135e-05
4.62166e-05
4.24127e-05
3.86499e-05
3.49524e-05
3.13288e-05
2.78091e-05
2.44386e-05
2.1252e-05
1.8292e-05
1.5588e-05
1.3158e-05
1.10029e-05
9.10595e-06
7.43973e-06
5.97935e-06
4.71175e-06
3.63964e-06
2.7661e-06
2.07777e-06
1.54558e-06
1.13944e-06
8.35038e-07
6.12821e-07
4.54978e-07
3.48667e-07
2.82319e-07
2.64088e-07
2.71647e-07
4.08688e-07
1.03855e-06
5.74646e-05
5.89065e-05
6.03601e-05
6.1749e-05
6.29536e-05
6.39726e-05
6.47525e-05
6.51852e-05
6.52353e-05
6.48676e-05
6.40232e-05
6.26824e-05
6.08427e-05
5.85048e-05
5.57014e-05
5.24842e-05
4.89211e-05
4.51329e-05
4.12083e-05
3.72377e-05
3.33645e-05
2.97316e-05
2.63572e-05
2.31546e-05
1.99672e-05
1.6736e-05
1.36312e-05
1.09368e-05
8.80239e-06
7.1628e-06
5.88274e-06
4.8698e-06
4.09667e-06
3.5715e-06
3.4656e-06
4.93177e-06
1.11386e-12
5.13254e-07
0.00068188
5.58807e-05
5.43026e-05
5.25653e-05
5.04025e-05
4.80942e-05
4.57008e-05
4.31857e-05
4.05618e-05
3.79256e-05
3.52876e-05
3.26489e-05
3.00366e-05
2.74547e-05
2.48971e-05
2.23826e-05
1.99317e-05
1.75656e-05
1.53189e-05
1.3218e-05
1.12838e-05
9.52639e-06
7.94693e-06
6.53663e-06
5.2881e-06
4.19749e-06
3.26797e-06
2.50267e-06
1.89214e-06
1.41499e-06
1.04769e-06
7.70146e-07
5.65854e-07
4.19291e-07
3.19266e-07
2.55707e-07
2.35501e-07
2.39726e-07
3.50307e-07
8.40695e-07
4.32508e-05
4.43851e-05
4.55583e-05
4.66947e-05
4.77207e-05
4.86431e-05
4.94074e-05
4.99421e-05
5.02202e-05
5.02075e-05
4.98584e-05
4.9153e-05
4.80731e-05
4.66096e-05
4.47708e-05
4.25867e-05
4.00994e-05
3.73774e-05
3.45007e-05
3.15303e-05
2.85485e-05
2.56781e-05
2.29441e-05
2.02986e-05
1.76496e-05
1.49614e-05
1.23557e-05
1.00494e-05
8.17738e-06
6.71222e-06
5.55565e-06
4.63844e-06
3.90362e-06
3.39619e-06
2.75912e-06
4.21034e-06
1.0825e-06
3.42425e-11
3.60351e-05
4.20199e-05
4.08161e-05
3.95096e-05
3.79059e-05
3.6221e-05
3.44875e-05
3.2674e-05
3.08033e-05
2.89411e-05
2.70877e-05
2.524e-05
2.34089e-05
2.15931e-05
1.97823e-05
1.79811e-05
1.62013e-05
1.44528e-05
1.27568e-05
1.11352e-05
9.60784e-06
8.19016e-06
6.89035e-06
5.70968e-06
4.64982e-06
3.71647e-06
2.91548e-06
2.24915e-06
1.71109e-06
1.28602e-06
9.55901e-07
7.04494e-07
5.18118e-07
3.83602e-07
2.91233e-07
2.31945e-07
2.11185e-07
2.12699e-07
2.99826e-07
6.84038e-07
3.2798e-05
3.36938e-05
3.46355e-05
3.55585e-05
3.64204e-05
3.7223e-05
3.79257e-05
3.84756e-05
3.88528e-05
3.90295e-05
3.89678e-05
3.8648e-05
3.80538e-05
3.71683e-05
3.59955e-05
3.45421e-05
3.2831e-05
3.08999e-05
2.88139e-05
2.66054e-05
2.43252e-05
2.20721e-05
1.98778e-05
1.77191e-05
1.55393e-05
1.33196e-05
1.11479e-05
9.18843e-06
7.5576e-06
6.25439e-06
5.21164e-06
4.38131e-06
3.70992e-06
3.24939e-06
2.69958e-06
2.77282e-06
3.90029e-06
5.19356e-12
2.2039e-07
3.18409e-05
3.09127e-05
2.99232e-05
2.87233e-05
2.74819e-05
2.62092e-05
2.48855e-05
2.35373e-05
2.22067e-05
2.08907e-05
1.95837e-05
1.82915e-05
1.70072e-05
1.57183e-05
1.44262e-05
1.31319e-05
1.18417e-05
1.05675e-05
9.32456e-06
8.12888e-06
6.99506e-06
5.93491e-06
4.95541e-06
4.06526e-06
3.27352e-06
2.5879e-06
2.01123e-06
1.53999e-06
1.16357e-06
8.68476e-07
6.41821e-07
4.72425e-07
3.49161e-07
2.63689e-07
2.08049e-07
1.86581e-07
1.85858e-07
2.53521e-07
5.55923e-07
2.50366e-05
2.57462e-05
2.64988e-05
2.72473e-05
2.79616e-05
2.86448e-05
2.92661e-05
2.97861e-05
3.01876e-05
3.0451e-05
3.05466e-05
3.04572e-05
3.017e-05
2.96659e-05
2.894e-05
2.79921e-05
2.68319e-05
2.54798e-05
2.39817e-05
2.23589e-05
2.06392e-05
1.88918e-05
1.71513e-05
1.54098e-05
1.36338e-05
1.18137e-05
1.00153e-05
8.36212e-06
6.95242e-06
5.80116e-06
4.86609e-06
4.1121e-06
3.5052e-06
3.05009e-06
2.71885e-06
2.12242e-06
4.56314e-06
4.78198e-11
7.08286e-18
2.42917e-05
2.35725e-05
2.28146e-05
2.19103e-05
2.09872e-05
2.00418e-05
1.90655e-05
1.80844e-05
1.7124e-05
1.61798e-05
1.52472e-05
1.43266e-05
1.34111e-05
1.24901e-05
1.15598e-05
1.06191e-05
9.66806e-06
8.71444e-06
7.76671e-06
6.83734e-06
5.93845e-06
5.08124e-06
4.27572e-06
3.53371e-06
2.86704e-06
2.2837e-06
1.78785e-06
1.37781e-06
1.04654e-06
7.84315e-07
5.81124e-07
4.27971e-07
3.15655e-07
2.37089e-07
1.85292e-07
1.63589e-07
1.61086e-07
2.1286e-07
4.49048e-07
1.9225e-05
1.97873e-05
2.0388e-05
2.09946e-05
2.15803e-05
2.21552e-05
2.26905e-05
2.31589e-05
2.35476e-05
2.38416e-05
2.4017e-05
2.4062e-05
2.39612e-05
2.37001e-05
2.32715e-05
2.26708e-05
2.19011e-05
2.09697e-05
1.99069e-05
1.87273e-05
1.74453e-05
1.61031e-05
1.47374e-05
1.33486e-05
1.19158e-05
1.04355e-05
8.95688e-06
7.5728e-06
6.36471e-06
5.35612e-06
4.52418e-06
3.84247e-06
3.29524e-06
2.85185e-06
2.61137e-06
2.00748e-06
3.35876e-06
4.76528e-07
7.58186e-11
1.86426e-05
1.80831e-05
1.74984e-05
1.68115e-05
1.61197e-05
1.54099e-05
1.46832e-05
1.3962e-05
1.32618e-05
1.25778e-05
1.19062e-05
1.12456e-05
1.0589e-05
9.92662e-06
9.25455e-06
8.56926e-06
7.86866e-06
7.15633e-06
6.43703e-06
5.71858e-06
5.01111e-06
4.32471e-06
3.66877e-06
3.05494e-06
2.49652e-06
2.00361e-06
1.58012e-06
1.22567e-06
9.35987e-07
7.0433e-07
5.23163e-07
3.85367e-07
2.83474e-07
2.1151e-07
1.63432e-07
1.41761e-07
1.37866e-07
1.77247e-07
3.60128e-07
1.48401e-05
1.5285e-05
1.57664e-05
1.62549e-05
1.6735e-05
1.72129e-05
1.76682e-05
1.80774e-05
1.84344e-05
1.87257e-05
1.89335e-05
1.90475e-05
1.90572e-05
1.89486e-05
1.87163e-05
1.83518e-05
1.78542e-05
1.72261e-05
1.64825e-05
1.56359e-05
1.46914e-05
1.36719e-05
1.2613e-05
1.15182e-05
1.0374e-05
9.17975e-06
7.97278e-06
6.82305e-06
5.79676e-06
4.92099e-06
4.18671e-06
3.5759e-06
3.08127e-06
2.67228e-06
2.42329e-06
2.0328e-06
2.2832e-06
2.0162e-06
2.03088e-08
1.43827e-05
1.39453e-05
1.34917e-05
1.2967e-05
1.24431e-05
1.19063e-05
1.13606e-05
1.0826e-05
1.03105e-05
9.81068e-06
9.32275e-06
8.84453e-06
8.37022e-06
7.89117e-06
7.40334e-06
6.90304e-06
6.38673e-06
5.85521e-06
5.31101e-06
4.75911e-06
4.20577e-06
3.65925e-06
3.12841e-06
2.6251e-06
2.16181e-06
1.74807e-06
1.3885e-06
1.08394e-06
8.32144e-07
6.28671e-07
4.6802e-07
3.44678e-07
2.52714e-07
1.87122e-07
1.42741e-07
1.21441e-07
1.16518e-07
1.46243e-07
2.86653e-07
1.15083e-05
1.18614e-05
1.22468e-05
1.26406e-05
1.30321e-05
1.34275e-05
1.38091e-05
1.41611e-05
1.44778e-05
1.47492e-05
1.4962e-05
1.51086e-05
1.51802e-05
1.51663e-05
1.50594e-05
1.4853e-05
1.45431e-05
1.41293e-05
1.36167e-05
1.30172e-05
1.2331e-05
1.15669e-05
1.07546e-05
9.90078e-06
8.99619e-06
8.04122e-06
7.06375e-06
6.1163e-06
5.25196e-06
4.49827e-06
3.85523e-06
3.31297e-06
2.8661e-06
2.50048e-06
2.22978e-06
2.00336e-06
1.78754e-06
2.30388e-06
4.95997e-07
1.11483e-05
1.08047e-05
1.04513e-05
1.00486e-05
9.64757e-06
9.23893e-06
8.82639e-06
8.42606e-06
8.04326e-06
7.67477e-06
7.31723e-06
6.96842e-06
6.62311e-06
6.27479e-06
5.91919e-06
5.55258e-06
5.1716e-06
4.77547e-06
4.36454e-06
3.94175e-06
3.51165e-06
3.0799e-06
2.65358e-06
2.24351e-06
1.86144e-06
1.51625e-06
1.21285e-06
9.52838e-07
7.3536e-07
5.57709e-07
4.16053e-07
3.06222e-07
2.23626e-07
1.64112e-07
1.23349e-07
1.02692e-07
9.70681e-08
1.19498e-07
2.26684e-07
8.96154e-06
9.24254e-06
9.55087e-06
9.86829e-06
1.01868e-05
1.05122e-05
1.08296e-05
1.11283e-05
1.14035e-05
1.16474e-05
1.18504e-05
1.20064e-05
1.21086e-05
1.21484e-05
1.21199e-05
1.2017e-05
1.18345e-05
1.15706e-05
1.12258e-05
1.08098e-05
1.03183e-05
9.75319e-06
9.13761e-06
8.47923e-06
7.77154e-06
7.0146e-06
6.22929e-06
5.45482e-06
4.73326e-06
4.09048e-06
3.53198e-06
3.05447e-06
2.65309e-06
2.32732e-06
2.05669e-06
1.89242e-06
1.6059e-06
1.87724e-06
1.24833e-06
8.67742e-06
8.40656e-06
8.13022e-06
7.81945e-06
7.51021e-06
7.19669e-06
6.88273e-06
6.58088e-06
6.29426e-06
6.02023e-06
5.75568e-06
5.49888e-06
5.24586e-06
4.99084e-06
4.7304e-06
4.46081e-06
4.17891e-06
3.88354e-06
3.57399e-06
3.2513e-06
2.91804e-06
2.57876e-06
2.23892e-06
1.90715e-06
1.59375e-06
1.30749e-06
1.05316e-06
8.32578e-07
6.45885e-07
4.91677e-07
3.67447e-07
2.7015e-07
1.96334e-07
1.42594e-07
1.05372e-07
8.56175e-08
7.95889e-08
9.653e-08
1.7797e-07
7.00413e-06
7.22793e-06
7.47534e-06
7.73067e-06
7.98988e-06
8.25647e-06
8.51923e-06
8.77016e-06
9.00559e-06
9.21969e-06
9.40478e-06
9.55683e-06
9.67047e-06
9.73885e-06
9.75781e-06
9.72085e-06
9.62391e-06
9.46414e-06
9.23923e-06
8.95572e-06
8.60883e-06
8.19719e-06
7.73669e-06
7.23469e-06
6.68722e-06
6.09318e-06
5.46765e-06
4.83998e-06
4.24301e-06
3.69977e-06
3.21895e-06
2.80162e-06
2.44454e-06
2.15254e-06
1.90003e-06
1.74235e-06
1.51442e-06
1.48831e-06
1.45713e-06
6.77974e-06
6.56511e-06
6.3482e-06
6.10716e-06
5.86735e-06
5.62546e-06
5.38497e-06
5.15553e-06
4.93912e-06
4.73339e-06
4.53639e-06
4.34607e-06
4.15903e-06
3.97092e-06
3.77885e-06
3.5799e-06
3.37088e-06
3.15025e-06
2.917e-06
2.67124e-06
2.41433e-06
2.14889e-06
1.87916e-06
1.61223e-06
1.35707e-06
1.12124e-06
9.09222e-07
7.23179e-07
5.63825e-07
4.30712e-07
3.22351e-07
2.36624e-07
1.70978e-07
1.22693e-07
8.89061e-08
7.02664e-08
6.41171e-08
7.70051e-08
1.38746e-07
5.49241e-06
5.67105e-06
5.86938e-06
6.07506e-06
6.2857e-06
6.50348e-06
6.72031e-06
6.92936e-06
7.12878e-06
7.31341e-06
7.47798e-06
7.61916e-06
7.73308e-06
7.81425e-06
7.85919e-06
7.86303e-06
7.82172e-06
7.73225e-06
7.59147e-06
7.40305e-06
7.16323e-06
6.86865e-06
6.52888e-06
6.1509e-06
5.73206e-06
5.27042e-06
4.77657e-06
4.27234e-06
3.78296e-06
3.32818e-06
2.91788e-06
2.55587e-06
2.24111e-06
1.97902e-06
1.75103e-06
1.58858e-06
1.41855e-06
1.25585e-06
1.315e-06
5.31483e-06
5.14445e-06
4.97348e-06
4.78554e-06
4.59856e-06
4.41103e-06
4.2255e-06
4.05001e-06
3.8854e-06
3.72983e-06
3.58161e-06
3.4393e-06
3.29998e-06
3.16043e-06
3.01817e-06
2.87042e-06
2.71481e-06
2.54983e-06
2.37403e-06
2.18701e-06
1.98938e-06
1.78264e-06
1.56967e-06
1.35616e-06
1.14947e-06
9.56272e-07
7.8045e-07
6.24402e-07
4.89173e-07
3.74929e-07
2.80926e-07
2.05777e-07
1.47678e-07
1.04514e-07
7.40328e-08
5.6669e-08
5.06162e-08
6.05689e-08
1.0745e-07
4.31987e-06
4.46254e-06
4.62161e-06
4.78759e-06
4.95825e-06
5.13601e-06
5.31414e-06
5.48768e-06
5.65486e-06
5.8123e-06
5.9555e-06
6.08254e-06
6.18984e-06
6.27399e-06
6.33191e-06
6.35947e-06
6.35349e-06
6.31075e-06
6.22843e-06
6.10778e-06
5.946e-06
5.73956e-06
5.49255e-06
5.21175e-06
4.89485e-06
4.53967e-06
4.15339e-06
3.752e-06
3.35445e-06
2.97732e-06
2.63038e-06
2.31897e-06
2.04375e-06
1.80959e-06
1.60538e-06
1.4441e-06
1.30306e-06
1.11224e-06
1.11339e-06
4.17875e-06
4.04363e-06
3.90828e-06
3.76117e-06
3.61474e-06
3.46855e-06
3.3247e-06
3.1894e-06
3.06324e-06
2.94465e-06
2.83244e-06
2.72526e-06
2.62079e-06
2.51633e-06
2.41002e-06
2.29982e-06
2.18359e-06
2.05987e-06
1.92725e-06
1.78508e-06
1.63338e-06
1.47286e-06
1.30541e-06
1.13533e-06
9.68675e-07
8.11061e-07
6.66163e-07
5.35987e-07
4.21858e-07
3.24344e-07
2.4322e-07
1.77674e-07
1.26516e-07
8.81299e-08
6.07984e-08
4.48224e-08
3.90495e-08
4.68664e-08
8.26168e-08
3.40672e-06
3.52079e-06
3.64843e-06
3.78249e-06
3.92071e-06
4.06561e-06
4.21158e-06
4.35489e-06
4.49444e-06
4.62729e-06
4.75035e-06
4.86204e-06
4.95977e-06
5.04101e-06
5.10308e-06
5.14328e-06
5.15851e-06
5.14606e-06
5.10341e-06
5.03003e-06
4.92471e-06
4.78311e-06
4.60637e-06
4.40055e-06
4.16406e-06
3.89397e-06
3.59488e-06
3.27831e-06
2.95843e-06
2.64852e-06
2.35786e-06
2.09219e-06
1.85341e-06
1.64589e-06
1.46307e-06
1.30986e-06
1.17968e-06
1.0008e-06
9.44005e-07
3.29438e-06
3.18697e-06
3.07951e-06
2.96398e-06
2.84888e-06
2.73431e-06
2.62229e-06
2.51744e-06
2.42006e-06
2.32903e-06
2.24335e-06
2.16184e-06
2.08275e-06
2.00414e-06
1.92436e-06
1.84162e-06
1.75435e-06
1.66127e-06
1.56111e-06
1.45293e-06
1.33655e-06
1.21217e-06
1.08098e-06
9.46115e-07
8.12433e-07
6.8448e-07
5.65587e-07
4.57529e-07
3.6171e-07
2.78885e-07
2.09226e-07
1.52348e-07
1.07523e-07
7.35645e-08
4.92061e-08
3.46791e-08
2.93183e-08
3.56178e-08
6.31168e-08
2.69294e-06
2.78437e-06
2.8869e-06
2.99503e-06
3.10705e-06
3.22493e-06
3.34435e-06
3.46225e-06
3.5782e-06
3.68952e-06
3.79419e-06
3.8908e-06
3.97771e-06
4.05265e-06
4.11396e-06
4.15942e-06
4.18647e-06
4.19288e-06
4.17634e-06
4.13556e-06
4.07012e-06
3.97611e-06
3.85227e-06
3.704e-06
3.52975e-06
3.32658e-06
3.0972e-06
2.84983e-06
2.59495e-06
2.34276e-06
2.10143e-06
1.87671e-06
1.67122e-06
1.48858e-06
1.32541e-06
1.18349e-06
1.05908e-06
8.98463e-07
8.10031e-07
2.60355e-06
2.51794e-06
2.43236e-06
2.34138e-06
2.2506e-06
2.16044e-06
2.07284e-06
1.99107e-06
1.91547e-06
1.8451e-06
1.77922e-06
1.71682e-06
1.65654e-06
1.59683e-06
1.53649e-06
1.4741e-06
1.40828e-06
1.33794e-06
1.26207e-06
1.17978e-06
1.09055e-06
9.94283e-07
8.91652e-07
7.85002e-07
6.78123e-07
5.74802e-07
4.77665e-07
3.88425e-07
3.08376e-07
2.38383e-07
1.78877e-07
1.29767e-07
9.0673e-08
6.07952e-08
3.92297e-08
2.61699e-08
2.13087e-08
2.65189e-08
4.79115e-08
2.13329e-06
2.20663e-06
2.28911e-06
2.3763e-06
2.46702e-06
2.56288e-06
2.66031e-06
2.7572e-06
2.85305e-06
2.94592e-06
3.03412e-06
3.11678e-06
3.19261e-06
3.25994e-06
3.3176e-06
3.3637e-06
3.39629e-06
3.41369e-06
3.41374e-06
3.39505e-06
3.35735e-06
3.29734e-06
3.21291e-06
3.10796e-06
2.98145e-06
2.83049e-06
2.65648e-06
2.46509e-06
2.26385e-06
2.0606e-06
1.86207e-06
1.67355e-06
1.49807e-06
1.33877e-06
1.19363e-06
1.06401e-06
9.46022e-07
8.01066e-07
6.99793e-07
2.06211e-06
1.99379e-06
1.92548e-06
1.85361e-06
1.7818e-06
1.71057e-06
1.64176e-06
1.57776e-06
1.51874e-06
1.46397e-06
1.41291e-06
1.3648e-06
1.31853e-06
1.2729e-06
1.22689e-06
1.17951e-06
1.12962e-06
1.07635e-06
1.0187e-06
9.55923e-07
8.87499e-07
8.13111e-07
7.33001e-07
6.48925e-07
5.63755e-07
4.80571e-07
4.0154e-07
3.28135e-07
2.61543e-07
2.02678e-07
1.52072e-07
1.09865e-07
7.59371e-08
4.97863e-08
3.08113e-08
1.91951e-08
1.48807e-08
1.92988e-08
3.6177e-08
1.69326e-06
1.75206e-06
1.81851e-06
1.88879e-06
1.96227e-06
2.04018e-06
2.11955e-06
2.19903e-06
2.27795e-06
2.35509e-06
2.42895e-06
2.49903e-06
2.5642e-06
2.62352e-06
2.67587e-06
2.71988e-06
2.75421e-06
2.7772e-06
2.78738e-06
2.78316e-06
2.76445e-06
2.7283e-06
2.67263e-06
2.59987e-06
2.50954e-06
2.39895e-06
2.26843e-06
2.12185e-06
1.96449e-06
1.80217e-06
1.64037e-06
1.48364e-06
1.33477e-06
1.19699e-06
1.06876e-06
9.51431e-07
8.4127e-07
7.09808e-07
6.05759e-07
1.63642e-06
1.58189e-06
1.52731e-06
1.47037e-06
1.41342e-06
1.35704e-06
1.30274e-06
1.25241e-06
1.20609e-06
1.16321e-06
1.12339e-06
1.08602e-06
1.05022e-06
1.01511e-06
9.79876e-07
9.43674e-07
9.05655e-07
8.65071e-07
8.21146e-07
7.73179e-07
7.20624e-07
6.63128e-07
6.00691e-07
5.34528e-07
4.66856e-07
4.00097e-07
3.36022e-07
2.75888e-07
2.20741e-07
1.71459e-07
1.28625e-07
9.25237e-08
6.3226e-08
4.04573e-08
2.38625e-08
1.3631e-08
9.87233e-09
1.36938e-08
2.72063e-08
1.34631e-06
1.39356e-06
1.44702e-06
1.50374e-06
1.5632e-06
1.62643e-06
1.6911e-06
1.75609e-06
1.82095e-06
1.88471e-06
1.94628e-06
2.0052e-06
2.0608e-06
2.11224e-06
2.15872e-06
2.19929e-06
2.2328e-06
2.25801e-06
2.27375e-06
2.27857e-06
2.27232e-06
2.25269e-06
2.21756e-06
2.16865e-06
2.10534e-06
2.02538e-06
1.92862e-06
1.81754e-06
1.69572e-06
1.56731e-06
1.43658e-06
1.30738e-06
1.18222e-06
1.06373e-06
9.51428e-07
8.45864e-07
7.44516e-07
6.25636e-07
5.24122e-07
1.30086e-06
1.25735e-06
1.21371e-06
1.16841e-06
1.12319e-06
1.07847e-06
1.03548e-06
9.95737e-07
9.59211e-07
9.25493e-07
8.9427e-07
8.65047e-07
8.37174e-07
8.09943e-07
7.82775e-07
7.54962e-07
7.25832e-07
6.94793e-07
6.612e-07
6.24456e-07
5.84067e-07
5.39601e-07
4.90956e-07
4.38957e-07
3.8527e-07
3.31858e-07
2.80084e-07
2.31004e-07
1.85518e-07
1.44427e-07
1.08336e-07
7.75965e-08
5.24146e-08
3.26916e-08
1.82655e-08
9.33476e-09
6.11375e-09
9.46388e-09
2.0429e-08
1.07211e-06
1.11012e-06
1.15313e-06
1.19891e-06
1.24704e-06
1.29829e-06
1.35094e-06
1.404e-06
1.45722e-06
1.50976e-06
1.56087e-06
1.61017e-06
1.65716e-06
1.7012e-06
1.74181e-06
1.77812e-06
1.80944e-06
1.83475e-06
1.85304e-06
1.8631e-06
1.86477e-06
1.85624e-06
1.83561e-06
1.80385e-06
1.76051e-06
1.70367e-06
1.63286e-06
1.54955e-06
1.45611e-06
1.35548e-06
1.25081e-06
1.14513e-06
1.04069e-06
9.39668e-07
8.4193e-07
7.47847e-07
6.55699e-07
5.49058e-07
4.53129e-07
1.03576e-06
1.00099e-06
9.66087e-07
9.29966e-07
8.94005e-07
8.5846e-07
8.24345e-07
7.92847e-07
7.63942e-07
7.37282e-07
7.12654e-07
6.8971e-07
6.67893e-07
6.46639e-07
6.25538e-07
6.04029e-07
5.81597e-07
5.57773e-07
5.32002e-07
5.03771e-07
4.72659e-07
4.3824e-07
4.00339e-07
3.5952e-07
3.17036e-07
2.74372e-07
2.32661e-07
1.92726e-07
1.55348e-07
1.21225e-07
9.09436e-08
6.48917e-08
4.33494e-08
2.63562e-08
1.38869e-08
6.15279e-09
3.429e-09
6.38209e-09
1.53795e-08
8.54966e-07
8.85526e-07
9.20166e-07
9.57093e-07
9.96038e-07
1.03761e-06
1.08039e-06
1.12367e-06
1.16726e-06
1.21045e-06
1.25269e-06
1.29372e-06
1.33316e-06
1.37054e-06
1.40552e-06
1.43752e-06
1.46591e-06
1.48992e-06
1.50877e-06
1.52153e-06
1.52795e-06
1.52664e-06
1.51599e-06
1.49643e-06
1.46757e-06
1.4279e-06
1.3768e-06
1.31499e-06
1.24402e-06
1.16585e-06
1.08275e-06
9.97047e-07
9.10524e-07
8.25025e-07
7.40605e-07
6.57585e-07
5.74638e-07
4.79699e-07
3.91333e-07
8.25867e-07
7.98049e-07
7.70124e-07
7.41302e-07
7.12642e-07
6.84345e-07
6.57222e-07
6.32187e-07
6.09228e-07
5.88069e-07
5.68585e-07
5.50428e-07
5.33235e-07
5.16599e-07
5.00135e-07
4.83418e-07
4.66049e-07
4.47659e-07
4.27807e-07
4.06061e-07
3.82049e-07
3.55399e-07
3.25862e-07
2.93815e-07
2.60233e-07
2.26233e-07
1.92712e-07
1.60321e-07
1.29708e-07
1.01485e-07
7.61824e-08
5.42061e-08
3.58651e-08
2.12979e-08
1.05763e-08
3.92314e-09
1.6396e-09
4.24103e-09
1.16753e-08
6.82656e-07
7.07249e-07
7.35128e-07
7.64925e-07
7.96419e-07
8.30105e-07
8.64851e-07
9.001e-07
9.3573e-07
9.71143e-07
1.00596e-06
1.03997e-06
1.07289e-06
1.10441e-06
1.13424e-06
1.16198e-06
1.18714e-06
1.20914e-06
1.22742e-06
1.2412e-06
1.25016e-06
1.25331e-06
1.24927e-06
1.23816e-06
1.21968e-06
1.1926e-06
1.15625e-06
1.11094e-06
1.05756e-06
9.97364e-07
9.31915e-07
8.62928e-07
7.91823e-07
7.19965e-07
6.47621e-07
5.74935e-07
5.01172e-07
4.17445e-07
3.37527e-07
6.59346e-07
6.37093e-07
6.14727e-07
5.91708e-07
5.68848e-07
5.46292e-07
5.24687e-07
5.04753e-07
4.86469e-07
4.6962e-07
4.54118e-07
4.39724e-07
4.26122e-07
4.13001e-07
4.00079e-07
3.87027e-07
3.73532e-07
3.59287e-07
3.43934e-07
3.27147e-07
3.08585e-07
2.87905e-07
2.64876e-07
2.39733e-07
2.13197e-07
1.86151e-07
1.59265e-07
1.33066e-07
1.08078e-07
8.48249e-08
6.3774e-08
4.53137e-08
2.97727e-08
1.73479e-08
8.17505e-09
2.48438e-09
5.78504e-10
2.85082e-09
9.01096e-09
5.45685e-07
5.65474e-07
5.87908e-07
6.11956e-07
6.37418e-07
6.64696e-07
6.92902e-07
7.2159e-07
7.50657e-07
7.79659e-07
8.08279e-07
8.3637e-07
8.63724e-07
8.90115e-07
9.15337e-07
9.3911e-07
9.61059e-07
9.80775e-07
9.97773e-07
1.01143e-06
1.02144e-06
1.02713e-06
1.02735e-06
1.02194e-06