/*--------------------------------*- C++ -*----------------------------------*\
| =========                 |                                                 |
| \\      /  F ield         | OpenFOAM: The Open Source CFD Toolbox           |
|  \\    /   O peration     | Version:  2206                                  |
|   \\  /    A nd           | Website:  www.openfoam.com                      |
|    \\/     M anipulation  |                                                 |
\*---------------------------------------------------------------------------*/
FoamFile
{
    version     2.0;
    format      ascii;
    arch        "LSB;label=32;scalar=64";
    class       volScalarField;
    location    "300";
    object      turbulenceProperties:nuEff;
}
// * * * * * * * * * * * * * * * * * * * * * * * * * * * * * * * * * * * * * //

dimensions      [0 2 -1 0 0 0 0];

internalField   nonuniform List<scalar> 
10720
(
3.58149e-05
3.95424e-05
4.45312e-05
5.09952e-05
5.93205e-05
7.00387e-05
8.38701e-05
0.000101177
0.000122996
0.000150373
0.000185263
0.000230781
0.000291358
0.000374951
0.000495151
0.000673978
0.000956078
0.00140553
0.00222804
0.00359998
0.00691549
0.0127241
0.0339581
0.0760813
0.0937282
0.0946436
0.0956935
0.0992347
0.102754
0.104492
0.104468
0.103219
0.100851
0.097421
0.0928023
0.0869215
0.078459
0.068329
0.0332674
3.25886e-05
2.98092e-05
2.70784e-05
2.4588e-05
2.22535e-05
2.01105e-05
1.82477e-05
1.69644e-05
1.80967e-05
2.07893e-05
2.5478e-05
3.32214e-05
4.55673e-05
6.44416e-05
9.13708e-05
0.000127923
0.00017715
0.000246238
0.000349327
0.000511724
0.000783112
0.00125173
0.00212714
0.00377914
0.0073364
0.0147298
0.0324798
0.0663214
0.0934723
0.105031
0.108439
0.109381
0.109477
0.108982
0.10798
0.106584
0.104438
0.102003
0.0924669
1.50852e-05
1.49801e-05
1.48852e-05
1.48066e-05
1.47164e-05
1.46336e-05
1.45723e-05
1.45186e-05
1.44955e-05
1.45159e-05
1.45434e-05
1.48191e-05
1.58811e-05
1.86582e-05
2.64265e-05
4.68449e-05
9.39507e-05
0.00017286
0.000325656
0.000598822
0.00133168
0.00284119
0.00713115
0.0205036
0.0394803
0.0632668
0.0925633
0.123752
0.148792
0.162741
0.168028
0.168843
0.16725
0.163896
0.159382
0.153878
0.148565
0.139541
0.139948
1.51688e-05
1.52821e-05
1.53786e-05
1.55096e-05
1.56439e-05
1.57798e-05
1.59108e-05
1.60214e-05
1.5959e-05
1.58177e-05
1.56247e-05
1.53904e-05
1.51242e-05
1.48296e-05
1.44958e-05
1.41198e-05
1.36768e-05
1.31625e-05
1.25483e-05
1.18435e-05
1.10741e-05
1.04205e-05
1.00541e-05
1.00015e-05
1.00092e-05
0.000103658
0.000549619
0.00416507
0.0141222
0.0287253
0.0437328
0.0550684
0.0618317
0.0656139
0.068012
0.0700025
0.0717344
0.0753066
0.0784673
1.62663e-05
1.62836e-05
1.63016e-05
1.63209e-05
1.63446e-05
1.63712e-05
1.64015e-05
1.64369e-05
1.64788e-05
1.65278e-05
1.6586e-05
1.66577e-05
1.67368e-05
1.68802e-05
1.69001e-05
1.64498e-05
1.47814e-05
1.44421e-05
1.00649e-05
0.000107293
1e-05
3.54472e-05
1.06814e-05
0.000566683
0.00299868
0.00757694
0.015719
0.0310745
0.0574267
0.0938964
0.132925
0.164608
0.184998
0.196828
0.203519
0.206398
0.207642
0.201542
0.210326
1.6253e-05
1.6234e-05
1.62194e-05
1.61979e-05
1.61793e-05
1.61594e-05
1.61417e-05
1.61277e-05
1.61324e-05
1.61473e-05
1.6167e-05
1.61909e-05
1.62203e-05
1.62531e-05
1.62902e-05
1.63311e-05
1.63776e-05
1.64309e-05
1.64946e-05
1.6572e-05
1.66715e-05
1.67991e-05
1.69804e-05
1.71737e-05
1.74362e-05
1.7157e-05
1.72479e-05
1.24849e-05
9.36038e-05
0.000800041
0.0030266
0.0075504
0.0142605
0.0224431
0.0311647
0.0396098
0.0470109
0.0536811
0.0631741
1.60862e-05
1.60838e-05
1.60832e-05
1.60836e-05
1.60845e-05
1.60871e-05
1.6092e-05
1.60988e-05
1.61088e-05
1.61224e-05
1.61404e-05
1.61639e-05
1.61945e-05
1.62334e-05
1.62855e-05
1.63353e-05
1.62226e-05
1.59805e-05
1.40891e-05
1.14832e-05
1.00154e-05
1.0243e-05
1.00012e-05
0.000102471
0.000634886
1.2113e-05
0.000229977
0.000861742
0.00418989
0.0136938
0.0357031
0.0728468
0.118919
0.161429
0.193318
0.215451
0.232036
0.239225
0.255307
1.60869e-05
1.60892e-05
1.60923e-05
1.60945e-05
1.60983e-05
1.61004e-05
1.61017e-05
1.61026e-05
1.61005e-05
1.60978e-05
1.60943e-05
1.60905e-05
1.60871e-05
1.60837e-05
1.60803e-05
1.60768e-05
1.60732e-05
1.60692e-05
1.60641e-05
1.6059e-05
1.60537e-05
1.60479e-05
1.60411e-05
1.60348e-05
1.6028e-05
1.60304e-05
1.60231e-05
1.60824e-05
1.59995e-05
1.59497e-05
1.52149e-05
1.41615e-05
0.000236506
0.00105689
0.00306719
0.00692925
0.0131154
0.0218336
0.0392219
1.61113e-05
1.61118e-05
1.61121e-05
1.6113e-05
1.61145e-05
1.61165e-05
1.61192e-05
1.61227e-05
1.61275e-05
1.61336e-05
1.61417e-05
1.61523e-05
1.61662e-05
1.6184e-05
1.62083e-05
1.62374e-05
1.62788e-05
1.63011e-05
1.65485e-05
1.61954e-05
1.45766e-05
1.11889e-05
1.00149e-05
1.00005e-05
1e-05
1.00045e-05
2.17541e-05
0.000185307
0.000948983
0.000560496
0.00166601
0.00802859
0.0296121
0.0707753
0.124219
0.175165
0.217285
0.248136
0.278343
1.61113e-05
1.61099e-05
1.61106e-05
1.61096e-05
1.61105e-05
1.61093e-05
1.61071e-05
1.61052e-05
1.61042e-05
1.61039e-05
1.61039e-05
1.61038e-05
1.61042e-05
1.61047e-05
1.61057e-05
1.61069e-05
1.61084e-05
1.61103e-05
1.61125e-05
1.61149e-05
1.61177e-05
1.61207e-05
1.61242e-05
1.6128e-05
1.61329e-05
1.61372e-05
1.61504e-05
1.61301e-05
1.62727e-05
1.56954e-05
1.87067e-05
1.05821e-05
3.5556e-05
0.000255354
0.000726158
0.00165852
0.000745338
0.00165082
0.013692
1.61051e-05
1.61049e-05
1.61052e-05
1.61055e-05
1.61056e-05
1.6106e-05
1.61065e-05
1.61073e-05
1.61085e-05
1.61102e-05
1.61125e-05
1.61158e-05
1.61201e-05
1.6126e-05
1.61342e-05
1.6145e-05
1.61593e-05
1.61748e-05
1.62247e-05
1.63269e-05
1.67363e-05
1.61005e-05
1.46241e-05
1.03303e-05
1.00095e-05
1.0002e-05
1.00001e-05
1e-05
1e-05
0.000112258
0.000379035
0.00184009
0.000387473
0.00875681
0.0381298
0.0933872
0.16052
0.224095
0.278402
1.61047e-05
1.6104e-05
1.61049e-05
1.61047e-05
1.61064e-05
1.61061e-05
1.61047e-05
1.61035e-05
1.61025e-05
1.6102e-05
1.61015e-05
1.6101e-05
1.61008e-05
1.61006e-05
1.61006e-05
1.61006e-05
1.61007e-05
1.61009e-05
1.61012e-05
1.61014e-05
1.61017e-05
1.61018e-05
1.61019e-05
1.61015e-05
1.61014e-05
1.61018e-05
1.61022e-05
1.61039e-05
1.61036e-05
1.61129e-05
1.60958e-05
1.61856e-05
1.54517e-05
1.34305e-05
1e-05
1.00031e-05
0.000173452
0.00043928
0.00238769
1.61054e-05
1.61056e-05
1.61057e-05
1.61058e-05
1.61059e-05
1.6106e-05
1.61062e-05
1.61065e-05
1.6107e-05
1.61077e-05
1.61087e-05
1.61102e-05
1.61123e-05
1.61151e-05
1.61191e-05
1.61247e-05
1.61322e-05
1.61405e-05
1.61504e-05
1.6158e-05
1.62219e-05
1.64618e-05
1.69763e-05
1.59887e-05
1.34229e-05
1.12193e-05
1.00508e-05
1.0008e-05
1.0003e-05
1e-05
1e-05
1e-05
6.58912e-05
0.00206578
0.00169546
0.0217782
0.0782997
0.16628
0.252387
1.61049e-05
1.61038e-05
1.61042e-05
1.61039e-05
1.61056e-05
1.61055e-05
1.61043e-05
1.61032e-05
1.61023e-05
1.61017e-05
1.61014e-05
1.61012e-05
1.61011e-05
1.61011e-05
1.61011e-05
1.61011e-05
1.61013e-05
1.61015e-05
1.61018e-05
1.61022e-05
1.61027e-05
1.61033e-05
1.6104e-05
1.61048e-05
1.61058e-05
1.61071e-05
1.61087e-05
1.61108e-05
1.61134e-05
1.61167e-05
1.61202e-05
1.61243e-05
1.61761e-05
1.5873e-05
1.53243e-05
1.11703e-05
1.0011e-05
1e-05
6.97504e-05
1.61049e-05
1.61051e-05
1.61054e-05
1.61053e-05
1.61052e-05
1.6105e-05
1.61049e-05
1.61047e-05
1.61047e-05
1.61047e-05
1.61047e-05
1.6105e-05
1.61054e-05
1.61059e-05
1.61068e-05
1.61082e-05
1.61102e-05
1.61126e-05
1.61158e-05
1.61165e-05
1.61113e-05
1.61515e-05
1.63163e-05
1.67426e-05
1.68459e-05
1.63242e-05
1.50107e-05
1.31705e-05
1.1539e-05
1.00136e-05
1.00073e-05
1e-05
1e-05
1e-05
0.000397607
0.00543865
0.016191
0.0905156
0.20013
1.61044e-05
1.61032e-05
1.61032e-05
1.61028e-05
1.61044e-05
1.61046e-05
1.61037e-05
1.61026e-05
1.61018e-05
1.61013e-05
1.6101e-05
1.61009e-05
1.61008e-05
1.61009e-05
1.6101e-05
1.61011e-05
1.61011e-05
1.61012e-05
1.61012e-05
1.61013e-05
1.61015e-05
1.61016e-05
1.61018e-05
1.61019e-05
1.6102e-05
1.61022e-05
1.61024e-05
1.61027e-05
1.61029e-05
1.6103e-05
1.61035e-05
1.61012e-05
1.61145e-05
1.60868e-05
1.62914e-05
1.55848e-05
1.30027e-05
1.00178e-05
1.05659e-05
1.61049e-05
1.6105e-05
1.61051e-05
1.6105e-05
1.61048e-05
1.61045e-05
1.61043e-05
1.61041e-05
1.6104e-05
1.6104e-05
1.6104e-05
1.61041e-05
1.61043e-05
1.61047e-05
1.61054e-05
1.61063e-05
1.61077e-05
1.61096e-05
1.61116e-05
1.61138e-05
1.61126e-05
1.61085e-05
1.61121e-05
1.62052e-05
1.64015e-05
1.6648e-05
1.6927e-05
1.69106e-05
1.67668e-05
1.48873e-05
1.28733e-05
1.00075e-05
1.00031e-05
1e-05
1e-05
1e-05
0.0044415
0.031015
0.132978
1.61043e-05
1.6103e-05
1.61027e-05
1.61021e-05
1.61036e-05
1.61039e-05
1.61032e-05
1.61022e-05
1.61015e-05
1.61011e-05
1.61008e-05
1.61007e-05
1.61007e-05
1.61007e-05
1.61008e-05
1.6101e-05
1.61011e-05
1.61012e-05
1.61013e-05
1.61013e-05
1.61014e-05
1.61015e-05
1.61017e-05
1.61019e-05
1.61021e-05
1.61024e-05
1.61029e-05
1.61036e-05
1.61045e-05
1.61055e-05
1.61069e-05
1.61083e-05
1.61107e-05
1.61093e-05
1.61448e-05
1.62115e-05
1.66121e-05
1.45102e-05
1.00026e-05
1.61048e-05
1.61048e-05
1.61048e-05
1.61045e-05
1.61042e-05
1.61039e-05
1.61036e-05
1.61034e-05
1.61032e-05
1.6103e-05
1.61029e-05
1.61027e-05
1.61027e-05
1.61026e-05
1.61026e-05
1.61026e-05
1.61026e-05
1.61027e-05
1.61029e-05
1.61038e-05
1.61047e-05
1.61045e-05
1.61028e-05
1.61019e-05
1.61212e-05
1.61771e-05
1.62896e-05
1.64885e-05
1.68196e-05
1.72076e-05
1.75203e-05
1.51965e-05
1.12084e-05
1.00108e-05
1e-05
1e-05
1e-05
0.008728
0.0716876
1.61043e-05
1.6103e-05
1.61024e-05
1.61016e-05
1.6103e-05
1.61033e-05
1.61028e-05
1.61019e-05
1.61013e-05
1.61009e-05
1.61008e-05
1.61006e-05
1.61005e-05
1.61006e-05
1.61006e-05
1.61008e-05
1.6101e-05
1.61011e-05
1.61013e-05
1.61014e-05
1.61016e-05
1.61016e-05
1.61016e-05
1.61017e-05
1.61017e-05
1.61018e-05
1.6102e-05
1.61022e-05
1.61026e-05
1.6103e-05
1.61034e-05
1.61041e-05
1.61038e-05
1.61094e-05
1.60919e-05
1.6193e-05
1.58253e-05
1.87612e-05
1.05698e-05
1.61047e-05
1.61045e-05
1.61044e-05
1.6104e-05
1.61037e-05
1.61034e-05
1.61031e-05
1.61029e-05
1.61027e-05
1.61025e-05
1.61025e-05
1.61024e-05
1.61024e-05
1.61024e-05
1.61025e-05
1.61027e-05
1.61031e-05
1.61036e-05
1.61041e-05
1.61047e-05
1.61053e-05
1.61056e-05
1.61059e-05
1.61056e-05
1.61029e-05
1.60979e-05
1.60949e-05
1.61158e-05
1.61876e-05
1.64208e-05
1.68393e-05
1.76353e-05
1.72084e-05
1.30232e-05
1.00158e-05
1e-05
1e-05
0.000690695
0.032641
1.61043e-05
1.61031e-05
1.61022e-05
1.61013e-05
1.61025e-05
1.61029e-05
1.61024e-05
1.61016e-05
1.61011e-05
1.61008e-05
1.61006e-05
1.61004e-05
1.61003e-05
1.61003e-05
1.61004e-05
1.61005e-05
1.61007e-05
1.61009e-05
1.61011e-05
1.61013e-05
1.61014e-05
1.61016e-05
1.61017e-05
1.61018e-05
1.61019e-05
1.61019e-05
1.61021e-05
1.61023e-05
1.61026e-05
1.61031e-05
1.61036e-05
1.61044e-05
1.61044e-05
1.61089e-05
1.60937e-05
1.61648e-05
1.5856e-05
1.71486e-05
1.43707e-05
1.61045e-05
1.61042e-05
1.6104e-05
1.61036e-05
1.61032e-05
1.61029e-05
1.61026e-05
1.61024e-05
1.61022e-05
1.61021e-05
1.6102e-05
1.61019e-05
1.61018e-05
1.61018e-05
1.61018e-05
1.61018e-05
1.61019e-05
1.6102e-05
1.61023e-05
1.61027e-05
1.61033e-05
1.61041e-05
1.61047e-05
1.6106e-05
1.61075e-05
1.61074e-05
1.61012e-05
1.60881e-05
1.60704e-05
1.60857e-05
1.61508e-05
1.64959e-05
1.72243e-05
1.78038e-05
1.4e-05
1.00105e-05
1e-05
0.000288087
0.0129096
1.61043e-05
1.61031e-05
1.61021e-05
1.6101e-05
1.61021e-05
1.61025e-05
1.61021e-05
1.61014e-05
1.61009e-05
1.61006e-05
1.61004e-05
1.61003e-05
1.61002e-05
1.61002e-05
1.61002e-05
1.61003e-05
1.61004e-05
1.61006e-05
1.61008e-05
1.6101e-05
1.61013e-05
1.61015e-05
1.61016e-05
1.61018e-05
1.6102e-05
1.6102e-05
1.61021e-05
1.61022e-05
1.61023e-05
1.61025e-05
1.61028e-05
1.61033e-05
1.61035e-05
1.61051e-05
1.61017e-05
1.61193e-05
1.60598e-05
1.62038e-05
1.61622e-05
1.61042e-05
1.61038e-05
1.61035e-05
1.61031e-05
1.61027e-05
1.61024e-05
1.61021e-05
1.6102e-05
1.61018e-05
1.61017e-05
1.61016e-05
1.61016e-05
1.61016e-05
1.61016e-05
1.61016e-05
1.61017e-05
1.61018e-05
1.6102e-05
1.61022e-05
1.61025e-05
1.61029e-05
1.61035e-05
1.6104e-05
1.61047e-05
1.61062e-05
1.61085e-05
1.61101e-05
1.61079e-05
1.60979e-05
1.60812e-05
1.60584e-05
1.60638e-05
1.6252e-05
1.68137e-05
1.85377e-05
1.25078e-05
1e-05
8.11908e-05
0.00428444
1.61042e-05
1.61032e-05
1.61021e-05
1.61009e-05
1.61018e-05
1.61022e-05
1.61018e-05
1.61012e-05
1.61007e-05
1.61004e-05
1.61003e-05
1.61001e-05
1.61e-05
1.60999e-05
1.60999e-05
1.61e-05
1.61002e-05
1.61003e-05
1.61006e-05
1.61008e-05
1.6101e-05
1.61013e-05
1.61015e-05
1.61017e-05
1.61019e-05
1.61021e-05
1.61021e-05
1.61022e-05
1.61022e-05
1.61024e-05
1.61026e-05
1.61029e-05
1.61034e-05
1.61037e-05
1.61048e-05
1.61029e-05
1.61169e-05
1.60523e-05
1.62571e-05
1.61039e-05
1.61034e-05
1.61031e-05
1.61027e-05
1.61023e-05
1.6102e-05
1.61018e-05
1.61016e-05
1.61015e-05
1.61015e-05
1.61014e-05
1.61014e-05
1.61014e-05
1.61014e-05
1.61014e-05
1.61015e-05
1.61015e-05
1.61017e-05
1.61018e-05
1.6102e-05
1.61024e-05
1.61028e-05
1.61033e-05
1.61039e-05
1.61047e-05
1.61062e-05
1.61085e-05
1.61109e-05
1.61117e-05
1.61078e-05
1.60973e-05
1.60679e-05
1.60488e-05
1.60903e-05
1.67092e-05
2.02576e-05
1e-05
1.12306e-05
0.00109163
1.61041e-05
1.61032e-05
1.6102e-05
1.61007e-05
1.61016e-05
1.61019e-05
1.61016e-05
1.61009e-05
1.61005e-05
1.61003e-05
1.61001e-05
1.61e-05
1.60998e-05
1.60997e-05
1.60997e-05
1.60998e-05
1.60999e-05
1.61001e-05
1.61003e-05
1.61005e-05
1.61008e-05
1.61011e-05
1.61013e-05
1.61015e-05
1.61018e-05
1.6102e-05
1.61021e-05
1.61022e-05
1.61022e-05
1.61023e-05
1.61024e-05
1.61026e-05
1.61029e-05
1.61031e-05
1.61042e-05
1.61021e-05
1.61126e-05
1.60812e-05
1.61463e-05
1.61036e-05
1.61031e-05
1.61027e-05
1.61023e-05
1.6102e-05
1.61017e-05
1.61015e-05
1.61014e-05
1.61013e-05
1.61013e-05
1.61013e-05
1.61013e-05
1.61013e-05
1.61014e-05
1.61014e-05
1.61015e-05
1.61015e-05
1.61016e-05
1.61018e-05
1.61019e-05
1.61022e-05
1.61025e-05
1.61029e-05
1.61034e-05
1.61041e-05
1.61049e-05
1.61063e-05
1.61083e-05
1.61108e-05
1.61129e-05
1.61136e-05
1.61099e-05
1.60779e-05
1.61087e-05
1.56455e-05
1.92532e-05
1.2654e-05
1.00003e-05
6.69839e-05
1.61039e-05
1.61031e-05
1.6102e-05
1.61007e-05
1.61013e-05
1.61016e-05
1.61013e-05
1.61008e-05
1.61004e-05
1.61001e-05
1.60999e-05
1.60998e-05
1.60996e-05
1.60995e-05
1.60995e-05
1.60996e-05
1.60997e-05
1.60998e-05
1.61e-05
1.61003e-05
1.61005e-05
1.61008e-05
1.61011e-05
1.61013e-05
1.61016e-05
1.61018e-05
1.6102e-05
1.61021e-05
1.61022e-05
1.61022e-05
1.61023e-05
1.61024e-05
1.61026e-05
1.61028e-05
1.61033e-05
1.61032e-05
1.61056e-05
1.61021e-05
1.61073e-05
1.61033e-05
1.61028e-05
1.61023e-05
1.6102e-05
1.61016e-05
1.61014e-05
1.61012e-05
1.61012e-05
1.61012e-05
1.61012e-05
1.61013e-05
1.61013e-05
1.61014e-05
1.61014e-05
1.61015e-05
1.61015e-05
1.61016e-05
1.61016e-05
1.61017e-05
1.61019e-05
1.61021e-05
1.61023e-05
1.61027e-05
1.61031e-05
1.61036e-05
1.61043e-05
1.61053e-05
1.61066e-05
1.61083e-05
1.61106e-05
1.61126e-05
1.61191e-05
1.61017e-05
1.61657e-05
1.58215e-05
1.64591e-05
1.97273e-05
1.00001e-05
1.045e-05
1.61037e-05
1.61031e-05
1.6102e-05
1.61006e-05
1.61011e-05
1.61014e-05
1.61011e-05
1.61006e-05
1.61002e-05
1.60999e-05
1.60997e-05
1.60996e-05
1.60994e-05
1.60993e-05
1.60993e-05
1.60994e-05
1.60994e-05
1.60996e-05
1.60998e-05
1.61e-05
1.61003e-05
1.61005e-05
1.61008e-05
1.61011e-05
1.61014e-05
1.61017e-05
1.61019e-05
1.6102e-05
1.61022e-05
1.61022e-05
1.61022e-05
1.61023e-05
1.61024e-05
1.61026e-05
1.61028e-05
1.61032e-05
1.61034e-05
1.61058e-05
1.61027e-05
1.6103e-05
1.61024e-05
1.6102e-05
1.61017e-05
1.61014e-05
1.61012e-05
1.61011e-05
1.61011e-05
1.61011e-05
1.61012e-05
1.61013e-05
1.61014e-05
1.61014e-05
1.61015e-05
1.61015e-05
1.61016e-05
1.61016e-05
1.61017e-05
1.61018e-05
1.61019e-05
1.61021e-05
1.61023e-05
1.61025e-05
1.61029e-05
1.61033e-05
1.61039e-05
1.61047e-05
1.61057e-05
1.6107e-05
1.61087e-05
1.61101e-05
1.61147e-05
1.61126e-05
1.61244e-05
1.61925e-05
1.52714e-05
2.2106e-05
1.00004e-05
1e-05
1.61034e-05
1.6103e-05
1.61019e-05
1.61006e-05
1.6101e-05
1.61012e-05
1.61009e-05
1.61004e-05
1.61e-05
1.60997e-05
1.60996e-05
1.60994e-05
1.60993e-05
1.60992e-05
1.60991e-05
1.60992e-05
1.60992e-05
1.60994e-05
1.60995e-05
1.60998e-05
1.61e-05
1.61003e-05
1.61006e-05
1.61009e-05
1.61012e-05
1.61015e-05
1.61017e-05
1.61019e-05
1.61021e-05
1.61022e-05
1.61022e-05
1.61023e-05
1.61023e-05
1.61024e-05
1.61026e-05
1.61029e-05
1.6103e-05
1.61049e-05
1.61036e-05
1.61027e-05
1.61021e-05
1.61017e-05
1.61014e-05
1.61012e-05
1.6101e-05
1.6101e-05
1.6101e-05
1.61011e-05
1.61012e-05
1.61013e-05
1.61014e-05
1.61015e-05
1.61016e-05
1.61016e-05
1.61017e-05
1.61017e-05
1.61018e-05
1.61019e-05
1.6102e-05
1.61021e-05
1.61023e-05
1.61025e-05
1.61028e-05
1.61032e-05
1.61037e-05
1.61044e-05
1.61052e-05
1.61063e-05
1.61075e-05
1.61091e-05
1.61101e-05
1.61187e-05
1.60834e-05
1.63115e-05
1.53121e-05
1.94706e-05
1.16173e-05
1.00005e-05
1.61031e-05
1.61028e-05
1.61019e-05
1.61006e-05
1.61008e-05
1.6101e-05
1.61007e-05
1.61002e-05
1.60999e-05
1.60996e-05
1.60994e-05
1.60992e-05
1.60991e-05
1.6099e-05
1.6099e-05
1.6099e-05
1.60991e-05
1.60992e-05
1.60993e-05
1.60995e-05
1.60998e-05
1.61001e-05
1.61004e-05
1.61007e-05
1.6101e-05
1.61013e-05
1.61015e-05
1.61018e-05
1.6102e-05
1.61021e-05
1.61022e-05
1.61023e-05
1.61023e-05
1.61023e-05
1.61024e-05
1.61026e-05
1.61029e-05
1.61041e-05
1.61039e-05
1.61024e-05
1.61019e-05
1.61014e-05
1.61012e-05
1.6101e-05
1.61009e-05
1.61009e-05
1.6101e-05
1.61011e-05
1.61013e-05
1.61014e-05
1.61015e-05
1.61016e-05
1.61016e-05
1.61017e-05
1.61018e-05
1.61018e-05
1.61019e-05
1.6102e-05
1.61021e-05
1.61022e-05
1.61023e-05
1.61025e-05
1.61027e-05
1.6103e-05
1.61035e-05
1.61041e-05
1.61048e-05
1.61057e-05
1.61068e-05
1.61085e-05
1.6108e-05
1.61188e-05
1.60814e-05
1.62441e-05
1.57449e-05
1.69253e-05
1.68465e-05
1.00822e-05
1.61029e-05
1.61027e-05
1.61018e-05
1.61005e-05
1.61007e-05
1.61008e-05
1.61005e-05
1.61001e-05
1.60997e-05
1.60994e-05
1.60992e-05
1.60991e-05
1.60989e-05
1.60988e-05
1.60988e-05
1.60988e-05
1.60989e-05
1.6099e-05
1.60992e-05
1.60994e-05
1.60996e-05
1.60999e-05
1.61001e-05
1.61004e-05
1.61008e-05
1.61011e-05
1.61013e-05
1.61016e-05
1.61018e-05
1.6102e-05
1.61021e-05
1.61022e-05
1.61023e-05
1.61023e-05
1.61024e-05
1.61025e-05
1.61027e-05
1.61036e-05
1.61036e-05
1.61021e-05
1.61016e-05
1.61012e-05
1.6101e-05
1.61009e-05
1.61008e-05
1.61009e-05
1.6101e-05
1.61012e-05
1.61013e-05
1.61014e-05
1.61015e-05
1.61016e-05
1.61017e-05
1.61018e-05
1.61019e-05
1.61019e-05
1.6102e-05
1.61021e-05
1.61022e-05
1.61023e-05
1.61024e-05
1.61025e-05
1.61027e-05
1.6103e-05
1.61034e-05
1.61039e-05
1.61045e-05
1.61053e-05
1.61062e-05
1.61077e-05
1.61076e-05
1.61148e-05
1.60976e-05
1.61522e-05
1.60773e-05
1.58752e-05
1.84905e-05
1.16814e-05
1.61026e-05
1.61025e-05
1.61017e-05
1.61005e-05
1.61005e-05
1.61006e-05
1.61003e-05
1.60999e-05
1.60995e-05
1.60992e-05
1.60991e-05
1.60989e-05
1.60988e-05
1.60987e-05
1.60987e-05
1.60987e-05
1.60987e-05
1.60988e-05
1.6099e-05
1.60992e-05
1.60994e-05
1.60996e-05
1.60999e-05
1.61002e-05
1.61005e-05
1.61008e-05
1.61011e-05
1.61014e-05
1.61016e-05
1.61018e-05
1.6102e-05
1.61021e-05
1.61022e-05
1.61023e-05
1.61023e-05
1.61024e-05
1.61025e-05
1.61034e-05
1.61033e-05
1.61019e-05
1.61014e-05
1.6101e-05
1.61008e-05
1.61008e-05
1.61008e-05
1.61009e-05
1.61011e-05
1.61012e-05
1.61013e-05
1.61015e-05
1.61016e-05
1.61017e-05
1.61018e-05
1.61019e-05
1.6102e-05
1.61021e-05
1.61021e-05
1.61022e-05
1.61023e-05
1.61024e-05
1.61025e-05
1.61026e-05
1.61028e-05
1.6103e-05
1.61033e-05
1.61038e-05
1.61043e-05
1.6105e-05
1.61058e-05
1.6107e-05
1.61077e-05
1.61106e-05
1.61102e-05
1.61041e-05
1.6195e-05
1.57328e-05
1.75747e-05
1.45941e-05
1.61023e-05
1.61023e-05
1.61016e-05
1.61004e-05
1.61004e-05
1.61004e-05
1.61001e-05
1.60997e-05
1.60994e-05
1.60991e-05
1.60989e-05
1.60987e-05
1.60986e-05
1.60986e-05
1.60985e-05
1.60986e-05
1.60986e-05
1.60987e-05
1.60988e-05
1.6099e-05
1.60992e-05
1.60994e-05
1.60997e-05
1.61e-05
1.61003e-05
1.61006e-05
1.61009e-05
1.61011e-05
1.61014e-05
1.61016e-05
1.61018e-05
1.6102e-05
1.61021e-05
1.61022e-05
1.61023e-05
1.61023e-05
1.61024e-05
1.61031e-05
1.61031e-05
1.61016e-05
1.61012e-05
1.61008e-05
1.61007e-05
1.61007e-05
1.61008e-05
1.61009e-05
1.61011e-05
1.61012e-05
1.61014e-05
1.61015e-05
1.61017e-05
1.61018e-05
1.61019e-05
1.6102e-05
1.61021e-05
1.61022e-05
1.61023e-05
1.61023e-05
1.61024e-05
1.61025e-05
1.61026e-05
1.61027e-05
1.61029e-05
1.61031e-05
1.61033e-05
1.61037e-05
1.61042e-05
1.61048e-05
1.61055e-05
1.61065e-05
1.61076e-05
1.61083e-05
1.61141e-05
1.60946e-05
1.61856e-05
1.58923e-05
1.66155e-05
1.61473e-05
1.61021e-05
1.61021e-05
1.61014e-05
1.61003e-05
1.61002e-05
1.61002e-05
1.60999e-05
1.60995e-05
1.60992e-05
1.6099e-05
1.60987e-05
1.60986e-05
1.60985e-05
1.60984e-05
1.60984e-05
1.60984e-05
1.60985e-05
1.60986e-05
1.60987e-05
1.60988e-05
1.6099e-05
1.60992e-05
1.60995e-05
1.60998e-05
1.61001e-05
1.61003e-05
1.61006e-05
1.61009e-05
1.61012e-05
1.61014e-05
1.61017e-05
1.61019e-05
1.6102e-05
1.61022e-05
1.61023e-05
1.61023e-05
1.61023e-05
1.61029e-05
1.61029e-05
1.61014e-05
1.6101e-05
1.61006e-05
1.61006e-05
1.61007e-05
1.61008e-05
1.61009e-05
1.61011e-05
1.61013e-05
1.61014e-05
1.61016e-05
1.61017e-05
1.61019e-05
1.6102e-05
1.61021e-05
1.61022e-05
1.61023e-05
1.61024e-05
1.61025e-05
1.61026e-05
1.61026e-05
1.61027e-05
1.61029e-05
1.6103e-05
1.61032e-05
1.61034e-05
1.61037e-05
1.61041e-05
1.61047e-05
1.61053e-05
1.61061e-05
1.61073e-05
1.61075e-05
1.61128e-05
1.61005e-05
1.61462e-05
1.60446e-05
1.61713e-05
1.64147e-05
1.61018e-05
1.61019e-05
1.61013e-05
1.61002e-05
1.61001e-05
1.61e-05
1.60998e-05
1.60994e-05
1.6099e-05
1.60988e-05
1.60986e-05
1.60984e-05
1.60983e-05
1.60983e-05
1.60983e-05
1.60983e-05
1.60983e-05
1.60984e-05
1.60985e-05
1.60986e-05
1.60988e-05
1.6099e-05
1.60993e-05
1.60995e-05
1.60998e-05
1.61001e-05
1.61004e-05
1.61007e-05
1.61009e-05
1.61012e-05
1.61015e-05
1.61017e-05
1.61019e-05
1.61021e-05
1.61022e-05
1.61022e-05
1.61023e-05
1.61028e-05
1.61028e-05
1.61012e-05
1.61009e-05
1.61005e-05
1.61006e-05
1.61007e-05
1.61008e-05
1.61009e-05
1.61011e-05
1.61013e-05
1.61015e-05
1.61017e-05
1.61018e-05
1.6102e-05
1.61021e-05
1.61022e-05
1.61023e-05
1.61024e-05
1.61025e-05
1.61026e-05
1.61027e-05
1.61028e-05
1.61029e-05
1.6103e-05
1.61031e-05
1.61033e-05
1.61035e-05
1.61038e-05
1.61041e-05
1.61046e-05
1.61052e-05
1.61059e-05
1.61069e-05
1.61074e-05
1.61105e-05
1.6107e-05
1.61196e-05
1.6114e-05
1.6062e-05
1.62849e-05
1.61016e-05
1.61017e-05
1.61011e-05
1.61001e-05
1.61e-05
1.60999e-05
1.60996e-05
1.60992e-05
1.60989e-05
1.60986e-05
1.60984e-05
1.60983e-05
1.60982e-05
1.60981e-05
1.60981e-05
1.60981e-05
1.60982e-05
1.60982e-05
1.60983e-05
1.60985e-05
1.60986e-05
1.60988e-05
1.60991e-05
1.60993e-05
1.60996e-05
1.60999e-05
1.61001e-05
1.61004e-05
1.61007e-05
1.6101e-05
1.61013e-05
1.61015e-05
1.61017e-05
1.61019e-05
1.61021e-05
1.61022e-05
1.61022e-05
1.61026e-05
1.61026e-05
1.6101e-05
1.61007e-05
1.61005e-05
1.61005e-05
1.61006e-05
1.61008e-05
1.61009e-05
1.61011e-05
1.61013e-05
1.61015e-05
1.61017e-05
1.61019e-05
1.6102e-05
1.61022e-05
1.61023e-05
1.61024e-05
1.61025e-05
1.61026e-05
1.61027e-05
1.61028e-05
1.61029e-05
1.6103e-05
1.61031e-05
1.61033e-05
1.61034e-05
1.61036e-05
1.61038e-05
1.61042e-05
1.61046e-05
1.61051e-05
1.61057e-05
1.61066e-05
1.61074e-05
1.61089e-05
1.611e-05
1.61097e-05
1.61274e-05
1.60742e-05
1.61649e-05
1.61014e-05
1.61015e-05
1.6101e-05
1.61e-05
1.60998e-05
1.60997e-05
1.60994e-05
1.6099e-05
1.60987e-05
1.60985e-05
1.60983e-05
1.60981e-05
1.6098e-05
1.6098e-05
1.6098e-05
1.6098e-05
1.6098e-05
1.60981e-05
1.60982e-05
1.60983e-05
1.60984e-05
1.60986e-05
1.60988e-05
1.60991e-05
1.60994e-05
1.60996e-05
1.60999e-05
1.61002e-05
1.61005e-05
1.61007e-05
1.6101e-05
1.61013e-05
1.61015e-05
1.61018e-05
1.61019e-05
1.61021e-05
1.61021e-05
1.61024e-05
1.61025e-05
1.61009e-05
1.61006e-05
1.61004e-05
1.61005e-05
1.61006e-05
1.61007e-05
1.6101e-05
1.61012e-05
1.61014e-05
1.61016e-05
1.61018e-05
1.6102e-05
1.61021e-05
1.61023e-05
1.61024e-05
1.61025e-05
1.61027e-05
1.61028e-05
1.61029e-05
1.6103e-05
1.61031e-05
1.61032e-05
1.61033e-05
1.61034e-05
1.61036e-05
1.61037e-05
1.6104e-05
1.61042e-05
1.61046e-05
1.61051e-05
1.61056e-05
1.61064e-05
1.61072e-05
1.61082e-05
1.61103e-05
1.61084e-05
1.61217e-05
1.61007e-05
1.61179e-05
1.61012e-05
1.61013e-05
1.61008e-05
1.60999e-05
1.60997e-05
1.60995e-05
1.60992e-05
1.60988e-05
1.60985e-05
1.60983e-05
1.60981e-05
1.6098e-05
1.60979e-05
1.60978e-05
1.60978e-05
1.60978e-05
1.60979e-05
1.60979e-05
1.6098e-05
1.60981e-05
1.60983e-05
1.60984e-05
1.60986e-05
1.60989e-05
1.60991e-05
1.60994e-05
1.60996e-05
1.60999e-05
1.61002e-05
1.61005e-05
1.61008e-05
1.61011e-05
1.61013e-05
1.61016e-05
1.61018e-05
1.6102e-05
1.6102e-05
1.61022e-05
1.61023e-05
1.61007e-05
1.61005e-05
1.61003e-05
1.61004e-05
1.61006e-05
1.61007e-05
1.6101e-05
1.61012e-05
1.61014e-05
1.61016e-05
1.61018e-05
1.6102e-05
1.61022e-05
1.61024e-05
1.61025e-05
1.61026e-05
1.61028e-05
1.61029e-05
1.6103e-05
1.61031e-05
1.61032e-05
1.61034e-05
1.61035e-05
1.61036e-05
1.61037e-05
1.61039e-05
1.61041e-05
1.61044e-05
1.61047e-05
1.61051e-05
1.61056e-05
1.61062e-05
1.61071e-05
1.61079e-05
1.61097e-05
1.61093e-05
1.61153e-05
1.61134e-05
1.61111e-05
1.61009e-05
1.61011e-05
1.61006e-05
1.60998e-05
1.60995e-05
1.60993e-05
1.6099e-05
1.60986e-05
1.60983e-05
1.60981e-05
1.60979e-05
1.60978e-05
1.60977e-05
1.60977e-05
1.60977e-05
1.60977e-05
1.60977e-05
1.60978e-05
1.60978e-05
1.60979e-05
1.60981e-05
1.60982e-05
1.60984e-05
1.60986e-05
1.60989e-05
1.60991e-05
1.60994e-05
1.60996e-05
1.60999e-05
1.61002e-05
1.61005e-05
1.61008e-05
1.61011e-05
1.61014e-05
1.61016e-05
1.61018e-05
1.61019e-05
1.61021e-05
1.61022e-05
1.61006e-05
1.61003e-05
1.61002e-05
1.61004e-05
1.61005e-05
1.61007e-05
1.6101e-05
1.61012e-05
1.61015e-05
1.61017e-05
1.61019e-05
1.61021e-05
1.61023e-05
1.61024e-05
1.61026e-05
1.61028e-05
1.61029e-05
1.6103e-05
1.61031e-05
1.61033e-05
1.61034e-05
1.61035e-05
1.61036e-05
1.61038e-05
1.61039e-05
1.61041e-05
1.61043e-05
1.61045e-05
1.61048e-05
1.61052e-05
1.61056e-05
1.61062e-05
1.61069e-05
1.61077e-05
1.61091e-05
1.61099e-05
1.61122e-05
1.61155e-05
1.61145e-05
1.61008e-05
1.61009e-05
1.61005e-05
1.60996e-05
1.60993e-05
1.60991e-05
1.60988e-05
1.60984e-05
1.60981e-05
1.60979e-05
1.60977e-05
1.60976e-05
1.60975e-05
1.60975e-05
1.60975e-05
1.60975e-05
1.60975e-05
1.60976e-05
1.60977e-05
1.60977e-05
1.60979e-05
1.6098e-05
1.60982e-05
1.60984e-05
1.60986e-05
1.60989e-05
1.60991e-05
1.60994e-05
1.60997e-05
1.60999e-05
1.61002e-05
1.61005e-05
1.61008e-05
1.61011e-05
1.61014e-05
1.61016e-05
1.61018e-05
1.61019e-05
1.61021e-05
1.61004e-05
1.61002e-05
1.61002e-05
1.61003e-05
1.61005e-05
1.61007e-05
1.6101e-05
1.61012e-05
1.61015e-05
1.61017e-05
1.6102e-05
1.61022e-05
1.61024e-05
1.61025e-05
1.61027e-05
1.61029e-05
1.6103e-05
1.61031e-05
1.61033e-05
1.61034e-05
1.61035e-05
1.61037e-05
1.61038e-05
1.61039e-05
1.61041e-05
1.61042e-05
1.61044e-05
1.61046e-05
1.61049e-05
1.61053e-05
1.61057e-05
1.61062e-05
1.61069e-05
1.61077e-05
1.61087e-05
1.61099e-05
1.61114e-05
1.61141e-05
1.61169e-05
1.61006e-05
1.61007e-05
1.61003e-05
1.60995e-05
1.60991e-05
1.60989e-05
1.60986e-05
1.60982e-05
1.60979e-05
1.60977e-05
1.60975e-05
1.60974e-05
1.60973e-05
1.60973e-05
1.60973e-05
1.60973e-05
1.60974e-05
1.60974e-05
1.60975e-05
1.60976e-05
1.60977e-05
1.60978e-05
1.6098e-05
1.60982e-05
1.60984e-05
1.60986e-05
1.60988e-05
1.60991e-05
1.60994e-05
1.60997e-05
1.61e-05
1.61003e-05
1.61006e-05
1.61009e-05
1.61012e-05
1.61014e-05
1.61016e-05
1.61017e-05
1.61019e-05
1.61003e-05
1.61001e-05
1.61001e-05
1.61003e-05
1.61005e-05
1.61007e-05
1.6101e-05
1.61013e-05
1.61015e-05
1.61018e-05
1.6102e-05
1.61022e-05
1.61024e-05
1.61026e-05
1.61028e-05
1.6103e-05
1.61031e-05
1.61033e-05
1.61034e-05
1.61036e-05
1.61037e-05
1.61038e-05
1.6104e-05
1.61041e-05
1.61043e-05
1.61044e-05
1.61046e-05
1.61048e-05
1.6105e-05
1.61054e-05
1.61058e-05
1.61062e-05
1.61068e-05
1.61076e-05
1.61085e-05
1.61097e-05
1.61112e-05
1.61126e-05
1.6117e-05
1.61004e-05
1.61005e-05
1.61001e-05
1.60993e-05
1.6099e-05
1.60987e-05
1.60983e-05
1.6098e-05
1.60977e-05
1.60975e-05
1.60973e-05
1.60972e-05
1.60972e-05
1.60971e-05
1.60971e-05
1.60971e-05
1.60972e-05
1.60972e-05
1.60973e-05
1.60973e-05
1.60974e-05
1.60976e-05
1.60977e-05
1.60979e-05
1.60981e-05
1.60983e-05
1.60986e-05
1.60988e-05
1.60991e-05
1.60994e-05
1.60997e-05
1.61e-05
1.61003e-05
1.61006e-05
1.61009e-05
1.61012e-05
1.61014e-05
1.61015e-05
1.61018e-05
1.61001e-05
1.61e-05
1.61e-05
1.61002e-05
1.61005e-05
1.61007e-05
1.6101e-05
1.61013e-05
1.61016e-05
1.61018e-05
1.61021e-05
1.61023e-05
1.61025e-05
1.61027e-05
1.61029e-05
1.61031e-05
1.61032e-05
1.61034e-05
1.61036e-05
1.61037e-05
1.61039e-05
1.6104e-05
1.61042e-05
1.61043e-05
1.61044e-05
1.61046e-05
1.61048e-05
1.6105e-05
1.61052e-05
1.61055e-05
1.61059e-05
1.61063e-05
1.61069e-05
1.61076e-05
1.61084e-05
1.61094e-05
1.61111e-05
1.61119e-05
1.61162e-05
1.61002e-05
1.61003e-05
1.60999e-05
1.60992e-05
1.60988e-05
1.60985e-05
1.60981e-05
1.60977e-05
1.60974e-05
1.60972e-05
1.60971e-05
1.6097e-05
1.60969e-05
1.60969e-05
1.60969e-05
1.60969e-05
1.60969e-05
1.6097e-05
1.6097e-05
1.60971e-05
1.60972e-05
1.60973e-05
1.60975e-05
1.60977e-05
1.60979e-05
1.60981e-05
1.60983e-05
1.60985e-05
1.60988e-05
1.6099e-05
1.60993e-05
1.60996e-05
1.61e-05
1.61003e-05
1.61006e-05
1.61009e-05
1.61012e-05
1.61013e-05
1.61017e-05
1.61e-05
1.60999e-05
1.60999e-05
1.61002e-05
1.61004e-05
1.61007e-05
1.6101e-05
1.61013e-05
1.61016e-05
1.61018e-05
1.61021e-05
1.61023e-05
1.61026e-05
1.61028e-05
1.6103e-05
1.61032e-05
1.61033e-05
1.61035e-05
1.61037e-05
1.61038e-05
1.6104e-05
1.61042e-05
1.61043e-05
1.61045e-05
1.61046e-05
1.61048e-05
1.6105e-05
1.61052e-05
1.61054e-05
1.61057e-05
1.6106e-05
1.61064e-05
1.61069e-05
1.61076e-05
1.61084e-05
1.61093e-05
1.61109e-05
1.61115e-05
1.61154e-05
1.61e-05
1.61001e-05
1.60997e-05
1.6099e-05
1.60986e-05
1.60982e-05
1.60979e-05
1.60975e-05
1.60972e-05
1.6097e-05
1.60969e-05
1.60968e-05
1.60967e-05
1.60967e-05
1.60967e-05
1.60967e-05
1.60967e-05
1.60968e-05
1.60968e-05
1.60969e-05
1.6097e-05
1.60971e-05
1.60972e-05
1.60974e-05
1.60976e-05
1.60978e-05
1.6098e-05