/*--------------------------------*- C++ -*----------------------------------*\
| =========                 |                                                 |
| \\      /  F ield         | OpenFOAM: The Open Source CFD Toolbox           |
|  \\    /   O peration     | Version:  2206                                  |
|   \\  /    A nd           | Website:  www.openfoam.com                      |
|    \\/     M anipulation  |                                                 |
\*---------------------------------------------------------------------------*/
FoamFile
{
    version     2.0;
    format      ascii;
    arch        "LSB;label=32;scalar=64";
    class       volSymmTensorField;
    location    "300";
    object      turbulenceProperties:R;
}
// * * * * * * * * * * * * * * * * * * * * * * * * * * * * * * * * * * * * * //

dimensions      [0 2 -2 0 0 0 0];

internalField   nonuniform List<symmTensor> 
10720
(
(0.0145029 0.00307005 -1.19796e-21 0.0120439 -4.49006e-20 0.0134211)
(0.0172915 0.00364718 7.98096e-22 0.0136485 5.09429e-20 0.0155798)
(0.0210845 0.00423585 1.24153e-20 0.0153298 5.24975e-20 0.0184366)
(0.0262576 0.00499787 6.03296e-20 0.017623 4.92569e-19 0.022237)
(0.0326304 0.00571662 -2.53368e-19 0.020057 -1.01517e-18 0.0266788)
(0.0409645 0.00622707 -3.1002e-19 0.0227869 -6.31932e-19 0.0323792)
(0.0517461 0.00649735 1.1249e-19 0.0261227 1.0874e-20 0.039577)
(0.0652074 0.00618303 6.25786e-20 0.0300909 9.89479e-20 0.0484369)
(0.0822098 0.00491801 1.66167e-19 0.0351382 -1.34224e-19 0.0597031)
(0.103594 0.00243384 -2.59321e-20 0.0419408 -2.60174e-20 0.0740285)
(0.130645 -0.00179552 3.01631e-18 0.0513722 1.21603e-18 0.0925576)
(0.165505 -0.00835679 -7.26584e-19 0.0648054 -5.5804e-19 0.117047)
(0.211136 -0.0181791 1.4834e-18 0.0841127 -2.22718e-18 0.149932)
(0.272412 -0.0328552 7.2936e-19 0.112314 1.56487e-18 0.195218)
(0.357631 -0.0550453 1.15225e-18 0.154569 -2.04284e-18 0.259725)
(0.479609 -0.0890805 4.74651e-19 0.219236 7.23242e-18 0.354114)
(0.663444 -0.143574 3.66026e-17 0.322887 1.94902e-17 0.499559)
(0.940396 -0.230819 -1.02946e-17 0.48908 1.38466e-17 0.723498)
(1.41783 -0.387249 -4.134e-18 0.789977 -6.71092e-17 1.11677)
(2.1411 -0.640054 2.21692e-18 1.27827 -4.33051e-19 1.7279)
(3.75275 -1.21303 -6.58579e-17 2.40093 -8.96707e-17 3.1059)
(6.10116 -2.11293 1.57243e-16 4.18517 4.7714e-16 5.18229)
(13.847 -5.13143 -2.57619e-16 10.2615 -9.32799e-16 12.1324)
(25.9896 -10.3101 4.53397e-16 21.0498 1.24382e-16 23.6445)
(27.6223 -11.6403 -2.48698e-16 24.5271 -1.19331e-17 26.1361)
(25.4896 -11.2217 2.09895e-17 24.4497 -1.28082e-15 24.9525)
(24.3889 -11.0395 2.70179e-16 24.7107 -6.42572e-17 24.5052)
(24.3224 -11.2238 1.95554e-16 25.6767 4.12526e-16 24.9624)
(24.4096 -11.4384 1.14966e-15 26.6978 5.60346e-16 25.5292)
(24.1164 -11.4516 1.0478e-15 27.2673 4.51162e-15 25.6794)
(23.3907 -11.2376 -2.01183e-15 27.3038 -1.73996e-15 25.3499)
(22.319 -10.8315 -2.17634e-15 26.8547 -3.02297e-15 24.6026)
(20.8768 -10.2185 -9.24866e-16 25.8481 -3.97104e-15 23.3849)
(19.0928 -9.41212 -2.96417e-15 24.2868 -5.58214e-15 21.7128)
(16.9487 -8.40425 1.07423e-15 22.1122 2.92208e-15 19.5517)
(14.5059 -7.22591 1.80066e-16 19.3649 2.16265e-15 16.9519)
(11.3429 -5.6726 -4.60498e-17 15.477 3.65663e-18 13.4301)
(8.32972 -4.17106 -1.78664e-15 11.5008 -1.0787e-16 9.91781)
(1.8391 -0.926515 -3.59599e-16 2.78484 -1.68877e-15 2.3108)
(0.0120336 0.00257457 8.65668e-22 0.0106555 -3.09893e-21 0.0113985)
(0.0101338 0.00212536 -4.47245e-21 0.00934347 4.54184e-21 0.00982842)
(0.00808559 0.00164741 -2.32745e-20 0.00782995 -1.6186e-20 0.00800232)
(0.0063879 0.00124026 2.26895e-20 0.00644757 -3.24171e-20 0.00644812)
(0.00486531 0.000879613 -2.59024e-20 0.00505302 -2.57996e-20 0.00497428)
(0.00355387 0.000587014 -1.21199e-19 0.00372796 1.47161e-19 0.00364063)
(0.002531 0.000377674 3.6808e-20 0.00261813 1.23444e-19 0.00255824)
(0.00194618 0.000261544 -1.78397e-20 0.00191691 -1.59927e-19 0.00190833)
(0.002113 0.000277939 8.98063e-20 0.00191806 2.21787e-21 0.00199779)
(0.00295669 0.000385134 -7.69323e-20 0.00246958 -2.21238e-20 0.00271056)
(0.00451262 0.000623613 7.74698e-20 0.00351969 1.8676e-19 0.00402585)
(0.00693269 0.00109457 1.82189e-19 0.00509465 -8.52935e-20 0.00603251)
(0.0105083 0.00197074 -2.02447e-19 0.00732609 -5.8373e-20 0.00895252)
(0.0156679 0.00349402 1.34788e-20 0.0104636 9.62455e-20 0.0131307)
(0.0229228 0.00591564 8.38044e-19 0.0148918 1.78325e-19 0.0190074)
(0.0330094 0.00952703 8.31329e-19 0.0212992 -1.75489e-19 0.0273046)
(0.0472478 0.0147487 3.85332e-19 0.0308119 6.00963e-19 0.0392361)
(0.0681428 0.0224678 2.84183e-19 0.045432 6.03747e-19 0.0570725)
(0.100374 0.034427 3.04284e-19 0.0687499 -1.7188e-19 0.084953)
(0.152247 0.0539111 5.79697e-19 0.107385 2.53709e-20 0.13039)
(0.240212 0.0874636 -8.77821e-19 0.174605 -5.32438e-18 0.208283)
(0.393815 0.147305 -3.10482e-18 0.295507 -1.02326e-19 0.346118)
(0.682674 0.262444 2.95393e-18 0.530249 5.21529e-18 0.609115)
(1.22803 0.486356 2.1351e-18 0.992519 -5.64627e-19 1.11571)
(2.39539 0.977841 7.45897e-17 2.02168 -1.51419e-17 2.22029)
(4.80226 2.01575 -1.11777e-18 4.23054 -1.16241e-17 4.54094)
(10.5224 4.53003 1.9826e-19 9.66434 7.30724e-18 10.151)
(21.2608 9.36579 2.27525e-18 20.3385 -6.99006e-20 20.9201)
(29.5416 13.289 3.28609e-19 29.4212 4.45023e-21 29.6376)
(32.636 14.9571 3.64828e-16 33.7949 5.1124e-18 33.3629)
(33.0555 15.3961 -4.18824e-18 35.5085 -2.16461e-19 34.4053)
(32.6434 15.4161 -2.643e-17 36.282 3.59884e-17 34.5637)
(31.9207 15.2539 -2.2427e-15 36.619 -1.86636e-16 34.3535)
(30.9799 14.9539 -4.0245e-15 36.5985 -2.59416e-16 33.8595)
(29.8478 14.5318 3.58565e-15 36.2436 3.91323e-16 33.1062)
(28.5612 14.0088 -2.6907e-17 35.6002 1.37213e-16 32.1336)
(26.9082 13.2858 1.38461e-18 34.4255 -5.27644e-16 30.715)
(25.1156 12.4686 -1.93976e-16 32.9234 2.83033e-16 29.0645)
(20.1413 10.0646 -3.51003e-15 27.4136 1.25751e-16 23.7874)
(0.00226722 -0.000155268 -1.39713e-21 0.00189657 -4.27631e-21 0.00205186)
(0.0022242 -0.000181989 2.50845e-21 0.00191898 5.67832e-21 0.00203811)
(0.00215876 -0.000204468 -1.11113e-22 0.00194134 1.58063e-23 0.0020105)
(0.00205943 -0.000211731 5.10428e-21 0.00192664 7.58297e-22 0.00194826)
(0.00192983 -0.000206763 3.44322e-21 0.00187674 2.99388e-20 0.00185492)
(0.00178991 -0.000193315 2.25518e-20 0.00180989 3.94341e-20 0.00174797)
(0.00164023 -0.000173019 -1.11888e-20 0.00171476 1.8017e-21 0.00162247)
(0.00148402 -0.000149086 -9.35379e-21 0.00159455 -2.45566e-21 0.0014824)
(0.00133659 -0.000125538 -5.24526e-20 0.00146806 -5.79442e-20 0.00134404)
(0.00119897 -0.000104533 -1.75631e-20 0.00133687 -5.78523e-21 0.00120853)
(0.00107272 -8.69475e-05 -1.52986e-19 0.00120616 -1.49439e-19 0.00107997)
(0.000987128 -7.80406e-05 -1.90483e-21 0.00111446 2.61317e-20 0.000989213)
(0.000976439 -8.37589e-05 -9.65675e-20 0.00110666 2.85169e-21 0.000969397)
(0.00107622 -0.000114109 9.00436e-20 0.00122349 5.35154e-20 0.00104899)
(0.00141331 -0.000214381 -3.28364e-19 0.00159356 -9.57496e-20 0.00132344)
(0.00229742 -0.000518592 1.51807e-18 0.00245114 3.67954e-19 0.0019955)
(0.00462698 -0.00138508 -2.99352e-18 0.00434573 -2.60191e-18 0.00368506)
(0.0101395 -0.00334749 -5.41545e-18 0.00824957 -2.19462e-18 0.00777626)
(0.025037 -0.00842481 -1.15709e-17 0.0184852 4.88049e-18 0.0193331)
(0.061557 -0.0208267 2.30522e-18 0.0434485 -2.02001e-20 0.0486899)
(0.18095 -0.0622284 2.17447e-17 0.126637 3.2095e-17 0.147217)
(0.492414 -0.174259 -4.15428e-17 0.350793 -1.26571e-16 0.412313)
(1.4825 -0.546361 -2.22988e-18 1.09917 2.28001e-16 1.27915)
(4.62586 -1.78479 5.22329e-18 3.61887 -8.74799e-17 4.11832)
(8.80463 -3.54439 -0 7.2837 -0 8.0799)
(12.9112 -5.39254 -2.5612e-17 11.2774 6.08173e-16 12.1759)
(16.5581 -7.1501 -6.82064e-17 15.2788 4.69213e-17 16.0262)
(18.8737 -8.39701 -1.10735e-16 18.3898 -4.76195e-16 18.7449)
(18.9118 -8.63898 -9.74331e-16 19.4381 -2.62986e-15 19.2738)
(16.9141 -7.89977 3.87889e-16 18.2885 -8.30012e-15 17.663)
(14.0853 -6.69369 -1.09045e-16 15.9405 5.64129e-15 15.0254)
(11.382 -5.47934 -3.38892e-16 13.3976 7.39384e-15 12.3625)
(9.25776 -4.49918 -2.19876e-15 11.257 4.27201e-15 10.2126)
(7.67279 -3.75415 6.48243e-15 9.56454 1.54378e-14 8.5742)
(6.48114 -3.18691 -4.13578e-16 8.23317 -2.76651e-15 7.32114)
(5.56505 -2.74388 6.23917e-15 7.14902 -3.67533e-15 6.32631)
(4.91804 -2.4326 -2.2406e-16 6.39345 4.92706e-17 5.63569)
(4.36119 -2.13731 3.17508e-15 5.51746 7.06405e-16 4.88638)
(4.49783 -2.2554 5.72227e-15 5.98368 6.56087e-15 5.37419)
(0.00227306 -0.000117587 1.62858e-21 0.00185014 5.33148e-21 0.00203592)
(0.00226174 -7.76584e-05 -1.06094e-21 0.00180481 -2.26529e-20 0.00200893)
(0.00221017 -2.67401e-05 -1.43991e-20 0.00173925 -4.80197e-20 0.00195527)
(0.00211629 3.07747e-05 2.68767e-21 0.00166086 6.90719e-20 0.0018744)
(0.00197239 8.4877e-05 3.23379e-20 0.0015697 -3.04727e-20 0.00176339)
(0.00177368 0.000127791 -9.31278e-21 0.00146049 -5.07144e-20 0.00161507)
(0.00153877 0.000150822 5.11787e-20 0.00133594 -1.10737e-19 0.00143925)
(0.00131424 0.000152953 -8.77269e-20 0.00121224 -1.19025e-20 0.00126835)
(0.00111359 0.000139699 -4.78994e-20 0.00109255 1.08905e-19 0.00110896)
(0.000921992 0.000116367 -1.43754e-20 0.000968452 -5.50408e-21 0.000948661)
(0.000751547 8.77136e-05 -2.32294e-20 0.000839709 -5.31589e-20 0.000794866)
(0.00061501 6.18864e-05 4.70107e-21 0.000717216 -2.75586e-20 0.000661744)
(0.0005068 4.21522e-05 1.83364e-20 0.000605982 4.70843e-20 0.000549885)
(0.000419004 2.82162e-05 -1.54894e-20 0.000507067 -1.05484e-20 0.000455579)
(0.000346723 1.8887e-05 -8.61265e-21 0.000420708 -3.08476e-20 0.000376061)
(0.000286789 1.284e-05 -2.89225e-20 0.000346646 -8.83639e-21 0.000309383)
(0.000236372 8.97599e-06 -4.74233e-21 0.000283092 -6.25645e-23 0.000253113)
(0.000193791 6.45638e-06 -2.73287e-22 0.000228975 -2.46037e-21 0.000205742)
(0.000156382 4.61628e-06 -2.29826e-21 0.000181429 1.656e-21 0.000164441)
(0.000121922 3.10714e-06 3.0702e-21 0.000138143 -1.04884e-21 0.000126849)
(8.72581e-05 1.73896e-06 -1.15966e-20 9.58642e-05 8.58475e-21 8.97089e-05)
(5.24485e-05 6.64511e-07 -1.0277e-21 5.55801e-05 2.13006e-22 5.3273e-05)
(1.84793e-05 8.34771e-08 -5.03931e-24 1.88607e-05 -1.28519e-22 1.85691e-05)
(3.03462e-06 2.27391e-09 1.66374e-23 3.04452e-06 9.24645e-25 3.03657e-06)
(7.6934e-06 1.59093e-08 -9.07241e-23 7.75267e-06 7.76038e-24 7.70218e-06)
(0.000850726 0.000192747 -8.68266e-19 0.00142856 1.91045e-19 0.000910345)
(0.00451514 0.00133111 -8.03374e-20 0.00781713 -1.21667e-19 0.00473816)
(0.0372202 0.0119583 -6.56721e-21 0.0620698 -3.43603e-19 0.0383048)
(0.12805 0.0458809 -4.97422e-20 0.204165 -6.7591e-22 0.130543)
(0.256194 0.102652 2.7084e-18 0.386076 2.24263e-18 0.261083)
(0.390919 0.170602 1.83891e-19 0.554138 -9.91373e-19 0.401563)
(0.512463 0.235157 4.69712e-18 0.689627 -1.74825e-17 0.533181)
(0.614333 0.289291 2.4551e-15 0.799326 1.7652e-16 0.648338)
(0.701202 0.334844 2.30218e-15 0.897883 1.24642e-16 0.750423)
(0.778731 0.375279 -2.13802e-15 0.994957 -2.5232e-16 0.844896)
(0.856837 0.415465 2.07366e-15 1.09884 2.72094e-16 0.94011)
(0.934257 0.456086 -3.6768e-15 1.21456 -5.42747e-16 1.04023)
(1.13389 0.552213 -3.42251e-15 1.45532 -7.47095e-16 1.25434)
(1.57413 0.775636 -3.41843e-15 1.97916 -1.03582e-16 1.79194)
(0.00151794 -0.000120526 -6.04054e-22 0.00125069 -2.17744e-21 0.00139957)
(0.00147812 -0.00014368 -1.29861e-20 0.00126644 -3.0627e-20 0.00139074)
(0.00140952 -0.000159887 9.56735e-21 0.00127084 2.28751e-20 0.00136171)
(0.00132 -0.000165142 1.32226e-20 0.00126232 2.5036e-20 0.00131723)
(0.00122901 -0.00016036 2.39582e-20 0.00125156 3.46069e-20 0.00126992)
(0.0011353 -0.000144957 -7.36892e-20 0.00123368 -1.28985e-19 0.0012177)
(0.00104709 -0.000120406 5.17529e-20 0.00120886 1.03889e-19 0.00116516)
(0.000973231 -9.03613e-05 6.91209e-20 0.00118128 6.16744e-20 0.00111771)
(0.000915238 -5.71681e-05 -3.97477e-21 0.00115199 8.37081e-21 0.00107694)
(0.000875523 -2.41266e-05 4.22197e-20 0.00112376 7.52747e-20 0.00104557)
(0.000850877 6.59943e-06 -9.18707e-20 0.00109599 -4.34475e-21 0.00102116)
(0.000842181 3.3552e-05 1.25576e-19 0.00107472 1.39347e-19 0.00100704)
(0.000846961 5.60805e-05 5.94711e-20 0.00106228 2.44206e-20 0.00100281)
(0.000864317 7.5366e-05 3.01122e-20 0.00106226 -2.87605e-20 0.0010105)
(0.0008788 8.93836e-05 8.63899e-20 0.00105681 8.53617e-20 0.00101221)
(0.000863043 9.29445e-05 -2.03662e-19 0.00101278 -2.07709e-19 0.000975993)
(0.000754048 7.39225e-05 3.77881e-20 0.000854001 5.52628e-20 0.00082929)
(0.000725426 7.14055e-05 2.97024e-19 0.000809361 8.71362e-20 0.000787725)
(8.83615e-05 1.04778e-06 1.32668e-21 8.94673e-05 9.76955e-22 8.91597e-05)
(0.00344086 0.00149155 -6.09704e-19 0.00490911 -4.23859e-20 0.00445604)
(2.70079e-08 1.27976e-13 6.6868e-29 2.70081e-08 -1.4758e-28 2.7008e-08)
(0.000862467 0.000216077 3.01236e-20 0.00106704 2.59731e-19 0.000986143)
(2.08259e-05 6.91566e-07 1.30496e-20 2.20936e-05 -2.68263e-21 2.13963e-05)
(0.0125541 -0.0048946 -5.92675e-18 0.0101798 -2.4729e-18 0.0109853)
(0.135411 -0.0541791 2.41594e-19 0.112742 6.1137e-19 0.121321)
(0.468744 -0.193965 -5.7415e-17 0.408335 1.64123e-17 0.432272)
(1.16044 -0.495373 2.02192e-17 1.05914 8.35593e-18 1.10068)
(2.54539 -1.11499 -2.55987e-17 2.42483 -2.11966e-18 2.47427)
(4.92417 -2.20438 -6.36429e-16 4.88045 6.50185e-16 4.89209)
(7.97018 -3.63868 -1.08534e-15 8.21401 3.35529e-17 8.08729)
(10.5818 -4.92136 3.90737e-15 11.3527 -1.15102e-15 10.9751)
(11.6886 -5.52919 3.18643e-15 13.0594 1.73796e-15 12.3957)
(11.194 -5.37044 -1.548e-16 12.9908 4.30212e-15 12.116)
(9.87942 -4.78924 6.63869e-15 11.8383 -5.04578e-15 10.8715)
(8.45892 -4.12975 5.16089e-15 10.3881 -2.92534e-15 9.4257)
(7.19486 -3.52491 -9.5812e-15 8.95563 -3.55182e-15 8.07077)
(6.21676 -3.05442 -2.70209e-17 7.81373 -1.68963e-15 7.01662)
(5.27634 -2.55717 6.269e-15 6.35592 -1.58523e-15 5.79199)
(5.68163 -2.81522 -1.31004e-14 7.35204 4.2244e-15 6.54384)
(0.0015523 -9.11275e-05 -2.8392e-21 0.00123887 -6.86541e-21 0.00140949)
(0.00156578 -5.92933e-05 -2.35655e-21 0.00122378 -2.58824e-21 0.00140594)
(0.00157121 -2.04491e-05 2.12294e-20 0.00121265 3.71883e-20 0.00140051)
(0.00154398 2.07919e-05 -1.27859e-20 0.00119233 -6.2439e-22 0.00137358)
(0.00148469 6.12756e-05 3.04412e-21 0.00116505 1.59682e-20 0.001328)
(0.00138239 9.45423e-05 -4.96841e-21 0.00112078 5.04015e-20 0.00125272)
(0.00124292 0.000115292 -1.14592e-20 0.00105717 4.76811e-20 0.00114987)
(0.00108714 0.000121553 1.33453e-19 0.000979631 9.63586e-20 0.00103381)
(0.000943601 0.00011757 1.99123e-20 0.000906421 -2.61754e-20 0.000925845)
(0.000803186 0.000104297 7.13513e-20 0.000824344 9.32474e-21 0.000814368)
(0.00066421 8.44655e-05 -5.56103e-20 0.000723635 -3.73553e-20 0.000694682)
(0.000538922 6.38537e-05 -4.02006e-20 0.000616469 6.17101e-20 0.000579131)
(0.000432673 4.57841e-05 4.33757e-20 0.000514484 -2.19574e-20 0.000475915)
(0.000344921 3.11735e-05 3.57271e-20 0.00042279 -1.30413e-22 0.000387176)
(0.000274842 2.01062e-05 -2.57925e-20 0.000344705 2.48862e-20 0.000313928)
(0.000219763 1.20396e-05 -1.86484e-20 0.000280135 4.50154e-20 0.000254811)
(0.00017778 6.39495e-06 4.52963e-20 0.000228891 -2.77695e-20 0.00020872)
(0.000146524 2.4749e-06 4.22683e-20 0.000189442 -7.71882e-21 0.00017376)
(0.000124183 -2.97467e-07 1.66314e-20 0.000160387 -1.47405e-21 0.000148302)
(0.000108461 -2.41204e-06 -5.64601e-21 0.000139173 2.08974e-20 0.000130029)
(9.79686e-05 -4.16321e-06 7.99015e-20 0.000124213 9.88548e-21 0.000117443)
(9.16499e-05 -5.84812e-06 3.20445e-21 0.000113949 -1.48624e-20 0.000109339)
(8.90443e-05 -7.6746e-06 -2.59732e-22 0.000107321 -9.70254e-22 0.000105008)
(8.91669e-05 -9.4459e-06 -1.81538e-21 0.000101838 -1.06148e-20 0.000102928)
(9.23335e-05 -1.05775e-05 -1.5175e-21 9.77637e-05 7.98016e-21 0.000103487)
(9.52247e-05 -1.00464e-05 1.29231e-19 9.32974e-05 -6.6374e-21 0.000103175)
(0.000104339 -9.47673e-06 3.49239e-22 9.5857e-05 -1.01163e-23 0.00011009)
(6.26097e-05 -2.75325e-06 -4.71165e-21 5.8007e-05 2.645e-22 6.39441e-05)
(0.000473677 -6.54842e-05 -1.02404e-21 0.000295308 -1.57801e-22 0.000501525)
(0.00325785 -0.000272165 -2.52074e-18 0.00168493 -9.4073e-20 0.00340647)
(0.00933226 0.00042363 1.75982e-17 0.00467804 7.80468e-19 0.00965127)
(0.0187782 0.0046805 -2.38e-19 0.011261 -1.32595e-20 0.0193651)
(0.0385921 0.015431 -2.73012e-16 0.0316691 -1.27968e-17 0.0399441)
(0.0759612 0.0342662 -3.14607e-19 0.0747427 9.41719e-18 0.079237)
(0.130155 0.0608284 -1.199e-18 0.139674 8.21055e-18 0.137224)
(0.196679 0.0929438 3.54086e-17 0.218855 -1.03149e-16 0.208505)
(0.267561 0.12757 -1.72844e-16 0.305667 7.1112e-16 0.286674)
(0.333452 0.154058 2.186e-15 0.353563 8.14277e-16 0.342258)
(0.548194 0.261133 4.48525e-15 0.615112 1.75783e-15 0.593623)
(0.00128863 -9.77163e-05 -2.52598e-21 0.00106042 -4.72177e-21 0.00116918)
(0.00127325 -0.000115795 -5.50408e-21 0.00108101 -8.81906e-21 0.00117124)
(0.00124336 -0.000131419 1.05165e-20 0.00110019 1.60021e-20 0.00116424)
(0.00120682 -0.00014156 1.48078e-20 0.00111825 1.43991e-20 0.00115352)
(0.00115902 -0.000144758 1.67355e-21 0.00112701 -7.27012e-22 0.0011323)
(0.00110147 -0.000141128 -5.6819e-21 0.00112607 1.39683e-20 0.00110107)
(0.00103944 -0.000131407 1.07896e-19 0.0011149 1.08108e-19 0.00106245)
(0.000972853 -0.00011672 -1.01068e-19 0.00108976 -1.34211e-19 0.00101456)
(0.000904868 -9.88157e-05 2.82751e-20 0.00105282 7.30982e-21 0.000959919)
(0.000836989 -7.97163e-05 1.3362e-19 0.00100436 9.8986e-20 0.000899772)
(0.000769999 -6.08853e-05 1.05106e-19 0.00094618 1.06751e-19 0.00083531)
(0.000703954 -4.35112e-05 1.1401e-19 0.000879806 3.27585e-20 0.00076755)
(0.000638549 -2.83861e-05 -1.27136e-19 0.000806747 -9.64072e-20 0.000697259)
(0.000573945 -1.58315e-05 -7.97231e-20 0.000729292 -7.99798e-20 0.000625801)
(0.000510009 -5.80771e-06 8.77758e-21 0.000648944 -2.68113e-20 0.000553728)
(0.000443328 2.90017e-06 -1.95042e-19 0.000562868 1.37304e-20 0.000478581)
(0.000377802 1.02198e-05 -5.28175e-20 0.000474989 -6.69361e-20 0.000404448)
(0.000324812 1.61642e-05 -2.9061e-19 0.000400898 -2.26012e-19 0.000344239)
(0.000252835 1.57033e-05 2.14082e-20 0.000295623 -2.88095e-20 0.000263453)
(0.000161189 7.74953e-06 3.56891e-21 0.000174684 -8.1409e-21 0.000164765)
(1.96669e-05 1.09347e-07 -3.95247e-22 1.98013e-05 -4.69246e-24 1.97087e-05)
(9.50967e-05 2.26452e-06 1.02015e-21 9.72425e-05 2.25625e-22 9.58729e-05)
(7.62707e-06 1.30039e-08 -2.47158e-23 7.63644e-06 -5.03173e-24 7.6307e-06)
(0.00261203 0.0010788 -6.46259e-19 0.00313218 6.93841e-19 0.0028034)
(0.0139436 0.00648397 1.07823e-18 0.0154229 7.30663e-20 0.01427)
(0.000223799 1.70686e-05 1.38413e-20 0.000223227 7.38286e-21 0.000222336)
(0.00286796 0.00114746 -1.2452e-19 0.00248692 5.14744e-20 0.00258334)
(0.00492695 0.00143017 6.3702e-19 0.00299788 4.04297e-20 0.00370608)
(0.0325935 -0.0116555 4.07309e-17 0.0236143 2.48125e-18 0.0272538)
(0.256093 -0.110272 -1.00595e-17 0.237141 1.22984e-16 0.244729)
(1.06553 -0.479656 -5.33584e-16 1.06853 -5.26552e-16 1.06374)
(2.81978 -1.30119 1.99123e-15 2.9765 -1.86765e-15 2.89409)
(5.16147 -2.42709 2.17913e-15 5.69026 -2.12491e-16 5.42458)
(7.01006 -3.34706 -3.84944e-16 8.03604 -7.24545e-15 7.52819)
(7.71166 -3.72482 -5.82592e-15 9.13779 -1.76437e-15 8.43367)
(7.51113 -3.6521 7.00038e-16 9.09525 3.66551e-15 8.30698)
(7.00733 -3.42192 -9.96848e-15 8.60597 1.47872e-15 7.81367)
(6.26024 -3.02039 -6.98971e-15 7.41899 8.73342e-16 6.82408)
(6.5447 -3.21331 8.11189e-15 8.14643 -4.94807e-15 7.38807)
(0.00128965 -7.51239e-05 -1.36646e-21 0.00103306 -1.40262e-21 0.00115776)
(0.00127914 -5.1234e-05 4.87602e-21 0.00100514 2.23245e-20 0.00113902)
(0.00125252 -2.16873e-05 1.44771e-20 0.000970859 3.21576e-20 0.00111016)
(0.00121297 9.5132e-06 1.56021e-20 0.000937825 -7.62148e-21 0.00107465)
(0.00115591 3.99719e-05 -3.0999e-20 0.000903992 -2.66252e-20 0.00103001)
(0.00107637 6.60759e-05 -3.41786e-21 0.00086515 -3.8088e-20 0.000970919)
(0.000980912 8.44557e-05 -4.75669e-20 0.000822675 -4.88497e-20 0.000901648)
(0.000879079 9.33574e-05 -7.51318e-20 0.000777405 -2.77356e-21 0.000828258)
(0.000775264 9.35099e-05 -2.16132e-20 0.000727889 -1.19314e-20 0.000752033)
(0.000668513 8.57877e-05 2.33796e-20 0.000668426 -1.63683e-20 0.00066912)
(0.000565433 7.27425e-05 2.31489e-20 0.000599892 5.31134e-20 0.000583226)
(0.000474503 5.812e-05 4.3551e-20 0.000530053 -1.68929e-20 0.00050257)
(0.000398387 4.44029e-05 -3.7202e-20 0.000464259 -4.26779e-20 0.000431181)
(0.000335865 3.26839e-05 -7.03036e-21 0.00040456 1.58656e-20 0.000369578)
(0.000285211 2.33569e-05 3.38752e-20 0.000352009 -7.38296e-21 0.000317466)
(0.000244179 1.62595e-05 7.43406e-20 0.00030654 -5.30332e-21 0.000273759)
(0.000211314 1.10738e-05 -4.6632e-20 0.000268264 -1.33614e-20 0.000237776)
(0.000185066 7.35016e-06 -1.41595e-20 0.000236576 -2.06639e-20 0.000208467)
(0.000164288 4.64624e-06 -6.60328e-21 0.000210857 3.65996e-21 0.000184941)
(0.000147527 2.56472e-06 6.89341e-20 0.000189742 -2.72412e-20 0.000165814)
(0.000134024 8.49137e-07 1.24441e-20 0.000172463 -1.823e-20 0.000150275)
(0.000122794 -7.18505e-07 -6.70283e-20 0.000157828 1.96795e-20 0.000137235)
(0.000112889 -2.26712e-06 -2.80347e-21 0.000144554 9.89633e-21 0.000125549)
(0.000102628 -3.7049e-06 -1.07775e-21 0.000130414 -6.61354e-21 0.000113286)
(9.22003e-05 -4.60625e-06 1.00442e-21 0.000115833 -8.22641e-23 0.000100627)
(8.36263e-05 -4.8895e-06 -5.1247e-20 0.000103762 -1.05329e-20 8.9962e-05)
(7.72193e-05 -4.83544e-06 -9.0618e-22 9.46566e-05 1.61151e-22 8.18226e-05)
(7.26521e-05 -4.67169e-06 1.10604e-20 8.81529e-05 2.94129e-22 7.58942e-05)
(6.69058e-05 -4.28811e-06 -3.91699e-22 8.02418e-05 -9.40507e-24 6.89642e-05)
(5.91084e-05 -3.80472e-06 2.52778e-22 7.01403e-05 3.60268e-22 6.02382e-05)
(4.4934e-05 -2.80778e-06 -2.7878e-20 5.22377e-05 -1.0051e-21 4.53096e-05)
(2.86719e-05 -1.6924e-06 -6.43163e-22 3.24424e-05 -3.99629e-23 2.86145e-05)
(0.000200254 -5.49682e-05 3.6534e-21 0.000303503 -6.72602e-20 0.000184244)
(0.000395527 -4.56853e-05 1.70592e-17 0.00050556 1.53728e-18 0.000287299)
(0.00167449 0.000600771 1.09903e-18 0.00130098 1.22897e-19 0.00133718)
(0.00859017 0.00334193 -1.88065e-16 0.0067567 -3.56071e-17 0.00776354)
(0.0268477 0.0112045 1.25007e-15 0.0232201 1.83528e-16 0.0257534)
(0.0705891 0.0278785 4.81102e-17 0.0566694 -1.76423e-16 0.064365)
(0.229793 0.10443 2.73018e-16 0.230659 -1.51775e-15 0.237394)
(0.000964251 -7.4408e-05 -3.03444e-21 0.000794211 -4.51092e-21 0.000880947)
(0.000948101 -8.7877e-05 -5.53845e-21 0.000806744 -7.48153e-21 0.000879905)
(0.000922386 -9.91162e-05 1.88302e-20 0.00081856 2.41261e-20 0.000873225)
(0.000888747 -0.00010593 -8.03328e-20 0.00082724 -1.09909e-19 0.000861503)
(0.000847416 -0.000107512 1.99379e-20 0.000830202 3.12836e-20 0.000843107)
(0.000799227 -0.000103642 4.34877e-20 0.000826594 4.52128e-20 0.000817939)
(0.000747565 -9.45919e-05 -3.71152e-20 0.000815579 -6.08479e-20 0.000787591)
(0.00069438 -8.11897e-05 -2.50246e-20 0.000796282 4.32719e-21 0.000752407)
(0.000641691 -6.4565e-05 -1.49557e-19 0.000769075 -1.41467e-19 0.000713514)
(0.000592426 -4.63096e-05 -2.09333e-20 0.000735773 -5.65228e-20 0.000673432)
(0.00054786 -2.77214e-05 4.1152e-21 0.000697829 -1.32782e-20 0.00063338)
(0.000509194 -9.99791e-06 -7.50397e-20 0.000657326 -9.53227e-20 0.000594999)
(0.000477419 5.89745e-06 3.60066e-20 0.000616811 4.31953e-20 0.000560005)
(0.000452723 1.93939e-05 -1.47937e-19 0.000578345 -7.69017e-20 0.000529404)
(0.000434978 3.04325e-05 3.23101e-20 0.000543553 1.79973e-20 0.000503959)
(0.000422199 3.8596e-05 1.41571e-19 0.000512526 1.18448e-19 0.00048231)
(0.000408336 4.36342e-05 -1.94657e-19 0.000480631 -5.53657e-20 0.000458838)
(0.000388802 4.56764e-05 -3.57246e-20 0.000443315 1.60585e-19 0.000429219)
(0.000369423 4.68266e-05 -1.2396e-20 0.000408787 -2.10151e-20 0.000401047)
(0.000330439 4.20287e-05 -1.40341e-19 0.000353904 -2.27259e-20 0.000351588)
(0.00026308 2.92368e-05 1.075e-19 0.000273123 6.59542e-20 0.000273587)
(0.000131564 7.55006e-06 9.01278e-22 0.000133168 -1.3022e-21 0.000133443)
(1.60425e-05 1.03793e-07 2.65033e-22 1.60558e-05 7.38508e-23 1.60595e-05)
(3.26773e-06 3.79335e-09 6.25062e-24 3.26779e-06 2.08531e-24 3.26802e-06)
(0 0 -0 0 -0 0)
(1.12689e-05 3.99356e-08 6.168e-25 1.12595e-05 -2.23432e-24 1.12656e-05)
(0.000621417 0.000104824 1.65991e-20 0.00058998 -4.59362e-21 0.000607848)
(0.00387311 0.00154898 -1.15506e-19 0.00335638 -1.7451e-19 0.00362994)
(0.0195038 0.00796546 -8.52375e-18 0.0165139 -4.24238e-19 0.0180283)
(0.0102545 0.0040863 4.77946e-19 0.00840239 2.71997e-20 0.00931571)
(0.0227332 0.00858724 -2.6331e-18 0.0173274 1.01115e-18 0.0199614)
(0.0459485 0.0119913 -2.23329e-16 0.025024 -1.58145e-16 0.0351441)
(0.241888 -0.0987397 -8.17528e-17 0.205293 -2.52918e-16 0.222343)
(1.27631 -0.585314 -5.45816e-15 1.32983 5.37748e-16 1.30008)
(3.15779 -1.4919 7.65183e-16 3.52463 2.51214e-15 3.33848)
(5.00891 -2.40119 -8.62908e-19 5.81193 1.32939e-19 5.40936)
(6.13029 -2.96547 -3.40557e-16 7.29918 4.5466e-15 6.72069)
(6.43498 -3.08695 1.42319e-16 7.49722 1.90414e-16 6.95014)
(6.9735 -3.40304 -1.32601e-14 8.48333 2.7478e-15 7.78465)
(0.000973536 -5.80121e-05 5.35414e-21 0.000780317 3.43906e-21 0.000878724)
(0.00097531 -4.04319e-05 -1.50764e-20 0.000766652 -2.43049e-20 0.00087199)
(0.000967337 -1.88495e-05 -8.3305e-21 0.000749965 1.41411e-20 0.000859572)
(0.000946682 4.45397e-06 4.02294e-20 0.000731343 2.95574e-20 0.000839481)
(0.00091159 2.77153e-05 -1.50188e-20 0.000710726 -7.74476e-20 0.000811486)
(0.000858237 4.83568e-05 -2.68686e-20 0.000685234 1.82146e-20 0.000771741)
(0.000792061 6.39209e-05 6.77991e-20 0.00065693 5.27813e-20 0.00072431)
(0.000720167 7.29093e-05 -2.25349e-20 0.000627162 -6.16e-20 0.000673597)
(0.00064481 7.53683e-05 -5.4274e-20 0.000594103 -2.45389e-20 0.000619559)
(0.000566121 7.16249e-05 -4.03777e-20 0.000553852 1.5777e-20 0.00056018)
(0.00048926 6.33279e-05 4.46252e-20 0.000507054 1.69995e-21 0.000498329)
(0.000418577 5.28453e-05 -2.55187e-20 0.000456727 -2.6081e-20 0.000437811)
(0.000355918 4.20748e-05 -3.26576e-20 0.000405714 2.60663e-20 0.000381004)
(0.000301301 3.21464e-05 3.16218e-20 0.000355968 1.36082e-20 0.0003289)
(0.000254435 2.3674e-05 -4.63583e-20 0.000309186 7.73236e-21 0.000282193)
(0.000214698 1.68127e-05 -1.24484e-20 0.000266582 -3.42231e-20 0.000241183)
(0.000181488 1.14809e-05 1.38283e-20 0.000228975 1.77038e-20 0.00020595)
(0.00015414 7.42546e-06 -5.06679e-20 0.000196725 2.37349e-21 0.000176332)
(0.000131999 4.3497e-06 2.01268e-20 0.00016981 -3.6035e-22 0.000151972)
(0.000114189 1.95078e-06 -7.67114e-20 0.000147611 5.24056e-21 0.000132125)
(0.000100009 -7.19013e-09 -1.0574e-20 0.000129491 2.88362e-21 0.000116103)
(8.86561e-05 -1.71615e-06 6.15e-20 0.000114502 5.69088e-21 0.000103042)
(7.93399e-05 -3.2858e-06 5.89604e-20 0.000101575 -1.34968e-20 9.20063e-05)
(7.07595e-05 -4.65696e-06 -4.91541e-20 8.89178e-05 3.64337e-21 8.15025e-05)
(6.22265e-05 -5.53006e-06 -6.86068e-22 7.58587e-05 4.09977e-22 7.08399e-05)
(5.44195e-05 -5.80717e-06 -4.70964e-20 6.3736e-05 1.43719e-20 6.09831e-05)
(4.83891e-05 -5.7188e-06 -9.30169e-22 5.38811e-05 1.0078e-23 5.32175e-05)
(4.45522e-05 -5.39364e-06 -7.51069e-24 4.66676e-05 -3.93063e-22 4.79298e-05)
(4.35162e-05 -5.06166e-06 -5.48784e-23 4.27137e-05 1.10897e-23 4.57512e-05)
(4.12475e-05 -4.09787e-06 1.61613e-20 3.83497e-05 1.32986e-22 4.23658e-05)
(5.17027e-05 -5.49215e-06 7.68309e-23 4.50056e-05 -1.6905e-22 5.2302e-05)
(1.19173e-05 -3.21142e-07 2.42792e-24 1.14024e-05 -7.24934e-26 1.18993e-05)
(8.48036e-05 -1.23642e-05 -4.40087e-19 6.20415e-05 -3.29706e-20 8.20157e-05)
(0.000439209 -0.000103796 -3.84636e-18 0.000233632 -3.28534e-19 0.000396808)
(0.00111139 -0.000257527 9.40637e-20 0.000562283 9.45942e-21 0.000951603)
(0.00229287 -0.000460142 -4.25481e-17 0.0010704 -6.71096e-19 0.00181874)
(0.000886758 -9.17541e-05 1.97649e-18 0.000353688 -1.47337e-17 0.00065134)
(0.00285289 0.000198723 1.36918e-18 0.00112023 2.70313e-19 0.00195619)
(0.0489129 0.0196709 -5.07423e-16 0.0398811 7.05189e-17 0.0464531)
(0.000790951 -6.10485e-05 5.9727e-21 0.000651772 7.00683e-21 0.000720729)
(0.000783314 -7.1929e-05 -4.50747e-21 0.00066552 -5.07062e-21 0.000723844)
(0.000768901 -8.14914e-05 1.89728e-23 0.000679576 -3.74689e-22 0.000723325)
(0.00075019 -8.81071e-05 -2.57426e-21 0.000693227 2.41349e-21 0.000720632)
(0.000726024 -9.09818e-05 5.75939e-20 0.000703365 6.08168e-20 0.000713403)
(0.000696916 -8.9977e-05 -3.64385e-20 0.000709774 -4.68197e-20 0.000701652)
(0.000664895 -8.51252e-05 -2.75399e-21 0.000711278 1.20703e-20 0.000686029)
(0.000630465 -7.68368e-05 1.24542e-19 0.000706229 1.19922e-19 0.00066585)
(0.000594689 -6.58181e-05 -2.94037e-20 0.000694425 2.12665e-21 0.000641493)
(0.000558813 -5.31308e-05 -1.41005e-19 0.000675843 -9.42891e-20 0.000613673)
(0.000523209 -3.97214e-05 4.37652e-20 0.000650626 3.66996e-20 0.00058259)
(0.000488405 -2.64968e-05 -1.16554e-19 0.00061968 -3.68776e-20 0.000548975)
(0.000454773 -1.42758e-05 -4.28175e-20 0.000584175 -1.5978e-20 0.000513639)
(0.000422366 -3.55491e-06 -7.32586e-20 0.0005453 4.10326e-20 0.00047719)
(0.000391189 5.37021e-06 6.36224e-21 0.000504287 3.52776e-21 0.000440302)
(0.000359922 1.22842e-05 5.33526e-20 0.000460659 1.19813e-20 0.000402131)
(0.000326213 1.76128e-05 7.36204e-20 0.000412303 1.08554e-19 0.000360948)
(0.000291855 2.13301e-05 2.75073e-19 0.000362118 7.60674e-20 0.000319034)
(0.000260099 2.37172e-05 -1.09842e-19 0.000314869 -5.2729e-21 0.000280279)
(0.000232492 2.49708e-05 1.01074e-19 0.000272965 4.45569e-20 0.000246538)
(0.000214103 2.64006e-05 1.57103e-20 0.000242852 -4.58335e-20 0.000223273)
(0.0001866 2.33352e-05 -1.46097e-20 0.000201656 2.65845e-20 0.000190662)
(0.000156947 1.7587e-05 -6.54347e-20 0.000161144 -3.74103e-20 0.000157293)
(4.21428e-05 1.28117e-06 1.64016e-22 4.19698e-05 -1.94042e-22 4.19829e-05)
(7.30199e-06 3.7035e-08 9.22785e-24 7.28541e-06 -1.90772e-24 7.29243e-06)
(3.34274e-06 7.55644e-09 1.03527e-23 3.33771e-06 -3.21529e-24 3.34e-06)
(6.88382e-07 3.16597e-10 -1.50664e-25 6.88142e-07 -5.38426e-26 6.88253e-07)
(0 0 -0 0 -0 0)
(0 0 0 0 0 0)
(0.00149255 0.000505001 -1.4639e-19 0.00116712 -5.92913e-19 0.00132533)
(0.00542447 0.0020447 -5.44481e-18 0.0041502 2.25001e-18 0.0047699)