/*--------------------------------*- C++ -*----------------------------------*\
| =========                 |                                                 |
| \\      /  F ield         | OpenFOAM: The Open Source CFD Toolbox           |
|  \\    /   O peration     | Version:  2206                                  |
|   \\  /    A nd           | Website:  www.openfoam.com                      |
|    \\/     M anipulation  |                                                 |
\*---------------------------------------------------------------------------*/
FoamFile
{
    version     2.0;
    format      ascii;
    arch        "LSB;label=32;scalar=64";
    class       volScalarField;
    location    "30";
    object      nut;
}
// * * * * * * * * * * * * * * * * * * * * * * * * * * * * * * * * * * * * * //

dimensions      [0 2 -1 0 0 0 0];

internalField   nonuniform List<scalar> 
66928
(
1.14547e-06
1.1528e-06
1.13632e-06
1.13648e-06
1.148e-06
1.16034e-06
1.1563e-06
1.1476e-06
1.31688e-06
1.32599e-06
1.40393e-08
1.37123e-08
7.39958e-08
7.05674e-08
3.15966e-08
1.91101e-07
3.05946e-08
1.53679e-07
1.81722e-07
1.37607e-06
5.91645e-07
3.13924e-08
1.54006e-07
1.37811e-06
1.84053e-07
5.91059e-07
1.41085e-08
7.25585e-08
7.28111e-08
1.37661e-08
1.85567e-07
3.08961e-08
1.42311e-08
1.42022e-08
1.39965e-08
1.37383e-08
7.61384e-08
7.31446e-08
1.14543e-06
7.49704e-08
7.1019e-08
1.43209e-08
1.436e-08
1.37958e-08
1.39062e-08
1.16148e-06
7.5412e-08
7.13851e-08
7.766e-08
7.40055e-08
1.40939e-08
1.39725e-07
3.60613e-07
7.463e-08
2.87849e-08
2.86827e-08
3.60609e-07
1.40172e-07
1.37065e-07
3.4788e-07
7.14362e-08
2.76636e-08
2.75764e-08
3.48325e-07
1.37345e-07
3.9298e-08
1.18443e-08
1.15624e-08
1.19759e-08
1.1578e-08
3.80261e-08
3.18443e-08
6.87688e-08
6.92629e-08
1.21225e-08
6.73496e-08
1.16802e-08
1.22384e-07
2.2455e-08
1.9136e-08
6.83844e-08
1.18824e-08
2.27097e-08
1.23049e-07
1.92678e-08
1.41456e-07
3.55715e-07
7.31503e-08
2.85609e-08
3.56325e-07
2.84243e-08
1.41987e-07
1.42981e-07
3.6087e-07
7.36788e-08
2.89569e-08
2.88734e-08
3.60849e-07
1.43413e-07
4.04822e-08
1.20713e-08
1.2135e-08
1.21024e-08
1.21754e-08
4.10899e-08
1.38171e-08
3.07789e-08
6.70972e-08
6.78029e-08
1.15963e-08
1.43683e-08
1.43838e-08
1.38269e-08
1.39053e-08
3.77304e-08
1.18741e-08
1.16427e-08
1.19854e-08
1.17143e-08
3.86165e-08
1.40981e-07
3.62269e-07
2.89605e-08
7.72228e-08
1.40676e-07
2.9065e-08
3.6276e-07
1.38264e-07
3.49807e-07
2.77433e-08
7.52352e-08
1.37806e-07
2.80263e-08
3.51021e-07
3.77713e-08
1.19156e-08
1.17839e-08
3.79581e-08
1.1959e-08
1.16609e-08
1.41354e-07
2.90921e-08
7.80926e-08
3.63409e-07
2.9111e-08
1.41463e-07
3.63652e-07
1.38467e-07
2.80933e-08
7.18372e-08
3.5076e-07
2.8092e-08
1.38968e-07
3.51788e-07
1.43782e-08
1.43779e-08
1.39664e-08
1.3949e-08
3.8041e-08
1.19887e-08
1.17759e-08
3.91485e-08
1.20553e-08
1.1743e-08
1.41411e-07
3.63876e-07
7.64309e-08
2.93152e-08
2.94443e-08
3.64292e-07
1.42045e-07
1.38768e-07
3.51748e-07
7.24123e-08
2.80157e-08
2.82993e-08
3.52367e-07
1.39414e-07
1.41966e-07
2.92066e-08
3.63688e-07
7.88774e-08
1.41499e-07
2.948e-08
3.63955e-07
1.39725e-07
2.81618e-08
3.51519e-07
7.45575e-08
1.38701e-07
2.83941e-08
3.51683e-07
3.84765e-08
1.19295e-08
1.1675e-08
1.20571e-08
1.17336e-08
3.82911e-08
4.31833e-07
1.1497e-06
7.41119e-07
7.38099e-07
7.4737e-07
7.4521e-07
4.27438e-07
4.47441e-07
1.16232e-06
7.42691e-07
7.53981e-07
7.50838e-07
7.64058e-07
4.50948e-07
4.23839e-07
7.47672e-07
7.47328e-07
1.14383e-06
4.27279e-07
7.42512e-07
7.39381e-07
4.18252e-07
1.15402e-06
7.42456e-07
7.40516e-07
7.48824e-07
7.49009e-07
4.29963e-07
1.28524e-06
1.2922e-06
9.13536e-07
6.1237e-07
1.89566e-07
3.77783e-07
6.12656e-07
3.74989e-07
9.12561e-07
8.77085e-07
5.83774e-07
1.80967e-07
3.53349e-07
5.89346e-07
3.51964e-07
8.70321e-07
9.47214e-07
5.99591e-07
5.16151e-07
1.00407e-06
5.18851e-07
1.01436e-06
9.3759e-07
8.87929e-07
5.92241e-07
1.83418e-07
3.56472e-07
3.56172e-07
5.96736e-07
8.80657e-07
9.55665e-07
5.98046e-07
1.00744e-06
5.21294e-07
1.01918e-06
5.42551e-07
9.41523e-07
8.84807e-07
6.02661e-07
1.84818e-07
3.63934e-07
6.04613e-07
3.62737e-07
8.82783e-07
4.32661e-07
1.15769e-06
7.42227e-07
7.39387e-07
4.37218e-07
7.48835e-07
7.48765e-07
4.20164e-07
1.14737e-06
7.51284e-07
7.47469e-07
4.21464e-07
7.42693e-07
7.38906e-07
1.31195e-06
1.14403e-06
1.15837e-06
1.15143e-06
1.32284e-06
1.13921e-06
1.1589e-06
1.14495e-06
1.32425e-06
1.13954e-06
1.1587e-06
1.14277e-06
1.32872e-06
1.1394e-06
1.15959e-06
1.13249e-06
1.32645e-06
1.14493e-06
1.15875e-06
1.1306e-06
1.33015e-06
1.14293e-06
1.1663e-06
1.13892e-06
1.33317e-06
1.1417e-06
1.16186e-06
1.1353e-06
1.32475e-06
1.14538e-06
1.16363e-06
1.13373e-06
1.33661e-06
1.14788e-06
1.15956e-06
1.13477e-06
1.33074e-06
1.14499e-06
1.16038e-06
1.13058e-06
1.3284e-06
1.14329e-06
1.16352e-06
1.12907e-06
1.32156e-06
1.14389e-06
1.15917e-06
1.13327e-06
1.32355e-06
1.14543e-06
1.16478e-06
1.14265e-06
1.32361e-06
1.14738e-06
1.15833e-06
1.13566e-06
1.32782e-06
1.1455e-06
1.15988e-06
1.14428e-06
1.32897e-06
1.14714e-06
1.15756e-06
1.13643e-06
1.32465e-06
1.14445e-06
1.16249e-06
1.12998e-06
1.1493e-06
1.15278e-06
1.14962e-06
1.15547e-06
1.14754e-06
1.14674e-06
1.13661e-06
1.14158e-06
1.13679e-06
1.13713e-06
1.13779e-06
1.1401e-06
1.13714e-06
1.16328e-06
1.14825e-06
1.15855e-06
1.1605e-06
1.15703e-06
1.15139e-06
1.15432e-06
1.14937e-06
1.15034e-06
1.15675e-06
1.16167e-06
1.15754e-06
1.16105e-06
1.14912e-06
1.14081e-06
1.13998e-06
1.13596e-06
1.14439e-06
1.13741e-06
1.13816e-06
1.13727e-06
1.16194e-06
1.15291e-06
1.15814e-06
1.15849e-06
1.1575e-06
1.14636e-06
1.15838e-06
1.15168e-06
1.15774e-06
1.15716e-06
1.15785e-06
1.15557e-06
1.16209e-06
1.13949e-06
1.13577e-06
1.14127e-06
1.13673e-06
1.1398e-06
1.13714e-06
1.14392e-06
1.14064e-06
1.16367e-06
1.15287e-06
1.158e-06
1.16124e-06
1.1578e-06
1.13672e-06
1.15854e-06
1.14468e-06
1.16059e-06
1.15625e-06
1.15796e-06
1.15686e-06
1.15377e-06
1.14032e-06
1.14239e-06
1.14589e-06
1.14216e-06
1.14929e-06
1.14207e-06
1.14486e-06
1.14139e-06
1.16738e-06
1.1533e-06
1.15854e-06
1.15902e-06
1.15632e-06
1.13509e-06
1.1528e-06
1.14083e-06
1.1586e-06
1.15756e-06
1.15615e-06
1.15882e-06
1.15859e-06
1.14025e-06
1.13838e-06
1.14557e-06
1.13894e-06
1.14731e-06
1.13687e-06
1.14468e-06
1.1381e-06
1.15899e-06
1.15136e-06
1.15929e-06
1.16507e-06
1.1599e-06
1.14294e-06
1.14793e-06
1.13608e-06
1.15955e-06
1.15811e-06
1.15537e-06
1.15597e-06
1.14904e-06
1.14481e-06
1.13962e-06
1.14234e-06
1.14178e-06
1.14402e-06
1.13847e-06
1.144e-06
1.13744e-06
1.16058e-06
1.14595e-06
1.15656e-06
1.16528e-06
1.15482e-06
1.14301e-06
1.14494e-06
1.13807e-06
1.1588e-06
1.15779e-06
1.15405e-06
1.15817e-06
1.16123e-06
1.14286e-06
1.1457e-06
1.1455e-06
1.13918e-06
1.14415e-06
1.14158e-06
1.14113e-06
1.13645e-06
1.16134e-06
1.15253e-06
1.15935e-06
1.16144e-06
1.16355e-06
1.1361e-06
1.14687e-06
1.1393e-06
1.15458e-06
1.15819e-06
1.15698e-06
1.16009e-06
1.15158e-06
1.14107e-06
1.13879e-06
1.14491e-06
1.13932e-06
1.13943e-06
1.13634e-06
1.14521e-06
1.14139e-06
1.16448e-06
1.14914e-06
1.15917e-06
1.15865e-06
1.15974e-06
1.14724e-06
1.14085e-06
1.13781e-06
1.15769e-06
1.16059e-06
1.15398e-06
1.15937e-06
1.1576e-06
1.14282e-06
1.13862e-06
1.14438e-06
1.14212e-06
1.14168e-06
1.1433e-06
1.15033e-06
1.13891e-06
1.16744e-06
1.14643e-06
1.1594e-06
1.16002e-06
1.16089e-06
1.14188e-06
1.14973e-06
1.13521e-06
1.15556e-06
1.15983e-06
1.15398e-06
1.15883e-06
1.14795e-06
1.14121e-06
1.13952e-06
1.14159e-06
1.1359e-06
1.14388e-06
1.13749e-06
1.14525e-06
1.13544e-06
1.16492e-06
1.14582e-06
1.16011e-06
1.16373e-06
1.15822e-06
1.13936e-06
1.14092e-06
1.13246e-06
1.15529e-06
1.1597e-06
1.15116e-06
1.1634e-06
1.15891e-06
1.14544e-06
1.13753e-06
1.13912e-06
1.13812e-06
1.1409e-06
1.13998e-06
1.14194e-06
1.14052e-06
1.16506e-06
1.14759e-06
1.15833e-06
1.16298e-06
1.16231e-06
1.13815e-06
1.1414e-06
1.13318e-06
1.14994e-06
1.1667e-06
1.14929e-06
1.16091e-06
1.15674e-06
1.14449e-06
1.13677e-06
1.14405e-06
1.13988e-06
1.13905e-06
1.13568e-06
1.14452e-06
1.13581e-06
1.16139e-06
1.14711e-06
1.1614e-06
1.16016e-06
1.16197e-06
1.14392e-06
1.15615e-06
1.13668e-06
1.14966e-06
1.16374e-06
1.15093e-06
1.15872e-06
1.15107e-06
1.14696e-06
1.14118e-06
1.14252e-06
1.13706e-06
1.13873e-06
1.13989e-06
1.1443e-06
1.13604e-06
1.15552e-06
1.1484e-06
1.16156e-06
1.15888e-06
1.16904e-06
1.14004e-06
1.1427e-06
1.13785e-06
1.15127e-06
1.16078e-06
1.15025e-06
1.16044e-06
1.14848e-06
1.14492e-06
1.13749e-06
1.14269e-06
1.14133e-06
1.14018e-06
1.13714e-06
1.14351e-06
1.13431e-06
1.16378e-06
1.15055e-06
1.16561e-06
1.15884e-06
1.16554e-06
1.14622e-06
1.14599e-06
1.13463e-06
1.14901e-06
1.16162e-06
1.14796e-06
1.15898e-06
1.15829e-06
1.14353e-06
1.13914e-06
1.14397e-06
1.13992e-06
1.13913e-06
1.13793e-06
1.14741e-06
1.13571e-06
1.16121e-06
1.15223e-06
1.16144e-06
1.15834e-06
1.15837e-06
1.14126e-06
1.13854e-06
1.136e-06
1.14838e-06
1.1606e-06
1.15369e-06
1.1563e-06
1.15118e-06
1.14619e-06
1.14441e-06
1.13863e-06
1.13996e-06
1.14209e-06
1.13453e-06
1.14513e-06
1.13726e-06
1.15646e-06
1.15656e-06
1.16048e-06
1.1611e-06
1.15742e-06
1.13917e-06
1.14499e-06
1.15118e-06
1.15971e-06
1.1596e-06
1.14305e-06
1.14468e-06
1.13338e-06
1.14226e-06
1.16322e-06
1.15926e-06
1.15515e-06
1.13909e-06
1.69578e-07
3.21253e-08
1.67349e-07
3.19919e-08
1.43136e-08
1.43741e-08
1.54718e-07
3.08975e-08
1.53872e-07
3.05399e-08
1.33286e-06
1.32216e-06
1.33856e-06
1.31687e-06
1.32533e-06
1.33722e-06
1.33743e-06
6.002e-07
1.83404e-07
1.37792e-06
1.14001e-06
1.84507e-07
1.37681e-06
5.97274e-07
1.43222e-08
1.42018e-08
6.14443e-07
1.39759e-06
1.85121e-07
1.1586e-06
1.39664e-06
1.86936e-07
6.09379e-07
6.91448e-08
7.16669e-08
1.14911e-06
6.95066e-08
7.14198e-08
1.69479e-07
3.19112e-08
1.6884e-07
3.18908e-08
1.43924e-08
1.44006e-08
1.55208e-07
3.0455e-08
1.54607e-07
3.06061e-08
1.31573e-06
1.32283e-06
1.33547e-06
1.31668e-06
1.32543e-06
1.33656e-06
1.33403e-06
5.87206e-07
1.83662e-07
1.37952e-06
1.13994e-06
5.92379e-07
1.84304e-07
1.38133e-06
1.4241e-08
1.42664e-08
6.18468e-07
1.39842e-06
1.87699e-07
1.15815e-06
6.17947e-07
1.39621e-06
1.89241e-07
6.87139e-08
7.07124e-08
1.14149e-06
6.87293e-08
7.06922e-08
1.68491e-07
3.19146e-08
1.68347e-07
3.19776e-08
1.43963e-08
1.44225e-08
1.54633e-07
3.03449e-08
1.53961e-07
3.03726e-08
1.31595e-06
1.33308e-06
1.32736e-06
1.32505e-06
1.32979e-06
1.3308e-06
1.33054e-06
5.80849e-07
1.82796e-07
1.37625e-06
1.13898e-06
5.81609e-07
1.8316e-07
1.37694e-06
1.41796e-08
1.41902e-08
6.14743e-07
1.39913e-06
1.88736e-07
1.16143e-06
6.16596e-07
1.39985e-06
1.89286e-07
6.80075e-08
7.00218e-08
1.13937e-06
6.81242e-08
7.04427e-08
1.66659e-07
3.15675e-08
1.66736e-07
3.14277e-08
1.44251e-08
1.44008e-08
1.55515e-07
3.03809e-08
1.54525e-07
3.04271e-08
1.32599e-06
1.32813e-06
1.322e-06
1.32512e-06
1.33558e-06
1.33291e-06
1.32707e-06
5.85374e-07
1.82636e-07
1.37917e-06
1.1397e-06
5.81644e-07
1.82871e-07
1.37999e-06
1.41217e-08
1.40854e-08
6.10402e-07
1.40269e-06
1.87604e-07
1.15984e-06
6.10635e-07
1.40093e-06
1.88165e-07
6.78949e-08
6.96387e-08
1.13284e-06
6.79987e-08
7.01846e-08
1.65884e-07
3.12368e-08
1.65882e-07
3.12127e-08
1.43371e-08
1.4326e-08
1.55736e-07
3.01487e-08
1.55019e-07
3.01874e-08
1.31929e-06
1.32798e-06
1.32337e-06
1.32182e-06
1.33315e-06
1.33497e-06
1.33275e-06
5.86551e-07
1.81068e-07
1.38314e-06
1.1452e-06
5.85257e-07
1.81576e-07
1.38316e-06
1.40363e-08
1.39264e-08
6.07773e-07
1.40081e-06
1.87516e-07
1.16065e-06
6.05774e-07
1.40191e-06
1.88523e-07
6.81644e-08
6.98393e-08
1.14221e-06
6.86044e-08
7.01217e-08
1.66346e-07
3.09547e-08
1.65702e-07
3.0913e-08
1.42583e-08
1.41339e-08
1.55777e-07
3.0112e-08
1.54918e-07
3.02443e-08
1.33532e-06
1.32782e-06
1.33388e-06
1.31791e-06
1.34212e-06
1.32653e-06
1.33868e-06
5.90016e-07
1.80681e-07
1.38831e-06
1.14192e-06
5.89516e-07
1.81402e-07
1.38422e-06
1.38301e-08
1.37731e-08
6.0896e-07
1.40176e-06
1.87627e-07
1.16089e-06
6.056e-07
1.40157e-06
1.8878e-07
6.84746e-08
6.95213e-08
1.13566e-06
6.88512e-08
6.98562e-08
1.66002e-07
3.06773e-08
1.64946e-07
3.06296e-08
1.41018e-08
1.4105e-08
1.55489e-07
3.03324e-08
1.54611e-07
3.02354e-08
1.33714e-06
1.31975e-06
1.32223e-06
1.32982e-06
1.34112e-06
1.33054e-06
1.33298e-06
5.87432e-07
1.81654e-07
1.38083e-06
1.1412e-06
5.87943e-07
1.82653e-07
1.38592e-06
1.36763e-08
1.37203e-08
6.08598e-07
1.40466e-06
1.8758e-07
1.16039e-06
6.04709e-07
1.40635e-06
1.88073e-07
6.84033e-08
6.95855e-08
1.14182e-06
6.92192e-08
6.99389e-08
1.65614e-07
3.05626e-08
1.64677e-07
3.06321e-08
1.41094e-08
1.40946e-08
1.53866e-07
3.00177e-08
1.53886e-07
3.00915e-08
1.34147e-06
1.33182e-06
1.32889e-06
1.32987e-06
1.34202e-06
1.33761e-06
1.33322e-06
5.85975e-07
1.82178e-07
1.38303e-06
1.14595e-06
5.88223e-07
1.8311e-07
1.38899e-06
1.36366e-08
1.36215e-08
6.11785e-07
1.40325e-06
1.86613e-07
1.1628e-06
6.08573e-07
1.40533e-06
1.87136e-07
6.97786e-08
6.95592e-08
1.13941e-06
6.94309e-08
7.01138e-08
1.66046e-07
3.04597e-08
1.65461e-07
3.06944e-08
1.40706e-08
1.41111e-08
1.54075e-07
2.9909e-08
1.53259e-07
2.98684e-08
1.33533e-06
1.34449e-06
1.32786e-06
1.32651e-06
1.34393e-06
1.33809e-06
1.33901e-06
5.8749e-07
1.82365e-07
1.3887e-06
1.15223e-06
5.83904e-07
1.82668e-07
1.38388e-06
1.35494e-08
1.35105e-08
6.10781e-07
1.40064e-06
1.86142e-07
1.16451e-06
6.12161e-07
1.40937e-06
1.87199e-07
6.85749e-08
6.9694e-08
1.13836e-06
6.86e-08
6.9877e-08
1.66458e-07
3.05727e-08
1.65757e-07
3.06211e-08
1.40584e-08
1.40858e-08
1.53757e-07
3.00264e-08
1.52948e-07
2.99417e-08
1.32701e-06
1.33224e-06
1.341e-06
1.3262e-06
1.3393e-06
1.33948e-06
1.33757e-06
5.87701e-07
1.81422e-07
1.38443e-06
1.14524e-06
5.84907e-07
1.81746e-07
1.38502e-06
1.3513e-08
1.3573e-08
6.11373e-07
1.41255e-06
1.86189e-07
1.15961e-06
6.08574e-07
1.40772e-06
1.87365e-07
6.79989e-08
6.89767e-08
1.1344e-06
6.79022e-08
6.95828e-08
1.65825e-07
3.06278e-08
1.64815e-07
3.06907e-08
1.39954e-08
1.40573e-08
1.53485e-07
2.98979e-08
1.52919e-07
2.99789e-08
1.33301e-06
1.33567e-06
1.32965e-06
1.32025e-06
1.35106e-06
1.33411e-06
1.33375e-06
5.89106e-07
1.81067e-07
1.38298e-06
1.1425e-06
5.8459e-07
1.82257e-07
1.38832e-06
1.36877e-08
1.3752e-08
6.16087e-07
1.40761e-06
1.86231e-07
1.16426e-06
6.16341e-07
1.4124e-06
1.87032e-07
6.84029e-08
6.91791e-08
1.13818e-06
6.82853e-08
6.93053e-08
1.65294e-07
3.04611e-08
1.64981e-07
3.06938e-08
1.40901e-08
1.41521e-08
1.54501e-07
2.99186e-08
1.53294e-07
3.00869e-08
1.35093e-06
1.33059e-06
1.33e-06
1.31997e-06
1.34965e-06
1.33497e-06
1.33954e-06
5.8818e-07
1.81543e-07
1.38298e-06
1.14857e-06
5.87319e-07
1.82389e-07
1.3864e-06
1.38688e-08
1.39004e-08
6.15371e-07
1.40784e-06
1.85556e-07
1.15892e-06
6.14375e-07
1.40609e-06
1.86595e-07
6.8432e-08
6.89707e-08
1.14339e-06
6.84571e-08
6.90859e-08
1.64366e-07
3.02069e-08
1.63419e-07
3.03219e-08
1.41865e-08
1.41759e-08
1.55694e-07
3.00019e-08
1.54373e-07
2.99382e-08
1.35004e-06
1.32936e-06
1.33789e-06
1.32008e-06
1.33853e-06
1.32957e-06
1.33614e-06
5.84071e-07
1.81316e-07
1.38246e-06
1.14686e-06
5.82622e-07
1.82333e-07
1.38217e-06
1.38055e-08
1.38068e-08
6.15111e-07
1.40839e-06
1.86673e-07
1.1609e-06
6.1869e-07
1.40978e-06
1.87289e-07
6.91622e-08
6.90626e-08
1.1382e-06
6.91857e-08
6.94428e-08
1.63778e-07
3.02662e-08
1.62661e-07
3.02976e-08
1.40373e-08
1.3983e-08
1.56794e-07
2.97305e-08
1.55769e-07
2.98912e-08
1.33711e-06
1.32642e-06
1.33272e-06
1.32746e-06
1.33696e-06
1.33284e-06
1.33533e-06
5.85943e-07
1.81386e-07
1.38173e-06
1.14378e-06
5.85373e-07
1.824e-07
1.38196e-06
1.37618e-08
1.37511e-08
6.09189e-07
1.40495e-06
1.86798e-07
1.1587e-06
6.09833e-07
1.40614e-06
1.87568e-07
6.82738e-08
6.90884e-08
1.13741e-06
6.88674e-08
6.96996e-08
1.64577e-07
3.03888e-08
1.63423e-07
3.0745e-08
1.38422e-08
1.38563e-08
1.56077e-07
2.96433e-08
1.55925e-07
2.99012e-08
1.33836e-06
1.32755e-06
1.3259e-06
1.32026e-06
1.33819e-06
1.33137e-06
1.33838e-06
5.86118e-07
1.81427e-07
1.38857e-06
1.15032e-06
5.82839e-07
1.82136e-07
1.38621e-06
1.37004e-08
1.37019e-08
6.07768e-07
1.40384e-06
1.85791e-07
1.15919e-06
6.06722e-07
1.40414e-06
1.8668e-07
6.84688e-08
6.92648e-08
1.14004e-06
6.85699e-08
6.97103e-08
1.6647e-07
3.07922e-08
1.65091e-07
3.0955e-08
1.38072e-08
1.38236e-08
1.56272e-07
3.00324e-08
1.55436e-07
2.9977e-08
1.33226e-06
1.32199e-06
1.3256e-06
1.32297e-06
1.33689e-06
1.34334e-06
1.32678e-06
5.89838e-07
1.81013e-07
1.38838e-06
1.15088e-06
5.87903e-07
1.81675e-07
1.38381e-06
1.37128e-08
1.37297e-08
6.07925e-07
1.40331e-06
1.86162e-07
1.15774e-06
6.05576e-07
1.40348e-06
1.87e-07
6.80091e-08
6.87985e-08
1.14023e-06
6.82017e-08
6.92282e-08
1.66157e-07
3.08987e-08
1.65882e-07
3.11417e-08
1.38141e-08
1.38393e-08
1.55959e-07
3.00036e-08
1.55484e-07
2.99751e-08
1.33416e-06
1.32568e-06
1.32371e-06
1.32624e-06
5.92938e-07
1.81672e-07
1.38382e-06
1.14319e-06
5.92174e-07
1.82788e-07
1.38299e-06
1.37357e-08
1.37743e-08
6.03365e-07
1.40278e-06
1.85899e-07
1.15787e-06
5.99921e-07
1.40333e-06
1.8652e-07
6.76866e-08
6.91026e-08
1.13763e-06
6.82263e-08
6.95257e-08
1.70718e-07
3.22263e-08
3.25674e-08
1.68947e-07
6.35232e-07
1.91304e-07
1.39622e-06
1.14871e-06
1.3983e-06
6.33283e-07
1.93108e-07
6.41096e-07
1.93514e-07
1.40476e-06
1.15839e-06
1.95001e-07
1.40062e-06
6.4511e-07
1.68765e-07
3.26506e-08
1.69777e-07
3.24276e-08
1.7014e-07
3.28207e-08
3.30591e-08
1.69826e-07
6.41714e-07
1.14911e-06
1.93219e-07
1.39462e-06
1.39993e-06
6.31966e-07
1.92195e-07
6.63776e-07
1.1571e-06
1.95098e-07
1.40074e-06
1.94118e-07
1.39999e-06
6.42747e-07
7.42581e-08
7.17308e-08
1.14794e-06
7.41144e-08
7.19528e-08
1.39328e-08
1.39471e-08
1.44519e-08
1.46263e-08
1.16125e-06
7.47125e-08
7.21788e-08
7.72694e-08
7.49795e-08
1.38869e-08
1.40607e-08
5.9106e-07
1.81625e-07
1.37294e-06
1.14125e-06
1.37611e-06
6.02186e-07
1.83015e-07
1.54784e-07
3.14658e-08
3.16228e-08
1.5407e-07
5.8678e-07
1.38216e-06
1.83862e-07
1.1392e-06
1.38422e-06
1.85919e-07
6.00103e-07
1.54575e-07
3.06861e-08
1.55704e-07
3.12078e-08
6.06931e-07
1.13859e-06
1.83385e-07
1.3793e-06
1.3758e-06
5.88746e-07
1.82735e-07
1.54634e-07
3.16476e-08
3.21974e-08
1.55695e-07
5.9493e-07
1.14233e-06
1.37801e-06
1.87144e-07
1.37989e-06
1.85891e-07
5.8841e-07
1.59042e-07
3.09466e-08
3.0819e-08
1.58106e-07
6.01256e-07
1.38242e-06
1.81469e-07
1.13829e-06
1.38044e-06
1.82294e-07
6.02285e-07
1.59066e-07
3.02985e-08
3.02351e-08
1.58219e-07
6.16275e-07
1.1399e-06
1.84681e-07
1.3778e-06
1.83988e-07
1.37958e-06
6.04429e-07
1.58298e-07
3.08358e-08
3.1477e-08
1.59353e-07
6.16461e-07
1.13834e-06
1.38549e-06
1.82056e-07
1.38245e-06
1.81406e-07
5.99009e-07
1.59047e-07
3.03194e-08
3.05461e-08
1.59458e-07
7.57319e-08
7.44946e-08
1.15434e-06
7.389e-08
7.33803e-08
1.40452e-08
1.38999e-08
1.42876e-08
1.43855e-08
1.16407e-06
7.38054e-08
7.36459e-08
7.55401e-08
7.53366e-08
1.40028e-08
1.41005e-08
6.19547e-07
1.39992e-06
1.86668e-07
1.16248e-06
1.40308e-06
1.87731e-07
6.15499e-07
1.62818e-07
3.10888e-08
3.11113e-08
1.61282e-07
1.63823e-07
3.14536e-08
3.13357e-08
1.62368e-07
6.25601e-07
1.15807e-06
1.39474e-06
1.88334e-07
1.3996e-06
1.86429e-07
6.19732e-07
6.32481e-07
1.16011e-06
1.39836e-06
1.88533e-07
1.40588e-06
1.87212e-07
6.19388e-07
1.62826e-07
3.11235e-08
3.15335e-08
1.64059e-07
1.63809e-07
3.1413e-08
3.17979e-08
1.64594e-07
1.35893e-08
1.35509e-08
1.38305e-08
1.38443e-08
1.16745e-06
6.92266e-08
7.13574e-08
7.01834e-08
7.40682e-08
1.34911e-08
1.3634e-08
1.38913e-08
1.40462e-08
1.44998e-08
1.43872e-08
1.38946e-08
1.37757e-08
7.81192e-08
7.36982e-08
1.14847e-06
7.54752e-08
7.10919e-08
1.4429e-08
1.46484e-08
1.37631e-08
1.40091e-08
1.15974e-06
7.55183e-08
7.03675e-08
7.7289e-08
7.27317e-08
1.69825e-07
3.32626e-08
1.69873e-07
3.27666e-08
6.28492e-07
1.92488e-07
1.39561e-06
1.15713e-06
6.57442e-07
1.93328e-07
1.39603e-06
6.32166e-07
1.94295e-07
1.40409e-06
1.15601e-06
6.40133e-07
1.944e-07
1.39971e-06
1.68733e-07
3.26543e-08
3.25271e-08
1.69566e-07
1.69681e-07
3.27036e-08
3.32118e-08
1.70026e-07
6.34051e-07
1.15671e-06
1.93554e-07
1.39673e-06
1.92578e-07
1.40048e-06
6.27658e-07
6.42209e-07
1.1595e-06
1.94191e-07
1.40042e-06
1.93293e-07
1.40014e-06
6.30157e-07
7.67287e-08
7.39812e-08
1.14738e-06
7.45279e-08
7.24145e-08
1.39937e-08
1.38918e-08
1.44338e-08
1.46557e-08
1.16035e-06
7.47662e-08
7.14334e-08
7.87971e-08
7.48631e-08
1.38369e-08
1.39922e-08
5.84062e-07
1.82766e-07
1.3751e-06
1.13783e-06
5.97688e-07
1.83501e-07
1.37947e-06
1.56388e-07
3.22263e-08
1.55539e-07
3.15927e-08
5.90092e-07
1.37863e-06
1.86619e-07
1.13822e-06
6.01274e-07
1.37871e-06
1.87829e-07
1.55035e-07
3.09789e-08
3.08954e-08
1.55331e-07
6.01082e-07
1.14078e-06
1.83381e-07
1.37428e-06
1.82808e-07
1.37586e-06
5.81349e-07
1.56061e-07
3.14286e-08
3.21468e-08
1.56014e-07
6.12884e-07
1.14088e-06
1.3799e-06
1.87773e-07
1.37754e-06
1.87306e-07
5.94983e-07
1.58789e-07
3.11362e-08
1.59044e-07
3.05559e-08
5.96763e-07
1.38644e-06
1.81692e-07
1.1387e-06
6.18587e-07
1.38832e-06
1.82416e-07
1.59413e-07
3.10064e-08
1.59402e-07
3.02611e-08
5.97675e-07
1.14248e-06
1.84023e-07
1.37664e-06
1.8334e-07
1.37647e-06
5.84218e-07
1.57773e-07
3.05106e-08
3.10099e-08
1.5743e-07
6.1266e-07
1.13794e-06
1.38348e-06
1.82068e-07
1.38291e-06
1.81502e-07
5.88411e-07
1.58467e-07
3.0309e-08
3.09621e-08
1.58349e-07
7.50973e-08
7.60499e-08
1.14875e-06
7.37596e-08
7.37571e-08
1.42614e-08
1.40386e-08
1.4257e-08
1.45131e-08
1.16681e-06
7.29861e-08
7.33227e-08
7.50754e-08
7.54792e-08
1.40121e-08
1.41287e-08
6.2185e-07
1.40007e-06
1.87809e-07
1.15773e-06
6.47688e-07
1.39918e-06
1.89049e-07
1.64914e-07
3.16369e-08
1.6427e-07
3.12399e-08
1.65232e-07
3.18819e-08
1.64517e-07
3.14358e-08
6.46194e-07
1.15833e-06
1.40139e-06
1.89901e-07
1.39521e-06
1.88463e-07
6.20921e-07
6.45883e-07
1.15774e-06
1.39952e-06
1.89008e-07
1.39981e-06
1.88198e-07
6.14848e-07
1.64819e-07
3.13854e-08
3.17891e-08
1.65923e-07
1.64454e-07
3.13627e-08
3.18745e-08
1.65885e-07
1.37452e-08
1.36338e-08
1.40807e-08
1.38312e-08
1.15204e-06
6.88723e-08
7.0689e-08
7.06438e-08
7.15949e-08
1.36034e-08
1.35305e-08
1.38283e-08
1.40012e-08
1.45257e-08
1.44092e-08
1.393e-08
1.36538e-08
7.95536e-08
7.15372e-08
1.14576e-06
7.49325e-08
6.99329e-08
1.44066e-08
1.45382e-08
1.37214e-08
1.39222e-08
1.15971e-06
7.5094e-08
7.01416e-08
7.61509e-08
7.41844e-08
1.69429e-07
3.31519e-08
1.69247e-07
3.25263e-08
6.26494e-07
1.92742e-07
1.40133e-06
1.15851e-06
6.37437e-07
1.9385e-07
1.40304e-06
6.22928e-07
1.93423e-07
1.40592e-06
1.16166e-06
6.49419e-07
1.94452e-07
1.40224e-06
1.67456e-07
3.23303e-08
3.23961e-08
1.67577e-07
1.68208e-07
3.25742e-08
3.30264e-08
1.68012e-07
6.44337e-07
1.15923e-06
1.93149e-07
1.39785e-06
1.92831e-07
1.3992e-06
6.24042e-07
6.31921e-07
1.15789e-06
1.94425e-07
1.40159e-06
1.93803e-07
1.40187e-06
6.23234e-07
7.64838e-08
7.55139e-08
1.14457e-06
7.43442e-08
7.09424e-08
1.4025e-08
1.38142e-08
1.45904e-08
1.45479e-08
1.15277e-06
7.47564e-08
7.06005e-08
7.68758e-08
7.47799e-08
1.38127e-08
1.40728e-08
5.84526e-07
1.82486e-07
1.37447e-06
1.13576e-06
6.00468e-07
1.83098e-07
1.37356e-06
1.55501e-07
3.20254e-08
1.55261e-07
3.14203e-08
5.83117e-07
1.37859e-06
1.8686e-07
1.14011e-06
5.85295e-07
1.37808e-06
1.87267e-07
1.54513e-07
3.06651e-08
3.10535e-08
1.55543e-07
6.00728e-07
1.13689e-06
1.83135e-07
1.37416e-06
1.82097e-07
1.3731e-06
5.88799e-07
1.55218e-07
3.14112e-08
3.2014e-08
1.55468e-07
5.98469e-07
1.141e-06
1.37957e-06
1.86853e-07
1.37949e-06
1.86201e-07
5.77741e-07
1.567e-07
3.11342e-08
1.56586e-07
3.04574e-08
5.87172e-07
1.38287e-06
1.81151e-07
1.1408e-06
6.05091e-07
1.38429e-06
1.81945e-07
1.57655e-07
3.0932e-08
1.58104e-07
3.01965e-08
5.9934e-07
1.14191e-06
1.83643e-07
1.37782e-06
1.82527e-07
1.38191e-06
5.83259e-07
1.55727e-07
3.06056e-08
3.11279e-08
1.56095e-07
6.04209e-07
1.13961e-06
1.38491e-06
1.81818e-07
1.38898e-06
1.81018e-07
5.86676e-07
1.56738e-07
3.00331e-08
3.07183e-08
1.57278e-07
7.55404e-08
7.45912e-08
1.15222e-06
7.32753e-08
7.27807e-08
1.41483e-08
1.39719e-08
1.41804e-08
1.43102e-08
1.16621e-06
7.31448e-08
7.22938e-08
7.58125e-08
7.71652e-08
1.39068e-08
1.41523e-08
6.12167e-07
1.39965e-06
1.88233e-07
1.15763e-06
6.33897e-07
1.39794e-06
1.88441e-07
1.66811e-07
3.18793e-08
1.65701e-07
3.11002e-08
1.66017e-07
3.18673e-08
1.6527e-07
3.13281e-08
6.20326e-07
1.16535e-06
1.40026e-06
1.88674e-07
1.40078e-06
1.88469e-07
6.1389e-07
6.26054e-07
1.15824e-06
1.39781e-06
1.8771e-07
1.398e-06
1.87417e-07
6.08215e-07
1.65843e-07
3.09616e-08
3.1632e-08
1.66942e-07
1.65767e-07
3.12208e-08
3.18382e-08
1.66025e-07
1.34765e-08
1.34103e-08
1.39291e-08
1.37801e-08
1.15658e-06
6.85072e-08
7.00949e-08
6.92679e-08
7.3725e-08
1.34404e-08
1.36288e-08
1.37681e-08
1.38511e-08
1.44509e-08
1.42273e-08
1.39223e-08
1.39014e-08
7.5871e-08
7.40877e-08
1.1448e-06
7.41387e-08
7.0017e-08
1.41811e-08
1.43204e-08
1.37176e-08
1.38316e-08
1.15751e-06
7.37953e-08
7.0203e-08
7.66564e-08
7.15953e-08
1.67754e-07
3.30103e-08
1.67834e-07
3.26039e-08
6.19793e-07
1.92145e-07
1.39869e-06
1.16022e-06
6.44108e-07
1.91384e-07
1.40171e-06
6.26721e-07
1.93423e-07
1.40054e-06
1.15576e-06
6.34625e-07
1.94392e-07
1.40136e-06
1.66193e-07
3.14578e-08
3.21105e-08
1.66749e-07
1.66895e-07
3.245e-08
3.31028e-08
1.66995e-07
6.28526e-07
1.15889e-06
1.90656e-07
1.39788e-06
1.90369e-07
1.39675e-06
6.16881e-07
6.33326e-07
1.15589e-06
1.93511e-07
1.40159e-06
1.9355e-07
1.4045e-06
6.32927e-07
7.71626e-08
7.24171e-08
1.14093e-06
7.44125e-08
7.06223e-08
1.40292e-08
1.37401e-08
1.44216e-08
1.46503e-08
1.15456e-06
7.38213e-08
7.03951e-08
7.81449e-08
7.31685e-08
1.36277e-08
1.3867e-08
5.80609e-07
1.82284e-07
1.37485e-06
1.1399e-06
5.83336e-07
1.82727e-07
1.38005e-06
1.56411e-07
3.1956e-08
1.55251e-07
3.12983e-08
5.843e-07
1.38116e-06
1.85801e-07
1.14391e-06
6.00491e-07
1.38236e-06
1.86474e-07
1.5551e-07
3.08219e-08
3.06991e-08
1.56272e-07
6.08818e-07
1.13929e-06
1.82504e-07
1.37593e-06
1.81833e-07
1.37625e-06
5.8057e-07
1.55749e-07
3.11222e-08
3.17295e-08
1.56969e-07
5.96645e-07
1.14449e-06
1.38181e-06
1.85887e-07
1.38324e-06
1.85392e-07
5.80219e-07
1.56535e-07
3.12214e-08
1.55891e-07
3.03799e-08
5.89111e-07
1.38356e-06
1.80831e-07
1.13726e-06
6.07041e-07
1.38463e-06
1.81669e-07
1.56672e-07
3.04845e-08
1.56575e-07
3.0006e-08
6.13772e-07
1.14087e-06
1.82379e-07
1.38785e-06
1.8177e-07
1.38275e-06
5.8824e-07
1.56247e-07
3.02655e-08
3.08259e-08
1.56792e-07
6.05524e-07
1.13779e-06
1.38358e-06
1.81084e-07
1.38785e-06
1.80658e-07
5.86695e-07
1.55803e-07
3.01139e-08
3.06587e-08
1.56284e-07
7.56046e-08
7.37311e-08
1.15611e-06
7.23418e-08
7.30363e-08
1.41601e-08
1.39214e-08
1.41367e-08
1.42333e-08
1.16881e-06
7.19138e-08
7.34655e-08
7.67509e-08
7.45061e-08
1.39708e-08
1.4021e-08
6.0797e-07
1.39765e-06
1.86568e-07
1.1603e-06
6.33795e-07
1.39732e-06
1.86762e-07
1.66924e-07
3.1429e-08
1.66408e-07
3.08681e-08
1.66205e-07
3.17787e-08
1.65793e-07
3.09568e-08
6.33216e-07
1.15951e-06
1.40546e-06
1.88497e-07
1.40428e-06
1.87417e-07
6.07991e-07
6.31237e-07
1.1588e-06
1.39846e-06
1.86606e-07
1.39612e-06
1.85911e-07
6.106e-07
1.66352e-07
3.09171e-08
3.13543e-08
1.65919e-07
1.65715e-07
3.09145e-08
3.15392e-08
1.65577e-07
1.35808e-08
1.33836e-08
1.39961e-08
1.37924e-08
1.14548e-06
7.02498e-08
7.04911e-08
7.01253e-08
7.11771e-08
1.35809e-08
1.36037e-08
1.37103e-08
1.37984e-08
1.41902e-08
1.40283e-08
1.38491e-08
1.36944e-08
7.55583e-08
7.25908e-08
1.14121e-06
7.31306e-08
7.01583e-08
1.39521e-08
1.42489e-08
1.36621e-08
1.38183e-08
1.15267e-06
7.2101e-08
6.98249e-08
7.69638e-08
7.16853e-08
1.6757e-07
3.29224e-08
1.66881e-07
3.22588e-08
6.19305e-07
1.89805e-07
1.40473e-06
1.16211e-06
6.3765e-07
1.90364e-07
1.40174e-06
6.18473e-07
1.925e-07
1.40548e-06
1.16415e-06
6.23836e-07
1.9311e-07
1.4048e-06
1.65764e-07
3.13672e-08
3.18428e-08
1.66908e-07
1.66885e-07
3.21353e-08
3.2644e-08
1.67518e-07
6.33416e-07
1.15701e-06
1.8887e-07
1.3999e-06
1.89386e-07
1.40077e-06
6.20124e-07
6.32724e-07
1.16104e-06
1.92488e-07
1.40512e-06
1.92081e-07
1.40226e-06
6.21529e-07
7.71243e-08
7.22124e-08
1.13638e-06
7.33737e-08
6.96495e-08
1.37842e-08
1.35218e-08
1.44159e-08
1.4418e-08
1.14323e-06
7.35384e-08
6.88538e-08
7.61122e-08
7.26875e-08
1.35283e-08
1.37608e-08
5.81996e-07
1.81479e-07
1.3773e-06
1.1397e-06
5.90009e-07
1.82363e-07
1.38082e-06
1.56164e-07
3.15252e-08
1.55979e-07
3.09109e-08
5.80874e-07
1.3835e-06
1.84998e-07
1.14415e-06
5.87314e-07
1.3825e-06
1.8493e-07
1.54853e-07
3.03227e-08
3.0946e-08
1.55604e-07
5.89743e-07
1.144e-06
1.82276e-07
1.37808e-06
1.81427e-07
1.37653e-06
5.81121e-07
1.55912e-07
3.09035e-08
3.14708e-08
1.56877e-07
5.86745e-07
1.14498e-06
1.38142e-06
1.84285e-07
1.38115e-06
1.83946e-07
5.82838e-07
1.56743e-07
3.08382e-08
1.55859e-07
3.01739e-08
5.88783e-07
1.38313e-06
1.80356e-07
1.1395e-06
6.03305e-07
1.38307e-06
1.81485e-07
1.56578e-07
3.07304e-08
1.55673e-07
3.0166e-08
6.13802e-07
1.14154e-06
1.81677e-07
1.38316e-06
1.807e-07
1.3823e-06
5.92128e-07
1.56458e-07
3.04476e-08
3.08305e-08
1.57381e-07
6.12743e-07
1.13839e-06
1.38497e-06
1.81675e-07
1.38483e-06
1.80556e-07
5.92685e-07
1.56178e-07
2.99831e-08
3.07588e-08
1.57883e-07
7.27333e-08
7.48646e-08
1.15858e-06
7.14303e-08
7.2878e-08
1.41839e-08
1.39318e-08
1.39033e-08
1.40317e-08
1.16366e-06
7.09111e-08
7.28752e-08
7.29918e-08
7.72677e-08
1.39451e-08
1.40091e-08
6.13011e-07
1.40046e-06
1.8588e-07
1.15948e-06
6.3184e-07
1.40026e-06
1.8681e-07
1.65342e-07
3.12787e-08
1.65382e-07
3.068e-08
1.64869e-07
3.14533e-08
1.64494e-07
3.07666e-08
6.16678e-07
1.16493e-06
1.40072e-06
1.8867e-07
1.40518e-06
1.87428e-07
6.08101e-07
6.28436e-07
1.15855e-06
1.40561e-06
1.87142e-07
1.40714e-06
1.86102e-07
6.10208e-07
1.64188e-07
3.11276e-08
3.11848e-08
1.64689e-07
1.63925e-07
3.09589e-08
3.1177e-08
1.64778e-07
1.3488e-08
1.3455e-08
1.38564e-08
1.35886e-08
1.15192e-06
6.90937e-08
7.0212e-08
7.074e-08
7.11932e-08
1.34411e-08
1.35294e-08
1.37083e-08
1.38819e-08
1.40871e-08
1.38675e-08
1.38103e-08
1.37452e-08
7.3661e-08
7.16798e-08
1.13757e-06
7.17387e-08
7.06633e-08
1.37818e-08
1.39483e-08
1.38841e-08
1.39685e-08
1.1483e-06
7.15124e-08
7.05272e-08
7.41067e-08
7.16234e-08
1.67878e-07
3.2706e-08
1.66542e-07
3.19658e-08
6.19871e-07
1.87775e-07
1.40035e-06
1.15448e-06
6.30765e-07
1.88558e-07
1.40528e-06
6.23821e-07
1.91425e-07
1.40595e-06
1.15727e-06
6.357e-07
1.92119e-07
1.40395e-06
1.65285e-07
3.14553e-08
3.14797e-08
1.66391e-07