/*--------------------------------*- C++ -*----------------------------------*\
| =========                 |                                                 |
| \\      /  F ield         | OpenFOAM: The Open Source CFD Toolbox           |
|  \\    /   O peration     | Version:  2206                                  |
|   \\  /    A nd           | Website:  www.openfoam.com                      |
|    \\/     M anipulation  |                                                 |
\*---------------------------------------------------------------------------*/
FoamFile
{
    version     2.0;
    format      ascii;
    arch        "LSB;label=32;scalar=64";
    class       volVectorField;
    location    "30";
    object      U;
}
// * * * * * * * * * * * * * * * * * * * * * * * * * * * * * * * * * * * * * //

dimensions      [0 1 -1 0 0 0 0];

internalField   nonuniform List<vector> 
66928
(
(-0.000217694 -0.000218258 0.119655)
(1.78054e-06 5.32159e-06 0.122981)
(-1.09577e-06 3.12685e-07 0.12292)
(8.59374e-07 -7.38493e-08 0.12292)
(-0.000215009 0.000219601 0.119647)
(1.66103e-06 -1.69108e-06 0.122956)
(0.000209925 0.000213682 0.119673)
(-0.000215961 -0.000221633 0.119653)
(-7.16931e-07 1.48519e-06 0.126104)
(-1.30899e-07 1.12442e-06 0.126096)
(-1.08062e-05 -1.27477e-05 0.0802956)
(-2.3112e-05 -7.69512e-06 0.0801207)
(-3.10969e-05 -1.52234e-05 0.103522)
(-2.44902e-05 -2.62408e-05 0.103284)
(-7.10431e-06 -4.11906e-05 0.0922451)
(-3.71285e-05 -4.08869e-05 0.110724)
(-4.8335e-05 -6.41676e-06 0.0919371)
(-6.47659e-05 8.42969e-08 0.109231)
(-4.95263e-05 -3.41908e-05 0.110475)
(-2.16507e-06 -2.19095e-07 0.124176)
(-5.82292e-05 2.40852e-07 0.115073)
(-4.72814e-05 8.19197e-06 0.0919449)
(-6.48665e-05 3.56327e-07 0.109232)
(-2.14577e-06 1.17513e-06 0.124186)
(-4.85052e-05 3.44427e-05 0.110475)
(-5.84582e-05 -2.82305e-08 0.115072)
(-2.15895e-05 9.98212e-06 0.0801326)
(-2.2398e-05 2.83831e-05 0.103296)
(-3.06835e-05 1.91715e-05 0.103548)
(-1.43311e-05 2.02778e-05 0.0802907)
(-3.72808e-05 4.37771e-05 0.110712)
(-1.2333e-05 4.79434e-05 0.0922856)
(1.18454e-05 2.69447e-05 0.0802009)
(-1.31944e-05 -1.78071e-05 0.0802914)
(1.60862e-05 1.34896e-05 0.0800794)
(-2.32961e-05 -1.06307e-05 0.0801308)
(2.89608e-05 2.58453e-05 0.103531)
(1.89172e-05 3.165e-05 0.103348)
(-0.000218526 -0.00022075 0.119656)
(-3.26145e-05 -1.89848e-05 0.103532)
(-2.33603e-05 -2.87596e-05 0.103283)
(-8.41864e-06 -2.06017e-05 0.0802966)
(1.18188e-05 2.15638e-05 0.0801989)
(-1.85847e-05 -1.08151e-05 0.0801319)
(1.70113e-05 1.02536e-05 0.0800875)
(0.000209221 0.000210696 0.119671)
(-2.88516e-05 -2.33142e-05 0.103544)
(-2.09794e-05 -3.02305e-05 0.103284)
(2.93783e-05 2.16186e-05 0.103541)
(2.05662e-05 2.89858e-05 0.103348)
(1.14004e-05 2.54444e-05 0.080208)
(2.37516e-05 7.90155e-05 0.108837)
(-2.14169e-05 -7.08856e-05 0.113688)
(2.90011e-05 2.53595e-05 0.103531)
(-2.18035e-05 -1.74529e-05 0.0912692)
(1.96767e-05 2.52551e-05 0.0912137)
(2.47692e-05 7.89132e-05 0.113756)
(-2.51848e-05 -7.42478e-05 0.108757)
(7.68852e-05 2.13325e-05 0.108762)
(-7.67465e-05 -2.02093e-05 0.113591)
(1.91095e-05 3.09054e-05 0.103355)
(-2.46729e-05 -1.79276e-05 0.0910438)
(1.89251e-05 1.92853e-05 0.0910227)
(7.77885e-05 2.27629e-05 0.113704)
(-7.92028e-05 -2.01347e-05 0.108659)
(2.11839e-05 2.41524e-05 0.0972898)
(-2.34269e-05 -4.13441e-06 0.0795033)
(-1.20421e-05 -1.72433e-05 0.0794377)
(1.7505e-05 1.16329e-05 0.0794394)
(5.26211e-06 1.9626e-05 0.0793869)
(-2.50486e-05 -1.86793e-05 0.0972223)
(1.15396e-05 5.22452e-05 0.0921451)
(-1.08323e-05 -4.66806e-05 0.10249)
(5.39654e-06 5.73552e-05 0.102411)
(-2.72429e-06 -1.12422e-05 0.0783504)
(-5.40324e-05 -4.57694e-06 0.102085)
(-2.26182e-05 1.22992e-07 0.0781082)
(-6.45932e-05 -1.51487e-06 0.107736)
(-2.14354e-05 1.78874e-07 0.0892774)
(-2.20984e-05 4.66839e-07 0.0862083)
(-5.26032e-05 5.48573e-06 0.10209)
(-2.20994e-05 1.67874e-06 0.078119)
(-2.12652e-05 4.87148e-08 0.0892787)
(-6.49564e-05 1.73043e-06 0.107737)
(-2.19504e-05 4.84053e-07 0.0862137)
(7.71547e-05 -2.0979e-05 0.10876)
(-7.524e-05 2.20474e-05 0.113597)
(2.07965e-05 -2.95605e-05 0.103371)
(-2.21256e-05 1.93778e-05 0.0910534)
(7.8396e-05 -2.31084e-05 0.113708)
(2.03207e-05 -1.73485e-05 0.091027)
(-7.63787e-05 2.16602e-05 0.108657)
(2.37633e-05 -7.7966e-05 0.108828)
(-2.06768e-05 7.46643e-05 0.113668)
(3.13059e-05 -2.15286e-05 0.103553)
(-2.14873e-05 2.07158e-05 0.0913022)
(1.89162e-05 -2.2112e-05 0.0912394)
(2.42653e-05 -7.70008e-05 0.11374)
(-2.41779e-05 7.67674e-05 0.108753)
(2.24406e-05 -2.18753e-05 0.0973042)
(-9.88309e-06 1.75627e-05 0.0794556)
(-2.11837e-05 7.88116e-06 0.0795243)
(6.67755e-06 -1.70437e-05 0.0794034)
(1.85328e-05 -8.16026e-06 0.0794577)
(-2.30759e-05 2.02206e-05 0.0972357)
(1.10492e-05 -1.8582e-05 0.0801937)
(8.56082e-06 -4.79232e-05 0.0921968)
(-6.37947e-06 5.38978e-05 0.102552)
(7.43177e-06 -5.28603e-05 0.102506)
(-8.85762e-07 2.56697e-05 0.0783366)
(-1.14255e-05 -1.10672e-05 0.0802928)
(1.16593e-05 2.48114e-05 0.080201)
(-1.97956e-05 -7.69802e-06 0.0801293)
(1.65708e-05 1.19576e-05 0.0800853)
(2.00125e-05 2.16368e-05 0.0972969)
(-2.21237e-05 -8.29935e-06 0.0795094)
(-1.18213e-05 -1.86285e-05 0.0794453)
(1.80687e-05 9.83501e-06 0.0794425)
(5.53381e-06 2.01257e-05 0.0793915)
(-2.44503e-05 -2.11811e-05 0.0972246)
(-2.63826e-05 -7.70297e-05 0.108756)
(2.48405e-05 7.94888e-05 0.113758)
(1.84186e-05 2.59521e-05 0.0912083)
(-3.19437e-05 -1.57973e-05 0.103528)
(2.2937e-05 7.87361e-05 0.108838)
(-2.07271e-05 -1.83521e-05 0.0912763)
(-2.21559e-05 -7.33034e-05 0.113686)
(-8.10903e-05 -2.128e-05 0.108659)
(7.8095e-05 2.28511e-05 0.113706)
(1.91916e-05 1.91949e-05 0.0910139)
(-2.38898e-05 -2.71902e-05 0.103284)
(7.62214e-05 2.07411e-05 0.108765)
(-2.47337e-05 -1.5746e-05 0.0910476)
(-7.81948e-05 -2.06525e-05 0.113588)
(-2.5856e-05 -2.01634e-05 0.0972255)
(1.68675e-05 1.37667e-05 0.0794394)
(7.30026e-06 2.03682e-05 0.0793878)
(2.05328e-05 2.39252e-05 0.0972975)
(-2.10787e-05 -5.46359e-06 0.0795074)
(-1.23421e-05 -1.48634e-05 0.0794426)
(2.28357e-05 7.64145e-05 0.108836)
(-2.24264e-05 -2.00508e-05 0.0912788)
(2.81268e-05 2.32077e-05 0.103544)
(-2.18044e-05 -7.37425e-05 0.113687)
(1.94615e-05 2.41238e-05 0.0912218)
(-2.47329e-05 -7.65412e-05 0.108757)
(2.34426e-05 7.5604e-05 0.113755)
(7.58335e-05 2.00197e-05 0.108764)
(-2.39033e-05 -1.95439e-05 0.0910478)
(1.79023e-05 2.90495e-05 0.103357)
(-7.72922e-05 -2.19833e-05 0.113589)
(1.89798e-05 1.95759e-05 0.0910245)
(-7.91581e-05 -2.16792e-05 0.10866)
(7.51515e-05 2.05881e-05 0.113702)
(1.42781e-05 2.00873e-05 0.0802024)
(-1.01166e-05 -1.75224e-05 0.0802964)
(1.93933e-05 1.04564e-05 0.080088)
(-1.87716e-05 -1.02842e-05 0.080136)
(-2.30779e-05 -2.32701e-05 0.0972269)
(1.91564e-05 8.87806e-06 0.0794476)
(8.51285e-06 1.78757e-05 0.0793965)
(2.2048e-05 2.06066e-05 0.0972977)
(-1.84919e-05 -9.39372e-06 0.0795125)
(-8.98414e-06 -1.81571e-05 0.0794467)
(2.55959e-05 7.45094e-05 0.108836)
(-1.99985e-05 -7.76983e-05 0.113687)
(3.08458e-05 1.86612e-05 0.103547)
(-1.7355e-05 -2.38512e-05 0.0912871)
(2.22345e-05 2.01542e-05 0.0912253)
(2.60659e-05 7.3858e-05 0.113756)
(-2.22906e-05 -8.00449e-05 0.108755)
(7.82171e-05 1.77529e-05 0.108765)
(-7.62982e-05 -2.37076e-05 0.113588)
(2.1333e-05 2.82859e-05 0.10335)
(-2.12639e-05 -1.95916e-05 0.0910502)
(2.16228e-05 1.69211e-05 0.0910235)
(7.79793e-05 1.92401e-05 0.113701)
(-7.68879e-05 -2.34604e-05 0.10866)
(-2.40161e-05 -7.91604e-05 0.108756)
(1.95919e-05 2.23645e-05 0.0912186)
(2.52875e-05 7.59927e-05 0.113758)
(-3.03201e-05 -2.05887e-05 0.103538)
(2.44268e-05 7.60051e-05 0.108836)
(-1.88809e-05 -2.18628e-05 0.0912843)
(-2.0773e-05 -7.60413e-05 0.113686)
(-7.86171e-05 -2.28953e-05 0.10866)
(2.04604e-05 1.71944e-05 0.091019)
(7.83517e-05 2.10448e-05 0.113704)
(-2.17184e-05 -2.92884e-05 0.103284)
(7.75247e-05 1.90116e-05 0.108765)
(-2.24254e-05 -1.85367e-05 0.0910512)
(-7.65814e-05 -2.2418e-05 0.113587)
(2.393e-05 1.90477e-05 0.0972992)
(-1.72173e-05 -1.17723e-05 0.079513)
(-8.01262e-06 -1.99127e-05 0.0794445)
(2.16698e-05 6.35001e-06 0.079448)
(9.77518e-06 1.66152e-05 0.0793952)
(-2.09862e-05 -2.43466e-05 0.0972255)
(7.30563e-05 7.1283e-05 0.114437)
(0.000210013 0.000214304 0.119664)
(-0.000215695 -5.79617e-05 0.117271)
(-6.08005e-05 -0.000215151 0.117234)
(0.000217271 6.26843e-05 0.117316)
(5.94275e-05 0.000214257 0.117301)
(-7.46487e-05 -7.01243e-05 0.114368)
(7.18314e-05 -7.15566e-05 0.114431)
(0.000209747 -0.00021079 0.119658)
(-5.90006e-05 0.000215459 0.117241)
(-0.000210456 5.98572e-05 0.117242)
(6.11138e-05 -0.000215674 0.117307)
(0.000214833 -5.98345e-05 0.117296)
(-7.1519e-05 7.2984e-05 0.11436)
(-7.64646e-05 -7.23697e-05 0.114368)
(0.000217563 6.27967e-05 0.117321)
(5.9511e-05 0.000214818 0.117306)
(-0.0002174 -0.000218678 0.119654)
(7.18453e-05 7.02553e-05 0.114434)
(-0.000216253 -5.92762e-05 0.117269)
(-6.12825e-05 -0.000215398 0.117232)
(7.27716e-05 6.6436e-05 0.114438)
(0.000210018 0.000210013 0.119668)
(-0.000213924 -6.25583e-05 0.117269)
(-5.94405e-05 -0.000217252 0.117233)
(0.000217387 5.84935e-05 0.117318)
(5.99826e-05 0.000211966 0.117303)
(-7.24087e-05 -7.38316e-05 0.114371)
(5.95176e-07 1.44874e-06 0.12697)
(5.16272e-07 -6.86113e-07 0.12698)
(1.88047e-06 0.000258028 0.117491)
(-8.43915e-06 -0.000246084 0.116251)
(3.40027e-05 5.16479e-05 0.110732)
(-1.35371e-05 -5.3089e-05 0.113589)
(1.10109e-05 0.000258453 0.116282)
(8.21984e-06 6.34428e-05 0.113599)
(-8.48255e-07 -0.000250372 0.117494)
(0.000259797 3.45484e-06 0.117467)
(-0.000256841 -1.20318e-05 0.116146)
(4.79973e-05 3.45981e-05 0.11057)
(-6.02597e-05 -8.67127e-06 0.11337)
(0.000260964 1.16569e-05 0.116242)
(5.84881e-05 9.6433e-06 0.113474)
(-0.000265395 -3.53458e-06 0.117377)
(0.000251411 8.91143e-07 0.118083)
(5.8936e-05 -4.12274e-07 0.115197)
(-6.18345e-05 -8.35589e-07 0.114631)
(-0.000245197 1.60926e-06 0.118196)
(6.12077e-05 2.32718e-06 0.114747)
(0.000241166 -8.00263e-07 0.118324)
(-0.000251142 3.4862e-07 0.117972)
(0.000257413 -3.13058e-06 0.117453)
(-0.000252812 1.27218e-05 0.11614)
(4.81024e-05 -3.39822e-05 0.110571)
(-5.97719e-05 9.80448e-06 0.113367)
(5.89639e-05 -9.45609e-06 0.113471)
(0.000257798 -1.14987e-05 0.116234)
(-0.000259961 4.32226e-06 0.117371)
(0.000246377 -7.69955e-07 0.118077)
(5.84546e-05 -7.28996e-07 0.115196)
(-0.000244195 -1.32552e-06 0.118195)
(-6.29134e-05 1.64118e-06 0.114628)
(0.000240023 4.5298e-07 0.118321)
(6.09364e-05 -2.97259e-06 0.114744)
(-0.000252515 3.82193e-07 0.11797)
(2.24929e-06 -0.000255559 0.117482)
(-8.3356e-06 0.000251488 0.116233)
(3.5679e-05 -4.84368e-05 0.110722)
(-9.73807e-06 5.64096e-05 0.113572)
(1.0938e-05 -0.000257751 0.116267)
(1.17024e-05 -5.88185e-05 0.113583)
(6.18267e-08 0.000259596 0.117471)
(7.20591e-05 6.92659e-05 0.114437)
(0.000209766 0.000212504 0.119666)
(-0.000216535 -6.02417e-05 0.11727)
(-6.10125e-05 -0.000216547 0.117234)
(-7.46806e-05 -7.18597e-05 0.114368)
(0.000216235 6.05426e-05 0.117316)
(5.8815e-05 0.000213381 0.117302)
(-7.52437e-05 -7.45288e-05 0.114369)
(-0.000216857 -0.000220831 0.119654)
(0.000216642 5.98146e-05 0.11732)
(5.94803e-05 0.00021231 0.117305)
(7.19014e-05 6.7401e-05 0.114437)
(-0.000215297 -6.16407e-05 0.11727)
(-6.02725e-05 -0.000216641 0.117233)
(2.97481e-07 1.28728e-06 0.126097)
(-1.74408e-07 2.06427e-06 0.122912)
(5.85942e-06 -2.29684e-06 0.12295)
(-0.000212308 -0.000212871 0.119663)
(-1.18358e-07 -8.08994e-07 0.126098)
(-4.70993e-07 -5.80631e-07 0.122906)
(2.58222e-06 -1.5313e-06 0.122947)
(-0.000210136 -0.00021123 0.119659)
(-4.86967e-07 -2.02979e-06 0.126095)
(-3.56602e-07 -8.30698e-07 0.122902)
(1.86324e-06 -1.15939e-06 0.122942)
(-0.000210125 -0.000212323 0.11966)
(1.40533e-08 -9.19928e-07 0.126092)
(8.9547e-07 1.17229e-06 0.122905)
(2.80548e-06 -1.59375e-06 0.122939)
(-0.000210943 -0.000212696 0.119659)
(-5.80731e-07 9.29132e-07 0.126092)
(1.82734e-06 2.6992e-06 0.122908)
(3.33788e-06 -1.87995e-06 0.122939)
(-0.00021083 -0.000211889 0.11966)
(-1.49299e-06 1.92323e-06 0.126094)
(1.37103e-06 2.72596e-06 0.122913)
(3.18498e-06 -1.52536e-06 0.122943)
(-0.000210213 -0.000211757 0.119663)
(-1.54327e-06 1.71099e-06 0.126095)
(8.67795e-07 1.56091e-06 0.122914)
(2.98931e-06 -1.91251e-06 0.122946)
(-0.000210446 -0.000211609 0.119663)
(-1.67249e-06 5.41839e-07 0.126095)
(2.76491e-07 7.33042e-07 0.122912)
(2.24941e-06 -1.23258e-06 0.122949)
(-0.000210347 -0.000211421 0.119663)
(-1.26537e-06 9.73501e-08 0.126093)
(-3.16162e-07 9.92272e-07 0.12291)
(2.1227e-06 -1.38124e-06 0.122949)
(-0.000210781 -0.000212111 0.119662)
(-8.75483e-07 5.74379e-07 0.126094)
(1.40075e-07 1.17027e-06 0.122912)
(2.56172e-06 -1.65702e-06 0.12295)
(-0.000210925 -0.000212448 0.119663)
(-7.78088e-07 6.08883e-07 0.126093)
(7.73022e-07 9.57223e-07 0.122912)
(2.9383e-06 -1.4747e-06 0.122949)
(-0.00021024 -0.000211952 0.119662)
(-6.10511e-07 -1.63781e-07 0.126093)
(7.37377e-07 8.71116e-07 0.122909)
(3.18295e-06 -1.59575e-06 0.122948)
(-0.000209938 -0.000211655 0.119662)
(-6.35773e-07 -3.10646e-07 0.126093)
(6.91146e-07 9.0842e-07 0.122908)
(3.03403e-06 -1.63674e-06 0.122946)
(-0.000210852 -0.000212018 0.119662)
(-8.51426e-07 -6.88411e-07 0.126093)
(2.29438e-07 2.43583e-07 0.122906)
(2.70386e-06 -1.87249e-06 0.122946)
(-0.000210794 -0.000212532 0.119663)
(-4.8937e-07 -4.42426e-07 0.126094)
(1.36266e-08 9.62344e-07 0.122906)
(3.35082e-06 -2.14109e-06 0.122948)
(-0.000210377 -0.000212662 0.119663)
(-2.13702e-07 4.4802e-07 0.126096)
(1.92561e-07 1.06671e-06 0.122906)
(3.26557e-06 -1.9037e-06 0.122951)
(-0.000211097 -0.000212417 0.119664)
(-1.35618e-06 -2.86803e-07 0.126093)
(9.95272e-07 6.97479e-07 0.122906)
(2.73518e-06 -1.12896e-06 0.122951)
(-0.000209937 -0.000211765 0.119664)
(4.45252e-06 4.95465e-06 0.122977)
(-4.44642e-06 6.10988e-06 0.122974)
(3.58277e-06 1.66235e-06 0.122978)
(-3.6885e-06 2.41506e-06 0.122976)
(-0.000209973 0.000213942 0.119672)
(0.000216116 -0.000221566 0.119654)
(-1.53517e-06 1.42266e-06 0.122915)
(1.29898e-06 -1.17094e-06 0.122913)
(-1.21016e-06 -2.36753e-07 0.122914)
(5.71517e-07 -8.19782e-07 0.122911)
(-4.34805e-06 -2.46291e-06 0.122926)
(4.74067e-07 -8.24795e-07 0.122909)
(-8.53656e-07 -7.21347e-07 0.122925)
(0.0002097 -0.000210091 0.119664)
(-0.000216076 0.000220256 0.119639)
(-5.99588e-06 -5.03693e-06 0.122959)
(1.96103e-06 -7.55002e-07 0.122949)
(-2.76284e-06 -1.08508e-06 0.122959)
(0.000216725 0.000222456 0.119644)
(0.000211628 0.000210167 0.119667)
(-0.000216345 -0.000222926 0.119652)
(4.23636e-06 2.30062e-06 0.122977)
(-4.35555e-06 2.48409e-06 0.122972)
(3.55613e-06 -1.33521e-06 0.122974)
(-4.26882e-06 -6.62485e-07 0.12297)
(-0.000210651 0.000209888 0.119667)
(0.000215201 -0.000222526 0.11965)
(7.96633e-07 -3.80638e-07 0.122913)
(1.16522e-06 -1.64359e-06 0.122908)
(-1.58525e-06 -2.5441e-06 0.122909)
(-7.03903e-07 -9.5222e-07 0.122905)
(-1.4855e-06 -9.69377e-07 0.122922)
(6.62037e-07 -2.52014e-06 0.122905)
(4.09581e-07 -6.84813e-07 0.122921)
(0.000209062 -0.000209823 0.119653)
(-0.000216704 0.000219589 0.119638)
(-2.71307e-06 -1.83818e-06 0.122956)
(5.78449e-07 -3.35234e-07 0.122945)
(-1.70608e-06 -4.13711e-07 0.122952)
(0.000216962 0.000221596 0.119644)
(0.000210521 0.000209201 0.119667)
(-0.000218402 -0.000219499 0.119651)
(4.06881e-06 1.81538e-07 0.122972)
(-4.98067e-06 8.2503e-07 0.122969)
(2.7178e-06 8.07231e-07 0.12297)
(-3.02207e-06 1.93342e-06 0.122969)
(-0.000211279 0.000210262 0.119664)
(0.000218859 -0.000219192 0.11965)
(-1.03793e-07 -1.63468e-06 0.122908)
(3.84125e-07 -1.94092e-06 0.122903)
(-1.80648e-06 -3.60656e-07 0.122907)
(-6.96389e-08 -1.04515e-06 0.122903)
(-9.0654e-07 -1.28049e-06 0.12292)
(1.31137e-06 -7.58176e-07 0.122905)
(-3.12565e-07 -1.39082e-06 0.12292)
(0.000208871 -0.000210886 0.119652)
(-0.000216142 0.000219327 0.119638)
(-2.13129e-06 -1.54934e-06 0.122951)
(1.40086e-06 -7.47278e-07 0.122941)
(-2.23223e-06 -1.20046e-06 0.122951)
(0.000216986 0.000222102 0.119643)
(0.000209504 0.000213555 0.119666)
(-0.000218391 -0.000218321 0.119652)
(3.30392e-06 3.14369e-06 0.12297)
(-3.174e-06 4.04248e-06 0.122969)
(1.90228e-06 3.44753e-06 0.122971)
(-7.57437e-07 4.63446e-06 0.12297)
(-0.000208486 0.000214441 0.119665)
(0.000219204 -0.000218538 0.119655)
(-3.01925e-07 1.21357e-06 0.122906)
(1.28238e-06 -1.75169e-06 0.122903)
(-1.6508e-06 2.00617e-06 0.122907)
(5.34709e-07 -8.89136e-08 0.122905)
(-1.21655e-06 -1.53772e-06 0.122919)
(2.64615e-06 1.12206e-06 0.122908)
(-4.38159e-08 -7.08203e-07 0.122921)
(0.000209557 -0.000211007 0.119653)
(-0.000216006 0.000220573 0.119641)
(-2.74029e-06 -2.21826e-06 0.12295)
(2.12256e-06 -9.46639e-07 0.12294)
(-2.27615e-06 -9.82864e-07 0.122953)
(0.000217035 0.000222645 0.119644)
(0.000210206 0.000214818 0.119666)
(-0.000217587 -0.000219355 0.119651)
(2.71213e-06 5.29355e-06 0.122972)
(-1.54652e-06 5.96622e-06 0.122968)
(1.96101e-06 3.94382e-06 0.122974)
(-1.5362e-06 4.67584e-06 0.122971)
(-0.000208457 0.00021454 0.11967)
(0.000217968 -0.000218939 0.119657)
(-3.26357e-07 3.20444e-06 0.122908)
(1.65005e-06 -6.0093e-07 0.122905)
(-1.19709e-06 2.82867e-06 0.122912)
(6.04251e-07 8.87637e-08 0.122912)
(-9.2783e-07 -8.72828e-07 0.122921)
(1.97131e-06 1.9079e-06 0.122913)
(2.10547e-07 -4.22955e-07 0.122924)
(0.000210404 -0.000210545 0.119657)
(-0.000216212 0.000220593 0.119646)
(-2.44027e-06 -1.92559e-06 0.122953)
(2.25443e-06 -7.8811e-07 0.122943)
(-2.04941e-06 -5.28052e-07 0.122957)
(0.000217388 0.000222434 0.119647)
(0.000211553 0.000214075 0.119666)
(-0.000217564 -0.000219998 0.119649)
(3.08195e-06 5.09623e-06 0.122973)
(-2.3333e-06 5.92737e-06 0.122969)
(2.75325e-06 3.09557e-06 0.122972)
(-2.64918e-06 3.49719e-06 0.122969)
(-0.00020945 0.000213887 0.119671)
(0.000216658 -0.000220257 0.119656)
(2.93549e-07 3.61978e-06 0.122912)
(1.45633e-06 -8.87361e-07 0.122912)
(-9.91445e-07 1.93792e-06 0.122914)
(4.154e-07 -6.81697e-07 0.122918)
(-6.69017e-07 -7.16487e-07 0.122924)
(1.68121e-06 8.61752e-07 0.122915)
(8.58131e-08 -4.53632e-07 0.122926)
(0.000210463 -0.000211199 0.11966)
(-0.000216244 0.000220369 0.119646)
(-2.24742e-06 -1.48114e-06 0.122956)
(2.08503e-06 -1.20483e-06 0.122946)
(-2.16689e-06 -7.50698e-07 0.122958)
(0.000217225 0.000222566 0.119647)
(0.000211519 0.000213397 0.119663)
(-0.000218259 -0.000221413 0.119648)
(3.48878e-06 4.11437e-06 0.122971)
(-3.53807e-06 4.54531e-06 0.122966)
(2.21344e-06 1.9361e-06 0.12297)
(-3.31153e-06 2.27878e-06 0.122963)
(-0.000210056 0.000212039 0.11967)
(0.000217235 -0.000221381 0.119654)
(2.60247e-07 2.25198e-06 0.122914)
(1.51438e-06 -1.73399e-06 0.122917)
(-1.10994e-06 5.07502e-07 0.122916)
(-2.33295e-07 -6.44141e-07 0.12292)
(-7.59971e-07 -6.58704e-07 0.122925)
(1.10435e-06 -1.86623e-07 0.122914)
(1.10622e-07 -3.22193e-07 0.122927)
(0.00021046 -0.000211369 0.119662)
(-0.000216702 0.000220359 0.119647)
(-2.62628e-06 -1.84613e-06 0.122958)
(1.70529e-06 -6.73345e-07 0.12295)
(-2.78143e-06 -6.60687e-07 0.122959)
(0.000217029 0.000222473 0.119647)
(0.00021047 0.000211992 0.119662)
(-0.000218728 -0.000221508 0.119649)
(3.08223e-06 3.10252e-06 0.122969)
(-4.06014e-06 3.23928e-06 0.122961)
(1.91998e-06 1.0815e-06 0.122969)
(-3.24152e-06 1.7685e-06 0.122961)
(-0.000210089 0.00021123 0.119669)
(0.000216468 -0.000220893 0.119653)
(-1.61092e-07 1.18434e-06 0.122916)
(5.12196e-07 -1.12976e-06 0.122919)
(-1.60117e-06 2.46998e-07 0.122918)
(-5.06106e-07 -6.03417e-07 0.122921)
(-1.26031e-06 -6.49355e-07 0.122926)
(8.53152e-07 -5.82934e-07 0.122911)
(-9.7011e-08 -4.78438e-07 0.122926)
(0.000209085 -0.000210658 0.119663)
(-0.000217123 0.000220567 0.119648)
(-2.82641e-06 -1.20346e-06 0.122958)
(9.31173e-07 -4.55699e-07 0.122951)
(-2.53615e-06 -6.06853e-07 0.122958)
(0.000216475 0.000221996 0.119647)
(0.000210125 0.000211992 0.119664)
(-0.000218444 -0.000220798 0.119651)
(2.56867e-06 2.61648e-06 0.122969)
(-4.17978e-06 3.10365e-06 0.12296)
(2.15097e-06 1.27903e-06 0.122969)
(-3.21818e-06 2.55678e-06 0.122962)
(-0.000210709 0.000211917 0.119668)
(0.000217777 -0.000220554 0.119654)
(-2.10031e-07 9.34586e-07 0.122918)
(7.02142e-07 -1.41966e-06 0.12292)
(-1.31216e-06 6.93328e-07 0.122919)
(-3.36069e-07 -9.54219e-07 0.122922)
(-1.25958e-06 -1.04017e-06 0.122926)
(8.39616e-07 -1.54222e-07 0.122913)
(-2.64739e-08 -6.76966e-07 0.122927)
(0.000209576 -0.000211003 0.119664)
(-0.000216939 0.000220152 0.11965)
(-2.8611e-06 -1.80335e-06 0.122956)
(1.22141e-06 -6.94996e-07 0.122952)
(-2.49758e-06 -1.24222e-06 0.122957)
(0.000216823 0.000221849 0.119648)
(0.000211 0.000213083 0.119665)
(-0.000218152 -0.000220946 0.119648)
(3.0405e-06 2.80829e-06 0.122968)
(-3.69584e-06 3.63613e-06 0.12296)
(3.13001e-06 1.71877e-06 0.122967)
(-2.68877e-06 2.25299e-06 0.122962)
(-0.000210211 0.000213051 0.119668)
(0.000216593 -0.000220054 0.119654)
(-1.2359e-07 1.51487e-06 0.122919)
(6.79403e-07 -1.5303e-06 0.122921)
(-1.17396e-06 1.12064e-06 0.12292)
(-7.55879e-08 -5.63619e-07 0.122923)
(-1.09795e-06 -1.07282e-06 0.122927)
(1.26529e-06 7.84175e-08 0.122913)
(-1.12336e-07 -9.69753e-07 0.122929)
(0.00020929 -0.000211093 0.119665)
(-0.000216266 0.000220416 0.119648)
(-2.64531e-06 -2.04259e-06 0.122957)
(1.92613e-06 -7.66433e-07 0.122951)
(-2.24877e-06 -8.51042e-07 0.122958)
(0.000216927 0.000221869 0.119647)
(0.00021098 0.000212684 0.119661)
(-0.000217657 -0.000221634 0.119647)
(3.72043e-06 3.16106e-06 0.122967)
(-3.4487e-06 3.77439e-06 0.12296)
(2.6915e-06 1.62411e-06 0.122967)
(-2.78548e-06 2.09296e-06 0.12296)
(-0.00020959 0.000211638 0.119668)
(0.000217518 -0.000220373 0.119651)
(2.14079e-07 1.8817e-06 0.12292)
(8.65734e-07 -1.31903e-06 0.122921)
(-1.48845e-06 4.09515e-08 0.12292)
(-4.0308e-07 -4.14498e-07 0.122921)
(-1.03531e-06 -1.32257e-06 0.122929)
(1.65984e-06 -4.34123e-07 0.122911)
(5.16731e-07 -5.4226e-07 0.122928)
(0.000209678 -0.000210507 0.119663)
(-0.000216006 0.000220198 0.119645)
(-2.55009e-06 -1.85368e-06 0.122957)
(1.9485e-06 -5.31616e-07 0.122949)
(-2.1057e-06 -9.23997e-07 0.122956)
(0.00021702 0.000222012 0.119645)
(0.000211552 0.000212154 0.119662)
(-0.000217756 -0.000221585 0.119647)
(3.66674e-06 2.7806e-06 0.122966)
(-3.58801e-06 3.4428e-06 0.122959)
(2.92709e-06 1.50503e-06 0.122968)
(-3.31272e-06 2.24933e-06 0.122958)
(-0.000209429 0.000212104 0.119666)
(0.000216826 -0.000221046 0.11965)
(-9.58808e-08 7.93653e-07 0.122918)
(7.23884e-07 -1.34406e-06 0.122918)
(-1.44845e-06 -2.56873e-07 0.122918)
(-2.54255e-07 -6.91087e-07 0.122918)
(-5.36486e-07 -8.69418e-07 0.122928)
(1.20723e-06 -1.85541e-07 0.122909)
(-1.53206e-08 -9.44304e-07 0.122927)
(0.000209911 -0.000210553 0.119661)
(-0.000216604 0.000220201 0.119644)
(-2.39287e-06 -1.99183e-06 0.122955)
(1.96422e-06 -9.34924e-07 0.122948)
(-2.30628e-06 -9.4818e-07 0.122955)
(0.000216414 0.000221883 0.119646)
(0.000211211 0.000212212 0.119662)
(-0.000217932 -0.000221497 0.119649)
(3.58359e-06 2.83186e-06 0.122967)
(-4.18098e-06 3.45966e-06 0.122957)
(2.37045e-06 1.03855e-06 0.122969)
(-3.7792e-06 2.02295e-06 0.122958)
(-0.000210401 0.000211415 0.119664)
(0.000217101 -0.0002212 0.119651)
(-1.45311e-07 6.30628e-07 0.122917)
(1.23024e-06 -1.72143e-06 0.122916)
(-1.24016e-06 -1.83778e-07 0.122917)
(-3.50667e-07 -7.27505e-07 0.122917)
(-9.01805e-07 -1.22951e-06 0.122926)
(9.67047e-07 -7.21801e-07 0.122908)
(-2.62743e-07 -9.67999e-07 0.122926)
(0.000209831 -0.000211314 0.11966)
(-0.000216406 0.00021986 0.119645)
(-2.6886e-06 -1.99493e-06 0.122953)
(1.40114e-06 -1.17978e-06 0.122947)
(-2.49929e-06 -1.00815e-06 0.122954)
(0.00021663 0.000221661 0.119647)
(0.000211353 0.00021227 0.119664)
(-0.000217922 -0.000221236 0.119651)
(3.32817e-06 2.63543e-06 0.122969)
(-4.28497e-06 3.11352e-06 0.122956)
(2.7064e-06 1.21849e-06 0.122972)
(-3.38793e-06 1.71288e-06 0.122961)
(-0.000210074 0.000211639 0.119666)
(0.000215895 -0.000220376 0.11965)
(-9.31865e-08 2.84338e-07 0.122916)
(9.66196e-07 -1.75223e-06 0.122915)
(-1.26591e-06 -1.32634e-07 0.122917)
(6.20456e-08 -1.11398e-06 0.122917)
(-1.08401e-06 -1.1924e-06 0.122925)
(5.23363e-07 -1.64626e-08 0.122908)
(-9.21671e-08 -8.37663e-07 0.122927)
(0.000209605 -0.000211131 0.119661)
(-0.000216014 0.000219613 0.119647)
(-2.50606e-06 -2.09984e-06 0.122954)
(2.00497e-06 -1.54593e-06 0.122948)
(-2.31216e-06 -1.49822e-06 0.122956)
(0.000216724 0.000221289 0.119647)
(0.000211081 0.000212243 0.119666)
(-0.000217921 -0.000220862 0.119649)
(3.58088e-06 2.39687e-06 0.122972)
(-3.86534e-06 3.2579e-06 0.12296)
(3.02293e-06 1.61909e-06 0.122969)
(-3.07191e-06 2.3197e-06 0.122965)
(-0.000210922 0.000211953 0.119665)
(0.000217407 -0.000220325 0.11965)
(1.37345e-09 7.9341e-07 0.122917)
(9.89162e-07 -1.70731e-06 0.122917)
(-6.32723e-07 8.90796e-07 0.122914)
(2.18841e-07 -8.714e-07 0.122917)
(-1.18091e-06 -1.30009e-06 0.122926)
(9.54177e-07 1.70808e-07 0.122908)
(-3.73742e-07 -8.77703e-07 0.122928)
(0.000210282 -0.000211587 0.119662)
(-0.000215885 0.00022025 0.119646)
(-2.68515e-06 -2.46424e-06 0.122955)
(2.58049e-06 -1.40791e-06 0.122948)
(-2.60703e-06 -1.28467e-06 0.122958)
(0.000215941 0.00022137 0.119648)
(0.000210717 0.000212462 0.119663)
(-0.000217357 -0.000220909 0.119648)
(3.67386e-06 2.80619e-06 0.122972)
(-3.68332e-06 4.08661e-06 0.122962)
(3.29792e-06 1.34748e-06 0.122966)
(-3.06197e-06 2.52495e-06 0.122967)
(-0.000209435 0.000212613 0.119664)
(0.000216666 -0.000220566 0.119649)
(2.52682e-07 1.36306e-06 0.122917)
(1.19749e-06 -1.14652e-06 0.122919)
(-9.96747e-07 5.70525e-07 0.122914)
(7.87697e-07 -9.00646e-07 0.122917)
(-1.50313e-06 -1.31895e-06 0.122926)
(1.10228e-06 -6.80543e-07 0.12291)
(2.08383e-07 -6.42486e-07 0.122928)
(0.000210099 -0.000210788 0.119661)
(-0.000216142 0.000220116 0.119648)
(-3.05348e-06 -2.4169e-06 0.122957)
(2.54406e-06 -1.24925e-06 0.12295)
(-1.96009e-06 -4.95556e-07 0.12296)
(0.000216957 0.000221768 0.119648)
(0.000210879 0.000212039 0.119661)
(3.23555e-06 1.71265e-06 0.122969)
(-2.56838e-06 2.41122e-06 0.122962)
(-0.000209316 0.000211183 0.119663)
(-3.74572e-07 1.03174e-06 0.122917)
(7.66826e-07 -1.1009e-06 0.12292)
(-5.31534e-07 -7.57453e-07 0.122926)
(-5.77095e-07 -2.37511e-07 0.122927)
(0.000209965 -0.000211726 0.11966)
(-2.53654e-06 -1.6571e-06 0.122957)
(-2.30102e-06 -1.74677e-06 0.12296)
(0.000215661 0.000220925 0.119646)
(-1.44881e-06 -6.39581e-05 0.109642)
(1.19196e-05 5.45364e-05 0.0921579)
(-1.36062e-07 7.07591e-05 0.109643)
(-9.66131e-06 -4.44116e-05 0.0922623)
(-1.03805e-05 2.69326e-05 0.0802039)
(1.25935e-05 -1.65506e-05 0.0802972)
(-6.66174e-05 -1.64269e-07 0.109232)
(4.5304e-05 8.8422e-06 0.0919255)
(6.36357e-05 -3.48971e-08 0.109364)
(-4.98943e-05 -8.58733e-06 0.0919449)
(2.00032e-07 1.43411e-06 0.126096)
(3.45879e-06 1.29288e-06 0.126091)
(-2.24875e-06 1.3561e-06 0.126098)
(-6.97621e-07 -5.87165e-07 0.126099)
(-1.25289e-07 8.35007e-08 0.126098)
(4.09334e-07 1.66529e-07 0.126094)
(-3.70759e-07 5.18479e-07 0.126099)
(6.0227e-05 -6.55391e-07 0.115068)
(-4.85023e-05 3.53024e-05 0.110569)
(7.39083e-07 9.16285e-07 0.124165)
(1.65893e-06 6.99328e-07 0.122913)
(4.88809e-05 -3.64615e-05 0.110473)
(2.56012e-06 -3.42461e-07 0.124165)
(-5.87655e-05 1.14301e-07 0.115199)
(1.6687e-05 -1.08883e-05 0.080094)
(-2.25658e-05 1.16758e-05 0.0801431)
(-8.38701e-07 6.07052e-05 0.115229)
(1.48982e-06 -5.56809e-06 0.124249)
(3.54364e-05 -4.84489e-05 0.110719)
(2.18625e-06 -2.69471e-07 0.122952)
(-1.13687e-06 -2.13554e-06 0.124252)
(-3.71089e-05 4.68193e-05 0.110709)
(4.37023e-07 -6.16828e-05 0.115249)
(-2.14491e-05 -2.87208e-05 0.103374)
(-3.20101e-05 -2.17056e-05 0.103534)
(0.000216795 0.000222483 0.119647)
(2.25516e-05 2.96397e-05 0.103303)
(3.01859e-05 2.15256e-05 0.103524)
(-6.53558e-07 -7.21165e-05 0.109642)
(1.15518e-05 4.57834e-05 0.0921891)
(-1.87894e-07 6.1924e-05 0.109645)
(-6.92541e-06 -5.16477e-05 0.0922901)
(-1.4571e-05 1.78844e-05 0.0802083)
(8.38414e-06 -2.50472e-05 0.0803098)
(-6.56716e-05 -8.83376e-07 0.109229)
(4.78374e-05 5.78335e-06 0.0919251)
(6.56075e-05 -5.41943e-07 0.109361)
(-4.73534e-05 -9.74904e-06 0.0919417)
(-2.23275e-07 -2.41632e-07 0.126099)
(4.0644e-07 -1.10337e-07 0.126094)
(-3.38751e-07 -1.56408e-07 0.126098)
(-8.80818e-07 -2.49769e-06 0.126096)
(-9.11407e-09 -2.24742e-06 0.126094)
(-1.057e-06 -7.15764e-07 0.126089)
(4.58362e-07 -3.71862e-07 0.126091)
(5.84221e-05 -1.54332e-06 0.115066)
(-5.04433e-05 3.20868e-05 0.110568)
(1.19515e-06 -1.68645e-06 0.12416)
(1.17005e-06 -2.4084e-06 0.122907)
(-5.97502e-05 -1.82637e-06 0.115194)
(4.63991e-05 -3.82978e-05 0.110471)
(2.67968e-06 -2.9539e-06 0.124161)
(1.84525e-05 -1.00326e-05 0.0801012)
(-2.09127e-05 1.09069e-05 0.0801458)
(-1.8591e-06 5.99838e-05 0.115226)
(-1.31217e-06 -1.74185e-06 0.124245)
(3.55718e-05 -4.57218e-05 0.110717)
(9.20826e-07 3.39033e-08 0.122948)
(-4.41227e-07 -5.89682e-05 0.115244)
(-2.64673e-06 -4.13003e-07 0.124246)
(-3.66292e-05 4.66167e-05 0.110709)
(-2.21144e-05 -2.95092e-05 0.103368)
(-3.22306e-05 -1.85963e-05 0.103533)
(0.000218622 0.000223459 0.119644)
(2.21276e-05 2.90101e-05 0.1033)
(2.98282e-05 2.1646e-05 0.103525)
(-9.92575e-07 -7.20156e-05 0.109644)
(9.48172e-06 4.46298e-05 0.0922125)
(-1.05239e-07 5.85537e-05 0.109644)
(-1.23816e-05 -4.9498e-05 0.0923137)
(-1.23701e-05 1.78819e-05 0.0802212)
(1.31963e-05 -2.247e-05 0.0803224)
(-6.58646e-05 -1.61549e-07 0.109228)
(4.68414e-05 7.34125e-06 0.0919191)
(6.51747e-05 -6.03985e-07 0.109358)
(-4.88904e-05 -6.7677e-06 0.0919383)
(-7.245e-08 -1.92612e-06 0.126095)
(-5.3488e-07 -9.66098e-07 0.126089)
(1.96056e-07 -2.64412e-07 0.12609)
(-4.22125e-07 -1.60174e-06 0.126092)
(2.79163e-07 -1.18336e-06 0.126093)
(-2.87377e-07 -5.43822e-07 0.126084)
(4.85091e-07 1.29425e-08 0.126087)
(5.82674e-05 -3.01498e-08 0.115068)
(-4.96155e-05 3.43785e-05 0.110564)
(1.5104e-06 -2.33105e-06 0.124158)
(7.57194e-07 -1.73632e-06 0.122905)
(-6.04225e-05 -6.62184e-07 0.115196)
(4.82426e-05 -3.41205e-05 0.110467)
(1.9721e-06 -2.64023e-06 0.124159)
(1.83813e-05 -1.08439e-05 0.0800982)
(-2.11123e-05 1.09571e-05 0.0801425)
(-1.08235e-06 5.98904e-05 0.115225)
(-1.31298e-06 -1.56696e-06 0.124239)
(3.58298e-05 -4.64412e-05 0.110718)
(1.08909e-06 -4.83621e-07 0.122943)
(-2.70239e-09 -5.9776e-05 0.115243)
(-1.82842e-06 -1.10922e-06 0.124238)
(-3.63337e-05 4.5873e-05 0.110711)
(-2.16344e-05 -2.91099e-05 0.103363)
(-3.12161e-05 -1.98706e-05 0.103531)
(0.000217877 0.000222531 0.119645)