/*--------------------------------*- C++ -*----------------------------------*\
| =========                 |                                                 |
| \\      /  F ield         | OpenFOAM: The Open Source CFD Toolbox           |
|  \\    /   O peration     | Version:  2206                                  |
|   \\  /    A nd           | Website:  www.openfoam.com                      |
|    \\/     M anipulation  |                                                 |
\*---------------------------------------------------------------------------*/
FoamFile
{
    version     2.0;
    format      ascii;
    arch        "LSB;label=32;scalar=64";
    class       volVectorField;
    location    "30";
    object      wallShearStress;
}
// * * * * * * * * * * * * * * * * * * * * * * * * * * * * * * * * * * * * * //

dimensions      [0 2 -2 0 0 0 0];

internalField   uniform (0 0 0);

boundaryField
{
    topPatch
    {
        type            calculated;
        value           nonuniform List<vector> 0();
    }
    wall
    {
        type            calculated;
        value           nonuniform List<vector> 
7746
(
(5.90718e-08 -1.16498e-08 -0.000158711)
(1.96583e-08 -1.70552e-08 -0.000158664)
(5.3408e-08 -1.32714e-08 -0.000148624)
(1.5365e-08 -2.74596e-09 -0.000148616)
(5.92181e-10 -1.1345e-08 -0.000148624)
(1.26641e-08 -8.35631e-09 -0.000158691)
(1.73013e-08 -3.4688e-09 -0.000158527)
(2.16688e-08 -3.84685e-09 -0.000148415)
(1.7094e-08 -2.56314e-08 -0.000158364)
(7.53334e-09 8.56624e-09 -0.000158575)
(2.58978e-09 -2.42094e-08 -0.000158402)
(6.35286e-09 1.2925e-08 -0.000158685)
(-1.66076e-08 2.03053e-08 -0.000158521)
(-3.01897e-08 2.31673e-09 -0.000158261)
(2.65279e-09 1.76491e-08 -0.000158679)
(-9.58363e-09 -3.21653e-09 -0.000158436)
(3.13552e-08 -4.37664e-08 -0.000158404)
(2.43787e-08 -1.25712e-08 -0.00014834)
(9.8953e-09 -9.92038e-09 -0.000149415)
(-6.1008e-09 1.2106e-08 -0.000149109)
(2.01384e-08 8.74511e-09 -0.000159018)
(-1.72855e-08 -4.44802e-09 -0.000158757)
(-9.25844e-09 7.07128e-09 -0.000158232)
(-1.09584e-08 7.48116e-09 -0.000148052)
(3.02873e-08 -5.74847e-09 -0.000158618)
(-1.06658e-08 -8.47974e-09 -0.000158275)
(1.00644e-08 2.95866e-09 -0.000158653)
(-4.28675e-09 -8.66669e-09 -0.000158399)
(-4.0494e-08 9.9556e-09 -0.000158223)
(-8.71457e-09 1.55414e-08 -0.000158534)
(-8.67954e-09 -2.39547e-09 -0.00015842)
(2.15703e-09 1.78016e-08 -0.000158682)
(1.61411e-08 -2.15601e-08 -0.000148244)
(1.20654e-08 7.62007e-09 -0.00014846)
(-2.1947e-08 -2.47094e-08 -0.000158378)
(-5.05746e-09 8.99185e-09 -0.000158586)
(-4.73069e-09 -1.98788e-08 -0.000148307)
(9.75646e-09 1.17981e-08 -0.000148641)
(-8.36893e-09 1.19825e-08 -0.000158411)
(8.16207e-09 -1.07894e-08 -0.000158704)
(-4.01931e-08 1.4606e-09 -0.000148036)
(-8.03635e-10 1.67322e-08 -0.000148386)
(3.6919e-08 6.90828e-09 -0.000158227)
(4.28424e-09 1.71029e-08 -0.000158537)
(-1.13619e-08 -1.42291e-09 -0.000148335)
(8.0503e-09 1.57409e-08 -0.00014862)
(-4.88015e-09 9.78466e-09 -0.000158459)
(9.22153e-09 -7.98411e-09 -0.00015871)
(-1.50902e-08 -5.44353e-09 -0.000148063)
(2.62556e-08 6.86347e-09 -0.000148426)
(1.58504e-08 -2.26848e-09 -0.000158245)
(-1.92143e-08 5.82964e-09 -0.000158568)
(-6.31109e-09 -1.02922e-08 -0.00014831)
(1.17477e-08 7.91128e-09 -0.00014861)
(-4.50716e-09 9.19199e-09 -0.000158436)
(8.48581e-09 -9.95359e-09 -0.000158694)
(-6.25217e-09 -8.78084e-09 -0.000148078)
(2.03874e-08 7.28732e-09 -0.000148418)
(-3.45244e-10 -1.07073e-08 -0.00015826)
(-2.24025e-08 2.19736e-09 -0.000158572)
(-2.70231e-09 -1.86697e-08 -0.000148311)
(1.444e-08 2.44919e-09 -0.000148609)
(-5.99971e-09 7.14413e-09 -0.000158426)
(6.86789e-09 -1.32764e-08 -0.000158679)
(-1.70863e-08 -4.86623e-09 -0.000148045)
(1.28063e-08 9.41248e-09 -0.000148382)
(1.04602e-08 -5.06176e-09 -0.000158243)
(-1.29761e-08 6.42788e-09 -0.000158545)
(-6.16337e-09 -1.13368e-08 -0.000148299)
(1.04813e-08 8.49404e-09 -0.000148592)
(-5.05864e-09 8.31123e-09 -0.000158402)
(8.16254e-09 -8.96525e-09 -0.000158658)
(-1.6462e-08 -7.27462e-09 -0.000148023)
(1.39432e-08 9.85561e-09 -0.000148362)
(1.05588e-08 -7.28207e-09 -0.000158219)
(-1.26e-08 7.16442e-09 -0.000158521)
(-8.77089e-09 -8.48626e-09 -0.000148286)
(1.00479e-08 9.29754e-09 -0.000148574)
(-4.48009e-09 1.30231e-08 -0.000158372)
(9.46623e-09 -5.8005e-09 -0.000158629)
(-1.4829e-08 -6.08058e-09 -0.000148002)
(1.82276e-08 1.00274e-08 -0.00014834)
(1.16187e-08 -4.37401e-09 -0.000158201)
(-8.95102e-09 1.07966e-08 -0.000158496)
(-7.32307e-09 -9.08516e-09 -0.000148276)
(1.17506e-08 1.14985e-08 -0.000148563)
(-3.96321e-09 1.07308e-08 -0.000158361)
(9.33225e-09 -9.26578e-09 -0.000158609)
(-1.24544e-08 -4.31412e-09 -0.00014798)
(2.15809e-08 1.05477e-08 -0.000148328)
(1.05826e-08 -3.23322e-09 -0.000158173)
(-1.3099e-08 1.03081e-08 -0.000158483)
(-4.02879e-09 -1.04609e-08 -0.000148247)
(1.35184e-08 9.2861e-09 -0.00014854)
(-1.95226e-09 8.90772e-09 -0.000158332)
(1.1414e-08 -8.40605e-09 -0.00015859)
(-1.28377e-08 -4.05859e-09 -0.000147967)
(1.63744e-08 1.29078e-08 -0.000148309)
(1.78142e-08 9.00818e-10 -0.000158164)
(-1.02665e-08 1.26724e-08 -0.000158469)
(-3.50992e-09 -8.79424e-09 -0.000148223)
(1.36381e-08 1.05526e-08 -0.000148517)
(-1.50867e-09 1.00961e-08 -0.00015831)
(1.20235e-08 -8.22679e-09 -0.000158567)
(-1.73106e-08 -2.23375e-09 -0.000147946)
(1.64166e-08 1.18315e-08 -0.000148277)
(7.22947e-09 -4.69153e-09 -0.000158129)
(-2.0722e-08 5.68925e-09 -0.000158422)
(-2.30803e-09 -1.38681e-08 -0.000148206)
(1.43963e-08 7.88438e-09 -0.000148487)
(-1.73549e-09 9.57929e-09 -0.000158292)
(1.03337e-08 -9.65787e-09 -0.000158539)
(-1.36162e-08 -3.04593e-09 -0.0001479)
(1.90234e-08 1.09988e-08 -0.000148247)
(8.80541e-09 -3.28826e-09 -0.00015809)
(-1.50681e-08 7.88921e-09 -0.000158402)
(-3.56544e-09 -1.07408e-08 -0.000148163)
(1.3781e-08 9.21524e-09 -0.00014846)
(-4.03462e-09 6.07442e-09 -0.000158262)
(1.09352e-08 -9.62854e-09 -0.000158525)
(-1.4573e-08 -5.07663e-09 -0.000147887)
(1.80934e-08 7.75385e-09 -0.000148224)
(8.91408e-09 -6.05763e-09 -0.000158082)
(-1.60613e-08 5.74657e-09 -0.000158396)
(-6.49855e-09 -8.2183e-09 -0.000148149)
(8.58473e-09 1.34807e-08 -0.000148443)
(-4.37915e-09 8.89979e-09 -0.000158261)
(9.29096e-09 -8.30333e-09 -0.000158526)
(-1.44792e-08 -7.99728e-09 -0.000147868)
(1.71624e-08 6.39339e-09 -0.000148209)
(1.15477e-08 -5.47273e-09 -0.000158085)
(-1.25497e-08 6.25181e-09 -0.000158381)
(-8.07993e-09 -9.7941e-09 -0.000148142)
(9.80414e-09 5.95549e-09 -0.000148429)
(-6.05992e-09 1.02805e-08 -0.00015825)
(7.93352e-09 -7.30633e-09 -0.0001585)
(-1.39145e-08 -7.87405e-09 -0.000147855)
(1.62709e-08 6.64111e-09 -0.000148196)
(9.90334e-09 -8.26491e-09 -0.000158053)
(-1.38e-08 5.41243e-09 -0.000158356)
(-7.07694e-09 -1.33966e-08 -0.000148122)
(8.66085e-09 9.36249e-09 -0.000148414)
(-5.74571e-09 1.14323e-08 -0.000158228)
(9.60667e-09 -5.49179e-09 -0.000158486)
(-1.73983e-08 -7.29788e-09 -0.000147852)
(1.39889e-08 8.45813e-09 -0.000148206)
(1.20137e-08 -5.76646e-09 -0.000158041)
(-1.18284e-08 6.35445e-09 -0.000158341)
(-1.02777e-08 -7.56903e-09 -0.000148114)
(9.17894e-09 1.02655e-08 -0.000148414)
(-4.67827e-09 1.24047e-08 -0.000158218)
(7.92381e-09 -6.47109e-09 -0.000158478)
(-1.59003e-08 -6.20118e-09 -0.000147858)
(1.44586e-08 1.09215e-08 -0.000148202)
(9.72194e-09 -5.82797e-09 -0.000158021)
(-1.58652e-08 5.57413e-09 -0.000158325)
(-6.37854e-09 -1.20093e-08 -0.000148113)
(1.11457e-08 8.78629e-09 -0.000148409)
(-6.56806e-09 6.80021e-09 -0.000158202)
(8.31199e-09 -9.37567e-09 -0.000158465)
(-1.6614e-08 -7.31786e-09 -0.000147856)
(1.44223e-08 7.21634e-09 -0.00014821)
(1.41166e-08 -4.41816e-09 -0.000158015)
(-1.17249e-08 3.98301e-09 -0.000158332)
(-7.39354e-09 -9.35798e-09 -0.000148108)
(5.32626e-09 9.36975e-09 -0.000148413)
(-5.22135e-09 1.14205e-08 -0.000158197)
(1.13868e-08 -1.97907e-09 -0.000158481)
(-1.57353e-08 -2.19432e-08 -0.000148264)
(-1.02312e-08 8.36827e-09 -0.000148473)
(-7.58016e-09 1.62081e-08 -0.000148379)
(-3.01789e-08 -4.4474e-09 -0.000148091)
(8.3516e-09 1.64453e-08 -0.000148396)
(3.10555e-08 -4.05481e-09 -0.000148105)
(-2.93433e-09 -2.50299e-08 -0.000158417)
(-4.54606e-09 1.50409e-08 -0.000158688)
(1.11996e-08 1.76304e-08 -0.000158534)
(2.85019e-08 1.18363e-09 -0.000158268)
(-4.49672e-09 1.29431e-08 -0.000158684)
(1.01615e-08 -2.92938e-09 -0.000158432)
(-6.63669e-09 6.24175e-09 -0.000148339)
(7.4006e-09 -1.3623e-08 -0.000148657)
(6.26155e-09 1.87188e-08 -0.000148631)
(-9.41926e-09 -9.23237e-09 -0.00014835)
(9.59257e-09 -1.13284e-08 -0.000148664)
(-8.97446e-09 8.37571e-09 -0.000148381)
(2.15312e-09 -2.18274e-08 -0.00014833)
(-6.83148e-09 1.67741e-08 -0.000148641)
(5.25311e-09 1.5249e-08 -0.000148317)
(-1.01312e-08 -1.03925e-08 -0.000148616)
(-6.29664e-09 1.90321e-08 -0.000148634)
(1.18025e-08 -4.23022e-09 -0.000148346)
(-9.77225e-09 -7.79623e-09 -0.000148616)
(8.66512e-09 1.07045e-08 -0.000148323)
(-1.63263e-08 3.81571e-09 -0.000158222)
(7.85499e-09 -9.42133e-09 -0.000158527)
(7.55789e-09 -7.73362e-09 -0.000158711)
(-6.80957e-09 6.68497e-09 -0.000158462)
(8.01326e-09 -7.79033e-09 -0.000158535)
(-2.13934e-08 1.88718e-10 -0.000158239)
(-1.5859e-08 7.34761e-09 -0.000148058)
(1.44716e-08 -8.95171e-09 -0.000148401)
(1.54064e-08 6.15256e-09 -0.000148084)
(-1.27255e-08 -1.00476e-08 -0.000148413)
(1.88283e-08 -7.12585e-09 -0.000148405)
(-1.95431e-08 6.73065e-09 -0.000148066)
(-1.12202e-08 -9.87995e-09 -0.000148416)
(1.95429e-08 6.23762e-09 -0.000148078)
(7.08667e-09 4.74473e-09 -0.000158387)
(-7.06465e-09 -1.05208e-08 -0.000158641)
(1.24176e-08 6.04603e-09 -0.000158232)
(-8.06982e-09 -8.72769e-09 -0.000158538)
(-9.00109e-09 -4.35767e-09 -0.000158637)
(6.89227e-09 7.56239e-09 -0.000158387)
(-4.48149e-09 -9.85173e-09 -0.000158538)
(2.0563e-08 1.02871e-09 -0.000158239)
(-3.86287e-08 8.91171e-09 -0.00015822)
(-5.89693e-09 1.68169e-08 -0.000158534)
(-1.15367e-08 1.79637e-09 -0.000158417)
(4.94612e-09 1.52436e-08 -0.000158667)
(7.54634e-09 9.05831e-09 -0.000158539)
(-2.87604e-08 4.85394e-09 -0.00015824)
(8.74598e-09 7.68997e-09 -0.000158643)
(-8.99699e-09 -3.31848e-09 -0.000158408)
(4.17914e-08 2.39203e-09 -0.000148044)
(2.44683e-09 1.61477e-08 -0.000148395)
(1.39228e-08 9.85072e-09 -0.000148394)
(-3.05513e-08 -1.06776e-09 -0.000148045)
(-1.28377e-08 1.07808e-08 -0.000148402)
(3.07402e-08 -8.54406e-10 -0.000148056)
(9.89748e-09 2.60573e-11 -0.000158427)
(-2.45884e-09 1.88855e-08 -0.000158669)
(-5.86218e-09 1.02502e-08 -0.000158541)
(2.78412e-08 3.53657e-09 -0.000158235)
(-7.68169e-09 7.89531e-09 -0.000158643)
(9.84817e-09 -5.06384e-11 -0.000158417)
(-6.92739e-09 1.41871e-08 -0.000148371)
(1.13252e-08 -7.59444e-09 -0.000148661)
(8.61706e-09 1.26417e-08 -0.000148597)
(-9.27941e-09 -6.97629e-09 -0.00014832)
(1.08191e-08 -9.32e-09 -0.000148641)
(-6.3607e-09 1.46308e-08 -0.000148373)
(1.17074e-08 -3.56504e-09 -0.000148336)
(-7.96873e-09 1.70677e-08 -0.000148623)
(6.87144e-09 1.51202e-08 -0.000148324)
(-1.19341e-08 -6.95493e-09 -0.000148618)
(-9.32108e-09 1.18712e-08 -0.000148595)
(9.74636e-09 -7.46219e-09 -0.000148328)
(-8.55223e-09 -1.38784e-08 -0.000148597)
(6.88877e-09 1.27844e-08 -0.000148323)
(-1.72386e-08 2.35841e-09 -0.000158238)
(1.39253e-08 -7.35213e-09 -0.000158554)
(7.98202e-09 -7.63061e-09 -0.000158696)
(-3.92003e-09 1.12777e-08 -0.000158455)
(1.30396e-08 -6.56652e-09 -0.00015854)
(-1.44413e-08 2.79826e-09 -0.000158259)
(-1.73518e-08 6.7877e-09 -0.000148065)
(1.48074e-08 -1.01387e-08 -0.000148426)
(2.4271e-08 4.05043e-09 -0.000148073)
(-1.53937e-08 -9.7753e-09 -0.000148424)
(1.8054e-08 -7.39861e-09 -0.00014841)
(-1.84641e-08 5.43259e-09 -0.000148083)
(-2.10118e-08 -7.4469e-09 -0.000148407)
(1.66579e-08 6.5393e-09 -0.000148077)
(3.39725e-09 1.31915e-08 -0.000158381)
(-9.1959e-09 -7.57682e-09 -0.000158634)
(2.28749e-08 -1.50603e-09 -0.000158241)
(-1.14662e-08 -7.66309e-09 -0.000158542)
(-8.77796e-09 -6.17041e-09 -0.000158612)
(5.29405e-09 9.12624e-09 -0.000158373)
(-1.59053e-08 -4.44579e-09 -0.000158526)
(1.46915e-08 3.1643e-09 -0.000158238)
(-1.14945e-08 -3.61408e-09 -0.000158248)
(2.40208e-08 1.32626e-09 -0.00015856)
(-5.05341e-09 -8.17843e-09 -0.000158391)
(1.10279e-08 3.46032e-09 -0.000158651)
(2.54726e-08 6.47257e-10 -0.000158556)
(-2.65258e-09 -8.27642e-09 -0.000158263)
(1.25195e-08 1.38086e-09 -0.000158649)
(-1.57369e-09 -1.58865e-08 -0.000158395)
(1.72625e-08 -6.08901e-09 -0.000148063)
(-2.25675e-08 7.72415e-09 -0.000148435)
(2.78486e-08 4.7516e-09 -0.000148422)
(-7.66803e-09 -9.35749e-09 -0.000148078)
(-3.05185e-08 4.32629e-09 -0.000148436)
(7.23716e-09 -9.59069e-09 -0.000148096)
(5.08227e-09 -8.80108e-09 -0.000158387)
(-9.86709e-09 5.06163e-09 -0.000158648)
(-2.72799e-08 -1.47699e-09 -0.000158568)
(5.32142e-09 -7.96578e-09 -0.000158273)
(-1.85184e-08 -9.96867e-09 -0.000158633)
(4.89952e-10 -1.74813e-08 -0.000158392)
(-6.94428e-09 1.2095e-08 -0.000148346)
(1.05511e-08 -1.12291e-08 -0.000148643)
(1.28405e-08 4.9962e-09 -0.000148604)
(-5.31627e-09 -1.53881e-08 -0.000148311)
(9.90632e-09 -1.29487e-08 -0.000148631)
(-7.19261e-09 1.10825e-08 -0.000148352)
(7.15479e-09 -1.34674e-08 -0.000148303)
(-1.24342e-08 7.08931e-09 -0.000148604)
(7.9128e-09 1.06338e-08 -0.000148303)
(-1.03122e-08 -1.28454e-08 -0.0001486)
(-1.38174e-08 -7.65482e-11 -0.000148583)
(5.51927e-09 -1.74308e-08 -0.000148309)
(-9.55753e-09 -1.42016e-08 -0.000148589)
(8.27204e-09 7.64384e-09 -0.000148308)
(-1.07463e-08 5.0623e-09 -0.000158237)
(1.74211e-08 -4.967e-09 -0.00015854)
(7.46432e-09 -1.00896e-08 -0.000158681)
(-5.27088e-09 8.77321e-09 -0.00015844)
(1.24743e-08 -6.76272e-09 -0.000158526)
(-1.11752e-08 4.777e-09 -0.000158242)
(-1.57664e-08 6.99711e-09 -0.000148063)
(1.88967e-08 -8.52341e-09 -0.000148416)
(1.49505e-08 7.41167e-09 -0.000148059)
(-1.88981e-08 -9.37657e-09 -0.000148411)
(1.98699e-08 -7.74125e-09 -0.000148394)
(-1.51225e-08 6.89307e-09 -0.000148067)
(-1.91481e-08 -8.88872e-09 -0.000148394)
(1.54747e-08 6.78782e-09 -0.000148063)
(4.22848e-09 1.07135e-08 -0.000158357)
(-8.02074e-09 -1.0293e-08 -0.000158615)
(1.21872e-08 4.45072e-09 -0.000158226)
(-1.74011e-08 -5.16885e-09 -0.000158531)
(-7.9483e-09 -8.54769e-09 -0.000158608)
(6.45477e-09 5.66032e-09 -0.00015836)
(-1.55862e-08 -5.66047e-09 -0.00015852)
(1.08609e-08 5.11188e-09 -0.000158229)
(1.01273e-09 -1.08639e-08 -0.000158254)
(2.01774e-08 3.78061e-09 -0.000158554)
(-2.26665e-09 -1.35917e-08 -0.000158393)
(1.28419e-08 1.9635e-09 -0.000158657)
(1.30492e-08 7.3329e-09 -0.000158526)
(-9.6064e-09 -6.99968e-09 -0.00015825)
(1.009e-08 3.91521e-09 -0.000158638)
(-9.61234e-10 -1.6257e-08 -0.0001584)
(3.57168e-09 -1.15732e-08 -0.00014809)
(-2.5244e-08 5.9747e-09 -0.000148439)
(1.70845e-08 8.36512e-09 -0.00014839)
(-1.39892e-08 -7.55262e-09 -0.000148066)
(-2.31696e-08 6.57885e-09 -0.000148417)
(6.99953e-09 -9.81348e-09 -0.000148098)
(-3.62539e-09 -2.5068e-08 -0.000158379)
(-1.57049e-08 -3.39081e-09 -0.000158633)
(-1.71352e-08 3.76177e-09 -0.000158551)
(4.80643e-09 -8.6206e-09 -0.000158264)
(-1.36576e-08 -9.17118e-10 -0.000158616)
(1.81774e-10 -2.02095e-08 -0.000158385)
(-7.20486e-09 1.05228e-08 -0.000148333)
(1.01131e-08 -1.15863e-08 -0.00014863)
(1.04726e-08 7.71379e-09 -0.000148587)
(-4.0607e-09 -2.01377e-08 -0.000148311)
(1.05713e-08 -1.03185e-08 -0.00014861)
(-6.89883e-09 1.11022e-08 -0.000148339)
(2.46668e-09 -2.39151e-08 -0.000148291)
(-1.45381e-08 -6.05042e-10 -0.000148594)
(6.07226e-09 1.19011e-08 -0.000148296)
(-1.05449e-08 -1.06747e-08 -0.000148592)
(-1.16139e-08 3.88906e-09 -0.000148578)
(2.92135e-09 -2.15398e-08 -0.000148301)
(-8.80627e-09 -1.3116e-08 -0.000148583)
(7.61193e-09 9.34082e-09 -0.000148303)
(-1.39239e-08 3.40196e-09 -0.000158222)
(1.25319e-08 -7.70111e-09 -0.00015853)
(7.83103e-09 -9.42668e-09 -0.000158658)
(-6.67655e-09 6.91602e-09 -0.000158427)
(1.07458e-08 -7.82733e-09 -0.000158517)
(-1.65443e-08 2.11792e-09 -0.000158233)
(-1.58582e-08 6.87556e-09 -0.000148046)
(1.38935e-08 -1.02802e-08 -0.000148396)
(1.78105e-08 4.99988e-09 -0.000148046)
(-1.56044e-08 -9.24541e-09 -0.000148392)
(1.66474e-08 -8.36337e-09 -0.000148379)
(-1.93571e-08 5.46889e-09 -0.000148053)
(-1.89784e-08 -7.48058e-09 -0.00014837)
(1.76999e-08 5.83778e-09 -0.000148043)
(4.06829e-09 9.8547e-09 -0.000158357)
(-8.74638e-09 -8.37335e-09 -0.000158617)
(1.35807e-08 3.40746e-09 -0.000158221)
(-1.64086e-08 -5.70141e-09 -0.000158519)
(-7.95981e-09 -7.39554e-09 -0.000158604)
(6.22776e-09 7.87655e-09 -0.000158358)
(-1.31388e-08 -6.23021e-09 -0.000158495)
(1.36886e-08 4.11224e-09 -0.000158213)
(-1.31285e-08 -3.61424e-09 -0.000158224)
(9.99318e-09 7.73867e-09 -0.000158514)
(-5.05191e-09 -8.83277e-09 -0.000158379)
(9.42436e-09 5.51062e-09 -0.000158641)
(1.18673e-08 5.62585e-09 -0.000158497)
(-1.78216e-08 -2.56869e-09 -0.000158212)
(7.09456e-09 7.72458e-09 -0.000158628)
(-4.23893e-09 -1.24629e-08 -0.000158383)
(1.26268e-08 -8.10892e-09 -0.00014807)
(-1.5541e-08 9.10312e-09 -0.000148414)
(1.56533e-08 8.19978e-09 -0.000148366)
(-2.08273e-08 -5.90818e-09 -0.000148032)
(-1.77414e-08 6.48676e-09 -0.000148395)
(1.58755e-08 -7.86081e-09 -0.000148072)
(2.14821e-09 -1.51933e-08 -0.000158363)
(-8.82113e-09 6.15601e-09 -0.000158623)
(-1.6013e-08 2.48169e-09 -0.000158525)
(1.08528e-08 -5.78318e-09 -0.000158243)
(-1.11019e-08 -9.73423e-10 -0.000158616)
(4.76913e-09 -1.21868e-08 -0.000158369)
(-6.37952e-09 1.24049e-08 -0.000148316)
(1.00835e-08 -9.34454e-09 -0.000148611)
(7.84616e-09 1.36636e-08 -0.000148579)
(-7.34103e-09 -1.34916e-08 -0.000148292)
(9.85681e-09 -6.53615e-09 -0.00014859)
(-7.47189e-09 1.39544e-08 -0.00014832)
(4.23777e-09 -1.80095e-08 -0.000148288)
(-1.0908e-08 6.27835e-09 -0.000148588)
(7.07901e-09 1.14839e-08 -0.000148287)
(-9.5251e-09 -1.11412e-08 -0.000148585)
(-8.76205e-09 7.9098e-09 -0.000148574)
(7.95991e-09 -1.44249e-08 -0.000148295)
(-8.26923e-09 -1.02242e-08 -0.000148571)
(8.96101e-09 9.77511e-09 -0.000148291)
(-1.63373e-08 1.83581e-09 -0.000158214)
(9.44255e-09 -7.83909e-09 -0.000158522)
(8.94313e-09 -3.24654e-09 -0.000158636)
(-4.98694e-09 1.09071e-08 -0.0001584)
(7.86147e-09 -8.12162e-09 -0.000158508)
(-2.01293e-08 1.11935e-09 -0.000158222)
(-1.91559e-08 5.06765e-09 -0.000148036)
(1.03955e-08 -1.08444e-08 -0.00014839)
(1.8088e-08 5.96528e-09 -0.000148023)
(-1.90697e-08 -7.71885e-09 -0.000148375)
(1.48214e-08 -7.58408e-09 -0.000148374)
(-2.29082e-08 4.97995e-09 -0.000148042)
(-1.86234e-08 -6.69408e-09 -0.000148367)
(1.4629e-08 8.50699e-09 -0.00014803)
(4.526e-09 9.65372e-09 -0.000158349)
(-6.94964e-09 -1.06309e-08 -0.000158608)
(1.65381e-08 1.73503e-09 -0.000158195)
(-1.38045e-08 -5.67788e-09 -0.000158495)
(-7.17779e-09 -6.92212e-09 -0.000158596)
(7.5373e-09 6.58594e-09 -0.000158351)
(-1.26344e-08 -5.38418e-09 -0.00015849)
(1.45367e-08 3.89304e-09 -0.000158196)
(-1.16824e-08 -5.25107e-09 -0.000158195)
(1.23145e-08 7.06234e-09 -0.000158492)
(-7.59187e-09 -6.99098e-09 -0.000158369)
(9.42743e-09 6.53143e-09 -0.00015862)
(1.08688e-08 7.04352e-09 -0.000158473)
(-1.60936e-08 -2.76995e-09 -0.000158187)
(8.1545e-09 8.71647e-09 -0.000158613)
(-4.2063e-09 -1.2402e-08 -0.000158362)
(1.71769e-08 -6.86129e-09 -0.000148048)
(-1.45521e-08 9.21983e-09 -0.000148388)
(1.72477e-08 7.13334e-09 -0.000148342)
(-1.82383e-08 -6.29272e-09 -0.000148011)
(-1.99e-08 7.34653e-09 -0.000148376)
(1.56786e-08 -6.80487e-09 -0.000148048)
(3.94206e-09 -1.22497e-08 -0.000158363)
(-8.11203e-09 9.40715e-09 -0.000158618)
(-1.39465e-08 5.30068e-09 -0.000158509)
(1.22429e-08 -4.79725e-09 -0.000158215)
(-6.75278e-09 1.04473e-08 -0.000158607)
(5.13116e-09 -8.53764e-09 -0.000158374)
(-6.96548e-09 1.60013e-08 -0.000148295)
(1.2345e-08 -5.4002e-09 -0.000148589)
(9.21747e-09 1.11272e-08 -0.000148569)
(-7.51718e-09 -1.34349e-08 -0.000148272)
(9.88438e-09 -1.13952e-08 -0.000148581)
(-5.69039e-09 1.68697e-08 -0.0001483)
(7.84131e-09 -1.37215e-08 -0.000148285)
(-1.02667e-08 1.09276e-08 -0.000148586)
(7.00683e-09 1.33874e-08 -0.000148279)
(-1.03568e-08 -9.09135e-09 -0.000148578)
(-6.40348e-09 1.66222e-08 -0.000148571)
(8.18655e-09 -9.09065e-09 -0.000148294)
(-1.01887e-08 -1.02775e-08 -0.000148575)
(7.08365e-09 1.18891e-08 -0.000148288)
(-1.76389e-08 2.88986e-09 -0.000158201)
(1.39426e-08 -6.80406e-09 -0.000158506)
(8.47915e-09 -6.30015e-09 -0.000158618)
(-2.96526e-09 1.35537e-08 -0.000158375)
(1.42917e-08 -5.97241e-09 -0.000158493)
(-1.20238e-08 4.85195e-09 -0.000158209)
(-2.05903e-08 5.95195e-09 -0.000148028)
(1.4878e-08 -9.0826e-09 -0.000148382)
(1.89467e-08 6.35867e-09 -0.000148023)
(-1.68413e-08 -8.69373e-09 -0.000148375)
(1.79398e-08 -7.71394e-09 -0.000148368)
(-1.80647e-08 5.46107e-09 -0.000148039)
(-2.08088e-08 -7.12586e-09 -0.000148367)
(1.6007e-08 7.0497e-09 -0.000148029)
(5.14684e-09 1.02847e-08 -0.000158343)
(-8.9506e-09 -6.72683e-09 -0.000158604)
(1.5538e-08 2.90675e-09 -0.000158194)
(-1.55001e-08 -5.63494e-09 -0.000158497)
(-8.16954e-09 -7.53499e-09 -0.000158602)
(5.48099e-09 8.54999e-09 -0.000158349)
(-1.53654e-08 -4.30823e-09 -0.000158485)
(1.1938e-08 5.03281e-09 -0.000158193)
(-1.14529e-08 -4.71935e-09 -0.00015817)
(1.23408e-08 8.39528e-09 -0.000158463)
(-6.60797e-09 -5.4666e-09 -0.000158355)
(8.31511e-09 1.0789e-08 -0.000158604)
(1.22742e-08 8.72103e-09 -0.000158444)
(-1.38144e-08 -2.2394e-09 -0.000158163)
(1.06489e-08 8.44872e-09 -0.000158584)
(-3.8036e-09 -8.80664e-09 -0.000158344)
(1.2561e-08 -7.87437e-09 -0.000148031)
(-1.43377e-08 1.06682e-08 -0.000148372)
(1.95896e-08 8.44821e-09 -0.000148323)
(-1.49405e-08 -5.9502e-09 -0.000147988)
(-2.00777e-08 9.43408e-09 -0.000148359)
(1.7818e-08 -4.71581e-09 -0.000148033)
(8.01888e-09 -2.46605e-09 -0.000158356)
(-6.1482e-09 1.50351e-08 -0.000158613)
(-1.56843e-08 5.26936e-09 -0.000158478)
(1.52254e-08 -1.48624e-09 -0.000158198)
(-1.22428e-08 4.62875e-09 -0.0001586)
(4.59277e-09 -5.33644e-09 -0.000158362)
(-7.5406e-09 1.07104e-08 -0.000148283)
(1.07878e-08 -1.17564e-08 -0.000148574)
(1.07818e-08 1.26318e-08 -0.000148541)
(-6.91735e-09 -1.1007e-08 -0.000148259)
(1.20774e-08 -1.17858e-08 -0.000148552)
(-6.56235e-09 1.12017e-08 -0.000148277)
(8.50602e-09 -7.09112e-09 -0.00014828)
(-1.06909e-08 1.37219e-08 -0.000148574)
(6.26335e-09 1.32099e-08 -0.000148277)
(-1.12826e-08 -1.1443e-08 -0.000148574)
(-1.07852e-08 1.30849e-08 -0.000148552)
(6.87632e-09 -9.59443e-09 -0.000148277)
(-1.23089e-08 -1.148e-08 -0.000148556)
(6.04346e-09 1.08374e-08 -0.000148277)
(-1.33106e-08 3.89309e-09 -0.000158188)
(1.49666e-08 -7.62713e-09 -0.00015848)
(8.54315e-09 -8.5653e-09 -0.000158588)
(-4.76589e-09 7.80035e-09 -0.000158351)
(1.27863e-08 -8.31469e-09 -0.000158457)
(-1.38916e-08 2.35906e-09 -0.000158178)
(-1.83897e-08 6.09907e-09 -0.000148017)
(1.69314e-08 -1.01949e-08 -0.000148364)
(1.65431e-08 5.9543e-09 -0.000148018)
(-1.59311e-08 -1.0856e-08 -0.000148362)
(2.05475e-08 -8.36915e-09 -0.00014834)
(-1.55009e-08 6.21943e-09 -0.000148012)
(-1.57191e-08 -1.14626e-08 -0.000148343)
(1.78864e-08 4.33315e-09 -0.000148013)
(3.87824e-09 9.87898e-09 -0.000158348)
(-8.82257e-09 -9.54057e-09 -0.000158602)
(1.38527e-08 2.97373e-09 -0.000158187)
(-1.2693e-08 -7.90802e-09 -0.000158479)
(-1.06278e-08 -6.22567e-09 -0.000158581)
(3.67112e-09 9.02687e-09 -0.000158344)
(-7.42195e-09 -1.01436e-08 -0.000158459)
(1.73977e-08 2.95692e-10 -0.000158178)
(-9.7878e-09 -3.32067e-09 -0.000158144)
(1.67355e-08 7.17573e-09 -0.00015845)
(-4.09555e-09 -6.61178e-09 -0.000158326)
(1.04862e-08 9.88292e-09 -0.000158582)
(1.46859e-08 8.0796e-09 -0.000158447)
(-1.04171e-08 -3.45373e-09 -0.000158153)
(1.06896e-08 9.69015e-09 -0.000158564)
(-3.43592e-09 -8.87625e-09 -0.000158323)
(1.62843e-08 -4.74209e-09 -0.00014801)
(-1.47733e-08 1.15946e-08 -0.000148359)
(1.95825e-08 9.31082e-09 -0.00014831)
(-1.14877e-08 -6.29557e-09 -0.000147978)
(-1.71176e-08 1.12081e-08 -0.000148346)
(1.65505e-08 -3.64374e-09 -0.000148016)
(2.46997e-09 -9.94972e-09 -0.000158342)
(-1.08519e-08 8.40254e-09 -0.000158594)
(-9.37762e-09 9.94751e-09 -0.000158473)
(1.52012e-08 -1.16677e-09 -0.000158176)
(-1.2318e-08 5.95058e-09 -0.000158573)
(3.58398e-09 -8.83683e-09 -0.000158342)
(-4.49928e-09 1.36201e-08 -0.000148254)
(1.36067e-08 -7.52216e-09 -0.000148552)
(1.03258e-08 1.3573e-08 -0.000148517)
(-5.2087e-09 -1.21465e-08 -0.000148237)
(1.31507e-08 -1.04942e-08 -0.000148535)
(-3.9107e-09 1.46198e-08 -0.000148263)
(6.15428e-09 -1.04406e-08 -0.000148258)
(-1.21825e-08 1.17899e-08 -0.000148551)
(5.09758e-09 1.27518e-08 -0.000148255)
(-1.29054e-08 -1.18526e-08 -0.000148552)
(-1.15804e-08 1.1093e-08 -0.000148527)
(6.14234e-09 -1.08214e-08 -0.000148258)
(-1.12971e-08 -1.36223e-08 -0.000148523)
(6.10962e-09 9.24396e-09 -0.000148255)
(-1.2297e-08 2.49751e-09 -0.000158153)
(1.47035e-08 -9.10315e-09 -0.000158461)
(1.04047e-08 -6.84804e-09 -0.000158571)
(-2.68638e-09 1.02535e-08 -0.000158331)
(1.24993e-08 -9.88973e-09 -0.000158446)
(-1.5793e-08 1.44879e-09 -0.000158161)
(-1.56566e-08 5.27378e-09 -0.00014799)
(1.62605e-08 -1.11042e-08 -0.000148343)
(2.35927e-08 1.41031e-09 -0.000147996)
(-1.36523e-08 -1.32321e-08 -0.000148347)
(1.78489e-08 -9.86068e-09 -0.000148321)
(-1.77408e-08 4.74791e-09 -0.000147995)
(-1.63803e-08 -1.16782e-08 -0.000148327)
(1.92098e-08 2.81386e-09 -0.000148001)
(2.86363e-09 9.94759e-09 -0.000158325)
(-8.64107e-09 -1.31227e-08 -0.000158575)
(2.05423e-08 -2.59525e-09 -0.000158163)
(-1.21161e-08 -9.90343e-09 -0.000158462)
(-8.8563e-09 -1.09673e-08 -0.000158548)
(6.58823e-09 4.38414e-09 -0.000158315)
(-1.22529e-08 -8.87947e-09 -0.000158445)
(1.4659e-08 1.19542e-09 -0.000158158)
(-1.0702e-08 -2.61472e-09 -0.000158141)
(1.15071e-08 1.00776e-08 -0.000158448)
(-4.24439e-09 -7.29181e-09 -0.000158301)
(1.24827e-08 7.56409e-09 -0.000158563)
(1.34953e-08 8.95467e-09 -0.000158427)
(-1.55089e-08 -1.07678e-10 -0.000158144)
(1.27469e-08 6.10758e-09 -0.000158546)
(-1.65067e-09 -1.14487e-08 -0.000158305)
(1.7849e-08 -3.66482e-09 -0.000147997)
(-1.17015e-08 1.3116e-08 -0.000148343)
(1.5941e-08 1.06988e-08 -0.000148291)
(-1.90598e-08 -3.01486e-09 -0.000147961)
(-2.00387e-08 1.00767e-08 -0.000148325)
(1.92683e-08 -2.35026e-09 -0.000148001)
(2.47696e-09 -9.46236e-09 -0.000158314)
(-9.94358e-09 1.08846e-08 -0.000158567)
(-1.89358e-08 4.53573e-09 -0.000158442)
(1.37944e-08 -1.47056e-09 -0.000158165)
(-1.53347e-08 -5.87387e-10 -0.000158541)
(2.42676e-09 -1.00833e-08 -0.000158308)
(-4.19274e-09 1.25368e-08 -0.00014824)
(1.32335e-08 -1.05433e-08 -0.00014853)
(1.2753e-08 7.97338e-09 -0.000148501)
(-4.76258e-09 -1.22074e-08 -0.000148217)
(1.2407e-08 -1.30378e-08 -0.000148516)
(-4.42456e-09 1.0874e-08 -0.000148243)
(4.43967e-09 -1.24298e-08 -0.000148235)
(-1.29901e-08 1.10376e-08 -0.000148523)
(3.89934e-09 1.17607e-08 -0.000148226)
(-1.37469e-08 -9.77315e-09 -0.000148517)
(-1.25038e-08 8.37437e-09 -0.000148495)
(5.12455e-09 -1.07289e-08 -0.000148227)
(-1.21054e-08 -1.03214e-08 -0.000148489)
(4.30051e-09 1.13108e-08 -0.000148218)
(-1.38041e-08 1.73876e-09 -0.000158142)
(1.63113e-08 -9.14069e-09 -0.000158443)
(9.40344e-09 -8.36983e-09 -0.000158547)
(-1.73293e-09 1.04213e-08 -0.00015831)
(1.18384e-08 -9.36079e-09 -0.000158416)
(-1.38906e-08 5.27809e-10 -0.000158143)
(-1.69049e-08 3.97699e-09 -0.000147977)
(1.59633e-08 -1.24908e-08 -0.000148326)
(1.90772e-08 2.52354e-09 -0.00014798)
(-1.55114e-08 -1.29084e-08 -0.000148324)
(1.89001e-08 -9.4406e-09 -0.000148297)
(-1.75621e-08 2.91699e-09 -0.000147979)
(-1.86815e-08 -1.09328e-08 -0.000148301)
(1.80409e-08 3.15577e-09 -0.000147978)
(3.55324e-09 7.87412e-09 -0.000158289)
(-1.17019e-08 -8.35783e-09 -0.000158541)
(1.66007e-08 -5.35607e-10 -0.000158141)
(-1.51631e-08 -8.19834e-09 -0.00015844)
(-1.20735e-08 -5.90254e-09 -0.000158512)
(3.264e-09 1.02547e-08 -0.000158276)
(-1.50546e-08 -6.69708e-09 -0.000158413)
(1.31488e-08 1.43058e-09 -0.000158131)
(-1.13552e-08 -2.63596e-09 -0.000158118)
(1.24633e-08 9.2667e-09 -0.000158407)
(-2.9013e-09 -9.25325e-09 -0.000158286)
(1.14098e-08 7.09779e-09 -0.000158528)
(1.44824e-08 8.68565e-09 -0.000158376)
(-1.42107e-08 -1.93742e-09 -0.000158096)
(1.22301e-08 6.93636e-09 -0.000158503)
(-2.21e-09 -1.2079e-08 -0.000158266)
(1.22869e-08 -5.85097e-09 -0.000147968)
(-2.05491e-08 9.26734e-09 -0.000148305)
(2.04011e-08 9.19433e-09 -0.000148248)
(-1.57559e-08 -5.35516e-09 -0.000147917)
(-2.7456e-08 8.14694e-09 -0.000148279)
(1.17646e-08 -6.52112e-09 -0.000147958)
(-8.57363e-10 -1.58913e-08 -0.000158281)
(-1.23615e-08 6.12621e-09 -0.000158524)
(-1.95425e-08 4.49739e-09 -0.000158399)
(6.4413e-09 -5.39033e-09 -0.000158114)
(-1.14374e-08 7.8658e-09 -0.000158495)
(1.86784e-09 -1.0456e-08 -0.000158271)
(-4.99274e-09 1.16573e-08 -0.000148218)
(1.10104e-08 -1.28327e-08 -0.000148506)
(1.27941e-08 9.54767e-09 -0.000148459)
(-4.73935e-09 -1.44395e-08 -0.000148178)
(1.11751e-08 -1.52671e-08 -0.000148484)
(-6.57271e-09 7.14433e-09 -0.000148212)
(4.24549e-09 -1.51934e-08 -0.000148199)
(-1.40141e-08 7.8746e-09 -0.000148486)
(4.16482e-09 1.17041e-08 -0.00014819)
(-1.22189e-08 -1.14468e-08 -0.000148478)
(-1.16286e-08 1.23189e-08 -0.000148457)
(5.15117e-09 -1.2823e-08 -0.000148188)
(-1.33006e-08 -1.0539e-08 -0.000148456)
(4.72828e-09 1.05985e-08 -0.00014818)
(-1.33008e-08 1.91927e-09 -0.000158107)
(1.61275e-08 -8.05694e-09 -0.000158395)
(8.43619e-09 -1.09622e-08 -0.000158517)
(-5.00678e-09 6.12123e-09 -0.000158278)
(1.48217e-08 -8.49894e-09 -0.000158373)
(-1.2286e-08 1.94298e-09 -0.000158094)
(-1.64818e-08 4.63274e-09 -0.000147947)
(1.88198e-08 -1.02e-08 -0.000148285)
(1.87399e-08 2.83608e-09 -0.00014795)
(-1.99816e-08 -1.07387e-08 -0.000148283)
(2.17832e-08 -9.01417e-09 -0.000148259)
(-1.42649e-08 5.46438e-09 -0.000147935)
(-2.37669e-08 -9.61761e-09 -0.000148256)
(1.34173e-08 4.64755e-09 -0.000147935)
(2.14192e-09 1.14328e-08 -0.000158252)
(-9.76097e-09 -9.67861e-09 -0.000158497)
(1.39603e-08 6.47565e-10 -0.000158109)
(-1.67271e-08 -6.75625e-09 -0.000158395)
(-1.04025e-08 -7.36152e-09 -0.000158479)
(4.59023e-09 6.22208e-09 -0.000158236)
(-1.54183e-08 -7.99518e-09 -0.000158371)
(1.21086e-08 2.0322e-09 -0.000158091)
(-1.0625e-08 -2.98761e-09 -0.000158074)
(1.41929e-08 9.1829e-09 -0.000158371)
(-2.78535e-09 -8.84169e-09 -0.00015824)
(1.10561e-08 8.5304e-09 -0.000158501)
(1.49964e-08 6.82486e-09 -0.000158358)
(-1.36303e-08 -1.60897e-09 -0.000158071)
(9.83949e-09 7.57415e-09 -0.000158486)