/*--------------------------------*- C++ -*----------------------------------*\
| =========                 |                                                 |
| \\      /  F ield         | OpenFOAM: The Open Source CFD Toolbox           |
|  \\    /   O peration     | Version:  2206                                  |
|   \\  /    A nd           | Website:  www.openfoam.com                      |
|    \\/     M anipulation  |                                                 |
\*---------------------------------------------------------------------------*/
FoamFile
{
    version     2.0;
    format      ascii;
    arch        "LSB;label=32;scalar=64";
    class       volScalarField;
    location    "10";
    object      omega;
}
// * * * * * * * * * * * * * * * * * * * * * * * * * * * * * * * * * * * * * //

dimensions      [0 0 -1 0 0 0 0];

internalField   nonuniform List<scalar> 
66940
(
19.0245
20.4526
20.3862
21.7723
18.9261
20.482
20.3767
21.6896
18.9495
20.4816
20.3768
21.6814
18.893
20.4212
20.3417
21.6988
18.853
20.4012
20.3008
21.6742
18.86
20.4328
20.2929
21.7752
18.8392
20.4236
20.3134
21.6994
18.8657
20.4177
20.3535
21.6925
18.8817
20.4486
20.3759
21.6492
18.8896
20.4448
20.3652
21.7287
18.8935
20.3819
20.3481
21.6232
19.0717
21.085
20.9938
23.4463
21.6694
20.4667
20.464
21.5877
20.5284
20.4861
20.4269
20.7023
21.611
20.4247
20.4164
21.6761
21.5903
21.6109
20.4696
20.4433
20.4096
20.4138
21.5077
21.6034
20.5232
20.4693
20.4894
20.4448
20.6774
20.49
20.628
21.5121
21.6416
20.4548
20.3895
20.3997
21.6517
21.6297
21.6952
20.4062
20.4415
20.4035
20.3985
21.5519
21.6199
20.4836
20.4585
20.4819
20.439
20.5822
20.486
20.546
21.5877
21.6247
20.4147
20.3895
20.3412
21.5854
21.6391
21.699
20.4144
20.4142
20.4021
20.3812
21.545
21.6569
20.4698
20.4244
20.4476
20.3987
20.5634
20.4264
20.5073
21.5625
21.6036
20.3561
20.3724
20.3631
21.6385
21.5815
21.6581
20.4249
20.4174
20.4004
20.3853
21.5708
21.6467
20.4305
20.3691
20.4378
20.3759
20.5136
20.4058
20.4802
21.4895
21.6056
20.3919
20.3001
20.3514
21.5756
21.568
21.6921
20.4153
20.4176
20.3984
20.3869
21.5506
21.6282
20.4277
20.3857
20.4463
20.3606
20.5035
20.4266
20.5007
21.4786
21.5979
20.3598
20.287
20.3671
21.6797
21.594
21.6725
20.4155
20.4105
20.3862
20.3763
21.6454
21.6322
20.4518
20.3617
20.46
20.3587
20.5237
20.4327
20.4901
21.5075
21.5835
20.4061
20.3343
20.3531
21.645
21.5897
21.7218
20.4123
20.4111
20.4019
20.3809
21.5862
21.6718
20.4663
20.3603
20.4535
20.3623
20.5073
20.4173
20.481
21.5224
21.6162
20.3713
20.3712
20.3354
21.6767
21.592
21.6829
20.4243
20.4043
20.3907
20.3728
21.5726
21.6192
20.4547
20.3763
20.4309
20.3529
20.4903
20.461
20.471
21.576
21.6176
20.3561
20.3936
20.3216
21.6078
21.6363
21.6782
20.4113
20.4106
20.4184
20.381
21.5225
21.6824
20.443
20.3602
20.4538
20.3546
20.4665
20.4487
20.4644
21.5152
21.6349
20.3058
20.3852
20.3139
21.7147
21.5778
21.5928
20.4076
20.3912
20.3277
20.3937
21.5694
21.6453
20.4479
20.3753
20.408
20.3575
20.4874
20.4301
20.4306
21.5535
21.5572
20.3401
20.3206
20.3082
21.5971
21.5779
21.9929
20.3884
20.3912
20.7429
20.7896
21.5218
21.9314
20.4335
20.401
20.7949
20.7941
20.4179
20.5687
20.7546
21.5511
21.9738
20.3945
20.6532
20.8551
22.0981
23.2222
21.0751
21.0763
23.5043
21.0936
21.0877
18.9935
19.0081
18.9933
21.0762
23.101
21.1403
335.56
19.2588
19.1007
19.0224
19.0794
29.1834
20.434
60.1858
19.6736
21.716
113.698
111.083
64.0115
210.251
64.573
210.165
335.672
335.226
68.2051
214.932
69.053
213.655
19.2371
19.2016
19.2724
19.1579
18.982
18.9608
18.9599
29.1429
60.4995
19.7173
20.4588
29.315
59.503
19.8908
335.844
335.101
28.1504
19.5929
57.4838
20.4043
28.4033
19.7185
57.9156
115.332
112.104
21.7119
115.048
111.87
63.5501
211.688
64.2892
210.158
335.255
334.649
70.2163
214.239
69.3843
214.113
19.2357
19.0546
19.1096
19.0305
18.9777
18.8595
18.8381
29.6058
59.7547
19.6992
20.4889
29.4688
60.3027
19.753
335.694
334.933
28.3701
19.5389
58.347
20.4053
28.4209
19.6228
58.4979
114.312
112.535
21.6301
113.959
111.873
63.3772
211.6
61.8484
212.478
334.904
334.474
71.0187
215.385
71.0612
214.594
19.2118
19.135
19.0962
18.8752
18.8946
18.8227
18.8619
29.8065
60.532
19.6505
20.459
29.9863
60.3453
19.7519
335.093
333.13
28.4217
19.5099
58.8832
20.3779
28.4797
19.6703
58.4652
113.779
112.278
21.6049
113.015
112.395
64.3546
212.71
64.2045
212.809
335.017
335.15
70.5742
215.101
70.6498
214.74
19.0361
18.9021
19.0168
18.9171
18.7861
18.7447
18.7579
29.5233
60.5594
19.6188
20.424
29.8309
60.0973
19.7265
335.352
333.75
28.7633
19.4987
58.8992
20.3344
28.6549
19.5364
58.7846
114.464
113.107
21.6437
114.697
111.812
64.6061
213.942
64.9758
212.692
335.151
334.634
70.4097
215.223
70.1729
214.899
18.918
18.8572
18.9788
19.0612
18.7534
18.7612
18.8254
29.4034
60.4362
19.5876
20.4083
30.0372
60.5076
19.7823
335.313
334.464
28.7073
19.4232
58.3353
20.3143
28.6716
19.5902
58.6634
114.602
111.972
21.6941
115.012
111.842
64.2274
212.173
64.4301
211.813
334.883
334.408
70.1579
215.691
71.2006
215.281
19.0591
18.9925
19.0832
19.0355
18.794
18.7322
18.7545
29.6243
60.483
19.6748
20.4374
30.0304
59.8362
19.7509
335.426
333.033
28.4116
19.4303
58.939
20.3212
28.5734
19.606
58.476
114.168
112.515
21.7137
113.841
112.293
63.5355
213.393
64.456
213.27
334.19
333.288
67.1725
215.829
68.9447
213.286
18.8113
19.0377
19.0483
19.0904
18.7636
18.7728
18.819
29.9175
59.7051
19.6649
20.4292
29.7693
58.4093
19.8018
335.755
335.472
28.1222
19.4529
58.2305
20.3522
28.3072
19.5523
58.52
113.922
112.232
21.6959
113.73
111.477
63.4489
213.051
64.0926
212.904
333.827
332.486
65.3986
215.489
66.723
214.462
19.0593
18.9066
18.9142
18.9895
18.8206
18.6861
18.7427
30.1115
60.2355
19.6155
20.4593
30.0671
60.0026
19.7102
335.409
333.878
28.8331
19.4745
59.2963
20.4171
28.6175
19.5676
59.4976
113.276
111.853
21.6025
113.814
111.296
60.8863
213.313
63.7152
211.521
334.966
334.213
65.9121
214.96
65.5364
215.095
18.9735
18.9709
18.8854
19.0852
18.8114
18.8007
18.8329
29.8444
60.5145
19.6153
20.4534
29.7479
60.3797
19.7675
335.673
335.077
28.9067
19.4707
60.2582
20.3789
28.7188
19.5556
60.2084
113.932
112.316
21.6861
113.778
110.415
63.5142
211.779
64.2057
210.855
333.882
331.992
67.0813
215.266
67.0343
215.179
19.1772
19.013
19.1523
18.8043
18.7943
18.8012
18.7989
29.7999
61.2032
19.6298
20.4333
29.8831
60.9519
19.7866
335.108
333.794
28.7494
19.4604
60.0495
20.4037
28.8957
19.6126
59.4399
115.224
111.144
21.6154
113.936
109.799
67.8708
215.413
65.9953
214.943
334.439
336.478
69.0363
215.854
67.5048
215.795
18.8932
18.9492
18.873
19.0497
18.9657
18.9787
18.9693
30.5389
60.2301
19.5705
20.3575
30.0127
62.3319
19.6876
334.526
329.39
30.0797
19.4974
60.6017
20.3945
29.1039
19.7313
63.2158
115.412
110.762
21.6463
117.145
115.795
131.331
2049.14
150.639
387.418
1791.45
582.971
141.588
2051.85
149.19
382.968
19.7656
18.8174
18.7704
20.3179
18.7428
19.7409
19.7971
56.7738
277.63
19.9134
21.44
44.5895
210.423
20.3634
1791.4
595.309
56.468
19.8889
276.067
21.3378
43.1693
20.2439
194.982
338.774
333.886
23.6396
355.569
357.591
330.334
329.907
333.866
336.754
21.6908
110.226
112.517
110.397
114.315
211.365
20.551
60.0583
63.3905
210.773
208.72
63.6813
65.8217
211.883
212.312
65.0504
28.5019
20.5098
57.6718
19.6586
59.3354
19.729
28.1876
28.6323
20.4699
59.1819
19.6025
57.5713
19.6521
28.4497
21.5947
111.098
110.445
334.982
332.745
331.727
21.481
112.345
110.989
110.047
108.281
333.95
332.016
68.316
214.749
215.834
66.8373
29.5674
20.5342
60.1701
19.677
61.7373
19.7852
29.8229
69.4468
213.569
215.221
70.8136
29.5888
20.5069
19.6381
59.7741
19.686
60.5926
30.2488
66.5979
213.935
28.8928
20.6633
19.7361
61.1328
66.6807
215.556
28.7513
20.4242
60.471
19.7592
59.2352
19.8716
29.184
64.1279
214.881
212.211
66.8839
28.4678
20.6819
19.7171
61.2263
19.7684
59.6462
29.2109
65.5835
217.172
212.709
67.031
332.274
336.42
21.6212
113.022
109.267
113.079
109.965
332.648
332.979
28.9809
20.3977
19.636
55.2076
19.639
58.2374
28.332
28.3092
20.426
19.6271
58.7197
19.6558
59.8554
28.6482
66.8046
209.403
209.037
64.5803
66.6268
210.363
209.778
64.0445
333.104
330.307
21.6549
114.829
108.956
111.401
107.077
337.565
335.537
334.14
333.19
327.589
332.788
328.945
334.438
107.953
107.013
21.6017
108.859
110.878
331.288
326.983
336
329.671
21.6463
110.5
111.179
106.638
107.09
64.7364
208.489
61.5341
211.799
28.1115
56.8443
19.7425
20.4418
27.3771
58.2635
19.6751
28.609
56.1492
19.6797
20.4375
28.079
59.7886
19.7103
61.1189
211.146
207.868
63.3831
63.0549
211.334
208.023
65.3755
27.2879
20.4355
58.192
19.5966
55.7437
19.6472
28.3396
28.3613
20.4286
58.581
19.5774
57.2533
19.7115
28.4238
109.519
104.263
21.572
112.775
109.27
328.02
334.544
335.009
331.912
21.4728
112.683
110.133
107.175
105.407
334.402
332.877
29.6149
57.0319
19.7159
20.5189
28.9984
59.4085
19.7324
70.6287
210.026
68.5032
210.259
30.1928
19.7278
57.2934
20.4526
29.4861
19.6755
58.5931
64.5155
212.229
210.091
66.8211
28.9093
20.4863
59.2725
19.632
56.7721
19.7594
29.6862
68.586
212.28
204.997
70.512
29.4542
20.4435
19.6083
58.9897
19.6567
57.4333
30.306
66.8186
212.225
64.4872
214.182
29.2511
19.7953
58.7229
20.6719
28.7213
19.7579
62.6842
67.1311
215.83
65.9265
214.553
28.4014
20.4499
57.3194
19.7733
55.7204
19.7416
29.1502
64.6931
213.986
210.252
67.2245
28.57
20.6696
19.7099
62.4308
19.761
59.7754
29.3304
64.0623
217.111
216.513
67.47
111.564
105.843
21.5799
112.608
109.503
328.279
331.454
335.514
331.844
21.555
112.081
110.785
109.87
107.513
333.661
332.716
28.3914
19.7642
56.9744
20.4261
27.4024
19.7034
59.0023
64.1205
206.279
60.9597
210.119
63.6344
206.259
61.124
211.545
27.5183
20.3899
19.6004
57.5647
19.6437
55.9027
28.1496
27.9017
20.4202
19.5878
59.3676
19.6609
56.5854
28.4553
62.3022
210.821
208.25
64.0627
61.9995
213.074
209.58
64.2076
335.983
337.948
331.907
334.337
21.6084
111.4
109.99
113.258
108.63
336.314
332.954
334.585
333.207
332.04
333.206
333.46
334.678
107.814
109.103
21.6783
109.926
112.357
332.535
331.361
336.457
330.491
21.5751
108.997
112.152
106.823
108.769
63.9692
205.809
63.322
211.184
28.4048
56.0025
19.7642
20.4193
28.1111
56.809
19.6058
28.4459
56.9102
19.7484
20.4216
28.3318
59.0894
19.6176
61.1164
209.797
208.664
63.0627
61.9642
210.655
206.965
63.8662
27.8444
20.4265
58.2281
19.5179
58.1437
19.5539
28.1889
27.6716
20.4145
58.4611
19.5862
56.5266
19.722
28.3278
110.814
106.309
21.5949
113.239
110.075
332.524
333.923
331.843
332.587
21.5562
111.962
110.461
110.332
106.491
333.974
330.45
30.0304
57.3305
19.6489
20.4819
29.2316
60.1623
19.6285
69.8879
208.881
68.5176
212.409
30.4036
19.6797
57.3917
20.4685
29.6447
19.7126
59.2913
68.7395
214.713
212.435
70.3956
29.8404
20.4747
59.6026
19.5801
58.0519
19.6265
30.4511
68.8793
211.764
208.455
71.4353
29.6981
20.4725
19.5802
58.4766
19.6264
55.0157
30.5988
67.6353
210.655
66.0529
214.172
29.6142
19.8107
61.023
20.5649
28.8461
19.8534
61.3901
68.1093
214.025
65.7752
213.199
28.69
20.5097
60.245
19.6814
58.2525
19.6935
29.9576
66.6532
212.922
212.139
68.6284
29.2032
20.5565
19.6433
60.2084
19.6911
58.3435
29.746
66.6431
212.346
213.869
68.4679
109.767
107.429
21.6517
112.926
111.314
328.719
334.026
334.546
331.051
21.595
112.128
111.632
109.972
110.082
333.791
332.235
28.4892
19.666
55.9676
20.3925
28.0284
19.6003
58.1743
64.1813
208.75
61.911
210.719
65.0005
209.647
62.7231
213.475
27.6013
20.4055
19.548
58.4732
19.5652
57.0285
27.8291
27.9847
20.3535
19.5472
59.9768
19.5892
58.9347
28.5708
60.8275
210.732
209.409
64.3424
63.4177
214.132
210.486
65.176
332.543
336.835
333.4
332.052
21.5668
112.701
110.962
107.608
108.626
333.371
334.555
334.863
334.322
330.917
333.493
334.61
335.452
104.726
109.225
21.6338
109.665
112.97
333.351
331.23
336.491
330.587
21.6549
110.445
112.43
108.038
109.034
63.739
204.257
61.6241
210.251
28.0453
57.079
19.5889
20.4125
27.7392
59.5002
19.5557
28.2528
56.2268
19.7553
20.4042
27.7497
58.4951
19.6157
59.3845
208.647
208.018
63.2439
59.6922
210.967
207.492
64.1956
27.1717
20.4071
59.971
19.5229
58.9447
19.5658
28.1805
27.7474
20.3934
58.3369
19.5575
56.0707
19.7035
28.2859
106.94
104.93
21.6081
110.032
110.137
330.461
334.734
332.867
332.441
21.5574
111.347
111.736
110.718
106.55
334.704
332.271
30.4225
59.5482
19.6944
20.4647
30.1271
59.5732
19.7623
71.6198
204.611
67.7393
207.482
30.3578
19.7534
55.0371
20.4224
29.7338
19.6445
58.7278
68.5367
212.623
213.144
69.9047
29.1935
20.4561
60.7381
19.5725
60.9317
19.6124
29.7867
70.1736
211.174
210.877
69.8437
29.1486
20.4042
19.5693
59.1156
19.6877
58.1003
30.3914
68.8694
212.802
66.5634
213.947
29.4347
19.7618
59.6168
20.5454
29.2601
19.7729
60.989
67.3687
214.094
65.912
214.298
28.7193
20.4301
58.642
19.6911
58.7701
19.7819
29.8693
67.1025
213.132
207.961
68.4511
28.2948
20.5243
19.6991
59.1053
19.6221
57.9241
29.4405
64.5966
216.065
210.511
66.9003
110.394
109.667
21.5893
112.39
110.767
330.758
332.879
331.8
331.585
21.5296
112.151
111.887
107.11
108.413
334.603
331.141
28.4368
19.7133
57.5494
20.3663
28.1241
19.5621
59.4181
63.9051
208.708
61.5447
208.414
64.6038
211.762
61.5345
213.676
27.9598
20.3794
19.6251
58.3625
19.5407
57.2841
28.1513
28.0271
20.3841
19.4877
60.572
19.6128
57.1544
28.6439
62.249
211.275
204.926
64.4303
62.4051
214.727
209.601
65.1475
336.373
332.523
333.48
332.365
21.6356
110.908
110.143
107.317
110.411
337.607
334.143
335.324
334.887
331.435
333.713
333.412
335.483
108.568
111.049
21.6718
110.149
112.691
333.749
330.226
335.543
333.286
21.6072
109.099
112.148
106.111
111.553
64.4947
205.283
62.7748
210.692
28.3148
56.8455
19.6463
20.4215
27.7541
59.2393
19.5808
28.3391
56.4637
19.7021
20.4034
27.9081
58.8946
19.5676
61.0156
210.787
210.469
62.2101
63.099
212.307
206.931
65.2489
27.5129
20.4193
59.1188
19.5087
56.539
19.5506
28.5686
27.956
20.3954
59.1537
19.4737
55.2238
19.606
28.4829
107.965
108.426
21.6585
113.13
110.298
331.877
332.417
334.815
332.054
21.5766
110.451
111.234
110.155
103.535
335.01
329.141
30.2305
59.6165
19.682
20.4395
30.1062
61.3029
19.6983
71.2732
206.965
70.6937
211.395
30.4405
19.6429
56.0568
20.3756
29.3166
19.7001
59.5494
66.6121
211.726
212.977
67.9211
29.7824
20.4144
60.4033
19.6377
58.647
19.5513
30.1824
68.8994
212.244
203.997
69.4056
29.2901
20.376
19.5909
59.9916
19.5535
57.3127
30.3943
67.7472
209.863
65.2528
212.777
29.7763
19.6126
59.7953
20.4995
28.6311
19.7017
61.3539
68.0568
211.189
65.0965
214.768
28.9191
20.4134
58.3806
19.5358
56.9224
19.5781
29.5921
64.8341
213.211
208.721
68.6431
29.1414
20.4918
19.5441
61.2737
19.5604
59.6677
29.8567
64.7592
215.712
214.373
66.751
107.607
107.151
21.5894
110.815
111.151
332.761
334.385
334.818
332.535
21.5631
112.795
109.491
112.849
108.929
333.704
330.941
28.9274
19.6576
57.2851
20.3754
27.8648
19.5241
59.9998
64.896
205.608
60.9327
210.505
63.7872
210.575
62.2248
213.415
28.2261
20.3256
19.5455
57.7105
19.5533
57.2619
28.0946
27.9379
20.382
19.6026
59.8571
19.4928
59.1245
28.8276
62.2871
210.271
206.778
64.9285
65.2836
212.857
211.547
66.1747
336.569
334.942
333.859
334.637
21.5445
113.542
108.718
110.466
107.087
337.694
332.963
334.059
332.799
331.19
333.241
330.395
335.371
105.479
109.342
21.6936
109.468
112.333
333.978
328.357
333.036
331.122
21.6037
109.952
113.241
106.738
109.441
64.9376
206.13
63.6238
212.09
28.5734
57.8027
19.5909
20.4182
28.3801
58.6751
19.6247
28.6789
56.1136
19.5982
20.4077
28.5757
59.2745
19.6884
61.3718
211.193
206.405
62.7215
63.8152
211.714
206.834
65.1852
27.8254
20.4239
58.6174
19.4746
55.3248
19.601
28.3867
28.2523
20.4008
58.6762
19.4801
57.0689
19.5188
28.5511
111.279
105.75
21.6438
112.716
111.147
329.159
332.003
334.599
332.894
21.5688
111.868
112.992
106.784
107.616
335.228
334.295
30.1521
58.1778
19.5622
20.4349
29.5063
60.512
19.586
70.8076
209.819
67.7053
210.691
30.3296
19.6798
57.3193
20.3789
29.9686
19.571
58.8395
67.963
214.79
211.525
69.1753
29.4143
20.4179
60.1226
19.5337
58.2552
19.641
30.2298
68.2587
211.307
207.905
70.3955
29.2263
20.3506
19.5271
58.9634
19.6287
56.0923
30.3592
68.2574
210.31
68.9156
213.069
30.0006
19.6723
59.2903
20.5034
29.4503
19.7214
60.7517
68.9239
210.807
68.5216
213.93
29.7437
20.4232
60.2002
19.6322
57.0091
19.6288
30.0339
67.3933
212.743
205.83
68.8589
28.6824
20.5048
19.6006
61.2431
19.6752
58.9718
30.0769
66.9753
216.22
215.484
69.2473
110.598
108.58
21.5475
110.924
109.718
330.706
333.257
335.034
333.016
21.5165
111.381
108.715
109.262
105.425
332.742
330.701
28.6988
19.5224
58.8005
20.3573
28.1217
19.5034
60.2152
65.0487
204.975
62.643
211.257
65.5834
211.439
63.8994
213.766
28.2333
20.2771
19.4387
56.9671
19.4653
57.3331
27.9574
28.1703
20.3654
19.5015
60.2204
19.53
57.8504
28.7844
61.5329
211.505
205.126
64.6199
63.7905
214.828
210.98
65.8283
336.586
337.043
332.501
333.978
21.596
113.261
111.303
111.937
107.603
337.039
335.909
334.429
330.28
331.149
332.809
335.123
333.101
107.648
110.504
21.6988
110.594
115.127
334.785
331.122
337.46
335.306
21.5961
110.59
115.489
108.166
109.546
64.6276
207.247
62.859
210.685
28.2863
55.4486
19.5887
20.4022
27.7042
59.1832
19.4612
28.6095
56.3902
19.622
20.3926
27.672
58.3006
19.6414
61.2646
212.382
209.873
63.8642
62.0613
210.826
208.098
64.1295
27.5814
20.4044
59.055
19.4861
58.0739
19.4528
28.3107
28.0929
20.383
58.5122
19.5681
55.0815
19.4742
28.3686
110.189
110.524
21.6371
111.794
111.759
329.94
333.439
333.914
331.814
21.6109
108.192
110.593
110.358
108.642
334.146
332.65
29.874
60.614
19.6005
20.4522
29.8914
61.7181
19.6695
68.724
208.673
67.0305
212.163
30.3504
19.5994
57.5285
20.3631
29.9641
19.6028
60.1133
69.503
215.253
211.891
68.824
29.9662
20.4417
60.9558
19.5604
58.4976
19.687
30.0796
69.8158
212.228
207.512
69.8992
30.0216
20.3665
19.4923
59.6935
19.6052
58.7464
30.1317
68.1511
210.454
65.7986
212.378
29.569
19.7765
59.4244
20.5071
29.4957
19.6366
61.1026
67.8206
213.914
66.0973
213.3
28.7553
20.4447
58.9434
19.7175
57.0689
19.7286
29.1343
65.235
212.934
209.913
68.1498
28.3515
20.4973
19.5487
60.0555
19.6588
58.2763
29.6528
65.2619
215.735
210.505
67.6194
108.331
103.642
21.5199
113.234
108.499
329.847
332.841
331.793
331.382
21.5798
112.114
108.86
106.337
105.209
332.687
331.274
28.5121
19.6585
58.7837
20.3843
28.3442
19.7334
60.2137
64.2378
205.013
62.5751
210.424
65.4087
212.461
62.4273
214.757
27.9667
20.3448
19.5608
57.4172
19.4754
53.986
28.0217
28.1398
20.3735
19.5166
59.3494
19.5587
58.6179
28.818
61.9505
209.812
206.521
63.4594
62.4429
214.898
213.002
64.186
336.054
336.564
330.065
334.413
21.5856
113.034
111.749
111.076
106.88
336.637
336.085
332.92
332.697
328.807
333.863
335.274
335.884
107.14
110.14
21.712
110.88
114.469
333.173
331.148
333.1
330.855
21.5909
109.897
113.48
107.726
111.938
63.9459
206.248
61.2812
211.129
28.1994
56.3575
19.6297
20.4148
27.9836
59.8155
19.6274
28.2723
57.0375
19.5536
20.4036
28.0183
58.7533
19.5931
60.6217
212.096
210.881
61.6641
61.7044
210.353
207.481
63.7309
28.0052
20.4088
58.7784
19.4928
57.1051
19.5763
27.6127
27.5609
20.3941
57.6594
19.4665
55.6544
19.5864
28.5043
110.093
105.097
21.6633
111.531
110.426
331.644
333.442
332.956
330.139
21.5899
109.321
112.335
107.504
106.37
333.525
330.72
29.5865
59.0551
19.6302
20.4582
28.9597
61.1341
19.612
68.2691
207.038
65.96
211.196
29.244
19.686
55.9614
20.357
29.6254
19.5903
59.257
64.6499
215.086
208.844
64.4556
28.7146
20.4362
60.4411
19.5769
57.6879
19.6211
29.0366
65.6724
211.131
205.859
65.9275
29.3989
20.3643
19.5437
58.3351
19.6612
58.2897
29.0751
68.8195
211.626
65.1469
208.746
29.7104
19.6858
57.575
20.4926
28.6149
19.5716
60.2656
68.2859
211.579
66.2684
214.238
29.3722
20.4143
58.1744
19.7371
59.0025
19.6601
29.8545
67.4557
212.668
211.206
68.5849
29.047
20.4877
19.5327
61.4206
19.6293
56.8803
29.5952
64.7681
215.31
211.792
68.3429
110.406
104.819
21.5722
112.323
109.337
330.163
333.353
335.294
332.732
21.5279
112.581
109.257
109.981
105.565
334.007
328.847
28.7587
19.6745
57.9553
20.3336
28.3815
19.5295
59.3794
63.1537
207.208
62.1102
211.24
66.1311
210.425
65.0858
212.724
27.5123
20.3264
19.5202
57.0652
19.5288
57.7081
28.0253
27.8328
20.3336
19.4863
60.2426
19.5493
57.5829
29.1521
62.311
211.978
208.678
64.9647
65.1679
215.683
214.948
66.3247
332.646
334.093
333.581
333.255
21.6326
112.051
110.805
109.444
109.632
336.936
336.237
334.653
333.905
329.225
333.574
335.228
335.658
108.71
109.657
21.6575
110.493
112.633
334.92
328.712
335.568
332.671
21.6387
110.864
113.477
107.39
108.29
63.6026
207.287
60.7584
210.594
28.1666
57.2794
19.5668
20.4002
27.922
59.209
19.6604
28.3507
55.6296
19.6092
20.3939
27.5402
58.3169
19.5012
59.4658
212.944
207.183
60.7857
62.122
211.789
208.12
64.051
27.5125
20.3909
59.2217
19.5333
56.4381
19.5896
27.8932
28.2229
20.3882
58.8069
19.4671
56.2973
19.5846
28.5453
109.346
108.34
21.5736
111.037
110.108
327.072
333.442
331.419
331.486
21.5468
111.742
109.872
106.196
108.446
334.466
328.301
28.4061
57.4336
19.731
20.437
28.1035
60.27
19.6002
64.1567
207.458
62.0295
210.983
28.5943
19.6012
57.5934
20.3671
28.4207
19.586
58.6724
63.3411
213.89
208.898
64.6818
27.6707
20.4087
59.7949
19.5792
58.0112
19.6269
28.642
62.0127
210.883
207.712
65.1268
27.8765
20.3591
19.5595
58.4588
19.5735
56.9995
28.3773
69.7145
208.259
68.3441
213.224
29.42
19.6439
60.3413
20.4845
28.8974
19.6369
61.3107
68.2026
213.595
66.0059
215.282
29.4826
20.4356
60.013
19.6439
56.2758
19.6717
29.1729
67.1051
213.499
209.184
69.0044
29.5304
20.4574
19.6137
60.4401
19.6506
58.6604
29.667
66.1417
214.273
212.67
67.9219
108.132
106.107
21.6315
111.641
111.273
329.941
333.706
335.506
328.474
21.5898
113.487
111.053
108.824
108.574
333.986
332.691
29.1093
19.5734
58.0738
20.3696
28.7192
19.645
59.9091
66.4893
209.05
62.7796
213.062
66.435
214.182
63.7921
213.158
27.7935
20.37
19.4938
59.6673
19.523
58.1126
27.9601
28.5561
20.3524
19.4541
58.5741
19.4862
57.9179
29.0453
64.7755
211.884
209.291
65.3606
64.2266
212.931
208.112
66.5566
334.999
334.68
331.891
333.829
21.5403
112.848
108.881
108.185
107.899
336.94
336.531
333.758
330.336
328.474
333.403
331.553
336.396
108.371
108.539
21.6918
110.12
113.85
332.908
326.997
335.253
333.792
21.6036
109.53
114.052
106.15
108.352
63.3251
209.897
62.2047
211.61
28.1158
56.3194
19.7468
20.403
27.905
59.222
19.5932
28.2438
57.4981
19.6612
20.4221
27.3368
59.2835
19.537
62.1424
208.158
204.934
61.7451
60.2799
210.32
207.548
63.5661
27.1902
20.4244
58.7649
19.4802
57.4603
19.6192
28.084
27.9261
20.3789
58.3613
19.4615
55.5734
19.5895
28.4239
109.339
107.34
21.6518
111.143
110.916
328.746
334.201
333.443
331.847
21.5607
109.331
112.933
107.689
110.651
336.231
333.198
28.7829
59.4957
19.6953
20.4448
28.1046
60.2701
19.7548
65.941
207.742
61.4977
210.821
28.9471
19.6832
55.1712
20.3638
28.7252
19.7699
58.7874
64.1259
214.283
212.772
65.9332
28.0019
20.4272
60.1904
19.5526
59.2311
19.5949
29.0632
64.6458
210.896
208.231
66.0325
28.5988
20.3633
19.5983
59.3461
19.6741
56.0707
28.7997
68.733
210.857
65.1941
210.793
29.4717
19.7184
57.2113
20.4599
28.2728
19.7187
61.087
67.6056
209.053
63.4304
214.943
29.2671
20.4411
59.1538
19.6807
59.3585
19.8038
29.6996
65.5021
214.57
211.091
69.3722
28.857
20.4597
19.5804
62.0887
19.713
60.1758
29.4018
65.6231
216.992
213.454
67.9059
110.601
104.977
21.5938
113.492
110.391
330.018
334.51
334.881
329.549
21.5455
112.25
111.003
110.861
107.822
332.325
329.652
29.083
19.6543
56.7381
20.3311
28.1036
19.5199
59.2279
65.4204
211.726
64.2176
213.231
66.6269
209.665
64.5715
212.844
28.3771
20.3816
19.5883
59.4988
19.5875
57.6629
28.2319
28.7084
20.313
19.4867
59.7615
19.4896
58.3836
29.1181
61.9803
212.631
208.145
65.7959
65.3919
214.036
211.949
65.763
335.476
337.158
331.024
333.979
21.6005
112.094
109.069
112.448
105.256
336.307
335.193
334.051
331.995
329.218
328.894
333.783
334.814
104.43
109.407
21.6833
108.284
110.979
331.498
331.126
333.496
333.615
21.5754
108.934
113.787
105.336
112.733
63.5575
203.496
62.6238
209.688
28.0369
56.6859
19.5219
20.3985
27.4762
57.3741
19.633
28.2718
56.5274
19.5376
20.369
28.0412
59.3582
19.505
59.7612
207.999
206.597
63.0665
62.1663
207.617
207.814
65.2817
27.4218
20.3964
58.2282
19.4429
57.3197
19.5141
27.8091
27.9045
20.3922
58.3894
19.4415
57.1102
19.4918
28.0571
107.91
108.437
21.6399
111.278
112.098
329.003
334.593
330.607
330.925
21.5971
112.164
109.766
109.479
107.524
330.221
331.826
29.1027
60.8037
19.6715
20.4263
28.7005
61.2119
19.6161
66.0782
205.976
63.2212
211.128
29.2929
19.7695
56.0515
20.4093
28.728
19.6361
57.8884
64.16
213.897
213.377
66.2462
28.953
20.4269
60.5012
19.5377
60.3406
19.5879
29.1425
64.8503
208.534
209.393
66.4089
28.8429
20.3795
19.5431
59.9779
19.697
59.1523
29.4732
68.6697
211.154
66.7894
215.073
29.6207
19.6231
58.9933
20.4677
28.9336
19.7002
60.7276
68.5486
215.968
67.275
215.367
29.3153
20.439
59.3201
19.6623
58.5165
19.6295
29.7506
65.5306
213.247
211.839
67.5297
29.083
20.4744
19.567
62.0589
19.6622
61.9954
29.7596
66.208
216.374
215.032
68.1325
108.373
106.458
21.6419
111.791
111.521
331.788
333.858
333.475
330.157
21.5767
111.794
112.466
106.986
109.863
330.159
332.748
29.3537
19.5654
57.8012
20.3193
28.9009
19.522
59.6923
64.9764
211.128
63.8311
213.259
67.4288
212.599
67.0015
214.468
27.6334
20.3569
19.4519
58.6396
19.4829
58.6556
28.2366
28.8292
20.314
19.4603
59.9135
19.5154
58.0289
29.2528
62.1667
207.334
208.289
64.4268
63.7486
213.299
212.763
67.058
337.983
336.177
329.864
330.256
21.5848
112.529
107.53
110.1
104.23
336.188
334.787
329.231
332.646
330.135
330.149
332.614
330.749
105.92
111.916
21.6123
111.547
115.726
543.401
334.199
542.615
334.337
21.6906
152.827
141.18
109.478
115.191
66.5779
213.409
64.9301
214.391
28.3847
57.7251
19.6518
20.4455
28.2719
60.8424
19.5968
30.0326
58.1069
19.6227
20.4174
29.1381
61.9476
19.5781
66.4095
1051.84
210.258
80.5417
66.0138
1049.54
210.788
86.5853
29.1614
20.6552
247.472
19.9878
60.0306
19.6062
34.866
29.9524
20.6296
246.402
20.1014
60.7671
19.5962
36.0892
108.954
108.185
21.5472
115.158
111.996
333.175
336.264
542.553
334.53
21.6342
147.301
142.723
113.358
111.79
544.835
334.613
29.7182
58.2004
19.5989
20.4529
28.692
63.181
19.6326
71.4581
213.374
68.1486
215.68
30.1715
19.5795
58.0937
20.3741
29.0993
19.5803
61.9596
67.642
1050.16
211.998
80.5614
28.7406
20.5889
247.02
20.0669
61.6876
19.5702
34.4154
69.1534
1049.07
212.07
84.1429
29.8418
20.6731
19.9797
245.71
19.5879
61.2644
35.5361
70.9725
213.576
69.4086
216.153
30.6163
19.6828
60.5036
20.4092
29.4145
19.5634
63.4138
68.3837
212.946
67.1151
219.087
29.9665
20.6094
248.022
20.1206
60.8282
19.5715
34.0605
69.5849
1052.1
212.359
88.5138
30.6195
20.5863
20.059
247.75
19.5663
62.0386
36.9233
68.7503
1050.35
213.937
90.235
109.429
110.122
21.6091
114.985
116.44
333.972
336.248
541.432
333.228
21.6862
141.997
142.031
112.286
113.888
541.571
334.357
30.7041
19.6144
59.6554
20.4194
29.0214
19.6842
62.0017
68.6725
213.844
63.9293
214.669
70.4741
214.407
65.8038
218.421
29.0171
20.6652
20.0867
246.54
19.6345
63.2486
32.656
30.2765
20.6718
20.0521
249.846
19.5666
62.4891
33.4838
66.6323
1049.89
209.901
84.6709
69.4809
1052.78
215.193
82.7827
334.977
338.692
333.239
336.365
21.6975
138.922
155.075
113.193
115.661
545.673
336.982
541.724
335.014
1791.4
586.911
1790.32
594.62
330.602
333.032
23.5655
367.279
367.541
23.2012
322.601
327.031
132.846
2051.03
148.207
378.126
54.154
276.525
19.9589
21.4543
43.4534
204.572
20.2012
53.1242
274.967
19.9046
21.3226
43.5815
199.936
20.1152
43.0807
21.6548
180.857
20.6092
42.2349
21.5174
173.086
20.6043
332.038
335.36
23.3888
355.308
369.338
1789.37
597.899
23.032
311.611
329.28
54.8851
275.441
19.839
21.4571
43.0242
198.381
20.0855
136.131
2050.95
145.4
388.917
54.3127
20.105
274.523
21.4587
43.2323
20.1537
215.737
44.8374
21.6666
177.024
20.4926
44.3347
21.6933
20.5469
192.894
19.925
18.8075
18.7643
20.1912
19.1275
19.754
19.6215
19.6651
18.7562
18.8109
20.1613
18.6577
19.772
19.7969
19.7528
18.7744
18.7566
20.1573
18.8266
19.7769
19.8753
20.3688
20.7748
20.2933
20.4087
20.4062
20.6704
20.3112
20.3255
20.2635
20.6242
20.3689
20.4424
20.2838
20.6304
20.3615
20.5206
140.704
2051.21
150.132
386.257
55.3821
19.8561
277.098
21.421
44.3139
20.1515
195.547
137.065
2050.25
153.561
378.576
46.6631
21.6656
187.597
20.7878
44.174
21.6012
20.6343
163.069
331.162
331.248
23.5944
377.555
358.982
1790.75
584.89
23.2502
340.407
315.469
56.1384
20.0218
277.996
21.3947
44.6384
20.3843
190.267
143.952
2050.84
149.937
381.012
142.375
2052.04
153.937
377.006
47.4449
21.5452
20.7013
171.754
46.1734
21.5696
20.7899
166.039
1788.35
584.184
1791.01
579.993
23.2251
304.108
310.215
515.952
535.034
113.136
381.529
116.202
354.242
515.89
536.907
125.451
382.012
120.169
371.888
127.01
374.875
123.268
356.054
535.755
522.541
126.179
364.731
126.426
364.094
513.049
517.009
336.303
346.418
345.941
162.903
222.684
40.6148
74.3044
219.47
39.1206
72.7593
251.94
63.154
228.477
74.5076
228.538
73.513
253.775
355.633
116.788
207.862
352.174
114.029
254.403
60.944
229.943
74.3852
251.085
227.777
71.2635
351.073
115.782
208.515
113.917
354.917
330.502
334.719
258.192
67.5438
74.9183
231.667
75.1892
234.553
255.731
356.385
119.404
208.317
355.36
114.454
254.632
65.8027
77.407
236.438
256.276
74.7974
233.273
353.403
117.999
212.839
113.849
354.246
329.765
334.679
161.575
340.26
345.342
344.425
343.446
159.796
71.2883
40.9399
223.583
112.268
73.5269
39.9182
219.713
72.7217
39.894
222.344
107.733
71.7322
38.4731
216.149
161.938
346.515
346.467
160.828
343.361
342.646
72.5792
219.884
111.474
41.0227
39.438
220.395
71.1241
70.1551
220.571
111.286
39.3872
37.8281
220.445
70.8456
254.369
62.7772
227.474
73.6831
226.547
73.3035
247.784
356.006
117.268
208.111
355.855
114.154
251.036
60.7926
229.349
72.9558
252.743
222.675
71.0663
353.069
113.122
206.322
115.035
353.536
332.569
331.077
259.242
69.0414
76.5336
238.863
74.8523
238.132
254.616
358.832
119.607
211.87
355.832
116.242
255.526
67.2679
76.5194
237.296
255.393
75.858
235.295
356.739
119.826
210.214
115.761
354.894
329.432
334.269
160.141
344.458
346.291
340.361
345.448
156.004
72.261
40.4537
221.186
109.933
69.4231
38.2827
214.986
71.8479
39.9688
221.098
107.568
69.1608
38.0562
217.394
158.881
344.165
345.823
158.401
340.925
341.646
67.9429
221.023
113.567
40.2336
39.8571
220.245
70.9493