/*--------------------------------*- C++ -*----------------------------------*\
| =========                 |                                                 |
| \\      /  F ield         | OpenFOAM: The Open Source CFD Toolbox           |
|  \\    /   O peration     | Version:  2206                                  |
|   \\  /    A nd           | Website:  www.openfoam.com                      |
|    \\/     M anipulation  |                                                 |
\*---------------------------------------------------------------------------*/
FoamFile
{
    version     2.0;
    format      ascii;
    arch        "LSB;label=32;scalar=64";
    class       volScalarField;
    location    "10";
    object      p;
}
// * * * * * * * * * * * * * * * * * * * * * * * * * * * * * * * * * * * * * //

dimensions      [0 2 -2 0 0 0 0];

internalField   nonuniform List<scalar> 
66940
(
-0.0344331
-0.034433
-0.0344332
-0.034408
-0.034831
-0.0348311
-0.034831
-0.0348061
-0.0352282
-0.0352283
-0.0352282
-0.0352033
-0.0356261
-0.0356261
-0.0356262
-0.0356012
-0.0360253
-0.0360254
-0.0360254
-0.0360004
-0.0364266
-0.0364265
-0.0364265
-0.0364013
-0.0368304
-0.0368302
-0.0368302
-0.0368048
-0.037237
-0.0372369
-0.0372369
-0.0372115
-0.0376458
-0.0376459
-0.0376459
-0.0376206
-0.0380541
-0.0380554
-0.0380554
-0.0380305
-0.0384274
-0.0384464
-0.0384465
-0.0384311
-0.0383632
-0.0385365
-0.0385345
-0.038629
-0.0343585
-0.0343334
-0.0343335
-0.0343584
-0.0343333
-0.0343333
-0.0343334
-0.0343335
-0.0343585
-0.0343334
-0.0343333
-0.0343584
-0.0344083
-0.0347567
-0.0344333
-0.0344331
-0.0347318
-0.0347318
-0.0344081
-0.0347567
-0.0344333
-0.0344332
-0.0347317
-0.0347317
-0.0344328
-0.0347317
-0.0347316
-0.0344082
-0.0347566
-0.0344332
-0.0347317
-0.0347317
-0.0347566
-0.0348061
-0.0351538
-0.0348311
-0.0348311
-0.0351289
-0.0351289
-0.0348061
-0.0351538
-0.0348311
-0.034831
-0.0351289
-0.0351289
-0.034831
-0.035129
-0.0351289
-0.034806
-0.0351538
-0.0348311
-0.0351289
-0.0351288
-0.0351538
-0.0352032
-0.0355513
-0.0352283
-0.0352283
-0.0355265
-0.0355266
-0.0352033
-0.0355514
-0.0352282
-0.0352282
-0.0355265
-0.0355265
-0.0352282
-0.0355266
-0.0355266
-0.0352032
-0.0355514
-0.0352285
-0.0355266
-0.0355267
-0.0355515
-0.0356009
-0.0359502
-0.0356261
-0.0356262
-0.0359253
-0.0359253
-0.0356011
-0.0359502
-0.035626
-0.0356261
-0.0359253
-0.0359253
-0.0356262
-0.0359254
-0.0359254
-0.0356011
-0.0359503
-0.0356263
-0.0359254
-0.0359254
-0.0359504
-0.0360002
-0.0363509
-0.0360253
-0.0360254
-0.036326
-0.0363259
-0.0360002
-0.0363509
-0.0360253
-0.0360253
-0.036326
-0.036326
-0.0360253
-0.036326
-0.0363259
-0.0360002
-0.036351
-0.0360256
-0.0363261
-0.036326
-0.036351
-0.0364013
-0.0367542
-0.0364266
-0.0364265
-0.0367291
-0.0367291
-0.0364012
-0.0367541
-0.0364266
-0.0364266
-0.0367291
-0.036729
-0.0364265
-0.036729
-0.036729
-0.0364013
-0.0367541
-0.0364266
-0.036729
-0.0367288
-0.036754
-0.0368051
-0.0371603
-0.0368304
-0.0368303
-0.0371351
-0.037135
-0.0368049
-0.0371602
-0.0368303
-0.0368303
-0.0371351
-0.0371349
-0.03683
-0.037135
-0.0371349
-0.0368049
-0.0371601
-0.0368303
-0.037135
-0.0371349
-0.0371601
-0.0372116
-0.0375688
-0.037237
-0.037237
-0.0375436
-0.0375436
-0.0372115
-0.0375688
-0.037237
-0.0372369
-0.0375435
-0.0375435
-0.0372368
-0.0375436
-0.0375436
-0.0372115
-0.0375687
-0.0372369
-0.0375436
-0.0375434
-0.0375688
-0.0376205
-0.0379792
-0.0376459
-0.0376459
-0.0379537
-0.0379538
-0.0376205
-0.0379793
-0.0376458
-0.0376458
-0.0379538
-0.0379538
-0.0376458
-0.0379539
-0.0379539
-0.0376205
-0.0379793
-0.037646
-0.0379539
-0.0379539
-0.0379793
-0.0380303
-0.0383836
-0.0380553
-0.0380554
-0.0383554
-0.0383554
-0.0380303
-0.0383836
-0.0380553
-0.0380554
-0.0383556
-0.0383555
-0.0380554
-0.0383557
-0.0383557
-0.0380304
-0.0383836
-0.0380555
-0.0383555
-0.0383554
-0.0383837
-0.0384309
-0.0386511
-0.0384464
-0.0384465
-0.0385945
-0.0385943
-0.0384308
-0.0386523
-0.0384464
-0.0384464
-0.0385942
-0.0385944
-0.0384465
-0.038594
-0.0385944
-0.0384309
-0.0386512
-0.0384467
-0.0385946
-0.0385946
-0.0386514
-0.0386288
-0.0385341
-0.0385345
-0.0386328
-0.038534
-0.0385337
-0.0383622
-0.0383633
-0.0383634
-0.0385338
-0.0386289
-0.0385347
-0.0341575
-0.0343333
-0.0343334
-0.0343332
-0.0343334
-0.0341558
-0.0341338
-0.0341563
-0.0341339
-0.0341585
-0.0341573
-0.0341571
-0.0345564
-0.0344098
-0.0344099
-0.0345567
-0.0344097
-0.0345568
-0.0345566
-0.03441
-0.0344102
-0.0345569
-0.0344328
-0.0344331
-0.0344327
-0.0347316
-0.0347316
-0.0347316
-0.0347315
-0.0345548
-0.0344108
-0.0344329
-0.0345327
-0.0344112
-0.0345555
-0.0345326
-0.0344099
-0.0345569
-0.0345547
-0.0344331
-0.0344107
-0.0345329
-0.0344113
-0.0345328
-0.0345554
-0.0344097
-0.0344097
-0.0345577
-0.0345564
-0.0345563
-0.0349537
-0.0348075
-0.0348077
-0.034954
-0.0348075
-0.0349539
-0.0349537
-0.0348075
-0.0348077
-0.0349539
-0.0348311
-0.034831
-0.0348311
-0.0351289
-0.0351289
-0.0351288
-0.0351288
-0.0349522
-0.0348086
-0.034831
-0.0349304
-0.0348091
-0.0349527
-0.0349303
-0.0348074
-0.0349539
-0.034952
-0.034831
-0.0348085
-0.0349303
-0.0348091
-0.0349302
-0.0349526
-0.0348076
-0.0348075
-0.0349552
-0.0349536
-0.0349536
-0.0353509
-0.0352046
-0.0352048
-0.0353511
-0.0352046
-0.0353513
-0.0353509
-0.0352046
-0.0352047
-0.035351
-0.0352283
-0.0352283
-0.0352283
-0.0355265
-0.0355265
-0.0355265
-0.0355266
-0.0353496
-0.0352058
-0.0352282
-0.0353277
-0.0352063
-0.0353501
-0.0353276
-0.0352045
-0.0353511
-0.0353494
-0.0352282
-0.0352058
-0.0353277
-0.0352063
-0.0353276
-0.03535
-0.0352048
-0.0352048
-0.0353526
-0.0353512
-0.0353511
-0.0357489
-0.0356021
-0.0356025
-0.0357491
-0.0356021
-0.0357493
-0.035749
-0.0356021
-0.0356024
-0.0357491
-0.0356262
-0.0356261
-0.0356262
-0.0359253
-0.0359253
-0.0359254
-0.0359254
-0.0357477
-0.0356035
-0.0356261
-0.0357258
-0.0356041
-0.0357481
-0.0357258
-0.0356022
-0.0357493
-0.0357476
-0.0356262
-0.0356035
-0.0357258
-0.0356042
-0.0357258
-0.0357481
-0.0356026
-0.0356026
-0.0357507
-0.0357493
-0.0357492
-0.0361487
-0.0360012
-0.0360015
-0.0361488
-0.0360012
-0.0361489
-0.0361488
-0.0360013
-0.0360015
-0.0361489
-0.0360254
-0.0360254
-0.0360255
-0.0363261
-0.036326
-0.036326
-0.036326
-0.0361474
-0.0360026
-0.0360253
-0.0361254
-0.0360031
-0.0361478
-0.0361254
-0.0360013
-0.0361489
-0.0361473
-0.0360254
-0.0360026
-0.0361255
-0.0360033
-0.0361255
-0.0361478
-0.0360017
-0.0360017
-0.0361504
-0.0361489
-0.0361488
-0.0365507
-0.0364022
-0.0364025
-0.0365509
-0.0364021
-0.0365508
-0.0365508
-0.0364022
-0.0364026
-0.036551
-0.0364266
-0.0364266
-0.0364266
-0.0367292
-0.0367291
-0.0367291
-0.036729
-0.0365492
-0.0364034
-0.0364265
-0.0365271
-0.036404
-0.0365497
-0.0365272
-0.0364021
-0.0365509
-0.0365491
-0.0364265
-0.0364035
-0.0365272
-0.0364042
-0.0365272
-0.0365497
-0.0364024
-0.0364024
-0.0365522
-0.0365506
-0.0365506
-0.0369553
-0.0368059
-0.0368062
-0.0369555
-0.0368058
-0.0369555
-0.0369554
-0.036806
-0.0368062
-0.0369555
-0.0368304
-0.0368303
-0.0368303
-0.0371351
-0.037135
-0.037135
-0.037135
-0.0369538
-0.036807
-0.0368302
-0.0369317
-0.0368075
-0.0369542
-0.0369316
-0.0368059
-0.0369554
-0.0369536
-0.0368302
-0.036807
-0.0369316
-0.0368076
-0.0369316
-0.0369542
-0.0368059
-0.0368059
-0.0369566
-0.0369551
-0.036955
-0.0373629
-0.0372125
-0.0372127
-0.0373631
-0.0372123
-0.0373631
-0.0373629
-0.0372125
-0.0372126
-0.0373631
-0.037237
-0.037237
-0.037237
-0.0375435
-0.0375435
-0.0375435
-0.0375435
-0.0373613
-0.0372135
-0.0372368
-0.037339
-0.0372141
-0.0373619
-0.037339
-0.0372123
-0.0373631
-0.0373612
-0.0372369
-0.0372135
-0.037339
-0.0372142
-0.037339
-0.0373618
-0.0372125
-0.0372124
-0.0373641
-0.0373628
-0.0373628
-0.0377729
-0.0376216
-0.0376218
-0.0377732
-0.0376216
-0.0377733
-0.0377729
-0.0376215
-0.0376217
-0.0377731
-0.0376459
-0.0376459
-0.0376459
-0.037953
-0.037953
-0.037953
-0.037953
-0.0377715
-0.0376227
-0.0376458
-0.0377487
-0.0376233
-0.037772
-0.0377486
-0.0376215
-0.0377732
-0.0377714
-0.0376458
-0.0376227
-0.0377487
-0.0376233
-0.0377486
-0.037772
-0.0376217
-0.0376217
-0.037774
-0.0377731
-0.037773
-0.038187
-0.0380325
-0.038032
-0.0381863
-0.0380328
-0.0381858
-0.0381869
-0.0380324
-0.0380319
-0.0381861
-0.0380542
-0.0380542
-0.0380543
-0.0383452
-0.0383452
-0.0383451
-0.0383452
-0.0381844
-0.0380332
-0.0380547
-0.0381579
-0.0380331
-0.0381852
-0.038157
-0.0380327
-0.0381857
-0.0381842
-0.0380547
-0.0380332
-0.0381578
-0.0380332
-0.0381567
-0.0381852
-0.0380329
-0.0380329
-0.0381838
-0.0381856
-0.0381856
-0.0386466
-0.0384501
-0.0384411
-0.0386687
-0.0384544
-0.0386356
-0.0386463
-0.0384499
-0.0384404
-0.0386684
-0.0384275
-0.0384275
-0.0384275
-0.0384804
-0.0384802
-0.0384804
-0.0384804
-0.0386127
-0.0384417
-0.0384372
-0.0385299
-0.0384354
-0.038641
-0.0385142
-0.0384543
-0.0386356
-0.0386128
-0.0384371
-0.0384422
-0.0385303
-0.0384358
-0.0385144
-0.0386412
-0.0384496
-0.0384498
-0.0385642
-0.0386418
-0.0386418
-0.0391414
-0.0389307
-0.0388412
-0.0397565
-0.0390276
-0.0399418
-0.0391396
-0.0389305
-0.0388409
-0.039756
-0.0377987
-0.0382765
-0.0382762
-0.0381141
-0.0382073
-0.0379369
-0.0379358
-0.0387573
-0.0388277
-0.0384488
-0.0382701
-0.0387335
-0.0393612
-0.0380538
-0.0390274
-0.0399413
-0.0387598
-0.0384495
-0.0388283
-0.038267
-0.0387342
-0.0380564
-0.0393613
-0.0389803
-0.0389809
-0.0384215
-0.0395649
-0.039566
-0.0343575
-0.03421
-0.0343576
-0.0342102
-0.0342084
-0.0343573
-0.0343574
-0.0342101
-0.0342103
-0.0341573
-0.034133
-0.0341559
-0.03421
-0.0343575
-0.0342101
-0.034357
-0.03421
-0.0343574
-0.03421
-0.034357
-0.0342112
-0.034233
-0.0343562
-0.0343332
-0.034211
-0.0342327
-0.0343554
-0.0342112
-0.0342332
-0.034356
-0.0343332
-0.0342109
-0.0342328
-0.0343554
-0.0341585
-0.0341571
-0.0341573
-0.0341576
-0.0343574
-0.0342099
-0.0342084
-0.0343571
-0.0343571
-0.03421
-0.0342101
-0.0343574
-0.0342099
-0.0342104
-0.0343576
-0.0342103
-0.0343575
-0.0342117
-0.0342334
-0.0343564
-0.0343333
-0.0342113
-0.0342333
-0.0343558
-0.0342104
-0.0343575
-0.0342103
-0.0343574
-0.0342117
-0.0342334
-0.0343333
-0.0343563
-0.0342333
-0.0342113
-0.0343558
-0.0341574
-0.0341575
-0.0341558
-0.0341337
-0.0341339
-0.0341564
-0.0341574
-0.0341575
-0.0342116
-0.0342335
-0.0343561
-0.0343333
-0.0342111
-0.0342335
-0.0343556
-0.0342102
-0.0343573
-0.03421
-0.0343572
-0.0342116
-0.0342336
-0.0343333
-0.0343561
-0.0342336
-0.0342112
-0.0343556
-0.0342102
-0.0343573
-0.0342101
-0.0343572
-0.0343576
-0.0342102
-0.0342084
-0.0343573
-0.0343571
-0.0342103
-0.03421
-0.0343574
-0.0342099
-0.0342112
-0.034233
-0.0343331
-0.034356
-0.0342326
-0.0342109
-0.0343553
-0.0342112
-0.0342331
-0.0343331
-0.0343559
-0.0342326
-0.0342109
-0.0343553
-0.03421
-0.0343573
-0.03421
-0.0343568
-0.03421
-0.0343572
-0.0342099
-0.0343568
-0.0341576
-0.0341574
-0.0342084
-0.0343571
-0.034357
-0.0342101
-0.03421
-0.0343574
-0.03421
-0.0343572
-0.0342099
-0.0344098
-0.0345569
-0.0344099
-0.034557
-0.0344099
-0.03441
-0.0345579
-0.0345566
-0.0345566
-0.0347555
-0.0346089
-0.0347554
-0.034609
-0.0346075
-0.0347552
-0.0347552
-0.0346091
-0.0346092
-0.0345564
-0.0344097
-0.0344099
-0.0345566
-0.0345548
-0.0344109
-0.0344332
-0.034533
-0.0344114
-0.0345555
-0.0345329
-0.0345548
-0.0344108
-0.0344332
-0.0345328
-0.0344114
-0.0345554
-0.0345328
-0.034609
-0.0347554
-0.034609
-0.0347551
-0.034609
-0.0347553
-0.0346089
-0.0347551
-0.0346105
-0.0346324
-0.0347542
-0.0347317
-0.0346101
-0.0346323
-0.0347536
-0.0346105
-0.0346324
-0.0347542
-0.0347317
-0.0346101
-0.0346323
-0.0347536
-0.0344098
-0.0344098
-0.0345578
-0.0345565
-0.0345565
-0.0344097
-0.0345568
-0.0347554
-0.0346088
-0.0346074
-0.0347552
-0.0347552
-0.0346091
-0.034609
-0.0347553
-0.0346088
-0.034555
-0.034411
-0.0344332
-0.0345329
-0.0344115
-0.0345556
-0.0345329
-0.0345566
-0.0344099
-0.0344102
-0.0345568
-0.034555
-0.0344333
-0.0344109
-0.0345329
-0.0344115
-0.0345329
-0.0345555
-0.0346091
-0.0347554
-0.0346091
-0.0347552
-0.0346105
-0.0346324
-0.0347542
-0.0347316
-0.0346101
-0.0346322
-0.0347536
-0.0346091
-0.0347553
-0.034609
-0.0347551
-0.0346105
-0.0346323
-0.0347316
-0.0347542
-0.0346322
-0.0346101
-0.0347536
-0.0345564
-0.0344097
-0.0344099
-0.0345567
-0.0345548
-0.0344328
-0.0344108
-0.0345326
-0.0344113
-0.0345326
-0.0345553
-0.0345564
-0.0344097
-0.0344099
-0.0345565
-0.0346103
-0.0346323
-0.0347542
-0.0347316
-0.03461
-0.0346322
-0.0347536
-0.0346089
-0.0347553
-0.0346089
-0.0347551
-0.0346103
-0.0346321
-0.0347316
-0.0347542
-0.0346322
-0.0346099
-0.0347536
-0.0346089
-0.0347553
-0.0346088
-0.0347551
-0.03441
-0.0344098
-0.0345578
-0.0345566
-0.0345565
-0.0344097
-0.0345568
-0.0347553
-0.0346089
-0.0346074
-0.0347551
-0.0347551
-0.0346091
-0.0346089
-0.0347553
-0.0346087
-0.0345547
-0.0344331
-0.0344106
-0.0345328
-0.0344113
-0.0345327
-0.0345553
-0.0345563
-0.0344096
-0.0344097
-0.0345566
-0.0345563
-0.0344096
-0.0344097
-0.0345565
-0.0346104
-0.0346324
-0.0347316
-0.0347541
-0.0346322
-0.0346099
-0.0347534
-0.0346104
-0.0346324
-0.0347316
-0.0347541
-0.0346322
-0.0346099
-0.0347534
-0.0346089
-0.0347552
-0.0346088
-0.0347549
-0.0346089
-0.0347552
-0.0346087
-0.0347549
-0.0344096
-0.0345566
-0.0344096
-0.0345566
-0.0346073
-0.0347552
-0.034755
-0.0346089
-0.0346088
-0.0347554
-0.0346087
-0.0347553
-0.0346086
-0.0348075
-0.034954
-0.0348075
-0.0349539
-0.0348077
-0.0348077
-0.0349553
-0.0349538
-0.0349537
-0.0351525
-0.035006
-0.0351525
-0.0350059
-0.0350047
-0.0351523
-0.0351523
-0.0350062
-0.0350062
-0.0349537
-0.0348075
-0.0348077
-0.0349539
-0.0349522
-0.0348086
-0.0348311
-0.0349304
-0.0348093
-0.0349527
-0.0349304
-0.0349522
-0.0348086
-0.0348311
-0.0349304
-0.0348093
-0.0349527
-0.0349304
-0.0350062
-0.0351525
-0.035006
-0.0351523
-0.0350062
-0.0351525
-0.035006
-0.0351522
-0.0350077
-0.0350297
-0.0351513
-0.0351289
-0.0350072
-0.0350296
-0.0351507
-0.0350077
-0.0350296
-0.0351513
-0.0351289
-0.0350072
-0.0350296
-0.0351507
-0.0348077
-0.0348076
-0.0349552
-0.0349537
-0.0349537
-0.0348075
-0.0349539
-0.0351526
-0.035006
-0.0350047
-0.0351523
-0.0351524
-0.0350062
-0.0350061
-0.0351525
-0.0350059
-0.0349522
-0.0348086
-0.034831
-0.0349304
-0.0348092
-0.0349527
-0.0349303
-0.0349537
-0.0348074
-0.0348077
-0.0349539
-0.0349522
-0.034831
-0.0348086
-0.0349303
-0.0348092
-0.0349303
-0.0349527
-0.0350061
-0.0351524
-0.035006
-0.0351522
-0.0350076
-0.0350297
-0.0351513
-0.0351288
-0.0350072
-0.0350296
-0.0351507
-0.0350061
-0.0351524
-0.035006
-0.0351522
-0.0350076
-0.0350296
-0.0351288
-0.0351513
-0.0350295
-0.0350071
-0.0351507
-0.0349537
-0.0348075
-0.0348077
-0.0349539
-0.0349522
-0.0348311
-0.0348086
-0.0349304
-0.0348091
-0.0349303
-0.0349526
-0.0349537
-0.0348075
-0.0348076
-0.0349538
-0.0350076
-0.0350296
-0.0351513
-0.0351289
-0.0350071
-0.0350295
-0.0351508
-0.0350061
-0.0351524
-0.035006
-0.0351523
-0.0350076
-0.0350295
-0.0351289
-0.0351514
-0.0350295
-0.0350071
-0.0351508
-0.0350061
-0.0351525
-0.035006
-0.0351523
-0.0348076
-0.0348075
-0.0349552
-0.0349537
-0.0349536
-0.0348073
-0.0349538
-0.0351525
-0.0350059
-0.0350046
-0.0351523
-0.0351523
-0.0350061
-0.035006
-0.0351525
-0.0350058
-0.034952
-0.034831
-0.0348085
-0.0349303
-0.0348092
-0.0349303
-0.0349526
-0.0349536
-0.0348073
-0.0348076
-0.0349538
-0.0349536
-0.0348074
-0.0348076
-0.0349537
-0.0350076
-0.0350296
-0.0351288
-0.0351513
-0.0350296
-0.0350071
-0.0351506
-0.0350076
-0.0350296
-0.0351288
-0.0351513
-0.0350295
-0.0350071
-0.0351506
-0.0350061
-0.0351524
-0.0350059
-0.0351522
-0.0350061
-0.0351525
-0.0350059
-0.0351522
-0.0348075
-0.0349539
-0.0348073
-0.0349538
-0.0350046
-0.0351524
-0.0351523
-0.0350061
-0.0350061
-0.0351526
-0.0350059
-0.0351525
-0.0350059
-0.0352046
-0.0353512
-0.0352045
-0.0353511
-0.0352048
-0.0352047
-0.0353525
-0.035351
-0.0353509
-0.0355499
-0.0354031
-0.0355499
-0.0354031
-0.0354021
-0.0355497
-0.0355497
-0.0354035
-0.0354034
-0.0353509
-0.0352046
-0.0352048
-0.0353512
-0.0353494
-0.0352058
-0.0352283
-0.0353277
-0.0352064
-0.0353499
-0.0353277
-0.0353494
-0.0352058
-0.0352283
-0.0353277
-0.0352064
-0.03535
-0.0353277
-0.0354035
-0.0355499
-0.0354032
-0.0355498
-0.0354035
-0.03555
-0.0354033
-0.0355498
-0.035405
-0.0354271
-0.0355488
-0.0355265
-0.0354045
-0.035427
-0.0355483
-0.035405
-0.0354271
-0.0355489
-0.0355265
-0.0354046
-0.0354271
-0.0355483
-0.0352048
-0.0352048
-0.0353526
-0.035351
-0.0353511
-0.0352046
-0.0353513
-0.0355501
-0.0354032
-0.0354022
-0.0355499
-0.0355499
-0.0354035
-0.0354036
-0.0355501
-0.0354034
-0.0353494
-0.0352057
-0.0352282
-0.0353276
-0.0352062
-0.0353499
-0.0353276
-0.0353509
-0.0352046
-0.0352047
-0.0353511
-0.0353494
-0.0352282
-0.0352057
-0.0353276
-0.0352062
-0.0353276
-0.0353499
-0.0354034
-0.0355499
-0.0354032
-0.0355498
-0.0354049
-0.0354271
-0.0355488
-0.0355264
-0.0354044
-0.035427
-0.0355483
-0.0354034
-0.03555
-0.0354033
-0.0355498
-0.0354049
-0.035427
-0.0355265
-0.0355489
-0.035427
-0.0354045
-0.0355484
-0.0353511
-0.0352047
-0.0352048
-0.0353513
-0.0353496
-0.0352283
-0.0352058
-0.0353277
-0.0352063
-0.0353277
-0.0353501
-0.0353511
-0.0352047
-0.0352048
-0.0353513
-0.035405
-0.0354272
-0.035549
-0.0355266
-0.0354046
-0.0354271
-0.0355485
-0.0354036
-0.0355501
-0.0354034
-0.03555
-0.0354051
-0.035427
-0.0355265
-0.035549
-0.0354271
-0.0354047
-0.0355485
-0.0354036
-0.0355502
-0.0354035
-0.03555
-0.0352047
-0.0352047
-0.0353525
-0.0353509
-0.035351
-0.0352045
-0.0353513
-0.03555
-0.0354032
-0.0354021
-0.0355499
-0.0355499
-0.0354035
-0.0354035
-0.0355501
-0.0354032
-0.0353494
-0.0352283
-0.0352058
-0.0353278
-0.0352064
-0.0353277
-0.0353501
-0.0353509
-0.0352046
-0.0352048
-0.0353512
-0.035351
-0.0352046
-0.0352048
-0.0353513
-0.0354051
-0.0354272
-0.0355266
-0.0355489
-0.0354271
-0.0354045
-0.0355484
-0.0354051
-0.0354273
-0.0355266
-0.035549
-0.0354271
-0.0354046
-0.0355484
-0.0354035
-0.0355501
-0.0354033
-0.0355499
-0.0354036
-0.0355501
-0.0354034
-0.0355499
-0.0352046
-0.0353513
-0.0352046
-0.0353513
-0.0354022
-0.03555
-0.0355499
-0.0354037
-0.0354036
-0.0355501
-0.0354034
-0.0355502
-0.0354033
-0.035602
-0.0357492
-0.0356021
-0.0357491
-0.0356023
-0.0356023
-0.0357505
-0.0357489
-0.0357489
-0.0359488
-0.0358014
-0.0359488
-0.0358015
-0.0358004
-0.0359486
-0.0359486
-0.0358016
-0.0358017
-0.0357489
-0.0356022
-0.0356025
-0.0357492
-0.0357474
-0.0356033
-0.0356261
-0.0357257
-0.0356041
-0.035748
-0.0357257
-0.0357474
-0.0356034
-0.0356261
-0.0357258
-0.0356041
-0.0357481
-0.0357258
-0.0358017
-0.0359488
-0.0358015
-0.0359486
-0.0358017
-0.0359489
-0.0358016
-0.0359486
-0.0358033
-0.0358254
-0.0359477
-0.0359253
-0.0358027
-0.0358254
-0.0359471
-0.0358033
-0.0358255
-0.0359477
-0.0359253
-0.0358028
-0.0358255
-0.0359471
-0.0356024
-0.0356025
-0.0357506
-0.035749
-0.0357491
-0.0356023
-0.0357494
-0.0359489
-0.0358015
-0.0358004
-0.0359487
-0.0359488
-0.0358018
-0.0358018
-0.0359489
-0.0358016
-0.0357475
-0.0356033
-0.035626
-0.0357257
-0.035604
-0.035748
-0.0357257
-0.035749
-0.0356022
-0.0356025
-0.0357492
-0.0357475
-0.0356261
-0.0356034
-0.0357257
-0.035604
-0.0357257
-0.0357481
-0.0358017
-0.0359488
-0.0358016
-0.0359487
-0.0358032
-0.0358254
-0.0359477
-0.0359253
-0.0358027
-0.0358254
-0.0359472
-0.0358017
-0.0359489
-0.0358016
-0.0359487
-0.0358032
-0.0358255
-0.0359253
-0.0359478
-0.0358254
-0.0358028
-0.0359472
-0.0357492
-0.0356024
-0.0356026
-0.0357493
-0.0357477
-0.0356262
-0.0356036
-0.0357259
-0.0356042
-0.0357258
-0.0357483
-0.0357492
-0.0356024
-0.0356027
-0.0357494
-0.0358033
-0.0358255
-0.0359478
-0.0359254
-0.0358028
-0.0358255
-0.0359473
-0.0358019
-0.0359489
-0.0358017
-0.0359488
-0.0358033
-0.0358255
-0.0359254
-0.0359479
-0.0358255
-0.0358029
-0.0359473
-0.0358019
-0.035949
-0.0358018
-0.0359488
-0.0356024
-0.0356025
-0.0357506
-0.0357491
-0.0357491
-0.0356022
-0.0357494
-0.0359489
-0.0358016
-0.0358005
-0.0359487
-0.0359488
-0.0358018
-0.0358018
-0.035949
-0.0358016
-0.0357476
-0.0356262
-0.0356036
-0.0357258
-0.0356042
-0.0357258
-0.0357482
-0.0357491
-0.0356023
-0.0356027
-0.0357493
-0.0357492
-0.0356024
-0.0356027
-0.0357494
-0.0358034
-0.0358256
-0.0359254
-0.0359478
-0.0358255
-0.0358029
-0.0359472
-0.0358035
-0.0358256
-0.0359254
-0.0359479
-0.0358255
-0.035803
-0.0359472
-0.0358019
-0.0359489
-0.0358017
-0.0359488
-0.0358019
-0.0359491
-0.0358018
-0.0359488
-0.0356024
-0.0357495
-0.0356023
-0.0357495
-0.0358005
-0.0359489
-0.0359489
-0.0358019
-0.0358019
-0.0359491
-0.0358017
-0.0359491
-0.0358017
-0.0360012
-0.0361489
-0.0360012
-0.0361489
-0.0360014
-0.0360015
-0.0361503
-0.0361487
-0.0361488
-0.0363495
-0.0362013
-0.0363494
-0.0362014
-0.0362005
-0.0363493
-0.0363493
-0.0362016
-0.0362017
-0.0361487
-0.0360013
-0.0360015
-0.0361488
-0.0361472
-0.0360025
-0.0360253
-0.0361254
-0.0360031
-0.0361477
-0.0361254
-0.0361472
-0.0360025
-0.0360254
-0.0361254
-0.0360032
-0.0361478
-0.0361255
-0.0362016
-0.0363494
-0.0362014
-0.0363493
-0.0362016
-0.0363494
-0.0362014
-0.0363493
-0.0362033
-0.0362257
-0.0363484
-0.036326
-0.0362027
-0.0362256
-0.0363478
-0.0362033
-0.0362256
-0.0363483
-0.036326
-0.0362027
-0.0362256
-0.0363478
-0.0360015
-0.0360016
-0.0361504
-0.0361487
-0.0361488
-0.0360013
-0.0361489
-0.0363494
-0.0362014
-0.0362005
-0.0363493
-0.0363493
-0.0362016
-0.0362017
-0.0363494
-0.0362014
-0.0361473
-0.0360025
-0.0360253
-0.0361254
-0.0360031
-0.0361478
-0.0361254
-0.0361488
-0.0360014
-0.0360015
-0.0361489
-0.0361474
-0.0360254
-0.0360025
-0.0361255
-0.0360031
-0.0361255
-0.0361479
-0.0362017
-0.0363494
-0.0362015
-0.0363494
-0.0362033
-0.0362257
-0.0363484
-0.036326
-0.0362028
-0.0362256
-0.036348
-0.0362017
-0.0363494
-0.0362015
-0.0363494
-0.0362033
-0.0362256
-0.036326
-0.0363484
-0.0362256
-0.0362028
-0.036348
-0.0361488
-0.0360014
-0.0360016
-0.0361489
-0.0361474
-0.0360254
-0.0360027
-0.0361255
-0.0360032
-0.0361255
-0.0361479
-0.0361488
-0.0360015
-0.0360017
-0.0361489
-0.0362032
-0.0362256
-0.0363483
-0.036326
-0.0362027
-0.0362256
-0.0363479
-0.0362017
-0.0363494
-0.0362015
-0.0363493
-0.0362033
-0.0362256
-0.036326
-0.0363484
-0.0362256
-0.0362028
-0.0363479
-0.0362017
-0.0363494
-0.0362015
-0.0363493
-0.0360015
-0.0360016
-0.0361504
-0.0361488
-0.0361488
-0.0360014
-0.036149
-0.0363494
-0.0362015
-0.0362006
-0.0363493
-0.0363493
-0.0362018
-0.0362017
-0.0363495
-0.0362014
-0.0361473
-0.0360255
-0.0360027
-0.0361256
-0.0360033
-0.0361256
-0.0361479
-0.0361488
-0.0360014
-0.0360017
-0.036149
-0.0361488
-0.0360015
-0.0360017
-0.036149
-0.0362034
-0.0362258
-0.036326
-0.0363484
-0.0362257
-0.0362028
-0.0363479
-0.0362034
-0.0362258
-0.036326
-0.0363483
-0.0362257
-0.0362028
-0.0363478
-0.0362018
-0.0363494
-0.0362015
-0.0363493
-0.0362018
-0.0363494
-0.0362015
-0.0363493
-0.0360014
-0.036149
-0.0360014
-0.036149
-0.0362005
-0.0363493
-0.0363492
-0.0362018
-0.0362017
-0.0363494
-0.0362015
-0.0363494
-0.0362014
-0.0364021
-0.0365509
-0.0364021
-0.036551
-0.0364024
-0.0364024
-0.0365522
-0.0365507
-0.0365508
-0.0367529
-0.0366037
-0.0367529
-0.0366038
-0.0366029
-0.0367527
-0.0367528
-0.036604
-0.036604
-0.0365507
-0.0364022
-0.0364025
-0.0365508
-0.0365492
-0.0364035
-0.0364266
-0.0365273
-0.0364042
-0.0365498
-0.0365273
-0.0365492
-0.0364034
-0.0364266
-0.0365272
-0.0364042
-0.0365497
-0.0365273
-0.036604
-0.0367529
-0.0366038
-0.0367527
-0.036604
-0.0367529
-0.0366037
-0.0367526
-0.0366056
-0.0366281
-0.0367518
-0.0367291
-0.0366051
-0.0366281
-0.0367512
-0.0366056
-0.036628
-0.0367517
-0.0367291
-0.036605
-0.036628
-0.0367511
-0.0364023
-0.0364024
-0.0365521
-0.0365506
-0.0365506
-0.0364021
-0.0365508
-0.0367528
-0.0366036
-0.0366027
-0.0367526
-0.0367525
-0.0366039
-0.0366039
-0.0367527
-0.0366037
-0.0365493
-0.0364035
-0.0364266
-0.0365273
-0.0364042
-0.0365498
-0.0365273
-0.0365508
-0.0364022
-0.0364026
-0.0365509
-0.0365493
-0.0364266
-0.0364035
-0.0365272
-0.0364042
-0.0365273
-0.0365498
-0.036604
-0.0367529
-0.0366039
-0.0367527
-0.0366056
-0.0366281
-0.0367518
-0.0367291
-0.0366051
-0.0366281
-0.0367513
-0.036604
-0.0367529
-0.0366038
-0.0367527
-0.0366056
-0.036628
-0.0367291
-0.0367517
-0.036628
-0.036605
-0.0367513
-0.0365506
-0.0364022
-0.0364025
-0.0365508
-0.0365492
-0.0364266
-0.0364035
-0.0365272
-0.0364041
-0.0365272
-0.0365497
-0.0365506
-0.0364022
-0.0364025
-0.0365508
-0.0366054
-0.036628
-0.0367515
-0.036729
-0.0366049
-0.0366279
-0.036751
-0.0366038
-0.0367526
-0.0366037
-0.0367525
-0.0366054
-0.0366278
-0.036729
-0.0367516
-0.0366279
-0.0366049
-0.0367511
-0.0366038
-0.0367526
-0.0366037
-0.0367525
-0.0364024
-0.0364024
-0.0365522
-0.0365507
-0.0365507
-0.0364021
-0.0365509
-0.0367529
-0.0366037
-0.0366028
-0.0367527
-0.0367526
-0.036604
-0.0366039
-0.0367528
-0.0366037
-0.0365491
-0.0364266
-0.0364035
-0.0365272
-0.0364042
-0.0365272
-0.0365496
-0.0365506
-0.0364022
-0.0364026
-0.0365509
-0.0365506
-0.0364022
-0.0364026
-0.0365508
-0.0366055
-0.0366281
-0.036729
-0.0367516
-0.036628
-0.036605
-0.0367509
-0.0366055
-0.036628
-0.0367289
-0.0367515
-0.036628
-0.036605
-0.0367509
-0.0366039
-0.0367527
-0.0366038
-0.0367524
-0.0366039
-0.0367526
-0.0366037
-0.0367524
-0.0364021
-0.0365508
-0.036402
-0.0365508
-0.0366027
-0.0367525
-0.0367524
-0.0366039
-0.0366039
-0.0367526
-0.0366036
-0.0367526
-0.0366037
-0.0368059
-0.0369556
-0.0368059
-0.0369555
-0.0368061
-0.0368062
-0.0369568
-0.0369554
-0.0369554
-0.037159
-0.0370087
-0.037159
-0.0370088
-0.037008
-0.0371589
-0.0371588
-0.037009
-0.037009
-0.0369553
-0.0368059
-0.0368062
-0.0369555
-0.0369538
-0.0368072
-0.0368304
-0.0369318
-0.0368079
-0.0369544
-0.0369318
-0.0369538
-0.0368071
-0.0368304
-0.0369317
-0.0368078
-0.0369543
-0.0369318
-0.037009
-0.037159
-0.0370088
-0.0371588
-0.037009
-0.037159
-0.0370088
-0.0371588
-0.0370107
-0.0370333
-0.0371579
-0.0371351
-0.0370101
-0.0370333
-0.0371573
-0.0370106
-0.0370333
-0.0371579
-0.0371351
-0.03701
-0.0370333
-0.0371573
-0.0368061
-0.036806
-0.0369568
-0.0369553
-0.0369552
-0.0368057
-0.0369554
-0.037159
-0.0370087
-0.0370079
-0.0371588
-0.0371588
-0.0370089
-0.0370088
-0.0371589
-0.0370086
-0.0369539
-0.0368072
-0.0368303
-0.0369317
-0.0368078
-0.0369544
-0.0369317
-0.0369553
-0.0368059
-0.0368062
-0.0369554
-0.0369539
-0.0368303
-0.0368071
-0.0369317
-0.0368078
-0.0369317
-0.0369543
-0.037009
-0.037159
-0.0370089
-0.0371588
-0.0370105
-0.0370333
-0.0371579
-0.037135
-0.0370101
-0.0370332
-0.0371573
-0.037009
-0.037159
-0.0370087
-0.0371588
-0.0370105
-0.0370332
-0.037135
-0.0371578
-0.0370332
-0.03701
-0.0371574
-0.0369552
-0.0368057
-0.0368059
-0.0369553
-0.0369537
-0.0368302
-0.0368069
-0.0369316
-0.0368075
-0.0369316
-0.0369541
-0.0369552
-0.0368057
-0.0368059
-0.0369552
-0.0370104
-0.0370332
-0.0371578
-0.037135
-0.0370099
-0.0370332
-0.0371572
-0.0370088
-0.0371589
-0.0370087
-0.0371587
-0.0370104
-0.037033
-0.0371349
-0.0371577
-0.0370332
-0.0370098
-0.0371572
-0.0370088
-0.0371588
-0.0370086
-0.0371587
-0.0368061
-0.0368059
-0.0369567
-0.0369553
-0.0369551
-0.0368057
-0.0369553
-0.037159
-0.0370086
-0.0370078
-0.0371588
-0.0371586
-0.0370089
-0.0370087
-0.0371588
-0.0370084
-0.0369536
-0.0368302
-0.0368069
-0.0369316
-0.0368076
-0.0369316
-0.036954
-0.0369551
-0.0368057
-0.0368059
-0.0369552
-0.0369551
-0.0368056
-0.0368059
-0.0369552
-0.0370104
-0.0370332
-0.037135
-0.0371576
-0.0370332
-0.0370098
-0.0371571
-0.0370104
-0.0370333
-0.0371349
-0.0371576
-0.0370331
-0.0370097
-0.0371571
-0.0370088
-0.0371588
-0.0370085
-0.0371586
-0.0370088
-0.0371587
-0.0370085
-0.0371586
-0.0368056
-0.0369552
-0.0368056
-0.0369552
-0.0370077
-0.0371587
-0.0371585
-0.0370088
-0.0370086
-0.0371588
-0.0370085
-0.0371588
-0.0370084
-0.0372124
-0.0373632
-0.0372124
-0.0373631
-0.0372127
-0.0372126
-0.0373642
-0.037363
-0.037363
-0.0375679
-0.0374166
-0.0375678
-0.0374166
-0.0374158
-0.0375677
-0.0375676
-0.0374169
-0.0374169
-0.0373629
-0.0372125
-0.0372127
-0.0373631
-0.0373613
-0.0372137
-0.037237
-0.0373391
-0.0372144
-0.037362
-0.0373391
-0.0373614
-0.0372137
-0.037237
-0.0373391
-0.0372144
-0.0373619
-0.0373391
-0.0374168
-0.0375679
-0.0374167
-0.0375677
-0.0374168
-0.0375679
-0.0374167
-0.0375676
-0.0374184
-0.0374412
-0.0375667
-0.0375436
-0.037418
-0.0374411
-0.0375661
-0.0374184
-0.0374411
-0.0375667
-0.0375436
-0.0374179
-0.0374411
-0.0375661
-0.0372126
-0.0372125
-0.0373642
-0.0373629
-0.0373628
-0.0372122
-0.037363
-0.037568
-0.0374166
-0.0374157
-0.0375677
-0.0375677
-0.0374169
-0.0374168
-0.0375678
-0.0374166
-0.0373614
-0.0372137
-0.037237
-0.037339
-0.0372142
-0.037362
-0.037339
-0.0373629
-0.0372125
-0.0372127
-0.037363
-0.0373614
-0.0372369
-0.0372136
-0.037339
-0.0372143
-0.037339
-0.0373619
-0.0374168
-0.0375678
-0.0374167
-0.0375676
-0.0374183
-0.0374411
-0.0375666
-0.0375435
-0.0374179
-0.0374411
-0.0375661
-0.0374168
-0.0375677
-0.0374166
-0.0375676
-0.0374183
-0.0374411
-0.0375435
-0.0375666
-0.0374411
-0.0374178
-0.0375661
-0.0373628
-0.0372123
-0.0372125
-0.037363
-0.0373613
-0.0372369
-0.0372135
-0.037339
-0.0372141
-0.037339
-0.0373618
-0.0373628
-0.0372123
-0.0372125
-0.0373629
-0.0374183
-0.0374411
-0.0375666
-0.0375436
-0.0374178
-0.0374411
-0.0375661
-0.0374167
-0.0375678
-0.0374167
-0.0375677
-0.0374183
-0.037441
-0.0375435
-0.0375667
-0.037441
-0.0374178
-0.0375661
-0.0374167
-0.0375678
-0.0374166
-0.0375676
-0.0372126
-0.0372124
-0.0373641
-0.0373629
-0.0373627
-0.0372121
-0.037363
-0.0375677
-0.0374166
-0.0374157
-0.0375675
-0.0375676
-0.0374168
-0.0374167
-0.0375678
-0.0374165
-0.0373612
-0.0372369
-0.0372135
-0.0373389
-0.0372142
-0.037339
-0.0373618
-0.0373627
-0.0372122
-0.0372125
-0.0373629
-0.0373627
-0.0372123
-0.0372125
-0.0373629
-0.0374183
-0.0374412
-0.0375435
-0.0375665
-0.0374411
-0.0374178
-0.037566
-0.0374184
-0.0374411
-0.0375435
-0.0375666
-0.0374411
-0.0374178
-0.037566
-0.0374167
-0.0375677
-0.0374166
-0.0375675
-0.0374167
-0.0375678
-0.0374166
-0.0375675
-0.0372122
-0.037363
-0.0372121
-0.037363
-0.0374157
-0.0375676
-0.0375676
-0.0374168
-0.0374168
-0.0375678
-0.0374165
-0.0375678
-0.0374165
-0.0376215
-0.0377733
-0.0376215
-0.0377732
-0.0376218
-0.0376217
-0.0377739
-0.037773
-0.037773
-0.0379791
-0.0378269
-0.037979
-0.0378269
-0.0378256
-0.0379788
-0.0379788
-0.0378271
-0.0378271
-0.0377729
-0.0376217
-0.0376218
-0.0377732
-0.0377713