/*--------------------------------*- C++ -*----------------------------------*\
| =========                 |                                                 |
| \\      /  F ield         | OpenFOAM: The Open Source CFD Toolbox           |
|  \\    /   O peration     | Version:  2206                                  |
|   \\  /    A nd           | Website:  www.openfoam.com                      |
|    \\/     M anipulation  |                                                 |
\*---------------------------------------------------------------------------*/
FoamFile
{
    version     2.0;
    format      ascii;
    arch        "LSB;label=32;scalar=64";
    class       volScalarField;
    location    "0.5";
    object      k;
}
// * * * * * * * * * * * * * * * * * * * * * * * * * * * * * * * * * * * * * //

dimensions      [0 2 -2 0 0 0 0];

internalField   nonuniform List<scalar> 
66928
(
3.40633e-05
3.05204e-05
3.08483e-05
3.08345e-05
3.40636e-05
3.05286e-05
3.40434e-05
3.40638e-05
2.10861e-05
2.10676e-05
1.04389e-05
1.02385e-05
2.28447e-05
2.24479e-05
1.65527e-05
3.64829e-05
1.60477e-05
3.71838e-05
3.60116e-05
2.55114e-05
4.17104e-05
1.60338e-05
3.71774e-05
2.55151e-05
3.59779e-05
4.1701e-05
1.0228e-05
2.24343e-05
2.2867e-05
1.04489e-05
3.65908e-05
1.64982e-05
1.04458e-05
1.04261e-05
1.02528e-05
1.02322e-05
2.28638e-05
2.24819e-05
3.40635e-05
2.28162e-05
2.24391e-05
1.04134e-05
1.04322e-05
1.0228e-05
1.0247e-05
3.40415e-05
2.28052e-05
2.24336e-05
2.28384e-05
2.24737e-05
1.0449e-05
3.4085e-05
3.90528e-05
2.28845e-05
1.5957e-05
1.59793e-05
3.90633e-05
3.40488e-05
3.35651e-05
3.87342e-05
2.24875e-05
1.56133e-05
1.56402e-05
3.87533e-05
3.3522e-05
1.72812e-05
9.14067e-06
9.07444e-06
9.15238e-06
9.08845e-06
1.72455e-05
1.65794e-05
2.34486e-05
2.34885e-05
9.87739e-06
2.26777e-05
9.54717e-06
3.4396e-05
1.4499e-05
1.31887e-05
2.26591e-05
9.54095e-06
1.44958e-05
3.43795e-05
1.3183e-05
3.35628e-05
3.87993e-05
2.24745e-05
1.55928e-05
3.88185e-05
1.56205e-05
3.35183e-05
3.41163e-05
3.90295e-05
2.28944e-05
1.59963e-05
1.60185e-05
3.90424e-05
3.40768e-05
1.73006e-05
9.07576e-06
9.16097e-06
9.09064e-06
9.17412e-06
1.72641e-05
1.04589e-05
1.65157e-05
2.3365e-05
2.33849e-05
9.81723e-06
1.04335e-05
1.04396e-05
1.02352e-05
1.02496e-05
1.72812e-05
9.14033e-06
9.07297e-06
9.15256e-06
9.08682e-06
1.72463e-05
3.40469e-05
3.9072e-05
1.59758e-05
2.28271e-05
3.40837e-05
1.59524e-05
3.90637e-05
3.35179e-05
3.8758e-05
1.56378e-05
2.24429e-05
3.35601e-05
1.56108e-05
3.87382e-05
1.72455e-05
9.15275e-06
9.08755e-06
1.72806e-05
9.1407e-06
9.0736e-06
3.4082e-05
1.59481e-05
2.28481e-05
3.90728e-05
1.59712e-05
3.40459e-05
3.90823e-05
3.35574e-05
1.56085e-05
2.24772e-05
3.87418e-05
1.56353e-05
3.35167e-05
3.87617e-05
1.04255e-05
1.04192e-05
1.02448e-05
1.02298e-05
1.72464e-05
9.15203e-06
9.08624e-06
1.72817e-05
9.13971e-06
9.07241e-06
3.40812e-05
3.90862e-05
2.28325e-05
1.59414e-05
1.59636e-05
3.90978e-05
3.40448e-05
3.35575e-05
3.87465e-05
2.24709e-05
1.56049e-05
1.56314e-05
3.87676e-05
3.35166e-05
3.40456e-05
1.5967e-05
3.90908e-05
2.28095e-05
3.40816e-05
1.59444e-05
3.90803e-05
3.35171e-05
1.56332e-05
3.87652e-05
2.2436e-05
3.35574e-05
1.56065e-05
3.87449e-05
1.72815e-05
9.13904e-06
9.0719e-06
9.15136e-06
9.0857e-06
1.72461e-05
3.94892e-05
3.40406e-05
3.87227e-05
3.864e-05
3.87041e-05
3.86168e-05
3.94904e-05
3.94744e-05
3.40435e-05
3.87608e-05
3.85973e-05
3.8736e-05
3.85751e-05
3.94752e-05
3.94912e-05
3.87038e-05
3.86189e-05
3.40652e-05
3.94905e-05
3.87221e-05
3.86407e-05
3.94908e-05
3.40419e-05
3.87192e-05
3.86404e-05
3.87013e-05
3.86194e-05
3.94908e-05
1.81723e-05
1.81487e-05
3.84151e-05
3.97155e-05
3.65033e-05
4.05103e-05
3.96892e-05
4.05088e-05
3.84172e-05
3.84457e-05
3.96444e-05
3.60476e-05
4.0131e-05
3.9626e-05
4.01478e-05
3.84692e-05
3.69029e-05
4.16896e-05
4.1621e-05
3.57984e-05
4.16119e-05
3.57437e-05
3.69428e-05
3.8413e-05
3.96043e-05
3.60142e-05
4.0099e-05
4.01161e-05
3.95862e-05
3.84364e-05
3.68828e-05
4.16803e-05
3.57925e-05
4.15971e-05
3.57384e-05
4.15886e-05
3.69205e-05
3.84232e-05
3.97947e-05
3.66114e-05
4.07128e-05
3.97814e-05
4.07205e-05
3.84305e-05
3.9491e-05
3.40437e-05
3.87213e-05
3.86407e-05
3.94916e-05
3.87031e-05
3.86189e-05
3.94916e-05
3.40623e-05
3.87022e-05
3.86192e-05
3.94912e-05
3.87205e-05
3.86412e-05
2.10843e-05
3.0822e-05
3.0528e-05
3.40523e-05
2.10774e-05
3.08218e-05
3.05275e-05
3.40435e-05
2.1073e-05
3.08217e-05
3.05283e-05
3.4043e-05
2.10698e-05
3.08232e-05
3.05309e-05
3.40382e-05
2.10692e-05
3.08371e-05
3.05339e-05
3.40387e-05
2.10745e-05
3.08873e-05
3.05748e-05
3.40978e-05
2.10727e-05
3.08772e-05
3.05885e-05
3.41197e-05
2.10674e-05
3.08713e-05
3.05788e-05
3.4095e-05
2.1067e-05
3.08696e-05
3.05724e-05
3.40844e-05
2.10788e-05
3.08894e-05
3.05869e-05
3.41115e-05
2.10898e-05
3.0902e-05
3.06075e-05
3.41356e-05
2.10856e-05
3.08845e-05
3.06013e-05
3.41212e-05
2.10735e-05
3.08678e-05
3.05803e-05
3.40965e-05
2.10694e-05
3.08508e-05
3.05666e-05
3.40839e-05
2.10624e-05
3.08388e-05
3.05489e-05
3.40632e-05
2.10593e-05
3.08381e-05
3.05449e-05
3.40625e-05
2.1059e-05
3.08377e-05
3.05454e-05
3.4064e-05
3.05204e-05
3.05153e-05
3.05227e-05
3.05179e-05
3.40191e-05
3.40332e-05
3.08487e-05
3.08354e-05
3.08509e-05
3.08375e-05
3.08316e-05
3.08218e-05
3.08311e-05
3.40409e-05
3.40593e-05
3.05503e-05
3.05275e-05
3.05493e-05
3.40648e-05
3.40424e-05
3.40569e-05
3.05231e-05
3.05188e-05
3.05251e-05
3.05218e-05
3.40127e-05
3.40276e-05
3.0851e-05
3.08378e-05
3.08515e-05
3.084e-05
3.08311e-05
3.08215e-05
3.0832e-05
3.40375e-05
3.40585e-05
3.05493e-05
3.0528e-05
3.05496e-05
3.40635e-05
3.40368e-05
3.40558e-05
3.05258e-05
3.0522e-05
3.05261e-05
3.05236e-05
3.40071e-05
3.40237e-05
3.08518e-05
3.08406e-05
3.08522e-05
3.08437e-05
3.08323e-05
3.08223e-05
3.08344e-05
3.4038e-05
3.40552e-05
3.05498e-05
3.05305e-05
3.05509e-05
3.40596e-05
3.40344e-05
3.40588e-05
3.05266e-05
3.05242e-05
3.05282e-05
3.05273e-05
3.40034e-05
3.40358e-05
3.08524e-05
3.08441e-05
3.08535e-05
3.08446e-05
3.08348e-05
3.08292e-05
3.0837e-05
3.40329e-05
3.40536e-05
3.05509e-05
3.05323e-05
3.05512e-05
3.40583e-05
3.40391e-05
3.41092e-05
3.05298e-05
3.05317e-05
3.05541e-05
3.05578e-05
3.40179e-05
3.40958e-05
3.08549e-05
3.08454e-05
3.08821e-05
3.08695e-05
3.08399e-05
3.08802e-05
3.08759e-05
3.40323e-05
3.40987e-05
3.05526e-05
3.05611e-05
3.05804e-05
3.41134e-05
3.40935e-05
3.41537e-05
3.05644e-05
3.05629e-05
3.05741e-05
3.05613e-05
3.40789e-05
3.40935e-05
3.08978e-05
3.08856e-05
3.09169e-05
3.0907e-05
3.08876e-05
3.08816e-05
3.08935e-05
3.40833e-05
3.41504e-05
3.05938e-05
3.05899e-05
3.06066e-05
3.41499e-05
3.41262e-05
3.4108e-05
3.05715e-05
3.05581e-05
3.05611e-05
3.05559e-05
3.40631e-05
3.40807e-05
3.09151e-05
3.09058e-05
3.09038e-05
3.08969e-05
3.08885e-05
3.0874e-05
3.08845e-05
3.41246e-05
3.41095e-05
3.06042e-05
3.05793e-05
3.05947e-05
3.41136e-05
3.40873e-05
3.41054e-05
3.05607e-05
3.05532e-05
3.05541e-05
3.05474e-05
3.40607e-05
3.40586e-05
3.0904e-05
3.08972e-05
3.08972e-05
3.08918e-05
3.08843e-05
3.08671e-05
3.08798e-05
3.40893e-05
3.41089e-05
3.05939e-05
3.05732e-05
3.05889e-05
3.41088e-05
3.40777e-05
3.41102e-05
3.05534e-05
3.05481e-05
3.05587e-05
3.05604e-05
3.404e-05
3.40845e-05
3.08957e-05
3.08906e-05
3.09019e-05
3.08989e-05
3.08806e-05
3.08838e-05
3.0895e-05
3.40815e-05
3.41195e-05
3.0589e-05
3.05803e-05
3.06006e-05
3.41313e-05
3.4091e-05
3.4128e-05
3.05628e-05
3.05647e-05
3.05756e-05
3.05736e-05
3.40644e-05
3.40973e-05
3.09065e-05
3.09044e-05
3.0924e-05
3.09226e-05
3.09016e-05
3.09011e-05
3.09196e-05
3.41005e-05
3.41426e-05
3.06071e-05
3.06047e-05
3.06251e-05
3.41548e-05
3.41087e-05
3.41278e-05
3.05778e-05
3.05742e-05
3.05761e-05
3.05678e-05
3.40774e-05
3.40871e-05
3.0928e-05
3.09265e-05
3.09279e-05
3.0927e-05
3.09213e-05
3.08922e-05
3.09153e-05
3.41233e-05
3.4144e-05
3.06273e-05
3.06065e-05
3.06243e-05
3.4147e-05
3.41018e-05
3.41051e-05
3.05715e-05
3.0562e-05
3.05629e-05
3.05546e-05
3.40604e-05
3.4061e-05
3.09228e-05
3.09223e-05
3.09058e-05
3.09032e-05
3.09078e-05
3.08695e-05
3.089e-05
3.41176e-05
3.41163e-05
3.0618e-05
3.05844e-05
3.06015e-05
3.41203e-05
3.40817e-05
3.40972e-05
3.05619e-05
3.05546e-05
3.05608e-05
3.05533e-05
3.40394e-05
3.40607e-05
3.09021e-05
3.08987e-05
3.08968e-05
3.08921e-05
3.08866e-05
3.08571e-05
3.08774e-05
3.40913e-05
3.41014e-05
3.0598e-05
3.05708e-05
3.05883e-05
3.41056e-05
3.40769e-05
3.40757e-05
3.05595e-05
3.05492e-05
3.05491e-05
3.05417e-05
3.40338e-05
3.40349e-05
3.08934e-05
3.08883e-05
3.08767e-05
3.0871e-05
3.08723e-05
3.08391e-05
3.08585e-05
3.40804e-05
3.4079e-05
3.05839e-05
3.05525e-05
3.05711e-05
3.40856e-05
3.40519e-05
3.4072e-05
3.05467e-05
3.05414e-05
3.05443e-05
3.05416e-05
3.40138e-05
3.40442e-05
3.08723e-05
3.08666e-05
3.08683e-05
3.08632e-05
3.08562e-05
3.08386e-05
3.08548e-05
3.40547e-05
3.40744e-05
3.05681e-05
3.05452e-05
3.0564e-05
3.40819e-05
3.40522e-05
3.40729e-05
3.0544e-05
3.05405e-05
3.0544e-05
3.05395e-05
3.40222e-05
3.40346e-05
3.08684e-05
3.08633e-05
3.08689e-05
3.0864e-05
3.08549e-05
3.08372e-05
3.08553e-05
3.40546e-05
3.40766e-05
3.05637e-05
3.05452e-05
3.05639e-05
3.40834e-05
3.40533e-05
3.0544e-05
3.05395e-05
3.40153e-05
3.08691e-05
3.0864e-05
3.08552e-05
3.08547e-05
3.40569e-05
3.05639e-05
3.05635e-05
3.40817e-05
3.8106e-05
1.65579e-05
3.8111e-05
1.64981e-05
1.04361e-05
1.04134e-05
3.71798e-05
1.60732e-05
3.72199e-05
1.60358e-05
2.10776e-05
2.10671e-05
2.10682e-05
2.1079e-05
2.10718e-05
2.10659e-05
2.10676e-05
4.17207e-05
3.60231e-05
2.5525e-05
3.08221e-05
3.59851e-05
2.55279e-05
4.16972e-05
1.02421e-05
1.02215e-05
4.21853e-05
2.50196e-05
3.66113e-05
3.0528e-05
2.50195e-05
3.65907e-05
4.21803e-05
2.25189e-05
2.286e-05
3.40684e-05
2.24712e-05
2.28323e-05
3.81139e-05
1.64727e-05
3.81269e-05
1.64397e-05
1.04089e-05
1.03952e-05
3.71671e-05
1.60539e-05
3.72061e-05
1.6023e-05
2.10702e-05
2.10655e-05
2.10674e-05
2.10739e-05
2.10661e-05
2.10641e-05
2.10662e-05
4.17247e-05
3.6018e-05
2.55314e-05
3.08219e-05
4.17111e-05
3.59822e-05
2.55328e-05
1.02324e-05
1.02146e-05
4.21844e-05
2.50182e-05
3.66132e-05
3.05275e-05
4.21772e-05
2.50182e-05
3.65957e-05
2.24982e-05
2.28561e-05
3.40631e-05
2.24591e-05
2.28304e-05
3.81182e-05
1.64389e-05
3.81325e-05
1.64185e-05
1.0401e-05
1.03908e-05
3.71695e-05
1.60471e-05
3.72048e-05
1.60187e-05
2.10649e-05
2.10636e-05
2.10658e-05
2.10703e-05
2.10626e-05
2.10636e-05
2.10658e-05
4.17304e-05
3.6023e-05
2.55355e-05
3.08217e-05
4.17156e-05
3.59871e-05
2.55359e-05
1.02286e-05
1.02124e-05
4.21817e-05
2.50172e-05
3.66166e-05
3.05289e-05
4.21743e-05
2.50172e-05
3.65962e-05
2.24929e-05
2.28531e-05
3.40623e-05
2.24562e-05
2.28272e-05
3.81069e-05
1.64314e-05
3.81267e-05
1.64275e-05
1.04089e-05
1.04081e-05
3.7175e-05
1.60537e-05
3.72094e-05
1.60365e-05
2.10622e-05
2.10638e-05
2.1066e-05
2.10692e-05
2.10628e-05
2.10638e-05
2.10659e-05
4.17477e-05
3.6033e-05
2.5536e-05
3.08242e-05
4.17218e-05
3.60234e-05
2.55362e-05
1.02342e-05
1.0227e-05
4.21844e-05
2.50167e-05
3.6614e-05
3.05311e-05
4.21742e-05
2.50169e-05
3.65981e-05
2.25058e-05
2.28558e-05
3.40565e-05
2.24838e-05
2.28461e-05
3.81543e-05
1.64638e-05
3.81503e-05
1.6459e-05
1.04291e-05
1.04222e-05
3.72495e-05
1.60951e-05
3.72506e-05
1.60794e-05
2.1064e-05
2.10638e-05
2.10661e-05
2.10728e-05
2.10709e-05
2.10678e-05
2.10719e-05
4.18482e-05
3.61296e-05
2.5541e-05
3.08522e-05
4.17838e-05
3.61273e-05
2.55492e-05
1.02622e-05
1.02542e-05
4.2253e-05
2.50181e-05
3.6677e-05
3.05375e-05
4.22051e-05
2.50203e-05
3.66965e-05
2.25576e-05
2.29136e-05
3.40755e-05
2.25358e-05
2.29079e-05
3.81988e-05
1.64837e-05
3.82006e-05
1.64707e-05
1.04337e-05
1.04243e-05
3.73221e-05
1.61149e-05
3.73468e-05
1.60817e-05
2.10711e-05
2.1071e-05
2.10743e-05
2.10749e-05
2.10662e-05
2.10739e-05
2.10748e-05
4.19064e-05
3.61848e-05
2.55809e-05
3.08888e-05
4.18907e-05
3.61132e-05
2.55837e-05
1.02732e-05
1.02529e-05
4.23415e-05
2.5042e-05
3.67678e-05
3.05846e-05
4.23112e-05
2.50476e-05
3.6752e-05
2.25785e-05
2.2948e-05
3.4146e-05
2.25296e-05
2.291e-05
3.82306e-05
1.64817e-05
3.82342e-05
1.64697e-05
1.04316e-05
1.04199e-05
3.72699e-05
1.6097e-05
3.73227e-05
1.60651e-05
2.10641e-05
2.10732e-05
2.10731e-05
2.10679e-05
2.10609e-05
2.10711e-05
2.10711e-05
4.18371e-05
3.61207e-05
2.55738e-05
3.08755e-05
4.18326e-05
3.60954e-05
2.5572e-05
1.02606e-05
1.02415e-05
4.22993e-05
2.50494e-05
3.67326e-05
3.05839e-05
4.23131e-05
2.50468e-05
3.66968e-05
2.25517e-05
2.29156e-05
3.41222e-05
2.2513e-05
2.28828e-05
3.82407e-05
1.64866e-05
3.82547e-05
1.64737e-05
1.04305e-05
1.04241e-05
3.72559e-05
1.60882e-05
3.73105e-05
1.60559e-05
2.10601e-05
2.10711e-05
2.10711e-05
2.10668e-05
2.106e-05
2.1072e-05
2.10722e-05
4.18274e-05
3.61039e-05
2.55737e-05
3.08681e-05
4.18416e-05
3.60638e-05
2.55718e-05
1.02536e-05
1.02355e-05
4.22681e-05
2.50427e-05
3.67058e-05
3.0578e-05
4.22712e-05
2.50423e-05
3.66702e-05
2.25412e-05
2.28996e-05
3.41244e-05
2.25011e-05
2.28709e-05
3.82721e-05
1.64946e-05
3.82767e-05
1.64831e-05
1.04364e-05
1.04267e-05
3.72499e-05
1.60842e-05
3.72731e-05
1.60589e-05
2.10613e-05
2.10733e-05
2.10745e-05
2.10747e-05
2.10738e-05
2.10836e-05
2.10874e-05
4.18499e-05
3.6126e-05
2.5573e-05
3.08744e-05
4.18196e-05
3.60834e-05
2.55784e-05
1.02528e-05
1.02386e-05
4.22463e-05
2.50417e-05
3.66827e-05
3.05727e-05
4.2243e-05
2.50428e-05
3.66706e-05
2.2547e-05
2.29007e-05
3.41146e-05
2.25136e-05
2.28809e-05
3.82937e-05
1.64998e-05
3.83024e-05
1.64852e-05
1.04367e-05
1.04273e-05
3.72654e-05
1.60873e-05
3.72974e-05
1.60597e-05
2.10783e-05
2.10882e-05
2.10926e-05
2.10887e-05
2.10857e-05
2.10997e-05
2.11039e-05
4.18634e-05
3.61277e-05
2.55916e-05
3.08954e-05
4.18274e-05
3.60977e-05
2.55978e-05
1.02555e-05
1.02392e-05
4.2274e-05
2.50561e-05
3.67062e-05
3.05936e-05
4.22558e-05
2.50619e-05
3.66921e-05
2.25556e-05
2.29124e-05
3.41391e-05
2.25192e-05
2.28881e-05
3.82973e-05
1.64995e-05
3.83118e-05
1.64827e-05
1.04335e-05
1.04209e-05
3.72726e-05
1.60828e-05
3.73151e-05
1.60502e-05
2.10859e-05
2.11014e-05
2.11051e-05
2.1089e-05
2.1081e-05
2.11009e-05
2.11028e-05
4.18645e-05
3.61178e-05
2.56076e-05
3.09014e-05
4.18625e-05
3.60729e-05
2.56076e-05
1.02519e-05
1.02327e-05
4.22836e-05
2.50731e-05
3.67068e-05
3.06083e-05
4.22787e-05
2.50739e-05
3.66801e-05
2.25472e-05
2.29048e-05
3.41589e-05
2.25035e-05
2.28737e-05
3.83014e-05
1.64977e-05
3.8318e-05
1.6482e-05
1.04293e-05
1.042e-05
3.72427e-05
1.60704e-05
3.7286e-05
1.60384e-05
2.10762e-05
2.10975e-05
2.10978e-05
2.10755e-05
2.10667e-05
2.10845e-05
2.10849e-05
4.18217e-05
3.60838e-05
2.55929e-05
3.08782e-05
4.182e-05
3.60425e-05
2.5587e-05
1.02434e-05
1.02245e-05
4.22521e-05
2.50678e-05
3.66834e-05
3.05951e-05
4.22565e-05
2.50622e-05
3.66555e-05
2.2529e-05
2.2889e-05
3.41324e-05
2.24867e-05
2.28584e-05
3.83075e-05
1.64947e-05
3.83234e-05
1.64764e-05
1.04272e-05
1.04151e-05
3.722e-05
1.606e-05
3.72615e-05
1.60289e-05
2.10652e-05
2.10817e-05
2.10822e-05
2.10706e-05
2.10608e-05
2.10761e-05
2.1076e-05
4.17982e-05
3.60637e-05
2.55752e-05
3.08659e-05
4.1787e-05
3.60249e-05
2.55739e-05
1.02363e-05
1.02181e-05
4.22289e-05
2.50496e-05
3.66593e-05
3.05771e-05
4.2229e-05
2.50474e-05
3.66337e-05
2.25147e-05
2.28746e-05
3.41116e-05
2.24741e-05
2.28446e-05
3.8293e-05
1.64888e-05
3.83107e-05
1.64734e-05
1.04247e-05
1.04162e-05
3.7198e-05
1.60511e-05
3.72496e-05
1.60207e-05
2.10589e-05
2.10741e-05
2.10736e-05
2.10639e-05
2.10544e-05
2.1067e-05
2.10674e-05
4.17701e-05
3.60372e-05
2.55645e-05
3.08456e-05
4.17751e-05
3.60009e-05
2.5559e-05
1.02306e-05
1.02133e-05
4.22036e-05
2.5039e-05
3.66365e-05
3.05618e-05
4.22079e-05
2.50356e-05
3.66102e-05
2.25027e-05
2.28614e-05
3.4097e-05
2.24638e-05
2.28342e-05
3.8297e-05
1.64894e-05
3.83138e-05
1.64736e-05
1.04251e-05
1.0414e-05
3.71898e-05
1.60478e-05
3.72191e-05
1.60216e-05
2.10538e-05
2.10651e-05
2.10659e-05
2.10597e-05
2.10529e-05
2.10621e-05
2.10636e-05
4.17737e-05
3.60385e-05
2.55508e-05
3.08388e-05
4.1745e-05
3.60085e-05
2.55509e-05
1.02298e-05
1.02146e-05
4.21826e-05
2.50254e-05
3.66259e-05
3.05467e-05
4.2181e-05
2.50233e-05
3.66076e-05
2.25023e-05
2.28601e-05
3.40814e-05
2.24661e-05
2.28346e-05
3.82961e-05
1.64885e-05
3.83151e-05
1.64732e-05
1.04242e-05
1.0416e-05
3.7199e-05
1.60501e-05
3.72357e-05
1.60225e-05
2.10527e-05
2.10618e-05
2.10633e-05
2.10591e-05
2.10524e-05
2.10616e-05
2.10631e-05
4.17758e-05
3.604e-05
2.55503e-05
3.08376e-05
4.17543e-05
3.60059e-05
2.55505e-05
1.02307e-05
1.02147e-05
4.2187e-05
2.50201e-05
3.66288e-05
3.05448e-05
4.21774e-05
2.502e-05
3.66074e-05
2.25041e-05
2.28608e-05
3.40842e-05
2.24663e-05
2.28355e-05
3.8295e-05
1.64885e-05
3.83107e-05
1.64733e-05
1.04249e-05
1.04142e-05
3.72043e-05
1.60497e-05
3.72311e-05
1.60217e-05
2.10523e-05
2.10616e-05
2.1063e-05
2.1063e-05
4.17778e-05
3.60418e-05
2.55508e-05
3.0838e-05
4.1757e-05
3.60114e-05
2.55509e-05
1.02301e-05
1.02117e-05
4.21904e-05
2.50202e-05
3.66299e-05
3.05449e-05
4.21825e-05
2.50204e-05
3.66077e-05
2.25036e-05
2.2861e-05
3.40845e-05
2.24661e-05
2.2836e-05
3.80965e-05
1.65469e-05
1.64865e-05
3.81019e-05
4.198e-05
3.65042e-05
2.49234e-05
3.05208e-05
2.4928e-05
4.19439e-05
3.64874e-05
4.19728e-05
3.64887e-05
2.49351e-05
3.0516e-05
3.64729e-05
2.49374e-05
4.19366e-05
3.81229e-05
1.64627e-05
3.81113e-05
1.65063e-05
3.81136e-05
1.64498e-05
1.64945e-05
3.81014e-05
4.19779e-05
3.05217e-05
3.64943e-05
2.49354e-05
2.49321e-05
4.20033e-05
3.65097e-05
4.19708e-05
3.05174e-05
3.64785e-05
2.49415e-05
3.64938e-05
2.49397e-05
4.19961e-05
2.28125e-05
2.2499e-05
3.40353e-05
2.27701e-05
2.24511e-05
1.02491e-05
1.02297e-05
1.04021e-05
1.04192e-05
3.40135e-05
2.27557e-05
2.24414e-05
2.27944e-05
2.24815e-05
1.02217e-05
1.02441e-05
4.173e-05
3.60465e-05
2.55173e-05
3.08496e-05
2.55227e-05
4.17029e-05
3.60085e-05
3.71732e-05
1.60592e-05
1.6022e-05
3.72132e-05
4.17202e-05
2.55198e-05
3.60128e-05
3.08364e-05
2.55237e-05
3.59743e-05
4.16934e-05
3.72135e-05
1.60275e-05
3.71707e-05
1.60617e-05
4.17205e-05
3.08505e-05
3.60072e-05
2.5529e-05
2.55262e-05
4.17371e-05
3.60434e-05
3.72071e-05
1.60138e-05
1.60479e-05
3.71643e-05
4.17107e-05
3.08371e-05
2.55284e-05
3.59732e-05
2.55265e-05
3.60093e-05
4.1727e-05
3.71698e-05
1.60634e-05
1.60251e-05
3.72117e-05
4.17146e-05
2.55222e-05
3.60196e-05
3.08316e-05
2.55253e-05
3.59807e-05
4.16912e-05
3.71678e-05
1.60641e-05
1.60267e-05
3.72093e-05
4.17103e-05
3.08219e-05
3.59826e-05
2.55304e-05
3.60211e-05
2.55294e-05
4.17235e-05
3.72035e-05
1.60153e-05
1.60505e-05
3.71592e-05
4.17043e-05
3.08314e-05
2.55288e-05
3.59801e-05
2.55273e-05
3.60157e-05
4.17179e-05
3.72017e-05
1.60179e-05
1.60525e-05
3.71584e-05
2.24683e-05
2.28901e-05
3.40588e-05
2.2425e-05
2.286e-05
1.04564e-05
1.04444e-05
1.02172e-05
1.02363e-05
3.40374e-05
2.24193e-05
2.28559e-05
2.24597e-05
2.28838e-05
1.04413e-05
1.04521e-05
4.21875e-05
2.50273e-05
3.66266e-05
3.05501e-05
2.50264e-05
3.66039e-05
4.21824e-05
3.82861e-05
1.65103e-05
1.64887e-05
3.8299e-05
3.8286e-05
1.65133e-05
1.64919e-05
3.83008e-05
4.21766e-05
3.05277e-05
2.50185e-05
3.6592e-05
2.50189e-05
3.66114e-05
4.21819e-05
4.21783e-05
3.05496e-05
2.50246e-05
3.66072e-05
2.50254e-05
3.6625e-05
4.21827e-05
3.83023e-05
1.6483e-05
1.65017e-05
3.82834e-05
3.83012e-05
1.64869e-05
1.65053e-05
3.82835e-05
1.02523e-05
1.02307e-05
1.04551e-05
1.04436e-05
3.40457e-05
2.24634e-05
2.28313e-05
2.25053e-05
2.28569e-05
1.02252e-05
1.0245e-05
1.04413e-05
1.04517e-05
1.042e-05
1.04054e-05
1.02432e-05
1.02257e-05
2.28287e-05
2.2469e-05
3.4058e-05
2.27999e-05
2.24317e-05
1.04014e-05
1.04128e-05
1.02243e-05
1.02412e-05
3.40358e-05
2.27977e-05
2.24315e-05
2.28243e-05
2.2468e-05
3.8103e-05
1.64597e-05
3.81169e-05
1.64268e-05
4.20193e-05
3.65166e-05
2.49378e-05
3.05238e-05
4.2e-05
3.64994e-05
2.49398e-05
4.20117e-05
3.64998e-05
2.4943e-05
3.05202e-05
4.19928e-05
3.64797e-05
2.49441e-05
3.81296e-05
1.64265e-05
1.64511e-05
3.81169e-05
3.81188e-05
1.64144e-05
1.64383e-05
3.81057e-05
4.20153e-05
3.05246e-05
3.65006e-05
2.49421e-05
3.65204e-05
2.49412e-05
4.20294e-05
4.20076e-05
3.05211e-05
3.64819e-05
2.49449e-05
3.65005e-05
2.49448e-05
4.20213e-05
2.27791e-05
2.24757e-05
3.40297e-05
2.2752e-05
2.24358e-05
1.0236e-05
1.02179e-05
1.03926e-05
1.04029e-05
3.40077e-05
2.27522e-05
2.24369e-05
2.27768e-05
2.24718e-05
1.02182e-05
1.02333e-05
4.17344e-05
3.60433e-05
2.5531e-05
3.08511e-05
4.17243e-05
3.60108e-05
2.55337e-05
3.71611e-05
1.60402e-05
3.71997e-05
1.60091e-05
4.17246e-05
2.55302e-05
3.60095e-05
3.08382e-05
4.17143e-05
2.55323e-05
3.59768e-05
3.72028e-05
1.60202e-05
1.60498e-05
3.71672e-05
4.17223e-05
3.08513e-05
3.60152e-05
2.55388e-05
3.60477e-05
2.55363e-05
4.17394e-05
3.71967e-05
1.60058e-05
1.60358e-05
3.71605e-05
4.17124e-05
3.08392e-05
2.55366e-05
3.5981e-05
2.55346e-05
3.60137e-05
4.17291e-05
3.71552e-05
1.60413e-05
3.7194e-05
1.60104e-05
4.17193e-05
2.55305e-05
3.60163e-05
3.08312e-05
4.17056e-05
2.55324e-05
3.59821e-05
3.71536e-05
1.60443e-05
3.71932e-05
1.60129e-05
4.17126e-05
3.08218e-05
3.59864e-05
2.55348e-05
3.60182e-05
2.5534e-05
4.17266e-05
3.71912e-05
1.60097e-05
1.6037e-05
3.71554e-05
4.17072e-05
3.08315e-05
2.55353e-05
3.59854e-05
2.55341e-05
3.60184e-05
4.17205e-05
3.71892e-05
1.6011e-05
1.60397e-05
3.71533e-05
2.24547e-05
2.28806e-05
3.40557e-05
2.2417e-05
2.28546e-05
1.04494e-05
1.04394e-05
1.0213e-05
1.02301e-05
3.40344e-05
2.24161e-05
2.28533e-05
2.24532e-05
2.28795e-05
1.04381e-05
1.04476e-05
4.21868e-05
2.50242e-05
3.66291e-05
3.05494e-05
4.2178e-05
2.5024e-05
3.66114e-05
3.82839e-05
1.64968e-05
3.82968e-05
1.64799e-05
3.82853e-05
1.6501e-05
3.82976e-05
1.64838e-05
4.21756e-05
3.05278e-05
2.50176e-05
3.65963e-05
2.50179e-05
3.66169e-05
4.21795e-05
4.21781e-05
3.05495e-05
2.50229e-05
3.66111e-05
2.50235e-05
3.66326e-05
4.21812e-05
3.82995e-05
1.64778e-05
1.64941e-05
3.828e-05
3.83002e-05
1.64812e-05
1.6498e-05
3.82804e-05
1.02401e-05
1.02219e-05
1.04496e-05
1.04396e-05
3.40414e-05
2.24571e-05
2.28285e-05
2.24946e-05
2.2855e-05
1.02207e-05
1.02373e-05
1.04383e-05
1.0448e-05
1.04096e-05
1.04001e-05
1.024e-05
1.0224e-05
2.28229e-05
2.24674e-05
3.40577e-05
2.27974e-05
2.24301e-05
1.04029e-05
1.04089e-05
1.02278e-05
1.02404e-05
3.40359e-05
2.27981e-05
2.24311e-05
2.28224e-05
2.24661e-05
3.81072e-05
1.64271e-05
3.81215e-05
1.64076e-05
4.20342e-05
3.65221e-05
2.49424e-05
3.05261e-05
4.20246e-05
3.65029e-05
2.49423e-05
4.20258e-05
3.65038e-05
2.49446e-05
3.05225e-05
4.20164e-05
3.64846e-05
2.49434e-05
3.81328e-05
1.64152e-05
1.64318e-05
3.8114e-05
3.8122e-05
1.64076e-05
1.64215e-05
3.81035e-05
4.20282e-05
3.05261e-05
3.64937e-05
2.49402e-05
3.65224e-05
2.49415e-05
4.20311e-05
4.20198e-05
3.05234e-05
3.64776e-05
2.49401e-05
3.65026e-05
2.49417e-05
4.2023e-05
2.27769e-05
2.24744e-05
3.40252e-05
2.27565e-05
2.24392e-05
1.02348e-05
1.02259e-05
1.03972e-05
1.03999e-05
3.40036e-05
2.27588e-05
2.2456e-05
2.27837e-05
2.2474e-05
1.02356e-05
1.02443e-05
4.17442e-05
3.60512e-05
2.55405e-05
3.08523e-05
4.1729e-05
3.60137e-05
2.55416e-05
3.71634e-05
1.60327e-05
3.7198e-05
1.6004e-05
4.17336e-05
2.55381e-05
3.6017e-05
3.08416e-05
4.17185e-05
2.55391e-05
3.59787e-05
3.72056e-05
1.60226e-05
1.60462e-05
3.71713e-05
4.17316e-05
3.08522e-05
3.60119e-05
2.55421e-05
3.60485e-05
2.55419e-05
4.17434e-05
3.71995e-05
1.60077e-05
1.60314e-05
3.71646e-05
4.1721e-05
3.08428e-05
2.55397e-05
3.59762e-05
2.55396e-05
3.60134e-05
4.17328e-05
3.716e-05
1.60381e-05
3.71927e-05
1.60168e-05
4.17244e-05
2.55362e-05
3.60214e-05
3.08327e-05
4.17093e-05
2.55367e-05
3.59839e-05
3.71588e-05
1.60383e-05
3.7191e-05
1.60138e-05
4.17174e-05
3.08216e-05
3.59931e-05
2.55358e-05
3.6024e-05
2.55358e-05
4.17314e-05
3.71979e-05
1.60339e-05
1.6049e-05
3.71757e-05
4.17117e-05
3.08336e-05
2.55371e-05
3.59848e-05
2.5537e-05
3.6019e-05
4.1725e-05
3.71963e-05
1.60251e-05
1.60442e-05
3.71709e-05
2.24521e-05
2.28781e-05
3.40576e-05
2.2414e-05
2.28517e-05
1.04466e-05
1.0438e-05
1.02161e-05
1.02287e-05
3.40358e-05
2.24142e-05
2.2852e-05
2.24501e-05
2.28764e-05
1.0443e-05
1.04472e-05
4.2184e-05
2.50223e-05
3.66314e-05
3.05503e-05
4.2176e-05
2.50219e-05
3.66104e-05
3.82809e-05
1.64922e-05
3.82936e-05
1.6477e-05
3.82816e-05
1.64958e-05
3.82942e-05
1.64801e-05
4.2173e-05
3.05298e-05
2.50168e-05
3.65942e-05
2.50169e-05
3.66167e-05
4.21787e-05
4.21752e-05
3.05508e-05
2.50211e-05
3.66082e-05
2.50216e-05
3.6631e-05
4.218e-05
3.82969e-05
1.64843e-05
1.6492e-05
3.82827e-05
3.8297e-05
1.64866e-05
1.64953e-05
3.82832e-05
1.02367e-05
1.02226e-05
1.04469e-05
1.04384e-05
3.404e-05
2.24645e-05
2.28276e-05
2.2493e-05
2.28519e-05
1.02302e-05
1.02399e-05
1.0443e-05
1.04476e-05
1.04139e-05
1.04134e-05
1.0246e-05
1.02389e-05
2.28268e-05
2.24703e-05
3.40534e-05
2.28148e-05
2.24463e-05
1.04269e-05
1.04263e-05
1.02541e-05
1.02588e-05
3.4033e-05
2.28425e-05
2.24756e-05
2.2848e-05
2.24909e-05
3.80991e-05
1.64256e-05
3.81168e-05
1.64214e-05
4.2019e-05
3.65119e-05
2.49392e-05
3.05273e-05
4.20207e-05
3.64898e-05
2.49378e-05
4.20119e-05
3.6497e-05
2.49386e-05
3.05249e-05
4.20129e-05
3.64794e-05
2.49368e-05
3.8124e-05
1.64441e-05
1.64469e-05
3.81274e-05
3.81178e-05
1.64355e-05
1.64402e-05
3.81214e-05
4.20105e-05
3.05276e-05
3.65119e-05
2.49359e-05
3.65124e-05
2.49364e-05
4.2015e-05
4.20038e-05
3.05256e-05
3.65066e-05
2.49352e-05
3.65037e-05
2.49355e-05
4.20098e-05
2.27875e-05
2.24993e-05
3.40252e-05
2.2778e-05
2.24829e-05
1.02548e-05
1.02496e-05
1.04185e-05
1.04202e-05
3.40053e-05
2.28024e-05
2.25162e-05
2.2811e-05
2.25312e-05
1.0261e-05
1.0269e-05
4.17423e-05
3.60471e-05
2.55421e-05
3.08528e-05
4.17311e-05
3.60103e-05
2.55423e-05
3.71685e-05
1.60388e-05
3.72024e-05
1.60217e-05
4.17314e-05
2.55398e-05
3.60112e-05
3.08442e-05
4.17204e-05
2.55399e-05
3.5974e-05
3.72127e-05
1.60594e-05
1.60714e-05
3.71991e-05
4.17288e-05
3.0853e-05
3.60377e-05
2.55428e-05
3.60477e-05
2.55424e-05
4.17444e-05
3.72063e-05
1.60452e-05
1.60568e-05
3.71928e-05
4.17179e-05
3.08443e-05
2.55403e-05
3.60011e-05
2.55401e-05
3.60113e-05
4.17334e-05
3.72132e-05
1.60692e-05
3.72223e-05
1.60574e-05
4.17388e-05
2.55373e-05
3.60216e-05
3.08351e-05
4.17148e-05
2.55376e-05
3.59952e-05
3.72066e-05
1.60585e-05
3.72169e-05
1.60435e-05
4.17401e-05
3.08259e-05
3.60775e-05
2.5538e-05
3.60745e-05
2.55367e-05
4.17879e-05
3.72658e-05
1.60766e-05
1.60926e-05
3.72655e-05
4.17309e-05
3.08357e-05
2.5539e-05
3.60406e-05
2.55381e-05
3.60407e-05
4.17764e-05
3.72584e-05
1.6063e-05
1.60784e-05
3.72573e-05
2.24531e-05
2.28809e-05
3.40516e-05
2.24286e-05
2.28712e-05
1.04551e-05
1.04568e-05
1.02423e-05
1.02469e-05
3.40307e-05
2.2457e-05
2.29034e-05
2.2473e-05
2.29059e-05
1.04736e-05
1.0471e-05
4.21864e-05
2.50208e-05
3.66281e-05
3.05507e-05
4.21756e-05
2.50207e-05
3.66103e-05
3.83027e-05
1.6505e-05
3.82993e-05
1.65061e-05
3.8303e-05
1.65074e-05
3.82998e-05
1.65076e-05
4.21788e-05
3.05315e-05
2.50173e-05
3.66394e-05
2.5017e-05
3.66258e-05
4.22059e-05
4.21809e-05
3.05507e-05
2.50208e-05
3.66505e-05
2.50207e-05
3.6637e-05
4.22071e-05
3.83298e-05
1.65333e-05
1.65296e-05
3.83476e-05
3.83297e-05
1.65343e-05
1.6531e-05
3.83474e-05
1.0249e-05
1.02423e-05
1.04552e-05
1.04563e-05
3.40348e-05
2.25121e-05
2.28773e-05
2.25291e-05
2.28803e-05
1.02541e-05
1.02616e-05
1.04724e-05
1.04704e-05
1.04394e-05
1.04374e-05
1.02739e-05
1.02658e-05
2.28784e-05
2.25242e-05
3.40743e-05
2.2872e-05
2.25087e-05
1.04414e-05
1.04478e-05
1.02691e-05
1.02836e-05
3.40574e-05
2.28891e-05
2.25277e-05
2.29043e-05
2.25533e-05
3.81488e-05
1.64537e-05
3.81446e-05
1.64468e-05
4.20349e-05
3.65458e-05
2.4936e-05
3.05338e-05
4.20104e-05
3.65568e-05
2.49366e-05
4.2031e-05
3.65372e-05
2.49354e-05
3.05407e-05
4.20059e-05
3.65416e-05
2.49365e-05
3.81775e-05
1.64679e-05
1.64768e-05
3.81797e-05
3.81722e-05
1.64529e-05
1.64637e-05
3.81742e-05
4.2033e-05
3.05432e-05
3.65942e-05
2.49428e-05
3.65898e-05
2.49389e-05
4.20661e-05
4.2029e-05
3.05505e-05
3.65655e-05
2.49422e-05
3.65678e-05
2.49394e-05
4.20614e-05
2.28334e-05
2.25616e-05
3.40628e-05
2.28234e-05
2.25344e-05
1.02786e-05
1.02666e-05
1.04249e-05
1.04313e-05
3.40471e-05
2.28235e-05
2.25282e-05
2.28519e-05
2.2569e-05
1.02591e-05
1.02821e-05
4.17799e-05
3.609e-05
2.55433e-05
3.08584e-05
4.17365e-05
3.60937e-05
2.55446e-05
3.72437e-05
1.60812e-05
3.72445e-05
1.6066e-05
4.17694e-05
2.55408e-05
3.60535e-05
3.08479e-05
4.17257e-05
2.55418e-05
3.60574e-05
3.73041e-05
1.60875e-05
1.6111e-05
3.72997e-05
4.17754e-05
3.08672e-05
3.61437e-05
2.55551e-05
3.61458e-05
2.55475e-05
4.184e-05
3.72985e-05
1.60745e-05
1.60979e-05
3.72944e-05
4.1765e-05
3.08546e-05
2.55516e-05
3.61084e-05
2.55445e-05
3.61099e-05
4.18299e-05
3.7312e-05
1.61077e-05
3.73193e-05
1.60836e-05
4.18351e-05
2.55413e-05
3.60912e-05
3.08468e-05
4.1772e-05
2.55471e-05
3.60896e-05
3.73046e-05
1.60954e-05
3.73111e-05
1.60736e-05
4.18448e-05
3.08676e-05
3.61527e-05
2.55734e-05
3.61743e-05
2.5562e-05
4.18981e-05
3.73573e-05
1.60765e-05
1.61105e-05
3.7328e-05
4.18318e-05
3.08609e-05
2.55707e-05
3.61247e-05
2.55588e-05
3.61368e-05
4.18869e-05
3.73506e-05
1.60717e-05
1.6102e-05
3.73242e-05
2.25055e-05
2.29405e-05
3.40625e-05
2.249e-05
2.29359e-05
1.04866e-05
1.04846e-05
1.02577e-05
1.02721e-05
3.40454e-05
2.25094e-05
2.29526e-05
2.25348e-05
2.29684e-05
1.04853e-05
1.04945e-05
4.22538e-05
2.50214e-05
3.66881e-05
3.05563e-05
4.22063e-05
2.50233e-05
3.67068e-05
3.8405e-05
1.65556e-05
3.8382e-05
1.65533e-05
3.84047e-05
1.65568e-05
3.83816e-05
1.65545e-05
4.22555e-05
3.05468e-05
2.50343e-05
3.67411e-05
2.50258e-05
3.67334e-05
4.23111e-05
4.22563e-05
3.05658e-05
2.50367e-05
3.67513e-05
2.50284e-05
3.67437e-05
4.23121e-05
3.84367e-05
1.65567e-05
1.65711e-05
3.84463e-05
3.84363e-05
1.65591e-05
1.65728e-05
3.84462e-05
1.02724e-05
1.02603e-05
1.04854e-05
1.04829e-05
3.40589e-05
2.25441e-05
2.29229e-05
2.25764e-05
2.29395e-05
1.02588e-05
1.02766e-05
1.04833e-05
1.04928e-05
1.04501e-05
1.04393e-05
1.02846e-05
1.02646e-05
2.29163e-05
2.25659e-05
3.41427e-05
2.28844e-05
2.25227e-05
1.0436e-05
1.04472e-05
1.02579e-05
1.02789e-05
3.41252e-05
2.28719e-05
2.25058e-05
2.29067e-05
2.25562e-05
3.81933e-05
1.64688e-05
3.81953e-05
1.64551e-05
4.20903e-05
3.66214e-05
2.4946e-05
3.05716e-05
4.20643e-05
3.66119e-05
2.49479e-05
4.20849e-05
3.659e-05
2.49442e-05
3.05646e-05
4.20594e-05
3.65725e-05
2.4945e-05
3.82181e-05
1.64674e-05
1.64855e-05
3.8215e-05
3.82127e-05
1.6454e-05