/*--------------------------------*- C++ -*----------------------------------*\
| =========                 |                                                 |
| \\      /  F ield         | OpenFOAM: The Open Source CFD Toolbox           |
|  \\    /   O peration     | Version:  2206                                  |
|   \\  /    A nd           | Website:  www.openfoam.com                      |
|    \\/     M anipulation  |                                                 |
\*---------------------------------------------------------------------------*/
FoamFile
{
    version     2.0;
    format      ascii;
    arch        "LSB;label=32;scalar=64";
    class       volScalarField;
    location    "0.5";
    object      nut;
}
// * * * * * * * * * * * * * * * * * * * * * * * * * * * * * * * * * * * * * //

dimensions      [0 2 -1 0 0 0 0];

internalField   nonuniform List<scalar> 
66928
(
7.3363e-07
7.89692e-07
7.77139e-07
7.75439e-07
7.33612e-07
7.92541e-07
7.34746e-07
7.33385e-07
1.03317e-06
1.03457e-06
2.56572e-08
2.50703e-08
1.1127e-07
1.08474e-07
5.50155e-08
2.1689e-07
5.29997e-08
2.08981e-07
2.11514e-07
9.81788e-07
4.15253e-07
5.29512e-08
2.08945e-07
9.81003e-07
2.11357e-07
4.15259e-07
2.50456e-08
1.08431e-07
1.11512e-07
2.56745e-08
2.17605e-07
5.4839e-08
2.56637e-08
2.56214e-08
2.50926e-08
2.5055e-08
1.1142e-07
1.08636e-07
7.33397e-07
1.11236e-07
1.0843e-07
2.55896e-08
2.56275e-08
2.50448e-08
2.50786e-08
7.34479e-07
1.11214e-07
1.08404e-07
1.11361e-07
1.08595e-07
2.56771e-08
1.79776e-07
2.92067e-07
1.11443e-07
5.18482e-08
5.19099e-08
2.927e-07
1.80326e-07
1.78526e-07
2.87509e-07
1.08666e-07
5.04968e-08
5.05663e-08
2.8776e-07
1.79241e-07
6.9013e-08
2.21052e-08
2.19067e-08
2.21238e-08
2.19305e-08
6.88808e-08
5.50824e-08
1.08533e-07
1.08569e-07
2.30807e-08
1.03683e-07
2.21725e-08
1.78644e-07
4.62461e-08
3.94281e-08
1.03596e-07
2.21581e-08
4.62351e-08
1.78557e-07
3.94096e-08
1.78626e-07
2.87509e-07
1.08626e-07
5.04356e-08
2.87754e-07
5.05076e-08
1.79361e-07
1.799e-07
2.92627e-07
1.11646e-07
5.19633e-08
5.20214e-08
2.93283e-07
1.80454e-07
6.9105e-08
2.19114e-08
2.2151e-08
2.19373e-08
2.21737e-08
6.89666e-08
2.56906e-08
5.48898e-08
1.08522e-07
1.08613e-07
2.29456e-08
2.56407e-08
2.56463e-08
2.50619e-08
2.50849e-08
6.90133e-08
2.21043e-08
2.19031e-08
2.21241e-08
2.1926e-08
6.88841e-08
1.80321e-07
2.92798e-07
5.18917e-08
1.11252e-07
1.79768e-07
5.18292e-08
2.92189e-07
1.79218e-07
2.87798e-07
5.05575e-08
1.08448e-07
1.78499e-07
5.04882e-08
2.87537e-07
6.88809e-08
2.21246e-08
2.19278e-08
6.90111e-08
2.21051e-08
2.19045e-08
1.79764e-07
5.18142e-08
1.11385e-07
2.92271e-07
5.18747e-08
1.80318e-07
2.92901e-07
1.78484e-07
5.04806e-08
1.08612e-07
2.87559e-07
5.05492e-08
1.7921e-07
2.8782e-07
2.5611e-08
2.5604e-08
2.50735e-08
2.50493e-08
6.88849e-08
2.2123e-08
2.19248e-08
6.90157e-08
2.21029e-08
2.19019e-08
1.79763e-07
2.92388e-07
1.11345e-07
5.17929e-08
5.185e-08
2.93035e-07
1.80316e-07
1.78481e-07
2.87589e-07
1.08582e-07
5.04691e-08
5.05367e-08
2.87857e-07
1.79207e-07
1.80318e-07
5.1861e-08
2.92975e-07
1.11224e-07
1.79763e-07
5.18024e-08
2.92336e-07
1.7921e-07
5.05424e-08
2.87841e-07
1.08415e-07
1.78482e-07
5.04743e-08
2.87579e-07
6.90151e-08
2.21014e-08
2.19007e-08
2.21215e-08
2.19236e-08
6.8884e-08
3.29742e-07
7.34754e-07
4.5557e-07
4.52012e-07
4.62469e-07
4.60671e-07
3.28219e-07
3.2985e-07
7.3482e-07
4.49223e-07
4.58505e-07
4.57819e-07
4.65361e-07
3.28329e-07
3.28237e-07
4.62489e-07
4.60724e-07
7.33567e-07
3.29766e-07
4.55555e-07
4.52037e-07
3.29777e-07
7.34504e-07
4.55483e-07
4.52036e-07
4.62403e-07
4.60731e-07
3.2824e-07
1.05148e-06
1.05106e-06
5.67086e-07
4.10254e-07
2.16634e-07
3.04726e-07
4.1345e-07
3.04945e-07
5.61912e-07
5.49386e-07
3.98506e-07
2.10557e-07
2.95442e-07
4.03074e-07
2.95256e-07
5.39089e-07
6.29353e-07
4.17316e-07
3.76202e-07
6.81488e-07
3.77535e-07
7.04266e-07
6.13452e-07
5.50161e-07
3.99659e-07
2.10396e-07
2.95272e-07
2.95027e-07
4.04211e-07
5.3996e-07
6.30268e-07
4.17315e-07
6.82724e-07
3.76166e-07
7.05581e-07
3.77413e-07
6.14257e-07
5.65484e-07
4.09422e-07
2.17379e-07
3.06439e-07
4.12794e-07
3.07051e-07
5.60469e-07
3.29775e-07
7.34616e-07
4.55536e-07
4.52038e-07
3.28242e-07
4.62457e-07
4.60725e-07
3.28244e-07
7.33345e-07
4.62429e-07
4.60727e-07
3.29778e-07
4.55513e-07
4.52043e-07
1.03334e-06
7.77086e-07
7.92568e-07
7.34589e-07
1.03474e-06
7.77042e-07
7.92256e-07
7.34354e-07
1.03576e-06
7.77051e-07
7.92304e-07
7.34339e-07
1.03646e-06
7.7711e-07
7.92421e-07
7.34265e-07
1.0373e-06
7.77363e-07
7.92429e-07
7.3435e-07
1.03801e-06
7.78574e-07
7.93318e-07
7.35871e-07
1.03796e-06
7.7837e-07
7.93661e-07
7.36859e-07
1.03768e-06
7.7826e-07
7.93445e-07
7.35538e-07
1.03788e-06
7.78241e-07
7.93339e-07
7.35243e-07
1.03855e-06
7.78734e-07
7.93704e-07
7.36388e-07
1.03897e-06
7.79017e-07
7.94208e-07
7.3663e-07
1.03872e-06
7.78576e-07
7.94039e-07
7.36237e-07
1.03817e-06
7.78186e-07
7.93529e-07
7.35757e-07
1.03805e-06
7.77801e-07
7.93221e-07
7.35496e-07
1.03784e-06
7.77517e-07
7.92795e-07
7.35096e-07
1.03773e-06
7.77507e-07
7.92685e-07
7.35053e-07
1.0377e-06
7.77498e-07
7.92708e-07
7.35084e-07
7.89574e-07
7.88968e-07
7.89608e-07
7.8911e-07
7.34108e-07
7.32732e-07
7.77081e-07
7.75311e-07
7.77124e-07
7.75295e-07
7.75851e-07
7.77035e-07
7.75694e-07
7.34635e-07
7.33346e-07
7.92483e-07
7.92296e-07
7.92225e-07
7.33187e-07
7.34484e-07
7.33079e-07
7.89591e-07
7.89056e-07
7.89655e-07
7.89143e-07
7.33861e-07
7.32519e-07
7.77102e-07
7.75288e-07
7.77113e-07
7.75377e-07
7.75691e-07
7.77042e-07
7.75757e-07
7.34467e-07
7.33258e-07
7.9221e-07
7.92311e-07
7.92279e-07
7.3318e-07
7.34227e-07
7.33068e-07
7.89667e-07
7.89132e-07
7.897e-07
7.89245e-07
7.33647e-07
7.32444e-07
7.77108e-07
7.75391e-07
7.77175e-07
7.75531e-07
7.75767e-07
7.77078e-07
7.75864e-07
7.34394e-07
7.33116e-07
7.9228e-07
7.9242e-07
7.92367e-07
7.33102e-07
7.34216e-07
7.33296e-07
7.89712e-07
7.89211e-07
7.89801e-07
7.893e-07
7.33611e-07
7.32798e-07
7.77177e-07
7.75549e-07
7.77229e-07
7.7558e-07
7.75878e-07
7.77201e-07
7.7591e-07
7.34241e-07
7.33184e-07
7.92363e-07
7.92436e-07
7.92341e-07
7.33166e-07
7.34479e-07
7.34503e-07
7.89827e-07
7.89386e-07
7.90379e-07
7.9008e-07
7.33996e-07
7.34461e-07
7.77225e-07
7.75567e-07
7.77801e-07
7.76052e-07
7.75943e-07
7.78376e-07
7.7676e-07
7.34319e-07
7.34163e-07
7.92331e-07
7.93001e-07
7.92919e-07
7.34493e-07
7.3583e-07
7.36243e-07
7.90628e-07
7.90161e-07
7.90904e-07
7.9014e-07
7.35823e-07
7.34574e-07
7.78165e-07
7.7643e-07
7.78655e-07
7.76957e-07
7.77044e-07
7.78466e-07
7.77204e-07
7.355e-07
7.36107e-07
7.93238e-07
7.93699e-07
7.93563e-07
7.36028e-07
7.37225e-07
7.33971e-07
7.90854e-07
7.90063e-07
7.90653e-07
7.90147e-07
7.35259e-07
7.34171e-07
7.78613e-07
7.7693e-07
7.78364e-07
7.76719e-07
7.7708e-07
7.783e-07
7.76984e-07
7.37128e-07
7.33896e-07
7.93504e-07
7.9345e-07
7.93282e-07
7.34118e-07
7.35233e-07
7.34714e-07
7.90672e-07
7.90057e-07
7.90619e-07
7.89981e-07
7.35529e-07
7.3319e-07
7.78374e-07
7.76735e-07
7.78281e-07
7.76653e-07
7.76989e-07
7.78171e-07
7.76902e-07
7.35177e-07
7.34597e-07
7.93271e-07
7.93357e-07
7.93185e-07
7.34349e-07
7.35485e-07
7.34928e-07
7.90628e-07
7.90011e-07
7.90841e-07
7.90465e-07
7.34436e-07
7.34315e-07
7.78248e-07
7.76629e-07
7.78404e-07
7.76834e-07
7.76922e-07
7.78584e-07
7.77278e-07
7.35373e-07
7.34916e-07
7.93191e-07
7.93546e-07
7.93492e-07
7.35258e-07
7.36143e-07
7.34935e-07
7.90952e-07
7.90543e-07
7.91284e-07
7.90766e-07
7.35345e-07
7.34358e-07
7.78497e-07
7.76964e-07
7.78902e-07
7.77401e-07
7.77441e-07
7.78991e-07
7.77875e-07
7.36159e-07
7.35032e-07
7.93655e-07
7.94153e-07
7.94099e-07
7.35337e-07
7.36155e-07
7.34919e-07
7.91315e-07
7.90757e-07
7.91224e-07
7.90609e-07
7.35504e-07
7.34235e-07
7.7897e-07
7.77485e-07
7.78963e-07
7.775e-07
7.7792e-07
7.78748e-07
7.7777e-07
7.36278e-07
7.35121e-07
7.94151e-07
7.94181e-07
7.94056e-07
7.35115e-07
7.36e-07
7.34434e-07
7.9108e-07
7.90395e-07
7.90824e-07
7.90172e-07
7.35269e-07
7.33502e-07
7.78821e-07
7.77382e-07
7.78405e-07
7.76913e-07
7.7759e-07
7.78223e-07
7.77171e-07
7.36213e-07
7.3458e-07
7.93892e-07
7.93617e-07
7.93483e-07
7.34605e-07
7.35595e-07
7.34333e-07
7.90812e-07
7.90147e-07
7.9082e-07
7.90218e-07
7.34692e-07
7.33705e-07
7.78328e-07
7.76827e-07
7.78254e-07
7.76702e-07
7.77088e-07
7.77938e-07
7.76894e-07
7.35719e-07
7.34303e-07
7.9339e-07
7.93326e-07
7.93184e-07
7.34321e-07
7.35554e-07
7.33933e-07
7.90794e-07
7.9007e-07
7.90566e-07
7.89897e-07
7.34762e-07
7.33017e-07
7.78176e-07
7.76625e-07
7.77802e-07
7.76213e-07
7.76772e-07
7.77523e-07
7.76447e-07
7.35518e-07
7.33875e-07
7.93081e-07
7.92886e-07
7.92778e-07
7.33936e-07
7.35075e-07
7.33842e-07
7.90513e-07
7.89873e-07
7.90457e-07
7.89963e-07
7.34213e-07
7.33389e-07
7.77688e-07
7.76112e-07
7.77595e-07
7.76013e-07
7.76385e-07
7.77501e-07
7.76346e-07
7.35016e-07
7.33751e-07
7.92696e-07
7.92697e-07
7.92592e-07
7.33835e-07
7.35067e-07
7.33847e-07
7.90448e-07
7.89883e-07
7.90452e-07
7.89865e-07
7.34543e-07
7.33004e-07
7.77587e-07
7.76025e-07
7.77607e-07
7.76028e-07
7.76349e-07
7.77488e-07
7.76368e-07
7.34984e-07
7.33793e-07
7.92585e-07
7.92698e-07
7.92597e-07
7.33856e-07
7.35075e-07
7.90449e-07
7.8984e-07
7.34239e-07
7.77602e-07
7.76037e-07
7.76359e-07
7.76344e-07
7.35031e-07
7.92588e-07
7.92578e-07
7.33824e-07
2.17463e-07
5.50245e-08
2.17117e-07
5.48363e-08
2.56382e-08
2.55897e-08
2.08963e-07
5.30653e-08
2.07515e-07
5.29586e-08
1.03348e-06
1.03455e-06
1.03469e-06
1.03448e-06
1.03429e-06
1.03472e-06
1.0349e-06
4.15367e-07
2.10523e-07
9.81551e-07
7.76992e-07
2.11452e-07
9.81826e-07
4.17397e-07
2.50674e-08
2.503e-08
4.35421e-07
1.00302e-06
2.17379e-07
7.92498e-07
1.00297e-06
2.17605e-07
4.37478e-07
1.08899e-07
1.11395e-07
7.33213e-07
1.0868e-07
1.11265e-07
2.17365e-07
5.47452e-08
2.17077e-07
5.46448e-08
2.55684e-08
2.5543e-08
2.08896e-07
5.30004e-08
2.07443e-07
5.29159e-08
1.03455e-06
1.03481e-06
1.03499e-06
1.03558e-06
1.03529e-06
1.03515e-06
1.03532e-06
4.154e-07
2.10486e-07
9.82418e-07
7.77026e-07
4.17531e-07
2.1146e-07
9.82603e-07
2.50443e-08
2.50134e-08
4.35404e-07
1.00295e-06
2.17387e-07
7.92259e-07
4.37402e-07
1.00295e-06
2.17631e-07
1.08816e-07
1.11383e-07
7.33197e-07
1.08629e-07
1.11259e-07
2.1732e-07
5.46335e-08
2.17016e-07
5.45748e-08
2.55489e-08
2.55344e-08
2.08917e-07
5.29776e-08
2.07441e-07
5.29015e-08
1.03545e-06
1.03528e-06
1.03546e-06
1.03627e-06
1.03606e-06
1.03582e-06
1.03599e-06
4.15477e-07
2.10517e-07
9.83038e-07
7.76958e-07
4.17585e-07
2.11462e-07
9.83157e-07
2.50351e-08
2.50081e-08
4.35382e-07
1.00299e-06
2.17408e-07
7.92335e-07
4.37373e-07
1.003e-06
2.17636e-07
1.08791e-07
1.11369e-07
7.33137e-07
1.08616e-07
1.11244e-07
2.17223e-07
5.46101e-08
2.16938e-07
5.4606e-08
2.55696e-08
2.55757e-08
2.08968e-07
5.30005e-08
2.07482e-07
5.29618e-08
1.03623e-06
1.03604e-06
1.03618e-06
1.03715e-06
1.03687e-06
1.03649e-06
1.03657e-06
4.15671e-07
2.10586e-07
9.83508e-07
7.77124e-07
4.17667e-07
2.11727e-07
9.83584e-07
2.50493e-08
2.50444e-08
4.35439e-07
1.00313e-06
2.17399e-07
7.92433e-07
4.37391e-07
1.00318e-06
2.1766e-07
1.08856e-07
1.11385e-07
7.33107e-07
1.08753e-07
1.1134e-07
2.17495e-07
5.47184e-08
2.17064e-07
5.47116e-08
2.56189e-08
2.5612e-08
2.09412e-07
5.31381e-08
2.07736e-07
5.31038e-08
1.03709e-06
1.03659e-06
1.03668e-06
1.03785e-06
1.03787e-06
1.03704e-06
1.03728e-06
4.1673e-07
2.11186e-07
9.83832e-07
7.77617e-07
4.18327e-07
2.12338e-07
9.84276e-07
2.51177e-08
2.51105e-08
4.36176e-07
1.00325e-06
2.17803e-07
7.9248e-07
4.37737e-07
1.00332e-06
2.18281e-07
1.09111e-07
1.11672e-07
7.3353e-07
1.09009e-07
1.11645e-07
2.17753e-07
5.47849e-08
2.17353e-07
5.47503e-08
2.56306e-08
2.56154e-08
2.09826e-07
5.32031e-08
2.08291e-07
5.31109e-08
1.03795e-06
1.03724e-06
1.03744e-06
1.03805e-06
1.03756e-06
1.03737e-06
1.03738e-06
4.17349e-07
2.11517e-07
9.86151e-07
7.78623e-07
4.19469e-07
2.12282e-07
9.86314e-07
2.5144e-08
2.51067e-08
4.37129e-07
1.00432e-06
2.18364e-07
7.93565e-07
4.38882e-07
1.00455e-06
2.18617e-07
1.09214e-07
1.11841e-07
7.35729e-07
1.08977e-07
1.11655e-07
2.17963e-07
5.47778e-08
2.17563e-07
5.47466e-08
2.56251e-08
2.56062e-08
2.09521e-07
5.31431e-08
2.08145e-07
5.30553e-08
1.03747e-06
1.03724e-06
1.03719e-06
1.03764e-06
1.03734e-06
1.03705e-06
1.03705e-06
4.16638e-07
2.11131e-07
9.85465e-07
7.78239e-07
4.18869e-07
2.12134e-07
9.85296e-07
2.5113e-08
2.5079e-08
4.36679e-07
1.00441e-06
2.18144e-07
7.93554e-07
4.38906e-07
1.00419e-06
2.18276e-07
1.09078e-07
1.11678e-07
7.34546e-07
1.08893e-07
1.11518e-07
2.18055e-07
5.4794e-08
2.17716e-07
5.47592e-08
2.56223e-08
2.56143e-08
2.09437e-07
5.31141e-08
2.08072e-07
5.30252e-08
1.03736e-06
1.03711e-06
1.03712e-06
1.03781e-06
1.03754e-06
1.0373e-06
1.03735e-06
4.16527e-07
2.1102e-07
9.85609e-07
7.78188e-07
4.18953e-07
2.11973e-07
9.85509e-07
2.5096e-08
2.50645e-08
4.36357e-07
1.004e-06
2.17976e-07
7.93448e-07
4.38463e-07
1.004e-06
2.18111e-07
1.09029e-07
1.11601e-07
7.35169e-07
1.08836e-07
1.11461e-07
2.18252e-07
5.48191e-08
2.17868e-07
5.4789e-08
2.56356e-08
2.56213e-08
2.09406e-07
5.31004e-08
2.07861e-07
5.30348e-08
1.03767e-06
1.03741e-06
1.03751e-06
1.03831e-06
1.0383e-06
1.03797e-06
1.03819e-06
4.16753e-07
2.11149e-07
9.85553e-07
7.78269e-07
4.18723e-07
2.12056e-07
9.85851e-07
2.50942e-08
2.50719e-08
4.36128e-07
1.00413e-06
2.17838e-07
7.93354e-07
4.38166e-07
1.00421e-06
2.18116e-07
1.09058e-07
1.11606e-07
7.34309e-07
1.08898e-07
1.11511e-07
2.18365e-07
5.48346e-08
2.18015e-07
5.47946e-08
2.56356e-08
2.56206e-08
2.09494e-07
5.31104e-08
2.07999e-07
5.30368e-08
1.03855e-06
1.03819e-06
1.03843e-06
1.0389e-06
1.03882e-06
1.03864e-06
1.03887e-06
4.16897e-07
2.11159e-07
9.86262e-07
7.78867e-07
4.18806e-07
2.12173e-07
9.86464e-07
2.51006e-08
2.50732e-08
4.36423e-07
1.00477e-06
2.1798e-07
7.93879e-07
4.383e-07
1.00497e-06
2.18243e-07
1.09099e-07
1.11662e-07
7.34887e-07
1.08924e-07
1.11544e-07
2.1837e-07
5.48338e-08
2.18052e-07
5.47863e-08
2.56269e-08
2.56059e-08
2.0953e-07
5.30954e-08
2.08097e-07
5.30055e-08
1.03886e-06
1.03869e-06
1.03891e-06
1.03884e-06
1.03859e-06
1.03866e-06
1.0388e-06
4.16904e-07
2.11098e-07
9.86767e-07
7.78897e-07
4.1917e-07
2.11991e-07
9.86783e-07
2.50917e-08
2.50575e-08
4.3651e-07
1.00531e-06
2.17977e-07
7.94234e-07
4.3854e-07
1.00532e-06
2.18164e-07
1.09057e-07
1.11624e-07
7.35491e-07
1.08847e-07
1.11473e-07
2.18395e-07
5.48286e-08
2.18083e-07
5.47851e-08
2.56169e-08
2.5602e-08
2.09356e-07
5.30546e-08
2.07928e-07
5.29667e-08
1.03839e-06
1.03851e-06
1.03858e-06
1.03822e-06
1.03792e-06
1.03798e-06
1.03805e-06
4.16448e-07
2.10887e-07
9.86339e-07
7.78423e-07
4.18717e-07
2.11831e-07
9.86166e-07
2.50711e-08
2.50375e-08
4.36156e-07
1.00514e-06
2.17829e-07
7.93882e-07
4.38281e-07
1.00494e-06
2.18008e-07
1.08967e-07
1.11546e-07
7.34991e-07
1.08764e-07
1.11398e-07
2.18438e-07
5.48192e-08
2.18122e-07
5.47669e-08
2.56114e-08
2.55917e-08
2.09221e-07
5.30201e-08
2.07784e-07
5.29351e-08
1.03789e-06
1.03787e-06
1.03795e-06
1.03805e-06
1.03771e-06
1.03767e-06
1.03771e-06
4.16193e-07
2.10757e-07
9.85828e-07
7.78062e-07
4.18361e-07
2.11684e-07
9.85799e-07
2.50538e-08
2.50216e-08
4.35905e-07
1.00454e-06
2.17676e-07
7.93455e-07
4.37978e-07
1.00447e-06
2.17868e-07
1.08897e-07
1.11475e-07
7.3465e-07
1.08701e-07
1.11329e-07
2.18358e-07
5.47997e-08
2.18053e-07
5.4757e-08
2.56056e-08
2.5593e-08
2.09087e-07
5.29905e-08
2.07708e-07
5.29078e-08
1.03767e-06
1.03761e-06
1.03764e-06
1.03786e-06
1.03749e-06
1.03739e-06
1.03743e-06
4.15884e-07
2.10592e-07
9.85546e-07
7.77681e-07
4.18218e-07
2.1157e-07
9.85411e-07
2.50397e-08
2.50101e-08
4.35624e-07
1.00426e-06
2.17531e-07
7.93116e-07
4.37745e-07
1.00417e-06
2.1772e-07
1.08837e-07
1.11409e-07
7.34358e-07
1.08651e-07
1.11277e-07
2.18383e-07
5.48019e-08
2.18073e-07
5.47579e-08
2.56064e-08
2.5589e-08
2.0904e-07
5.29798e-08
2.07533e-07
5.29108e-08
1.03751e-06
1.03732e-06
1.03738e-06
1.03771e-06
1.03745e-06
1.03718e-06
1.03727e-06
4.15918e-07
2.10602e-07
9.85132e-07
7.77417e-07
4.17899e-07
2.11583e-07
9.85131e-07
2.50379e-08
2.50131e-08
4.35387e-07
1.00389e-06
2.17464e-07
7.92737e-07
4.37443e-07
1.00382e-06
2.17704e-07
1.08835e-07
1.11403e-07
7.34057e-07
1.08662e-07
1.11279e-07
2.18377e-07
5.47988e-08
2.18081e-07
5.47564e-08
2.56044e-08
2.55923e-08
2.09092e-07
5.29874e-08
2.07626e-07
5.29137e-08
1.03747e-06
1.03717e-06
1.03726e-06
1.03767e-06
1.03742e-06
1.03715e-06
1.03725e-06
4.15942e-07
2.10609e-07
9.85089e-07
7.77499e-07
4.17997e-07
2.11598e-07
9.85093e-07
2.50401e-08
2.50134e-08
4.3543e-07
1.0037e-06
2.17479e-07
7.92685e-07
4.37396e-07
1.00369e-06
2.17704e-07
1.08844e-07
1.11406e-07
7.34097e-07
1.08663e-07
1.11284e-07
2.18371e-07
5.47989e-08
2.18056e-07
5.47567e-08
2.56058e-08
2.55897e-08
2.09122e-07
5.29857e-08
2.07601e-07
5.29113e-08
1.03745e-06
1.03715e-06
1.03724e-06
1.03724e-06
4.15962e-07
2.10624e-07
9.85094e-07
7.77399e-07
4.18027e-07
2.11608e-07
9.85108e-07
2.50382e-08
2.50072e-08
4.35465e-07
1.00368e-06
2.17483e-07
7.9258e-07
4.37452e-07
1.00369e-06
2.17672e-07
1.08842e-07
1.11407e-07
7.34121e-07
1.08662e-07
1.11286e-07
2.17401e-07
5.49882e-08
5.47978e-08
2.17071e-07
4.33599e-07
2.16664e-07
9.92869e-07
7.8964e-07
9.93726e-07
4.3535e-07
2.16937e-07
4.33498e-07
2.16428e-07
9.92564e-07
7.89204e-07
2.16737e-07
9.93469e-07
4.35291e-07
2.17134e-07
5.47204e-08
2.17413e-07
5.48551e-08
2.17086e-07
5.4678e-08
5.48162e-08
2.17349e-07
4.35631e-07
7.89635e-07
2.16984e-07
9.95263e-07
9.94539e-07
4.33787e-07
2.1671e-07
4.35566e-07
7.89273e-07
2.16754e-07
9.95107e-07
2.16499e-07
9.94328e-07
4.33682e-07
1.11089e-07
1.08771e-07
7.32825e-07
1.10907e-07
1.08513e-07
2.50863e-08
2.50501e-08
2.55608e-08
2.55961e-08
7.33887e-07
1.10874e-07
1.08464e-07
1.11041e-07
1.08659e-07
2.50312e-08
2.50721e-08
4.15452e-07
2.10552e-07
9.82126e-07
7.77111e-07
9.82356e-07
4.17457e-07
2.11492e-07
2.08925e-07
5.30167e-08
5.29109e-08
2.07477e-07
4.15462e-07
9.81289e-07
2.1039e-07
7.75337e-07
9.81523e-07
2.11329e-07
4.17458e-07
2.07481e-07
5.29309e-08
2.08914e-07
5.30261e-08
4.1763e-07
7.77114e-07
2.11482e-07
9.82698e-07
9.82555e-07
4.15511e-07
2.1053e-07
2.07445e-07
5.28836e-08
5.29786e-08
2.08878e-07
4.17634e-07
7.75308e-07
9.81913e-07
2.11317e-07
9.81729e-07
2.1036e-07
4.15521e-07
2.08905e-07
5.30349e-08
5.29251e-08
2.07465e-07
4.15425e-07
9.80997e-07
2.10565e-07
7.75813e-07
9.81268e-07
2.11504e-07
4.17458e-07
2.08897e-07
5.30354e-08
5.29288e-08
2.07458e-07
4.17529e-07
7.76954e-07
2.11458e-07
9.82225e-07
2.10483e-07
9.82042e-07
4.1539e-07
2.07422e-07
5.28924e-08
5.2991e-08
2.08848e-07
4.17588e-07
7.75736e-07
9.81672e-07
2.11495e-07
9.81483e-07
2.10536e-07
4.15451e-07
2.07417e-07
5.28998e-08
5.29963e-08
2.08846e-07
1.08593e-07
1.11624e-07
7.33245e-07
1.08385e-07
1.11478e-07
2.56845e-08
2.56638e-08
2.50196e-08
2.50536e-08
7.34374e-07
1.08358e-07
1.1146e-07
1.08551e-07
1.11594e-07
2.56564e-08
2.56746e-08
4.3544e-07
1.0032e-06
2.17359e-07
7.92431e-07
1.00318e-06
2.17552e-07
4.37471e-07
2.18289e-07
5.487e-08
5.48064e-08
2.17967e-07
2.18295e-07
5.48788e-08
5.48162e-08
2.17976e-07
4.37404e-07
7.92364e-07
1.00293e-06
2.17609e-07
1.00294e-06
2.17379e-07
4.35381e-07
4.37398e-07
7.92299e-07
1.00319e-06
2.17567e-07
1.00318e-06
2.17339e-07
4.35384e-07
2.17979e-07
5.47878e-08
5.48411e-08
2.1827e-07
2.17972e-07
5.47998e-08
5.48524e-08
2.18277e-07
2.50948e-08
2.5055e-08
2.56782e-08
2.56586e-08
7.34284e-07
1.08649e-07
1.11262e-07
1.08846e-07
1.11385e-07
2.50419e-08
2.50777e-08
2.56533e-08
2.56704e-08
2.55974e-08
2.55699e-08
2.50697e-08
2.50392e-08
1.11335e-07
1.08573e-07
7.33141e-07
1.11198e-07
1.08394e-07
2.55602e-08
2.55797e-08
2.50357e-08
2.50648e-08
7.3423e-07
1.11191e-07
1.08393e-07
1.1132e-07
1.08568e-07
2.17296e-07
5.47024e-08
2.17026e-07
5.4602e-08
4.33901e-07
2.16757e-07
9.95903e-07
7.89597e-07
4.35811e-07
2.17022e-07
9.9648e-07
4.3379e-07
2.16522e-07
9.95786e-07
7.89083e-07
4.35742e-07
2.1676e-07
9.96399e-07
2.17037e-07
5.46008e-08
5.4674e-08
2.17341e-07
2.16981e-07
5.4561e-08
5.46316e-08
2.1727e-07
4.35918e-07
7.89628e-07
2.17038e-07
9.97546e-07
2.16788e-07
9.97029e-07
4.33958e-07
4.35841e-07
7.89134e-07
2.16782e-07
9.97506e-07
2.16528e-07
9.96969e-07
4.3384e-07
1.11002e-07
1.08647e-07
7.3261e-07
1.10875e-07
1.08477e-07
2.50546e-08
2.50236e-08
2.55368e-08
2.55535e-08
7.33699e-07
1.10881e-07
1.08496e-07
1.11005e-07
1.08654e-07
2.50244e-08
2.50489e-08
4.15473e-07
2.10528e-07
9.82873e-07
7.77094e-07
4.17655e-07
2.11503e-07
9.83032e-07
2.08862e-07
5.2953e-08
2.07406e-07
5.28676e-08
4.15487e-07
9.82103e-07
2.10358e-07
7.75299e-07
4.17659e-07
9.82295e-07
2.11336e-07
2.07426e-07
5.29065e-08
5.29866e-08
2.089e-07
4.17625e-07
7.77096e-07
2.11529e-07
9.83355e-07
2.10553e-07
9.8322e-07
4.15523e-07
2.07393e-07
5.28566e-08
5.2938e-08
2.08862e-07
4.17634e-07
7.75344e-07
9.82651e-07
2.1136e-07
9.82488e-07
2.10381e-07
4.15534e-07
2.08829e-07
5.29606e-08
2.07371e-07
5.28762e-08
4.15463e-07
9.81866e-07
2.10535e-07
7.75696e-07
4.17595e-07
9.82061e-07
2.11504e-07
2.08822e-07
5.2969e-08
2.07372e-07
5.2883e-08
4.17546e-07
7.77033e-07
2.11488e-07
9.82902e-07
2.10488e-07
9.82767e-07
4.15427e-07
2.0736e-07
5.28743e-08
5.29464e-08
2.08835e-07
4.1761e-07
7.75725e-07
9.82395e-07
2.11523e-07
9.82239e-07
2.10545e-07
4.15483e-07
2.07354e-07
5.28766e-08
5.29536e-08
2.08826e-07
1.08528e-07
1.1158e-07
7.33229e-07
1.08347e-07
1.11454e-07
2.5668e-08
2.56516e-08
2.50093e-08
2.50388e-08
7.34351e-07
1.08342e-07
1.11447e-07
1.0852e-07
1.11574e-07
2.56485e-08
2.56636e-08
4.35424e-07
1.0032e-06
2.1736e-07
7.92221e-07
4.37385e-07
1.00322e-06
2.17592e-07
2.18272e-07
5.48252e-08
2.17946e-07
5.47775e-08
2.18287e-07
5.48383e-08
2.17949e-07
5.47892e-08
4.37384e-07
7.92284e-07
1.00297e-06
2.17635e-07
1.00297e-06
2.17409e-07
4.35356e-07
4.37385e-07
7.92253e-07
1.00322e-06
2.17591e-07
1.00323e-06
2.17381e-07
4.35368e-07
2.17962e-07
5.47702e-08
5.48158e-08
2.18251e-07
2.17965e-07
5.47805e-08
5.48281e-08
2.1826e-07
2.5066e-08
2.50341e-08
2.56655e-08
2.56491e-08
7.34306e-07
1.0862e-07
1.11249e-07
1.088e-07
1.11378e-07
2.50311e-08
2.50593e-08
2.5646e-08
2.56615e-08
2.5572e-08
2.55573e-08
2.50617e-08
2.50351e-08
1.11315e-07
1.08565e-07
7.33059e-07
1.11192e-07
1.08386e-07
2.55646e-08
2.55707e-08
2.50448e-08
2.50627e-08
7.34173e-07
1.112e-07
1.08393e-07
1.11315e-07
1.08559e-07
2.17249e-07
5.45945e-08
2.16958e-07
5.4539e-08
4.3396e-07
2.16806e-07
9.98017e-07
7.89677e-07
4.35967e-07
2.1706e-07
9.98423e-07
4.33839e-07
2.16557e-07
9.9799e-07
7.89267e-07
4.35884e-07
2.1684e-07
9.98394e-07
2.16992e-07
5.45648e-08
5.46108e-08
2.17275e-07
2.16935e-07
5.45396e-08
5.45767e-08
2.17209e-07
4.35958e-07
7.8969e-07
2.17014e-07
9.99076e-07
2.16816e-07
9.98766e-07
4.33882e-07
4.3587e-07
7.89357e-07
2.16784e-07
9.99042e-07
2.16585e-07
9.98726e-07
4.33763e-07
1.11012e-07
1.08674e-07
7.32412e-07
1.10889e-07
1.08467e-07
2.50528e-08
2.50416e-08
2.55495e-08
2.55492e-08
7.33491e-07
1.1091e-07
1.08542e-07
1.11022e-07
1.08633e-07
2.50658e-08
2.50732e-08
4.15576e-07
2.10573e-07
9.83487e-07
7.77137e-07
4.17694e-07
2.11521e-07
9.83552e-07
2.08882e-07
5.29274e-08
2.07403e-07
5.28505e-08
4.15585e-07
9.82789e-07
2.10399e-07
7.75434e-07
4.17697e-07
9.82894e-07
2.11346e-07
2.0745e-07
5.29153e-08
5.29748e-08
2.08936e-07
4.17725e-07
7.77154e-07
2.11514e-07
9.83698e-07
2.1056e-07
9.83637e-07
4.15579e-07
2.07416e-07
5.28633e-08
5.29233e-08
2.08898e-07
4.17729e-07
7.75491e-07
9.83087e-07
2.11333e-07
9.82989e-07
2.10379e-07
4.15588e-07
2.0887e-07
5.29505e-08
2.07374e-07
5.2898e-08
4.15533e-07
9.82539e-07
2.10563e-07
7.75787e-07
4.17639e-07
9.8267e-07
2.11516e-07
2.08865e-07
5.29489e-08
2.0737e-07
5.28861e-08
4.17615e-07
7.7696e-07
2.11529e-07
9.83394e-07
2.10501e-07
9.83274e-07
4.15498e-07
2.07414e-07
5.29551e-08
5.29865e-08
2.08972e-07
4.17675e-07
7.75831e-07
9.82925e-07
2.11525e-07
9.82799e-07
2.10551e-07
4.15552e-07
2.07409e-07
5.2924e-08
5.29688e-08
2.08947e-07
1.08514e-07
1.11567e-07
7.33155e-07
1.08332e-07
1.1144e-07
2.5661e-08
2.56484e-08
2.50173e-08
2.50355e-08
7.34265e-07
1.08334e-07
1.11443e-07
1.08504e-07
1.11559e-07
2.56608e-08
2.56627e-08
4.354e-07
1.00323e-06
2.17374e-07
7.92303e-07
4.37365e-07
1.00323e-06
2.17587e-07
2.18259e-07
5.48096e-08
2.1793e-07
5.47679e-08
2.18269e-07
5.48205e-08
2.17932e-07
5.47772e-08
4.37364e-07
7.92382e-07
1.00306e-06
2.17628e-07
1.00303e-06
2.1741e-07
4.35365e-07
4.3736e-07
7.92345e-07
1.00327e-06
2.17579e-07
1.00324e-06
2.17374e-07
4.35371e-07
2.17952e-07
5.4793e-08
5.48095e-08
2.18278e-07
2.17951e-07
5.47995e-08
5.48194e-08
2.18287e-07
2.50578e-08
2.50358e-08
2.56589e-08
2.56463e-08
7.34237e-07
1.08658e-07
1.11248e-07
1.08793e-07
1.11364e-07
2.50547e-08
2.50657e-08
2.5658e-08
2.5661e-08
2.55833e-08
2.55907e-08
2.50768e-08
2.50719e-08
1.1134e-07
1.08581e-07
7.33081e-07
1.11285e-07
1.08468e-07
2.5624e-08
2.5614e-08
2.5109e-08
2.51079e-08
7.34244e-07
1.11424e-07
1.08613e-07
1.11448e-07
1.08683e-07
2.17172e-07
5.45906e-08
2.16887e-07
5.45856e-08
4.33704e-07
2.16763e-07
9.99369e-07
7.89748e-07
4.35832e-07
2.17e-07
9.99615e-07
4.33596e-07
2.16541e-07
9.9932e-07
7.89241e-07
4.35751e-07
2.16795e-07
9.99557e-07
2.16914e-07
5.46615e-08
5.46623e-08
2.17339e-07
2.16885e-07
5.46328e-08
5.46397e-08
2.17299e-07
4.35673e-07
7.89778e-07
2.17145e-07
1.00006e-06
2.16776e-07
9.99836e-07
4.33624e-07
4.35602e-07
7.89285e-07
2.1697e-07
1.00003e-06
2.16585e-07
9.99785e-07
4.33534e-07
1.1106e-07
1.08766e-07
7.32546e-07
1.11016e-07
1.08711e-07
2.51009e-08
2.51013e-08
2.56014e-08
2.55971e-08
7.33705e-07
1.11139e-07
1.08887e-07
1.11184e-07
1.08947e-07
2.51292e-08
2.51362e-08
4.15589e-07
2.10555e-07
9.83811e-07
7.7721e-07
4.17734e-07
2.11512e-07
9.83898e-07
2.08931e-07
5.29484e-08
2.07443e-07
5.29103e-08
4.15595e-07
9.83198e-07
2.10369e-07
7.75571e-07
4.17736e-07
9.83312e-07
2.11326e-07
2.07511e-07
5.30379e-08
5.30596e-08
2.09115e-07
4.1773e-07
7.77219e-07
2.11688e-07
9.84077e-07
2.10568e-07
9.84015e-07
4.1562e-07
2.07476e-07
5.29881e-08
5.30085e-08
2.0908e-07
4.17729e-07
7.75583e-07
9.83493e-07
2.11501e-07
9.83418e-07
2.10378e-07
4.15625e-07
2.092e-07
5.30541e-08
2.07564e-07
5.30333e-08
4.157e-07
9.83041e-07
2.10572e-07
7.7589e-07
4.17716e-07
9.83126e-07
2.11596e-07
2.09163e-07
5.30165e-08
2.07539e-07
5.29851e-08
4.17863e-07
7.7715e-07
2.12066e-07
9.83669e-07
2.10848e-07
9.83623e-07
4.16092e-07
2.07824e-07
5.3097e-08
5.31317e-08
2.0951e-07
4.17889e-07
7.75902e-07
9.83219e-07
2.11879e-07
9.83174e-07
2.10695e-07
4.16093e-07
2.07786e-07
5.30494e-08
5.30826e-08
2.09464e-07
1.08521e-07
1.11584e-07
7.33077e-07
1.08406e-07
1.1154e-07
2.56825e-08
2.56949e-08
2.50817e-08
2.50805e-08
7.3423e-07
1.08546e-07
1.11699e-07
1.08619e-07
1.11708e-07
2.57359e-08
2.57214e-08
4.35453e-07
1.00331e-06
2.17362e-07
7.92359e-07
4.37379e-07
1.00335e-06
2.17601e-07
2.18406e-07
5.48536e-08
2.17976e-07
5.48661e-08
2.18414e-07
5.48602e-08
2.17978e-07
5.487e-08
4.37453e-07
7.92433e-07
1.00322e-06
2.17924e-07
1.00321e-06
2.17481e-07
4.35673e-07
4.37447e-07
7.92354e-07
1.00337e-06
2.17857e-07
1.00337e-06
2.17427e-07
4.35678e-07
2.18164e-07
5.49568e-08
5.49358e-08
2.18678e-07
2.18163e-07
5.49591e-08
5.49396e-08
2.18683e-07
2.50883e-08
2.50842e-08
2.56797e-08
2.56907e-08
7.34231e-07
1.08892e-07
1.11495e-07
1.08971e-07
1.11507e-07
2.51132e-08
2.51192e-08
2.57299e-08
2.57171e-08
2.56464e-08
2.56498e-08
2.51448e-08
2.51373e-08
1.116e-07
1.08846e-07
7.33648e-07
1.11571e-07
1.08774e-07
2.56593e-08
2.56669e-08
2.51451e-08
2.5168e-08
7.34872e-07
1.11657e-07
1.08867e-07
1.1173e-07
1.08988e-07
2.17457e-07
5.46848e-08
2.17038e-07
5.46708e-08
4.33822e-07
2.16989e-07
1.00028e-06
7.89907e-07
4.3564e-07
2.17428e-07
1.00051e-06
4.33745e-07
2.16798e-07
1.00028e-06
7.89724e-07
4.35591e-07
2.17225e-07
1.00056e-06
2.17221e-07
5.47411e-08
5.4762e-08
2.1764e-07
2.17197e-07
5.46912e-08
5.47185e-08
2.17603e-07
4.35873e-07
7.90121e-07
2.17663e-07
1.00118e-06
2.17266e-07
1.00082e-06
4.34155e-07
4.35828e-07
7.90024e-07
2.17352e-07
1.0012e-06
2.17018e-07
1.00089e-06
4.3407e-07
1.113e-07
1.09104e-07
7.33402e-07
1.11228e-07
1.08935e-07
2.51599e-08
2.51409e-08
2.56178e-08
2.56267e-08
7.34655e-07
1.11237e-07
1.08897e-07
1.11367e-07
1.091e-07
2.51227e-08
2.51651e-08
4.15986e-07
2.10832e-07
9.84139e-07
7.77279e-07
4.17815e-07
2.12035e-07
9.84181e-07
2.0938e-07
5.30891e-08
2.07701e-07
5.30564e-08
4.15997e-07
9.83539e-07
2.10642e-07
7.7559e-07
4.17815e-07
9.83582e-07
2.1185e-07
2.08047e-07
5.31303e-08
5.31907e-08
2.09702e-07
4.18222e-07
7.77452e-07
2.1234e-07
9.84689e-07
2.11175e-07
9.84322e-07
4.16615e-07
2.08016e-07
5.30844e-08
5.3144e-08
2.09673e-07
4.18226e-07
7.75713e-07
9.8406e-07
2.1216e-07
9.83705e-07
2.10988e-07
4.1663e-07
2.09781e-07
5.31821e-08
2.08138e-07
5.31203e-08
4.16714e-07
9.83338e-07
2.11006e-07
7.76079e-07
4.18324e-07
9.83664e-07
2.1218e-07
2.0974e-07
5.31386e-08
2.08095e-07
5.30843e-08
4.1898e-07
7.77973e-07
2.12514e-07
9.85678e-07
2.11432e-07
9.84988e-07
4.17261e-07
2.08357e-07
5.30962e-08
5.3191e-08
2.09869e-07
4.18964e-07
7.76405e-07
9.85008e-07
2.12391e-07
9.84313e-07
2.11285e-07
4.17264e-07
2.08323e-07
5.30776e-08
5.31601e-08
2.09849e-07
1.08779e-07
1.1188e-07
7.33311e-07
1.08707e-07
1.1186e-07
2.57597e-08
2.57629e-08
2.51186e-08
2.51414e-08
7.34522e-07
1.08802e-07
1.11942e-07
1.08923e-07
1.12018e-07
2.57643e-08
2.57787e-08
4.36176e-07
1.00338e-06
2.17748e-07
7.92376e-07
4.37722e-07
1.00345e-06
2.1821e-07
2.1902e-07
5.50225e-08
2.18478e-07
5.50235e-08
2.19025e-07
5.50256e-08
2.18475e-07
5.50265e-08
4.3828e-07
7.92666e-07
1.00395e-06
2.18554e-07
1.00356e-06
2.18154e-07
4.36801e-07
4.3826e-07
7.92577e-07
1.00405e-06
2.18482e-07
1.00366e-06
2.18094e-07
4.36802e-07
2.18802e-07
5.50343e-08
5.5074e-08
2.19261e-07
2.18799e-07
5.50413e-08
5.50785e-08
2.19268e-07
2.51455e-08
2.5128e-08
2.57536e-08
2.57555e-08
7.34762e-07
1.09049e-07
1.11719e-07
1.09204e-07
1.118e-07
2.51242e-08
2.51554e-08
2.57561e-08
2.57714e-08
2.56726e-08
2.56543e-08
2.51703e-08
2.51341e-08
1.1179e-07
1.09051e-07
7.3562e-07
1.11635e-07
1.08843e-07
2.56459e-08
2.56653e-08
2.51177e-08
2.51564e-08
7.36958e-07
1.11573e-07
1.08757e-07
1.11744e-07
1.09002e-07
2.17715e-07
5.47352e-08
2.17329e-07
5.46983e-08
4.34415e-07
2.17464e-07
1.00148e-06
7.90814e-07
4.3621e-07
2.17775e-07
1.00165e-06
4.34322e-07
2.17137e-07
1.00142e-06
7.90216e-07
4.36158e-07
2.1739e-07
1.00152e-06
2.17458e-07
5.47389e-08
5.47905e-08