/*--------------------------------*- C++ -*----------------------------------*\
| =========                 |                                                 |
| \\      /  F ield         | OpenFOAM: The Open Source CFD Toolbox           |
|  \\    /   O peration     | Version:  2206                                  |
|   \\  /    A nd           | Website:  www.openfoam.com                      |
|    \\/     M anipulation  |                                                 |
\*---------------------------------------------------------------------------*/
FoamFile
{
    version     2.0;
    format      ascii;
    arch        "LSB;label=32;scalar=64";
    class       volScalarField;
    location    "0.5";
    object      omega;
}
// * * * * * * * * * * * * * * * * * * * * * * * * * * * * * * * * * * * * * //

dimensions      [0 0 -1 0 0 0 0];

internalField   nonuniform List<scalar> 
401248
(
20.2945
35.2022
34.3518
46.3408
46.328
34.3917
34.3898
46.3185
35.2081
35.2132
35.2143
46.3372
34.3459
300.892
164.094
407.131
302.905
167.42
20.2923
20.3083
20.3071
157.206
25.9375
91.179
408.574
24.9297
154.816
87.9952
206.755
205.203
407.062
408.595
205.006
206.954
300.904
164.096
154.779
24.9084
87.9596
154.837
24.9052
87.9616
205.163
206.833
408.539
157.252
25.9402
91.1811
302.919
167.417
25.9531
157.239
91.1754
302.894
167.417
25.9518
157.176
91.1708
302.904
167.412
206.916
205.134
407.111
24.9286
154.851
87.9982
300.903
164.116
300.904
164.119
408.527
407.145
427.846
300.846
215.317
215.309
427.99
331.651
164.222
310.618
178.101
310.566
178.231
331.713
406.997
334.672
167.423
181.516
313.679
430.605
302.804
218.777
218.762
430.87
430.87
302.906
218.777
334.523
167.697
181.514
313.679
181.779
313.543
334.672
408.375
408.587
176.101
121.692
206.753
308.482
121.953
308.369
175.847
174.517
120.396
205.202
308.72
120.599
308.632
174.29
250.366
414.316
413.811
414.12
413.631
250.403
406.932
408.391
408.595
175.502
120.515
205.008
307.885
307.797
120.719
175.274
175.131
121.594
206.951
309.308
309.197
121.855
174.877
250.362
413.697
414.429
413.518
414.233
250.399
427.846
300.857
215.325
215.318
427.991
331.642
164.224
310.615
178.106
310.563
178.236
331.703
174.605
120.49
205.178
308.643
308.547
120.712
174.428
175.937
121.632
206.819
308.514
121.864
308.42
175.811
250.46
413.746
414.341
413.472
414.182
250.462
408.335
334.682
167.42
313.682
181.515
430.602
302.818
218.781
218.765
430.868
430.867
302.921
218.781
334.533
167.695
313.682
181.513
313.546
181.778
334.682
430.602
302.791
218.774
218.757
430.867
334.523
167.692
181.512
313.678
181.774
313.542
334.672
430.596
302.802
218.772
218.756
430.861
334.531
167.688
313.68
181.505
313.545
181.77
334.68
175.287
121.664
206.921
309.149
309.1
121.932
175.111
175.319
120.455
205.12
307.955
120.655
307.842
175.057
250.476
414.397
413.674
414.206
413.534
250.561
406.973
427.845
300.855
215.325
215.318
427.99
331.658
164.244
178.122
310.625
178.252
310.572
331.719
427.85
300.858
215.329
215.323
427.994
331.649
164.245
178.122
310.622
178.252
310.569
331.71
408.323
407.016
17.0098
17.214
15.8387
111.913
75.267
74.7278
46.4375
75.5114
74.9289
111.66
111.917
74.7064
75.2944
46.4275
74.9136
75.5446
111.663
111.905
74.7512
75.2376
46.4187
75.4911
74.958
111.663
111.915
75.3202
74.668
46.4372
74.8769
75.5711
111.66
17.0096
17.2137
15.8391
17.2043
17.021
15.8391
17.2041
17.0197
15.8388
67.4467
89.8877
157.467
121.479
90.1725
121.759
67.2406
56.2741
91.4994
100.633
50.5316
100.94
50.7713
56.0529
65.2639
88.293
154.978
118.617
88.4725
118.761
65.1832
54.0247
88.1212
48.4746
97.4666
48.5398
97.5995
53.982
65.2035
88.1815
154.942
118.59
118.735
88.3616
65.1164
53.964
88.0894
97.4215
48.4561
97.558
48.5233
53.9104
65.2156
88.229
155
118.612
118.754
88.411
65.1302
53.9609
88.0894
97.4286
48.4548
97.5626
48.5204
53.9032
67.4643
89.9332
157.517
121.495
121.779
90.2235
67.2556
56.2788
91.5043
100.638
50.5357
100.95
50.7723
56.0577
67.4649
89.8398
157.504
121.489
121.772
90.1315
67.25
56.2849
91.4989
50.5376
100.624
50.7745
100.937
56.0569
67.4424
89.7942
157.44
121.464
90.0824
121.745
67.2297
56.2752
91.4923
50.5317
100.613
50.771
100.924
56.0476
65.2629
88.3192
155.015
118.633
88.4968
118.775
65.1865
54.0274
88.1244
48.4756
97.4724
48.5413
97.6047
53.9853
740.428
1603.87
4402.16
16442.5
116782
726.651
1599.59
4399
16447
116912
739.959
1603.78
4402.3
16444.4
116802
726.292
1599.45
4398.59
16444.7
116892
726.604
1599.45
4398.47
16443.2
116862
726.304
1599.5
4398.9
16447
116912
740.431
1603.87
4402.3
16444.5
116803
726.267
1599.36
4398.3
16443.3
116872
739.964
1603.76
4402.28
16444.6
116814
739.94
1603.66
4401.8
16441.7
116781
739.934
1603.71
4401.89
16441.5
116772
726.621
1599.46
4398.44
16444.1
116881
740.423
1603.82
4402.12
16443.4
116795
740.425
1603.82
4402.1
16443.5
116802
726.286
1599.45
4398.57
16444.7
116892
726.646
1599.54
4398.9
16446.5
116912
723.767
1597.67
4395.79
16436.2
116835
740.257
1603.69
4402
16442.4
116782
726.517
1599.46
4398.9
16446.9
116912
731.346
1600.6
4397.68
16432.9
116752
732.806
1600
4395.68
16427.8
116727
723.268
1597.5
4395.8
16437
116840
739.708
1603.57
4402.14
16444.3
116802
739.959
1603.78
4402.3
16444.4
116802
726.098
1599.29
4398.47
16444.6
116892
726.301
1599.45
4398.59
16444.7
116892
738.928
1603.49
4401.61
16442.8
116795
738.72
1603.33
4401.5
16442.7
116795
739.08
1603.51
4401.66
16442.8
116795
738.907
1603.37
4401.55
16442.7
116795
723.893
1599.87
4400.52
16450.2
116918
723.946
1599.88
4400.45
16450.5
116921
723.702
1599.72
4400.42
16450.1
116918
723.769
1599.74
4400.35
16450.4
116921
726.47
1599.32
4398.36
16443.1
116862
726.106
1599.34
4398.79
16446.9
116912
726.304
1599.5
4398.9
16447
116912
740.261
1603.7
4402.15
16444.4
116803
738.911
1603.48
4401.52
16441.9
116789
738.705
1603.32
4401.39
16441.8
116789
723.873
1599.88
4400.41
16450.3
116919
723.697
1599.73
4400.3
16450.2
116919
726.071
1599.2
4398.19
16443.2
116872
731.333
1600.59
4397.65
16432.2
116747
732.8
1599.98
4395.63
16427.6
116725
723.268
1597.5
4395.83
16437
116852
739.714
1603.55
4402.11
16444.5
116814
739.964
1603.76
4402.28
16444.6
116814
739.691
1603.45
4401.64
16441.6
116781
723.248
1597.46
4395.67
16435.9
116831
739.684
1603.49
4401.72
16441.4
116772
739.139
1603.48
4401.33
16440.2
116759
738.97
1603.34
4401.22
16440.1
116759
723.925
1599.91
4400.56
16450
116904
726.486
1599.34
4398.34
16444.1
116881
723.769
1597.67
4395.8
16436.2
116836
740.252
1603.65
4401.97
16443.2
116795
723.767
1597.64
4395.65
16436.1
116840
740.252
1603.64
4401.95
16443.4
116802
726.088
1599.29
4398.46
16444.6
116892
726.512
1599.41
4398.79
16446.5
116912
723.762
1597.63
4395.67
16436.7
116838
723.258
1597.46
4395.61
16436.1
116840
731.768
1600.59
4397.81
16433.3
116768
733.337
1600.07
4395.89
16428.8
116747
733.228
1599.98
4395.82
16428.7
116747
731.877
1600.69
4397.89
16433.4
116768
723.896
1597.8
4395.92
16436.3
116835
739.06
1603.46
4401.43
16441.1
116776
738.89
1603.33
4401.33
16441
116776
723.914
1599.81
4400.09
16447.8
116887
723.721
1599.67
4400
16447.7
116887
723.496
1597.69
4395.94
16437
116840
731.124
1600.44
4397.58
16432.8
116752
732.806
1600
4395.68
16427.8
116727
732.582
1599.85
4395.59
16427.7
116727
731.345
1600.6
4397.68
16432.9
116752
723.496
1597.69
4395.93
16437
116840
738.829
1603.45
4401.43
16441.1
116778
738.622
1603.29
4401.32
16441.1
116778
723.891
1599.94
4400.69
16450.9
116918
723.696
1599.79
4400.58
16450.8
116918
739.113
1603.5
4401.49
16441.3
116776
738.941
1603.36
4401.38
16441.2
116776
723.946
1599.93
4400.61
16451
116933
723.77
1599.79
4400.51
16450.9
116933
738.863
1603.5
4401.6
16442.4
116795
738.653
1603.34
4401.49
16442.4
116795
723.887
1599.9
4400.42
16449.8
116921
723.695
1599.75
4400.32
16449.8
116921
731.757
1600.55
4397.54
16432.7
116751
733.325
1600.05
4395.66
16427.8
116727
733.215
1599.95
4395.58
16427.7
116727
731.867
1600.65
4397.63
16432.8
116751
723.891
1597.77
4395.8
16436.8
116838
731.111
1600.43
4397.56
16432.2
116747
732.799
1599.98
4395.63
16427.6
116725
732.576
1599.83
4395.53
16427.5
116725
731.333
1600.59
4397.65
16432.2
116747
723.495
1597.69
4395.96
16437.1
116852
723.495
1597.69
4395.96
16437.1
116852
723.484
1597.64
4395.75
16436.2
116840
731.14
1600.53
4397.87
16434.1
116774
732.804
1600.05
4395.91
16428.1
116749
732.58
1599.89
4395.82
16428.1
116749
731.36
1600.68
4397.97
16434.2
116774
731.137
1600.51
4397.9
16434.2
116769
732.81
1600.03
4395.92
16428.8
116747
732.586
1599.88
4395.83
16428.7
116747
731.359
1600.67
4398
16434.3
116769
723.476
1597.65
4395.8
16435.9
116831
723.767
1599.77
4400.47
16449.9
116904
723.899
1597.81
4395.93
16436.3
116836
731.765
1600.58
4397.77
16432.8
116758
733.324
1600.04
4395.75
16427.6
116725
733.217
1599.96
4395.74
16428.1
116736
731.873
1600.67
4397.79
16432.3
116747
723.898
1597.78
4395.78
16436.2
116840
731.762
1600.56
4397.58
16432.9
116752
733.319
1600.04
4395.65
16427.8
116727
733.211
1599.95
4395.57
16427.7
116727
731.872
1600.66
4397.67
16432.9
116752
46.4312
34.4988
35.2619
35.2738
46.4327
34.4282
46.3336
46.4474
20.4091
20.3637
406.86
408.393
205.308
206.942
300.873
154.963
302.789
167.69
157.486
25.9846
91.424
302.803
167.687
26.0092
157.471
91.4187
408.375
206.9
205.063
406.977
154.945
300.848
407.026
406.93
408.599
408.392
205.204
206.947
46.4462
205.116
206.946
406.937
407.069
408.387
408.594
46.3478
205.056
206.945
205.085
206.949
406.938
408.592
175.204
120.692
205.347
307.764
307.828
120.49
175.447
174.866
121.818
206.941
309.194
309.301
121.558
175.122
250.406
413.508
414.23
413.689
414.421
250.368
300.993
216.05
216.347
427.95
430.838
302.882
218.721
218.726
430.586
334.638
167.415
181.767
313.519
181.505
313.643
334.5
430.839
302.897
218.725
218.73
430.586
334.649
167.412
313.523
181.767
313.646
181.504
334.512
408.574
174.858
121.867
206.897
309.162
121.606
309.27
175.108
175.258
120.618
205.063
307.838
307.922
120.416
175.484
250.352
414.203
413.568
414.392
413.739
250.325
407.107
300.889
215.302
215.304
427.848
406.911
407.059
408.394
408.597
250.403
413.51
414.232
413.691
414.431
250.367
175.475
120.49
307.868
205.184
175.231
307.788
120.695
175.127
121.563
309.307
206.946
174.872
309.197
121.823
250.367
413.691
414.43
250.404
413.511
414.234
175.257
307.794
205.127
120.699
307.88
175.496
120.495
174.876
309.198
206.949
121.828
309.309
175.129
121.569
407.072
406.935
408.592
408.389
250.366
413.689
414.427
250.403
413.508
414.23
175.278
120.708
205.06
307.791
307.879
120.503
175.51
174.875
121.833
206.949
309.196
309.308
121.574
175.127
175.505
307.881
120.499
205.078
175.272
307.793
120.702
175.127
309.309
121.572
206.946
174.876
309.197
121.829
250.402
413.506
414.228
413.687
414.425
250.365
111.637
46.3292
74.7814
75.4978
74.5663
75.2406
111.887
111.612
46.329
75.4614
74.6744
75.1905
74.4381
111.863
111.894
74.5955
75.2632
46.4377
111.64
74.8174
75.5181
111.655
46.3468
74.8873
75.5385
74.6766
75.2908
111.907
17.2825
17.2671
65.1313
87.8875
154.813
118.59
87.6614
118.459
65.1791
67.1606
90.0423
157.224
121.715
89.7266
121.427
67.3739
55.8529
91.0928
100.868
50.6366
100.551
50.3877
56.0976
67.1558
89.9578
157.209
121.706
121.417
89.6423
67.3757
55.8512
91.0869
50.6394
100.855
50.3906
100.538
56.1024
65.1389
88.3191
154.783
118.726
88.1253
118.578
65.2181
111.649
46.3421
74.8513
75.5317
111.901
74.6332
75.281
111.903
46.4478
74.6603
75.289
111.654
74.8714
75.535
20.404
35.273
34.4215
46.3556
20.3696
35.2532
34.3953
46.3585
20.3453
35.2436
34.3815
46.3587
20.3287
35.2303
34.3674
46.3568
20.3115
35.2253
34.3615
46.3522
20.3028
35.1979
34.3486
46.3366
20.3021
35.2151
34.3501
46.3042
20.3024
35.2106
34.3585
46.3538
20.2981
35.2104
34.3582
46.358
20.2964
35.2123
34.3562
46.3228
20.2987
35.2156
34.3616
46.3401
20.2997
35.2121
34.3598
46.3454
20.2988
35.2076
34.3548
46.3421
20.2971
35.2035
34.3507
46.3414
20.2945
35.2015
34.347
46.3385
20.2937
35.2017
34.3473
46.3401
20.2938
35.202
34.3478
46.3403
34.4931
34.4882
34.4782
34.4749
46.3408
46.447
35.2603
35.27
35.2554
35.2607
35.2918
35.2573
35.2755
46.3372
46.4437
34.3994
34.4008
34.3872
46.4613
46.3487
46.4573
34.4732
34.4679
34.4574
34.4512
46.3476
46.4529
35.2535
35.258
35.2476
35.2515
35.2705
35.2462
35.2595
46.3431
46.4482
34.3835
34.3842
34.3755
46.46
46.3573
46.4565
34.4527
34.4455
34.4365
34.436
46.3535
46.4523
35.2459
35.2495
35.2368
35.2405
35.2564
35.2328
35.2449
46.3484
46.4527
34.3735
34.3716
34.3658
46.4595
46.3548
46.4462
34.4308
34.4305
34.4179
34.4185
46.3508
46.4463
35.2326
35.2364
35.2238
35.229
35.241
35.2283
35.2368
46.3511
46.4462
34.3626
34.3615
34.3588
46.4537
46.3446
46.4384
34.4154
34.4128
34.401
34.4001
46.3461
46.4228
35.2236
35.2291
35.2153
35.2231
35.2362
35.2013
35.2187
46.3454
46.4456
34.359
34.3537
34.3504
46.4448
46.3333
46.3892
34.3953
34.3953
34.3899
34.3953
46.314
46.4126
35.2084
35.2156
35.2002
35.2071
35.2121
35.208
35.212
46.3403
46.3932
34.3446
34.3454
34.3421
46.3976
46.2901
46.4705
34.3929
34.3975
34.4008
34.3983
46.328
46.4207
35.2033
35.2102
35.2195
35.2269
35.2211
35.2101
35.2247
46.2941
46.4773
34.3481
34.3604
34.3565
46.4688
46.3625
46.42
34.3983
34.3971
34.3949
34.3941
46.3078
46.4526
35.2161
35.2239
35.2139
35.2229
35.2222
35.2134
35.2264
46.3689
46.4321
34.3544
34.3578
34.3548
46.4477
46.3336
46.413
34.395
34.3906
34.3907
34.3925
46.3485
46.4168
35.2163
35.2254
35.2119
35.221
35.2253
35.2106
35.2229
46.3458
46.4264
34.3547
34.3557
34.3518
46.4208
46.3103
46.4367
34.3915
34.393
34.3946
34.3927
46.3244
46.4314
35.213
35.2217
35.2188
35.2265
35.2246
35.2155
35.2281
46.3221
46.4505
34.3529
34.3607
34.3568
46.4478
46.3336
46.4375
34.3959
34.3923
34.3973
34.3969
46.3321
46.4254
35.2204
35.2278
35.2203
35.2266
35.2286
35.2121
35.226
46.3457
46.4467
34.3575
34.3605
34.3569
46.4512
46.334
46.4372
34.398
34.3972
34.3976
34.3958
46.3237
46.4361
35.22
35.2258
35.2158
35.2211
35.2247
35.2092
35.2202
46.342
46.4433
34.3561
34.3559
34.3525
46.4471
46.3321
46.4329
34.3979
34.3948
34.3952
34.3958
46.3314
46.4229
35.2147
35.2198
35.2112
35.217
35.2192
35.2036
35.2172
46.3374
46.4405
34.3516
34.3518
34.3489
46.445
46.3283
46.429
34.3948
34.395
34.3909
34.3908
46.3195
46.4313
35.2099
35.216
35.2052
35.2117
35.2159
35.2016
35.2131
46.3353
46.4371
34.3478
34.3472
34.3446
46.4422
46.3244
46.4296
34.3911
34.3896
34.3902
34.3925
46.3269
46.4204
35.2052
35.2114
35.205
35.2119
35.213
35.201
35.2138
46.332
46.4386
34.3442
34.3472
34.3445
46.4435
46.3253
46.4305
34.3907
34.3927
34.3906
34.3907
46.3175
46.4316
35.2057
35.2123
35.2058
35.2127
35.2139
35.2021
35.2142
46.3338
46.439
34.3446
34.3477
34.3448
46.4442
46.3263
34.3911
34.3897
46.3272
35.2063
35.2127
35.2129
35.214
35.2142
46.3339
46.4409
34.3447
34.3488
34.3451
46.4439
164.063
300.919
163.91
300.862
407.052
406.935
167.69
302.895
167.413
302.799
20.3948
20.3634
20.3618
20.3764
20.3731
20.359
20.357
91.4528
157.183
26.0048
35.2683
157.446
26.0004
91.1202
408.583
408.37
88.1304
24.9444
154.787
34.4146
24.9455
154.952
87.9974
206.786
205.216
46.4645
206.764
205.207
164.147
300.898
163.986
300.847
407.099
406.968
167.694
302.902
167.417
302.801
20.3665
20.3568
20.3551
20.3498
20.348
20.3488
20.3474
91.4794
157.197
25.9884
35.2507
91.1518
157.461
25.9848
408.571
408.366
88.1264
24.9447
154.792
34.3909
88.0059
24.9445
154.955
206.755
205.203
46.4583
206.75
205.201
164.22
300.893
164.069
300.844
407.1
406.935
167.696
302.904
167.421
302.802
20.3437
20.3458
20.3444
20.3328
20.3296
20.3352
20.3341
91.4947
157.2
25.9762
35.2413
91.1722
157.462
25.9733
408.572
408.365
88.1236
24.9426
154.799
34.379
88.0028
24.9424
154.961
206.753
205.203
46.461
206.749
205.2
164.258
300.885
164.12
300.836
407.083
406.953
167.687
302.898
167.417
302.794
20.3258
20.3311
20.3305
20.3146
20.3139
20.3221
20.3228
91.5007
157.203
25.9642
35.2299
91.1799
157.46
25.9624
408.563
408.357
88.1174
24.9387
154.797
34.364
87.9987
24.9377
154.954
206.748
205.196
46.455
206.741
205.191
164.263
300.881
164.139
300.833
407.086
406.927
167.675
302.891
167.406
302.791
20.3107
20.3203
20.3207
20.3042
20.302
20.3154
20.3145
91.4871
157.182
25.9608
35.2198
91.1803
157.43
25.9574
408.565
408.365
88.108
24.9371
154.785
34.3611
87.9899
24.9374
154.937
206.74
205.187
46.4542
206.734
205.184
164.255
300.881
164.128
300.834
407.081
406.954
167.651
302.893
167.383
302.794
20.3006
20.3144
20.3137
20.3024
20.3036
20.3148
20.3155
91.4097
157.16
25.9402
35.198
91.1098
157.435
25.9387
408.575
408.372
88.0576
24.9343
154.763
34.3454
87.9594
24.9341
154.923
206.736
205.184
46.4111
206.738
205.186
164.242
300.883
164.126
300.835
407.087
406.931
167.688
302.898
167.397
302.799
20.3034
20.3166
20.3176
20.3036
20.3028
20.3182
20.3183
91.5305
157.196
25.951
35.2163
91.1949
157.443
25.9536
408.578
408.371
88.1253
24.9395
154.783
34.3572
87.9629
24.9423
154.949
206.749
205.194
46.4535
206.745
205.194
164.222
300.883
164.099
300.838
407.086
406.963
167.67
302.898
167.4
302.798
20.3015
20.3171
20.3169
20.2992
20.2981
20.3142
20.3135
91.4922
157.192
25.9471
35.2133
91.1125
157.464
25.9479
408.573
408.367
88.101
24.9428
154.782
34.357
87.9809
24.9424
154.945
206.746
205.192
46.4171
206.744
205.191
164.206
300.891
164.081
300.847
407.106
406.953
167.68
302.901
167.414
302.8
20.2968
20.3134
20.3125
20.2971
20.2963
20.3123
20.3118
91.4486
157.18
25.9479
35.2095
91.1758
157.448
25.9455
408.573
408.368
88.1119
24.9389
154.788
34.3572
87.9963
24.9378
154.944
206.744
205.192
46.458
206.74
205.19
164.214
300.9
164.083
300.855
407.115
406.989
167.684
302.903
167.401
302.802
20.2958
20.3124
20.3121
20.2991
20.2978
20.3148
20.3144
91.4834
157.198
25.9481
35.2142
91.1909
157.455
25.9491
408.575
408.37
88.1163
24.9371
154.787
34.3576
87.9856
24.9379
154.949
206.745
205.194
46.4549
206.742
205.194
164.227
300.901
164.097
300.854
407.132
406.973
167.683
302.904
167.406
302.802
20.2972
20.3154
20.3147
20.3004
20.2977
20.3155
20.3145
91.4867
157.193
25.951
35.2154
91.177
157.454
25.9506
408.576
408.37
88.1208
24.9408
154.792
34.3618
87.988
24.9412
154.953
206.747
205.196
46.4437
206.745
205.196
164.227
300.896
164.102
300.848
407.127
406.999
167.685
302.903
167.41
302.802
20.2969
20.3152
20.314
20.2997
20.297
20.3131
20.312
91.4843
157.203
25.9474
35.2124
91.1775
157.464
25.9459
408.575
408.369
88.118
24.9396
154.794
34.359
87.99
24.9392
154.955
206.75
205.198
46.4392
206.748
205.197
164.221
300.893
164.098
300.846
407.133
406.972
167.688
302.904
167.411
302.803
20.2961
20.3125
20.3115
20.2982
20.2954
20.311
20.31
91.4855
157.2
25.9429
35.2072
91.1778
157.463
25.9423
408.574
408.369
88.1149
24.9363
154.797
34.3541
87.9916
24.9358
154.959
206.753
205.2
46.4325
206.751
205.2
164.219
300.892
164.093
300.846
407.126
406.996
167.691
302.905
167.415
302.804
20.2944
20.3102
20.3092
20.2954
20.2935
20.3078
20.3072
91.4891
157.212
25.9394
35.2038
91.1788
157.471
25.9374
408.574
408.368
88.116
24.9327
154.801
34.3496
87.9919
24.9317
154.963
206.755
205.202
46.4311
206.752
205.201
164.218
300.892
164.092
300.845
407.13
406.971
167.693
302.905
167.419
302.804
20.2927
20.3073
20.3068
20.2944
20.293
20.307
20.3067
91.4882
157.204
25.9364
35.2017
91.1795
157.465
25.9365
408.573
408.369
88.1158
24.9284
154.802
34.3471
87.9935
24.9281
154.963
206.755
205.203
46.4288
206.752
205.201
164.217
300.892
164.091
300.845
407.125
406.996
167.692
302.905
167.418
302.804
20.2923
20.307
20.3067
20.2945
20.2931
20.3072
20.3068
91.4884
157.211
25.9371
35.2027
91.1789
157.471
25.9371
408.574
408.369
88.1159
24.9278
154.803
34.3476
87.9948
24.928
154.963
206.755
205.203
46.4302
206.752
205.201
164.218
300.892
164.093
300.846
407.13
406.968
167.692
302.905
167.418
302.804
20.2924
20.3072
20.3068
20.3075
20.3068
91.488
157.203
25.9374
35.2022
91.179
157.467
25.9372
408.58
408.349
88.1155
24.9284
154.804
34.3474
87.9948
24.9284
154.967
206.755
205.203
46.4289
206.752
205.201
164.067
300.917
300.86
163.913
87.8083
154.799
25.1024
34.4882
25.0854
87.6232
154.955
87.812
154.858
25.1219
34.4847
155.01
25.1013
87.6266
163.945
300.851
164.102
300.907
163.948
300.849
300.905
164.106
87.7011
34.4823
154.953
25.0541
25.069
87.8936
154.791
87.7051
34.4829
155.012
25.0642
154.848
25.082
87.8977
205.354
206.848
46.444
205.308
206.898
408.553
408.37
406.954
407.061
46.3471
205.239
206.901
205.279
206.899
408.357
408.585
91.45
157.224
25.9817
35.2589
25.9811
91.1087
157.491
167.688
302.909
302.811
167.41
91.4448
26.0065
157.208
35.2669
26.0042
157.475
91.1037
167.416
302.801
167.692
302.902
91.1316
35.2567
157.494
25.9784
25.9794
91.4634
157.229
167.413
302.813
302.913
167.69
91.1265
35.2637
25.9986
157.479
26.0015
157.212
91.4584
167.691
302.884
302.788
167.418
91.4465
26.0166
157.155
35.2865
26.0126
157.417
91.114
167.686
302.894
302.797
167.413
91.1361
35.263
157.457
25.9924
157.185
25.9963
91.4722
167.416
302.79
302.891
167.693
91.1291
35.281
26.0055
157.422
26.0089
157.154
91.465
167.411
302.798
302.898
167.689
206.904
205.065
46.4494
206.901
205.062
407.108
406.971
408.366
408.575
46.3488
206.9
205.059
206.904
205.063
406.966
407.101
88.133
24.9474
154.839
34.3957
24.9471
155.005
88.0001
164.252
300.898
300.853
164.119
164.254
300.904
300.859
164.122
88.0044
34.4071
24.9454
154.952
24.9454
154.79
88.1374
88.0068
34.3913
24.9451
155.005
24.9462
154.842
88.1399
164.125
300.851
300.899
164.249
164.127
300.857
300.904
164.25
408.544
408.328
407.158
407.021
46.3658
206.752
205.202
206.763
205.206
408.322
408.529
407.016
407.149
407.073
406.938
408.59
408.386
205.046
206.948
46.4548
205.038
206.945
406.937
407.073
408.387
408.591
46.3558
205.031
206.946
205.034
206.949
164.151
300.897
163.989
300.846
87.9637
154.792
25.0404
34.4691
87.7839
154.96
25.0279
87.9674
154.852
25.0486
34.4633
87.7879
155.02
25.0343
164.03
300.846
300.895
164.188
164.034
300.845
300.894
164.192
87.8503
34.4637
154.967
25.0034
154.801
25.0155
88.0213
87.8541
34.4562
155.026
25.0072
154.86
25.0206
88.025
205.214
206.87
46.45
205.203
206.825
408.549
408.333
406.964
407.103
46.351
205.195
206.799
205.187
206.82
408.329
408.534
91.477
157.234
25.9759
35.2524
91.1447
157.501
25.9744
167.691
302.915
167.415
302.815
91.4715
25.9954
157.218
35.2556
91.1397
25.9925
157.486
167.419
302.802
302.903
167.696
91.1585
35.2504
157.506
25.9711
157.24
25.9721
91.4895
167.416
302.816
302.917
167.693
91.153
35.2535
25.9875
157.492
25.9898
157.225
91.4841
167.694
302.892
167.418
302.79
91.473
26.002
157.161
35.2663
91.1451
25.9988
157.428
167.69
302.899
167.413
302.799
91.1614
35.2482
157.461
25.979
157.2
25.9817
91.4939
167.419
302.788
302.891
167.695
91.1546
35.2627
25.9929
157.433
25.9958
157.167
91.4867
167.415
302.8
302.901
167.691
206.903
205.06
46.4462
206.901
205.059
407.098
406.967
408.366
408.572
46.3463
206.902
205.059
206.904
205.061
406.968
407.099
88.1291
24.9443
154.844
34.3805
88.0089
24.9437
155.009
164.247
300.898
164.121
300.852
164.248
300.904
164.124
300.858
87.9998
34.3871
24.9436
154.959
24.9438
154.796
88.1345
88.0024
34.3778
24.9424
155.012
24.9431
154.847
88.1369
164.12
300.853
300.9
164.246
164.123
300.859
300.905
164.248
408.525
408.321
407.146
407.017
46.3586
206.75
205.201
206.753
205.203
408.32
408.524
407.017
407.147
407.07
406.932
408.592
408.386
205.029
206.95
46.4597
205.026
206.946
406.926
407.065
408.382
408.59
46.3595
205.02
206.943
205.025
206.949
164.225
300.892
164.073
300.842
88.0681
154.807
24.992
34.4491
87.9052
154.972
24.9817
88.0716
154.866
24.9949
34.4441
87.9088
155.03
24.9835
164.099
300.839
300.89
164.243
164.103
300.839
300.888
164.247
87.9492
34.4441
154.974
24.9633
154.812
24.9723
88.1031
87.9527
34.4431
155.033
24.964
154.869
24.9735
88.1064
205.175
206.805
46.4564
205.219
206.875
408.528
408.357
406.943
407.054
46.3586
205.2
206.888
205.217
206.879
408.35
408.574
91.4973
157.245
25.9693
35.2442
91.1693
157.51
25.9687
167.693
302.918
167.418
302.816
91.4914
25.9854
157.231
35.2472
91.1639
25.9836
157.497
167.42
302.798
302.902
167.694
91.1776
35.2415
157.509
25.9654
157.248
25.9668
91.5043
167.417
302.813
302.917
167.691
91.1717
35.2443
25.9791
157.497
25.9816
157.235
91.4985
167.692
302.889
167.419
302.786
91.4879
25.99
157.172
35.253
91.1654
25.9871
157.436
167.687
302.901
167.414
302.798
91.1751
35.2378
157.466
25.967
157.201
25.9702
91.5027
167.415
302.784
302.888
167.685
91.1679
35.2492
25.9808
157.435
25.984
157.174
91.4949
167.41
302.795
302.898
167.681
206.905
205.061
46.4535
206.902
205.059
407.099
406.966
408.36
408.569
46.3536
206.899
205.055
206.905
205.06
406.961
407.097
88.1262
24.9418
154.85
34.3715
88.0055
24.9413
155.013
164.244
300.9
164.118
300.851
164.245
300.905
164.121
300.857
87.997
34.3757
24.9406
154.959
24.9414
154.8
88.1309
87.9996
34.369
24.9396
155.011
24.9406
154.851
88.1335
164.116
300.847
300.897
164.239
164.119
300.853
300.903
164.24
408.523
408.318
407.146
407.013
46.3611
206.745
205.195
206.752
205.2
408.315
408.521
407.009
407.141
407.057
406.921
408.586
408.381
205.018
206.945
46.4525
205.013
206.939
406.92
407.053
408.384
408.586
46.3511
205.006
206.934
205.011
206.941
164.262
300.886
164.123
300.837
88.1258
154.813
24.9549
34.427
87.981
154.973
24.9474
88.129
154.871
24.9555
34.4264
87.9844
155.032
24.9478
164.133
300.834
300.883
164.265
164.136
300.835
300.885
164.269
88.001
34.422
154.969
24.9345
154.811
24.9405
88.1397
88.0043
34.4213
155.028
24.9344
154.87
24.9408
88.143
205.183
206.859
46.4478
205.177
206.814
408.543
408.33
406.951
407.085
46.3474
205.171
206.785
205.164
206.809
408.331
408.534
91.5053
157.247
25.9624
35.2298
91.1826
157.506
25.9603
167.684
302.914
167.414
302.81
91.4992
25.9762
157.234
35.2326
91.1769
25.9733
157.494
167.41
302.791
302.893
167.682
91.1838
35.2261
157.501
25.9561
157.243
25.9573
91.5069
167.407
302.808
302.911
167.679
91.1778
35.2299
25.969
157.49
25.9707
157.231
91.501
167.679
302.884
167.408
302.78
91.4937
25.9779
157.172
35.2383
91.1726
25.9759
157.433
167.675
302.896
167.404
302.793
91.1805
35.2289
157.448
25.962
157.196
25.9619
91.5048
167.402
302.777
302.88
167.671
91.1734
35.237
25.9749
157.427
25.9751
157.169
91.4979
167.398
302.793
302.894
167.668
206.901
205.056
46.4503
206.894
205.05
407.092
406.96
408.359
408.561
46.3488
206.89
205.046
206.896
205.051
406.962
407.091
88.1201
24.9383
154.847
34.3602
88.0016
24.9372
155.006
164.229
300.892
164.109
300.843
164.231
300.899
164.112
300.85
87.99
34.3621
24.937
154.948
24.9369
154.792
88.1221
87.9926
34.359
24.9368
155
24.9367
154.843
88.1247
164.101
300.841
300.889
164.222
164.104
300.847
300.895
164.223
408.518
408.315
407.137
407.008
46.3543
206.737
205.187
206.744
205.191
408.317
408.518
407.012
407.138
407.051
406.921
408.59
408.389
205.004
206.936
46.445
204.999
206.93
406.922
407.053
408.394
408.596
46.3447
204.994
206.928
204.997
206.932
164.267
300.883
164.141
300.832
88.1466
154.805
24.929
34.4137
88.0136
154.956
24.9238
88.1495
154.865
24.9284
34.4105
88.0168
155.016
24.9226
164.134
300.833
300.88
164.256
164.137
300.832
300.879
164.26
88.0169
34.4099
154.941
24.9133
154.792
24.9185
88.1337
88.0197
34.4091
155.005
24.9123
154.852
24.9173
88.1364
205.151
206.79
46.4449
205.195
206.86
408.533
408.365
406.941
407.047
46.3444
205.18
206.876
205.195
206.865
408.361
408.584
91.5059
157.237
25.955
35.2236
91.1849
157.491
25.9552
167.672
302.91
167.403
302.809
91.4996
25.9682
157.225
35.2294
91.1791
25.9682
157.48
167.397
302.792
302.892
167.663
91.1826
35.2219
157.477
25.9525
157.226
25.9544
91.4917
167.394
302.811
302.911
167.66
91.1764
35.2283
25.9654
157.466
25.9677
157.215
91.4855
167.656
302.878
167.393
302.778
91.4819
25.9741
157.163
35.2333
91.1739
25.9713
157.415
167.653
302.894
167.389
302.794
91.1584
35.2104
157.421
25.945
157.164
25.9516
91.4467
167.377
302.78
302.88
167.645
91.1534
35.2268
25.9599
157.4
25.9662
157.149
91.4427
167.373
302.796
302.896
167.641
206.891
205.046
46.4503
206.886
205.042
407.095
406.967
408.37
408.571
46.3505
206.884
205.041
206.888
205.043
406.97
407.1
88.1108
24.937
154.836
34.3588
87.9929
24.9372
154.989
164.212
300.888
164.092
300.841
164.213
300.893
164.095
300.847
87.9791
34.3589
24.9358
154.926
24.937
154.773
88.0985
87.9819
34.3567
24.9356
154.977
24.937
154.824
88.1013
164.082
300.843
300.889
164.2
164.085
300.848
300.893
164.201
408.52
408.32
407.143
407.017
46.3536
206.733
205.183
206.736
205.184
408.324
408.524
407.02
407.148
407.054
406.923
408.601
408.393
204.993
206.931
46.4136
204.993
206.929
406.924
407.055
408.394
408.6
46.3055
204.995
206.936
204.993
206.934
164.259
300.881
164.13
300.834
88.1056
154.777
24.9092
34.3924
87.9979
154.932
24.9068
88.1092
154.841
24.9089
34.3941
88.0007
155.001
24.9071
164.129
300.835
300.882
164.255
164.131
300.836
300.883
164.26
87.9736
34.3898
154.94
24.9059
154.771
24.9059
88.1149
87.9776
34.3939
155.006
24.9065
154.841
24.9065
88.1192
205.163
206.851
46.3915
205.163
206.812
408.557
408.343
406.953
407.085
46.2897
205.163
206.795
205.151
206.812
408.342
408.547
91.452
157.211
25.9483
35.2035
91.1619
157.465
25.9442
167.648
302.914
167.38
302.814
91.4453
25.9615
157.2
35.2095
91.1556
25.957
157.455
167.377
302.797
302.895
167.667
91.1187
35.2002
157.479
25.9402
157.203
25.9409
91.4228
167.374
302.817
302.916
167.663
91.1121
35.2068
25.953
157.47
25.9539
157.193
91.4164
167.66
302.882
167.37
302.784
91.4035
25.9547
157.135
35.209
91.1064
25.9527
157.401
167.655
302.898
167.366
302.799
91.097
35.2002
157.459
25.9435
157.182
25.9395
91.492
167.391
302.786
302.886
167.682
91.0879
35.2092
25.9556
157.431
25.953
157.145
91.4759
167.386
302.802
302.902
167.677
206.887
205.043
46.4208
206.887
205.044
407.103
406.972
408.373
408.577
46.3116
206.894
205.05
206.89
205.046
406.972
407.104
88.0605
24.9342
154.813
34.3413
87.9625
24.9338
154.974
164.2
300.891
164.071
300.845
164.201
300.895
164.074
300.85
87.9276
34.3446
24.936
154.939
24.9343
154.766
88.0798
87.9303
34.3408
24.9356
154.99
24.9341
154.815
88.0815
164.077
300.847
300.893
164.217
164.079
300.853
300.898
164.218
408.527
408.326
407.151
407.021
46.3027
206.745
205.192
206.742
205.188
408.326
408.529
407.02
407.151
407.056
406.926
408.601
408.394
204.996
206.941
46.4265
204.995
206.94
406.928
407.058
408.392
408.6
46.3439
204.991
206.937
204.994
206.943
164.245
300.885
164.129
300.836
88.1337
154.781
24.9063
34.4002
87.9949
154.942