/*--------------------------------*- C++ -*----------------------------------*\
| =========                 |                                                 |
| \\      /  F ield         | OpenFOAM: The Open Source CFD Toolbox           |
|  \\    /   O peration     | Version:  2206                                  |
|   \\  /    A nd           | Website:  www.openfoam.com                      |
|    \\/     M anipulation  |                                                 |
\*---------------------------------------------------------------------------*/
FoamFile
{
    version     2.0;
    format      ascii;
    arch        "LSB;label=32;scalar=64";
    class       volScalarField;
    location    "90";
    object      k;
}
// * * * * * * * * * * * * * * * * * * * * * * * * * * * * * * * * * * * * * //

dimensions      [0 2 -2 0 0 0 0];

internalField   nonuniform List<scalar> 
66940
(
3.34148e-05
5.18802e-05
5.14337e-05
5.20969e-05
3.33081e-05
5.23671e-05
5.08715e-05
5.20666e-05
3.31315e-05
5.19921e-05
5.163e-05
5.14939e-05
3.27347e-05
5.11219e-05
5.15273e-05
5.24554e-05
3.31867e-05
5.13362e-05
5.10903e-05
5.20155e-05
3.34046e-05
5.12952e-05
5.1455e-05
5.19159e-05
3.33959e-05
5.19409e-05
5.09753e-05
5.21764e-05
3.32241e-05
5.19788e-05
5.13156e-05
5.13292e-05
3.3487e-05
5.23132e-05
5.12388e-05
5.20662e-05
3.38222e-05
5.22437e-05
5.13597e-05
5.25484e-05
3.38776e-05
5.22703e-05
5.13104e-05
5.22298e-05
3.48664e-05
5.34346e-05
5.26086e-05
5.22216e-05
5.14791e-05
5.0592e-05
5.17191e-05
5.22287e-05
5.1365e-05
5.23893e-05
5.12697e-05
5.17705e-05
5.2464e-05
5.14654e-05
5.09479e-05
5.22313e-05
5.10574e-05
5.14265e-05
5.03771e-05
5.12689e-05
5.02004e-05
5.12712e-05
5.15776e-05
5.24341e-05
5.17557e-05
5.23952e-05
5.1718e-05
5.23533e-05
5.15751e-05
5.22545e-05
5.17848e-05
5.31141e-05
5.30707e-05
5.08207e-05
5.12432e-05
5.10779e-05
5.26251e-05
5.11653e-05
5.18196e-05
5.00277e-05
5.14482e-05
5.10112e-05
5.09984e-05
5.24301e-05
5.19749e-05
5.1734e-05
5.2211e-05
5.1458e-05
5.2329e-05
5.19918e-05
5.20253e-05
5.21186e-05
5.30768e-05
5.26701e-05
5.09002e-05
5.15441e-05
5.08129e-05
5.22708e-05
5.18884e-05
5.14574e-05
5.11247e-05
5.09799e-05
5.12248e-05
5.14168e-05
5.1712e-05
5.14081e-05
5.13241e-05
5.20293e-05
5.13291e-05
5.23959e-05
5.21611e-05
5.15564e-05
5.11505e-05
5.19281e-05
5.23205e-05
5.01295e-05
5.15459e-05
5.09069e-05
5.18608e-05
5.15419e-05
5.15872e-05
5.06635e-05
5.14157e-05
5.08026e-05
5.0588e-05
5.20035e-05
5.21669e-05
5.13262e-05
5.15376e-05
5.08765e-05
5.24292e-05
5.19863e-05
5.20158e-05
5.11178e-05
5.21992e-05
5.25334e-05
5.02668e-05
5.0525e-05
5.08488e-05
5.21347e-05
5.13119e-05
5.14324e-05
5.09476e-05
5.14614e-05
5.10049e-05
5.12695e-05
5.20904e-05
5.26561e-05
5.15838e-05
5.19921e-05
5.11562e-05
5.23315e-05
5.20231e-05
5.12436e-05
5.18669e-05
5.25641e-05
5.22388e-05
5.08815e-05
5.14902e-05
5.02455e-05
5.24063e-05
5.15095e-05
5.15554e-05
5.03464e-05
5.07604e-05
5.07755e-05
5.13993e-05
5.18781e-05
5.21447e-05
5.19913e-05
5.18109e-05
5.09039e-05
5.16173e-05
5.13884e-05
5.17909e-05
5.14986e-05
5.29092e-05
5.18864e-05
5.08143e-05
5.13101e-05
5.11623e-05
5.23523e-05
5.22915e-05
5.18279e-05
5.11361e-05
5.10735e-05
5.06883e-05
5.13634e-05
5.18088e-05
5.24995e-05
5.15167e-05
5.2489e-05
5.06609e-05
5.22186e-05
5.06885e-05
5.14137e-05
5.10284e-05
5.24289e-05
5.2021e-05
5.13064e-05
5.13514e-05
5.13868e-05
5.21392e-05
5.0963e-05
5.10328e-05
5.09052e-05
5.1399e-05
5.08609e-05
5.08872e-05
5.23403e-05
5.22803e-05
5.15402e-05
5.21766e-05
5.07449e-05
5.25383e-05
5.18613e-05
5.22268e-05
5.19954e-05
5.2763e-05
5.20834e-05
5.13116e-05
5.13879e-05
5.09062e-05
5.19514e-05
5.16221e-05
5.23186e-05
4.9965e-05
5.07207e-05
5.08869e-05
5.09529e-05
5.19624e-05
5.22708e-05
5.15816e-05
5.21072e-05
5.16812e-05
5.26442e-05
5.2099e-05
5.21793e-05
5.10391e-05
5.21964e-05
5.30429e-05
5.12146e-05
5.13659e-05
5.06202e-05
5.25135e-05
5.14603e-05
5.23044e-05
5.10413e-05
5.02191e-05
5.10042e-05
5.0653e-05
5.27031e-05
5.29327e-05
5.17286e-05
5.28645e-05
5.17692e-05
5.31348e-05
5.19667e-05
5.23317e-05
5.2132e-05
5.32194e-05
5.33943e-05
4.96173e-05
5.14274e-05
5.00241e-05
5.2009e-05
5.25826e-05
5.35094e-05
5.05547e-05
5.02628e-05
5.21749e-05
5.24538e-05
5.30386e-05
5.34041e-05
5.14719e-05
5.27297e-05
5.30285e-05
5.38014e-05
5.19609e-05
5.37819e-05
5.28577e-05
5.36169e-05
5.41581e-05
4.96166e-05
5.2713e-05
5.21604e-05
5.31847e-05
5.24417e-05
5.20963e-05
5.22823e-05
5.25027e-05
5.26281e-05
5.33587e-05
3.51117e-05
3.51885e-05
3.50736e-05
5.2549e-05
5.31363e-05
5.19664e-05
1.07056e-05
3.33358e-05
3.35287e-05
3.36568e-05
3.34402e-05
5.70517e-05
5.21821e-05
4.88586e-05
4.18133e-05
5.19016e-05
2.73712e-05
2.77087e-05
4.816e-05
1.69831e-05
4.82004e-05
1.7093e-05
1.08574e-05
1.08784e-05
4.71923e-05
1.69125e-05
4.73583e-05
1.68964e-05
3.35435e-05
3.36523e-05
3.34093e-05
3.32311e-05
3.32737e-05
3.3507e-05
3.35342e-05
5.82211e-05
4.85286e-05
4.19791e-05
5.16125e-05
5.85392e-05
4.84052e-05
4.2017e-05
1.10229e-05
1.1032e-05
5.70223e-05
4.07516e-05
4.90357e-05
5.15273e-05
5.68262e-05
4.06155e-05
4.86559e-05
2.75146e-05
2.78035e-05
5.18811e-05
2.77027e-05
2.79878e-05
4.81653e-05
1.71982e-05
4.82547e-05
1.71367e-05
1.08967e-05
1.0935e-05
4.66874e-05
1.69077e-05
4.73004e-05
1.69411e-05
3.36047e-05
3.31325e-05
3.33852e-05
3.29142e-05
3.38325e-05
3.32017e-05
3.29288e-05
5.87512e-05
4.84215e-05
4.22087e-05
5.24731e-05
5.8286e-05
4.76848e-05
4.16887e-05
1.0998e-05
1.10401e-05
5.77822e-05
4.10579e-05
4.86185e-05
5.05771e-05
5.77878e-05
4.06254e-05
4.85613e-05
2.79925e-05
2.77846e-05
5.23541e-05
2.78672e-05
2.79777e-05
4.79599e-05
1.71209e-05
4.77878e-05
1.69913e-05
1.09469e-05
1.09335e-05
4.67658e-05
1.68362e-05
4.70083e-05
1.69201e-05
3.3422e-05
3.32038e-05
3.34348e-05
3.28948e-05
3.37499e-05
3.37161e-05
3.34604e-05
5.8085e-05
4.84985e-05
4.23452e-05
5.09751e-05
5.79705e-05
4.77654e-05
4.21985e-05
1.10258e-05
1.10275e-05
5.77475e-05
4.05825e-05
4.8251e-05
5.16274e-05
5.78278e-05
4.06353e-05
4.86542e-05
2.78349e-05
2.78068e-05
5.20545e-05
2.75824e-05
2.78248e-05
4.77523e-05
1.69673e-05
4.81736e-05
1.71515e-05
1.09337e-05
1.09159e-05
4.67609e-05
1.70532e-05
4.69034e-05
1.69482e-05
3.35324e-05
3.37047e-05
3.35039e-05
3.33714e-05
3.32178e-05
3.35307e-05
3.33558e-05
5.85096e-05
4.8411e-05
4.19443e-05
5.20069e-05
5.72703e-05
4.8142e-05
4.17411e-05
1.0975e-05
1.09817e-05
5.65836e-05
4.09252e-05
4.84673e-05
5.14814e-05
5.75835e-05
4.05832e-05
4.85431e-05
2.77443e-05
2.76305e-05
5.22281e-05
2.7337e-05
2.75318e-05
4.80583e-05
1.69489e-05
4.75638e-05
1.70136e-05
1.08602e-05
1.09326e-05
4.67414e-05
1.68594e-05
4.64415e-05
1.69365e-05
3.36847e-05
3.33607e-05
3.347e-05
3.32583e-05
3.35051e-05
3.33147e-05
3.3012e-05
5.84899e-05
4.79618e-05
4.22951e-05
5.0675e-05
5.83949e-05
4.82125e-05
4.16645e-05
1.09883e-05
1.10149e-05
5.67382e-05
4.09576e-05
4.85804e-05
5.13342e-05
5.60476e-05
4.05102e-05
4.8547e-05
2.73741e-05
2.74778e-05
5.24279e-05
2.76556e-05
2.7716e-05
4.78216e-05
1.70167e-05
4.80266e-05
1.70882e-05
1.08859e-05
1.0888e-05
4.65853e-05
1.69819e-05
4.69183e-05
1.69394e-05
3.30642e-05
3.35836e-05
3.35095e-05
3.32621e-05
3.31772e-05
3.35292e-05
3.31129e-05
5.70815e-05
4.76388e-05
4.18987e-05
5.12155e-05
5.72859e-05
4.79388e-05
4.21379e-05
1.09633e-05
1.09635e-05
5.67903e-05
4.13115e-05
4.80654e-05
5.07196e-05
5.71651e-05
4.10102e-05
4.75928e-05
2.76379e-05
2.74614e-05
5.2208e-05
2.74611e-05
2.76635e-05
4.75266e-05
1.7042e-05
4.69378e-05
1.70725e-05
1.08324e-05
1.08411e-05
4.67031e-05
1.67223e-05
4.64967e-05
1.6803e-05
3.37292e-05
3.32556e-05
3.34317e-05
3.32383e-05
3.38635e-05
3.37348e-05
3.36273e-05
5.82808e-05
4.82713e-05
4.19225e-05
5.14757e-05
5.84885e-05
4.85745e-05
4.20212e-05
1.09828e-05
1.09122e-05
5.60877e-05
4.13544e-05
4.84524e-05
5.06565e-05
5.56598e-05
4.12776e-05
4.79385e-05
2.72426e-05
2.77745e-05
5.16224e-05
2.74876e-05
2.73231e-05
4.74853e-05
1.70021e-05
4.77853e-05
1.69528e-05
1.07689e-05
1.0789e-05
4.62033e-05
1.6732e-05
4.68101e-05
1.67848e-05
3.39364e-05
3.38101e-05
3.33499e-05
3.28858e-05
3.36182e-05
3.37425e-05
3.34817e-05
5.82379e-05
4.84718e-05
4.26954e-05
5.14944e-05
5.77804e-05
4.79849e-05
4.27666e-05
1.10109e-05
1.09865e-05
5.6934e-05
4.12035e-05
4.83881e-05
5.14056e-05
5.63259e-05
4.13365e-05
4.81717e-05
2.70317e-05
2.71803e-05
5.17905e-05
2.69462e-05
2.75589e-05
4.69595e-05
1.70549e-05
4.73135e-05
1.6981e-05
1.08202e-05
1.0854e-05
4.67285e-05
1.67162e-05
4.66246e-05
1.68143e-05
3.32762e-05
3.3472e-05
3.31308e-05
3.31635e-05
3.37305e-05
3.37894e-05
3.36691e-05
5.75872e-05
4.85136e-05
4.21653e-05
5.21922e-05
5.80913e-05
4.82568e-05
4.27961e-05
1.08947e-05
1.09296e-05
5.66729e-05
4.13651e-05
4.81092e-05
5.13095e-05
5.70987e-05
4.0857e-05
4.76781e-05
2.72477e-05
2.74545e-05
5.15095e-05
2.69941e-05
2.72982e-05
4.74521e-05
1.7085e-05
4.72991e-05
1.70887e-05
1.08634e-05
1.10119e-05
4.67183e-05
1.68875e-05
4.63017e-05
1.69123e-05
3.39394e-05
3.41037e-05
3.39384e-05
3.3806e-05
3.39022e-05
3.41779e-05
3.39622e-05
5.74871e-05
4.79997e-05
4.22513e-05
5.14276e-05
5.74977e-05
4.83915e-05
4.29668e-05
1.09199e-05
1.10586e-05
5.66325e-05
4.09051e-05
4.74665e-05
5.087e-05
5.66938e-05
4.16432e-05
4.78181e-05
2.7397e-05
2.76706e-05
5.22564e-05
2.75632e-05
2.79024e-05
4.59815e-05
1.72442e-05
4.60336e-05
1.69293e-05
1.10511e-05
1.12442e-05
4.66779e-05
1.72798e-05
4.68523e-05
1.70727e-05
3.39757e-05
3.42625e-05
3.40448e-05
3.72862e-05
3.74526e-05
3.77677e-05
3.75983e-05
5.74238e-05
4.88577e-05
4.28889e-05
5.27929e-05
5.75808e-05
4.73853e-05
4.25666e-05
1.11342e-05
1.14259e-05
5.62043e-05
4.04534e-05
4.81833e-05
5.20348e-05
5.67991e-05
4.12543e-05
4.66847e-05
2.79114e-05
2.81366e-05
5.20231e-05
2.78762e-05
2.80457e-05
3.79162e-05
3.03242e-06
3.54119e-05
1.25138e-05
3.62109e-06
9.68935e-06
3.79865e-05
3.03448e-06
3.57148e-05
1.24988e-05
1.938e-05
2.46478e-05
2.46428e-05
3.7546e-05
1.87817e-05
2.69653e-05
2.66564e-05
4.79994e-05
2.94587e-05
4.28511e-05
4.86733e-05
4.98446e-05
2.66394e-05
4.0618e-05
3.64097e-06
9.81946e-06
4.77531e-05
4.16648e-05
2.91932e-05
4.85274e-05
4.97564e-05
3.98292e-05
2.6485e-05
1.72093e-05
1.72433e-05
4.94577e-05
1.73994e-05
1.75094e-05
1.07147e-05
1.05797e-05
1.06218e-05
1.06384e-05
5.21437e-05
2.77533e-05
2.74943e-05
2.78783e-05
2.75211e-05
1.67732e-05
5.11461e-05
4.67448e-05
4.76778e-05
1.70733e-05
1.68132e-05
4.81547e-05
4.80325e-05
1.72571e-05
1.68536e-05
4.83461e-05
5.77024e-05
5.0529e-05
4.75707e-05
4.06603e-05
4.72241e-05
4.00397e-05
5.76945e-05
5.80766e-05
5.16833e-05
4.82175e-05
4.10982e-05
4.71998e-05
4.10762e-05
5.80622e-05
5.20432e-05
2.75224e-05
2.80123e-05
1.09445e-05
1.08478e-05
1.06583e-05
5.27369e-05
2.80268e-05
2.83878e-05
2.79693e-05
2.84693e-05
1.10053e-05
1.10044e-05
4.66305e-05
1.68408e-05
1.68494e-05
4.73577e-05
5.76959e-05
5.16333e-05
4.7303e-05
4.1489e-05
4.76278e-05
4.18626e-05
5.70938e-05
4.72553e-05
1.72743e-05
1.71672e-05
4.7003e-05
5.80325e-05
5.27204e-05
4.21329e-05
4.87058e-05
4.22702e-05
4.84695e-05
5.81475e-05
4.73313e-05
1.73291e-05
5.75867e-05
5.16077e-05
4.18616e-05
4.78821e-05
4.75927e-05
1.69317e-05
5.78357e-05
5.22014e-05
4.86199e-05
4.20681e-05
4.845e-05
4.14044e-05
5.8448e-05
4.79387e-05
1.72779e-05
1.73976e-05
4.75652e-05
5.77241e-05
5.16834e-05
4.19543e-05
4.73298e-05
4.19627e-05
4.75693e-05
5.82479e-05
4.76358e-05
1.70208e-05
1.70206e-05
4.69322e-05
1.09167e-05
1.09644e-05
5.3269e-05
2.8409e-05
2.8153e-05
2.83637e-05
2.85985e-05
1.10452e-05
1.09681e-05
5.65714e-05
5.06813e-05
4.03327e-05
4.90809e-05
4.09199e-05
4.78361e-05
5.73975e-05
5.765e-05
5.10314e-05
4.05967e-05
4.79335e-05
4.06007e-05
4.744e-05
5.75984e-05
4.59216e-05
1.7476e-05
1.71522e-05
4.77536e-05
4.64888e-05
1.70722e-05
1.69739e-05
4.73024e-05
1.06213e-05
1.07347e-05
5.15454e-05
2.78092e-05
2.79921e-05
2.78268e-05
2.76887e-05
1.06743e-05
1.07442e-05
1.07632e-05
1.07119e-05
1.06858e-05
1.07211e-05
1.06773e-05
1.0682e-05
2.76346e-05
2.74426e-05
5.17995e-05
2.78691e-05
2.73939e-05
1.08023e-05
1.07367e-05
1.07246e-05
1.06511e-05
5.16603e-05
2.78116e-05
2.76013e-05
2.7895e-05
2.77146e-05
4.84699e-05
1.72846e-05
4.85193e-05
1.72854e-05
5.76425e-05
4.76432e-05
4.07063e-05
5.04134e-05
5.76501e-05
4.76415e-05
4.02537e-05
5.80191e-05
4.82408e-05
4.11102e-05
5.03745e-05
5.78892e-05
4.82997e-05
4.11535e-05
4.8469e-05
1.71893e-05
1.70005e-05
4.84287e-05
4.80537e-05
1.72697e-05
1.72702e-05
4.79881e-05
5.76444e-05
5.01538e-05
4.77358e-05
4.07124e-05
4.75535e-05
4.08451e-05
5.66648e-05
5.73596e-05
5.10414e-05
4.81947e-05
4.12039e-05
4.79466e-05
4.11792e-05
5.78869e-05
2.8188e-05
2.85214e-05
5.21397e-05
2.82451e-05
2.80911e-05
1.10429e-05
1.10354e-05
1.09032e-05
1.08916e-05
5.23895e-05
2.82045e-05
2.85563e-05
2.80723e-05
2.82972e-05
1.10737e-05
1.10368e-05
5.74309e-05
4.78216e-05
4.20981e-05
5.17164e-05
5.78419e-05
4.73206e-05
4.19953e-05
4.71751e-05
1.74241e-05
4.775e-05
1.74021e-05
5.78102e-05
4.21762e-05
4.88914e-05
5.15211e-05
5.80582e-05
4.15685e-05
4.87197e-05
4.74604e-05
1.69406e-05
1.68587e-05
4.73839e-05
5.83586e-05
5.09613e-05
4.75393e-05
4.21543e-05
4.77341e-05
4.1528e-05
5.82646e-05
4.76277e-05
1.7389e-05
1.72862e-05
4.66937e-05
5.76611e-05
5.2262e-05
4.22753e-05
4.83872e-05
4.2079e-05
4.80657e-05
5.75697e-05
4.77793e-05
1.74732e-05
4.72125e-05
1.74466e-05
5.75232e-05
4.1547e-05
4.80549e-05
5.08156e-05
5.77656e-05
4.22017e-05
4.72838e-05
4.74781e-05
1.70909e-05
4.76703e-05
1.70792e-05
5.76705e-05
5.13332e-05
4.86428e-05
4.23647e-05
4.8216e-05
4.17222e-05
5.8417e-05
4.76754e-05
1.73922e-05
1.74905e-05
4.75892e-05
5.71864e-05
5.17578e-05
4.2121e-05
4.80901e-05
4.22594e-05
4.76074e-05
5.7496e-05
4.74692e-05
1.70898e-05
1.7132e-05
4.77678e-05
2.80698e-05
2.85214e-05
5.26866e-05
2.84478e-05
2.82954e-05
1.09802e-05
1.10247e-05
1.10283e-05
1.10071e-05
5.26171e-05
2.83497e-05
2.8631e-05
2.84485e-05
2.87066e-05
1.10697e-05
1.10522e-05
5.76556e-05
4.05099e-05
4.81622e-05
5.10345e-05
5.75889e-05
4.03548e-05
4.82469e-05
4.74833e-05
1.76073e-05
4.78142e-05
1.75455e-05
4.69295e-05
1.72322e-05
4.75707e-05
1.7115e-05
5.72163e-05
5.11141e-05
4.11013e-05
4.88676e-05
4.04586e-05
4.84069e-05
5.69698e-05
5.74023e-05
5.1036e-05
4.08126e-05
4.80781e-05
4.01468e-05
4.83731e-05
5.74425e-05
4.81577e-05
1.75282e-05
1.74001e-05
4.805e-05
4.77184e-05
1.7028e-05
1.71584e-05
4.79285e-05
1.0755e-05
1.07515e-05
1.08391e-05
1.08056e-05
5.20061e-05
2.76229e-05
2.80206e-05
2.78099e-05
2.79266e-05
1.07834e-05
1.07299e-05
1.08206e-05
1.0795e-05
1.07697e-05
1.07717e-05
1.07447e-05
1.07414e-05
2.80735e-05
2.76457e-05
5.0807e-05
2.79026e-05
2.77445e-05
1.07792e-05
1.07064e-05
1.07286e-05
1.07813e-05
5.15017e-05
2.78919e-05
2.71776e-05
2.79381e-05
2.78714e-05
4.86152e-05
1.73426e-05
4.86548e-05
1.73558e-05
5.74522e-05
4.80222e-05
4.07336e-05
5.08922e-05
5.69481e-05
4.75952e-05
4.04248e-05
5.78211e-05
4.80171e-05
4.07407e-05
5.1602e-05
5.82171e-05
4.83601e-05
4.04854e-05
4.83925e-05
1.71805e-05
1.71227e-05
4.8495e-05
4.86574e-05
1.73144e-05
1.73602e-05
4.85234e-05
5.71766e-05
5.08272e-05
4.79971e-05
4.09233e-05
4.84372e-05
4.099e-05
5.70819e-05
5.76033e-05
5.16093e-05
4.85019e-05
4.00975e-05
4.79525e-05
4.04896e-05
5.79574e-05
2.79487e-05
2.8743e-05
5.18394e-05
2.83301e-05
2.81356e-05
1.10982e-05
1.10043e-05
1.09254e-05
1.09099e-05
5.26825e-05
2.82641e-05
2.83691e-05
2.83782e-05
2.85345e-05
1.10235e-05
1.10168e-05
5.79258e-05
4.72702e-05
4.20392e-05
5.17828e-05
5.81767e-05
4.75532e-05
4.20826e-05
4.73392e-05
1.74596e-05
4.74638e-05
1.74779e-05
5.7835e-05
4.23573e-05
4.8006e-05
5.21098e-05
5.79255e-05
4.19263e-05
4.88659e-05
4.70858e-05
1.69963e-05
1.69785e-05
4.63898e-05
5.73438e-05
5.14987e-05
4.75759e-05
4.20501e-05
4.72888e-05
4.22289e-05
5.73834e-05
4.70013e-05
1.74902e-05
1.75581e-05
4.69382e-05
5.75818e-05
5.14789e-05
4.2447e-05
4.78847e-05
4.25157e-05
4.92154e-05
5.86585e-05
4.81422e-05
1.73275e-05
4.84074e-05
1.71826e-05
5.84066e-05
4.21423e-05
4.83411e-05
5.20684e-05
5.7666e-05
4.14277e-05
4.81383e-05
4.74772e-05
1.70691e-05
4.79631e-05
1.70654e-05
5.8787e-05
5.20738e-05
4.85259e-05
4.22915e-05
4.84436e-05
4.22729e-05
5.87848e-05
4.7768e-05
1.73563e-05
1.74081e-05
4.73328e-05
5.83803e-05
5.21388e-05
4.20544e-05
4.77311e-05
4.18891e-05
4.76443e-05
5.78358e-05
4.79992e-05
1.68849e-05
1.71346e-05
4.77375e-05
2.80809e-05
2.85953e-05
5.30379e-05
2.81415e-05
2.86776e-05
1.10426e-05
1.1053e-05
1.10356e-05
1.1068e-05
5.22959e-05
2.84094e-05
2.86715e-05
2.85951e-05
2.84214e-05
1.10502e-05
1.10533e-05
5.75507e-05
4.0737e-05
4.74404e-05
5.10172e-05
5.75248e-05
4.0823e-05
4.73008e-05
4.7986e-05
1.74744e-05
4.80241e-05
1.74453e-05
4.71608e-05
1.71336e-05
4.79289e-05
1.71543e-05
5.7288e-05
5.14492e-05
4.05413e-05
4.89984e-05
4.05402e-05
4.82907e-05
5.78527e-05
5.75114e-05
5.0957e-05
4.07838e-05
4.80813e-05
4.02997e-05
4.80735e-05
5.60847e-05
4.76765e-05
1.74406e-05
1.74657e-05
4.7842e-05
4.79078e-05
1.71584e-05
1.71693e-05
4.76628e-05
1.08279e-05
1.0732e-05
1.07637e-05
1.07402e-05
5.23995e-05
2.78241e-05
2.77958e-05
2.79867e-05
2.80643e-05
1.07738e-05
1.08311e-05
1.06885e-05
1.0819e-05
1.07365e-05
1.07593e-05
1.07036e-05
1.07345e-05
2.78737e-05
2.7523e-05
5.13748e-05
2.79762e-05
2.76436e-05
1.07557e-05
1.07693e-05
1.07911e-05
1.07496e-05
5.1648e-05
2.79734e-05
2.79009e-05
2.77955e-05
2.78105e-05
4.7758e-05
1.71594e-05
4.84192e-05
1.71702e-05
5.79736e-05
4.81183e-05
4.09907e-05
5.12019e-05
5.67144e-05
4.81945e-05
4.09805e-05
5.78107e-05
4.84375e-05
4.06395e-05
5.07523e-05
5.71591e-05
4.75536e-05
4.08656e-05
4.77677e-05
1.70981e-05
1.70654e-05
4.83621e-05
4.86006e-05
1.71531e-05
1.72505e-05
4.80301e-05
5.788e-05
5.1233e-05
4.80032e-05
4.02802e-05
4.77989e-05
4.10041e-05
5.70494e-05
5.76441e-05
5.16241e-05
4.83114e-05
4.07209e-05
4.82146e-05
4.05208e-05
5.71967e-05
2.84167e-05
2.85613e-05
5.25578e-05
2.84476e-05
2.79517e-05
1.10565e-05
1.09254e-05
1.09471e-05
1.09654e-05
5.25794e-05
2.82535e-05
2.82184e-05
2.8511e-05
2.83915e-05
1.0949e-05
1.08907e-05
5.76983e-05
4.7834e-05
4.20906e-05
5.13307e-05
5.73472e-05
4.77568e-05
4.21887e-05
4.71841e-05
1.75241e-05
4.76645e-05
1.74486e-05
5.81556e-05
4.25779e-05
4.8657e-05
5.20984e-05
5.85131e-05
4.21553e-05
4.79688e-05
4.69832e-05
1.70166e-05
1.70069e-05
4.70501e-05
5.78548e-05
5.13117e-05
4.78014e-05
4.12804e-05
4.77116e-05
4.19382e-05
5.79234e-05
4.72864e-05
1.73187e-05
1.75027e-05
4.72627e-05
5.82499e-05
5.16067e-05
4.24713e-05
4.78851e-05
4.25282e-05
4.87616e-05
5.8163e-05
4.77418e-05
1.72726e-05
4.80268e-05
1.72484e-05
5.84529e-05
4.20866e-05
4.80012e-05
5.11865e-05
5.76514e-05
4.21374e-05
4.76577e-05
4.75206e-05
1.7116e-05
4.80202e-05
1.70647e-05
5.69671e-05
5.15656e-05
4.84626e-05
4.21539e-05
4.8397e-05
4.22391e-05
5.79844e-05
4.80984e-05
1.72232e-05
1.73096e-05
4.80404e-05
5.82517e-05
5.17034e-05
4.2106e-05
4.67707e-05
4.19282e-05
4.78716e-05
5.83686e-05
4.80019e-05
1.70359e-05
1.69935e-05
4.7565e-05
2.81686e-05
2.85389e-05
5.27533e-05
2.80783e-05
2.87057e-05
1.09869e-05
1.09695e-05
1.09262e-05
1.1025e-05
5.25188e-05
2.8299e-05
2.864e-05
2.80369e-05
2.87627e-05
1.09939e-05
1.10413e-05
5.68842e-05
4.09717e-05
4.73281e-05
5.10239e-05
5.69427e-05
4.10329e-05
4.778e-05
4.80639e-05
1.74122e-05
4.74205e-05
1.74158e-05
4.75235e-05
1.71198e-05
4.71554e-05
1.69904e-05
5.77797e-05
5.16268e-05
4.08255e-05
4.85948e-05
4.10819e-05
4.87082e-05
5.76491e-05
5.72102e-05
5.10798e-05
4.07288e-05
4.73814e-05
4.10355e-05
4.75459e-05
5.66669e-05
4.80161e-05
1.73522e-05
1.74014e-05
4.72353e-05
4.74352e-05
1.71072e-05
1.71232e-05
4.79296e-05
1.0786e-05
1.06763e-05
1.07486e-05
1.07556e-05
5.18129e-05
2.74408e-05
2.79417e-05
2.77445e-05
2.7809e-05
1.07395e-05
1.07463e-05
1.07973e-05
1.07496e-05
1.08209e-05
1.08435e-05
1.0806e-05
1.08196e-05
2.82367e-05
2.77688e-05
5.21492e-05
2.79109e-05
2.79671e-05
1.08463e-05
1.0814e-05
1.08209e-05
1.07705e-05
5.2216e-05
2.81995e-05
2.80092e-05
2.78522e-05
2.77455e-05
4.82846e-05
1.72386e-05
4.83953e-05
1.71506e-05
5.7714e-05
4.8075e-05
4.0651e-05
5.08149e-05
5.79122e-05
4.81312e-05
4.07976e-05
5.7568e-05
4.82489e-05
4.01746e-05
5.12621e-05
5.67734e-05
4.86269e-05
4.07464e-05
4.80085e-05
1.70434e-05
1.70324e-05
4.81755e-05
4.82732e-05
1.71206e-05
1.70631e-05
4.82184e-05
5.77673e-05
5.09856e-05
4.756e-05
4.09648e-05
4.77326e-05
4.08787e-05
5.7608e-05
5.69039e-05
5.09443e-05
4.85738e-05
4.07003e-05
4.85554e-05
4.05123e-05
5.76231e-05
2.79705e-05
2.79973e-05
5.24297e-05
2.81448e-05
2.81012e-05
1.0876e-05
1.08969e-05
1.0914e-05
1.08554e-05
5.2553e-05
2.83686e-05
2.81828e-05
2.83083e-05
2.81763e-05
1.09193e-05
1.09045e-05
5.80902e-05
4.81767e-05
4.1854e-05
5.16374e-05
5.80667e-05
4.82372e-05
4.14055e-05
4.63206e-05
1.73537e-05
4.68118e-05
1.72869e-05
5.80061e-05
4.24894e-05
4.8468e-05
5.21353e-05
5.81005e-05
4.18802e-05
4.78883e-05
4.7055e-05
1.69786e-05
1.70242e-05
4.67844e-05
5.69542e-05
5.15209e-05
4.76674e-05
4.22282e-05
4.77265e-05
4.21213e-05
5.75514e-05
4.70547e-05
1.73864e-05
1.73719e-05
4.68797e-05
5.78963e-05
5.23343e-05
4.25384e-05
4.8137e-05
4.23432e-05
4.85975e-05
5.79552e-05
4.7891e-05
1.72587e-05
4.79596e-05
1.7225e-05
5.84076e-05
4.22119e-05
4.75109e-05
5.10982e-05
5.84488e-05
4.22028e-05
4.70184e-05
4.66301e-05
1.69592e-05
4.77756e-05
1.701e-05
5.86029e-05
5.1881e-05
4.84351e-05
4.22573e-05
4.81242e-05
4.23747e-05
5.75389e-05
4.76679e-05
1.71767e-05
1.71679e-05
4.72383e-05
5.80746e-05
5.16398e-05
4.22174e-05
4.76163e-05
4.22411e-05
4.77815e-05
5.83258e-05
4.73145e-05
1.69773e-05
1.70367e-05
4.74304e-05
2.8067e-05
2.86724e-05
5.24751e-05
2.82719e-05
2.85478e-05
1.1019e-05
1.09922e-05
1.09704e-05
1.0946e-05
5.1844e-05
2.79419e-05
2.85202e-05
2.82137e-05
2.83691e-05
1.09829e-05
1.09643e-05
5.69966e-05
4.12775e-05
4.79585e-05
5.10891e-05
5.75412e-05
4.11919e-05
4.76227e-05
4.74491e-05
1.73467e-05
4.76603e-05
1.72979e-05
4.72882e-05
1.70796e-05
4.79337e-05
1.70559e-05
5.75558e-05
5.14629e-05
4.10982e-05
4.86072e-05
4.09589e-05
4.81906e-05
5.70842e-05
5.71757e-05
5.0969e-05
4.1196e-05
4.78403e-05
4.12939e-05
4.78634e-05
5.73749e-05
4.80855e-05
1.73066e-05
1.72344e-05
4.70359e-05
4.76809e-05
1.68942e-05
1.70375e-05
4.77565e-05
1.07301e-05
1.0703e-05
1.07182e-05
1.06954e-05
5.23177e-05
2.76461e-05
2.78115e-05
2.7361e-05
2.78319e-05
1.073e-05
1.07008e-05
1.07338e-05
1.06571e-05
1.08397e-05
1.08205e-05
1.07985e-05
1.06851e-05
2.82485e-05
2.7958e-05
5.23889e-05
2.81962e-05
2.77118e-05
1.08084e-05
1.07738e-05
1.07266e-05
1.07089e-05
5.23474e-05
2.80971e-05
2.74952e-05
2.81999e-05
2.77577e-05
4.75427e-05
1.73349e-05
4.79365e-05
1.73063e-05
5.7781e-05
4.79585e-05
4.09806e-05
5.11729e-05
5.76248e-05
4.82729e-05
4.09969e-05
5.68626e-05
4.80204e-05
4.09288e-05
5.14915e-05
5.70519e-05
4.83286e-05
4.06363e-05
4.82298e-05
1.70588e-05
1.70785e-05
4.80585e-05
4.79705e-05
1.73229e-05
1.73776e-05
4.7883e-05
5.75805e-05
5.09854e-05
4.82153e-05
4.06538e-05
4.84005e-05
4.02871e-05
5.76839e-05
5.73379e-05
5.15299e-05
4.85064e-05
4.0872e-05
4.8638e-05
4.08227e-05
5.75284e-05
2.81566e-05
2.83398e-05
5.26456e-05
2.83504e-05
2.82882e-05
1.09504e-05
1.09552e-05
1.08652e-05
1.09128e-05
5.27344e-05
2.80726e-05
2.81735e-05
2.80406e-05
2.84322e-05
1.09393e-05
1.09962e-05
5.72203e-05
4.72422e-05
4.23097e-05
5.18343e-05
5.76154e-05
4.74384e-05
4.19462e-05
4.63399e-05
1.74566e-05
4.6734e-05
1.73856e-05
5.79465e-05
4.25335e-05
4.87043e-05
5.16649e-05
5.77405e-05
4.20474e-05
4.82794e-05
4.70242e-05
1.69939e-05
1.70201e-05
4.70806e-05
5.73035e-05
5.18595e-05
4.79224e-05
4.19357e-05
4.77373e-05
4.14057e-05
5.72465e-05
4.67762e-05
1.72112e-05
1.7527e-05
4.67876e-05
5.80548e-05
5.25608e-05
4.25732e-05
4.85593e-05
4.26234e-05
4.90886e-05
5.78515e-05
4.70893e-05
1.72481e-05
4.81264e-05
1.72841e-05
5.834e-05
4.22641e-05
4.79172e-05
5.18937e-05
5.82251e-05
4.19048e-05
4.78568e-05
4.74444e-05
1.70681e-05
4.69786e-05
1.68296e-05
5.78157e-05
5.1528e-05
4.82457e-05
4.2307e-05
4.85126e-05
4.21162e-05
5.79688e-05
4.76326e-05
1.72875e-05
1.73428e-05
4.71512e-05
5.84159e-05
5.20916e-05
4.2294e-05
4.76504e-05
4.16457e-05
4.77916e-05
5.77855e-05
4.70361e-05
1.69184e-05
1.70702e-05
4.75429e-05
2.83078e-05
2.84667e-05
5.27521e-05
2.83252e-05
2.81233e-05
1.09962e-05
1.09521e-05
1.10011e-05
1.1026e-05
5.29177e-05
2.83582e-05
2.85001e-05
2.80654e-05
2.85767e-05
1.09697e-05
1.09504e-05
5.68961e-05
4.07935e-05
4.72881e-05
5.08039e-05
5.75236e-05
4.13291e-05
4.80659e-05
4.71707e-05
1.72838e-05
4.77543e-05
1.71955e-05
4.79229e-05
1.70456e-05
4.79533e-05
1.69321e-05
5.69315e-05
5.14417e-05
4.12412e-05
4.7678e-05
4.10351e-05
4.84903e-05
5.70999e-05
5.61994e-05
5.09619e-05
4.13784e-05
4.68697e-05
4.13605e-05
4.75821e-05
5.71759e-05
4.80102e-05
1.70542e-05
1.72032e-05
4.78186e-05
4.79396e-05
1.68518e-05
1.69002e-05
4.69343e-05
1.06797e-05
1.07281e-05
1.06655e-05
1.06992e-05
5.24789e-05
2.76501e-05
2.76971e-05
2.78047e-05
2.75456e-05
1.07073e-05
1.07574e-05
1.07149e-05
1.06788e-05
1.0732e-05
1.07354e-05
1.07256e-05
1.06975e-05
2.7918e-05
2.80033e-05
5.19166e-05
2.79533e-05
2.78459e-05
1.08192e-05
1.06964e-05
1.06499e-05
1.07931e-05
5.12149e-05
2.80698e-05
2.76783e-05
2.81235e-05
2.78442e-05
4.74173e-05
1.72126e-05
4.80369e-05
1.7305e-05
5.76232e-05
4.83375e-05
4.07709e-05
5.12073e-05
5.66486e-05
4.82087e-05
4.08516e-05
5.74939e-05
4.80427e-05
4.03248e-05
5.04502e-05
5.73909e-05
4.84842e-05
4.07918e-05
4.80028e-05
1.704e-05
1.70299e-05
4.76199e-05
4.80371e-05
1.70545e-05
1.71676e-05
4.748e-05
5.78086e-05
5.11628e-05
4.80454e-05
4.09215e-05
4.80826e-05
4.09034e-05
5.6936e-05
5.68566e-05
5.13487e-05
4.8205e-05
4.11276e-05
4.83872e-05
4.09985e-05
5.76988e-05
2.81805e-05
2.80098e-05
5.19788e-05
2.81266e-05
2.82213e-05
1.09318e-05
1.09245e-05
1.08494e-05
1.08303e-05
5.20751e-05
2.8135e-05
2.77916e-05
2.78593e-05
2.79883e-05
1.08646e-05
1.09434e-05
5.72323e-05
4.81569e-05
4.21363e-05
5.12751e-05
5.8102e-05
4.79155e-05
4.17585e-05
4.74401e-05
1.73892e-05
4.72904e-05
1.72652e-05
5.78745e-05
4.20211e-05
4.81276e-05
5.16718e-05
5.77966e-05
4.25834e-05
4.85929e-05
4.6066e-05
1.68746e-05
1.70182e-05
4.68251e-05
5.7137e-05
5.1698e-05
4.79118e-05
4.23805e-05
4.8157e-05
4.2333e-05
5.78526e-05
4.76393e-05
1.73241e-05
1.7356e-05
4.71271e-05
5.79069e-05
5.18233e-05
4.20838e-05
4.83838e-05
4.25539e-05
4.81021e-05
5.78746e-05
4.75464e-05
1.71486e-05
4.76864e-05
1.72959e-05
5.6984e-05
4.22155e-05
4.73566e-05
5.10348e-05
5.77611e-05
4.17692e-05
4.69195e-05
4.70888e-05
1.70098e-05
4.7747e-05
1.69349e-05
5.81076e-05
5.21438e-05
4.86324e-05
4.18403e-05
4.79227e-05
4.18144e-05
5.83226e-05
4.71583e-05
1.728e-05
1.73656e-05
4.70595e-05
5.80879e-05
5.19579e-05
4.22442e-05
4.75082e-05
4.23624e-05
4.7452e-05
5.81896e-05
4.75503e-05
1.66431e-05
1.69518e-05
4.73401e-05
2.85053e-05
2.85678e-05
5.25521e-05
2.82802e-05
2.80937e-05
1.09565e-05
1.09435e-05
1.09618e-05
1.10015e-05
5.25317e-05
2.82353e-05
2.83013e-05
2.84071e-05
2.84466e-05
1.08744e-05
1.08841e-05
5.67884e-05
4.08229e-05
4.74225e-05
5.09325e-05
5.73977e-05
4.12154e-05
4.76205e-05
4.7527e-05
1.72176e-05
4.77839e-05
1.71953e-05
4.70379e-05
1.70478e-05
4.73041e-05
1.68112e-05
5.66808e-05
5.14641e-05
4.13189e-05
4.84945e-05
4.13403e-05
4.83424e-05
5.64229e-05
5.6329e-05
5.09548e-05
4.12047e-05
4.73327e-05
4.12149e-05
4.77741e-05
5.67583e-05
4.69661e-05
1.7228e-05
1.71808e-05
4.7053e-05
4.71191e-05
1.69774e-05
1.70158e-05
4.68996e-05
1.07081e-05
1.06663e-05
1.06841e-05
1.06336e-05
5.17122e-05
2.75485e-05
2.7493e-05
2.73101e-05
2.7823e-05
1.064e-05
1.06054e-05
1.06593e-05
1.06908e-05
1.07406e-05
1.08208e-05
1.06828e-05
1.06197e-05
2.78865e-05
2.74917e-05
5.12549e-05
2.80212e-05
2.76399e-05
1.0806e-05
1.08144e-05
1.06889e-05
1.06764e-05
5.12781e-05
2.79967e-05
2.74869e-05
2.79746e-05
2.7651e-05
4.77363e-05
1.71715e-05
4.71238e-05
1.71094e-05
5.67791e-05
4.80585e-05
4.06244e-05
5.11594e-05
5.68534e-05
4.79988e-05
4.03928e-05
5.73725e-05
4.8135e-05
4.12093e-05
5.07049e-05
5.76973e-05
4.78878e-05
4.08324e-05
4.77119e-05
1.70657e-05
1.71181e-05
4.78426e-05
4.76731e-05
1.69551e-05
1.70182e-05
4.71978e-05
5.63838e-05
5.12592e-05
4.75851e-05
4.07737e-05
4.83145e-05
4.10142e-05
5.68439e-05
5.73731e-05
5.15676e-05
4.7476e-05
4.1176e-05
4.79256e-05
4.1052e-05
5.70353e-05
2.82391e-05
2.8224e-05
5.23702e-05
2.80437e-05
2.80575e-05
1.09736e-05
1.09359e-05
1.07966e-05
1.07406e-05
5.18582e-05
2.80109e-05
2.81104e-05
2.80483e-05
2.82952e-05
1.09298e-05
1.09839e-05
5.80936e-05
4.7748e-05
4.18117e-05
5.14176e-05
5.72096e-05
4.70904e-05
4.20308e-05
4.65536e-05
1.72048e-05
4.70183e-05
1.7336e-05
5.74048e-05
4.19686e-05
4.84338e-05
5.15961e-05
5.80314e-05
4.19777e-05
4.87836e-05
4.68877e-05
1.68208e-05
1.68179e-05
4.68312e-05
5.81903e-05
5.12979e-05
4.77059e-05
4.12979e-05
4.78922e-05
4.20704e-05
5.75081e-05
4.72705e-05
1.74276e-05
1.74173e-05
4.67003e-05
5.81881e-05
5.22685e-05
4.22781e-05
4.90887e-05
4.18884e-05
4.9104e-05
5.68572e-05
4.74858e-05
1.73675e-05
4.77707e-05
1.73155e-05
5.79192e-05
4.23214e-05
4.73187e-05
5.13309e-05
5.75616e-05
4.22842e-05
4.77933e-05
4.71501e-05
1.6894e-05
4.74961e-05
1.69223e-05
5.74412e-05
5.23229e-05
4.78847e-05
4.20257e-05
4.88621e-05
4.21325e-05
5.76162e-05
4.78196e-05
1.72947e-05
1.74584e-05
4.80178e-05
5.80773e-05
5.16161e-05
4.22498e-05
4.69738e-05
4.22941e-05
4.78701e-05
5.82805e-05
4.68754e-05
1.68483e-05
1.69938e-05
4.64079e-05
2.8252e-05
2.82843e-05
5.27771e-05
2.8107e-05
2.8253e-05
1.09254e-05
1.0914e-05
1.09896e-05
1.09513e-05
5.2844e-05
2.82651e-05
2.83863e-05
2.81082e-05
2.83884e-05
1.09234e-05
1.09224e-05
5.69579e-05
4.12651e-05
4.80853e-05
5.1396e-05
5.58958e-05
4.12355e-05
4.77323e-05
4.73861e-05
1.71904e-05
4.70075e-05
1.70679e-05
4.72219e-05
1.69722e-05
4.69411e-05
1.70049e-05
5.70151e-05
5.15394e-05
4.11329e-05
4.79568e-05
4.13947e-05
4.86383e-05
5.70989e-05
5.70755e-05
5.0764e-05
4.07656e-05
4.78673e-05
4.07809e-05
4.79157e-05
5.71183e-05
4.75875e-05
1.71165e-05
1.72166e-05
4.72907e-05
4.75079e-05
1.7015e-05
1.70258e-05
4.74643e-05
1.06378e-05
1.06698e-05
1.06988e-05
1.06804e-05
5.1979e-05
2.73514e-05
2.74806e-05
2.76372e-05
2.77365e-05
1.06251e-05
1.06539e-05
1.06714e-05
1.06253e-05
1.07742e-05
1.0788e-05
1.06644e-05
1.06843e-05
2.8e-05
2.76133e-05
5.19604e-05
2.79846e-05
2.74879e-05
1.08074e-05
1.0761e-05
1.07053e-05
1.06951e-05
5.20844e-05
2.79313e-05