/*--------------------------------*- C++ -*----------------------------------*\
| =========                 |                                                 |
| \\      /  F ield         | OpenFOAM: The Open Source CFD Toolbox           |
|  \\    /   O peration     | Version:  2206                                  |
|   \\  /    A nd           | Website:  www.openfoam.com                      |
|    \\/     M anipulation  |                                                 |
\*---------------------------------------------------------------------------*/
FoamFile
{
    version     2.0;
    format      ascii;
    arch        "LSB;label=32;scalar=64";
    class       volScalarField;
    location    "0.1";
    object      omega;
}
// * * * * * * * * * * * * * * * * * * * * * * * * * * * * * * * * * * * * * //

dimensions      [0 0 -1 0 0 0 0];

internalField   nonuniform List<scalar> 
401248
(
20.5926
20.6662
20.6544
20.8872
20.8872
20.6553
20.6547
20.8908
20.6647
20.6664
20.6664
20.892
20.6532
188.675
46.5503
333.662
191.423
48.4052
20.592
20.5922
20.5924
43.308
20.6079
24.2056
337.304
20.6045
42.0127
23.775
84.3753
82.5609
334.908
337.346
82.72
84.5651
188.069
46.5021
42.0121
20.6032
23.7625
42.0279
20.6038
23.7787
82.5337
84.4336
336.07
43.1905
20.6072
24.1672
191.526
48.417
20.6076
43.2327
24.1708
190.829
48.4584
20.6077
43.2928
24.2067
190.881
48.4609
84.4102
82.7088
333.715
20.603
41.9617
23.7782
188.096
46.4998
188.109
46.5337
336.123
333.697
363.979
188.855
90.1744
90.2006
363.842
235.627
46.4534
206.262
53.7533
206.465
53.7616
235.334
334.131
240.111
48.4457
56.0968
211.065
368.311
191.709
93.5945
93.8305
368.082
368.291
191.678
93.7893
240.097
48.6181
56.0154
210.572
56.2721
210.974
239.651
337.605
337.833
53.7491
29.9906
84.4915
196.945
30.0356
197.335
53.5693
53.3253
29.5422
82.6687
197.424
29.5667
197.783
53.1641
134.605
349.509
348.616
349.976
349.072
134.282
335.148
337.649
337.89
53.4439
29.6127
82.7495
196.735
197.021
29.6551
53.2458
53.7669
29.8919
84.7558
199.063
199.4
29.9609
53.5366
135.094
349.861
350.75
350.101
351.022
134.75
362.844
188.377
90.0835
90.1973
362.352
234.669
46.5218
205.372
53.7163
205.688
53.7568
234.198
53.3412
29.5884
82.6816
197.242
197.686
29.6035
53.1871
53.6078
30.0143
84.5588
196.963
30.0493
197.416
53.5618
134.854
348.445
349.595
348.866
350.093
134.516
336.585
240.146
48.4436
211.061
56.1239
368.312
191.811
93.7039
93.9109
368.083
368.292
191.785
93.8635
240.137
48.6212
210.556
56.0655
210.974
56.309
239.69
367.2
191.197
93.5125
93.6589
366.618
239.042
48.5672
56.0939
209.868
56.1947
210.239
238.427
367.242
191.228
93.5751
93.7137
366.664
239.061
48.5759
209.887
56.0946
210.266
56.2002
238.436
53.7415
29.903
84.6323
198.604
199.053
29.9677
53.4914
53.6302
29.68
82.7932
196.009
29.6967
196.382
53.4816
135.2
350.528
348.051
350.871
348.682
134.914
334.183
362.942
188.407
90.1315
90.2417
362.46
234.723
46.5257
53.7164
205.524
53.7569
205.808
234.251
362.944
188.404
90.0838
90.2033
362.457
234.712
46.552
53.7227
205.523
53.7609
205.815
234.239
336.64
334.191
20.5895
20.5897
20.5845
27.7294
22.3433
22.2646
20.8893
22.3526
22.2685
27.6948
27.7356
22.282
22.318
20.8903
22.2814
22.3381
27.6825
27.783
22.2888
22.3629
20.8927
22.3716
22.2904
27.7545
27.8164
22.3428
22.302
20.8945
22.3008
22.3519
27.7862
20.5896
20.5894
20.586
20.589
20.5893
20.5845
20.5894
20.5896
20.5858
21.7984
23.8759
43.3702
29.857
23.9017
29.914
21.7863
21.191
24.2404
25.3559
21.0148
25.4025
21.0282
21.1763
21.6352
23.6151
42.0265
29.0389
23.6083
29.0435
21.635
21.0905
23.7754
20.9478
24.8134
20.9486
24.8152
21.0899
21.6326
23.616
42.0337
28.9974
29.0089
23.6206
21.6326
21.0855
23.7672
24.7866
20.9466
24.7957
20.9489
21.0861
21.6399
23.6173
42.0442
29.0483
29.0524
23.6198
21.6416
21.0906
23.7805
24.8176
20.9503
24.8192
20.9508
21.0907
21.7879
23.8231
43.3215
29.768
29.8579
23.859
21.7685
21.1865
24.2181
25.3016
21.0151
25.3634
21.0268
21.1746
21.793
23.8338
43.3486
29.7947
29.8811
23.8699
21.773
21.1892
24.2217
21.0161
25.3135
21.0279
25.3742
21.1767
21.8009
23.8736
43.358
29.8574
23.898
29.9136
21.7892
21.1915
24.2425
21.0153
25.3574
21.0287
25.4039
21.1765
21.6353
23.5917
41.9757
29.0327
23.5939
29.0354
21.6401
21.0908
23.7785
20.9476
24.8159
20.9482
24.8171
21.0913
744.74
1631.95
4420.69
16447.2
116782
732.243
1630.07
4418.87
16452.1
116912
744.437
1632.03
4420.91
16449.1
116803
732.432
1629.82
4418.4
16449.8
116892
732.618
1629.74
4418.24
16448.2
116862
732.455
1629.88
4418.71
16452.1
116912
744.502
1632.19
4420.93
16449.1
116803
732.009
1629.92
4418.21
16448.4
116872
744.46
1632.01
4420.89
16449.3
116814
744.18
1632.14
4420.51
16446.4
116781
744.142
1632.17
4420.6
16446.2
116773
732.193
1629.94
4418.32
16449.2
116881
744.473
1632.13
4420.76
16448
116795
744.474
1632.12
4420.73
16448.2
116803
732.009
1630.01
4418.48
16449.8
116892
732.22
1630.02
4418.77
16451.6
116912
730.707
1628.36
4415.7
16441.3
116835
744.552
1631.8
4420.46
16447
116782
732.349
1629.8
4418.63
16451.9
116912
737.791
1630.58
4417.12
16437.8
116752
738.344
1629.37
4414.9
16432.6
116727
730.505
1628.37
4415.77
16442
116840
744.233
1631.86
4420.68
16448.9
116803
744.597
1632.1
4420.91
16449.1
116803
732.483
1629.75
4418.24
16449.6
116892
732.786
1629.93
4418.4
16449.8
116892
743.077
1632.13
4420.41
16447.5
116795
743.127
1631.84
4420.17
16447.4
116795
743.197
1632.1
4420.43
16447.5
116795
743.251
1631.81
4420.19
16447.4
116795
731.151
1631.31
4420.76
16455.4
116918
731.183
1631.32
4420.69
16455.7
116921
731.274
1631.03
4420.51
16455.3
116918
731.309
1631.04
4420.44
16455.5
116921
732.674
1629.68
4418.09
16448.1
116862
732.506
1629.81
4418.56
16451.9
116912
732.813
1629.98
4418.71
16452.1
116912
744.488
1631.83
4420.62
16448.9
116803
743.089
1632.12
4420.31
16446.6
116789
743.126
1631.84
4420.08
16446.5
116789
731.198
1631.32
4420.64
16455.5
116919
731.306
1631.05
4420.41
16455.4
116919
732.104
1629.64
4417.97
16448.3
116872
737.784
1630.57
4417.1
16437.1
116748
738.338
1629.36
4414.84
16432.4
116725
730.496
1628.36
4415.8
16442.1
116852
744.257
1631.85
4420.66
16449.1
116814
744.622
1632.08
4420.88
16449.3
116814
744.151
1631.77
4420.19
16446.2
116781
730.033
1628.31
4415.66
16440.9
116831
744.12
1631.81
4420.28
16446
116773
743.189
1632.05
4420.1
16444.9
116759
743.246
1631.76
4419.86
16444.7
116759
731.064
1631.31
4420.79
16455.2
116904
732.308
1629.67
4418.08
16449.1
116881
730.309
1628.36
4415.71
16441.3
116836
744.466
1631.77
4420.44
16447.8
116795
730.306
1628.32
4415.57
16441.1
116840
744.462
1631.77
4420.42
16448
116803
732.12
1629.73
4418.24
16449.7
116892
732.343
1629.75
4418.53
16451.5
116912
730.258
1628.3
4415.59
16441.8
116838
730.053
1628.31
4415.6
16441.2
116840
738.031
1630.43
4417.14
16438.1
116768
738.621
1629.3
4415.05
16433.6
116747
738.572
1629.25
4414.93
16433.5
116747
738.044
1630.55
4417.27
16438.3
116768
730.728
1628.53
4415.9
16441.5
116835
743.172
1632.05
4420.2
16445.8
116776
743.236
1631.77
4419.96
16445.6
116776
731.197
1631.25
4420.32
16453
116887
731.291
1630.98
4420.08
16452.9
116887
730.545
1628.55
4415.98
16442.2
116840
737.565
1630.44
4416.99
16437.7
116752
738.186
1629.34
4414.9
16432.6
116727
738.111
1629.28
4414.77
16432.5
116727
737.61
1630.58
4417.13
16437.8
116752
730.698
1628.63
4415.98
16442.2
116840
743.334
1631.89
4420.13
16445.9
116778
743.255
1631.81
4419.98
16445.7
116778
731.585
1631.19
4420.81
16456.1
116918
731.663
1631.13
4420.66
16455.9
116918
743.512
1631.86
4420.15
16446
116776
743.421
1631.77
4420
16445.8
116776
731.716
1631.18
4420.74
16456.2
116933
731.76
1631.12
4420.59
16456
116933
743.402
1631.96
4420.31
16447.2
116795
743.313
1631.87
4420.16
16447
116795
731.64
1631.16
4420.56
16455.1
116921
731.688
1631.1
4420.41
16454.9
116921
737.618
1630.37
4416.89
16437.6
116751
738.191
1629.45
4414.9
16432.6
116727
738.294
1629.22
4414.7
16432.5
116727
737.563
1630.69
4417.11
16437.7
116751
730.229
1628.68
4415.87
16442
116838
737.56
1630.43
4416.96
16437
116748
738.176
1629.32
4414.84
16432.4
116725
738.107
1629.27
4414.72
16432.3
116725
737.609
1630.57
4417.1
16437.2
116748
730.533
1628.55
4416
16442.3
116852
730.692
1628.63
4416.01
16442.3
116852
730.04
1628.7
4415.89
16441.4
116840
737.181
1630.51
4417.29
16439
116774
737.782
1629.58
4415.22
16433
116749
737.864
1629.33
4415.01
16432.9
116749
737.151
1630.84
4417.52
16439.1
116774
737.176
1630.5
4417.32
16439.1
116769
737.796
1629.56
4415.23
16433.7
116747
737.881
1629.32
4415.02
16433.6
116747
737.145
1630.82
4417.54
16439.2
116769
730.002
1628.7
4415.95
16441.1
116831
731.214
1631.06
4420.56
16455
116904
730.275
1628.74
4416
16441.5
116836
737.633
1630.41
4417.11
16437.7
116759
738.221
1629.45
4415
16432.4
116725
738.314
1629.22
4414.86
16432.9
116736
737.578
1630.72
4417.28
16437.2
116748
730.272
1628.71
4415.86
16441.3
116840
737.632
1630.39
4416.93
16437.7
116752
738.222
1629.46
4414.9
16432.6
116727
738.317
1629.22
4414.7
16432.5
116727
737.577
1630.71
4417.15
16437.8
116752
20.893
20.6548
20.6689
20.6706
20.8966
20.658
20.8893
20.8753
20.5932
20.593
335.653
335.678
83.4502
84.7232
189.91
42.395
190.62
48.6224
43.4682
20.6088
24.3049
190.518
48.6099
20.6093
43.5013
24.3024
335.808
84.7185
82.8043
334.291
42.1665
188.475
335.552
336.171
336.335
338.078
83.1804
84.5106
20.888
83.3879
84.9842
336.661
336.027
339.146
337.985
20.8822
84.0465
85.7802
83.2424
84.7893
335.16
338.732
53.269
29.7687
83.3292
196.599
196.064
29.7195
53.3301
53.6182
30.0618
84.508
198.902
198.328
30.001
53.7035
134.396
349.322
350.264
348.755
349.665
134.64
189.755
92.1713
92.4133
364.526
369.651
193.531
93.3245
95.1414
366.569
241.707
49.4013
56.1972
209.847
57.1915
212.775
238.666
369.531
193.4
93.3128
95.1311
366.502
241.795
49.3861
209.824
56.2058
212.754
57.2043
238.721
338.905
53.7301
30.0754
84.4961
198.993
30.0125
198.441
53.8042
53.3379
29.7336
82.6448
196.504
195.975
29.693
53.395
134.634
350.195
349.281
349.578
348.689
134.808
333.668
188.045
90.2412
90.0698
362.876
335.703
335.913
337.14
337.886
135.15
350.756
351.692
350.63
351.554
135.303
53.4809
29.677
196.424
83.1977
53.2793
196.746
29.7142
53.8199
29.9378
198.711
84.7332
53.598
199.089
29.9911
135.155
349.594
350.536
134.764
350.247
351.217
53.2895
197.481
83.198
29.7549
197.038
53.4845
29.6789
53.5975
199.808
84.7562
30.0028
199.348
53.8044
29.9054
336.547
336.227
338.958
338.537
135.981
350.653
351.595
135.366
350.836
351.794
53.856
29.892
83.7885
198.957
198.752
29.7932
53.9321
54.1034
30.1418
85.3249
201.278
201.015
29.9977
54.2881
53.7522
197.544
29.6888
83.5276
53.4489
198.285
29.7965
54.0533
199.82
29.9086
85.1328
53.7375
200.544
30.0288
135.792
351.434
352.376
351.243
352.16
136.224
27.7181
20.892
22.3096
22.3597
22.3009
22.3465
27.7461
27.7779
20.8953
22.3702
22.3099
22.3578
22.3008
27.7993
27.7623
22.285
22.3288
20.8907
27.7014
22.2984
22.3447
27.8054
20.876
22.3232
22.3631
22.2993
22.3307
27.8656
20.5895
20.5899
21.6962
23.6841
42.3447
29.2473
23.6817
29.2242
21.6781
21.8129
23.9177
43.3565
29.963
23.8964
29.909
21.8153
21.1972
24.2659
25.4579
21.0428
25.418
21.03
21.2058
21.8149
23.9294
43.3845
29.969
29.9147
23.908
21.818
21.1971
24.2639
21.043
25.4593
21.0301
25.4195
21.2062
21.6549
23.6596
42.0995
29.083
23.6558
29.0663
21.6467
27.6888
20.8849
22.3031
22.3461
27.7542
22.2868
22.3222
27.7992
20.8823
22.2827
22.3205
27.7329
22.3061
22.347
20.5927
20.6581
20.6564
20.8945
20.562
20.637
20.6277
20.8732
20.5574
20.6366
20.6243
20.8716
20.5578
20.6367
20.6246
20.8719
20.5578
20.6367
20.6246
20.8717
20.5577
20.6367
20.6245
20.8718
20.5578
20.6366
20.6245
20.8717
20.5577
20.6369
20.6246
20.8719
20.5578
20.6366
20.6245
20.8718
20.5578
20.6369
20.6245
20.8718
20.5577
20.6365
20.6245
20.8717
20.5578
20.6369
20.6245
20.872
20.5578
20.6366
20.6245
20.8717
20.5577
20.6367
20.6245
20.8718
20.5577
20.6366
20.6246
20.8717
20.5578
20.6368
20.6246
20.8718
20.5578
20.6366
20.6246
20.8717
20.6544
20.6565
20.6374
20.6315
20.8901
20.8798
20.6672
20.6688
20.6455
20.6475
20.6678
20.6383
20.6432
20.8918
20.8749
20.6553
20.6355
20.6372
20.878
20.8744
20.8746
20.6312
20.6287
20.6255
20.6252
20.879
20.875
20.6403
20.6417
20.6357
20.637
20.6407
20.6369
20.6377
20.874
20.8745
20.6299
20.6243
20.6235
20.8749
20.8743
20.8748
20.6273
20.6266
20.6261
20.6259
20.8748
20.8788
20.6375
20.6388
20.6361
20.6373
20.6393
20.6367
20.6379
20.8741
20.8744
20.6252
20.625
20.6238
20.8751
20.8745
20.8748
20.6275
20.6273
20.6261
20.6255
20.8781
20.8751
20.6375
20.6387
20.6362
20.6374
20.6392
20.637
20.6379
20.874
20.8745
20.6252
20.625
20.6238
20.875
20.8745
20.8748
20.6275
20.6268
20.6261
20.6258
20.8749
20.8788
20.6376
20.6388
20.6361
20.6374
20.6392
20.6367
20.6379
20.8741
20.8744
20.6252
20.6248
20.6238
20.8751
20.8745
20.8748
20.6275
20.6272
20.6261
20.6255
20.8781
20.875
20.6375
20.6387
20.6362
20.6374
20.6392
20.6369
20.6379
20.874
20.8744
20.6252
20.6248
20.6238
20.875
20.8744
20.8748
20.6275
20.6268
20.6261
20.6259
20.8747
20.8789
20.6375
20.6387
20.6362
20.6374
20.6393
20.6369
20.638
20.8741
20.8745
20.6252
20.6251
20.6239
20.8751
20.8745
20.8748
20.6275
20.6273
20.6261
20.6255
20.8781
20.875
20.6376
20.6388
20.6362
20.6374
20.6393
20.6367
20.6379
20.8741
20.8745
20.6253
20.6249
20.6239
20.8751
20.8745
20.8748
20.6275
20.6268
20.6261
20.6259
20.8748
20.8789
20.6376
20.6388
20.6362
20.6374
20.6393
20.637
20.6379
20.8741
20.8745
20.6253
20.6248
20.6238
20.8751
20.8745
20.8748
20.6275
20.6272
20.6262
20.6255
20.8782
20.8751
20.6375
20.6387
20.6362
20.6374
20.6393
20.6367
20.6379
20.874
20.8745
20.6252
20.6249
20.6238
20.8749
20.8745
20.8748
20.6275
20.6268
20.6262
20.6259
20.8751
20.8789
20.6376
20.6387
20.6362
20.6374
20.6393
20.637
20.6379
20.8741
20.8744
20.6252
20.6248
20.6238
20.8752
20.8745
20.8747
20.6276
20.6273
20.6261
20.6255
20.8781
20.8752
20.6375
20.6387
20.6362
20.6374
20.6393
20.6368
20.6379
20.874
20.8745
20.6252
20.6249
20.6239
20.875
20.8744
20.8747
20.6275
20.6268
20.6261
20.6259
20.8751
20.8789
20.6375
20.6388
20.6361
20.6373
20.6392
20.6367
20.6379
20.8741
20.8744
20.6253
20.6249
20.6238
20.8751
20.8745
20.8747
20.6275
20.6272
20.6261
20.6254
20.8781
20.875
20.6375
20.6387
20.6361
20.6373
20.6393
20.6368
20.6379
20.874
20.8745
20.6252
20.625
20.6239
20.875
20.8744
20.8748
20.6275
20.6268
20.6261
20.626
20.8748
20.8789
20.6375
20.6387
20.6362
20.6374
20.6392
20.6368
20.6379
20.8741
20.8745
20.6252
20.6249
20.6238
20.8751
20.8745
20.8747
20.6275
20.6273
20.6261
20.6255
20.8781
20.875
20.6376
20.6388
20.6362
20.6374
20.6393
20.6369
20.6379
20.8741
20.8745
20.6252
20.6249
20.6239
20.8749
20.8744
20.6275
20.6268
20.8748
20.6375
20.6387
20.667
20.6392
20.6389
20.8743
20.8952
20.6252
20.6548
20.6248
20.8746
47.1823
189.739
47.2557
190.223
336.106
336.296
48.7415
190.879
48.4519
192.212
20.5933
20.5923
20.5928
20.5714
20.5733
20.5714
20.5733
24.3141
43.3671
20.5993
20.6515
43.8207
20.5926
24.2073
336.457
338.104
23.7857
20.6029
42.0314
20.6533
20.602
42.1703
23.7771
84.839
82.7892
20.8897
85.5393
83.1492
47.3406
190.889
47.333
190.685
336.875
336.66
49.3765
193.678
49.0003
193.558
20.5653
20.5643
20.5652
20.5575
20.5577
20.5577
20.5577
24.3661
44.0066
20.5744
20.6382
24.307
44.0666
20.5761
339.195
339.099
23.8835
20.5744
42.6206
20.6267
23.8728
20.5727
42.6698
85.9994
84.2083
20.8709
85.9942
84.2099
47.3235
190.995
47.3523
190.797
336.859
336.642
49.456
193.781
49.2369
193.682
20.5598
20.5599
20.5597
20.5583
20.5582
20.5582
20.5581
24.3699
44.0099
20.574
20.6379
24.3084
44.0539
20.5759
339.299
339.152
23.8933
20.5691
42.7338
20.6258
23.8938
20.5713
42.7173
86.0815
84.2399
20.8709
86.0501
84.1766
47.3226
191.058
47.3482
190.819
336.881
336.663
49.4554
193.789
49.2322
193.663
20.56
20.5599
20.5599
20.5582
20.5581
20.5582
20.5581
24.3698
44.0245
20.5741
20.6382
24.3087
44.0697
20.576
339.283
339.129
23.8898
20.5695
42.7324
20.6259
23.894
20.5712
42.7142
86.0954
84.2741
20.871
86.0474
84.1959
47.3191
191.066
47.3493
190.802
336.866
336.642
49.4557
193.791
49.2329
193.662
20.5599
20.5599
20.5598
20.5579
20.5581
20.5582
20.558
24.3698
44.0134
20.5742
20.638
24.3086
44.0564
20.576
339.296
339.151
23.8909
20.5693
42.7324
20.6259
23.8963
20.5711
42.7153
86.0895
84.2401
20.8709
86.0498
84.1792
47.3152
191.059
47.3187
190.82
336.875
336.659
49.4553
193.789
49.232
193.663
20.5599
20.5599
20.5598
20.5582
20.5581
20.5582
20.5581
24.3698
44.0245
20.5741
20.6383
24.3086
44.0697
20.5759
339.282
339.129
23.8893
20.5693
42.7318
20.6259
23.8937
20.5712
42.7139
86.0961
84.2379
20.8709
86.0422
84.1647
47.3485
191.064
47.3839
190.802
336.864
336.644
49.4556
193.791
49.2328
193.661
20.5599
20.5599
20.5598
20.558
20.5582
20.5582
20.5581
24.3698
44.0136
20.5741
20.6379
24.3085
44.0565
20.5759
339.296
339.151
23.8897
20.5693
42.7309
20.6259
23.8939
20.5712
42.713
86.0897
84.2395
20.8709
86.0501
84.1791
47.3224
191.058
47.3535
190.819
336.874
336.66
49.4552
193.788
49.2318
193.662
20.5599
20.5599
20.5599
20.5582
20.5581
20.5582
20.5581
24.3698
44.0245
20.5741
20.6382
24.3086
44.0698
20.5759
339.282
339.129
23.8958
20.5693
42.7327
20.626
23.8957
20.5711
42.7162
86.0959
84.275
20.871
86.0475
84.1943
47.3196
191.066
47.3486
190.802
336.866
336.642
49.4556
193.791
49.2331
193.662
20.5599
20.5599
20.5598
20.5581
20.5582
20.5582
20.5581
24.3698
44.0135
20.5741
20.6379
24.3086
44.0562
20.5759
339.297
339.151
23.8955
20.5693
42.73
20.6259
23.8967
20.5711
42.7135
86.0896
84.2398
20.8709
86.05
84.1794
47.3165
191.059
47.3213
190.829
336.874
336.659
49.4554
193.789
49.2321
193.661
20.5599
20.5599
20.5599
20.558
20.5581
20.5582
20.5581
24.3698
44.0246
20.5741
20.6382
24.3086
44.0701
20.576
339.282
339.138
23.8955
20.5693
42.7315
20.6259
23.8966
20.5711
42.7139
86.096
84.2323
20.871
86.0475
84.1531
47.3195
191.02
47.346
190.793
336.879
336.666
49.4557
193.828
49.2328
193.669
20.5599
20.5599
20.5598
20.5581
20.5582
20.5582
20.5581
24.3698
44.0136
20.5741
20.6379
24.3086
44.0565
20.5759
339.283
339.134
23.8906
20.5694
42.731
20.6259
23.8967
20.5712
42.7134
86.0891
84.2372
20.8709
86.0498
84.1835
47.3205
191.056
47.3466
190.806
336.884
336.689
49.4553
193.791
49.232
193.674
20.5599
20.5599
20.5599
20.5582
20.5581
20.5582
20.5581
24.3698
44.0245
20.5741
20.6382
24.3086
44.0701
20.5759
339.292
339.129
23.8893
20.5693
42.7315
20.6259
23.8932
20.5711
42.7153
86.0967
84.2326
20.871
86.0422
84.1527
47.3184
191.054
47.3283
190.794
336.903
336.675
49.4558
193.79
49.2328
193.663
20.5599
20.5599
20.5599
20.5581
20.5581
20.5582
20.5581
24.3698
44.0139
20.5741
20.6379
24.3086
44.0566
20.5759
339.297
339.151
23.8897
20.5693
42.7308
20.6259
23.894
20.5711
42.7156
86.0894
84.2374
20.8709
86.0499
84.1826
47.3221
191.048
47.3472
190.811
336.905
336.68
49.4553
193.79
49.2322
193.663
20.5599
20.5599
20.5599
20.558
20.5582
20.5582
20.5581
24.3698
44.0246
20.5741
20.6381
24.3087
44.0699
20.5759
339.283
339.129
23.8948
20.5693
42.731
20.6259
23.8956
20.5711
42.7151
86.0986
84.2317
20.871
86.0556
84.1532
47.3428
191.053
47.3838
190.794
336.891
336.669
49.4557
193.791
49.2329
193.662
20.5599
20.5599
20.5599
20.5582
20.5582
20.5582
20.5581
24.3698
44.0135
20.5742
20.6379
24.3085
44.0563
20.576
339.297
339.151
23.894
20.5694
42.7317
20.6259
23.8939
20.5712
42.7131
86.0915
84.2368
20.8708
86.0507
84.1826
47.319
191.048
47.3231
190.804
336.924
336.694
49.4554
193.789
49.2321
193.663
20.5599
20.5599
20.5598
20.5581
20.5581
20.5582
20.5581
24.3698
44.0246
20.5741
20.6381
24.3086
44.0699
20.5759
339.282
339.127
23.8947
20.5693
42.7327
20.6259
23.8961
20.5711
42.7147
86.1003
84.2318
20.8709
86.0557
84.1537
47.3245
191.049
47.36
190.812
336.889
336.665
49.4523
193.791
49.2339
193.661
20.5599
20.5599
20.5599
20.5928
20.5594
24.3698
44.0136
20.5741
20.638
24.3086
44.0528
20.5759
339.288
339.149
23.8952
20.5693
42.7302
20.626
23.8964
20.5711
42.7206
86.0908
84.2372
20.8709
86.0505
84.1831
47.161
190.04
190.213
47.2322
23.8673
42.2602
20.6026
20.6529
20.5997
23.8785
42.3973
23.8663
42.4665
20.6028
20.6524
42.4604
20.5995
23.8786
47.0834
190.822
47.3251
190.095
47.0656
190.839
190.109
47.2689
23.85
20.6486
42.6288
20.5771
20.5889
23.8945
42.3143
23.8493
20.6416
42.6483
20.5766
42.3849
20.5881
23.8932
83.6768
84.855
20.8846
83.8323
85.9002
338.537
338.94
336.79
336.141
20.8793
84.1838
86.275
83.7629
85.6429
339.139
338.758
24.2388
43.2607
20.608
20.6638
20.6056
24.2239
43.4679
48.7334
190.767
192.178
48.444
24.238
20.6084
43.2835
20.6654
20.6059
43.4733
24.2228
48.5296
193.622
49.051
192.08
24.169
20.6569
43.7622
20.5865
20.5995
24.2705
43.2973
48.525
193.554
192.027
49.0545
24.169
20.6587
20.5869
43.7788
20.5998
43.3019
24.273
49.1909
192.474
193.429
48.5924
24.2929
20.6068
43.4333
20.6634
20.6023
43.7444
24.2062
49.1074
192.3
193.156
48.5508
24.2615
20.6426
44.0833
20.576
43.666
20.5821
24.3658
49.0079
193.67
193.223
49.373
24.2431
20.6524
20.5801
43.9938
20.5901
43.5918
24.3583
48.9373
193.632
192.978
49.3505
84.5088
82.5909
20.8887
84.9903
82.9842
334.747
335.733
339.123
338.076
20.8824
85.7765
84.0687
84.8001
82.8709
336.708
335.721
23.7916
20.6026
42.125
20.6534
20.6015
42.1554
23.7686
46.7461
188.336
189.166
46.5333
46.7361
188.884
189.347
46.529
23.7652
20.6463
20.5846
42.5586
20.5972
42.0768
23.868
23.7696
20.6485
20.5845
42.5018
20.5969
42.0724
23.8593
46.6671
190.78
189.296
47.1963
46.6581
190.777
189.426
47.1918
338.173
338.751
335.015
335.675
20.8835
86.0465
84.1501
85.3763
83.0202
339.033
338.588
336.67
335.642
336.598
336.677
339.073
339.166
83.8968
85.6134
20.8731
84.2423
86.1645
336.753
336.693
339.292
339.128
20.8732
84.3132
86.285
84.0887
85.9609
47.3719
190.75
47.1731
190.812
23.8961
42.5888
20.5737
20.6286
23.8711
42.741
20.5724
23.9023
42.5913
20.5737
20.6276
23.8709
42.751
20.5724
47.2401
190.925
190.521
47.4003
47.2703
190.918
190.763
47.4041
23.8782
20.6256
42.7171
20.5697
42.6293
20.5699
23.9066
23.8815
20.6254
42.7417
20.5697
42.6371
20.5698
23.9125
84.0352
86.0393
20.8766
84.3193
86.2364
339.149
339.167
336.762
336.673
20.875
84.3213
86.1963
84.163
85.9939
339.211
339.111
24.3518
43.6352
20.5798
20.6384
24.2251
44.0422
20.5774
49.3517
193.324
48.8925
193.726
24.3505
20.5802
43.6434
20.6396
24.2289
20.5776
44.0738
49.153
193.766
193.352
49.4155
24.2942
20.6358
44.0667
20.5739
43.8706
20.5739
24.3652
49.1494
193.909
193.551
49.4129
24.2952
20.637
20.5742
44.1236
20.5743
43.9031
24.3729
49.4094
193.498
49.1554
193.831
24.3631
20.578
43.8167
20.6397
24.2955
20.577
44.0943
49.4041
193.431
49.1441
193.731
24.2986
20.6379
44.1248
20.5742
43.8713
20.5757
24.3687
49.1841
193.802
193.656
49.4028
24.2963
20.6378
20.5745
44.097
20.5748
43.8985
24.3661
49.1808
193.77
193.536
49.405
85.6027
83.9172
20.8731
86.1611
84.2174
336.689
336.717
339.248
338.93
20.873
86.252
84.2559
85.9556
84.0488
336.732
336.702
23.8928
20.5765
42.5008
20.6267
23.8413
20.5731
42.6601
47.338
190.818
47.1119
190.915
47.3491
190.673
47.1139
190.847
23.8731
20.6256
20.5691
42.7858
20.571
42.5699
23.9046
23.8781
20.6235
20.5691
42.6827
20.5692
42.5457
23.9009
47.2372
190.905
190.866
47.375
47.2529
190.933
190.816
47.3866
339.009
339.141
336.647
336.708
20.8712
86.188
84.2404
85.7702
84.0385
339.133
339.06
336.712
336.676
336.701
336.734
339.186
339.193
84.1555
86.0543
20.8735
84.3485
86.3133
336.78
336.683
339.256
339.173
20.8735
84.3256
86.2877
84.1871
86.0797
47.3925
190.892
47.2941
190.871
23.893
42.6342
20.5716
20.6272
23.8793
42.7703
20.5715
23.9052
42.6563
20.5715
20.6267
23.8862
42.7611
20.5715
47.2218
191.052
190.755
47.3861
47.2852
191.013
190.848
47.4045
23.8759
20.6262
42.736
20.5702
42.6564
20.5707
23.9067
23.8826
20.6263
42.7444
20.5701
42.6533
20.5706
23.9124
84.1667
85.9384
20.8744
84.3181
86.2083
339.097
339.145
336.781
336.623
20.8745
84.2503
86.3334
84.1416
85.9076
339.245
339.107
24.3677
43.8659
20.5759
20.6373
24.2985
44.0945
20.5759
49.4208
193.705
49.1889
193.848
24.3679
20.5765
43.9241
20.6385
24.3065
20.5763
44.1302
49.2097
193.783
193.483
49.4079
24.302
20.6362
44.0843
20.5743
43.9061
20.5747
24.361
49.1937
193.822
193.717
49.408
24.303
20.6375
20.5747
44.1063
20.575
43.9318
24.3688
49.4163
193.696
49.1789
193.77
24.367
20.5763
43.892
20.6391
24.2996
20.5762
44.1048
49.4165
193.652
49.1839
193.759
24.3009
20.6375
44.1314
20.5742
43.8569
20.5756
24.3686
49.188
193.806
193.611
49.404
24.2998
20.638
20.5748
44.0997
20.5752
43.9087
24.3663
49.1901
193.773
193.627
49.4066
86.017
84.0815
20.8733
86.2733
84.2487
336.683
336.723
339.239
339.032
20.8732
86.2455
84.2432
86.0481
84.0735
336.726
336.686
23.9003
20.5712
42.6199
20.6251
23.8744
20.5711
42.684
47.3786
190.854
47.268
190.891
47.3813
190.833
47.2816
190.967
23.8799
20.6256
20.57
42.7872
20.5712
42.6003
23.9056
23.884
20.6239
20.5697
42.6907
20.57
42.5668
23.9009
47.2962
191.004
190.798
47.3487
47.3035
190.964
190.796
47.3585
339.09
339.221
336.629
336.725
20.8712
86.2212
84.3113
85.8201
84.0039
339.137
339.048
336.728
336.673
336.757
336.737
339.146
339.252
84.1643
86.0599
20.8735
84.3535
86.3172
336.781
336.689
339.255
339.139
20.8735
84.322
86.2881
84.189
86.083
47.3931
190.845
47.2943
190.882
23.8931
42.6455
20.5718
20.6274
23.8794
42.7769
20.5717
23.9052
42.6552
20.5717
20.6271
23.886
42.7706
20.5716
47.2212
191.072
190.775
47.387
47.2859
191.018
190.815
47.4056
23.8762
20.6264
42.7411
20.57
42.6616
20.5705
23.907
23.8828
20.6258
42.75
20.5699
42.6582
20.5703
23.9128
84.0922
86.0729
20.8765
84.328
86.2341
339.126
339.163
336.768
336.649
20.8757
84.3399
86.2116
84.1763
85.9982
339.175
339.142
24.368
43.8771
20.576
20.6374
24.2952
44.093
20.576
49.4209
193.662
49.1857
193.787
24.3687
20.5764
43.9036
20.6386
24.3032
20.5763
44.1216
49.2093
193.785
193.451
49.4085
24.3023
20.6363
44.0842
20.5744
43.9052
20.5749
24.3611
49.1937
193.903
193.625
49.4068
24.3035
20.6376
20.5747
44.1176
20.5752
43.9297
24.3681
49.4163
193.706
49.1801
193.785
24.3669
20.5764
43.8934
20.6391
24.2995
20.5763
44.1089
49.4164
193.591
49.1851
193.846
24.3007
20.6378
44.1285
20.5743
43.8742
20.5756
24.3685
49.1878
193.799
193.614
49.4036
24.2997
20.638
20.5747
44.1031
20.575
43.9108
24.3661
49.1898
193.825
193.645
49.4062
86.0044
84.0804
20.8733
86.2712
84.2009
336.698
336.709
339.244
339.065
20.8731
86.2381
84.2341
86.0403
84.0317
336.723
336.662
23.9002
20.5713
42.6261
20.6251
23.8739
20.5712
42.6834
47.3414
190.809
47.2707
190.88
47.3818
190.839
47.2572
190.898
23.8772
20.6256
20.5695
42.7868
20.5708
42.5985
23.907
23.8835
20.6239
20.5695
42.6908
20.5699
42.5675
23.9038
47.2399
191.005
190.831
47.3823
47.2804
190.981
190.859
47.3974
339.103
339.244
336.7
336.73
20.8713
86.2048
84.2357
85.8167
84.0233
339.134
339.044
336.725
336.711
336.754
336.729
339.146
339.252
84.1567
86.0602
20.8735
84.3263
86.3159
336.778
336.71
339.256
339.139
20.8735
84.3207
86.2909
84.1615
86.0824
47.3831
190.854
47.2954
190.894
23.8943
42.648
20.5717
20.6274
23.8799
42.7705
20.5716
23.9061
42.6612
20.5716
20.6268
23.8864
42.7621
20.5715
47.2457
191.052
190.75
47.3116
47.3033
190.923
190.826
47.3608
23.8754
20.6263
42.735
20.57
42.6559
20.5705
23.9019
23.8818
20.6263
42.7398
20.5699
42.6472
20.5704
23.9074
84.1813
85.9535
20.8744
84.3213
86.2231
339.128
339.233
336.778
336.656
20.8745
84.2503
86.3354
84.1439
85.9191
339.246
339.06
24.3681
43.8774
20.576
20.6374
24.2953
44.0927
20.576
49.4209
193.694
49.1847
193.832
24.3688
20.5764
43.9167
20.6387
24.3027
20.5763
44.1288
49.2094
193.782
193.451
49.4077
24.3024
20.6363
44.0851
20.5743
43.9047
20.5749
24.3609
49.1937
193.821
193.712
49.4068
24.3036
20.6376
20.5747
44.1063
20.5751
43.9311
24.3681
49.4163
193.711
49.1797
193.78
24.3669
20.5763
43.896
20.6391
24.2993
20.5763
44.1101
49.4162
193.637
49.1847
193.843
24.3008
20.6375
44.1318
20.5742
43.8588
20.5756
24.3686
49.1879
193.808
193.616
49.4038
24.2997
20.6381
20.5747
44.0994
20.5751
43.9122
24.3661
49.1896
193.778
193.676
49.4062
85.9997
84.0611
20.8733
86.2715
84.2336
336.703
336.711
339.238
339.027
20.8731
86.2432
84.2376
86.0464
84.0617
336.73
336.692
23.8986
20.5713
42.625
20.6251
23.8772
20.5711
42.6867
47.3511
190.81
47.2811
190.883
47.3675
190.823
47.2957
190.993
23.8781
20.6255
20.5697
42.7863
20.5709
42.5988
23.9045
23.8812
20.624
20.5696
42.6912
20.5699
42.5688
23.9022
47.2754
191.002
190.833
47.3421
47.2597
190.973
190.802
47.3831
339.083
339.133
336.679
336.729
20.8712
86.2223
84.2371
85.8223
84.0062
339.134
339.133
336.728
336.676
336.751
336.738
339.146
339.249
84.1617
86.0635
20.8736
84.3538
86.3177
336.782
336.686
339.25
339.108
20.8736
84.3214
86.2874
84.1907
86.0834
47.3495
190.89
47.2601
190.888
23.8927
42.6446
20.5717
20.6274
23.8745
42.7777
20.5716
23.8984
42.6518
20.5717
20.627
23.8822
42.7714
20.5715
47.2149
191.039
190.782
47.4066
47.2445
190.928
190.826
47.3881
23.8752
20.6264
42.7418
20.57
42.6627
20.5705
23.9082
23.877
20.6259
42.7455
20.5699
42.6517
20.5703
23.9105
84.0921
86.0733
20.8764
84.3268
86.2318
339.126
339.162
336.767
336.615
20.8756
84.3394
86.2121
84.1758
85.9968
339.175
339.142
24.368
43.8777
20.576
20.6374
24.2951
44.0931
20.576
49.4208
193.661
49.1847
193.786
24.3688
20.5764
43.9035
20.6386
24.3027
20.5763
44.1216
49.2092
193.784
193.451
49.4084
24.3023
20.6363
44.0842
20.5743
43.9053
20.5749
24.3611
49.1936
193.903
193.625
49.4065
24.3036
20.6375
20.5747
44.1176
20.5751
43.9296
24.3681
49.4163
193.706
49.18
193.785
24.3669
20.5763
43.8932
20.6391
24.2993
20.5763
44.1088
49.4162
193.597
49.1847
193.842
24.3007
20.6378
44.1286
20.5742
43.8743
20.5755
24.3685
49.1878
193.799
193.614
49.4036
24.2997
20.638
20.5747
44.103
20.5751
43.9107
24.3661
49.1897
193.826
193.644
49.4061
86.0031
84.0744
20.8733
86.2697
84.1959
336.667
336.704
339.244
339.064
20.8731
86.2382
84.2296
86.0393
84.0264
336.723
336.656
23.8984
20.5713
42.6243
20.6251
23.8757
20.5711
42.6849
47.3372
190.81
47.2676
190.885
47.3658
190.852
47.2829
190.985
23.8776
20.6255
20.5697
42.7852
20.5709
42.5977
23.9046
23.8812
20.6239
20.5695
42.6881
20.5699
42.5674
23.9023
47.2666
191.003
190.832
47.3381
47.2587
190.92
190.814
47.3837
339.079
339.132
336.679
336.73
20.8712
86.2055
84.234
85.8141
83.9918
339.136
339.076
336.721
336.668
336.752
336.731
339.14
339.246
84.1563
86.0589
20.8735
84.3248
86.3147
336.779
336.68
339.25
339.133
20.8736
84.3205
86.2872
84.1627
86.0805
47.3956