/*--------------------------------*- C++ -*----------------------------------*\
| =========                 |                                                 |
| \\      /  F ield         | OpenFOAM: The Open Source CFD Toolbox           |
|  \\    /   O peration     | Version:  2206                                  |
|   \\  /    A nd           | Website:  www.openfoam.com                      |
|    \\/     M anipulation  |                                                 |
\*---------------------------------------------------------------------------*/
FoamFile
{
    version     2.0;
    format      ascii;
    arch        "LSB;label=32;scalar=64";
    class       volScalarField;
    location    "0.2";
    object      k;
}
// * * * * * * * * * * * * * * * * * * * * * * * * * * * * * * * * * * * * * //

dimensions      [0 2 -2 0 0 0 0];

internalField   nonuniform List<scalar> 
66616
(
3.3442e-05
3.45386e-05
3.45362e-05
3.55593e-05
3.18203e-05
3.28756e-05
3.28134e-05
3.43992e-05
3.02226e-05
3.11156e-05
3.10575e-05
3.28027e-05
2.86362e-05
2.90933e-05
2.90627e-05
3.03008e-05
2.68089e-05
2.66487e-05
2.6653e-05
2.70802e-05
2.58052e-05
2.54491e-05
2.54631e-05
2.53122e-05
2.57213e-05
2.56424e-05
2.56477e-05
2.5642e-05
2.57379e-05
2.57465e-05
2.57501e-05
2.58093e-05
2.5745e-05
2.57608e-05
2.57651e-05
2.58347e-05
2.5746e-05
2.57656e-05
2.57704e-05
2.58379e-05
2.5746e-05
2.57659e-05
2.57708e-05
2.58375e-05
2.57459e-05
2.57668e-05
2.5767e-05
2.58368e-05
3.57505e-05
3.44859e-05
3.4486e-05
3.57502e-05
3.449e-05
3.44852e-05
3.3815e-05
3.38145e-05
3.38143e-05
3.38145e-05
3.44899e-05
3.44858e-05
3.57497e-05
3.44894e-05
3.44904e-05
3.57503e-05
3.55574e-05
3.45624e-05
3.45434e-05
3.45437e-05
3.32132e-05
3.32118e-05
3.55584e-05
3.45615e-05
3.45386e-05
3.4545e-05
3.32685e-05
3.3272e-05
3.45453e-05
3.32695e-05
3.3273e-05
3.55573e-05
3.45632e-05
3.45368e-05
3.32096e-05
3.32084e-05
3.45628e-05
3.4395e-05
3.30907e-05
3.2818e-05
3.2817e-05
3.15297e-05
3.15297e-05
3.43945e-05
3.30905e-05
3.28751e-05
3.28792e-05
3.15836e-05
3.15892e-05
3.28799e-05
3.15835e-05
3.15883e-05
3.43946e-05
3.30917e-05
3.28121e-05
3.15212e-05
3.1521e-05
3.30905e-05
3.27928e-05
3.06868e-05
3.10649e-05
3.1065e-05
2.95941e-05
2.95941e-05
3.2792e-05
3.06836e-05
3.11142e-05
3.11204e-05
2.9625e-05
2.96318e-05
3.11193e-05
2.96242e-05
2.96298e-05
3.27938e-05
3.06886e-05
3.10562e-05
2.95862e-05
2.9587e-05
3.0689e-05
3.02888e-05
2.75158e-05
2.90699e-05
2.90696e-05
2.7273e-05
2.72728e-05
3.0285e-05
2.75133e-05
2.90937e-05
2.91005e-05
2.72727e-05
2.72786e-05
2.9099e-05
2.72719e-05
2.72775e-05
3.02898e-05
2.75191e-05
2.90639e-05
2.72677e-05
2.72695e-05
2.75205e-05
2.70641e-05
2.5347e-05
2.6657e-05
2.6657e-05
2.55358e-05
2.55358e-05
2.70614e-05
2.53446e-05
2.66475e-05
2.66541e-05
2.55146e-05
2.55238e-05
2.66531e-05
2.55148e-05
2.55224e-05
2.70671e-05
2.53511e-05
2.66533e-05
2.55315e-05
2.55342e-05
2.53519e-05
2.53064e-05
2.56012e-05
2.54665e-05
2.54668e-05
2.55831e-05
2.55837e-05
2.53043e-05
2.55982e-05
2.54486e-05
2.54573e-05
2.55771e-05
2.55806e-05
2.54558e-05
2.55766e-05
2.55789e-05
2.53106e-05
2.56041e-05
2.5466e-05
2.55835e-05
2.55854e-05
2.56066e-05
2.56418e-05
2.58048e-05
2.56514e-05
2.56519e-05
2.57393e-05
2.57396e-05
2.56387e-05
2.57992e-05
2.56487e-05
2.56503e-05
2.57404e-05
2.57395e-05
2.56488e-05
2.57379e-05
2.57384e-05
2.56445e-05
2.58058e-05
2.56547e-05
2.57417e-05
2.57441e-05
2.58086e-05
2.58063e-05
2.58307e-05
2.57502e-05
2.57502e-05
2.57611e-05
2.57614e-05
2.58008e-05
2.58242e-05
2.57516e-05
2.57505e-05
2.57626e-05
2.57614e-05
2.57495e-05
2.57592e-05
2.57606e-05
2.58073e-05
2.58316e-05
2.57551e-05
2.57633e-05
2.57664e-05
2.58372e-05
2.58315e-05
2.58374e-05
2.57655e-05
2.57658e-05
2.57681e-05
2.57684e-05
2.58247e-05
2.58308e-05
2.5767e-05
2.57657e-05
2.57694e-05
2.57683e-05
2.57649e-05
2.5765e-05
2.57673e-05
2.58313e-05
2.58388e-05
2.57708e-05
2.57697e-05
2.57735e-05
2.58418e-05
2.58384e-05
2.58375e-05
2.57716e-05
2.57722e-05
2.57689e-05
2.57694e-05
2.58319e-05
2.58321e-05
2.57729e-05
2.57718e-05
2.57699e-05
2.57688e-05
2.57708e-05
2.5766e-05
2.5768e-05
2.58395e-05
2.58387e-05
2.57769e-05
2.5771e-05
2.57743e-05
2.58415e-05
2.58387e-05
2.58362e-05
2.57712e-05
2.57717e-05
2.57689e-05
2.57692e-05
2.58331e-05
2.58299e-05
2.57722e-05
2.57712e-05
2.57696e-05
2.57684e-05
2.57703e-05
2.57667e-05
2.57675e-05
2.58399e-05
2.58378e-05
2.57766e-05
2.57716e-05
2.57744e-05
2.58404e-05
2.58379e-05
2.57672e-05
2.57676e-05
2.58315e-05
2.57721e-05
2.57709e-05
2.57701e-05
2.58392e-05
2.57725e-05
3.43865e-05
3.45773e-05
3.4427e-05
3.44268e-05
3.88198e-05
3.4957e-05
4.99367e-05
3.45359e-05
3.88198e-05
3.49566e-05
3.45358e-05
4.99138e-05
3.58291e-05
4.62989e-05
4.61894e-05
4.83839e-05
2.20087e-05
4.93982e-05
1.84376e-05
2.38271e-05
1.51837e-05
4.83762e-05
2.20185e-05
4.93859e-05
1.84104e-05
3.34432e-05
3.34427e-05
3.3443e-05
3.22194e-05
3.22182e-05
3.22176e-05
3.22178e-05
3.97099e-05
4.81718e-05
3.38393e-05
3.40841e-05
4.01232e-05
4.52063e-05
3.338e-05
2.38067e-05
1.51644e-05
3.97089e-05
3.38383e-05
4.81595e-05
3.4086e-05
4.01249e-05
3.33801e-05
4.52139e-05
4.11247e-05
4.11169e-05
3.50557e-05
3.80338e-05
3.8033e-05
4.21458e-05
1.3762e-05
4.46445e-05
1.37234e-05
1.09382e-05
1.11767e-05
4.19595e-05
1.34095e-05
4.46553e-05
1.34751e-05
3.18217e-05
3.18213e-05
3.18216e-05
3.0631e-05
3.063e-05
3.06297e-05
3.06298e-05
3.83945e-05
3.99185e-05
3.21398e-05
3.24634e-05
3.91347e-05
3.69956e-05
3.17402e-05
1.08082e-05
1.10305e-05
3.80129e-05
3.20913e-05
3.99622e-05
3.24005e-05
3.87815e-05
3.16897e-05
3.71328e-05
3.17691e-05
3.1963e-05
3.39581e-05
2.95192e-05
2.9774e-05
3.80407e-05
1.53622e-05
3.93336e-05
1.61797e-05
1.21994e-05
1.25354e-05
3.77627e-05
1.52292e-05
3.90863e-05
1.59683e-05
3.02234e-05
3.02232e-05
3.02233e-05
2.90448e-05
2.90429e-05
2.90427e-05
2.90428e-05
3.51072e-05
3.45639e-05
3.04894e-05
3.06307e-05
3.62653e-05
3.34961e-05
3.00552e-05
1.20746e-05
1.23694e-05
3.48753e-05
3.04434e-05
3.46884e-05
3.05782e-05
3.6057e-05
3.00153e-05
3.36615e-05
2.84279e-05
2.86412e-05
3.20036e-05
2.78833e-05
2.81223e-05
3.28572e-05
1.6698e-05
3.51717e-05
1.63509e-05
1.2493e-05
1.18364e-05
3.25296e-05
1.64776e-05
3.48801e-05
1.60756e-05
2.8638e-05
2.86379e-05
2.86382e-05
2.72583e-05
2.72578e-05
2.72578e-05
2.7258e-05
3.10827e-05
3.14971e-05
2.87409e-05
2.85243e-05
3.26827e-05
2.99479e-05
2.82602e-05
1.23289e-05
1.16843e-05
3.09871e-05
2.87242e-05
3.16525e-05
2.8502e-05
3.25735e-05
2.82523e-05
3.01248e-05
2.64049e-05
2.65987e-05
2.91926e-05
2.47288e-05
2.49591e-05
2.72466e-05
1.53836e-05
2.88133e-05
1.5669e-05
1.08149e-05
1.09613e-05
2.69022e-05
1.5096e-05
2.84705e-05
1.53334e-05
2.6809e-05
2.68091e-05
2.68094e-05
2.59316e-05
2.59314e-05
2.59319e-05
2.59319e-05
2.67895e-05
2.69164e-05
2.66943e-05
2.61138e-05
2.81317e-05
2.5733e-05
2.62487e-05
1.0683e-05
1.08073e-05
2.68167e-05
2.67195e-05
2.70842e-05
2.61261e-05
2.8151e-05
2.6285e-05
2.58988e-05
2.18512e-05
2.2064e-05
2.60218e-05
2.11501e-05
2.13655e-05
2.86668e-05
1.84196e-05
2.74258e-05
1.97355e-05
1.24802e-05
1.31784e-05
2.83378e-05
1.807e-05
2.7129e-05
1.92974e-05
2.5808e-05
2.58085e-05
2.58085e-05
2.57196e-05
2.57181e-05
2.57187e-05
2.57186e-05
2.6928e-05
2.64752e-05
2.55909e-05
2.54519e-05
2.62682e-05
2.78755e-05
2.55702e-05
1.23194e-05
1.29651e-05
2.6892e-05
2.56274e-05
2.6616e-05
2.54646e-05
2.62834e-05
2.56004e-05
2.80421e-05
2.2524e-05
2.27448e-05
2.53581e-05
2.37149e-05
2.39938e-05
3.03301e-05
2.06815e-05
3.00441e-05
2.0799e-05
1.36796e-05
1.37364e-05
2.99497e-05
2.02393e-05
2.96938e-05
2.03343e-05
2.57241e-05
2.57247e-05
2.57247e-05
2.57356e-05
2.57347e-05
2.57352e-05
2.57351e-05
2.81343e-05
2.93226e-05
2.56313e-05
2.56953e-05
2.78415e-05
2.95946e-05
2.56631e-05
1.34641e-05
1.35062e-05
2.81174e-05
2.56487e-05
2.95223e-05
2.56998e-05
2.78488e-05
2.56776e-05
2.98118e-05
2.48095e-05
2.51116e-05
2.57554e-05
2.49527e-05
2.5273e-05
3.04551e-05
2.08485e-05
3.04509e-05
2.08511e-05
1.37652e-05
1.37614e-05
3.00723e-05
2.03916e-05
3.00711e-05
2.03849e-05
2.57403e-05
2.57408e-05
2.57407e-05
2.57439e-05
2.5744e-05
2.57446e-05
2.57446e-05
2.82518e-05
2.97116e-05
2.56927e-05
2.57553e-05
2.82213e-05
2.97179e-05
2.57002e-05
1.35397e-05
1.35347e-05
2.82482e-05
2.57043e-05
2.99333e-05
2.57591e-05
2.82283e-05
2.57118e-05
2.99374e-05
2.50343e-05
2.53524e-05
2.58292e-05
2.50308e-05
2.5351e-05
3.04612e-05
2.08539e-05
3.04582e-05
2.08468e-05
1.37629e-05
1.37598e-05
3.00706e-05
2.03897e-05
3.00889e-05
2.03789e-05
2.57489e-05
2.57496e-05
2.57495e-05
2.57464e-05
2.57474e-05
2.57479e-05
2.5748e-05
2.82554e-05
2.97215e-05
2.57046e-05
2.57641e-05
2.82445e-05
2.97173e-05
2.57083e-05
1.35402e-05
1.35325e-05
2.82605e-05
2.57166e-05
2.99426e-05
2.57687e-05
2.82518e-05
2.57205e-05
2.99419e-05
2.50413e-05
2.53604e-05
2.58394e-05
2.50235e-05
2.53478e-05
3.04617e-05
2.08531e-05
3.04595e-05
2.08484e-05
1.37658e-05
1.37595e-05
3.00771e-05
2.03954e-05
3.00905e-05
2.03808e-05
2.57502e-05
2.57508e-05
2.57509e-05
2.57463e-05
2.57474e-05
2.5748e-05
2.57481e-05
2.82582e-05
2.97292e-05
2.57093e-05
2.57684e-05
2.82456e-05
2.97202e-05
2.57129e-05
1.35427e-05
1.3532e-05
2.82613e-05
2.57221e-05
2.99445e-05
2.57732e-05
2.82562e-05
2.57256e-05
2.9943e-05
2.50455e-05
2.53634e-05
2.58403e-05
2.50279e-05
2.53506e-05
3.04553e-05
2.08533e-05
3.04614e-05
2.08493e-05
1.37626e-05
1.37605e-05
3.00758e-05
2.03958e-05
3.00869e-05
2.03828e-05
2.57502e-05
2.57508e-05
2.57509e-05
2.57463e-05
2.57474e-05
2.5748e-05
2.57481e-05
2.82585e-05
2.97271e-05
2.57094e-05
2.57678e-05
2.8245e-05
2.97172e-05
2.57122e-05
1.35416e-05
1.35327e-05
2.82616e-05
2.57225e-05
2.99448e-05
2.5773e-05
2.82564e-05
2.57252e-05
2.99412e-05
2.50434e-05
2.53622e-05
2.58396e-05
2.50279e-05
2.53498e-05
3.03591e-05
2.08545e-05
3.04558e-05
2.07974e-05
1.3766e-05
1.37342e-05
2.0395e-05
3.00857e-05
2.57501e-05
2.57508e-05
2.57507e-05
2.82571e-05
2.97285e-05
2.571e-05
2.57708e-05
2.82465e-05
2.97197e-05
2.5711e-05
1.35411e-05
2.83694e-05
2.57216e-05
2.99483e-05
2.8251e-05
2.57327e-05
2.50432e-05
2.536e-05
2.58383e-05
2.50349e-05
2.53235e-05
3.5829e-05
4.63863e-05
4.63256e-05
8.21486e-06
2.5844e-05
8.20844e-06
2.57981e-05
3.58974e-05
4.01612e-05
4.01528e-05
4.75785e-05
4.75211e-05
3.88206e-05
3.49562e-05
4.99925e-05
3.45367e-05
3.88189e-05
3.49562e-05
4.99687e-05
3.45361e-05
4.53806e-05
3.21569e-06
3.2585e-05
4.94337e-05
4.53771e-05
3.21498e-06
3.25652e-05
4.94172e-05
3.9534e-05
3.48696e-05
4.91067e-05
3.42593e-05
5.09584e-05
3.44239e-05
4.04075e-05
3.9532e-05
3.48696e-05
4.90952e-05
3.42588e-05
5.09329e-05
3.44233e-05
4.04043e-05
3.58293e-05
4.63125e-05
4.62337e-05
8.18626e-06
2.58243e-05
3.58976e-05
4.00792e-05
4.01058e-05
4.7572e-05
4.74339e-05
8.18582e-06
2.57167e-05
3.88194e-05
3.49571e-05
4.99806e-05
3.45368e-05
3.88202e-05
3.49555e-05
3.45364e-05
4.99504e-05
4.53821e-05
3.217e-06
3.25723e-05
4.94329e-05
3.95322e-05
3.48688e-05
4.91023e-05
3.42588e-05
5.09435e-05
3.44239e-05
4.04052e-05
4.5381e-05
3.21324e-06
3.25287e-05
4.9432e-05
3.95331e-05
3.48689e-05
3.42583e-05
4.9084e-05
3.44235e-05
5.09117e-05
4.04064e-05
3.43871e-05
3.45779e-05
3.44271e-05
3.4427e-05
3.43869e-05
3.45775e-05
3.44269e-05
3.44263e-05
3.43876e-05
3.45775e-05
3.44269e-05
3.44267e-05
3.42032e-05
3.43765e-05
3.37424e-05
3.37416e-05
3.42527e-05
3.42522e-05
3.36932e-05
3.42036e-05
3.43764e-05
3.37418e-05
3.37411e-05
3.42524e-05
3.42521e-05
3.36934e-05
3.42034e-05
3.43761e-05
3.37405e-05
3.37419e-05
3.42518e-05
3.42519e-05
3.36932e-05
3.42039e-05
3.43762e-05
3.37408e-05
3.37422e-05
3.42519e-05
3.42523e-05
3.36935e-05
3.88194e-05
3.49563e-05
3.45365e-05
4.99674e-05
3.95334e-05
3.48688e-05
4.9076e-05
3.42583e-05
5.08948e-05
3.44232e-05
4.04046e-05
4.53753e-05
3.21332e-06
3.2508e-05
4.94141e-05
3.95328e-05
3.487e-05
3.42583e-05
4.90921e-05
3.44236e-05
5.09282e-05
4.04048e-05
4.53761e-05
3.21487e-06
3.25429e-05
4.94228e-05
3.58288e-05
4.62667e-05
4.62099e-05
8.17511e-06
2.57926e-05
3.5897e-05
4.00533e-05
4.01083e-05
4.75299e-05
4.74129e-05
8.18616e-06
2.56798e-05
3.88199e-05
3.49578e-05
3.45363e-05
4.98927e-05
3.95335e-05
3.48684e-05
3.42588e-05
4.90578e-05
3.44231e-05
5.08685e-05
4.04047e-05
3.95332e-05
3.48691e-05
3.42588e-05
4.90477e-05
3.44234e-05
5.08457e-05
4.0405e-05
4.53786e-05
3.20654e-06
3.24464e-05
4.94192e-05
4.53817e-05
3.20486e-06
3.23938e-05
4.94275e-05
3.58973e-05
4.00509e-05
4.0036e-05
4.75572e-05
4.74547e-05
8.16965e-06
2.58132e-05
8.16035e-06
2.56951e-05
2.38768e-05
1.51899e-05
2.38724e-05
1.51907e-05
4.11611e-05
4.11455e-05
3.50552e-05
3.80387e-05
3.80592e-05
1.10024e-05
1.30508e-05
1.08984e-05
1.30833e-05
3.49279e-05
3.29055e-05
3.26735e-05
3.69088e-05
3.68966e-05
4.83801e-05
2.20072e-05
4.93888e-05
1.84328e-05
3.97117e-05
4.8184e-05
3.38403e-05
3.40896e-05
4.01236e-05
4.52446e-05
3.33805e-05
3.97083e-05
4.81759e-05
3.38401e-05
3.40893e-05
4.01206e-05
4.52372e-05
3.33799e-05
4.79561e-05
1.41042e-05
1.66085e-05
4.55575e-05
4.79517e-05
1.41043e-05
1.66096e-05
4.55516e-05
3.96876e-05
3.36356e-05
4.09709e-05
3.25021e-05
4.42614e-05
3.29435e-05
3.91286e-05
3.96847e-05
3.36346e-05
4.09715e-05
3.25014e-05
4.42631e-05
3.29432e-05
3.91259e-05
4.11377e-05
4.11261e-05
3.50553e-05
3.80333e-05
3.80436e-05
2.38324e-05
1.51675e-05
1.10128e-05
1.30531e-05
3.49285e-05
3.29105e-05
3.26642e-05
3.69271e-05
3.68546e-05
1.08796e-05
1.30613e-05
3.97102e-05
4.81794e-05
3.38403e-05
3.40839e-05
4.01196e-05
4.5225e-05
3.33805e-05
4.83846e-05
2.20149e-05
4.93895e-05
1.84033e-05
3.97115e-05
3.38405e-05
4.81642e-05
3.4087e-05
4.01208e-05
3.33794e-05
4.52119e-05
4.79461e-05
1.3712e-05
1.66383e-05
4.55142e-05
3.96732e-05
3.36358e-05
4.09392e-05
3.25421e-05
4.42845e-05
3.29442e-05
3.93701e-05
4.79542e-05
1.37083e-05
1.66337e-05
4.5519e-05
3.96748e-05
3.36385e-05
3.25428e-05
4.09253e-05
3.29443e-05
4.42722e-05
3.93724e-05
4.83735e-05
2.20102e-05
4.93754e-05
1.84023e-05
3.97099e-05
3.38404e-05
4.81704e-05
3.40879e-05
4.01192e-05
3.33794e-05
4.52136e-05
4.83784e-05
2.20179e-05
4.93823e-05
1.84035e-05
3.96726e-05
3.36371e-05
4.09228e-05
3.2542e-05
4.42773e-05
3.29434e-05
3.93726e-05
4.79434e-05
1.37054e-05
1.66366e-05
4.55125e-05
3.96729e-05
3.36399e-05
3.25429e-05
4.09218e-05
3.29442e-05
4.42742e-05
3.93704e-05
4.79479e-05
1.37068e-05
1.66359e-05
4.5516e-05
4.11107e-05
4.11376e-05
3.50557e-05
3.80365e-05
3.8023e-05
2.38308e-05
1.51785e-05
1.08861e-05
1.30625e-05
3.49274e-05
3.26521e-05
3.2897e-05
3.68774e-05
3.68939e-05
1.09998e-05
1.30452e-05
3.9709e-05
3.38392e-05
4.81361e-05
3.40862e-05
4.01211e-05
3.33801e-05
4.52195e-05
4.83811e-05
2.19952e-05
4.93901e-05
1.84264e-05
4.83874e-05
2.1994e-05
4.9398e-05
1.84262e-05
3.96845e-05
3.36332e-05
3.2502e-05
4.09545e-05
3.29427e-05
4.42523e-05
3.91286e-05
3.9685e-05
3.36322e-05
3.25017e-05
4.09621e-05
3.29433e-05
4.42406e-05
3.91263e-05
4.79528e-05
1.40972e-05
1.66047e-05
4.55524e-05
4.7959e-05
1.40998e-05
1.66021e-05
4.55585e-05
2.37926e-05
1.51518e-05
2.37796e-05
1.51763e-05
3.49291e-05
3.26439e-05
3.29184e-05
3.68756e-05
3.69034e-05
1.08706e-05
1.30532e-05
1.10116e-05
1.30479e-05
1.09227e-05
1.11626e-05
1.08198e-05
1.10363e-05
3.19463e-05
3.17969e-05
3.39615e-05
2.97592e-05
2.95225e-05
1.19913e-05
1.14409e-05
1.18478e-05
1.13294e-05
3.37039e-05
2.86916e-05
2.847e-05
2.94665e-05
2.92806e-05
4.21487e-05
1.37614e-05
4.46243e-05
1.37243e-05
3.80196e-05
3.99566e-05
3.20921e-05
3.24072e-05
3.87734e-05
3.71506e-05
3.16894e-05
3.80175e-05
3.99657e-05
3.20918e-05
3.24059e-05
3.87703e-05
3.71586e-05
3.16887e-05
4.14451e-05
1.49844e-05
1.40414e-05
3.97826e-05
4.14365e-05
1.49864e-05
1.40429e-05
3.97834e-05
3.76132e-05
3.19761e-05
3.50313e-05
3.08702e-05
3.64655e-05
3.12844e-05
3.64974e-05
3.76096e-05
3.19758e-05
3.50416e-05
3.08695e-05
3.64754e-05
3.1284e-05
3.64965e-05
3.19895e-05
3.17337e-05
3.39593e-05
2.97679e-05
2.95319e-05
1.07978e-05
1.10228e-05
1.20068e-05
1.14538e-05
3.37017e-05
2.8697e-05
2.84976e-05
2.94968e-05
2.92621e-05
1.18404e-05
1.13193e-05
3.84029e-05
3.99205e-05
3.21407e-05
3.24644e-05
3.91275e-05
3.70163e-05
3.17404e-05
4.19638e-05
1.34039e-05
4.46433e-05
1.34739e-05
3.84042e-05
3.21419e-05
3.99077e-05
3.24686e-05
3.91305e-05
3.17412e-05
3.70072e-05
4.12647e-05
1.47682e-05
1.38694e-05
3.95215e-05
3.7891e-05
3.20328e-05
3.48779e-05
3.09206e-05
3.6354e-05
3.13365e-05
3.67927e-05
4.12567e-05
1.47705e-05
1.38708e-05
3.95243e-05
3.78916e-05
3.20376e-05
3.09213e-05
3.48783e-05
3.13375e-05
3.63482e-05
3.67959e-05
4.19538e-05
1.34024e-05
4.46361e-05
1.34697e-05
3.8401e-05
3.21418e-05
3.99035e-05
3.24687e-05
3.91272e-05
3.17412e-05
3.70005e-05
4.19605e-05
1.34037e-05
4.46401e-05
1.34721e-05
3.78887e-05
3.20332e-05
3.48715e-05
3.09203e-05
3.63515e-05
3.13358e-05
3.67873e-05
4.12454e-05
1.47637e-05
1.38668e-05
3.95126e-05
3.7888e-05
3.20371e-05
3.09211e-05
3.48686e-05
3.13373e-05
3.63408e-05
3.67913e-05
4.12515e-05
1.47649e-05
1.38675e-05
3.95199e-05
3.17751e-05
3.19405e-05
3.39604e-05
2.9527e-05
2.97526e-05
1.09234e-05
1.11637e-05
1.18489e-05
1.1326e-05
3.37031e-05
2.84886e-05
2.86905e-05
2.92895e-05
2.94618e-05
1.19887e-05
1.14419e-05
3.80191e-05
3.20921e-05
3.99517e-05
3.23999e-05
3.87712e-05
3.16893e-05
3.71538e-05
4.21494e-05
1.37557e-05
4.46252e-05
1.37142e-05
4.21578e-05
1.37582e-05
4.46311e-05
1.37189e-05
3.76151e-05
3.19689e-05
3.08705e-05
3.50208e-05
3.12842e-05
3.6465e-05
3.64934e-05
3.76116e-05
3.19682e-05
3.08702e-05
3.50414e-05
3.12847e-05
3.64706e-05
3.64966e-05
4.14364e-05
1.49687e-05
1.40317e-05
3.97782e-05
4.14436e-05
1.49773e-05
1.40374e-05
3.97873e-05
1.07939e-05
1.10153e-05
1.09375e-05
1.11808e-05
3.37055e-05
2.84896e-05
2.87128e-05
2.92787e-05
2.94832e-05
1.18308e-05
1.13092e-05
1.20064e-05
1.14617e-05
1.2184e-05
1.25201e-05
1.20709e-05
1.23648e-05
2.86228e-05
2.84087e-05
3.20064e-05
2.81193e-05
2.7869e-05
1.25654e-05
1.26014e-05
1.23885e-05
1.24543e-05
3.16508e-05
2.69421e-05
2.66743e-05
2.79573e-05
2.77317e-05
3.8054e-05
1.5362e-05
3.93125e-05
1.61852e-05
3.48862e-05
3.46752e-05
3.04433e-05
3.0588e-05
3.60456e-05
3.36815e-05
3.00156e-05
3.48853e-05
3.46863e-05
3.04429e-05
3.0588e-05
3.60434e-05
3.3691e-05
3.00149e-05
3.75779e-05
1.67005e-05
1.63962e-05
3.58838e-05
3.75658e-05
1.67033e-05
1.64016e-05
3.58848e-05
3.44275e-05
3.00962e-05
3.20919e-05
2.91655e-05
3.33013e-05
2.95899e-05
3.31133e-05
3.44246e-05
3.00962e-05
3.21019e-05
2.91649e-05
3.33134e-05
2.95894e-05
3.31133e-05
2.86276e-05
2.84374e-05
3.20044e-05
2.8118e-05
2.78996e-05
1.20661e-05
1.23627e-05
1.25761e-05
1.26153e-05
3.16483e-05
2.69282e-05
2.6717e-05
2.79558e-05
2.77628e-05
1.23905e-05
1.24563e-05
3.51168e-05
3.4547e-05
3.04895e-05
3.06324e-05
3.62533e-05
3.35098e-05
3.00558e-05
3.778e-05
1.52324e-05
3.90681e-05
1.59774e-05
3.51207e-05
3.04905e-05
3.45485e-05
3.06384e-05
3.62554e-05
3.00565e-05
3.35147e-05
3.73076e-05
1.64771e-05
1.62265e-05
3.55783e-05
3.45837e-05
3.01344e-05
3.19145e-05
2.91898e-05
3.31459e-05
2.96226e-05
3.32802e-05
3.72989e-05
1.64895e-05
1.62372e-05
3.55843e-05
3.45854e-05
3.01406e-05
2.91903e-05
3.19213e-05
2.96234e-05
3.31508e-05
3.32849e-05
3.77717e-05
1.52265e-05
3.90567e-05
1.59692e-05
3.51154e-05
3.04903e-05
3.45383e-05
3.06369e-05
3.62508e-05
3.00562e-05
3.35016e-05
3.77761e-05
1.52283e-05
3.90623e-05
1.5971e-05
3.45855e-05
3.0134e-05
3.19166e-05
2.91902e-05
3.31528e-05
2.96222e-05
3.32782e-05
3.72904e-05
1.64837e-05
1.62311e-05
3.55758e-05
3.45807e-05
3.01387e-05
2.919e-05
3.19102e-05
2.9623e-05
3.31385e-05
3.328e-05
3.72933e-05
1.64856e-05
1.62319e-05
3.55804e-05
2.84287e-05
2.86227e-05
3.2007e-05
2.78903e-05
2.81213e-05
1.21829e-05
1.25193e-05
1.23972e-05
1.24608e-05
3.16509e-05
2.66988e-05
2.69477e-05
2.77536e-05
2.79613e-05
1.25652e-05
1.26036e-05
3.48829e-05
3.04435e-05
3.46858e-05
3.05797e-05
3.60426e-05
3.00154e-05
3.36943e-05
3.80475e-05
1.5348e-05
3.93059e-05
1.61665e-05
3.80541e-05
1.53572e-05
3.93136e-05
1.61779e-05
3.44264e-05
3.00881e-05
2.91655e-05
3.20874e-05
2.95893e-05
3.33052e-05
3.3108e-05
3.44219e-05
3.00885e-05
2.91648e-05
3.21098e-05
2.95896e-05
3.3317e-05
3.31094e-05
3.75585e-05
1.6688e-05
1.63859e-05
3.58762e-05
3.75635e-05
1.66993e-05
1.63965e-05
3.58822e-05
1.20569e-05
1.23523e-05
1.22011e-05
1.25354e-05
3.16542e-05
2.67168e-05
2.69481e-05
2.77479e-05
2.79763e-05
1.23837e-05
1.24485e-05
1.25783e-05
1.26224e-05
1.24807e-05
1.1832e-05
1.23179e-05
1.16718e-05
2.65868e-05
2.63483e-05
2.91902e-05
2.49721e-05
2.46854e-05
1.09104e-05
1.15756e-05
1.07548e-05
1.14368e-05
2.87382e-05
2.25293e-05
2.22478e-05
2.43725e-05
2.41129e-05
3.28616e-05
1.6693e-05
3.51495e-05
1.63441e-05
3.09962e-05
3.16362e-05
2.87264e-05
2.85085e-05
3.25618e-05
3.0135e-05
2.82527e-05
3.09961e-05
3.16476e-05
2.87261e-05
2.85083e-05
3.2563e-05
3.01394e-05
2.82522e-05
3.20323e-05
1.54743e-05
1.61324e-05
2.95677e-05
3.20271e-05
1.54693e-05
1.61237e-05
2.95625e-05
3.04129e-05
2.79041e-05
2.76646e-05
2.72239e-05
2.95214e-05
2.77453e-05
2.8721e-05
3.04125e-05
2.79039e-05
2.76656e-05
2.72237e-05
2.95238e-05
2.7745e-05
2.87215e-05
2.65804e-05
2.6379e-05
2.91868e-05
2.49422e-05
2.4733e-05
1.23223e-05
1.16808e-05
1.09095e-05
1.15755e-05
2.87342e-05
2.2502e-05
2.22908e-05
2.43488e-05
2.41494e-05
1.07641e-05
1.14483e-05
3.1088e-05
3.14762e-05
2.87421e-05
2.85253e-05
3.26661e-05
2.99477e-05
2.82598e-05
3.25411e-05
1.6483e-05
3.48613e-05
1.60831e-05
3.10922e-05
2.87427e-05
3.14837e-05
2.85312e-05
3.26718e-05
2.82602e-05
2.99553e-05
3.17146e-05
1.51733e-05
1.5885e-05
2.92078e-05
3.04554e-05
2.79132e-05
2.74763e-05
2.72101e-05
2.93466e-05
2.77433e-05
2.87322e-05
3.17152e-05
1.51843e-05
1.58925e-05
2.92125e-05
3.04591e-05
2.79189e-05
2.72101e-05
2.74828e-05
2.77436e-05
2.93527e-05
2.87368e-05
3.25347e-05
1.64783e-05
3.48527e-05
1.60779e-05
3.10873e-05
2.87422e-05
3.14728e-05
2.85299e-05
3.26657e-05
2.82597e-05
2.99474e-05
3.25384e-05
1.64801e-05
3.48586e-05
1.60801e-05
3.04556e-05
2.79124e-05
2.7485e-05
2.721e-05
2.9356e-05
2.77425e-05
2.87312e-05
3.1709e-05
1.51787e-05
1.58886e-05
2.92061e-05
3.04537e-05
2.79177e-05
2.72098e-05
2.74778e-05
2.77432e-05
2.93467e-05
2.87328e-05
3.17127e-05
1.51817e-05
1.58911e-05
2.92106e-05
2.63741e-05
2.65899e-05
2.91925e-05
2.47117e-05
2.49717e-05
1.24822e-05
1.1833e-05
1.07662e-05
1.14474e-05
2.87406e-05
2.22725e-05
2.25301e-05
2.41386e-05
2.43716e-05
1.09078e-05
1.15788e-05
3.09911e-05
2.87256e-05
3.16524e-05
2.85034e-05
3.25572e-05
2.82518e-05
3.0147e-05
3.28542e-05
1.66795e-05
3.51408e-05
1.63294e-05
3.2858e-05
1.66902e-05
3.51478e-05
1.63379e-05
3.04091e-05
2.78988e-05
2.72229e-05
2.76627e-05
2.77437e-05
2.95214e-05
2.87157e-05
3.04066e-05
2.79003e-05
2.72229e-05
2.76766e-05
2.77445e-05
2.95319e-05
2.87163e-05
3.20198e-05
1.54532e-05
1.61142e-05
2.95545e-05
3.20235e-05
1.54623e-05
1.6119e-05
2.95583e-05
1.23171e-05
1.16736e-05
1.24945e-05
1.18409e-05
2.87432e-05
2.22963e-05
2.25258e-05
2.4161e-05
2.43586e-05
1.07575e-05
1.14435e-05
1.0914e-05
1.15879e-05
1.08123e-05
1.09575e-05
1.06661e-05
1.0788e-05
2.20539e-05
2.17926e-05
2.60179e-05
2.13631e-05
2.11032e-05
1.2138e-05
1.12306e-05
1.19477e-05
1.10821e-05
2.57511e-05
2.22044e-05
2.19365e-05
2.1374e-05
2.11209e-05
2.72405e-05
1.53747e-05
2.87831e-05
1.56582e-05
2.6822e-05
2.70643e-05
2.67203e-05
2.61318e-05
2.81375e-05
2.5904e-05
2.62862e-05
2.68207e-05
2.70655e-05
2.67203e-05
2.61318e-05
2.81386e-05
2.59045e-05
2.6286e-05
2.7031e-05
1.78254e-05
1.61669e-05
2.70901e-05
2.70248e-05
1.78148e-05
1.61587e-05
2.70828e-05
2.65239e-05
2.57479e-05
2.61626e-05
2.57361e-05
2.58073e-05
2.59519e-05
2.6263e-05
2.65229e-05
2.57479e-05
2.61644e-05
2.57359e-05
2.5808e-05
2.59518e-05
2.62612e-05
2.20299e-05
2.18344e-05
2.60142e-05
2.13461e-05
2.11526e-05
1.06794e-05
1.08025e-05
1.21466e-05
1.123e-05
2.57481e-05
2.22007e-05
2.198e-05
2.13574e-05
2.11711e-05
1.19527e-05
1.1096e-05
2.67912e-05
2.6887e-05
2.66939e-05
2.61144e-05
2.81135e-05
2.57216e-05
2.62487e-05
2.69095e-05
1.5104e-05
2.84473e-05
1.53495e-05
2.6794e-05
2.66939e-05
2.6894e-05
2.61221e-05
2.81184e-05
2.62484e-05
2.57358e-05
2.67006e-05
1.74388e-05
1.58677e-05
2.67676e-05
2.6481e-05
2.5726e-05
2.59909e-05
2.56918e-05
2.56307e-05
2.59077e-05
2.62382e-05
2.67089e-05
1.74424e-05
1.58856e-05
2.67764e-05
2.64845e-05
2.57348e-05
2.5692e-05
2.60114e-05
2.59076e-05
2.56468e-05
2.6242e-05
2.69036e-05
1.50989e-05
2.84405e-05
1.53422e-05
2.67908e-05
2.66936e-05
2.68881e-05
2.6121e-05
2.81133e-05
2.6248e-05
2.57276e-05
2.69063e-05
1.51027e-05
2.84459e-05
1.53438e-05
2.64791e-05
2.57255e-05
2.60068e-05
2.56916e-05
2.56439e-05
2.59065e-05
2.62386e-05
2.6703e-05
1.74354e-05
1.58761e-05
2.67714e-05
2.64811e-05
2.57337e-05
2.56917e-05
2.60014e-05
2.59072e-05
2.56386e-05
2.62399e-05
2.67062e-05
1.7433e-05
1.58776e-05
2.67735e-05
2.18193e-05
2.20524e-05
2.60198e-05
2.11371e-05
2.13676e-05
1.08125e-05
1.09557e-05
1.19589e-05
1.11014e-05
2.57538e-05
2.19705e-05
2.22193e-05
2.11558e-05
2.13797e-05
1.21426e-05
1.12299e-05
2.68173e-05
2.67192e-05
2.7074e-05
2.61283e-05
2.8133e-05
2.62848e-05
2.59148e-05
2.72324e-05
1.53596e-05
2.87754e-05
1.56391e-05
2.72342e-05
1.53682e-05
2.87799e-05
1.56471e-05
2.65172e-05
2.57423e-05
2.57339e-05
2.61586e-05
2.59491e-05
2.58028e-05
2.62549e-05
2.65186e-05
2.57453e-05
2.57345e-05
2.61772e-05
2.59507e-05
2.58194e-05
2.6256e-05
2.70153e-05
1.78004e-05
1.61413e-05
2.70712e-05
2.70175e-05
1.78068e-05
1.61498e-05
2.70723e-05
1.06741e-05
1.07958e-05
1.08199e-05
1.09625e-05
2.57555e-05
2.19841e-05
2.22247e-05
2.11677e-05
2.13776e-05
1.1951e-05
1.10878e-05
1.21529e-05
1.12371e-05
1.24823e-05
1.31696e-05
1.23178e-05
1.29629e-05
2.27327e-05
2.24931e-05
2.53513e-05
2.39616e-05
2.3686e-05
1.36078e-05
1.33543e-05
1.33975e-05
1.31666e-05
2.54025e-05
2.49223e-05
2.46308e-05
2.43335e-05
2.40733e-05
2.86594e-05
1.84217e-05
2.74148e-05
1.97248e-05
2.69013e-05
2.66207e-05
2.56298e-05
2.54669e-05
2.62894e-05
2.8038e-05
2.56006e-05
2.68984e-05
2.66243e-05
2.56295e-05
2.54673e-05
2.62873e-05
2.80448e-05
2.56001e-05
2.90636e-05
2.05732e-05
2.00703e-05
2.98745e-05
2.90485e-05
2.05585e-05
2.00586e-05
2.98605e-05
2.71291e-05
2.55014e-05
2.9322e-05
2.56207e-05
2.8468e-05
2.56028e-05
2.7736e-05
2.7125e-05
2.55021e-05
2.93311e-05
2.56202e-05
2.84758e-05
2.56023e-05
2.77319e-05
2.27235e-05
2.25373e-05
2.53498e-05
2.39612e-05
2.37076e-05
1.23223e-05
1.29584e-05
1.36165e-05
1.33609e-05
2.54005e-05
2.49296e-05
2.46408e-05
2.43323e-05
2.40945e-05
1.33862e-05
1.31617e-05
2.69261e-05
2.64648e-05
2.55912e-05
2.54508e-05
2.62646e-05
2.78748e-05
2.55685e-05
2.83458e-05
1.80825e-05
2.71345e-05
1.92864e-05
2.69289e-05
2.55915e-05
2.64836e-05
2.5459e-05
2.62684e-05
2.55687e-05
2.78812e-05
2.87451e-05
2.01116e-05
1.96595e-05
2.95144e-05
2.71109e-05
2.54901e-05
2.91466e-05
2.55979e-05
2.83102e-05
2.55733e-05
2.77631e-05
2.87477e-05
2.00879e-05
1.96459e-05
2.95165e-05
2.71125e-05
2.54965e-05
2.55977e-05
2.91373e-05
2.55735e-05
2.83123e-05
2.77635e-05
2.83455e-05
1.80746e-05
2.71311e-05
1.928e-05
2.6929e-05
2.55914e-05
2.6473e-05
2.54574e-05
2.62666e-05
2.55687e-05
2.78702e-05
2.8345e-05
1.80744e-05
2.7132e-05
1.92759e-05
2.71129e-05
2.54888e-05
2.9137e-05
2.55985e-05
2.83097e-05
2.55743e-05
2.77642e-05
2.87478e-05
2.00841e-05
1.96391e-05
2.95173e-05
2.71129e-05
2.54947e-05
2.55978e-05
2.9128e-05
2.55734e-05
2.83014e-05
2.77638e-05
2.8747e-05
2.00796e-05
1.9636e-05
2.95166e-05
2.25215e-05
2.27484e-05
2.5356e-05
2.37005e-05
2.39862e-05
1.24868e-05
1.31786e-05
1.33914e-05
1.31665e-05
2.54069e-05
2.46316e-05
2.49501e-05
2.40831e-05
2.43584e-05
1.36182e-05
1.33628e-05
2.68926e-05
2.56284e-05
2.66362e-05
2.54668e-05
2.62816e-05
2.55993e-05
2.80634e-05
2.86495e-05
1.8411e-05
2.74014e-05
1.97187e-05
2.86477e-05
1.84195e-05
2.74015e-05
1.97246e-05
2.712e-05
2.54987e-05
2.56204e-05
2.93354e-05
2.56022e-05
2.84777e-05
2.77304e-05
2.71201e-05
2.55024e-05
2.56199e-05
2.9356e-05
2.56017e-05
2.84949e-05
2.77294e-05
2.90393e-05
2.05592e-05
2.00542e-05
2.98561e-05
2.90381e-05
2.05649e-05
2.00588e-05
2.98527e-05
1.2316e-05
1.29551e-05
1.24988e-05
1.31894e-05
2.54065e-05
2.46554e-05
2.49646e-05
2.41001e-05
2.4367e-05
1.33835e-05
1.31584e-05
1.36312e-05
1.33751e-05
1.36731e-05
1.37248e-05
1.34721e-05
1.3511e-05
2.50729e-05
2.47917e-05
2.57506e-05
2.52286e-05
2.49314e-05
1.37474e-05
1.37424e-05
1.35362e-05
1.3533e-05
2.57663e-05
2.52901e-05
2.49929e-05
2.52713e-05
2.49751e-05
3.03171e-05
2.06729e-05
3.00326e-05
2.07858e-05
2.81211e-05
2.95114e-05
2.56532e-05
2.56961e-05
2.78556e-05
2.97974e-05
2.56751e-05
2.81167e-05
2.95214e-05
2.56528e-05
2.56967e-05
2.78517e-05
2.98064e-05
2.56744e-05
3.0384e-05
2.08384e-05
2.08295e-05
3.04464e-05
3.03705e-05
2.08247e-05
2.08161e-05
3.04351e-05
2.8152e-05
2.57235e-05
2.9903e-05
2.5698e-05
2.98402e-05
2.56891e-05
2.82308e-05
2.81475e-05
2.57239e-05
2.99124e-05
2.56974e-05
2.98506e-05
2.56884e-05
2.8227e-05
2.50831e-05
2.47983e-05
2.57462e-05
2.52446e-05
2.49407e-05
1.34597e-05
1.35006e-05
1.3758e-05
1.3754e-05
2.57614e-05
2.53056e-05
2.50019e-05
2.52884e-05
2.49855e-05
1.35239e-05
1.35221e-05
2.81361e-05
2.9338e-05
2.56355e-05
2.56954e-05
2.78425e-05
2.96103e-05
2.56607e-05
2.99504e-05
2.02203e-05
2.96926e-05
2.03072e-05
2.81348e-05
2.5635e-05
2.93263e-05
2.56958e-05
2.78427e-05
2.56598e-05
2.9594e-05
3.00077e-05
2.03761e-05
2.03689e-05
3.00542e-05
2.81465e-05
2.5724e-05
2.97211e-05
2.56865e-05
2.96577e-05
2.56766e-05
2.823e-05
3.00093e-05
2.03491e-05
2.03409e-05
3.00519e-05
2.81454e-05
2.57237e-05
2.56854e-05
2.97027e-05
2.56756e-05
2.96411e-05
2.82289e-05
2.99505e-05
2.02159e-05
2.96931e-05
2.03073e-05
2.81345e-05
2.5635e-05
2.93179e-05
2.56945e-05
2.78426e-05
2.566e-05
2.95852e-05
2.99501e-05
2.02149e-05
2.96928e-05
2.03043e-05
2.81445e-05
2.57195e-05
2.97018e-05
2.56871e-05
2.96396e-05
2.56748e-05
2.82288e-05
3.00093e-05
2.03487e-05
2.03413e-05
3.00596e-05
2.81446e-05
2.57224e-05
2.56855e-05
2.96918e-05
2.56756e-05
2.96361e-05
2.82288e-05
3.0009e-05
2.03471e-05
2.03384e-05
3.0059e-05
2.47907e-05
2.50996e-05
2.57523e-05
2.4929e-05
2.52602e-05
1.36839e-05
1.37373e-05
1.35272e-05
1.35269e-05
2.57678e-05
2.49891e-05
2.53267e-05
2.49725e-05
2.5304e-05
1.37607e-05
1.37552e-05
2.81164e-05
2.56529e-05
2.95448e-05
2.57002e-05
2.78498e-05
2.56751e-05
2.98338e-05
3.03159e-05
2.06722e-05
3.00292e-05
2.07868e-05
3.03118e-05
2.06819e-05
3.00258e-05