/*--------------------------------*- C++ -*----------------------------------*\
| =========                 |                                                 |
| \\      /  F ield         | OpenFOAM: The Open Source CFD Toolbox           |
|  \\    /   O peration     | Version:  2206                                  |
|   \\  /    A nd           | Website:  www.openfoam.com                      |
|    \\/     M anipulation  |                                                 |
\*---------------------------------------------------------------------------*/
FoamFile
{
    version     2.0;
    format      ascii;
    arch        "LSB;label=32;scalar=64";
    class       volScalarField;
    location    "0.2";
    object      nut;
}
// * * * * * * * * * * * * * * * * * * * * * * * * * * * * * * * * * * * * * //

dimensions      [0 2 -1 0 0 0 0];

internalField   nonuniform List<scalar> 
66616
(
1.57758e-06
1.61651e-06
1.6164e-06
1.65704e-06
1.56013e-06
1.55742e-06
1.56027e-06
1.5853e-06
1.49102e-06
1.51533e-06
1.51431e-06
1.55641e-06
1.41344e-06
1.42552e-06
1.42549e-06
1.45615e-06
1.32324e-06
1.30566e-06
1.30728e-06
1.30161e-06
1.2737e-06
1.24685e-06
1.24887e-06
1.21659e-06
1.26956e-06
1.25628e-06
1.25791e-06
1.2324e-06
1.27038e-06
1.26139e-06
1.26293e-06
1.24042e-06
1.27073e-06
1.26208e-06
1.26365e-06
1.24165e-06
1.27078e-06
1.26232e-06
1.26392e-06
1.2418e-06
1.27078e-06
1.26232e-06
1.26394e-06
1.24179e-06
1.27078e-06
1.2624e-06
1.26417e-06
1.24169e-06
1.656e-06
1.61016e-06
1.61019e-06
1.65599e-06
1.6102e-06
1.61019e-06
1.57761e-06
1.5776e-06
1.57759e-06
1.57761e-06
1.61021e-06
1.61017e-06
1.65598e-06
1.61016e-06
1.61021e-06
1.65596e-06
1.65712e-06
1.59888e-06
1.61619e-06
1.61617e-06
1.58073e-06
1.58082e-06
1.65717e-06
1.59885e-06
1.61648e-06
1.61626e-06
1.57651e-06
1.57744e-06
1.6163e-06
1.57642e-06
1.57734e-06
1.65711e-06
1.59878e-06
1.61638e-06
1.57957e-06
1.57967e-06
1.59882e-06
1.58498e-06
1.55953e-06
1.5613e-06
1.56149e-06
1.52644e-06
1.52657e-06
1.5851e-06
1.55944e-06
1.55754e-06
1.5585e-06
1.52651e-06
1.52716e-06
1.55838e-06
1.52656e-06
1.52697e-06
1.58496e-06
1.55997e-06
1.5604e-06
1.52589e-06
1.52606e-06
1.55993e-06
1.55617e-06
1.47396e-06
1.5147e-06
1.51478e-06
1.4512e-06
1.45128e-06
1.5558e-06
1.4737e-06
1.51541e-06
1.5158e-06
1.45152e-06
1.4517e-06
1.51564e-06
1.45137e-06
1.45153e-06
1.5565e-06
1.47402e-06
1.51448e-06
1.45097e-06
1.45116e-06
1.47418e-06
1.45554e-06
1.32198e-06
1.42558e-06
1.42565e-06
1.33753e-06
1.33756e-06
1.4553e-06
1.32158e-06
1.42555e-06
1.42572e-06
1.33635e-06
1.33649e-06
1.42557e-06
1.33621e-06
1.33637e-06
1.45558e-06
1.32213e-06
1.42557e-06
1.33743e-06
1.33763e-06
1.32238e-06
1.3008e-06
1.21773e-06
1.3072e-06
1.30723e-06
1.25228e-06
1.25234e-06
1.30033e-06
1.21751e-06
1.30559e-06
1.30576e-06
1.25014e-06
1.25045e-06
1.30566e-06
1.25007e-06
1.25033e-06
1.30095e-06
1.21795e-06
1.30728e-06
1.25224e-06
1.25246e-06
1.21812e-06
1.21627e-06
1.2299e-06
1.24878e-06
1.24888e-06
1.25457e-06
1.25462e-06
1.2161e-06
1.22949e-06
1.2468e-06
1.24709e-06
1.25316e-06
1.25321e-06
1.24696e-06
1.25306e-06
1.25306e-06
1.2165e-06
1.23006e-06
1.24902e-06
1.25476e-06
1.25495e-06
1.23032e-06
1.23236e-06
1.23966e-06
1.25784e-06
1.2579e-06
1.26222e-06
1.2623e-06
1.23188e-06
1.23928e-06
1.25657e-06
1.25653e-06
1.26116e-06
1.26099e-06
1.25639e-06
1.26095e-06
1.26087e-06
1.2325e-06
1.23974e-06
1.25827e-06
1.26252e-06
1.26272e-06
1.24001e-06
1.24025e-06
1.24091e-06
1.26268e-06
1.26275e-06
1.26329e-06
1.26333e-06
1.23991e-06
1.24034e-06
1.26162e-06
1.26145e-06
1.26225e-06
1.26205e-06
1.26132e-06
1.262e-06
1.26196e-06
1.24032e-06
1.24097e-06
1.26318e-06
1.26356e-06
1.26382e-06
1.24139e-06
1.24146e-06
1.24123e-06
1.26343e-06
1.26347e-06
1.26363e-06
1.26371e-06
1.24081e-06
1.2408e-06
1.26237e-06
1.26219e-06
1.26259e-06
1.26239e-06
1.26209e-06
1.26228e-06
1.26228e-06
1.24147e-06
1.24132e-06
1.26396e-06
1.26388e-06
1.26416e-06
1.2416e-06
1.24179e-06
1.24125e-06
1.26373e-06
1.26383e-06
1.26368e-06
1.26372e-06
1.2414e-06
1.24072e-06
1.26267e-06
1.26248e-06
1.26261e-06
1.26242e-06
1.26236e-06
1.26233e-06
1.26232e-06
1.24187e-06
1.24132e-06
1.26425e-06
1.26395e-06
1.26421e-06
1.2416e-06
1.24182e-06
1.24121e-06
1.26372e-06
1.26376e-06
1.26367e-06
1.26374e-06
1.24121e-06
1.24081e-06
1.26263e-06
1.26245e-06
1.2626e-06
1.2624e-06
1.26235e-06
1.26238e-06
1.2623e-06
1.24188e-06
1.2413e-06
1.26424e-06
1.26394e-06
1.2642e-06
1.24152e-06
1.24173e-06
1.26387e-06
1.26399e-06
1.24139e-06
1.26267e-06
1.26246e-06
1.26237e-06
1.24182e-06
1.26442e-06
1.57866e-06
1.58468e-06
1.57887e-06
1.57886e-06
5.52264e-07
1.59903e-06
1.92607e-07
1.58292e-06
5.52203e-07
1.59897e-06
1.58292e-06
1.92508e-07
1.63041e-06
1.51216e-07
1.50833e-07
3.48502e-07
3.39184e-08
3.10266e-07
4.1923e-08
4.42105e-08
2.68234e-08
3.48021e-07
3.39388e-08
3.10691e-07
4.18673e-08
1.57757e-06
1.57756e-06
1.57757e-06
1.57194e-06
1.57187e-06
1.57185e-06
1.57186e-06
9.17872e-07
2.67307e-07
1.59436e-06
1.61179e-06
7.49405e-07
3.36953e-07
1.59415e-06
4.41749e-08
2.67913e-08
9.2188e-07
1.59428e-06
2.67093e-07
1.61052e-06
7.46847e-07
1.59429e-06
3.37005e-07
2.11303e-07
2.11174e-07
1.64398e-06
2.05038e-07
2.04848e-07
3.27109e-07
4.27215e-08
3.45916e-07
4.91489e-08
2.5502e-08
2.8177e-08
3.16535e-07
4.13019e-08
3.38073e-07
4.78112e-08
1.56023e-06
1.56021e-06
1.56023e-06
1.51005e-06
1.51005e-06
1.51003e-06
1.51006e-06
9.31271e-07
3.17729e-07
1.56786e-06
1.54045e-06
9.98794e-07
2.97125e-07
1.55111e-06
2.50764e-08
2.76527e-08
9.88636e-07
1.56878e-06
3.24199e-07
1.54261e-06
1.04418e-06
1.55171e-06
3.03934e-07
1.85016e-07
1.8801e-07
1.5617e-06
1.82081e-07
1.84789e-07
3.02334e-07
5.50563e-08
3.08314e-07
5.83442e-08
3.1233e-08
3.21449e-08
2.91585e-07
5.42444e-08
2.97809e-07
5.73466e-08
1.49096e-06
1.49094e-06
1.49096e-06
1.43359e-06
1.43351e-06
1.43349e-06
1.4335e-06
8.51734e-07
2.84197e-07
1.50022e-06
1.49748e-06
8.87063e-07
2.79729e-07
1.48025e-06
3.08018e-08
3.16579e-08
9.07186e-07
1.49901e-06
2.90752e-07
1.49646e-06
9.3483e-07
1.47906e-06
2.86798e-07
1.77361e-07
1.7998e-07
1.53313e-06
1.76282e-07
1.78973e-07
2.76367e-07
6.09149e-08
2.89152e-07
6.01402e-08
3.21631e-08
3.058e-08
2.65566e-07
5.97393e-08
2.78602e-07
5.88676e-08
1.41339e-06
1.41338e-06
1.41339e-06
1.3454e-06
1.34537e-06
1.34537e-06
1.34539e-06
8.06459e-07
2.71719e-07
1.41641e-06
1.39758e-06
8.34544e-07
2.65089e-07
1.39258e-06
3.16253e-08
3.01205e-08
8.62602e-07
1.41624e-06
2.78727e-07
1.39794e-06
8.82364e-07
1.39285e-06
2.72556e-07
1.69968e-07
1.72586e-07
1.40271e-06
1.61771e-07
1.64507e-07
2.36251e-07
5.65777e-08
2.47778e-07
5.76533e-08
2.77636e-08
2.8136e-08
2.25944e-07
5.51618e-08
2.37277e-07
5.61626e-08
1.3231e-06
1.32311e-06
1.32313e-06
1.27993e-06
1.27991e-06
1.27993e-06
1.27994e-06
7.24231e-07
2.47466e-07
1.31551e-06
1.27934e-06
7.70446e-07
2.39344e-07
1.29344e-06
2.73295e-08
2.76916e-08
7.79656e-07
1.31736e-06
2.54762e-07
1.28134e-06
8.18166e-07
1.29583e-06
2.46682e-07
1.44341e-07
1.47035e-07
1.25037e-06
1.4064e-07
1.4323e-07
2.5127e-07
6.77332e-08
2.39508e-07
7.27654e-08
3.19803e-08
3.38424e-08
2.40468e-07
6.603e-08
2.29405e-07
7.08355e-08
1.2737e-06
1.27373e-06
1.27373e-06
1.26946e-06
1.26937e-06
1.2694e-06
1.2694e-06
7.21535e-07
2.47978e-07
1.26113e-06
1.24692e-06
7.18124e-07
2.61699e-07
1.25999e-06
3.14605e-08
3.3226e-08
7.7288e-07
1.26353e-06
2.55261e-07
1.24886e-06
7.62817e-07
1.26208e-06
2.69705e-07
1.49947e-07
1.52784e-07
1.21842e-06
1.58671e-07
1.61862e-07
2.66586e-07
7.62054e-08
2.63716e-07
7.6772e-08
3.50623e-08
3.52715e-08
2.54838e-07
7.41028e-08
2.52343e-07
7.47201e-08
1.26956e-06
1.26959e-06
1.26959e-06
1.27025e-06
1.27019e-06
1.27022e-06
1.27022e-06
7.51384e-07
2.75838e-07
1.26311e-06
1.25877e-06
7.56362e-07
2.78589e-07
1.26455e-06
3.43951e-08
3.46179e-08
8.0478e-07
1.26456e-06
2.84369e-07
1.26039e-06
8.01846e-07
1.26588e-06
2.87456e-07
1.65703e-07
1.69257e-07
1.23748e-06
1.67243e-07
1.70803e-07
2.67763e-07
7.68401e-08
2.6749e-07
7.69706e-08
3.52891e-08
3.53478e-08
2.55952e-07
7.46766e-08
2.55737e-07
7.49114e-08
1.27036e-06
1.27039e-06
1.27039e-06
1.27066e-06
1.27066e-06
1.27068e-06
1.27069e-06
7.54422e-07
2.79728e-07
1.26614e-06
1.26176e-06
7.66321e-07
2.79783e-07
1.26639e-06
3.45894e-08
3.46915e-08
8.08412e-07
1.26731e-06
2.8854e-07
1.2633e-06
8.12302e-07
1.26757e-06
2.88744e-07
1.67274e-07
1.70957e-07
1.24102e-06
1.67793e-07
1.71359e-07
2.67823e-07
7.68616e-08
2.67571e-07
7.69535e-08
3.52783e-08
3.53321e-08
2.5594e-07
7.46706e-08
2.559e-07
7.48873e-08
1.27079e-06
1.27082e-06
1.27082e-06
1.27078e-06
1.27082e-06
1.27085e-06
1.27086e-06
7.54637e-07
2.79794e-07
1.26673e-06
1.26215e-06
7.66921e-07
2.79824e-07
1.26679e-06
3.45912e-08
3.4685e-08
8.08839e-07
1.2679e-06
2.88644e-07
1.26376e-06
8.13012e-07
1.26799e-06
2.88796e-07
1.67325e-07
1.71016e-07
1.24152e-06
1.67742e-07
1.71336e-07
2.67845e-07
7.68621e-08
2.67576e-07
7.69539e-08
3.52925e-08
3.534e-08
2.56014e-07
7.46967e-08
2.55905e-07
7.48862e-08
1.27085e-06
1.27088e-06
1.27089e-06
1.27078e-06
1.27082e-06
1.27085e-06
1.27086e-06
7.55261e-07
2.79878e-07
1.26695e-06
1.26241e-06
7.66623e-07
2.79857e-07
1.26702e-06
3.46001e-08
3.46795e-08
8.09199e-07
1.26818e-06
2.88648e-07
1.26399e-06
8.12981e-07
1.26825e-06
2.88837e-07
1.67357e-07
1.7104e-07
1.24156e-06
1.67766e-07
1.71351e-07
2.67915e-07
7.68752e-08
2.67527e-07
7.69354e-08
3.52838e-08
3.53238e-08
2.56038e-07
7.4717e-08
2.55842e-07
7.48628e-08
1.27085e-06
1.27087e-06
1.27088e-06
1.27077e-06
1.27082e-06
1.27085e-06
1.27086e-06
7.57029e-07
2.7975e-07
1.26696e-06
1.26232e-06
7.654e-07
2.79958e-07
1.26697e-06
3.46065e-08
3.46667e-08
8.10756e-07
1.26821e-06
2.88576e-07
1.26398e-06
8.12091e-07
1.26823e-06
2.88944e-07
1.67359e-07
1.71038e-07
1.24153e-06
1.67732e-07
1.71336e-07
2.61766e-07
7.69333e-08
2.66986e-07
7.63681e-08
3.53215e-08
3.51432e-08
7.47825e-08
2.55815e-07
1.27085e-06
1.27088e-06
1.27089e-06
7.61018e-07
2.79693e-07
1.26699e-06
1.26192e-06
7.62174e-07
2.80009e-07
1.2667e-06
3.46361e-08
7.81909e-07
1.26835e-06
2.8834e-07
8.09595e-07
1.26782e-06
1.67456e-07
1.71032e-07
1.24162e-06
1.67585e-07
1.70346e-07
1.6304e-06
1.50895e-07
1.50702e-07
6.91625e-09
5.53186e-08
6.91011e-09
5.51613e-08
1.54585e-06
1.56661e-07
1.56417e-07
1.56435e-07
1.56252e-07
5.52131e-07
1.59892e-06
1.92808e-07
1.58295e-06
5.52313e-07
1.59893e-06
1.9268e-07
1.58291e-06
2.8417e-07
1.9878e-09
8.79031e-08
2.59677e-07
2.84173e-07
1.98728e-09
8.7832e-08
2.5964e-07
5.54494e-07
1.59987e-06
1.90148e-07
1.59287e-06
2.12561e-07
1.58257e-06
6.15774e-07
5.54646e-07
1.59988e-06
1.90063e-07
1.59283e-06
2.12618e-07
1.58253e-06
6.15984e-07
1.6304e-06
1.51251e-07
1.50385e-07
6.89147e-09
5.51933e-08
1.54574e-06
1.56141e-07
1.56333e-07
1.55146e-07
1.55951e-07
6.89085e-09
5.49005e-08
5.52308e-07
1.59898e-06
1.92776e-07
1.58293e-06
5.52233e-07
1.59895e-06
1.58285e-06
1.92622e-07
2.84273e-07
1.98869e-09
8.78724e-08
2.59464e-07
5.54526e-07
1.59989e-06
1.90056e-07
1.59283e-06
2.12519e-07
1.58255e-06
6.14757e-07
2.8426e-07
1.98619e-09
8.77346e-08
2.59433e-07
5.54469e-07
1.5999e-06
1.59279e-06
1.89957e-07
1.58248e-06
2.1254e-07
6.14626e-07
1.57862e-06
1.58469e-06
1.57879e-06
1.57886e-06
1.57862e-06
1.58467e-06
1.57885e-06
1.57884e-06
1.57863e-06
1.58468e-06
1.57885e-06
1.57879e-06
1.57695e-06
1.5821e-06
1.57458e-06
1.57456e-06
1.57747e-06
1.57746e-06
1.57389e-06
1.57692e-06
1.5821e-06
1.57456e-06
1.57452e-06
1.57741e-06
1.57744e-06
1.57389e-06
1.57691e-06
1.58209e-06
1.57452e-06
1.57457e-06
1.57743e-06
1.57745e-06
1.57387e-06
1.57692e-06
1.5821e-06
1.57455e-06
1.57455e-06
1.57744e-06
1.57741e-06
1.57389e-06
5.52313e-07
1.59893e-06
1.58285e-06
1.92686e-07
5.54488e-07
1.59995e-06
1.89978e-07
1.59276e-06
2.12314e-07
1.58251e-06
6.1469e-07
2.84221e-07
1.98632e-09
8.7689e-08
2.59344e-07
5.54546e-07
1.59989e-06
1.5928e-06
1.90006e-07
1.58249e-06
2.12604e-07
6.14689e-07
2.84238e-07
1.98728e-09
8.77785e-08
2.594e-07
1.63038e-06
1.51102e-07
1.50301e-07
6.88138e-09
5.51128e-08
1.54606e-06
1.5599e-07
1.56364e-07
1.55006e-07
1.55877e-07
6.8912e-09
5.47816e-08
5.52242e-07
1.599e-06
1.58285e-06
1.92393e-07
5.54615e-07
1.59989e-06
1.59279e-06
1.8998e-07
1.58251e-06
2.12202e-07
6.15967e-07
5.54633e-07
1.5999e-06
1.59282e-06
1.89905e-07
1.58248e-06
2.12265e-07
6.16039e-07
2.842e-07
1.98197e-09
8.75185e-08
2.59662e-07
2.84224e-07
1.98098e-09
8.73626e-08
2.59723e-07
1.54613e-06
1.56084e-07
1.55848e-07
1.55101e-07
1.54752e-07
6.8769e-09
5.51596e-08
6.86891e-09
5.47971e-08
4.42973e-08
2.68378e-08
4.42932e-08
2.68374e-08
2.11771e-07
2.11558e-07
1.64393e-06
2.05119e-07
2.05009e-07
2.47593e-08
2.43932e-08
2.44334e-08
2.44524e-08
1.63715e-06
1.87661e-07
1.83701e-07
1.9997e-07
1.99671e-07
3.48537e-07
3.39121e-08
3.10255e-07
4.1909e-08
9.21588e-07
2.672e-07
1.59432e-06
1.61048e-06
7.46444e-07
3.37252e-07
1.59435e-06
9.21904e-07
2.67038e-07
1.59428e-06
1.61043e-06
7.46674e-07
3.37065e-07
1.59432e-06
3.49483e-07
4.17072e-08
4.05582e-08
3.50998e-07
3.49505e-07
4.17071e-08
4.05733e-08
3.50998e-07
9.80366e-07
1.59905e-06
3.30625e-07
1.5827e-06
3.35925e-07
1.59181e-06
1.03894e-06
9.80686e-07
1.59907e-06
3.30477e-07
1.58267e-06
3.35752e-07
1.59177e-06
1.03921e-06
2.11409e-07
2.11514e-07
1.64392e-06
2.04868e-07
2.0506e-07
4.42171e-08
2.67963e-08
2.47784e-08
2.43947e-08
1.63717e-06
1.87612e-07
1.83764e-07
1.99873e-07
1.9955e-07
2.43967e-08
2.44135e-08
9.17901e-07
2.67262e-07
1.59434e-06
1.61181e-06
7.49395e-07
3.36981e-07
1.59425e-06
3.48051e-07
3.39283e-08
3.10686e-07
4.18498e-08
9.17787e-07
1.59428e-06
2.67133e-07
1.61205e-06
7.4925e-07
1.59419e-06
3.36896e-07
3.50449e-07
4.02249e-08
4.06339e-08
3.45948e-07
9.88725e-07
1.59677e-06
3.25035e-07
1.58264e-06
3.36227e-07
1.59236e-06
1.0026e-06
3.50471e-07
4.02135e-08
4.06355e-08
3.45961e-07
9.88559e-07
1.59763e-06
1.58238e-06
3.24921e-07
1.59223e-06
3.36135e-07
1.0026e-06
3.47981e-07
3.39197e-08
3.10597e-07
4.18458e-08
9.17924e-07
1.5943e-06
2.67218e-07
1.61212e-06
7.49359e-07
1.5942e-06
3.37006e-07
3.48028e-07
3.39336e-08
3.10651e-07
4.18504e-08
9.88659e-07
1.59676e-06
3.25034e-07
1.58264e-06
3.36334e-07
1.59243e-06
1.00267e-06
3.50404e-07
4.0208e-08
4.06432e-08
3.45924e-07
9.88704e-07
1.59764e-06
1.5824e-06
3.25029e-07
1.59225e-06
3.36274e-07
1.00273e-06
3.5044e-07
4.02137e-08
4.06435e-08
3.45953e-07
2.112e-07
2.11604e-07
1.644e-06
2.04829e-07
2.04983e-07
4.42081e-08
2.68143e-08
2.44073e-08
2.44142e-08
1.63715e-06
1.8358e-07
1.8753e-07
1.99518e-07
1.99816e-07
2.47529e-08
2.43813e-08
9.22001e-07
1.59428e-06
2.66873e-07
1.61049e-06
7.46815e-07
1.59435e-06
3.3689e-07
3.4858e-07
3.38907e-08
3.103e-07
4.18943e-08
3.48644e-07
3.38905e-08
3.1036e-07
4.18948e-08
9.80539e-07
1.5981e-06
1.58292e-06
3.30477e-07
1.59192e-06
3.35839e-07
1.03893e-06
9.80648e-07
1.59815e-06
1.5829e-06
3.30339e-07
1.59186e-06
3.35572e-07
1.03894e-06
3.49542e-07
4.16914e-08
4.05609e-08
3.51038e-07
3.49605e-07
4.17e-08
4.05548e-08
3.51098e-07
4.41386e-08
2.67713e-08
4.41106e-08
2.68087e-08
1.63719e-06
1.83727e-07
1.87496e-07
1.99696e-07
1.99659e-07
2.43796e-08
2.44011e-08
2.47766e-08
2.43838e-08
2.54707e-08
2.81419e-08
2.50999e-08
2.76556e-08
1.88351e-07
1.84976e-07
1.5614e-06
1.85199e-07
1.81712e-07
3.08009e-08
2.94487e-08
3.03423e-08
2.89987e-08
1.55676e-06
1.80613e-07
1.77249e-07
1.834e-07
1.80098e-07
3.27157e-07
4.27218e-08
3.45802e-07
4.9133e-08
9.88667e-07
3.24178e-07
1.56853e-06
1.54362e-06
1.04375e-06
3.04081e-07
1.5515e-06
9.88815e-07
3.24041e-07
1.56852e-06
1.54377e-06
1.04403e-06
3.04021e-07
1.55147e-06
3.2173e-07
5.3753e-08
5.02971e-08
3.11085e-07
3.21697e-07
5.37594e-08
5.03026e-08
3.11104e-07
9.78452e-07
1.53235e-06
2.92362e-07
1.51758e-06
2.99708e-07
1.53464e-06
9.39815e-07
9.78649e-07
1.53249e-06
2.92317e-07
1.51755e-06
2.99612e-07
1.53462e-06
9.39923e-07
1.88381e-07
1.84916e-07
1.56157e-06
1.84967e-07
1.82006e-07
2.50546e-08
2.76316e-08
3.08225e-08
2.94819e-08
1.55707e-06
1.80281e-07
1.77735e-07
1.83394e-07
1.80131e-07
3.03408e-08
2.89807e-08
9.31464e-07
3.1758e-07
1.56796e-06
1.54053e-06
9.98618e-07
2.97193e-07
1.55122e-06
3.16551e-07
4.12902e-08
3.37957e-07
4.78077e-08
9.31404e-07
1.56769e-06
3.17466e-07
1.5415e-06
9.98612e-07
1.551e-06
2.97091e-07
3.11518e-07
5.27535e-08
4.93544e-08
3.00292e-07
9.31671e-07
1.53105e-06
2.85284e-07
1.51847e-06
2.93147e-07
1.53494e-06
8.83598e-07
3.11439e-07
5.27584e-08
4.93565e-08
3.00303e-07
9.31597e-07
1.53201e-06
1.51844e-06
2.85278e-07
1.53485e-06
2.93077e-07
8.83608e-07
3.16487e-07
4.12905e-08
3.37913e-07
4.77913e-08
9.31465e-07
1.56767e-06
3.1757e-07
1.54134e-06
9.98732e-07
1.55096e-06
2.97189e-07
3.16536e-07
4.12934e-08
3.37946e-07
4.78031e-08
9.31664e-07
1.53138e-06
2.85365e-07
1.51847e-06
2.9325e-07
1.53503e-06
8.83503e-07
3.11365e-07
5.27372e-08
4.93459e-08
3.00222e-07
9.31674e-07
1.53181e-06
1.51839e-06
2.85354e-07
1.53481e-06
2.93158e-07
8.83617e-07
3.11411e-07
5.2738e-08
4.93446e-08
3.00275e-07
1.85009e-07
1.88196e-07
1.5616e-06
1.8179e-07
1.85061e-07
2.54694e-08
2.81406e-08
3.03539e-08
2.89988e-08
1.55724e-06
1.7743e-07
1.80512e-07
1.80211e-07
1.83267e-07
3.0787e-08
2.94469e-08
9.88821e-07
1.56882e-06
3.2392e-07
1.54278e-06
1.04401e-06
1.55173e-06
3.03902e-07
3.27186e-07
4.27069e-08
3.45832e-07
4.90771e-08
3.27259e-07
4.27144e-08
3.459e-07
4.90875e-08
9.78662e-07
1.53172e-06
1.51762e-06
2.92267e-07
1.53485e-06
2.99694e-07
9.39753e-07
9.78678e-07
1.53176e-06
1.51766e-06
2.92243e-07
1.53479e-06
2.99551e-07
9.39864e-07
3.21716e-07
5.36986e-08
5.02652e-08
3.1109e-07
3.21793e-07
5.37309e-08
5.02856e-08
3.11169e-07
2.50488e-08
2.76164e-08
2.54986e-08
2.818e-08
1.55754e-06
1.77758e-07
1.80285e-07
1.80477e-07
1.8301e-07
3.03225e-08
2.89533e-08
3.08172e-08
2.9491e-08
3.12086e-08
3.21231e-08
3.07838e-08
3.16377e-08
1.80325e-07
1.76848e-07
1.53318e-06
1.79401e-07
1.75791e-07
3.23796e-08
3.22881e-08
3.18393e-08
3.17776e-08
1.51869e-06
1.74816e-07
1.71041e-07
1.78616e-07
1.75005e-07
3.02445e-07
5.50556e-08
3.08171e-07
5.83651e-08
9.07539e-07
2.90664e-07
1.49891e-06
1.49676e-06
9.34397e-07
2.87002e-07
1.479e-06
9.07581e-07
2.90569e-07
1.49889e-06
1.49679e-06
9.34597e-07
2.86933e-07
1.47897e-06
3.00129e-07
6.08528e-08
5.91517e-08
2.92879e-07
3.0005e-07
6.08634e-08
5.91735e-08
2.92892e-07
9.04858e-07
1.47506e-06
2.80538e-07
1.43792e-06
2.85265e-07
1.45871e-06
8.83885e-07
9.04966e-07
1.47511e-06
2.80476e-07
1.43789e-06
2.85162e-07
1.4587e-06
8.839e-07
1.7998e-07
1.77341e-07
1.53256e-06
1.79032e-07
1.76312e-07
3.07875e-08
3.16508e-08
3.23887e-08
3.23128e-08
1.51816e-06
1.74361e-07
1.71657e-07
1.78263e-07
1.75523e-07
3.18627e-08
3.17972e-08
8.5189e-07
2.83911e-07
1.50014e-06
1.49762e-06
8.86702e-07
2.79682e-07
1.48022e-06
2.91709e-07
5.42519e-08
2.97653e-07
5.73743e-08
8.5194e-07
1.50014e-06
2.83914e-07
1.49784e-06
8.86671e-07
1.48021e-06
2.79725e-07
2.8956e-07
5.9783e-08
5.81858e-08
2.82086e-07
8.57022e-07
1.47572e-06
2.72999e-07
1.43852e-06
2.78162e-07
1.45969e-06
8.27927e-07
2.89478e-07
5.98237e-08
5.82192e-08
2.82121e-07
8.5703e-07
1.4759e-06
1.4385e-06
2.73086e-07
1.45969e-06
2.78197e-07
8.27984e-07
2.9166e-07
5.42354e-08
2.9758e-07
5.73505e-08
8.51926e-07
1.50011e-06
2.83984e-07
1.49768e-06
8.86699e-07
1.4802e-06
2.79783e-07
2.91685e-07
5.42369e-08
2.97618e-07
5.73509e-08
8.57159e-07
1.47556e-06
2.73181e-07
1.43853e-06
2.78406e-07
1.45958e-06
8.27971e-07
2.89425e-07
5.9808e-08
5.82038e-08
2.82072e-07
8.57036e-07
1.47573e-06
1.43848e-06
2.73169e-07
1.45967e-06
2.78265e-07
8.27962e-07
2.89439e-07
5.98095e-08
5.81995e-08
2.82093e-07
1.77041e-07
1.8022e-07
1.53327e-06
1.76007e-07
1.79318e-07
3.11988e-08
3.21137e-08
3.18692e-08
3.18025e-08
1.51874e-06
1.71278e-07
1.7476e-07
1.75229e-07
1.7854e-07
3.23722e-08
3.2287e-08
9.07436e-07
1.49897e-06
2.9055e-07
1.49663e-06
9.34515e-07
1.47905e-06
2.86885e-07
3.02414e-07
5.50081e-08
3.08137e-07
5.82983e-08
3.02475e-07
5.50421e-08
3.08215e-07
5.83418e-08
9.04921e-07
1.4748e-06
1.43797e-06
2.80463e-07
1.45863e-06
2.85259e-07
8.83706e-07
9.04826e-07
1.47498e-06
1.43793e-06
2.80463e-07
1.45876e-06
2.85181e-07
8.83785e-07
3.00003e-07
6.08082e-08
5.91172e-08
2.92828e-07
3.00058e-07
6.08513e-08
5.91569e-08
2.92889e-07
3.07723e-08
3.16281e-08
3.12301e-08
3.21411e-08
1.519e-06
1.71708e-07
1.74424e-07
1.75516e-07
1.78295e-07
3.18461e-08
3.17852e-08
3.23933e-08
3.2321e-08
3.21384e-08
3.05752e-08
3.15898e-08
3.00824e-08
1.72932e-07
1.69201e-07
1.40247e-06
1.64997e-07
1.61103e-07
2.81013e-08
2.9843e-08
2.76267e-08
2.93646e-08
1.38124e-06
1.50606e-07
1.46827e-07
1.61258e-07
1.57429e-07
2.76411e-07
6.08985e-08
2.88989e-07
6.01139e-08
8.62924e-07
2.7863e-07
1.41616e-06
1.39809e-06
8.81954e-07
2.72688e-07
1.39281e-06
8.62911e-07
2.78501e-07
1.41615e-06
1.39816e-06
8.82124e-07
2.72611e-07
1.3928e-06
2.70888e-07
5.70236e-08
5.93136e-08
2.53621e-07
2.70865e-07
5.70033e-08
5.92821e-08
2.53583e-07
8.59903e-07
1.3685e-06
2.58829e-07
1.34219e-06
2.69467e-07
1.36787e-06
8.27192e-07
8.6001e-07
1.36852e-06
2.58662e-07
1.34218e-06
2.69296e-07
1.36786e-06
8.27178e-07
1.72584e-07
1.69692e-07
1.40225e-06
1.64569e-07
1.61635e-07
3.16106e-08
3.01115e-08
2.80846e-08
2.98458e-08
1.38098e-06
1.50116e-07
1.47397e-07
1.60944e-07
1.57827e-07
2.76647e-08
2.93929e-08
8.06488e-07
2.7133e-07
1.41636e-06
1.39773e-06
8.34032e-07
2.64946e-07
1.3926e-06
2.65651e-07
5.97544e-08
2.78436e-07
5.88916e-08
8.06547e-07
1.41634e-06
2.71421e-07
1.39786e-06
8.34119e-07
1.39258e-06
2.65062e-07
2.60274e-07
5.56589e-08
5.80332e-08
2.42857e-07
8.1197e-07
1.36776e-06
2.51016e-07
1.34093e-06
2.61907e-07
1.36721e-06
7.70461e-07
2.60266e-07
5.56952e-08
5.80573e-08
2.42887e-07
8.12009e-07
1.36789e-06
1.34089e-06
2.51114e-07
1.36718e-06
2.62016e-07
7.70541e-07
2.65619e-07
5.97437e-08
2.78385e-07
5.88791e-08
8.06512e-07
1.41631e-06
2.71508e-07
1.39772e-06
8.34058e-07
1.39254e-06
2.65185e-07
2.65635e-07
5.97445e-08
2.78419e-07
5.88823e-08
8.12086e-07
1.3676e-06
2.51249e-07
1.34093e-06
2.62211e-07
1.36709e-06
7.70551e-07
2.60234e-07
5.56811e-08
5.80501e-08
2.42854e-07
8.11961e-07
1.36776e-06
1.34087e-06
2.51265e-07
1.36716e-06
2.62153e-07
7.70529e-07
2.60253e-07
5.56877e-08
5.80538e-08
2.42878e-07
1.69451e-07
1.72858e-07
1.40254e-06
1.61352e-07
1.64914e-07
3.21365e-08
3.05715e-08
2.76613e-08
2.93975e-08
1.38134e-06
1.4706e-07
1.50537e-07
1.57678e-07
1.61169e-07
2.80895e-08
2.98462e-08
8.62732e-07
1.41617e-06
2.78543e-07
1.39812e-06
8.81947e-07
1.39282e-06
2.72554e-07
2.76338e-07
6.08497e-08
2.88915e-07
6.00612e-08
2.76383e-07
6.08896e-08
2.88991e-07
6.00933e-08
8.59855e-07
1.36839e-06
1.34217e-06
2.58743e-07
1.36779e-06
2.69412e-07
8.26777e-07
8.59819e-07
1.36859e-06
1.34219e-06
2.58671e-07
1.36789e-06
2.69322e-07
8.26814e-07
2.70784e-07
5.69454e-08
5.92479e-08
2.53488e-07
2.70833e-07
5.6979e-08
5.92649e-08
2.53533e-07
3.16074e-08
3.0104e-08
3.21554e-08
3.058e-08
1.38169e-06
1.47505e-07
1.50207e-07
1.58131e-07
1.60771e-07
2.76494e-08
2.93993e-08
2.80942e-08
2.98573e-08
2.77679e-08
2.81408e-08
2.72809e-08
2.76364e-08
1.47338e-07
1.43596e-07
1.25005e-06
1.43573e-07
1.39978e-07
3.11664e-08
2.87813e-08
3.06035e-08
2.82911e-08
1.23769e-06
1.49761e-07
1.46024e-07
1.43446e-07
1.39772e-07
2.36203e-07
5.65444e-08
2.47537e-07
5.76119e-08
7.79898e-07
2.54665e-07
1.31724e-06
1.28145e-06
8.17989e-07
2.46766e-07
1.29585e-06
7.79823e-07
2.54467e-07
1.31725e-06
1.28148e-06
8.18111e-07
2.46616e-07
1.29584e-06
2.3464e-07
6.56252e-08
5.93883e-08
2.36487e-07
2.34604e-07
6.55848e-08
5.93576e-08
2.36426e-07
7.74815e-07
1.26269e-06
2.50863e-07
1.26882e-06
2.46284e-07
1.27944e-06
7.59867e-07
7.74871e-07
1.26272e-06
2.5073e-07
1.26881e-06
2.46075e-07
1.27944e-06
7.59781e-07
1.46874e-07
1.44153e-07
1.24955e-06
1.43163e-07
1.40594e-07
2.73281e-08
2.76879e-08
3.1171e-08
2.87705e-08
1.23729e-06
1.49419e-07
1.46624e-07
1.43047e-07
1.40388e-07
3.06326e-08
2.83383e-08
7.24177e-07
2.47026e-07
1.31538e-06
1.27947e-06
7.69846e-07
2.39056e-07
1.29345e-06
2.25998e-07
5.51873e-08
2.37072e-07
5.6218e-08
7.24224e-07
1.31533e-06
2.47124e-07
1.27971e-06
7.69934e-07
1.29339e-06
2.39222e-07
2.24502e-07
6.39181e-08
5.79171e-08
2.26255e-07
7.27573e-07
1.26051e-06
2.43056e-07
1.26608e-06
2.38667e-07
1.2767e-06
7.06495e-07
2.24563e-07
6.39274e-08
5.79788e-08
2.26325e-07
7.27628e-07
1.2608e-06
1.26605e-06
2.43283e-07
1.27667e-06
2.38848e-07
7.06587e-07
2.25964e-07
5.51762e-08
2.37032e-07
5.61983e-08
7.24226e-07
1.31532e-06
2.47265e-07
1.27959e-06
7.69888e-07
1.29337e-06
2.39342e-07
2.25976e-07
5.51848e-08
2.37067e-07
5.61994e-08
7.27589e-07
1.26035e-06
2.43386e-07
1.26609e-06
2.38987e-07
1.2766e-06
7.06579e-07
2.24527e-07
6.39093e-08
5.79523e-08
2.26296e-07
7.2762e-07
1.26068e-06
1.26604e-06
2.43395e-07
1.27665e-06
2.38967e-07
7.06606e-07
2.24545e-07
6.38954e-08
5.79518e-08
2.26306e-07
1.43844e-07
1.47248e-07
1.25016e-06
1.40275e-07
1.43532e-07
2.77641e-08
2.81306e-08
3.06381e-08
2.83461e-08
1.23785e-06
1.46326e-07
1.49787e-07
1.40078e-07
1.43405e-07
3.11714e-08
2.87748e-08
7.79684e-07
1.31724e-06
2.5448e-07
1.28154e-06
8.1766e-07
1.29583e-06
2.46639e-07
2.36113e-07
5.64899e-08
2.47439e-07
5.75425e-08
2.36139e-07
5.65206e-08
2.47496e-07
5.75717e-08
7.74631e-07
1.26255e-06
1.26878e-06
2.50777e-07
1.2793e-06
2.46183e-07
7.59511e-07
7.74706e-07
1.26282e-06
1.26879e-06
2.50754e-07
1.27943e-06
2.46158e-07
7.5955e-07
2.34491e-07
6.55316e-08
5.9295e-08
2.36293e-07
2.34526e-07
6.55555e-08
5.9325e-08
2.36312e-07
2.73177e-08
2.76719e-08
2.77717e-08
2.8137e-08
1.23809e-06
1.46707e-07
1.49525e-07
1.40439e-07
1.43108e-07
3.06284e-08
2.83221e-08
3.11866e-08
2.8782e-08
3.19924e-08
3.38261e-08
3.14501e-08
3.32141e-08
1.53089e-07
1.49361e-07
1.21797e-06
1.62044e-07
1.58086e-07
3.49565e-08
3.42371e-08
3.43318e-08
3.36261e-08
1.22088e-06
1.68765e-07
1.64608e-07
1.64248e-07
1.60221e-07
2.51203e-07
6.77399e-08
2.39428e-07
7.2724e-08
7.73323e-07
2.55379e-07
1.26347e-06
1.24881e-06
7.63072e-07
2.69714e-07
1.26203e-06
7.73208e-07
2.5517e-07
1.26346e-06
1.2489e-06
7.63085e-07
2.69642e-07
1.26202e-06
2.54697e-07
7.59171e-08
7.3905e-08
2.62381e-07
2.54578e-07
7.58629e-08
7.38618e-08
2.62253e-07
7.83031e-07
1.25057e-06
2.82572e-07
1.26312e-06
2.73876e-07
1.26221e-06
7.94797e-07
7.82992e-07
1.25061e-06
2.82488e-07
1.2631e-06
2.73727e-07
1.2622e-06
7.94623e-07
1.52742e-07
1.49934e-07
1.21785e-06
1.61817e-07
1.58452e-07
3.14708e-08
3.3208e-08
3.49624e-08
3.42588e-08
1.22071e-06
1.68485e-07
1.64995e-07
1.64073e-07
1.60526e-07
3.43183e-08
3.36112e-08
7.21422e-07
2.4766e-07
1.26102e-06
1.24692e-06
7.17982e-07
2.61527e-07
1.25991e-06
2.40531e-07
6.60715e-08
2.29445e-07
7.07902e-08
7.21485e-07
1.261e-06
2.4787e-07
1.24718e-06
7.18056e-07
1.25988e-06
2.6162e-07
2.43893e-07
7.3883e-08
7.1936e-08
2.50945e-07
7.37841e-07
1.24891e-06
2.73969e-07
1.26144e-06
2.65705e-07
1.26021e-06
7.41961e-07
2.43909e-07
7.37898e-08
7.18807e-08
2.50958e-07
7.3787e-07
1.24909e-06
1.26139e-06
2.73909e-07
1.26019e-06
2.65755e-07
7.41989e-07
2.40543e-07
6.60518e-08
2.29428e-07
7.07753e-08
7.21555e-07
1.26099e-06
2.47977e-07
1.24705e-06
7.18081e-07
1.25988e-06
2.61736e-07
2.40533e-07
6.60446e-08
2.2943e-07
7.07542e-08
7.3794e-07
1.24875e-06
2.74074e-07
1.26149e-06
2.65906e-07
1.26021e-06
7.42059e-07
2.43921e-07
7.37839e-08
7.18653e-08
2.50979e-07
7.37953e-07
1.24894e-06
1.2614e-06
2.74052e-07
1.26019e-06
2.65873e-07
7.42069e-07
2.43911e-07
7.37623e-08
7.18474e-08
2.50967e-07
1.4963e-07
1.53108e-07
1.2182e-06
1.58261e-07
1.6213e-07
3.19987e-08
3.38419e-08
3.43223e-08
3.36323e-08
1.22112e-06
1.64691e-07
1.6887e-07
1.60368e-07
1.64325e-07
3.49759e-08
3.42533e-08
7.72912e-07
1.26345e-06
2.55267e-07
1.24906e-06
7.628e-07
1.26202e-06
2.69697e-07
2.5109e-07
6.77021e-08
2.39274e-07
7.27023e-08
2.51081e-07
6.77322e-08
2.3929e-07
7.27247e-08
7.82666e-07
1.25057e-06
1.26316e-06
2.82654e-07
1.2622e-06
2.73895e-07
7.94444e-07
7.82701e-07
1.25087e-06
1.26313e-06
2.8263e-07
1.26221e-06
2.7386e-07
7.94416e-07
2.54465e-07
7.58645e-08
7.38467e-08
2.6219e-07
2.54468e-07
7.58861e-08
7.3863e-08
2.62166e-07
3.14633e-08
3.32115e-08
3.20172e-08
3.38575e-08
1.22126e-06
1.65176e-07
1.68637e-07
1.60802e-07
1.64065e-07
3.43136e-08
3.36237e-08
3.49969e-08
3.42721e-08
3.50581e-08
3.52591e-08
3.44093e-08
3.46239e-08
1.69415e-07
1.65173e-07
1.23712e-06
1.7092e-07
1.66693e-07
3.53176e-08
3.52371e-08
3.4689e-08
3.45657e-08
1.23834e-06
1.7136e-07
1.67126e-07
1.70812e-07
1.66449e-07
2.66468e-07
7.61741e-08
2.63627e-07
7.67224e-08
8.05097e-07
2.84341e-07
1.26462e-06
1.26004e-06
8.02168e-07
2.87364e-07
1.2657e-06
8.0491e-07
2.84221e-07
1.2646e-06
1.2601e-06
8.02115e-07
2.87269e-07
1.26568e-06
2.66858e-07
7.69232e-08
7.67659e-08
2.67671e-07
2.66751e-07
7.6872e-08
7.67158e-08
2.67569e-07
8.10261e-07
1.26145e-06
2.88445e-07
1.26693e-06
2.87668e-07
1.26646e-06
8.08115e-07
8.10182e-07
1.2615e-06
2.88363e-07
1.2669e-06
2.87527e-07
1.26644e-06
8.07935e-07
1.69148e-07
1.65541e-07
1.23659e-06
1.70687e-07
1.67087e-07
3.43919e-08
3.46133e-08
3.53259e-08
3.52563e-08
1.23785e-06
1.71108e-07
1.67529e-07
1.70596e-07
1.66841e-07
3.4675e-08
3.45503e-08
7.51359e-07
2.75782e-07
1.26319e-06
1.25888e-06
7.56343e-07
2.78534e-07
1.26444e-06
2.54837e-07
7.40272e-08
2.52326e-07
7.46138e-08
7.5137e-07
1.26313e-06
2.75695e-07
1.25877e-06
7.56367e-07
1.26436e-06
2.78404e-07
2.55158e-07
7.48779e-08
7.45904e-08
2.55783e-07
7.64276e-07
1.26036e-06
2.79635e-07
1.26581e-06
2.78944e-07
1.2653e-06
7.53774e-07
2.55164e-07
7.47723e-08
7.4481e-08
2.55757e-07
7.64277e-07
1.26021e-06
1.26571e-06
2.79485e-07
1.26521e-06
2.78809e-07
7.53789e-07
2.54854e-07
7.40202e-08
2.52342e-07
7.46225e-08
7.51431e-07
1.26313e-06
2.75845e-07
1.25865e-06
7.56435e-07
1.26437e-06
2.78555e-07
2.54843e-07
7.40104e-08
2.52338e-07
7.46063e-08
7.64273e-07
1.26e-06
2.79645e-07
1.26586e-06
2.78993e-07
1.26517e-06
7.53813e-07
2.55174e-07
7.47791e-08
7.44926e-08
2.55838e-07
7.6433e-07
1.26009e-06
1.26572e-06
2.79617e-07
1.26522e-06
2.78994e-07
7.5386e-07
2.5517e-07
7.4768e-08
7.44755e-08
2.55826e-07
1.65246e-07
1.69503e-07
1.23721e-06
1.66754e-07
1.7105e-07
3.50801e-08
3.52835e-08
3.46722e-08
3.45563e-08
1.23844e-06
1.67177e-07
1.71523e-07
1.66512e-07
1.70942e-07
3.53444e-08
3.52642e-08
8.04727e-07
1.26465e-06
2.8438e-07
1.2605e-06
8.01892e-07
1.26575e-06
2.87442e-07
2.66433e-07
7.6172e-08
2.63567e-07
7.67258e-08
2.66403e-07
7.62071e-08
2.63548e-07
7.67455e-08
8.10009e-07