/*--------------------------------*- C++ -*----------------------------------*\
| =========                 |                                                 |
| \\      /  F ield         | OpenFOAM: The Open Source CFD Toolbox           |
|  \\    /   O peration     | Version:  2206                                  |
|   \\  /    A nd           | Website:  www.openfoam.com                      |
|    \\/     M anipulation  |                                                 |
\*---------------------------------------------------------------------------*/
FoamFile
{
    version     2.0;
    format      ascii;
    arch        "LSB;label=32;scalar=64";
    class       volScalarField;
    location    "0.2";
    object      p;
}
// * * * * * * * * * * * * * * * * * * * * * * * * * * * * * * * * * * * * * //

dimensions      [0 2 -2 0 0 0 0];

internalField   nonuniform List<scalar> 
66616
(
-0.000264567
-0.000247538
-0.00024778
-0.000218419
-0.000667718
-0.000675921
-0.000675576
-0.000656149
-0.000931439
-0.000933562
-0.000933396
-0.000920829
-0.00116089
-0.00115997
-0.00115992
-0.001146
-0.00140059
-0.00139956
-0.00139967
-0.00138347
-0.0016628
-0.00166255
-0.00166254
-0.00164577
-0.00193098
-0.00193103
-0.00193107
-0.00191426
-0.00219977
-0.00219979
-0.00219982
-0.00218311
-0.00246848
-0.00246854
-0.00246852
-0.00245182
-0.00273718
-0.00273719
-0.00273721
-0.00272052
-0.00300586
-0.00300591
-0.00300589
-0.00298922
-0.00327463
-0.0032746
-0.00327442
-0.00325793
-0.000190873
-0.00019662
-0.000196651
-0.00019092
-0.00019645
-0.000196514
-0.000190143
-0.000190154
-0.000190045
-0.000190057
-0.00019648
-0.000196579
-0.000190908
-0.00019657
-0.000196584
-0.000190978
-0.000218268
-0.000605824
-0.000247957
-0.000247997
-0.000573619
-0.000573575
-0.000218332
-0.000605816
-0.000247522
-0.000247793
-0.000574593
-0.000574439
-0.000247805
-0.000574619
-0.000574458
-0.000218338
-0.000605827
-0.000247816
-0.000573917
-0.000573914
-0.00060581
-0.000656125
-0.000892353
-0.000675437
-0.000675287
-0.000878008
-0.000878099
-0.000656138
-0.000892408
-0.00067587
-0.000675911
-0.000878183
-0.00087817
-0.00067593
-0.000878274
-0.000878171
-0.000656173
-0.000892372
-0.000675565
-0.000878122
-0.000878117
-0.0008924
-0.000920814
-0.00111803
-0.000933301
-0.000933371
-0.00110339
-0.00110335
-0.0009209
-0.00111803
-0.000933488
-0.000933443
-0.00110356
-0.00110358
-0.000933438
-0.00110356
-0.00110357
-0.000920809
-0.00111803
-0.000933393
-0.00110348
-0.00110347
-0.00111798
-0.00114615
-0.00135168
-0.00115987
-0.00115982
-0.00133617
-0.00133626
-0.00114614
-0.0013519
-0.00116001
-0.00115997
-0.00133613
-0.00133619
-0.00115996
-0.00133622
-0.0013362
-0.00114602
-0.00135168
-0.00115992
-0.00133622
-0.00133622
-0.00135169
-0.00138347
-0.00161218
-0.0013996
-0.0013997
-0.00159591
-0.00159594
-0.00138364
-0.00161217
-0.00139949
-0.00139948
-0.0015959
-0.00159587
-0.00139948
-0.00159589
-0.00159587
-0.00138346
-0.00161215
-0.00139968
-0.0015958
-0.00159584
-0.00161217
-0.00164579
-0.00188039
-0.00166262
-0.00166266
-0.00186382
-0.0018638
-0.00164576
-0.00188032
-0.00166256
-0.00166253
-0.00186378
-0.00186377
-0.00166252
-0.0018638
-0.00186377
-0.00164577
-0.0018804
-0.00166254
-0.00186386
-0.00186386
-0.0018804
-0.00191423
-0.00214927
-0.00193103
-0.00193098
-0.00213263
-0.00213264
-0.00191417
-0.00214925
-0.001931
-0.00193099
-0.00213262
-0.00213261
-0.00193099
-0.00213261
-0.0021326
-0.00191426
-0.00214928
-0.00193107
-0.00213264
-0.00213264
-0.00214928
-0.00218309
-0.00241799
-0.00219981
-0.00219984
-0.00240134
-0.0024013
-0.00218306
-0.00241793
-0.00219981
-0.00219979
-0.00240135
-0.00240133
-0.00219979
-0.00240138
-0.00240133
-0.00218311
-0.002418
-0.00219982
-0.00240135
-0.00240135
-0.002418
-0.00245181
-0.00268668
-0.00246851
-0.00246847
-0.00267003
-0.00267005
-0.00245174
-0.00268666
-0.00246851
-0.0024685
-0.00267004
-0.00267002
-0.0024685
-0.00267003
-0.00267002
-0.00245183
-0.00268668
-0.00246852
-0.00267004
-0.00267004
-0.00268669
-0.0027205
-0.00295537
-0.0027372
-0.00273723
-0.00293872
-0.00293869
-0.00272047
-0.00295531
-0.0027372
-0.00273718
-0.00293874
-0.00293872
-0.00273719
-0.00293877
-0.00293872
-0.00272052
-0.00295537
-0.00273721
-0.00293873
-0.00293873
-0.00295537
-0.0029892
-0.00322401
-0.00300588
-0.00300584
-0.00320731
-0.00320731
-0.00298913
-0.00322402
-0.00300588
-0.00300586
-0.00320749
-0.00320744
-0.00300587
-0.00320749
-0.00320748
-0.00298921
-0.00322401
-0.00300589
-0.00320729
-0.00320732
-0.00322403
-0.00325791
-0.00327443
-0.00327441
-0.00325791
-0.0032746
-0.00327457
-0.00327461
-0.0032579
-0.00327444
-7.19664e-05
-6.6532e-05
-6.88376e-05
-6.86928e-05
-6.19658e-05
-6.26568e-05
-0.000105232
-6.56915e-05
-6.19502e-05
-6.26475e-05
-6.57005e-05
-0.000105219
-5.79749e-05
-0.000114822
-0.000114825
-0.000371382
-8.06945e-05
-0.000157315
-0.000394203
-0.000142988
-0.000383526
-0.000371074
-8.05857e-05
-0.000157047
-0.000394104
-0.000264582
-0.000264581
-0.000264594
-0.000565189
-0.00056518
-0.000565409
-0.000565409
-0.000374944
-0.000148205
-0.000250059
-0.000343532
-0.000182335
-0.000387398
-0.000343885
-0.000142819
-0.000383426
-0.000375616
-0.000250406
-0.000148252
-0.00034402
-0.000182563
-0.000344508
-0.000387773
-0.00016629
-0.000166218
-0.000377548
-0.000384218
-0.000384428
-0.000779187
-0.000686629
-0.000679809
-0.000780272
-0.000684884
-0.000780265
-0.000779163
-0.000686807
-0.000681176
-0.000780237
-0.000667715
-0.000667663
-0.000667656
-0.000876457
-0.000876505
-0.000876397
-0.000876394
-0.000774465
-0.000675013
-0.000672218
-0.000756427
-0.000665087
-0.000775765
-0.000753902
-0.000685022
-0.000780216
-0.000773767
-0.000671184
-0.000673723
-0.000756294
-0.000662385
-0.000753415
-0.000775664
-0.000679623
-0.000679486
-0.000772492
-0.000777624
-0.000777527
-0.0010083
-0.000924028
-0.000924815
-0.00100692
-0.000924182
-0.00100703
-0.00100806
-0.00092379
-0.000924477
-0.00100671
-0.000931468
-0.000931388
-0.000931385
-0.00110373
-0.00110371
-0.00110376
-0.00110375
-0.00100626
-0.000923113
-0.000932808
-0.000989422
-0.000922975
-0.00100615
-0.000988782
-0.000923969
-0.00100687
-0.00100649
-0.000932645
-0.000923369
-0.000989267
-0.000923313
-0.000988658
-0.00100639
-0.000923611
-0.00092376
-0.00100507
-0.00100684
-0.00100692
-0.00122716
-0.00114292
-0.00114427
-0.00122666
-0.00114263
-0.00122604
-0.00122715
-0.00114272
-0.00114395
-0.00122659
-0.00116087
-0.00116091
-0.0011609
-0.00133716
-0.00133721
-0.00133714
-0.00133714
-0.00122843
-0.00114322
-0.00116063
-0.00121647
-0.00114467
-0.00122719
-0.00121708
-0.00114249
-0.00122604
-0.00122865
-0.00116072
-0.00114347
-0.00121651
-0.00114504
-0.00121733
-0.0012273
-0.00114291
-0.00114303
-0.00123103
-0.00122712
-0.00122715
-0.00147843
-0.00138018
-0.00138044
-0.00147821
-0.00137995
-0.00147829
-0.00147856
-0.00138032
-0.0013805
-0.00147835
-0.00140063
-0.00140054
-0.00140055
-0.00159628
-0.00159628
-0.00159622
-0.00159623
-0.00147896
-0.00138106
-0.00140003
-0.00146418
-0.00138197
-0.00147852
-0.00146454
-0.00138012
-0.00147847
-0.00147849
-0.00140005
-0.00138107
-0.00146413
-0.00138198
-0.00146439
-0.00147842
-0.00138078
-0.00138074
-0.00148003
-0.0014788
-0.0014787
-0.00174596
-0.0016456
-0.00164542
-0.00174616
-0.00164575
-0.0017462
-0.00174614
-0.0016457
-0.00164554
-0.00174627
-0.0016628
-0.00166273
-0.00166273
-0.0018638
-0.00186379
-0.00186378
-0.00186378
-0.00174581
-0.00164572
-0.00166263
-0.00172948
-0.00164584
-0.00174592
-0.00172955
-0.00164584
-0.00174631
-0.00174579
-0.00166279
-0.00164593
-0.00172953
-0.00164621
-0.00172969
-0.00174594
-0.00164567
-0.00164572
-0.00174597
-0.00174625
-0.00174627
-0.00201488
-0.00191436
-0.0019143
-0.00201493
-0.00191439
-0.00201492
-0.00201497
-0.00191439
-0.00191432
-0.00201496
-0.00193098
-0.00193098
-0.00193098
-0.00213259
-0.00213259
-0.00213259
-0.00213259
-0.00201468
-0.00191449
-0.00193098
-0.00199823
-0.0019145
-0.00201476
-0.00199818
-0.00191441
-0.00201495
-0.00201453
-0.00193107
-0.00191467
-0.00199827
-0.00191479
-0.00199826
-0.00201469
-0.00191432
-0.00191437
-0.00201487
-0.00201499
-0.00201498
-0.00228363
-0.00218309
-0.00218311
-0.00228366
-0.00218311
-0.00228362
-0.00228369
-0.00218309
-0.00218307
-0.00228367
-0.00219978
-0.00219977
-0.00219978
-0.00240131
-0.00240131
-0.00240131
-0.00240131
-0.00228343
-0.00218326
-0.00219976
-0.00226697
-0.00218329
-0.00228349
-0.00226695
-0.00218311
-0.00228366
-0.00228323
-0.00219979
-0.00218339
-0.002267
-0.00218352
-0.00226696
-0.00228338
-0.00218305
-0.00218308
-0.00228364
-0.0022837
-0.00228368
-0.00255233
-0.0024518
-0.00245182
-0.00255235
-0.00245182
-0.00255234
-0.00255238
-0.00245179
-0.00245178
-0.00255236
-0.00246848
-0.00246849
-0.00246849
-0.00267001
-0.00267001
-0.00267001
-0.00267001
-0.00255212
-0.00245196
-0.00246846
-0.0025357
-0.002452
-0.00255218
-0.00253564
-0.0024518
-0.00255235
-0.00255192
-0.00246849
-0.00245208
-0.00253569
-0.00245221
-0.00253566
-0.00255207
-0.00245175
-0.00245177
-0.00255234
-0.00255239
-0.00255237
-0.00282101
-0.00272049
-0.00272051
-0.00282103
-0.0027205
-0.002821
-0.00282106
-0.00272048
-0.00272047
-0.00282104
-0.00273718
-0.00273718
-0.00273718
-0.00293869
-0.00293869
-0.0029387
-0.0029387
-0.00282081
-0.00272065
-0.00273716
-0.00280437
-0.00272069
-0.00282087
-0.00280435
-0.0027205
-0.00282103
-0.0028206
-0.00273718
-0.00272077
-0.00280439
-0.0027209
-0.00280435
-0.00282075
-0.00272044
-0.00272046
-0.00282103
-0.00282108
-0.00282105
-0.00308968
-0.00298918
-0.0029892
-0.00308971
-0.00298921
-0.0030897
-0.00308974
-0.00298919
-0.00298918
-0.00308972
-0.00300587
-0.00300586
-0.00300587
-0.00320744
-0.00320746
-0.0032074
-0.00320744
-0.00308949
-0.00298936
-0.00300584
-0.00307312
-0.0029894
-0.00308954
-0.00307307
-0.0029892
-0.0030897
-0.00308926
-0.00300585
-0.00298948
-0.00307305
-0.0029896
-0.00307298
-0.00308941
-0.00298915
-0.00298916
-0.00308971
-0.00308976
-0.00308974
-0.00335819
-0.00325783
-0.00325794
-0.0033583
-0.00325789
-0.00335837
-0.00325792
-0.00325794
-0.00327463
-0.00327459
-0.00327461
-0.00335825
-0.00325812
-0.00327466
-0.00334183
-0.0032582
-0.00335828
-0.00334196
-0.00325792
-0.00335824
-0.00327423
-0.00325815
-0.00325857
-0.0033418
-0.00325788
-0.00325785
-0.00335834
-0.00335845
-0.00335836
-5.80896e-05
-0.000114645
-0.000114632
-0.000108129
-0.000169547
-0.000108352
-0.000169532
-9.46175e-05
-0.00014024
-0.000140083
-0.000148653
-0.000148646
-6.19905e-05
-6.26015e-05
-0.000105243
-6.58522e-05
-6.19855e-05
-6.25777e-05
-0.000105302
-6.58522e-05
-0.000122289
-0.000107265
-0.000167917
-0.000160442
-0.000122275
-0.000107369
-0.000167901
-0.000160444
-0.000110163
-9.46009e-05
-0.000159813
-0.00017924
-0.000138584
-9.69602e-05
-0.000164777
-0.000110156
-9.45797e-05
-0.000159747
-0.000179242
-0.000138674
-9.69604e-05
-0.000164774
-5.80516e-05
-0.000114863
-0.000114626
-0.00010831
-0.000169514
-9.45826e-05
-0.000140183
-0.000140262
-0.000148183
-0.000148643
-0.000108317
-0.000169535
-6.1964e-05
-6.26585e-05
-0.00010523
-6.56887e-05
-6.19621e-05
-6.25456e-05
-6.56962e-05
-0.000105265
-0.000122217
-0.000107574
-0.000167887
-0.000160304
-0.000110087
-9.4785e-05
-0.000159832
-0.000178765
-0.000138571
-9.66965e-05
-0.000164514
-0.000122222
-0.000107559
-0.000167839
-0.000160303
-0.000110086
-9.45341e-05
-0.000178821
-0.000159792
-9.67063e-05
-0.000138623
-0.000164521
-7.19676e-05
-6.65322e-05
-6.88383e-05
-6.86959e-05
-7.19401e-05
-6.64995e-05
-6.86935e-05
-6.86943e-05
-7.19414e-05
-6.65082e-05
-6.8696e-05
-6.86932e-05
-0.000105043
-9.67358e-05
-0.000193095
-0.000192319
-0.000100191
-9.99076e-05
-0.000196597
-0.000105044
-9.67443e-05
-0.000193099
-0.000192332
-0.000100192
-9.99131e-05
-0.000196599
-0.000105026
-9.66936e-05
-0.000192473
-0.000192422
-9.99154e-05
-9.99553e-05
-0.000196514
-0.000105027
-9.67289e-05
-0.000192484
-0.000192421
-9.992e-05
-9.99534e-05
-0.000196515
-6.19624e-05
-6.25132e-05
-6.57007e-05
-0.000105267
-0.000110097
-9.47985e-05
-0.000159914
-0.000178779
-0.000138571
-9.67018e-05
-0.000164532
-0.000122226
-0.000107554
-0.000167896
-0.000160322
-0.000110094
-9.44773e-05
-0.000178833
-0.000159875
-9.67124e-05
-0.000138629
-0.00016454
-0.000122229
-0.000107567
-0.000167845
-0.000160322
-5.80324e-05
-0.000114824
-0.000114611
-0.000108223
-0.000169462
-9.4556e-05
-0.000140154
-0.000140238
-0.000148135
-0.000148637
-0.000108182
-0.000169527
-6.19477e-05
-6.26472e-05
-6.56998e-05
-0.000105268
-0.000110105
-9.48016e-05
-0.000178943
-0.000159784
-9.6753e-05
-0.000138562
-0.000164652
-0.000110101
-9.48223e-05
-0.000178945
-0.000159711
-9.67519e-05
-0.000138634
-0.00016465
-0.000122238
-0.000107258
-0.000167889
-0.000160363
-0.000122226
-0.000107344
-0.000167858
-0.000160369
-9.44859e-05
-0.000140311
-0.000140156
-0.000148142
-0.000148147
-0.000108246
-0.000169464
-0.000108332
-0.000169478
-0.00014287
-0.000383492
-0.000142782
-0.000383385
-0.000166231
-0.000165977
-0.000377583
-0.000384394
-0.000384189
-0.000646564
-0.00044892
-0.000646512
-0.000448877
-0.000441022
-0.000637972
-0.000638443
-0.000453513
-0.000453474
-0.000371397
-8.07803e-05
-0.000157314
-0.00039423
-0.000375642
-0.000148272
-0.000250761
-0.000343658
-0.00018267
-0.000387756
-0.000344969
-0.000375656
-0.000148293
-0.000250764
-0.000343706
-0.000182666
-0.000387771
-0.000344972
-0.000464248
-0.00064693
-0.000469022
-0.000639523
-0.000464256
-0.000646951
-0.000469046
-0.000639526
-0.000458066
-0.00045731
-0.000630944
-0.000568341
-0.000464631
-0.000454266
-0.000618825
-0.000458076
-0.000457332
-0.000630955
-0.000568334
-0.000464651
-0.000454264
-0.000618828
-0.000166241
-0.000166132
-0.000377585
-0.000384446
-0.000384166
-0.000142772
-0.000383399
-0.000646596
-0.000448957
-0.000441033
-0.000638046
-0.000638399
-0.000453566
-0.000453443
-0.000646509
-0.000448886
-0.000374926
-0.000148139
-0.000250038
-0.00034354
-0.000182315
-0.000387396
-0.000343869
-0.000371083
-8.06199e-05
-0.000157056
-0.000394129
-0.00037494
-0.000250182
-0.000148214
-0.000343367
-0.000182329
-0.000344126
-0.000387396
-0.000464069
-0.000647298
-0.000469007
-0.000640906
-0.000457025
-0.000457155
-0.000631966
-0.000570414
-0.000464237
-0.000453801
-0.000619237
-0.000464085
-0.000647292
-0.000469017
-0.000640902
-0.000457039
-0.000456912
-0.000570338
-0.000631928
-0.000453757
-0.000464212
-0.000619215
-0.000371087
-8.05726e-05
-0.000157066
-0.000394129
-0.000374958
-0.000250198
-0.000148272
-0.000343342
-0.00018235
-0.000344142
-0.000387395
-0.000371099
-8.0616e-05
-0.000157074
-0.000394165
-0.000457042
-0.000457156
-0.000631971
-0.000570379
-0.000464245
-0.000453796
-0.000619244
-0.000464084
-0.000647309
-0.000469036
-0.000640918
-0.000457056
-0.000456906
-0.000570339
-0.000631924
-0.00045376
-0.000464216
-0.000619219
-0.000464102
-0.000647292
-0.00046904
-0.000640914
-0.000166154
-0.000166204
-0.000377583
-0.000384237
-0.000384381
-0.000142878
-0.000383495
-0.00064652
-0.0004489
-0.000440967
-0.000638447
-0.000637997
-0.000453462
-0.000453554
-0.000646596
-0.000448943
-0.00037563
-0.000250412
-0.000148278
-0.000344065
-0.000182559
-0.000344514
-0.000387789
-0.000371375
-8.06904e-05
-0.000157258
-0.000394207
-0.00037139
-8.07829e-05
-0.000157257
-0.000394233
-0.000458102
-0.000457667
-0.000569107
-0.000631016
-0.000454476
-0.00046468
-0.000618959
-0.000458111
-0.000457696
-0.000569107
-0.000631037
-0.000454483
-0.000464699
-0.000618964
-0.000464255
-0.000646988
-0.000469043
-0.000639616
-0.000464262
-0.000647013
-0.000469068
-0.000639619
-0.000142814
-0.000383451
-0.000143003
-0.00038353
-0.00044094
-0.00063841
-0.000638064
-0.00045343
-0.000453598
-0.000646513
-0.000448914
-0.000646627
-0.000448977
-0.000684858
-0.000780276
-0.000685007
-0.000780184
-0.000679435
-0.000679615
-0.000772429
-0.000777505
-0.000777557
-0.000895841
-0.000809835
-0.000895639
-0.000809694
-0.00080454
-0.000895446
-0.000895306
-0.000808092
-0.000808004
-0.00077919
-0.000686645
-0.000679811
-0.000780279
-0.000773628
-0.000673648
-0.000670301
-0.000756248
-0.000662229
-0.000775638
-0.000752959
-0.000773634
-0.000673652
-0.000670309
-0.000756026
-0.000662233
-0.000775626
-0.000752991
-0.000809408
-0.000895725
-0.000809739
-0.000896382
-0.000809411
-0.000895741
-0.000809748
-0.000896386
-0.000806458
-0.000820879
-0.000894606
-0.000877273
-0.000807265
-0.000819346
-0.000893848
-0.000806466
-0.00082078
-0.000894608
-0.000877298
-0.000807242
-0.000819384
-0.000893845
-0.000679499
-0.000679583
-0.000772459
-0.000777425
-0.000777581
-0.000685012
-0.000780206
-0.000895841
-0.000809834
-0.000804478
-0.000895436
-0.000895308
-0.000808054
-0.000808004
-0.00089562
-0.000809707
-0.000774461
-0.000675018
-0.000672212
-0.000756373
-0.000665084
-0.000775806
-0.000753889
-0.000779171
-0.00068681
-0.00068117
-0.000780262
-0.00077448
-0.000672109
-0.000675023
-0.000756531
-0.000665074
-0.000753918
-0.000775874
-0.000809176
-0.000895531
-0.000809575
-0.000896118
-0.0008061
-0.000821019
-0.000894317
-0.000877456
-0.000807009
-0.000819702
-0.000894257
-0.000809183
-0.000895541
-0.000809601
-0.000896122
-0.000806109
-0.000821124
-0.000877481
-0.000894335
-0.000819763
-0.000807057
-0.000894263
-0.00077917
-0.000686814
-0.000681186
-0.000780244
-0.000774485
-0.000672111
-0.00067503
-0.00075653
-0.000665075
-0.000753928
-0.000775875
-0.000779177
-0.000686815
-0.00068118
-0.000780268
-0.000806106
-0.000821081
-0.00089437
-0.000877437
-0.000806999
-0.000819701
-0.000894258
-0.000809181
-0.000895532
-0.000809582
-0.000896122
-0.000806114
-0.000821121
-0.000877493
-0.000894337
-0.000819778
-0.000807055
-0.000894267
-0.000809188
-0.000895544
-0.000809608
-0.000896126
-0.000679626
-0.000679471
-0.000772501
-0.0007776
-0.000777538
-0.000684905
-0.000780304
-0.000895655
-0.000809724
-0.000804608
-0.000895332
-0.00089544
-0.000808039
-0.000808117
-0.000895832
-0.000809855
-0.000773767
-0.000671181
-0.000673731
-0.000756251
-0.000662391
-0.000753403
-0.000775676
-0.000779238
-0.00068669
-0.000679918
-0.000780303
-0.000779242
-0.00068671
-0.000679922
-0.000780318
-0.00080653
-0.00082094
-0.000877256
-0.000894614
-0.000819444
-0.000807277
-0.000893863
-0.000806528
-0.000820942
-0.000877251
-0.000894609
-0.000819442
-0.000807278
-0.000893863
-0.000809427
-0.000895723
-0.000809751
-0.000896359
-0.000809427
-0.000895714
-0.000809752
-0.000896358
-0.00068503
-0.00078023
-0.000684918
-0.000780293
-0.000804609
-0.000895342
-0.000895418
-0.000808051
-0.000808106
-0.000895662
-0.000809735
-0.000895814
-0.000809847
-0.00092418
-0.00100704
-0.000923952
-0.00100685
-0.000923779
-0.00092359
-0.00100536
-0.00100695
-0.00100681
-0.00111533
-0.00103453
-0.00111515
-0.00103432
-0.00103373
-0.00111567
-0.00111552
-0.00103441
-0.0010342
-0.0010083
-0.000924037
-0.000924816
-0.00100692
-0.0010065
-0.000923353
-0.000932686
-0.000989256
-0.000923314
-0.0010064
-0.000988673
-0.0010065
-0.000923374
-0.000932686
-0.000989227
-0.000923313
-0.00100638
-0.00098865
-0.00103595
-0.00111557
-0.00103452
-0.00111706
-0.00103595
-0.00111555
-0.00103451
-0.00111706
-0.00103492
-0.00104618
-0.00111567
-0.0011038
-0.00103432
-0.00104601
-0.00111694
-0.00103492
-0.00104614
-0.00111566
-0.00110378
-0.0010343
-0.00104599
-0.00111693
-0.000923791
-0.000923591
-0.00100533
-0.00100693
-0.00100682
-0.000923937
-0.00100686
-0.0011153
-0.00103451
-0.00103363
-0.00111566
-0.00111552
-0.00103438
-0.00103421
-0.00111515
-0.00103432
-0.00100626
-0.000923079
-0.000932818
-0.000989443
-0.000922972
-0.00100614
-0.000988793
-0.00100807
-0.000923812
-0.000924479
-0.00100672
-0.00100627
-0.000932834
-0.000923093
-0.000989323
-0.00092298
-0.000988812
-0.00100618
-0.00103559
-0.00111538
-0.00103425
-0.00111689
-0.00103452
-0.00104653
-0.00111548
-0.00110397
-0.00103403
-0.00104625
-0.00111675
-0.00103559
-0.0011154
-0.00103425
-0.00111689
-0.00103453
-0.00104644
-0.00110398
-0.0011155
-0.00104626
-0.00103407
-0.00111677
-0.00100807
-0.000923794
-0.00092448
-0.00100672
-0.00100628
-0.000932847
-0.000923095
-0.000989319
-0.000922985
-0.000988821
-0.00100619
-0.00100808
-0.000923816
-0.000924483
-0.00100673
-0.00103452
-0.00104653
-0.00111549
-0.00110398
-0.00103404
-0.00104624
-0.00111676
-0.00103559
-0.00111538
-0.00103426
-0.00111689
-0.00103453
-0.00104643
-0.00110398
-0.00111551
-0.00104626
-0.00103408
-0.00111678
-0.0010356
-0.00111541
-0.00103426
-0.0011169
-0.000923604
-0.000923777
-0.00100509
-0.00100683
-0.00100693
-0.000924172
-0.00100703
-0.00111516
-0.00103433
-0.00103347
-0.00111554
-0.00111567
-0.00103422
-0.00103439
-0.00111533
-0.00103453
-0.00100649
-0.000932641
-0.000923361
-0.00098926
-0.000923311
-0.000988653
-0.00100638
-0.00100829
-0.000924021
-0.000924795
-0.00100691
-0.00100829
-0.00092401
-0.000924793
-0.0010069
-0.00103493
-0.00104629
-0.00110388
-0.0011157
-0.00104608
-0.00103432
-0.00111696
-0.00103493
-0.00104627
-0.00110388
-0.00111569
-0.00104608
-0.00103431
-0.00111696
-0.00103595
-0.00111558
-0.00103452
-0.00111708
-0.00103595
-0.00111557
-0.00103451
-0.00111707
-0.000923975
-0.00100688
-0.000924154
-0.00100702
-0.00103345
-0.00111556
-0.00111566
-0.00103425
-0.00103438
-0.00111518
-0.00103435
-0.00111532
-0.00103451
-0.00114264
-0.00122606
-0.00114247
-0.00122602
-0.00114304
-0.00114288
-0.00123105
-0.00122713
-0.0012271
-0.00134767
-0.00125546
-0.00134781
-0.00125549
-0.00126042
-0.00134864
-0.00134873
-0.00125657
-0.00125653
-0.00122716
-0.00114291
-0.00114427
-0.00122665
-0.00122861
-0.00114344
-0.0011607
-0.00121635
-0.00114501
-0.00122726
-0.00121728
-0.00122861
-0.00114344
-0.0011607
-0.00121627
-0.00114501
-0.00122723
-0.00121729
-0.00125644
-0.00134801
-0.00125614
-0.00134819
-0.00125644
-0.00134801
-0.00125615
-0.00134818
-0.00125844
-0.00127484
-0.00134862
-0.0013368
-0.00125697
-0.00127564
-0.0013494
-0.00125844
-0.00127487
-0.00134864
-0.0013368
-0.00125695
-0.00127564
-0.0013494
-0.00114305
-0.00114287
-0.00123033
-0.00122708
-0.00122715
-0.00114247
-0.00122605
-0.00134767
-0.00125544
-0.00126
-0.00134864
-0.0013487
-0.00125652
-0.00125655
-0.00134777
-0.00125552
-0.00122842
-0.00114322
-0.00116063
-0.00121657
-0.00114466
-0.00122714
-0.00121708
-0.00122715
-0.00114274
-0.00114396
-0.0012266
-0.00122842
-0.00116063
-0.00114324
-0.00121654
-0.00114468
-0.00121708
-0.00122715
-0.00125643
-0.00134817
-0.00125606
-0.00134839
-0.00125825
-0.00127501
-0.00134868
-0.00133671
-0.00125689
-0.00127548
-0.00134949
-0.00125643
-0.00134814
-0.00125606
-0.00134839
-0.00125824
-0.00127491
-0.00133675
-0.00134866
-0.0012755
-0.00125688
-0.0013495
-0.00122716
-0.00114273
-0.00114396
-0.00122662
-0.00122842
-0.00116063
-0.00114324
-0.00121654
-0.00114468
-0.00121708
-0.00122715
-0.00122715
-0.00114274
-0.00114397
-0.0012266
-0.00125825
-0.00127498
-0.00134868
-0.00133672
-0.00125688
-0.0012755
-0.00134949
-0.00125643
-0.00134814
-0.00125609
-0.00134839
-0.00125824
-0.00127492
-0.00133675
-0.00134866
-0.0012755
-0.00125688
-0.0013495
-0.00125643
-0.00134814
-0.00125606
-0.00134839
-0.0011429
-0.00114304
-0.00123105
-0.00122713
-0.00122716
-0.00114266
-0.0012261
-0.0013478
-0.00125551
-0.00126053
-0.00134872
-0.00134869
-0.00125656
-0.00125662
-0.00134771
-0.00125551
-0.00122865
-0.00116072
-0.00114346
-0.0012165
-0.00114504
-0.00121732
-0.0012273
-0.0012272
-0.00114294
-0.00114429
-0.0012267
-0.0012272
-0.00114293
-0.00114429
-0.0012267
-0.00125849
-0.00127498
-0.00133678
-0.0013487
-0.00127569
-0.00125704
-0.00134947
-0.00125849
-0.00127498
-0.00133678
-0.0013487
-0.00127569
-0.00125704
-0.00134947
-0.00125649
-0.00134805
-0.00125621
-0.00134822
-0.00125649
-0.00134805
-0.00125621
-0.00134822
-0.00114249
-0.00122603
-0.00114264
-0.00122609
-0.00126054
-0.00134872
-0.00134868
-0.00125655
-0.00125661
-0.0013478
-0.00125551
-0.00134771
-0.0012555
-0.00137995
-0.00147831
-0.00138012
-0.00147846
-0.00138069
-0.00138079
-0.00148003
-0.00147865
-0.00147878
-0.001612
-0.00151182
-0.00161209
-0.00151193
-0.00151308
-0.00161195
-0.00161206
-0.00151195
-0.00151203
-0.00147842
-0.00138018
-0.00138044
-0.00147818
-0.00147847
-0.00138099
-0.00140001
-0.00146426
-0.00138191
-0.00147837
-0.00146448
-0.00147847
-0.00138101
-0.00140003
-0.00146425
-0.00138191
-0.00147837
-0.00146449
-0.0015118
-0.00161181
-0.00151165
-0.00161167
-0.0015118
-0.00161181
-0.00151163
-0.00161167
-0.00151269
-0.0015297
-0.00161149
-0.00159617
-0.00151206
-0.00152998
-0.00161154
-0.00151269
-0.0015297
-0.00161148
-0.00159619
-0.00151206
-0.00152998
-0.00161154
-0.00138069
-0.00138075
-0.00148004
-0.00147863
-0.00147876
-0.00138008
-0.00147845
-0.00161199
-0.00151181
-0.00151308
-0.00161195
-0.00161201
-0.00151194
-0.00151201
-0.00161207
-0.00151192
-0.00147897
-0.00138105
-0.00140004
-0.00146418
-0.00138197
-0.00147852
-0.00146456
-0.00147856
-0.0013803
-0.0013805
-0.00147835
-0.00147897
-0.00140006
-0.00138104
-0.00146416
-0.00138197
-0.00146458
-0.00147853
-0.00151188
-0.00161195
-0.00151176
-0.00161187
-0.00151261
-0.00152971
-0.00161167
-0.00159602
-0.00151219
-0.00152992
-0.00161176
-0.00151188
-0.00161196
-0.00151177
-0.00161188
-0.00151262
-0.0015297
-0.00159603
-0.00161169
-0.00152994
-0.0015122
-0.00161176
-0.00147855
-0.0013803
-0.0013805
-0.00147834
-0.00147897
-0.00140007
-0.00138104
-0.00146416
-0.00138197
-0.00146458
-0.00147853
-0.00147856
-0.0013803
-0.0013805
-0.00147835
-0.00151261
-0.0015297
-0.00161166
-0.00159601
-0.00151219
-0.00152991
-0.00161176
-0.00151187
-0.00161194
-0.00151175
-0.00161188
-0.00151261
-0.0015297
-0.00159603
-0.00161168
-0.00152994
-0.0015122
-0.00161176
-0.00151188
-0.00161195
-0.00151176
-0.00161187
-0.00138078
-0.00138073
-0.00148003
-0.0014788
-0.0014787
-0.00137999
-0.00147837
-0.00161212
-0.00151195
-0.00151308
-0.00161208
-0.00161205
-0.00151205
-0.00151201
-0.0016121
-0.00151189
-0.00147849
-0.00140005
-0.00138107
-0.00146414
-0.00138198
-0.00146441
-0.00147842
-0.00147848
-0.00138022
-0.00138048
-0.00147826
-0.00147848
-0.00138022
-0.00138048
-0.00147826
-0.00151275
-0.00152964
-0.00159611
-0.00161162
-0.00152993
-0.00151212
-0.00161173
-0.00151275
-0.00152966
-0.00159609
-0.0016116
-0.00152993
-0.00151212
-0.00161174
-0.00151188
-0.00161194
-0.00151172
-0.00161182
-0.00151188
-0.00161194
-0.00151172
-0.00161182
-0.00138011
-0.00147847
-0.00138
-0.00147837
-0.00151308
-0.00161206
-0.00161204
-0.00151205
-0.00151201
-0.00161211
-0.00151194
-0.00161209
-0.00151189
-0.00164575
-0.00174623
-0.00164582
-0.00174628
-0.00164562
-0.00164565
-0.001746
-0.00174617
-0.00174622
-0.00188055
-0.00178002
-0.00188059
-0.00178006
-0.00177981
-0.00188056
-0.00188059
-0.00177991
-0.00177992
-0.00174596
-0.00164559
-0.00164542
-0.00174617
-0.0017456
-0.00164578
-0.00166283
-0.00172957
-0.00164602
-0.0017458
-0.00172973
-0.0017456
-0.00164579
-0.00166284
-0.00172966
-0.00164603
-0.00174583
-0.00172972
-0.00177981
-0.00188056
-0.00177997
-0.00188044
-0.00177981
-0.00188057
-0.00177997
-0.00188044
-0.00178024
-0.00179666
-0.00188026
-0.00186389
-0.00178015
-0.00179677
-0.00188003
-0.00178025
-0.00179671
-0.00188025
-0.00186387
-0.00178018
-0.00179674
-0.00188003
-0.00164565
-0.00164561
-0.00174609
-0.00174611
-0.00174626
-0.0016458
-0.0017463
-0.00188058
-0.00178
-0.00177991
-0.0018806
-0.00188057
-0.00177987
-0.00177997
-0.00188057
-0.00178009
-0.00174581
-0.00164573
-0.00166264
-0.0017295
-0.00164584
-0.00174591
-0.00172955
-0.00174615
-0.00164571
-0.00164554
-0.00174629
-0.00174582
-0.00166265
-0.00164575
-0.00172948
-0.00164584
-0.00172956
-0.00174594
-0.0017799
-0.00188062
-0.00178005
-0.00188057
-0.00178005
-0.0017966
-0.00188035
-0.00186378
-0.00178006
-0.00179662
-0.00188024
-0.0017799
-0.00188063
-0.00178007
-0.00188057
-0.00178005
-0.00179659
-0.0018638
-0.00188037
-0.00179664
-0.00178008
-0.00188025
-0.00174614
-0.00164569
-0.00164554
-0.00174629
-0.00174582
-0.00166265
-0.00164574
-0.00172947
-0.00164584
-0.00172956
-0.00174593
-0.00174615
-0.00164571
-0.00164554
-0.00174629
-0.00178005
-0.00179659
-0.00188035
-0.00186379
-0.00178008
-0.00179663
-0.00188025
-0.0017799
-0.00188061
-0.00178006
-0.00188057
-0.00178005
-0.00179658
-0.0018638
-0.00188037
-0.00179664
-0.00178008
-0.00188025
-0.0017799
-0.00188063
-0.00178007
-0.00188057
-0.00164568
-0.00164572
-0.00174598
-0.00174626
-0.00174627
-0.00164586
-0.00174632
-0.00188061
-0.00178009
-0.00177981
-0.00188062
-0.00188062
-0.00177995
-0.00178001
-0.00188062
-0.00178012
-0.00174579
-0.00166279
-0.00164592
-0.00172949
-0.00164622
-0.00172968
-0.00174595
-0.00174611
-0.00164573
-0.00164558
-0.0017463
-0.00174612
-0.00164573
-0.00164558
-0.00174631
-0.00178042
-0.00179666
-0.00186389
-0.00188033
-0.00179671
-0.00178028
-0.00188015
-0.00178043
-0.00179665
-0.00186389
-0.00188033
-0.0017967
-0.00178029
-0.00188015
-0.00177996
-0.00188064
-0.00178009
-0.00188054
-0.00177996
-0.00188064
-0.0017801
-0.00188054
-0.00164584
-0.00174631
-0.00164586
-0.00174633
-0.0017798
-0.00188062
-0.00188062
-0.00177995
-0.00178001
-0.00188061
-0.00178009
-0.00188062
-0.00178013
-0.00191437
-0.00201492
-0.00191439
-0.00201494
-0.00191431
-0.0019143
-0.00201486
-0.00201495
-0.00201497
-0.00214929
-0.00204874
-0.0021493
-0.00204874
-0.00204869
-0.00214932
-0.00214934
-0.00204869
-0.00204868
-0.00201488
-0.00191437
-0.0019143
-0.00201493
-0.00201447
-0.0019146
-0.00193105
-0.00199824
-0.00191468
-0.00201467
-0.00199824
-0.00201447
-0.0019146
-0.00193105
-0.00199821
-0.00191469
-0.00201466
-0.00199824
-0.00204873
-0.0021493
-0.00204873
-0.00214927
-0.00204873
-0.0021493
-0.00204873
-0.00214927
-0.00204911
-0.00206544
-0.00214904
-0.00213261
-0.00204901
-0.00206542
-0.00214886
-0.00204911
-0.00206544
-0.00214903
-0.00213261
-0.00204901
-0.00206543
-0.00214886
-0.00191435
-0.00191427
-0.00201485
-0.00201495
-0.00201496
-0.00191437
-0.00201493
-0.00214929
-0.00204874
-0.00204869
-0.00214933
-0.00214933
-0.0020487
-0.00204867
-0.00214929
-0.00204873
-0.00201468
-0.0019145
-0.00193098
-0.00199822
-0.00191449
-0.00201476
-0.00199818
-0.00201497
-0.0019144
-0.00191433
-0.00201497
-0.00201469
-0.001931
-0.00191451
-0.00199821
-0.00191449
-0.00199821
-0.00201477
-0.00204871
-0.00214932
-0.00204874
-0.00214933
-0.00204892
-0.00206542
-0.00214913
-0.00213257
-0.0020489
-0.00206538
-0.00214907
-0.00204871
-0.00214932
-0.00204875
-0.00214934
-0.00204892