/*--------------------------------*- C++ -*----------------------------------*\
| =========                 |                                                 |
| \\      /  F ield         | OpenFOAM: The Open Source CFD Toolbox           |
|  \\    /   O peration     | Version:  2206                                  |
|   \\  /    A nd           | Website:  www.openfoam.com                      |
|    \\/     M anipulation  |                                                 |
\*---------------------------------------------------------------------------*/
FoamFile
{
    version     2.0;
    format      ascii;
    arch        "LSB;label=32;scalar=64";
    class       volScalarField;
    location    "110";
    object      k;
}
// * * * * * * * * * * * * * * * * * * * * * * * * * * * * * * * * * * * * * //

dimensions      [0 2 -2 0 0 0 0];

internalField   nonuniform List<scalar> 
66928
(
8.79329e-05
8.60231e-05
8.56868e-05
8.79683e-05
8.80197e-05
8.49145e-05
8.80047e-05
8.78795e-05
5.50938e-05
5.48655e-05
1.64243e-05
1.64742e-05
4.24081e-05
4.23271e-05
2.57841e-05
7.33779e-05
2.55258e-05
6.98724e-05
7.30556e-05
6.77664e-05
9.21985e-05
2.60321e-05
7.01956e-05
6.89303e-05
7.38789e-05
9.14026e-05
1.66808e-05
4.2829e-05
4.28455e-05
1.66204e-05
7.30616e-05
2.58781e-05
1.65738e-05
1.67149e-05
1.64266e-05
1.64398e-05
4.24869e-05
4.24696e-05
8.81281e-05
4.26945e-05
4.27019e-05
1.68755e-05
1.67753e-05
1.66641e-05
1.6641e-05
8.78234e-05
4.35549e-05
4.27038e-05
4.34848e-05
4.25235e-05
1.64432e-05
7.02234e-05
8.86074e-05
4.27561e-05
2.58351e-05
2.59098e-05
8.82165e-05
7.01669e-05
6.90907e-05
8.80005e-05
4.2069e-05
2.56288e-05
2.57035e-05
8.81264e-05
6.91546e-05
3.205e-05
1.4789e-05
1.47899e-05
1.48197e-05
1.48052e-05
3.21008e-05
2.56216e-05
4.02748e-05
4.0747e-05
1.53762e-05
3.97935e-05
1.52378e-05
6.27912e-05
2.21885e-05
2.01698e-05
4.02622e-05
1.54663e-05
2.21703e-05
6.42543e-05
2.04474e-05
7.04479e-05
8.89605e-05
4.29761e-05
2.59365e-05
8.89109e-05
2.6043e-05
7.03618e-05
7.07487e-05
8.82981e-05
4.28123e-05
2.60672e-05
2.62604e-05
8.88616e-05
7.09609e-05
3.28719e-05
1.51096e-05
1.50269e-05
1.51505e-05
1.51358e-05
3.28139e-05
1.65846e-05
2.60698e-05
4.07037e-05
4.07991e-05
1.5522e-05
1.649e-05
1.66399e-05
1.65116e-05
1.65123e-05
3.21623e-05
1.48689e-05
1.48379e-05
1.48793e-05
1.48743e-05
3.2095e-05
7.04069e-05
8.89692e-05
2.59747e-05
4.24994e-05
7.04089e-05
2.59931e-05
8.87613e-05
6.94133e-05
8.84948e-05
2.58312e-05
4.23545e-05
6.94701e-05
2.57957e-05
8.71693e-05
3.20294e-05
1.48311e-05
1.48478e-05
3.18583e-05
1.48377e-05
1.482e-05
6.99046e-05
2.6047e-05
4.27674e-05
8.87206e-05
2.60563e-05
7.01232e-05
8.78525e-05
6.92856e-05
2.56467e-05
4.24146e-05
8.77274e-05
2.58614e-05
6.86953e-05
8.79466e-05
1.68636e-05
1.67581e-05
1.67235e-05
1.65298e-05
3.21997e-05
1.49371e-05
1.49338e-05
3.22879e-05
1.49384e-05
1.49007e-05
7.01538e-05
8.85738e-05
4.36238e-05
2.61617e-05
2.63141e-05
8.90844e-05
6.94362e-05
6.89041e-05
8.72464e-05
4.29645e-05
2.58555e-05
2.59586e-05
8.74845e-05
6.91957e-05
7.03113e-05
2.61763e-05
8.87924e-05
4.3439e-05
7.01908e-05
2.61605e-05
8.86893e-05
6.87476e-05
2.59459e-05
8.75114e-05
4.25515e-05
6.88885e-05
2.58923e-05
8.62488e-05
3.23653e-05
1.50035e-05
1.49094e-05
1.50078e-05
1.49222e-05
3.23561e-05
9.18283e-05
8.77629e-05
9.60762e-05
9.49494e-05
9.47105e-05
9.51709e-05
9.16845e-05
9.28059e-05
8.6708e-05
9.71915e-05
9.5656e-05
9.69683e-05
9.51684e-05
9.28401e-05
9.21722e-05
9.57873e-05
9.63831e-05
8.83234e-05
9.20997e-05
9.49857e-05
9.54513e-05
9.15507e-05
8.75847e-05
9.45921e-05
9.52898e-05
9.62925e-05
9.53239e-05
9.13595e-05
3.95371e-05
4.00097e-05
9.0999e-05
9.46017e-05
7.2748e-05
8.57841e-05
9.4585e-05
8.57296e-05
9.10738e-05
9.16858e-05
9.28202e-05
7.3089e-05
8.62834e-05
9.33001e-05
8.52149e-05
9.20745e-05
8.80235e-05
9.22141e-05
9.18556e-05
8.42563e-05
9.17889e-05
8.31643e-05
8.7679e-05
9.15931e-05
9.47311e-05
7.43628e-05
8.72164e-05
8.72866e-05
9.4457e-05
9.29329e-05
8.86612e-05
9.04506e-05
8.45952e-05
9.14924e-05
8.3549e-05
9.11732e-05
8.8334e-05
9.04023e-05
9.3385e-05
7.34642e-05
8.6498e-05
9.40876e-05
8.61388e-05
9.1294e-05
9.24328e-05
8.79995e-05
9.59991e-05
9.49391e-05
9.22956e-05
9.45395e-05
9.58545e-05
9.16952e-05
8.77497e-05
9.59515e-05
9.54531e-05
9.16693e-05
9.62655e-05
9.56112e-05
5.43111e-05
8.62232e-05
8.55706e-05
8.75781e-05
5.46295e-05
8.71236e-05
8.56264e-05
8.75452e-05
5.56443e-05
8.77017e-05
8.46116e-05
8.67194e-05
5.49068e-05
8.56298e-05
8.46933e-05
8.75828e-05
5.60343e-05
8.69654e-05
8.62888e-05
8.73445e-05
5.4798e-05
8.79065e-05
8.64179e-05
8.80968e-05
5.48248e-05
8.79772e-05
8.52478e-05
8.71357e-05
5.53637e-05
8.76547e-05
8.64792e-05
8.71415e-05
5.53044e-05
8.7141e-05
8.63719e-05
8.73861e-05
5.50029e-05
8.72416e-05
8.616e-05
8.53415e-05
5.55154e-05
8.64156e-05
8.62779e-05
8.6827e-05
5.45887e-05
8.74545e-05
8.60976e-05
8.73315e-05
5.52162e-05
8.61677e-05
8.63292e-05
8.57612e-05
5.53686e-05
8.6219e-05
8.57033e-05
8.71025e-05
5.52405e-05
8.78209e-05
8.46807e-05
8.60365e-05
5.5164e-05
8.63857e-05
8.44174e-05
8.61993e-05
5.5785e-05
8.73317e-05
8.59471e-05
8.74896e-05
8.59325e-05
8.4965e-05
8.58035e-05
8.54028e-05
8.75591e-05
8.77722e-05
8.52359e-05
8.79324e-05
8.64999e-05
8.64867e-05
8.59039e-05
8.69544e-05
8.6119e-05
8.84889e-05
8.87994e-05
8.51273e-05
8.58786e-05
8.52227e-05
8.79584e-05
8.75261e-05
8.7593e-05
8.54852e-05
8.5692e-05
8.55759e-05
8.55941e-05
8.88643e-05
8.89181e-05
8.5624e-05
8.70835e-05
8.64635e-05
8.65828e-05
8.69801e-05
8.63719e-05
8.71851e-05
8.84418e-05
8.8059e-05
8.46159e-05
8.57956e-05
8.48937e-05
8.61332e-05
8.7768e-05
8.83299e-05
8.56772e-05
8.47326e-05
8.5076e-05
8.63164e-05
8.89436e-05
8.85572e-05
8.63428e-05
8.72259e-05
8.50855e-05
8.80798e-05
8.73437e-05
8.67823e-05
8.69237e-05
8.81777e-05
8.87652e-05
8.51267e-05
8.53058e-05
8.51458e-05
8.72764e-05
8.83465e-05
8.81677e-05
8.42527e-05
8.52118e-05
8.60384e-05
8.48582e-05
8.87549e-05
8.85516e-05
8.63578e-05
8.71756e-05
8.72372e-05
8.80294e-05
8.56817e-05
8.76512e-05
8.51994e-05
8.85105e-05
8.79499e-05
8.56937e-05
8.63339e-05
8.5853e-05
8.79585e-05
8.83516e-05
8.68434e-05
8.51178e-05
8.46199e-05
8.37817e-05
8.63345e-05
8.83307e-05
8.82658e-05
8.54983e-05
8.79643e-05
8.68348e-05
8.81365e-05
8.64804e-05
8.71116e-05
8.73526e-05
8.81711e-05
8.89701e-05
8.50168e-05
8.65692e-05
8.52905e-05
8.69153e-05
8.77728e-05
8.84032e-05
8.53373e-05
8.58755e-05
8.38863e-05
8.5269e-05
8.85434e-05
8.69964e-05
8.68678e-05
8.76485e-05
8.74225e-05
8.77993e-05
8.66741e-05
8.81385e-05
8.66889e-05
8.78549e-05
8.95365e-05
8.56042e-05
8.67094e-05
8.59214e-05
8.65114e-05
8.85226e-05
8.79568e-05
8.44673e-05
8.56057e-05
8.35832e-05
8.52682e-05
8.78948e-05
8.82494e-05
8.72911e-05
8.61366e-05
8.72672e-05
8.78172e-05
8.66868e-05
8.78407e-05
8.60098e-05
8.88803e-05
8.92659e-05
8.56944e-05
8.66071e-05
8.42849e-05
8.78789e-05
8.74797e-05
8.76235e-05
8.41121e-05
8.61906e-05
8.45342e-05
8.60303e-05
8.85225e-05
8.62471e-05
8.67046e-05
8.79395e-05
8.73118e-05
8.66852e-05
8.75574e-05
8.69723e-05
8.64912e-05
8.94612e-05
8.80384e-05
8.58114e-05
8.59751e-05
8.47133e-05
8.69627e-05
8.75497e-05
8.72811e-05
8.3528e-05
8.48219e-05
8.47575e-05
8.47071e-05
8.70389e-05
8.77347e-05
8.63321e-05
8.779e-05
8.60356e-05
8.70201e-05
8.61548e-05
8.75488e-05
8.78487e-05
8.92169e-05
8.73235e-05
8.5928e-05
8.51254e-05
8.43403e-05
8.70788e-05
8.75879e-05
8.7537e-05
8.53099e-05
8.63041e-05
8.54485e-05
8.59628e-05
8.79384e-05
8.57037e-05
8.57929e-05
8.81366e-05
8.62243e-05
8.67303e-05
8.75286e-05
8.72792e-05
8.73244e-05
8.85825e-05
8.82383e-05
8.35564e-05
8.62334e-05
8.45979e-05
8.59802e-05
8.72381e-05
8.65506e-05
8.56688e-05
8.62414e-05
8.50379e-05
8.56055e-05
8.68279e-05
8.77943e-05
8.56663e-05
8.81235e-05
8.63125e-05
8.76515e-05
8.63031e-05
8.62537e-05
8.57543e-05
8.85062e-05
8.79467e-05
8.49034e-05
8.62104e-05
8.49471e-05
8.60771e-05
8.79352e-05
8.7111e-05
8.51359e-05
8.60738e-05
8.51942e-05
8.4914e-05
8.76796e-05
8.75324e-05
8.63087e-05
8.81825e-05
8.62542e-05
8.73257e-05
8.72307e-05
8.51862e-05
8.70665e-05
8.83325e-05
8.81641e-05
8.49873e-05
8.66918e-05
8.46918e-05
8.64222e-05
8.6115e-05
8.75605e-05
8.52332e-05
8.63447e-05
8.56169e-05
8.65892e-05
8.73038e-05
8.74087e-05
8.60266e-05
8.64121e-05
8.62426e-05
8.74348e-05
8.69844e-05
8.61435e-05
8.6726e-05
8.84287e-05
8.80477e-05
8.49955e-05
8.55915e-05
8.36893e-05
8.70599e-05
8.68339e-05
8.7876e-05
8.58856e-05
8.66313e-05
8.45385e-05
8.57456e-05
8.86598e-05
8.81605e-05
8.66163e-05
8.72228e-05
8.65458e-05
8.78531e-05
8.65997e-05
8.77078e-05
8.71265e-05
8.80503e-05
8.89167e-05
8.43118e-05
8.36846e-05
8.4681e-05
8.76279e-05
8.77911e-05
8.60252e-05
8.38479e-05
8.6241e-05
8.47595e-05
8.63555e-05
8.8338e-05
8.81131e-05
8.53782e-05
8.69786e-05
8.71732e-05
8.7448e-05
8.67289e-05
8.75404e-05
8.69978e-05
8.88506e-05
8.86189e-05
8.36821e-05
8.53965e-05
8.46333e-05
8.75702e-05
8.71511e-05
8.84222e-05
8.42803e-05
8.49233e-05
8.54638e-05
8.59869e-05
8.8218e-05
8.76876e-05
8.74116e-05
8.73594e-05
8.66154e-05
8.69021e-05
8.71373e-05
8.72037e-05
8.62593e-05
8.78244e-05
8.75553e-05
8.38574e-05
8.57711e-05
8.51634e-05
8.73829e-05
8.85142e-05
8.5986e-05
8.6161e-05
8.78523e-05
8.71021e-05
8.7758e-05
8.56779e-05
8.66455e-05
8.72677e-05
8.53783e-05
8.53101e-05
8.66017e-05
7.04213e-05
2.59542e-05
7.01497e-05
2.62018e-05
1.67786e-05
1.69232e-05
7.04321e-05
2.56487e-05
7.02424e-05
2.55993e-05
5.43188e-05
5.52194e-05
5.35644e-05
5.47423e-05
5.53224e-05
5.53088e-05
5.39456e-05
9.32355e-05
7.39451e-05
7.0332e-05
8.67029e-05
7.46046e-05
7.03557e-05
9.33463e-05
1.66737e-05
1.6774e-05
9.32371e-05
6.61587e-05
7.41774e-05
8.55688e-05
6.64015e-05
7.39762e-05
9.29512e-05
4.27241e-05
4.2424e-05
8.77263e-05
4.27123e-05
4.2485e-05
7.11062e-05
2.63688e-05
7.12675e-05
2.63074e-05
1.68506e-05
1.68818e-05
7.11582e-05
2.609e-05
7.09542e-05
2.61435e-05
5.53493e-05
5.56329e-05
5.40788e-05
5.56629e-05
5.48471e-05
5.50686e-05
5.41869e-05
9.40184e-05
7.44303e-05
6.88229e-05
8.58339e-05
9.39333e-05
7.41279e-05
6.97809e-05
1.69626e-05
1.69884e-05
9.20356e-05
6.77969e-05
7.48652e-05
8.4454e-05
9.26569e-05
6.79407e-05
7.36969e-05
4.27429e-05
4.27806e-05
8.77115e-05
4.27413e-05
4.22197e-05
7.07798e-05
2.60817e-05
7.14949e-05
2.61499e-05
1.68781e-05
1.6936e-05
7.05009e-05
2.58472e-05
7.11171e-05
2.58599e-05
5.54324e-05
5.53098e-05
5.44352e-05
5.56181e-05
5.59013e-05
5.57289e-05
5.517e-05
9.36696e-05
7.39441e-05
7.0302e-05
8.79888e-05
9.33468e-05
7.33902e-05
7.00701e-05
1.72075e-05
1.71798e-05
9.21485e-05
6.80811e-05
7.45721e-05
8.59555e-05
9.29645e-05
6.82312e-05
7.32932e-05
4.27358e-05
4.29292e-05
8.72611e-05
4.28182e-05
4.29464e-05
7.17688e-05
2.61774e-05
7.12758e-05
2.61921e-05
1.69835e-05
1.69168e-05
7.11722e-05
2.60359e-05
7.09788e-05
2.61613e-05
5.57351e-05
5.56713e-05
5.53276e-05
5.51338e-05
5.44365e-05
5.52651e-05
5.55884e-05
9.3935e-05
7.37316e-05
7.0297e-05
8.69145e-05
9.3772e-05
7.37562e-05
6.92372e-05
1.72536e-05
1.72523e-05
9.29402e-05
6.71412e-05
7.34368e-05
8.62833e-05
9.15712e-05
6.83287e-05
7.40838e-05
4.2754e-05
4.28688e-05
8.77542e-05
4.27864e-05
4.28307e-05
7.08702e-05
2.59374e-05
7.16239e-05
2.58603e-05
1.69282e-05
1.6866e-05
6.99126e-05
2.62193e-05
7.03223e-05
2.61433e-05
5.51634e-05
5.53386e-05
5.56702e-05
5.5762e-05
5.56705e-05
5.62463e-05
5.58837e-05
9.29828e-05
7.37046e-05
7.05621e-05
8.77717e-05
9.37978e-05
7.42371e-05
7.0214e-05
1.73339e-05
1.71923e-05
9.22017e-05
6.83799e-05
7.31401e-05
8.64628e-05
9.21929e-05
6.85102e-05
7.35237e-05
4.24935e-05
4.27488e-05
8.79605e-05
4.26034e-05
4.26001e-05
7.0942e-05
2.56364e-05
7.16105e-05
2.56106e-05
1.68533e-05
1.68418e-05
7.07548e-05
2.61057e-05
7.05036e-05
2.6059e-05
5.52314e-05
5.64218e-05
5.57089e-05
5.56818e-05
5.55952e-05
5.51905e-05
5.59804e-05
9.28788e-05
7.41798e-05
7.04102e-05
8.7623e-05
9.40408e-05
7.42703e-05
6.97991e-05
1.72032e-05
1.70771e-05
9.19623e-05
6.84076e-05
7.38124e-05
8.68142e-05
9.15931e-05
6.87349e-05
7.44565e-05
4.24592e-05
4.24684e-05
8.80758e-05
4.24255e-05
4.25105e-05
7.16095e-05
2.58793e-05
7.16833e-05
2.55774e-05
1.68376e-05
1.66733e-05
7.1149e-05
2.60382e-05
7.04679e-05
2.58916e-05
5.50771e-05
5.60763e-05
5.48403e-05
5.5188e-05
5.60032e-05
5.62386e-05
5.58173e-05
9.36536e-05
7.40929e-05
6.98852e-05
8.6695e-05
9.25966e-05
7.3887e-05
6.94826e-05
1.69931e-05
1.68754e-05
9.26123e-05
6.86187e-05
7.43764e-05
8.63908e-05
9.22356e-05
6.86301e-05
7.33587e-05
4.23035e-05
4.22112e-05
8.71622e-05
4.25893e-05
4.24617e-05
7.14655e-05
2.58321e-05
7.17117e-05
2.57088e-05
1.67886e-05
1.6848e-05
7.03329e-05
2.57561e-05
7.08106e-05
2.58052e-05
5.57723e-05
5.63148e-05
5.59264e-05
5.5352e-05
5.59746e-05
5.55675e-05
5.47999e-05
9.35887e-05
7.31644e-05
6.96356e-05
8.57576e-05
9.31357e-05
7.31212e-05
7.08011e-05
1.68639e-05
1.67747e-05
9.22906e-05
6.82106e-05
7.412e-05
8.67423e-05
9.19148e-05
6.77978e-05
7.33722e-05
4.23706e-05
4.24945e-05
8.68193e-05
4.23152e-05
4.25889e-05
7.15382e-05
2.58959e-05
7.11376e-05
2.5882e-05
1.69199e-05
1.68887e-05
7.09764e-05
2.59996e-05
7.0955e-05
2.59159e-05
5.59955e-05
5.53299e-05
5.55981e-05
5.44421e-05
5.53836e-05
5.55819e-05
5.60898e-05
9.2563e-05
7.36209e-05
7.05631e-05
8.73456e-05
9.39044e-05
7.35716e-05
7.00079e-05
1.6813e-05
1.6819e-05
9.2424e-05
6.77549e-05
7.36624e-05
8.53842e-05
9.26765e-05
6.80391e-05
7.38431e-05
4.25453e-05
4.20977e-05
8.75059e-05
4.23686e-05
4.1961e-05
7.07035e-05
2.5913e-05
7.17189e-05
2.58811e-05
1.69202e-05
1.69605e-05
7.1046e-05
2.59214e-05
7.08858e-05
2.57783e-05
5.50516e-05
5.53793e-05
5.6054e-05
5.44436e-05
5.5171e-05
5.56258e-05
5.59526e-05
9.25075e-05
7.28489e-05
7.03454e-05
8.60186e-05
9.16204e-05
7.33107e-05
6.95452e-05
1.68298e-05
1.67925e-05
9.28805e-05
6.81258e-05
7.29437e-05
8.6513e-05
9.18174e-05
6.80794e-05
7.35135e-05
4.25278e-05
4.21538e-05
8.54894e-05
4.25661e-05
4.23969e-05
7.17128e-05
2.56737e-05
7.09854e-05
2.55139e-05
1.68139e-05
1.69491e-05
7.09545e-05
2.59369e-05
7.07878e-05
2.58186e-05
5.5137e-05
5.64645e-05
5.59611e-05
5.52903e-05
5.50734e-05
5.6581e-05
5.54704e-05
9.36232e-05
7.24393e-05
7.06963e-05
8.5772e-05
9.3007e-05
7.21377e-05
7.04714e-05
1.68409e-05
1.68366e-05
9.08275e-05
6.82086e-05
7.37074e-05
8.48402e-05
9.22539e-05
6.83165e-05
7.32315e-05
4.24547e-05
4.20042e-05
8.73328e-05
4.27649e-05
4.24805e-05
7.155e-05
2.55459e-05
7.11678e-05
2.58474e-05
1.69102e-05
1.68492e-05
7.12883e-05
2.58803e-05
7.09543e-05
2.59245e-05
5.57378e-05
5.63388e-05
5.43703e-05
5.49671e-05
5.53505e-05
5.61568e-05
5.44886e-05
9.40599e-05
7.30071e-05
7.01478e-05
8.70204e-05
9.27496e-05
7.33526e-05
6.99445e-05
1.67935e-05
1.68252e-05
9.13375e-05
6.78198e-05
7.29928e-05
8.64908e-05
9.17677e-05
6.74568e-05
7.33347e-05
4.21448e-05
4.24042e-05
8.7407e-05
4.20624e-05
4.23719e-05
7.10712e-05
2.59767e-05
7.15147e-05
2.60017e-05
1.67912e-05
1.68081e-05
7.11917e-05
2.59116e-05
7.07697e-05
2.60919e-05
5.55401e-05
5.5884e-05
5.55347e-05
5.54764e-05
5.56176e-05
5.58525e-05
5.54967e-05
9.41643e-05
7.29316e-05
6.95515e-05
8.64232e-05
9.43092e-05
7.36785e-05
6.97855e-05
1.68021e-05
1.67494e-05
9.08496e-05
6.66942e-05
7.34157e-05
8.64553e-05
9.13617e-05
6.79406e-05
7.26813e-05
4.216e-05
4.19944e-05
8.68938e-05
4.24274e-05
4.2193e-05
7.06464e-05
2.6045e-05
7.06267e-05
2.6085e-05
1.69648e-05
1.69132e-05
7.16372e-05
2.60183e-05
7.12443e-05
2.60594e-05
5.48149e-05
5.58486e-05
5.54312e-05
5.42615e-05
5.52049e-05
5.5753e-05
5.43042e-05
9.28265e-05
7.32815e-05
7.04896e-05
8.59692e-05
9.29243e-05
7.35937e-05
7.06436e-05
1.68612e-05
1.68623e-05
9.25877e-05
6.65682e-05
7.30892e-05
8.43054e-05
9.17916e-05
6.73839e-05
7.22045e-05
4.23896e-05
4.21663e-05
8.61672e-05
4.23928e-05
4.22639e-05
7.17447e-05
2.59445e-05
7.17025e-05
2.57749e-05
1.68892e-05
1.6858e-05
7.15743e-05
2.60396e-05
7.10983e-05
2.60959e-05
5.5666e-05
5.55991e-05
5.52437e-05
5.43531e-05
5.55563e-05
5.56664e-05
5.54701e-05
9.30498e-05
7.35794e-05
7.07897e-05
8.76057e-05
9.30538e-05
7.34521e-05
7.07988e-05
1.68905e-05
1.68836e-05
9.19071e-05
6.75284e-05
7.32705e-05
8.40848e-05
9.18771e-05
6.67164e-05
7.35049e-05
4.23171e-05
4.21393e-05
8.61022e-05
4.22233e-05
4.2114e-05
7.17937e-05
2.60133e-05
7.13608e-05
2.58078e-05
1.68448e-05
1.69009e-05
7.16594e-05
2.62029e-05
7.16907e-05
2.61209e-05
5.5483e-05
5.57237e-05
5.55923e-05
5.56997e-05
5.58127e-05
5.54914e-05
5.51601e-05
9.25016e-05
7.31028e-05
6.98386e-05
8.71348e-05
9.34044e-05
7.36776e-05
7.09067e-05
1.68602e-05
1.68151e-05
9.24423e-05
6.70317e-05
7.39488e-05
8.4104e-05
9.22958e-05
6.72106e-05
7.39471e-05
4.21823e-05
4.2177e-05
8.68195e-05
4.23717e-05
4.24012e-05
7.24414e-05
2.56203e-05
7.21921e-05
2.57735e-05
1.6923e-05
1.69012e-05
7.12723e-05
2.5967e-05
7.11793e-05
2.59945e-05
5.55909e-05
5.57784e-05
5.53752e-05
5.48689e-05
9.36655e-05
7.29514e-05
7.03547e-05
8.72486e-05
9.38199e-05
7.34255e-05
7.01737e-05
1.6833e-05
1.68505e-05
9.27181e-05
6.79502e-05
7.37275e-05
8.57437e-05
9.18838e-05
6.81793e-05
7.31284e-05
4.24342e-05
4.21912e-05
8.67592e-05
4.23607e-05
4.23786e-05
7.09077e-05
2.65343e-05
2.64658e-05
7.02932e-05
8.97159e-05
7.40208e-05
6.64984e-05
8.49511e-05
6.62382e-05
9.0965e-05
7.36795e-05
9.00794e-05
7.4587e-05
6.6303e-05
8.43097e-05
7.3923e-05
6.5305e-05
9.10951e-05
7.11125e-05
2.64079e-05
7.05937e-05
2.62331e-05
7.06148e-05
2.63411e-05
2.64199e-05
7.06562e-05
9.10711e-05
8.43734e-05
7.4543e-05
6.67383e-05
6.64185e-05
9.04299e-05
7.47707e-05
9.1243e-05
8.57257e-05
7.40401e-05
6.64331e-05
7.44243e-05
6.64975e-05
9.14763e-05
4.34211e-05
4.24433e-05
8.77033e-05
4.36327e-05
4.30042e-05
1.66738e-05
1.66547e-05
1.6888e-05
1.68692e-05
8.75718e-05
4.32462e-05
4.312e-05
4.33662e-05
4.32302e-05
1.68416e-05
1.68537e-05
9.1379e-05
7.30854e-05
6.72245e-05
8.68201e-05
6.81308e-05
9.2435e-05
7.3089e-05
7.05503e-05
2.61856e-05
2.5978e-05
7.05953e-05
9.11251e-05
6.92038e-05
7.37955e-05
8.64592e-05
6.93073e-05
7.45193e-05
9.18843e-05
7.0868e-05
2.59701e-05
7.09088e-05
2.58251e-05
9.27124e-05
8.69179e-05
7.37832e-05
6.76911e-05
6.82351e-05
9.30068e-05
7.35474e-05
7.07894e-05
2.62764e-05
2.63778e-05
7.04674e-05
9.24781e-05
8.52515e-05
6.93753e-05
7.39156e-05
6.97427e-05
7.45478e-05
9.26646e-05
7.14394e-05
2.63027e-05
2.62105e-05
7.19766e-05
9.36615e-05
6.90581e-05
7.38622e-05
8.58844e-05
6.97059e-05
7.35914e-05
9.34475e-05
7.20093e-05
2.60194e-05
2.61242e-05
7.12671e-05
9.36086e-05
8.71258e-05
7.37034e-05
7.00843e-05
7.49532e-05
7.00096e-05
9.4126e-05
7.13539e-05
2.62952e-05
2.65311e-05
7.23003e-05
9.29319e-05
8.61933e-05
6.91501e-05
7.37043e-05
6.97951e-05
7.38571e-05
9.27524e-05
7.23367e-05
2.6053e-05
2.62158e-05
7.23867e-05
4.31086e-05
4.33482e-05
8.86212e-05
4.31611e-05
4.35537e-05
1.65819e-05
1.68102e-05
1.69111e-05
1.67622e-05
8.8712e-05
4.33524e-05
4.33744e-05
4.33383e-05
4.36866e-05
1.68638e-05
1.68394e-05
9.20301e-05
6.63591e-05
7.39439e-05
8.51508e-05
6.75048e-05
7.31811e-05
9.25763e-05
7.2268e-05
2.61905e-05
2.61958e-05
7.21681e-05
7.27733e-05
2.60415e-05
2.62202e-05
7.18192e-05
9.32531e-05
8.54725e-05
6.76616e-05
7.48597e-05
6.62787e-05
7.40178e-05
9.28107e-05
9.32995e-05
8.39803e-05
6.78903e-05
7.42659e-05
6.77967e-05
7.43034e-05
9.31159e-05
7.27742e-05
2.62698e-05
2.61412e-05
7.17829e-05
7.29506e-05
2.60283e-05
2.63312e-05
7.22643e-05
1.65943e-05
1.66342e-05
1.64432e-05
1.65501e-05
8.75854e-05
4.28421e-05
4.28318e-05
4.28975e-05
4.26498e-05
1.66906e-05
1.66845e-05
1.6632e-05
1.65619e-05
1.69046e-05
1.69442e-05
1.67553e-05
1.67784e-05
4.35268e-05
4.30949e-05
8.73492e-05
4.37739e-05
4.29954e-05
1.68837e-05
1.69517e-05
1.68544e-05
1.68471e-05
8.59557e-05
4.3689e-05
4.32222e-05
4.35391e-05
4.31979e-05
7.10354e-05
2.62936e-05
7.1163e-05
2.63555e-05
9.0497e-05
7.41907e-05
6.69423e-05
8.56537e-05
9.04852e-05
7.3694e-05
6.71167e-05
9.16841e-05
7.51853e-05
6.649e-05
8.61991e-05
9.1383e-05
7.43205e-05
6.65299e-05
7.08911e-05
2.60981e-05
2.63519e-05
7.17241e-05
7.16358e-05
2.65191e-05
2.6465e-05
7.12106e-05
9.18936e-05
8.60068e-05
7.3975e-05
6.6134e-05
7.46665e-05
6.71538e-05
9.09349e-05
9.19676e-05
8.48841e-05
7.44176e-05
6.68092e-05
7.53059e-05
6.6473e-05
9.04095e-05
4.3924e-05
4.32048e-05
8.77889e-05
4.36448e-05
4.3228e-05
1.6869e-05
1.68472e-05
1.69092e-05
1.68522e-05
8.73507e-05
4.36345e-05
4.34232e-05
4.38119e-05
4.34007e-05
1.69001e-05
1.68938e-05
9.31972e-05
7.41533e-05
6.91345e-05
8.69402e-05
9.25804e-05
7.42757e-05
6.9087e-05
7.06597e-05
2.65691e-05
7.04327e-05
2.66369e-05
9.29677e-05
6.97138e-05
7.50172e-05
8.63004e-05
9.16196e-05
6.91732e-05
7.51839e-05
7.12754e-05
2.60105e-05
2.62639e-05
7.1303e-05
9.23531e-05
8.64605e-05
7.39757e-05
6.92923e-05
7.45373e-05
6.92592e-05
9.27763e-05
7.15201e-05
2.64977e-05
2.67441e-05
7.14155e-05
9.31649e-05
8.72612e-05
7.00646e-05
7.54586e-05
7.03989e-05
7.48126e-05
9.21793e-05
7.26035e-05
2.64193e-05
7.22158e-05
2.62917e-05
9.30105e-05
6.94987e-05
7.35882e-05
8.7559e-05
9.4074e-05
6.98306e-05
7.33314e-05
7.25699e-05
2.62944e-05
7.26676e-05
2.62859e-05
9.41222e-05
8.69604e-05
7.42415e-05
7.01702e-05
7.45286e-05
7.01485e-05
9.34117e-05
7.25473e-05
2.63926e-05
2.63886e-05
7.21363e-05
9.41118e-05
8.73495e-05
6.99082e-05
7.35699e-05
6.99536e-05
7.4208e-05
9.29603e-05
7.27878e-05
2.63244e-05
2.64561e-05
7.24417e-05
4.34618e-05
4.34611e-05
8.80565e-05
4.34125e-05
4.31069e-05
1.68609e-05
1.68205e-05
1.71578e-05
1.70016e-05
8.79917e-05
4.38451e-05
4.32304e-05
4.37103e-05
4.29057e-05
1.68842e-05
1.68211e-05
9.28792e-05
6.70398e-05
7.4296e-05
8.48057e-05
9.31693e-05
6.79209e-05
7.36397e-05
7.24996e-05
2.63738e-05
7.14036e-05
2.64013e-05
7.23212e-05
2.63698e-05
7.3116e-05
2.62742e-05
9.29809e-05
8.57833e-05
6.69309e-05
7.45692e-05
6.77433e-05
7.47187e-05
9.30411e-05
9.21035e-05
8.5141e-05
6.76659e-05
7.44009e-05
6.68516e-05
7.43294e-05
9.32989e-05
7.2672e-05
2.6139e-05
2.64579e-05
7.23812e-05
7.29547e-05
2.64446e-05
2.61919e-05
7.28933e-05
1.66294e-05
1.66974e-05
1.66833e-05
1.66498e-05
8.78651e-05
4.27251e-05
4.29976e-05
4.29188e-05
4.28245e-05
1.676e-05
1.67434e-05
1.67517e-05
1.66532e-05
1.69055e-05
1.68266e-05
1.68832e-05
1.68052e-05
4.39121e-05
4.34065e-05
8.76354e-05
4.37189e-05
4.3294e-05
1.69088e-05
1.67939e-05
1.68274e-05
1.68476e-05
8.80227e-05
4.37001e-05
4.3224e-05
4.33787e-05
4.34071e-05
7.16951e-05
2.65156e-05
7.16772e-05
2.65501e-05
9.1878e-05
7.43971e-05
6.71933e-05
8.54054e-05
9.19913e-05
7.3621e-05
6.68435e-05
9.14508e-05
7.47113e-05
6.66748e-05
8.62099e-05
9.14082e-05
7.4255e-05
6.67884e-05
7.11677e-05
2.6212e-05
2.61338e-05
7.06757e-05
7.15998e-05
2.62593e-05
2.64983e-05
7.13616e-05
9.08263e-05
8.52888e-05
7.40951e-05
6.66762e-05
7.40321e-05
6.69319e-05
9.12866e-05
9.08192e-05
8.62399e-05
7.49916e-05
6.61441e-05
7.51376e-05
6.65016e-05
9.09428e-05
4.37252e-05
4.35891e-05
8.89617e-05
4.32253e-05
4.35352e-05
1.70068e-05
1.69777e-05
1.69544e-05
1.69155e-05
8.7427e-05
4.35625e-05
4.297e-05
4.37425e-05
4.36899e-05
1.68844e-05
1.70023e-05
9.23724e-05
7.33315e-05
6.928e-05
8.6337e-05
9.22819e-05
7.38598e-05
6.88791e-05
7.18081e-05
2.67757e-05
7.18787e-05
2.68137e-05
9.3695e-05
7.0107e-05
7.55456e-05
8.78085e-05
9.35221e-05
7.00427e-05
7.53627e-05
7.09654e-05
2.61603e-05
2.61397e-05
7.09708e-05
9.36822e-05
8.63737e-05
7.39185e-05
6.98957e-05
7.42411e-05
7.00697e-05
9.23763e-05
7.20336e-05
2.68846e-05
2.68966e-05
7.15257e-05
9.34281e-05
8.79857e-05
6.98676e-05
7.5602e-05
6.99968e-05
7.50795e-05
9.3102e-05
7.22256e-05
2.64699e-05
7.23953e-05
2.63782e-05
9.4534e-05
6.9307e-05
7.44648e-05
8.73791e-05
9.44094e-05
6.87645e-05
7.42724e-05
7.19618e-05
2.65318e-05
7.23245e-05
2.63086e-05
9.40149e-05
8.80463e-05
7.4296e-05
7.04292e-05
7.4558e-05
7.03095e-05
9.37485e-05
7.24011e-05
2.60599e-05
2.64907e-05
7.2463e-05
9.4398e-05
8.74736e-05
6.90272e-05
7.37087e-05
7.01059e-05
7.37316e-05
9.4358e-05
7.27564e-05
2.64283e-05
2.64186e-05
7.27601e-05
4.4106e-05
4.37663e-05
8.85106e-05
4.38375e-05
4.32293e-05
1.68786e-05
1.68783e-05
1.7214e-05
1.72085e-05
8.86206e-05
4.38512e-05
4.32888e-05
4.3946e-05
4.37679e-05
1.67555e-05
1.69048e-05
9.30578e-05
6.7991e-05
7.43979e-05
8.51286e-05
9.27516e-05
6.80477e-05
7.40463e-05
7.2253e-05
2.64351e-05
7.20218e-05
2.6348e-05
7.28107e-05
2.64346e-05
7.27261e-05
2.64036e-05
9.18764e-05
8.57617e-05
6.74943e-05
7.42143e-05
6.75503e-05
7.40465e-05
9.24769e-05
9.22541e-05
8.52082e-05
6.69287e-05
7.43422e-05
6.73768e-05
7.48621e-05
9.31704e-05
7.25724e-05
2.62489e-05
2.63823e-05
7.23459e-05
7.26441e-05
2.64092e-05
2.62472e-05
7.26305e-05
1.67938e-05
1.67389e-05
1.67281e-05
1.67537e-05
8.74033e-05
4.28287e-05
4.29056e-05
4.30063e-05
4.3254e-05
1.67456e-05
1.67696e-05
1.66803e-05
1.67871e-05
1.6808e-05
1.68349e-05
1.68528e-05
1.68213e-05
4.38188e-05
4.33893e-05
8.67485e-05
4.37143e-05
4.28408e-05
1.67109e-05
1.6845e-05
1.6827e-05
1.68621e-05
8.6095e-05
4.3312e-05
4.3052e-05
4.38161e-05
4.33642e-05
7.21234e-05
2.64291e-05
7.13318e-05
2.65279e-05
9.18509e-05
7.37946e-05
6.66737e-05
8.57854e-05
9.02818e-05
7.40984e-05
6.52584e-05
9.11322e-05
7.47672e-05
6.73756e-05
8.57564e-05
9.19769e-05
7.47973e-05
6.72363e-05
7.14615e-05
2.57085e-05
2.61062e-05
7.17188e-05
7.22947e-05
2.6444e-05
2.63761e-05
7.16269e-05
9.21497e-05
8.58875e-05
7.35874e-05
6.52325e-05
7.3858e-05
6.62093e-05
9.18806e-05
9.24737e-05
8.49015e-05
7.39978e-05
6.55833e-05
7.47862e-05
6.61646e-05
9.20987e-05
4.38375e-05
4.35294e-05
8.85021e-05
4.33118e-05
4.33808e-05
1.69333e-05
1.68999e-05
1.6795e-05
1.68171e-05
8.85319e-05
4.34855e-05
4.32186e-05
4.37127e-05
4.35758e-05
1.69286e-05
1.69555e-05
9.17229e-05
7.34155e-05
7.01762e-05
8.54275e-05
9.19663e-05
7.43681e-05
6.96518e-05
7.15867e-05
2.69867e-05
7.08782e-05
2.69289e-05
9.21202e-05
7.01995e-05
7.55825e-05
8.67134e-05
9.32808e-05
7.00233e-05
7.5296e-05
7.12233e-05
2.62754e-05
2.62733e-05
7.13065e-05
9.29036e-05
8.70317e-05
7.42589e-05
7.01833e-05
7.46125e-05
6.99083e-05
9.21545e-05
7.18162e-05
2.69445e-05
2.7023e-05
7.13278e-05
9.17253e-05
8.77646e-05
7.03662e-05
7.5459e-05
6.91191e-05
7.57776e-05
9.23054e-05
7.24363e-05
2.63761e-05
7.26401e-05
2.63799e-05
9.29928e-05
7.01188e-05
7.2888e-05
8.68974e-05
9.3646e-05
7.01589e-05
7.32453e-05
7.24088e-05
2.63977e-05
7.29896e-05
2.59841e-05
9.34674e-05
8.74871e-05
7.31356e-05
7.04929e-05
7.414e-05
7.04069e-05
9.38869e-05
7.26786e-05
2.64124e-05
2.64746e-05
7.22892e-05
9.44133e-05
8.63717e-05
7.03265e-05
7.3436e-05
7.00765e-05
7.37086e-05
9.39168e-05
7.28947e-05
2.62699e-05
2.63387e-05
7.27964e-05
4.37035e-05
4.37518e-05
8.8426e-05
4.374e-05
4.34707e-05
1.68637e-05
1.67362e-05
1.72854e-05
1.72069e-05
8.85015e-05
4.40462e-05
4.32906e-05
4.40556e-05
4.35184e-05
1.67366e-05
1.68155e-05
9.34333e-05
6.81451e-05
7.37253e-05
8.46798e-05
9.23678e-05
6.71155e-05
7.39177e-05
7.19468e-05
2.62575e-05
7.23683e-05
2.62629e-05
7.20767e-05
2.622e-05
7.2231e-05
2.62436e-05
9.2968e-05
8.63031e-05
6.80558e-05
7.38321e-05
6.72304e-05
7.43947e-05
9.14159e-05
9.33935e-05
8.58734e-05
6.72262e-05
7.34815e-05
6.78956e-05
7.32794e-05
9.25682e-05
7.23493e-05
2.63013e-05
2.63079e-05
7.2363e-05
7.2828e-05
2.60811e-05
2.61697e-05
7.24639e-05
1.67691e-05
1.67137e-05
1.65946e-05
1.6677e-05
8.76318e-05
4.27561e-05
4.28726e-05
4.28952e-05
4.29693e-05
1.67342e-05
1.67431e-05
1.66689e-05
1.66727e-05
1.67096e-05
1.67092e-05
1.68444e-05
1.6835e-05
4.3408e-05
4.29647e-05
8.75972e-05
4.33268e-05
4.30805e-05
1.67409e-05
1.66852e-05
1.66711e-05
1.68792e-05
8.86379e-05
4.31391e-05
4.27548e-05
4.34954e-05
4.33011e-05
7.12588e-05
2.64878e-05
7.19665e-05
2.64836e-05
9.20435e-05
7.33685e-05
6.65177e-05
8.36115e-05
9.0892e-05
7.31887e-05
6.67096e-05
9.24786e-05
7.4952e-05
6.63305e-05
8.61565e-05
9.23325e-05
7.41441e-05
6.67874e-05
7.1839e-05
2.5819e-05
2.56054e-05
7.16591e-05
7.15528e-05
2.63441e-05
2.63982e-05
7.05722e-05
9.18941e-05
8.4626e-05
7.32835e-05
6.69419e-05
7.33783e-05
6.68928e-05
9.14891e-05
9.25265e-05
8.62785e-05
7.47184e-05
6.58154e-05
7.4734e-05
6.66833e-05
9.16927e-05
4.35566e-05
4.33962e-05
8.85107e-05
4.33046e-05
4.32971e-05
1.69572e-05
1.69139e-05
1.68351e-05
1.67456e-05
8.88396e-05
4.30185e-05
4.32535e-05
4.30291e-05
4.34743e-05
1.68808e-05
1.69438e-05
9.18655e-05
7.38994e-05
7.00667e-05
8.6498e-05
9.32429e-05
7.42251e-05
6.94345e-05
7.15613e-05
2.69492e-05
7.16212e-05
2.6744e-05
9.16812e-05
7.03798e-05
7.58092e-05
8.78975e-05
9.19672e-05
7.02342e-05
7.53281e-05
7.0485e-05
2.61522e-05
2.62234e-05
7.08114e-05
9.16445e-05
8.54044e-05
7.42997e-05
7.03028e-05
7.38663e-05
6.99249e-05
9.1329e-05
7.17455e-05
2.6796e-05
2.68713e-05
7.16722e-05
9.26323e-05
8.72115e-05
6.93525e-05
7.56874e-05
7.04121e-05
7.54763e-05
9.2991e-05
7.21704e-05
2.6486e-05
7.25425e-05
2.64544e-05
9.37337e-05
7.01429e-05
7.43602e-05
8.63492e-05
9.31406e-05
6.92019e-05
7.40381e-05
7.19172e-05
2.63808e-05
7.29854e-05
2.62334e-05
9.42961e-05
8.78922e-05
7.41486e-05
7.01079e-05
7.45353e-05
7.02609e-05
9.4178e-05
7.27136e-05
2.63733e-05
2.65419e-05
7.2216e-05
9.34645e-05
8.59403e-05
7.04856e-05
7.28503e-05
7.04046e-05
7.3762e-05
9.35271e-05
7.2424e-05
2.5799e-05
2.62742e-05
7.23105e-05
4.42976e-05
4.31571e-05
8.94883e-05
4.35388e-05
4.35247e-05
1.68025e-05
1.67688e-05
1.71839e-05
1.7264e-05
8.96312e-05
4.38784e-05
4.38079e-05
4.42268e-05
4.37305e-05
1.69659e-05
1.6915e-05
9.21619e-05
6.83259e-05
7.31315e-05
8.43355e-05
9.26563e-05
6.70622e-05
7.27882e-05
7.20922e-05
2.61993e-05
7.24838e-05
2.62811e-05
7.19998e-05
2.58869e-05
7.25496e-05
2.60423e-05
9.13584e-05
8.64988e-05
6.75424e-05
7.45763e-05
6.86273e-05
7.46373e-05
9.11151e-05
9.09494e-05
8.57676e-05
6.81069e-05
7.33667e-05
6.78675e-05
7.37048e-05
9.24215e-05
7.21145e-05
2.6363e-05
2.61378e-05
7.20678e-05
7.21289e-05
2.59583e-05
2.59183e-05
7.1783e-05
1.67489e-05
1.66695e-05
1.66178e-05
1.65693e-05
8.79752e-05
4.25332e-05
4.25102e-05
4.28099e-05
4.27604e-05
1.6555e-05
1.66963e-05
1.65329e-05
1.65673e-05
1.66818e-05
1.66335e-05
1.67942e-05
1.6739e-05
4.2983e-05
4.27244e-05
8.81059e-05
4.27075e-05
4.28701e-05
1.66536e-05
1.66562e-05
1.66899e-05
1.67696e-05
8.68078e-05
4.26928e-05
4.24634e-05
4.33511e-05
4.30359e-05
7.12565e-05
2.63933e-05
7.123e-05
2.64049e-05
9.03956e-05
7.33662e-05
6.70651e-05
8.55418e-05
9.1486e-05
7.32675e-05
6.59401e-05
9.11353e-05
7.41143e-05
6.69987e-05
8.46525e-05
9.17239e-05
7.38058e-05
6.67251e-05
7.18623e-05
2.59335e-05
2.58172e-05