/*--------------------------------*- C++ -*----------------------------------*\
| =========                 |                                                 |
| \\      /  F ield         | OpenFOAM: The Open Source CFD Toolbox           |
|  \\    /   O peration     | Version:  2206                                  |
|   \\  /    A nd           | Website:  www.openfoam.com                      |
|    \\/     M anipulation  |                                                 |
\*---------------------------------------------------------------------------*/
FoamFile
{
    version     2.0;
    format      ascii;
    arch        "LSB;label=32;scalar=64";
    class       volScalarField;
    location    "110";
    object      nut;
}
// * * * * * * * * * * * * * * * * * * * * * * * * * * * * * * * * * * * * * //

dimensions      [0 2 -1 0 0 0 0];

internalField   nonuniform List<scalar> 
66928
(
1.4095e-06
1.44813e-06
1.41878e-06
1.45202e-06
1.40911e-06
1.43397e-06
1.44874e-06
1.40742e-06
1.95201e-06
1.93722e-06
4.11843e-08
4.1005e-08
2.18422e-07
2.16532e-07
8.73277e-08
4.07082e-07
8.56087e-08
3.69185e-07
4.0088e-07
1.5497e-06
7.72168e-07
8.73872e-08
3.71017e-07
1.576e-06
4.06152e-07
7.65493e-07
4.15076e-08
2.19106e-07
2.21665e-07
4.15806e-08
4.05599e-07
8.7519e-08
4.15325e-08
4.19425e-08
4.08584e-08
4.10888e-08
2.2235e-07
2.20495e-07
1.41189e-06
2.20666e-07
2.18406e-07
4.23161e-08
4.20173e-08
4.16195e-08
4.15281e-08
1.44515e-06
2.24607e-07
2.17469e-07
2.27864e-07
2.19753e-07
4.10844e-08
3.50104e-07
5.9098e-07
2.20863e-07
8.44599e-08
8.45892e-08
5.88253e-07
3.5156e-07
3.47724e-07
5.83436e-07
2.16383e-07
8.34685e-08
8.36667e-08
5.83652e-07
3.50092e-07
1.32581e-07
3.66227e-08
3.65479e-08
3.66231e-08
3.6504e-08
1.331e-07
8.67658e-08
1.97981e-07
2.02424e-07
3.69755e-08
1.94391e-07
3.63417e-08
3.10941e-07
7.16248e-08
6.11191e-08
1.96512e-07
3.68905e-08
7.16546e-08
3.18557e-07
6.20399e-08
3.55368e-07
5.8972e-07
2.20215e-07
8.45352e-08
5.88718e-07
8.47111e-08
3.57031e-07
3.53153e-07
5.91038e-07
2.22421e-07
8.52698e-08
8.57822e-08
5.9452e-07
3.5596e-07
1.35836e-07
3.73254e-08
3.71904e-08
3.734e-08
3.73755e-08
1.35454e-07
4.13766e-08
8.81334e-08
2.0121e-07
2.02488e-07
3.72194e-08
4.12893e-08
4.17319e-08
4.11724e-08
4.11753e-08
1.32399e-07
3.69115e-08
3.67366e-08
3.68558e-08
3.67546e-08
1.3248e-07
3.52851e-07
5.93356e-07
8.49671e-08
2.21319e-07
3.51092e-07
8.52739e-08
5.92148e-07
3.51484e-07
5.86052e-07
8.42666e-08
2.18163e-07
3.49646e-07
8.41853e-08
5.7792e-07
1.32313e-07
3.66124e-08
3.66413e-08
1.31471e-07
3.67919e-08
3.65682e-08
3.48639e-07
8.53892e-08
2.22632e-07
5.92002e-07
8.53918e-08
3.51466e-07
5.85934e-07
3.48771e-07
8.37633e-08
2.1829e-07
5.81496e-07
8.42818e-08
3.47859e-07
5.82283e-07
4.22842e-08
4.19464e-08
4.17586e-08
4.12869e-08
1.32626e-07
3.70085e-08
3.69109e-08
1.33369e-07
3.70306e-08
3.68571e-08
3.49965e-07
5.91145e-07
2.26244e-07
8.57783e-08
8.62483e-08
5.94322e-07
3.48109e-07
3.46878e-07
5.78199e-07
2.22285e-07
8.42735e-08
8.46476e-08
5.79089e-07
3.50441e-07
3.52481e-07
8.57385e-08
5.92313e-07
2.28105e-07
3.50085e-07
8.5802e-08
5.91759e-07
3.48152e-07
8.46602e-08
5.79245e-07
2.20113e-07
3.46805e-07
8.45586e-08
5.716e-07
1.33927e-07
3.72065e-08
3.68876e-08
3.71811e-08
3.68883e-08
1.33492e-07
6.72277e-07
1.44499e-06
8.97059e-07
8.84538e-07
8.96205e-07
9.01745e-07
6.696e-07
6.80606e-07
1.42539e-06
8.97042e-07
9.0223e-07
9.10219e-07
9.0961e-07
6.79479e-07
6.73245e-07
9.06194e-07
9.13177e-07
1.41556e-06
6.7416e-07
8.86523e-07
8.89074e-07
6.70015e-07
1.4406e-06
8.82516e-07
8.87015e-07
9.10696e-07
9.02577e-07
6.67108e-07
2.14762e-06
2.17489e-06
1.05039e-06
8.03333e-07
4.02317e-07
5.7983e-07
8.0935e-07
5.79353e-07
1.04165e-06
1.03203e-06
7.70597e-07
3.98656e-07
5.72862e-07
7.82937e-07
5.64797e-07
1.0193e-06
1.07789e-06
7.73874e-07
7.16175e-07
1.11846e-06
7.16599e-07
1.13347e-06
1.05144e-06
1.03418e-06
7.90341e-07
4.06341e-07
5.80043e-07
5.79505e-07
7.96694e-07
1.03208e-06
1.08644e-06
7.59055e-07
1.12452e-06
7.14074e-07
1.14014e-06
7.12729e-07
1.06026e-06
1.04e-06
7.89632e-07
4.06543e-07
5.84782e-07
8.01638e-07
5.82536e-07
1.04129e-06
6.76641e-07
1.44823e-06
8.96017e-07
8.84053e-07
6.74172e-07
8.94257e-07
9.07915e-07
6.69683e-07
1.40529e-06
9.07385e-07
9.03742e-07
6.70955e-07
8.98256e-07
8.90142e-07
1.92399e-06
1.42803e-06
1.44491e-06
1.44023e-06
1.93673e-06
1.44317e-06
1.44554e-06
1.43819e-06
1.97263e-06
1.45295e-06
1.4278e-06
1.42333e-06
1.94555e-06
1.4183e-06
1.42904e-06
1.43861e-06
1.9853e-06
1.44009e-06
1.45559e-06
1.43518e-06
1.94186e-06
1.45593e-06
1.45815e-06
1.44783e-06
1.94235e-06
1.45706e-06
1.43889e-06
1.43166e-06
1.96136e-06
1.4515e-06
1.45948e-06
1.43174e-06
1.95947e-06
1.44305e-06
1.45795e-06
1.43508e-06
1.94838e-06
1.44462e-06
1.45416e-06
1.40145e-06
1.96744e-06
1.43058e-06
1.45581e-06
1.42644e-06
1.93363e-06
1.44771e-06
1.45238e-06
1.43492e-06
1.95592e-06
1.42636e-06
1.45578e-06
1.40944e-06
1.96034e-06
1.42799e-06
1.44538e-06
1.43199e-06
1.95565e-06
1.4546e-06
1.42796e-06
1.41423e-06
1.95303e-06
1.43026e-06
1.42359e-06
1.41651e-06
1.9752e-06
1.44592e-06
1.44944e-06
1.43792e-06
1.44616e-06
1.42847e-06
1.44357e-06
1.43584e-06
1.4414e-06
1.40645e-06
1.41143e-06
1.45145e-06
1.43211e-06
1.42689e-06
1.41809e-06
1.44033e-06
1.4216e-06
1.45612e-06
1.42172e-06
1.43623e-06
1.44998e-06
1.43728e-06
1.40683e-06
1.43964e-06
1.4014e-06
1.43799e-06
1.44062e-06
1.43897e-06
1.43873e-06
1.46257e-06
1.42376e-06
1.41767e-06
1.43687e-06
1.43091e-06
1.42793e-06
1.43552e-06
1.43093e-06
1.43797e-06
1.45462e-06
1.40877e-06
1.42678e-06
1.44769e-06
1.43082e-06
1.37636e-06
1.44261e-06
1.41287e-06
1.44055e-06
1.42424e-06
1.43007e-06
1.45073e-06
1.46255e-06
1.41775e-06
1.42904e-06
1.43839e-06
1.40777e-06
1.45195e-06
1.44066e-06
1.4374e-06
1.43366e-06
1.44921e-06
1.42009e-06
1.43479e-06
1.43927e-06
1.43497e-06
1.3946e-06
1.45179e-06
1.41057e-06
1.41632e-06
1.43206e-06
1.44643e-06
1.4256e-06
1.45967e-06
1.41748e-06
1.42876e-06
1.43703e-06
1.44307e-06
1.45103e-06
1.41339e-06
1.45158e-06
1.40548e-06
1.45451e-06
1.40654e-06
1.44463e-06
1.45641e-06
1.44725e-06
1.4066e-06
1.4523e-06
1.38864e-06
1.43123e-06
1.42156e-06
1.40865e-06
1.45041e-06
1.45215e-06
1.41346e-06
1.41418e-06
1.45003e-06
1.43636e-06
1.45294e-06
1.42685e-06
1.44261e-06
1.44147e-06
1.44922e-06
1.42382e-06
1.43345e-06
1.46051e-06
1.43833e-06
1.38975e-06
1.44182e-06
1.41369e-06
1.43507e-06
1.4425e-06
1.40986e-06
1.43256e-06
1.45629e-06
1.39296e-06
1.43713e-06
1.44515e-06
1.44608e-06
1.44789e-06
1.43017e-06
1.45964e-06
1.43026e-06
1.44484e-06
1.43405e-06
1.4435e-06
1.4633e-06
1.44854e-06
1.38358e-06
1.4547e-06
1.40569e-06
1.41925e-06
1.43804e-06
1.40388e-06
1.43229e-06
1.44539e-06
1.41284e-06
1.44359e-06
1.42054e-06
1.44272e-06
1.44875e-06
1.43023e-06
1.45462e-06
1.41892e-06
1.46306e-06
1.43071e-06
1.44461e-06
1.46198e-06
1.42067e-06
1.40525e-06
1.43647e-06
1.40124e-06
1.41329e-06
1.44805e-06
1.42036e-06
1.44548e-06
1.45628e-06
1.38114e-06
1.43362e-06
1.45067e-06
1.44364e-06
1.42996e-06
1.44471e-06
1.4402e-06
1.42696e-06
1.47312e-06
1.41061e-06
1.44643e-06
1.4513e-06
1.42771e-06
1.38995e-06
1.43794e-06
1.39594e-06
1.4037e-06
1.42538e-06
1.42435e-06
1.42316e-06
1.43154e-06
1.40406e-06
1.42726e-06
1.44798e-06
1.42233e-06
1.43511e-06
1.42138e-06
1.4496e-06
1.44887e-06
1.46835e-06
1.39736e-06
1.44802e-06
1.43666e-06
1.42093e-06
1.39198e-06
1.43885e-06
1.39903e-06
1.43394e-06
1.45018e-06
1.43606e-06
1.44396e-06
1.44637e-06
1.37181e-06
1.41836e-06
1.45356e-06
1.42511e-06
1.42976e-06
1.44347e-06
1.44449e-06
1.44027e-06
1.45669e-06
1.41078e-06
1.40772e-06
1.45516e-06
1.42535e-06
1.37487e-06
1.43199e-06
1.38446e-06
1.43999e-06
1.4489e-06
1.42909e-06
1.43807e-06
1.42742e-06
1.40562e-06
1.416e-06
1.45275e-06
1.42695e-06
1.44502e-06
1.42362e-06
1.42777e-06
1.41437e-06
1.45433e-06
1.4073e-06
1.43041e-06
1.45453e-06
1.4311e-06
1.37611e-06
1.44528e-06
1.39307e-06
1.43093e-06
1.44594e-06
1.43199e-06
1.42657e-06
1.44223e-06
1.40235e-06
1.42678e-06
1.45373e-06
1.42555e-06
1.43917e-06
1.439e-06
1.40984e-06
1.43617e-06
1.45209e-06
1.41029e-06
1.43184e-06
1.46224e-06
1.42705e-06
1.38209e-06
1.4147e-06
1.40048e-06
1.43244e-06
1.45086e-06
1.43892e-06
1.45522e-06
1.43666e-06
1.40038e-06
1.42168e-06
1.4243e-06
1.42557e-06
1.44138e-06
1.43505e-06
1.42657e-06
1.43098e-06
1.45381e-06
1.40952e-06
1.43228e-06
1.44329e-06
1.41059e-06
1.39285e-06
1.42736e-06
1.40603e-06
1.44364e-06
1.45586e-06
1.4209e-06
1.44114e-06
1.45936e-06
1.41223e-06
1.43215e-06
1.43777e-06
1.43099e-06
1.44848e-06
1.42897e-06
1.45267e-06
1.43789e-06
1.4482e-06
1.42366e-06
1.42091e-06
1.41121e-06
1.42735e-06
1.40189e-06
1.44275e-06
1.37604e-06
1.40935e-06
1.44977e-06
1.42485e-06
1.45143e-06
1.45389e-06
1.41119e-06
1.41172e-06
1.43395e-06
1.4415e-06
1.44203e-06
1.43157e-06
1.44935e-06
1.43602e-06
1.46149e-06
1.41875e-06
1.41047e-06
1.4403e-06
1.42656e-06
1.40103e-06
1.43182e-06
1.4144e-06
1.41698e-06
1.42727e-06
1.43691e-06
1.44517e-06
1.4517e-06
1.4041e-06
1.44533e-06
1.44055e-06
1.43226e-06
1.43299e-06
1.43844e-06
1.44367e-06
1.42375e-06
1.44402e-06
1.40175e-06
1.41355e-06
1.44652e-06
1.43566e-06
1.39745e-06
1.45467e-06
1.44591e-06
1.44807e-06
1.44486e-06
1.44022e-06
1.44701e-06
1.41427e-06
1.43037e-06
1.43463e-06
1.4393e-06
1.43786e-06
1.38503e-06
3.77445e-07
8.79628e-08
3.74721e-07
8.88236e-08
4.19792e-08
4.24396e-08
3.72081e-07
8.61513e-08
3.67898e-07
8.61341e-08
1.9236e-06
1.95111e-06
1.89654e-06
1.94038e-06
1.95973e-06
1.95522e-06
1.91084e-06
7.81443e-07
4.03871e-07
1.60807e-06
1.43573e-06
4.09964e-07
1.60821e-06
7.83752e-07
4.14837e-08
4.19068e-08
8.045e-07
1.5717e-06
4.10543e-07
1.44468e-06
1.57766e-06
4.10658e-07
8.03836e-07
2.1624e-07
2.1882e-07
1.40377e-06
2.16651e-07
2.18559e-07
3.80994e-07
8.92428e-08
3.80753e-07
8.9038e-08
4.2243e-08
4.23122e-08
3.75943e-07
8.76895e-08
3.71641e-07
8.77337e-08
1.96026e-06
1.96727e-06
1.9161e-06
1.97326e-06
1.94282e-06
1.94649e-06
1.92037e-06
7.88093e-07
4.0652e-07
1.57334e-06
1.42187e-06
7.88902e-07
4.07339e-07
1.59513e-06
4.22875e-08
4.24283e-08
7.93833e-07
1.6117e-06
4.1438e-07
1.42537e-06
8.00882e-07
1.61507e-06
4.09193e-07
2.16421e-07
2.18976e-07
1.40168e-06
2.16485e-07
2.16034e-07
3.79218e-07
8.82255e-08
3.81945e-07
8.8486e-08
4.23412e-08
4.24718e-08
3.72572e-07
8.68057e-08
3.72515e-07
8.68685e-08
1.96393e-06
1.9555e-06
1.92968e-06
1.97005e-06
1.98052e-06
1.97009e-06
1.95496e-06
7.84835e-07
4.03882e-07
1.6078e-06
1.45739e-06
7.83678e-07
4.03289e-07
1.60231e-06
4.29154e-08
4.29107e-08
7.94338e-07
1.6192e-06
4.1281e-07
1.45033e-06
8.03278e-07
1.62244e-06
4.06979e-07
2.158e-07
2.19407e-07
1.39432e-06
2.16642e-07
2.1967e-07
3.84514e-07
8.8548e-08
3.80695e-07
8.85855e-08
4.24986e-08
4.24067e-08
3.76113e-07
8.74436e-08
3.71821e-07
8.77714e-08
1.97541e-06
1.96794e-06
1.96019e-06
1.95266e-06
1.92777e-06
1.95288e-06
1.96923e-06
7.87172e-07
4.02763e-07
1.60764e-06
1.4393e-06
7.87132e-07
4.05418e-07
1.58275e-06
4.29977e-08
4.30972e-08
8.01589e-07
1.59617e-06
4.06495e-07
1.45576e-06
7.91402e-07
1.624e-06
4.11345e-07
2.16821e-07
2.18199e-07
1.40289e-06
2.16468e-07
2.18782e-07
3.79655e-07
8.76559e-08
3.82541e-07
8.74757e-08
4.24451e-08
4.22808e-08
3.69372e-07
8.80683e-08
3.68323e-07
8.76939e-08
1.95347e-06
1.95535e-06
1.97193e-06
1.97595e-06
1.97096e-06
1.98588e-06
1.97931e-06
7.79517e-07
4.02682e-07
1.61281e-06
1.45328e-06
7.87747e-07
4.08017e-07
1.60437e-06
4.32954e-08
4.29401e-08
7.95415e-07
1.62472e-06
4.04916e-07
1.45861e-06
7.96925e-07
1.62752e-06
4.08362e-07
2.14817e-07
2.18332e-07
1.40671e-06
2.15668e-07
2.17678e-07
3.80079e-07
8.66528e-08
3.82459e-07
8.66313e-08
4.21974e-08
4.22103e-08
3.73845e-07
8.76684e-08
3.69299e-07
8.754e-08
1.95523e-06
1.99142e-06
1.97278e-06
1.97288e-06
1.96768e-06
1.94658e-06
1.98184e-06
7.78515e-07
4.05256e-07
1.60903e-06
1.45114e-06
7.89797e-07
4.08275e-07
1.59493e-06
4.29327e-08
4.2635e-08
7.93498e-07
1.62438e-06
4.08688e-07
1.46508e-06
7.92025e-07
1.63221e-06
4.13543e-07
2.14476e-07
2.16515e-07
1.40832e-06
2.14702e-07
2.1709e-07
3.83781e-07
8.7446e-08
3.82957e-07
8.64387e-08
4.21846e-08
4.1807e-08
3.75992e-07
8.73841e-08
3.6915e-07
8.68692e-08
1.94974e-06
1.97799e-06
1.94123e-06
1.95503e-06
1.98237e-06
1.98301e-06
1.9751e-06
7.84647e-07
4.04754e-07
1.59704e-06
1.43546e-06
7.77366e-07
4.06016e-07
1.58785e-06
4.23532e-08
4.21283e-08
7.99113e-07
1.62892e-06
4.11751e-07
1.45813e-06
7.97476e-07
1.62892e-06
4.07345e-07
2.13513e-07
2.15104e-07
1.39352e-06
2.1546e-07
2.16513e-07
3.82993e-07
8.73254e-08
3.83213e-07
8.68604e-08
4.20317e-08
4.22385e-08
3.71681e-07
8.64511e-08
3.70975e-07
8.65769e-08
1.9742e-06
1.9865e-06
1.97879e-06
1.96073e-06
1.98191e-06
1.95987e-06
1.93878e-06
7.84481e-07
3.9958e-07
1.59104e-06
1.41976e-06
7.81969e-07
4.01815e-07
1.61757e-06
4.20105e-08
4.18592e-08
7.96434e-07
1.61863e-06
4.10248e-07
1.46399e-06
7.94695e-07
1.60867e-06
4.07326e-07
2.14475e-07
2.16498e-07
1.3882e-06
2.1424e-07
2.17264e-07
3.83425e-07
8.75861e-08
3.8004e-07
8.7565e-08
4.23296e-08
4.23479e-08
3.75041e-07
8.72821e-08
3.71689e-07
8.69371e-08
1.98286e-06
1.95254e-06
1.96702e-06
1.92845e-06
1.96088e-06
1.96159e-06
1.98453e-06
7.75773e-07
4.01979e-07
1.61176e-06
1.44612e-06
7.88617e-07
4.04153e-07
1.59889e-06
4.19777e-08
4.20046e-08
7.97527e-07
1.60763e-06
4.07579e-07
1.44118e-06
8.01673e-07
1.61453e-06
4.09823e-07
2.14969e-07
2.14751e-07
1.39853e-06
2.14152e-07
2.14375e-07
3.78968e-07
8.76045e-08
3.83239e-07
8.75291e-08
4.2383e-08
4.25254e-08
3.75463e-07
8.70122e-08
3.71356e-07
8.66177e-08
1.94918e-06
1.95453e-06
1.98331e-06
1.92883e-06
1.95323e-06
1.9637e-06
1.97919e-06
7.74818e-07
3.97763e-07
1.60688e-06
1.42387e-06
7.6882e-07
4.02759e-07
1.58869e-06
4.2043e-08
4.19192e-08
8.01411e-07
1.61688e-06
4.03585e-07
1.4601e-06
7.94043e-07
1.61598e-06
4.07973e-07
2.14761e-07
2.14475e-07
1.36639e-06
2.15299e-07
2.16585e-07
3.84381e-07
8.67617e-08
3.79339e-07
8.61917e-08
4.20813e-08
4.2477e-08
3.75095e-07
8.70858e-08
3.70937e-07
8.66177e-08
1.95205e-06
1.99285e-06
1.97974e-06
1.95814e-06
1.94906e-06
1.997e-06
1.96158e-06
7.84682e-07
3.95498e-07
1.61465e-06
1.4196e-06
7.80894e-07
3.96178e-07
1.60935e-06
4.19836e-08
4.2049e-08
7.83715e-07
1.61888e-06
4.07792e-07
1.43141e-06
7.97676e-07
1.62137e-06
4.0644e-07
2.15079e-07
2.14289e-07
1.39624e-06
2.16635e-07
2.16797e-07
3.83498e-07
8.63666e-08
3.80293e-07
8.74052e-08
4.23832e-08
4.22329e-08
3.76985e-07
8.69314e-08
3.71924e-07
8.69653e-08
1.97235e-06
1.98844e-06
1.92297e-06
1.94665e-06
1.95771e-06
1.98158e-06
1.92756e-06
7.88757e-07
3.98615e-07
1.60155e-06
1.44014e-06
7.79218e-07
4.0303e-07
1.59637e-06
4.18603e-08
4.20173e-08
7.88029e-07
1.60916e-06
4.03834e-07
1.45904e-06
7.93502e-07
1.60052e-06
4.06958e-07
2.1303e-07
2.15931e-07
1.39744e-06
2.12821e-07
2.16153e-07
3.80966e-07
8.78514e-08
3.82147e-07
8.7955e-08
4.20511e-08
4.21333e-08
3.76519e-07
8.6984e-08
3.71021e-07
8.75733e-08
1.96469e-06
1.97192e-06
1.96465e-06
1.96463e-06
1.96709e-06
1.97074e-06
1.96296e-06
7.89852e-07
3.98302e-07
1.58802e-06
1.43066e-06
7.92571e-07
4.04847e-07
1.59331e-06
4.18854e-08
4.18099e-08
7.83921e-07
1.58244e-06
4.06199e-07
1.4581e-06
7.89811e-07
1.61183e-06
4.03419e-07
2.13212e-07
2.13929e-07
1.38964e-06
2.14879e-07
2.15431e-07
3.78772e-07
8.80808e-08
3.77508e-07
8.82464e-08
4.24978e-08
4.23827e-08
3.78879e-07
8.73766e-08
3.73548e-07
8.74395e-08
1.93889e-06
1.97016e-06
1.96027e-06
1.92092e-06
1.954e-06
1.96669e-06
1.92044e-06
7.78083e-07
4.00241e-07
1.61065e-06
1.42376e-06
7.8042e-07
4.04422e-07
1.61427e-06
4.19989e-08
4.20875e-08
7.99586e-07
1.57864e-06
4.04517e-07
1.42199e-06
7.9413e-07
1.59773e-06
4.00791e-07
2.13969e-07
2.15553e-07
1.37867e-06
2.14464e-07
2.15962e-07
3.84734e-07
8.77096e-08
3.83333e-07
8.71895e-08
4.23525e-08
4.22485e-08
3.78558e-07
8.74442e-08
3.72793e-07
8.75778e-08
1.97057e-06
1.9616e-06
1.95393e-06
1.92435e-06
1.96696e-06
1.96471e-06
1.96193e-06
7.79979e-07
4.01811e-07
1.61798e-06
1.45061e-06
7.81502e-07
4.03575e-07
1.61802e-06
4.21161e-08
4.21173e-08
7.93311e-07
1.60147e-06
4.05529e-07
1.41821e-06
7.94813e-07
1.5823e-06
4.08146e-07
2.13566e-07
2.14685e-07
1.37755e-06
2.13645e-07
2.14908e-07
3.85023e-07
8.79509e-08
3.81575e-07
8.72874e-08
4.22262e-08
4.23472e-08
3.78907e-07
8.79714e-08
3.7582e-07
8.76495e-08
1.96409e-06
1.9666e-06
1.96707e-06
1.97251e-06
1.9761e-06
1.95894e-06
1.95137e-06
7.75419e-07
3.99274e-07
1.596e-06
1.4424e-06
7.8436e-07
4.04923e-07
1.62038e-06
4.20622e-08
4.19946e-08
7.97821e-07
1.59e-06
4.09319e-07
1.41844e-06
7.98449e-07
1.59456e-06
4.10562e-07
2.12727e-07
2.14804e-07
1.38853e-06
2.1403e-07
2.16462e-07
3.88569e-07
8.6619e-08
3.8603e-07
8.70425e-08
4.23124e-08
4.23631e-08
3.76721e-07
8.71782e-08
3.72988e-07
8.71945e-08
1.96872e-06
1.96882e-06
1.9594e-06
1.94142e-06
7.85149e-07
3.98433e-07
1.60736e-06
1.44431e-06
7.88007e-07
4.0344e-07
1.60305e-06
4.19202e-08
4.2095e-08
8.00269e-07
1.61239e-06
4.08079e-07
1.44564e-06
7.94619e-07
1.61791e-06
4.05993e-07
2.1419e-07
2.14493e-07
1.38781e-06
2.14321e-07
2.1628e-07
3.79992e-07
8.98386e-08
8.95996e-08
3.75548e-07
7.73823e-07
4.09532e-07
1.58259e-06
1.42926e-06
1.57606e-06
7.86572e-07
4.09054e-07
7.77042e-07
4.12663e-07
1.57663e-06
1.41736e-06
4.10365e-07
1.55275e-06
7.87775e-07
3.8e-07
8.94246e-08
3.78325e-07
8.89177e-08
3.77306e-07
8.92132e-08
8.94044e-08
3.78658e-07
7.87354e-07
1.41946e-06
4.13894e-07
1.58783e-06
1.57999e-06
7.79896e-07
4.13831e-07
7.88772e-07
1.44134e-06
4.11033e-07
1.58031e-06
4.11879e-07
1.58154e-06
7.89065e-07
2.23234e-07
2.16521e-07
1.40557e-06
2.24128e-07
2.1873e-07
4.16373e-08
4.15914e-08
4.234e-08
4.22118e-08
1.4418e-06
2.22329e-07
2.19002e-07
2.24057e-07
2.24146e-07
4.21027e-08
4.19249e-08
7.65376e-07
3.98556e-07
1.53714e-06
1.43768e-06
1.55832e-06
7.75675e-07
4.01003e-07
3.72809e-07
8.80916e-08
8.74168e-08
3.69893e-07
7.63368e-07
1.58217e-06
4.03201e-07
1.42678e-06
1.5845e-06
4.09643e-07
7.71156e-07
3.71149e-07
8.73079e-08
3.74613e-07
8.69243e-08
7.78071e-07
1.43927e-06
4.04864e-07
1.5481e-06
1.56052e-06
7.79097e-07
4.01082e-07
3.7084e-07
8.83754e-08
8.87704e-08
3.72391e-07
7.76356e-07
1.40662e-06
1.5863e-06
4.06335e-07
1.59472e-06
4.0735e-07
7.76555e-07
3.77795e-07
8.84607e-08
8.8185e-08
3.77374e-07
7.85148e-07
1.57867e-06
4.03492e-07
1.41775e-06
1.5929e-06
4.04396e-07
7.84802e-07
3.80781e-07
8.74605e-08
8.78493e-08
3.73559e-07
7.86286e-07
1.44312e-06
4.05057e-07
1.60198e-06
4.09327e-07
1.60004e-06
7.89033e-07
3.7409e-07
8.83838e-08
8.92089e-08
3.82454e-07
7.80529e-07
1.42283e-06
1.58007e-06
4.0499e-07
1.59481e-06
4.03355e-07
7.77521e-07
3.79242e-07
8.761e-08
8.80982e-08
3.82811e-07
2.23314e-07
2.27183e-07
1.41895e-06
2.20869e-07
2.24838e-07
4.14482e-08
4.2144e-08
4.22413e-08
4.17958e-08
1.45937e-06
2.21167e-07
2.23617e-07
2.2391e-07
2.27477e-07
4.23222e-08
4.21359e-08
7.9404e-07
1.57784e-06
4.08733e-07
1.4363e-06
1.60447e-06
4.05715e-07
8.0033e-07
3.87468e-07
8.8669e-08
8.88555e-08
3.85732e-07
3.90191e-07
8.82416e-08
8.88866e-08
3.83859e-07
8.06227e-07
1.44308e-06
1.6085e-06
4.15649e-07
1.57512e-06
4.0967e-07
8.00519e-07
8.06697e-07
1.41627e-06
1.61423e-06
4.11817e-07
1.61152e-06
4.10748e-07
8.03336e-07
3.88947e-07
8.89452e-08
8.86681e-08
3.84841e-07
3.89942e-07
8.82166e-08
8.92235e-08
3.87478e-07
4.14055e-08
4.15401e-08
4.10467e-08
4.15326e-08
1.43991e-06
2.17554e-07
2.22086e-07
2.20817e-07
2.20874e-07
4.16922e-08
4.15834e-08
4.17214e-08
4.14509e-08
4.22216e-08
4.25024e-08
4.17693e-08
4.18817e-08
2.27585e-07
2.23017e-07
1.39745e-06
2.25654e-07
2.17964e-07
4.23205e-08
4.24574e-08
4.21018e-08
4.19745e-08
1.41289e-06
2.24586e-07
2.19626e-07
2.26724e-07
2.21358e-07
3.80663e-07
8.90616e-08
3.80224e-07
8.92317e-08
7.80466e-07
4.10691e-07
1.59271e-06
1.4404e-06
7.82088e-07
4.09174e-07
1.59676e-06
7.90702e-07
4.16093e-07
1.5815e-06
1.4493e-06
7.89995e-07
4.12547e-07
1.58226e-06
3.78701e-07
8.83091e-08
8.9222e-08
3.84344e-07
3.82755e-07
8.98017e-08
8.96143e-08
3.81534e-07
7.94333e-07
1.44651e-06
4.10757e-07
1.57274e-06
4.13334e-07
1.59724e-06
7.84317e-07
7.94959e-07
1.42712e-06
4.13107e-07
1.58915e-06
4.16803e-07
1.58087e-06
7.79667e-07
2.29943e-07
2.21376e-07
1.4061e-06
2.23893e-07
2.20002e-07
4.20787e-08
4.20691e-08
4.23285e-08
4.20973e-08
1.43736e-06
2.23963e-07
2.20821e-07
2.29125e-07
2.22188e-07
4.22319e-08
4.20898e-08
7.8054e-07
4.04458e-07
1.58151e-06
1.43918e-06
7.77023e-07
4.07666e-07
1.58045e-06
3.73417e-07
8.93328e-08
3.69016e-07
8.96138e-08
7.78909e-07
1.5936e-06
4.09959e-07
1.42366e-06
7.69231e-07
1.58118e-06
4.13406e-07
3.73322e-07
8.73764e-08
8.82897e-08
3.76762e-07
7.75026e-07
1.43097e-06
4.06028e-07
1.58493e-06
4.06631e-07
1.58411e-06
7.76914e-07
3.74681e-07
8.90092e-08
8.98964e-08
3.77417e-07
7.82155e-07
1.43941e-06
1.6016e-06
4.15067e-07
1.60943e-06
4.0896e-07
7.72397e-07
3.84034e-07
8.87468e-08
3.78686e-07
8.82512e-08
7.7945e-07
1.588e-06
4.01905e-07
1.44472e-06
7.90173e-07
1.5958e-06
4.03019e-07
3.83828e-07
8.83517e-08
3.80998e-07
8.83416e-08
7.90342e-07
1.44049e-06
4.08022e-07
1.60467e-06
4.07055e-07
1.60395e-06
7.82773e-07
3.80395e-07
8.86471e-08
8.86764e-08
3.81512e-07
7.90238e-07
1.44117e-06
1.59754e-06
4.04384e-07
1.59872e-06
4.05359e-07
7.79157e-07
3.81682e-07
8.8511e-08
8.8934e-08
3.83214e-07
2.22931e-07
2.26998e-07
1.4095e-06
2.21247e-07
2.22103e-07
4.22056e-08
4.21803e-08
4.28505e-08
4.23126e-08
1.44696e-06
2.22985e-07
2.22149e-07
2.27312e-07
2.23054e-07
4.23365e-08
4.20079e-08
8.01264e-07
1.59399e-06
4.10741e-07
1.42952e-06
8.0544e-07
1.61458e-06
4.08408e-07
3.88649e-07
8.92686e-08
3.81641e-07
8.94867e-08
3.87763e-07
8.93114e-08
3.90848e-07
8.90403e-08
8.03752e-07
1.44774e-06
1.59145e-06
4.14071e-07
1.61051e-06
4.13592e-07
8.02357e-07
7.96304e-07
1.43525e-06
1.60848e-06
4.12646e-07
1.58914e-06
4.10942e-07
8.04856e-07
3.88354e-07
8.84232e-08
8.96203e-08
3.8795e-07
3.89946e-07
8.95855e-08
8.86421e-08
3.90851e-07
4.14222e-08
4.1686e-08
4.17455e-08
4.17278e-08
1.44317e-06
2.16188e-07
2.20335e-07
2.2096e-07
2.22615e-07
4.18577e-08
4.16916e-08
4.20254e-08
4.15671e-08
4.23102e-08
4.2176e-08
4.21024e-08
4.19539e-08
2.29895e-07
2.23681e-07
1.40178e-06
2.2446e-07
2.19967e-07
4.23976e-08
4.20294e-08
4.1999e-08
4.19872e-08
1.44683e-06
2.24571e-07
2.1969e-07
2.25158e-07
2.23931e-07
3.84146e-07
8.977e-08
3.82925e-07
8.99474e-08
7.92539e-07
4.11786e-07
1.59812e-06
1.43571e-06
7.95059e-07
4.08806e-07
1.58926e-06
7.88631e-07
4.13436e-07
1.58589e-06
1.44913e-06
7.9e-07
4.12271e-07
1.58805e-06
3.80109e-07
8.87007e-08
8.84549e-08
3.78675e-07
3.82472e-07
8.89289e-08
8.96912e-08
3.82369e-07
7.85183e-07
1.43363e-06
4.11458e-07
1.58483e-06
4.09801e-07
1.59121e-06
7.87489e-07
7.84916e-07
1.44961e-06
4.16348e-07
1.57289e-06
4.15927e-07
1.58127e-06
7.84354e-07
2.28081e-07
2.23253e-07
1.4243e-06
2.21757e-07
2.21182e-07
4.23978e-08
4.23888e-08
4.25017e-08
4.23334e-08
1.43762e-06
2.23586e-07
2.18277e-07
2.26797e-07
2.2562e-07
4.21856e-08
4.23384e-08
7.73628e-07
4.00025e-07
1.58464e-06
1.42878e-06
7.74344e-07
4.05377e-07
1.57568e-06
3.79613e-07
9.00788e-08
3.76638e-07
9.01818e-08
7.8499e-07
1.60242e-06
4.13045e-07
1.44791e-06
7.85168e-07
1.60086e-06
4.14533e-07
3.71753e-07
8.79052e-08
8.7792e-08
3.75029e-07
7.86234e-07
1.42926e-06
4.05833e-07
1.59861e-06
4.05033e-07
1.60301e-06
7.73504e-07
3.77503e-07
9.02847e-08
9.04592e-08
3.78101e-07
7.84202e-07
1.45066e-06
1.59676e-06
4.15994e-07
1.59973e-06
4.10534e-07
7.79733e-07
3.81998e-07
8.89834e-08
3.79578e-07
8.86557e-08
7.92331e-07
1.58398e-06
4.06835e-07
1.44113e-06
7.92833e-07
1.57154e-06
4.08231e-07
3.80707e-07
8.90787e-08
3.79294e-07
8.84723e-08
7.89312e-07
1.45817e-06
4.08338e-07
1.61069e-06
4.0719e-07
1.60774e-06
7.85359e-07
3.79643e-07
8.76113e-08
8.89639e-08
3.83299e-07
7.92616e-07
1.4429e-06
1.57745e-06
4.0513e-07
1.60211e-06
4.0277e-07
7.90788e-07
3.81605e-07
8.88323e-08
8.86562e-08
3.84958e-07
2.28795e-07
2.27112e-07
1.41614e-06
2.22611e-07
2.22257e-07
4.2229e-08
4.23062e-08
4.29914e-08
4.28867e-08
1.45634e-06
2.231e-07
2.21912e-07
2.24849e-07
2.29436e-07
4.2021e-08
4.22883e-08
8.02688e-07
1.61646e-06
4.1137e-07
1.43455e-06
8.01748e-07
1.6175e-06
4.10737e-07
3.87235e-07
8.94046e-08
3.84842e-07
8.91617e-08
3.90404e-07
8.94296e-08
3.88742e-07
8.93409e-08
7.93848e-07
1.44687e-06
1.60477e-06
4.12086e-07
1.60613e-06
4.09853e-07
7.97449e-07
7.97439e-07
1.43604e-06
1.59042e-06
4.12338e-07
1.60114e-06
4.14002e-07
8.03779e-07
3.87797e-07
8.87609e-08
8.93283e-08
3.87787e-07
3.88322e-07
8.93529e-08
8.88382e-08
3.89412e-07
4.18516e-08
4.17874e-08
4.18841e-08
4.19827e-08
1.43499e-06
2.18192e-07
2.18913e-07
2.20559e-07
2.2428e-07
4.18459e-08
4.17472e-08
4.18119e-08
4.19778e-08
4.19729e-08
4.21964e-08
4.19386e-08
4.20009e-08
2.27484e-07
2.23391e-07
1.38737e-06
2.24192e-07
2.17392e-07
4.18599e-08
4.21607e-08
4.20184e-08
4.20309e-08
1.41493e-06
2.22301e-07
2.18773e-07
2.2906e-07
2.23547e-07
3.86466e-07
8.94745e-08
3.81069e-07
8.98609e-08
7.92167e-07
4.08509e-07
1.58489e-06
1.44211e-06
7.80354e-07
4.11481e-07
1.55109e-06
7.85913e-07
4.13819e-07
1.60224e-06
1.44075e-06
7.94931e-07
4.15298e-07
1.59865e-06
3.81707e-07
8.69212e-08
8.82367e-08
3.84251e-07
3.86253e-07
8.95451e-08
8.93054e-08
3.83842e-07
7.96545e-07
1.44376e-06
4.0855e-07
1.55087e-06
4.08831e-07
1.57374e-06
7.92282e-07
7.99328e-07
1.42629e-06
4.10888e-07
1.55868e-06
4.13959e-07
1.57271e-06
7.94178e-07
2.29491e-07
2.23238e-07
1.41652e-06
2.22187e-07
2.20308e-07
4.21857e-08
4.21954e-08
4.21141e-08
4.20684e-08
1.4559e-06
2.23035e-07
2.19454e-07
2.28922e-07
2.25398e-07
4.22903e-08
4.22303e-08
7.67935e-07
4.00642e-07
1.60531e-06
1.41319e-06
7.71589e-07
4.08388e-07
1.59329e-06
3.78421e-07
9.07125e-08
3.71432e-07
9.0575e-08
7.71525e-07
1.6045e-06
4.13338e-07
1.42923e-06
7.82824e-07
1.6002e-06
4.14369e-07
3.73078e-07
8.82907e-08
8.832e-08
3.76779e-07
7.79269e-07
1.43962e-06
4.07828e-07
1.60534e-06
4.07252e-07
1.59895e-06
7.71486e-07
3.76359e-07
9.06256e-08
9.08518e-08
3.77001e-07
7.69738e-07
1.44648e-06
1.60807e-06
4.15289e-07
1.57936e-06
4.1451e-07
7.73092e-07
3.83193e-07
8.85854e-08
3.80934e-07
8.86038e-08
7.7938e-07
1.60237e-06
3.98127e-07
1.43335e-06
7.86325e-07
1.60285e-06
4.02537e-07
3.83095e-07
8.85988e-08
3.82832e-07
8.73704e-08
7.84786e-07
1.44894e-06
4.0206e-07
1.61122e-06
4.04994e-07
1.60946e-06
7.87082e-07
3.81174e-07
8.87329e-08
8.89712e-08
3.8244e-07
7.92901e-07
1.4248e-06
1.60707e-06
4.03623e-07
1.60113e-06
4.0264e-07
7.87113e-07
3.82385e-07
8.83488e-08
8.848e-08
3.85243e-07
2.23818e-07
2.25944e-07
1.41378e-06
2.22697e-07
2.22618e-07
4.21867e-08
4.19305e-08
4.31698e-08
4.28236e-08
1.45385e-06
2.23664e-07
2.22146e-07
2.28509e-07
2.24921e-07
4.19607e-08
4.20243e-08
8.06119e-07
1.6193e-06
4.07661e-07
1.42739e-06
7.98594e-07
1.59453e-06
4.09945e-07
3.85711e-07
8.88123e-08
3.86722e-07
8.88481e-08
3.86451e-07
8.86956e-08
3.86105e-07
8.88292e-08
8.03685e-07
1.45599e-06
1.61694e-06
4.10013e-07
1.59759e-06
4.11811e-07
7.88562e-07
8.07409e-07
1.44773e-06
1.59728e-06
4.07427e-07
1.61277e-06
4.05115e-07
7.9864e-07
3.8668e-07
8.89122e-08
8.90072e-08
3.88019e-07
3.8928e-07
8.81789e-08
8.85033e-08
3.88554e-07
4.18079e-08
4.17169e-08
4.15258e-08
4.17856e-08
1.4397e-06
2.16487e-07
2.19553e-07
2.18026e-07
2.22866e-07
4.18135e-08
4.16112e-08
4.1801e-08
4.16064e-08
4.17303e-08
4.18769e-08
4.1981e-08
4.20212e-08
2.24694e-07
2.21074e-07
1.40115e-06
2.2234e-07
2.18741e-07
4.19696e-08
4.16769e-08
4.1611e-08
4.20588e-08
1.45677e-06
2.21608e-07
2.16991e-07
2.27778e-07
2.22573e-07
3.81851e-07
8.97095e-08
3.84471e-07
8.96835e-08
7.93741e-07
4.06034e-07
1.58188e-06
1.40576e-06
7.8555e-07
4.06192e-07
1.58642e-06
7.9766e-07
4.1496e-07
1.57641e-06
1.44748e-06
7.98153e-07
4.11799e-07
1.58725e-06
3.83683e-07
8.73076e-08
8.65867e-08
3.83895e-07
3.82244e-07
8.9154e-08
8.93246e-08
3.78126e-07
7.93993e-07
1.42283e-06
4.06665e-07
1.59231e-06
4.06011e-07
1.59096e-06
7.8897e-07
7.99944e-07
1.44947e-06
4.14936e-07
1.56372e-06
4.13797e-07
1.58447e-06
7.91087e-07
2.27446e-07
2.22044e-07
1.41696e-06
2.21699e-07
2.1961e-07
4.22642e-08
4.22245e-08
4.21985e-08
4.18353e-08
1.46137e-06
2.20586e-07
2.19421e-07
2.22268e-07
2.24752e-07
4.21691e-08
4.21915e-08
7.68778e-07
4.03379e-07
1.60272e-06
1.43045e-06
7.82198e-07
4.07677e-07
1.58846e-06
3.78279e-07
9.06481e-08
3.7531e-07
8.993e-08
7.6788e-07
1.6085e-06
4.14692e-07
1.44871e-06
7.71709e-07
1.60452e-06
4.1455e-07
3.69105e-07
8.78558e-08
8.80963e-08
3.74133e-07
7.68309e-07
1.41252e-06
4.0805e-07
1.60809e-06
4.03222e-07
1.59953e-06
7.64427e-07
3.75978e-07
8.9978e-08
9.03361e-08
3.78898e-07
7.7723e-07
1.43757e-06
1.58459e-06
4.16516e-07
1.60863e-06
4.12868e-07
7.78986e-07
3.81844e-07
8.90168e-08
3.80493e-07
8.89663e-08
7.85635e-07
1.60301e-06
4.06208e-07
1.42475e-06
7.81996e-07
1.58115e-06
4.0692e-07
3.80572e-07
8.86707e-08
3.82901e-07
8.82189e-08
7.92127e-07
1.45546e-06
4.07616e-07
1.60168e-06
4.07171e-07
1.60517e-06
7.89643e-07
3.81434e-07
8.86924e-08
8.92185e-08
3.82151e-07
7.8477e-07
1.4182e-06
1.61065e-06
4.00349e-07
1.6089e-06
4.02923e-07
7.83904e-07
3.79887e-07
8.67215e-08
8.82988e-08
3.82661e-07
2.28886e-07
2.24733e-07
1.43196e-06
2.21242e-07
2.23748e-07
4.20457e-08
4.20251e-08
4.29004e-08
4.30631e-08
1.4739e-06
2.22743e-07
2.25038e-07
2.29157e-07
2.27367e-07
4.25206e-08
4.22176e-08
7.95007e-07
1.62348e-06
4.04253e-07
1.42197e-06
8.01084e-07
1.59308e-06
4.03519e-07
3.8662e-07
8.85458e-08
3.87525e-07
8.89689e-08
3.86051e-07
8.75875e-08
3.87827e-07
8.8148e-08
7.89918e-07
1.4594e-06
1.60402e-06
4.1422e-07
1.62985e-06
4.13332e-07
7.86179e-07
7.86258e-07
1.4464e-06
1.61773e-06
4.06734e-07
1.61179e-06
4.07358e-07
7.97443e-07
3.85556e-07
8.92555e-08
8.83973e-08
3.86505e-07
3.85572e-07
8.78502e-08
8.76674e-08
3.84972e-07
4.17687e-08
4.16098e-08
4.15942e-08
4.15139e-08
1.44541e-06
2.15273e-07
2.17149e-07
2.20224e-07
2.22352e-07
4.13445e-08
4.15878e-08
4.14305e-08
4.142e-08
4.17454e-08
4.16775e-08
4.18414e-08
4.17836e-08
2.22466e-07
2.19647e-07
1.40906e-06
2.19227e-07
2.17699e-07
4.17321e-08
4.16766e-08
4.1662e-08
4.1787e-08
1.42635e-06
2.18824e-07
2.15643e-07
2.27192e-07
2.2133e-07
3.81828e-07
8.93141e-08
3.80501e-07
8.93804e-08
7.79458e-07
4.05895e-07
1.59524e-06
1.4381e-06
7.90553e-07
4.06625e-07
1.56839e-06
7.86187e-07
4.10369e-07
1.59205e-06
1.42181e-06
7.9294e-07
4.09841e-07
1.58511e-06
3.83898e-07
8.75601e-08
8.72456e-08
3.84407e-07