/*--------------------------------*- C++ -*----------------------------------*\
| =========                 |                                                 |
| \\      /  F ield         | OpenFOAM: The Open Source CFD Toolbox           |
|  \\    /   O peration     | Version:  2206                                  |
|   \\  /    A nd           | Website:  www.openfoam.com                      |
|    \\/     M anipulation  |                                                 |
\*---------------------------------------------------------------------------*/
FoamFile
{
    version     2.0;
    format      ascii;
    arch        "LSB;label=32;scalar=64";
    class       volScalarField;
    location    "110";
    object      omega;
}
// * * * * * * * * * * * * * * * * * * * * * * * * * * * * * * * * * * * * * //

dimensions      [0 0 -1 0 0 0 0];

internalField   nonuniform List<scalar> 
66928
(
29.0501
25.0778
25.919
26.6522
29.1508
25.8615
27.3
29.9326
18.3711
18.1378
398.799
401.76
194.157
195.477
295.257
129.248
298.169
137.894
132.201
21.5479
60.2264
297.894
140.19
21.1496
131.824
59.5695
401.874
195.472
193.289
399.716
129.009
295.686
399.057
398.52
402.038
400.105
191.081
192.536
29.813
193.48
195.516
398.796
399.247
400.391
400.716
28.947
193.916
196.367
190.825
193.506
400.231
147.976
89.8846
193.586
305.885
306.301
88.7992
153.59
146.297
90.3662
194.419
307.047
307.213
88.4151
151.725
241.739
403.822
404.673
404.655
405.578
241.178
295.297
203.428
201.296
415.848
204.709
419.294
156.742
309.788
330.008
204.884
419.248
309.405
154.966
329.585
146.479
89.9162
195.155
306.812
87.915
307.433
151.792
149.084
88.5024
192.483
305.703
306.128
86.8124
145.973
241.997
404.806
404.054
405.745
404.966
242.252
400.822
295.799
202.294
201.489
417.04
399.377
398.734
401.035
401.023
242.919
402.824
403.9
403.716
404.693
242.264
154.398
81.6049
305.704
192.027
152.027
304.819
87.5976
154.991
86.3981
306.542
194.142
149.939
306.415
86.3154
242.073
405.084
405.221
242.322
403.287
405.27
148.36
305.039
192.099
91.1237
305.138
154.44
85.6973
152.96
306.181
194.304
92.2421
306.845
150.013
89.2244
398.815
399.513
400.479
400.365
242.786
403.612
404.591
242.094
403.406
404.284
157.143
91.6585
192.818
304.992
305.097
86.4676
153.637
156.534
92.4165
193.286
306.805
306.667
86.7795
150.045
153.062
305.304
83.3254
190.434
153.79
304.894
89.0492
155.315
306.471
89.3783
193.317
155.305
306.205
87.9467
241.664
403.25
404.186
403.639
404.523
242.382
72.6476
28.5333
46.6548
47.1239
45.685
45.9921
78.1242
73.2891
28.3474
46.9158
46.48
45.6538
45.3398
78.9804
81.0568
42.2965
44.9864
28.8668
76.3278
46.2639
45.3268
82.975
28.2614
48.5294
49.0258
45.4382
45.9235
75.5888
16.7895
16.7814
36.5738
57.9654
128.079
83.5282
53.3942
81.3174
39.0892
40.1902
60.2473
125.577
90.0113
59.3688
88.9508
39.3984
32.0491
59.3098
63.9935
31.2672
63.0554
30.7406
34.3934
37.6956
59.5453
129.702
88.5147
83.9239
58.6934
40.5884
32.0653
58.4397
31.2186
68.6973
30.834
67.8969
34.3127
38.869
57.622
127.474
86.0233
56.3128
84.3595
39.6258
74.8881
28.203
48.4079
48.8901
80.5863
45.0738
45.4405
82.3745
28.3898
43.7609
44.2724
81.6281
47.3716
47.8623
18.3455
27.8459
25.8043
29.3918
18.8457
28.0797
27.7493
30.1675
18.8009
28.0928
27.7338
30.3842
18.8589
28.418
27.7136
30.6556
18.8059
28.3783
27.7888
30.7771
18.8323
28.2878
27.6149
30.7191
18.8619
28.2595
27.6621
30.6122
18.8382
28.2812
27.6813
30.7776
18.549
28.4877
27.805
30.5771
18.9193
28.5123
27.7588
30.7114
18.7804
28.5063
27.9241
30.6323
18.8173
28.3824
27.7243
30.4376
18.7774
28.369
27.5455
30.465
18.8492
28.3039
27.7965
30.9329
18.8529
28.2441
27.7916
30.8284
18.835
28.4744
27.6611
30.7984
18.7887
28.4535
27.6736
30.5018
26.7106
27.0744
27.5527
27.5445
29.4268
30.0859
27.5043
26.4755
28.5807
28.3256
27.8185
27.6243
28.3592
28.0041
29.6068
26.8759
26.7019
27.3856
29.6523
29.1386
30.0635
25.5375
26.547
27.9414
27.984
29.1928
29.7427
27.1705
26.5267
28.2834
28.2342
27.7834
27.6108
28.3888
28.4057
29.7548
25.7939
26.3269
27.9501
30.0417
29.2704
30.0595
27.1039
25.7286
27.7997
27.5716
27.8372
30.0326
26.4739
26.664
28.5202
28.3165
27.8685
26.9902
28.4103
28.813
29.7826
27.0391
26.2707
27.8144
29.38
29.3102
30.077
26.7678
26.8683
28.0993
27.8376
28.0763
30.0662
27.8071
26.8878
28.3592
28.2023
27.4893
26.8608
28.4023
27.8878
29.8788
26.0171
27.4055
27.8372
29.4138
28.4802
30.3556
26.8861
26.7159
27.7353
27.6853
28.2401
30.0392
26.4155
26.3863
28.844
28.5245
27.3181
27.8361
28.5878
28.6216
29.8941
26.4616
27.1634
27.7255
30.5148
28.1915
30.3898
26.9297
26.2539
27.867
27.834
29.0688
30.2314
27.898
26.6363
28.5211
28.4492
27.5602
27.8305
28.3561
28.8985
30.1463
26.8844
27.2132
28.2071
29.2403
29.3094
30.3939
26.1201
26.4596
27.8915
27.6741
29.5692
29.986
27.1057
26.6074
28.4335
28.5313
27.7236
27.3176
28.6109
29.1544
29.9573
26.774
27.2064
27.7793
29.5244
29.3466
29.9973
26.849
26.6773
27.9033
27.8765
28.1022
30.075
27.2628
27.825
28.3493
28.5702
26.3683
27.1156
28.6754
28.9347
29.9672
26.8471
27.4579
27.854
30.2398
28.7544
30.2084
27.0151
26.7982
27.7245
27.7787
28.6447
30.3758
26.3309
26.4288
28.731
28.9205
27.7094
27.153
28.5019
27.706
30.3462
25.8711
26.3453
28.1539
30.5093
29.3387
30.213
26.0233
25.9608
28.2381
27.9362
29.5238
30.1566
28.0853
27.407
28.6039
28.5006
26.5994
27.1337
28.3622
29.4082
30.184
27.5063
26.6309
27.8222
30.4794
29.0604
30.1076
27.2907
26.6202
27.9462
27.8516
28.3118
30.1106
26.4364
26.9912
28.8706
28.2261
26.5059
26.8985
28.5671
27.9909
30.1077
26.8872
27.3324
27.5958
29.0352
28.5672
30.2366
26.8563
26.4073
28.1719
27.5969
29.1618
29.8944
28.1669
26.3645
28.5881
28.59
27.866
27.9681
28.4896
29.2661
29.8705
26.9366
27.1278
27.6404
29.9215
28.6779
30.1643
25.7923
25.8342
28.1122
28.0368
27.8104
30.0592
26.1248
27.6427
28.6028
28.4884
26.2995
27.37
28.7621
28.4889
29.9132
25.9664
27.4266
28.2176
29.6124
29.176
30.2961
27.4954
27.3501
27.8931
27.943
28.6562
29.9945
27.7927
26.6443
28.5107
28.6987
27.8885
26.7575
28.6258
28.076
30.0683
27.5465
27.3878
27.8268
30.6784
29.6104
30.056
27.3357
26.6811
27.8689
27.7383
28.6591
29.9442
27.1527
27.6622
28.2529
28.3357
26.2534
27.1201
28.7184
28.9996
29.9066
27.0275
27.2116
27.8615
30.6093
28.6122
30.3259
26.8722
25.9782
27.826
28.0353
29.0348
29.9899
26.2754
26.9591
28.4501
28.271
27.8811
27.0876
28.5292
28.4925
30.0294
27.1079
27.2194
27.8042
30.1203
28.1297
25.7586
27.0908
28.5778
26.5449
26.3
27.3548
28.6162
28.0455
26.5122
27.7352
30.2109
141.751
295.059
141.179
294.987
399.688
398.759
146.883
297.717
143.178
297.202
18.4013
18.6132
18.6548
18.8184
18.6021
18.848
18.7313
61.5879
133.964
22.2026
27.0646
135.303
22.0396
61.1619
401.933
400.268
57.9203
21.4169
123.622
26.1346
21.1577
130.403
57.621
197.577
193.876
29.7706
197.148
194.387
142.647
295.472
142.696
295.463
398.896
398.983
147.528
297.528
147.378
297.986
18.4282
18.6081
18.326
18.7385
18.738
18.5581
18.9148
61.6149
136.928
22.3032
26.765
62.2508
135.524
21.3933
401.126
400.402
58.7609
21.8179
132.477
27.1997
60.0368
21.6613
132.155
197.499
195.367
30.0203
197.433
195.431
142.68
295.625
143.585
295.526
398.622
398.758
147.362
297.759
147.885
297.691
18.4715
18.7679
18.5206
18.532
18.798
18.8245
18.8814
62.1862
136.286
22.4834
25.8952
62.3072
136.011
21.4359
400.963
400.361
58.591
21.9097
134.156
27.1931
59.2845
20.9521
133.102
198.034
195.661
30.3176
197.645
195.504
141.705
295.63
143.084
295.67
399.626
398.918
147.464
297.745
147.622
298.061
18.5397
18.6608
18.4168
18.749
18.8619
18.8243
18.8923
61.8536
136.316
22.5452
27.7211
62.3967
136.442
21.5058
401.268
400.312
58.5711
22.0102
133.965
26.0341
60.0449
21.1572
133.523
197.185
196.467
30.5141
197.657
195.769
142.903
295.901
143.899
295.629
398.826
398.904
147.514
297.716
148.352
298.119
18.4445
18.7318
18.4895
18.7629
18.8396
18.8292
18.9225
62.1205
137.047
22.5762
26.9851
62.1651
136.27
21.6107
400.363
400.379
59.6389
21.9519
134.608
26.4259
60.6462
21.4458
133.166
197.812
195.797
30.5143
197.541
195.703
142.623
295.852
143.011
295.627
399.392
398.997
147.965
297.778
147.899
297.682
18.5553
18.7084
18.5003
18.5388
18.7888
18.7906
18.9284
61.9849
136.419
22.4941
26.8447
61.9809
136.476
22.0207
400.702
400.542
58.9826
21.9337
133.948
26.4955
60.2105
21.5076
133.309
197.967
196.145
30.2675
197.602
195.82
142.723
295.946
143.403
295.902
399.142
398.815
146.841
297.975
147.465
298.053
18.5462
18.308
18.5388
18.5071
18.7909
18.866
18.8986
62.4422
136.854
22.4595
27.2244
62.2649
136.383
22.0829
401.223
400.57
58.911
22.0133
134.074
26.4393
59.729
21.7033
133.892
198.131
196.236
30.4503
197.667
196.116
142.968
295.814
143.295
295.979
399.427
398.878
148.173
297.927
148.127
298.06
18.6997
18.7022
18.7242
18.8795
18.7566
18.899
18.6907
62.1246
137.123
22.4044
26.2203
63.478
136.32
21.5441
401.421
400.741
59.1084
22.0176
134.047
26.5722
59.3025
20.9824
133.886
197.555
196.282
30.4984
197.513
196.024
143.373
295.662
143.577
295.575
399.718
398.808
147.752
297.88
148.494
298.099
18.5862
18.4626
18.4439
18.9068
18.4887
18.8525
18.8503
62.3487
136.343
22.4156
26.2862
62.406
136.53
21.9822
400.522
400.408
59.32
22.0258
134.847
26.8677
60.0927
21.6196
133.244
197.914
196.03
30.4637
197.843
195.737
143.22
295.795
143.294
295.686
399.222
398.833
147.424
297.905
148.003
297.61
18.6589
18.3911
18.4297
18.7187
18.5481
18.5113
18.8399
62.4859
136.796
22.4995
26.287
62.4076
136.723
22.1711
400.301
400.591
58.8452
21.9457
134.682
25.8349
59.2564
21.4533
133.433
198.024
196.544
30.3429
197.706
195.752
142.711
295.911
143.734
296.013
399.558
399.019
146.91
297.832
148.203
298.075
18.6147
18.7048
18.5187
18.7318
18.494
18.8679
18.8028
62.5389
137.134
22.5538
27.7626
63.0955
135.795
22.0071
401.13
400.404
58.9612
21.9828
134.829
26.9352
59.2134
21.3901
133.83
197.392
196.017
30.1708
197.406
195.946
142.911
295.785
144.261
295.719
398.984
398.958
147.442
297.71
147.297
298.101
18.7032
18.6167
18.3317
18.5145
18.7821
18.5121
18.8757
62.6196
136.708
22.374
27.5761
63.4697
136.268
21.7248
401.179
400.436
59.4731
21.8337
133.536
26.2401
60.0819
21.3743
133.714
197.835
196.379
30.3292
197.642
196.028
142.776
295.689
143.731
295.625
399.304
398.928
147.084
297.889
148.683
297.944
18.3611
18.6406
18.6437
18.4991
18.791
18.9494
18.8657
61.9242
137.51
22.3576
27.2577
62.3639
136.153
21.642
401.144
400.607
58.7166
21.9099
134.421
26.3128
60.4028
21.5327
133.448
197.738
196.3
30.4341
197.447
195.854
142.624
295.694
144.295
295.592
399.193
399.06
147.504
297.771
148.069
298.028
18.3324
18.6466
18.401
18.5174
18.7809
18.8373
18.8764
62.9139
136.76
22.35
27.6079
63.1321
136.204
21.7454
401.468
400.649
59.1989
21.8755
133.976
25.8801
58.891
21.001
133.32
198.111
195.619
30.5518
197.669
195.701
142.603
295.8
143.903
295.62
398.778
399.021
147.489
297.785
148.123
297.975
18.3927
18.5789
18.6314
18.8636
18.7578
18.8264
18.8252
62.6904
136.763
22.444
26.326
62.9686
135.9
21.9941
401.046
400.872
58.7498
21.9718
133.686
26.4534
58.9816
21.2585
133.457
198.145
196.285
30.3822
197.633
195.963
142.24
295.771
143.889
295.664
398.918
399.104
147.793
297.857
147.935
298.016
18.4241
18.4996
18.3156
18.75
18.5678
18.8094
18.6662
62.1357
137.24
22.399
26.2554
62.6087
136.354
21.4561
400.841
400.412
59.8176
21.8487
133.948
26.4513
60.3014
21.2902
133.834
198.293
196.35
30.3472
197.971
195.883
142.277
295.781
142.462
296.103
399.953
398.961
147.039
297.862
148.559
298.12
18.4213
18.5392
18.2637
18.9452
62.7734
137.078
22.5145
26.345
63.4482
135.854
22.083
401.549
400.296
59.3593
21.8723
135.002
26.7986
59.7335
21.0598
133.725
198.115
196.702
30.4346
197.65
195.943
141.52
295.355
295.378
142.449
58.3438
121.235
21.5879
27.0788
21.3029
58.8214
129.707
58.4232
131.352
21.5557
25.45
132.329
21.2372
59.0813
138.178
295.309
141.009
295.027
136.461
295.26
295.51
141.722
54.7107
27.1293
130.784
21.6945
21.4338
58.3749
125.091
54.5403
27.0967
131.552
21.7666
129.882
21.1406
58.278
194.509
196.024
29.7874
194.678
196.609
400.453
400.437
398.867
399.633
27.8954
194.515
196.893
193.55
192.866
400.011
401.997
61.6834
125.798
21.8301
26.7396
21.8898
54.5651
134.329
145.911
297.254
297.174
139.764
60.6547
21.9981
127.322
26.8741
21.4628
133.258
56.8419
138.792
297.454
145.899
297.098
55.9844
28.4144
134.646
22.4514
21.7375
62.7013
126.301
143.384
297.327
297.146
146.605
58.4644
26.8257
22.2463
133.385
21.8591
127.481
62.112
145.516
297.337
297.222
145.455
61.4896
22.1414
136.481
27.264
21.9248
135.924
60.881
145.191
297.499
297.375
144.638
59.6541
27.4654
136.339
21.5831
128.745
21.7693
58.8211
140.35
297.512
297.405
145.591
55.7035
26.8265
22.4017
135.705
21.7045
128.387
62.2561
138.261
297.375
297.575
146.501
193.04
189.408
29.5271
195.415
193.712
400.062
398.875
400.347
401.049
28.1088
196.017
193.967
193.552
192.049
398.462
399.645
58.1025
21.495
129.512
26.0059
20.7225
130.995
57.2651
140.428
295.374
294.813
139.296
140.044
295.116
294.985
138.998
53.3524
26.5569
21.1091
131.496
21.1283
124.923
59.4591
56.3476
25.8338
21.6828
131.184
21.5035
125.909
58.2529
135.753
295.349
294.821
141.759
135.494
295.05
295.115
141.039
400.775
400.436
400.597
398.486
29.2294
196.926
192.861
194.267
193.096
400.328
401.23
398.644
399.554
400.377
398.665
401.139
400.614
191.256
193.236
29.9131
193.987
197.259
398.948
399.264
400.326
401.365
29.1808
194.531
196.799
192.036
195.149
142.476
295.229
138.487
295.361
58.3447
127.356
21.395
27.143
54.7811
131.889
21.219
58.3489
125.224
21.616
26.1248
55.2011
132.585
21.6965
138.596
295.532
295.352
139.334
138.49
295.307
295.321
141.604
54.6514
26.5627
132.64
21.8152
125.22
21.1859
58.4912
55.1801
27.7321
132.474
21.8112
124.499
21.6742
58.3869
190.852
195.165
29.8938
194.936
196.489
400.891
400.466
399.476
400.316
28.5425
194.829
196.645
191.214
195.333
400.174
401.376
61.9348
126.866
21.5825
27.7246
60.4994
135.42
22.39
146.336
297.417
144.272
297.241
61.872
21.9275
128.197
28.1431
59.8892
21.815
133.816
144.892
297.683
297.474
143.883
58.2947
27.7863
135.115
22.6028
128.433
21.9502
62.2826
139.128
297.697
297.499
147.015
59.5004
27.8398
22.4978
134.06
21.8037
129.52
61.9691
145.743
297.694
141
297.919
61.2786
21.4287
132.595
27.0895
59.9019
22.2241
134.725
146.276
297.61
139.785
297.549
56.408
27.3525
135.01
21.8221
128.906
22.2185
61.6186
139.532
297.727
297.583
147.288
59.3771
26.8189
22.5495
135.648
21.8719
127.615
61.6058
140.702
297.414
297.48
147.135
194.956
191.46
29.6127
196.218
194.085
399.494
398.775
400.411
401.809
28.6488
196.628
194.6
191.989
192.356
398.81
400.426
58.8663
21.2601
126.414
27.3585
53.8379
21.2393
131.69
141.336
295.443
136.379
295.031
141.051
295.257
136.601
295.082
55.8619
26.6308
21.7322
131.881
21.6945
125.274
57.7935
55.1789
26.5846
21.9198
131.645
21.2649
126.051
58.5506
136.192
295.612
295.222
141.97
135.981
295.189
295.48
141.247
401.461
400.552
399.644
399.009
28.8321
197.629
195.146
194.238
192.37
400.405
401.601
398.609
400.633
399.561
398.961
401.004
400.564
191.009
194.055
29.9026
194.774
196.82
398.814
399.576
400.661
401.256
28.9344
194.593
196.75
192.659
193.841
142.417
295.373
134.371
295.173
58.4683
128.847
20.9996
27.3848
55.3031
132.024
21.7358
58.5779
129.564
20.8006
27.4031
55.8012
131.718
21.5991
139.303
295.511
295.448
142.36
139.499
295.284
295.439
141.995
55.8375
27.3724
131.704
21.9989
126.958
21.4021
58.9569
53.8652
26.5002
131.793
21.937
129.123
21.3211
59.3905
191.709
195.246
29.9056
194.922
196.829
401.126
400.522
398.911
399.578
27.8342
194.835
196.86
192.871
193.644
400.24
401.58
62.5624
130.548
21.9157
28.1028
55.7799
135.026
21.367
146.941
297.248
139.076
297.33
62.3138
21.892
126.128
25.9678
59.3595
21.3255
135.322
139.859
297.597
297.746
146.251
56.603
27.1074
134.513
22.4754
129.354
22.3344
62.9809
139.36
297.776
297.334
147.621
56.7859
27.9111
22.4362
134.526
22.3115
132.525
63.0359
147.004
297.47
139.474
297.536
62.0839
22.2297
132.497
27.0785
55.9287
21.8662
135.04
146.183
297.847
144.438
297.365
56.4466
27.6398
134.764
21.8686
128.149
22.2568
61.5131
144.569
297.449
297.769
147.298
56.0817
27.4846
22.4525
135.836
21.7392
133.064
62.6433
143.752
297.507
297.989
146.305
192.775
192.708
29.7284
196.924
194.501
399.692
398.956
400.405
401.255
28.6545
196.554
195.071
195.447
190.343
398.742
399.751
58.086
21.6379
127.831
27.3593
54.2562
21.7973
132.215
142.59
295.679
137.989
295.508
141.403
295.591
136.811
295.538
53.4766
26.5901
21.4086
133.005
21.7236
128.695
59.76
54.4805
27.3813
21.9161
132.322
21.7945
129.717
58.9677
134.959
295.726
295.342
142.507
136.416
295.561
295.45
141.999
401.271
400.574
399.389
399.061
29.6069
196.289
195.994
194.987
192.857
400.174
401.694
398.938
399.904
400.449
398.966
401.844
400.498
192.624
194.23
30.0501
194.986
197.067
399.211
399.543
400.467
401.184
29.1461
194.835
196.789
191.286
193.982
141.685
295.381
139.686
295.211
58.6117
125.999
21.6986
26.2646
53.7964
134.214
21.3639
58.6974
128.146
21.6627
26.2618
56.8231
131.796
21.0695
135.498
295.768
295.865
143.161
138.338
295.315
295.347
142.285
55.487
27.8959
132.976
21.9555
131.629
21.2954
58.813
55.0084
27.329
131.542
21.9409
126.915
21.7756
58.5376
191.02
194.991
30.1264
194.934
196.91
401.4
400.514
398.797
399.756
29.1025
194.972
196.937
190.768
193.329
400.295
401.502
62.1431
129.775
21.8698
27.0255
58.4393
134.981
21.7027
146.816
297.497
142.02
297.31
62.8394
21.6896
130.902
27.5654
56.9664
22.034
134.521
142.461
297.602
297.479
144.342
58.4178
27.6396
134.683
22.4782
129.202
22.1813
62.7467
141.944
297.317
297.44
146.614
60.9858
27.6789
22.3959
135.251
22.1564
126.158
62.7549
146.664
297.748
144.048
297.728
61.6299
21.5421
132.262
27.978
60.2753
22.363
135.262
146.743
297.946
139.4
297.401
57.7515
27.1813
132.617
21.9178
133.874
22.3137
58.5224
142.94
297.662
297.564
146.744
56.0444
27.9462
22.6228
134.731
21.9915
130.142
62.6356
139.146
297.343
297.68
147.246
195.264
193.64
30.1297
196.41
195.27
399.739
399.141
400.405
401.809
28.1916
196.93
194.874
192.796
193.483
398.864
400.138
58.5885
20.8939
128.491
27.6816
54.7504
21.6865
132.243
141.511
295.652
137.597
295.593
141.767
295.618
136.489
295.439
54.966
27.5892
21.6252
133.993
21.895
127.083
57.2871
55.0767
27.4857
22.0368
132.225
21.4336
127.818
59.3204
136.648
295.812
295.57
142.663
138.559
295.775
295.692
142.613
401.098
400.647
399.623
399.108
28.5266
197.5
195.272
196.743
192.804
400.211
402.37
398.766
400.725
400.42
399.008
401.238
400.63
193.187
194.346
30.0901
194.867
196.947
398.882
400.346
400.641
401.325
27.7775
194.664
197.035
190.956
194.548
141.587
295.262
138.364
295.301
59.0129
129.877
21.4136
26.4087
56.3075
132.48
20.9374
58.529
126.896
21.3291
27.244
55.2483
132.043
21.6108
136.193
295.725
295.72
141.487
139.277
295.49
295.532
141.913
53.201
26.6686
132.306
21.9432
129.766
21.8017
59.3943
55.3954
27.2655
131.994
21.8944
127.414
21.6909
58.6852
191.503
195.44
30.1372
195.331
197.155
401.219
400.571
398.95
400.274
28.7437
195.019
197.126
193.591
193.432
400.312
401.591
61.8694
129.574
21.4331
28.1147
58.0531
134.846
22.2642
146.295
297.294
142.17
297.387
61.9048
21.9885
127.929
28.1075
58.8429
21.7165
136.211
144.9
297.672
297.668
146.043
58.0954
27.4608
134.893
22.6183
130.256
21.9291
61.9739
142.494
297.806
297.46
146.823
58.1134
27.0592
22.6305
134.972
22.508
133.239
61.8989
146.076
297.54
142.111
297.353
62.6161
21.5617
129.369
26.8516
56.3586
22.3491
134.738
146.974
297.515
139.442
297.367
56.7075
26.479
134.895
22.2283
128.147
22.4145
60.6426
141.268
297.357
297.493
146.094
60.2856
28.1062
22.6497
134.917
21.993
130.214
62.0692
144.13
297.492
297.56
146.27
193.536
192.037
29.7717
196.792
194.526
399.624
399.019
400.552
400.9
28.5978
196.991
194.669
192.998
192.335
399.003
400.662
58.7021
21.7874
128.42
27.0297
55.032
21.482
132.741
142.72
295.884
138.597
295.397
142.275
295.555
136.774
295.439
54.1592
26.9333
21.7409
129.428
21.6706
126.952
59.8248
55.3329
27.1857
22.0089
132.754
21.3678
124.719
58.8428
135.386
295.365
295.686
142.292
137.936
295.483
295.644
141.988
400.991
400.615
399.523
399.126
29.4814
197.578
195.765
194.392
192.309
400.417
401.471
399.052
399.982
399.608
399.1
401.378
400.61
193.211
194.514
30.3124
194.81
196.924
399.061
399.653
400.602
401.311
28.1875
195.101
196.915
190.222
194.442
142.234
295.512
139.455
295.422
59.1751
129.931
21.2873
27.3496
54.372
132.4
21.5802
58.6797
127.224
21.4978
25.5665
56.1531
131.966
21.2396
135.473
296.18
295.913
141.992
138.007
295.347
295.661
141.915
55.6531
27.4094
132.234
21.8908
129.941
21.6787
58.9646
56.9303
27.4574
131.679
22.1064
127.199
22.0551
58.6021
192.475
195.075
30.1796
194.981
196.945
401.198
400.522
398.9
400.424
29.2281
194.633
196.587
192.565
194.441
400.189
401.711
62.3842
130.027
21.6352
28.146
59.2265
135.318
22.4589
146.736
297.374
143.979
297.456
62.5525
22.046
128.573
28.2776
59.7045
21.8191
135.419
145.114
297.837
297.67
143.16
56.7953
28.1002
136.335
22.5785
131.428
21.9089
62.8246
144.262
297.86
297.387
146.325
56.3603
26.9605
22.4601
135.982
21.706
127.643
62.8697
146.084
297.501
141.464
297.778
62.3638
22.3299
129.983
26.9941
56.2887
21.9636
135.155
146.617
297.737
139.258
297.288
55.1485
26.5051
132.465
22.132
133.751
21.8383
61.1145
140.762
297.416
297.759
145.813
55.9527
27.3463
22.5408
134.741
21.8322
129.452
62.6597
138.875
297.633
297.498
146.934
193.019
192.253
29.8972
197.21
195.257
400.377
398.951
400.535
401.21
27.6288
196.869
195.274
195.281
193.156
398.752
399.895
58.6554
21.8195
125.64
26.372
54.5836
21.5404
132.911
142.403
295.662
134.093
295.224
141.747
295.606
138.155
295.617
56.3061
27.0206
21.3791
129.514
21.4558
128.911
56.5371
56.0503
27.9841
22.0696
132.909
21.4655
130.56
59.2015
139.239
295.411
295.471
142.064
139.298
295.603
295.881
141.996
401.358
400.538
399.861
399.15
28.8935
197.549
195.538
194.91
193.781
400.404
401.383
398.96
400.845
399.718
398.993
401.238
400.582
193.296
194.348
30.098
194.934
196.781
399.099
399.697
400.603
401.224
27.8125
194.948
196.939
192.862
194.327
141.599
295.414
136.954
295.304
58.4992
129.146
21.3149
27.7744
54.7347
130.31
20.9538
59.1343
126.739
21.4623
27.1069
54.0724
131.817
21.7017
137.418
295.739
296.035
142.103
137.717
295.35
295.222
142.684
54.7564
27.4327
133.214
21.9442
130.232
21.824
58.9754
56.4569
27.1852
131.3
21.9269
126.062
21.8109
58.8533
192.838
194.123
30.2516
194.906
196.692
401.106
400.529
398.685
400.086
28.781
194.851
196.773
190.459
194.386
399.967
402.191
62.3395
133.826
22.099
27.7198
60.6764
135.349
22.2824
147.144
297.648
140.172
297.925
62.0387
22.2293
133.162
28.2498
60.676
21.8554
135.644
143.027
297.805
297.554
146.61
59.9555
27.9013
135.497
22.514
130.232
22.3145
62.4644
143.286
297.587
297.532
146.727
56.5957
27.0202
22.4347
135.121
21.9453
130.418
62.9065
146.282
297.706
141.612
297.905
62.1852
22.2958
129.896
26.9223
60.6216
21.8602
134.813
146.317
297.774
140.221
297.319
57.0571
26.9944
132.734
21.7736
130.617
21.8511
63.2906
142.003
297.41
297.645
146.419
57.6351
28.2482
22.4142
135.482
22.0155
131.628
62.0745
140.776
297.615
297.558
146.735
195.266
191.332
29.9759
197.582
194.913
399.664
399.107
400.579
401.381
28.4127
197.278
194.864
195.748
192.722
398.516
400.757
59.3102
21.1504
129.048
27.2047
54.2536
21.8674
132.655
141.781
295.507
137.049
295.715
142.025
295.724
138.393
295.334
56.1301
26.9536
21.8615
132.646
21.8259
131.032
58.4072
56.584
27.3004
22.1021
132.372
21.526
127.868
59.4147
138.501
295.371
295.824
142.318
135.998
295.605
295.556
143.552
401.333
400.536
399.859
399.185
29.4877
196.765
195.613
195.503
193.959
400.196
401.431
398.984
400.858
399.842
399.061
401.346
400.614
191.82
194.394
30.1283
195.568
196.878
398.783
400.689
400.442
401.3
28.8221
195.026
196.874
194.141
194.359
142.553
295.469
134.28
295.306
58.9172
126.916
20.8709
26.3888
55.7786
133.869
21.6349
58.7177
126.578
21.4724
26.2464
55.4708
131.518
21.29
139.655
295.638
295.964
141.811
139.311
295.435
295.333
142.313
56.3929
27.3265
133.036
22.0106
126.191
21.3747
59.9427
55.4859
27.3776
132.058
21.8769
128.127
21.2285
59.8888
193.444
195.021
29.9402
194.727
197.004
400.896
400.566
398.99
399.95
28.9095
194.712
197.183
192.713
193.125
400.226
401.616
62.6571
130.76
22.0184
27.8645
59.6488
135.657
21.7848
146.126
297.733
141.721
297.972
62.0053
22.1298
131.484
27.0263
60.7691
21.8226
135.712
145.416
298.029
297.601
144.285
60.2183
27.9823
134.945
22.6366
129.822
22.4628
62.547
141.514
297.981
297.652
146.201
60.6745
28.0852
22.4343
136.055
21.9417
132.802
62.7105
146.824
297.682
138.239
297.773
61.7441
22.048
132.017
28.0741
57.8913
21.7662
135.022
146.235
297.771
142.343
297.539
59.2075
27.854
134.884
22.0951
128.683
22.3608
61.5103
141.65
297.772
297.558
147.156
57.8566
27.2078
22.3834
135.24
21.7531
132.842
62.1417
141.419
297.401
297.868
146.263
194.639
190.776
30.1058
197.923
195.563
399.359
399.126
401.314
402.438
28.5152
197.826
195.409
196.894
192.953
398.772
400.77
58.7219
21.7679
127.41
27.2821
56.3326
21.4317
132.154
142.043
295.491
134.953
295.368
141.912
295.592
140.812
295.537
57.2609
27.1232
21.4254
134.263
21.7396
127.417
59.2368
55.3107
27.5242
21.9219
132.062
21.4397
127.59
58.965
137.67
295.713
295.699
142.552
139.355
295.625
295.37
142.513
401.231
400.58
399.88
399.132
28.3999
195.409
195.674
196.292
192.377
400.357
401.679
398.687
399.95
399.28
399.024
401.192
400.628
190.951
194.376
30.0086
195.257
197.09
399.08
399.661
400.447
401.307
29.0872
195.087
196.786
191.592
194.069
142.966
295.38
137.751
295.391
60.1921
125.084
21.6349
26.4361
58.7138
133.024
21.7703
59.9985
124.345
21.1294
27.2895
58.831
132.705
21.8849
135.777
295.634
295.51
141.983
139.266
295.36
295.497
141.801
53.757
26.8196
132.918
21.9322
124.705
21.7652
59.4731
53.806
27.3345
132.41
22.0132
124.656
21.4476
59.6678
192.192
193.09
30.2063
194.801
197.308
401.049
400.551
398.796
400.315
27.8923
194.898
196.813
193.148
195.952
400.294
401.428
62.5525
131.843
21.7425
28.0556
60.8701
135.824
21.3896
146.442
297.483
141.507
297.378
62.1011
22.0163
132.058
28.1547
58.8963
22.2185
135.278
140.284
298.041
297.801
146.658
60.909
27.2753
135.03
22.5637
133.138
22.3842
62.6869
143.134
297.895
297.372
147.149
58.1584
27.5255
22.4796
135.406
22.2632
131.714
62.4297
146.163
297.553
141.534
297.901
62.269
21.4951
132.918
28.0366
58.8535
22.3564
135.18
146.029
297.739
141.662
297.599
60.507
27.8981
133.468
21.7502
133.494
21.8855
60.5615
141.385
297.934
298.15
146.201
58.6403
28.057
22.3866
135.69
22.4961
128.107
61.9171
140.919
297.598
297.893
146.188
195.891
192.737
30.231
196.54
195.078
399.736
399
401.342
401.158
28.1539
197.489
194.932
196.963
192.911
398.69
400.654
59.0849
21.5506
124.121
27.4633
52.9658
21.7271
132.848
142.513
295.852
138.389
295.276
141.575
295.245
138.724
295.293
56.3945
26.5217
21.7818
132.575
21.7557
126.353
58.3093
54.0256
26.8194
21.9341
132.912
21.7571
125.938
58.8917
138.824
295.726
295.434
142.548
135.485
295.676
295.564
142.874
401.582
400.596
399.465
399.084
28.5018
197.683
196.317
194.467
192.156
400.14
401.433
399.136
400.781
399.897
398.878
401.2
400.587
192.893
193.645
30.1239
194.768
196.896
399.201
399.356
400.535
401.364
29.0322
195.275
197.025
190.48
195.184
142.48
295.394
134.577
295.256
59.2161
129.435
21.0825
27.675
53.6429
132.773
21.8621
58.6401
124.469
21.5976
27.6072
57.6088
132.497
21.7481
140.452
295.811
295.857
139.358
139.646
295.436
295.466
141.801
53.465
26.8861
133.279
21.896
129.354
21.4836
59.2941
53.5254
26.5101
132.298
21.9192
125.596
21.7568
59.594
193.271
193.202
30.199
194.848
197.208
401.227
400.536
398.95
399.498
29.2354
195.162
197.125
193.513
195.851
400.381
402.19
62.3401
132.515
21.6709
27.1566
59.5368
135.135
22.4669
146.55
297.529
143.93
297.827
62.0425
21.8242
131.818
26.2358
57.9404
21.4276
135.854
141.953
297.752
297.646
147.485
58.2041
28.0851
135.933
22.511
127.842
22.2147
62.2838
143.929
297.827
297.601
146.477
56.1249
28.1517
22.5563
134.837
22.4226
128.102
62.7909
146.246
297.746
141.566
297.56
61.6254
22.2521
127.726
28.2899
57.979
21.9616
135.981
145.969
297.512
141.578
297.519
58.3773
27.8834
136.568
22.4331
133.357
22.3291
59.9025
141.474
298.066
298.22
146.639
57.8842
27.5562
22.5305
135.093
21.842
132.047
61.9194
142.607
297.407
297.77
147.391
193.446
193.496
29.9599
197.568
194.77
399.596
399.024
400.489
401.48
27.9973
197.143
194.712
193.471
192.857
398.71
400.651
58.6471
21.3539
128.964
26.5239
56.0753
21.6208
132.233
141.907
295.95
139.075
295.281
142.008
295.559
140.459
295.277
56.0794
27.3834
21.3296
130.524
21.3966
127.951
58.2382
54.8257
27.2711
21.897
132.053
21.7019
127.383
58.8342
138.137
295.367
295.389
142.762
135.099
295.643
295.48
142.774
400.941
400.586
399.967
399.107
28.4153
196.539
193.772
193.53
193.746
400.229
401.404
398.692
400.162
400.049
399.094
401.227
400.548
191.69
193.216
30.125
195.485
197.401
398.812
399.743
400.303
402.09
28.9387
194.633
197.009
192.592
195.85
141.738
295.626
138.152
295.514
59.1813
129.152
21.4381
27.5727
53.5789
134.094
21.6617
58.9298
129.134
21.3383
25.6671
55.5287
133.383
21.6081
137.278
295.977
295.71
140.1
136.927
295.453
295.441
142.036
53.6163
27.5389
132.748
21.8327
129.636
21.6943
59.5901
56.5293
27.5107
132.443
21.8445
130.093
21.6671
59.4129
191.237
195.199
30.2473
195.637
196.994
401.288
400.517
399.143
400.589
29.4792
195.28
196.765
192.217
194.684
400.299
401.028
62.7967
128.239
21.3959
28.1337
59.2229
136.309
22.2417
146.123
297.448
143.856
297.398
62.0229
21.9713
130.123
27.6509
60.6851
22.2304
135.069
139.667
297.576
297.668
142.558
57.0838
27.4863
135.331
22.6227
133.369
21.9283
62.9162
139.002
297.719
297.295
147.104
60.2805
27.7303
22.513
135.318
22.382
130.763
62.2632
146.089
297.888
141.064
297.921
61.4975
21.8596
131.354
28.2066
59.0211
21.3259
135.538
145.998
297.749
142.358
297.585
59.7309
27.181
135.859
21.6905
130.198
21.8094
60.3902
141.484
297.781
297.584
146.452
55.9272
27.1077
22.4499
135.634
22.3059
130.269
62.4924
141.032
297.542
297.874
146.532
195.567
191.53
30.1383
196.656
194.94
399.616
398.903
400.608
401.166
27.9486
197.067
195.208
193.08
193.242
398.653
400.811
58.5013
20.9453
127.123
26.2855
54.8021
21.7007
132.233
141.914
295.673
139.183
295.336
141.867
295.37
139.205
295.345
56.0612
27.2228
21.6624
131.861
21.1185
131.085
59.2458
54.9291
26.7487
21.9945