/*--------------------------------*- C++ -*----------------------------------*\
| =========                 |                                                 |
| \\      /  F ield         | OpenFOAM: The Open Source CFD Toolbox           |
|  \\    /   O peration     | Version:  2206                                  |
|   \\  /    A nd           | Website:  www.openfoam.com                      |
|    \\/     M anipulation  |                                                 |
\*---------------------------------------------------------------------------*/
FoamFile
{
    version     2.0;
    format      ascii;
    arch        "LSB;label=32;scalar=64";
    class       volScalarField;
    location    "110";
    object      p;
}
// * * * * * * * * * * * * * * * * * * * * * * * * * * * * * * * * * * * * * //

dimensions      [0 2 -2 0 0 0 0];

internalField   nonuniform List<scalar> 
66928
(
-0.00667453
-0.00666353
-0.00666307
-0.00666302
-0.00667429
-0.00666305
-0.0066962
-0.00685129
-0.0066631
-0.00666285
-0.00667422
-0.00667436
-0.00667423
-0.00667439
-0.00667416
-0.00667387
-0.0066744
-0.0066746
-0.00667413
-0.00666294
-0.00667409
-0.00667437
-0.00667462
-0.00666292
-0.00667407
-0.00667409
-0.00667432
-0.00667432
-0.00667417
-0.00667422
-0.00667371
-0.00667423
-0.00669657
-0.00676261
-0.00669643
-0.00676274
-0.00669649
-0.00669633
-0.00676291
-0.00676261
-0.00676271
-0.00685093
-0.00678493
-0.00685112
-0.00678479
-0.00678455
-0.00685093
-0.00685113
-0.00678486
-0.00678469
-0.00665237
-0.0066522
-0.00667461
-0.00665241
-0.00667415
-0.00665246
-0.00665209
-0.00667432
-0.00665213
-0.00667481
-0.00665222
-0.00667425
-0.00665239
-0.00665174
-0.00667443
-0.00665216
-0.00667426
-0.00667429
-0.00665235
-0.00665231
-0.00667444
-0.00665234
-0.00667418
-0.00665225
-0.006674
-0.00667446
-0.00667429
-0.00667454
-0.00667434
-0.00667433
-0.00667442
-0.00667429
-0.00667435
-0.00667452
-0.00667432
-0.00665203
-0.00667471
-0.00665214
-0.00667419
-0.00665165
-0.00665229
-0.00667435
-0.00665213
-0.00667448
-0.00665232
-0.00667411
-0.0066524
-0.00665185
-0.00667426
-0.00665206
-0.00667422
-0.00667419
-0.00665223
-0.00665228
-0.00667437
-0.00665236
-0.00665242
-0.00667421
-0.00665242
-0.00667409
-0.00671839
-0.00674077
-0.00671855
-0.00674059
-0.00674046
-0.00676259
-0.00676263
-0.00674069
-0.00674064
-0.00676275
-0.00671852
-0.00669598
-0.00669662
-0.00671834
-0.00669636
-0.0067183
-0.00671869
-0.00671858
-0.00669578
-0.00669655
-0.00671849
-0.00669627
-0.00671838
-0.00671889
-0.00671859
-0.00669652
-0.00669648
-0.00669633
-0.0067184
-0.00671843
-0.00674056
-0.0067625
-0.00674075
-0.00676296
-0.0067408
-0.00676269
-0.00674034
-0.00674044
-0.00676257
-0.00674055
-0.00676313
-0.00674069
-0.00676272
-0.00674011
-0.0068291
-0.00680679
-0.00682901
-0.00680696
-0.00680697
-0.00678489
-0.00678483
-0.00678467
-0.00680679
-0.00680683
-0.0068289
-0.00685122
-0.0068291
-0.00685085
-0.00682916
-0.00682865
-0.00685105
-0.00682879
-0.00685149
-0.00682897
-0.00685097
-0.0068291
-0.00682845
-0.00685113
-0.00680688
-0.00678499
-0.00678441
-0.00680676
-0.00678468
-0.0068067
-0.0068071
-0.00680695
-0.00678487
-0.00678417
-0.00680694
-0.00678458
-0.00680677
-0.00680731
-0.00682884
-0.00685095
-0.006851
-0.00682908
-0.00682905
-0.00685115
-0.00665306
-0.006652
-0.00667421
-0.00667432
-0.0066524
-0.00665213
-0.00667345
-0.00665295
-0.00665171
-0.00667427
-0.00667406
-0.00665203
-0.00665211
-0.00667337
-0.00671766
-0.00669634
-0.00669625
-0.00671869
-0.00669711
-0.00671831
-0.00671856
-0.00682975
-0.00682878
-0.00685087
-0.00685103
-0.006829
-0.00682891
-0.00685009
-0.00666284
-0.00666279
-0.00665236
-0.00667499
-0.00665286
-0.00667378
-0.00665202
-0.00665276
-0.00667486
-0.00665128
-0.00667522
-0.00665248
-0.00667404
-0.00665129
-0.00665242
-0.00667501
-0.00665114
-0.00665229
-0.00667403
-0.00667522
-0.00665238
-0.00665098
-0.0066751
-0.00665133
-0.00667516
-0.00665236
-0.00667401
-0.00665242
-0.00665124
-0.00667502
-0.00665118
-0.00665232
-0.00667519
-0.00667406
-0.00665101
-0.00665238
-0.00667515
-0.00665177
-0.00667473
-0.00665271
-0.00667348
-0.00665155
-0.00665278
-0.00667438
-0.00674142
-0.00674037
-0.00676251
-0.00676274
-0.0067618
-0.00674058
-0.00674056
-0.00680608
-0.006807
-0.00678478
-0.00678463
-0.00678553
-0.00680673
-0.00680688
-0.00670743
-0.00670744
-0.00670738
-0.00669611
-0.0068841
-0.00688414
-0.00688422
-0.00687287
-0.00706058
-0.00706071
-0.00706067
-0.00704944
-0.00723699
-0.00723711
-0.0072372
-0.00722592
-0.00741375
-0.0074137
-0.00741364
-0.00740244
-0.00759058
-0.00759065
-0.00759057
-0.00757927
-0.00776779
-0.00776786
-0.00776782
-0.0077565
-0.00794496
-0.00794506
-0.00794509
-0.00793371
-0.00812236
-0.00812241
-0.00812254
-0.00811115
-0.00830003
-0.00830015
-0.00830012
-0.00828878
-0.00847773
-0.0084778
-0.00847779
-0.00846653
-0.00865547
-0.00865553
-0.00865564
-0.0086443
-0.00883324
-0.00883338
-0.0088334
-0.0088221
-0.0090111
-0.00901123
-0.00901124
-0.0089999
-0.00918916
-0.00918926
-0.00918924
-0.00917789
-0.0093674
-0.00936745
-0.00936752
-0.0093562
-0.00954599
-0.009546
-0.00954604
-0.0095347
-0.00670754
-0.00670749
-0.00684004
-0.00683997
-0.00669617
-0.00685115
-0.0067075
-0.00670736
-0.00683999
-0.00683996
-0.00670745
-0.00683986
-0.00683994
-0.00669603
-0.00685121
-0.00670732
-0.00683997
-0.00683998
-0.00685113
-0.00687291
-0.00702769
-0.00688423
-0.00688421
-0.00701649
-0.00701652
-0.00687288
-0.00702773
-0.00688417
-0.00688423
-0.00701651
-0.00701649
-0.00688421
-0.00701653
-0.00701654
-0.0068729
-0.00702769
-0.00688423
-0.0070165
-0.00701652
-0.00702774
-0.00704936
-0.00720421
-0.00706064
-0.00706067
-0.00719294
-0.00719304
-0.00704943
-0.00720417
-0.00706061
-0.00706065
-0.00719294
-0.00719295
-0.00706071
-0.00719295
-0.00719293
-0.00704939
-0.00720426
-0.00706068
-0.00719301
-0.00719291
-0.00720413
-0.00722595
-0.0073808
-0.00723715
-0.00723719
-0.00736952
-0.00736949
-0.00722591
-0.00738073
-0.00723719
-0.00723719
-0.00736954
-0.00736945
-0.00723713
-0.00736949
-0.00736947
-0.00722597
-0.00738064
-0.00723714
-0.00736943
-0.00736952
-0.0073807
-0.00740247
-0.00755764
-0.00741379
-0.0074137
-0.00754638
-0.00754638
-0.00740243
-0.0075576
-0.00741373
-0.00741365
-0.00754638
-0.00754626
-0.00741369
-0.00754632
-0.00754629
-0.00740231
-0.00755752
-0.00741374
-0.00754626
-0.0075463
-0.00755757
-0.00757934
-0.00773462
-0.00759063
-0.00759064
-0.00772343
-0.00772349
-0.00757935
-0.00773474
-0.00759062
-0.0075906
-0.00772335
-0.00772346
-0.00759056
-0.00772349
-0.00772342
-0.00757934
-0.00773473
-0.00759056
-0.00772345
-0.00772344
-0.00773463
-0.0077564
-0.00791198
-0.00776776
-0.00776783
-0.00790065
-0.0079007
-0.00775657
-0.00791194
-0.00776777
-0.00776782
-0.00790072
-0.00790067
-0.0077678
-0.00790067
-0.00790067
-0.00775651
-0.0079119
-0.00776779
-0.00790068
-0.00790072
-0.00791195
-0.00793382
-0.0080893
-0.00794502
-0.00794507
-0.00807807
-0.00807812
-0.00793375
-0.00808934
-0.00794517
-0.0079451
-0.00807803
-0.00807807
-0.00794503
-0.00807802
-0.00807804
-0.00793371
-0.00808932
-0.00794506
-0.00807817
-0.00807809
-0.00808932
-0.00811115
-0.00826688
-0.00812247
-0.00812245
-0.00825559
-0.00825568
-0.00811115
-0.00826692
-0.00812244
-0.00812247
-0.00825556
-0.00825561
-0.00812248
-0.00825566
-0.00825562
-0.00811111
-0.00826689
-0.0081225
-0.00825566
-0.00825567
-0.00826692
-0.00828875
-0.00844461
-0.00830005
-0.00830012
-0.00843337
-0.00843333
-0.00828879
-0.0084446
-0.00830004
-0.0083001
-0.00843341
-0.00843334
-0.0083001
-0.00843336
-0.0084333
-0.00828878
-0.00844464
-0.00830013
-0.00843336
-0.00843332
-0.00844463
-0.00846652
-0.00862233
-0.00847779
-0.00847779
-0.00861103
-0.00861106
-0.0084665
-0.00862228
-0.0084778
-0.00847781
-0.00861105
-0.0086111
-0.00847779
-0.00861106
-0.00861108
-0.00846655
-0.00862238
-0.00847782
-0.00861112
-0.00861112
-0.00862243
-0.00864425
-0.00880016
-0.00865554
-0.00865554
-0.00878887
-0.00878887
-0.00864423
-0.00880016
-0.00865555
-0.00865559
-0.00878887
-0.00878885
-0.00865562
-0.00878888
-0.00878893
-0.00864435
-0.00880013
-0.00865562
-0.00878891
-0.00878893
-0.0088002
-0.00882206
-0.00897797
-0.00883337
-0.00883338
-0.00896667
-0.00896668
-0.00882209
-0.00897802
-0.00883333
-0.00883339
-0.00896666
-0.00896666
-0.00883339
-0.00896671
-0.00896672
-0.0088221
-0.00897793
-0.0088334
-0.0089667
-0.00896674
-0.00897799
-0.00899995
-0.00915593
-0.00901115
-0.00901123
-0.00914471
-0.0091447
-0.0089999
-0.009156
-0.00901117
-0.00901116
-0.00914468
-0.00914468
-0.00901121
-0.00914471
-0.00914469
-0.00899989
-0.00915589
-0.00901121
-0.00914467
-0.00914467
-0.00915595
-0.00917787
-0.00933412
-0.00918924
-0.00918923
-0.00932285
-0.00932286
-0.00917797
-0.00933413
-0.00918919
-0.00918925
-0.00932287
-0.00932285
-0.00918922
-0.00932282
-0.00932287
-0.00917789
-0.00933412
-0.00918923
-0.00932285
-0.00932287
-0.00933414
-0.00935615
-0.00951261
-0.00936746
-0.00936748
-0.00950123
-0.00950129
-0.00935614
-0.00951251
-0.0093675
-0.0093675
-0.0095013
-0.00950128
-0.0093675
-0.0095013
-0.00950136
-0.00935617
-0.00951265
-0.00936752
-0.00950133
-0.00950145
-0.00951269
-0.00953473
-0.00954601
-0.00954603
-0.00953465
-0.00954603
-0.00954602
-0.00954604
-0.0096799
-0.00953473
-0.00954611
-0.00967993
-0.00969126
-0.00676252
-0.00669655
-0.00669665
-0.00676258
-0.00669655
-0.00676255
-0.00676312
-0.00669637
-0.00669607
-0.00676282
-0.00670742
-0.00670732
-0.00670725
-0.00683983
-0.00683984
-0.00683982
-0.00683979
-0.00676256
-0.00669664
-0.00670742
-0.00675164
-0.00676256
-0.0067516
-0.00669654
-0.00669641
-0.00676276
-0.00676188
-0.0067073
-0.00669679
-0.0067517
-0.00675176
-0.00676219
-0.00669707
-0.0066963
-0.0066965
-0.00676291
-0.00676272
-0.0067626
-0.00693914
-0.00687326
-0.00687329
-0.00693911
-0.00687324
-0.00693914
-0.00693963
-0.00687311
-0.00687279
-0.00693936
-0.00688413
-0.00688418
-0.00688422
-0.00701649
-0.00701643
-0.00701645
-0.00701643
-0.00693914
-0.00687329
-0.00688409
-0.00692832
-0.00687322
-0.00693905
-0.00692826
-0.00687309
-0.00693937
-0.00693849
-0.00688417
-0.00687357
-0.00692832
-0.00687382
-0.00692831
-0.00693878
-0.00687308
-0.0068732
-0.00693949
-0.00693932
-0.00693914
-0.00711562
-0.00704975
-0.00704975
-0.0071156
-0.00704974
-0.00711562
-0.00711615
-0.00704954
-0.00704933
-0.00711589
-0.00706062
-0.00706058
-0.00706062
-0.00719286
-0.00719293
-0.00719289
-0.0071929
-0.00711557
-0.00704975
-0.00706062
-0.00710482
-0.00704968
-0.00711563
-0.00710476
-0.0070496
-0.00711581
-0.00711499
-0.00706061
-0.00705014
-0.0071048
-0.00705038
-0.00710479
-0.00711528
-0.00704955
-0.00704975
-0.00711602
-0.0071158
-0.00711566
-0.00729212
-0.00722624
-0.00722617
-0.00729207
-0.00722617
-0.0072921
-0.00729255
-0.00722599
-0.00722577
-0.00729232
-0.0072372
-0.00723709
-0.00723711
-0.00736947
-0.00736947
-0.00736941
-0.00736946
-0.00729212
-0.00722625
-0.00723712
-0.0072812
-0.00722612
-0.00729208
-0.00728124
-0.0072261
-0.00729231
-0.00729147
-0.00723713
-0.00722661
-0.00728132
-0.00722679
-0.00728122
-0.00729177
-0.00722597
-0.00722612
-0.00729244
-0.00729231
-0.00729208
-0.00746877
-0.00740266
-0.00740273
-0.00746875
-0.00740273
-0.00746872
-0.00746918
-0.00740251
-0.00740223
-0.00746898
-0.0074137
-0.00741371
-0.00741367
-0.00754626
-0.00754631
-0.00754623
-0.00754628
-0.00746878
-0.0074028
-0.00741367
-0.00745797
-0.00740265
-0.00746871
-0.00745784
-0.00740255
-0.00746888
-0.00746808
-0.00741362
-0.00740306
-0.00745787
-0.00740335
-0.00745782
-0.00746842
-0.00740251
-0.00740271
-0.00746913
-0.00746893
-0.00746873
-0.00764582
-0.0075797
-0.00757962
-0.00764585
-0.00757964
-0.00764578
-0.00764617
-0.00757942
-0.00757919
-0.00764596
-0.00759067
-0.00759056
-0.00759061
-0.0077235
-0.00772343
-0.00772344
-0.00772342
-0.00764571
-0.00757968
-0.00759059
-0.00763495
-0.00757964
-0.00764568
-0.00763495
-0.00757937
-0.00764584
-0.00764501
-0.00759052
-0.00757992
-0.00763486
-0.00758024
-0.00763488
-0.00764531
-0.00757941
-0.00757954
-0.0076461
-0.00764591
-0.00764576
-0.00782299
-0.00775673
-0.00775683
-0.00782291
-0.00775679
-0.00782299
-0.00782337
-0.00775653
-0.00775629
-0.00782312
-0.00776782
-0.00776782
-0.00776779
-0.00790063
-0.00790069
-0.00790068
-0.00790065
-0.00782307
-0.00775689
-0.00776778
-0.00781214
-0.00775681
-0.00782298
-0.00781209
-0.00775653
-0.007823
-0.00782233
-0.00776778
-0.00775709
-0.00781211
-0.00775733
-0.00781211
-0.00782259
-0.00775662
-0.00775678
-0.00782339
-0.00782315
-0.00782302
-0.00800032
-0.00793406
-0.00793398
-0.00800031
-0.00793405
-0.00800024
-0.00800073
-0.00793377
-0.0079336
-0.00800047
-0.0079451
-0.00794507
-0.00794505
-0.00807803
-0.00807798
-0.00807806
-0.00807802
-0.00800023
-0.00793408
-0.00794505
-0.00798951
-0.00793401
-0.00800019
-0.0079894
-0.00793386
-0.00800039
-0.00799966
-0.00794505
-0.0079344
-0.00798942
-0.00793465
-0.00798936
-0.00799996
-0.00793386
-0.00793399
-0.00800067
-0.00800044
-0.00800026
-0.00817772
-0.00811148
-0.00811146
-0.00817776
-0.00811147
-0.00817771
-0.00817819
-0.00811129
-0.00811103
-0.00817794
-0.00812244
-0.00812247
-0.00812245
-0.00825557
-0.0082556
-0.00825559
-0.00825564
-0.0081777
-0.00811148
-0.00812242
-0.00816686
-0.00811137
-0.0081777
-0.00816683
-0.00811134
-0.00817794
-0.00817713
-0.00812244
-0.00811179
-0.00816687
-0.00811205
-0.00816685
-0.00817741
-0.00811129
-0.00811139
-0.00817807
-0.00817793
-0.00817776
-0.0083554
-0.00828907
-0.00828905
-0.00835543
-0.00828906
-0.00835545
-0.00835592
-0.00828888
-0.00828859
-0.00835564
-0.00830014
-0.00830008
-0.00830014
-0.00843332
-0.00843327
-0.00843334
-0.00843332
-0.00835546
-0.00828908
-0.00830014
-0.00834456
-0.008289
-0.00835538
-0.00834452
-0.00828893
-0.0083556
-0.00835482
-0.00830005
-0.00828943
-0.00834449
-0.00828971
-0.00834448
-0.00835509
-0.00828885
-0.00828908
-0.00835579
-0.00835564
-0.00835548
-0.00853312
-0.00846679
-0.00846685
-0.00853314
-0.00846684
-0.00853315
-0.00853359
-0.0084666
-0.00846637
-0.00853339
-0.00847779
-0.00847781
-0.00847784
-0.00861103
-0.0086111
-0.00861108
-0.00861107
-0.00853315
-0.00846693
-0.00847776
-0.00852227
-0.00846684
-0.00853321
-0.00852229
-0.00846668
-0.00853335
-0.00853246
-0.00847784
-0.00846715
-0.00852224
-0.00846736
-0.00852227
-0.00853281
-0.00846667
-0.0084668
-0.00853348
-0.00853334
-0.00853318
-0.00871086
-0.00864457
-0.00864453
-0.00871093
-0.00864451
-0.0087109
-0.00871143
-0.00864434
-0.0086441
-0.00871116
-0.00865562
-0.00865567
-0.00865561
-0.00878889
-0.00878884
-0.00878889
-0.00878886
-0.00871093
-0.00864465
-0.00865558
-0.00869997
-0.00864454
-0.00871091
-0.00870005
-0.00864438
-0.00871104
-0.00871032
-0.0086556
-0.00864497
-0.0087001
-0.00864523
-0.00870009
-0.00871063
-0.00864436
-0.00864449
-0.00871127
-0.00871107
-0.00871094
-0.00888871
-0.00882238
-0.00882233
-0.00888872
-0.00882236
-0.00888871
-0.0088892
-0.00882215
-0.00882188
-0.00888897
-0.00883335
-0.00883338
-0.00883341
-0.00896663
-0.00896664
-0.00896671
-0.00896676
-0.00888882
-0.0088224
-0.00883329
-0.00887785
-0.00882234
-0.00888875
-0.00887778
-0.00882217
-0.00888889
-0.00888815
-0.00883333
-0.00882274
-0.00887787
-0.00882309
-0.00887783
-0.00888842
-0.00882221
-0.00882241
-0.00888913
-0.00888899
-0.00888887
-0.00906665
-0.00900022
-0.00900022
-0.00906662
-0.00900021
-0.00906665
-0.00906711
-0.009
-0.00899977
-0.00906684
-0.00901121
-0.00901122
-0.00901128
-0.00914462
-0.00914465
-0.00914464
-0.00914462
-0.00906668
-0.00900024
-0.00901118
-0.00905575
-0.00900019
-0.00906654
-0.00905565
-0.00900009
-0.00906681
-0.00906598
-0.00901119
-0.00900058
-0.00905569
-0.00900083
-0.00905571
-0.00906631
-0.00900003
-0.00900017
-0.00906694
-0.00906689
-0.00906669
-0.00924471
-0.0091782
-0.00917822
-0.00924474
-0.00917818
-0.00924467
-0.00924519
-0.00917796
-0.00917772
-0.00924494
-0.00918924
-0.00918923
-0.00918924
-0.00932278
-0.00932284
-0.00932283
-0.0093228
-0.00924471
-0.00917829
-0.00918922
-0.00923382
-0.00917814
-0.0092447
-0.00923377
-0.00917804
-0.00924489
-0.00924402
-0.00918921
-0.00917854
-0.00923384
-0.00917882
-0.00923371
-0.00924436
-0.00917796
-0.00917816
-0.00924498
-0.00924489
-0.00924465
-0.00942301
-0.00935642
-0.00935641
-0.00942298
-0.0093564
-0.00942308
-0.00942352
-0.00935628
-0.00935602
-0.00942327
-0.00936756
-0.00936752
-0.00936747
-0.00950132
-0.00950122
-0.00950126
-0.0095013
-0.00942299
-0.00935644
-0.00936749
-0.00941211
-0.00935633
-0.00942297
-0.00941211
-0.00935627
-0.0094232
-0.00942246
-0.00936748
-0.0093568
-0.00941212
-0.00935708
-0.00941208
-0.00942272
-0.00935619
-0.0093564
-0.00942337
-0.00942326
-0.00942313
-0.00960162
-0.00953495
-0.00953492
-0.00960165
-0.00953493
-0.00960154
-0.00960209
-0.0095347
-0.00953446
-0.00960184
-0.00954606
-0.00954601
-0.00954602
-0.00967984
-0.00960161
-0.009535
-0.00954595
-0.00959071
-0.00953499
-0.00960162
-0.00959075
-0.00953483
-0.00960179
-0.009601
-0.00954601
-0.00953538
-0.00959069
-0.00953562
-0.0095907
-0.0096014
-0.00953482
-0.00953496
-0.00960196
-0.00960186
-0.0096017
-0.0067625
-0.0066965
-0.00676255
-0.00669666
-0.00676178
-0.00669682
-0.0067077
-0.00675159
-0.00675164
-0.00669735
-0.00676219
-0.0067618
-0.00669696
-0.00670765
-0.00675161
-0.00676221
-0.00675163
-0.00669739
-0.00678495
-0.0068509
-0.00685095
-0.00678494
-0.00678493
-0.00685094
-0.00678494
-0.00685096
-0.00678549
-0.00679577
-0.00685051
-0.00683991
-0.00679568
-0.00685023
-0.00678523
-0.00678547
-0.00679578
-0.00685057
-0.00683992
-0.00678529
-0.00679568
-0.00685017
-0.00669658
-0.00669638
-0.00676287
-0.00676251
-0.00676291
-0.00669642
-0.00676283
-0.00685096
-0.00678494
-0.00678458
-0.00685099
-0.006851
-0.00678492
-0.00678478
-0.00685099
-0.00678484
-0.00676258
-0.00669653
-0.00670739
-0.00675174
-0.00675159
-0.00669646
-0.0067625
-0.00676315
-0.00669636
-0.00676283
-0.00669609
-0.00676259
-0.00670737
-0.00669653
-0.00675166
-0.00675163
-0.00676255
-0.00669646
-0.00678454
-0.00685118
-0.00685142
-0.00678478
-0.00678488
-0.0067958
-0.00685088
-0.00683989
-0.00679569
-0.00685088
-0.00678492
-0.00678454
-0.00685115
-0.00678475
-0.00685141
-0.00678491
-0.00679575
-0.00683992
-0.00685084
-0.00679574
-0.00678495
-0.0068509
-0.00676308
-0.00669638
-0.00676285
-0.00669613
-0.00676256
-0.00670743
-0.00669652
-0.00675168
-0.00675165
-0.00676253
-0.00669648
-0.00676306
-0.00669634
-0.00676278
-0.00669609
-0.00678489
-0.00679575
-0.00685084
-0.00683984
-0.00678498
-0.00679567
-0.00685087
-0.00678453
-0.00685106
-0.00678479
-0.00685138
-0.00678492
-0.00679575
-0.00683986
-0.00685088
-0.00679568
-0.00678498
-0.0068509
-0.00678448
-0.00685111
-0.00678475
-0.00685138
-0.00669631
-0.00669647
-0.00676285
-0.00676277
-0.00676257
-0.00669655
-0.00676257
-0.00685106
-0.00678481
-0.00678448
-0.00685107
-0.00685091
-0.0067847
-0.00678484
-0.0068509
-0.0067849
-0.00676188
-0.00670724
-0.00669687
-0.00675172
-0.00675172
-0.00676219
-0.0066971
-0.00676252
-0.00669656
-0.00676258
-0.00669651
-0.00676255
-0.00669658
-0.00676258
-0.00669651
-0.00678546
-0.00679579
-0.00683985
-0.0068505
-0.00679572
-0.00678519
-0.0068502
-0.00678551
-0.0067958
-0.00683986
-0.00685049
-0.00679567
-0.00678525
-0.0068502
-0.00678486
-0.00685089
-0.00678494
-0.00685083
-0.00678489
-0.00685088
-0.00678495
-0.00685079
-0.00669634
-0.00676271
-0.00669655
-0.00676257
-0.00678453
-0.0068511
-0.00685091
-0.00678473
-0.0067849
-0.00685104
-0.00678479
-0.00685089
-0.00678493
-0.00687325
-0.00693912
-0.00687313
-0.00693932
-0.00687322
-0.0068731
-0.00693947
-0.00693912
-0.00693935
-0.0070274
-0.00696146
-0.00702753
-0.00696134
-0.006961
-0.00702741
-0.00702754
-0.0069614
-0.0069613
-0.00693912
-0.00687328
-0.00687323
-0.00693913
-0.00693846
-0.00687357
-0.00688422
-0.0069284
-0.00687388
-0.00693873
-0.00692834
-0.00693851
-0.00687364
-0.00688421
-0.00692835
-0.0068738
-0.00693875
-0.00692832
-0.00696146
-0.00702739
-0.00696147
-0.00702739
-0.00696148
-0.00702736
-0.00696144
-0.00702742
-0.00696207
-0.00697235
-0.00702709
-0.0070165
-0.00696178
-0.00697235
-0.00702673
-0.00696215
-0.00697231
-0.00702702
-0.00701645
-0.00696179
-0.0069723
-0.00702678
-0.00687325
-0.00687302
-0.00693952
-0.00693915
-0.0069393
-0.00687304
-0.00693925
-0.00702739
-0.00696144
-0.00696108
-0.00702739
-0.00702756
-0.00696138
-0.00696124
-0.00702753
-0.00696129
-0.00693919
-0.00687333
-0.00688414
-0.0069283
-0.00687325
-0.00693909
-0.00692829
-0.00693963
-0.00687308
-0.00687278
-0.00693942
-0.00693921
-0.00688414
-0.00687324
-0.00692825
-0.00687324
-0.00692824
-0.00693915
-0.00696105
-0.00702756
-0.00696129
-0.00702786
-0.00696146
-0.00697234
-0.00702731
-0.00701647
-0.00696147
-0.00697235
-0.00702737
-0.00696104
-0.0070276
-0.00696134
-0.00702787
-0.00696147
-0.00697225
-0.0070165
-0.00702731
-0.0069723
-0.00696153
-0.0070273
-0.00693956
-0.006873
-0.00687274
-0.0069393
-0.00693916
-0.00688417
-0.00687334
-0.00692832
-0.00687316
-0.00692827
-0.00693911
-0.0069396
-0.00687306
-0.00687274
-0.00693935
-0.00696151
-0.00697237
-0.0070273
-0.00701647
-0.00696143
-0.00697232
-0.00702739
-0.00696099
-0.00702758
-0.00696125
-0.00702781
-0.00696149
-0.00697232
-0.00701649
-0.00702734
-0.00697232
-0.00696148
-0.00702744
-0.00696103
-0.00702759
-0.00696128
-0.00702788
-0.00687302
-0.00687317
-0.00693948
-0.00693939
-0.00693913
-0.00687321
-0.00693911
-0.00702757
-0.0069614
-0.00696105
-0.00702759
-0.00702745
-0.00696133
-0.0069614
-0.00702744
-0.00696145
-0.00693848
-0.00688426
-0.0068736
-0.00692834
-0.00687382
-0.00692831
-0.00693875
-0.00693915
-0.00687323
-0.00687317
-0.00693911
-0.00693914
-0.0068732
-0.00687313
-0.0069391
-0.00696214
-0.00697234
-0.00701645
-0.00702707
-0.00697233
-0.0069618
-0.00702671
-0.00696213
-0.00697232
-0.00701647
-0.00702709
-0.00697228
-0.00696179
-0.00702673
-0.00696153
-0.00702743
-0.00696147
-0.00702743
-0.00696151
-0.00702741
-0.00696148
-0.00702744
-0.00687307
-0.00693928
-0.00687318
-0.00693912
-0.00696105
-0.00702759
-0.00702743
-0.00696125
-0.00696144
-0.00702753
-0.00696131
-0.0070274
-0.00696148
-0.00704973
-0.00711564
-0.0070496
-0.00711582
-0.00704971
-0.00704955
-0.00711593
-0.00711568
-0.00711588
-0.00720387
-0.00713794
-0.00720401
-0.00713785
-0.0071376
-0.00720389
-0.00720404
-0.00713793
-0.00713779
-0.0071156
-0.00704974
-0.00704974
-0.00711564
-0.007115
-0.00705011
-0.00706069
-0.00710472
-0.00705035
-0.00711529
-0.00710479
-0.00711498
-0.00705009
-0.00706067
-0.00710481
-0.00705033
-0.00711527
-0.00710476
-0.00713798
-0.00720387
-0.00713792
-0.00720382
-0.00713799
-0.00720382
-0.00713796
-0.00720385
-0.00713863
-0.00714879
-0.00720352
-0.00719291
-0.00713828
-0.00714881
-0.00720317
-0.00713863
-0.00714888
-0.00720346
-0.00719296
-0.00713829
-0.00714878
-0.00720322
-0.00704972
-0.00704951
-0.00711604
-0.00711554
-0.00711591
-0.00704957
-0.0071158
-0.00720386
-0.00713794
-0.00713767
-0.00720391
-0.00720396
-0.00713787
-0.00713771
-0.00720396
-0.00713777
-0.00711571
-0.00704981
-0.00706056
-0.00710477
-0.00704971
-0.00711568
-0.0071047
-0.00711611
-0.00704953
-0.00704928
-0.00711587
-0.00711571
-0.0070607
-0.00704981
-0.00710476
-0.00704961
-0.00710474
-0.00711564
-0.00713751
-0.00720407
-0.00713782
-0.00720435
-0.00713798
-0.0071488
-0.00720379
-0.00719291
-0.007138
-0.00714878
-0.00720384
-0.00713746
-0.00720408
-0.00713779
-0.00720435
-0.00713797
-0.00714882
-0.00719293
-0.00720387
-0.00714878
-0.00713801
-0.00720386
-0.0071161
-0.00704952
-0.00704919
-0.00711584
-0.00711561
-0.00706065
-0.0070498
-0.00710479
-0.00704972
-0.00710476
-0.00711557
-0.00711605
-0.00704953
-0.00704924
-0.00711579
-0.00713788
-0.00714884
-0.00720376
-0.00719295
-0.00713796
-0.00714886
-0.00720381
-0.00713747
-0.00720403
-0.00713773
-0.00720431
-0.00713791
-0.00714882
-0.00719292
-0.00720374
-0.00714882
-0.00713794
-0.00720385
-0.00713743
-0.00720397
-0.0071377
-0.0072043
-0.00704956
-0.00704973
-0.007116
-0.00711588
-0.00711569
-0.00704974
-0.00711565
-0.00720405
-0.00713783
-0.00713759
-0.0072041
-0.00720389
-0.00713782
-0.00713795
-0.00720384
-0.00713796
-0.00711491
-0.00706067
-0.00705017
-0.00710479
-0.00705042
-0.00710479
-0.00711526
-0.00711561
-0.00704977
-0.00704973
-0.00711559
-0.00711557
-0.00704978
-0.00704974
-0.00711563
-0.00713859
-0.00714889
-0.00719295
-0.00720354
-0.00714885
-0.0071383
-0.00720322
-0.00713856
-0.00714884
-0.00719286
-0.00720352
-0.00714881
-0.00713821
-0.00720329
-0.00713798
-0.00720385
-0.00713796
-0.00720383
-0.00713796
-0.00720379
-0.00713792
-0.00720383
-0.00704957
-0.00711575
-0.00704974
-0.00711565
-0.00713763
-0.00720399
-0.00720384
-0.00713769
-0.00713789
-0.00720393
-0.00713777
-0.00720377
-0.00713792
-0.0072262
-0.00729209
-0.00722605
-0.00729226
-0.00722619
-0.00722601
-0.00729246
-0.00729213
-0.00729229
-0.00738031
-0.00731442
-0.00738049
-0.0073143
-0.00731407
-0.00738035
-0.00738052
-0.00731439
-0.00731425
-0.00729213
-0.00722616
-0.00722617
-0.00729211
-0.00729146
-0.00722657
-0.00723711
-0.00728127
-0.00722676
-0.0072918
-0.00728124
-0.00729146
-0.00722651
-0.00723719
-0.00728124
-0.00722675
-0.00729178
-0.00728132
-0.00731446
-0.0073803
-0.00731442
-0.0073804
-0.00731445
-0.00738035
-0.00731445
-0.00738039
-0.00731506
-0.00732532
-0.00738002
-0.0073695
-0.00731476
-0.00732532
-0.0073798
-0.00731506
-0.00732535
-0.00737999
-0.00736947
-0.00731475
-0.0073253
-0.00737981
-0.00722613
-0.00722595
-0.0072925
-0.00729215
-0.0072923
-0.00722601
-0.00729228
-0.00738037
-0.00731444
-0.00731418
-0.00738038
-0.0073805
-0.00731442
-0.00731427
-0.00738049
-0.00731432
-0.00729203
-0.00722624
-0.00723713
-0.00728127
-0.00722616
-0.00729209
-0.0072813
-0.0072926
-0.00722604
-0.00722577
-0.00729235
-0.00729207
-0.00723714
-0.00722625
-0.0072813
-0.00722614
-0.00728128
-0.00729212
-0.00731402
-0.00738054
-0.00731426
-0.00738084
-0.00731447
-0.00732531
-0.00738026
-0.00736951
-0.0073145
-0.0073253
-0.00738041
-0.00731405
-0.00738056
-0.0073143
-0.00738086
-0.00731446
-0.00732527
-0.00736946
-0.00738033
-0.00732525
-0.0073145
-0.00738036
-0.00729261
-0.00722596
-0.00722569
-0.00729234
-0.00729212
-0.00723713
-0.0072262
-0.00728124
-0.00722607
-0.00728125
-0.00729208
-0.00729262
-0.00722591
-0.00722564
-0.00729233
-0.00731442
-0.00732536
-0.00738031
-0.00736947
-0.00731449
-0.00732534
-0.00738035
-0.00731397
-0.00738053
-0.00731428
-0.00738082
-0.00731444
-0.0073253
-0.00736954
-0.00738031
-0.00732535
-0.0073145
-0.00738037
-0.00731397
-0.00738055
-0.00731427
-0.00738078
-0.00722606
-0.00722614
-0.00729252
-0.00729234
-0.00729214
-0.00722616
-0.0072921
-0.00738051
-0.00731434
-0.00731408
-0.00738055
-0.00738039
-0.00731429
-0.00731438
-0.00738038
-0.00731441
-0.00729142
-0.00723714
-0.00722656
-0.00728129
-0.00722682
-0.00728128
-0.00729172
-0.00729212
-0.00722618
-0.00722619
-0.00729213
-0.00729206
-0.00722617
-0.00722619
-0.00729202
-0.00731508
-0.00732534
-0.00736943
-0.00737996
-0.00732528
-0.00731474
-0.0073797
-0.00731508
-0.00732537
-0.00736944
-0.00738002
-0.00732529
-0.00731475
-0.00737974
-0.00731441
-0.00738035
-0.00731445
-0.00738032
-0.00731442
-0.00738031
-0.00731438
-0.00738031
-0.00722596
-0.00729226
-0.00722612
-0.00729206
-0.00731407
-0.00738056
-0.00738039
-0.00731427
-0.00731435
-0.0073805
-0.00731432
-0.00738032
-0.00731439
-0.00740266
-0.00746876
-0.00740256
-0.00746893
-0.00740264
-0.00740252
-0.00746924
-0.00746873
-0.00746897
-0.00755727
-0.00749115
-0.00755735
-0.00749103
-0.0074909
-0.00755732
-0.00755739
-0.00749109
-0.00749096
-0.0074688
-0.00740273
-0.00740275
-0.00746876
-0.00746815
-0.00740305
-0.00741375
-0.0074581
-0.00740341
-0.0074683
-0.00745802
-0.0074682
-0.00740308
-0.0074137
-0.00745789
-0.00740337
-0.00746845
-0.00745795
-0.00749119
-0.00755727
-0.00749115
-0.00755722
-0.00749119
-0.00755724
-0.00749116
-0.00755721
-0.00749182
-0.00750223
-0.00755697
-0.00754634
-0.00749144
-0.00750215
-0.00755659
-0.00749184
-0.0075021
-0.00755687
-0.00754634
-0.00749152
-0.0075021
-0.00755661
-0.00740272
-0.0074025
-0.00746917
-0.00746868
-0.00746904
-0.00740254
-0.00746894
-0.00755726
-0.00749113
-0.0074908
-0.00755729
-0.00755736
-0.00749111
-0.00749095
-0.00755733
-0.00749098
-0.00746881
-0.00740274
-0.0074138
-0.00745796
-0.00740269
-0.00746875
-0.00745794
-0.00746918
-0.00740251
-0.00740221
-0.00746893
-0.00746877
-0.00741377
-0.00740273
-0.00745788
-0.00740262
-0.0074579
-0.00746872
-0.00749072
-0.00755741
-0.00749099
-0.00755772
-0.00749117
-0.00750214
-0.0075572
-0.00754622
-0.00749119
-0.00750201
-0.00755716
-0.0074907
-0.00755736
-0.00749092
-0.00755766
-0.00749115
-0.00750201
-0.00754624
-0.00755714
-0.00750196
-0.00749113
-0.00755721
-0.00746922
-0.0074025
-0.00740221
-0.00746898
-0.00746882
-0.00741373
-0.00740273
-0.0074579
-0.00740265
-0.00745786
-0.0074687
-0.0074692
-0.0074025
-0.0074022
-0.00746892
-0.00749114
-0.00750207
-0.00755721
-0.00754628
-0.00749115
-0.00750202
-0.00755726
-0.00749071
-0.00755741
-0.00749095
-0.00755767
-0.00749115
-0.00750209
-0.00754633
-0.00755717
-0.007502
-0.00749112
-0.00755724
-0.00749067
-0.00755742
-0.00749088
-0.00755767
-0.00740252
-0.0074027
-0.00746914
-0.00746892
-0.00746882
-0.00740273
-0.0074688
-0.00755729
-0.00749097
-0.00749076
-0.00755733
-0.00755716
-0.00749091
-0.00749107
-0.00755714
-0.00749114
-0.00746808
-0.00741367
-0.00740306
-0.00745791
-0.00740334
-0.00745786
-0.00746839
-0.00746876
-0.00740272
-0.00740267
-0.00746881
-0.00746872
-0.00740271
-0.00740267
-0.00746872
-0.00749179
-0.00750202
-0.00754622
-0.00755677
-0.00750198
-0.00749152
-0.00755658
-0.00749178
-0.00750205
-0.00754623
-0.00755679
-0.00750194
-0.00749148
-0.0075566
-0.00749114
-0.00755713
-0.00749116
-0.00755722
-0.00749114
-0.00755719
-0.00749112
-0.0075572
-0.00740253
-0.00746886
-0.00740268
-0.00746871
-0.00749081
-0.00755737
-0.00755721
-0.00749091
-0.00749107
-0.00755733
-0.00749094
-0.00755718
-0.0074911
-0.00757967
-0.00764583
-0.00757945
-0.0076459
-0.00757969
-0.00757942
-0.00764622
-0.00764581
-0.00764595
-0.00773427
-0.0076682
-0.00773447
-0.00766801
-0.00766789
-0.00773429
-0.0077345
-0.00766814
-0.00766796
-0.00764583
-0.00757964
-0.00757959
-0.00764579
-0.00764507
-0.00758011
-0.00759066
-0.00763497
-0.0075803
-0.00764544
-0.00763495
-0.00764507
-0.00758001
-0.00759068
-0.00763494
-0.00758028
-0.0076454
-0.00763493
-0.00766826
-0.00773427
-0.00766825