/*--------------------------------*- C++ -*----------------------------------*\
| =========                 |                                                 |
| \\      /  F ield         | OpenFOAM: The Open Source CFD Toolbox           |
|  \\    /   O peration     | Version:  2206                                  |
|   \\  /    A nd           | Website:  www.openfoam.com                      |
|    \\/     M anipulation  |                                                 |
\*---------------------------------------------------------------------------*/
FoamFile
{
    version     2.0;
    format      ascii;
    arch        "LSB;label=32;scalar=64";
    class       surfaceScalarField;
    location    "110";
    object      phi;
}
// * * * * * * * * * * * * * * * * * * * * * * * * * * * * * * * * * * * * * //

dimensions      [0 3 -1 0 0 0 0];

oriented        oriented;

internalField   nonuniform List<scalar> 
197159
(
-2.77762e-11
-3.16402e-11
2.76422e-08
-2.74904e-08
-4.68096e-11
-4.55583e-11
-5.7555e-12
-2.79135e-11
-2.22537e-11
2.15096e-11
-1.32971e-11
-3.41447e-11
3.32226e-11
1.30623e-11
1.17276e-07
1.93339e-11
6.98817e-12
-1.32557e-11
-3.14041e-11
-3.83094e-11
3.78772e-11
6.61895e-11
-6.34424e-11
6.28752e-11
-6.61589e-11
1.15034e-07
2.27847e-11
5.29334e-11
-3.14789e-12
-6.19183e-13
-3.45122e-11
3.84785e-11
4.536e-11
-6.30934e-11
6.19428e-11
-4.66522e-11
1.16087e-07
-2.34708e-11
-2.7514e-08
-5.59633e-11
-3.01565e-11
2.76463e-08
-3.43074e-11
-1.0241e-10
-3.69959e-11
-3.55132e-11
1.13826e-11
-3.35049e-11
4.51581e-11
-1.06054e-11
1.16187e-07
-1.69715e-11
4.70575e-11
4.51963e-11
2.74908e-08
2.80939e-11
3.11166e-11
-2.74913e-08
-4.67816e-11
-4.5488e-11
-2.77275e-11
-3.13894e-11
2.76427e-08
-5.49942e-11
1.23843e-07
8.05925e-11
-8.97428e-12
1.24149e-07
-1.67038e-11
3.51607e-12
9.03262e-13
6.61866e-09
-6.62383e-09
7.57766e-13
6.89032e-12
2.19878e-12
6.48882e-09
-1.85566e-13
4.3792e-12
2.12957e-08
1.67704e-11
-2.13113e-08
-2.01774e-12
1.0103e-11
2.08424e-08
2.42477e-11
-2.08658e-08
-4.02685e-12
6.35639e-12
-1.32771e-08
1.30175e-12
1.3269e-08
1.40301e-12
1.59736e-11
-2.0999e-08
6.63391e-12
2.09871e-08
1.51335e-11
3.14775e-12
1.2974e-08
4.74516e-13
5.17277e-11
-6.59149e-15
-4.57104e-12
-1.68479e-11
1.94172e-08
3.37785e-11
-2.06321e-08
1.52239e-11
2.06084e-08
-2.91396e-14
6.54064e-12
1.04467e-10
-1.37215e-10
1.38283e-10
-1.04169e-10
1.19793e-07
-1.13929e-13
-2.39146e-08
-1.03125e-11
9.78336e-11
2.38789e-08
1.51856e-11
-2.42402e-12
3.24991e-12
1.29791e-08
4.32423e-13
5.19507e-11
-1.69815e-11
-4.71012e-12
1.94134e-08
1.90224e-12
8.66181e-11
-1.36696e-10
1.37769e-10
-8.57927e-11
1.21069e-07
-1.05763e-11
3.40807e-11
-2.06192e-08
1.54758e-11
2.05954e-08
-2.39105e-08
9.80555e-11
-1.02211e-11
2.38745e-08
6.55706e-12
6.49222e-09
-6.42444e-14
2.42033e-11
-2.09204e-08
-4.20405e-12
2.08964e-08
-3.3948e-12
5.19171e-12
1.68967e-11
-2.12733e-08
-2.24539e-12
2.12569e-08
1.00576e-12
-6.6274e-09
6.62211e-09
9.01408e-13
-6.31548e-12
1.57369e-11
-2.10079e-08
7.73091e-12
2.0996e-08
-1.32812e-08
1.76127e-12
1.32729e-08
1.2193e-12
-4.22251e-12
6.62445e-09
3.25277e-13
-1.90077e-12
3.81209e-12
6.61976e-09
-6.62495e-09
6.26979e-13
7.58769e-13
-5.30064e-12
6.49783e-09
-3.27007e-12
-4.43742e-13
5.75271e-12
6.4891e-09
-6.498e-09
2.91992e-12
2.26159e-13
-1.72859e-11
7.27748e-13
2.13123e-08
-4.27622e-12
-2.30887e-11
5.88186e-12
2.08655e-08
-1.12015e-11
2.76424e-08
-2.74909e-08
-4.70825e-11
-4.515e-11
-2.8013e-11
-3.12068e-11
2.12968e-08
-2.32291e-12
-2.13125e-08
1.71229e-11
4.77115e-12
2.08406e-08
-4.25074e-12
-2.08644e-08
2.35495e-11
1.02819e-11
3.91058e-12
-6.62547e-09
-1.25417e-14
6.62015e-09
1.41644e-12
-4.05129e-12
6.62539e-09
-2.08553e-14
-1.55597e-12
5.8548e-12
-6.49803e-09
2.76168e-12
6.48923e-09
1.86302e-13
-6.34117e-12
6.49796e-09
-2.56654e-12
5.7612e-14
2.74913e-08
4.70198e-11
4.56251e-11
2.77903e-11
3.0657e-11
1.69663e-11
-2.13135e-08
-1.30421e-12
4.25323e-12
2.12975e-08
2.35632e-11
-2.08628e-08
-4.65252e-12
1.01965e-11
2.08396e-08
7.62231e-13
-1.7124e-11
2.13132e-08
-4.10491e-12
5.60327e-12
-2.3699e-11
2.08634e-08
-1.10987e-11
-4.29472e-12
7.42505e-13
-2.34997e-12
-6.61793e-09
9.23045e-12
-1.7902e-11
1.94416e-08
1.21154e-11
-2.16168e-11
-2.33878e-08
-1.84477e-11
2.33646e-08
3.53166e-11
2.30845e-11
9.67279e-13
-1.70869e-11
-4.65072e-12
-1.26467e-08
8.60663e-12
-1.70252e-12
1.26369e-08
8.49614e-13
6.43647e-13
-1.13631e-12
-3.49114e-11
-2.27883e-11
-1.28223e-11
1.94231e-08
2.14645e-11
1.01177e-11
-2.45143e-11
1.84549e-08
1.53474e-11
-1.86221e-11
-2.23925e-08
-2.35642e-11
2.23646e-08
4.20886e-11
3.36435e-11
6.13677e-12
-2.30325e-11
-1.11857e-11
-1.23241e-08
1.08394e-11
-2.38898e-12
1.23111e-08
4.76337e-13
3.55222e-12
-7.21094e-13
-4.11715e-11
-3.42352e-11
-1.43874e-11
1.84372e-08
1.93553e-11
4.85233e-12
3.20644e-12
1.48629e-08
-5.39964e-09
4.04539e-12
5.39342e-09
4.71909e-13
-5.37392e-09
4.4903e-12
5.36684e-09
1.87093e-13
-1.08134e-12
-5.38227e-13
1.48442e-08
-5.66737e-12
-3.24657e-11
-1.60628e-12
-1.32366e-08
-2.04734e-08
9.40039e-12
1.06371e-11
2.0455e-08
-3.82539e-13
-1.29509e-10
3.35338e-11
-2.03531e-08
-2.99512e-11
5.50941e-09
2.46775e-12
-5.50087e-09
-1.61655e-12
-5.51562e-12
6.65895e-12
2.86938e-11
1.99243e-08
1.77148e-12
5.34978e-09
1.3794e-13
-1.3838e-11
4.30051e-11
1.84107e-08
-9.51029e-13
-2.96667e-14
1.15413e-08
-6.15905e-13
9.50836e-09
-3.56163e-13
-5.39975e-12
6.75394e-12
2.87146e-11
1.99225e-08
1.78413e-12
5.3496e-09
1.45934e-13
-1.08791e-12
1.15403e-08
-6.57043e-13
-1.37205e-11
4.28622e-11
1.84053e-08
9.50819e-09
-3.0002e-13
-2.57113e-11
1.00812e-11
1.84555e-08
1.49863e-11
-1.78601e-11
-2.2744e-08
-2.33828e-11
4.42182e-11
3.30674e-11
2.27143e-08
-2.33173e-11
6.09318e-12
-1.14258e-11
-1.23189e-08
1.10644e-11
-2.46035e-12
1.23056e-08
4.83808e-13
-4.20657e-11
-3.4114e-11
3.43756e-12
-5.31629e-13
-1.43063e-11
2.03036e-11
1.84372e-08
9.03449e-12
-1.5264e-11
1.94562e-08
1.14976e-11
-2.3331e-11
-2.30228e-08
-1.8912e-11
3.28853e-11
2.53953e-11
2.30004e-08
5.5166e-13
-1.75918e-11
4.07846e-12
-2.36283e-12
-1.26687e-08
8.63024e-12
-1.67506e-12
1.26586e-08
9.68666e-13
5.46627e-13
-1.11468e-12
-4.50764e-11
-6.23063e-12
-1.28939e-11
2.11822e-11
1.94376e-08
3.2941e-12
4.74555e-12
1.48754e-08
-5.37766e-09
4.3114e-12
5.37056e-09
3.29745e-13
-5.40484e-09
4.00207e-12
5.39849e-09
6.72723e-13
-3.4109e-13
-7.96851e-13
1.48565e-08
3.58361e-13
-1.7739e-12
-4.03125e-13
-6.36245e-12
-1.75941e-12
-2.04753e-08
2.4896e-14
1.08213e-11
2.04632e-08
2.93608e-12
-1.08868e-11
-8.15484e-14
-2.20509e-12
5.5116e-09
2.15999e-12
-5.51447e-09
7.24657e-13
6.61938e-09
3.02185e-12
6.09451e-13
1.44652e-12
-4.12663e-12
2.85306e-13
-1.72988e-12
6.48916e-09
5.90445e-12
2.51502e-12
2.51726e-13
-6.16543e-12
-2.80565e-12
1.37466e-13
5.14184e-12
3.60284e-12
1.48638e-08
-1.48448e-08
-1.20498e-11
-1.57622e-11
-5.40014e-09
3.80696e-12
1.67651e-12
5.39384e-09
8.16134e-13
-5.37423e-09
4.06028e-12
2.34673e-12
5.36716e-09
6.66519e-13
-5.39362e-09
-7.8916e-13
-5.80456e-13
-5.36693e-09
-3.61706e-12
-7.00778e-14
1.28271e-11
1.41349e-11
1.48448e-08
-1.94414e-08
-8.62064e-12
1.82844e-11
-1.27219e-11
1.9423e-08
2.14283e-11
1.78292e-11
2.3387e-08
-3.54142e-11
-2.21452e-11
-9.49898e-12
1.26476e-08
6.09923e-13
-1.08162e-12
-1.73792e-12
1.66067e-11
2.1296e-08
4.42603e-12
1.21747e-11
-2.21335e-11
-1.47471e-12
1.26377e-08
1.08161e-12
2.33634e-08
3.53941e-11
2.31453e-11
-1.84548e-08
-1.06172e-11
2.30076e-11
-1.41451e-11
1.84371e-08
1.94749e-11
2.46345e-11
2.23924e-08
-4.11513e-11
-3.43944e-11
-1.02241e-11
1.23246e-08
3.33194e-12
-6.6427e-13
-3.85356e-12
2.36561e-11
2.08416e-08
1.00746e-11
1.54959e-11
-1.86983e-11
-2.32401e-12
1.23117e-08
7.6667e-13
2.23638e-08
4.191e-11
3.33524e-11
-1.48634e-08
-3.98019e-12
-4.22699e-12
-5.03699e-12
5.39987e-09
-8.00437e-13
-3.40192e-12
5.374e-09
-4.176e-13
8.22296e-13
5.25855e-13
9.41725e-12
1.94409e-08
-1.75687e-11
-2.18108e-11
-1.26481e-08
8.62391e-12
1.26379e-08
9.27335e-13
7.4769e-13
-1.71148e-11
-4.22004e-12
-1.87272e-11
-2.33857e-08
2.33628e-08
3.52795e-11
2.35293e-11
-1.05605e-12
1.94227e-08
2.10054e-11
-3.47745e-11
-2.22538e-11
1.05253e-11
1.84544e-08
-2.49573e-11
-1.86914e-11
-1.23248e-08
1.0491e-11
1.23117e-08
7.89229e-13
5.88294e-12
-2.3582e-11
-1.12628e-11
-2.33699e-11
-2.23915e-08
2.23632e-08
4.16642e-11
3.34844e-11
-3.59223e-13
1.84362e-08
1.94556e-11
-4.14449e-11
-3.47332e-11
-6.6201e-09
-3.65748e-12
-2.71889e-13
-1.44085e-12
3.7032e-12
3.32495e-13
1.25066e-12
-6.48916e-09
-6.01969e-12
-2.70419e-12
-1.48309e-13
5.77211e-12
2.84489e-12
1.7831e-13
-1.48638e-08
-4.07311e-12
-4.09638e-12
1.27698e-11
1.42351e-11
1.48449e-08
-5.19065e-12
5.40035e-09
-6.81716e-13
-6.4073e-13
-3.68655e-12
5.37439e-09
-3.53748e-12
-8.08582e-15
-1.21345e-11
-1.57148e-11
1.54108e-12
5.39407e-09
6.61112e-13
2.50046e-12
5.36725e-09
5.35859e-13
9.30593e-12
-1.74488e-11
1.94397e-08
-1.94217e-08
1.22419e-11
-2.20681e-11
-2.33839e-08
-1.82518e-11
3.51293e-11
2.33605e-08
2.35169e-11
1.09308e-12
-1.68059e-11
-2.12969e-08
-4.54988e-12
-1.26488e-08
8.803e-12
-1.11179e-12
1.26388e-08
1.078e-12
-1.26385e-08
1.05059e-12
-9.60198e-13
-2.33618e-08
-3.46066e-11
-2.17906e-11
-1.23936e-11
2.09975e-11
1.94216e-08
1.06747e-11
-2.44066e-11
1.84525e-08
-1.84352e-08
1.53845e-11
-1.89396e-11
-2.23905e-08
-2.36804e-11
4.18109e-11
2.23623e-08
3.3682e-11
5.22012e-12
-2.35149e-11
-2.08396e-08
-1.09978e-11
-1.23245e-08
1.04781e-11
-2.75493e-12
1.23115e-08
6.58586e-13
-1.23114e-08
3.2142e-12
-4.86228e-13
-2.23626e-08
-4.13431e-11
-3.44679e-11
-1.44881e-11
1.91077e-11
1.84347e-08
-1.94402e-08
-8.85311e-12
1.88033e-11
2.1271e-11
-9.53486e-12
1.26485e-08
-1.00417e-12
1.73247e-11
2.3385e-08
-3.49197e-11
-2.17764e-11
-1.70785e-12
1.70952e-11
4.55591e-12
-2.18564e-11
9.55271e-13
3.55231e-11
2.36435e-11
-1.84533e-08
-1.04744e-11
2.34954e-11
1.92733e-11
-1.07593e-11
1.23247e-08
-2.47272e-13
2.46472e-11
2.2391e-08
-4.14914e-11
-3.46399e-11
-4.57252e-12
2.38564e-11
1.03406e-11
-1.88783e-11
7.79689e-13
4.2121e-11
3.36199e-11
4.88282e-12
3.83482e-12
1.48638e-08
-5.40065e-09
4.25568e-12
5.39434e-09
9.38021e-13
-5.37452e-09
3.84557e-12
5.36739e-09
5.20701e-13
-6.66847e-13
-2.35287e-13
1.4845e-08
-2.28744e-11
-3.02985e-11
2.25883e-08
4.64116e-11
4.53795e-11
-2.58867e-08
-2.34195e-11
2.58764e-08
-2.46276e-08
-3.02723e-11
2.46161e-08
2.25754e-08
-4.16325e-11
-1.12132e-11
2.25784e-08
3.77398e-11
9.01317e-11
-2.57127e-08
-2.66095e-11
2.56931e-08
-2.47736e-08
-2.78016e-11
2.47672e-08
2.25655e-08
-2.25877e-08
2.37201e-11
3.02289e-11
2.25747e-08
2.27691e-11
2.58864e-08
-2.11054e-11
3.03433e-11
2.46279e-08
-3.81427e-11
-4.71468e-11
-4.55241e-11
2.7642e-08
-2.75451e-11
-3.10171e-11
2.58755e-08
2.28076e-11
2.46162e-08
3.83183e-11
-2.29751e-11
-3.08118e-11
2.25865e-08
-2.25737e-08
4.69479e-11
4.54436e-11
-2.76425e-08
2.81128e-11
3.06805e-11
-2.58842e-08
-2.33487e-11
2.23195e-11
2.58736e-08
-2.46284e-08
-3.01153e-11
3.80741e-11
2.46168e-08
-2.58739e-08
-2.08939e-11
-2.46166e-08
-3.85773e-11
2.25731e-08
8.61099e-13
1.28224e-07
6.00522e-11
1.32201e-07
-4.2738e-12
2.4629e-11
1.00033e-10
2.62531e-08
-3.29818e-11
-2.48725e-08
2.48472e-11
2.48525e-08
-1.55619e-11
-1.81442e-11
-2.3152e-08
1.74252e-11
2.31445e-08
7.29343e-12
-4.9104e-11
2.63007e-08
7.71374e-12
3.83714e-11
5.32063e-11
2.58683e-08
2.46726e-11
-2.44832e-08
3.72137e-11
2.445e-08
-3.23417e-11
-1.64428e-11
-2.26593e-08
5.39038e-11
1.39122e-11
2.26354e-08
-1.4875e-11
-2.54866e-11
2.59187e-08
7.71989e-11
-1.88435e-11
2.60249e-08
1.07824e-11
-9.78883e-11
1.10829e-13
-2.31285e-08
7.75376e-11
2.30975e-08
-2.69954e-08
-1.8474e-11
-7.25632e-12
2.69818e-08
7.04905e-12
2.59543e-08
5.19344e-11
4.14243e-11
2.58358e-08
-2.9748e-11
-2.44849e-08
4.05263e-11
2.44484e-08
-1.59251e-11
-3.23792e-11
-2.26461e-08
5.32558e-11
1.69154e-11
2.26201e-08
-1.7432e-11
2.92925e-11
2.58536e-08
-2.1987e-11
7.65896e-11
2.6021e-08
-9.77949e-11
1.06901e-11
-2.69924e-08
-2.13901e-11
2.69679e-08
-2.31167e-08
7.64347e-11
2.30898e-08
2.60196e-08
1.92053e-11
1.78668e-11
2.62779e-08
5.38201e-11
-2.48542e-08
2.18341e-11
2.484e-08
-1.58747e-11
-6.48369e-12
-2.31536e-08
1.82011e-11
2.31486e-08
5.29585e-12
-3.67468e-12
2.63608e-08
-5.35542e-11
2.25872e-08
-2.25292e-11
-3.0575e-11
4.6624e-11
4.55126e-11
2.7985e-11
3.0906e-11
-2.36553e-11
-2.58854e-08
2.58747e-08
2.26231e-11
-3.00791e-11
-2.46281e-08
2.46166e-08
3.80426e-11
2.2574e-08
-2.0629e-11
-3.84093e-11
-2.25866e-08
2.34911e-11
2.99227e-11
-4.69574e-11
-4.54273e-11
-2.76425e-11
-3.12e-11
2.27236e-11
2.58849e-08
-2.08269e-11
3.06043e-11
2.46284e-08
-3.82563e-11
2.2973e-11
3.8467e-11
-2.19802e-12
5.74688e-13
3.03521e-12
-1.36646e-12
1.23843e-07
-3.13398e-11
-6.35016e-13
-5.48005e-13
1.15022e-07
3.79042e-11
3.16475e-11
-3.39655e-11
-6.57417e-11
6.3388e-11
-6.63283e-11
6.65951e-11
-1.15023e-07
-3.82052e-11
8.99016e-13
-4.27156e-12
1.16194e-07
2.39118e-11
3.67582e-11
-2.61402e-11
-1.05544e-11
3.45129e-11
-3.53101e-11
1.08805e-11
2.00926e-11
3.6896e-11
5.4322e-11
3.9014e-11
2.75077e-08
-2.7658e-08
-1.44428e-13
5.01854e-14
-1.23843e-07
-4.35224e-13
7.49407e-13
1.23843e-07
-1.15021e-07
-3.09754e-11
-8.69568e-13
-3.51803e-13
1.15021e-07
3.78411e-11
3.19846e-11
-3.78918e-11
-6.6063e-11
6.3442e-11
6.69902e-11
-6.39442e-11
-1.16199e-07
-3.64124e-11
-3.87876e-13
-4.99493e-13
1.16201e-07
2.52981e-11
3.66418e-11
-2.62049e-11
-1.07393e-11
3.44775e-11
1.0952e-11
-3.48971e-11
-2.76584e-08
2.01813e-11
3.7012e-11
5.48461e-11
3.91229e-11
2.75072e-08
-1.21302e-12
-1.10982e-13
-1.23845e-07
3.96846e-13
8.40414e-13
1.23845e-07
-1.15022e-07
-3.14084e-11
-1.08642e-12
3.95624e-14
1.15022e-07
3.77676e-11
3.14615e-11
-3.41611e-11
-6.63357e-11
6.34945e-11
6.66736e-11
-6.60793e-11
-1.16202e-07
-3.67004e-11
1.16968e-12
1.48385e-12
1.16202e-07
2.48918e-11
3.62735e-11
-2.68606e-11
-1.03651e-11
3.43366e-11
1.12302e-11
-3.53196e-11
-2.76569e-08
2.00561e-11
3.69409e-11
5.46532e-11
3.91934e-11
2.75061e-08
-2.14005e-12
9.36775e-13
-1.23845e-07
5.68052e-13
1.82247e-12
1.23844e-07
-1.15024e-07
-3.1008e-11
-2.75884e-13
-6.3235e-13
1.15022e-07
3.80271e-11
3.23858e-11
-3.76487e-11
-6.57759e-11
6.34525e-11
6.67185e-11
-6.39271e-11
-1.16203e-07
-3.5925e-11
1.18334e-13
-7.42925e-13
1.16203e-07
2.59202e-11
3.68685e-11
-2.57742e-11
-1.09136e-11
3.47338e-11
1.0814e-11
-3.49155e-11
-2.76566e-08
2.02273e-11
3.71123e-11
5.43826e-11
3.91742e-11
2.75057e-08
-1.29485e-12
3.67569e-13
-1.23845e-07
-5.28296e-13
8.18462e-13
1.23846e-07
-1.15017e-07
-3.10021e-11
-8.69612e-13
-8.73839e-13
1.15016e-07
3.81755e-11
3.18695e-11
-3.39849e-11
-6.60363e-11
6.35622e-11
6.65709e-11
-6.59845e-11
-1.16201e-07
-3.6191e-11
2.21837e-12
3.05878e-13
1.16199e-07
2.53004e-11
3.67057e-11
-2.63132e-11
-1.0917e-11
3.44515e-11
1.12676e-11
-3.5044e-11
-2.76561e-08
2.02654e-11
3.68437e-11
5.47927e-11
3.88675e-11
2.75053e-08
-6.34001e-13
7.2668e-13
-1.23849e-07
-5.29469e-13
-3.5301e-13
1.23849e-07
-1.15016e-07
-3.08524e-11
2.77682e-13
-1.07053e-12
1.15016e-07
3.78809e-11
3.21658e-11
-3.76036e-11
-6.61647e-11
6.33093e-11
6.65867e-11
-6.42358e-11
-1.16193e-07
-3.60636e-11
3.89387e-12
2.18353e-13
1.16191e-07
2.55215e-11
3.68501e-11
-2.60759e-11
-1.12163e-11
3.39463e-11
1.06283e-11
-3.57179e-11
-2.76565e-08
2.05779e-11
3.70722e-11
5.47171e-11
3.87115e-11
2.75054e-08
6.53707e-13
5.8658e-13
-1.23856e-07
-1.8283e-12
-1.50365e-12
1.23858e-07
-1.15017e-07
-3.09947e-11
-5.64977e-13
-1.87732e-12
1.15016e-07
3.82487e-11
3.20745e-11
-3.35538e-11
-6.59942e-11
6.29424e-11
6.62697e-11
-6.63443e-11
-1.16187e-07
-3.59926e-11
3.59002e-12
-2.49801e-13
1.16187e-07
2.53671e-11
3.69756e-11
-2.62406e-11
-1.1169e-11
3.3669e-11
1.03297e-11
-3.5952e-11
-2.76562e-08
2.05332e-11
3.68199e-11
5.47457e-11
3.88599e-11
2.75052e-08
-1.35436e-12
1.13264e-12
-1.23865e-07
-1.66393e-13
5.94088e-14
1.23866e-07
-1.1502e-07
-3.09613e-11
-1.66249e-12
-2.62315e-12
1.15022e-07
3.79359e-11
3.24531e-11
-3.70989e-11
-6.60697e-11
6.32366e-11
6.64324e-11
-6.35427e-11
-1.16186e-07
-3.64161e-11
1.77331e-12
-7.95979e-13
1.16187e-07
2.52268e-11
3.68991e-11
-2.62179e-11
-1.06159e-11
3.38463e-11
1.08058e-11
-3.55794e-11
-2.76556e-08
2.05347e-11
3.72137e-11
5.43257e-11
3.89899e-11
2.75046e-08
-5.82997e-13
9.10395e-13
-1.23867e-07
-6.52126e-14
-1.77052e-13
1.23867e-07
-1.15026e-07
-3.0799e-11
-2.03489e-13
-1.7684e-12
1.15025e-07
3.82545e-11
3.24113e-11
-3.34103e-11
-6.62633e-11
6.30792e-11
6.62111e-11
-6.62197e-11
-1.16191e-07
-3.65094e-11
-4.06996e-14
-9.66461e-13
1.16193e-07
2.50281e-11
3.66811e-11
-2.62639e-11
-1.07351e-11
3.43456e-11
1.08385e-11
-3.49638e-11
-2.76558e-08
2.05175e-11
3.73666e-11
5.45607e-11
3.87319e-11
2.75046e-08
-1.77789e-13
1.18847e-13
-1.23868e-07
-4.11759e-13
-2.68409e-13
1.23869e-07
-1.15025e-07
-3.12585e-11
-1.21768e-12
-1.9818e-12
1.15027e-07
3.82256e-11
3.23839e-11
-3.71358e-11
-6.57096e-11
6.29954e-11
6.62966e-11
-6.39654e-11
-1.16197e-07
-3.67018e-11
6.62502e-13
7.29624e-13
1.16197e-07
2.46957e-11
3.68288e-11
-2.62899e-11
-1.06106e-11
3.45579e-11
1.08418e-11
-3.49104e-11
-2.7655e-08
1.99611e-11
3.69761e-11
5.47746e-11
3.92744e-11
2.7504e-08
1.46518e-13
1.36407e-12
-1.23868e-07
-1.12147e-12
-2.79437e-13
1.23868e-07
-1.15027e-07
-3.09344e-11
-6.56074e-13
-1.3293e-12
1.15025e-07
3.80326e-11
3.2198e-11
-3.35783e-11
-6.59199e-11
6.32951e-11
6.65534e-11
-6.60218e-11
-1.16197e-07
-3.64534e-11
5.1073e-13
5.21197e-13
1.16197e-07
2.53627e-11
3.6786e-11
-2.59978e-11
-1.07808e-11
3.4109e-11
1.09556e-11
-3.50485e-11
-2.7655e-08
1.99148e-11
3.68737e-11
5.49467e-11
3.9308e-11
2.75039e-08
-1.38623e-12
1.53023e-12
-1.2387e-07
-9.19586e-13
1.4876e-12
1.23869e-07
-1.15023e-07
-3.12518e-11
-1.49562e-12
-3.70852e-13
1.15021e-07
3.8152e-11
3.20573e-11
-3.77281e-11
-6.53908e-11
6.38422e-11
6.71064e-11
-6.31146e-11
-1.16197e-07
-3.6387e-11
4.87688e-13
-1.25695e-13
1.16198e-07
2.54418e-11
3.69454e-11
-2.59149e-11
-1.05088e-11
3.38565e-11
1.05966e-11
-3.46958e-11
-2.76553e-08
2.04442e-11
3.73639e-11
5.42638e-11
3.90189e-11
2.75042e-08
-6.78207e-13
1.42048e-12
-1.23868e-07
-9.81923e-13
2.04109e-12
1.23867e-07
-1.15017e-07
-3.15145e-11
-1.20095e-12
-3.19787e-14
1.15014e-07
3.77181e-11
3.17528e-11
-3.44714e-11
-6.49432e-11
6.35523e-11
6.69154e-11
-6.55298e-11
-1.16199e-07
-3.64475e-11
-1.00316e-12
-2.65131e-13
1.16199e-07
2.52644e-11
3.68769e-11
-2.60364e-11
-9.91505e-12
3.42547e-11
1.14279e-11
-3.45068e-11
-2.76555e-08
2.00508e-11
3.71696e-11
5.45621e-11
3.92494e-11
2.75044e-08
-1.55026e-12
1.2948e-12
-1.23864e-07
-8.0456e-13
1.37601e-12
1.23864e-07
-1.15014e-07
-3.14262e-11
-2.60683e-12
2.92341e-13
1.15015e-07
3.73412e-11
3.21368e-11
-3.80264e-11
-6.55763e-11
6.36213e-11
6.66372e-11
-6.32162e-11
-1.16199e-07
-3.65746e-11
-2.31141e-13
4.19984e-13
1.16198e-07
2.49742e-11
3.67128e-11
-2.59633e-11
-9.73083e-12
3.46949e-11
1.10481e-11
-3.39827e-11
-2.76562e-08
1.99128e-11
3.687e-11
5.51075e-11
3.94018e-11
2.75049e-08
-7.72452e-13
1.16857e-12
-1.23863e-07
-7.9334e-13
9.96549e-13
1.23862e-07
-1.1502e-07
-3.12882e-11
-2.47732e-12
-1.97096e-13
1.1502e-07
3.79726e-11
3.23655e-11
-3.41497e-11
-6.55643e-11
6.31439e-11
6.64756e-11
-6.6236e-11
-1.16197e-07
-3.65976e-11
3.57634e-13
7.18019e-13
1.16198e-07
2.49723e-11
3.70485e-11
-2.62472e-11
-1.03421e-11
3.42444e-11
1.07114e-11
-3.50302e-11
-2.76561e-08
2.00647e-11
3.69831e-11
5.47401e-11
3.91867e-11
2.75052e-08
-1.899e-12
1.62603e-12
-1.2386e-07
1.12472e-13
1.27154e-12
1.23859e-07
-1.15023e-07
-3.14905e-11
-1.70774e-12
-2.51047e-13
1.15023e-07
3.80263e-11
3.21368e-11
-3.74798e-11
-6.54781e-11
6.31994e-11
6.63901e-11
-6.35809e-11
-1.16201e-07
-3.62485e-11
-9.31886e-13
-4.45622e-13
1.16201e-07
2.52963e-11
3.73066e-11
-2.55401e-11
-1.01234e-11
3.41557e-11
1.04625e-11
-3.47799e-11
-2.76569e-08
2.03556e-11
3.7284e-11
5.44202e-11
3.90675e-11
2.75058e-08
-3.23873e-12
1.08545e-12
-1.23858e-07
-5.80538e-13
1.58575e-12
1.23859e-07
-1.15025e-07
-3.15746e-11
-9.33135e-13
9.96285e-14
1.15023e-07
3.77237e-11
3.19281e-11
-3.39135e-11
-6.54875e-11
6.31977e-11
6.65828e-11
-6.59279e-11
-1.16202e-07
-3.66145e-11
5.02456e-13
9.29524e-13
1.162e-07
2.51562e-11
3.68801e-11
-2.24132e-11
-1.03406e-11
3.39063e-11
1.09738e-11
-3.73754e-11
-2.76574e-08
2.04535e-11
3.75162e-11
5.44321e-11
3.89438e-11
2.75061e-08
1.60296e-12
1.17278e-07
1.32093e-11
3.22489e-11
-1.44004e-11
-3.42811e-11
-2.82726e-11
2.19056e-12
2.31759e-12
1.17309e-07
2.10278e-11
2.77287e-11
-2.67697e-11
1.27653e-11
3.20093e-11
-3.18411e-11
-1.44047e-11
-1.17306e-07
1.17282e-07
1.27641e-12
-1.17281e-07
9.51799e-13
-1.34242e-11
-3.40677e-11
1.32126e-11
3.24789e-11
2.81362e-11
1.17309e-07
9.49888e-13
-1.17309e-07
2.01681e-12
-2.80648e-11
-2.23867e-11
2.51092e-11
-1.3922e-11
-3.3964e-11
2.96213e-11
1.33457e-11
4.611e-11
4.62266e-11
2.74915e-08
-2.76434e-08
-3.20747e-11
2.7643e-08
-2.74911e-08
-4.58244e-11
-4.58735e-11
-3.6626e-13
1.15036e-07
-6.63042e-11
6.27077e-11
6.60968e-11
-6.35362e-11
-1.98459e-11
-3.67711e-13
-1.45577e-12
1.16089e-07
3.51703e-11
2.0903e-11
-3.51942e-11
-4.64351e-11
6.1388e-11
-6.30887e-11
4.62242e-11
1.15042e-07
-1.01397e-12
-1.15041e-07
-1.07438e-12
6.66253e-11
-6.37936e-11
-6.58554e-11
6.25364e-11
2.11502e-11
1.16094e-07
-4.34802e-13
-1.16092e-07
-1.12802e-12
-1.99185e-11
-3.4998e-11
3.53139e-11
4.62365e-11
-6.31485e-11
6.19125e-11
-4.62367e-11
-1.26695e-12
-1.55844e-12
1.1611e-07
3.48426e-11
2.14747e-11
-3.48003e-11
-4.69023e-11
6.32498e-11
-6.33093e-11
4.62376e-11
-1.16108e-07
-1.91547e-12
-1.1502e-07
-9.28743e-13
-3.11858e-11
-3.78325e-11
3.40972e-11
6.70077e-11
-6.36064e-11
-6.52828e-11
6.61275e-11
2.14159e-11
1.16115e-07
-1.39312e-12
-1.16113e-07
-2.22169e-12
-2.00809e-11
-3.47925e-11
3.48895e-11
4.68436e-11
-6.31868e-11
6.26791e-11
-4.64961e-11
5.35306e-11
4.01783e-11
2.74946e-08
-3.64525e-11
2.76441e-08
-2.74942e-08
-5.34791e-11
-3.87312e-11
-4.88947e-14
5.28916e-13
1.16268e-07
2.49956e-11
3.73003e-11
-2.61535e-11
-1.04231e-11
3.33752e-11
-3.47776e-11
1.06698e-11
-1.16267e-07
9.44137e-14
-1.16197e-07
4.15332e-13
-3.65097e-11
-2.64469e-11
2.52057e-11
1.1089e-11
-3.51253e-11
-1.0755e-11
3.40573e-11
3.75232e-11
1.16274e-07
-1.03402e-12
-1.16272e-07
-8.63557e-13
-3.7e-11
-2.61047e-11
2.53521e-11
1.06843e-11
-3.43434e-11
3.41155e-11
-1.05626e-11
-2.75076e-08
-5.39065e-11
-3.79065e-11
2.77722e-11
3.05471e-11
4.72483e-11
4.56399e-11
2.74915e-08
-2.8018e-11
-3.12057e-11
2.76406e-08
-2.74896e-08
-4.66074e-11
-4.50977e-11
1.02875e-12
1.17285e-07
2.10696e-11
2.76147e-11
-2.26847e-11
1.32231e-11
3.28466e-11
-1.38073e-11
-3.43855e-11
-2.78679e-11
2.15843e-12
2.14688e-12
1.1731e-07
2.09259e-11
2.80606e-11
-2.2671e-11
1.29264e-11
3.18324e-11
-1.4384e-11
-3.40709e-11
1.17285e-07
1.33098e-12
-1.17286e-07
1.74486e-12
-2.77689e-11
-2.23166e-11
2.13629e-11
-1.36913e-11
-3.41194e-11
3.25284e-11
1.32574e-11
2.81912e-11
1.17312e-07
6.23388e-13
-1.17311e-07
6.42091e-13
-2.78795e-11
-2.23292e-11
2.11519e-11
-1.4029e-11
-3.33783e-11
3.23952e-11
1.35564e-11
4.64721e-11
4.65398e-11
2.74912e-08
-3.1568e-11
2.76426e-08
-2.74907e-08
-4.6101e-11
-4.60185e-11
-2.5094e-13
1.15044e-07
3.82779e-11
3.11154e-11
-3.86663e-11
-6.59868e-11
6.29401e-11
6.61647e-11
-6.41876e-11
-2.00463e-11
5.80518e-13
-1.66073e-12
1.16094e-07
3.50741e-11
2.12328e-11
-3.51659e-11
-4.64068e-11
6.21442e-11
4.65351e-11
-6.28711e-11
1.15042e-07
2.31545e-13
-1.15044e-07
3.82227e-13
-3.0858e-11
-3.85531e-11
3.81294e-11
6.64919e-11
-6.33532e-11
6.3469e-11
-6.58705e-11
2.11265e-11
1.16091e-07
-1.79245e-13
-1.16092e-07
5.62151e-14
-2.00205e-11
-3.52188e-11
3.50476e-11
4.67467e-11
-6.2643e-11
6.21763e-11
-4.60759e-11
-7.29652e-13
-1.43559e-12
1.16117e-07
3.46111e-11
2.10778e-11
-3.50432e-11
-4.64339e-11
6.22567e-11
-6.3158e-11
4.67252e-11
-3.68929e-13
-1.15022e-07
6.32627e-13
-3.13511e-11
-3.82092e-11
3.74836e-11
6.651e-11
-6.39864e-11
-6.56549e-11
6.30277e-11
2.15997e-11
1.16122e-07
-1.51692e-12
-1.1612e-07
-6.57906e-13
-2.03234e-11
-3.47665e-11
3.46479e-11
4.67915e-11
-6.33666e-11
6.2542e-11
-4.6397e-11
5.38346e-11
3.97324e-11
2.7494e-08
-3.65784e-11
2.76424e-08
-2.74928e-08
-5.33618e-11
-3.86186e-11
-9.41919e-14
-7.48964e-14
1.16276e-07
2.5096e-11
3.72562e-11
-2.63497e-11
-1.03559e-11
3.39244e-11
-3.50815e-11
1.06826e-11
2.96024e-13
-1.16202e-07
9.88624e-13
-3.64645e-11
-2.65958e-11
2.5134e-11
1.07583e-11
-3.49922e-11
-1.08239e-11
3.45725e-11
3.76978e-11
1.16277e-07
1.05217e-12
-1.16277e-07
8.58654e-13
-3.71931e-11
-2.62354e-11
2.5109e-11
1.04255e-11
-3.48311e-11
3.38513e-11
-1.06129e-11
-2.75059e-08
-5.38753e-11
-3.78142e-11
2.75991e-11
3.06719e-11
4.72762e-11
4.58663e-11
2.74892e-08
-2.81767e-11
-3.14849e-11
2.76391e-08
-2.74878e-08
-4.6429e-11
-4.51783e-11
1.83652e-12
1.17284e-07
2.12672e-11
2.79402e-11
-2.23573e-11
1.36564e-11
3.27425e-11
-1.36077e-11
-3.42838e-11
-2.80356e-11
2.48636e-12
1.19782e-12
1.17314e-07
2.11305e-11
2.80265e-11
-2.64819e-11
1.32858e-11
3.21672e-11
-1.39749e-11
-3.17814e-11
1.17281e-07
1.85969e-12
-1.17282e-07
1.52895e-12
-2.76456e-11
-2.20982e-11
2.12725e-11
-1.37738e-11
-3.40009e-11
3.27835e-11
1.30163e-11
2.84637e-11
1.17315e-07
3.46176e-13
-1.17315e-07
-5.22797e-15
-2.7755e-11
-2.20276e-11
2.52892e-11
-1.41e-11
-3.34683e-11
2.98173e-11
1.36747e-11
4.61674e-11
4.6304e-11
2.74907e-08
-3.2039e-11
2.7643e-08
-2.7491e-08
-4.58142e-11
-4.569e-11
4.80249e-13
1.15042e-07
3.82559e-11
3.12401e-11
-3.81516e-11
-6.60561e-11
6.302e-11
6.65504e-11
-6.38967e-11
-2.03087e-11
1.09868e-12
1.14555e-12
1.16091e-07
3.50079e-11
2.08034e-11
-3.51399e-11
-4.62515e-11
6.19655e-11
4.60114e-11
-6.34485e-11
1.15038e-07
-2.98872e-13
-1.15039e-07
3.43383e-13
-3.05534e-11
-3.85026e-11
3.80797e-11
6.64216e-11
-6.35613e-11
6.27169e-11
-6.56313e-11
2.13217e-11
1.16089e-07
-5.81475e-13
-1.16089e-07
1.50448e-13
-2.00425e-11
-3.50509e-11
3.50154e-11
4.66376e-11
-6.29327e-11
6.23071e-11
-4.63456e-11
-4.96131e-13
-6.51043e-14
1.16123e-07
3.47238e-11
2.10056e-11
-3.51038e-11
-4.66883e-11
6.23223e-11
-6.35641e-11
4.66974e-11
-3.92953e-13
-1.15022e-07
-3.69829e-13
-3.12469e-11
-3.78647e-11
3.43139e-11
6.62231e-11
-6.37922e-11
-6.60975e-11
6.59208e-11
2.11865e-11
1.16123e-07
-1.68523e-12
-1.16123e-07
-3.01755e-13
-2.01523e-11
-3.48613e-11
3.47744e-11
4.70168e-11
-6.30448e-11
6.27031e-11
-4.59357e-11
5.36455e-11
3.94763e-11
2.74923e-08
-3.67012e-11
2.76412e-08
-2.74914e-08
-5.34395e-11
-3.84005e-11
1.29312e-12
9.80471e-13
1.16277e-07
2.51111e-11
3.72066e-11
-2.61862e-11
-1.05081e-11
3.34052e-11
-3.50195e-11
1.06166e-11
-1.11919e-14
-1.16203e-07
-1.38482e-13
-3.65252e-11
-2.59668e-11
2.56592e-11
1.12028e-11
-3.49367e-11
-1.07234e-11
3.46469e-11
3.72886e-11
1.16272e-07
1.03826e-12
-1.16274e-07
1.15759e-12
-3.70533e-11
-2.60641e-11
2.5262e-11
1.08348e-11
-3.44275e-11
3.41269e-11
-1.01356e-11
-2.75058e-08
-5.43106e-11
-3.79901e-11
2.75834e-11
3.07266e-11
4.71793e-11
4.57023e-11
2.74879e-08
-2.78118e-11
-3.13329e-11
2.76392e-08
-2.74878e-08
-4.67308e-11
-4.54455e-11
1.24905e-12
1.17281e-07
2.1328e-11
2.81978e-11
-2.20936e-11
1.28246e-11
3.25683e-11
-1.40499e-11
-3.4226e-11
-2.77387e-11
3.59442e-13
-5.12469e-14
1.17316e-07
2.14211e-11
2.86182e-11
-2.23894e-11
1.38611e-11
3.22091e-11
-1.37279e-11
-3.41688e-11
1.17278e-07
2.44837e-12
-1.17279e-07
1.61559e-12
-2.78795e-11
-2.21408e-11
2.11053e-11
-1.39728e-11
-3.42387e-11
3.23966e-11
1.31322e-11
2.84574e-11
1.17317e-07
9.3265e-13
-1.17317e-07
8.02382e-13
-2.78893e-11
-2.21181e-11
2.12976e-11
-1.39664e-11
-3.3564e-11
3.24063e-11
1.36816e-11
4.65256e-11
4.65866e-11
2.74911e-08
-3.22938e-11
2.76427e-08
-2.74909e-08
-4.55288e-11
-4.55749e-11
9.74723e-14
1.15039e-07
3.8191e-11
3.12532e-11
-3.86786e-11
-6.57756e-11
6.29941e-11
6.68101e-11
-6.39303e-11
-1.96634e-11
2.06305e-13
2.58825e-13
1.16088e-07
3.50293e-11
2.12386e-11
-3.53702e-11
-4.64856e-11
6.23558e-11
4.60534e-11
-6.30136e-11
1.15038e-07
-5.84803e-13
-1.15038e-07
-3.57405e-13
-3.06299e-11
-3.81863e-11
3.80851e-11
6.67619e-11
-6.35786e-11
6.30137e-11
-6.56113e-11
2.08852e-11
1.16083e-07
-3.36054e-13
-1.16085e-07
7.79911e-13
-2.01896e-11
-3.50126e-11
3.53159e-11
4.6781e-11
-6.26067e-11
6.26969e-11
-4.61175e-11
-1.49472e-13
-1.18155e-14
1.16122e-07
3.47102e-11
2.13526e-11
-3.49601e-11
-4.64616e-11
6.26173e-11
-6.32797e-11
4.69852e-11
-1.17207e-12
-1.15018e-07
-1.0291e-12
-3.09222e-11
-3.74462e-11
3.78515e-11
6.69411e-11
-6.33667e-11
-6.56437e-11
6.37219e-11
2.1382e-11
1.16119e-07
-6.33103e-14
-1.16121e-07
4.89655e-13
-2.01974e-11
-3.46954e-11
3.49616e-11
4.65423e-11
-6.33248e-11
6.26693e-11
-4.63358e-11
5.39456e-11
4.02458e-11
2.74915e-08
-3.69317e-11
2.764e-08
-2.74905e-08
-5.2927e-11
-3.87855e-11
1.3643e-12
9.32874e-13
1.16271e-07
2.54196e-11
3.7321e-11
-2.58856e-11
-1.04955e-11
3.39956e-11
-3.45485e-11
1.06584e-11
5.19994e-13
-1.16202e-07
-1.37954e-13
-3.60967e-11
-2.59719e-11
2.56879e-11
1.08927e-11
-3.46763e-11
-1.02998e-11
3.44131e-11
3.77264e-11
1.16271e-07
-1.97485e-13
-1.1627e-07
-4.66783e-13
-3.69279e-11
-2.58018e-11
2.53272e-11
1.08369e-11
-3.44707e-11
3.39422e-11
-1.05363e-11
-2.75051e-08
-5.37783e-11
-3.81133e-11
2.78273e-11
3.05113e-11
4.72248e-11
4.54724e-11
2.74881e-08
-2.81786e-11
-3.17907e-11
2.76411e-08
-2.74896e-08
-4.64678e-11
-4.50995e-11
4.11383e-13
1.17281e-07
2.10733e-11
2.7675e-11
-2.26002e-11
1.32942e-11
3.23659e-11
-1.39768e-11
-3.41538e-11
-2.79448e-11
2.2168e-12
1.33275e-12
1.17319e-07
2.1041e-11
2.79969e-11
-2.64487e-11
1.32154e-11
3.24149e-11
-1.42258e-11
-3.1181e-11
1.1729e-07
3.37858e-13
-1.17288e-07
5.10788e-13
-2.76828e-11
-2.25657e-11
2.08384e-11
-1.40187e-11
-3.39207e-11
3.27034e-11
1.32802e-11
2.84308e-11
1.17316e-07
5.86369e-13
-1.17318e-07
2.08988e-12
-2.78975e-11
-2.2333e-11
2.48916e-11
-1.36965e-11
-3.36479e-11
2.97831e-11
1.37476e-11
4.65532e-11
4.66366e-11
2.74906e-08
-3.24013e-11
2.76425e-08
-2.74904e-08
-4.54817e-11
-4.57977e-11
1.54391e-13
1.15039e-07
3.82922e-11
3.12719e-11
-3.85027e-11
-6.63626e-11
6.28882e-11
6.61182e-11
-6.409e-11
-2.02432e-11
-5.58453e-13
1.46802e-12
1.16082e-07
3.51866e-11
2.07967e-11
-3.53019e-11
-4.64506e-11
6.24767e-11
4.63768e-11
-6.24136e-11
1.15041e-07
-4.17425e-13
-1.1504e-07
-2.35911e-12
-3.02322e-11
-3.80505e-11
3.84658e-11
6.62624e-11
-6.37733e-11
6.30767e-11
-6.5865e-11
2.11506e-11
1.1608e-07
-6.13159e-13
-1.1608e-07
1.03731e-12
-2.01071e-11
-3.51203e-11
3.46969e-11
4.65113e-11
-6.27291e-11
6.2058e-11