/*--------------------------------*- C++ -*----------------------------------*\
| =========                 |                                                 |
| \\      /  F ield         | OpenFOAM: The Open Source CFD Toolbox           |
|  \\    /   O peration     | Version:  2206                                  |
|   \\  /    A nd           | Website:  www.openfoam.com                      |
|    \\/     M anipulation  |                                                 |
\*---------------------------------------------------------------------------*/
FoamFile
{
    version     2.0;
    format      ascii;
    arch        "LSB;label=32;scalar=64";
    class       volVectorField;
    location    "110";
    object      wallShearStress;
}
// * * * * * * * * * * * * * * * * * * * * * * * * * * * * * * * * * * * * * //

dimensions      [0 2 -2 0 0 0 0];

internalField   uniform (0 0 0);

boundaryField
{
    topPatch
    {
        type            calculated;
        value           nonuniform List<vector> 0();
    }
    wall
    {
        type            calculated;
        value           nonuniform List<vector> 
7746
(
(1.7512e-08 -4.45555e-09 -0.000110951)
(-4.16696e-09 4.67652e-09 -0.000110933)
(1.81684e-08 -4.4575e-09 -0.000104337)
(-1.51393e-09 7.78043e-09 -0.000104328)
(-3.4255e-10 -1.825e-09 -0.0001044)
(4.92152e-10 -6.73989e-10 -0.000111011)
(2.70705e-09 -7.69259e-11 -0.00011099)
(7.48346e-09 -1.42173e-09 -0.000104362)
(-1.60966e-08 3.37998e-09 -0.000110962)
(1.65013e-08 -6.84616e-09 -0.000110938)
(-3.96012e-09 5.05404e-09 -0.000111084)
(7.83216e-09 -1.34002e-08 -0.000110927)
(2.2963e-08 -9.38175e-09 -0.000110932)
(-1.31403e-08 3.78195e-09 -0.000110964)
(5.31632e-09 -9.75023e-09 -0.000110913)
(4.86656e-09 -8.74235e-09 -0.000111087)
(-2.81416e-08 7.07223e-09 -0.000110969)
(-2.96834e-08 9.71411e-09 -0.000104306)
(1.16474e-09 -3.14439e-09 -0.000104874)
(-2.29463e-08 -1.15549e-08 -0.000104921)
(9.15597e-09 6.79169e-09 -0.000109932)
(-2.60577e-08 -2.0255e-08 -0.000110029)
(-2.84695e-08 -1.06008e-08 -0.000111023)
(-2.4366e-08 -3.66486e-09 -0.000104345)
(1.93698e-08 -6.33565e-09 -0.000110947)
(-1.67281e-08 6.47544e-09 -0.000110972)
(3.6916e-09 -6.08866e-09 -0.000110923)
(3.93748e-09 -4.76093e-09 -0.000111086)
(-1.04814e-08 2.74992e-09 -0.000110958)
(2.12594e-08 -9.62835e-09 -0.000110937)
(1.38014e-09 -5.22772e-09 -0.000111076)
(6.62555e-09 -1.15473e-08 -0.000110926)
(-8.35415e-09 -1.13005e-09 -0.000104313)
(2.53369e-08 -6.46702e-09 -0.000104337)
(2.06719e-09 -1.60656e-09 -0.000110971)
(-2.513e-08 -9.66846e-09 -0.000110931)
(-4.03256e-09 2.19419e-09 -0.000104458)
(5.9682e-09 -1.18337e-08 -0.000104313)
(-2.38535e-09 -6.80454e-10 -0.000111162)
(6.71941e-09 1.20507e-08 -0.000110991)
(-1.0273e-08 -7.97516e-10 -0.00010429)
(1.90491e-08 -1.24199e-09 -0.000104321)
(1.66985e-08 5.49844e-09 -0.000110947)
(-1.66881e-08 -5.53101e-09 -0.000110932)
(-1.63226e-09 -1.33136e-09 -0.000104439)
(2.43725e-09 5.42107e-10 -0.000104303)
(5.68257e-09 1.16002e-08 -0.000111151)
(5.31017e-09 9.16859e-09 -0.000110997)
(-1.34986e-08 7.05748e-10 -0.000104269)
(2.71466e-08 -6.98192e-09 -0.00010429)
(1.95087e-08 7.68833e-09 -0.000110956)
(-1.15512e-08 -3.38142e-09 -0.000110914)
(-2.94441e-09 2.08722e-09 -0.000104457)
(2.06383e-09 -1.56099e-09 -0.000104302)
(-5.0696e-09 -9.35092e-09 -0.000111177)
(-8.65482e-11 -2.20535e-09 -0.00011101)
(-2.23478e-08 4.48179e-09 -0.000104266)
(1.61116e-08 -7.51478e-10 -0.000104295)
(1.91041e-08 7.46717e-09 -0.000110957)
(-1.41639e-08 -3.91541e-09 -0.000110937)
(-3.20861e-09 2.48264e-09 -0.000104443)
(4.5909e-09 -6.23762e-09 -0.000104315)
(-9.44725e-10 -7.74158e-10 -0.00011118)
(3.90915e-09 5.63145e-09 -0.000111028)
(-2.19951e-08 4.7475e-09 -0.000104261)
(1.36558e-08 -9.11879e-11 -0.000104281)
(2.59204e-08 1.07917e-08 -0.00011097)
(-2.79849e-09 2.79076e-09 -0.000110939)
(-3.37102e-09 9.72685e-09 -0.000104466)
(1.99667e-09 2.30039e-09 -0.000104336)
(-1.4904e-09 -1.31771e-09 -0.000111202)
(5.04976e-09 7.93786e-09 -0.000111046)
(-1.84962e-08 3.22146e-09 -0.000104246)
(8.76163e-09 -4.27896e-10 -0.000104269)
(2.33711e-08 9.12938e-09 -0.000110975)
(-1.07992e-08 -2.14032e-09 -0.000110948)
(-1.95142e-09 3.15125e-09 -0.000104467)
(1.08125e-09 2.48278e-09 -0.000104319)
(7.25323e-11 8.39385e-10 -0.000111186)
(4.18937e-09 5.61367e-09 -0.000111019)
(-2.52929e-08 6.36865e-09 -0.000104249)
(7.01271e-09 3.06508e-09 -0.000104289)
(2.32402e-08 9.39214e-09 -0.000110965)
(-6.37869e-09 -4.27751e-10 -0.000110932)
(-2.25546e-10 -3.1596e-09 -0.000104454)
(3.21174e-09 -3.77165e-09 -0.000104319)
(6.0183e-09 1.07636e-08 -0.000111174)
(8.72016e-09 1.20221e-08 -0.000111003)
(-2.1992e-08 3.23935e-09 -0.00010425)
(1.43115e-08 -1.42294e-09 -0.000104278)
(2.16156e-08 9.19637e-09 -0.000110964)
(-9.1192e-09 -1.34634e-09 -0.000110937)
(-1.15318e-09 1.82434e-09 -0.000104457)
(3.17879e-09 -4.52713e-09 -0.000104317)
(-3.62639e-09 -6.22105e-09 -0.000111141)
(5.02593e-09 6.06196e-09 -0.000110978)
(-1.8311e-08 1.86283e-09 -0.000104238)
(1.64125e-08 -1.04127e-09 -0.000104269)
(2.36481e-08 8.98085e-09 -0.000110964)
(-1.07558e-08 -1.58996e-09 -0.000110939)
(-3.36774e-09 7.44226e-09 -0.000104433)
(2.08893e-09 -1.91591e-10 -0.000104299)
(1.13189e-09 2.84179e-09 -0.000111123)
(-1.92915e-10 -1.07385e-09 -0.000110951)
(-1.07818e-08 -6.81453e-10 -0.000104241)
(1.67611e-08 -1.49423e-09 -0.000104265)
(2.26793e-08 1.05083e-08 -0.000110976)
(-8.95173e-09 -2.01836e-09 -0.000110943)
(-1.90321e-09 -3.0186e-10 -0.000104435)
(3.91259e-09 -5.42717e-09 -0.000104288)
(-1.47814e-09 -2.61746e-09 -0.000111106)
(2.79041e-09 1.58524e-09 -0.000110941)
(-1.8292e-08 2.85684e-09 -0.000104233)
(2.48677e-08 -4.86943e-09 -0.000104261)
(2.143e-08 7.4244e-09 -0.000110982)
(-1.67246e-08 -4.80893e-09 -0.000110949)
(-2.3458e-10 -9.78126e-10 -0.000104418)
(2.42633e-09 -4.76293e-09 -0.000104267)
(1.52043e-09 3.22004e-09 -0.000111101)
(8.10574e-10 4.1197e-10 -0.000110931)
(-7.25651e-09 -2.45477e-09 -0.00010423)
(2.04664e-08 -3.65026e-09 -0.000104271)
(6.23678e-09 3.18259e-11 -0.000110972)
(-2.2287e-08 -7.87593e-09 -0.000110939)
(-1.63838e-10 -4.75152e-09 -0.00010442)
(6.06864e-09 -1.19866e-08 -0.000104278)
(-2.86944e-09 -4.1246e-09 -0.000111101)
(3.30266e-09 1.33839e-09 -0.00011094)
(-1.82521e-08 1.43423e-09 -0.000104237)
(1.52346e-08 -2.02667e-10 -0.00010427)
(1.01265e-08 2.62608e-09 -0.000110954)
(-1.95226e-08 -6.17858e-09 -0.000110923)
(-2.33556e-09 2.53884e-09 -0.000104421)
(3.35984e-09 -1.79512e-09 -0.000104287)
(-2.93472e-10 7.74075e-10 -0.000111085)
(5.04671e-09 5.68235e-09 -0.000110929)
(-1.69658e-08 2.70869e-09 -0.000104233)
(1.40115e-08 -1.26089e-09 -0.000104263)
(2.49662e-08 9.40633e-09 -0.000110948)
(-9.25475e-09 -1.1129e-09 -0.000110925)
(2.33539e-09 -6.27709e-09 -0.000104429)
(4.13492e-09 -5.40394e-09 -0.000104288)
(-2.53705e-09 -4.11784e-09 -0.000111078)
(9.72779e-10 -1.35975e-11 -0.000110917)
(-2.19291e-08 3.59752e-09 -0.000104243)
(1.41807e-08 -6.59677e-10 -0.000104267)
(2.76403e-08 1.15233e-08 -0.000110951)
(-6.44343e-09 2.43452e-10 -0.000110909)
(-4.97349e-09 9.66954e-09 -0.000104433)
(3.08853e-09 -2.70515e-09 -0.00010429)
(-3.07623e-09 -4.84471e-09 -0.000111082)
(3.55943e-09 5.7542e-09 -0.000110919)
(-1.10649e-08 -3.47969e-10 -0.000104229)
(2.08116e-08 -2.5207e-09 -0.000104263)
(1.24484e-08 3.50665e-09 -0.000110941)
(-2.11112e-08 -8.57387e-09 -0.000110918)
(-1.6671e-09 4.6607e-10 -0.000104422)
(2.54907e-09 -3.87419e-09 -0.00010428)
(9.15735e-10 2.25867e-09 -0.000111084)
(4.23112e-09 4.73146e-09 -0.00011093)
(-1.4375e-08 6.47183e-10 -0.00010422)
(1.6755e-08 5.27195e-10 -0.000104255)
(1.30902e-08 3.6852e-09 -0.000110935)
(-9.32711e-09 1.51728e-10 -0.000110905)
(1.06834e-09 -3.25242e-09 -0.000104415)
(1.01799e-09 -8.20581e-10 -0.000104274)
(-3.15395e-10 6.63341e-10 -0.000111084)
(1.02971e-09 -1.29091e-10 -0.000110918)
(-4.6014e-10 -4.8921e-09 -0.000104331)
(-2.77187e-08 -6.29937e-09 -0.000104342)
(2.36115e-08 -4.99814e-09 -0.000104322)
(-1.21882e-08 -5.18406e-11 -0.000104303)
(-2.27586e-08 -5.49925e-09 -0.000104324)
(4.02582e-09 -2.96597e-09 -0.000104307)
(3.10044e-09 4.89756e-09 -0.00011112)
(-7.24298e-10 -1.47491e-09 -0.000110965)
(-1.86618e-08 -8.10372e-09 -0.000110926)
(3.51717e-09 -1.16632e-09 -0.000110955)
(-7.93344e-10 1.15535e-09 -0.000110954)
(4.9873e-10 -1.81807e-09 -0.000111115)
(-2.03999e-09 -2.222e-09 -0.00010454)
(5.07856e-09 9.95189e-09 -0.000104382)
(2.96165e-09 -4.69857e-09 -0.0001043)
(2.68955e-09 -1.06072e-08 -0.000104453)
(6.20162e-09 1.31621e-08 -0.000104379)
(1.65118e-09 1.05118e-08 -0.00010452)
(2.92173e-09 3.64671e-09 -0.000104508)
(-2.73735e-11 1.61897e-09 -0.000104376)
(-2.51576e-09 1.00359e-08 -0.000104503)
(-6.41772e-09 1.22448e-08 -0.000104364)
(-3.34647e-09 -2.7492e-09 -0.000104359)
(2.37566e-09 -2.25732e-09 -0.000104504)
(-3.75411e-09 7.39394e-09 -0.000104345)
(-1.22889e-09 6.85629e-09 -0.000104501)
(-2.69784e-08 -1.17727e-08 -0.000111008)
(1.38198e-08 4.38868e-09 -0.00011098)
(1.03632e-08 1.63843e-08 -0.00011099)
(4.69093e-09 9.86298e-09 -0.000111146)
(1.606e-08 7.0244e-09 -0.000110968)
(-1.92466e-08 -7.4687e-09 -0.000110999)
(-2.5367e-08 -5.60295e-09 -0.000104327)
(1.69981e-08 2.85819e-09 -0.000104354)
(1.65858e-08 -5.70858e-10 -0.000104293)
(-2.19569e-08 3.72012e-09 -0.000104324)
(1.83741e-08 3.21398e-09 -0.000104346)
(-1.62156e-08 -1.54339e-09 -0.00010432)
(-2.23737e-08 4.81243e-09 -0.000104325)
(1.2044e-08 4.96103e-10 -0.00010429)
(1.62883e-09 -3.29839e-09 -0.000111118)
(-6.11006e-09 9.33733e-09 -0.000110959)
(1.99897e-08 -8.41552e-09 -0.000110923)
(-1.64035e-08 4.84632e-09 -0.0001109)
(-5.24037e-09 9.53271e-09 -0.000110934)
(-6.76555e-10 2.88562e-09 -0.00011111)
(-2.02569e-08 9.0461e-09 -0.000110907)
(1.78507e-08 -6.09765e-09 -0.000110923)
(-8.64164e-09 9.4463e-10 -0.000110956)
(2.02356e-08 -6.28074e-09 -0.000110943)
(2.0796e-09 -4.91884e-09 -0.000111073)
(4.11597e-09 -4.74233e-09 -0.00011092)
(1.93682e-08 -7.01025e-09 -0.000110934)
(-1.62502e-08 5.35165e-09 -0.000110966)
(2.0114e-09 -2.68188e-09 -0.00011093)
(-1.23609e-09 8.47748e-10 -0.000111078)
(1.56926e-08 4.65557e-10 -0.00010429)
(-1.84729e-08 -2.40272e-09 -0.000104324)
(1.53558e-08 -9.22315e-10 -0.000104304)
(-1.8572e-08 2.22328e-09 -0.000104286)
(-1.35221e-08 -3.73227e-10 -0.000104327)
(1.81512e-08 2.81081e-09 -0.000104295)
(3.1842e-09 6.19525e-09 -0.00011112)
(-1.11028e-09 -6.85182e-10 -0.000110967)
(-1.77507e-08 -5.82439e-09 -0.000110936)
(1.8473e-08 7.53698e-09 -0.000110957)
(-1.40009e-09 -8.14516e-10 -0.000110974)
(4.76333e-09 7.79403e-09 -0.000111122)
(1.2465e-09 8.68891e-09 -0.000104524)
(1.42651e-09 -5.08707e-10 -0.000104387)
(2.06591e-09 -8.42342e-10 -0.000104317)
(-3.21538e-09 1.93685e-09 -0.000104444)
(2.86761e-09 6.48824e-10 -0.000104401)
(-4.86375e-09 -6.43373e-09 -0.00010453)
(8.57259e-10 -1.14949e-09 -0.000104499)
(-1.48805e-09 3.13838e-10 -0.000104359)
(-6.26773e-10 5.7832e-09 -0.000104486)
(-4.46449e-09 7.3972e-09 -0.000104349)
(-1.8561e-10 4.29548e-09 -0.000104359)
(3.60504e-09 4.91809e-09 -0.000104497)
(-7.18965e-10 -1.54494e-09 -0.000104355)
(-3.6715e-10 3.80562e-09 -0.000104494)
(-1.818e-08 -6.67298e-09 -0.000110989)
(1.91314e-08 5.92498e-09 -0.000110976)
(-1.76962e-10 -3.04616e-09 -0.000111016)
(-1.34346e-09 1.99321e-09 -0.000111156)
(2.04814e-08 7.75989e-09 -0.000110978)
(-1.32039e-08 -4.2054e-09 -0.000111004)
(-1.58191e-08 -1.47083e-09 -0.000104312)
(2.15565e-08 3.26982e-09 -0.00010435)
(1.47214e-08 -8.60225e-10 -0.000104294)
(-1.93348e-08 2.42259e-09 -0.000104333)
(2.22431e-08 4.48686e-09 -0.000104348)
(-1.31086e-08 -4.84023e-10 -0.000104322)
(-1.8844e-08 2.38057e-09 -0.00010433)
(1.73148e-08 -2.11141e-09 -0.000104302)
(-9.66339e-10 1.8351e-09 -0.000111094)
(-5.41981e-09 8.65116e-09 -0.000110937)
(1.21358e-08 -4.34523e-09 -0.000110935)
(-1.57528e-08 4.62385e-09 -0.000110925)
(-1.47687e-09 2.30765e-09 -0.000110941)
(-3.19143e-10 8.0479e-10 -0.000111099)
(-1.13929e-08 2.96429e-09 -0.000110922)
(2.10953e-08 -7.96179e-09 -0.000110946)
(-1.08259e-08 2.55681e-09 -0.000110956)
(2.62255e-08 -1.11972e-08 -0.000110921)
(-2.36668e-09 2.95261e-09 -0.000111091)
(2.91466e-10 1.34661e-09 -0.000110922)
(1.25513e-08 -3.69024e-09 -0.00011093)
(-8.44831e-09 1.95963e-09 -0.000110946)
(2.53709e-09 -3.90719e-09 -0.00011092)
(-4.68019e-09 6.57617e-09 -0.000111078)
(1.47189e-08 1.58096e-09 -0.000104294)
(-1.48879e-08 -1.79186e-09 -0.000104303)
(1.50404e-08 -1.47343e-09 -0.000104298)
(-8.20352e-09 -1.80537e-10 -0.000104263)
(-1.23666e-08 -3.15574e-10 -0.000104316)
(1.79483e-08 2.06486e-09 -0.000104279)
(6.1946e-09 1.1971e-08 -0.000111131)
(-5.59287e-10 -6.47461e-10 -0.000110981)
(-1.26904e-08 -5.02391e-09 -0.000110935)
(1.47072e-08 5.55028e-09 -0.000110946)
(-6.29295e-09 -1.12554e-08 -0.000110987)
(-2.82124e-09 -5.65675e-09 -0.000111138)
(-3.77827e-10 -2.83311e-10 -0.000104544)
(1.00967e-09 -1.90783e-09 -0.000104389)
(1.81455e-09 6.90028e-10 -0.000104299)
(-2.2649e-09 1.19886e-09 -0.000104436)
(-1.4106e-09 -8.31311e-09 -0.000104398)
(-3.91937e-09 -5.93424e-09 -0.00010453)
(3.89119e-09 7.58557e-09 -0.000104499)
(-1.08084e-09 2.20467e-09 -0.000104362)
(3.74259e-09 -4.46112e-09 -0.000104496)
(-2.84098e-09 3.88529e-09 -0.000104353)
(-3.39799e-09 -6.32039e-09 -0.000104368)
(1.30817e-10 -3.603e-09 -0.000104497)
(-3.46784e-09 3.83455e-09 -0.000104355)
(5.69467e-10 2.84017e-09 -0.00010449)
(-1.09659e-08 -2.47973e-09 -0.000111001)
(2.60093e-08 1.08722e-08 -0.000110976)
(4.18535e-10 -3.58631e-11 -0.000111016)
(-2.78739e-09 -6.61438e-09 -0.000111172)
(1.92483e-08 6.17735e-09 -0.000110976)
(-9.51697e-09 -1.63494e-09 -0.000111001)
(-1.16211e-08 1.31486e-09 -0.000104313)
(2.27617e-08 3.57791e-09 -0.000104345)
(1.62192e-08 2.26998e-11 -0.000104297)
(-1.81188e-08 2.989e-09 -0.000104323)
(1.51927e-08 5.53751e-10 -0.000104345)
(-1.26007e-08 -7.41102e-10 -0.000104313)
(-1.28361e-08 -4.47073e-10 -0.00010433)
(1.70476e-08 -3.01576e-09 -0.000104292)
(3.93946e-09 -6.00648e-09 -0.000111099)
(-5.07539e-10 -1.05552e-09 -0.000110937)
(2.40746e-08 -9.53439e-09 -0.000110947)
(-1.59345e-08 6.05013e-09 -0.000110914)
(-3.0461e-09 4.24419e-09 -0.000110939)
(3.05828e-09 -3.46446e-09 -0.000111089)
(-1.63372e-08 4.40586e-09 -0.000110924)
(1.65676e-08 -5.88003e-09 -0.000110936)
(-2.29353e-08 9.51195e-09 -0.000110955)
(1.47209e-08 -4.63651e-09 -0.000110929)
(-6.03993e-10 -5.17012e-10 -0.000111083)
(6.38876e-09 -9.31247e-09 -0.000110933)
(1.88932e-08 -6.59798e-09 -0.00011093)
(-1.57803e-08 4.90511e-09 -0.000110954)
(3.14671e-09 -3.56426e-09 -0.000110936)
(1.73833e-09 -5.01266e-09 -0.000111088)
(1.7814e-08 4.47657e-09 -0.000104288)
(-1.50832e-08 -1.61325e-09 -0.000104312)
(1.39968e-08 -7.54652e-10 -0.000104293)
(-1.7274e-08 1.49396e-09 -0.000104262)
(-1.94545e-08 -1.89022e-09 -0.000104333)
(1.81994e-08 1.69233e-09 -0.000104281)
(-1.09212e-09 -5.10023e-09 -0.000111138)
(-7.34435e-09 -1.19487e-08 -0.000110982)
(-1.78341e-08 -5.68713e-09 -0.000110949)
(2.02403e-08 7.11104e-09 -0.000110959)
(-4.98556e-09 -7.17258e-09 -0.000110984)
(6.55847e-10 -1.29411e-09 -0.000111136)
(-3.95757e-09 -5.93907e-09 -0.00010454)
(1.37445e-09 -1.08004e-09 -0.000104404)
(8.38236e-10 2.04593e-09 -0.00010432)
(-1.38588e-11 -5.30897e-09 -0.000104452)
(3.23539e-09 4.22213e-09 -0.000104415)
(-2.42539e-09 -9.83331e-10 -0.000104548)
(1.32583e-09 -3.64535e-09 -0.000104505)
(-3.37949e-09 -5.04512e-09 -0.000104365)
(-1.16881e-09 3.95789e-09 -0.000104498)
(-3.13852e-09 4.03602e-09 -0.000104348)
(-2.83254e-09 -1.84797e-09 -0.000104372)
(8.28493e-10 -1.77446e-09 -0.000104505)
(1.75564e-10 -3.13372e-09 -0.000104346)
(1.56157e-09 1.63783e-09 -0.000104482)
(-1.78778e-08 -7.71646e-09 -0.000111)
(1.52518e-08 4.33529e-09 -0.000110971)
(2.80753e-09 3.53314e-09 -0.00011104)
(-4.53892e-11 8.03945e-10 -0.000111191)
(1.40068e-08 4.37184e-09 -0.000110985)
(-2.00516e-08 -9.14172e-09 -0.000111002)
(-2.23202e-08 -3.73537e-09 -0.000104312)
(1.69394e-08 2.02055e-09 -0.00010434)
(2.16405e-08 -4.25606e-09 -0.000104301)
(-1.76318e-08 1.67465e-09 -0.000104325)
(1.99904e-08 2.32904e-09 -0.000104359)
(-1.96028e-08 -3.38495e-09 -0.000104313)
(-2.05016e-08 3.49786e-09 -0.000104321)
(1.4616e-08 -2.87213e-09 -0.000104298)
(4.25868e-10 -1.46705e-09 -0.000111102)
(-6.29602e-09 1.06196e-08 -0.000110937)
(1.83893e-08 -7.11e-09 -0.000110951)
(-2.13144e-08 7.47548e-09 -0.000110919)
(-4.112e-09 6.60523e-09 -0.000110936)
(-1.4812e-09 4.33924e-09 -0.000111088)
(-1.82954e-08 7.45819e-09 -0.000110914)
(1.23896e-08 -4.41956e-09 -0.00011094)
(-1.57573e-08 6.43685e-09 -0.000110955)
(7.2966e-09 -7.66577e-10 -0.000110922)
(-1.94434e-09 4.55127e-09 -0.000111099)
(3.76877e-09 -3.99609e-09 -0.000110952)
(1.128e-08 -3.12607e-09 -0.000110917)
(-2.42557e-08 9.37018e-09 -0.00011094)
(1.53329e-09 2.42148e-10 -0.000110949)
(-1.47005e-09 3.57119e-10 -0.000111107)
(1.63878e-08 1.59494e-09 -0.000104302)
(-4.56179e-09 2.90013e-09 -0.000104326)
(1.36114e-08 -3.50005e-10 -0.000104277)
(-2.02083e-08 3.2571e-09 -0.000104247)
(-1.37155e-08 -9.31104e-10 -0.000104338)
(2.33673e-08 5.1302e-09 -0.000104302)
(2.04125e-09 5.19939e-09 -0.000111148)
(-2.07726e-09 -7.63149e-10 -0.000111004)
(-1.00478e-08 -2.58944e-09 -0.000110953)
(1.95611e-08 8.69825e-09 -0.000110968)
(-1.73488e-09 -1.72741e-09 -0.000110981)
(-2.36063e-09 -4.14471e-09 -0.000111155)
(-2.36293e-10 2.62911e-09 -0.000104561)
(4.54937e-09 7.01139e-09 -0.000104424)
(4.30266e-09 -5.08757e-09 -0.00010433)
(-3.01151e-09 -3.3078e-11 -0.000104469)
(6.22606e-09 1.14488e-08 -0.000104411)
(5.38366e-10 7.35568e-09 -0.000104558)
(4.17293e-10 -1.71996e-09 -0.00010452)
(-2.27978e-09 1.32047e-09 -0.000104393)
(3.05517e-09 -3.48938e-09 -0.000104495)
(-2.35635e-09 -5.48385e-10 -0.000104357)
(-2.6284e-10 3.02196e-09 -0.000104378)
(1.87872e-10 3.64787e-10 -0.000104525)
(-2.60588e-09 2.81304e-09 -0.000104348)
(-5.2548e-10 9.11078e-10 -0.0001045)
(-2.17286e-08 -8.78143e-09 -0.000111013)
(1.03891e-08 2.58389e-09 -0.000110987)
(6.6866e-09 9.74612e-09 -0.000111029)
(2.83541e-09 6.40033e-09 -0.000111197)
(1.77103e-08 5.17061e-09 -0.000110996)
(-2.12143e-08 -7.7464e-09 -0.000111006)
(-1.45039e-08 -1.83781e-09 -0.00010433)
(1.86314e-08 3.22239e-09 -0.000104361)
(1.64918e-08 -1.88159e-09 -0.000104292)
(-1.019e-08 -1.72996e-09 -0.000104315)
(1.88005e-08 1.4146e-09 -0.000104364)
(-1.74426e-08 -1.83319e-09 -0.000104326)
(-1.85648e-08 2.57096e-09 -0.000104308)
(2.16652e-08 -4.52982e-09 -0.000104284)
(8.49655e-10 -2.6192e-09 -0.000111102)
(-9.02337e-10 -7.0894e-10 -0.000110944)
(1.41096e-08 -5.31245e-09 -0.000110942)
(-1.59195e-08 3.70422e-09 -0.000110919)
(-2.30482e-09 2.62368e-09 -0.000110941)
(2.00058e-09 -5.22504e-09 -0.000111103)
(-1.52236e-08 4.98897e-09 -0.00011091)
(1.80862e-08 -6.9194e-09 -0.000110938)
(-2.17347e-08 8.51648e-09 -0.000110937)
(7.91549e-09 -1.52707e-09 -0.000110905)
(-4.27858e-09 8.58793e-09 -0.000111105)
(-3.17593e-10 1.77611e-09 -0.000110932)
(7.66326e-09 9.43188e-10 -0.00011091)
(-2.77729e-08 1.20512e-08 -0.000110923)
(5.22453e-09 -6.48292e-09 -0.000110933)
(-4.01143e-09 6.11084e-09 -0.000111086)
(2.0043e-08 3.76518e-09 -0.000104309)
(-1.15151e-08 5.4641e-10 -0.000104336)
(5.9583e-09 3.98468e-09 -0.000104281)
(-2.7901e-08 5.5255e-09 -0.000104234)
(-1.55655e-08 -1.89943e-09 -0.000104334)
(2.15408e-08 3.51381e-09 -0.000104303)
(4.0651e-09 5.68109e-09 -0.000111141)
(-5.15302e-10 9.04465e-10 -0.000110993)
(-1.66242e-08 -6.37022e-09 -0.00011094)
(2.53299e-08 1.09042e-08 -0.000110972)
(-4.11952e-09 -6.83371e-09 -0.000110976)
(4.5804e-09 8.2019e-09 -0.00011114)
(2.30437e-09 7.05198e-09 -0.000104551)
(3.14643e-09 1.24182e-09 -0.000104405)
(5.32224e-09 -7.98308e-09 -0.00010432)
(-3.0256e-09 3.15792e-09 -0.000104454)
(7.60347e-09 1.51206e-08 -0.000104397)
(-1.13451e-09 3.57906e-09 -0.00010454)
(4.28043e-09 5.01589e-09 -0.00010452)
(-2.88822e-09 1.94674e-10 -0.000104385)
(2.2833e-09 1.90445e-09 -0.000104484)
(-3.32524e-09 4.53726e-09 -0.000104343)
(-2.02575e-09 -1.54862e-09 -0.000104366)
(2.53032e-09 1.87909e-09 -0.000104518)
(-3.02974e-09 4.93868e-09 -0.000104342)
(2.41984e-09 -1.19777e-09 -0.000104482)
(-1.46745e-08 -6.03226e-09 -0.000111019)
(1.63842e-08 5.49236e-09 -0.000110988)
(8.14322e-09 1.34002e-08 -0.000111012)
(-3.41833e-12 1.21876e-09 -0.000111174)
(7.55625e-09 1.51658e-09 -0.000110979)
(-1.47663e-08 -5.00486e-09 -0.000111008)
(-1.37563e-08 -2.58755e-09 -0.000104334)
(1.69404e-08 2.22653e-09 -0.000104354)
(1.4665e-08 -6.13089e-10 -0.000104275)
(-2.14708e-08 3.26635e-09 -0.000104315)
(1.15241e-08 1.22646e-10 -0.000104355)
(-1.79164e-08 -3.43596e-09 -0.000104324)
(-1.44267e-08 5.73112e-10 -0.000104321)
(1.41956e-08 5.53923e-10 -0.00010428)
(1.13651e-09 2.44791e-10 -0.000111099)
(-7.03779e-09 1.15359e-08 -0.000110938)
(1.71878e-08 -6.20987e-09 -0.000110931)
(-1.48151e-08 4.38561e-09 -0.000110913)
(-5.03057e-09 9.39443e-09 -0.00011093)
(-1.21765e-09 3.98493e-09 -0.00011109)
(-1.31575e-08 2.30288e-09 -0.000110911)
(2.14595e-08 -7.47005e-09 -0.000110926)
(-2.53389e-08 1.14784e-08 -0.000110934)
(1.22941e-08 -2.41699e-09 -0.000110918)
(7.45359e-10 -3.14177e-09 -0.000111086)
(5.38923e-09 -9.92048e-09 -0.000110933)
(7.47377e-09 -1.69815e-09 -0.000110907)
(-2.27767e-08 9.81621e-09 -0.000110942)
(2.68468e-10 8.5031e-10 -0.000110931)
(1.31985e-09 -3.2749e-09 -0.000111093)
(1.96737e-08 3.08135e-09 -0.000104303)
(-1.21264e-08 2.49652e-11 -0.000104329)
(1.35529e-08 -6.70821e-10 -0.000104281)
(-2.6755e-08 7.27272e-09 -0.000104255)
(-1.54338e-08 -8.21258e-10 -0.000104339)
(1.61315e-08 1.17733e-09 -0.000104298)
(5.67331e-09 8.88469e-09 -0.000111129)
(1.07277e-09 5.15348e-09 -0.000110988)
(-1.19398e-08 -2.56266e-09 -0.000110937)
(2.11027e-08 7.04609e-09 -0.00011095)
(-2.89243e-09 -3.45389e-09 -0.000110966)
(1.04966e-09 -9.92627e-11 -0.000111135)
(3.96751e-09 1.45589e-08 -0.000104535)
(6.964e-09 1.18437e-08 -0.000104388)
(3.2235e-09 -1.90854e-09 -0.000104316)
(3.0151e-10 -3.54387e-09 -0.000104458)
(1.54805e-09 1.08048e-09 -0.000104381)
(1.40299e-09 5.96461e-09 -0.000104532)
(2.2607e-09 1.94907e-09 -0.000104506)
(-1.38424e-09 3.2746e-09 -0.000104373)
(8.7761e-10 3.10708e-09 -0.000104481)
(-2.15435e-09 3.5382e-09 -0.000104334)
(-4.87554e-09 -7.30384e-09 -0.000104354)
(2.32915e-09 1.45937e-10 -0.000104501)
(-4.06018e-09 4.21182e-09 -0.000104335)
(1.86106e-09 -5.81094e-10 -0.000104474)
(-2.8555e-08 -1.15889e-08 -0.000110998)
(6.83436e-09 1.09417e-09 -0.000110971)
(-6.73531e-10 1.09068e-09 -0.00011098)
(2.52662e-09 3.49809e-09 -0.00011116)
(1.50509e-08 3.95338e-09 -0.000110957)
(-2.5159e-08 -9.41696e-09 -0.000110987)
(-2.2948e-08 -4.37901e-09 -0.00010432)
(1.22329e-08 4.72721e-10 -0.000104351)
(2.0321e-08 -3.26702e-09 -0.000104292)
(-1.81615e-08 2.02476e-09 -0.000104311)
(1.5259e-08 -4.5611e-12 -0.000104334)
(-2.2729e-08 -3.01563e-09 -0.000104309)
(-2.11265e-08 2.636e-09 -0.000104302)
(1.56794e-08 -2.88883e-09 -0.000104277)
(-2.73795e-09 5.39189e-09 -0.00011109)
(-2.98546e-09 4.44885e-09 -0.000110923)
(1.90689e-08 -7.21648e-09 -0.000110932)
(-1.78573e-08 6.31012e-09 -0.000110898)
(-4.08866e-09 4.65076e-09 -0.00011092)
(3.22189e-09 -4.65984e-09 -0.000111072)
(-1.80786e-08 5.84421e-09 -0.000110883)
(1.58777e-08 -5.29089e-09 -0.000110914)
(-2.44831e-08 1.09497e-08 -0.000110934)
(1.3174e-08 -3.99035e-09 -0.0001109)
(-3.8465e-09 7.52315e-09 -0.00011109)
(1.59021e-09 2.44892e-10 -0.000110933)
(8.85994e-09 -2.17108e-09 -0.000110886)
(-1.93305e-08 7.74627e-09 -0.000110923)
(3.60631e-09 -5.07931e-09 -0.000110908)
(-2.44818e-09 4.38759e-09 -0.000111085)
(1.862e-08 3.43432e-09 -0.00010431)
(-9.01126e-09 8.9257e-10 -0.000104334)
(1.35353e-08 -1.21853e-09 -0.000104271)
(-2.15639e-08 3.38165e-09 -0.000104245)
(-1.51973e-08 -9.65572e-10 -0.000104346)
(2.55114e-08 5.03905e-09 -0.000104307)
(1.20186e-09 2.58913e-09 -0.00011112)
(-7.34927e-09 -1.17226e-08 -0.000110966)
(-1.59612e-08 -5.13575e-09 -0.000110946)
(2.51602e-08 1.07066e-08 -0.000110965)
(-7.04079e-09 -1.06124e-08 -0.000110951)
(-1.733e-09 -3.05665e-09 -0.000111114)
(-1.38261e-09 1.24286e-10 -0.000104522)
(5.20984e-09 8.55239e-09 -0.000104377)
(1.72978e-09 2.15853e-10 -0.000104293)
(-9.23303e-10 -2.57925e-09 -0.000104451)
(4.07044e-09 8.85615e-09 -0.000104363)
(1.82655e-09 9.34441e-09 -0.000104515)
(-1.42589e-09 -5.24994e-09 -0.000104494)
(-7.02908e-09 -1.29509e-08 -0.000104355)
(-1.14571e-09 4.2635e-09 -0.000104477)
(-3.94121e-09 5.23635e-09 -0.000104325)
(-3.991e-09 -4.32056e-09 -0.000104345)
(-3.24672e-09 -1.23515e-08 -0.000104487)
(-3.11717e-09 2.71974e-09 -0.000104323)
(8.11036e-10 9.58353e-10 -0.000104465)
(-1.79732e-08 -5.99089e-09 -0.000110976)
(1.44854e-08 3.16574e-09 -0.000110947)
(5.62597e-09 1.04845e-08 -0.000110965)
(2.09569e-09 3.49283e-09 -0.000111136)
(9.49928e-09 9.67563e-10 -0.000110946)
(-2.084e-08 -7.78385e-09 -0.000110962)
(-1.7154e-08 -2.76881e-09 -0.000104297)
(1.31993e-08 1.05046e-09 -0.000104322)
(1.84919e-08 -3.29619e-09 -0.000104271)
(-1.25684e-08 8.38165e-10 -0.000104296)
(5.58479e-09 -2.87521e-09 -0.00010432)
(-2.17702e-08 -2.85523e-09 -0.000104285)
(-1.35727e-08 3.28399e-10 -0.000104288)
(2.11976e-08 -3.94483e-09 -0.000104262)
(-8.93662e-11 -6.13899e-10 -0.000111077)
(-6.81395e-09 1.06767e-08 -0.000110911)
(1.79626e-08 -7.52548e-09 -0.000110909)
(-1.32139e-08 4.24572e-09 -0.000110878)
(-3.28998e-09 4.72525e-09 -0.000110906)
(-2.81985e-09 4.8932e-09 -0.000111071)
(-1.67164e-08 5.26828e-09 -0.00011087)
(1.99338e-08 -7.25646e-09 -0.000110896)
(-2.4372e-08 9.78761e-09 -0.00011091)
(1.13256e-08 -2.72276e-09 -0.000110884)
(-1.28765e-09 2.7078e-10 -0.000111062)
(3.55588e-09 -4.4196e-09 -0.000110911)
(2.08506e-08 -7.60304e-09 -0.000110893)
(-1.9239e-08 7.72047e-09 -0.000110911)
(3.30555e-09 -3.75068e-09 -0.000110909)
(-4.72079e-10 -8.06734e-10 -0.000111067)
(1.64595e-08 2.43104e-09 -0.00010431)
(-8.06101e-09 1.71043e-09 -0.000104336)
(2.1732e-08 -4.01953e-09 -0.000104274)
(-1.62659e-08 2.85339e-09 -0.00010424)
(-1.75418e-08 -1.37176e-09 -0.000104347)
(1.82901e-08 3.28987e-09 -0.000104308)
(2.45546e-09 3.03087e-09 -0.000111101)
(2.96312e-10 2.44486e-09 -0.000110938)
(-1.42113e-08 -4.25754e-09 -0.000110951)
(1.31857e-08 5.26647e-09 -0.000110964)
(-6.35994e-10 1.92063e-09 -0.000110933)
(2.57428e-09 4.41943e-09 -0.000111089)
(-7.68215e-10 2.59832e-09 -0.000104504)
(-4.04787e-10 -4.36721e-09 -0.000104355)
(3.95642e-09 -3.74581e-09 -0.000104299)
(-1.93652e-09 -1.31655e-10 -0.000104435)
(2.57654e-09 -1.75522e-10 -0.000104355)
(-2.71516e-09 -3.18427e-09 -0.000104497)
(1.49831e-09 1.2832e-09 -0.000104479)
(-2.48183e-10 3.47276e-09 -0.000104332)
(-1.42239e-09 3.58013e-09 -0.000104464)
(-1.58453e-09 -1.39288e-09 -0.000104321)
(-3.70001e-09 -5.85885e-09 -0.000104331)
(3.12658e-09 3.25134e-09 -0.000104465)
(-1.51555e-09 8.76606e-10 -0.000104323)
(1.34599e-09 -1.4269e-09 -0.000104463)
(-2.17928e-08 -9.23759e-09 -0.000110967)
(1.53197e-08 5.25004e-09 -0.000110929)
(6.88342e-10 -5.26561e-10 -0.00011095)
(-3.97573e-09 -7.15003e-09 -0.000111109)
(1.42388e-08 5.06332e-09 -0.00011092)
(-1.54527e-08 -5.28791e-09 -0.000110947)
(-2.77964e-08 -7.88232e-09 -0.000104288)
(1.49048e-08 1.58946e-09 -0.000104308)
(1.87946e-08 -3.64789e-09 -0.000104252)
(-1.42611e-08 1.32741e-09 -0.000104269)
(1.86258e-08 2.73396e-09 -0.000104298)
(-1.94881e-08 -3.67848e-09 -0.000104274)
(-1.29624e-08 6.29823e-10 -0.00010427)
(1.80408e-08 -3.35849e-09 -0.000104239)
(6.32491e-10 -2.52959e-09 -0.000111071)
(-1.93508e-09 2.07148e-09 -0.000110911)
(1.75182e-08 -7.01798e-09 -0.000110888)
(-1.39734e-08 4.86343e-09 -0.000110853)
(-1.76023e-09 3.67774e-09 -0.00011091)
(1.75052e-09 -3.48859e-09 -0.000111069)
(-9.65706e-09 9.47163e-10 -0.000110859)
(1.71153e-08 -5.66707e-09 -0.000110874)
(-1.0939e-08 2.8256e-09 -0.000110917)
(1.7066e-08 -6.70666e-09 -0.000110889)
(-1.35163e-09 1.88829e-09 -0.000111068)
(8.19496e-10 -4.21192e-10 -0.000110895)
(1.63935e-08 -4.57767e-09 -0.000110893)
(-1.80999e-08 6.39703e-09 -0.000110908)
(1.99634e-09 -3.73457e-09 -0.000110886)
(-1.4854e-09 2.54899e-09 -0.000111049)
(1.63473e-08 2.70851e-09 -0.000104318)
(-1.77605e-08 -2.92336e-09 -0.000104346)
(1.24371e-08 1.18815e-09 -0.000104265)
(-2.04937e-08 2.88032e-09 -0.000104228)
(-1.68595e-08 -1.54298e-09 -0.00010436)
(2.01019e-08 3.24634e-09 -0.00010432)
(1.83942e-09 4.03069e-09 -0.000111087)
(-1.65409e-09 -4.74531e-10 -0.000110927)
(-1.46971e-08 -4.9298e-09 -0.00011096)
(2.62548e-08 1.19322e-08 -0.000110975)
(-7.2514e-09 -1.01254e-08 -0.000110921)
(3.63508e-09 6.39051e-09 -0.000111077)
(-2.24254e-09 -1.65369e-09 -0.000104492)
(4.04415e-09 4.36775e-09 -0.000104344)
(4.28244e-09 -4.80012e-09 -0.000104276)
(6.18308e-10 -4.73911e-09 -0.000104422)
(2.61075e-09 7.51362e-10 -0.000104345)
(6.17305e-10 1.35717e-09 -0.000104485)
(8.27702e-10 -4.37161e-09 -0.000104463)
(-2.28595e-09 5.84723e-10 -0.000104326)
(1.79099e-09 3.91627e-10 -0.000104465)
(-1.74514e-09 7.63461e-10 -0.000104321)
(-5.10336e-09 -9.64161e-09 -0.000104312)
(1.90839e-09 2.6759e-09 -0.000104459)
(-8.50027e-10 7.17818e-10 -0.000104307)
(1.97795e-09 -2.58236e-09 -0.000104457)
(-1.80638e-08 -6.80894e-09 -0.000110939)
(1.28822e-08 2.63508e-09 -0.000110919)
(4.34076e-09 4.3455e-09 -0.000110941)
(-1.06138e-09 -2.32516e-09 -0.000111098)
(1.72814e-08 6.88454e-09 -0.000110911)
(-1.86218e-08 -7.47511e-09 -0.000110941)
(-1.66712e-08 -1.71232e-09 -0.000104263)
(1.54188e-08 1.55762e-09 -0.000104295)
(1.9933e-08 -2.79157e-09 -0.00010424)
(-2.12409e-08 3.88263e-09 -0.000104265)
(1.69846e-08 2.25245e-09 -0.000104289)
(-2.06999e-08 -3.65292e-09 -0.00010426)
(-1.36201e-08 1.28211e-09 -0.000104266)
(1.2382e-08 -1.70396e-09 -0.000104236)
(2.85022e-10 -1.40562e-09 -0.000111073)
(-3.25069e-09 4.95269e-09 -0.000110908)
(2.2388e-08 -9.78126e-09 -0.000110884)
(-1.75064e-08 7.24647e-09 -0.000110851)
(-4.08375e-09 8.3918e-09 -0.000110886)
(1.56508e-09 5.9362e-10 -0.000111052)
(-9.51483e-09 2.87533e-09 -0.000110851)
(1.55457e-08 -5.27089e-09 -0.000110874)
(-1.66995e-08 5.29633e-09 -0.000110916)
(1.98721e-08 -6.53708e-09 -0.000110887)
(-1.41749e-09 2.72612e-09 -0.000111048)
(5.70216e-09 -8.52407e-09 -0.000110883)
(1.4324e-08 -4.13964e-09 -0.000110885)
(-1.39255e-08 5.23614e-09 -0.00011091)
(7.19028e-09 -1.03405e-08 -0.000110889)
(2.39774e-09 -4.3932e-09 -0.000111039)