/*--------------------------------*- C++ -*----------------------------------*\
| =========                 |                                                 |
| \\      /  F ield         | OpenFOAM: The Open Source CFD Toolbox           |
|  \\    /   O peration     | Version:  2206                                  |
|   \\  /    A nd           | Website:  www.openfoam.com                      |
|    \\/     M anipulation  |                                                 |
\*---------------------------------------------------------------------------*/
FoamFile
{
    version     2.0;
    format      ascii;
    arch        "LSB;label=32;scalar=64";
    class       volScalarField;
    location    "50";
    object      div(phi);
}
// * * * * * * * * * * * * * * * * * * * * * * * * * * * * * * * * * * * * * //

dimensions      [0 0 -1 0 0 0 0];

internalField   nonuniform List<scalar> 
10720
(
0.000934537
-0.000155092
0.000300476
-0.000208322
0.000203736
0.000351174
0.000614638
0.000784074
0.00049775
0.000278944
0.000146515
6.29192e-05
4.96933e-05
6.25493e-05
0.000107449
0.000134591
0.000164397
0.000183649
0.000217954
0.000256764
0.000315577
0.000384219
0.000439484
0.000799467
0.001983
0.00264939
0.00108095
-0.00268666
-0.00582292
0.00962277
0.00143517
0.00192764
-0.00846555
0.0592506
-0.0347381
-0.0032977
0.00991541
0.0145475
0.192677
-1.02891e-05
0.000569812
0.000540133
0.00216713
0.00347965
0.00478754
0.00231772
0.00108767
0.000677565
0.000528096
0.000556238
0.000584096
0.000602711
0.000601989
0.000587817
0.000587845
0.000586232
0.000618927
0.000617807
0.000688053
0.000617531
0.000695272
0.000328153
0.000131523
5.98291e-05
0.000235675
0.000367264
0.000564401
0.000854049
-2.56003e-05
0.000463434
0.000311806
0.00049426
0.000555537
0.000220566
-0.000788704
0.00100716
-0.00791113
0.0116277
0.000788671
0.000155629
0.000365618
-9.98957e-05
0.000463786
0.000550064
0.000876785
0.00060332
0.000447452
0.000222952
0.000101779
3.84315e-05
6.53248e-05
0.000102856
0.000171683
0.000202041
0.000244131
0.000254944
0.000287553
0.000293965
0.000318007
0.000304174
0.000295157
0.000295014
0.000531463
0.000885159
0.000960918
0.000165819
-0.00114025
0.00278717
0.000523198
0.0010253
-0.00254508
0.0145623
-0.00665535
0.0012999
0.00620072
0.013783
0.101155
0.000499858
0.000361259
0.000981316
0.00175736
0.00303745
0.00218898
0.00153275
0.000820595
0.000555104
0.000481229
0.000515637
0.00054867
0.000565799
0.000578548
0.00057332
0.000600124
0.000610086
0.000664353
0.000675406
0.000737117
0.000689652
0.00069745
0.00038032
0.000186227
1.93205e-05
0.000192672
0.000304782
0.000678614
0.000965158
0.000317292
0.000707022
0.000526589
0.000731431
0.00066142
0.000639475
-0.000382347
0.000561253
-0.00811925
0.0158591
0.000390881
0.000637517
3.05374e-05
0.000544805
0.000647019
0.000805876
0.000810645
0.000668077
0.000312685
0.000148216
3.75402e-05
9.5195e-06
5.31214e-06
4.29321e-05
7.05989e-05
9.40049e-05
0.000110011
0.000116054
0.000136351
0.000145766
0.000180307
0.000185906
0.000200979
0.000267154
0.000533968
0.00046199
2.28787e-05
-0.000957713
-0.00185822
0.0031003
0.000665589
0.000530608
-0.00148372
0.0142766
-0.00992053
-0.00217428
0.00240649
0.00101212
0.0577471
0.000677777
0.000656977
0.00160888
0.00186233
0.00214945
0.00205512
0.000898542
0.000603313
0.000424377
0.000433595
0.000472264
0.000513862
0.000537203
0.00052892
0.00052609
0.000505978
0.000514321
0.000507781
0.000532496
0.000534061
0.000540809
0.000516023
0.000343236
0.000182164
0.000100152
0.000230767
0.000239273
0.000417942
0.00049108
-8.56686e-05
0.000305969
0.000163598
0.00031489
0.000478377
-9.32471e-05
-0.000945608
0.00120951
-0.00438735
0.0045198
0.0011757
0.000328063
0.000541862
0.000699769
0.000635933
0.00111442
0.000779333
0.000378107
0.00025998
8.82673e-05
-1.01394e-05
-6.39226e-07
2.81832e-05
0.000107215
0.000146188
0.000205872
0.000224129
0.000262727
0.000272126
0.000302453
0.000306601
0.000313635
0.000282883
0.000287588
0.00036397
0.000531959
0.000590879
0.000337823
-0.000259163
0.00125554
0.000344777
0.000555553
-0.000933962
0.00521131
-0.00141497
0.0012857
0.003487
0.00898781
0.0567515
0.000584232
0.00144979
0.00108847
0.00227147
0.00196053
0.000945395
0.000808008
0.000509237
0.000379879
0.000403622
0.000440228
0.000487198
0.000508969
0.000513154
0.000523947
0.000524623
0.000558223
0.000569055
0.000617849
0.000617029
0.000637748
0.000564961
0.00042181
0.000214479
0.000100968
0.000115847
0.000207719
0.000498795
0.000727825
0.000340063
0.000654185
0.000522039
0.000704634
0.000704541
0.000584152
-0.000384794
0.000719907
-0.00625222
0.0133412
0.000988512
0.000630447
0.000558709
0.000642444
0.00123488
0.00074404
0.00059382
0.000486574
0.000137656
-3.39204e-06
-4.38932e-05
-5.2727e-05
1.15533e-06
3.16958e-05
6.82691e-05
8.03419e-05
9.30121e-05
9.67159e-05
0.000101034
0.000113846
0.000126797
0.000149083
0.000149997
0.000227915
0.000408185
0.00038513
-9.38515e-06
-0.000848794
-0.00141157
0.00227373
0.000517297
0.000352855
-0.000833366
0.0104967
-0.00684649
-0.00194459
0.00160616
-0.000694565
0.0318428
0.000882555
0.000874158
0.00189061
0.0012944
0.00126877
0.00119233
0.000538806
0.000336924
0.000311011
0.000331669
0.000398276
0.000448308
0.000467833
0.000479756
0.00046103
0.000464185
0.000444137
0.000459699
0.000447057
0.000471367
0.000446234
0.000450565
0.00032284
0.000264142
0.000138357
0.000217705
0.000171708
0.000294893
0.000138366
-4.68909e-05
0.000150592
7.614e-05
0.000151263
0.000406972
-0.000304241
-0.00113767
0.00147327
-0.00218121
0.00118901
0.00102627
0.000386982
0.000809464
0.00102078
0.000717421
0.000997602
0.000647525
0.000152561
0.00011075
-4.84007e-05
-6.82894e-05
-4.34451e-05
3.91211e-05
8.63869e-05
0.000154249
0.000176996
0.000226234
0.000238567
0.000272325
0.000276021
0.000299414
0.000287179
0.000283179
0.000274492
0.000355415
0.000477062
0.000575587
0.000357959
-4.5926e-05
0.000847179
0.000285243
0.000337107
-0.000577533
0.003521
-0.000472917
0.00127602
0.00288535
0.00787678
0.038804
0.000828569
0.00117061
0.00077212
0.00160801
0.00120592
0.000442262
0.000513306
0.000314841
0.000296509
0.000315227
0.000386289
0.000425658
0.0004532
0.000462469
0.000460201
0.000471793
0.000476489
0.000505849
0.000517715
0.00054307
0.000535973
0.000501711
0.000407273
0.000268364
0.00016342
9.58051e-05
0.000144509
0.000304516
0.000507729
0.000286942
0.000500888
0.000464713
0.000592571
0.000656854
0.000452596
-0.00029879
0.000815572
-0.00377518
0.0100834
0.000562067
0.000714802
0.000599955
0.000713124
0.0012062
0.000576779
0.000363207
0.000362265
-2.20089e-05
-8.13743e-05
-0.000109079
-4.31103e-05
-1.78384e-06
5.28638e-05
6.76602e-05
8.6439e-05
8.72872e-05
9.05716e-05
8.85448e-05
8.81852e-05
9.61307e-05
9.86461e-05
9.81997e-05
0.000143618
0.000251729
0.000270266
-0.000103518
-0.000794196
-0.0015311
0.00203079
0.000404556
0.000227189
-0.000693277
0.00931918
-0.00604098
-0.00174617
0.00133832
-0.000844244
0.0174708
0.000533492
0.000534056
0.00140257
0.000716923
0.000710967
0.000840475
0.000283905
0.000240006
0.000206412
0.000266034
0.000328246
0.000381721
0.000414083
0.000413143
0.000417367
0.000395807
0.000401435
0.00038051
0.000398852
0.000373532
0.000402267
0.00034341
0.000353461
0.000227064
0.000252531
0.000139767
0.000208471
0.000133744
1.42376e-05
-0.000177068
8.68717e-05
-8.07271e-06
5.17633e-05
0.000312946
-0.000484734
-0.00113927
0.0015582
-0.00063193
-0.00132634
0.000623249
0.000470162
0.000606026
0.00101097
0.000427571
0.00077271
0.000492351
8.77647e-06
6.61856e-06
-8.6223e-05
-9.21683e-05
-1.51452e-05
3.595e-05
0.000107454
0.000131899
0.000180848
0.000192688
0.000237132
0.000241167
0.000268205
0.00026415
0.000273683
0.000251828
0.000263023
0.000304077
0.000414
0.000503015
0.000354976
4.27942e-05
0.000716688
0.000256765
0.000184125
-0.000472491
0.00295398
-0.000319987
0.00119332
0.00264877
0.00723911
0.028243
0.00029825
0.00107436
0.000310548
0.0012356
0.0008486
0.000221454
0.00036246
0.00025909
0.000211239
0.000272298
0.000316856
0.00037054
0.000392564
0.000402818
0.000400248
0.000401492
0.00040511
0.000420229
0.00043079
0.000451986
0.000446206
0.000437971
0.000377773
0.000301579
0.000210142
0.000130258
0.000121618
0.000202084
0.000343576
0.000216037
0.000322683
0.000355977
0.000485752
0.000581023
0.000330229
-0.000207044
0.000894202
-0.00186347
0.00671939
0.000618347
0.000412633
0.000762377
0.000457036
0.000991541
0.000380636
0.000257516
0.000280176
-5.19604e-05
-0.000122119
-6.87254e-05
-3.15454e-05
4.03357e-05
5.86132e-05
8.92308e-05
8.37328e-05
9.37212e-05
8.35823e-05
8.40839e-05
7.13391e-05
7.4269e-05
6.04673e-05
6.01198e-05
6.22665e-05
0.000146536
0.000104752
-8.62228e-05
-0.000800292
-0.00130467
0.0017019
0.00033789
0.000186911
-0.000829458
0.00918373
-0.00566458
-0.00207941
0.00147002
-0.000583549
0.00985425
0.000868494
0.000212993
0.00137015
0.000523843
0.000549359
0.000652122
0.000237207
0.000148013
0.000168073
0.000197185
0.000267315
0.000315414
0.000342431
0.000356093
0.00034649
0.00034543
0.00032708
0.000331265
0.000312352
0.000326735
0.000300269
0.000318853
0.000266725
0.000273828
0.000199846
0.000208657
0.00013795
0.000146812
-9.80618e-05
-0.000134321
-0.000112179
-8.42867e-06
-3.42299e-05
0.000256554
-0.000578003
-0.00113412
0.00157177
-9.42799e-05
-0.0020438
0.000694876
0.000784379
0.000486401
0.000852672
0.000260836
0.000666035
0.000413932
-7.71576e-05
-1.09589e-05
-8.3763e-05
-4.36226e-05
5.39228e-06
7.03272e-05
0.000100273
0.000140043
0.000152711
0.000183892
0.000199109
0.00022733
0.000233077
0.000241528
0.00023944
0.000229981
0.000234891
0.000266679
0.000347916
0.000417561
0.000309281
0.000141126
0.000540827
0.000194929
3.62921e-05
-0.000421411
0.00303324
-0.000335741
0.00110511
0.00272333
0.00707321
0.0226342
0.000136316
0.00112821
0.000191934
0.00100531
0.00064479
0.000115483
0.000291778
0.000173071
0.000181723
0.000200939
0.000259428
0.000293659
0.000323875
0.000329663
0.000333128
0.00032564
0.000333735
0.000331894
0.000354362
0.000354811
0.000378398
0.000359577
0.000358295
0.000292576
0.000261677
0.000163261
0.000172266
0.000158687
0.000276218
0.000148954
0.00017837
0.000213319
0.000352306
0.000499922
0.000232809
-0.000135061
0.000946774
-0.000765801
0.00421854
0.000633016
0.000308395
0.000636284
0.00035583
0.000860082
0.000270151
0.000141137
0.000264343
-8.73128e-05
-5.89332e-05
-4.67581e-05
2.5537e-05
4.74831e-05
8.84464e-05
8.12558e-05
9.71589e-05
7.8161e-05
8.89086e-05
6.34624e-05
6.99132e-05
4.1839e-05
5.03557e-05
1.3831e-05
4.01648e-05
4.67802e-05
6.91426e-05
-0.000107214
-0.000607814
-0.000967838
0.00117829
0.000341707
0.000156562
-0.000777966
0.00933558
-0.00586046
-0.00257485
0.00155676
-0.000210501
0.00859367
0.000715823
0.000100136
0.00102463
0.000306672
0.000378332
0.000539738
0.000130732
0.000124778
0.000103775
0.000150082
0.000185558
0.000234997
0.000263177
0.000277627
0.000281268
0.000276398
0.00027118
0.000263567
0.00026077
0.00025301
0.000255213
0.000242163
0.000246104
0.000214684
0.000220815
0.000165794
0.000184402
0.000103552
-5.48138e-05
-0.00018433
-0.000119578
-0.000163603
-2.26984e-05
0.000187277
-0.000617563
-0.00109543
0.00154837
-4.6527e-05
-0.00227115
0.000552186
0.000618775
0.000391802
0.000708263
0.00014384
0.000560502
0.000351813
-9.1551e-05
2.51627e-05
-2.63815e-05
-5.17426e-06
3.85685e-05
7.9106e-05
0.000104072
0.00012559
0.000135527
0.000156537
0.000166665
0.000196294
0.000198493
0.000211049
0.000203595
0.000205275
0.000204478
0.000235445
0.000293564
0.000339882
0.000262828
0.000183402
0.000369553
0.00011868
-9.88102e-05
-0.000386317
0.00297295
-0.000382146
0.000990018
0.00315116
0.00798103
0.0235245
0.000164514
0.000801648
7.78621e-05
0.000801163
0.000474468
6.32719e-05
0.000226231
0.000160267
0.000121796
0.00014623
0.000174497
0.000210541
0.000236907
0.000253753
0.000255682
0.000259999
0.000256219
0.000268272
0.000269316
0.000294599
0.000294201
0.000319983
0.000303123
0.000305486
0.000262724
0.00023322
0.00020652
0.000211021
0.000232258
0.000154293
8.18088e-05
9.70682e-05
0.000203166
0.000375924
0.000157257
-7.72187e-05
0.000963935
-0.000229546
0.00240777
0.000507236
0.000173292
0.000499427
0.000237857
0.000753913
0.000199016
0.000152973
0.00026621
-9.08553e-06
-4.07641e-05
6.12812e-07
2.49847e-05
6.92507e-05
7.34994e-05
8.94414e-05
7.50874e-05
8.08109e-05
6.116e-05
6.55381e-05
3.81278e-05
4.20453e-05
1.4358e-05
1.64952e-05
1.46731e-06
3.65302e-05
3.36484e-05
-4.71958e-05
-0.000379273
-0.000605626
0.000836641
0.000376639
0.000259401
-0.000540851
0.0090061
-0.00578188
-0.00358969
0.00162544
0.000186712
0.00836524
0.000564404
0.00017243
0.000866573
0.000204111
0.000336424
0.000444772
0.000127385
6.95511e-05
7.48595e-05
6.71759e-05
0.000105673
0.000142264
0.000178207
0.000200631
0.000215789
0.000215806
0.000219443
0.000211727
0.000214717
0.000206027
0.000209028
0.000201266
0.000201532
0.000189718
0.000188289
0.000167361
0.000173743
0.00013145
-1.31731e-05
-0.000111661
-0.000181997
-0.000153423
-0.000148057
0.000172824
-0.000626635
-0.000988942
0.00144464
-0.000198178
-0.0018019
0.000387243
0.000494083
0.000255527
0.000589234
9.28773e-05
0.000528295
0.000327478
-5.32925e-05
3.21878e-05
-9.05467e-06
-5.55168e-06
4.5758e-05
6.34593e-05
9.92667e-05
9.60962e-05
0.000121026
0.00011508
0.000143372
0.000144837
0.000175027
0.000165776
0.000180949
0.000168648
0.000186075
0.000200578
0.00025488
0.000276943
0.000228069
0.00018856
0.000265028
4.34618e-05
-0.000202357
-0.000344077
0.00255129
-0.000295042
0.000929151
0.00318939
0.00846675
0.0220055
0.00025568
0.00066316
6.3122e-05
0.00069509
0.000386676
2.93328e-05
0.000191091
0.000100922
7.15162e-05
7.18965e-05
9.35866e-05
0.000127334
0.000158024
0.000183061
0.00019226
0.000198744
0.000202192
0.000205587
0.000218994
0.000226902
0.000251264
0.000258852
0.00028296
0.000277327
0.000286244
0.000256167
0.000270917
0.000248089
0.000264618
0.000167453
8.92951e-05
2.09657e-05
8.6493e-05
0.000229689
7.15312e-05
-3.76252e-05
0.000920567
-5.6822e-05
0.0011899
0.000388164
6.94728e-05
0.000387496
0.000199231
0.000668427
0.00015445
0.000132697
0.000243435
-4.11943e-05
-4.33973e-05
-2.19689e-05
1.41624e-05
4.80007e-05
6.22494e-05
6.83026e-05
6.46963e-05
5.80627e-05
5.1679e-05
4.10763e-05
3.30365e-05
1.76873e-05
1.43162e-05
-2.32764e-06
8.89245e-06
1.85406e-05
4.82542e-05
7.52979e-06
-0.000186768
-0.000247446
0.000594118
0.00041594
0.000446755
-7.43211e-05
0.00868106
-0.00500374
-0.00399392
0.000988699
-0.000306585
0.00292286
0.000424177
0.000150415
0.000737353
0.000152296
0.000266324
0.000374451
6.54782e-05
4.33982e-05
7.47546e-08
3.96133e-06
2.53726e-05
6.90663e-05
0.000111215
0.000143408
0.000161768
0.00017426
0.000174167
0.000182099
0.000174805
0.000182589
0.000171915
0.000179368
0.000165636
0.00017166
0.00015798
0.000164245
0.000160388
0.000153071
3.83038e-05
-3.79789e-05
-0.000126709
-0.000201574
-0.000136136
2.82783e-05
-0.000570911
-0.000897451
0.00135326
-0.00037395
-0.00144699
0.00027359
0.000376674
0.000208079
0.000489177
4.25295e-05
0.000472663
0.000283015
-9.78629e-05
1.85249e-05
-4.83932e-05
-1.6897e-05
6.74024e-06
5.53977e-05
6.03033e-05
8.78157e-05
7.79633e-05
0.000102093
9.45953e-05
0.000124979
0.000126473
0.000149758
0.000138853
0.000156339
0.000152203
0.000184964
0.000214536
0.000236609
0.000196825
0.000187672
0.000180829
1.22562e-05
-0.000259196
-0.00022262
0.00193122
-0.000122425
0.000852315
0.00263356
0.00706718
0.0145821
0.000181433
0.000537135
2.90867e-05
0.000586726
0.000301464
1.94507e-05
0.000142984
5.72305e-05
1.57911e-05
1.15295e-05
3.88081e-05
7.01248e-05
0.000110908
0.000132698
0.000150761
0.00015536
0.000162375
0.000165874
0.000174032
0.000188471
0.000201211
0.000227271
0.000240035
0.000269967
0.000268994
0.000289392
0.000284082
0.000303806
0.00027157
0.000232721
0.000114763
4.02764e-05
1.15239e-05
0.000108325
-2.83609e-05
-3.59948e-05
0.000832807
-8.1586e-05
0.000363468
0.000237045
1.02421e-05
0.000310196
0.00013566
0.000597316
0.000134713
9.74728e-05
0.000233247
-7.00364e-05
-7.62591e-05
-6.4026e-05
-5.91207e-06
1.65033e-05
4.95284e-05
4.39228e-05
5.44386e-05
3.94763e-05
4.14187e-05
2.88186e-05
2.40266e-05
1.25034e-05
7.69431e-06
2.15797e-06
6.69276e-06
2.68778e-05
4.97613e-05
5.16292e-05
-5.58295e-05
-2.40204e-05
0.000419113
0.000490816
0.000489479
0.000678559
0.00698397
-0.00369184
-0.00410723
0.000322584
-0.000487558
-0.000131703
0.000326288
0.000116338
0.000621704
0.000121228
0.000249119
0.000313579
4.84192e-05
-2.44243e-05
-4.68288e-05
-4.94755e-05
-1.78527e-05
3.61701e-05
7.687e-05
0.000111075
0.000131265
0.000142202
0.000151812
0.00015176
0.000160552
0.000154258
0.000162316
0.000151704
0.000156524
0.000143962
0.000149847
0.000142915
0.000158199
0.000144352
8.59075e-05
1.87012e-05
-5.77749e-05
-0.000148043
-0.000183646
-1.77217e-05
-0.000662285
-0.000716977
0.00118684
-0.000479267
-0.000939511
0.000162802
0.000316511
0.000131887
0.000415723
3.99954e-05
0.000423212
0.00026543
-0.000116683
-2.93915e-05
-6.93443e-05
-5.81535e-05
-3.25293e-06
2.08253e-05
5.40644e-05
5.33004e-05
7.22855e-05
6.47198e-05
8.67141e-05
8.27589e-05
0.000116249
0.000111677
0.0001318
0.000123702
0.000145249
0.000153769
0.000195983
0.000195034
0.000186629
0.000159184
0.000157638
-4.92881e-06
-0.000214257
-0.000155976
0.00130099
-2.32503e-05
0.000775225
0.00197186
0.00551249
0.00965117
0.000143295
0.000435381
3.47703e-05
0.000507186
0.000256775
-1.02614e-06
8.01717e-05
3.80792e-06
-3.01102e-05
-1.21554e-05
1.67873e-05
5.81429e-05
8.69252e-05
0.000114491
0.000123281
0.000134268
0.000134458
0.000140375
0.000144726
0.000153856
0.000170342
0.000185335
0.000215658
0.000233713
0.00026496
0.00027131
0.000303815
0.0002971
0.000306102
0.000247551
0.000191957
6.68407e-05
3.18653e-05
8.95865e-06
-8.98624e-05
-8.35331e-05
0.000693502
-0.000190015
-0.000132583
0.000186042
-2.49647e-05
0.000247993
0.000130754
0.000531434
9.14358e-05
7.46818e-05
0.000183381
-9.06664e-05
-0.000112649
-5.97696e-05
-3.33692e-05
2.08443e-05
2.38418e-05
4.84768e-05
3.41638e-05
4.502e-05
2.76861e-05
3.50441e-05
1.85351e-05
1.96919e-05
8.92455e-06
1.04969e-05
1.33778e-05
2.96118e-05
5.59093e-05
5.47892e-05
3.12213e-05
3.20668e-05
0.000350306
0.000381875
0.000556933
0.000745286
0.00537343
-0.00253762
-0.0039516
-0.000228841
-0.000586689
-0.00128944
0.000257906
0.000110159
0.000527422
9.70288e-05
0.000203385
0.000246758
-2.31491e-05
-6.79582e-05
-8.31305e-05
-6.62779e-05
-1.4709e-05
3.09012e-05
7.41065e-05
9.61918e-05
0.000116838
0.000125122
0.0001315
0.000139629
0.000138852
0.000147268
0.000140671
0.000147405
0.000135305
0.000139335
0.000128145
0.000139548
0.000135406
0.00014366
9.61983e-05
6.76434e-05
-5.50533e-06
-7.99335e-05
-0.000144209
-0.000128254
-0.00055505
-0.000719387
0.00106128
-0.000494173
-0.000626796
0.000140035
0.00024934
0.000116987
0.000353825
-4.40391e-06
0.000385579
0.000218
-0.000154299
-2.89769e-05
-7.35398e-05
-4.08482e-05
-1.08229e-05
2.61501e-05
3.76657e-05
5.56541e-05
5.166e-05
6.6566e-05
6.17651e-05
8.27517e-05
8.42967e-05
0.000112478
0.000103522
0.000123406
0.000116669
0.000148919
0.000158523
0.000184157
0.00015323
0.000164121
0.000125659
3.63494e-05
-0.000186383
-5.31002e-05
0.000813984
8.76258e-05
0.000612928
0.00139346
0.00417652
0.00659489
0.00011291
0.000362614
2.1028e-05
0.000430411
0.000203758
-5.53315e-05
3.30668e-05
-3.21065e-05
-3.58311e-05
-8.63249e-06
3.31074e-05
6.03872e-05
8.96255e-05
0.000104538
0.000115309
0.000118814
0.000122344
0.000121664
0.000125801
0.000129798
0.000139645
0.000156912
0.000176404
0.000209875
0.000227838
0.000260002
0.000271212
0.00029774
0.000283652
0.000277572
0.000209272
0.000139959
5.18034e-05
5.10455e-06
-0.000134768
-0.000111411
0.000507669
-0.000300539
-0.000413451
0.000117883
-4.70029e-05
0.000206854
8.45252e-05
0.000480053
7.5883e-05
3.6501e-05
0.000208821
-8.79747e-05
-6.26812e-05
-5.42734e-05
-4.69434e-07
1.0931e-05
4.433e-05
3.52795e-05
5.20679e-05
3.55282e-05
4.59818e-05
3.03422e-05
3.92039e-05
2.15743e-05
2.71426e-05
1.5887e-05
2.6429e-05
3.21253e-05
5.0738e-05
5.38246e-05
3.66653e-05
5.37926e-05
0.000219603
0.000263612
0.000360534
0.000617934
0.00347162
-0.00185417
-0.00318904
-0.000824765
-0.000283434
-0.000776454
0.000211342
9.54502e-05
0.000447578
8.74677e-05
0.000154006
0.000205258
-6.02035e-05
-9.61174e-05
-8.75386e-05
-4.23855e-05
-1.22691e-07
4.98519e-05
7.3601e-05
9.65299e-05
0.000107287
0.000113397
0.000120395
0.000122649
0.000129673
0.000128341
0.000136689
0.000129669
0.000133978
0.000120522
0.000126942
0.000118113
0.000131948
0.000118115
0.000113411
7.06913e-05
5.016e-05
-4.09547e-05
-7.20802e-05
-0.000143154
-0.000480648
-0.000578483
0.000897347
-0.000478194
-0.00034181
8.18423e-05
0.000216442
7.0076e-05
0.000304312
-2.5851e-06
0.000339584
0.000227277
-0.000124162
8.77834e-06
-2.05004e-05
-1.56548e-05
1.5118e-05
3.15537e-05
5.0069e-05
5.16898e-05
6.11204e-05
5.7376e-05
6.95834e-05
6.82509e-05
8.80703e-05
9.33328e-05
0.000106788
0.000101061
0.000115733
0.000119229
0.000147723
0.000147837
0.000148103
0.000141441
0.000129225
4.47286e-05
-0.000109956
-1.02229e-05
0.000481701
0.000140641
0.000496538
0.000855927
0.00313078
0.00462835
9.48551e-05
0.000299051
3.08809e-05
0.000362795
0.000167134
-9.3435e-05
-3.79864e-06
-3.87389e-05
-2.21197e-05
1.79262e-05
4.92069e-05
7.37083e-05
8.94545e-05
0.000104669
0.0001061
0.00011424
0.000109766
0.000110807
0.000109658
0.000114767
0.000117726
0.000128991
0.000148038
0.000171185
0.000198898
0.000217133
0.000243373
0.000255028
0.000265122
0.000254156
0.000223327
0.000164472
9.75243e-05
2.1735e-05
-0.000131199
-9.84354e-05
0.000312153
-0.000349909
-0.000542534
9.55339e-05
-5.80093e-05
0.000166568
8.3334e-05
0.000423877
5.34314e-05
6.10306e-05
0.000199532
-1.4305e-05
-3.22191e-05
1.66274e-06
6.96109e-06
4.35433e-05
3.97716e-05
6.02682e-05
4.63548e-05
5.94015e-05
4.31615e-05
5.47332e-05
4.08632e-05
4.7537e-05
3.01312e-05
3.82182e-05
2.73008e-05
4.42633e-05
3.74463e-05
4.79642e-05
1.69511e-05
4.19252e-05
8.64646e-05
0.000136128
8.72872e-05
0.000343959
0.00166884
-0.00109162
-0.00258567
-0.00111248
-9.32816e-05
-3.88054e-05
0.000170617
8.91619e-05
0.000383257
5.6326e-05
0.000110398
0.000158608
-8.60935e-05
-9.81646e-05
-5.85467e-05
-2.13936e-05
2.6249e-05
5.33822e-05
8.25876e-05
8.83848e-05
0.00010394
9.84192e-05
0.000103663
0.000112017
0.000115583
0.000124298
0.000123341
0.000128873
0.000119778
0.000119684
0.000108391
0.00011626
0.000106193
0.00011623
8.99447e-05
9.29323e-05
4.12629e-05
2.7899e-05
-5.6009e-05
-6.64869e-05
-0.000381817
-0.000372149
0.000681033
-0.000378006
-0.000155086
7.57285e-05
0.00017057
6.43081e-05
0.000257128
-2.92057e-05
0.000321965
0.000196978
-7.87277e-05
5.30857e-05
1.59697e-05
2.02394e-05
3.32149e-05
4.63543e-05
5.67512e-05
6.1238e-05
6.33091e-05
6.53324e-05
6.76958e-05
7.38151e-05
7.9704e-05
9.44469e-05
9.47815e-05
9.75496e-05
9.79374e-05
0.000105912
0.000119472
0.000126765
0.000125735
0.000129735
0.000116332
6.29875e-05
-6.34892e-05
1.90841e-05
0.000293067
0.000224271
0.000328099
0.000463121
0.00230823
0.00331092
7.20647e-05
0.000251214
1.017e-05
0.000307094
0.000122076
-0.00012297
-1.30686e-05
-1.98378e-05
3.81511e-06
3.85631e-05
5.99078e-05
7.82746e-05
8.66958e-05
0.000100302
9.15537e-05
0.000106495
9.39614e-05
8.3387e-05
0.000109297
0.000104808
0.000111007
0.000110021
0.000121648
0.000139455
0.00015948
0.000176933
0.000196021
0.00021036
0.000219586
0.000219385
0.000198798
0.000168891
0.00010972
5.45563e-05
-0.000107571
-5.21501e-05
0.000157416
-0.000339277
-0.00058888
5.46765e-05
-6.69818e-05
0.000138804
5.15955e-05
0.000379927
5.25884e-05
6.2555e-05
0.000230105
5.20745e-06
1.91267e-05
9.42756e-06
3.51612e-05
3.92671e-05
5.97459e-05
5.46871e-05
6.6108e-05
5.58318e-05
6.43298e-05
5.33047e-05
6.41275e-05
4.88129e-05
5.33241e-05
3.82763e-05
4.63798e-05
3.82572e-05
4.49491e-05
2.63846e-05
1.93499e-05
5.75226e-07
2.76868e-05
-1.02848e-05
-5.58666e-05
-2.12828e-05
0.000749842
-0.000775537
-0.00180089
-0.00133159
0.000294747
0.000972437
0.000139913
7.09902e-05
0.000326296
4.03263e-05
7.47238e-05
0.000142791
-8.91148e-05
-7.30617e-05
-3.58994e-05
1.38654e-06
3.2052e-05
5.91696e-05
7.75339e-05
7.53224e-05
0.000104556
5.38023e-05
4.67731e-05
9.37888e-05
8.90912e-05
0.000119878
0.000122152
0.000121378
0.0001184
0.000105158
0.000103723
9.51502e-05
9.97999e-05
8.76768e-05
8.93603e-05
6.6451e-05
5.98489e-05
2.17821e-05
3.59186e-06
-4.37934e-05
-0.000209906
-0.000205397
0.000559007
-0.000267788
-7.54901e-05
3.81396e-05
0.000148356
3.32175e-05
0.0002185
-1.80372e-05
0.00028613
0.000206263
-4.43523e-05
7.72012e-05
3.86466e-05
2.93693e-05
3.41459e-05
4.93416e-05
5.5423e-05
6.49739e-05
6.37281e-05
6.90824e-05
6.75984e-05
7.4949e-05
7.56364e-05
8.91634e-05
8.71336e-05
8.92129e-05
8.45636e-05
8.86494e-05
9.56935e-05
0.00010283
0.000105815
0.00011173
0.000105355
6.68508e-05
-2.30278e-05
5.46615e-05
0.000242411
0.000255373
0.000204667
0.000206043
0.00174906
0.00255616
5.71332e-05
0.000206287
8.79638e-06
0.000257641
9.9065e-05
-0.000134796
-3.60618e-06
-2.55944e-06
2.1559e-05
4.60112e-05
6.26631e-05
7.41847e-05
7.38321e-05
0.000104039
2.54281e-05
4.64691e-05
6.51238e-05
4.94668e-05
0.000102496
8.74246e-05
0.000105748
0.000104166
0.000100252
0.000112303
0.000121675
0.000135666
0.000146894
0.000160112
0.000167123
0.000170032
0.000159122
0.000143405
0.000104133
6.42461e-05
-7.13529e-05
2.37181e-06
6.96911e-05
-0.000298357
-0.00058603
4.15348e-05
-6.89713e-05
0.0001097
5.37319e-05
0.000330682
4.32018e-05
8.38868e-05
0.000207164
3.8738e-05
1.5206e-05
1.76689e-05
2.11486e-05
3.99056e-05
4.90107e-05
5.98851e-05
6.0459e-05
6.46032e-05
6.1826e-05
6.41527e-05
6.25325e-05
6.23674e-05
5.39137e-05
5.13396e-05
4.59427e-05
4.79491e-05
3.9669e-05
3.14873e-05
1.14072e-05
1.86455e-06
-1.85101e-05
-4.91236e-05
-0.000155816
-0.000111451
0.000225487
-0.000437062
-0.00125555
-0.00127759
0.00059828
0.00151324
0.000111313
5.86985e-05
0.000278923
1.3761e-05
5.22467e-05
0.000120126
-7.7754e-05
-5.28521e-05
-1.87584e-05
9.55097e-06
3.53781e-05
5.24894e-05
8.44972e-05
1.2593e-06
4.55171e-05
1.51278e-05
1.11115e-05
6.43194e-05
3.57851e-05
9.71515e-05
9.02797e-05
0.000108209
0.000104752
9.6066e-05
8.69591e-05
8.43355e-05
7.78493e-05
7.48665e-05
6.461e-05
5.75742e-05
4.00977e-05
3.21022e-05
6.01197e-06
6.33558e-06
-0.000125276
-1.30145e-05
0.000437751
-0.000190597
-1.29757e-05
3.68807e-05
0.000115081
3.13371e-05
0.000181873
-2.97132e-05
0.00026683
0.000176218
-2.26454e-05
7.74145e-05
3.16902e-05
1.76e-05
2.26629e-05
3.37456e-05
4.93744e-05
5.58521e-05
6.26965e-05
6.32774e-05
6.70995e-05
6.80981e-05
7.22719e-05
7.73078e-05
8.04831e-05
7.69905e-05
7.37224e-05
7.08722e-05
7.67019e-05
8.05914e-05
8.867e-05
9.18941e-05
9.61273e-05
6.31838e-05
1.84925e-05
9.02763e-05
0.000229512
0.000268675
9.1778e-05
8.63762e-05
0.00135473
0.00197619
3.84233e-05
0.000171594
-1.13971e-05
0.000219504
6.98484e-05
-0.000128679
7.39002e-06
1.09016e-05
3.04046e-05
4.71827e-05
5.8994e-05
7.441e-05
1.62472e-05
5.48925e-05
-1.71244e-05
5.81529e-06
4.03362e-05
1.78204e-05
7.94356e-05
3.95132e-05
9.39948e-05
8.27816e-05
8.36925e-05
8.51781e-05
9.16738e-05
9.61657e-05
0.000104432
0.000110489
0.000117599
0.000117221
0.00011525
0.000103818
8.47821e-05
5.21004e-05
-3.92672e-05
4.31499e-05
2.71621e-05
-0.000251159
-0.000548681
1.57543e-05
-7.16745e-05
9.01935e-05
3.31956e-05
0.000292217
4.60222e-05
7.67587e-05
0.000207639
2.68465e-05
1.34468e-05
-2.42028e-06
5.40489e-06
2.24958e-05
3.84133e-05
4.96138e-05
5.57325e-05
5.87079e-05
5.99259e-05
6.01039e-05
6.1544e-05
6.03161e-05
5.60055e-05
5.0511e-05
4.85553e-05
4.79533e-05
4.38417e-05
3.39665e-05
2.19221e-05
6.47105e-06
-1.25843e-05
-5.72311e-05
-0.000137034
-0.00012053
4.70705e-05
-0.00022164
-0.000891222
-0.00108884
0.000829851
0.00153881
8.95594e-05
4.18632e-05
0.00023626
4.05311e-06
3.79272e-05
0.000115717
-6.04889e-05
-3.74905e-05
-7.65913e-06
1.38012e-05
3.57103e-05
3.21815e-05
6.22583e-05
-2.6703e-05
1.39365e-05
2.87426e-05
2.99478e-05
5.92451e-05
6.82533e-06
9.11033e-05
7.18608e-05
9.31958e-05
8.98402e-05
8.28144e-05
7.33978e-05
6.72295e-05
6.16852e-05
5.53163e-05
4.81859e-05
3.8194e-05
2.91817e-05
2.04366e-05
1.23808e-05
1.10373e-05
-5.27243e-05
8.1066e-05
0.000348854
-0.00011759
1.00543e-06
1.23629e-05
9.91911e-05
1.06389e-05
0.000152975
-1.65697e-05
0.000232709
0.000175826
-1.13275e-05
6.89403e-05
2.23156e-05
-2.5467e-06
2.74181e-06
1.78148e-05
3.4096e-05
4.56202e-05
5.21673e-05
5.58601e-05
5.78212e-05
6.00599e-05
6.15896e-05
6.57578e-05
6.77795e-05
6.56513e-05
6.05072e-05
5.77141e-05
5.92256e-05
6.48055e-05
7.08952e-05
7.76133e-05
8.19445e-05
6.07118e-05
4.61351e-05
0.000107334
0.000221959
0.000233916
7.97626e-06
5.72535e-05
0.00106575
0.00144032
2.81789e-05
0.000139024
-1.31479e-05
0.000184749
5.89255e-05
-0.000110466
1.48155e-05
1.99045e-05
3.08945e-05
4.76498e-05
5.23409e-05
6.23461e-05
4.56892e-07
3.87667e-05
1.12581e-05
3.30649e-05
4.79046e-05
2.17264e-05
8.87154e-05
4.90059e-05
7.82347e-05
5.50729e-05
6.81905e-05
6.85564e-05
6.62632e-05
6.61868e-05
6.79692e-05
7.14454e-05
7.40742e-05
7.39467e-05
7.37223e-05
6.62499e-05
5.90037e-05
3.01474e-05
-1.34372e-05
5.57968e-05
1.58728e-05
-0.000214213
-0.000492164
8.7829e-06
-6.94586e-05
6.94671e-05
3.60865e-05
0.000250838
4.01926e-05
8.45785e-05
0.000176747
3.34845e-05
-2.82059e-06
-1.62479e-05
-1.23047e-05
6.03384e-06
2.38235e-05
3.69516e-05
4.48224e-05
4.88396e-05
5.08356e-05
5.14361e-05
5.27757e-05
5.31248e-05
4.98953e-05
4.55338e-05
4.46887e-05
4.59347e-05
4.45696e-05
3.87518e-05
3.16873e-05
2.00063e-05
3.63365e-06
-3.58655e-05
-8.69524e-05
-8.1314e-05
9.84737e-06
-0.000114967
-0.000646498
-0.000817183
0.000892556
0.00130216
6.97655e-05
3.11665e-05
0.000200407
-1.17334e-05
3.52324e-05
0.000100017
-4.73312e-05
-2.5622e-05
1.67831e-07
1.73457e-05
3.37418e-05
2.57642e-05
4.89963e-05
-1.54527e-05
2.24454e-05
3.22049e-05
3.40691e-05
6.28591e-05
2.56734e-05
5.29479e-05
1.77266e-05
6.48e-05
5.71278e-05
6.35102e-05
5.69937e-05
5.05665e-05
4.52671e-05
3.94645e-05
3.28051e-05
2.43429e-05
1.80054e-05
1.08082e-05
1.01824e-05
5.10078e-06
-1.01654e-05
0.000110919
0.00027704
-8.78709e-05
1.12539e-05
1.32507e-05
7.49791e-05
1.06478e-05
0.00012569
-2.15891e-05
0.000212144
0.000148537
-4.2885e-06
6.02843e-05
5.5284e-06
-1.39733e-05
-1.31837e-05
2.35277e-06
1.94245e-05
3.21885e-05