/*--------------------------------*- C++ -*----------------------------------*\
| =========                 |                                                 |
| \\      /  F ield         | OpenFOAM: The Open Source CFD Toolbox           |
|  \\    /   O peration     | Version:  2206                                  |
|   \\  /    A nd           | Website:  www.openfoam.com                      |
|    \\/     M anipulation  |                                                 |
\*---------------------------------------------------------------------------*/
FoamFile
{
    version     2.0;
    format      ascii;
    arch        "LSB;label=32;scalar=64";
    class       volVectorField;
    location    "50";
    object      momentError;
}
// * * * * * * * * * * * * * * * * * * * * * * * * * * * * * * * * * * * * * //

dimensions      [0 1 -2 0 0 0 0];

internalField   nonuniform List<vector> 
10720
(
(3.00772 -13.17 8.88065e-15)
(1.95805 -13.6087 9.77054e-16)
(0.237194 -11.602 -1.04624e-14)
(-0.591818 -11.3997 1.26357e-14)
(-1.50907 -10.927 1.0395e-14)
(-2.39359 -10.0559 -2.12656e-14)
(-3.19572 -9.14696 -4.93907e-14)
(-3.72821 -8.11874 -4.52617e-14)
(-4.06602 -7.16584 7.5825e-15)
(-4.28653 -6.27112 3.34941e-15)
(-4.37065 -5.40144 -1.32605e-14)
(-4.36434 -4.62481 4.02553e-14)
(-4.25963 -3.88068 -1.37252e-13)
(-4.26789 -3.40078 -2.53841e-13)
(-4.34502 -3.06207 4.72042e-14)
(-4.50981 -2.83991 -7.08666e-14)
(-4.74027 -2.68655 7.52292e-14)
(-5.01284 -2.52154 6.12069e-13)
(-5.30584 -2.34604 1.69126e-13)
(-5.73217 -2.21005 -3.35257e-13)
(-6.44518 -2.20544 -1.54907e-13)
(-7.4168 -2.15936 5.65893e-14)
(-7.36183 -1.91594 2.30535e-13)
(-5.20786 -1.35987 -1.50262e-13)
(-3.05683 -0.615332 2.51495e-14)
(-1.49606 0.0533666 -2.18503e-14)
(-1.55395 0.375841 -3.2939e-14)
(-0.837955 0.362561 6.92503e-15)
(-0.75837 0.0409458 7.16046e-15)
(-1.27745 0.0546934 1.03012e-13)
(-1.68646 0.0922591 3.94119e-14)
(-0.123162 -0.220662 -6.94128e-14)
(0.0105373 -0.11489 -6.00264e-14)
(-1.99595 0.518438 -1.20066e-13)
(-3.60691 0.74672 2.80387e-14)
(-0.652713 0.00925698 5.9103e-14)
(2.24944 -0.503763 -5.50749e-14)
(7.44335 -0.31036 -1.54838e-14)
(-0.397558 0.910722 2.75339e-14)
(3.71565 -11.7728 2.1492e-14)
(3.6885 -9.12103 -3.68083e-14)
(3.42973 -6.45598 4.34993e-14)
(2.60981 -3.62518 1.33723e-13)
(0.876501 -0.758345 7.62987e-15)
(0.0551073 0.151998 2.48346e-14)
(0.619964 -1.01798 -1.56825e-13)
(1.61379 -2.2313 -1.75135e-13)
(2.22055 -2.42218 -1.65916e-14)
(2.31211 -2.0615 4.22738e-14)
(2.17299 -1.63787 -5.15494e-14)
(1.97345 -1.29965 -1.01789e-13)
(1.79583 -1.07071 2.35915e-14)
(1.67082 -0.917348 4.73524e-14)
(1.57099 -0.796204 -7.51651e-14)
(1.48216 -0.693534 -6.47521e-14)
(1.39927 -0.594052 -4.29367e-14)
(1.29834 -0.493304 -4.82584e-14)
(1.17233 -0.396936 -1.67885e-14)
(1.03585 -0.322296 3.24344e-16)
(0.927189 -0.278992 1.12864e-14)
(0.874793 -0.254605 2.06517e-14)
(0.878109 -0.231835 -4.13115e-15)
(0.897911 -0.214718 -4.84717e-15)
(0.893906 -0.157667 -3.89366e-15)
(0.834309 -0.0599149 -1.82708e-15)
(0.728641 -0.0048456 3.36269e-15)
(0.626765 0.00843581 5.54646e-15)
(0.554181 0.0141 -1.89339e-15)
(0.599143 -0.00357156 2.8119e-15)
(0.666876 -0.0295959 7.79754e-15)
(0.761435 -0.0459174 -5.71435e-15)
(0.861466 -0.033532 -2.76767e-15)
(0.943972 0.015974 -8.08864e-14)
(0.966311 0.0887282 -7.55678e-14)
(0.987687 0.166435 4.69634e-14)
(0.832135 0.262667 -6.27478e-15)
(0.136141 0.074722 4.7468e-15)
(-0.971176 0.348599 -2.77972e-14)
(-0.12089 -10.0183 -7.72323e-15)
(-1.18401 -10.2123 9.68404e-15)
(-2.19474 -8.85257 -9.64036e-15)
(-3.30451 -8.88389 -1.02319e-15)
(-4.23861 -8.64139 -1.67703e-15)
(-5.04149 -8.12156 1.35156e-14)
(-5.80552 -7.51395 2.1794e-14)
(-6.26677 -6.77452 1.49425e-14)
(-6.49682 -5.99923 -3.8777e-14)
(-6.6356 -5.21653 -7.02546e-15)
(-6.63155 -4.46371 -1.45443e-13)
(-6.50802 -3.76721 -2.53002e-13)
(-6.32047 -3.22069 -1.65817e-14)
(-5.98341 -2.61368 -1.04078e-14)
(-5.66367 -2.14396 -5.86292e-14)
(-5.51143 -1.646 6.16314e-14)
(-5.52566 -1.15977 2.54261e-13)
(-5.60374 -0.56199 -4.76778e-13)
(-5.75157 0.113226 -3.84116e-13)
(-6.08791 0.791145 -2.48452e-13)
(-7.14545 1.30327 1.51253e-13)
(-9.75091 1.35615 2.07888e-13)
(-14.5087 0.544948 -2.73957e-13)
(-19.058 -0.628948 4.0616e-14)
(-19.152 -1.12099 -1.23065e-15)
(-15.3831 -0.906872 -3.56978e-14)
(-10.1968 -0.291958 -3.0572e-15)
(-6.75208 0.268903 1.37041e-14)
(-4.36138 0.325136 8.08012e-16)
(-4.28655 0.309173 7.69314e-14)
(-4.19466 0.0942677 -1.68268e-14)
(-0.548552 -0.613066 -5.91957e-14)
(1.29306 -0.224406 -1.13674e-13)
(-6.73892 1.75413 -1.80597e-13)
(-7.35526 1.14376 1.97725e-13)
(1.92778 -0.92648 1.77473e-14)
(6.26317 -1.70601 2.9798e-16)
(8.42548 -1.17845 -3.72732e-14)
(4.57087 1.16998 -1.9282e-15)
(0.65141 -9.15164 -2.32937e-14)
(1.32423 -7.38142 2.10334e-13)
(1.76794 -5.34662 -5.74675e-14)
(1.72991 -3.43945 -1.37657e-13)
(1.03381 -1.61685 -1.3632e-14)
(0.749631 -1.13196 9.43023e-14)
(1.15831 -1.72412 -5.10531e-14)
(1.75478 -2.13995 1.9275e-13)
(2.27464 -1.95034 1.61338e-13)
(2.48605 -1.48548 -8.18505e-14)
(2.46332 -1.03632 5.18786e-14)
(2.32211 -0.715142 -9.00307e-14)
(2.15271 -0.532741 2.9593e-14)
(2.00337 -0.429769 6.30772e-15)
(1.87536 -0.359146 1.28622e-14)
(1.75659 -0.301053 1.22156e-14)
(1.64681 -0.229901 3.07436e-14)
(1.52836 -0.147908 -7.76991e-15)
(1.39182 -0.0739192 1.65293e-15)
(1.24537 -0.0389662 -2.81182e-15)
(1.12058 -0.0505104 7.59336e-15)
(1.04405 -0.0895886 2.18057e-14)
(1.02109 -0.108462 -2.76193e-15)
(1.02105 -0.0672954 1.09138e-15)
(0.998368 0.0297607 -1.27545e-15)
(0.928002 0.141546 -1.07701e-14)
(0.827585 0.222964 -5.95193e-15)
(0.725658 0.232595 1.34933e-15)
(0.659391 0.151826 5.4457e-17)
(0.593634 0.0392215 2.47939e-16)
(0.613138 -0.0775785 4.94564e-17)
(0.67846 -0.136136 -1.10345e-14)
(0.753806 -0.103125 1.53955e-14)
(0.819049 0.0140068 4.90461e-14)
(0.821356 0.175347 1.17256e-14)
(0.929218 0.330488 -1.72913e-14)
(0.65601 0.409604 7.02721e-15)
(1.02349 0.408378 -1.91445e-14)
(2.09665 1.02724 4.79749e-15)
(0.45149 -8.56759 1.51809e-15)
(-0.232352 -8.71334 1.86444e-14)
(-0.990289 -7.69277 8.74307e-15)
(-1.77383 -7.90938 -2.99658e-14)
(-2.43804 -7.80921 -1.3407e-15)
(-3.12085 -7.48915 -1.32135e-14)
(-3.79921 -7.15461 -8.54967e-15)
(-4.26733 -6.62969 3.45763e-14)
(-4.57328 -5.97997 2.18062e-14)
(-4.79507 -5.31633 4.61015e-14)
(-4.89218 -4.65599 5.6178e-15)
(-4.90824 -4.04768 1.02788e-14)
(-4.84808 -3.5195 1.99155e-13)
(-4.72124 -3.08785 4.65563e-15)
(-4.59661 -2.70452 1.4342e-13)
(-4.41672 -2.38114 -9.64387e-15)
(-4.27482 -2.10482 -4.53667e-13)
(-4.16115 -1.6797 2.80507e-13)
(-3.91858 -1.13906 6.32532e-13)
(-3.37461 -0.537301 1.1597e-13)
(-2.44419 0.182653 -2.08499e-14)
(-1.22545 1.21596 -4.66153e-14)
(-0.939013 2.38133 1.15564e-13)
(-4.01728 2.62846 7.45485e-14)
(-10.0505 1.59008 -6.05021e-14)
(-15.8743 0.139581 -8.21893e-15)
(-18.8027 -0.628069 -3.27612e-14)
(-16.5462 -0.583537 1.43283e-14)
(-11.0405 -0.095788 -3.95609e-14)
(-7.6333 0.375746 -8.42301e-14)
(-5.82639 0.133889 1.69091e-14)
(-2.24746 -0.492754 1.22267e-13)
(-2.18804 0.577824 -7.11958e-15)
(-10.5229 2.59286 1.7977e-13)
(-6.92183 0.497374 1.52144e-14)
(2.52714 -1.68479 6.75453e-14)
(8.4506 -2.49438 -6.01027e-14)
(8.93317 -2.1404 3.48555e-14)
(9.91905 -0.124884 9.92023e-15)
(0.968701 -7.81211 3.55672e-14)
(1.31801 -6.38285 -5.68089e-14)
(1.49247 -4.71543 -8.88205e-14)
(1.41315 -3.29706 1.532e-14)
(1.06465 -1.95648 -1.72541e-14)
(1.00188 -1.68475 -3.99236e-14)
(1.40869 -2.05217 1.43752e-14)
(1.82637 -2.15706 -2.06563e-13)
(2.13907 -1.99725 -1.15565e-13)
(2.25433 -1.7007 -1.00011e-13)
(2.21686 -1.40946 9.28945e-14)
(2.08706 -1.18373 1.12093e-13)
(1.9287 -1.02391 -5.38676e-14)
(1.78219 -0.898895 -1.1605e-13)
(1.65565 -0.78471 3.36416e-14)
(1.54158 -0.667023 5.13398e-14)
(1.43877 -0.538541 -1.32692e-14)
(1.33829 -0.407509 -5.7277e-14)
(1.23009 -0.298262 -1.5137e-14)
(1.11537 -0.23862 2.07795e-15)
(1.0142 -0.231239 -7.4479e-15)
(0.948269 -0.244747 -1.7786e-14)
(0.923607 -0.227439 3.84249e-15)
(0.918036 -0.145233 -7.82931e-16)
(0.899285 -0.00439972 -4.18742e-15)
(0.842409 0.141635 7.82766e-15)
(0.746715 0.220134 1.39704e-14)
(0.642431 0.198736 -3.93855e-15)
(0.56908 0.0930225 -1.12009e-15)
(0.547426 -0.0735773 -3.76361e-15)
(0.583617 -0.216009 -3.54381e-17)
(0.652837 -0.282745 1.34151e-14)
(0.727714 -0.236488 -1.12658e-14)
(0.78911 -0.0834501 -1.81139e-14)
(0.790519 0.13165 8.13053e-16)
(0.858623 0.338945 1.21933e-15)
(0.615067 0.470892 1.4565e-15)
(0.574007 0.473169 1.20385e-14)
(0.412436 0.687379 -4.88928e-14)
(0.01128 -7.24816 1.58582e-14)
(-0.675916 -7.33218 1.03678e-14)
(-1.33987 -6.58247 -6.19437e-15)
(-2.09806 -6.81487 3.27348e-15)
(-2.69855 -6.6961 -7.33139e-15)
(-3.31734 -6.41436 -5.22662e-15)
(-3.95125 -6.11788 2.55264e-14)
(-4.39942 -5.62342 -4.0493e-15)
(-4.70986 -5.02603 -8.52953e-14)
(-4.93702 -4.44203 3.01727e-14)
(-5.02918 -3.8776 1.29895e-13)
(-5.04887 -3.36702 1.82565e-13)
(-4.99693 -2.91207 4.12511e-14)
(-4.88405 -2.50103 -2.30751e-13)
(-4.73914 -2.10089 -5.77336e-14)
(-4.55536 -1.72199 -5.72374e-14)
(-4.59966 -1.14789 -1.12401e-13)
(-4.73173 -0.613698 -2.51435e-13)
(-4.83961 -0.0652321 -4.34335e-13)
(-4.8567 0.475879 1.08564e-13)
(-4.68763 1.0083 -8.60371e-14)
(-3.96828 1.69358 -1.22128e-13)
(-1.95262 2.71562 4.74247e-15)
(0.859166 3.71476 -1.72257e-13)
(1.9145 3.83378 -2.81546e-14)
(-0.611076 2.87803 2.21722e-14)
(-6.60773 1.282 3.28846e-14)
(-13.2077 -0.201915 -1.36046e-14)
(-15.389 -0.63012 1.24808e-14)
(-12.6204 -0.137723 2.89346e-15)
(-8.0502 -0.128953 1.35366e-14)
(-4.50706 -0.281962 4.55173e-14)
(-6.34672 1.50969 7.05472e-14)
(-12.1125 2.94798 9.87723e-15)
(-5.87443 -0.501176 2.10953e-14)
(4.22855 -2.88584 -1.35019e-13)
(10.7778 -3.53941 -5.37717e-14)
(10.3425 -3.06736 -3.18134e-15)
(11.9651 -1.36874 -2.80059e-14)
(0.565356 -6.62365 -7.87535e-15)
(0.963909 -5.52326 -3.79668e-14)
(1.19234 -4.19368 -4.25266e-14)
(1.21141 -3.08925 -7.65327e-14)
(1.06167 -2.17694 1.93707e-13)
(1.11945 -2.01577 1.61491e-13)
(1.47768 -2.21484 2.77192e-14)
(1.79446 -2.18707 1.67965e-13)
(2.03143 -1.99795 -2.52842e-14)
(2.13938 -1.7131 -5.47142e-14)
(2.14304 -1.41888 -5.94527e-14)
(2.0628 -1.15516 -3.29869e-14)
(1.93955 -0.933726 -3.39334e-14)
(1.80919 -0.748621 6.28748e-14)
(1.68486 -0.588744 -3.48235e-14)
(1.56451 -0.446109 -9.08016e-14)
(1.45361 -0.318993 -1.49185e-14)
(1.34888 -0.210902 5.399e-14)
(1.24495 -0.133245 -3.2147e-15)
(1.13885 -0.097711 -1.37524e-14)
(1.04133 -0.0990188 -3.34449e-14)
(0.966639 -0.109518 1.19008e-14)
(0.922169 -0.0896406 1.41127e-14)
(0.895832 -0.0174411 -3.3206e-15)
(0.86593 0.0935766 3.24144e-17)
(0.812484 0.195479 -3.38697e-15)
(0.730263 0.230861 -6.27326e-15)
(0.639315 0.174673 2.26362e-15)
(0.568559 0.0385823 1.98134e-15)
(0.5398 -0.123071 1.18353e-15)
(0.559187 -0.249088 -3.84821e-15)
(0.607205 -0.294836 -7.38509e-15)
(0.661541 -0.228453 -3.56685e-15)
(0.707174 -0.0641257 9.73423e-15)
(0.702157 0.162796 2.08887e-14)
(0.759937 0.36295 -1.83118e-14)
(0.585495 0.541806 -1.57674e-16)
(0.496498 0.498468 2.49147e-14)
(-0.0496248 0.599396 -2.83791e-14)
(-0.0931938 -6.25054 -1.37514e-14)
(-0.674941 -6.31269 1.39946e-14)
(-1.21744 -5.7542 -1.47086e-14)
(-1.88303 -6.00518 2.00217e-14)
(-2.39831 -5.90887 3.25383e-14)
(-2.9287 -5.67812 -1.86331e-14)
(-3.4853 -5.461 -1.16697e-14)
(-3.86949 -5.06348 1.7016e-14)
(-4.15392 -4.59591 -3.73204e-14)
(-4.36928 -4.14218 -1.22429e-13)
(-4.46977 -3.68488 -6.80071e-15)
(-4.51568 -3.24577 -7.51684e-14)
(-4.50969 -2.81818 -4.03706e-14)
(-4.44688 -2.38958 -1.3289e-14)
(-4.33938 -1.96244 -1.97068e-13)
(-4.21356 -1.52389 1.94012e-13)
(-4.05032 -1.14831 1.08706e-13)
(-4.02516 -0.840878 -2.48091e-13)
(-4.03637 -0.523541 8.42202e-14)
(-4.02679 -0.199115 -1.36675e-13)
(-4.00426 0.127213 -9.667e-14)
(-3.95026 0.489931 1.72031e-13)
(-3.54539 1.03491 4.0184e-16)
(-1.97874 1.83386 1.443e-13)
(0.685321 2.57929 6.40779e-14)
(3.15005 2.91416 -6.36637e-15)
(3.40162 2.45858 4.55876e-15)
(-0.19955 1.11451 1.53037e-14)
(-6.72662 -0.140142 -8.97779e-15)
(-12.0994 -0.485243 -2.43625e-14)
(-10.9661 -0.532175 -2.19053e-14)
(-8.05272 -0.0629913 -1.795e-14)
(-10.2182 2.28271 1.01772e-14)
(-12.2859 2.85102 -1.2319e-13)
(-3.93561 -1.76632 -6.74862e-14)
(5.86124 -4.07314 8.62612e-15)
(12.2548 -4.34576 4.411e-14)
(11.3416 -3.86382 -2.3281e-14)
(12.571 -1.99439 1.26917e-14)
(0.393642 -5.72141 2.38571e-14)
(0.74174 -4.83959 4.18285e-14)
(0.962158 -3.76593 -1.82208e-14)
(1.02698 -2.88869 -5.73786e-14)
(0.999247 -2.2718 -8.76359e-15)
(1.13674 -2.16574 -9.10034e-14)
(1.44846 -2.2371 -7.19306e-14)
(1.7201 -2.15313 1.01487e-13)
(1.91822 -1.95658 1.85327e-13)
(2.01738 -1.69065 1.48486e-14)
(2.03929 -1.41764 -4.21576e-14)
(1.98764 -1.1642 -4.26344e-14)
(1.88513 -0.942542 1.046e-13)
(1.7655 -0.756521 -3.46456e-14)
(1.64448 -0.601328 -9.02717e-15)
(1.52181 -0.470105 6.68656e-14)
(1.40835 -0.361682 -3.04744e-14)
(1.30332 -0.273811 2.41278e-14)
(1.20546 -0.206417 1.69486e-14)
(1.10936 -0.161041 9.28122e-16)
(1.01916 -0.134264 3.57322e-14)
(0.943105 -0.11313 -1.1646e-14)
(0.888416 -0.0779358 -1.6267e-14)
(0.850046 -0.0178534 -4.00749e-15)
(0.815993 0.058744 3.48177e-15)
(0.770986 0.122403 -1.97998e-15)
(0.705929 0.134786 -3.73139e-15)
(0.632123 0.0791731 6.91036e-16)
(0.570794 -0.0314219 -7.61618e-16)
(0.541012 -0.150607 1.88401e-15)
(0.545475 -0.250378 3.37338e-15)
(0.577581 -0.27177 3.80737e-15)
(0.615344 -0.199132 -7.45735e-15)
(0.648109 -0.0437574 -2.88935e-14)
(0.633187 0.155685 -9.58743e-15)
(0.684232 0.333286 -6.90865e-15)
(0.517338 0.498228 -1.25926e-14)
(0.436 0.439356 -4.83744e-15)
(-0.0261445 0.63519 2.9305e-14)
(-0.223114 -5.42572 1.0963e-16)
(-0.738143 -5.47442 3.91702e-16)
(-1.20455 -5.04835 6.12537e-16)
(-1.80673 -5.28232 2.88738e-15)
(-2.2664 -5.19565 -1.25964e-14)
(-2.73306 -4.99969 -1.52981e-14)
(-3.22549 -4.82834 1.60465e-15)
(-3.5678 -4.50271 1.29628e-14)
(-3.83576 -4.11814 5.02225e-14)
(-4.05243 -3.7384 -3.89633e-14)
(-4.16812 -3.33629 -4.25129e-14)
(-4.23142 -2.93397 3.31108e-14)
(-4.24703 -2.53455 -7.29238e-14)
(-4.19709 -2.13048 -3.44803e-15)
(-4.1005 -1.73497 -2.55651e-14)
(-3.96777 -1.35966 1.48634e-14)
(-3.79635 -1.02935 2.8355e-14)
(-3.81316 -0.62154 2.95797e-13)
(-3.9023 -0.244335 2.40784e-13)
(-3.94972 0.155021 -1.06894e-13)
(-3.93025 0.583968 1.55508e-13)
(-3.81435 1.01754 1.1328e-14)
(-3.63082 1.4183 -3.3641e-14)
(-3.19004 1.75245 -7.10616e-14)
(-2.10477 1.991 6.66319e-15)
(-0.177346 2.1621 2.25206e-14)
(2.19155 2.10931 2.57869e-14)
(3.43694 1.518 -2.42761e-14)
(2.03783 0.620686 -1.95635e-15)
(-3.23486 -0.125185 4.61442e-14)
(-8.78893 -0.618947 -2.50583e-14)
(-11.1758 0.0998922 -1.21251e-13)
(-14.0542 2.65478 -4.30136e-14)
(-12.04 2.31248 -1.19107e-13)
(-1.83584 -3.02782 2.35368e-14)
(7.15754 -5.03841 -5.70946e-14)
(13.0241 -4.85379 4.98596e-14)
(11.7628 -4.39499 2.83838e-14)
(12.2502 -2.2914 -7.07391e-15)
(0.218787 -4.97713 -9.21092e-15)
(0.543661 -4.26155 -2.61353e-14)
(0.763957 -3.38658 -2.68981e-15)
(0.86233 -2.67604 5.42781e-14)
(0.917983 -2.25768 1.05369e-13)
(1.10061 -2.19207 -2.07088e-13)
(1.37446 -2.1933 -1.55803e-13)
(1.61539 -2.08353 -1.08623e-13)
(1.79239 -1.89118 6.32639e-14)
(1.8885 -1.64669 2.25453e-14)
(1.9238 -1.39681 -6.37143e-14)
(1.89629 -1.15977 3.70626e-15)
(1.81616 -0.944851 -2.1922e-14)
(1.7136 -0.760415 -3.39373e-14)
(1.60372 -0.605661 -1.14404e-13)
(1.48809 -0.475178 -1.21566e-14)
(1.37831 -0.367778 6.24773e-14)
(1.27626 -0.278917 -9.78859e-15)
(1.18228 -0.204773 1.20115e-14)
(1.09198 -0.144731 -1.87226e-14)
(1.00618 -0.100092 -2.60808e-14)
(0.929313 -0.0688823 -3.26644e-16)
(0.867482 -0.0431003 5.43317e-15)
(0.820122 -0.0134357 5.3389e-15)
(0.781571 0.022689 -2.33228e-15)
(0.741078 0.0541723 3.52351e-15)
(0.68719 0.0586877 5.95356e-15)
(0.624354 0.0231748 -1.18213e-15)
(0.568253 -0.0453447 8.09443e-16)
(0.534364 -0.124047 -1.84698e-15)
(0.529176 -0.166838 -3.21559e-15)
(0.553061 -0.160763 -3.56587e-15)
(0.585497 -0.0843342 6.65337e-15)
(0.617536 0.047988 2.62429e-14)
(0.612237 0.216617 8.14411e-15)
(0.667644 0.340719 9.63385e-15)
(0.519902 0.492436 7.50623e-16)
(0.43882 0.354187 -1.65835e-14)
(0.0841475 0.484201 -7.27193e-15)
(-0.318804 -4.73193 -1.38081e-16)
(-0.768975 -4.77013 -1.09428e-15)
(-1.17406 -4.44427 -7.97628e-15)
(-1.71597 -4.66052 4.67054e-15)
(-2.12434 -4.58358 2.49962e-14)
(-2.53832 -4.42155 8.29011e-15)
(-2.97848 -4.28747 -1.13991e-16)
(-3.28685 -4.01475 -1.09669e-14)
(-3.53899 -3.69355 2.56862e-14)
(-3.75258 -3.37215 4.31846e-14)
(-3.87263 -3.01972 2.42839e-15)
(-3.94321 -2.66102 1.33394e-14)
(-3.9661 -2.30142 1.06798e-13)
(-3.92425 -1.93465 2.11612e-13)
(-3.83829 -1.57294 1.9176e-13)
(-3.71451 -1.22884 -2.9646e-15)
(-3.56679 -0.88689 2.54571e-13)
(-3.45103 -0.614117 8.09657e-15)
(-3.50927 -0.340615 -7.89478e-14)
(-3.54154 -0.0348416 1.0764e-13)
(-3.52064 0.346152 -1.77246e-13)
(-3.38907 0.807622 7.50969e-14)
(-3.12795 1.31142 7.03504e-14)
(-2.78909 1.71321 3.12245e-14)
(-2.41346 1.84625 7.77097e-14)
(-1.85281 1.7663 -3.0803e-14)
(-0.750964 1.55542 -2.82511e-14)
(0.755624 1.12375 1.74922e-15)
(2.08347 0.637527 2.46655e-14)
(1.9365 0.243664 -5.25252e-14)
(-1.57753 -0.212491 -4.67804e-14)
(-8.69449 0.363075 6.2222e-14)
(-15.7917 2.57453 2.32512e-15)
(-11.8747 1.37796 -1.30246e-14)
(0.0448563 -4.23528 3.89624e-14)
(8.06617 -5.7519 3.65944e-14)
(13.0912 -5.04951 -2.45133e-14)
(11.5813 -4.62232 -3.06237e-14)
(11.3386 -2.32962 2.23857e-14)
(0.079078 -4.35451 -5.3172e-15)
(0.381198 -3.76573 -1.76447e-15)
(0.596715 -3.04439 1.03455e-14)
(0.718228 -2.45777 5.53589e-14)
(0.82251 -2.17201 4.0575e-14)
(1.02957 -2.13877 3.26958e-14)
(1.27907 -2.10106 1.25325e-13)
(1.49991 -1.98233 -1.04281e-13)
(1.66509 -1.80135 -1.57604e-13)
(1.7616 -1.57876 3.38916e-14)
(1.80914 -1.35262 8.61186e-14)
(1.80092 -1.13388 -1.62997e-14)
(1.74162 -0.930229 4.97063e-14)
(1.65751 -0.751563 9.24611e-16)
(1.5609 -0.598843 2.5894e-14)
(1.45423 -0.468014 1.58447e-14)
(1.35047 -0.358845 -2.44772e-14)
(1.2518 -0.267424 2.23099e-14)
(1.15996 -0.190488 -1.59889e-14)
(1.07274 -0.127409 -2.35802e-16)
(0.99058 -0.0808191 3.51048e-14)
(0.914927 -0.0519036 -1.14181e-14)
(0.850316 -0.035753 -1.34839e-14)
(0.797601 -0.0218849 2.65452e-15)
(0.755519 -0.00126572 5.37549e-16)
(0.716595 0.0248189 -1.53734e-15)
(0.669063 0.0422461 -2.37556e-15)
(0.613176 0.0372269 4.37004e-16)
(0.560297 0.00733339 5.74244e-16)
(0.524161 -0.0338589 -2.56987e-16)
(0.510051 -0.0672258 -7.60377e-15)
(0.526558 -0.0722353 3.96481e-16)
(0.554669 -0.0293682 1.09718e-14)
(0.586626 0.0546451 -9.61648e-16)
(0.590248 0.165768 -6.37672e-16)
(0.654353 0.252158 -6.48152e-16)
(0.51833 0.363063 3.74628e-15)
(0.465423 0.227702 1.47901e-14)
(0.211544 0.333385 -3.80744e-14)
(-0.399693 -4.13868 4.93419e-15)
(-0.792795 -4.16798 -4.80207e-15)
(-1.14472 -3.91493 1.05522e-14)
(-1.63276 -4.1112 -3.62462e-14)
(-1.99915 -4.04661 2.12203e-14)
(-2.36947 -3.9086 3.88793e-15)
(-2.769 -3.8015 4.52432e-15)
(-3.05184 -3.57191 -2.99105e-14)
(-3.28865 -3.29937 8.99191e-15)
(-3.497 -3.02764 4.97465e-14)
(-3.61813 -2.72046 -1.58038e-14)
(-3.6935 -2.40224 -7.02578e-14)
(-3.72225 -2.07807 -1.51709e-13)
(-3.6889 -1.74198 -1.42383e-13)
(-3.61383 -1.40624 -9.96393e-14)
(-3.50148 -1.07909 -4.15866e-14)
(-3.35821 -0.767877 -1.43472e-13)
(-3.22059 -0.455913 -2.00694e-13)
(-3.2854 -0.137961 -9.75708e-14)
(-3.33722 0.194274 2.41724e-13)
(-3.32976 0.574395 2.22792e-13)
(-3.20547 0.991397 -1.25921e-14)
(-2.91982 1.40732 -3.51651e-14)
(-2.482 1.72346 -1.01941e-13)
(-2.04867 1.78957 -6.03281e-14)
(-1.78391 1.60554 2.5579e-14)
(-1.55804 1.26002 2.14343e-14)
(-1.11808 0.771536 3.76809e-15)
(-0.361076 0.329075 -1.26329e-14)
(0.689598 0.116816 4.42786e-14)
(1.84682 0.102329 1.07589e-13)
(-1.27258 0.809596 2.5651e-14)
(-11.7082 2.2243 3.51616e-15)
(-10.9275 0.194139 3.0774e-14)
(1.28768 -5.33642 -5.94023e-14)
(8.49222 -6.24656 2.76598e-14)
(12.4324 -4.97847 1.23288e-14)
(10.7999 -4.56317 -1.31673e-14)
(9.91214 -2.14207 -4.93478e-15)
(-0.0363397 -3.81583 1.84044e-14)
(0.245019 -3.32983 2.46148e-14)
(0.458583 -2.72995 -6.38641e-15)
(0.595273 -2.23804 1.51997e-13)
(0.724804 -2.04657 -1.8919e-13)
(0.945381 -2.04106 5.35514e-14)
(1.17544 -1.98131 1.44194e-13)
(1.38241 -1.86364 1.009e-13)
(1.53997 -1.6975 -2.40027e-14)
(1.63688 -1.49637 -3.08909e-14)
(1.69425 -1.29382 2.48627e-14)
(1.70232 -1.09541 3.03304e-14)
(1.66161 -0.906295 -6.72559e-14)
(1.59528 -0.737168 5.87248e-14)
(1.51239 -0.589635 1.16254e-14)
(1.41614 -0.461435 -1.23668e-14)
(1.31987 -0.353436 -4.22835e-14)
(1.22559 -0.263207 -4.20794e-14)
(1.13646 -0.188388 3.19958e-14)
(1.05198 -0.128011 9.66742e-15)
(0.97319 -0.0831229 3.28827e-15)
(0.899959 -0.0542873 2.60707e-14)
(0.834829 -0.0375133 8.73439e-15)
(0.778703 -0.0239006 -1.07484e-15)
(0.733304 -0.00427594 6.7521e-16)
(0.693725 0.0230405 4.25963e-16)
(0.649427 0.0480928 6.97193e-16)
(0.598669 0.0572109 1.87505e-16)
(0.549527 0.0432361 6.77726e-16)
(0.513688 0.0124777 1.44411e-15)
(0.497208 -0.021364 6.52958e-15)
(0.509597 -0.033225 -6.70072e-15)
(0.536665 -0.0123032 -2.29868e-14)
(0.569901 0.0412537 -1.8026e-14)
(0.582077 0.123103 -1.00442e-14)
(0.649971 0.177927 3.546e-15)
(0.524326 0.287411 -4.90076e-15)
(0.496033 0.115776 -6.06721e-15)
(0.335549 0.0769005 2.1934e-14)
(-0.457488 -3.61926 8.31112e-16)
(-0.804085 -3.64816 2.53032e-15)
(-1.11253 -3.45281 -1.69283e-15)
(-1.55162 -3.62791 -1.53852e-14)
(-1.88058 -3.57342 -2.88568e-14)
(-2.21245 -3.45616 1.91026e-14)
(-2.57571 -3.37115 -1.01563e-14)
(-2.83501 -3.1769 1.10888e-14)
(-3.05692 -2.94672 -1.47149e-14)
(-3.25815 -2.7167 -1.38188e-14)
(-3.37848 -2.44834 4.91304e-15)
(-3.45693 -2.16431 8.71613e-14)
(-3.49154 -1.86949 1.2231e-13)
(-3.46521 -1.55908 2.24989e-14)
(-3.39898 -1.24597 8.77531e-15)
(-3.29485 -0.939756 1.0923e-14)
(-3.16187 -0.644898 -2.82899e-14)
(-3.00787 -0.359575 8.53449e-14)
(-3.01226 -0.0946382 7.71867e-14)
(-3.05415 0.184497 -1.83583e-13)
(-3.04886 0.509993 -1.88258e-14)
(-2.94468 0.878558 3.79074e-14)
(-2.70898 1.2396 -5.15717e-14)
(-2.32165 1.5027 4.54535e-14)
(-1.86221 1.554 1.00456e-15)
(-1.51249 1.38738 -7.73684e-15)
(-1.37336 1.0606 -2.80557e-14)
(-1.36382 0.617329 2.63998e-15)
(-1.28599 0.205911 -1.17349e-15)
(-1.2567 -0.0699624 4.86748e-14)
(0.154335 0.0492525 9.12997e-15)
(3.16601 1.10086 -5.62429e-14)
(-3.08804 1.90409 1.65877e-14)
(-7.50128 -0.933607 1.03237e-13)
(1.75997 -6.14184 1.2643e-14)
(8.18309 -6.50072 1.86327e-14)
(11.0595 -4.68824 -2.30152e-14)
(9.44897 -4.25969 3.55799e-14)
(8.04862 -1.75026 1.38108e-14)
(-0.128073 -3.34709 5.87685e-15)
(0.135812 -2.94351 -5.56919e-14)
(0.347756 -2.44045 8.19216e-16)
(0.494892 -2.04412 4.10421e-14)
(0.638139 -1.91088 5.05335e-14)
(0.858337 -1.91401 -2.65254e-14)
(1.07217 -1.84542 -9.64948e-15)
(1.26744 -1.73395 -8.75682e-15)
(1.41909 -1.58391 -1.84827e-14)
(1.51717 -1.40444 2.10937e-15)
(1.58222 -1.22443 2.50829e-14)
(1.60354 -1.04661 5.12237e-14)
(1.57928 -0.873916 4.06432e-15)
(1.52963 -0.716639 -1.16937e-13)
(1.46024 -0.576439 1.94062e-14)
(1.37527 -0.452732 5.56592e-14)
(1.28768 -0.347316 4.06738e-14)
(1.19885 -0.258485 1.87802e-14)
(1.11361 -0.184844 -1.2135e-14)
(1.03239 -0.125069 -2.0804e-15)
(0.956711 -0.0789199 -1.20513e-14)
(0.885792 -0.0462195 -2.1866e-14)
(0.820827 -0.0245292 8.13124e-15)
(0.762417 -0.00788156 7.62172e-15)
(0.713984 0.0109168 5.5788e-16)
(0.672991 0.0347973 1.20794e-15)
(0.630556 0.057259 -1.08733e-15)
(0.584074 0.067132 -2.76948e-16)
(0.539205 0.0566504 -1.07664e-15)
(0.505383 0.0280756 -1.98501e-15)
(0.488475 -0.00504694 4.62042e-15)
(0.496625 -0.0317297 5.35172e-15)
(0.522461 -0.0320293 8.52542e-15)
(0.55531 -0.00298843 6.86705e-15)
(0.573128 0.0551341 -1.30081e-14)
(0.641174 0.100885 1.69366e-15)
(0.525403 0.20386 8.75972e-16)
(0.518667 0.0629086 -3.44718e-15)
(0.445978 -0.0642305 4.58111e-15)
(-0.500076 -3.16883 3.38554e-15)
(-0.804915 -3.19298 -4.34614e-16)
(-1.07778 -3.04238 -1.29331e-14)
(-1.47378 -3.19815 5.45099e-15)
(-1.7718 -3.15406 4.06477e-15)
(-2.07162 -3.05379 3.72017e-15)
(-2.40331 -2.9839 6.957e-15)
(-2.64247 -2.81866 -8.41105e-16)
(-2.85196 -2.62254 2.63857e-15)
(-3.04436 -2.42465 1.64376e-14)
(-3.16284 -2.18828 3.38806e-14)
(-3.24366 -1.93398 3.45355e-14)
(-3.28131 -1.66581 -7.68516e-14)
(-3.25981 -1.38121 -1.32414e-13)
(-3.20088 -1.09385 2.12861e-14)
(-3.10292 -0.811988 1.83832e-13)
(-2.97674 -0.541315 4.17973e-14)
(-2.82534 -0.284447 -1.11205e-13)
(-2.78032 -0.0252477 -2.04754e-14)
(-2.82398 0.239588 2.07054e-14)
(-2.82342 0.52586 -4.64688e-14)
(-2.73357 0.837626 -6.15919e-14)
(-2.53232 1.12718 1.00596e-14)
(-2.21028 1.3201 4.98084e-14)
(-1.81076 1.33618 3.96146e-14)
(-1.44489 1.18825 -4.42187e-15)
(-1.21717 0.923609 2.34977e-14)
(-1.18311 0.582134 4.79545e-15)
(-1.17863 0.28965 4.17258e-14)
(-1.55942 -0.0166168 -4.35528e-14)
(-1.94044 -0.0360771 -1.03556e-13)
(1.9852 1.07704 -5.4232e-14)
(3.38926 1.76273 3.71286e-14)
(-2.12196 -1.59872 4.21707e-14)
(1.63602 -6.41077 -5.29782e-14)
(6.80397 -6.37611 -4.27571e-14)
(8.87241 -4.15147 2.75477e-14)
(7.58959 -3.71598 9.81793e-15)
(5.82935 -1.14752 -2.49437e-14)
(-0.199809 -2.93594 -8.93434e-15)
(0.0486108 -2.59865 -9.86884e-15)
(0.255431 -2.17952 -9.34317e-15)
(0.410559 -1.87882 -4.14544e-14)
(0.565125 -1.78405 3.58903e-14)
(0.772919 -1.77297 -2.83921e-14)
(0.973791 -1.70279 -2.62466e-14)
(1.15829 -1.59949 5.86611e-14)
(1.30453 -1.4652 -1.94822e-14)
(1.40308 -1.30591 6.02271e-14)
(1.47455 -1.14768 6.41141e-14)
(1.50651 -0.989654 4.47617e-14)
(1.49601 -0.833698 2.13408e-14)
(1.46143 -0.689373 3.9528e-14)
(1.40568 -0.558217 -1.12966e-14)
(1.33192 -0.440213 4.7868e-15)
(1.25341 -0.338304 2.76766e-14)
(1.17111 -0.251356 1.88621e-14)
(1.09044 -0.178697 -2.13762e-15)
(1.01268 -0.119222 -3.77022e-14)
(0.939844 -0.0723681 -8.42475e-15)
(0.870988 -0.0376469 2.80167e-16)
(0.806625 -0.0136533 -1.76024e-14)
(0.746902 0.003367 1.91342e-15)
(0.696565 0.0191033 -4.82188e-16)
(0.654466 0.037174 -1.98841e-15)
(0.613402 0.0541253 2.99602e-16)
(0.570581 0.0619057 3.51338e-17)
(0.529692 0.0534414 -7.63883e-17)
(0.498078 0.0300441 1.64938e-15)
(0.481034 -0.000248675 -4.02982e-15)
(0.485031 -0.0233375 -9.85605e-15)
(0.50874 -0.0252099 6.79471e-15)
(0.539615 -0.000502237 1.70461e-14)
(0.560295 0.0529455 7.87089e-15)
(0.625481 0.0954556 -4.16277e-15)
(0.518145 0.201331 5.41244e-15)
(0.53185 0.0681819 1.44618e-14)
(0.535591 -0.125 7.37696e-15)
(-0.52911 -2.77345 -3.54683e-15)
(-0.799021 -2.79763 1.33684e-15)
(-1.04086 -2.6809 1.13036e-14)
(-1.39855 -2.81753 1.94807e-14)
(-1.66772 -2.77872 -9.15465e-15)
(-1.93968 -2.6934 -1.40741e-15)
(-2.24319 -2.63642 9.70157e-15)
(-2.46409 -2.49525 -6.51337e-15)
(-2.66102 -2.32801 -1.18457e-14)
(-2.84441 -2.15776 -7.80668e-15)
(-2.95894 -1.94895 -3.38518e-14)
(-3.04074 -1.72224 -8.05867e-15)
(-3.08033 -1.4798 7.16195e-14)
(-3.06319 -1.22065 3.68314e-14)
(-3.01033 -0.958447 -4.01141e-15)
(-2.91879 -0.700517 -1.442e-13)
(-2.79972 -0.45293 -4.0566e-14)
(-2.65586 -0.214597 1.38046e-13)
(-2.5587 0.0137365 6.79979e-14)
(-2.59985 0.250166 -3.25533e-14)
(-2.60365 0.49685 -4.71708e-15)
(-2.53124 0.766932 3.29267e-14)
(-2.36499 1.02015 8.34075e-15)
(-2.09941 1.19048 -6.10106e-14)
(-1.76772 1.20873 -1.01075e-13)
(-1.4497 1.09233 3.376e-14)
(-1.2032 0.89236 -4.9051e-15)
(-1.10534 0.635163 -5.88407e-15)
(-1.01982 0.452361 -1.95201e-14)
(-1.1138 0.218907 -3.10276e-14)
(-2.26743 0.0545269 2.74291e-14)
(-0.679887 0.97536 1.23917e-13)
(4.03163 1.63301 1.21956e-14)
(1.52444 -1.72479 -8.6593e-14)
(0.686751 -6.05428 2.2573e-14)
(4.05062 -5.76725 -1.63719e-14)
(6.10824 -3.44119 2.56742e-14)
(5.124 -2.91269 -1.48082e-14)
(3.44577 -0.344268 7.62653e-16)
(-0.253067 -2.57558 9.21459e-15)
(-0.0208691 -2.2953 3.86142e-14)
(0.179756 -1.94529 -7.79478e-14)
(0.337892 -1.71707 -1.83816e-15)
(0.49767 -1.64911 -1.23895e-13)
(0.692817 -1.62849 1.18819e-15)
(0.881642 -1.55903 2.98039e-14)
(1.05635 -1.46425 -1.11014e-13)
(1.19728 -1.34515 1.637e-14)
(1.29558 -1.20443 -1.7237e-14)
(1.37123 -1.0659 -4.43996e-14)
(1.4121 -0.927074 -6.49771e-14)
(1.41336 -0.787738 -7.84059e-17)
(1.39214 -0.656902 4.23119e-14)
(1.34899 -0.535682 2.25234e-14)
(1.28627 -0.424748 -1.84191e-14)
(1.2169 -0.327432 -2.51342e-14)
(1.1418 -0.243346 -4.86079e-15)
(1.06641 -0.172414 1.0976e-14)
(0.992394 -0.113956 3.09664e-14)
(0.922375 -0.0673048 2.95965e-14)
(0.855625 -0.0319006 2.29409e-14)
(0.791992 -0.00675253 -3.05508e-16)
(0.732034 0.0106139 -1.86809e-14)
(0.680786 0.0248341 1.8339e-15)
(0.638007 0.0395665 -3.05153e-15)
(0.597836 0.0534531 -1.4232e-16)
(0.557717 0.060933 5.70574e-16)
(0.520004 0.0561415 1.72519e-16)
(0.490388 0.0390289 -2.38214e-15)
(0.473148 0.0163537 2.06241e-15)
(0.472717 -0.00428761 9.31673e-15)
(0.494362 -0.0080878 -8.43672e-15)
(0.523104 0.0113283 -5.62727e-15)
(0.546149 0.0563689 9.97525e-15)
(0.608137 0.0953919 8.45856e-16)
(0.511351 0.193691 -2.38815e-15)
(0.543676 0.0761885 -4.0078e-15)
(0.609361 -0.12055 -3.9651e-14)
(-0.545103 -2.43047 -1.02143e-15)
(-0.785685 -2.45081 1.0695e-15)
(-1.00169 -2.36019 -1.75092e-15)
(-1.32598 -2.47921 -8.95429e-15)
(-1.57085 -2.44587 1.14575e-14)
(-1.81776 -2.37144 -2.27801e-15)
(-2.09479 -2.32253 -1.27589e-15)
(-2.29976 -2.20258 2.72952e-15)
(-2.48439 -2.05844 -5.18486e-15)
(-2.65873 -1.91032 -3.89252e-14)
(-2.76935 -1.72538 -2.43196e-14)
(-2.85007 -1.52224 -4.14867e-14)
(-2.89095 -1.30327 -2.77479e-14)
(-2.87859 -1.06826 -5.19357e-14)
(-2.83119 -0.829238 -6.22509e-14)
(-2.74673 -0.593363 5.66476e-14)
(-2.63447 -0.366522 -1.16392e-14)
(-2.49838 -0.148958 -1.04558e-13)
(-2.36002 0.0601696 -4.6035e-14)
(-2.40125 0.282744 -3.67426e-14)
(-2.41015 0.501398 -2.25834e-14)
(-2.35335 0.735266 7.00009e-14)
(-2.21713 0.956468 -8.80794e-15)
(-1.99686 1.11298 -2.32007e-14)
(-1.71548 1.1459 5.44199e-15)
(-1.44256 1.06632 -3.01714e-14)
(-1.21741 0.923464 -3.64268e-14)
(-1.09731 0.727966 3.57466e-15)
(-1.01956 0.595087 -8.55826e-15)
(-0.840682 0.460566 2.85379e-14)
(-1.61983 0.258746 1.1617e-14)
(-1.87248 0.912306 -4.57994e-14)
(2.07322 1.43174 -1.31339e-13)
(2.32533 -1.57947 5.25645e-14)
(-1.15799 -5.26031 2.48614e-14)
(-0.271565 -4.76799 7.91466e-14)
(2.57157 -2.63152 8.48473e-14)
(2.73624 -2.07895 3.39898e-14)
(0.855329 0.574629 -7.23663e-15)
(-0.291631 -2.26292 1.92678e-14)
(-0.0732219 -2.02886 -1.55932e-14)