/*--------------------------------*- C++ -*----------------------------------*\
| =========                 |                                                 |
| \\      /  F ield         | OpenFOAM: The Open Source CFD Toolbox           |
|  \\    /   O peration     | Version:  2206                                  |
|   \\  /    A nd           | Website:  www.openfoam.com                      |
|    \\/     M anipulation  |                                                 |
\*---------------------------------------------------------------------------*/
FoamFile
{
    version     2.0;
    format      ascii;
    arch        "LSB;label=32;scalar=64";
    class       volScalarField;
    location    "50";
    object      p;
}
// * * * * * * * * * * * * * * * * * * * * * * * * * * * * * * * * * * * * * //

dimensions      [0 2 -2 0 0 0 0];

internalField   nonuniform List<scalar> 
10720
(
162.682
113.109
52.9046
-10.7771
-74.748
-142.271
-206.254
-264.347
-317.771
-363.534
-402.285
-434.451
-460.106
-479.355
-492.748
-500.205
-502.323
-497.783
-487.105
-469.381
-446.488
-421.449
-401.382
-386.392
-368.587
-343.326
-312.099
-278.9
-247.18
-218.698
-194.075
-170.704
-148.692
-137.095
-138.304
-129.014
-91.358
-40.6443
-10.9591
208.144
247.931
285.516
315.148
331.841
336.628
331.824
315.023
289.07
258.849
228.139
199.426
173.428
150.517
130.759
112.959
96.8298
81.6718
67.0793
52.3373
37.3813
21.8638
6.01604
-9.54011
-22.4891
-31.7431
-38.7702
-43.9995
-47.424
-49.1675
-49.3066
-47.8309
-44.6432
-39.6312
-32.7719
-23.5367
-11.3663
7.1322
37.961
193.804
156.502
112.727
63.9255
11.5667
-44.0524
-100.32
-155.315
-208.045
-256.813
-300.878
-339.732
-372.973
-400.543
-422.34
-437.968
-447.171
-449.703
-446.018
-435.946
-421.026
-404.124
-390.773
-380.751
-366.172
-342.151
-311.343
-278.448
-246.874
-218.441
-193.895
-170.627
-148.553
-136.787
-138.066
-129.031
-91.5054
-40.7062
-11.303
225.953
255.12
282.15
304.68
319.006
324.449
320.686
307.581
287.445
263.057
236.887
210.883
186.131
163.286
142.624
123.714
106.316
89.9998
74.3828
58.9296
43.4687
27.7551
11.9647
-3.2907
-16.2013
-25.7707
-33.0874
-38.8293
-43.0631
-45.6355
-46.447
-45.4944
-42.7298
-38.0755
-31.5151
-22.5191
-10.5418
7.87521
37.4338
191.654
158.555
119.52
74.9856
26.7821
-24.7787
-78.2396
-131.541
-183.246
-232.114
-276.841
-316.756
-351.367
-380.322
-403.054
-419.488
-429.727
-433.712
-431.608
-423.543
-410.662
-395.229
-381.377
-370.298
-356.673
-335.297
-307.156
-276.116
-245.625
-217.712
-193.419
-170.349
-148.237
-136.287
-137.775
-129.111
-91.7399
-40.8163
-11.1573
220.125
245.934
269.571
289.11
301.88
307.6
305.664
295.885
279.684
258.855
235.406
211.187
187.464
165.033
144.329
125.283
107.677
91.1899
75.4649
60.0645
44.7502
29.3349
13.9369
-0.920438
-13.8179
-23.7723
-31.4281
-37.3568
-41.6197
-44.1274
-44.8833
-43.9536
-41.31
-36.8512
-30.5131
-21.7294
-9.91921
8.30427
36.672
188.392
160.396
127.185
89.3654
48.2219
3.59861
-43.1996
-90.7195
-137.843
-183.396
-226.258
-265.64
-300.871
-331.405
-356.682
-376.41
-390.653
-399.051
-401.576
-398.376
-390.315
-379.16
-367.82
-357.454
-344.671
-325.527
-300.29
-271.796
-243.078
-216.247
-192.503
-169.713
-147.735
-135.86
-137.688
-129.278
-92.0294
-41.0003
-10.9775
212.495
234.321
254.594
271.673
283.338
289.305
288.851
281.754
269.014
251.918
232.026
210.848
189.469
168.655
148.896
130.313
112.819
96.2394
80.326
64.7681
49.3549
33.9525
18.6512
3.91162
-9.10795
-19.467
-27.5224
-33.8039
-38.4248
-41.3363
-42.5207
-42.003
-39.7357
-35.6135
-29.5647
-21.0186
-9.39528
8.57787
35.8331
180.304
155.559
126.089
92.4212
55.763
15.6445
-26.8543
-70.5014
-114.47
-157.682
-199.1
-237.91
-273.334
-304.697
-331.382
-352.949
-369.026
-379.377
-383.857
-382.724
-376.745
-367.45
-357.172
-347.02
-334.563
-316.559
-293.086
-266.584
-239.571
-213.993
-191.015
-168.688
-147.109
-135.59
-137.783
-129.473
-92.347
-41.3203
-10.958
201.644
220.882
238.889
254.221
265.069
271.211
271.913
266.943
256.989
242.969
226.073
207.525
188.234
168.921
150.112
132.057
114.807
98.3054
82.405
66.8927
51.5876
36.3821
21.3459
6.87494
-6.09189
-16.6888
-25.0464
-31.5984
-36.4546
-39.5672
-40.9053
-40.516
-38.3821
-34.4206
-28.5545
-20.1977
-8.76903
8.8997
34.9701
171.207
149.241
123.03
93.1157
60.6271
24.8956
-13.1161
-52.4141
-92.4125
-132.182
-170.855
-207.694
-241.922
-272.834
-299.79
-322.242
-339.73
-352.104
-359.229
-361.227
-358.644
-352.612
-344.804
-336.082
-324.677
-307.996
-286.096
-261.252
-235.75
-211.318
-189.082
-167.352
-146.411
-135.401
-137.899
-129.563
-92.6061
-41.7306
-10.9842
190.201
207.308
223.488
237.455
247.657
253.9
255.466
252.133
244.402
232.956
218.726
202.708
185.636
168.13
150.695
133.618
117.027
100.951
85.3221
70.0108
54.8874
39.8815
25.0658
10.7965
-2.13885
-12.9516
-21.6046
-28.4273
-33.5313
-36.8872
-38.4807
-38.3679
-36.5382
-32.8985
-27.347
-19.2768
-8.11902
9.18555
34.0385
161.462
141.67
118.024
91.0527
61.8589
29.6426
-4.74748
-40.4558
-77.0994
-113.877
-150.065
-185.028
-218.022
-248.354
-275.38
-298.497
-317.209
-331.146
-340.108
-344.098
-343.579
-339.5
-333.168
-325.339
-314.795
-299.454
-279.219
-256.017
-231.945
-208.576
-186.99
-165.901
-145.772
-135.274
-137.818
-129.361
-92.6981
-42.1724
-11.0007
178.622
194.063
208.803
221.678
231.339
237.619
239.832
237.762
231.798
222.46
210.493
196.703
181.676
165.924
149.898
133.883
118.053
102.501
87.2308
72.1862
57.2971
42.5353
27.9835
13.9612
1.12938
-9.80451
-18.6879
-25.7507
-31.0959
-34.7039
-36.557
-36.7001
-35.1209
-31.7241
-26.399
-18.5343
-7.58824
9.36183
33.0409
151.743
133.76
112.272
87.7953
61.4114
32.2518
1.08726
-31.3364
-64.7731
-98.553
-132.066
-164.79
-196.063
-225.239
-251.688
-274.806
-294.04
-308.984
-319.446
-325.379
-327.072
-325.192
-320.664
-314.072
-304.617
-290.72
-272.23
-250.742
-228.135
-205.85
-184.92
-164.478
-145.212
-135.083
-137.333
-128.694
-92.5253
-42.5613
-10.9131
167.379
181.451
195
206.969
216.16
222.424
225.114
224.02
219.457
211.842
201.78
189.943
176.792
162.744
148.181
133.359
118.464
103.626
88.8954
74.273
59.7402
45.3078
31.0706
17.3201
4.62665
-6.37457
-15.4543
-22.7462
-28.3324
-32.1935
-34.3047
-34.7042
-33.3839
-30.2481
-25.1754
-17.5547
-6.87236
9.64115
32.1414
142.268
125.798
106.12
83.7357
59.7104
33.1474
4.74576
-24.8247
-55.4288
-86.4911
-117.51
-148.071
-177.589
-205.482
-231.166
-254.047
-273.563
-289.269
-300.885
-308.284
-311.617
-311.393
-308.308
-302.829
-294.434
-281.921
-265.114
-245.328
-224.205
-203.046
-182.865
-163.089
-144.643
-134.679
-136.168
-127.319
-91.9735
-42.8504
-10.6903
156.633
169.565
182.112
193.315
202.083
208.289
211.33
210.994
207.546
201.335
192.868
182.71
171.232
158.763
145.62
132.015
118.125
104.092
89.9961
75.8803
61.7715
47.7156
33.8205
20.3592
7.83222
-3.18779
-12.4228
-19.92
-25.733
-29.8382
-32.2033
-32.8543
-31.7825
-28.8901
-24.0494
-16.6555
-6.23072
9.82907
31.2267
133.195
118.014
99.8849
79.2996
57.2976
32.9783
6.99137
-20.0559
-48.1062
-76.6602
-105.31
-133.727
-161.403
-187.838
-212.498
-234.814
-254.246
-270.324
-282.737
-291.332
-296.129
-297.462
-295.808
-291.516
-284.246
-273.102
-257.916
-239.766
-220.091
-200.049
-180.68
-161.675
-143.903
-133.828
-134.154
-125.029
-90.8943
-42.9331
-10.2383
146.472
158.433
170.119
180.661
189.042
195.156
198.453
198.705
196.146
191.083
183.947
175.224
165.219
154.191
142.396
130.003
117.165
104.017
90.6529
77.1423
63.5449
49.9334
36.4298
23.2922
10.9721
-0.00951316
-9.34552
-17.0108
-23.0242
-27.3548
-29.9602
-30.8538
-30.0263
-27.3793
-22.7785
-15.633
-5.50346
10.034
30.3424
124.583
110.517
93.7286
74.6979
54.4464
32.076
8.19703
-16.6351
-42.409
-68.6936
-95.1568
-121.545
-147.421
-172.356
-195.878
-217.468
-236.607
-252.833
-265.781
-275.275
-281.223
-283.83
-283.422
-280.247
-274.082
-264.261
-250.622
-234.031
-215.749
-196.817
-178.245
-160.058
-142.962
-132.536
-131.312
-121.756
-89.1692
-42.7309
-9.5601
136.919
148.041
158.977
168.937
176.959
182.958
186.431
187.14
185.294
181.17
175.144
167.644
158.923
149.188
138.646
127.422
115.637
103.411
90.8376
77.9994
64.9763
51.8625
38.7887
26.003
13.9234
3.02819
-6.36118
-14.1605
-20.3525
-24.8947
-27.7343
-28.8698
-28.2874
-25.8869
-21.5299
-14.6424
-4.82404
10.1555
29.4082
116.458
103.369
87.7556
70.0878
51.3643
30.7029
8.68054
-14.1877
-37.9279
-62.1591
-86.6084
-111.084
-135.214
-158.64
-180.947
-201.666
-220.32
-236.459
-249.691
-259.829
-266.701
-270.397
-271.112
-269.004
-263.918
-255.361
-243.185
-228.076
-211.134
-193.312
-175.541
-158.135
-141.738
-130.886
-127.932
-117.773
-86.8133
-42.181
-8.68561
127.972
138.358
148.632
158.067
165.755
171.621
175.207
176.271
174.998
171.645
166.546
160.085
152.478
143.893
134.497
124.377
113.622
102.332
90.5877
78.4754
66.085
53.5224
40.9217
28.5245
16.7236
5.96479
-3.42679
-11.3201
-17.6623
-22.3961
-25.457
-26.8276
-26.4885
-24.3372
-20.2302
-13.6167
-4.1379
10.2389
28.4345
108.824
96.5966
82.023
65.5601
48.1845
29.033
8.65408
-12.4687
-34.3895
-56.7703
-79.3788
-102.077
-124.548
-146.493
-167.56
-187.33
-205.368
-221.25
-234.574
-245.129
-252.701
-257.282
-258.963
-257.83
-253.766
-246.398
-235.595
-221.896
-206.248
-189.532
-172.583
-155.898
-140.234
-129.071
-124.336
-113.443
-84.0398
-41.3426
-7.80567
119.605
129.342
139.022
147.981
155.351
161.075
164.726
166.061
165.249
162.531
158.208
152.629
145.986
138.416
130.055
120.96
111.192
100.827
89.9299
78.5773
66.8612
54.8907
42.8012
30.8262
19.3394
8.76087
-0.585614
-8.53413
-14.9983
-19.9034
-23.173
-24.7728
-24.6748
-22.7738
-18.9222
-12.5947
-3.47006
10.2732
27.422
101.665
90.2081
76.5631
61.1755
44.9984
27.1915
8.27556
-11.2889
-31.5787
-52.2871
-73.2168
-94.2696
-115.178
-135.695
-155.524
-174.3
-191.625
-207.109
-220.358
-231.137
-239.217
-244.505
-247.012
-246.762
-243.653
-237.399
-227.884
-215.526
-201.131
-185.497
-169.405
-153.441
-138.437
-127.077
-120.784
-109.123
-81.0656
-40.2927
-7.05535
111.791
120.946
130.091
138.61
145.679
151.251
154.93
156.471
156.031
153.838
150.165
145.336
139.524
132.845
125.413
117.259
108.422
98.9545
88.9018
78.3262
67.3134
55.9692
44.4255
32.9058
21.7686
11.4137
2.15965
-5.80258
-12.3564
-17.4084
-20.8694
-22.6884
-22.8269
-21.177
-17.5846
-11.5555
-2.80784
10.2744
26.3882
94.9631
84.199
71.3903
56.9699
41.8669
25.263
7.6597
-10.5084
-29.3294
-48.5227
-67.9216
-87.4588
-106.908
-126.067
-144.685
-162.447
-178.999
-193.983
-207.026
-217.869
-226.286
-232.117
-235.312
-235.845
-233.619
-228.404
-220.093
-209.01
-195.828
-181.258
-166.043
-150.818
-136.434
-124.944
-117.319
-104.952
-78.0694
-39.1349
-6.5193
104.497
113.125
121.781
129.893
136.675
142.089
145.766
147.461
147.32
145.56
142.436
138.245
133.15
127.252
120.647
113.351
105.381
96.7689
87.5413
77.7441
67.4505
56.7579
45.7886
34.7539
23.9984
13.9072
4.78985
-3.14508
-9.75559
-14.929
-18.5633
-20.5907
-20.9605
-19.5616
-16.2345
-10.5173
-2.16059
10.2347
25.3317
88.6928
78.5587
66.5083
52.965
38.8294
23.3117
6.89129
-10.0185
-27.5124
-45.3324
-63.3364
-81.4807
-99.5713
-117.445
-134.894
-151.645
-167.389
-181.799
-194.529
-205.305
-213.911
-220.14
-223.895
-225.111
-223.687
-219.433
-212.247
-202.372
-190.36
-176.841
-162.522
-148.054
-134.221
-122.624
-113.948
-100.965
-75.0669
-37.8948
-6.17771
97.6896
105.837
114.044
121.777
128.284
133.534
137.186
138.993
139.093
137.694
135.031
131.385
126.908
121.693
115.822
109.3
102.129
94.3228
85.8902
76.8601
67.2896
57.2628
46.8893
36.3656
26.0233
16.2324
7.29394
-0.573184
-7.2059
-12.4732
-16.26
-18.4823
-19.0766
-17.928
-14.8695
-9.47585
-1.53206
10.1573
24.2493
82.8311
73.2717
61.9135
49.1704
35.9129
21.38
6.03046
-9.73904
-26.0302
-42.6039
-59.3351
-76.1974
-93.0283
-109.694
-126.025
-141.786
-156.705
-170.493
-182.829
-193.433
-202.101
-208.599
-212.795
-214.593
-213.887
-210.511
-204.367
-195.627
-184.741
-172.26
-158.841
-145.123
-131.841
-120.208
-110.627
-97.0724
-72.0399
-36.5954
-6.0308
91.3349
99.041
106.833
114.21
120.454
125.539
129.146
131.032
131.324
130.224
127.951
124.771
120.829
116.21
110.989
105.162
98.7224
91.6674
83.9912
75.7057
66.8513
57.4953
47.7315
37.7393
27.8364
18.3795
9.65924
1.89916
-4.72077
-10.0533
-13.9702
-16.3722
-17.1821
-16.2812
-13.4972
-8.43996
-0.920632
10.0438
23.1421
77.3529
68.3216
57.6002
45.5892
33.1337
19.4981
5.12456
-9.60964
-24.8059
-40.2432
-55.81
-71.4966
-87.1612
-102.699
-117.967
-132.767
-146.864
-159.998
-171.879
-182.227
-190.851
-197.507
-202.034
-204.316
-204.243
-201.662
-196.472
-188.792
-178.979
-167.509
-154.981
-142.003
-129.241
-117.626
-107.332
-93.2423
-68.9269
-35.2566
-6.00682
85.4012
92.6998
100.105
107.149
113.139
118.057
121.605
123.542
123.989
123.137
121.195
118.414
114.935
110.838
106.19
100.986
95.2093
88.8485
81.8842
74.3129
66.1579
57.4689
48.3218
38.8764
29.4351
20.3415
11.8751
4.25968
-2.3128
-7.68097
-11.704
-14.2685
-15.2837
-14.6276
-12.1201
-7.4089
-0.33397
9.8968
22.0113
72.2333
63.6899
53.5562
42.2211
30.5007
17.6874
4.20587
-9.58106
-23.779
-38.1782
-52.6796
-67.2848
-81.8715
-96.3549
-110.619
-124.495
-137.782
-150.248
-161.63
-171.664
-180.156
-186.872
-191.633
-194.307
-194.78
-192.91
-188.59
-181.893
-173.095
-162.599
-150.937
-138.683
-126.454
-114.905
-103.97
-89.3781
-65.7995
-33.9468
-6.09235
79.8594
86.7794
93.8255
100.553
106.297
111.05
114.526
116.493
117.061
116.416
114.756
112.319
109.24
105.599
101.458
96.8097
91.6328
85.9087
79.6083
72.7146
65.2345
57.2003
48.6684
39.7797
30.8183
22.1135
13.9325
6.49719
0.00603825
-5.36756
-9.4717
-12.1797
-13.3881
-12.9711
-10.7445
-6.38987
0.232366
9.71954
20.8642
67.4496
59.3602
49.7709
39.061
28.0182
15.9617
3.30015
-9.62019
-22.9029
-36.351
-49.8742
-63.4841
-77.0728
-90.5738
-103.894
-116.889
-129.386
-141.182
-152.039
-161.71
-170.002
-176.697
-181.605
-184.584
-185.519
-184.276
-180.741
-174.947
-167.101
-157.532
-146.711
-135.161
-123.428
-111.941
-100.511
-85.5379
-62.7064
-32.7116
-6.20267
74.682
81.2498
87.9583
94.3857
99.8931
104.48
107.876
109.854
110.518
110.046
108.626
106.485
103.755
100.513
96.8197
92.666
88.0296
82.8862
77.2
70.9427
64.1073
56.7093
48.7858
40.4569
31.9874
23.6916
15.8242
8.60101
2.22382
-3.12521
-7.28466
-10.1161
-11.5042
-11.3199
-9.37428
-5.38207
0.769099
9.51338
19.7018
62.9798
55.313
46.2318
36.1029
25.6875
14.3295
2.42368
-9.69805
-22.1401
-34.7141
-47.3394
-60.032
-72.699
-85.2863
-97.7202
-109.879
-121.613
-132.744
-143.061
-152.334
-160.372
-166.979
-171.958
-175.164
-176.482
-175.784
-172.952
-167.982
-161.022
-152.334
-142.323
-131.455
-120.196
-108.784
-96.9464
-81.7366
-59.7814
-31.5665
-6.2537
69.8449
76.0822
82.4731
88.6137
93.8934
98.3164
101.626
103.601
104.338
104.01
102.795
100.91
98.4847
95.5928
92.2941
88.5807
84.4299
79.8142
74.6928
69.0287
62.8034
56.017
48.6889
40.9167
32.946
25.0749
17.5447
10.5625
4.33023
-0.964885
-5.15321
-8.08683
-9.63923
-9.67897
-8.01571
-4.39326
1.28261
9.2836
18.5346
58.8038
51.533
42.9254
33.3393
23.506
12.7967
1.59062
-9.7954
-21.4604
-33.2299
-45.0274
-56.875
-68.6886
-80.4271
-92.0319
-103.398
-114.4
-124.881
-134.652
-143.504
-151.249
-157.712
-162.697
-166.057
-167.684
-167.453
-165.24
-161.016
-154.871
-147.013
-137.777
-127.561
-116.734
-105.412
-93.3583
-78.1081
-57.012
-30.4065
-6.1228
65.3238
71.251
77.3402
83.2083
88.2681
92.5294
95.7476
97.708
98.5002
98.2919
97.2529
95.5898
93.4297
90.846
87.8965
84.5754
80.8596
76.7212
72.116
67.0015
61.3492
55.1456
48.3935
41.17
33.7001
26.2648
19.0903
12.3743
6.31499
1.1022
-3.08907
-6.10277
-7.8036
-8.05727
-6.67356
-3.42303
1.76349
9.03182
17.3649
54.902
48.0021
39.8398
30.7616
21.4707
11.3647
0.808012
-9.89486
-20.8431
-31.8683
-42.9018
-53.9679
-64.9916
-75.9415
-86.771
-97.3911
-107.694
-117.544
-126.772
-135.189
-142.611
-148.885
-153.821
-157.273
-159.139
-159.3
-157.63
-154.073
-148.678
-141.594
-133.093
-123.497
-113.099
-101.93
-89.7936
-74.6252
-54.401
-29.1063
-5.75163
61.0969
66.7324
72.5362
78.1424
82.991
87.0935
90.2162
92.1519
92.9838
92.8754
91.9872
90.5174
88.5902
86.2783
83.6377
80.6651
77.339
73.6312
69.4961
64.8879
59.7698
54.1173
47.918
41.2303
34.2579
27.264
20.4597
14.0307
8.16985
3.06634
-1.10225
-4.17357
-6.00535
-6.46105
-5.35449
-2.4787
2.21993
8.76424
16.2051
51.2567
44.7064
36.9622
28.361
19.5767
10.0346
0.0827341
-9.98686
-20.269
-30.6061
-40.9325
-51.2754
-61.5669
-71.7833
-81.8885
-91.8066
-101.446
-110.687
-119.38
-127.356
-134.436
-140.486
-145.325
-148.815
-150.856
-151.34
-150.137
-147.172
-142.456
-136.088
-128.277
-119.271
-109.3
-98.3506
-86.2958
-71.306
-51.8073
-27.5614
-5.12334
57.1446
62.5044
68.0366
73.394
78.038
81.9832
85.0087
86.9116
87.7717
87.7458
86.9874
85.686
83.9635
81.8911
79.5246
76.8624
73.8849
70.5647
66.8568
62.7124
58.0894
52.9541
47.2816
41.1121
34.6292
28.0774
21.6527
15.5279
9.88756
4.91743
0.796474
-2.31033
-4.25525
-4.90009
-4.06383
-1.56038
2.6436
8.48177
15.0573
47.8504
41.6299
34.2808
26.128
17.8199
8.80411
-0.582452
-10.0608
-19.7249
-29.4227
-39.0936
-48.7654
-58.3781
-67.9131
-77.342
-86.6008
-95.6111
-104.268
-112.44
-119.974
-126.7
-132.5
-137.205
-140.684
-142.845
-143.588
-142.783
-140.338
-136.233
-130.523
-123.355
-114.919
-105.395
-94.7327
-82.8293
-68.0254
-49.1968
-25.7664
-4.31099
53.4485
58.5471
63.8215
68.9391
73.3859
77.1776
80.1039
81.9685
82.846
82.888
82.2413
81.0876
79.5457
77.6856
75.5623
73.1763
70.5102
67.5388
64.2175
60.4963
56.3297
51.6765
46.5019
40.8302
34.8246
28.7118
22.6717
16.8638
11.4626
6.64831
2.59794
-0.522375
-2.56161
-3.38135
-2.80825
-0.674093
3.04287
8.19144
13.9359
44.6682
38.7602
31.7837
24.0541
16.1923
7.67187
-1.18568
-10.1132
-19.2002
-28.3031
-37.3648
-46.4136
-55.3949
-64.2961
-73.0939
-81.734
-90.1495
-98.2497
-105.915
-113.012
-119.381
-124.912
-129.453
-132.88
-135.111
-136.054
-135.581
-133.587
-130.025
-124.912
-118.346
-110.458
-101.389
-91.0487
-79.3589
-64.7617
-46.4903
-23.7858
-3.38555
49.9915
54.8424
59.87
64.7585
69.0148
72.6558
75.4825
77.3042
78.1906
78.2886
77.7383
76.7141
75.3317
73.6598
71.7528
69.6127
67.2255
64.5673
61.5952
58.2591
54.511
50.3048
45.5975
40.3996
34.8561
29.175
23.5201
18.0376
12.8905
8.25113
4.2926
1.18
-0.934857
-1.91438
-1.59399
0.179118
3.41004
7.89412
12.8421
41.6955
36.0829
29.4602
22.13
14.6899
6.6337
-1.72747
-10.1383
-18.6869
-27.2349
-35.7294
-44.1985
-52.5931
-60.9034
-69.1123
-77.1725
-85.0269
-92.5964
-99.7752
-106.443
-112.454
-117.704
-122.057
-125.4
-127.658
-128.749
-128.548
-126.94
-123.858
-119.286
-113.279
-105.919
-97.3068
-87.3079
-75.8412
-61.4533
-43.7619
-21.7474
-2.41165
46.7576
51.373
56.166
60.8339
64.9063
68.401
71.127
72.9016
73.79
73.9338
73.4671
72.5569
71.3157
69.8113
68.0967
66.1769
64.0391
61.6622
59.0043
56.0172
52.6514
48.8578
44.5864
39.8371
34.7369
29.4762
24.2034
19.0509
14.169
9.72084
5.87323
2.78847
0.616799
-0.506263
-0.426743
0.994544
3.75371
7.59692
11.7904
38.9187
33.5875
27.299
20.3476
13.304
5.68694
-2.20759
-10.1355
-18.1792
-26.2088
-34.1741
-42.1035
-49.9508
-57.7109
-65.3692
-72.8858
-80.2119
-87.2778
-93.9897
-100.24
-105.895
-110.857
-115.006
-118.237
-120.486
-121.68
-121.695
-120.414
-117.751
-113.665
-108.173
-101.314
-93.1468
-83.4905
-72.2786
-58.1565
-41.0393
-19.7839
-1.39015
43.7322
48.124
52.6923
57.1492
61.0437
64.395
67.0213
68.7458
69.6302
69.8113
69.4171
68.6075
67.4923
66.1369
64.5946
62.8711
60.9567
58.8314
56.4565
53.7844
50.7666
47.352
43.4856
39.1577
34.4799
29.6254
24.7279
19.9058
15.2967
11.0527
7.33288
4.29393
2.08369
0.833666
0.687042
1.76947
4.06738
7.3002
10.7809
36.3251
31.2608
25.2907
18.6981
12.0304
4.8259
-2.62876
-10.1014
-17.6728
-25.2174
-32.6877
-40.113
-47.4505
-54.6963
-61.8405
-68.8482
-75.677
-82.266
-88.532
-94.3779
-99.6837
-104.355
-108.288
-111.388
-113.597
-114.852
-115.036
-114.025
-111.725
-108.074
-103.055
-96.667
-88.93
-79.6265
-68.6968
-54.9113
-38.4383
-18.0035
-0.334243
40.9024
45.0807
49.4347
53.6879
57.4112
60.6231
63.15
64.822
65.6977
65.9089
65.5776
64.8571
63.8541
62.6324
61.2436
59.6961
57.9816
56.0818
53.9605
51.5729
48.8711
45.8028
42.3102
38.3764
34.0982
29.6332
25.1011
20.6068
16.2743
12.2443
8.66627
5.69032
3.45901
2.09937
1.74232
2.50141
4.35866
7.01104
9.82745
33.9036
29.0935
23.4255
17.1737
10.8607
4.04803
-2.99213
-10.0376
-17.1642
-24.2538
-31.2613
-38.2152
-45.0761
-51.842
-58.5054
-65.0361
-71.3975
-77.5356
-83.3772
-88.8343
-93.7989
-98.1802
-101.89
-104.842
-106.986
-108.268
-108.577
-107.789
-105.8
-102.532
-97.9425
-91.9948
-84.6729
-75.7317
-65.1432
-51.791
-35.9855
-16.4602
0.700048
38.2553
42.23
46.3783
50.4371
53.9944
57.0699
59.4992
61.1172
61.9803
62.2152
61.9387
61.2975
60.3944
59.2926
58.0416
56.6516
55.1159
53.4177
51.5239
49.3923
46.9762
44.2232
41.0748
37.5075
33.6053
29.5111
25.3316
21.1586
17.1033
13.2937
9.86909
6.97066
4.73482
3.28239
2.73275
3.18649
4.62173
6.72906
8.9288
31.6428
27.0745
21.6945
15.7663
9.79048
3.34691
-3.30138
-9.94305
-16.6522
-23.3148
-29.8882
-36.4008
-42.8159
-49.1328
-55.3464
-61.43
-67.3523
-73.0651
-78.5032
-83.5878
-88.2213
-92.3172
-95.8004
-98.5927
-100.652
-101.931
-102.328
-101.718
-99.9929
-97.0626
-92.8622
-87.3246
-80.4084
-71.8514
-61.6541
-48.8216
-33.7365
-15.1547
1.61655
35.7795
39.5598
43.5117
47.3824
50.7799
53.7234
56.0554
57.6188
58.466
58.7195
58.4905
57.9197
57.1066
56.1119
54.9846
53.7355
52.3597
50.8421
49.1522
47.2506
45.0918
42.6258
39.7928
36.5645
33.014
29.2702
25.4281
21.5677
17.787
14.2015
10.9388
8.13098
5.90628
4.37841
3.6548
3.82395
4.86323
6.46141
8.0972
29.5327
25.1952
20.0888
14.4687
8.81153
2.71945
-3.55866
-9.82067
-16.1358
-22.3967
-28.563
-34.6618
-40.6595
-46.5559
-52.3484
-58.0132
-63.5227
-68.8345
-73.8904
-78.6194
-82.9331
-86.7502
-90.0055
-92.6302
-94.5886
-95.8418
-96.2941
-95.8243
-94.3203
-91.6843
-87.8343
-82.6805
-76.1617
-68.0079
-58.2497
-46.0089
-31.6434
-14.0549
2.32312
33.4639
37.0588
40.8217
44.5125
47.7553
50.57
52.8073
54.3152
55.1439
55.4113
55.2238
54.7159
53.9832
53.0848
52.0683
50.9457
49.7129
48.357
46.8499
45.1538
43.2274
41.0211
38.4762
35.5605
32.3367
28.922
25.4004
21.8409
18.3293
14.9683
11.8738
9.16717
6.9676
5.38083
4.50279
4.40949
5.07818
6.20682
7.32854
27.5633
23.4454
18.6006
13.2733
7.92003
2.15951
-3.76776
-9.66966
-15.6142
-21.497
-27.2809
-32.9916
-38.5979
-44.1009
-49.4986
-54.7706
-59.8923
-64.8267
-69.5211
-73.9114
-77.9182
-81.4642
-84.4937
-86.9462
-88.7923
-90.0002
-90.4813
-90.1179
-88.7981
-86.4181
-82.8844
-78.0902
-71.9625
-64.2319
-54.938
-43.3312
-29.6898
-13.1028
2.79523
31.2986
34.716
38.2984
41.8151
44.9092
47.5995
49.7433
51.1953
52.0035
52.281
52.1294
51.6774
51.0168
50.205
49.2881
48.2789
47.1743
45.9629
44.619
43.1079
41.39
39.4185
37.1355
34.5061
31.5848
28.4772
25.2581
21.9861
18.7357
15.5973
12.6746
10.0778
7.9162
6.287
5.27469
4.94349
5.27232
5.97139
6.63247
25.7258
21.8179
17.2216
12.1736
7.10804
1.66381
-3.93124
-9.49419
-15.0876
-20.6143
-26.0384
-31.3845
-36.6237
-41.7578
-46.786
-51.6896
-56.4475
-61.0267
-65.3795
-69.4484
-73.1614
-76.4455
-79.2532
-81.5315
-83.2575
-84.4056
-84.8934
-84.6082
-83.4395
-81.2816
-78.0328
-73.5767
-67.831
-60.5353
-51.7195
-40.7643
-27.8155
-12.2499
3.04552
29.2736
32.5214
35.9302
39.2807
42.2308
44.8002
46.8531
48.2495
49.0353
49.3194
49.1989
48.7964
48.2005
47.4666
46.6394
45.7319
44.742
43.6601
42.4621
41.1163
39.5855
37.8256
35.7794
33.4116
30.7689
27.9469
25.0111
22.0118
19.0127
16.0922
13.3423
10.8618
8.74909
7.09257
5.96606
5.42192
5.44105
5.75238
6.00255
24.0113
20.3032
15.945
11.1628
6.37185
1.22641
-4.05354
-9.29427
-14.5572
-19.7481
-24.8334
-29.8371
-34.7318
-39.5198
-44.2011
-48.7594
-53.1757
-57.4207
-61.4516
-65.2161
-68.6489
-71.6816
-74.2737
-76.3786
-77.9792
-79.0561
-79.5334
-79.3033
-78.2579
-76.2923
-73.3016
-69.1634
-63.7894
-56.9359
-48.6028
-38.2995
-26.0403
-11.4647
3.10737
27.3801
30.4653
33.7084
36.8981
39.71
42.1628
44.1265
45.4678
46.23
46.5177
46.424
46.0655
45.5278
44.8638
44.1177
43.301
42.4144
41.4475
40.3803
39.1815
37.8189
36.2482
34.4163
32.2863
29.8993
27.341
24.6694
21.9268
19.1673
16.4584
13.8804
11.5204
9.46644
7.7972
6.57652
5.84604
5.58914
5.5546
5.44585
22.4118
18.8951
14.7633
10.2348
5.70407
0.844311
-4.13698
-9.07389
-14.0237
-18.8976
-23.6639
-28.3455
-32.9166
-37.38
-41.7362
-45.9705
-50.0663
-53.9973
-57.7249
-61.2018
-64.3686
-67.1611
-69.5447
-71.4789
-72.9523
-73.9504
-74.4035
-74.2092
-73.264
-71.4652
-68.7082
-64.8692
-59.8545
-53.4423
-45.5973
-35.9392
-24.3757
-10.7683
2.9656
25.6093
28.5393
31.6228
34.6591
37.3375
39.6772
41.5546
42.8413
43.5789
43.8679
43.7972
43.4779
42.9918
42.3913
41.7168
40.9831
40.1874
39.3247
38.3726
37.3065
36.0924
34.6919
33.0528
31.1388
28.9852
26.6696
24.2429
21.7404
19.2077
16.702
14.2927
12.0556
10.0681
8.39927
7.1036
6.21285
5.71255
5.37435
4.95364
20.9194
17.5852
13.6703
9.38341
5.10158
0.511497
-4.18599
-8.83397
-13.4883
-18.0631
-22.5288
-26.9073
-31.1744
-35.333
-39.3843
-43.315
-47.1103
-50.7465
-54.1889
-57.3946
-60.3096
-62.8736
-65.0572
-66.8254
-68.1715
-69.0858
-69.5047
-69.3314
-68.4674
-66.8144
-64.2701
-60.7128
-56.0449
-50.0701
-42.7184
-33.7054
-22.876
-10.214
2.57791
23.9534
26.7347
29.666
32.5541
35.1045
37.3353
39.1284
40.3614
41.0737
41.3619
41.3108
41.0263
40.5869
40.0426
39.4335
38.7723
38.0593
37.2876
36.4396
35.4902
34.4097
33.161
31.6948
29.9761
28.035
25.9417
23.7407
21.4616
19.142
16.83
14.5846
12.4712
10.5566
8.90066
7.54892
6.52464
5.81529
5.21505
4.53082
19.5274
16.368
12.6595
8.60349
4.55728
0.225363
-4.20315
-8.57854
-12.9523
-17.2447
-21.4271
-25.5205
-29.502
-33.3746
-37.14
-40.786
-44.2996
-47.6593
-50.834
-53.7844
-56.4618
-58.8098
-60.8027
-62.4106
-63.6313
-64.4599
-64.8379
-64.6742
-63.8762
-62.3513
-60.0011
-56.7097
-52.3764
-46.8305
-39.9785
-31.6105
-21.5517
-9.86035
1.9119
22.4048
25.0444
27.8289
30.5758
33.0027
35.1281
36.8397
38.02
38.7067
38.9923
38.9579
38.7041
38.3064
37.8126
37.2616
36.6655
36.0252
35.3351
34.579
33.7337
32.7719
31.6584
30.3474
28.8047
27.0561
25.1656
23.1721
21.0996
18.9789
16.8499
14.7624
12.7718
10.9349
9.30259
7.91237
6.77995
5.89425
5.07235
4.16696
18.2291
15.236
11.7254
7.88933
4.06843
-0.0196019
-4.1924
-8.30821
-12.4176
-16.4433
-20.3587
-24.1837
-27.8968
-31.5013
-34.9985
-38.3779
-41.6275
-44.7283
-47.6519
-50.3627
-52.8164
-54.961
-56.7733
-58.228
-59.327
-60.0698
-60.4026
-60.2407
-59.497
-58.0858
-55.9143
-52.8744
-48.8647
-43.7382
-37.3897
-29.6679
-20.414
-9.72138
0.99699
20.957
23.4608
26.1056
28.7159
31.0244
33.0484
34.6806
35.8093
36.4703
36.7519
36.7315
36.5049
36.1443
35.6957
35.1962
34.658
34.0824
33.4644
32.7897
32.0368
31.1801
30.1874
29.0151
27.63
26.0555
24.3494
22.5456
20.6632
18.727
16.7701
14.8334
12.9635
11.2079
9.6091
8.19734
6.98193
5.95276
4.94832
3.86503
17.0186
14.185
10.8625
7.2363
3.62875
-0.225858
-4.15627
-8.02722
-11.8855
-15.6594
-19.323
-22.8955
-26.3566
-29.7094
-32.9556
-36.0853
-39.0881
-41.9466
-44.6353
-47.1217
-49.3655
-51.3194
-52.9616
-54.2712
-55.2537
-55.912
-56.1982
-56.0326
-55.3349
-54.026
-52.0203
-49.2182
-45.5215
-40.8036
-34.9582
-27.8763
-19.4353
-9.76667
-0.0905144
19.6034
21.9779
24.4882
26.9685
29.1626
31.0885
32.644
33.7223
34.3574
34.6338
34.6251
34.4226
34.0949
33.6866
33.233
32.7461
32.2276
31.6735
31.0705
30.3993
29.6358
28.7503
27.7013
26.4578
25.0403
23.501
21.8697
20.1613
18.3955
16.599
14.8055
13.053
11.381
9.82404
8.40597
7.13064
5.9884
4.83804
3.61336
15.8902
13.2083
10.066
6.63952
3.23594
-0.398534
-4.09841
-7.73636
-11.358
-14.894
-18.3205
-21.6555
-24.8798
-27.9965
-31.0076
-33.9038
-36.6759
-39.3082
-41.7775
-44.0544
-46.1022
-47.8779
-49.3611
-50.5341
-51.406
-51.9833
-52.2229
-52.0508
-51.3931
-50.1778
-48.3272
-45.7509
-42.3566
-38.0356
-32.688
-26.2368
-18.5991
-9.93733
-1.26737
18.3386
20.5893
22.9715
25.3261
27.4107
29.242
30.7229
31.7519
32.3611
32.6313
32.6325
32.4511
32.153
31.7805
31.3677
30.926
30.458
29.9602
29.4205
28.821
28.1399
27.3491
26.4101
25.2932
24.0164
22.6276
21.1522
19.6022
17.9929
16.3455
14.6869
13.0481
11.4609
9.95312
8.54291
7.2297
6.00374
4.74225
3.41329
14.8389
12.3023
9.33099
6.09499
2.88426
-0.539549
-4.02109
-7.43949
-10.8366
-14.1481
-17.3511
-20.4626
-23.4647
-26.3602
-29.1513
-31.8295
-34.3863
-36.8077
-39.0728
-41.1546
-43.02
-44.6299
-45.9654
-47.0111
-47.7795
-48.2799
-48.4746
-48.2951
-47.6737
-46.5455
-44.8409
-42.4794
-39.3765
-35.4394
-30.5788
-24.7417
-17.8774
-10.1811
-2.46829
17.1569
19.2896
21.5484
23.7834
25.7623
27.5021
28.9111
29.8919
30.4754
30.7384
30.7475
30.5848
30.3129
29.9725
29.5958
29.1944
28.7709
28.3225
27.8382
27.3018
26.6932
25.986
25.1445
24.1402
22.9898
21.7356
20.4005
18.9941
17.5282
16.0186
14.4867
12.957
11.4549
10.0022
8.61209
7.28048
5.99723
4.65612
3.25245
13.8595
11.4609
8.65337
5.59828
2.57192
-0.653448
-3.92774
-7.13726
-10.3228
-13.4226
-16.415
-19.3166
-22.1101
-24.7986
-27.384
-29.8586
-32.2151
-34.4404
-36.5156
-38.4166
-40.1129
-41.5696
-42.7685
-43.6969
-44.3687
-44.7975
-44.9506
-44.7645
-44.1771
-43.1308
-41.5645
-39.4077
-36.5847
-33.0171
-28.6286
-23.3853
-17.2594
-10.4631
-3.65906
16.0533
18.073
20.2144
22.3339
24.2115
25.8635
27.2025
28.1363
28.6942
28.9493
28.9647
28.8183
28.5699
28.2579
27.9135
27.5476
27.1634
26.7583
26.3228
25.8416
25.2964
24.6629
23.9075
23.0037
21.9653
20.8312
19.622
18.3454
17.0099
15.6272
14.2136
12.7882
11.3708
9.97807
8.61895
7.28683
5.97084
4.57906
3.13124
12.9476
10.6809
8.02853
5.14583
2.29351
-0.741916
-3.82016
-6.833
-9.81819
-12.7183
-15.5127
-18.2169
-20.815
-23.3097
-25.703
-27.9881
-30.1581
-32.2015
-34.101
-35.8348
-37.3752
-38.6911
-39.765
-40.5851
-41.1686
-41.5324
-41.6478
-41.4569
-40.9025
-39.9342
-38.4994
-36.5375
-33.9824
-30.7686
-26.8329
-22.1565
-16.7275
-10.7656
-4.81314
15.0226
16.9346
18.9631
20.9726
22.7529
24.3202
25.5919
26.4799
27.0121
27.2584
27.2787
27.1465
26.9189
26.6325
26.3167
25.9824
25.6328
25.2658
24.8728
24.44
23.9503
23.3814
22.702
21.8868
20.9478
19.9207
18.8242
17.6643
16.447
15.1805
13.877
12.5508
11.2171
9.88794
8.56876
7.25121
5.92378
4.50675
3.03745
12.0984
9.95684
7.4527
4.73367
2.04762
-0.809129
-3.7013
-6.52725
-9.32409
-12.036
-14.6442
-17.1633
-19.5783
-21.8919
-24.1063
-26.2149
-28.2119
-30.0868
-31.824
-33.4039
-34.8014
-35.9885
-36.9482
-37.6702
-38.1746
-38.4795
-38.5623
-38.369
-37.8472
-36.9535
-35.6441
-33.8677
-31.5679
-28.6906