/*--------------------------------*- C++ -*----------------------------------*\
| =========                 |                                                 |
| \\      /  F ield         | OpenFOAM: The Open Source CFD Toolbox           |
|  \\    /   O peration     | Version:  2206                                  |
|   \\  /    A nd           | Website:  www.openfoam.com                      |
|    \\/     M anipulation  |                                                 |
\*---------------------------------------------------------------------------*/
FoamFile
{
    version     2.0;
    format      ascii;
    arch        "LSB;label=32;scalar=64";
    class       surfaceScalarField;
    location    "50";
    object      phi;
}
// * * * * * * * * * * * * * * * * * * * * * * * * * * * * * * * * * * * * * //

dimensions      [0 3 -1 0 0 0 0];

oriented        oriented;

internalField   nonuniform List<scalar> 
21254
(
-0.150177
0.170839
-0.0206606
0.193542
-0.0227029
0.214549
-0.0210071
0.234051
-0.0195022
0.252846
-0.0187952
0.269055
-0.0162079
0.282847
-0.0137914
0.294748
-0.0119
0.303923
-0.00917403
0.311129
-0.00720497
0.316511
-0.00538173
0.319909
-0.00339786
0.321729
-0.00182033
0.321664
6.57208e-05
0.318861
0.0028032
0.313077
0.00578397
0.303575
0.00950336
0.289666
0.0139094
0.270045
0.0196222
0.243178
0.0268676
0.206753
0.0364268
0.160699
0.046057
0.110548
0.0501538
0.0681441
0.0424095
0.0420634
0.0260965
0.031342
0.0107445
0.0291471
0.00220528
0.0288283
0.000290413
0.0277751
0.000985438
0.0251974
0.00270082
0.0196508
0.00556676
0.013853
0.0058277
0.012376
0.00133291
0.00807879
0.00540643
-0.0176979
0.0250614
-0.0383438
0.0205712
-0.0456318
0.00753504
-0.038176
-0.00705716
0.0256933
-0.0580624
-0.127272
-0.0229054
-0.10314
-0.0241315
-0.074847
-0.0282925
-0.0447949
-0.0300496
-0.0139185
-0.0308721
0.0170783
-0.0309903
0.0476459
-0.0305641
0.0757556
-0.028108
0.100761
-0.0250038
0.122016
-0.0212539
0.139442
-0.0174256
0.153649
-0.0142057
0.165195
-0.0115441
0.174524
-0.00932708
0.182403
-0.00787773
0.189069
-0.00666389
0.194991
-0.00591983
0.200348
-0.00535452
0.205424
-0.00507321
0.210291
-0.00486405
0.215094
-0.00479888
0.219774
-0.00467613
0.224221
-0.00444448
0.227691
-0.00346973
0.230017
-0.00232508
0.231587
-0.00156789
0.232505
-0.000915019
0.233055
-0.000543597
0.233312
-0.000247798
0.233179
0.000133114
0.232433
0.000752331
0.230988
0.00144948
0.228831
0.00216553
0.225987
0.00285431
0.222351
0.00364062
0.217561
0.0047726
0.210436
0.00714953
0.196639
0.0135829
0.17999
0.0169949
-0.137445
0.158361
-0.0415756
0.179957
-0.044299
0.202836
-0.0438859
0.224453
-0.0411187
0.245743
-0.0400851
0.265871
-0.036335
0.28433
-0.0322488
0.301329
-0.0288979
0.316514
-0.024358
0.329902
-0.0205923
0.341526
-0.017006
0.351432
-0.0133035
0.3597
-0.0100881
0.366801
-0.0070345
0.373336
-0.00373104
0.379124
-4.1251e-06
0.384
0.00462878
0.387722
0.0101883
0.389233
0.0181131
0.387439
0.028663
0.379282
0.0445854
0.360469
0.0648715
0.325927
0.0846987
0.276572
0.0917665
0.221418
0.0812543
0.170342
0.0618289
0.130521
0.0420366
0.104105
0.0267078
0.0864108
0.0186659
0.0717095
0.0174398
0.0586256
0.0186584
0.0502244
0.0142457
0.0415454
0.00996607
0.0197359
0.027504
-0.00601472
0.0506673
-0.0156566
0.0302441
-0.0119978
0.0040394
-0.0095637
-0.00909232
0.0239158
-0.0883236
-0.116263
-0.0440867
-0.0935303
-0.0468639
-0.0669229
-0.0548986
-0.0388652
-0.0581049
-0.00911674
-0.0606161
0.0217551
-0.0618586
0.0513274
-0.0601337
0.0784085
-0.0551876
0.102719
-0.0493129
0.124163
-0.0426968
0.142582
-0.0358436
0.158332
-0.0299544
0.171801
-0.0250121
0.183217
-0.0207413
0.193098
-0.0177561
0.201735
-0.0152991
0.209418
-0.0136005
0.21646
-0.0123934
0.223108
-0.0117179
0.229444
-0.0111966
0.235622
-0.0109734
0.241696
-0.0107458
0.247572
-0.0103175
0.252732
-0.00862857
0.256864
-0.00645615
0.26014
-0.00484211
0.262396
-0.00316843
0.263541
-0.00168136
0.263593
-0.000287346
0.262729
0.00100088
0.261212
0.00227932
0.259224
0.00344636
0.256805
0.00459794
0.253946
0.00572549
0.250563
0.00703798
0.246328
0.00899857
0.241097
0.012395
0.231202
0.0232459
0.215682
0.0330127
-0.133748
0.155316
-0.0631429
0.177286
-0.0662677
0.201144
-0.0677443
0.223193
-0.0631665
0.244493
-0.0613843
0.265091
-0.0569309
0.283745
-0.0509012
0.300789
-0.0459404
0.315808
-0.0393762
0.328939
-0.0337237
0.340185
-0.0282513
0.349643
-0.0227622
0.357135
-0.0175797
0.362914
-0.0128132
0.366664
-0.00748082
0.368959
-0.00229919
0.3699
0.0036886
0.370296
0.0097928
0.370651
0.0177583
0.372109
0.0272067
0.375929
0.040766
0.381738
0.0590638
0.384649
0.0817896
0.376388
0.100029
0.352227
0.10542
0.312459
0.101601
0.261413
0.0930828
0.208648
0.0794616
0.164018
0.0632721
0.130001
0.0515007
0.104332
0.0443383
0.0857557
0.0328313
0.0671296
0.0285639
0.0398935
0.0550385
0.0158992
0.0744336
0.00892979
0.0371586
0.0150358
-0.0019997
0.0186745
-0.0127001
0.0355791
-0.103289
-0.112172
-0.0656622
-0.0889189
-0.0701161
-0.061302
-0.0825131
-0.0328299
-0.086574
-0.00322699
-0.0902151
0.0272492
-0.0923307
0.0567163
-0.089599
0.0838295
-0.0822994
0.108309
-0.0737913
0.130052
-0.0644386
0.148881
-0.0546714
0.165024
-0.0460964
0.178876
-0.0388626
0.190755
-0.0326182
0.201004
-0.0280036
0.210011
-0.0243033
0.218044
-0.0216321
0.225384
-0.0197308
0.232231
-0.0185623
0.238742
-0.0177048
0.2451
-0.0173275
0.251291
-0.0169341
0.257182
-0.0162055
0.262435
-0.0138806
0.266735
-0.0107545
0.270215
-0.00832027
0.272944
-0.00589532
0.274956
-0.0036883
0.276328
-0.00165314
0.277065
0.000262613
0.277225
0.00212495
0.276745
0.00392834
0.275636
0.00571326
0.27381
0.00756167
0.27118
0.00966566
0.267343
0.0128116
0.261914
0.0178578
0.251715
0.0333124
0.235428
0.0494495
-0.129729
0.152
-0.0854122
0.174543
-0.0888109
0.199452
-0.0926518
0.222291
-0.0860042
0.244635
-0.0837276
0.26626
-0.078553
0.286242
-0.0708815
0.304518
-0.0642161
0.321206
-0.0560628
0.336069
-0.0485868
0.349215
-0.0413971
0.360617
-0.0341642
0.370275
-0.0272378
0.378178
-0.0207159
0.384579
-0.0138817
0.389274
-0.00699245
0.392228
0.000734983
0.393105
0.00891695
0.392091
0.0187746
0.389332
0.0299666
0.385978
0.0441222
0.384523
0.060521
0.386999
0.0793167
0.391692
0.0953377
0.39295
0.104166
0.384628
0.109929
0.361058
0.116659
0.319448
0.121076
0.264936
0.117781
0.21034
0.106116
0.165501
0.0891828
0.13082
0.0675223
0.0990784
0.0602868
0.0659706
0.0882613
0.0420391
0.0983307
0.0357999
0.0434322
0.0425183
-0.0086158
0.0476965
-0.017588
0.0595846
-0.113165
-0.107689
-0.0877014
-0.0842369
-0.0935656
-0.0558643
-0.110884
-0.026919
-0.115515
0.00302538
-0.120155
0.0338128
-0.123116
0.063601
-0.119385
0.0908005
-0.109498
0.115245
-0.098235
0.137031
-0.086223
0.155961
-0.0736
0.172348
-0.0624826
0.18661
-0.053123
0.19902
-0.045026
0.209942
-0.0389234
0.219597
-0.0339564
0.228335
-0.0303674
0.236326
-0.0277199
0.243817
-0.0260496
0.250937
-0.0248209
0.257792
-0.024179
0.264439
-0.0235771
0.270796
-0.0225587
0.276502
-0.019585
0.281291
-0.0155428
0.285237
-0.0122652
0.288396
-0.00905122
0.290815
-0.00610122
0.292531
-0.00335931
0.293608
-0.000809459
0.294085
0.00165879
0.293968
0.00405474
0.293257
0.00643854
0.291926
0.00890774
0.289836
0.0117691
0.286562
0.0160759
0.281575
0.0228654
0.271535
0.0431536
0.253346
0.0681046
-0.127743
0.150891
-0.108559
0.17434
-0.112258
0.200592
-0.118902
0.224178
-0.10959
0.247423
-0.106969
0.269988
-0.101116
0.290702
-0.0915942
0.309751
-0.0832642
0.327326
-0.0736374
0.342852
-0.0641128
0.356657
-0.0552015
0.368656
-0.0461636
0.379049
-0.0376307
0.387526
-0.0291928
0.3942
-0.0205554
0.399061
-0.0118535
0.402178
-0.00238175
0.403665
0.0074306
0.403385
0.0190555
0.401685
0.0316679
0.398656
0.0471516
0.395028
0.0641498
0.392267
0.082079
0.391753
0.0958538
0.393573
0.10235
0.396107
0.107399
0.39537
0.117396
0.38394
0.132495
0.352851
0.148849
0.3018
0.157203
0.243543
0.147449
0.189766
0.121306
0.141551
0.108485
0.100093
0.129964
0.0738415
0.124406
0.0664748
0.0507441
0.0722775
-0.0143687
0.0777294
-0.0230636
0.0877976
-0.122042
-0.104716
-0.110727
-0.0805676
-0.117712
-0.0509955
-0.140452
-0.0211722
-0.145335
0.00952543
-0.15085
0.0410423
-0.15463
0.0714896
-0.149831
0.0990701
-0.137077
0.123741
-0.122905
0.145732
-0.108213
0.164799
-0.0926657
0.181375
-0.0790567
0.195924
-0.0676704
0.20867
-0.0577707
0.219974
-0.0502257
0.230121
-0.0441003
0.2393
-0.0395447
0.247717
-0.0361341
0.255588
-0.0339189
0.263061
-0.0322901
0.270221
-0.0313363
0.277108
-0.0304604
0.283669
-0.0291171
0.289599
-0.025513
0.29462
-0.0205622
0.298777
-0.0164205
0.302115
-0.0123863
0.30468
-0.00866288
0.306494
-0.00517137
0.307588
-0.00190444
0.308035
0.00121502
0.307893
0.00419777
0.307175
0.00715955
0.305856
0.0102361
0.303902
0.0137158
0.300919
0.0190269
0.296497
0.0273323
0.287704
0.0518733
0.269528
0.0863254
-0.126386
0.150529
-0.1327
0.175151
-0.136879
0.202695
-0.146444
0.227325
-0.134217
0.251454
-0.131096
0.275141
-0.124801
0.296623
-0.113074
0.316653
-0.103294
0.334968
-0.0919517
0.351411
-0.080556
0.366209
-0.0699999
0.379188
-0.0591424
0.390507
-0.04895
0.400134
-0.0388188
0.407925
-0.0283455
0.414131
-0.018059
0.418453
-0.00670248
0.420944
0.00494132
0.421715
0.0182859
0.4207
0.0326846
0.418158
0.0496958
0.414565
0.067746
0.4102
0.0864463
0.405425
0.100632
0.400949
0.10683
0.398105
0.110249
0.398013
0.117496
0.399328
0.131185
0.394729
0.153448
0.371615
0.180332
0.324265
0.194804
0.261283
0.184295
0.196736
0.173019
0.144082
0.182705
0.112602
0.155874
0.102002
0.0613825
0.105263
-0.0175357
0.109399
-0.0269153
0.116918
-0.128028
-0.102392
-0.13472
-0.0773898
-0.142711
-0.0464731
-0.171366
-0.0154815
-0.176323
0.0162855
-0.182613
0.0488524
-0.187195
0.0802145
-0.181191
0.108399
-0.16526
0.133448
-0.147953
0.155681
-0.130446
0.174913
-0.111896
0.191588
-0.09573
0.206285
-0.0823657
0.219282
-0.0707659
0.230892
-0.0618335
0.24139
-0.0545961
0.250956
-0.049108
0.259823
-0.0449988
0.268126
-0.0422185
0.276014
-0.0401746
0.283587
-0.0389051
0.290861
-0.0377301
0.29777
-0.0360225
0.304116
-0.0318571
0.309547
-0.0259914
0.314062
-0.0209346
0.317766
-0.0160877
0.320647
-0.0115403
0.322752
-0.00726839
0.32411
-0.00325783
0.324777
0.000557325
0.324775
0.00420917
0.324112
0.00783623
0.322811
0.0115532
0.320713
0.0158257
0.317527
0.0222042
0.31271
0.0321755
0.303894
0.0605553
0.285495
0.105117
-0.125815
0.151227
-0.158111
0.17691
-0.16256
0.205951
-0.175484
0.23176
-0.160024
0.257027
-0.156359
0.281702
-0.149475
0.304182
-0.135553
0.324936
-0.124046
0.344097
-0.111113
0.361283
-0.0977418
0.376727
-0.0854446
0.390526
-0.0729419
0.402559
-0.0609828
0.412869
-0.0491288
0.421478
-0.0369544
0.428229
-0.0248087
0.433239
-0.0117121
0.436418
0.00176223
0.437847
0.0168585
0.437592
0.0329394
0.435925
0.0513638
0.433198
0.0704739
0.429742
0.0899033
0.425105
0.10527
0.418981
0.112956
0.411841
0.117392
0.405456
0.12388
0.402289
0.13434
0.403247
0.152465
0.402043
0.181572
0.382631
0.214224
0.332834
0.234097
0.262724
0.243112
0.199207
0.246464
0.159728
0.19518
0.143474
0.0775817
0.142286
-0.0163014
0.143442
-0.028104
0.14698
-0.130837
-0.100645
-0.159889
-0.0745592
-0.168796
-0.0421649
-0.203757
-0.00983534
-0.20865
0.0232113
-0.215658
0.057102
-0.221083
0.0895844
-0.213673
0.1186
-0.194275
0.144209
-0.173561
0.166824
-0.153059
0.186278
-0.131349
0.20309
-0.11254
0.217922
-0.0971962
0.231084
-0.083926
0.242906
-0.0736539
0.253668
-0.0653557
0.263584
-0.0590224
0.272805
-0.0542169
0.281486
-0.050897
0.289736
-0.048422
0.297644
-0.04681
0.305223
-0.045306
0.312448
-0.043245
0.319056
-0.0384627
0.324822
-0.0317549
0.329667
-0.0257775
0.333625
-0.0200433
0.336752
-0.0146652
0.339042
-0.00955816
0.340559
-0.00477788
0.341317
-0.000199009
0.341387
0.00413926
0.340778
0.00844638
0.339445
0.0128942
0.337334
0.0179234
0.334052
0.0254499
0.329056
0.0372248
0.320194
0.0693936
0.301901
0.123356
-0.125727
0.152447
-0.184829
0.179491
-0.189602
0.210146
-0.206137
0.237114
-0.186989
0.263578
-0.182821
0.289396
-0.17529
0.312784
-0.158939
0.334558
-0.14582
0.354408
-0.130963
0.372342
-0.115676
0.388615
-0.101719
0.40309
-0.0874164
0.415817
-0.0737102
0.426896
-0.0602065
0.436251
-0.0463094
0.443837
-0.0323934
0.449673
-0.0175465
0.453709
-0.00227192
0.455906
0.0146634
0.45635
0.0324973
0.455304
0.0524123
0.45304
0.0727403
0.449932
0.0930136
0.445907
0.109299
0.440343
0.118523
0.432866
0.124875
0.42396
0.132794
0.415166
0.143139
0.409467
0.158164
0.409709
0.181344
0.409251
0.214687
0.386604
0.256748
0.330374
0.29933
0.264174
0.312746
0.216265
0.243079
0.191973
0.101913
0.184103
-0.00833383
0.180456
-0.0241667
0.178384
-0.12752
-0.0993246
-0.186291
-0.0720629
-0.196054
-0.0379708
-0.237848
-0.00410789
-0.242509
0.0304207
-0.250183
0.0657835
-0.256445
0.0995979
-0.247486
0.129603
-0.224279
0.155928
-0.199885
0.179056
-0.176186
0.198798
-0.15109
0.215772
-0.129512
0.230723
-0.112146
0.244002
-0.0972028
0.255954
-0.0856036
0.266952
-0.0763514
0.277107
-0.0691753
0.286628
-0.0637357
0.295627
-0.0598924
0.30422
-0.0570116
0.312449
-0.0550363
0.320377
-0.0532293
0.327931
-0.0507954
0.334906
-0.0454345
0.341035
-0.037881
0.346239
-0.0309798
0.350543
-0.0243456
0.353982
-0.0181015
0.356545
-0.0121149
0.358274
-0.00650325
0.359232
-0.00115046
0.359428
0.00395115
0.358894
0.00899326
0.357591
0.0142123
0.355401
0.0201232
0.351985
0.0288594
0.346764
0.0424779
0.337667
0.0784168
0.319493
0.141822
-0.126182
0.154271
-0.212916
0.182729
-0.218058
0.215048
-0.238453
0.243349
-0.215289
0.271186
-0.210654
0.29827
-0.202373
0.322764
-0.183432
0.34535
-0.168405
0.366151
-0.151765
0.384789
-0.134314
0.401645
-0.118575
0.416779
-0.10255
0.430199
-0.0871297
0.441926
-0.0719334
0.451947
-0.0563304
0.460275
-0.04072
0.466794
-0.0240656
0.471472
-0.0069494
0.474338
0.0117986
0.475435
0.0314003
0.474996
0.0528526
0.473269
0.0744679
0.47054
0.0957433
0.46688
0.112959
0.461914
0.123491
0.455222
0.131568
0.446703
0.141311
0.436691
0.153138
0.426292
0.16854
0.419067
0.188603
0.418965
0.214796
0.416093
0.259625
0.386862
0.328539
0.332764
0.367112
0.2813
0.294362
0.248056
0.135084
0.231356
0.00842288
0.221046
-0.0138823
0.211448
-0.117463
-0.0983357
-0.214135
-0.0697319
-0.224657
-0.0338477
-0.273726
0.00163329
-0.277987
0.0378339
-0.286381
0.0748507
-0.293459
0.110194
-0.282828
0.141374
-0.255458
0.168549
-0.227059
0.192299
-0.199936
0.212435
-0.171224
0.229632
-0.146707
0.244718
-0.127231
0.258098
-0.11058
0.270173
-0.0976765
0.28129
-0.0874667
0.29167
-0.0795537
0.301422
-0.0734855
0.31069
-0.0691574
0.319582
-0.0659013
0.328154
-0.0636052
0.33637
-0.0614432
0.344235
-0.0586576
0.351551
-0.0527463
0.358053
-0.0443805
0.363586
-0.0365101
0.368219
-0.0289765
0.371926
-0.0218064
0.374756
-0.014947
0.376704
-0.00845345
0.377811
-0.00226014
0.37813
0.00363252
0.377647
0.00947532
0.376363
0.0155034
0.374155
0.022313
0.370653
0.0323221
0.365245
0.0479455
0.356063
0.087595
0.338211
0.159581
-0.126926
0.156585
-0.242572
0.186563
-0.248033
0.220719
-0.272607
0.250445
-0.245012
0.279548
-0.239756
0.308019
-0.23084
0.333605
-0.209017
0.357223
-0.192022
0.378903
-0.173445
0.398298
-0.15371
0.415875
-0.136152
0.431727
-0.118403
0.445722
-0.101124
0.458033
-0.0842438
0.468764
-0.0670605
0.477681
-0.0496362
0.484864
-0.0312468
0.490206
-0.0122896
0.493795
0.00821109
0.495613
0.0295841
0.495712
0.0527563
0.494494
0.0756888
0.492114
0.0981256
0.488695
0.116382
0.483982
0.128207
0.477692
0.137863
0.469879
0.149132
0.460608
0.162415
0.449808
0.179343
0.438275
0.200147
0.430564
0.222512
0.430876
0.259314
0.424799
0.334605
0.39471
0.397294
0.349903
0.339158
0.310405
0.174623
0.283883
0.0350562
0.265324
0.00499463
0.246158
-0.0971862
-0.0976794
-0.243381
-0.0676134
-0.254719
-0.0297722
-0.311567
0.00755912
-0.315314
0.0455098
-0.324329
0.0843949
-0.332343
0.121367
-0.319798
0.153863
-0.287953
0.182051
-0.255246
0.206558
-0.224442
0.22717
-0.191835
0.244647
-0.164182
0.25991
-0.142492
0.273379
-0.124048
0.285542
-0.109837
0.296784
-0.0987072
0.307284
-0.0900517
0.317224
-0.0834225
0.326743
-0.0786742
0.335896
-0.0750508
0.344709
-0.0724149
0.35325
-0.0699805
0.36144
-0.0668438
0.369091
-0.0603933
0.375941
-0.0512271
0.381855
-0.0424221
0.386809
-0.0339271
0.390848
-0.0258428
0.393946
-0.0180403
0.396132
-0.0106355
0.397451
-0.00357543
0.397895
0.00319411
0.397516
0.00986355
0.396272
0.0167625
0.394024
0.0245688
0.390411
0.035931
0.384853
0.0535413
0.375579
0.0968353
0.358086
0.177278
-0.128084
0.159319
-0.273805
0.19087
-0.279582
0.226925
-0.308659
0.25826
-0.276345
0.288915
-0.270406
0.3188
-0.260724
0.345496
-0.235712
0.370244
-0.216769
0.392866
-0.196067
0.413096
-0.173941
0.431361
-0.154417
0.447755
-0.134797
0.462412
-0.115781
0.475419
-0.0972498
0.486636
-0.0782771
0.496202
-0.0592017
0.503998
-0.0390413
0.510021
-0.0183122
0.514191
0.00404146
0.5166
0.0271763
0.517318
0.0520389
0.516541
0.0764659
0.514539
0.100128
0.511399
0.119522
0.50692
0.132687
0.5009
0.143884
0.49339
0.15664
0.484619
0.171174
0.474751
0.18919
0.463197
0.211727
0.450663
0.235054
0.444722
0.26526
0.44733
0.331974
0.440757
0.40417
0.412545
0.367161
0.37399
0.213077
0.339665
0.0694482
0.312648
0.0320017
0.282042
-0.0661353
-0.0971972
-0.274265
-0.0656072
-0.286309
-0.0256891
-0.351479
0.0135937
-0.354595
0.0535178
-0.364251
0.0943413
-0.373163
0.133134
-0.35859
0.167098
-0.321917
0.196426
-0.284574
0.221783
-0.249798
0.24298
-0.213031
0.260802
-0.182002
0.276284
-0.157972
0.289882
-0.137644
0.302128
-0.122081
0.313434
-0.110011
0.324046
-0.100662
0.334135
-0.0935093
0.343814
-0.0883512
0.353186
-0.0844204
0.362292
-0.0815183
0.37111
-0.0787961
0.379582
-0.0753121
0.387579
-0.068388
0.394785
-0.0584294
0.40105
-0.0486846
0.406364
-0.0392385
0.410711
-0.030188
0.41411
-0.0214403
0.416538
-0.0130678
0.418035
-0.00507478
0.418652
0.00257278
0.418359
0.0101557
0.417162
0.0179654
0.414887
0.0268224
0.411211
0.0395641
0.405495
0.0593234
0.396176
0.106152
0.379181
0.194157
-0.129457
0.162458
-0.306803
0.195743
-0.312863
0.233807
-0.346721
0.266737
-0.309271
0.298961
-0.302628
0.330375
-0.292135
0.358484
-0.263819
0.384315
-0.242601
0.407937
-0.219689
0.428991
-0.194995
0.448046
-0.173472
0.465185
-0.151936
0.480368
-0.130964
0.493897
-0.110778
0.505759
-0.0901377
0.5159
-0.0693424
0.524253
-0.0473924
0.530821
-0.0248785
0.535582
-0.000717728
0.538594
0.0241667
0.539883
0.0507523
0.539624
0.0767277
0.538008
0.101747
0.535152
0.12238
0.530908
0.136935
0.525099
0.149698
0.517753
0.163992
0.509163
0.179769
0.499684
0.198674
0.48926
0.22216
0.476393
0.247925
0.464758
0.276892
0.464333
0.332386
0.469412
0.399193
0.459014
0.377545
0.429208
0.242924
0.393195
0.105605
0.360381
0.0652165
0.31735
-0.0218172
-0.0969234
-0.306798
-0.0636242
-0.319604
-0.0215504
-0.393553
0.0198315
-0.395972
0.061836
-0.406252
0.104761
-0.416088
0.145539
-0.399367
0.181077
-0.357454
0.211666
-0.315161
0.238006
-0.276137
0.25987
-0.234894
0.278125
-0.200255
0.293864
-0.17371
0.307602
-0.15138
0.319929
-0.134405
0.331314
-0.121395
0.341985
-0.111332
0.35218
-0.103702
0.362021
-0.0981902
0.371571
-0.0939676
0.380888
-0.0908319
0.389951
-0.0878552
0.398745
-0.0841027
0.407067
-0.0767058
0.414629
-0.0659869
0.421256
-0.0553078
0.42691
-0.0448888
0.431601
-0.0348754
0.435273
-0.0251074
0.437976
-0.0157664
0.439696
-0.00679262
0.440464
0.00180703
0.440304
0.0103224
0.439144
0.0191382
0.43687
0.0291024
0.43312
0.0433108
0.427268
0.0652186
0.417981
0.115428
0.40155
0.210718
-0.131176
0.165914
-0.341538
0.201035
-0.347983
0.241229
-0.386911
0.275964
-0.344004
0.309899
-0.336559
0.342916
-0.32515
0.372394
-0.293296
0.39949
-0.269695
0.424124
-0.244323
0.446088
-0.216959
0.465906
-0.19329
0.483703
-0.169732
0.499591
-0.146852
0.51372
-0.124906
0.526103
-0.10252
0.536745
-0.079984
0.545665
-0.0563112
0.552821
-0.0320337
0.558145
-0.00604092
0.56164
0.0206715
0.563448
0.048945
0.563628
0.0765484
0.562386
0.102988
0.559874
0.124893
0.555971
0.140839
0.550407
0.155263
0.543273
0.171125
0.534763
0.188271
0.525269
0.208154
0.51531
0.23214
0.503713
0.259532
0.490502
0.290111
0.484355
0.338516
0.488885
0.394991
0.487165
0.379035
0.466582
0.263349
0.434706
0.137558
0.402343
0.0975899
0.349222
0.0317871
-0.0967684
-0.341202
-0.0617696
-0.354602
-0.017339
-0.437977
0.0262617
-0.439571
0.0705186
-0.450506
0.115735
-0.461301
0.158556
-0.442186
0.195843
-0.394741
0.227802
-0.347119
0.255224
-0.303558
0.27786
-0.25753
0.296619
-0.219013
0.312678
-0.189768
0.326616
-0.165316
0.339028
-0.146817
0.350469
-0.132833
0.361202
-0.122063
0.371475
-0.113972
0.381414
-0.108128
0.391119
-0.10367
0.400617
-0.100328
0.409926
-0.097161
0.418986
-0.0931608
0.427641
-0.0853573
0.435541
-0.0738844
0.442525
-0.0622881
0.448531
-0.0508921
0.453531
-0.0398722
0.457525
-0.0291017
0.460498
-0.0187421
0.462454
-0.00875337
0.463415
0.000841488
0.463371
0.0103607
0.462291
0.0202252
0.460007
0.0313616
0.456228
0.0470463
0.450273
0.0712429
0.441001
0.124689
0.425244
0.226372
-0.13307
0.16974
-0.378206
0.206805
-0.385044
0.249268
-0.429372
0.285866
-0.380597
0.321558
-0.372251
0.356296
-0.359883
0.38727
-0.324267
0.415641
-0.298067
0.441442
-0.270123
0.464345
-0.239863
0.485047
-0.213992
0.503556
-0.18824
0.520075
-0.16337
0.534791
-0.139622
0.547639
-0.115367
0.558859
-0.0912026
0.568304
-0.065755
0.575959
-0.0396871
0.581831
-0.0119115
0.585886
0.0166189
0.588164
0.0466692
0.58881
0.0759055
0.587961
0.10384
0.585759
0.127097
0.582128
0.144474
0.57683
0.160566
0.569944
0.178016
0.561613
0.196608
0.5521
0.217672
0.542032
0.242215
0.531201
0.270364
0.518784
0.302521
0.509597
0.347691
0.509182
0.395504
0.506628
0.381576
0.488792
0.281229
0.459522
0.166991
0.429042
0.128544
0.373347
0.0888254
-0.0968491
-0.377422
-0.0598554
-0.391591
-0.0130165
-0.484815
0.0329609
-0.485543
0.079581
-0.497123
0.127176
-0.508896
0.172282
-0.48729
0.211423
-0.433881
0.244898
-0.380593
0.273503
-0.332163
0.296991
-0.281017
0.31631
-0.238331
0.332756
-0.206214
0.346903
-0.179461
0.359439
-0.159351
0.370961
-0.144353
0.381746
-0.132847
0.392045
-0.124269
0.402063
-0.118143
0.411894
-0.113499
0.421554
-0.109985
0.431062
-0.106666
0.440392
-0.102486
0.449346
-0.0943074
0.457579
-0.0821126
0.46491
-0.0696138
0.471266
-0.0572432
0.476618
-0.045218
0.480927
-0.033405
0.484183
-0.0219931
0.486376
-0.0109442
0.48752
-0.000301131
0.487627
0.0102566
0.486627
0.021233
0.484363
0.0336289
0.480551
0.0508562
0.474526
0.0773143
0.465376
0.133836
0.450332
0.241488
-0.135194
0.173943
-0.416953
0.213027
-0.424127
0.257875
-0.474217
0.296415
-0.419135
0.334013
-0.409844
0.370645
-0.396515
0.403126
-0.356746
0.432891
-0.32783
0.459982
-0.297214
0.483931
-0.263813
0.505472
-0.235534
0.52476
-0.207528
0.541859
-0.180469
0.557172
-0.154934
0.570673
-0.128866
0.582379
-0.102909
0.592336
-0.0757108
0.600472
-0.0478223
0.606746
-0.0181856
0.611269
0.0120968
0.614038
0.0438997
0.615062
0.0748818
0.61459
0.104312
0.612718
0.128969
0.609403
0.14779
0.604438
0.165531
0.597772
0.184683
0.589642
0.204733
0.580256
0.227051
0.570026
0.252463
0.559276
0.281127
0.547766
0.314046
0.538143
0.357311
0.534083
0.399917
0.527701
0.387735
0.508415
0.300319
0.478646
0.196814
0.446649
0.160523
0.393668
0.141995
-0.0969734
-0.415639
-0.0580602
-0.430503
-0.00857541
-0.534293
0.0399096
-0.534026
0.0890396
-0.54625
0.139228
-0.559081
0.186685
-0.534746
0.227836
-0.475032
0.262912
-0.415668
0.292833
-0.362084
0.317256
-0.305441
0.337248
-0.258321
0.354124
-0.223089
0.368551
-0.193886
0.381233
-0.172032
0.392823
-0.155942
0.403641
-0.143663
0.413994
-0.13462
0.424062
-0.12821
0.433968
-0.123403
0.443763
-0.119778
0.453471
-0.116371
0.463042
-0.112054
0.472276
-0.103539
0.480852
-0.0906853
0.488519
-0.0772776
0.49522
-0.0639411
0.500897
-0.0508907
0.505528
-0.0380349
0.509062
-0.0255282
0.511518
-0.0134044
0.512888
-0.00167774
0.513131
0.010008
0.512245
0.0221206
0.510022
0.0358266
0.506198
0.054637
0.500136
0.083448
0.491093
0.142857
0.476873
0.255616
-0.137591
0.178491
-0.45785
0.2197
-0.465333
0.267048
-0.521564
0.307641
-0.459724
0.34731
-0.449513
0.385872
-0.435071
0.420018
-0.39089
0.451297
-0.35911
0.479647
-0.325564
0.504652
-0.288817
0.527135
-0.258017
0.547241
-0.227634
0.565128
-0.198355
0.581014
-0.17082
0.595033
-0.142884
0.607245
-0.11512
0.61767
-0.086135
0.626275
-0.0564252
0.633091
-0.0250003
0.638033
0.00715637
0.641183
0.0407521
0.642645
0.0734226
0.642501
0.104458
0.640945
0.130528
0.63791
0.150828
0.633236
0.17021
0.626862
0.191062
0.618944
0.212656
0.6097
0.236301
0.599445
0.262723
0.588545
0.292026
0.577363
0.325219
0.567946
0.366719
0.562274
0.405672
0.553195
0.396809
0.532242
0.321317
0.501244
0.227961
0.466763
0.195446
0.416305
0.193447
-0.0972236
-0.456005
-0.0561694
-0.471553
-0.00396162
-0.586501
0.0471687
-0.585151
0.0989717
-0.59805
0.151881
-0.61199
0.201878
-0.584741
0.245158
-0.518311
0.281977
-0.452487
0.313277
-0.393384
0.338752
-0.330915
0.359454
-0.279023
0.37684
-0.240474
0.39157
-0.208614
0.404448
-0.184909
0.416126
-0.167619
0.426994
-0.15453
0.437367
-0.144991
0.447474
-0.138315
0.457451
-0.133377
0.467342
-0.129665
0.477197
-0.126224
0.486992
-0.121845
0.496535
-0.113078
0.505405
-0.0995502
0.513395
-0.0852614
0.520433
-0.0709721
0.526446
-0.0568957
0.531401
-0.0429823
0.535247
-0.0293682
0.537967
-0.0161203
0.539537
-0.00324583
0.539976
0.00956898
0.539193
0.0229086
0.53703
0.0379877
0.533223
0.0584429
0.527145
0.0895719
0.518295
0.151703
0.504975
0.268961
-0.14016
0.183288
-0.500976
0.226805
-0.50885
0.276807
-0.571562
0.319613
-0.502529
0.361415
-0.491309
0.401992
-0.475646
0.437949
-0.426847
0.470798
-0.391956
0.500499
-0.355266
0.526688
-0.315007
0.550241
-0.281571
0.57116
-0.248553
0.589762
-0.216957
0.606311
-0.187369
0.620867
-0.157439
0.633604
-0.127855
0.644493
-0.0970238
0.653573
-0.0655047
0.660771
-0.0321976
0.666163
0.00176432
0.6697
0.0372156
0.671493
0.0716302
0.671712
0.104239
0.670455
0.131785
0.667748
0.153536
0.663346
0.174613
0.657236
0.197174
0.649539
0.220351
0.640446
0.245394
0.630279
0.272904
0.619277
0.303046
0.608022
0.336492
0.598525
0.376245
0.591984
0.41253
0.581482
0.407127
0.5596
0.342973
0.527743
0.259837
0.490925
0.232232
0.441749
0.242614
-0.0975686
-0.498593
-0.054293
-0.514827
0.000796747
-0.641583
0.054766
-0.639118
0.109378
-0.652659
0.165139
-0.667747
0.217868
-0.637468
0.263396
-0.56384
0.302088
-0.49118
0.334891
-0.426187
0.361472
-0.357496
0.382978
-0.300529
0.400925
-0.258421
0.416032
-0.22372
0.429111
-0.197986
0.440933
-0.17944
0.451852
-0.165446
0.462259
-0.155397
0.472387
-0.14844
0.482398
-0.143387
0.492388
-0.139653
0.502373
-0.136206
0.512368
-0.131836
0.522147
-0.122855
0.531313
-0.108713
0.539636
-0.0935806
0.546999
-0.0783313
0.553356
-0.0632491
0.558622
-0.0482454
0.562774
-0.0335202
0.565766
-0.0191143
0.567591
-0.00507636
0.568201
0.0089517
0.56754
0.0235684
0.565466
0.0400294
0.561689
0.0621813
0.555669
0.0956622
0.547022
0.160318
0.534625
0.281291
-0.142987
0.188508
-0.546496
0.234447
-0.554785
0.287147
-0.62426
0.332371
-0.547747
0.376347
-0.535284
0.419145
-0.518439
0.456932
-0.46463
0.491459
-0.426485
0.522655
-0.386463
0.550104
-0.342457
0.574622
-0.30609
0.596517
-0.270448
0.615843
-0.236283
0.633054
-0.204578
0.648269
-0.172653
0.661485
-0.141071
0.672873
-0.108411
0.682377
-0.075007
0.690033
-0.0398528
0.695778
-0.00397806
0.699672
0.0333232
0.701847
0.0694579
0.702329
0.10376
0.701365
0.132752
0.698919
0.155986
0.694801
0.178735
0.688973
0.203006
0.681508
0.227821
0.672616
0.254292
0.662529
0.282995
0.651519
0.314056
0.640109
0.347894
0.630156
0.386191
0.622616
0.420133
0.611024
0.418718
0.588719
0.365323
0.556256
0.292426
0.51744
0.271434
0.469144
0.291643
-0.0980514
-0.543527
-0.0523918
-0.560482
0.00578071
-0.699755
0.0626859
-0.696017
0.120306
-0.710275
0.179117
-0.726559
0.234649
-0.692998
0.282626
-0.611817
0.323287
-0.531841
0.357727
-0.460629
0.385521
-0.38529
0.4079
-0.322907
0.426474
-0.276994
0.441985
-0.23923
0.455336
-0.211336
0.467285
-0.191387
0.478296
-0.176455
0.488721
-0.165821
0.498869
-0.158586
0.508906
-0.153422
0.518953
-0.149698
0.529056
-0.146306
0.539238
-0.142014
0.549265
-0.132876
0.558714
-0.118156
0.567325
-0.102185
0.575
-0.0859983
0.581667
-0.0699074
0.587268
-0.0538376
0.591717
-0.03796
0.595004
-0.0223947
0.597056
-0.00712596
0.597883
0.0081267
0.597392
0.0240592
0.595387
0.0420299
0.591714
0.0658494
0.58575
0.10167
0.577411
0.168644
0.56599
0.292702
-0.146012
0.194056
-0.594538
0.242473
-0.603202
0.298194
-0.679977
0.345748
-0.595299
0.392194
-0.581723
0.437243
-0.563487
0.477084
-0.504471
0.513327
-0.462725
0.546068
-0.419205
0.574818
-0.371209
0.600555
-0.331827
0.623351
-0.293244
0.643556
-0.256488
0.661472
-0.222494
0.677265
-0.188446
0.691035
-0.15484
0.702875
-0.12025
0.712788
-0.084919
0.720796
-0.0478603
0.726917
-0.0100992
0.731188
0.0290528
0.733609
0.0670377
0.734387
0.102981
0.733716
0.133424
0.731539
0.158164
0.72773
0.182545
0.722169
0.208569
0.714925
0.235066
0.706179
0.263038
0.696208
0.292979
0.685223
0.325056
0.673697
0.359444
0.663172
0.396751
0.654372
0.429207
0.641611
0.431337
0.618837
0.387856
0.58579
0.325458
0.545244
0.311936
0.497958
0.338826
-0.0986038
-0.590932
-0.0504392
-0.608646
0.0109609
-0.761147
0.0709663
-0.756021
0.131752
-0.771057
0.193788
-0.788591
0.252361
-0.751571
0.302872
-0.66233
0.345652
-0.574622
0.381801
-0.496778
0.410908
-0.414397
0.434249
-0.346248
0.453509
-0.296253
0.469499
-0.255218
0.483143
-0.224978
0.495279
-0.203522
0.506369
-0.187544
0.516838
-0.176288
0.526997
-0.168743
0.537082
-0.163505
0.547156
-0.159769
0.557363
-0.15651
0.567695
-0.152344
0.577956
-0.143134
0.587668
-0.127866
0.596549
-0.111063
0.604546
-0.0939914
0.611526
-0.076883
0.617419
-0.0597271
0.622204
-0.0427426
0.625766
-0.025957
0.628085
-0.00944868
0.629101
0.007104
0.628777
0.0243774
0.626926
0.0438502
0.623334
0.0693978
0.617519
0.107555
0.609482
0.176645
0.599095
0.30304
-0.149283
0.199952
-0.645205
0.251036
-0.654283
0.309802
-0.738741
0.360038
-0.64553
0.408923
-0.630608
0.456457
-0.611014
0.498309
-0.546319
0.536457
-0.500875
0.570861
-0.453609
0.601049
-0.401398
0.627934
-0.358713
0.651826
-0.317137
0.672876
-0.277537
0.691537
-0.241155
0.707928
-0.204836
0.722276
-0.169187
0.734566
-0.132539
0.744891
-0.0952435
0.753316
-0.0562835
0.759751
-0.0165327
0.764299
0.0245082
0.767018