/*--------------------------------*- C++ -*----------------------------------*\
| =========                 |                                                 |
| \\      /  F ield         | OpenFOAM: The Open Source CFD Toolbox           |
|  \\    /   O peration     | Version:  2206                                  |
|   \\  /    A nd           | Website:  www.openfoam.com                      |
|    \\/     M anipulation  |                                                 |
\*---------------------------------------------------------------------------*/
FoamFile
{
    version     2.0;
    format      ascii;
    arch        "LSB;label=32;scalar=64";
    class       volScalarField;
    location    "50";
    object      turbulenceProperties:I;
}
// * * * * * * * * * * * * * * * * * * * * * * * * * * * * * * * * * * * * * //

dimensions      [0 0 0 0 0 0 0];

internalField   nonuniform List<scalar> 
10720
(
0.00470477
0.00452036
0.0044189
0.00444743
0.00452715
0.00468342
0.00492929
0.00524969
0.00565782
0.00616529
0.00678148
0.00753799
0.00847808
0.00966677
0.0112034
0.0132421
0.0160191
0.0199724
0.0257991
0.0349791
0.0507534
0.0825503
0.149692
0.368429
0.615094
0.724255
0.711254
0.663284
0.623332
0.602108
0.658789
0.70706
0.553697
0.468813
0.367844
0.281807
0.268293
0.241014
0.230866
0.00497134
0.00548144
0.00630489
0.00809947
0.0118379
0.0157188
0.011166
0.0077727
0.00653728
0.00620103
0.00631361
0.00670208
0.00729858
0.00808514
0.00906361
0.0102788
0.0118084
0.0137696
0.0163518
0.0197707
0.0244249
0.0308527
0.0403671
0.053146
0.0746463
0.105478
0.157025
0.205562
0.229814
0.237798
0.240129
0.241263
0.242124
0.242846
0.243564
0.244487
0.245781
0.249355
0.255187
0.00245838
0.00218904
0.00195402
0.00174754
0.00156835
0.00141277
0.00127564
0.00115391
0.00104767
0.000953596
0.000870813
0.000800119
0.000741096
0.000689487
0.000679881
0.0007319
0.000913638
0.00129767
0.00197388
0.00328075
0.00565946
0.0115177
0.0204749
0.0514109
0.101573
0.171341
0.261094
0.344913
0.397432
0.430662
0.484505
0.522184
0.432899
0.432755
1
1
1
1
0.996653
0.00277694
0.00319954
0.00382723
0.00475867
0.00591876
0.00650506
0.00554738
0.0040744
0.00301156
0.00232567
0.00186513
0.00153803
0.00129321
0.00110266
0.000950553
0.000827388
0.000724659
0.000637718
0.000559574
0.000484746
0.000404834
0.00031058
0.00022222
0.000154946
0.000789066
0.001972
0.00506254
0.0113155
0.0178918
0.0233539
0.0276157
0.0307891
0.0332265
0.0353339
0.0373728
0.0396126
0.0421813
0.0476082
0.0594537
0.00207825
0.00186559
0.00166725
0.00148797
0.00133523
0.00120078
0.00108421
0.00098702
0.000906824
0.000843002
0.000793802
0.00075697
0.000730721
0.00071236
0.000702409
0.000708588
0.000697061
0.000686702
0.000446762
0.000300498
0.00172301
0.000943327
0.000500756
0.00361157
0.0165628
0.0416975
0.0853922
0.153397
0.230793
0.294875
0.35148
0.391218
0.375681
0.456349
1
1
1
1
1
0.00232246
0.00261765
0.00300345
0.00346053
0.00387513
0.00403086
0.00374498
0.00314607
0.00253154
0.00202566
0.00163293
0.0013316
0.00109846
0.000916243
0.000776516
0.000670753
0.00059238
0.000535111
0.00049408
0.00046494
0.000444378
0.0004311
0.000423619
0.000421479
0.000419695
0.000416372
0.000399613
0.000397178
0.00135636
0.00269068
0.00403359
0.00565422
0.00845709
0.011978
0.0156228
0.0190751
0.0222734
0.0249798
0.0319298
0.00182248
0.00167432
0.00153245
0.00140362
0.0012885
0.00118352
0.00108982
0.00100592
0.000930742
0.00086322
0.000802261
0.000747043
0.000697024
0.000651044
0.000607995
0.000566845
0.000522633
0.000479145
0.000423263
0.000386815
0.000133804
0.000271355
0.000285821
0.00148844
0.0031528
0.00249056
0.0141378
0.0448468
0.102223
0.176562
0.248419
0.300593
0.325358
0.42068
0.817997
1
1
0.672258
0.86153
0.00198039
0.0021615
0.00237664
0.00260633
0.00279051
0.00285637
0.00273351
0.00244566
0.00210143
0.00178013
0.00151005
0.00129256
0.00111853
0.000978593
0.000866098
0.000774587
0.000699907
0.000638613
0.000588654
0.000547187
0.000512425
0.000481952
0.000453515
0.000423802
0.000393878
0.000369244
0.000350384
0.000338549
0.000312601
0.000303276
7.27795e-05
0.000216003
0.000694187
0.000802675
0.00176472
0.00378819
0.00661184
0.0107874
0.0194325
0.00156117
0.00145102
0.00134131
0.00123694
0.00114115
0.00105126
0.000968661
0.000893377
0.000824705
0.00076278
0.000707311
0.000658125
0.000615227
0.000578518
0.000547735
0.000523248
0.000505145
0.000489524
0.000472162
0.000451458
0.000408211
0.000312895
7.82086e-06
4.88914e-07
0
0.00167137
0.00363471
0.00188607
0.0229924
0.074931
0.148025
0.215925
0.268808
0.364247
0.574233
0.706512
0.628849
0.466851
0.487232
0.00167371
0.00179503
0.00192912
0.00205911
0.0021553
0.00218782
0.00212589
0.0019713
0.00176595
0.00155071
0.00134964
0.00117244
0.00101962
0.000888725
0.000777396
0.000683056
0.000603728
0.000537786
0.000484068
0.000440917
0.000406818
0.000379855
0.000358048
0.00033832
0.000318663
0.000300297
0.000286387
0.000277443
0.000273474
0.000266904
0.000258271
0.000122076
0.000498517
7.81591e-05
0.000130391
0.000246237
0.00109539
0.00200645
0.00819413
0.00135923
0.0012805
0.00119951
0.00112101
0.00104786
0.000977993
0.00091292
0.000852829
0.000797221
0.000746104
0.000699054
0.000655707
0.000615813
0.000578949
0.000544718
0.000513031
0.000482636
0.000450672
0.000417812
0.000384608
0.000356834
0.000321962
0.000297213
8.2121e-05
2.19161e-05
0
0
0.00131998
0.00494944
0.0140667
0.0625683
0.131145
0.202713
0.299325
0.435047
0.505739
0.460802
0.36084
0.344438
0.00143675
0.00151716
0.00160272
0.00168151
0.00173817
0.00175706
0.00172133
0.00162956
0.00150037
0.00135538
0.00121126
0.0010779
0.000958873
0.000854634
0.000764646
0.000687748
0.000622533
0.000567554
0.000521469
0.000482757
0.000449885
0.000421133
0.000394783
0.000368591
0.000341587
0.000315882
0.000293636
0.00027541
0.000260513
0.000247822
0.00023491
0.000218125
0.000188979
0.000141378
5.60307e-05
6.56133e-05
0.000440584
0.0009618
0.00279459
0.00118859
0.00113014
0.0010684
0.00100693
0.000948596
0.000891541
0.000837245
0.000786163
0.000737939
0.000692795
0.000650597
0.000611173
0.000574537
0.000540553
0.000509155
0.00048026
0.000454141
0.000431385
0.000410825
0.000390008
0.000368769
0.000345184
0.000330521
0.000298676
8.51931e-05
4.11772e-05
0
0
0
0.0056874
0.0104939
0.0574263
0.131279
0.229998
0.336545
0.387224
0.360578
0.2932
0.268268
0.00124437
0.00130045
0.00135826
0.00140934
0.00144564
0.00145756
0.00143515
0.00137693
0.00129194
0.00119164
0.00108658
0.000984352
0.00088871
0.000801218
0.000722474
0.000652412
0.000590603
0.000536527
0.000489668
0.000449334
0.000414784
0.000385033
0.0003588
0.000334116
0.000309473
0.000285613
0.000264129
0.000245831
0.000230672
0.000218958
0.000211483
0.000208492
0.000206294
0.000199112
0.000180696
0.000130486
4.22532e-05
8.43496e-06
0.000482122
0.00104897
0.00100546
0.00095847
0.000910756
0.000865026
0.00081954
0.000775739
0.000734121
0.0006944
0.000656875
0.000621413
0.000587896
0.000556319
0.00052653
0.000498428
0.00047188
0.000446894
0.000422463
0.000397773
0.000373322
0.000350167
0.000329216
0.000313274
0.000315067
0.000286834
0.000159144
4.84192e-05
0
0
0
0.00591974
0.0099624
0.065701
0.159411
0.255385
0.302585
0.290074
0.244005
0.21949
0.00108954
0.00112948
0.0011699
0.00120458
0.00122931
0.00123732
0.00122236
0.00118341
0.00112522
0.00105421
0.000976966
0.000899077
0.000823784
0.000752886
0.000687465
0.000628066
0.000574787
0.000527568
0.000486167
0.000450106
0.000418719
0.000391083
0.000365978
0.000341791
0.000317411
0.000293468
0.000271204
0.000251115
0.000232897
0.000216225
0.000201006
0.000186912
0.000173938
0.000162115
0.000154464
0.000147527
0.000125452
3.9941e-05
0.000122859
0.000932315
0.000899264
0.000862919
0.000825291
0.000788878
0.00075209
0.000716158
0.000681592
0.00064816
0.000616124
0.000585453
0.000556052
0.000527961
0.000501137
0.000475575
0.000451251
0.000428108
0.000406231
0.000385618
0.000365852
0.000346607
0.000328289
0.000311923
0.000300838
0.000303686
0.000286001
0.000194114
5.15976e-05
0
0
0
0.00593888
0.0192262
0.09415
0.181942
0.232368
0.233314
0.204044
0.183587
0.000962526
0.000991758
0.00102105
0.00104558
0.00106309
0.00106871
0.0010583
0.0010312
0.000990068
0.000938673
0.000881193
0.000821492
0.000762067
0.00070448
0.000649807
0.000598738
0.000551684
0.000508834
0.000470233
0.000435734
0.000405006
0.000377448
0.000352182
0.000328035
0.000304147
0.000280836
0.000259144
0.000239711
0.000222518
0.000207419
0.0001946
0.000184378
0.000176447
0.000170653
0.000166537
0.000165824
0.00016766
0.000169894
3.48269e-05
0.000834355
0.000808957
0.000780611
0.000750796
0.000721729
0.000692033
0.00066271
0.000634253
0.000606466
0.000579601
0.000553635
0.000528504
0.00050426
0.000480878
0.000458353
0.00043667
0.000415827
0.000395782
0.000375994
0.000356491
0.000337789
0.000320649
0.000306102
0.000294018
0.000286917
0.00028881
0.000278366
0.00020911
4.91343e-05
0
0
0
0.00661269
0.0416818
0.114448
0.167482
0.181561
0.167553
0.153455
0.000857156
0.000878938
0.00090073
0.000918663
0.000931413
0.000935492
0.000928057
0.000908596
0.000878751
0.00084081
0.0007975
0.000751527
0.000704681
0.000658187
0.000613029
0.000569907
0.000529315
0.000491633
0.000457039
0.000425575
0.00039708
0.000371135
0.000347069
0.000324035
0.000301361
0.000279262
0.000258526
0.000239654
0.000222567
0.000207013
0.000192893
0.000180209
0.0001688
0.000159102
0.000150712
0.00014781
0.000143523
0.000183921
0.000130116
0.000751113
0.000731355
0.000709002
0.000685173
0.000661799
0.000637671
0.000613583
0.000590047
0.000566829
0.000544179
0.000522074
0.00050045
0.00047936
0.000458785
0.000438743
0.000419267
0.000400327
0.000382032
0.000364226
0.000346955
0.000330396
0.000314898
0.00030129
0.000290104
0.00027992
0.000272428
0.000271613
0.000269565
0.000194282
4.12562e-05
0
0
0.00251494
0.00674731
0.0563041
0.105029
0.129386
0.130515
0.124779
0.000768564
0.000785054
0.00080163
0.000815105
0.000824609
0.000827651
0.000822209
0.00080789
0.000785757
0.000757305
0.00072429
0.000688642
0.000651634
0.000614167
0.000576995
0.000540723
0.000505817
0.000472674
0.000441588
0.000412696
0.000385971
0.000361201
0.000337948
0.00031563
0.000293788
0.000272566
0.000252545
0.000234191
0.000217516
0.000202377
0.000188762
0.000176928
0.000166851
0.00015895
0.000152957
0.000151942
0.000150723
0.000177739
0.000201478
0.000679741
0.000664226
0.000646453
0.000627276
0.000608414
0.000588749
0.000568958
0.000549479
0.00053012
0.000511099
0.000492391
0.000473929
0.000455761
0.000437881
0.000420299
0.000403055
0.000386141
0.000369713
0.000353553
0.000337626
0.000322265
0.000307928
0.00029521
0.000284608
0.000275239
0.000265396
0.000256524
0.000254902
0.000256765
0.000158582
2.48585e-05
0
0
0.00653933
0.0135739
0.0486717
0.0748958
0.0886192
0.0937763
0.000693254
0.000705869
0.000718704
0.000729066
0.00073629
0.00073858
0.000734526
0.000723793
0.000707088
0.000685418
0.000659997
0.000632179
0.00060287
0.000572682
0.000542214
0.000511917
0.000482171
0.000453362
0.000425781
0.000399656
0.000375072
0.000351933
0.000329944
0.000308716
0.000287991
0.000267855
0.000248754
0.000231073
0.000214861
0.000199999
0.000186445
0.000174331
0.000163585
0.000154693
0.000147546
0.000145194
0.000144742
0.000163715
0.000211056
0.00061797
0.000605687
0.000591468
0.000575949
0.000560643
0.000544543
0.000528235
0.000512093
0.00049593
0.000479944
0.000464112
0.000448361
0.00043273
0.0004172
0.000401792
0.000386552
0.000371478
0.000356705
0.000342193
0.000327889
0.000314032
0.000300999
0.000289208
0.000279006
0.000270031
0.000260891
0.000250916
0.000239806
0.000241183
0.000245758
8.66579e-05
3.37546e-06
0
0.00131972
0.00727711
0.0137026
0.027475
0.0423404
0.0543003
0.000628546
0.0006383
0.000648375
0.000656481
0.00066205
0.00066381
0.000660744
0.000652555
0.000639762
0.000623068
0.00060331
0.000581456
0.000558158
0.00053385
0.000508906
0.000483682
0.00045847
0.000433586
0.000409293
0.000385823
0.000363315
0.000341759
0.000320996
0.000300814
0.00028109
0.000261918
0.000243635
0.000226579
0.000210843
0.000196365
0.000183132
0.000171298
0.000160879
0.000152322
0.000145453
0.000142914
0.000142269
0.00015652
0.000203095
0.000564082
0.000554288
0.000542858
0.000530235
0.000517775
0.00050457
0.000491097
0.000477706
0.000464217
0.000450791
0.000437421
0.000424013
0.000410618
0.000397216
0.000383806
0.000370431
0.000357104
0.000343928
0.00033096
0.000318088
0.000305519
0.000293647
0.000282792
0.000273178
0.000264544
0.000255975
0.000247013
0.000236143
0.000224393
0.0002375
0.000208227
3.65243e-05
0
0
0.00382982
0.00806944
0.0121129
0.0165558
0.0212258
0.000572414
0.000580033
0.000588025
0.000594458
0.000598804
0.000600174
0.000597806
0.000591488
0.000581563
0.000568561
0.000553071
0.00053581
0.000517231
0.000497618
0.000477244
0.000456326
0.000435063
0.000413712
0.00039249
0.0003716
0.000351186
0.000331311
0.000311914
0.000292922
0.000274311
0.000256184
0.000238814
0.000222484
0.000207303
0.000193244
0.000180292
0.000168538
0.000158022
0.000149138
0.000141704
0.0001383
0.000136671
0.000149036
0.000192318
0.000516717
0.000508866
0.000499647
0.000489331
0.000479158
0.000468309
0.000457159
0.000446042
0.000434785
0.000423517
0.00041224
0.000400865
0.000389414
0.000377873
0.000366235
0.00035454
0.000342816
0.000331121
0.000319578
0.000308081
0.000296775
0.000286026
0.000276083
0.000267104
0.000258905
0.000250826
0.000242288
0.000233837
0.000221491
0.000213021
0.000238338
0.000137804
4.78189e-06
0
6.83388e-05
0.00119995
0.00364295
0.00637615
0.00733012
0.000523314
0.000529318
0.00053572
0.000540872
0.00054429
0.000545369
0.000543527
0.000538588
0.000530817
0.000520596
0.000508366
0.000494637
0.000479762
0.000463922
0.000447281
0.000429985
0.000412144
0.00039392
0.000375486
0.000357009
0.000338643
0.000320471
0.000302489
0.000284691
0.000267168
0.000250056
0.000233574
0.000217956
0.000203331
0.000189699
0.000177064
0.00016551
0.000155132
0.000146277
0.000138756
0.000134917
0.000132741
0.000142982
0.000182655
0.000474799
0.000468495
0.000461033
0.000452577
0.000444264
0.000435335
0.000426107
0.000416878
0.000407486
0.000398046
0.00038855
0.000378908
0.00036915
0.000359247
0.000349205
0.000339043
0.000328785
0.00031847
0.000308256
0.000298024
0.000287884
0.000278175
0.000269098
0.000260772
0.000253049
0.000245485
0.000237395
0.000229581
0.000221173
0.000205331
0.00021859
0.000209616
3.42757e-05
0
0
0.00045138
0.00157893
0.00107655
0.0032573
0.000480053
0.000484809
0.000489991
0.000494144
0.000496848
0.000497698
0.000496251
0.000492354
0.000486205
0.000478108
0.000468378
0.000457415
0.000445469
0.000432647
0.000419061
0.000404767
0.000389839
0.000374361
0.00035845
0.000342231
0.00032583
0.000309337
0.000292787
0.000276243
0.000259855
0.000243781
0.000228209
0.000213341
0.000199312
0.000186143
0.000173853
0.000162511
0.000152206
0.000143233
0.000135395
0.000130875
0.000127951
0.000136386
0.000173459
0.000437481
0.000432417
0.000426362
0.000419423
0.000412619
0.000405266
0.000397629
0.000389976
0.000382141
0.000374238
0.000366259
0.000358111
0.000349828
0.000341375
0.000332741
0.000323946
0.000315015
0.000305967
0.000296975
0.000287929
0.000278889
0.000270163
0.000261919
0.000254253
0.000247044
0.000239969
0.000232542
0.000224775
0.000218108
0.000206643
0.000198562
0.000219433
0.000132201
8.11177e-06
0
0
0
0.00041977
0
0.000441687
0.000445484
0.0004497
0.00045306
0.000455205
0.000455883
0.00045473
0.00045163
0.000446727
0.000440264
0.000432478
0.000423672
0.000414035
0.000403642
0.000392538
0.000380752
0.00036829
0.000355204
0.000341542
0.000327394
0.00031285
0.000297987
0.000282858
0.000267573
0.000252322
0.000237276
0.00022261
0.000208505
0.000195085
0.000182398
0.00017047
0.000159372
0.00014919
0.000140167
0.000132091
0.000126926
0.000123235
0.000129752
0.00016426
0.000404084
0.000400015
0.000395097
0.000389399
0.000383825
0.00037778
0.000371458
0.000365118
0.000358602
0.000352006
0.000345318
0.000338461
0.000331447
0.000324249
0.000316859
0.000309285
0.000301554
0.000293666
0.000285791
0.000277855
0.000269852
0.000262045
0.000254597
0.000247589
0.000240926
0.000234342
0.000227571
0.00022028
0.000213593
0.000206521
0.000193291
0.000200899
0.000198417
1.30505e-05
6.17118e-07
0
0
0
0
0.000407451
0.000410507
0.000413957
0.000416669
0.000418386
0.000418921
0.000418
0.000415508
0.000411571
0.000406374
0.000400108
0.000393004
0.000385205
0.000376754
0.000367672
0.000357954
0.000347574
0.000336542
0.000324868
0.000312591
0.000299778
0.000286491
0.000272773
0.000258736
0.0002446
0.000230581
0.000216829
0.0002035
0.000190713
0.000178531
0.000166989
0.000156153
0.000146099
0.000137011
0.00012866
0.000122776
0.000118238
0.000122986
0.000154934
0.000374051
0.000370781
0.000366797
0.000362107
0.000357558
0.000352585
0.000347368
0.000342125
0.000336719
0.000331227
0.000325641
0.000319879
0.000313965
0.000307865
0.000301573
0.000295087
0.000288429
0.000281605
0.000274738
0.000267818
0.000260784
0.000253841
0.000247159
0.000240802
0.000234703
0.000228638
0.000222441
0.000215899
0.000209246
0.000203595
0.000194128
0.000187388
0.000201882
0.000154699
3.75972e-05
5.99532e-06
0
0
0
0.00037674
0.000379208
0.000382046
0.000384238
0.000385616
0.000386036
0.000385288
0.000383275
0.00038009
0.000375891
0.000370821
0.000365058
0.000358723
0.000351832
0.000344392
0.000336379
0.000327747
0.000318469
0.000308533
0.000297943
0.00028672
0.000274903
0.000262529
0.000249722
0.000236714
0.000223713
0.000210867
0.000198315
0.000186173
0.00017451
0.000163371
0.000152814
0.000142911
0.000133776
0.000125167
0.000118562
0.000113119
0.000116166
0.000145552
0.000346922
0.000344302
0.000341078
0.000337223
0.000333512
0.000329439
0.000325139
0.000320822
0.000316351
0.000311795
0.000307149
0.000302336
0.000297375
0.000292238
0.000286903
0.000281381
0.000275679
0.000269807
0.000263847
0.000257836
0.000251692
0.000245561
0.00023961
0.000233898
0.000228371
0.000222852
0.000217205
0.000211381
0.000205276
0.000199799
0.000193842
0.000184537
0.00018888
0.000201835
0.000144286
2.85097e-05
3.17477e-05
0
0
0.000349063
0.000351059
0.000353402
0.000355178
0.000356274
0.000356603
0.000355991
0.000354349
0.000351757
0.000348346
0.000344224
0.000339536
0.000334366
0.000328735
0.000322627
0.000316014
0.00030884
0.00030106
0.000292627
0.000283525
0.000273751
0.000263311
0.000252222
0.000240606
0.000228694
0.000216687
0.000204736
0.000192963
0.000181477
0.00017035
0.000159632
0.000149372
0.000139631
0.000130457
0.000121592
0.000114253
0.000107829
0.000109246
0.000136185
0.000322317
0.000320232
0.000317627
0.000314462
0.000311448
0.000308122
0.00030459
0.000301052
0.000297372
0.00029361
0.000289767
0.000285766
0.000281625
0.000277317
0.000272823
0.000268147
0.000263294
0.000258274
0.000253143
0.000247963
0.000242631
0.000237247
0.000231983
0.000226895
0.000221938
0.000216972
0.000211886
0.000206695
0.000201337
0.000196178
0.000191713
0.000185056
0.000182639
0.000201269
0.000213321
0.000180381
0.000145683
6.02331e-06
0
0.000324013
0.000325624
0.000327567
0.000329001
0.000329867
0.000330122
0.000329614
0.000328269
0.000326151
0.000323368
0.000319998
0.000316159
0.000311928
0.000307309
0.000302289
0.000296827
0.000290865
0.00028435
0.000277218
0.000269429
0.00026095
0.000251777
0.000241903
0.000231426
0.00022056
0.000209522
0.000198452
0.000187457
0.000176631
0.000166053
0.000155769
0.000145821
0.000136256
0.000127062
0.000117952
0.000109874
0.000102387
0.00010217
0.000126832
0.000299916
0.00029827
0.000296181
0.000293582
0.000291151
0.000288449
0.000285563
0.000282681
0.000279669
0.000276583
0.000273421
0.000270113
0.000266678
0.000263088
0.000259331
0.0002554
0.000251303
0.000247047
0.000242663
0.00023823
0.000233636
0.000228941
0.00022432
0.000219822
0.000215422
0.000211002
0.000206482
0.00020189
0.000197248
0.000192731
0.000188934
0.000184789
0.000182643
0.00019534
0.000217252
0.000230412
0.000286229
1.25811e-05
0
0.00030125
0.000302542
0.000304156
0.000305311
0.00030599
0.000306184
0.000305761
0.000304651
0.00030291
0.000300626
0.000297867
0.000294715
0.000291238
0.000287437
0.000283295
0.000278779
0.000273827
0.000268372
0.000262351
0.000255706
0.000248389
0.000240363
0.000231608
0.000222203
0.000212352
0.000202255
0.000192042
0.000181811
0.000171646
0.00016162
0.000151782
0.000142158
0.000132773
0.000123581
0.000114254
0.000105452
9.68074e-05
9.49271e-05
0.000117529
0.000279455
0.00027817
0.000276504
0.000274381
0.000272437
0.000270254
0.000267914
0.000265581
0.000263136
0.000260624
0.000258046
0.000255333
0.000252507
0.00024954
0.000246417
0.00024314
0.000239707
0.000236125
0.00023241
0.000228652
0.000224731
0.000220672
0.00021665
0.000212714
0.000208847
0.000204957
0.000200989
0.000196983
0.000192996
0.000189226
0.000186104
0.000183421
0.000183578
0.000193483
0.000208882
0.000235204
0.000325786
1.49203e-05
0
0.000280488
0.000281518
0.000282861
0.000283783
0.000284309
0.000284456
0.000284094
0.000283176
0.00028174
0.000279861
0.000277587
0.000274989
0.000272119
0.000268983
0.000265562
0.000261819
0.000257699
0.000253137
0.000248061
0.000242407
0.000236114
0.000229125
0.000221402
0.000213003
0.000204112
0.000194914
0.000185526
0.000176041
0.000166533
0.000157063
0.000147681
0.000138394
0.000129202
0.000120044
0.000110521
0.000101011
9.11182e-05
8.74683e-05
0.000108314
0.000260709
0.000259722
0.000258406
0.000256684
0.00025514
0.000253399
0.000251515
0.000249646
0.000247677
0.000245651
0.000243566
0.000241364
0.000239056
0.000236628
0.00023406
0.000231353
0.000228505
0.000225521
0.000222405
0.000219257
0.000215945
0.00021247
0.000209003
0.000205595
0.000202237
0.000198855
0.000195418
0.000191983
0.000188616
0.000185571
0.000183232
0.000181528
0.000183412
0.000193224
0.000202584
0.000233332
0.000321935
1.5093e-05
0
0.000261487
0.000262305
0.000263421
0.000264154
0.000264554
0.000264658
0.000264346
0.000263577
0.000262387
0.000260835
0.00025896
0.000256813
0.00025444
0.00025184
0.000249
0.000245895
0.000242466
0.00023865
0.000234377
0.000229578
0.000224183
0.000218122
0.000211337
0.000203867
0.000195871
0.000187521
0.00017893
0.000170172
0.000161309
0.000152397
0.000143474
0.00013454
0.000125565
0.000116471
0.000106795
9.66144e-05
8.54044e-05
7.97578e-05
9.91985e-05
0.000243485
0.000242746
0.000241721
0.000240339
0.00023913
0.000237756
0.000236256
0.000234778
0.000233213
0.000231597
0.000229934
0.000228164
0.000226303
0.000224337
0.000222246
0.000220036
0.000217699
0.000215243
0.000212661
0.000210055
0.000207302
0.000204355
0.000201395
0.000198476
0.000195602
0.000192706
0.000189776
0.000186886
0.000184115
0.000181745
0.000180174
0.000179288
0.00018215
0.000192338
0.000198697
0.000229596
0.000311743
1.4997e-05
0
0.000244052
0.000244694
0.00024562
0.000246194
0.000246492
0.000246558
0.000246285
0.000245639
0.000244647
0.000243361
0.000241808
0.000240025
0.000238052
0.000235896
0.000233538
0.000230953
0.000228091
0.000224896
0.000221302
0.000217233
0.00021262
0.000207381
0.000201445
0.00019483
0.000187673
0.000180121
0.000172288
0.000164229
0.000155997
0.000147638
0.000139177
0.000130607
0.000121881
0.000112875
0.000103079
9.22846e-05
7.97154e-05
7.17284e-05
9.024e-05
0.00022762
0.000227091
0.000226309
0.000225207
0.000224282
0.000223217
0.000222038
0.000220887
0.000219664
0.000218394
0.000217089
0.000215688
0.000214209
0.000212636
0.000210957
0.000209176
0.000207285
0.000205292
0.000203184
0.000201055
0.000198804
0.000196351
0.000193855
0.000191389
0.000188963
0.000186524
0.000184072
0.000181693
0.000179489
0.000177742
0.000176841
0.000176699
0.000180171
0.000190338
0.000195216
0.000224908
0.000304009
3.29745e-05
0
0.000228014
0.000228508
0.000229275
0.00022972
0.000229931
0.000229962
0.000229718
0.000229168
0.000228337
0.000227269
0.00022598
0.000224495
0.000222848
0.00022105
0.000219088
0.000216933
0.000214541
0.000211861
0.00020884
0.000205401
0.000201465
0.000196946
0.000191764
0.000185923
0.000179536
0.000172737
0.000165618
0.00015823
0.000150612
0.000142796
0.000134802
0.000126607
0.000118149
0.000109266
9.94154e-05
8.8099e-05
7.41529e-05
6.32913e-05
8.15116e-05
0.000212977
0.000212622
0.000212045
0.000211179
0.000210492
0.000209682
0.000208774
0.000207901
0.000206963
0.000205987
0.000204981
0.000203893
0.000202738
0.000201503
0.000200177
0.000198765
0.000197258
0.000195668
0.000193979
0.000192265
0.00019045
0.000188446
0.000186376
0.000184325
0.000182318
0.00018031
0.000178308
0.000176406
0.000174724
0.000173539
0.000173221
0.000173734
0.000177644
0.000187604
0.000191628
0.000218917
0.000303491
8.63536e-05
3.8423e-06
0.000213231
0.000213603
0.000214234
0.000214568
0.000214706
0.000214705
0.000214481
0.000214009
0.00021331
0.000212417
0.000211341
0.000210099
0.000208725
0.000207223
0.000205581
0.000203778
0.000201775
0.000199532
0.000196991
0.000194083
0.00019073
0.000186845
0.000182337
0.000177198
0.000171519
0.000165414
0.000158965
0.000152214
0.000145186
0.000137903
0.000130373
0.000122563
0.000114391
0.000105672
9.58233e-05
8.41088e-05
6.88946e-05
5.43082e-05
7.31578e-05
0.000199441
0.000199227
0.000198823
0.000198153
0.000197664
0.000197072
0.000196388
0.000195747
0.000195047
0.000194318
0.000193565
0.00019274
0.000191857
0.00019091
0.000189884
0.000188786
0.000187613
0.000186368
0.000185045
0.000183695
0.000182265
0.000180656
0.000178967
0.000177291
0.000175668
0.000174062
0.000172478
0.000171021
0.000169812
0.000169129
0.000169329
0.0001704
0.000174645
0.000184443
0.000186888
0.000222591
0.000286726
0.00015412
7.38156e-06
0.000199579
0.00019985
0.000200364
0.000200604
0.000200678
0.000200647
0.000200436
0.000200025
0.000199431
0.000198681
0.000197778
0.000196737
0.000195583
0.000194327
0.00019295
0.000191436
0.000189755
0.000187872
0.000185737
0.000183282
0.00018043
0.000177098
0.000173186
0.000168676
0.000163639
0.000158174
0.00015235
0.000146199
0.000139736
0.000132973
0.000125904
0.000118489
0.000110625
0.000102113
9.23558e-05
8.0404e-05
6.4142e-05
4.45209e-05
6.54301e-05
0.000186908
0.000186809
0.000186545
0.000186043
0.000185716
0.000185304
0.000184811
0.000184362
0.00018386
0.000183336
0.000182795
0.00018219
0.00018154
0.000180835
0.000180064
0.000179235
0.000178344
0.000177396
0.000176387
0.000175354
0.000174261
0.000173
0.000171642
0.000170301
0.000169024
0.000167782
0.000166583
0.000165532
0.000164747
0.000164512
0.000165173
0.000166708
0.00017123
0.000180986
0.000182333
0.0002263
0.000262206
0.000156359
8.0134e-06
0.000186952
0.000187141
0.000187552
0.000187706
0.000187724
0.000187666
0.000187461
0.000187097
0.000186588
0.000185955
0.000185195
0.000184316
0.000183342
0.000182287
0.000181129
0.000179853
0.000178441
0.000176861
0.000175066
0.000172994
0.000170576
0.000167722
0.000164333
0.000160383
0.000155925
0.000151049
0.000145803
0.000140217
0.000134293
0.000128033
0.000121421
0.00011441
0.000106877
9.86191e-05
8.90365e-05
7.70496e-05
6.0199e-05
3.34987e-05
5.88283e-05
0.000175286
0.000175281
0.00017513
0.000174767
0.000174577
0.000174314
0.00017398
0.00017369
0.000173355
0.000173
0.000172637
0.000172216
0.000171759
0.000171255
0.000170698
0.000170094
0.000169443
0.000168749
0.000168007
0.000167247
0.000166445
0.000165487
0.00016442
0.000163371
0.000162401
0.000161487
0.000160632
0.000159943
0.000159536
0.000159693
0.000160753
0.000162676
0.000167418
0.000177148
0.000177986
0.000223779
0.000250547
0.000152602
8.36663e-06
0.00017526
0.000175378
0.000175695
0.000175772
0.00017574
0.000175654
0.000175452
0.000175124
0.000174684
0.000174144
0.000173499
0.000172756
0.000171935
0.000171039
0.000170059
0.00016898
0.000167793
0.000166466
0.000164956
0.000163209
0.000161162
0.000158721
0.000155791
0.00015234
0.000148409
0.000144064
0.000139353
0.000134293
0.00012888
0.000123105
0.000116944
0.000110344
0.000103166
9.52143e-05
8.59132e-05
7.41247e-05
5.7325e-05
2.20621e-05
5.41107e-05
0.000164498
0.000164564
0.000164506
0.000164257
0.00016418
0.00016404
0.000163837
0.00016368
0.000163483
0.000163268
0.00016305
0.000162782
0.000162483
0.000162148
0.000161769
0.000161355
0.000160905
0.000160422
0.000159904
0.000159377
0.000158825
0.000158127
0.000157311
0.000156514
0.000155811
0.000155184
0.000154632
0.00015426
0.000154184
0.000154673
0.000156065
0.000158318
0.000163193
0.000172811
0.000173395
0.000218352
0.00024403
0.000150652
8.74379e-06
0.000164416
0.000164473
0.000164706
0.000164712
0.000164634
0.000164522
0.000164318
0.000164017
0.000163631
0.000163167
0.000162619
0.000161983
0.000161283
0.000160524
0.000159691
0.000158776
0.000157771
0.000156653
0.000155385
0.000153918
0.000152185
0.000150102
0.000147574
0.000144564
0.000141103
0.000137242
0.000133022
0.000128452
0.000123522
0.000118215
0.000112498
0.000106317
9.95183e-05
9.19264e-05
8.30077e-05
7.16679e-05
5.56987e-05
2.58601e-05
5.19314e-05
0.000154467
0.00015459
0.000154604
0.000154449
0.000154463
0.000154427
0.000154331
0.000154282
0.000154199
0.000154099
0.000154
0.000153857
0.000153689
0.000153494
0.000153261
0.000153002
0.000152717
0.00015241
0.000152081
0.000151749
0.00015141
0.000150932
0.000150323
0.00014974
0.000149264
0.000148884
0.000148591
0.000148492
0.0001487
0.000149461
0.000151112
0.000153631
0.000158526
0.000167923
0.000168524
0.000210964
0.000234892
0.000148381
9.03128e-06
0.00015434
0.000154345
0.0001545
0.000154444
0.000154324
0.000154187
0.00015398
0.000153699
0.000153355
0.000152951
0.000152479
0.000151934
0.000151335
0.000150686
0.000149972
0.000149194
0.000148342
0.0001474
0.000146336
0.000145105
0.000143641
0.000141867
0.000139691
0.000137072
0.000134029
0.000130606
0.000126833
0.000122716
0.00011824
0.000113384
0.000108107
0.000102349
9.59555e-05
8.87754e-05
8.03477e-05
6.96947e-05
5.52369e-05
3.50706e-05
5.21101e-05
0.000145124
0.000145291
0.000145362
0.000145286
0.000145375
0.000145421
0.000145415
0.000145455
0.000145464
0.000145459
0.000145457
0.000145415
0.000145353
0.00014527
0.000145157
0.000145025
0.000144876
0.000144714
0.000144539
0.000144365
0.0001442
0.000143905
0.000143468
0.000143057
0.000142768
0.000142594
0.000142521
0.000142648
0.000143092
0.000144066
0.000145912
0.000148619
0.000153417
0.000162509
0.000163791
0.000198414
0.000232004
0.000153541
9.78711e-06
0.000144959
0.000144918
0.000145006
0.000144895
0.00014474
0.000144581
0.000144367
0.000144101
0.000143789
0.000143434
0.000143022
0.000142549
0.000142032