/*--------------------------------*- C++ -*----------------------------------*\
| =========                 |                                                 |
| \\      /  F ield         | OpenFOAM: The Open Source CFD Toolbox           |
|  \\    /   O peration     | Version:  2206                                  |
|   \\  /    A nd           | Website:  www.openfoam.com                      |
|    \\/     M anipulation  |                                                 |
\*---------------------------------------------------------------------------*/
FoamFile
{
    version     2.0;
    format      ascii;
    arch        "LSB;label=32;scalar=64";
    class       volSymmTensorField;
    location    "50";
    object      turbulenceProperties:R;
}
// * * * * * * * * * * * * * * * * * * * * * * * * * * * * * * * * * * * * * //

dimensions      [0 2 -2 0 0 0 0];

internalField   nonuniform List<symmTensor> 
10720
(
(0.00811716 0.0012768 -5.24499e-21 0.00657521 -2.37165e-20 0.00739864)
(0.00976719 0.00155488 5.1533e-21 0.00764464 1.73471e-20 0.00874242)
(0.0120313 0.00184831 1.51086e-21 0.0088708 7.62341e-21 0.010543)
(0.0151322 0.00224059 6.63549e-20 0.0104957 2.52413e-19 0.0129395)
(0.0190402 0.00264273 -1.439e-19 0.0122992 -4.43243e-19 0.0158186)
(0.0242394 0.00296811 -1.76915e-19 0.014382 -3.40306e-19 0.0195504)
(0.0311213 0.00319529 3.36787e-20 0.0168948 -3.54775e-21 0.0243297)
(0.0399361 0.00311635 2.13723e-20 0.0198317 3.37935e-20 0.0302986)
(0.051289 0.00246736 6.5068e-20 0.023432 -5.25596e-20 0.0379316)
(0.065739 0.00101688 -1.47356e-20 0.0280921 -1.47841e-20 0.0476455)
(0.083936 -0.00163635 1.78931e-18 0.0343387 8.67562e-19 0.0600702)
(0.107279 -0.00592812 -3.86732e-19 0.0431443 -2.96809e-19 0.076397)
(0.137709 -0.0124949 8.05042e-19 0.0558505 -1.20767e-18 0.0982811)
(0.178909 -0.0223899 3.8245e-19 0.0747048 8.59404e-19 0.128711)
(0.235267 -0.0371848 6.7469e-19 0.102691 -1.19616e-18 0.171409)
(0.314999 -0.059682 9.80097e-20 0.145216 4.23573e-18 0.233246)
(0.430734 -0.094621 2.32028e-17 0.211218 1.12813e-17 0.325248)
(0.607565 -0.150789 -3.49457e-18 0.318055 7.34982e-18 0.468766)
(0.883583 -0.243168 -2.8666e-18 0.494829 -3.50774e-17 0.697933)
(1.33897 -0.401653 1.59611e-18 0.80128 -2.04641e-19 1.08314)
(2.12451 -0.684823 -5.18781e-17 1.35465 -3.98833e-17 1.75989)
(3.66475 -1.25263 1.07759e-16 2.47678 2.07493e-16 3.1032)
(6.12331 -2.20728 -8.20948e-17 4.38685 -3.03298e-16 5.30617)
(14.2791 -5.44514 1.99433e-16 10.9522 5.93261e-17 12.7339)
(14.1771 -5.74146 -2.5773e-16 11.812 -1.21043e-17 13.0967)
(9.87333 -4.22185 1.77136e-17 8.96891 -1.28171e-15 9.46603)
(7.27723 -3.23318 2.78737e-16 7.09299 -5.22362e-17 7.19316)
(5.2104 -2.37317 2.09889e-16 5.34257 4.48018e-16 5.27429)
(4.00661 -1.8603 6.20035e-16 4.28097 8.67361e-16 4.14814)
(3.32152 -1.56162 1.01351e-16 3.65349 4.10462e-15 3.49452)
(2.4263 -1.15172 -9.83124e-16 2.72794 -1.54497e-15 2.58988)
(1.75172 -0.849749 -5.26022e-16 2.08507 -2.63619e-15 1.93756)
(2.13196 -1.04724 -1.13498e-15 2.68264 -3.59465e-15 2.4043)
(1.13804 -0.546669 -7.35746e-16 1.3541 -6.48096e-15 1.22536)
(0.696131 0.165031 1.04827e-15 0.353052 2.66063e-15 0.541926)
(1.90976 0.65265 7.04198e-17 1.28651 1.81272e-15 1.62992)
(1.95078 0.69239 -1.63246e-16 1.3741 2.24868e-17 1.67614)
(1.57894 0.549276 -2.05082e-16 1.09905 -2.18659e-15 1.32)
(2.80669 1.0743 3.66781e-16 2.14901 9.42136e-16 2.54952)
(0.00669255 0.00105333 1.49382e-21 0.0056471 -2.92291e-21 0.00618465)
(0.00558798 0.000848376 -9.62125e-21 0.00481678 1.17197e-20 0.00523113)
(0.00444461 0.000645147 -3.02874e-20 0.00391487 -2.90484e-20 0.0041906)
(0.00348275 0.000471831 5.95541e-20 0.00310375 -7.26047e-20 0.00329043)
(0.00270743 0.000328983 -8.98934e-20 0.00240254 5.03657e-20 0.00253372)
(0.00231224 0.000240925 -9.82203e-20 0.00200193 1.54737e-19 0.00213126)
(0.00268532 0.000260313 1.34563e-19 0.00219879 2.42937e-20 0.00242367)
(0.00359678 0.000334105 5.62279e-20 0.00278042 -2.26633e-19 0.00318406)
(0.00511078 0.000493891 6.84207e-20 0.00374272 1.30232e-20 0.00443241)
(0.00739548 0.000823834 -6.98346e-20 0.00514498 -2.41503e-20 0.00629016)
(0.0107108 0.00145662 7.64273e-20 0.00708864 1.78438e-19 0.00894308)
(0.0153934 0.00258008 2.3815e-19 0.00972866 -1.27082e-19 0.0126357)
(0.0218372 0.0044352 -4.00141e-19 0.0133346 6.70558e-20 0.0177064)
(0.030543 0.00727746 3.15186e-19 0.0183567 -7.03268e-20 0.0246304)
(0.0422332 0.0113496 1.49622e-18 0.0254748 -1.38782e-19 0.0340929)
(0.0582774 0.0171151 1.45208e-18 0.0358787 -3.71016e-19 0.0473995)
(0.0811963 0.0254145 4.56042e-19 0.0514725 3.39654e-19 0.0667467)
(0.115348 0.0378734 -4.52432e-20 0.0755723 4.63908e-19 0.0960049)
(0.169002 0.0576081 1.96546e-19 0.114419 -1.08837e-19 0.142442)
(0.255723 0.0900176 2.75829e-19 0.178869 3.44871e-20 0.218357)
(0.403135 0.146066 -4.50484e-19 0.291171 -2.66241e-18 0.348761)
(0.662846 0.246986 -2.38757e-18 0.494907 2.34282e-19 0.581532)
(1.16546 0.446749 2.49859e-18 0.901714 2.87412e-19 1.03839)
(2.05877 0.813637 2.89823e-19 1.65892 1.31037e-18 1.86826)
(4.0883 1.66637 1.33972e-16 3.44255 -6.79144e-18 3.78573)
(8.13016 3.40885 3.43478e-18 7.14933 1.36393e-17 7.68187)
(17.8265 7.6691 -7.65633e-19 16.3525 -2.82188e-17 17.1881)
(30.1174 13.2636 -7.38081e-18 28.7982 2.26754e-19 29.6245)
(37.0182 16.6518 8.48388e-18 36.8709 1.14894e-19 37.131)
(38.9001 17.8282 4.37353e-16 40.288 -6.24519e-17 39.7621)
(38.7918 18.0681 -3.82998e-17 41.6743 -1.87841e-18 40.3738)
(38.1168 18.0014 -9.07088e-17 42.3715 2.83617e-16 40.3588)
(37.1617 17.7598 -2.74927e-15 42.6473 -5.14283e-16 39.9949)
(35.9887 17.3738 -4.73021e-15 42.546 1.11354e-15 39.3356)
(34.6195 16.8572 4.34419e-15 42.0812 3.13141e-16 38.4009)
(33.1074 16.2406 -1.74107e-17 41.3165 -3.76075e-16 37.2511)
(31.2122 15.4111 -6.36735e-17 39.9623 3.22366e-16 35.6265)
(28.9755 14.3861 -1.16444e-16 38.0384 3.38273e-17 33.5391)
(23.7976 11.8963 -4.14883e-15 32.2128 -1.31273e-16 28.1161)
(0.00194658 -0.000108747 -9.62894e-22 0.00157759 -2.58342e-21 0.00174632)
(0.00192244 -0.00013987 -1.90853e-23 0.001604 3.68207e-21 0.00174376)
(0.00187169 -0.00016741 1.32232e-21 0.00162634 3.74041e-22 0.00172424)
(0.00179277 -0.000181559 1.51034e-21 0.00162476 -7.43596e-23 0.00167912)
(0.00169069 -0.000184123 7.93687e-21 0.00160006 2.03332e-20 0.00161181)
(0.00157505 -0.000177136 1.78102e-20 0.00155865 3.47483e-20 0.00152939)
(0.00144886 -0.000161707 -4.29339e-21 0.00149173 8.43013e-22 0.00142947)
(0.00131634 -0.000141099 -4.72109e-21 0.00140163 -1.89952e-21 0.00131589)
(0.00118801 -0.000119018 -4.55068e-20 0.0013007 -4.82229e-20 0.00119959)
(0.00106503 -9.78318e-05 -1.16825e-20 0.00119001 -5.09507e-21 0.00108179)
(0.000951015 -7.91034e-05 -1.30141e-19 0.00107749 -1.21504e-19 0.00096822)
(0.000851803 -6.39509e-05 -1.60077e-21 0.00097306 1.57762e-20 0.000866348)
(0.000769208 -5.28688e-05 -5.96046e-20 0.000881663 -2.45444e-21 0.000778942)
(0.000695613 -4.46999e-05 3.89616e-20 0.00079501 2.3083e-20 0.00069984)
(0.000702195 -5.02604e-05 -9.26622e-20 0.000805221 -2.91024e-20 0.00070012)
(0.000841641 -8.33897e-05 3.1968e-19 0.000976744 8.18575e-20 0.000823926)
(0.00136347 -0.000237767 -7.56029e-19 0.00159827 -5.9799e-19 0.00127114)
(0.00295417 -0.000860419 -2.05291e-18 0.00325675 -7.12352e-19 0.00251504)
(0.00744776 -0.00264037 -5.08442e-18 0.00704926 1.75347e-18 0.00596564)
(0.0215611 -0.00784155 1.07122e-18 0.0178115 -1.25835e-20 0.0171883)
(0.0639806 -0.0230591 1.21062e-17 0.0487623 1.34186e-17 0.0519259)
(0.249338 -0.0895094 -3.01327e-17 0.183227 -6.26678e-17 0.206745)
(0.677238 -0.2461 7.23058e-19 0.497255 8.97631e-17 0.574495)
(3.21054 -1.19999 2.9432e-18 2.42084 -4.95373e-17 2.79196)
(8.24004 -3.1922 -0 6.47926 -0 7.35658)
(13.8889 -5.60027 -4.75561e-17 11.5234 1.23888e-15 12.7473)
(18.0324 -7.59039 -5.24361e-17 15.975 6.5986e-17 17.0591)
(18.3491 -8.0442 -1.72977e-16 17.4381 -1.16003e-15 17.9273)
(15.9312 -7.20636 -5.76166e-16 16.094 -5.23261e-15 16.0203)
(12.9042 -5.95224 -3.08579e-16 13.6125 -1.69991e-14 13.2353)
(10.4437 -4.89976 3.90057e-16 11.4743 9.63236e-15 10.9278)
(8.18564 -3.92782 5.51864e-16 9.49399 1.47432e-14 8.86716)
(5.42536 -2.61072 8.29079e-16 6.32009 1.05747e-14 5.91532)
(2.96379 -1.3366 5.74103e-15 3.00566 3.46861e-14 2.94602)
(3.63496 -1.69925 -1.54191e-15 4.0456 -1.06591e-14 3.74707)
(4.98291 -2.47043 -9.93617e-16 6.56473 -4.29278e-15 5.7463)
(5.78981 -2.91139 -4.30176e-16 8.23541 1.18718e-16 7.02671)
(7.07451 -3.54995 2.10387e-15 9.97119 1.50678e-14 8.51458)
(6.23734 -3.14253 -1.90514e-15 10.1494 -4.37122e-15 8.30077)
(0.00194322 -6.91162e-05 1.80884e-21 0.00153912 1.96434e-21 0.00172989)
(0.00191888 -2.73641e-05 1.7388e-21 0.00149903 -3.94244e-20 0.00170116)
(0.00186231 2.26706e-05 -2.63033e-20 0.00145069 2.29872e-21 0.00165427)
(0.00175684 7.36136e-05 1.3864e-20 0.00138821 6.48946e-20 0.00157426)
(0.00161614 0.000114117 8.72571e-20 0.00132015 -6.29356e-20 0.00147266)
(0.00147273 0.000139257 -5.51939e-20 0.00125976 -5.35205e-20 0.001373)
(0.00131109 0.000148426 -2.76065e-20 0.00119345 -4.4146e-20 0.00125848)
(0.00113146 0.000140933 -9.14768e-20 0.00111125 3.89869e-20 0.0011237)
(0.000961858 0.000119473 -7.89392e-21 0.00101758 4.78397e-20 0.000986952)
(0.000815034 9.22378e-05 -2.69176e-20 0.00091548 7.45731e-21 0.000858064)
(0.000689255 6.63399e-05 1.41014e-20 0.000806431 -3.96741e-20 0.000737501)
(0.000581513 4.5529e-05 -5.07881e-21 0.000696727 -1.028e-20 0.000626883)
(0.000488769 3.04396e-05 9.49515e-21 0.000592148 2.47972e-20 0.000527389)
(0.000409122 2.04943e-05 -1.5267e-20 0.000496625 -2.55316e-21 0.00043982)
(0.000341724 1.44214e-05 -4.46815e-21 0.00041299 -1.41278e-20 0.000365003)
(0.000285859 1.07886e-05 -3.10938e-20 0.000342633 1.36329e-21 0.000303028)
(0.000239037 8.57124e-06 -2.08821e-21 0.000283156 6.80971e-22 0.00025132)
(0.000199949 7.09319e-06 -5.0416e-23 0.0002334 -7.92423e-22 0.000208502)
(0.000165311 5.76609e-06 -2.78049e-21 0.000189476 1.04187e-21 0.000171002)
(0.000132761 4.33401e-06 2.44916e-21 0.000148831 -6.7782e-22 0.00013626)
(9.89572e-05 2.69744e-06 -1.58548e-20 0.00010794 5.13564e-21 0.000100763)
(6.21977e-05 1.13387e-06 -1.01459e-21 6.56866e-05 1.46421e-22 6.28375e-05)
(3.38136e-05 3.40132e-07 1.11642e-22 3.48129e-05 -4.23256e-23 3.39737e-05)
(1.73052e-05 8.8299e-08 4.4199e-22 1.75522e-05 -5.32744e-23 1.73361e-05)
(0.000417932 5.64449e-05 -2.47387e-19 0.000557893 2.35115e-20 0.000429375)
(0.00244776 0.00076435 -2.54364e-18 0.00406554 -1.25621e-19 0.00251765)
(0.0167529 0.0056233 2.10535e-19 0.0270764 8.80869e-19 0.0169346)
(0.0862826 0.0311139 3.12306e-20 0.134617 1.63402e-18 0.0864933)
(0.221252 0.087322 -7.80797e-20 0.329024 -1.06097e-21 0.221528)
(0.384013 0.164238 3.30551e-18 0.539399 4.25014e-17 0.386783)
(0.541316 0.244248 2.35931e-18 0.721767 -4.96362e-17 0.55199)
(0.669815 0.311302 5.21307e-17 0.86267 -1.42258e-16 0.693544)
(0.767373 0.362605 2.99191e-15 0.973892 1.64161e-16 0.807359)
(0.846315 0.404214 2.76981e-15 1.07324 -1.08126e-15 0.903971)
(0.916195 0.441244 -2.56537e-15 1.17037 1.79379e-16 0.992966)
(0.992408 0.480989 2.40269e-15 1.27676 2.9725e-16 1.0886)
(1.0699 0.521873 -4.32417e-15 1.38879 -6.07791e-16 1.18911)
(1.3041 0.636428 -3.96995e-15 1.67234 -6.46234e-16 1.44837)
(1.76321 0.868454 -3.86671e-15 2.19023 -2.96127e-16 2.01378)
(0.00137127 -7.6246e-05 -3.60736e-22 0.00109077 7.41577e-22 0.00123712)
(0.00132945 -0.000100363 -1.37231e-20 0.00108815 -2.27735e-20 0.00121705)
(0.00126413 -0.000120509 9.55412e-21 0.00107829 1.11568e-20 0.0011818)
(0.00117872 -0.000132276 1.22857e-20 0.00105821 1.71268e-20 0.00113218)
(0.00108751 -0.000135422 2.29236e-20 0.00103529 3.28205e-20 0.00107796)
(0.000989097 -0.000129141 -6.74033e-20 0.00100488 -9.62358e-20 0.00101661)
(0.00089079 -0.000113983 4.54641e-20 0.000966766 6.76199e-20 0.000951785)
(0.000802999 -9.26547e-05 5.51514e-20 0.000926429 5.35514e-20 0.000890725)
(0.000728692 -6.71794e-05 -2.54295e-21 0.000885364 5.4372e-21 0.000835851)
(0.00067219 -4.04306e-05 4.12197e-20 0.000846987 5.71111e-20 0.000791047)
(0.000633625 -1.45939e-05 -7.20605e-20 0.000813095 -1.1133e-20 0.00075698)
(0.000611074 8.95571e-06 1.07162e-19 0.000784122 1.07196e-19 0.000733092)
(0.000602298 2.93575e-05 5.10233e-20 0.000760765 2.37159e-20 0.000718581)
(0.000602848 4.63722e-05 2.12478e-20 0.000740839 -1.96811e-20 0.000710123)
(0.000612899 5.97817e-05 7.51812e-20 0.000729179 6.84641e-20 0.000709193)
(0.000644346 7.31292e-05 -1.90332e-19 0.000744999 -1.81851e-19 0.000733289)
(0.000640445 7.4905e-05 3.90197e-20 0.000718666 6.00515e-20 0.00071308)
(0.000632235 7.38001e-05 3.37331e-19 0.000694003 1.007e-19 0.000691322)
(0.000278469 1.40938e-05 1.9436e-20 0.000288472 1.34186e-20 0.000288051)
(0.000128138 3.03659e-06 -1.19295e-21 0.000130124 -9.77009e-23 0.000129966)
(0.0036253 0.00168577 7.67743e-19 0.00473712 -1.62037e-18 0.00457626)
(0.0011747 0.000367929 4.05866e-20 0.001434 3.1705e-19 0.00138265)
(0.000325846 0.000119147 1.15573e-18 0.000408468 -1.5857e-19 0.000428427)
(0.0229565 -0.00854872 -6.86931e-18 0.0171762 -2.73305e-18 0.0200604)
(0.437326 -0.167379 1.7751e-19 0.339677 8.71797e-19 0.385534)
(2.25734 -0.891577 -1.35034e-16 1.82693 2.44446e-17 2.03075)
(6.83208 -2.78671 4.85253e-17 5.78337 3.23697e-17 6.28906)
(14.0344 -5.92019 -8.48445e-17 12.5073 -1.03914e-17 13.2534)
(18.941 -8.26334 -1.24698e-15 17.8649 1.93788e-15 18.3996)
(18.7556 -8.42126 -7.95691e-16 18.678 -5.74508e-17 18.7088)
(16.3376 -7.51964 3.46501e-15 17.1429 -1.46908e-15 16.7224)
(13.1167 -6.17668 1.60679e-15 14.4774 2.68358e-15 13.8335)
(9.11471 -4.28335 3.82904e-16 9.98624 7.11092e-15 9.6044)
(6.90888 -3.11764 1.8451e-15 6.97089 -8.963e-15 6.90668)
(8.72989 -4.14814 -2.55757e-16 10.0133 -2.8996e-15 9.25147)
(9.31375 -4.62556 -2.77628e-15 12.3624 -1.67619e-14 10.7935)
(8.67791 -4.36487 -1.0494e-17 12.5234 -4.6403e-15 10.596)
(7.72454 -3.8706 6.11014e-16 11.1411 -6.24604e-15 9.34574)
(7.47436 -3.76233 -8.52396e-16 11.9229 2.37955e-17 9.74177)
(0.00140047 -4.73723e-05 -3.779e-21 0.00109193 -6.34701e-21 0.00125128)
(0.00141181 -1.7637e-05 -1.62781e-21 0.00109023 8.95816e-21 0.00125446)
(0.0014034 1.75865e-05 4.11777e-20 0.00108415 2.96812e-20 0.00124626)
(0.00135392 5.25198e-05 -3.1167e-20 0.00106085 -4.54666e-21 0.0012079)
(0.00127078 8.29951e-05 2.15372e-21 0.0010258 4.94962e-21 0.00114803)
(0.00116711 0.000104635 2.22749e-20 0.000985279 5.09746e-20 0.00107655)
(0.0010577 0.00011685 1.76331e-20 0.0009473 1.27284e-20 0.00100316)
(0.00093104 0.000116055 9.80869e-20 0.000892235 3.28428e-20 0.000912212)
(0.000793934 0.000103462 3.16102e-20 0.000814003 -2.05456e-20 0.000805122)
(0.000658354 8.39623e-05 4.27731e-20 0.000718539 3.97017e-21 0.000690906)
(0.000532938 6.24249e-05 -6.70523e-20 0.000613998 -6.25578e-21 0.00057753)
(0.000424255 4.25905e-05 -3.26452e-20 0.000510855 4.22981e-20 0.000473157)
(0.000334321 2.62237e-05 6.82356e-20 0.000416362 -2.95413e-20 0.000382319)
(0.00026257 1.38376e-05 2.0978e-20 0.000334338 -2.17562e-22 0.000306633)
(0.000209036 5.24345e-06 -4.01621e-20 0.000268854 2.18555e-20 0.000247952)
(0.000170806 -4.85119e-07 -1.82606e-20 0.000219169 2.70408e-20 0.000204589)
(0.000144797 -4.09813e-06 6.40257e-20 0.000183298 -2.54841e-20 0.000173985)
(0.000127732 -6.31356e-06 4.53598e-20 0.000158244 -9.05587e-21 0.000153088)
(0.000117143 -7.69925e-06 1.58506e-20 0.000141645 -2.57211e-21 0.000139475)
(0.000111145 -8.73748e-06 -5.63763e-21 0.000131105 1.04422e-20 0.000131141)
(0.000108403 -9.68782e-06 8.99013e-20 0.000124935 -6.35072e-21 0.000126561)
(0.000108762 -1.08104e-05 1.21131e-21 0.000122325 -5.19435e-21 0.00012537)
(0.000112024 -1.21946e-05 -1.7295e-22 0.000122262 -2.00255e-22 0.000126981)
(0.000118663 -1.36474e-05 -6.86506e-22 0.000123652 5.9924e-22 0.000131452)
(0.00012566 -1.40339e-05 1.40463e-21 0.000123407 -3.64855e-21 0.000135499)
(0.000130665 -1.2884e-05 1.39259e-19 0.000121499 -9.6942e-21 0.000137433)
(0.000125255 -9.59364e-06 -2.98643e-21 0.000112621 1.89082e-22 0.000129077)
(0.000127537 -8.10914e-06 -1.263e-20 0.00011113 -7.84874e-22 0.000130067)
(0.00168734 -0.000250169 -1.09335e-20 0.000912884 2.28273e-21 0.0017536)
(0.00684107 -0.000478784 -4.98111e-18 0.00341639 -1.47423e-19 0.00701241)
(0.0154814 0.00122727 3.00332e-17 0.00769794 5.00262e-18 0.015771)
(0.0286054 0.00866031 -4.94664e-18 0.0186248 -5.51067e-20 0.0292438)
(0.0580624 0.024864 -3.87287e-16 0.0520849 9.17866e-17 0.0599794)
(0.109166 0.0505294 9.56166e-19 0.114444 8.3657e-17 0.114041)
(0.177284 0.0839321 1.85201e-17 0.199877 -1.68166e-16 0.187479)
(0.255168 0.121624 -6.43046e-18 0.295459 2.81039e-16 0.271615)
(0.332504 0.15918 -2.80998e-18 0.390221 -4.26422e-16 0.356302)
(0.413041 0.192827 2.68361e-15 0.448337 5.42394e-16 0.429531)
(0.57846 0.274597 5.22843e-15 0.641836 1.53008e-15 0.625245)
(0.00109132 -6.1115e-05 -2.79852e-21 0.000871025 -2.89397e-21 0.000979667)
(0.0010782 -7.97045e-05 -4.08547e-21 0.000883331 -7.99704e-21 0.000978855)
(0.0010537 -9.69033e-05 9.96666e-21 0.000895663 9.39106e-21 0.000971789)
(0.00102111 -0.000109665 5.93755e-21 0.000907097 1.37254e-20 0.000960163)
(0.000979732 -0.000116656 1.19608e-21 0.000913592 5.03018e-22 0.000941574)
(0.0009298 -0.000117645 3.8121e-22 0.000913691 2.77957e-21 0.000915283)
(0.000875622 -0.000112772 9.05323e-20 0.000906679 9.03728e-20 0.000883187)
(0.000818297 -0.000102838 -8.64317e-20 0.000889898 -9.87354e-20 0.000844543)
(0.00076012 -8.92108e-05 1.28645e-20 0.000864137 3.51626e-21 0.000800793)
(0.000702754 -7.36087e-05 1.08401e-19 0.00082934 8.03283e-20 0.000753011)
(0.000646954 -5.74574e-05 9.21582e-20 0.000786618 8.61494e-20 0.000702061)
(0.000593501 -4.19806e-05 9.69154e-20 0.000737862 3.53967e-20 0.000649381)
(0.000543063 -2.80741e-05 -1.05587e-19 0.000685311 -7.73449e-20 0.000596418)
(0.00049488 -1.61826e-05 -7.31763e-20 0.000629687 -6.40944e-20 0.000543215)
(0.000448032 -6.52562e-06 5.85781e-21 0.000571466 -1.98617e-20 0.000489691)
(0.000401966 6.07814e-07 -1.62571e-19 0.000511363 3.47896e-21 0.000435833)
(0.000350464 6.31508e-06 -4.67576e-20 0.000442698 -5.44486e-20 0.000376113)
(0.000300043 1.08575e-05 -2.72636e-19 0.000374438 -1.99795e-19 0.00031783)
(0.000238492 1.28043e-05 2.12217e-20 0.000287287 -3.1043e-20 0.00024807)
(0.000200968 1.42313e-05 9.67521e-21 0.000232526 -1.91869e-20 0.000206141)
(2.49377e-05 2.48855e-07 -1.2679e-21 2.52809e-05 -4.69921e-23 2.5003e-05)
(9.99239e-05 3.52935e-06 2.07604e-21 0.000103644 4.64514e-22 0.000101021)
(0.000111437 3.50847e-06 -7.59589e-21 0.000114665 -1.62731e-21 0.000112682)
(0.002679 0.00123452 -8.84455e-19 0.00366345 7.28837e-19 0.00308641)
(0.0126666 0.00615019 1.72109e-18 0.0166775 1.40419e-19 0.014011)
(0.0102652 -0.0038061 5.20535e-18 0.00786669 2.76988e-18 0.00863448)
(0.294399 -0.116398 -2.81846e-18 0.239146 6.15797e-19 0.264186)
(2.40512 -0.985779 1.89498e-17 2.05174 1.0143e-18 2.21997)
(8.83073 -3.73755 5.95601e-16 7.91379 1.93582e-16 8.35937)
(16.4792 -7.19185 -1.01331e-16 15.5556 1.52556e-15 16.0096)
(19.398 -8.72241 -1.80864e-15 19.3651 -3.67035e-15 19.3864)
(17.4431 -8.03634 4.20588e-15 18.3004 -6.16162e-15 17.9088)
(13.2624 -6.11242 2.01208e-15 13.9225 -1.1016e-16 13.6245)
(11.2171 -5.09766 -1.16694e-15 11.4695 -1.3296e-14 11.3089)
(12.5691 -5.99482 -2.87117e-15 14.465 -6.77967e-15 13.4319)
(12.3022 -6.11284 2.05134e-15 16.2872 1.2428e-14 14.2734)
(10.7773 -5.42306 -4.63043e-15 15.5679 5.99747e-16 13.1781)
(8.66083 -4.34381 -2.65411e-15 12.5781 -2.77545e-15 10.5328)
(7.58897 -3.82914 2.33962e-15 11.9534 7.58546e-16 9.8437)
(0.00109314 -3.92866e-05 -9.04406e-22 0.000855569 2.87809e-21 0.000973915)
(0.00108743 -1.70006e-05 2.62965e-21 0.000842008 2.34935e-20 0.000964597)
(0.00106844 9.21289e-06 1.28263e-20 0.00082584 1.55709e-20 0.000947834)
(0.00102984 3.53802e-05 2.74253e-20 0.000805076 -1.51378e-20 0.000917572)
(0.00097646 5.88661e-05 -5.14673e-20 0.000783432 -2.71377e-20 0.000879815)
(0.000911164 7.6932e-05 -1.25721e-20 0.000761093 -3.12148e-20 0.000836204)
(0.000832217 8.77788e-05 -6.0971e-20 0.000733741 -2.3691e-20 0.000783481)
(0.000741197 8.95835e-05 -5.51719e-20 0.000696188 3.81416e-21 0.000719245)
(0.000647339 8.32959e-05 -9.0545e-22 0.000649349 -1.43255e-20 0.000648741)
(0.000558223 7.16489e-05 2.97357e-20 0.000596447 -1.80085e-20 0.000577402)
(0.000478085 5.75431e-05 1.47815e-20 0.000540035 3.31925e-20 0.000508549)
(0.000409076 4.35489e-05 5.46339e-20 0.000483339 -2.25622e-20 0.000444938)
(0.000350839 3.12532e-05 -4.46306e-20 0.000428681 -1.7642e-20 0.000387685)
(0.000302228 2.13874e-05 3.1555e-21 0.000377872 7.49076e-21 0.000337196)
(0.000262489 1.41187e-05 4.84973e-20 0.000332838 -1.34423e-20 0.000294069)
(0.000229889 9.00282e-06 7.7625e-20 0.000293773 -1.19285e-20 0.000257642)
(0.000203435 5.5608e-06 -5.96551e-20 0.000260885 1.86836e-21 0.000227511)
(0.000182047 3.28919e-06 -7.67378e-21 0.00023368 -1.01683e-20 0.000202887)
(0.000165184 1.74261e-06 -2.90181e-21 0.000211936 1.9498e-21 0.000183348)
(0.000151658 5.27476e-07 8.35419e-20 0.000194367 -2.18126e-20 0.000167679)
(0.0001408 -5.84193e-07 8.5608e-21 0.000180152 -7.30442e-21 0.000155086)
(0.000131499 -1.77167e-06 -7.90815e-20 0.000167828 1.45558e-20 0.000144286)
(0.000122704 -3.10661e-06 -1.14518e-21 0.000155893 2.7482e-21 0.000133979)
(0.000112683 -4.4093e-06 -3.21114e-22 0.000142011 -1.42223e-22 0.000122137)
(0.000101933 -5.14743e-06 -4.62731e-22 0.000127019 3.38118e-23 0.000109265)
(9.31856e-05 -5.2312e-06 -5.64246e-20 0.000114793 1.18445e-20 9.85321e-05)
(8.66903e-05 -4.97567e-06 7.23879e-22 0.000105639 -1.49184e-22 9.0422e-05)
(8.29636e-05 -4.80998e-06 1.26578e-20 0.000100493 -1.55637e-21 8.55463e-05)
(7.2488e-05 -3.94884e-06 -6.47041e-22 8.62554e-05 -5.04319e-24 7.38822e-05)
(6.88851e-05 -4.25514e-06 -2.90487e-22 8.2536e-05 -5.73778e-21 6.96807e-05)
(4.24816e-06 -2.11825e-08 -2.3966e-22 4.30669e-06 2.93458e-23 4.24878e-06)
(3.58856e-05 -2.53306e-06 -4.33251e-22 4.15545e-05 -2.54248e-23 3.55065e-05)
(0.000349171 -9.26289e-05 1.30492e-19 0.000508899 -2.19929e-19 0.000305364)
(0.000575282 -2.42738e-05 2.79603e-17 0.000607833 6.50057e-18 0.000361699)
(0.00292696 0.00101297 -1.04794e-18 0.0020791 -1.28319e-19 0.00236899)
(0.0125007 0.00478073 -2.50474e-16 0.00957582 -6.4104e-18 0.0112978)
(0.0351562 0.0145208 1.60391e-15 0.0299592 2.23239e-16 0.0333804)
(0.0915884 0.0365508 3.60064e-18 0.0742676 -5.2034e-17 0.0849113)
(0.23884 0.107628 1.88343e-16 0.236642 -1.0473e-15 0.242895)
(0.000841489 -4.66499e-05 -2.21556e-21 0.000670849 -1.46312e-21 0.000756629)
(0.00082794 -6.06026e-05 -5.43557e-21 0.000677017 -7.85751e-21 0.000753312)
(0.000806583 -7.34525e-05 1.85138e-20 0.00068347 2.35548e-20 0.00074603)
(0.000777207 -8.2916e-05 -7.50107e-20 0.000687679 -7.86739e-20 0.000733804)
(0.000741099 -8.81169e-05 1.84968e-20 0.00068845 1.27362e-20 0.00071663)
(0.000698319 -8.87116e-05 3.85811e-20 0.000684605 3.82232e-20 0.000693798)
(0.000651343 -8.45279e-05 -3.63486e-20 0.000674984 -4.20205e-20 0.000666128)
(0.000601988 -7.60391e-05 -9.32862e-21 0.00065859 -6.72744e-22 0.000633959)
(0.000552133 -6.40901e-05 -1.29119e-19 0.000635488 -1.10678e-19 0.000598202)
(0.000504176 -4.99283e-05 -2.8538e-20 0.000606525 -4.35901e-20 0.000560599)
(0.000459633 -3.47379e-05 2.50584e-21 0.000572909 -8.83743e-21 0.000522414)
(0.000419833 -1.96251e-05 -6.99267e-20 0.000536354 -7.41e-20 0.000485178)
(0.000385767 -5.50352e-06 3.30771e-20 0.000498796 3.42014e-20 0.000450343)
(0.000357841 7.02881e-06 -1.27095e-19 0.000461858 -6.40395e-20 0.000418914)
(0.000335937 1.75115e-05 2.29411e-20 0.000426714 1.27459e-20 0.000391355)
(0.000320434 2.58084e-05 1.2614e-19 0.000395224 9.64149e-20 0.000368799)
(0.000310936 3.17704e-05 -1.64715e-19 0.000368903 -4.79529e-20 0.000351485)
(0.000301863 3.50674e-05 -2.82012e-20 0.000343739 1.24825e-19 0.000334196)
(0.000287904 3.59116e-05 -9.46314e-21 0.000314773 -1.58151e-20 0.00031195)
(0.000267578 3.46999e-05 -1.28555e-19 0.000281197 -2.26079e-20 0.000283773)
(0.000220765 2.66988e-05 1.12623e-19 0.000223583 6.55079e-20 0.000228563)
(0.000129069 1.02811e-05 1.50348e-21 0.000128764 -1.9307e-21 0.000130803)
(7.94879e-08 3.67275e-12 1.15961e-26 7.94883e-08 3.22093e-27 7.94884e-08)
(3.07836e-10 4.0581e-17 7.25567e-32 3.07836e-10 2.3498e-32 3.07836e-10)
(0 0 -0 0 -0 0)
(0.00346217 0.00159079 1.71586e-20 0.00387331 -5.84731e-20 0.00367761)
(0.017455 0.00789652 1.99032e-18 0.0177066 -3.27215e-19 0.017495)
(0.00561481 -0.00184383 -2.51458e-19 0.00368948 -4.29486e-19 0.00458171)
(0.674949 -0.27404 -1.57255e-16 0.567687 -2.11602e-17 0.61902)
(5.41601 -2.29774 5.21092e-17 4.87294 1.51657e-18 5.13601)
(13.7936 -6.04724 -1.94848e-16 13.1227 3.05073e-16 13.4606)
(17.9323 -8.06022 -4.18044e-15 17.8671 -4.30423e-15 17.9363)
(16.6053 -7.51583 -6.95034e-16 16.7932 -2.46174e-15 16.7109)
(15.4322 -7.03038 -1.25435e-14 15.8688 6.35409e-17 15.5924)
(16.1069 -7.69128 2.42923e-15 18.5518 8.98717e-15 17.2621)
(14.9287 -7.41096 -4.73243e-18 19.6117 7.98771e-19 17.2733)
(12.4139 -6.24557 5.20992e-16 17.813 1.73834e-14 15.1335)
(9.39387 -4.71414 4.69111e-16 13.6425 2.74157e-15 11.4388)
(7.31132 -3.69477 -7.50088e-15 11.4616 2.05388e-15 9.48572)
(0.000846959 -3.05472e-05 5.60714e-21 0.000662736 -1.3866e-21 0.000755425)
(0.000846375 -1.39784e-05 -1.69169e-20 0.000655408 -1.67967e-20 0.000751198)
(0.000835615 5.47727e-06 -1.84852e-20 0.000645588 2.42074e-20 0.000741071)
(0.000809095 2.52045e-05 5.02212e-20 0.000631114 -3.14088e-22 0.000719933)
(0.000772067 4.33922e-05 -1.05948e-20 0.000616252 -6.15641e-20 0.000693886)
(0.000725916 5.81122e-05 -3.65282e-20 0.000601143 4.63139e-20 0.000663428)
(0.00067018 6.79086e-05 6.66406e-20 0.000583521 3.72415e-20 0.000626944)
(0.000605887 7.12413e-05 -3.59679e-20 0.000559685 -3.56073e-20 0.000582892)
(0.00053834 6.84426e-05 -5.07505e-20 0.000529174 -1.17832e-20 0.000533864)
(0.000471352 6.10402e-05 -3.91589e-20 0.000492305 1.70768e-20 0.000482014)
(0.000407438 5.09017e-05 5.43918e-20 0.000449594 -8.09793e-21 0.000428821)
(0.000348607 3.99443e-05 -4.15423e-20 0.000403036 -6.90496e-21 0.000376297)
(0.00029576 2.95835e-05 -3.45866e-20 0.000355007 2.08132e-20 0.000326101)
(0.000249143 2.06387e-05 3.23981e-20 0.000307756 5.29566e-21 0.000279469)
(0.000209041 1.34978e-05 -6.01677e-20 0.000263594 1.47061e-20 0.000237663)
(0.000175237 8.0808e-06 -1.52403e-21 0.000224059 -2.15886e-20 0.000201337)
(0.00014744 4.13117e-06 7.66851e-21 0.000190094 9.68084e-21 0.000170792)
(0.000125183 1.3072e-06 -5.82616e-20 0.000161993 7.64772e-21 0.00014591)
(0.000108012 -7.21436e-07 2.18995e-20 0.000139721 -2.42596e-21 0.000126417)
(9.51405e-05 -2.2696e-06 -9.00644e-20 0.000122544 1.26967e-20 0.000111569)
(8.58622e-05 -3.56581e-06 -4.44291e-21 0.000109643 1.35562e-21 0.000100606)
(7.93613e-05 -4.77909e-06 7.13242e-20 9.98848e-05 -5.07833e-21 9.25846e-05)
(7.48688e-05 -5.9783e-06 6.32167e-20 9.20955e-05 -9.14963e-21 8.65372e-05)
(7.11445e-05 -7.04361e-06 -5.78477e-20 8.44565e-05 5.07513e-21 8.09871e-05)
(6.71548e-05 -7.61293e-06 -5.04897e-22 7.60064e-05 -3.16701e-24 7.49075e-05)
(6.31167e-05 -7.58241e-06 -5.41079e-20 6.77893e-05 -2.12337e-21 6.8857e-05)
(6.0345e-05 -7.23321e-06 3.47971e-22 6.14421e-05 2.08399e-23 6.44157e-05)
(5.91103e-05 -6.71854e-06 2.00929e-23 5.72027e-05 1.05153e-21 6.18217e-05)
(5.94523e-05 -6.2579e-06 3.46214e-22 5.50353e-05 -5.0817e-23 6.1079e-05)
(5.80593e-05 -5.4809e-06 1.89223e-20 5.206e-05 2.28951e-21 5.87334e-05)
(5.52164e-05 -4.84584e-06 -8.27602e-23 4.85507e-05 -4.87215e-21 5.51744e-05)
(1.20026e-05 -2.71274e-07 -1.15551e-22 1.1585e-05 -1.74852e-23 1.19657e-05)
(0.000230175 -5.27582e-05 -1.481e-18 0.00014469 -2.92453e-19 0.000216424)
(4.85352e-06 -5.79598e-08 -1.6249e-21 4.75587e-06 -1.01318e-22 4.83056e-06)
(1.36362e-05 -4.97741e-07 -4.94497e-24 1.27386e-05 3.19472e-23 1.336e-05)
(5.25521e-05 -5.92581e-06 -3.90758e-19 3.94173e-05 -1.26684e-19 4.74887e-05)
(0.00123656 -0.000184016 -9.24271e-19 0.00052548 7.23599e-18 0.000922232)
(0.00415535 0.000229791 1.10608e-18 0.00159477 1.88995e-19 0.00292929)
(0.048627 0.0186639 -5.53703e-16 0.0373367 1.444e-17 0.0443481)
(0.000676029 -3.77267e-05 6.38555e-21 0.000539298 4.51726e-21 0.000607543)
(0.000669066 -4.8817e-05 -4.26211e-21 0.000547051 -2.67601e-21 0.000607979)
(0.000656932 -5.92952e-05 -5.15401e-22 0.000555845 -7.58649e-22 0.000606171)
(0.000639913 -6.74872e-05 1.58782e-21 0.000564299 -3.06239e-21 0.000601752)
(0.000618542 -7.26535e-05 5.04911e-20 0.00057117 4.77791e-20 0.000594409)
(0.00059261 -7.45601e-05 -3.37272e-20 0.000575738 -3.11145e-20 0.000583519)
(0.000563571 -7.29344e-05 -7.13816e-22 0.000576815 6.21847e-22 0.000569324)
(0.000532319 -6.79823e-05 1.10087e-19 0.000573206 9.28647e-20 0.000551631)
(0.000499806 -6.01947e-05 -1.35942e-20 0.000564487 3.70163e-21 0.000530661)
(0.000467267 -5.03824e-05 -1.20376e-19 0.000550443 -7.91243e-20 0.000506993)
(0.000435284 -3.93807e-05 3.70405e-20 0.000531098 2.82537e-20 0.000480891)
(0.000404396 -2.80116e-05 -9.4026e-20 0.000507016 -3.48373e-20 0.000452911)
(0.000374974 -1.70505e-05 -3.72502e-20 0.000478988 -1.54715e-20 0.000423655)
(0.000346986 -7.06596e-06 -5.76829e-20 0.000447744 2.45205e-20 0.000393447)
(0.000320296 1.51243e-06 4.40546e-21 0.000414085 2.42945e-21 0.000362622)
(0.000294991 8.39155e-06 4.53296e-20 0.000379231 1.05187e-20 0.000331834)
(0.000269815 1.34274e-05 6.56922e-20 0.000342712 8.57892e-20 0.000300247)
(0.0002419 1.6865e-05 2.4222e-19 0.000301653 6.8232e-20 0.000265484)
(0.000212718 1.8863e-05 -9.35851e-20 0.000258536 -6.41819e-21 0.000229572)
(0.000183638 1.93806e-05 8.6513e-20 0.000215622 3.71093e-20 0.000194326)
(0.000160231 1.95757e-05 1.33398e-20 0.000180626 -3.45651e-20 0.000166041)
(0.00013215 1.67991e-05 -1.13321e-20 0.000141064 2.08586e-20 0.000133739)
(0.000113326 1.39165e-05 -6.93772e-20 0.000114605 -3.68797e-20 0.000112486)
(8.47925e-06 7.36875e-08 6.88225e-24 8.46883e-06 -1.03685e-23 8.47144e-06)
(5.89581e-07 2.59532e-10 5.14633e-26 5.89551e-07 -8.76355e-27 5.89566e-07)
(0 0 0 0 -0 0)
(0 0 -0 0 -0 0)
(0.00209072 0.000872772 -2.07738e-19 0.00210191 -1.67431e-20 0.00209043)
(0.0329215 0.0129236 3.69408e-17 0.026483 1.23532e-17 0.0294076)
(0.252991 -0.0985081 -1.05649e-17 0.200738 -5.22447e-17 0.225738)
(3.86215 -1.64016 -1.21691e-15 3.47804 2.9352e-16 3.66894)