/*--------------------------------*- C++ -*----------------------------------*\
| =========                 |                                                 |
| \\      /  F ield         | OpenFOAM: The Open Source CFD Toolbox           |
|  \\    /   O peration     | Version:  2206                                  |
|   \\  /    A nd           | Website:  www.openfoam.com                      |
|    \\/     M anipulation  |                                                 |
\*---------------------------------------------------------------------------*/
FoamFile
{
    version     2.0;
    format      ascii;
    arch        "LSB;label=32;scalar=64";
    class       volScalarField;
    location    "50";
    object      turbulenceProperties:k;
}
// * * * * * * * * * * * * * * * * * * * * * * * * * * * * * * * * * * * * * //

dimensions      [0 2 -2 0 0 0 0];

internalField   nonuniform List<scalar> 
10720
(
0.0110455
0.0130771
0.0157225
0.0192837
0.023579
0.0290859
0.0361729
0.0450332
0.0563263
0.0707383
0.0891724
0.11341
0.14592
0.191162
0.254683
0.34673
0.4836
0.697193
1.03817
1.6117
2.61952
4.62236
7.90817
18.9826
19.5429
14.1541
10.7817
7.91363
6.21786
5.23477
3.87206
2.88718
3.60945
1.85875
0.795554
2.41309
2.50051
1.999
3.75261
0.00926215
0.00781795
0.00627504
0.00493846
0.00382184
0.00322271
0.00365389
0.00478063
0.00664295
0.00941531
0.0133712
0.0188789
0.0264391
0.036765
0.0509005
0.0707778
0.0997078
0.143463
0.212932
0.326474
0.521534
0.869642
1.55278
2.79298
5.65829
11.4807
25.6835
44.27
55.5101
59.4751
60.42
60.4235
59.902
58.9352
57.5508
55.8375
53.4005
50.2765
42.0633
0.00263525
0.0026351
0.00261113
0.00254833
0.00245128
0.00233154
0.00218503
0.00201693
0.00184415
0.00166841
0.00149836
0.00134561
0.00121491
0.00109523
0.00110377
0.00132116
0.00211644
0.00436298
0.0102313
0.0282805
0.0823344
0.319654
0.874494
4.21167
11.0379
19.0798
25.5333
26.8572
24.0227
19.876
16.4229
13.2734
8.83038
4.45774
5.71381
8.64697
10.526
12.7801
12.3438
0.00260612
0.00255954
0.00248364
0.00235966
0.00220447
0.00205274
0.00188151
0.0016832
0.0014832
0.00129429
0.00111659
0.000952561
0.000804153
0.000672784
0.000559859
0.00046576
0.000386756
0.000320925
0.000262895
0.000208926
0.00015383
9.53609e-05
5.13001e-05
2.60968e-05
0.0007026
0.00451547
0.030382
0.153696
0.385902
0.655098
0.907537
1.11301
1.27431
1.41176
1.53976
1.67889
1.82389
2.21241
2.98361
0.00184958
0.00181733
0.00176211
0.00168456
0.00160038
0.00150529
0.00140467
0.00131008
0.00122495
0.00115511
0.00110185
0.00106414
0.00104082
0.0010269
0.00102564
0.00106132
0.0010361
0.00100878
0.000427496
0.000194114
0.00646934
0.00199567
0.000581371
0.0300966
0.581269
3.05751
9.45226
19.8975
27.6028
28.0712
25.1015
20.7138
14.3527
10.3932
13.9973
16.2349
15.8987
14.1057
14.5695
0.00187184
0.00187825
0.0018669
0.00181134
0.0017223
0.00161447
0.00150408
0.00136774
0.00120653
0.0010339
0.000862233
0.000704133
0.000566501
0.00045177
0.000362921
0.000297282
0.00025104
0.000219532
0.000199132
0.000186695
0.000179949
0.000178228
0.000180634
0.000186883
0.000192282
0.000194799
0.000183477
0.000184367
0.00217691
0.00863494
0.0194752
0.038237
0.0850633
0.168826
0.28232
0.411121
0.539513
0.645455
0.92277
0.00147101
0.00147019
0.00146058
0.00144419
0.00141745
0.00137939
0.00133274
0.00127637
0.00121253
0.00114255
0.00106782
0.000990372
0.000912396
0.000833891
0.000754595
0.000674581
0.000584637
0.000496156
0.000386925
0.000319817
3.76108e-05
0.000152294
0.000169392
0.00471443
0.0216776
0.0133832
0.398866
3.33842
12.5519
24.0222
29.0747
26.8262
20.4047
16.9978
20.233
21.4314
19.7617
15.8859
14.6931
0.00146131
0.00144702
0.00142106
0.00137624
0.00131985
0.00125423
0.00117472
0.00107832
0.000972714
0.000866036
0.000763335
0.000668677
0.000583602
0.000508648
0.000444698
0.000390652
0.000345916
0.000309306
0.000280234
0.000256852
0.000238019
0.000221807
0.000206288
0.000188416
0.000169109
0.000153255
0.000141376
0.000134501
0.000116313
0.000110551
6.40182e-06
5.64733e-05
0.000581717
0.000772407
0.00368753
0.0166872
0.0492479
0.125384
0.359189
0.00113448
0.00112913
0.00111804
0.00109935
0.00107309
0.00103836
0.000996228
0.000947269
0.000892912
0.00083565
0.000777478
0.000720683
0.000667453
0.000619306
0.000577003
0.000542229
0.000515662
0.000489899
0.000457313
0.000416274
0.000336456
0.000194318
1.19232e-07
4.61754e-10
0
0.00550654
0.0263283
0.006943
0.930828
7.71248
20.1884
26.8679
25.0547
23.4467
25.9604
25.9069
22.6802
17.2376
14.1293
0.00113256
0.00112649
0.00111114
0.00108007
0.0010411
0.000995243
0.000940322
0.000874232
0.00080069
0.000722836
0.000642927
0.00056397
0.000488434
0.000418184
0.00035515
0.000300317
0.000254163
0.000216543
0.000187075
0.000164627
0.000148055
0.000135915
0.000126751
0.000118294
0.000109034
9.98815e-05
9.31014e-05
8.90673e-05
8.77833e-05
8.44263e-05
7.94707e-05
1.77767e-05
0.000295645
7.21997e-06
1.98674e-05
6.97291e-05
0.00134214
0.0043397
0.0651559
0.000911435
0.000912048
0.000909474
0.000902982
0.00089206
0.000875934
0.000854855
0.000828578
0.000797477
0.000762351
0.000723636
0.000682162
0.000638808
0.000594088
0.000548502
0.000503028
0.000456387
0.000404518
0.000350413
0.000296793
0.000253449
0.000203477
0.000170209
1.27098e-05
8.84349e-07
0
0
0.00314153
0.0444061
0.339734
5.50456
16.8095
24.3198
27.8549
30.6446
29.4858
24.7848
18.1393
13.5413
0.000906041
0.000898495
0.000885325
0.000861863
0.000834377
0.000801929
0.000762505
0.000715414
0.000663185
0.000607729
0.000550604
0.000493948
0.000439608
0.0003889
0.000342989
0.000302621
0.000268014
0.000238959
0.000215044
0.000195492
0.000179376
0.000165518
0.000152673
0.000139134
0.000124219
0.000109686
9.72497e-05
8.73049e-05
7.93266e-05
7.25607e-05
6.5612e-05
5.66963e-05
4.2477e-05
2.36327e-05
3.67115e-06
4.95351e-06
0.000217187
0.000996455
0.00764121
0.000738161
0.000739292
0.000738442
0.000734467
0.000727326
0.000716148
0.000700893
0.000681366
0.000657636
0.000630234
0.000599588
0.000566346
0.000531375
0.000495345
0.000459036
0.000423095
0.000388718
0.000357439
0.000327721
0.000296284
0.000263905
0.000229107
0.0002073
0.000166308
1.3199e-05
2.98346e-06
0
0
0
0.0540252
0.178592
4.48226
15.8709
27.3885
33.1913
31.871
26.076
18.5986
13.0265
0.000733455
0.000727295
0.00071707
0.000699298
0.000679364
0.000655593
0.000626692
0.000592687
0.000555069
0.000514741
0.000472523
0.00042961
0.000387169
0.000346136
0.00030745
0.000271918
0.000240033
0.00021205
0.000188059
0.000167846
0.00015103
0.000136973
0.000124784
0.000113077
0.000100847
8.87302e-05
7.79059e-05
6.8909e-05
6.1647e-05
5.61722e-05
5.27579e-05
5.14102e-05
5.02569e-05
4.65614e-05
3.79432e-05
1.94795e-05
1.98764e-06
7.63412e-08
0.000228004
0.000607248
0.000609464
0.000610554
0.000609441
0.000606408
0.000600591
0.000591978
0.000580328
0.00056552
0.000547846
0.000527323
0.000504263
0.000479071
0.000452025
0.000423526
0.000393926
0.00036383
0.000332262
0.000298695
0.000264785
0.000232822
0.000204481
0.00018318
0.000182602
0.000148276
4.43157e-05
3.94382e-06
0
0
0
0.0543757
0.150965
5.34452
20.1947
31.6369
32.2664
26.3212
18.5373
12.4836
0.000602508
0.000596984
0.000588669
0.000574863
0.000560085
0.000542277
0.000520675
0.000495631
0.000468054
0.000438401
0.000407085
0.000374934
0.000342737
0.000311155
0.000280899
0.000252686
0.000226984
0.000204114
0.000184213
0.000167163
0.000152632
0.000140051
0.000128605
0.000117182
0.000105065
9.28221e-05
8.14457e-05
7.13571e-05
6.24153e-05
5.4451e-05
4.74129e-05
4.1134e-05
3.55919e-05
3.07646e-05
2.76483e-05
2.48379e-05
1.74854e-05
1.70943e-06
1.48552e-05
0.000504552
0.000507032
0.000508849
0.000508952
0.000507784
0.000504582
0.000499237
0.000491537
0.000481318
0.000468635
0.000453485
0.000435989
0.000416394
0.000394934
0.000371967
0.000347835
0.000322869
0.000297662
0.000272634
0.000247648
0.000222806
0.000199179
0.00017833
0.000163819
0.000164008
0.000141873
6.31831e-05
4.2783e-06
0
0
0
0.0517588
0.521247
9.61899
24.3712
29.2353
24.8981
17.7189
11.7348
0.000500237
0.000495442
0.000488763
0.000477933
0.000466658
0.000453049
0.000436681
0.000417979
0.000397487
0.000375446
0.000352042
0.000327748
0.00030307
0.000278418
0.000254253
0.000231103
0.000209409
0.00018949
0.000171567
0.000155692
0.000141741
0.000129366
0.000118009
0.000106904
9.55284e-05
8.41984e-05
7.36976e-05
6.44805e-05
5.65371e-05
4.97517e-05
4.41509e-05
3.97885e-05
3.64275e-05
3.39224e-05
3.19965e-05
3.12567e-05
3.11296e-05
3.08705e-05
1.19799e-06
0.000423213
0.000425796
0.000428041
0.000428982
0.000429091
0.000427801
0.000424924
0.000420304
0.000413772
0.000405312
0.000394839
0.000382385
0.00036806
0.000351974
0.000334319
0.000315285
0.000295151
0.000274193
0.000252046
0.000229202
0.000206806
0.000186175
0.000168641
0.000153931
0.000144264
0.000142922
0.00012889
7.01084e-05
3.70582e-06
0
0
0
0.061734
2.24538
13.1916
21.6689
20.8935
15.6883
10.5329
0.00041925
0.000415038
0.000409621
0.000401044
0.000392235
0.0003817
0.000369166
0.000355013
0.000339612
0.000323057
0.000305434
0.000287038
0.000268152
0.000249012
0.000229951
0.00021136
0.000193586
0.000176945
0.00016165
0.000147812
0.000135386
0.000124134
0.000113642
0.000103371
9.29179e-05
8.24998e-05
7.27126e-05
6.39305e-05
5.61426e-05
4.92231e-05
4.31164e-05
3.78033e-05
3.31777e-05
2.93589e-05
2.61051e-05
2.47518e-05
2.27521e-05
3.61243e-05
1.67881e-05
0.000357704
0.000360232
0.000362595
0.000363966
0.00036478
0.000364603
0.000363197
0.00036051
0.000356312
0.000350579
0.000343193
0.000334115
0.000323378
0.000311012
0.000297137
0.000281911
0.000265472
0.000248188
0.000230138
0.000211669
0.000193333
0.00017586
0.000160366
0.000147376
0.000135278
0.000125525
0.000121423
0.000115685
5.78309e-05
2.4978e-06
0
0
0.00847307
0.0618773
3.86122
11.1076
13.8631
12.0122
8.61382
0.000354128
0.000350427
0.000346003
0.000339164
0.000332171
0.000323914
0.000314216
0.000303393
0.000291699
0.000279185
0.000265833
0.000251835
0.000237352
0.000222503
0.000207475
0.00019254
0.000177953
0.00016396
0.000150782
0.000138541
0.00012725
0.000116794
0.00010691
9.72409e-05
8.75184e-05
7.78894e-05
6.87894e-05
6.05521e-05
5.32172e-05
4.6715e-05
4.10275e-05
3.62294e-05
3.22477e-05
2.91664e-05
2.67782e-05
2.6061e-05
2.50236e-05
3.36874e-05
4.04175e-05
0.000304355
0.000306761
0.000309106
0.00031069
0.000311941
0.000312471
0.000312082
0.000310714
0.000308189
0.000304463
0.000299411
0.00029296
0.000285096
0.000275817
0.000265161
0.000253227
0.0002401
0.00022611
0.000211198
0.000195537
0.000179781
0.0001647
0.000151088
0.000139457
0.000128825
0.00011757
0.000107115
0.000102538
0.00010039
3.68587e-05
8.65614e-07
0
0
0.0567083
0.240226
2.77805
5.60363
6.65351
5.77877
0.000301153
0.000297874
0.000294229
0.000288749
0.00028313
0.000276573
0.000269005
0.000260662
0.000251711
0.000242169
0.000232007
0.000221325
0.000210206
0.000198684
0.000186884
0.00017497
0.000163107
0.000151494
0.000140304
0.000129679
0.000119677
0.000110238
0.000101188
9.22864e-05
8.33844e-05
7.45717e-05
6.61765e-05
5.8476e-05
5.15343e-05
4.53062e-05
3.97726e-05
3.4972e-05
3.08382e-05
2.74985e-05
2.4817e-05
2.37149e-05
2.30185e-05
2.85465e-05
4.4539e-05
0.000260424
0.000262669
0.00026493
0.000266598
0.000268062
0.000268999
0.000269251
0.000268762
0.00026737
0.000265032
0.000261631
0.000257081
0.000251342
0.000244369
0.000236181
0.00022683
0.000216364
0.00020501
0.000192864
0.000180009
0.000166898
0.00015413
0.000142277
0.000131729
0.000122094
0.000112093
0.000101331
8.99297e-05
8.79431e-05
8.8035e-05
1.05307e-05
1.51893e-08
0
0.00222448
0.068185
0.229249
0.818836
1.69158
2.18533
0.000257585
0.000254686
0.000251655
0.000247228
0.000242665
0.000237416
0.000231465
0.000224974
0.000218076
0.000210769
0.000203001
0.000194819
0.000186266
0.000177346
0.000168084
0.000158599
0.000148993
0.000139405
0.000129966
0.000120796
0.000111966
0.000103457
9.51723e-05
8.69786e-05
7.87986e-05
7.07101e-05
6.29564e-05
5.57753e-05
4.92507e-05
4.33682e-05
3.81246e-05
3.35682e-05
2.96695e-05
2.65367e-05
2.4019e-05
2.28953e-05
2.21835e-05
2.60648e-05
4.1419e-05
0.00022393
0.000225993
0.000228134
0.0002298
0.000231358
0.000232539
0.000233188
0.00023328
0.000232677
0.00023132
0.000229123
0.000225977
0.000221855
0.000216702
0.000210492
0.000203249
0.000194995
0.000185877
0.00017604
0.000165464
0.000154496
0.000143685
0.000133463
0.000124099
0.000115353
0.000106428
9.70625e-05
8.63816e-05
7.55716e-05
8.17185e-05
6.0551e-05
1.78686e-06
0
0
0.0182813
0.077732
0.158446
0.262501
0.345295
0.000221413
0.000218868
0.000216318
0.00021272
0.000208985
0.000204752
0.000200025
0.000194951
0.000189599
0.000183971
0.000178009
0.000171733
0.000165152
0.000158235
0.000150993
0.000143474
0.000135734
0.00012787
0.000119976
0.000112143
0.000104431
9.68558e-05
8.93714e-05
8.19222e-05
7.44796e-05
6.71107e-05
6.00039e-05
5.33553e-05
4.72539e-05
4.17056e-05
3.67119e-05
3.23032e-05
2.84729e-05
2.53186e-05
2.27031e-05
2.13662e-05
2.04233e-05
2.36109e-05
3.73002e-05
0.000193369
0.000195248
0.000197251
0.000198858
0.000200431
0.000201737
0.000202622
0.000203093
0.000203025
0.000202357
0.000201024
0.000198928
0.000196017
0.000192243
0.000187564
0.000181987
0.000175527
0.000168251
0.000160327
0.000151713
0.000142636
0.000133556
0.000124801
0.000116574
0.000108737
0.000100754
9.22623e-05
8.38657e-05
7.3065e-05
6.53538e-05
7.89175e-05
2.5405e-05
2.9424e-08
0
5.70662e-06
0.0016712
0.0139551
0.0379792
0.0404452
0.000191138
0.000188914
0.00018676
0.000183806
0.000180724
0.000177292
0.000173519
0.000169522
0.000165354
0.000161
0.000156412
0.000151577
0.000146503
0.000141147
0.000135489
0.000129552
0.000123352
0.000116935
0.000110369
0.000103718
9.70417e-05
9.03621e-05
8.36617e-05
7.6918e-05
7.01589e-05
6.34562e-05
5.69546e-05
5.0812e-05
4.51224e-05
3.99071e-05
3.51783e-05
3.09674e-05
2.72938e-05
2.42401e-05
2.16781e-05
2.02632e-05
1.92212e-05
2.17155e-05
3.37909e-05
0.000167593
0.000169306
0.000171155
0.000172678
0.00017422
0.000175568
0.000176592
0.000177302
0.000177592
0.000177412
0.000176697
0.00017536
0.000173363
0.000170644
0.000167178
0.00016294
0.000157933
0.000152181
0.000145851
0.000138871
0.00013139
0.000123794
0.000116334
0.000109171
0.000102212
9.51279e-05
8.74766e-05
8.0005e-05
7.22557e-05
6.03471e-05
6.60571e-05
5.85728e-05
1.51239e-06
0
0
0.000233175
0.00258491
0.00106478
0.00790237
0.000165627
0.000163684
0.000161862
0.000159417
0.000156857
0.000154053
0.000151025
0.00014786
0.000144593
0.000141214
0.000137669
0.000133945
0.000130033
0.000125884
0.000121473
0.000116788
0.000111836
0.000106629
0.000101205
9.56062e-05
8.98734e-05
8.40326e-05
7.80824e-05
7.20369e-05
6.59461e-05
5.98836e-05
5.39636e-05
4.83182e-05
4.30388e-05
3.81565e-05
3.3692e-05
2.96763e-05
2.61313e-05
2.31294e-05
2.05546e-05
1.90014e-05
1.78194e-05
1.97464e-05
3.0604e-05
0.000145724
0.000147282
0.000148974
0.000150404
0.000151879
0.000153218
0.000154308
0.000155163
0.000155682
0.000155831
0.000155559
0.000154781
0.000153473
0.000151573
0.000149043
0.00014586
0.000142017
0.000137512
0.000132496
0.000126894
0.00012078
0.000114467
0.000108153
0.000101969
9.58503e-05
8.95808e-05
8.28704e-05
7.58675e-05
6.9652e-05
6.07098e-05
5.42375e-05
6.39399e-05
2.24411e-05
8.2141e-08
0
0
0
0.000161031
0
0.000143998
0.00014231
0.000140758
0.000138716
0.000136576
0.000134278
0.000131832
0.000129314
0.000126744
0.000124111
0.000121365
0.000118487
0.000115464
0.000112255
0.000108817
0.000105136
0.000101193
9.69905e-05
9.25351e-05
8.78542e-05
8.29704e-05
7.79026e-05
7.26599e-05
6.72768e-05
6.18183e-05
5.63544e-05
5.09838e-05
4.58168e-05
4.0936e-05
3.63826e-05
3.21821e-05
2.83687e-05
2.49684e-05
2.20417e-05
1.94817e-05
1.78108e-05
1.64945e-05
1.7864e-05
2.75595e-05
0.000127072
0.000128485
0.000130023
0.000131354
0.000132741
0.000134044
0.000135146
0.000136077
0.000136746
0.000137123
0.000137161
0.000136798
0.000135997
0.000134711
0.000132907
0.000130554
0.000127646
0.000124159
0.000120219
0.000115775
0.000110826
0.000105612
0.000100306
9.5012e-05
8.96903e-05
8.41757e-05
7.83356e-05
7.20542e-05
6.61847e-05
6.01955e-05
5.11174e-05
5.33803e-05
5.03695e-05
2.11689e-07
4.57355e-10
0
0
0
0
0.000125553
0.000124096
0.00012277
0.000121044
0.000119254
0.000117358
0.000115377
0.000113361
0.000111331
0.00010927
0.000107138
0.000104912
0.000102576
0.000100089
9.7413e-05
9.45238e-05
9.13948e-05
8.80147e-05
8.43762e-05
8.04844e-05
7.63549e-05
7.20003e-05
6.74254e-05
6.26642e-05
5.77924e-05
5.28937e-05
4.80453e-05
4.33384e-05
3.88469e-05
3.46179e-05
3.06803e-05
2.70698e-05
2.38127e-05
2.09569e-05
1.84049e-05
1.66083e-05
1.51526e-05
1.60442e-05
2.46195e-05
0.00011109
0.000112364
0.000113764
0.000114985
0.000116284
0.000117523
0.000118612
0.000119569
0.000120325
0.000120849
0.000121104
0.00012103
0.000120606
0.000119787
0.000118544
0.000116846
0.000114679
0.000112024
0.000108956
0.000105467
0.000101502
9.72328e-05
9.28133e-05
8.83233e-05
8.37428e-05
7.89425e-05
7.38553e-05
6.84246e-05
6.29086e-05
5.80454e-05
5.12491e-05
4.62347e-05
5.19398e-05
2.95884e-05
1.6851e-06
4.03665e-08
0
0
0
0.000109751
0.000108492
0.000107357
0.000105891
0.000104387
0.000102817
0.000101202
9.95839e-05
9.79728e-05
9.63564e-05
9.46974e-05
9.297e-05
9.11626e-05
8.92346e-05
8.71507e-05
8.48869e-05
8.24111e-05
7.97012e-05
7.67437e-05
7.35319e-05
7.00632e-05
6.6341e-05
6.2371e-05
5.81922e-05
5.38808e-05
4.95111e-05
4.51531e-05
4.08822e-05
3.67669e-05
3.28536e-05
2.9176e-05
2.5768e-05
2.26588e-05
1.98803e-05
1.73459e-05
1.54353e-05
1.3841e-05
1.43109e-05
2.18144e-05
9.73368e-05
9.84829e-05
9.97492e-05
0.000100867
0.000102068
0.000103237
0.000104286
0.000105243
0.00010604
0.000106653
0.000107055
0.000107192
0.000107047
0.000106584
0.000105769
0.000104581
0.000103
0.000101009
9.86441e-05
9.59256e-05
9.27818e-05
8.93187e-05
8.56724e-05
8.19071e-05
7.80089e-05
7.3883e-05
6.94759e-05
6.48207e-05
5.99393e-05
5.544e-05
5.076e-05
4.46099e-05
4.52645e-05
5.00832e-05
2.46227e-05
9.05499e-07
1.02976e-06
0
0
9.61538e-05
9.50657e-05
9.40916e-05
9.28436e-05
9.15719e-05
9.02663e-05
8.89445e-05
8.76387e-05
8.63556e-05
8.50845e-05
8.37907e-05
8.24512e-05
8.10487e-05
7.95545e-05
7.79317e-05
7.61579e-05
7.42027e-05
7.20391e-05
6.96433e-05
6.70033e-05
6.41095e-05
6.09539e-05
5.75349e-05
5.38907e-05
5.00955e-05
4.62157e-05
4.23158e-05
3.84589e-05
3.47051e-05
3.10998e-05
2.76783e-05
2.44721e-05
2.15112e-05
1.88126e-05
1.63001e-05
1.42857e-05
1.25523e-05
1.26549e-05
1.91698e-05
8.54548e-05
8.64873e-05
8.76267e-05
8.86444e-05
8.97499e-05
9.08402e-05
9.18363e-05
9.27706e-05
9.35791e-05
9.42414e-05
9.47382e-05
9.50206e-05
9.50753e-05
9.48722e-05
9.43838e-05
9.35893e-05
9.24688e-05
9.10059e-05
8.92174e-05
8.71324e-05
8.46667e-05
8.18816e-05
7.89011e-05
7.57766e-05
7.24976e-05
6.89926e-05
6.52195e-05
6.12347e-05
5.70647e-05
5.29844e-05
4.9297e-05
4.46038e-05
4.211e-05
4.95068e-05
5.33957e-05
3.59616e-05
2.15649e-05
3.25213e-08
0
8.44095e-05
8.3466e-05
8.26307e-05
8.15623e-05
8.04818e-05
7.93929e-05
7.83065e-05
7.72496e-05
7.62259e-05
7.52251e-05
7.4212e-05
7.31672e-05
7.2079e-05
7.09185e-05
6.96556e-05
6.82671e-05
6.67245e-05
6.50018e-05
6.30712e-05
6.09131e-05
5.85085e-05
5.58502e-05
5.2928e-05
4.97708e-05
4.64437e-05
4.30161e-05
3.95432e-05
3.60773e-05
3.26685e-05
2.93613e-05
2.61896e-05
2.31833e-05
2.03707e-05
1.77579e-05
1.52742e-05
1.31679e-05
1.12959e-05
1.10677e-05
1.66875e-05
7.51534e-05
7.60815e-05
7.71081e-05
7.80277e-05
7.90421e-05
8.0052e-05
8.09886e-05
8.18852e-05
8.2683e-05
8.33659e-05
8.39161e-05
8.42943e-05
8.44904e-05
8.44781e-05
8.42376e-05
8.37456e-05
8.29871e-05
8.19462e-05
8.06217e-05
7.90492e-05
7.7142e-05
7.4926e-05
7.25138e-05
6.99462e-05
6.72202e-05
6.42782e-05
6.10902e-05
5.77064e-05
5.41856e-05
5.06733e-05
4.7514e-05
4.41936e-05
4.18715e-05
4.6337e-05
5.4953e-05
5.82444e-05
8.27874e-05
1.40778e-07
0
7.42299e-05
7.3408e-05
7.26894e-05
7.17727e-05
7.08521e-05
6.99405e-05
6.90458e-05
6.81867e-05
6.73668e-05
6.65751e-05
6.57843e-05
6.497e-05
6.41235e-05
6.32206e-05
6.22349e-05
6.11488e-05
5.99344e-05
5.85633e-05
5.70109e-05
5.52537e-05
5.32699e-05
5.10408e-05
4.85545e-05
4.58335e-05
4.29374e-05
3.99264e-05
3.68478e-05
3.37462e-05
3.06642e-05
2.76422e-05
2.47134e-05
2.19037e-05
1.92366e-05
1.67154e-05
1.42713e-05
1.20895e-05
1.00796e-05
9.554e-06
1.43783e-05
6.61952e-05
6.70288e-05
6.79502e-05
6.87807e-05
6.97082e-05
7.0637e-05
7.15115e-05
7.23597e-05
7.31327e-05
7.38144e-05
7.43931e-05
7.48319e-05
7.51254e-05
7.52517e-05
7.51917e-05
7.49309e-05
7.44514e-05
7.37398e-05
7.27857e-05
7.16291e-05
7.01816e-05
6.8442e-05
6.65137e-05
6.44301e-05
6.21909e-05
5.97504e-05
5.70901e-05
5.42548e-05
5.13062e-05
4.83845e-05
4.57296e-05
4.32429e-05
4.20365e-05
4.51554e-05
5.04141e-05
6.02739e-05
0.000106651
1.96606e-07
0
6.53773e-05
6.46591e-05
6.40408e-05
6.32504e-05
6.24634e-05
6.16996e-05
6.09581e-05
6.02589e-05
5.96013e-05
5.89748e-05
5.83538e-05
5.77181e-05
5.70575e-05
5.63552e-05
5.55872e-05
5.47358e-05
5.37788e-05
5.26903e-05
5.14452e-05
5.00193e-05
4.83891e-05
4.65309e-05
4.44283e-05
4.20973e-05
3.95885e-05
3.69554e-05
3.42372e-05
3.14736e-05
2.86997e-05
2.595e-05
2.32564e-05
2.06392e-05
1.81169e-05
1.56953e-05
1.32982e-05
1.10567e-05
8.91349e-06
8.11151e-06
1.2251e-05
5.83833e-05
5.91318e-05
5.99577e-05
6.07074e-05
6.15495e-05
6.24025e-05
6.3212e-05
6.40073e-05
6.47436e-05
6.54094e-05
6.59937e-05
6.64666e-05
6.68216e-05
6.70455e-05
6.71197e-05
6.70315e-05
6.67674e-05
6.63133e-05
6.56548e-05
6.48339e-05
6.37609e-05
6.24185e-05
6.08988e-05
5.92315e-05
5.7417e-05
5.542e-05
5.32296e-05
5.08903e-05
4.84555e-05
4.60771e-05
4.39535e-05
4.20438e-05
4.16769e-05
4.47228e-05
4.70706e-05
5.89318e-05
0.00010354
2.00084e-07
0
5.7655e-05
5.70291e-05
5.64948e-05
5.58125e-05
5.51382e-05
5.44954e-05
5.38791e-05
5.33064e-05
5.27769e-05
5.22803e-05
5.1794e-05
5.12982e-05
5.07837e-05
5.02344e-05
4.96324e-05
4.89661e-05
4.82128e-05
4.73497e-05
4.63531e-05
4.52003e-05
4.38662e-05
4.23248e-05
4.05553e-05
3.85673e-05
3.64027e-05
3.41082e-05
3.17205e-05
2.92691e-05
2.67829e-05
2.42921e-05
2.18235e-05
1.93952e-05
1.70202e-05
1.47033e-05
1.23654e-05
1.00829e-05
7.81666e-06
6.74439e-06
1.03057e-05
5.1554e-05
5.22258e-05
5.2965e-05
5.36424e-05
5.44059e-05
5.51849e-05
5.59297e-05
5.667e-05
5.73648e-05
5.80031e-05
5.85796e-05
5.90653e-05
5.94576e-05
5.97461e-05
5.9914e-05
5.99543e-05
5.98523e-05
5.95979e-05
5.91728e-05
5.86183e-05
5.78542e-05
5.68371e-05
5.56573e-05
5.43423e-05
5.28969e-05
5.12896e-05
4.95144e-05
4.76161e-05
4.56448e-05
4.37507e-05
4.21226e-05
4.06946e-05
4.08134e-05
4.40012e-05
4.49568e-05
5.67012e-05
9.65129e-05
1.96845e-07
0
5.09043e-05
5.03573e-05
4.98955e-05
4.93048e-05
4.87259e-05
4.81822e-05
4.7668e-05
4.71981e-05
4.67704e-05
4.63764e-05
4.59945e-05
4.56059e-05
4.52034e-05
4.47753e-05
4.43052e-05
4.37815e-05
4.3187e-05
4.2502e-05
4.17061e-05
4.07755e-05
3.96873e-05
3.84141e-05
3.69325e-05
3.52452e-05
3.33878e-05
3.13971e-05
2.93077e-05
2.71417e-05
2.49226e-05
2.26754e-05
2.04216e-05
1.81775e-05
1.59521e-05
1.37437e-05
1.14729e-05
9.17044e-06
6.79786e-06
5.45454e-06
8.55093e-06
4.557e-05
4.61746e-05
4.68361e-05
4.74454e-05
4.81373e-05
4.88463e-05
4.95288e-05
5.02119e-05
5.08621e-05
5.14667e-05
5.20245e-05
5.25089e-05
5.29199e-05
5.32468e-05
5.34792e-05
5.36115e-05
5.363e-05
5.3528e-05
5.32856e-05
5.2938e-05
5.24221e-05
5.16793e-05
5.0782e-05
4.97651e-05
4.86337e-05
4.73627e-05
4.59497e-05
4.44381e-05
4.28801e-05
4.14126e-05
4.02077e-05
3.92079e-05
3.96363e-05
4.27842e-05
4.30935e-05
5.4077e-05
9.1249e-05
9.50084e-07
0
4.49911e-05
4.45118e-05
4.41117e-05
4.36001e-05
4.31013e-05
4.26391e-05
4.22084e-05
4.182e-05
4.14736e-05
4.11603e-05
4.08607e-05
4.05558e-05
4.02399e-05
3.99044e-05
3.95373e-05
3.91258e-05
3.86562e-05
3.81117e-05
3.74772e-05
3.67295e-05
3.58449e-05
3.47957e-05
3.3558e-05
3.21307e-05
3.05421e-05
2.88237e-05
2.70023e-05
2.50968e-05
2.31246e-05
2.11048e-05
1.90563e-05
1.69904e-05
1.49138e-05
1.28184e-05
1.06289e-05
8.3315e-06
5.87188e-06
4.24642e-06
6.9931e-06
4.03181e-05
4.08619e-05
4.14546e-05
4.2002e-05
4.26279e-05
4.32707e-05
4.38928e-05
4.45219e-05
4.5124e-05
4.56916e-05
4.62227e-05
4.66953e-05
4.71098e-05
4.74583e-05
4.77324e-05
4.79271e-05
4.80325e-05
4.80436e-05
4.79424e-05
4.77528e-05
4.74286e-05
4.691e-05
4.62475e-05
4.5479e-05
4.46154e-05
4.36345e-05
4.2536e-05
4.13606e-05
4.01615e-05
3.90621e-05
3.82157e-05
3.75864e-05
3.82392e-05
4.12666e-05
4.12411e-05
5.09306e-05
9.0457e-05
6.51655e-06
1.14707e-08
3.98031e-05
3.93824e-05
3.90349e-05
3.85899e-05
3.81586e-05
3.77637e-05
3.74005e-05
3.70784e-05
3.67968e-05
3.65465e-05
3.63102e-05
3.60706e-05
3.58235e-05
3.55611e-05
3.5272e-05
3.49476e-05
3.45762e-05
3.41456e-05
3.36395e-05
3.3039e-05
3.23214e-05
3.14608e-05
3.0431e-05
2.92291e-05
2.78756e-05
2.63967e-05
2.48146e-05
2.3144e-05
2.13975e-05
1.95897e-05
1.77346e-05
1.58408e-05
1.39111e-05
1.19342e-05
9.83568e-06
7.57068e-06
5.05967e-06
3.126e-06
5.64457e-06
3.5703e-05
3.61907e-05
3.67222e-05
3.72128e-05
3.77777e-05
3.83605e-05
3.8925e-05
3.95008e-05
4.0055e-05
4.05833e-05
4.10832e-05
4.15365e-05
4.19431e-05
4.22992e-05
4.25959e-05
4.28312e-05
4.29979e-05
4.30897e-05
4.30949e-05
4.30265e-05
4.28512e-05
4.25096e-05
4.2037e-05
4.14722e-05
4.08326e-05
4.00997e-05
3.92704e-05
3.83855e-05
3.7493e-05
3.67075e-05
3.6168e-05
3.58483e-05
3.66721e-05
3.96023e-05
3.89665e-05
5.23558e-05
8.03845e-05
2.07895e-05
4.24024e-08
3.52442e-05
3.48749e-05
3.45718e-05
3.41835e-05
3.38086e-05
3.34693e-05
3.31608e-05
3.2892e-05
3.26615e-05
3.24607e-05
3.22735e-05
3.20846e-05
3.18902e-05
3.16853e-05
3.14575e-05
3.12009e-05
3.09066e-05
3.05648e-05
3.01624e-05
2.96812e-05
2.91004e-05
2.83969e-05
2.75431e-05
2.65337e-05
2.53842e-05
2.41155e-05
2.27457e-05
2.12865e-05
1.97456e-05
1.8134e-05
1.6461e-05
1.47331e-05
1.29483e-05
1.10944e-05
9.10145e-06
6.89765e-06
4.37791e-06
2.10026e-06
4.52274e-06
3.16418e-05
3.20787e-05
3.25537e-05
3.2994e-05
3.35027e-05
3.40286e-05
3.45405e-05
3.5065e-05
3.55722e-05
3.60594e-05
3.65259e-05
3.69542e-05
3.73472e-05
3.77002e-05
3.80065e-05
3.8266e-05
3.84722e-05
3.86206e-05
3.87021e-05
3.87245e-05
3.86632e-05
3.84601e-05
3.81364e-05
3.7737e-05
3.72809e-05
3.67539e-05
3.61515e-05
3.55126e-05
3.48787e-05
3.4359e-05
3.40805e-05
3.40131e-05
3.49752e-05
3.78601e-05
3.6854e-05
5.383e-05
6.70148e-05
2.14562e-05
5.00986e-08
3.12339e-05
3.09098e-05
3.06437e-05
3.03019e-05
2.99742e-05
2.96814e-05
2.94171e-05
2.91911e-05
2.90011e-05
2.88395e-05
2.86908e-05
2.8541e-05
2.83869e-05
2.82258e-05
2.80461e-05
2.78423e-05
2.76092e-05
2.73386e-05
2.70186e-05
2.66338e-05
2.6166e-05
2.55918e-05
2.48854e-05
2.40398e-05
2.30657e-05
2.19815e-05
2.07994e-05
1.95291e-05
1.81749e-05
1.67437e-05
1.52416e-05
1.36726e-05
1.20305e-05
1.03038e-05
8.4272e-06
6.31545e-06
3.84929e-06
1.18859e-06
3.66107e-06
2.8064e-05
2.84551e-05
2.88785e-05
2.92725e-05
2.97303e-05
3.0204e-05
3.06669e-05
3.11425e-05
3.16052e-05
3.20517e-05
3.24837e-05
3.28843e-05
3.32574e-05
3.35992e-05
3.39051e-05
3.41744e-05
3.44042e-05
3.45904e-05
3.47247e-05
3.48125e-05
3.48368e-05
3.47401e-05
3.45333e-05
3.42639e-05
3.39561e-05
3.35976e-05
3.31827e-05
3.27471e-05
3.23283e-05
3.20284e-05
3.19657e-05
3.21035e-05
3.31712e-05
3.60171e-05
3.49063e-05
5.23898e-05
6.10866e-05
2.05152e-05
5.47459e-08
2.77028e-05
2.74176e-05
2.71816e-05
2.68784e-05
2.65906e-05
2.63355e-05
2.61078e-05
2.59161e-05
2.57584e-05
2.5627e-05
2.55076e-05
2.53889e-05
2.52673e-05
2.51388e-05
2.49957e-05
2.48329e-05
2.46486e-05
2.44343e-05
2.418e-05
2.38728e-05
2.34972e-05
2.30297e-05
2.24468e-05
2.17408e-05
2.09189e-05
1.99938e-05
1.89769e-05
1.78744e-05
1.66886e-05
1.54228e-05
1.40802e-05
1.26628e-05
1.11607e-05
9.56496e-06
7.81775e-06
5.82823e-06
3.48422e-06
5.15289e-07
3.10057e-06
2.49092e-05
2.52574e-05
2.56345e-05
2.59864e-05
2.63977e-05
2.68237e-05
2.72406e-05
2.76714e-05
2.80914e-05
2.84983e-05
2.88949e-05
2.92661e-05
2.96158e-05
2.99414e-05
3.02391e-05
3.051e-05
3.07505e-05
3.09579e-05
3.11264e-05
3.12596e-05
3.13458e-05
3.13286e-05
3.12112e-05
3.10431e-05
3.08515e-05
3.06275e-05
3.03638e-05
3.00927e-05
2.98496e-05
2.9726e-05
2.98342e-05
3.01392e-05
3.12706e-05
3.40419e-05
3.2945e-05
4.96811e-05
5.79412e-05
2.0095e-05
5.99721e-08
2.45899e-05
2.43378e-05
2.41267e-05
2.38558e-05
2.3601e-05
2.33775e-05
2.31796e-05
2.30152e-05
2.28831e-05
2.27755e-05
2.26796e-05
2.25836e-05
2.24863e-05
2.23842e-05
2.22695e-05
2.21394e-05
2.1992e-05
2.18217e-05
2.16205e-05
2.13769e-05
2.10758e-05
2.06964e-05
2.02167e-05
1.96281e-05
1.89365e-05
1.81497e-05
1.72776e-05
1.63241e-05
1.52893e-05
1.41746e-05
1.29807e-05
1.17077e-05
1.03427e-05
8.8806e-06
7.27223e-06
5.43291e-06
3.2833e-06
7.07512e-07
2.85774e-06
2.21236e-05
2.24333e-05
2.27678e-05
2.30814e-05
2.345e-05
2.38328e-05
2.42076e-05
2.45957e-05
2.49759e-05
2.5345e-05
2.57071e-05
2.60482e-05
2.63726e-05
2.6679e-05
2.69632e-05
2.72272e-05
2.74687e-05
2.76859e-05
2.78749e-05
2.80374e-05
2.81663e-05
2.82069e-05
2.81541e-05
2.80617e-05
2.79591e-05
2.78401e-05
2.76947e-05
2.75542e-05
2.7451e-05
2.74635e-05
2.76997e-05
2.81333e-05
2.928e-05
3.19336e-05
3.09643e-05
4.62294e-05
5.37496e-05
1.96226e-05
6.43061e-08
2.18411e-05
2.16177e-05
2.14271e-05
2.11838e-05
2.0957e-05
2.07596e-05
2.05865e-05
2.04445e-05
2.03325e-05
2.02429e-05
2.01644e-05
2.00868e-05
2.00083e-05
1.99261e-05
1.98332e-05
1.97286e-05
1.96107e-05
1.94755e-05
1.93168e-05
1.91243e-05
1.88835e-05
1.85767e-05
1.81832e-05
1.76944e-05
1.71131e-05
1.64457e-05
1.56995e-05
1.48774e-05
1.39781e-05
1.30014e-05
1.19456e-05
1.08092e-05
9.57817e-06
8.2512e-06
6.79062e-06
5.12376e-06
3.2231e-06
1.30023e-06
2.87837e-06
1.966e-05
1.99348e-05
2.02313e-05
2.05108e-05
2.08408e-05
2.11837e-05
2.15203e-05
2.18698e-05
2.22121e-05
2.25459e-05
2.28747e-05
2.3186e-05
2.34843e-05
2.37686e-05
2.40357e-05
2.4288e-05
2.45239e-05
2.47426e-05
2.49405e-05
2.51181e-05
2.52738e-05
2.53539e-05
2.53468e-05
2.53083e-05
2.52707e-05
2.52301e-05
2.51756e-05
2.51345e-05
2.5139e-05
2.52519e-05
2.55794e-05
2.61017e-05
2.72169e-05
2.97227e-05
2.91212e-05
4.07985e-05
5.25654e-05
2.11873e-05
7.61848e-08
1.94096e-05
1.92106e-05
1.90381e-05
1.88186e-05
1.8616e-05
1.84412e-05
1.82885e-05
1.81648e-05
1.80685e-05
1.7993e-05
1.79277e-05
1.78637e-05
1.77995e-05
1.77325e-05
1.76571e-05
1.75714e-05
1.74771e-05
1.73701e-05
1.72448e-05
1.70931e-05
1.69015e-05
1.66541e-05
1.63327e-05
1.59278e-05