/*--------------------------------*- C++ -*----------------------------------*\
| =========                 |                                                 |
| \\      /  F ield         | OpenFOAM: The Open Source CFD Toolbox           |
|  \\    /   O peration     | Version:  2206                                  |
|   \\  /    A nd           | Website:  www.openfoam.com                      |
|    \\/     M anipulation  |                                                 |
\*---------------------------------------------------------------------------*/
FoamFile
{
    version     2.0;
    format      ascii;
    arch        "LSB;label=32;scalar=64";
    class       volSymmTensorField;
    location    "50";
    object      turbulenceProperties:devReff;
}
// * * * * * * * * * * * * * * * * * * * * * * * * * * * * * * * * * * * * * //

dimensions      [0 2 -2 0 0 0 0];

internalField   nonuniform List<symmTensor> 
10720
(
(0.00121751 0.00206309 -8.47498e-21 -0.00127402 -3.83217e-20 5.65065e-05)
(0.00160972 0.00238576 7.90707e-21 -0.00164706 2.66169e-20 3.73426e-05)
(0.00225229 0.00268647 2.19599e-21 -0.00234139 1.10804e-20 8.90941e-05)
(0.00313773 0.00308834 9.1461e-20 -0.0032531 3.47917e-19 0.000115361)
(0.00435106 0.00346257 -1.8854e-19 -0.00448113 -5.80747e-19 0.00013007)
(0.00606275 0.00371117 -2.21205e-19 -0.00626253 -4.25501e-19 0.000199774)
(0.00839997 0.00383104 4.03795e-20 -0.00865703 -4.25363e-21 0.000257061)
(0.0114716 0.00360598 2.47303e-20 -0.0117915 3.9103e-20 0.000319922)
(0.0154349 0.00277209 7.31045e-20 -0.0158626 -5.90511e-20 0.000427759)
(0.0203848 0.00111565 -1.61669e-20 -0.0209187 -1.62201e-20 0.000533956)
(0.0263621 -0.00176161 1.92628e-18 -0.0270316 9.3397e-19 0.000669506)
(0.0335776 -0.00628481 -4.10001e-19 -0.0344156 -3.14668e-19 0.000837948)
(0.0423294 -0.0130823 8.42887e-19 -0.0433773 -1.26444e-18 0.00104796)
(0.0533275 -0.023199 3.96272e-19 -0.0546427 8.90463e-19 0.00131526)
(0.0672654 -0.0382 6.9311e-19 -0.0689298 -1.22882e-18 0.00166433)
(0.0855328 -0.0608833 9.99824e-20 -0.0876676 4.32099e-18 0.00213481)
(0.109895 -0.0959844 2.35371e-17 -0.112784 1.14439e-17 0.00288901)
(0.144184 -0.152283 -3.52919e-18 -0.148194 7.42264e-18 0.00401024)
(0.192718 -0.244757 -2.88532e-18 -0.198574 -3.53065e-17 0.00585589)
(0.265587 -0.403288 1.60261e-18 -0.274296 -2.05474e-19 0.00870901)
(0.379054 -0.686445 -5.2001e-17 -0.39263 -3.99778e-17 0.0135756)
(0.583889 -1.25417 1.07891e-16 -0.605537 2.07746e-16 0.0216477)
(0.851723 -2.20864 -8.21452e-17 -0.8858 -3.03484e-16 0.0340767)
(1.62438 -5.44626 1.99474e-16 -1.70321 5.93383e-17 0.0788364)
(1.1487 -5.74234 -2.5777e-16 -1.21684 -1.21062e-17 0.0681408)
(0.43731 -4.22254 1.77165e-17 -0.467256 -1.28192e-15 0.0299468)
(0.0894547 -3.23373 2.78784e-16 -0.0948221 -5.2245e-17 0.00536735)
(-0.065363 -2.37361 2.09928e-16 0.0668243 4.48101e-16 -0.00146129)
(-0.138659 -1.86067 6.20158e-16 0.135757 8.67534e-16 0.00290216)
(-0.168362 -1.56194 1.01371e-16 0.163682 4.10547e-15 0.00468041)
(-0.155106 -1.15197 -9.83343e-16 0.146601 -1.54531e-15 0.00850528)
(-0.173108 -0.849959 -5.26152e-16 0.160328 -2.63684e-15 0.0127802)
(-0.274394 -1.04747 -1.13523e-15 0.276397 -3.59543e-15 -0.00200289)
(-0.101156 -0.546845 -7.35984e-16 0.114973 -6.48306e-15 -0.013817)
(0.165813 0.165083 1.0486e-15 -0.177373 2.66145e-15 0.0115603)
(0.301106 0.652819 7.04379e-17 -0.322301 1.81318e-15 0.0211951)
(0.283845 0.692561 -1.63287e-16 -0.292978 2.24924e-17 0.00913316)
(0.246341 0.549417 -2.05134e-16 -0.233673 -2.18715e-15 -0.0126684)
(0.305026 1.07456 3.6687e-16 -0.352817 9.42364e-16 0.0477908)
(0.000883476 0.00179728 2.54887e-21 -0.000900347 -4.98729e-21 1.68707e-05)
(0.000680428 0.00153519 -1.74103e-20 -0.000715115 2.12076e-20 3.46865e-05)
(0.000507399 0.00125301 -5.88244e-20 -0.000521466 -5.6418e-20 1.40672e-05)
(0.000401746 0.00099534 1.25631e-19 -0.000397778 -1.53161e-19 -3.96774e-06)
(0.00036925 0.000761459 -2.08066e-19 -0.000336431 1.16576e-19 -3.28185e-05)
(0.000409256 0.000602099 -2.45463e-19 -0.000366235 3.86704e-19 -4.30207e-05)
(0.000559058 0.000583534 3.01644e-19 -0.000531579 5.44582e-20 -2.74796e-05)
(0.000801818 0.000653885 1.10045e-19 -0.0007959 -4.43549e-19 -5.91809e-06)
(0.00116358 0.000842466 1.1671e-19 -0.00117002 2.22146e-20 6.43737e-06)
(0.00167921 0.00123671 -1.04833e-19 -0.00169916 -3.62536e-20 1.99479e-05)
(0.00241729 0.00195985 1.02831e-19 -0.0024562 2.40083e-19 3.89095e-05)
(0.00346618 0.0031854 2.94022e-19 -0.0035276 -1.56897e-19 6.14236e-05)
(0.00488578 0.00514569 -4.64242e-19 -0.00497893 7.77978e-20 9.31577e-05)
(0.00670543 0.00808858 3.50316e-19 -0.00683918 -7.81652e-20 0.000133751)
(0.00895915 0.0122516 1.61513e-18 -0.00913112 -1.49811e-19 0.00017197)
(0.01173 0.0180992 1.53557e-18 -0.0119566 -3.92348e-19 0.000226605)
(0.0153367 0.0264712 4.75002e-19 -0.0156229 3.53776e-19 0.000286261)
(0.0202901 0.0389951 -4.65832e-20 -0.0206639 4.77648e-19 0.000373802)
(0.0276021 0.0587886 2.00574e-19 -0.0280995 -1.11068e-19 0.000497392)
(0.0385956 0.0912532 2.79615e-19 -0.0393128 3.49605e-20 0.000717224)
(0.0559349 0.147353 -4.54455e-19 -0.0570161 -2.68588e-18 0.00108125)
(0.0835346 0.248324 -2.4005e-18 -0.0853144 2.35551e-19 0.0017798)
(0.130676 0.448136 2.50635e-18 -0.133887 2.88304e-19 0.00321157)
(0.197135 0.815071 2.90334e-19 -0.20342 1.31268e-18 0.00628543)
(0.316383 1.66785 1.3409e-16 -0.329933 -6.79745e-18 0.0135502)
(0.476582 3.41036 3.4363e-18 -0.504679 1.36453e-17 0.0280963)
(0.704288 7.67063 -7.65785e-19 -0.770029 -2.82244e-17 0.0657408)
(0.604081 13.2651 -7.38166e-18 -0.715278 2.2678e-19 0.111197)
(0.0114482 16.6534 8.48467e-18 -0.1358 1.14905e-19 0.124351)
(-0.750028 17.8298 4.37391e-16 0.638017 -6.24572e-17 0.112011)
(-1.48826 18.0696 -3.83031e-17 1.39442 -1.87857e-18 0.0938454)
(-2.16576 18.0029 -9.07165e-17 2.08933 2.83641e-16 0.0764369)
(-2.7732 17.7613 -2.7495e-15 2.7129 -5.14327e-16 0.060307)
(-3.3017 17.3752 -4.73062e-15 3.25619 1.11363e-15 0.0455133)
(-3.74805 16.8587 4.34456e-15 3.71435 3.13168e-16 0.0336999)
(-4.11792 16.242 -1.74122e-17 4.09182 -3.76108e-16 0.0260988)
(-4.38853 15.4125 -6.36792e-17 4.36234 3.22394e-16 0.0261846)
(-4.5426 14.3874 -1.16454e-16 4.52115 3.38303e-17 0.021448)
(-4.24503 11.8975 -4.14924e-15 4.17107 -1.31287e-16 0.0739616)
(0.000534014 -0.000306046 -2.70988e-21 -0.000504434 -7.27053e-21 -2.95794e-05)
(0.000471972 -0.000398392 -5.43607e-23 -0.00043503 1.04877e-20 -3.69423e-05)
(0.000377451 -0.000482609 3.81199e-21 -0.000329833 1.07829e-21 -4.76185e-05)
(0.000273858 -0.000529598 4.40558e-21 -0.000216207 -2.16903e-22 -5.76507e-05)
(0.000167123 -0.000544618 2.34765e-20 -0.000100933 6.01437e-20 -6.61898e-05)
(6.20885e-05 -0.000531618 5.34517e-20 1.28703e-05 1.04286e-19 -7.49588e-05)
(-2.38098e-05 -0.000492131 -1.30663e-20 0.000106645 2.56559e-21 -8.28353e-05)
(-8.73531e-05 -0.00043584 -1.4583e-20 0.000176111 -5.86742e-21 -8.87578e-05)
(-0.000129678 -0.000372607 -1.42467e-19 0.000223117 -1.5097e-19 -9.34393e-05)
(-0.000149691 -0.000309967 -3.70147e-20 0.000246289 -1.61431e-20 -9.65979e-05)
(-0.000153311 -0.000253225 -4.16605e-19 0.000251546 -3.88956e-19 -9.82353e-05)
(-0.000145858 -0.00020606 -5.15795e-21 0.000244852 5.08334e-20 -9.89935e-05)
(-0.000130582 -0.000169502 -1.91098e-19 0.000229956 -7.86914e-21 -9.93746e-05)
(-0.000111489 -0.000144279 1.25758e-19 0.000209336 7.45057e-20 -9.78469e-05)
(-9.50053e-05 -0.000141901 -2.61615e-19 0.000195868 -8.21654e-20 -0.000100863)
(-8.18474e-05 -0.000174428 6.68682e-19 0.00020075 1.71223e-19 -0.000118902)
(-6.75102e-05 -0.000338014 -1.07478e-18 0.000266285 -8.50113e-19 -0.000198775)
(5.19524e-05 -0.000982141 -2.34333e-18 0.000397345 -8.13127e-19 -0.000449297)
(0.000664795 -0.0028001 -5.39199e-18 0.000242188 1.85955e-18 -0.000906983)
(0.00278345 -0.00806167 1.10129e-18 -0.00107136 -1.29368e-20 -0.00171209)
(0.00921412 -0.0233715 1.22702e-17 -0.00621032 1.36004e-17 -0.0030038)
(0.0364141 -0.0899528 -3.02819e-17 -0.0300244 -6.29782e-17 -0.00638976)
(0.0944751 -0.246709 7.24849e-19 -0.085953 8.99854e-17 -0.00852217)
(0.403016 -1.20074 2.94505e-18 -0.387185 -4.95686e-17 -0.0158314)
(0.881642 -3.19302 -0 -0.879596 -0 -0.00204584)
(1.16923 -5.60105 -4.75628e-17 -1.19661 1.23905e-15 0.0273879)
(1.01029 -7.59107 -5.24408e-17 -1.04726 6.59918e-17 0.0369639)
(0.444293 -8.04474 -1.72989e-16 -0.466775 -1.1601e-15 0.0224811)
(-0.083993 -7.20677 -5.76199e-16 0.0788322 -5.23291e-15 0.00516088)
(-0.346451 -5.95255 -3.08595e-16 0.361793 -1.7e-14 -0.0153427)
(-0.504913 -4.9 3.90077e-16 0.525714 9.63284e-15 -0.0208014)
(-0.663326 -3.92802 5.51892e-16 0.645096 1.47439e-14 0.0182303)
(-0.46159 -2.61086 8.29125e-16 0.433192 1.05752e-14 0.0283985)
(-0.00803598 -1.33669 5.74144e-15 0.0338419 3.46885e-14 -0.0258059)
(-0.174261 -1.69936 -1.54201e-15 0.236407 -1.06597e-14 -0.0621461)
(-0.781778 -2.47056 -9.93669e-16 0.800124 -4.293e-15 -0.0183465)
(-1.22756 -2.91153 -4.30198e-16 1.21816 1.18724e-16 0.00939933)
(-1.44566 -3.55012 2.10397e-15 1.45117 1.50686e-14 -0.00551184)
(-1.99196 -3.14271 -1.90525e-15 1.92037 -4.37147e-15 0.0715906)
(0.000573862 -0.000192716 5.04357e-21 -0.000552885 5.47716e-21 -2.09763e-05)
(0.000585785 -7.54248e-05 4.79272e-21 -0.000571467 -1.08667e-19 -1.43181e-05)
(0.000563862 6.1887e-05 -7.18035e-20 -0.000559794 6.27512e-21 -4.0676e-06)
(0.000495757 0.000198622 3.74074e-20 -0.000498876 1.75097e-19 3.11884e-06)
(0.000391077 0.000304656 2.32949e-19 -0.000399111 -1.68018e-19 8.0341e-06)
(0.000275457 0.000368007 -1.45859e-19 -0.000287356 -1.41436e-19 1.1899e-05)
(0.000151228 0.000395513 -7.35635e-20 -0.000162253 -1.17637e-19 1.10244e-05)
(2.52193e-05 0.000381205 -2.47432e-19 -2.94467e-05 1.05454e-19 4.22742e-06)
(-7.42967e-05 0.000329484 -2.177e-20 7.93879e-05 1.31933e-19 -5.09121e-06)
(-0.000134935 0.000260238 -7.59448e-20 0.000148464 2.10399e-20 -1.35291e-05)
(-0.000159621 0.000192041 4.08207e-20 0.00017958 -1.14849e-19 -1.99585e-05)
(-0.000159478 0.000135645 -1.51314e-20 0.000183782 -3.06275e-20 -2.4304e-05)
(-0.000145663 9.36748e-05 2.92204e-20 0.000172477 7.63109e-20 -2.68134e-05)
(-0.000125782 6.54256e-05 -4.8738e-20 0.000153562 -8.15064e-21 -2.778e-05)
(-0.000105175 4.81284e-05 -1.49115e-20 0.000132661 -4.71485e-20 -2.74859e-05)
(-8.68185e-05 3.80009e-05 -1.09523e-19 0.00011316 4.80196e-21 -2.63418e-05)
(-7.12204e-05 3.247e-05 -7.91066e-21 9.59118e-05 2.57968e-21 -2.46915e-05)
(-5.85685e-05 2.96714e-05 -2.10894e-22 8.13607e-05 -3.31477e-21 -2.27923e-05)
(-4.84603e-05 2.80769e-05 -1.35391e-20 6.9208e-05 5.07318e-21 -2.07477e-05)
(-4.0476e-05 2.68932e-05 1.51974e-20 5.92415e-05 -4.20598e-21 -1.87655e-05)
(-3.42361e-05 2.56809e-05 -1.50944e-19 5.12829e-05 4.88936e-20 -1.70468e-05)
(-2.9738e-05 2.45016e-05 -2.19241e-20 4.56516e-05 3.16397e-21 -1.59137e-05)
(-2.71226e-05 2.38717e-05 7.83545e-21 4.30111e-05 -2.97056e-21 -1.58885e-05)
(-2.53564e-05 2.41611e-05 1.20941e-19 4.22465e-05 -1.45774e-20 -1.68901e-05)
(-7.40743e-05 8.2847e-05 -3.63103e-19 0.000131353 3.4509e-20 -5.72787e-05)
(-0.000584918 0.000794731 -2.64474e-18 0.00109716 -1.30614e-19 -0.000512246)
(-0.00352338 0.00565809 2.11838e-19 0.00686399 8.8632e-19 -0.0033406)
(-0.0162017 0.0311526 3.12694e-20 0.0321925 1.63605e-18 -0.0159907)
(-0.0360335 0.0873637 -7.8117e-20 0.0717901 -1.06148e-21 -0.0357566)
(-0.052733 0.164282 3.3064e-18 0.102695 4.25128e-17 -0.0499621)
(-0.0637206 0.244294 2.35976e-18 0.116765 -4.96457e-17 -0.0530444)
(-0.0722061 0.311351 5.2139e-17 0.120679 -1.4228e-16 -0.0484731)
(-0.0821805 0.362658 2.99234e-15 0.124369 1.64185e-16 -0.0421885)
(-0.0948719 0.40427 2.7702e-15 0.13208 -1.08141e-15 -0.0372082)
(-0.110329 0.441304 -2.56572e-15 0.143877 1.79403e-16 -0.0335478)
(-0.126866 0.481053 2.40301e-15 0.157526 2.97289e-16 -0.0306598)
(-0.146052 0.521941 -4.32473e-15 0.172879 -6.0787e-16 -0.026827)
(-0.170859 0.636506 -3.97044e-15 0.197427 -6.46314e-16 -0.0265688)
(-0.225893 0.868558 -3.86717e-15 0.201181 -2.96163e-16 0.024712)
(0.000360295 -0.000198752 -9.40337e-22 -0.000370896 1.93308e-21 1.06009e-05)
(0.00030686 -0.000261221 -3.57181e-20 -0.000321178 -5.9274e-20 1.43179e-05)
(0.00023234 -0.000313221 2.48326e-20 -0.000250693 2.89983e-20 1.83535e-05)
(0.000144516 -0.000343284 3.1884e-20 -0.000168247 4.44475e-20 2.3731e-05)
(5.33387e-05 -0.000350793 5.93808e-20 -8.1933e-05 8.50175e-20 2.85943e-05)
(-3.73084e-05 -0.000333842 -1.74244e-19 3.49924e-06 -2.48779e-19 3.38092e-05)
(-0.00011776 -0.000293989 1.17262e-19 7.82003e-05 1.74407e-19 3.95602e-05)
(-0.000181066 -0.000238354 1.41877e-19 0.000136457 1.37761e-19 4.46098e-05)
(-0.000225561 -0.000172304 -6.52224e-21 0.000176278 1.39455e-20 4.92834e-05)
(-0.000250211 -0.000103348 1.05365e-19 0.000196602 1.45986e-19 5.36093e-05)
(-0.000257019 -3.71593e-05 -1.83482e-19 0.00019995 -2.83471e-20 5.70695e-05)
(-0.0002493 2.27e-05 2.71622e-19 0.000189323 2.71709e-19 5.99771e-05)
(-0.000230948 7.40313e-05 1.28667e-19 0.000168663 5.98048e-20 6.2285e-05)
(-0.000204767 0.000116146 5.32181e-20 0.00014085 -4.9294e-20 6.39175e-05)
(-0.00017675 0.00014912 1.87533e-19 0.000113301 1.70778e-19 6.3449e-05)
(-0.000153769 0.000177932 -4.631e-19 9.11298e-05 -4.42465e-19 6.26396e-05)
(-0.000128465 0.000191362 9.96848e-20 7.13684e-05 1.53415e-19 5.7097e-05)
(-0.000108738 0.000199203 9.10532e-19 5.79882e-05 2.71812e-19 5.07501e-05)
(-6.74579e-05 0.000145638 2.00842e-19 3.59042e-05 1.38662e-19 3.15537e-05)
(-5.67151e-05 0.000135444 -5.32104e-20 3.18867e-05 -4.35785e-21 2.48284e-05)
(-0.000737573 0.00180831 8.2355e-19 0.000455065 -1.73816e-18 0.000282509)
(-0.000194043 0.000458385 5.05649e-20 0.000129008 3.94998e-19 6.50345e-05)
(-7.05297e-05 0.000136122 1.32039e-18 2.38636e-05 -1.81161e-19 4.66661e-05)
(0.0029302 -0.00866138 -6.95983e-18 -0.00292621 -2.76906e-18 -3.99488e-06)
(0.049895 -0.167653 1.778e-19 -0.0479136 8.73221e-19 -0.00198143)
(0.219102 -0.891997 -1.35097e-16 -0.211508 2.44561e-17 -0.0075941)
(0.530678 -2.78723 4.85343e-17 -0.518232 3.23757e-17 -0.012446)
(0.769427 -5.92072 -8.48521e-17 -0.757799 -1.03923e-17 -0.0116278)
(0.539202 -8.2638 -1.24705e-15 -0.536956 1.93799e-15 -0.00224592)
(0.0414656 -8.42162 -7.95725e-16 -0.0361421 -5.74532e-17 -0.00532344)
(-0.396715 -7.51992 3.46514e-15 0.408577 -1.46913e-15 -0.0118615)
(-0.692532 -6.17689 1.60685e-15 0.668195 2.68367e-15 0.0243365)
(-0.453757 -4.2835 3.82917e-16 0.417807 7.11116e-15 0.0359504)
(-0.0199376 -3.11774 1.84516e-15 0.0420751 -8.9633e-15 -0.0221374)
(-0.601672 -4.14826 -2.55764e-16 0.681748 -2.89969e-15 -0.0800759)
(-1.50952 -4.62568 -2.77636e-15 1.53923 -1.67624e-14 -0.0297036)
(-1.92125 -4.36499 -1.04943e-17 1.92435 -4.64043e-15 -0.00310422)
(-1.6793 -3.87073 6.11033e-16 1.73735 -6.24624e-15 -0.0580493)
(-2.23875 -3.76247 -8.5243e-16 2.21 2.37964e-17 0.028752)
(0.000398408 -0.000123701 -9.86791e-21 -0.000407257 -1.65736e-20 8.84855e-06)
(0.0004176 -4.61354e-05 -4.25809e-21 -0.000423602 2.34331e-20 6.00222e-06)
(0.000416069 4.60802e-05 1.07894e-19 -0.00042041 7.77706e-20 4.34028e-06)
(0.000384016 0.000137802 -8.17759e-20 -0.000384924 -1.19295e-20 9.07797e-07)
(0.00032176 0.000217859 5.65344e-21 -0.000321297 1.29926e-20 -4.62806e-07)
(0.000238518 0.000274866 5.85144e-20 -0.000239137 1.33906e-19 6.18739e-07)
(0.000144286 0.00030666 4.62759e-20 -0.000145436 3.34042e-20 1.14961e-06)
(5.03353e-05 0.000304078 2.57e-19 -5.13389e-05 8.60522e-20 1.00365e-06)
(-2.72469e-05 0.000270558 8.26622e-20 2.52349e-05 -5.37276e-20 2.01197e-06)
(-8.06662e-05 0.000219102 1.11618e-19 7.63878e-05 1.03603e-20 4.27839e-06)
(-0.000109056 0.00016254 -1.74589e-19 0.000102004 -1.62886e-20 7.05191e-06)
(-0.000117302 0.000110609 -8.47808e-20 0.000107603 1.0985e-19 9.69894e-06)
(-0.000112242 6.79046e-05 1.76692e-19 0.000100197 -7.64954e-20 1.20456e-05)
(-9.96632e-05 3.57187e-05 5.41499e-20 8.55889e-05 -5.61588e-22 1.40743e-05)
(-8.46566e-05 1.34875e-05 -1.03307e-19 6.92111e-05 5.62178e-20 1.54455e-05)
(-7.0164e-05 -1.24308e-06 -4.67915e-20 5.37619e-05 6.929e-20 1.64021e-05)
(-5.75693e-05 -1.04562e-05 1.63359e-19 4.06655e-05 -6.50215e-20 1.69037e-05)
(-4.72853e-05 -1.6031e-05 1.15175e-19 3.01889e-05 -2.29941e-20 1.70964e-05)
(-3.94154e-05 -1.94391e-05 4.00196e-20 2.24472e-05 -6.49406e-21 1.69682e-05)
(-3.34033e-05 -2.19133e-05 -1.4139e-20 1.66568e-05 2.61887e-20 1.67465e-05)
(-2.87635e-05 -2.40989e-05 2.23634e-19 1.23594e-05 -1.57977e-20 1.64042e-05)
(-2.47551e-05 -2.6609e-05 2.98154e-21 8.63012e-06 -1.27855e-20 1.6125e-05)
(-2.04243e-05 -2.96556e-05 -4.20588e-22 4.47422e-06 -4.8699e-22 1.59501e-05)
(-1.4184e-05 -3.26636e-05 -1.64308e-21 -2.24287e-06 1.43421e-21 1.64269e-05)
(-6.02319e-06 -3.34271e-05 3.34565e-21 -1.13892e-05 -8.69038e-21 1.74124e-05)
(1.94402e-06 -3.13405e-05 3.38749e-19 -2.03521e-05 -2.35813e-20 1.84081e-05)
(8.00269e-06 -2.61349e-05 -8.1356e-21 -2.64153e-05 5.15095e-22 1.84126e-05)
(1.22231e-05 -2.14296e-05 -3.33765e-20 -3.1134e-05 -2.07415e-21 1.89109e-05)
(0.000244367 -0.000258967 -1.1318e-20 -0.000557325 2.36301e-21 0.000312958)
(0.00109175 -0.000482008 -5.01465e-18 -0.002356 -1.48416e-19 0.00126425)
(0.00250323 0.00122987 3.00968e-17 -0.00529669 5.01323e-18 0.00279346)
(0.00311707 0.00866858 -4.95137e-18 -0.0068731 -5.51593e-20 0.00375603)
(0.00135425 0.0248776 -3.87499e-16 -0.00462653 9.18368e-17 0.00327229)
(-0.00338618 0.050548 9.56517e-19 0.00189461 8.36878e-17 0.00149158)
(-0.010932 0.0839552 1.85252e-17 0.0116667 -1.68213e-16 -0.000734694)
(-0.018917 0.121651 -6.4319e-18 0.0213833 2.81101e-16 -0.00246624)
(-0.0271772 0.159211 -2.81052e-18 0.0305514 -4.26504e-16 -0.00337417)
(-0.0172647 0.19286 2.68407e-15 0.0180368 5.42486e-16 -0.000772109)
(-0.0367256 0.274638 5.22921e-15 0.0266597 1.53031e-15 0.0100659)
(0.000291633 -0.000161075 -7.37577e-21 -0.000288984 -7.62736e-21 -2.64867e-06)
(0.000258504 -0.000210092 -1.07688e-20 -0.000255147 -2.10793e-20 -3.35681e-06)
(0.00021083 -0.000255434 2.62718e-20 -0.000205747 2.47545e-20 -5.08269e-06)
(0.000153745 -0.000289092 1.56522e-20 -0.000146817 3.61819e-20 -6.92783e-06)
(9.16586e-05 -0.000307558 3.15341e-21 -8.27161e-05 1.32618e-21 -8.94252e-06)
(2.69167e-05 -0.000310177 1.00508e-21 -1.55568e-05 7.32849e-21 -1.13599e-05)
(-3.3939e-05 -0.000297294 2.38665e-19 4.79354e-05 2.38244e-19 -1.39965e-05)
(-8.5959e-05 -0.000271034 -2.27795e-19 0.000102747 -2.60222e-19 -1.67884e-05)
(-0.000127045 -0.000234995 3.38871e-20 0.000146952 9.26237e-21 -1.99061e-05)
(-0.000155153 -0.000193741 2.85315e-19 0.000178027 2.11428e-19 -2.28743e-05)
(-0.000170689 -0.00015106 2.42292e-19 0.000196498 2.26494e-19 -2.58086e-05)
(-0.000175217 -0.000110202 2.5441e-19 0.000203744 9.2919e-20 -2.85274e-05)
(-0.000170813 -7.35481e-05 -2.76615e-19 0.000201845 -2.02627e-19 -3.10329e-05)
(-0.00015951 -4.22833e-05 -1.91201e-19 0.000192725 -1.67471e-19 -3.32143e-05)
(-0.000143321 -1.69951e-05 1.52559e-20 0.000178147 -5.17274e-20 -3.4826e-05)
(-0.000123747 1.57504e-06 -4.21275e-19 0.000159735 9.0151e-21 -3.59877e-05)
(-0.000101518 1.63151e-05 -1.20799e-19 0.000136771 -1.40669e-19 -3.5253e-05)
(-7.89475e-05 2.78961e-05 -7.0048e-19 0.000112196 -5.1333e-19 -3.32481e-05)
(-5.53333e-05 3.64131e-05 6.03508e-20 8.343e-05 -8.82811e-20 -2.80966e-05)
(-3.9183e-05 4.55439e-05 3.09632e-20 6.18122e-05 -6.14031e-20 -2.26292e-05)
(-2.38802e-05 4.36369e-05 -2.22327e-19 3.63067e-05 -8.2401e-21 -1.24265e-05)
(-2.99634e-05 6.58655e-05 3.87436e-20 3.94552e-05 8.66886e-21 -9.49181e-06)
(-3.72636e-05 8.76991e-05 -1.8987e-19 4.34161e-05 -4.0677e-20 -6.15257e-06)
(-0.000496528 0.00132118 -9.46547e-19 0.00055704 7.80004e-19 -6.05124e-05)
(-0.00179864 0.00619676 1.73413e-18 0.00224269 1.41483e-19 -0.000444045)
(0.00135727 -0.00384633 5.26037e-18 -0.00106659 2.79916e-18 -0.000290684)
(0.0285287 -0.116562 -2.82242e-18 -0.0268019 6.16661e-19 -0.00172674)
(0.179567 -0.986072 1.89555e-17 -0.173925 1.0146e-18 -0.00564178)
(0.462815 -3.73792 5.95661e-16 -0.454217 1.93602e-16 -0.00859738)
(0.464383 -7.19223 -1.01336e-16 -0.459221 1.52564e-15 -0.00516161)
(0.0148655 -8.72272 -1.80871e-15 -0.0180985 -3.67049e-15 0.00323299)
(-0.441031 -8.03658 4.206e-15 0.416348 -6.16181e-15 0.0246829)
(-0.340727 -6.11259 2.01214e-15 0.319333 -1.10163e-16 0.0213938)
(-0.114733 -5.09778 -1.16697e-15 0.137653 -1.32963e-14 -0.0229193)
(-0.919573 -5.99494 -2.87123e-15 0.976385 -6.77981e-15 -0.0568118)
(-1.98548 -6.11296 2.05138e-15 1.99964 1.24282e-14 -0.0141572)
(-2.39717 -5.42317 -4.63053e-15 2.39355 5.99759e-16 0.00361807)
(-1.92981 -4.34392 -2.65418e-15 1.9876 -2.77552e-15 -0.057794)
(-2.20647 -3.82926 2.3397e-15 2.15814 7.5857e-16 0.0483344)
(0.00031356 -0.000103579 -2.38447e-21 -0.00031279 7.58809e-21 -7.69694e-07)
(0.000323656 -4.48252e-05 6.93356e-21 -0.000323443 6.19451e-20 -2.12639e-07)
(0.000319251 2.42938e-05 3.38221e-20 -0.00032047 4.10594e-20 1.21866e-06)
(0.000296228 9.32927e-05 7.23166e-20 -0.000296431 -3.99162e-20 2.03388e-07)
(0.000254436 0.000155116 -1.3562e-19 -0.000254205 -7.15097e-20 -2.31026e-07)
(0.000197569 0.00020263 -3.31134e-20 -0.000197701 -8.22162e-20 1.31916e-07)
(0.000129257 0.000231219 -1.60604e-19 -0.000130139 -6.24047e-20 8.82157e-07)
(5.8809e-05 0.000236033 -1.45366e-19 -5.97799e-05 1.00495e-20 9.70927e-07)
(-2.99734e-06 0.000219535 -2.38641e-21 2.29998e-06 -3.77563e-20 6.97361e-07)
(-5.04422e-05 0.00018888 7.83889e-20 5.03246e-05 -4.74738e-20 1.17585e-07)
(-8.12212e-05 0.000151719 3.8973e-20 8.21187e-05 8.75156e-20 -8.97557e-07)
(-9.67946e-05 0.000114834 1.44064e-19 9.90265e-05 -5.94941e-20 -2.23189e-06)
(-0.00010081 8.24149e-05 -1.17691e-19 0.000104459 -4.65221e-20 -3.6484e-06)
(-9.72241e-05 5.63965e-05 8.32075e-21 0.000102241 1.97524e-20 -5.0173e-06)
(-8.95822e-05 3.72256e-05 1.27869e-19 9.59015e-05 -3.54423e-20 -6.31926e-06)
(-8.05233e-05 2.37327e-05 2.0463e-19 8.7885e-05 -3.14451e-20 -7.36169e-06)
(-7.16199e-05 1.46552e-05 -1.57218e-19 7.97875e-05 4.92399e-21 -8.1676e-06)
(-6.36457e-05 8.66568e-06 -2.02173e-20 7.23863e-05 -2.67893e-20 -8.74056e-06)
(-5.6987e-05 4.58934e-06 -7.6422e-21 6.61382e-05 5.135e-21 -9.15122e-06)
(-5.15347e-05 1.38857e-06 2.19922e-19 6.08955e-05 -5.74212e-20 -9.36082e-06)
(-4.70454e-05 -1.53719e-06 2.2526e-20 5.6502e-05 -1.92201e-20 -9.4566e-06)
(-4.30596e-05 -4.65968e-06 -2.07993e-19 5.24879e-05 3.82833e-20 -9.42837e-06)
(-3.89636e-05 -8.1669e-06 -3.01054e-21 4.82871e-05 7.22467e-21 -9.32351e-06)
(-3.39655e-05 -1.15851e-05 -8.43705e-22 4.30914e-05 -3.73682e-22 -9.12594e-06)
(-2.83725e-05 -1.35149e-05 -1.21493e-21 3.74934e-05 8.87749e-23 -9.12084e-06)
(-2.3538e-05 -1.3705e-05 -1.47824e-19 3.30691e-05 3.10309e-20 -9.53107e-06)
(-1.98458e-05 -1.30615e-05 1.90024e-21 2.98956e-05 -3.91619e-22 -1.00498e-05)
(-1.72136e-05 -1.23504e-05 3.25008e-20 2.77958e-05 -3.99623e-21 -1.05822e-05)
(-1.38867e-05 -1.08505e-05 -1.77791e-21 2.39426e-05 -1.38575e-23 -1.00558e-05)
(-1.17622e-05 -1.03934e-05 -7.09532e-22 2.1581e-05 -1.40149e-20 -9.81882e-06)
(-4.83203e-06 -5.19165e-06 -5.87386e-20 9.51266e-06 7.1924e-21 -4.68063e-06)
(-4.47853e-06 -6.43378e-06 -1.10042e-21 9.92003e-06 -6.45769e-23 -5.4415e-06)
(-3.9577e-05 -9.4874e-05 1.33655e-19 0.000124023 -2.2526e-19 -8.44456e-05)
(6.07196e-05 -2.44248e-05 2.81343e-17 9.34726e-05 6.54101e-18 -0.000154192)
(0.000469737 0.0010154 -1.05045e-18 -0.00038016 -1.28627e-19 -8.95771e-05)
(0.00137753 0.00478621 -2.5076e-16 -0.00155074 -6.41773e-18 0.000173207)
(0.00232578 0.0145301 1.60494e-15 -0.00287458 2.23383e-16 0.000548806)
(0.00800251 0.0365655 3.60209e-18 -0.00932527 -5.20549e-17 0.00132276)
(-0.000618857 0.107654 1.88389e-16 -0.00281741 -1.04755e-15 0.00343626)
(0.000224212 -0.000122811 -5.83272e-21 -0.000225018 -3.85184e-21 8.06543e-07)
(0.000197919 -0.000159535 -1.4309e-20 -0.000199381 -2.06847e-20 1.46255e-06)
(0.000161156 -0.00019335 4.87341e-20 -0.000162916 6.20037e-20 1.7602e-06)
(0.00011664 -0.000218263 -1.97453e-19 -0.000119027 -2.07096e-19 2.3873e-06)
(6.76705e-05 -0.000231963 4.8692e-20 -7.09267e-05 3.35275e-20 3.25626e-06)
(1.60023e-05 -0.000233529 1.01563e-19 -2.01016e-05 1.00621e-19 4.09926e-06)
(-3.37138e-05 -0.000222494 -9.56766e-20 2.85125e-05 -1.10606e-19 5.20126e-06)
(-7.76971e-05 -0.000200108 -2.45496e-20 7.12575e-05 -1.77042e-21 6.4396e-06)
(-0.000113497 -0.00016861 -3.3969e-19 0.000105795 -2.91174e-19 7.70199e-06)
(-0.000139174 -0.000131298 -7.5047e-20 0.000129974 -1.1463e-19 9.20063e-06)
(-0.000154243 -9.13016e-05 6.5861e-21 0.00014348 -2.32274e-20 1.07633e-05)
(-0.000159224 -5.15453e-05 -1.83662e-19 0.000146818 -1.94624e-19 1.24056e-05)
(-0.00015536 -1.44426e-05 8.68025e-20 0.000141257 8.97529e-20 1.41026e-05)
(-0.000144257 1.84255e-05 -3.3317e-19 0.000128416 -1.67874e-19 1.58409e-05)
(-0.000127574 4.5843e-05 6.0057e-20 0.000110069 3.33672e-20 1.75051e-05)
(-0.000107281 6.74457e-05 3.29643e-19 8.81691e-05 2.51963e-19 1.91122e-05)
(-8.56171e-05 8.28313e-05 -4.29443e-19 6.55142e-05 -1.25022e-19 2.01029e-05)
(-6.4307e-05 9.1165e-05 -7.33148e-20 4.45579e-05 3.24509e-19 1.97491e-05)
(-4.38341e-05 9.27527e-05 -2.44414e-20 2.55632e-05 -4.08474e-20 1.82709e-05)
(-2.53335e-05 8.84584e-05 -3.27719e-19 9.38282e-06 -5.7633e-20 1.59506e-05)
(-9.9237e-06 7.48754e-05 3.15844e-19 -2.01996e-06 1.83714e-19 1.19437e-05)
(-2.50714e-06 5.41406e-05 7.91735e-21 -4.11504e-06 -1.01671e-20 6.62219e-06)
(-4.34494e-06 4.84053e-05 1.52832e-19 1.02719e-06 4.24506e-20 3.31775e-06)
(-1.05621e-05 6.50576e-05 1.16319e-19 8.52421e-06 3.7671e-20 2.03788e-06)
(-1.40705e-05 8.25154e-05 -9.23067e-21 1.28739e-05 -8.25008e-22 1.19655e-06)
(-0.000219811 0.00167417 1.8058e-20 0.000212882 -6.15379e-20 6.92882e-06)
(-9.78011e-05 0.00794745 2.00315e-18 0.000155416 -3.29326e-19 -5.76152e-05)
(0.00100102 -0.00187164 -2.5525e-19 -0.000953354 -4.35964e-19 -4.76665e-05)
(0.0544264 -0.274187 -1.57339e-16 -0.0528935 -2.11715e-17 -0.00153296)
(0.274391 -2.29799 5.2115e-17 -0.268745 1.51674e-18 -0.00564521)
(0.334655 -6.04753 -1.94858e-16 -0.336262 3.05088e-16 0.00160625)
(0.0204047 -8.06048 -4.18058e-15 -0.0448026 -4.30438e-15 0.0243979)
(-0.0978555 -7.51602 -6.95052e-16 0.0900836 -2.4618e-15 0.0077719)
(-0.198923 -7.03053 -1.25438e-14 0.237677 6.35422e-17 -0.0387539)
(-1.20006 -7.69141 2.42927e-15 1.24489 8.98732e-15 -0.0448297)
(-2.34256 -7.41108 -4.73251e-18 2.34052 7.98784e-19 0.00203807)
(-2.70629 -6.24568 5.21002e-16 2.69293 1.73837e-14 0.0133601)
(-2.09788 -4.71424 4.69121e-16 2.15079 2.74162e-15 -0.0529107)
(-2.10829 -3.69487 -7.5011e-15 2.04212 2.05393e-15 0.0661684)
(0.000242085 -8.04517e-05 1.47674e-20 -0.0002431 -3.65188e-21 1.01514e-06)
(0.000251287 -3.68269e-05 -4.45685e-20 -0.000251827 -4.4252e-20 5.39415e-07)
(0.000249954 1.44329e-05 -4.87096e-20 -0.000250778 6.37878e-20 8.23584e-07)
(0.000234713 6.64342e-05 1.32373e-19 -0.000234412 -8.27874e-22 -3.01453e-07)
(0.000205521 0.000114336 -2.79165e-20 -0.000205042 -1.62217e-19 -4.79322e-07)
(0.000164448 0.000153098 -9.62347e-20 -0.00016427 1.22015e-19 -1.78205e-07)
(0.000114069 0.000178906 1.75565e-19 -0.000114235 9.81132e-20 1.6544e-07)
(6.07652e-05 0.000187685 -9.47573e-20 -6.09518e-05 -9.38073e-20 1.86678e-07)
(1.19796e-05 0.000180301 -1.33694e-19 -1.21679e-05 -3.1041e-20 1.88284e-07)
(-2.77578e-05 0.000160778 -1.03143e-19 2.74314e-05 4.49798e-20 3.26473e-07)
(-5.57774e-05 0.000134048 1.4324e-19 5.52415e-05 -2.13257e-20 5.35852e-07)
(-7.20707e-05 0.000105169 -1.09376e-19 7.12367e-05 -1.818e-20 8.33991e-07)
(-7.86031e-05 7.78672e-05 -9.10359e-20 7.73436e-05 5.47829e-20 1.25954e-06)
(-7.80065e-05 5.43053e-05 8.5247e-20 7.62179e-05 1.39341e-20 1.78858e-06)
(-7.29218e-05 3.55018e-05 -1.58252e-19 7.05624e-05 3.86798e-20 2.35939e-06)
(-6.56559e-05 2.12443e-05 -4.00666e-21 6.26952e-05 -5.67562e-20 2.96075e-06)
(-5.78125e-05 1.08551e-05 2.01498e-20 5.42646e-05 2.54374e-20 3.54798e-06)
(-5.03642e-05 3.43275e-06 -1.52997e-19 4.63001e-05 2.00833e-20 4.0641e-06)
(-4.38371e-05 -1.89325e-06 5.74705e-20 3.93757e-05 -6.3664e-21 4.46134e-06)
(-3.83139e-05 -5.95163e-06 -2.36178e-19 3.35477e-05 3.32948e-20 4.76623e-06)
(-3.36462e-05 -9.34297e-06 -1.16411e-20 2.86621e-05 3.55192e-21 4.98409e-06)
(-2.94469e-05 -1.25104e-05 1.86708e-19 2.42784e-05 -1.32938e-20 5.1685e-06)
(-2.51873e-05 -1.56335e-05 1.65315e-19 1.98612e-05 -2.39267e-20 5.32609e-06)
(-2.01597e-05 -1.83977e-05 -1.51096e-19 1.4611e-05 1.32561e-20 5.54878e-06)
(-1.44358e-05 -1.9856e-05 -1.31687e-21 8.65096e-06 -8.26018e-24 5.78486e-06)
(-9.03895e-06 -1.9746e-05 -1.40907e-19 3.12925e-06 -5.52963e-21 5.9097e-06)
(-4.47436e-06 -1.87873e-05 9.03809e-22 -1.62458e-06 5.41289e-23 6.09894e-06)
(-6.96171e-07 -1.74563e-05 5.2206e-23 -5.65255e-06 2.7321e-21 6.34872e-06)
(2.3911e-06 -1.60872e-05 8.90011e-22 -8.9638e-06 -1.30635e-22 6.5727e-06)
(4.66358e-06 -1.43994e-05 4.97129e-20 -1.1098e-05 6.01501e-21 6.43439e-06)
(5.96858e-06 -1.29358e-05 -2.20925e-22 -1.18252e-05 -1.3006e-20 5.85658e-06)
(4.26078e-06 -7.62901e-06 -3.24964e-21 -7.48356e-06 -4.91735e-22 3.22277e-06)
(3.72599e-05 -5.94274e-05 -1.66822e-18 -5.90309e-05 -3.29421e-19 2.17709e-05)
(4.17341e-06 -6.01686e-06 -1.68682e-19 -5.96326e-06 -1.05179e-20 1.78986e-06)
(4.42396e-06 -5.62811e-06 -5.59143e-23 -5.725e-06 3.61237e-22 1.30105e-06)
(1.02265e-05 -9.99005e-06 -6.5876e-19 -1.19169e-05 -2.1357e-19 1.69037e-06)
(0.00034607 -0.000186312 -9.35801e-19 -0.000373886 7.32626e-18 2.7816e-05)
(0.00126828 0.000230895 1.11139e-18 -0.0013046 1.89903e-19 3.63243e-05)
(0.00519343 0.0186771 -5.54095e-16 -0.00610486 1.44502e-17 0.000911439)
(0.000180202 -9.93841e-05 1.68216e-20 -0.000179991 1.18999e-20 -2.1158e-07)
(0.000160789 -0.000128604 -1.12282e-20 -0.000160649 -7.04972e-21 -1.3984e-07)
(0.000133343 -0.000156208 -1.35778e-21 -0.000132962 -1.99859e-21 -3.81529e-07)
(9.99119e-05 -0.000177794 4.1831e-21 -9.92903e-05 -8.06784e-21 -6.21558e-07)
(6.27949e-05 -0.000191412 1.33024e-19 -6.20104e-05 1.25879e-19 -7.84547e-07)
(2.27997e-05 -0.000196429 -8.88546e-20 -2.16493e-05 -8.19713e-20 -1.15038e-06)
(-1.66808e-05 -0.000192124 -1.88033e-21 1.82062e-05 1.63807e-21 -1.52536e-06)
(-5.28494e-05 -0.000179045 2.89936e-19 5.48349e-05 2.44577e-19 -1.98554e-06)
(-8.38472e-05 -0.00015849 -3.57929e-20 8.64556e-05 9.74623e-21 -2.60843e-06)
(-0.000107827 -0.000132607 -3.1683e-19 0.000111094 -2.08256e-19 -3.26709e-06)
(-0.000124019 -0.000103605 9.74487e-20 0.000128053 7.43318e-20 -4.03382e-06)