/*--------------------------------*- C++ -*----------------------------------*\
| =========                 |                                                 |
| \\      /  F ield         | OpenFOAM: The Open Source CFD Toolbox           |
|  \\    /   O peration     | Version:  2206                                  |
|   \\  /    A nd           | Website:  www.openfoam.com                      |
|    \\/     M anipulation  |                                                 |
\*---------------------------------------------------------------------------*/
FoamFile
{
    version     2.0;
    format      ascii;
    arch        "LSB;label=32;scalar=64";
    class       volScalarField;
    location    "120";
    object      omega;
}
// * * * * * * * * * * * * * * * * * * * * * * * * * * * * * * * * * * * * * //

dimensions      [0 0 -1 0 0 0 0];

internalField   nonuniform List<scalar> 
66621
(
296.425
161.177
297.475
77.6342
146.703
25.5509
398.753
74.8118
32.7604
24.7593
147.063
37.5462
203.155
201.296
397.894
398.871
37.6936
201.188
203.703
34.2059
147.529
202.499
398.773
77.747
33.8559
150.933
25.8686
160.445
297.251
77.503
34.7037
25.4386
149.513
159.035
297.161
77.5796
33.9929
26.0467
150.048
157.264
297.014
37.5612
202.793
201.309
397.136
74.5113
33.57
24.8831
147.289
157.233
295.126
157.101
295.166
398.628
397.184
211.779
416.4
328.429
176.268
308.417
160.336
175.57
308.438
328.342
417.251
212.652
297.386
212.279
417.075
398.789
245.398
402.066
402.001
402.145
402.06
245.531
168.962
305.62
202.683
110.906
109.782
305.58
168.044
166.902
305.425
200.846
109.405
106.127
305.369
167.794
398.898
245.229
401.479
402.487
401.694
402.608
245.722
166.973
304.804
106.081
304.766
169.501
167.93
306.274
202.702
111.278
306.235
167.745
109.267
401.931
245.926
305.834
110.192
169.345
328.309
308.283
175.331
159.397
308.352
174.701
328.204
417.297
212.638
297.112
212.374
417.13
172.554
308.275
328.336
212.242
417.242
308.32
174.852
328.403
211.682
417.183
245.598
402.445
401.688
402.574
401.714
245.433
168.074
306.063
202.379
110.604
306.026
109.579
168.517
168.162
304.903
200.986
109.879
108.161
304.858
167.964
397.209
325.177
172.171
305.051
156.909
171.775
305.158
325.021
414.846
209.371
295.064
209.158
414.661
325.16
172.064
305.058
156.794
171.578
305.177
325.018
414.829
209.334
295.05
209.118
414.658
397.247
21.4511
17.3858
17.4151
15.3762
21.2235
17.4703
17.3706
15.3295
21.3096
17.4091
17.2658
15.327
20.9696
17.472
17.3138
15.2925
43.6196
86.8413
40.1789
76.5544
83.8735
39.5576
44.4629
108.346
76.9324
53.6293
42.3022
38.4106
83.5065
73.497
37.8387
82.3183
41.6345
52.0646
106.045
144.515
76.3709
75.574
105.015
50.7263
97.3642
36.7373
63.0625
62.6891
62.283
61.7725
98.6942
97.8986
37.2824
59.7244
63.1533
99.0192
60.9661
61.2246
105.111
75.5559
51.3228
44.2274
87.9116
40.4618
76.6608
87.0606
39.99
43.8921
52.4627
109.798
150.145
79.1568
109.046
77.8042
54.9862
44.1674
40.4789
86.8571
76.4305
40.173
85.8281
43.0427
53.4699
109.007
148.646
77.5379
108.042
52.0472
76.6822
42.8368
40.072
86.7421
76.5371
39.5199
84.2561
45.1042
52.2983
109.33
149.275
77.8753
76.9606
108.468
54.7665
98.5434
37.1206
63.5071
62.1096
61.3095
62.667
97.6182
42.357
38.569
83.61
73.5716
38.146
79.8255
41.6872
50.2739
105.686
144.171
76.5182
72.7271
104.663
52.6386
738.603
1610.91
4427.19
16531.3
116782
738.536
1611.23
4428.58
16539.8
116802
716.596
1589.98
4390.53
16452.8
116892
716.574
1589.66
4389.49
16446.2
116862
716.504
1589.74
4389.75
16448.7
116912
716.62
1589.96
4390.54
16453.2
116872
738.776
1612.07
4432.32
16562.8
116814
738.63
1611.67
4431.14
16557.1
116781
738.514
1611.36
4429.53
16545.9
116772
716.804
1589.77
4389.61
16447.8
116881
738.933
1611.21
4428.36
16538.8
116795
738.996
1611.46
4429.44
16545.6
116802
716.491
1589.74
4389.76
16448.8
116892
716.814
1589.8
4389.9
16449.3
116911
726.242
1600.88
4408.78
16482.5
116752
725.232
1595.62
4399.38
16469.7
116727
725.387
1595.75
4399.39
16468.8
116727
726.035
1600.63
4408.63
16483
116752
738.703
1611.36
4428.42
16538.3
116802
716.736
1590.14
4390.57
16452.3
116892
737.688
1611.14
4430.97
16562.9
116795
737.803
1611.14
4430.48
16559.4
116795
737.651
1610.65
4428.78
16549.7
116795
737.783
1610.76
4428.68
16548.7
116795
716.651
1589.92
4389.86
16448.5
116912
714.822
1592.95
4396.17
16456.9
116904
737.766
1611.68
4434.07
16583.2
116777
726.321
1601.15
4409.88
16488.6
116747
725.262
1595.75
4399.99
16473.6
116725
725.417
1595.88
4400.02
16472.6
116725
726.116
1600.92
4409.87
16489.8
116747
738.924
1612.21
4432.46
16562.7
116814
725.252
1595.76
4400.23
16474.5
116749
726.138
1600.9
4409.64
16488.8
116774
725.239
1595.68
4399.98
16473.9
116747
726.126
1600.86
4409.51
16487.6
116769
714.884
1592.87
4396.12
16456.2
116904
737.849
1611.15
4430.89
16561.5
116759
737.978
1611.23
4430.78
16561
116759
716.938
1589.95
4389.77
16447.9
116881
726.712
1600.85
4408.49
16480.4
116769
725.759
1595.52
4398.58
16465.1
116747
725.878
1595.61
4398.6
16465
116747
726.557
1600.67
4408.32
16480.3
116769
739.065
1611.4
4428.74
16540.9
116795
726.711
1600.86
4408.38
16479.6
116774
725.771
1595.58
4398.69
16465.1
116749
725.869
1595.62
4398.64
16465.1
116749
726.545
1600.64
4408.17
16479.7
116774
739.123
1611.61
4429.52
16545.6
116802
716.924
1589.95
4390
16449.4
116911
714.781
1592.82
4396.07
16456.4
116918
714.904
1592.81
4395.88
16455.9
116921
713.746
1588.73
4387.99
16439.9
116835
713.95
1589.3
4389.34
16446.8
116840
713.741
1589.02
4389.13
16447.1
116840
714.862
1592.93
4396.29
16457.2
116918
737.606
1611.15
4430.86
16561
116777
737.716
1611.21
4430.75
16559.2
116777
714.962
1593.05
4396.25
16456.3
116918
715.061
1593
4395.99
16455.6
116921
714.83
1592.88
4396.06
16456.3
116933
737.78
1611.1
4430.53
16559.1
116776
737.946
1611.2
4430.91
16560.4
116776
714.803
1592.81
4395.7
16454.3
116921
737.43
1610.43
4427.59
16541.6
116795
737.569
1610.55
4427.62
16540.6
116795
715.011
1593.03
4396.14
16456.2
116933
714.98
1592.97
4395.79
16454.1
116921
714.071
1589.6
4390.58
16454.1
116852
713.854
1589.31
4390.39
16454.5
116852
713.857
1589.15
4389.5
16449.3
116840
713.776
1589.04
4389.21
16447.2
116831
715.037
1593.11
4396.38
16457
116918
715.045
1593.1
4396.31
16456.1
116904
714.282
1589.26
4389.04
16444.4
116835
714.089
1588.96
4388.69
16444
116835
714.267
1589.23
4388.98
16445.2
116840
714.106
1588.98
4388.73
16444.9
116840
398.423
399.051
36.3548
202.07
202.496
158.168
297.569
75.1544
34.9585
149.146
25.1282
157.862
297.273
75.5289
33.9777
25.9516
147.613
34.936
146.665
297.206
398.882
35.3314
201.925
200.26
397.297
71.9445
33.9464
25.0184
146.419
72.019
33.7368
24.3013
146.118
152.92
295.289
153.294
295.314
35.5029
201.821
200.243
398.864
397.366
401.928
402.731
245.444
305.589
110.466
170.293
306.502
109.226
168.79
327.798
174.466
308.624
159.502
328.504
173.024
307.98
416.524
211.829
296.64
417.288
211.189
327.819
308.547
172.743
159.357
328.446
307.954
173.943
416.581
211.419
296.44
417.337
211.571
416.59
211.253
296.543
417.357
211.428
398.081
245.771
401.966
402.097
245.932
401.833
400.932
168.711
306.232
105.466
201.996
108.333
168.665
305.246
169.288
304.977
106.196
199.905
168.393
304.549
108.779
396.765
324.899
169.23
305.099
155.545
325.085
171.099
304.988
414.303
208.774
294.691
414.805
208.183
324.911
169.117
305.123
156.192
325.091
171.127
305.035
414.326
208.717
294.645
414.805
208.222
245.429
402.299
402.208
245.428
401.623
401.612
169.953
305.821
106.791
200.937
170.139
109.593
305.041
168.157
305.574
108.004
200.81
167.908
108.192
304.915
398.039
396.823
21.2216
17.4449
17.3972
15.4231
21.1653
17.437
17.2504
15.3775
20.7328
17.2749
17.3
15.332
21.3109
16.9983
17.1651
15.2754
61.7242
62.0717
99.007
45.6507
83.1574
39.061
73.5237
44.2789
85.6608
39.5119
55.8076
107.277
76.8686
147.099
77.0852
54.2126
105.746
45.2968
38.9948
82.6883
73.7777
45.3513
39.4406
85.1433
55.088
105.163
75.5417
146.057
55.0426
107.426
74.1038
55.4868
107.143
73.7127
148.222
53.901
105.438
76.4172
99.9343
37.0392
61.3837
59.1705
61.767
97.8741
61.1047
43.6597
37.2457
80.8537
69.8293
41.9269
37.8778
82.4201
53.4518
103.728
74.3802
144.254
53.3803
74.7815
102.488
43.6192
37.6352
80.6615
73.0284
41.8456
37.0513
83.634
53.589
102.744
75.3321
146.114
51.9144
104.121
73.1088
99.4782
37.1982
59.5365
59.4024
99.3196
61.8455
61.5689
22.0255
36.1513
21.9784
35.9993
35.162
39.3545
39.2228
38.8864
35.8295
35.574
35.4707
35.3205
39.0676
38.3827
36.4914
36.3612
36.2985
36.2775
36.2763
35.5032
36.3624
37.5419
34.4273
34.2089
37.1237
35.7088
35.0372
35.1428
38.8169
35.5955
158.453
295.23
295.188
158.638
397.26
397.16
162.553
297.403
297.302
163.058
22.098
22.1116
22.1877
21.3715
21.9462
21.984
22.0392
79.7753
152.109
26.8581
35.1187
151.764
25.6117
79.9682
158.573
295.234
158.946
295.223
397.169
397.081
161.781
297.326
162.959
297.268
21.726
21.7873
21.7478
79.8135
152.006
26.9152
34.6414
80.5625
151.574
26.0012
398.786
398.664
76.3816
25.6089
149.659
33.938
24.8344
149.252
76.7922
203.93
202.283
38.8553
203.75
202.145
397.145
397.043
398.813
398.638
201.912
203.954
39.0195
201.891
203.805
397.036
397.079
398.676
398.74
36.3371
201.806
203.844
200.533
202.589
158.066
295.194
295.201
158.584
76.1545
149.333
26.1061
33.4795
149.251
25.6356
76.5284
76.179
148.981
25.8364
33.3676
149.151
25.4627
76.7064
155.485
295.193
295.223
158.583
155.972
295.113
295.184
158.02
71.8337
35.0487
148.656
25.9928
147.817
25.2508
77.0492
74.6343
34.9091
148.482
25.9738
146.502
25.2031
75.7912
202.024
203.516
38.8048
201.934
203.615
398.719
398.631
397.124
397.196
36.9021
201.63
203.436
200.931
202.762
398.611
398.766
80.306
152.672
26.8355
35.588
152.411
26.2535
80.6834
162.183
297.253
162.399
297.149
79.8173
27.0719
151.296
34.3819
25.7941
79.8457
151.437
159.34
297.303
297.256
162.795
76.9946
34.9
151.549
26.917
149.696
26.0811
79.5689
159.739
297.128
161.844
297.266
76.6908
35.9563
26.9351
150.991
26.7643
79.4366
150.247
162.382
297.25
297.132
162.336
79.6183
26.9754
152.058
34.4744
26.5126
80.3913
151.919
162.249
297.304
162.691
297.216
76.4989
35.4578
150.031
26.0949
150.382
26.5849
78.12
161.075
297.146
297.205
162.06
76.4312
36.0099
26.9373
151.277
26.2083
79.343
149.37
159.776
297.245
161.839
297.248
397.106
397.038
398.737
398.616
201.245
203.032
38.4605
201.626
203.48
158.211
295.069
156.639
295.097
77.1149
147.402
25.6419
34.844
75.3418
148.636
25.7362
75.6647
146.653
25.6808
34.6725
74.3393
148.255
25.7823
200.917
202.508
38.3552
201.541
203.258
398.729
398.609
79.0814
148.464
26.6032
35.8383
76.3475
151.239
26.6662
161.717
297.166
159.858
297.108
78.892
26.2615
149.627
35.4982
76.384
26.5222
150.551
162.107
297.182
161.223
297.096
78.9848
26.5922
148.748
35.5918
76.438
26.6469
150.808
161.545
297.271
159.661
297.116
203.437
201.755
38.6762
203.429
201.859
397.134
397.134
200.979
397.219
76.4996
25.9845
149.47
34.0476
25.473
149.281
76.884
158.599
295.161
295.085
158.736
158.332
295.186
295.11
158.564
72.7175
146.346
74.7776
147.319
156.334
295.101
156.897
295.087
398.746
398.618
397.238
397.174
201.148
397.234
325.175
305.073
173.014
157.665
305.151
172.402
325.019
414.718
295.131
210.089
209.134
414.841
414.897
210.048
295.136
209.881
414.703
325.054
155.86
305.11
173.386
305.009
170.979
325.125
397.099
397.218
328.456
176.839
308.346
160.358
176.152
308.405
328.255
417.03
297.214
213.31
212.234
417.242
417.206
212.996
297.259
212.428
417.016
328.288
161.601
176.988
308.54
175.086
308.413
328.362
325.184
156.391
304.908
173.316
305.098
171.668
324.974
414.712
210.088
295.062
414.864
209.016
325.118
156.994
305.208
173.379
325.125
305.108
172.353
414.856
209.853
295.054
209.638
414.65
397.075
397.131
328.433
162.065
176.982
308.44
175.309
308.507
328.306
417.064
213.339
297.193
417.26
212.356
328.355
161.634
177.133
308.526
328.41
176.248
308.447
417.223
213.064
297.187
212.59
417.052
398.638
398.694
246.12
401.998
401.97
402.119
402.083
245.874
171.037
113.545
202.635
305.765
110.783
305.559
170.226
170.048
112.535
201.169
305.476
109.71
305.365
169.478
169.702
305.646
203.468
113.529
110.335
305.667
170.529
168.553
305.566
201.868
112.239
109.272
305.514
169.352
246.039
402.054
402.08
401.975
401.967
245.825
397.025
397.077
398.604
398.688
246.027
401.432
402.341
401.593
402.506
245.741
171.039
112.314
201.262
304.928
304.789
109.631
169.226
170.554
114.039
203.052
306.248
306.061
109.254
168.847
167.944
304.859
200.977
112.24
304.89
170.154
108.979
167.504
306.149
202.836
113.351
306.17
169.549
112.211
246.008
401.605
402.503
401.486
402.38
245.723
397.054
396.976
398.733
398.613
245.999
401.579
402.5
245.505
401.449
402.357
171.006
112.003
200.95
304.816
304.851
108.983
169.157
170.428
112.727
203.03
306.067
306.158
111.446
167.815
170.512
304.877
107.596
201.396
170.33
304.774
110.792
169.903
306.185
110.092
203.416
169.693
306.081
111.297
245.728
401.451
402.37
401.594
402.512
245.792
325.143
305.004
173.121
157.227
305.056
171.488
325.021
414.729
295.093
209.975
209.415
414.86
414.824
209.83
295.2
209.125
414.698
325.067
155.483
305.101
173.351
304.985
172.348
325.092
325.081
305.117
170.785
157.872
325.14
305.12
171.825
414.867
295.082
209.989
414.725
209.353
414.721
209.243
295.001
414.846
209.289
325.225
158.125
305.158
171.912
324.973
305.223
172.522
325.011
305.059
171.166
156.97
325.098
305.07
170.016
414.825
295.057
209.664
208.886
414.674
414.705
209.364
295.001
414.839
209.038
325.097
157.078
305.089
173.023
305.158
172.493
324.968
246.005
401.88
401.995
402.034
402.155
245.602
169.677
111.927
200.769
305.373
305.224
109.366
169.02
170.85
112.839
202.459
305.704
108.778
305.508
170.121
167.652
305.331
201.706
112.171
305.381
108.97
167.619
169.367
305.583
203.346
113.01
111.94
305.649
168.471
245.958
402.027
402.108
401.929
402.021
245.784
398.603
398.766
397.191
397.104
245.942
402.016
402.134
245.484
401.886
402.01
169.854
111.811
201.371
305.286
108.938
305.378
166.848
171.583
112.313
203.098
305.58
305.649
111.225
168.814
169.576
305.396
107.646
200.734
110.589
167.772
305.309
170.052
305.667
109.587
203.01
170.466
305.532
108.932
245.754
401.897
402.028
402.032
402.169
245.817
398.746
398.691
328.422
308.334
161.421
176.663
308.47
176.069
328.198
417.089
213.121
297.051
212.449
417.272
328.257
160.077
308.454
176.733
308.3
174.917
328.334
417.268
213.094
297.076
212.377
417.095
328.327
174.998
308.411
161.697
328.384
175.737
308.379
417.27
297.255
213.223
417.091
212.648
417.065
212.492
297.135
417.221
212.508
328.4
160.778
175.984
308.442
328.24
175.867
308.488
328.27
308.366
160.723
174.696
328.323
308.325
175.448
417.265
212.985
297.059
212.308
417.053
328.329
160.803
308.334
176.32
308.434
175.531
328.167
417.108
212.739
297.005
417.279
212.701
328.425
177.002
308.338
160.287
175.155
308.383
328.302
417.12
297.151
213.265
212.682
417.304
417.277
213.113
297.126
212.368
417.107
328.299
161.335
176.824
308.445
175.622
308.353
328.365
328.505
308.347
161.695
177.288
308.487
175.677
328.329
417.151
213.621
297.174
212.68
417.371
328.4
160.725
308.522
177.391
308.354
176.567
328.474
417.347
213.413
297.269
213.223
417.094
328.381
176.131
308.441
160.286
328.438
176.368
308.367
417.322
297.201
213.071
212.351
417.131
417.129
212.773
297.132
417.308
212.504
328.419
160.03
176.74
308.406
176.109
308.467
328.255
328.37
308.386
160.843
176.268
328.462
308.347
175.537
417.306
213.142
297.3
212.852
417.058
328.414
160.905
308.371
176.938
308.469
175.257
328.322
417.12
212.616
297.183
417.283
212.848
397.01
397.056
398.579
398.656
246.106
401.488
402.398
401.598
402.515
245.842
171.002
110.309
304.848
200.826
168.85
304.794
110.797
170.385
108.799
306.265
203.263
169.643
306.09
112.147
245.993
401.598
402.507
245.644
401.478
402.388
170.219
304.883
200.732
111.743
304.895
170.362
110.579
168.964
306.17
203.096
112.97
306.184
169.699
109.914
325.167
157.686
304.955
172.766
305.162
172.362
324.928
414.692
208.487
294.96
414.792
209.272
325.074
157.239
305.155
171.109
305.143
325.065
171.966
414.752
209.498
294.915
208.786
414.625
246.224
401.617
401.871
401.427
402.362
246.074
169.582
109.468
305.335
201.23
305.174
168.882
110.322
171.314
108.178
305.631
202.134
111.661
170.713
305.53
246.006
402.026
402.19
401.883
245.717
402.122
168.143
305.053
201.331
110.819
305.226
109.81
168.776
169.612
305.774
202.731
112.008
110.299
305.602
170.303
398.603
398.695
328.368
160.858
308.328
176.156
308.425
175.43
328.18
417.05
212.144
296.948
417.221
211.822
328.255
160.886
308.394
174.555
308.363
328.282
175.348
417.236
212.81
296.947
212.596
417.022
328.412
160.885
176.392
308.394
175.765
308.462
328.211
417.126
212.062
297.09
212.693
417.298
328.302
161.55
174.929
308.515
174.675
328.386
308.443
417.209
213.069
297.137
212.236
417.065
328.433
160.865
308.318
176.416
308.427
175.767
328.221
417.087
212.414
297.177
417.22
212.622
328.347
159.474
308.451
175.461
328.411
308.353
175.837
417.224
212.874
297.178
212.57
417.016
245.969
402.294
401.653
402.552
401.736
245.606
169.973
113.529
202.674
306.123
305.974
109.608
169.303
170.654
112.42
201.243
304.931
108.588
304.836
168.714
168.573
306.063
202.467
113.109
306.088
112.287
169.294
169.761
304.995
201.068
112.107
111.361
304.945
169.848
245.897
402.561
401.709
402.457
401.612
245.624
397.104
397.187
401.84
304.765
325.18
173.078
305.035
158.003
172.452
305.187
325.03
414.691
295.072
209.832
209.232
414.802
414.798
209.799
295.125
209.028
414.681
325.043
156.492
172.993
305.17
171.011
305.097
325.06
325.154
172.857
305.032
156.126
172.251
305.094
324.953
414.702
295.088
209.914
209.154
414.831
414.8
209.772
295.06
208.979
414.688
325.047
156.725
173.258
305.176
171.107
305.093
325.093
172.017
305.251
325.114
209.462
414.825
170.945
305.243
325.082
209.511
414.826
398.663
398.763
397.181
397.278
402.015
305.398
17.5566
17.883
20.9188
17.3642
17.6369
15.3205
15.3494
17.3174
17.8406
21.3806
17.4824
17.5558
15.3063
15.3098
101.694
65.9486
65.2647
36.4407
62.6166
61.8109
100.729
101.69
65.1827
65.8427
37.5607
61.6079
63.2726
100.796
101.752
37.1388
64.2847
65.0239
62.5663
62.3683
98.566
102.033
64.867
65.5456
36.5075
62.1133
62.7535
99.107
102.214
37.7875
64.0578
64.3939
62.2815
63.4346
97.9588
101.803
62.0837
63.3919
37.9535
98.3583
63.3306
62.3668
101.804
60.0966
61.8921
37.6978
63.2918
100.932
63.1212
101.327
65.3669
64.6449
36.3414
61.2652
61.6835
100.401
17.6708
17.9547
21.5986
17.3695
17.738
15.3147
15.3269
17.9559
17.582
21.4806
17.5166
17.2825
15.2866
15.3094
17.8986
17.604
21.6987
17.5353
17.4623
15.2873
15.2907
21.6626
17.4973
17.7796
17.4178
17.5415
15.3241
15.3348
21.3443
17.628
17.8709
17.5979
17.6185
15.3349
15.3232
21.3408
17.8795
17.5401
17.8103
17.4985
15.305
15.326
21.4073
17.8782
17.5957
17.8344
17.3674
15.3297
15.3179
46.8484
89.4869
41.7571
78.4383
86.3534
41.1727
45.0807
56.2048
80.7558
150.377
111.742
75.9814
109.23
55.354
53.8339
111.814
149.363
80.1498
79.0649
108.631
54.9722
46.3802
76.378
89.1909
42.0929
87.7825
40.0681
46.0716
17.4023
17.7861
21.8193
17.4897
17.8172
15.3103
15.3199
17.687
17.3511
21.8529
17.7885
17.4166
15.2992
15.3035
17.6651
17.5056
21.8401
17.752
17.5388
15.3091
15.3213
46.992
78.8391
89.1287
41.4093
88.1752
40.8741
45.5982
56.6244
81.0163
111.927
149.075
55.9139
78.3765
109.548
45.2732
77.2802
89.5884
41.9573
45.4644
86.2243
39.6331
54.6261
111.515
150.946
80.3094
77.5732
108.706
55.5627
44.8353
39.4205
85.846
75.3119
38.966
85.0537
42.5438
53.9094
78.6712
146.528
108.328
76.0528
104.486
51.4618
53.0993
108.539
148.623
78.5289
75.6913
107.678
53.3001
43.0125
73.1676
39.6869
86.5164
37.6137
83.1858
43.6274
99.5984
38.3308
65.7364
64.9352
65.1202
64.3554
100.474
97.4562
37.2365
65.0227
65.4691
101.36
64.18
62.557
101.179
38.1633
61.2475
61.3131
101.337
64.2441
64.2483
44.7318
85.7244
39.5643
75.1721
84.8329
38.0601
41.9265
54.3597
78.4059
147.866
109.762
105.732
75.682
51.9091
53.0694
108.965
146.881
78.6137
108.39
75.3865
52.3709
44.2312
73.094
86.3459
40.1421
82.6721
39.0232
44.1752
44.849
85.3987
39.5189
73.2522
84.2993
39.0584
43.4571
54.1386
78.6303
146.05
108.065
104.395
76.1063
53.4424
52.3115
108.283
148.392
78.9289
107.5
53.081
75.7963
43.0452
74.2822
85.2974
40.05
82.0234
38.1621
43.7208
44.5973
82.5573
38.6256
75.095
44.0321
83.9156
37.8217
55.1811
78.6352
146.383
108.526
75.7984
107.554
53.4148
53.131
104.848
74.5656
146.877
77.7046
53.1089
108.018
43.0148
74.2811
85.3096
39.4957
84.0926
37.5795
43.5892
44.664
83.1318
37.7733
73.0813
42.8558
82.549
36.9377
54.5927
77.8156
147.586
107.688
106.571
75.9905
51.0368
52.5373
105.122
77.5846
145.76
53.1843
106.333
75.9811
43.5445
73.3938
85.6951
39.53
84.0482
39.0398
43.9676
100.497
38.2028
65.0706
65.353
64.6611
62.1389
100.901
99.7406
36.4791
63.7287
62.129
62.3605
100.626
63.3361
46.6295
89.6492
41.8305
79.2027
86.3734
41.2363
45.3895
56.4411
80.9772
149.958
111.989
110.373
78.6628
53.8101
52.8305
111.934
151.736
81.238
108.965
78.1923
55.5845
44.9118
77.5006
89.346
41.9102
87.1346
40.0727
45.376
47.1901
41.7708
78.6867
89.3115
40.1738
88.2693
43.9993
56.3032
80.3163
111.485
149.129
107.147
55.4945
78.4084
46.9152
76.6405
42.2414
89.4461
41.2864
86.3433
45.2065
54.3225
111.167
148.806
80.2601
110.111
55.0833
76.9861
46.7576
87.9719
39.8266
78.1786
44.6058
86.3905
39.054
56.571
80.6367
150.735
110.14
79.5729
111.641
53.1465
55.8952
109.995
79.9122
149.133
77.7462
55.8092
109.245
45.5929
78.1663
88.8789
41.6535
86.7871
41.1139
45.544
46.7502
39.1845
78.0524
86.1276
46.0999
41.1136
84.5196
56.2155
79.3805
110.534
148.398
109.164
52.9431
76.8649
44.2475
78.1093
41.8942
88.8746
40.2416
88.0713
44.6971
55.6327
108.058
78.5917
149.213
55.495
107.518
77.36
47.413
41.7367
78.3695
89.811
40.0001
88.747
45.9034
56.8328
80.4526
113.174
148.766
110.599
78.0156
55.9698
45.8342
76.3487
42.1364
90.3164
40.7584
86.8456
45.661
54.4022
112.375
151.009
80.8899
109.686
54.419
77.5877
46.9967
84.8736
39.8529
77.8223
44.7071
88.3294
39.9417
57.2829
80.712
149.883
111.141
54.4551
78.1844
108.853
55.3044
110.755
76.3614
150.374
55.3574
79.7306
109.693
45.8673
77.9603
88.8497
41.6729
44.2181
88.6337
39.9197
46.9582
39.0703
77.8245
86.396
44.9493
41.0789
85.1452
57.1935
79.894
111.582
150.443
108.668
55.51
77.6433
43.6986
77.9294
41.8205
88.8109
40.1084
87.3103
45.9615
55.3532
107.986
79.4204
148.847
55.1628
110.945
77.9762
100.896
38.0242
64.1324
64.6929
101.207
63.3297
61.7395
44.8245
74.4532
85.976
39.4222
82.9932
38.0264
43.2459
54.6123
76.3569
106.365
146.456
105.87
52.3425
77.1767
43.0873
74.937
83.5483
38.8525
83.4297
43.8847
38.1785
53.516
108.454
146.306
78.1397
105.646
77.1943
53.7012
44.9627
73.6729
85.9677
39.4234
85.119
38.9387
43.1119
54.3218
73.9973
105.697
147.399
53.5606
106.715
77.3962
44.4111
73.3949
83.9806
38.2807
44.3296
85.1304
38.7901
52.5403
107.798
147.05
78.2477
107.233
53.3344
75.5699
99.4733
37.8783
64.3928
64.2283
63.3018
61.9104
100.568
46.8622
77.9321
89.0943
41.2858
86.13
40.7123
44.8926
56.7617
78.732
111.391
151.116
110.163
55.8654
79.8995
45.1141
75.9141
84.3553
39.5915
87.868
45.1561
39.4014
54.9891
112.004
149.825
80.6394
109.35
79.9518
55.7897
46.6616
77.8703
41.5007
88.2581
40.984
87.2305
45.0725
56.338
75.1305
106.673
148.606
55.4647
110.019
78.4833
46.087
75.8966
41.1095
85.2485
44.257
40.0475
84.9372
54.4515
110.261
148.17
79.8121
108.997
55.2803
77.0114
47.2579
77.798
40.71
88.5668
41.4181
87.4669
44.6218
56.9014
75.8173
109.652
149.801
79.418
54.3297
110.209
47.1102
77.7055
39.1322
86.063
41.2551
45.1558
87.4783
55.4947
110.846
149.785
79.9759
76.9242
109.217
55.7092
99.1886
38.1764
65.2882
64.5701
63.9441
64.5266
100.096
45.0539
39.4907
85.38
73.4383
39.076
84.2198
43.1945
54.3058
79.1096
147.317
107.876
76.482
105.251
53.542
52.5026
108.357
146.843
79.0987
76.1438
105.169
53.2619
44.7644
74.1255
39.905
85.8387
37.9875
81.9638
43.2612
82.1733
105.204
82.6015
106.306
21.819
34.3932
34.9867
38.7035
21.9653
35.1477
34.6715
39.0265
22.0716
35.6399
34.6984
39.5675
21.9432
35.5786
34.6513
39.4632
21.8841
35.8422
34.8118
39.195
21.9236
35.7549
34.9489
39.6577
21.8607
35.6769
34.7756
39.4398
21.8925
35.6723
35.0867
39.7861
21.8236
35.6461
34.9205
39.6519
21.8782
35.6102
35.152
39.0813
21.8871
35.6725
34.9701
39.102
21.8505
35.818
34.7278
39.0512
22.0131
35.9356
34.9739
39.5588
21.8177
35.9412
34.9081
39.5774
21.8773
35.9382
35.0365
39.5876
34.9649
39.5119
37.902
34.93
34.1469
38.1137
35.3626
34.6574
33.4052
35.5926
37.6555
33.67
34.0227
38.4098
36.35
38.2478
33.8142
33.4053
34.9772
34.4238
36.6859
37.8732
35.2339
34.8163
36.2915
36.3738
35.2925
34.665
36.5039
36.6489
38.0241
32.9082
34.2143
35.3988
38.4612
36.166
38.6559
33.0195
33.1356
35.5938
34.805
35.576
38.1324
34.2378
34.209
36.346
36.3452
35.0741
34.1558
36.3799
36.4099
38.3737
33.6705
34.1397
35.3688
37.9967
36.3675
38.6595
34.9052
33.9263
35.3337
34.9557
36.0684
38.262
34.5526
35.5188
36.5076
36.0293
34.8213
34.3105
36.2966
37.093
38.4201
34.2701
34.158
35.0483
39.0464
37.401
38.6701
34.1232
34.0705
35.0461
35.0031
36.9983
38.458
35.6233
35.1664
35.9588
36.2979
34.7513
34.4416
36.1578
37.3219
38.4551
33.9944
34.3075
35.0947
38.6373
37.7647
38.6031
34.5437
32.803
35.3897
35.2631
37.1992
38.2092
35.2103
34.6542
36.1823
35.8151
35.2307
35.2614
36.2271
37.0222
38.4755
33.8096
34.3235
34.9221
39.4281
35.7837
38.4266
33.5975
34.6499
35.3626
35.2399
36.5235
38.6157
35.2836
34.8265
36.1474
36.0873
34.8806
35.1192
36.0501
36.5891
38.3838
33.7432
33.422
35.2123
38.9205
36.3655
38.7844
33.497
34.3491
35.4803
35.0431
36.3338
38.2584
35.1222
34.0996
36.0954
36.1384
35.0874
35.1513
36.2228
37.1853
38.4871
32.9433
33.7791
35.3756
38.2718
36.3778
38.3553
34.702
33.6975
35.1997
35.1365
37.0495
38.5493
34.9871
35.1105
35.9013
36.0678
35.2955
35.1672
36.3744
35.8161
38.6437
34.4334
34.3181
35.1767
39.4077
36.7102
38.7527
34.0527
33.6956
35.1088
35.1816
37.3002
38.4193
35.1345
34.204
36.3424
36.3774
35.811
35.1205
36.3027
37.7111
38.3576
33.8303
33.7426
35.21
38.5677
37.7919
38.4763
34.1903
34.0158
35.5647
35.1723
36.0468
38.6984
34.6481
34.8446
36.6844
36.0494
34.8086
35.0961
35.9509
37.0956
38.362
33.3218
34.5396
35.311
37.3539
36.83
38.636
34.4977
34.1726
35.2666
35.1752
37.6144
38.4883
35.8838
34.8101
36.4617
36.0418
35.0073
35.2671
36.4161
36.0613
38.3895
34.0753
34.2937
35.302
38.7291
37.2102
38.4339
34.163
33.4623
35.1432
35.3062
36.2849
38.3963
34.8894
34.9779
35.9202
35.9307
35.247
34.5357
36.2907
36.6141
38.2787
33.8416
33.548
34.9847
37.9439
36.6888
38.5913
34.6104
33.0384
35.155
35.2289
37.0192
38.1288
34.1469
35.1341
36.4247
36.2432
35.2555
34.509
36.5963
36.6742
38.5345
33.1386
34.4045
35.404
39.3733
37.3304
38.5229
34.0034
34.2924
35.1222
35.0673
36.4869
38.1226
34.3065
33.9831
36.1867
36.2758
35.1086
34.5586
36.1758
37.2703
38.6407
33.3938
34.5296
35.004
37.9825
36.8602
38.5713
33.516
34.004
35.5595
35.249
36.4418
38.4532
35.1259
35.5131
35.0001
34.8621
34.329
34.6626
34.6196
37.4385
38.3347
34.0571
33.6104
35.2286
39.06
37.3814
37.118
34.275
33.7715
35.174
39.0258
21.5493
21.0386
21.8502
21.4343
157.302
296.502
159.927
295.008
398.17
397.067
161.913
297.1
161.553
296.875
21.7413
21.3506
21.6279
21.8756
21.9037
22.0138
22.1795
78.3122
151.389
26.1498
33.5057
78.2305
151.234
25.4526
398.568
398.476
75.5422
25.4097
147.992
33.9456
75.6264
24.8796
148.108
203.052
201.427
38.5186
203.138
201.537
158.086
295.107
158.43
295.002
397.159
397.034
162.036
297.096
162.472
297.044
21.2393
21.3937
21.8114
21.4778
21.9328
21.9206
22.027
79.7562
152.05
26.3992
33.0123
79.126
151.687
25.2519
398.678
398.505
75.3412
25.6392
149.428
33.2767
75.6363
25.2064
149.29
203.301
201.583
39.0653
203.394
201.752
158.402
295.15
158.847
295.077
397.107
396.983
162.326
297.156
162.238
297.078
21.1216
21.5376
21.2941
21.8088
22.0384
21.959
22.165
79.6835
151.994
26.5887
34.9374
80.3079
151.907
25.5577
398.659
398.551
76.2126
25.6389
149.502
33.3179
76.4
24.8026
149.175
203.614
201.85
39.0536
203.769
201.858
158.888
295.189
158.784
295.184
397.153
397.031
162.48
297.301
162.48
297.298
21.7247
21.0543
21.0106
21.6441
21.8137
22.0426
22.1371
79.8821
152.151
26.615
33.7952
79.9212
151.618
25.6761
398.714
398.589
76.4347
25.5514
148.956
33.2451
76.9497
24.7698
149.033
203.758
201.998
39.126
203.695
201.959
157.972
295.203
158.746
295.109
397.169
396.991
162.288
297.371
162.831
297.197
21.4527
21.418
21.3014
21.6606
21.9148
21.8653
21.9865
79.8972
152.387
26.4794
34.7574
80.3803
151.899
25.7444
398.693
398.572
76.5586
25.5943
150.043
33.7925
76.972
24.9576
149.577
203.593
202.252
39.1502
203.582
202.047
158.47
295.232
159.023
295.055
397.095
397.013
162.274
297.257
162.668
297.121
21.4355
21.2065
21.6567
21.5537
21.9319
21.8346
22.0412
79.7616
152.034
26.5368
34.2989
79.8733
151.69
25.7792
398.742
398.577
75.9743
25.8312
149.945
34.0765
77.1401
24.7031
149.067
203.845
201.867
39.1163
203.705
201.98
158.691
295.232
158.54
295.151
397.156
397.014
162.143
297.272
162.515
297.187
21.6957
21.3438
21.0421
21.7046
21.8281
22.0747
22.115
79.5674
152.354
26.5479
34.2177
79.8056
152.152
25.7902
398.725
398.575
76.313
25.8157
149.215
33.0919
76.3464
25.3573
148.93
203.832
202.201
39.2722
203.852
201.932
158.172
295.128
158.459
295.03
397.146
397.003
162.082
297.282
162.584
297.152
20.9521
21.0226
21.2778
21.6364
21.797
22.0064
22.2943
79.9923
152.265
26.5401
34.2386
80.1045
151.684
25.7312
398.745
398.571
76.4816
25.5937
149.539
33.2421
76.6208
24.5318
149.07
203.828
202.121
39.2165
203.713
202.134
158.74
295.162
158.993
295.109
397.199
396.985
162.549
297.26
162.794
297.149
21.3893
21.7421
21.6387
21.6719
21.8456
21.9478
22.0813
79.7367
152.144
26.4877
34.1397
80.1501
151.983
25.6181
398.711
398.539
76.4558
25.7341
149.382
33.9056
76.1297
25.3349
149.254
203.894
202.127
39.1661
203.799
201.97
158.749
295.253
158.942
295.215
397.112
396.991
162.418
297.337
162.796
297.172
21.2893
21.5098
21.3932
21.7272
21.9734
21.9485
22.1266
79.2464
152.168
26.4784
34.2351
80.1799
152.025
25.6287
398.683
398.541
75.8844
25.6326
149.504
34.2843
76.7803
24.673
148.938
203.889
202.213
39.0837
203.766
201.903
158.494
295.264
158.191
295.122
397.149
397.004
162.63
297.24
162.834
297.174
21.7024
21.558
21.3771
21.8759
22.0253
21.9904
22.3047
80.1483
151.936
26.51
34.4319
80.1605
151.876
25.9239
398.698
398.527