/*--------------------------------*- C++ -*----------------------------------*\
| =========                 |                                                 |
| \\      /  F ield         | OpenFOAM: The Open Source CFD Toolbox           |
|  \\    /   O peration     | Version:  2206                                  |
|   \\  /    A nd           | Website:  www.openfoam.com                      |
|    \\/     M anipulation  |                                                 |
\*---------------------------------------------------------------------------*/
FoamFile
{
    version     2.0;
    format      ascii;
    arch        "LSB;label=32;scalar=64";
    class       surfaceScalarField;
    location    "120";
    object      phi;
}
// * * * * * * * * * * * * * * * * * * * * * * * * * * * * * * * * * * * * * //

dimensions      [0 3 -1 0 0 0 0];

oriented        oriented;

internalField   nonuniform List<scalar> 
196294
(
-8.46598e-12
8.01248e-11
8.01201e-12
2.51194e-12
1.29844e-08
4.93349e-11
6.07077e-13
-4.38796e-12
-1.32853e-11
-1.93392e-08
1.93069e-08
-1.98847e-12
1.25047e-11
3.75842e-12
-1.29233e-08
2.00899e-12
1.2907e-08
-4.9783e-11
4.33235e-14
-1.04104e-11
9.91686e-11
-2.38116e-08
2.37726e-08
-1.37022e-11
-1.28413e-11
1.53573e-11
3.19307e-11
2.04919e-08
8.79106e-12
-7.42029e-12
1.08015e-10
-1.44777e-10
1.41825e-10
-1.11632e-10
1.20069e-07
1.51354e-12
3.63254e-12
-6.46908e-09
2.68355e-12
6.46125e-09
-1.06361e-13
-1.81124e-11
2.96979e-11
-5.00336e-12
-2.44514e-08
2.44449e-08
-4.08158e-12
3.14113e-11
1.22305e-12
1.33844e-11
-4.06622e-11
3.67723e-11
-1.52489e-11
-3.39139e-11
-2.56444e-11
2.7735e-11
1.1622e-07
-4.10004e-11
4.4962e-12
1.19463e-11
-9.69679e-12
8.75944e-12
-1.43025e-11
1.1983e-07
-4.19062e-12
-5.5817e-12
7.25945e-12
-2.08756e-08
1.6294e-11
2.08618e-08
-1.53284e-11
-3.21166e-11
-2.747e-08
-5.67802e-11
-3.98887e-11
2.76141e-08
9.76154e-12
-3.54563e-12
-3.38861e-12
-2.09029e-08
2.18847e-11
2.08782e-08
4.39791e-12
-2.16927e-12
-5.6876e-13
-2.10171e-08
1.4739e-11
2.10008e-08
2.93499e-11
3.39621e-12
6.49635e-09
3.28366e-12
-6.46261e-09
2.65394e-12
6.45469e-09
-2.87533e-11
-2.16559e-11
-2.74569e-08
-4.90794e-11
-4.93891e-11
2.76058e-08
5.2997e-11
-1.75471e-11
1.18577e-10
2.09974e-08
1.00565e-11
-4.13509e-12
-2.0733e-08
2.26636e-11
2.07077e-08
1.05582e-09
-2.58855e-11
-1.08396e-10
2.1955e-11
-3.50329e-10
-4.53296e-10
1.17105e-07
6.80886e-11
2.00755e-10
2.06008e-08
-4.15642e-12
-4.30093e-11
-3.40452e-12
2.08275e-08
1.87491e-12
2.12852e-12
6.46476e-09
1.16994e-13
-1.03178e-11
9.87913e-11
-2.38115e-08
2.37722e-08
1.6912e-10
-9.96015e-11
-2.76107e-11
-4.21876e-11
4.02954e-11
6.92347e-11
-6.82475e-11
6.52607e-11
-7.04419e-11
1.14963e-07
1.51318e-11
-2.05001e-08
3.36844e-11
2.04739e-08
3.68537e-11
-9.46515e-11
1.07477e-10
-1.44746e-10
1.41682e-10
-1.10085e-10
1.20326e-07
4.96668e-11
-1.3518e-11
-3.4565e-12
-1.93358e-08
1.93037e-08
1.27009e-11
2.55103e-12
-1.29345e-08
2.05251e-12
1.29187e-08
9.91998e-11
-9.7996e-12
-2.38056e-08
2.37659e-08
9.02435e-13
1.45271e-11
-2.5012e-12
4.92275e-11
-6.54828e-11
-5.25022e-11
6.44866e-11
-1.69595e-11
-4.37298e-11
3.74159e-11
1.16082e-07
-8.08268e-12
9.01772e-11
-1.4443e-10
1.414e-10
-9.32864e-11
1.21405e-07
-9.92021e-12
1.47955e-11
-2.04913e-08
3.38685e-11
2.04652e-08
4.99295e-13
-4.57331e-12
-1.34589e-11
1.93107e-08
3.55313e-12
1.99987e-12
1.29231e-08
-4.99113e-11
9.92471e-11
-9.8964e-12
-2.38082e-08
2.37688e-08
1.66653e-12
-4.01747e-12
-1.70967e-11
-3.9266e-11
3.71778e-11
4.94381e-11
-6.72727e-11
6.51808e-11
-5.20769e-11
1.161e-07
-6.31406e-12
9.0626e-11
-1.44646e-10
1.41286e-10
-9.32208e-11
1.21393e-07
-1.25244e-11
1.47615e-11
-2.05039e-08
3.33463e-11
2.04781e-08
-1.35725e-11
-3.64534e-12
1.93054e-08
-1.48568e-12
3.02414e-12
2.07142e-12
1.29121e-08
-2.74602e-08
-5.09918e-11
-4.68454e-11
2.7604e-08
-1.12511e-11
-2.07902e-08
1.73945e-11
2.07778e-08
-2.0764e-12
7.20428e-12
-2.1137e-08
2.04399e-11
2.11073e-08
-4.96486e-13
-6.59245e-09
3.30103e-12
6.58758e-09
-1.85767e-11
2.99385e-11
-4.83665e-12
-2.44541e-08
2.44475e-08
-2.57667e-12
2.32315e-12
-3.41515e-11
-2.98874e-11
2.8027e-11
1.32262e-11
-3.81901e-11
3.64343e-11
-1.47795e-11
1.16277e-07
3.83228e-12
1.19462e-11
-9.80064e-12
8.82576e-12
-1.40147e-11
1.19773e-07
-5.66492e-12
7.33813e-12
-2.08675e-08
1.58726e-11
2.08544e-08
3.41501e-13
-2.37608e-12
-4.39908e-12
-1.99541e-08
1.99425e-08
1.11091e-12
-1.32117e-08
2.31817e-12
1.32022e-08
-2.08968e-12
-4.44031e-12
-1.99581e-08
1.99464e-08
2.87042e-13
9.87931e-13
-1.32158e-08
2.3174e-12
1.32066e-08
2.85094e-12
6.45859e-09
-6.5915e-09
3.26551e-12
6.58636e-09
-2.41244e-11
1.42756e-10
1.99334e-08
4.93682e-12
5.35387e-09
-9.61191e-12
-7.06068e-13
9.48764e-09
1.21215e-12
-1.91317e-12
-1.83337e-08
-1.05824e-11
-6.3377e-12
4.09499e-11
1.83053e-08
-1.15163e-08
-1.05041e-12
5.99352e-13
1.92461e-12
1.15016e-08
3.88849e-12
1.25247e-11
4.03558e-13
-4.8994e-11
5.80498e-12
-3.99479e-11
3.91836e-13
-1.96826e-12
-1.28595e-12
1.86197e-12
9.47545e-09
-7.49552e-13
5.33353e-09
-4.37168e-12
-1.98361e-08
-1.73439e-12
2.63172e-11
1.98089e-08
-2.62895e-12
9.23897e-13
-1.13394e-11
-2.46531e-12
-2.4883e-11
3.41731e-12
5.3271e-09
-1.49567e-12
-2.81867e-12
-3.66366e-12
1.6019e-12
2.39125e-12
1.47876e-08
-1.25014e-11
-1.13156e-11
-5.34628e-09
1.81524e-12
1.32476e-12
3.01021e-12
5.34013e-09
-5.37933e-09
2.43251e-12
5.00792e-14
3.14261e-12
5.3737e-09
-1.38304e-12
-3.34263e-12
-2.54985e-15
-3.32161e-12
1.23299e-11
1.16698e-11
1.47679e-08
-2.15681e-11
8.54513e-12
1.92432e-08
-2.29005e-11
-1.24711e-08
8.63242e-12
2.01817e-12
1.24584e-08
-2.16574e-11
3.60502e-12
-9.95593e-12
-2.30309e-08
-2.16453e-11
4.54632e-11
3.23339e-11
2.29967e-08
-4.58415e-11
-3.31309e-11
-2.1299e-12
2.25816e-11
1.92199e-08
-1.68879e-11
6.952e-12
1.84296e-08
-1.83798e-11
-1.23782e-08
6.72149e-12
2.17091e-12
1.23688e-08
-1.50583e-11
4.07984e-13
1.87642e-12
-4.11853e-12
-2.24722e-08
-1.78508e-11
3.13769e-11
2.34849e-11
2.24499e-08
-3.27517e-11
-2.25716e-11
-2.19033e-12
1.72676e-11
1.84129e-08
-2.98205e-12
-3.49382e-12
2.72286e-12
2.59008e-12
1.47835e-08
-1.06468e-11
-1.29057e-11
-5.37441e-09
4.29217e-12
-1.98861e-13
1.93292e-12
5.36838e-09
-5.34713e-09
3.12076e-12
2.04431e-12
1.67085e-12
5.34029e-09
-6.10516e-13
-2.62758e-12
-1.31333e-12
-2.64085e-12
1.22889e-11
1.41226e-11
1.47645e-08
7.19496e-12
1.93269e-08
-2.1265e-11
-1.25862e-08
4.07507e-11
1.74211e-12
1.2526e-08
-4.70605e-11
1.50376e-10
1.40333e-10
2.31396e-08
-1.67558e-12
2.2598e-11
1.93103e-08
9.28242e-12
1.83442e-08
-2.14034e-11
-1.93333e-11
-1.22591e-08
1.00367e-11
1.66713e-12
1.22453e-08
2.97701e-12
-2.18097e-11
-9.17259e-12
-2.23793e-11
-2.22641e-08
4.35514e-11
3.28408e-11
2.22328e-08
-1.95563e-12
2.10506e-11
1.83249e-08
-4.23671e-11
-3.24781e-11
-4.75361e-11
5.40028e-11
1.2729e-12
5.34429e-09
2.33421e-10
1.47841e-08
-5.99812e-11
1.20086e-12
1.24389e-08
-1.51613e-10
5.45683e-11
2.25778e-08
1.9055e-08
-1.48104e-12
-9.2951e-12
9.48942e-09
1.63884e-12
-2.08749e-12
-1.15167e-08
-1.38507e-13
1.8412e-12
1.15021e-08
-1.83301e-08
-1.08505e-11
-5.504e-12
4.09252e-11
1.83021e-08
1.26489e-11
4.77259e-12
-4.92735e-11
-1.90636e-12
6.67075e-12
-4.01241e-11
-7.56814e-13
1.73293e-12
9.47748e-09
-3.32554e-13
5.33588e-09
-4.21267e-12
-1.9841e-08
-2.27465e-12
2.62801e-11
1.9814e-08
-3.82119e-12
-1.17266e-11
-2.44776e-12
-2.52681e-11
3.45834e-12
5.32942e-09
-1.0366e-11
-6.38056e-12
4.07788e-11
1.83135e-08
-1.49248e-12
6.61124e-13
1.80521e-12
1.15079e-08
-1.62949e-12
1.7427e-12
9.48314e-09
-1.37756e-12
2.59633e-11
1.98255e-08
3.38781e-12
5.33247e-09
-3.67318e-13
1.739e-12
1.15041e-08
-1.05669e-11
-5.80272e-12
4.0831e-11
1.83026e-08
-9.03798e-13
1.76525e-12
9.47565e-09
-1.99146e-12
2.61764e-11
1.98084e-08
3.4173e-12
5.32678e-09
3.727e-12
2.13702e-13
1.47951e-08
4.80095e-13
-2.50193e-11
-5.34992e-09
-1.7604e-11
2.08522e-11
2.52011e-12
5.34415e-09
-5.37739e-09
2.16306e-11
-2.0233e-11
3.46602e-12
5.37252e-09
7.66662e-13
-3.26597e-12
-1.93074e-12
-3.53342e-12
1.09085e-10
-9.06988e-11
1.47807e-08
1.01786e-11
-1.88387e-11
1.83756e-08
-3.65424e-11
-1.22583e-08
-1.48076e-11
1.39794e-12
1.22813e-08
3.03078e-12
-2.16919e-11
-9.58106e-12
-2.26214e-08
-6.28776e-11
3.57702e-11
1.38539e-11
2.26521e-08
-2.15133e-12
-3.26797e-11
-4.64251e-11
-1.00974e-10
1.8508e-08
-1.98738e-11
5.5315e-12
1.93137e-08
-5.10043e-12
-1.25989e-08
3.03156e-11
2.75773e-12
1.25528e-08
-1.54128e-11
9.40168e-13
1.60358e-12
-4.08964e-12
-2.28874e-08
2.39004e-11
1.9564e-11
6.51083e-11
2.27993e-08
-2.27814e-11
-3.15902e-11
-2.21018e-12
1.37947e-10
1.91393e-08
6.36778e-13
-3.53291e-12
-2.08611e-12
-2.55399e-13
9.77519e-09
-1.99417e-14
-2.04398e-12
-1.88825e-08
-3.16647e-12
-3.12028e-12
1.53443e-11
1.88711e-08
-1.18786e-08
-5.78946e-13
2.58763e-13
1.3867e-12
1.18732e-08
1.78468e-12
3.73863e-12
9.65116e-14
-1.75328e-11
2.35258e-12
-1.413e-11
2.48308e-13
-1.61816e-12
-5.33476e-13
1.54715e-12
9.77044e-09
2.02247e-12
5.48848e-09
-4.5315e-12
-2.03541e-08
1.30397e-12
1.05414e-11
2.03402e-08
-3.61939e-13
-4.8528e-12
-2.51785e-12
-9.60845e-12
3.61221e-12
5.48568e-09
-2.24831e-12
-4.42265e-13
9.77986e-09
1.66507e-13
-1.89227e-12
-1.88904e-08
-3.25707e-12
-2.97983e-12
1.55821e-11
1.8879e-08
-1.18814e-08
-2.70577e-13
1.28084e-12
1.18762e-08
1.91201e-12
3.42205e-12
-1.75919e-11
2.52324e-12
-1.45042e-11
-1.71029e-12
-3.88511e-13
1.58003e-12
9.77517e-09
1.61178e-12
5.4926e-09
-4.19858e-12
-2.03652e-08
1.10465e-12
1.02777e-11
2.03518e-08
-7.26967e-13
-5.10332e-13
-5.18404e-12
-2.39621e-12
-9.86606e-12
3.67535e-12
5.48963e-09
-3.41252e-12
-1.93849e-10
4.56301e-10
1.25125e-07
3.22923e-10
-4.45021e-10
1.35492e-07
-3.82438e-10
4.24446e-11
1.29877e-07
-3.82154e-10
1.1001e-11
1.42543e-07
4.02654e-10
-9.03915e-13
1.24946e-07
6.84919e-12
1.35496e-07
1.60161e-12
1.22474e-11
1.29047e-07
9.80982e-12
1.41799e-07
-2.9248e-12
-4.4411e-12
1.24725e-07
-9.80378e-12
1.33132e-07
2.85306e-11
-4.21075e-10
1.27416e-07
-3.907e-10
1.42823e-07
-1.41121e-11
2.32777e-12
1.24768e-07
-3.164e-12
1.33104e-07
-1.83604e-11
1.26574e-07
1.41932e-07
7.94791e-11
-1.82182e-11
2.59723e-08
-2.30137e-08
7.8532e-11
-1.39158e-11
2.29794e-08
-2.69647e-08
-1.88315e-11
-7.19332e-12
2.69452e-08
9.96988e-12
-1.00805e-10
1.38933e-13
6.851e-12
2.54657e-11
2.5895e-08
5.45789e-11
2.25059e-08
3.8825e-11
2.43747e-08
2.58258e-08
-6.26871e-12
2.37826e-11
2.64145e-08
-5.32398e-11
-2.75287e-08
-6.65322e-12
-6.77857e-13
2.7556e-08
-2.35608e-08
2.45018e-11
-5.38694e-12
2.3552e-08
-3.00012e-11
4.6959e-12
-2.28535e-14
-1.19064e-14
5.19913e-12
5.30924e-11
2.6365e-08
2.17944e-11
2.02158e-11
2.62003e-08
-2.30246e-08
1.96221e-11
2.30174e-08
-1.64733e-11
-7.16688e-12
-2.47473e-08
2.16381e-11
2.47208e-08
2.62794e-08
-2.87606e-11
-2.97648e-11
2.24796e-08
5.82247e-11
4.30057e-11
-2.5694e-08
-2.66643e-11
2.56701e-08
-2.46571e-08
-2.87128e-11
2.46474e-08
2.24641e-08
2.24692e-08
-2.37138e-11
-3.22512e-11
5.04157e-11
4.79386e-11
-2.61873e-11
-2.58004e-08
2.58196e-08
-3.13522e-11
-2.45469e-08
2.45302e-08
2.24553e-08
3.04443e-10
2.26493e-08
1.63392e-10
2.4556e-08
2.59785e-08
7.93705e-11
-1.81671e-11
2.59777e-08
-2.57125e-11
-2.3013e-08
7.84739e-11
-1.39924e-11
2.29792e-08
-2.69672e-08
-1.89374e-11
-7.00189e-12
2.69471e-08
1.00607e-11
-1.00895e-10
1.92855e-13
1.34932e-11
7.05803e-12
2.18125e-11
2.59053e-08
5.48588e-11
3.72271e-11
2.57823e-08
-2.25284e-08
5.44502e-11
2.25014e-08
-1.50486e-11
-3.34954e-11
-2.43692e-08
3.70024e-11
2.43305e-08
2.58251e-08
-2.15142e-11
7.93037e-11
2.59706e-08
2.9264e-11
-2.6962e-08
-2.14632e-11
2.69312e-08
-2.30006e-08
7.77517e-11
-1.61494e-11
2.29702e-08
-1.01204e-10
1.03269e-11
1.69462e-11
-2.84299e-11
2.59621e-08
5.47644e-11
2.57466e-08
4.04736e-11
-2.25173e-08
5.39665e-11
2.24883e-08
-1.51074e-11
-3.37648e-11
3.99328e-11
-2.43706e-08
2.43349e-08
2.57596e-08
-2.14987e-11
7.95477e-11
2.5976e-08
2.91458e-11
-2.69635e-08
-2.15998e-11
2.69326e-08
-2.30061e-08
7.72566e-11
-1.62489e-11
2.2976e-08
-1.01044e-10
1.03724e-11
1.70473e-11
-2.8672e-11
2.59671e-08
4.06543e-11
5.47867e-11
2.57582e-08
-2.25247e-08
5.33369e-11
2.24961e-08
-3.42398e-11
-1.5279e-11
-2.44297e-08
3.97794e-11
2.43883e-08
2.57706e-08
-3.05903e-11
-2.72314e-11
2.24642e-08
4.31335e-11
5.71999e-11
-2.56298e-08
-7.08265e-11
2.56198e-08
-2.46938e-08
1.38868e-11
2.46726e-08
2.24443e-08
-6.16631e-12
2.39693e-11
2.64184e-08
-5.35328e-11
-2.75315e-08
-6.72312e-12
2.75577e-08
-2.35666e-08
2.45068e-11
-5.45765e-12
2.35583e-08
-2.98966e-11
4.76766e-12
5.1918e-12
5.29313e-11
2.63693e-08
2.12802e-11
2.04877e-11
2.62013e-08
-2.30278e-08
1.929e-11
2.30207e-08
-1.6395e-11
-7.27537e-12
-2.46964e-08
2.17454e-11
2.46759e-08
2.62805e-08
1.29371e-12
8.89505e-13
-6.78934e-13
2.25324e-09
5.87044e-13
5.89098e-13
-4.60369e-13
1.21101e-09
2.06636e-13
3.35046e-13
-2.57133e-13
5.94243e-10
3.94318e-14
1.55474e-13
-1.14035e-13
2.45384e-10
3.80757e-14
-3.02075e-14
5.81439e-11
1.12158e-12
-2.50821e-13
-2.25342e-09
3.30957e-13
2.25424e-09
5.17074e-13
-1.2588e-13
-1.21095e-09
1.77691e-13
1.21152e-09
1.87005e-13
-5.52493e-14
-5.94129e-10
8.639e-14
5.94447e-10
3.93271e-14
-1.8056e-14
-2.45275e-10
3.59748e-14
2.45425e-10
-4.53875e-15
-5.80924e-11
8.90981e-15
5.81413e-11
1.43371e-12
-1.32501e-14
-4.21326e-09
-1.99819e-13
4.21475e-09
6.36471e-13
-4.93796e-14
-2.25987e-09
-1.14204e-13
2.26084e-09
2.29345e-13
-4.11099e-14
-1.10929e-09
-5.55205e-14
1.1098e-09
5.77341e-14
-2.44249e-14
-4.5884e-10
-2.25938e-14
4.59064e-10
-5.79717e-15
-1.09082e-10
-6.13058e-15
1.09155e-10
1.78053e-12
8.55152e-13
4.21108e-09
8.31711e-13
5.63798e-13
2.25891e-09
3.21285e-13
3.14273e-13
1.10882e-09
8.51522e-14
1.40914e-13
4.58667e-10
3.54388e-14
1.09107e-10
1.44189e-12
-4.20904e-09
-2.78214e-13
4.2103e-09
6.5415e-13
-2.25765e-09
-1.74319e-13
2.2585e-09
2.3989e-13
-1.10822e-09
-9.00363e-14
1.10867e-09
5.81272e-14
-4.58367e-10
-3.61312e-14
4.58571e-10
-1.08965e-10
-1.1991e-14
1.09033e-10
1.1379e-12
1.82164e-13
-3.37343e-13
4.21676e-09
5.48473e-13
6.78239e-14
-2.47924e-13
2.26195e-09
2.63167e-13
1.11454e-15
-1.55964e-13
1.1103e-09
1.32121e-13
-2.34625e-14
-8.51724e-14
4.59221e-10
9.5524e-16
-1.31369e-14
1.09221e-10
1.13462e-12
-2.25576e-09
1.3882e-14
2.25667e-09
5.24139e-13
-1.21225e-09
-2.49031e-14
1.21285e-09
1.96029e-13
-5.94727e-10
-2.61726e-14
5.95052e-10
4.80884e-14
-2.45546e-10
-1.603e-14
2.45696e-10
-5.81429e-11
-2.77201e-15
5.81921e-11
1.08068e-12
3.59666e-13
2.25727e-09
4.80728e-13
2.13621e-13
1.2132e-09
1.56991e-13
1.19071e-13
5.95284e-10
1.53709e-14
5.96988e-14
2.45798e-10
1.02524e-14
5.82264e-11
1.1411e-12
-3.07796e-14
1.07019e-13
2.25545e-09
5.36134e-13
1.05173e-14
2.60092e-14
1.21212e-09
2.12085e-13
1.04532e-14
-1.43359e-15
5.94698e-10
6.39228e-14
4.14983e-15
-6.36987e-15
2.4555e-10
4.07639e-15
-1.73074e-16
5.81802e-11
1.77936e-12
-2.30477e-13
3.36785e-13
-4.2089e-09
4.21034e-09
7.97848e-13
-1.4373e-13
2.11982e-13
-2.25752e-09
2.25849e-09
2.61787e-13
-6.94075e-14
1.16413e-13
-1.10816e-09
1.10873e-09
2.40318e-14
-2.45325e-14
5.65765e-14
-4.58338e-10
4.58627e-10
-9.70737e-15
8.18443e-15
-1.08982e-10
1.09066e-10
1.29175e-12
-2.25154e-09
-4.44382e-15
2.25233e-09
6.26607e-13
-1.21008e-09
-1.91525e-14
1.21059e-09
2.57078e-13
-5.93709e-10
-1.5502e-14
5.93987e-10
7.88711e-14
-2.45114e-10
-9.33005e-15
2.4524e-10
-5.80515e-11
-8.69848e-16
5.81038e-11
1.26491e-12
2.32377e-13
-2.25236e-09
-5.4903e-14
2.25325e-09
5.81756e-13
1.6919e-13
-1.21047e-09
-4.70896e-14
1.21106e-09
2.00164e-13
1.01762e-13
-5.93884e-10
-2.20304e-14
5.94234e-10
2.4889e-14
5.17453e-14
-2.45198e-10
-4.63891e-15
2.45381e-10
1.18502e-14
-5.80688e-11
-3.52719e-15
5.81233e-11
1.51026e-12
-1.0612e-13
4.21296e-09
6.69199e-13
-4.9875e-14
2.25989e-09
2.30856e-13
-1.76122e-14
1.10936e-09
4.39661e-14
-1.57221e-15
4.58895e-10
-4.89298e-15
1.09115e-10
1.83047e-12
2.68111e-13
-4.20821e-09
4.2096e-09
8.90632e-13
1.62534e-13
-2.25733e-09
2.25824e-09
3.64452e-13
8.25188e-14
-1.10802e-09
1.10852e-09
1.02721e-13
3.36737e-14
-4.58318e-10
4.58551e-10
7.73917e-15
-1.08945e-10
1.09025e-10
-1.09343e-12
-8.41259e-14
2.58424e-09
2.27845e-13
-5.25259e-13
-5.14584e-14
1.38798e-09
1.19047e-13
-2.05593e-13
-3.0394e-14
6.81202e-10
6.06227e-14
-5.18033e-14
-1.56455e-14
2.81448e-10
2.59777e-14
-3.73352e-15
6.67689e-11
8.37557e-15
1.12419e-12
-2.82205e-09
-1.91944e-13
1.9447e-13
2.82286e-09
5.31672e-13
-1.51511e-09
-1.11841e-13
1.17634e-13
1.5157e-09
1.95904e-13
-7.43868e-10
-5.77004e-14
6.18595e-14
7.44211e-10
4.38683e-14
-3.07577e-10
-2.50257e-14
2.62784e-14
3.0774e-10
-7.3072e-11
-6.17665e-15
6.98024e-15
7.31229e-11
-1.12337e-12
1.41937e-13
-5.4302e-13
9.11305e-14
-2.16247e-13
5.07164e-14
-5.68726e-14
2.28985e-14
5.85571e-15
1.08885e-12
-2.26803e-13
2.58506e-09
5.19191e-13
-1.21874e-13
1.38858e-09
1.96099e-13
-5.86647e-14
6.81546e-10
4.51385e-14
-2.30659e-14
2.81612e-10
-6.70892e-15
6.6819e-11
-1.36744e-12
-6.43575e-14
-8.38287e-14
-6.43421e-13
-8.51052e-14
-1.9141e-14
-2.46204e-13
-6.12058e-14
-1.10342e-15
-6.11751e-14
-3.27015e-14
1.05081e-15
-9.84554e-15
1.27461e-15
-2.06081e-12
-2.43189e-13
9.05442e-14
-9.8204e-13
-1.32183e-13
5.64752e-14
-3.82023e-13
-6.85335e-14
3.32058e-14
-9.24241e-14
-3.08963e-14
1.67382e-14
-4.29309e-15
3.79133e-15
1.08429e-12
-2.23943e-09
-5.50411e-14
2.24031e-09
5.07325e-13
-1.20302e-09
-4.42425e-14
1.20358e-09
2.01059e-13
-5.90207e-10
-3.02208e-14
5.90501e-10
6.46977e-14
-2.43657e-10
-1.83189e-14
2.43784e-10
-5.77141e-11
-1.50949e-15
5.77618e-11
-1.21904e-12
1.58661e-13
-5.97719e-13
1.08284e-13
-2.4286e-13
6.48168e-14
-6.76117e-14
3.4133e-14
4.82808e-15
1.17713e-12
-2.23745e-09
3.78118e-13
2.23836e-09
5.45993e-13
-1.20202e-09
2.33996e-13
1.20261e-09
1.93628e-13
-5.89702e-10
1.34266e-13
5.90052e-10
3.23401e-14
-2.43445e-10
6.66905e-14
2.43622e-10
-5.7669e-11
1.38377e-14
5.77215e-11
-1.18452e-12
1.59915e-13
-2.87259e-13
-5.55734e-13
6.51649e-14
-1.52007e-13
-2.04075e-13
1.30508e-14
-7.98674e-14
-3.72581e-14
-7.36655e-15
-3.77538e-14
2.64325e-15
-7.78738e-15
-1.88961e-12
-1.12263e-14
-8.66617e-13
-2.43317e-14
-3.25091e-13
-1.90069e-14
-8.12227e-14
-8.75196e-15
-3.84731e-15
5.66771e-13
1.81374e-13
4.0216e-09
2.54715e-13
1.1928e-13
2.15688e-09
1.31465e-13
5.01757e-14
1.05842e-09
7.74747e-14
6.49695e-15
4.37511e-10
1.01168e-14
1.03973e-10
5.95502e-13
2.24194e-09
2.53387e-13
1.20438e-09
8.68155e-14
5.90885e-10
1.24582e-14
2.43971e-10
5.78049e-11
-1.20522e-12
-3.49822e-13
2.58504e-09
4.50487e-13
-5.90048e-13
-2.06122e-13
1.38839e-09
2.62589e-13
-2.41488e-13
-1.06345e-13
6.81364e-10
1.41424e-13
-7.07857e-14
-4.37649e-14
2.81538e-10
6.3752e-14
-1.35098e-14
6.67865e-11
1.6287e-14
1.06995e-12
-2.82227e-09
1.4257e-13
2.82311e-09
5.02426e-13
-1.51522e-09
9.44223e-14
1.51583e-09
1.80728e-13
-7.43914e-10
5.42964e-14
7.44269e-10
3.56494e-14
-3.07595e-10
2.67043e-14
3.07764e-10
-7.30763e-11
5.02891e-15
7.31277e-11
-1.09447e-12
-5.22931e-13
-2.02476e-13
-5.02008e-14
9.91305e-13
3.23084e-14
2.58589e-09
4.62189e-13
3.05636e-14
1.38898e-09
1.72749e-13
1.66549e-14
6.8169e-10
4.67712e-14
5.20031e-15
2.81685e-10
2.68956e-15
6.68361e-11
-1.37812e-12
-4.3992e-13
-6.56288e-13
-2.51637e-13
-2.57144e-13
-1.2958e-13
-6.9561e-14
-5.59982e-14
-1.40478e-14
1.05992e-12
-3.67939e-13
2.16372e-13
2.82462e-09
5.23605e-13
-2.33029e-13
1.19999e-13
1.51659e-09
2.26154e-13
-1.38202e-13
5.2742e-14
7.44514e-10
8.41824e-14
-7.34003e-14
1.52301e-14
3.07934e-10
-1.18104e-14
6.57152e-15
7.31455e-11
1.00379e-12
-4.05319e-13
2.58721e-09
4.59698e-13
-2.19358e-13
1.38967e-09
1.52154e-13
-9.75988e-14
6.82042e-10
1.39173e-14
-3.09384e-14
2.81854e-10
-1.20244e-14
6.68561e-11
9.91618e-13
8.07336e-14
2.8235e-09
4.56305e-13
6.85506e-14
1.51608e-09
1.58844e-13
5.03548e-14
7.44318e-10
2.62555e-14
3.11352e-14
3.07824e-10
2.96963e-15
7.31218e-11
1.00291e-12
-4.02463e-14
2.58524e-09
4.67186e-13
-9.73204e-15
1.38864e-09
1.77935e-13
-5.80625e-15
6.81518e-10
5.3913e-14
-6.12357e-15
2.81603e-10
1.05064e-15
6.68093e-11
1.94138e-12
-5.08246e-13
4.2718e-13
-4.01851e-09
4.02015e-09
8.80031e-13
-2.81021e-13
2.60978e-13
-2.15525e-09
2.15637e-09
3.02304e-13
-1.44536e-13
1.49634e-13
-1.05752e-09
1.05815e-09
4.99187e-14
-6.11394e-14
7.34904e-14
-4.37139e-10
4.37438e-10
-1.66382e-14
1.72914e-14
-1.03863e-10
1.03953e-10
1.47708e-12
-2.23899e-09
2.24009e-09
7.0164e-13
-1.20268e-09
1.20337e-09
2.75043e-13
-5.9002e-10
5.90385e-10
7.75619e-14
-2.43587e-10
2.4375e-10
-5.77135e-11
5.77724e-11
-1.27179e-12
1.26124e-13
-1.16984e-13
-6.25569e-13
6.56625e-14
-3.66e-14
-2.62748e-13
3.74424e-14
-3.11008e-15
-8.65354e-14
2.15805e-14
7.99349e-15
6.51334e-16
-2.58866e-15
-1.93332e-12
2.41993e-13
-9.01971e-13
1.52216e-13
-3.43747e-13
7.29353e-14
-7.50844e-14
2.50565e-14
1.13132e-14
-1.14767e-12
-7.94718e-14
2.57938e-09
8.10893e-14
-5.7927e-13
-5.42133e-14
1.38546e-09
7.02002e-14
-2.6159e-13
-2.7402e-14
6.79964e-10
6.03742e-14
-9.7856e-14
-6.5631e-15
2.80965e-10
4.05283e-14
-7.95333e-15
6.66412e-11
7.45491e-15
6.97471e-13
-2.81666e-09
-1.05983e-13
7.11232e-14
2.81741e-09
2.89962e-13
-1.51231e-09
-5.26267e-14
4.75224e-14
1.51277e-09
7.57711e-14
-7.42512e-10
-2.00148e-14
3.36725e-14
7.4278e-10
-8.6613e-15
-3.07011e-10
-2.0912e-15
2.22348e-14
3.0715e-10
-7.29313e-11
-4.8465e-15
2.39913e-15
7.29765e-11
-8.58985e-13
3.77189e-14
-3.98985e-13
-1.1223e-15
-1.51533e-13
-1.89405e-14
-3.07511e-14
-1.97848e-14
4.34659e-17
8.18965e-13
-1.76363e-13
2.58016e-09
3.78824e-13
-1.07651e-13
1.38592e-09
1.51238e-13
-6.92221e-14
6.80197e-10
5.29616e-14
-3.91275e-14
2.81063e-10
-7.74165e-15
6.6688e-11
-1.38056e-12
1.52461e-13
-6.60238e-13
1.20679e-13
-2.66424e-13
8.06052e-14
-7.97299e-14
4.57087e-14
6.49446e-15
-1.02091e-12
-1.51328e-13
2.58061e-09
1.03148e-13
-4.70756e-13
-1.12241e-13
1.38608e-09
5.49537e-14
-1.64459e-13
-7.62123e-14
6.80257e-10
2.43055e-14
-2.00325e-14
-4.3487e-14
2.81091e-10
4.3729e-15
-8.74255e-15
6.66717e-11
7.62473e-15
6.639e-13
-2.81751e-09
-2.34552e-14
2.81821e-09
3.11671e-13
-1.51272e-09
-2.99523e-14
1.51312e-09
1.36475e-13
-7.42706e-10
-3.56055e-14
7.42906e-10
6.17457e-14
-3.07151e-10
-3.00211e-14
3.07234e-10
-7.29502e-11
-1.63247e-15
7.29937e-11
-9.04138e-13
-4.18691e-13
-1.58569e-13
-4.23395e-14
8.79252e-13
-8.04834e-14
2.58141e-09
4.20846e-13
-3.4939e-14
1.3866e-09
1.61753e-13
-1.64042e-14
6.80565e-10
3.25772e-14
-6.14907e-15
2.81252e-10
-3.77688e-15
6.67212e-11
-1.2936e-12
-2.03269e-13
3.66699e-14
-5.98528e-13
-1.43161e-13
1.84637e-14
-2.18692e-13
-8.67591e-14
-3.62099e-16
-4.33872e-14
-4.5421e-14
-7.94673e-15
-9.65959e-15
7.2625e-16
-1.85507e-12
-8.5531e-13
-3.22659e-13
-8.15279e-14
1.62695e-12
-2.22987e-13
-4.01818e-09
4.01979e-09
7.16964e-13
-1.32856e-13
-2.15528e-09
2.15634e-09
2.40661e-13
-6.87083e-14
-1.05751e-09
1.05809e-09
3.81332e-14
-2.90661e-14
-4.37176e-10
4.37451e-10
-7.55732e-15
-1.03852e-10
1.03931e-10
1.75079e-12
-4.01758e-09
4.01913e-09
8.24551e-13
-2.15489e-09
2.15589e-09
3.23717e-13
-1.05741e-09
1.05793e-09
8.94136e-14
-4.37124e-10
4.37357e-10
-1.03833e-10
1.03913e-10
2.708e-12
4.21224e-09
1.28471e-12
2.25774e-09
4.9388e-13
1.10762e-09
1.20046e-13
4.57994e-10
1.08883e-10
-2.4494e-12
4.2146e-09
-1.16163e-12
2.2587e-09
-4.47675e-13
1.10801e-09
-1.12514e-13
4.58065e-10
1.08865e-10
1.87165e-12
4.21626e-09
8.59282e-13
2.25978e-09
3.18372e-13
1.10859e-09
7.75955e-14
4.58326e-10
1.0895e-10
1.26413e-12
2.02337e-13
-4.01877e-09
4.02027e-09
5.45344e-13
1.09669e-13
-2.15538e-09
2.15625e-09
2.0025e-13
5.4676e-14
-1.0576e-09
1.05803e-09
5.98601e-14
2.22204e-14
-4.37202e-10
4.37382e-10
5.56705e-15
-1.0386e-10
1.03926e-10
7.49305e-13
-2.23912e-09
2.2398e-09
3.33799e-13
-1.20285e-09
1.20329e-09
1.20141e-13
-5.90114e-10
5.90354e-10
3.17953e-14
-2.43633e-10
2.43743e-10
-5.77177e-11
5.77572e-11
-1.17013e-12
-6.32676e-14
-5.52526e-13
-3.36178e-14
-2.10958e-13
-2.06393e-14
-4.90667e-14
-1.18263e-14
-1.46665e-15
-1.92489e-12
1.96277e-13
-9.20159e-13
9.41568e-14
-3.54132e-13
3.59626e-14
-7.75233e-14
8.03466e-15
4.87893e-15
-1.87512e-12
-8.93835e-13
-3.44759e-13
-8.25182e-14
9.45995e-13
-8.11123e-13
4.34338e-13
-4.01623e-09
4.01762e-09
4.01565e-13
-5.16651e-13
2.81294e-13
-2.15411e-09
2.1549e-09
1.46939e-13
-2.91472e-13
1.56324e-13
-1.05701e-09
1.0574e-09
4.48233e-14
-1.34793e-13
7.01631e-14
-4.37004e-10
4.37171e-10
-3.35742e-14
1.78738e-14
-1.03791e-10
1.03851e-10
8.79581e-13
-2.23861e-09
2.23954e-09
3.95443e-13
-1.20249e-09
1.20306e-09
1.44587e-13
-5.89917e-10
5.90229e-10
3.50157e-14
-2.43552e-10
2.43698e-10
-5.77009e-11
5.77478e-11
-9.35602e-13
-3.69985e-14
-4.5002e-13
5.50957e-14
-1.78689e-13
5.87057e-14
-4.6311e-14
3.34985e-14
1.09577e-14
9.23988e-13
1.82088e-13
-4.01657e-09
4.01761e-09
3.99073e-13
1.3773e-13
-2.15412e-09
2.15482e-09
1.38007e-13
7.42802e-14
-1.05705e-09
1.05742e-09
3.67441e-14
3.05547e-14
-4.37025e-10
4.37187e-10
7.82912e-15
-1.03804e-10
1.03863e-10
9.00988e-13
-2.23742e-09
2.2381e-09
4.16651e-13
-1.20188e-09
1.20234e-09
1.56439e-13
-5.89661e-10
5.89915e-10
4.24853e-14
-2.4346e-10
2.43577e-10
-5.76671e-11
5.77087e-11
-1.09241e-12
-6.4773e-14
-5.24962e-13
-5.26218e-14
-2.07858e-13
-3.74177e-14
-5.53932e-14
-1.91128e-14
-6.80032e-15
-1.51594e-12
-4.84917e-14
-7.21453e-13
1.83991e-14
-2.80634e-13
3.07784e-14
-7.39065e-14
2.04785e-14
6.20259e-15
-1.50725e-12
-7.12518e-13
-2.73885e-13
-7.01097e-14
-2.32682e-12
4.2172e-09
-1.09151e-12
2.26018e-09
-4.16304e-13
1.10864e-09
-1.01378e-13
4.58369e-10
1.08916e-10
1.90548e-12
4.21882e-09
8.83967e-13
2.26124e-09
3.30959e-13
1.10921e-09
7.75046e-14
4.58631e-10
1.08998e-10
1.8833e-12
4.22058e-09
8.90933e-13
2.2621e-09
3.45194e-13
1.1097e-09
9.32792e-14
4.58799e-10
1.09055e-10
1.84247e-12
4.21644e-09
8.3627e-13
2.25984e-09
3.04074e-13
1.10857e-09
6.83411e-14
4.58343e-10
1.08954e-10
-1.84261e-12
-4.52035e-15
-8.76578e-13
-9.4825e-15
-3.42805e-13
-2.94411e-15
-8.9309e-14
8.92367e-16
-1.15937e-17
-2.04404e-12
-9.78851e-13
-3.83156e-13
-9.45417e-14
-2.54323e-12
4.20863e-09
-1.22581e-12
2.25553e-09
-4.77854e-13
1.10637e-09
-1.06113e-13
4.57412e-10
1.08712e-10
1.984e-12
4.21015e-09
9.29481e-13
2.25654e-09
3.58082e-13
1.10695e-09
8.8474e-14
4.57699e-10
1.08804e-10
-2.31097e-12
4.21165e-09
-1.10766e-12
2.2572e-09
-4.41252e-13
1.10731e-09
-1.21639e-13
4.57817e-10
1.08791e-10
2.04743e-12
4.2131e-09
9.79663e-13
2.25814e-09
3.84735e-13
1.10781e-09
9.94304e-14
4.58049e-10
1.0888e-10
2.21993e-11
8.91304e-12
6.46642e-09
-1.17321e-12
-3.69208e-12
-1.18481e-12
6.46245e-09
-2.87488e-12
2.24261e-11
-1.41275e-10
4.75108e-11
1.83955e-10
2.74931e-08
-1.77952e-11
9.07542e-11
4.48341e-11
2.09018e-08
-9.45135e-12
3.70277e-12
-2.23213e-11
2.07321e-08
-5.01657e-11
4.66754e-13
4.36918e-12
1.4049e-11
1.93382e-08
-1.22562e-11
-2.93351e-12
1.29235e-08
-2.45748e-12
4.57516e-13
1.03661e-11
-9.84724e-11
2.38097e-08
-3.08743e-10
-1.67376e-09
4.19799e-11
4.76133e-10
6.64564e-11
3.02228e-10
6.9902e-11
1.1565e-07
1.49156e-10
2.12385e-10
-1.51425e-11
-3.21568e-11
2.04995e-08
2.1384e-10
-4.13482e-09
6.12229e-10
1.44255e-10
1.0924e-10
7.12045e-10
1.2236e-07
-4.9952e-11
1.39001e-11
5.10732e-12
1.93352e-08
-1.24951e-11
1.77788e-12
-4.09164e-12
1.29359e-08
-2.38126e-12
-9.82999e-11
1.08866e-11
2.38039e-08
-8.13997e-10
-1.8482e-11
-1.94674e-09
4.7997e-10
7.78049e-11
5.13978e-11
2.90183e-10
4.28212e-10
1.4719e-11
2.49062e-10
1.1727e-07
-3.98066e-09
6.19007e-10
1.43324e-10
9.1791e-11
7.12133e-10
1.23219e-07
6.93161e-12
-1.59153e-11
-3.45261e-11
2.04963e-08
-1.46491e-11
-1.95113e-09
4.82205e-10
6.60141e-11
5.10021e-11
3.04315e-10
4.2444e-10
3.87388e-11
2.25672e-10
1.17282e-07
-8.08188e-10
1.27513e-11
1.03134e-11
-1.56926e-11
-3.27224e-11
2.05034e-08
1.92941e-12
-3.94682e-12
1.29292e-08
-2.27527e-12
-3.54421e-12
6.46931e-09
-2.73206e-12
2.77886e-11
2.74652e-08
8.72565e-11
5.31141e-12
-3.51292e-11
-4.88942e-11
2.08652e-08
2.81562e-12
-7.13675e-12
4.09694e-11
1.12321e-11
2.10594e-08
5.67585e-13
6.59261e-09
-2.77066e-12
8.89448e-14
-1.0837e-11
2.9016e-11
3.00148e-13
2.44263e-08
-5.23529e-10
-1.26284e-09
4.26339e-10
5.17651e-11
1.63562e-10
3.0039e-10
2.34111e-11
1.35504e-11
2.35101e-10
1.1682e-07
-2.03007e-10
-7.87962e-10
2.03282e-10
-9.055e-11
-3.36722e-11
9.05806e-11
1.20128e-07
5.40978e-12
-7.10437e-12
-1.27234e-11
2.08691e-08
-1.05364e-11
2.9056e-11
1.62438e-13
2.44289e-08
-4.83548e-10
-3.17634e-11
-1.24695e-09
2.94285e-10
3.67843e-11
1.41746e-11
2.21339e-10
4.31194e-10
2.84724e-11
1.87734e-10
1.16826e-07
-7.74671e-10
1.97764e-10
-9.07546e-11
-3.4214e-11
9.07164e-11
1.19697e-07
5.6731e-12
3.98622e-12
-7.30788e-12
-1.51666e-11
2.08672e-08
4.06245e-13
-2.76112e-13
-4.49839e-12
1.9936e-08
-6.16294e-13
1.32113e-08
-2.46933e-12
1.42795e-13
-4.74092e-12
1.99409e-08
-5.46271e-13
-7.92821e-13
1.32162e-08
-2.58445e-12
2.74705e-08
5.69205e-11
4.03326e-11
3.88292e-12
4.25925e-12
-2.3046e-11
2.09034e-08
2.56168e-12
4.11328e-13
-1.58871e-11
2.10177e-08
6.46689e-09
-2.47258e-12
6.59158e-09
-3.18019e-12
1.32995e-11
1.1222e-11
5.3451e-09
-1.24213e-12
-3.00868e-12
-1.67941e-12
5.34717e-09
-2.18926e-12
7.47917e-12
-1.34819e-11
1.47808e-08
4.92957e-11
1.24713e-08
-1.19601e-12
-7.59431e-11
1.82048e-10
2.30156e-08
1.08692e-10
5.48158e-11
1.92363e-08
-9.5263e-12
1.22589e-08
-2.03337e-12
2.25684e-11
-4.25337e-11
-3.33833e-11
2.22638e-08
-1.96525e-11
1.83442e-08
-9.48763e-09
-4.60373e-11
-1.61192e-12
3.88183e-12
9.5312e-09
1.94371e-13
1.06621e-11
1.83337e-08
6.1551e-12
-4.08691e-11
9.08173e-13
1.1516e-08
5.31422e-13
-1.85931e-12
1.11562e-11
5.49676e-11
5.32734e-13
-1.7929e-10
1.94509e-08
1.35409e-12
-1.94646e-12
1.68994e-11
-1.55056e-10
1.8437e-08
5.15964e-13
1.15688e-08
1.29096e-13
-5.33355e-09
-2.12719e-11
5.3584e-09
3.09956e-13
1.53952e-12
1.98365e-08
-2.59259e-11
-5.13444e-12
-6.29718e-11
7.79003e-12
1.29829e-08
8.39399e-13
-3.53966e-12
-1.09905e-10
1.9937e-08
-9.48981e-09
-2.47095e-12
-4.62257e-11
4.59384e-12
9.5336e-09
3.08005e-13
1.68473e-12
1.15168e-08
-1.94064e-12
1.08061e-11
1.83304e-08
7.13642e-12
-4.11468e-11
5.50019e-11
1.20194e-11
-1.79125e-10
1.94478e-08
2.00027e-12
-1.81784e-12
1.15698e-08
1.01963e-13
1.77956e-11
-1.55085e-10
1.84335e-08
-5.33598e-09
-2.06407e-11
5.361e-09
2.17541e-13
1.1189e-12
1.98419e-08
-2.59759e-11
-6.20494e-12
8.38052e-12
-6.28822e-11
1.29957e-08
8.76076e-13
-3.42706e-12
-1.09773e-10
1.99427e-08
-5.33337e-09
-2.08644e-11
-4.56749e-12
5.35829e-09
5.05004e-13
1.52314e-12
1.9836e-08
-2.63514e-11
-6.73899e-12
-6.5417e-12