/*--------------------------------*- C++ -*----------------------------------*\
| =========                 |                                                 |
| \\      /  F ield         | OpenFOAM: The Open Source CFD Toolbox           |
|  \\    /   O peration     | Version:  2206                                  |
|   \\  /    A nd           | Website:  www.openfoam.com                      |
|    \\/     M anipulation  |                                                 |
\*---------------------------------------------------------------------------*/
FoamFile
{
    version     2.0;
    format      ascii;
    arch        "LSB;label=32;scalar=64";
    class       volVectorField;
    location    "120";
    object      U;
}
// * * * * * * * * * * * * * * * * * * * * * * * * * * * * * * * * * * * * * //

dimensions      [0 1 -1 0 0 0 0];

internalField   nonuniform List<vector> 
66621
(
(-1.78298e-05 -1.68238e-05 0.0695867)
(-3.36546e-05 2.0294e-06 0.0948849)
(-2.4275e-05 -9.52132e-07 0.069413)
(3.95972e-05 1.0014e-06 0.114729)
(2.64142e-05 -1.57343e-05 0.0977787)
(-1.87702e-06 3.69271e-07 0.139448)
(-1.16754e-05 3.83383e-06 0.0594341)
(9.76522e-07 3.72108e-05 0.115588)
(2.59557e-06 -4.74438e-06 0.13515)
(-4.9398e-06 -4.14725e-06 0.140362)
(-2.29281e-05 2.58758e-05 0.0983313)
(0.000124472 0.000126769 0.129628)
(1.10581e-05 1.29118e-05 0.0826057)
(1.88289e-05 9.98451e-06 0.0828916)
(-1.78386e-05 -5.33366e-06 0.0594829)
(-1.24844e-05 -2.27977e-06 0.059368)
(-0.000123278 -0.000126033 0.129562)
(-1.87113e-05 3.06884e-06 0.0827613)
(-9.9812e-06 -1.0234e-05 0.0825252)
(8.12866e-06 5.52941e-06 0.13537)
(-2.05523e-05 -1.35389e-05 0.0979717)
(8.43584e-06 -9.27194e-06 0.0826345)
(1.00662e-05 -2.60539e-06 0.0594594)
(-4.08659e-05 6.08575e-07 0.114732)
(1.05825e-06 7.25178e-06 0.134763)
(-2.65108e-05 -1.55561e-05 0.0977362)
(1.68853e-06 8.41158e-07 0.139469)
(-3.26883e-05 2.85846e-06 0.0948836)
(-2.45041e-05 4.70873e-06 0.0694924)
(-3.91571e-05 9.10115e-07 0.114717)
(6.2667e-06 -8.17488e-06 0.134682)
(2.9108e-06 1.04494e-06 0.139464)
(-2.64532e-05 1.58697e-05 0.0977562)
(3.19464e-05 2.42638e-06 0.0949003)
(2.38503e-05 -2.2487e-06 0.0694978)
(3.97358e-05 7.18608e-07 0.114725)
(-2.96856e-06 -7.14297e-06 0.134708)
(-2.85864e-06 4.34677e-07 0.139483)
(2.82009e-05 1.70085e-05 0.0977704)
(3.08982e-05 2.0307e-06 0.0948915)
(2.40918e-05 3.55405e-06 0.0694563)
(-0.000121606 0.000124096 0.129607)
(-1.07938e-05 1.14155e-05 0.0825782)
(-1.96183e-05 8.27237e-06 0.0829435)
(-1.03556e-05 1.07845e-05 0.0595787)
(-4.01294e-07 3.56373e-05 0.115585)
(-2.94889e-06 -6.05206e-06 0.135177)
(1.68711e-06 -5.24175e-06 0.140375)
(2.23053e-05 2.71471e-05 0.0983167)
(2.36769e-06 3.30709e-05 0.0957196)
(-8.25508e-06 2.45857e-05 0.0698048)
(2.57208e-07 3.24127e-05 0.0957207)
(8.0705e-06 2.44729e-05 0.0698125)
(1.2149e-05 4.70746e-06 0.0594072)
(9.40032e-06 1.06107e-05 0.0595676)
(-4.87766e-06 -2.04925e-05 0.0809257)
(-7.28701e-06 -1.55378e-05 0.0576978)
(1.44044e-05 -1.0449e-06 0.063813)
(-3.27081e-05 1.09967e-06 0.0914461)
(-1.09424e-05 2.33862e-06 0.0660008)
(3.64727e-05 6.28068e-07 0.0950233)
(3.71701e-05 -2.56052e-08 0.0915586)
(1.35061e-05 5.83544e-07 0.0660778)
(-1.15523e-05 8.0942e-07 0.0637495)
(1.59926e-05 -5.75411e-07 0.0576573)
(-2.72213e-05 1.35271e-06 0.0806968)
(2.88267e-05 6.18945e-06 0.0694381)
(3.29597e-05 2.65476e-06 0.0807546)
(-1.32266e-05 1.48788e-06 0.0576275)
(1.48008e-05 -5.45743e-06 0.0594658)
(-1.73264e-05 -1.12919e-05 0.0751459)
(8.95633e-06 8.50995e-06 0.058108)
(1.35421e-05 5.17846e-06 0.058147)
(-9.80832e-06 -8.59222e-06 0.0581257)
(-1.41493e-05 -5.21136e-06 0.0581505)
(1.60265e-05 1.16444e-05 0.0751055)
(-4.55588e-05 -1.14856e-05 0.0944069)
(1.42579e-05 9.05924e-06 0.0688089)
(-1.48156e-05 -1.30244e-05 0.0826655)
(4.82825e-05 1.4006e-05 0.107016)
(-4.62029e-05 -1.25382e-05 0.107074)
(-1.55354e-05 -8.67484e-06 0.0688282)
(4.51727e-05 1.09743e-05 0.0943654)
(-1.6445e-05 -4.05333e-05 0.0944016)
(1.42914e-05 1.15577e-05 0.0688374)
(-2.01303e-05 -1.05801e-05 0.0828782)
(1.52349e-05 4.62887e-05 0.107218)
(-1.94907e-05 -4.24374e-05 0.10722)
(-1.45901e-05 -1.12842e-05 0.0688125)
(1.32907e-05 4.26003e-05 0.094389)
(1.37159e-05 7.22524e-06 0.0594024)
(1.37505e-05 1.02751e-05 0.0751867)
(-1.39068e-05 2.45817e-06 0.058109)
(-4.64861e-06 -5.27884e-06 0.0580519)
(1.1296e-05 3.49967e-06 0.0581622)
(5.98145e-06 8.89831e-06 0.0581176)
(-9.82771e-06 -4.16869e-06 0.0750069)
(1.94295e-05 4.03789e-05 0.0945909)
(-1.58057e-05 -1.14574e-06 0.0688923)
(-1.28797e-05 -3.25051e-05 0.107135)
(1.10644e-05 9.89641e-06 0.0689693)
(-1.069e-05 -3.22536e-05 0.09439)
(4.22778e-05 1.28165e-05 0.094339)
(-1.0488e-05 -6.50474e-06 0.0686495)
(1.3263e-05 1.5637e-05 0.0825902)
(-4.23943e-05 -1.20976e-05 0.106896)
(1.21128e-05 1.02967e-05 0.0686931)
(-3.78052e-05 -7.1039e-06 0.0941657)
(4.62253e-05 1.57261e-05 0.106987)
(4.04671e-06 -3.99896e-06 0.0581223)
(1.10734e-05 -3.50939e-06 0.0750664)
(1.02739e-05 -5.68838e-06 0.0688365)
(4.29249e-05 -1.29293e-05 0.106964)
(4.09113e-05 -1.09399e-05 0.0943293)
(1.61652e-05 4.06602e-06 0.0638593)
(-1.00883e-05 3.38396e-06 0.0660182)
(-3.24932e-05 2.33584e-06 0.0914688)
(3.5511e-05 3.16559e-06 0.0950223)
(1.35975e-05 3.65781e-06 0.0660955)
(3.72228e-05 3.25822e-06 0.0915792)
(-1.00489e-05 2.93636e-06 0.0637952)
(1.69606e-05 4.01113e-06 0.0577193)
(-2.69529e-05 3.20784e-06 0.0807548)
(2.775e-05 -2.43548e-06 0.0695171)
(3.15652e-05 2.13651e-06 0.0808145)
(-1.21604e-05 2.12179e-06 0.0576858)
(3.25292e-05 2.18942e-06 0.0914887)
(1.06823e-05 3.82497e-06 0.0660359)
(1.16457e-05 3.84857e-06 0.0637995)
(2.76006e-05 9.24905e-07 0.0807649)
(1.34846e-05 3.22953e-06 0.0576841)
(1.02514e-05 2.48414e-06 0.0660266)
(3.27211e-05 1.31808e-06 0.0914695)
(1.12679e-05 1.62212e-06 0.0637811)
(2.64261e-05 1.18434e-06 0.0807289)
(1.29307e-05 9.18503e-07 0.0576556)
(1.5473e-05 -1.37363e-05 0.0751587)
(-1.07962e-05 4.60377e-06 0.0581008)
(-1.70232e-05 3.23303e-06 0.0581733)
(7.41763e-06 -1.0984e-05 0.0581383)
(1.25801e-05 -7.60375e-06 0.0581568)
(-1.91461e-05 7.17042e-06 0.0751215)
(4.59124e-05 -1.23263e-05 0.0943001)
(-1.44122e-05 5.92475e-06 0.0686843)
(1.43813e-05 -1.49805e-05 0.0826422)
(-4.73164e-05 1.1969e-05 0.106954)
(1.37216e-05 -1.11366e-05 0.0687431)
(4.73007e-05 -1.3352e-05 0.107014)
(-4.78591e-05 7.60618e-06 0.0942616)
(1.66039e-05 -4.0654e-05 0.0945269)
(-1.71696e-05 1.09055e-05 0.0689897)
(1.94667e-05 -1.19284e-05 0.0829295)
(-1.70558e-05 4.50953e-05 0.107277)
(1.90937e-05 -4.26157e-05 0.107277)
(1.33211e-05 -1.29646e-05 0.0689306)
(-1.56433e-05 3.94934e-05 0.0945193)
(1.03188e-05 -1.18498e-05 0.0595532)
(9.76848e-07 -1.46513e-05 0.0641004)
(1.52142e-06 3.27823e-05 0.092253)
(1.28697e-06 8.77948e-06 0.0663913)
(-4.1632e-07 -3.5344e-05 0.0958269)
(1.77961e-06 -3.77689e-05 0.0922769)
(9.45493e-08 -1.15044e-05 0.0664175)
(1.32697e-06 1.08897e-05 0.0641169)
(2.97738e-06 -1.57112e-05 0.0577971)
(-3.15384e-06 2.86524e-05 0.0813194)
(1.02563e-05 -2.74296e-05 0.0697357)
(6.67703e-06 -3.21641e-05 0.0812539)
(-1.48514e-07 1.29419e-05 0.0578553)
(-3.66536e-07 -1.39062e-05 0.0641017)
(-9.01052e-07 3.26131e-05 0.0922528)
(1.06659e-06 7.97639e-06 0.066394)
(1.07081e-06 -3.67395e-05 0.0958289)
(-1.23933e-06 -3.72605e-05 0.0922796)
(1.83364e-06 -1.16007e-05 0.0664183)
(-7.74744e-08 1.03925e-05 0.0641134)
(-2.22974e-06 -1.46825e-05 0.0578091)
(3.82259e-06 2.88014e-05 0.0813269)
(-9.06149e-06 -2.71856e-05 0.0697444)
(-5.58375e-06 -3.17436e-05 0.0812685)
(9.87582e-07 1.30381e-05 0.0578617)
(-1.00592e-05 -1.17422e-05 0.0595397)
(-8.04076e-06 6.93466e-06 0.14413)
(-3.15107e-06 3.81988e-06 0.147974)
(-1.58598e-05 4.33022e-06 0.14716)
(-1.05214e-05 9.55654e-06 0.15095)
(6.57322e-06 7.33213e-06 0.144104)
(1.09076e-06 3.32584e-06 0.14797)
(1.44005e-05 4.84144e-06 0.147156)
(8.56265e-06 1.05645e-05 0.150944)
(-7.57634e-06 -1.5437e-06 0.1439)
(-1.13692e-05 -2.25974e-07 0.147133)
(-4.18987e-06 -4.63423e-06 0.147654)
(-8.42714e-06 7.9659e-07 0.150744)
(8.27682e-06 -1.07359e-06 0.143922)
(1.13437e-05 5.77073e-07 0.147147)
(4.5166e-06 -4.64581e-06 0.147662)
(8.87534e-06 2.50246e-06 0.150746)
(-0.000150865 3.63726e-07 0.125632)
(4.00002e-05 4.94317e-07 0.112209)
(0.000147935 1.52156e-06 0.127465)
(-3.88158e-05 -2.34018e-07 0.114826)
(-4.17086e-05 1.06624e-06 0.112271)
(-0.000144937 -1.04371e-06 0.127462)
(0.000151143 2.75749e-07 0.125688)
(3.64471e-05 -4.57165e-06 0.106788)
(0.000147514 -8.16131e-06 0.115843)
(0.000156264 -4.02377e-06 0.122087)
(-3.79019e-06 -0.000154624 0.126364)
(1.91268e-06 0.000150326 0.128256)
(-1.20387e-07 3.82144e-05 0.113059)
(-8.14275e-07 -4.02234e-05 0.115695)
(-2.62939e-06 -0.000149133 0.128277)
(1.00511e-06 -4.34526e-05 0.113059)
(3.98704e-06 0.000151046 0.126461)
(2.6354e-06 -0.000150996 0.122611)
(-7.99535e-06 3.57379e-05 0.107532)
(2.33735e-05 -2.90355e-05 0.0982461)
(-1.03157e-05 0.000147763 0.116348)
(1.09228e-05 -0.000146864 0.116271)
(8.80359e-06 -3.9598e-05 0.107429)
(-2.32142e-06 0.00015422 0.122765)
(-4.3034e-05 -3.84319e-05 0.110094)
(-0.000118473 -0.000113975 0.129499)
(4.24552e-05 0.000129548 0.120776)
(0.000126784 4.21714e-05 0.120835)
(-4.20184e-05 -0.000124657 0.120717)
(-0.00012535 -3.5073e-05 0.120752)
(4.58256e-05 4.53382e-05 0.110135)
(4.51775e-05 4.13048e-05 0.110198)
(0.000125347 0.00011727 0.129556)
(-0.000127484 -3.3603e-05 0.120828)
(-3.43251e-05 -0.000128313 0.120606)
(-3.84366e-05 -3.76259e-05 0.110013)
(0.000139404 4.0278e-05 0.120934)
(3.93557e-05 0.000126622 0.120682)
(-8.21689e-06 -2.89596e-05 0.107017)
(-1.00199e-05 -0.000140882 0.116042)
(-6.4032e-06 -0.000150596 0.122354)
(0.000153926 6.13088e-08 0.12566)
(-3.9851e-05 -9.23716e-09 0.112211)
(-0.00014997 1.51228e-06 0.127478)
(4.0496e-05 -7.10435e-07 0.11483)
(4.25143e-05 5.36866e-07 0.112277)
(0.000145325 -1.30759e-06 0.127477)
(-0.000151834 1.67439e-07 0.125718)
(0.000154791 2.38661e-06 0.122048)
(-3.50949e-05 -4.11402e-06 0.106772)
(3.09215e-05 1.66504e-05 0.0977627)
(-0.000148753 -8.47443e-06 0.115846)
(4.1298e-05 5.62662e-06 0.106809)
(0.000152921 7.70342e-06 0.115857)
(-0.000156554 -4.60722e-06 0.12211)
(0.000149389 3.55829e-07 0.125622)
(-0.000147701 -1.19425e-06 0.127461)
(-4.01606e-05 2.17552e-06 0.112184)
(3.88783e-05 1.20196e-06 0.114814)
(0.000144118 3.45366e-07 0.12746)
(4.18385e-05 9.09025e-07 0.112253)
(-0.000152349 1.17894e-06 0.125676)
(0.000151912 -1.94022e-06 0.121996)
(-3.61283e-05 6.73801e-06 0.106765)
(3.18216e-05 -1.68631e-05 0.0977842)
(-0.000146174 8.16199e-06 0.115822)
(3.96419e-05 -3.56505e-06 0.106798)
(-0.00015375 5.30112e-06 0.122049)
(0.000148927 -7.0868e-06 0.115835)
(-0.000147351 4.94097e-07 0.125645)
(0.000146518 -1.132e-06 0.127466)
(4.12033e-05 1.64266e-06 0.112208)
(-3.91071e-05 1.01998e-06 0.114822)
(-0.000145121 4.45572e-07 0.127465)
(-3.97525e-05 1.56817e-06 0.112273)
(0.000152809 7.07764e-07 0.125699)
(-0.000152092 -2.27409e-06 0.122033)
(3.76509e-05 6.36862e-06 0.106793)
(-2.92808e-05 -1.57208e-05 0.0978007)
(0.000149305 9.90855e-06 0.115859)
(-0.000147979 -5.72129e-06 0.115871)
(-3.78979e-05 -3.03615e-06 0.106824)
(0.000155001 4.78996e-06 0.122086)
(4.49962e-05 -4.03766e-05 0.110105)
(0.000119368 -0.000114877 0.129475)
(-4.02839e-05 0.000126269 0.120763)
(-0.000127105 4.05241e-05 0.120836)
(0.000126788 -3.6859e-05 0.120751)
(4.24743e-05 -0.000123863 0.120697)
(-4.48744e-05 4.06166e-05 0.110151)
(2.93557e-06 -0.00015444 0.126364)
(-3.60433e-06 0.000150226 0.128253)
(-9.55952e-08 3.85881e-05 0.113057)
(8.15335e-07 -4.03535e-05 0.115695)
(1.80028e-06 -0.000149938 0.128275)
(-1.01166e-06 -4.24166e-05 0.113063)
(-5.17403e-06 0.000150886 0.126455)
(-3.73504e-06 -0.000150523 0.122606)
(7.91814e-06 3.76493e-05 0.107519)
(-2.26244e-05 -2.79204e-05 0.0982342)
(9.0352e-06 0.000147485 0.116335)
(-1.14894e-05 -0.000146253 0.116261)
(-8.52762e-06 -3.76441e-05 0.107423)
(1.10959e-06 0.000155374 0.122756)
(-1.32698e-05 -5.34585e-06 0.0405431)
(-1.00655e-05 -9.03067e-07 0.0273649)
(-6.79861e-06 8.57347e-07 0.0170111)
(-3.80565e-06 1.07649e-06 0.0089555)
(-1.24424e-06 3.84423e-07 0.00271792)
(-8.71707e-06 6.65095e-07 0.0405271)
(-4.34461e-06 9.13158e-07 0.0273505)
(-1.92161e-06 7.56434e-07 0.0170001)
(-6.35317e-07 4.61135e-07 0.00894859)
(-1.34234e-07 1.69507e-07 0.00271544)
(-5.38836e-06 1.84795e-06 0.0418884)
(-2.56386e-06 8.17679e-07 0.0284735)
(-1.027e-06 3.77107e-07 0.0178241)
(-2.82491e-07 1.83483e-07 0.00944615)
(-5.91872e-08 2.8375e-08 0.00288781)
(-1.48377e-05 -4.84242e-07 0.0418682)
(-1.1058e-05 1.92953e-06 0.0284625)
(-7.42678e-06 2.36928e-06 0.0178185)
(-4.1883e-06 1.70548e-06 0.00944427)
(-1.29999e-06 6.2895e-07 0.00288772)
(-6.38411e-06 1.12419e-08 0.0418407)
(-3.47842e-06 8.31257e-07 0.0284418)
(-1.70793e-06 8.29958e-07 0.0178044)
(-6.77486e-07 5.00101e-07 0.0094357)
(-1.80759e-07 2.49079e-07 0.00288461)
(5.16948e-06 3.89418e-07 0.0419079)
(3.00719e-06 1.08246e-06 0.0284866)
(1.69823e-06 8.27656e-07 0.0178319)
(1.03095e-06 3.09296e-07 0.00945032)
(9.67484e-08 1.97015e-07 0.00288924)
(-7.2171e-06 3.10611e-06 0.0405792)
(-3.11048e-06 2.25717e-06 0.0273851)
(-1.07305e-06 1.50822e-06 0.0170211)
(-2.05616e-07 8.7867e-07 0.00895932)
(4.17222e-08 2.15222e-07 0.00271847)
(8.26853e-06 9.757e-08 0.0405838)
(3.93607e-06 5.06525e-07 0.0273894)
(1.57523e-06 4.0708e-07 0.0170243)
(2.54178e-07 2.22334e-07 0.00896135)
(1.41794e-07 8.61665e-08 0.00271935)
(7.82049e-06 2.13198e-06 0.040555)
(3.51048e-06 1.40741e-06 0.0273687)
(1.41002e-06 8.6922e-07 0.0170114)
(4.82187e-07 4.73882e-07 0.0089548)
(1.63088e-08 1.3818e-07 0.0027174)
(-7.20195e-06 4.20321e-06 0.0418639)
(-4.5071e-06 1.37431e-06 0.0284579)
(-2.54892e-06 9.40118e-08 0.0178148)
(-1.15727e-06 -4.36464e-07 0.00944147)
(-3.63071e-07 -5.67587e-08 0.0028866)
(-4.75014e-06 7.77386e-06 0.0405292)
(-3.04708e-06 3.53274e-06 0.0273528)
(-1.75497e-06 1.40675e-06 0.0170014)
(-8.69134e-07 5.02931e-07 0.00894937)
(-2.57373e-07 -3.29087e-08 0.00271574)
(5.16413e-06 7.52758e-06 0.0405366)
(3.50711e-06 3.16181e-06 0.0273578)
(2.12359e-06 9.76842e-07 0.0170051)
(1.03464e-06 -5.25283e-08 0.00895141)
(3.56789e-07 -4.83981e-08 0.00271623)
(5.49838e-06 2.43956e-06 0.0418696)
(2.52274e-06 1.14835e-06 0.0284615)
(9.76979e-07 5.00703e-07 0.0178169)
(2.14877e-07 1.79756e-07 0.00944242)
(4.61741e-08 1.02948e-08 0.00288673)
(6.66643e-06 4.43596e-06 0.0418557)
(4.31184e-06 1.7148e-06 0.0284523)
(2.59691e-06 4.21632e-07 0.0178111)
(1.37465e-06 -5.34391e-08 0.00943942)
(3.68692e-07 -9.15061e-08 0.00288571)
(6.97617e-06 -1.29828e-06 0.040742)
(3.4901e-06 -1.25251e-06 0.0275816)
(1.57135e-06 -1.03209e-06 0.0171954)
(5.64701e-07 -6.76696e-07 0.00907708)
(1.30223e-07 -2.62844e-07 0.00276308)
(-6.71136e-06 2.1405e-06 0.0409684)
(-3.3012e-06 1.78292e-06 0.027778)
(-1.37879e-06 1.27999e-06 0.017348)
(-4.32249e-07 7.45258e-07 0.00917413)
(-4.69122e-08 2.56169e-07 0.00279831)
(6.40153e-06 4.81591e-07 0.0410035)
(3.10491e-06 3.17329e-07 0.0278016)
(1.3516e-06 1.68681e-07 0.0173632)
(4.71524e-07 5.76036e-08 0.00918254)
(7.35221e-08 2.10617e-08 0.00280112)
(-7.08115e-06 1.21594e-06 0.0407137)
(-3.5579e-06 1.09906e-06 0.0275628)
(-1.52981e-06 7.93362e-07 0.0171833)
(-5.06772e-07 4.56142e-07 0.00907032)
(-7.47904e-08 1.77438e-07 0.00276078)
(8.70142e-06 3.67709e-06 0.0405309)
(3.84415e-06 2.56073e-06 0.0273542)
(1.4103e-06 1.64186e-06 0.0170035)
(3.14311e-07 8.85314e-07 0.00895102)
(-1.31748e-08 3.01614e-07 0.00271642)
(7.60536e-06 -2.53547e-06 0.0419072)
(3.94491e-06 -9.38279e-07 0.0284872)
(1.82951e-06 -1.77718e-07 0.0178335)
(6.79658e-07 1.2101e-07 0.0094517)
(1.25327e-07 9.17749e-09 0.00288971)
(7.34199e-06 3.50961e-06 0.0407217)
(3.72323e-06 1.33614e-06 0.0274759)
(1.70683e-06 3.10665e-07 0.0170782)
(7.42644e-07 1.2649e-08 0.00899086)
(1.45548e-07 -1.00472e-07 0.0027289)
(-8.71622e-06 -2.53688e-06 0.0407249)
(-4.91901e-06 -5.37968e-07 0.0274796)
(-2.51251e-06 3.01073e-07 0.0170819)
(-1.13441e-06 4.33897e-07 0.00899346)
(-2.57675e-07 1.84175e-07 0.00272989)
(8.07395e-06 4.83055e-06 0.0406989)
(4.91658e-06 1.64649e-06 0.0274621)
(2.73095e-06 9.48848e-08 0.0170702)
(1.28861e-06 -4.39683e-07 0.00898686)
(3.32793e-07 -1.46928e-07 0.00272777)
(-6.89136e-06 -5.76583e-06 0.0406759)
(-3.52802e-06 -2.6116e-06 0.0274483)
(-1.52575e-06 -9.48479e-07 0.017063)
(-4.31824e-07 -1.80634e-07 0.0089837)
(-1.60268e-07 -1.61666e-09 0.002727)
(5.8842e-06 4.54423e-06 0.0418619)
(2.42255e-06 2.86502e-06 0.028457)
(7.3673e-07 1.72467e-06 0.0178148)
(8.0517e-08 8.96392e-07 0.00944162)
(-8.99246e-08 2.97661e-07 0.00288664)
(2.84781e-06 -2.29565e-07 0.0416785)
(2.44479e-06 1.10655e-06 0.0282964)
(1.91755e-06 1.30543e-06 0.0176917)
(1.33424e-06 8.09291e-07 0.00936497)
(3.93324e-07 4.53643e-07 0.00285945)
(5.67141e-06 8.2733e-07 0.0407557)
(3.44196e-06 1.74978e-06 0.0274993)
(1.90713e-06 1.58291e-06 0.0170932)
(8.32039e-07 1.05769e-06 0.00899902)
(2.96987e-07 3.23693e-07 0.00273155)
(7.99915e-06 3.86119e-06 0.0407733)
(4.16821e-06 3.24443e-06 0.0276024)
(1.99101e-06 2.36386e-06 0.0172083)
(8.37974e-07 1.37881e-06 0.00908407)
(1.46162e-07 5.22904e-07 0.00276511)
(-6.13824e-06 2.78764e-06 0.0409808)
(-2.93495e-06 2.13648e-06 0.0277861)
(-1.15193e-06 1.45348e-06 0.017353)
(-2.75485e-07 8.24988e-07 0.00917673)
(-5.09806e-08 2.37917e-07 0.00279908)
(6.42955e-06 3.30508e-06 0.0410158)
(3.17342e-06 2.72785e-06 0.0278095)
(1.38228e-06 1.93868e-06 0.0173679)
(4.65189e-07 1.09902e-06 0.00918498)
(9.73669e-08 4.08795e-07 0.00280182)
(-6.0812e-06 2.0773e-06 0.040744)
(-2.85472e-06 1.47096e-06 0.0275823)
(-1.11367e-06 9.47602e-07 0.017195)
(-3.44245e-07 5.11071e-07 0.00907651)
(-2.00281e-08 1.47525e-07 0.00276258)
(1.05773e-05 6.66633e-07 0.0405841)
(5.47013e-06 1.28742e-06 0.02739)
(2.62253e-06 1.23613e-06 0.0170256)
(1.08389e-06 8.45955e-07 0.00896243)
(1.93836e-07 2.63051e-07 0.00271967)
(6.39393e-06 3.50072e-06 0.0409905)
(3.19446e-06 2.85642e-06 0.0277919)
(1.49194e-06 2.06089e-06 0.0173566)
(7.59901e-07 1.25575e-06 0.00917865)
(2.4217e-08 3.53881e-07 0.00279934)
(7.03514e-06 4.06666e-06 0.0407464)
(3.55813e-06 3.36529e-06 0.0275844)
(1.51731e-06 2.39126e-06 0.0171966)
(3.47976e-07 1.44034e-06 0.00907718)
(1.53287e-07 4.16131e-07 0.00276263)
(5.82089e-06 2.13836e-06 0.0409856)
(2.68685e-06 1.61946e-06 0.0277892)
(1.0152e-06 1.08351e-06 0.0173549)
(1.98393e-07 6.04535e-07 0.00917768)
(4.03432e-08 1.54449e-07 0.00279914)
(6.29502e-06 1.17273e-06 0.0407339)
(2.94435e-06 8.88532e-07 0.0275754)
(1.17586e-06 6.37719e-07 0.0171906)
(4.31689e-07 4.10126e-07 0.00907399)
(9.99553e-09 7.51349e-08 0.00276171)
(-1.1232e-05 1.11135e-06 0.0416772)
(-7.01154e-06 -9.89584e-07 0.0282925)
(-4.22009e-06 -1.67649e-06 0.0176882)
(-2.17444e-06 -1.44822e-06 0.00936296)
(-7.03698e-07 -5.05963e-07 0.00285874)
(-1.05734e-05 6.27709e-06 0.0407317)
(-6.24158e-06 2.2803e-06 0.0274801)
(-3.36618e-06 3.45857e-07 0.0170803)
(-1.65781e-06 -1.93966e-07 0.00899228)
(-3.53535e-07 -1.65476e-07 0.00272952)
(5.97664e-06 -6.87342e-06 0.0406971)
(2.89354e-06 -3.49907e-06 0.0274624)
(1.19857e-06 -1.58809e-06 0.0170719)
(4.53366e-07 -7.1239e-07 0.00898873)
(3.05359e-08 -7.53552e-08 0.00272872)
(6.41753e-06 -5.03677e-06 0.0418448)
(3.74321e-06 -2.09929e-06 0.0284463)
(2.00595e-06 -6.41533e-07 0.0178084)
(8.97052e-07 -6.8277e-09 0.00943856)
(2.77504e-07 2.60529e-08 0.00288588)
(-1.99093e-07 -7.16012e-06 0.040661)
(-8.12395e-07 -3.72706e-06 0.0275285)
(-9.77426e-07 -1.84593e-06 0.0171632)
(-7.21995e-07 -9.58512e-07 0.00906033)
(-3.38242e-07 -1.08377e-07 0.00275786)
(7.45494e-07 4.33097e-06 0.0409196)
(5.79026e-07 1.94996e-06 0.027748)
(4.35998e-07 6.49973e-07 0.0173303)
(2.80328e-07 -4.83342e-08 0.00916496)
(1.05415e-07 8.68519e-08 0.00279559)
(-4.70881e-07 -5.06835e-06 0.0409163)
(-7.5781e-07 -2.39951e-06 0.0277431)
(-7.80878e-07 -9.91834e-07 0.0173269)
(-5.62252e-07 -2.62526e-07 0.00916332)
(-2.07259e-07 -9.49544e-08 0.00279514)
(1.11749e-06 5.51738e-06 0.0406819)
(1.07091e-06 2.69087e-06 0.0275424)
(9.02607e-07 1.19213e-06 0.0171708)
(5.7435e-07 5.41537e-07 0.00906386)
(2.48967e-07 7.41136e-08 0.00275881)
(6.17158e-06 -7.86728e-06 0.0404851)
(4.23153e-06 -3.3087e-06 0.0273262)
(2.67155e-06 -1.14091e-06 0.016987)
(1.47648e-06 -2.97385e-07 0.00894254)
(4.20506e-07 8.15951e-08 0.00271388)
(6.27917e-07 -6.6047e-06 0.0406613)
(9.95393e-07 -3.2146e-06 0.0275284)
(9.905e-07 -1.34823e-06 0.0171632)
(7.04851e-07 -3.17072e-07 0.00906029)
(3.106e-07 -1.37866e-07 0.00275778)
(8.35758e-07 3.95002e-06 0.0409204)
(4.88311e-07 1.88086e-06 0.027748)
(1.75303e-07 8.27993e-07 0.0173304)
(-5.77954e-09 4.66759e-07 0.00916517)
(3.9573e-08 2.32384e-08 0.00279554)
(1.60621e-06 -5.42932e-06 0.0409184)
(1.35752e-06 -2.58568e-06 0.0277451)
(9.79981e-07 -1.10489e-06 0.0173289)
(5.61568e-07 -4.13314e-07 0.00916458)
(2.39272e-07 -6.70632e-08 0.00279543)
(-4.02287e-08 5.59302e-06 0.0406816)
(-2.9608e-07 2.80878e-06 0.0275435)
(-5.01643e-07 1.21674e-06 0.0171723)
(-5.22921e-07 3.63821e-07 0.00906481)
(-1.0586e-07 1.03216e-07 0.00275908)
(-4.81717e-06 -7.83249e-06 0.0404896)
(-3.02613e-06 -3.38693e-06 0.0273283)
(-1.72805e-06 -1.17542e-06 0.0169882)
(-8.14564e-07 -1.53778e-07 0.00894309)
(-2.74347e-07 -3.05695e-09 0.00271395)
(-6.18699e-06 -4.90698e-06 0.0418345)
(-3.5858e-06 -2.03101e-06 0.0284396)
(-1.90405e-06 -6.5315e-07 0.0178042)
(-8.52946e-07 -1.24084e-07 0.00943611)
(-2.81366e-07 5.78764e-08 0.00288498)
(5.23468e-06 4.09445e-06 0.0416663)
(2.61075e-06 1.80404e-06 0.0282867)
(1.08413e-06 6.14728e-07 0.017685)
(3.12951e-07 5.47656e-08 0.00936117)
(2.7116e-08 3.27981e-08 0.00285809)
(8.67741e-06 1.76957e-06 0.0416632)
(5.51041e-06 -1.32841e-07 0.0282844)
(3.31041e-06 -8.58025e-07 0.0176837)
(1.76645e-06 -8.18027e-07 0.00936045)
(4.87742e-07 -3.08611e-07 0.00285783)
(-8.03914e-06 -9.42777e-06 0.0418719)
(-6.38216e-06 -3.85102e-06 0.0284677)
(-4.30332e-06 -1.09684e-06 0.0178229)
(-2.37109e-06 -7.21277e-08 0.00944656)
(-7.46861e-07 1.07421e-07 0.00288829)
(9.92878e-06 -7.76804e-07 0.0418782)
(5.11413e-06 -9.06873e-07 0.0284689)
(2.30807e-06 -8.80222e-07 0.0178225)
(8.64671e-07 -6.23834e-07 0.00944585)
(1.51646e-07 -2.61074e-07 0.00288801)
(-8.19614e-06 2.12755e-06 0.0418618)
(-4.23877e-06 1.95668e-06 0.0284567)
(-1.93809e-06 1.50951e-06 0.0178138)
(-7.40142e-07 9.21839e-07 0.00944065)
(-1.46097e-07 3.48411e-07 0.00288615)
(-5.6524e-06 1.09946e-06 0.0416641)
(-3.27579e-06 -1.14981e-07 0.028285)
(-1.80413e-06 -5.91324e-07 0.0176839)
(-9.36314e-07 -5.26236e-07 0.0093606)
(-2.30694e-07 -2.09747e-07 0.00285794)
(-5.92552e-06 6.16755e-07 0.0407068)
(-3.18431e-06 -3.36421e-07 0.0274687)
(-1.56202e-06 -5.48442e-07 0.0170747)
(-6.68468e-07 -4.02869e-07 0.00898946)
(-1.57818e-07 -1.82163e-07 0.00272862)
(7.23486e-06 -4.44899e-06 0.0407256)
(3.67521e-06 -1.9701e-06 0.0274799)
(1.60173e-06 -6.62164e-07 0.0170822)
(5.34285e-07 -1.04313e-07 0.00899388)
(1.31634e-07 2.36911e-08 0.00273006)
(-6.1416e-06 -4.46311e-06 0.041676)
(-3.23032e-06 -2.13226e-06 0.0282945)
(-1.40858e-06 -8.54211e-07 0.017691)
(-4.3776e-07 -2.19574e-07 0.009365)
(-7.83516e-08 -3.96937e-08 0.00285942)
(-8.48949e-06 -2.58134e-06 0.0416639)
(-4.87298e-06 -7.65395e-07 0.0282863)
(-2.58757e-06 8.91611e-08 0.0176859)
(-1.16462e-06 3.07938e-07 0.00936219)
(-3.46238e-07 1.74899e-07 0.00285859)
(-9.71879e-06 2.99854e-06 0.0416354)
(-6.83508e-06 3.40886e-06 0.0282676)
(-4.50112e-06 2.94009e-06 0.0176741)
(-2.57087e-06 1.86969e-06 0.00935566)
(-7.99174e-07 6.69868e-07 0.0028563)
(-1.23097e-05 4.75011e-07 0.0407046)
(-9.14277e-06 2.42923e-06 0.0274665)
(-6.05209e-06 2.72651e-06 0.0170737)
(-3.37463e-06 1.92445e-06 0.00898933)
(-1.06458e-06 6.70265e-07 0.00272868)
(2.73527e-06 6.5544e-06 0.0407054)
(-3.21903e-07 4.1526e-06 0.027464)
(-1.39534e-06 2.61894e-06 0.0170718)
(-1.28182e-06 1.41532e-06 0.00898837)
(-5.0592e-07 4.6499e-07 0.00272847)
(-3.93085e-06 -1.23724e-06 0.0416331)
(-2.58113e-06 3.00177e-07 0.0282658)
(-1.44754e-06 6.246e-07 0.0176731)
(-6.84786e-07 4.47661e-07 0.0093552)
(-1.85257e-07 1.8106e-07 0.00285621)
(-7.38982e-06 -1.24155e-06 0.0406773)
(-4.19794e-06 4.73252e-07 0.0274481)
(-2.12232e-06 8.58828e-07 0.0170623)
(-9.25234e-07 6.05643e-07 0.0089829)
(-2.58142e-07 3.00059e-07 0.00272649)
(6.37655e-06 4.55109e-06 0.0406873)
(2.99749e-06 2.42487e-06 0.0274549)
(1.1429e-06 1.19595e-06 0.0170671)
(3.31054e-07 4.9582e-07 0.0089859)
(-1.1515e-08 1.55078e-07 0.00272756)
(6.11467e-06 2.53464e-06 0.0416617)
(2.81476e-06 1.56184e-06 0.0282829)
(1.00556e-06 8.51373e-07 0.0176835)
(2.28001e-07 3.90581e-07 0.00936075)
(-2.44101e-08 1.08501e-07 0.00285797)
(3.3766e-06 5.17267e-06 0.0416657)
(1.20644e-06 3.17038e-06 0.0282853)
(5.57778e-08 1.87872e-06 0.0176851)
(-2.90462e-07 9.6128e-07 0.00936181)
(-1.78885e-07 3.16298e-07 0.00285833)
(1.04782e-05 4.3774e-06 0.0419284)
(5.66771e-06 3.91762e-06 0.0285029)
(2.76109e-06 3.02796e-06 0.0178435)
(1.14077e-06 1.87945e-06 0.00945682)
(2.66559e-07 6.53879e-07 0.00289114)
(-7.37487e-06 1.44111e-06 0.0419093)
(-3.53539e-06 9.02615e-07 0.028489)
(-1.43579e-06 4.76352e-07 0.0178339)
(-4.34205e-07 1.88828e-07 0.00945112)
(-4.74463e-08 3.35288e-08 0.00288912)
(8.54357e-06 3.74341e-06 0.0419055)
(4.66502e-06 3.27845e-06 0.0284863)
(2.30768e-06 2.41992e-06 0.0178322)
(9.96409e-07 1.43259e-06 0.00945029)
(1.95263e-07 5.0558e-07 0.00288898)
(7.43655e-06 3.25633e-07 0.0418836)
(3.56657e-06 1.26567e-07 0.0284715)
(1.46317e-06 -2.95584e-08 0.017823)
(4.51834e-07 -9.88625e-08 0.00944566)
(6.29532e-08 -3.7297e-08 0.00288767)
(4.00365e-06 -6.59851e-06 0.0416856)
(1.62071e-06 -3.7719e-06 0.0282994)
(3.95103e-07 -1.97231e-06 0.0176935)
(-5.37748e-08 -8.96569e-07 0.00936621)
(-7.51984e-08 -2.08913e-07 0.00285983)
(6.92511e-06 -4.61828e-06 0.0416674)
(3.63713e-06 -2.24979e-06 0.0282891)
(1.70692e-06 -8.30228e-07 0.0176878)
(6.31153e-07 -1.92312e-07 0.00936351)
(2.13081e-07 5.6514e-08 0.00285915)
(2.34988e-06 -9.53572e-06 0.0418112)
(1.2667e-06 -4.77024e-06 0.0284241)
(4.59436e-07 -2.04126e-06 0.0177949)
(4.54328e-08 -6.0229e-07 0.00943156)
(-4.46204e-08 -1.52775e-07 0.00288359)
(1.85467e-07 8.10936e-06 0.0418582)
(6.06115e-07 4.13978e-06 0.0284545)
(8.04842e-07 1.86559e-06 0.0178126)
(6.75358e-07 6.92944e-07 0.00944014)
(2.31173e-07 1.53716e-07 0.00288609)
(-1.33198e-06 -8.95372e-06 0.041821)
(-3.72258e-07 -4.54674e-06 0.0284316)
(1.6922e-07 -2.07066e-06 0.0177999)
(2.57187e-07 -8.29834e-07 0.00943404)
(1.97754e-07 -1.4334e-07 0.00288435)
(7.54574e-07 8.06062e-06 0.0418637)
(2.38595e-07 4.0933e-06 0.0284588)
(-1.6151e-07 1.83192e-06 0.0178156)
(-2.78353e-07 6.85355e-07 0.00944187)
(-1.23806e-07 1.2388e-07 0.00288648)
(3.37601e-06 7.03129e-06 0.059437)
(1.11787e-05 5.99313e-06 0.0594041)
(0.000122713 0.000132081 0.129507)
(1.96149e-05 1.0857e-05 0.0827077)
(1.00863e-05 1.4017e-05 0.0825538)
(3.17895e-05 -3.73734e-07 0.0949669)
(2.52194e-05 4.79327e-06 0.0694151)
(3.5923e-05 -7.40435e-07 0.114756)
(4.56233e-06 -1.4592e-06 0.135376)
(2.78685e-05 1.61809e-05 0.0977099)
(2.06917e-06 3.44035e-07 0.140358)
(3.30018e-05 3.89093e-06 0.0949691)
(2.52054e-05 -1.34115e-06 0.0695008)
(3.59763e-05 2.50852e-06 0.11474)
(3.51114e-06 1.51247e-08 0.135398)
(1.10289e-06 1.01154e-07 0.140366)
(2.76677e-05 -1.36086e-05 0.0977327)
(3.86587e-08 1.73579e-06 0.135426)
(-2.52407e-05 -1.32835e-05 0.0977486)
(-2.48019e-05 -9.42085e-07 0.0694617)
(1.20812e-05 -3.35944e-06 0.0594722)
(0.000125645 -0.000125585 0.129375)
(1.04926e-05 -9.04781e-06 0.08261)
(2.25101e-05 -6.57986e-06 0.0829048)
(1.05906e-05 -8.20029e-06 0.0595551)
(-1.39633e-06 -3.77402e-05 0.115688)
(1.67139e-06 7.8069e-07 0.135637)
(2.90977e-07 -3.25918e-06 0.140545)
(2.38466e-05 -2.68281e-05 0.0982102)
(1.07626e-06 -3.85581e-05 0.115687)
(-3.50703e-06 -1.58729e-06 0.135654)
(-3.18788e-06 -3.56925e-06 0.140549)
(-2.26782e-05 -2.63567e-05 0.0981999)
(7.44988e-07 -3.32615e-05 0.0958202)
(9.20532e-06 -2.51915e-05 0.0697156)
(2.31089e-06 -3.25471e-05 0.0958264)
(-8.96124e-06 -2.53684e-05 0.069728)
(-0.000123576 -0.000125305 0.129397)
(-9.30036e-06 -1.13905e-05 0.0826347)
(-2.08162e-05 -7.78674e-06 0.0828557)
(-1.08557e-05 -2.94118e-06 0.0594451)
(-1.03321e-05 -9.97261e-06 0.0595395)
(6.29779e-06 2.49019e-06 0.0581583)
(4.77476e-06 7.37432e-06 0.0581169)
(1.15973e-05 8.43132e-06 0.0751748)
(6.53298e-06 1.01191e-05 0.0688754)
(2.20347e-05 4.57093e-05 0.107117)
(1.63577e-05 4.03529e-05 0.0945042)
(1.02933e-05 7.68236e-06 0.0686708)
(4.47516e-05 1.25573e-05 0.106922)
(4.16901e-05 8.64384e-06 0.0943002)
(-2.69436e-06 4.04554e-06 0.0637641)
(3.3341e-05 -2.0604e-06 0.0915072)
(8.61469e-06 7.38796e-07 0.066055)
(-2.5137e-05 2.52738e-06 0.0949367)
(1.11909e-05 -1.95449e-06 0.0637933)
(-2.43078e-05 3.0871e-06 0.091502)
(-1.87155e-06 3.11627e-06 0.0660157)
(-3.21279e-06 4.53734e-06 0.0576148)
(2.92991e-05 1.47901e-06 0.0807217)
(-1.73797e-05 5.06347e-06 0.0694354)
(1.35902e-05 -1.50305e-06 0.0576639)
(-1.93981e-05 2.7026e-06 0.0807349)
(-2.53111e-06 1.25434e-07 0.0638115)
(9.00387e-06 4.16912e-06 0.0660748)
(3.27977e-05 5.56671e-06 0.0915323)
(-2.44976e-05 1.88521e-06 0.0949357)
(1.10246e-05 5.51049e-06 0.0638432)
(-1.29124e-06 1.88328e-06 0.0660356)
(-2.45878e-05 3.58265e-07 0.0915232)
(-2.23237e-06 -4.06899e-07 0.0576751)
(2.90761e-05 3.39697e-06 0.0807831)
(-1.66361e-05 -1.70837e-06 0.0695209)
(1.42207e-05 5.61338e-06 0.0577253)
(-1.74444e-05 1.38773e-06 0.0807953)
(3.07912e-06 -2.59484e-07 0.0576451)
(-2.82454e-05 2.07537e-06 0.0807549)
(1.68505e-05 -1.83713e-07 0.0694822)
(-1.30374e-05 4.75386e-06 0.0576955)
(1.84899e-05 1.70456e-06 0.0807664)
(-5.22668e-06 -1.18579e-06 0.0594266)
(-1.18706e-05 6.17718e-06 0.0751603)
(6.24659e-06 -1.07671e-05 0.0581611)
(8.26763e-06 -6.32055e-06 0.0581529)
(1.23766e-05 -9.89407e-06 0.0751371)
(-4.20904e-06 2.11786e-06 0.0580963)
(-7.98508e-06 -2.55883e-06 0.0581535)
(-3.79998e-05 2.42052e-06 0.0943167)
(1.26329e-05 -9.99299e-06 0.0687668)
(4.59295e-05 -7.92354e-06 0.106952)
(-6.01943e-06 8.23085e-06 0.0826149)
(-4.01154e-05 8.24974e-06 0.107008)
(4.47694e-05 -1.13647e-05 0.0942562)
(-8.91679e-06 -1.30365e-08 0.06874)
(-1.54547e-05 3.94208e-05 0.0945654)
(9.38663e-06 -7.67094e-06 0.0688841)
(2.15757e-05 -4.19106e-05 0.107233)
(-1.86884e-05 3.15961e-06 0.0829661)
(1.02487e-05 -3.86753e-05 0.0944829)