/*--------------------------------*- C++ -*----------------------------------*\
| =========                 |                                                 |
| \\      /  F ield         | OpenFOAM: The Open Source CFD Toolbox           |
|  \\    /   O peration     | Version:  2206                                  |
|   \\  /    A nd           | Website:  www.openfoam.com                      |
|    \\/     M anipulation  |                                                 |
\*---------------------------------------------------------------------------*/
FoamFile
{
    version     2.0;
    format      ascii;
    arch        "LSB;label=32;scalar=64";
    class       volVectorField;
    location    "120";
    object      wallShearStress;
}
// * * * * * * * * * * * * * * * * * * * * * * * * * * * * * * * * * * * * * //

dimensions      [0 2 -2 0 0 0 0];

internalField   uniform (0 0 0);

boundaryField
{
    topPatch
    {
        type            calculated;
        value           nonuniform List<vector> 0();
    }
    wall
    {
        type            calculated;
        value           nonuniform List<vector> 
7709
(
(4.87291e-08 -1.23458e-08 -0.000103843)
(7.14477e-09 -5.74967e-09 -0.000103758)
(3.9745e-09 -2.01868e-09 -0.000110386)
(5.0808e-08 -2.25842e-08 -0.000110369)
(8.37029e-09 -8.78378e-09 -0.000110273)
(-4.29712e-09 -7.23246e-09 -0.000110432)
(9.43289e-11 -8.87969e-09 -0.000103879)
(-7.92567e-09 -2.32597e-09 -0.000103898)
(-2.65223e-09 -6.07556e-09 -0.000103819)
(1.51663e-08 -9.14559e-11 -0.000110335)
(1.05056e-08 -5.02819e-10 -0.000103766)
(-1.44309e-08 -1.30526e-10 -0.000103788)
(-3.34499e-09 -1.24283e-09 -0.000110345)
(-1.51619e-08 1.69829e-09 -0.000110315)
(-6.89012e-09 9.78818e-09 -0.000105555)
(3.63061e-09 -9.71939e-09 -0.00010689)
(-4.37251e-09 -8.84334e-10 -0.000106997)
(4.82312e-09 -6.56484e-09 -0.000105468)
(-1.91333e-09 -1.24944e-08 -0.000103795)
(-7.03889e-09 8.00121e-10 -0.000110459)
(-7.29933e-09 2.63026e-09 -0.000104269)
(1.17706e-08 -5.7411e-09 -0.000104307)
(-1.39747e-08 3.9726e-09 -0.000104226)
(7.2605e-09 1.60747e-09 -0.000104196)
(1.8357e-09 -1.23095e-08 -0.000110351)
(-1.50627e-08 -1.75629e-08 -0.000109308)
(-1.21898e-08 -1.18883e-08 -0.000104362)
(-7.37986e-09 -1.98255e-08 -0.000105631)
(4.08768e-09 -9.23154e-09 -0.000106918)
(-5.41406e-09 -1.5577e-08 -0.000107023)
(2.57242e-09 -5.94372e-09 -0.000105534)
(-9.71535e-09 -9.24356e-09 -0.000103925)
(-2.27635e-09 -1.35547e-08 -0.000106939)
(-8.30548e-09 -1.56817e-08 -0.000105548)
(-3.40331e-09 -6.02552e-09 -0.000106931)
(-1.94651e-09 -3.11805e-09 -0.000105511)
(2.86127e-08 1.74965e-08 -0.000109281)
(1.51558e-08 4.21907e-09 -0.000104276)
(-2.31688e-09 4.44127e-09 -0.000104246)
(-1.16132e-08 7.86714e-10 -0.000110307)
(1.28107e-08 5.34568e-09 -0.000105364)
(-4.00489e-09 -4.5206e-09 -0.000106795)
(7.87528e-09 4.68789e-09 -0.000106778)
(-9.43139e-09 -3.5963e-09 -0.0001054)
(-1.68061e-08 -1.35627e-09 -0.000103695)
(-1.17323e-08 6.71257e-09 -0.000105363)
(-1.52656e-09 -1.34204e-09 -0.000106794)
(-9.12312e-09 3.27723e-09 -0.00010679)
(3.90295e-09 -5.39844e-09 -0.000105413)
(1.12948e-08 2.15259e-09 -0.000103701)
(1.15971e-08 -7.53088e-10 -0.000110288)
(-2.38555e-09 -2.30505e-09 -0.000109262)
(-2.00995e-08 1.01955e-08 -0.000109254)
(2.94112e-08 -1.44998e-09 -0.000110378)
(-8.25179e-09 9.3175e-09 -0.00011037)
(7.63331e-09 -1.28113e-08 -0.000110298)
(9.77874e-09 7.38897e-09 -0.000109257)
(6.82169e-09 6.4176e-09 -0.00010425)
(-6.79352e-09 3.62881e-10 -0.000104306)
(4.56173e-09 2.80063e-09 -0.000109313)
(1.45603e-08 -5.18736e-09 -0.000109283)
(3.10247e-08 -2.53429e-08 -0.000109201)
(4.17919e-08 -2.44984e-08 -0.000104252)
(1.84835e-08 -1.91453e-08 -0.000104244)
(7.79543e-09 -6.46978e-09 -0.000109192)
(1.12008e-08 -1.05839e-08 -0.000104177)
(-1.0855e-09 -7.05207e-09 -0.000104218)
(-6.23883e-11 -5.42394e-09 -0.000109265)
(5.56712e-09 -1.3236e-08 -0.000109273)
(-1.26588e-08 -2.44197e-08 -0.000110495)
(3.89522e-09 -1.88593e-09 -0.000110418)
(-9.52299e-09 -1.88298e-08 -0.000110406)
(-4.47507e-09 8.82357e-10 -0.000110352)
(1.379e-09 9.24378e-09 -0.000109329)
(-9.60866e-09 -4.28709e-10 -0.000109297)
(9.44378e-10 8.67081e-09 -0.000110199)
(-8.30446e-09 -7.91053e-09 -0.000110294)
(-7.03869e-09 7.45936e-09 -0.00011023)
(4.188e-09 -6.64626e-09 -0.000110311)
(-5.22162e-09 1.85689e-10 -0.000110377)
(1.13894e-09 -8.33468e-09 -0.000110424)
(-2.44609e-09 -7.83354e-09 -0.000103873)
(-7.23397e-09 -5.03772e-09 -0.000104003)
(8.17415e-09 -1.04491e-08 -0.000103949)
(-6.37041e-09 -6.59564e-09 -0.000110542)
(-2.61469e-08 -8.88639e-09 -0.000110365)
(-2.13672e-08 -3.5663e-09 -0.000103737)
(1.70238e-08 1.28761e-09 -0.000103745)
(5.28748e-09 -6.16358e-09 -0.000110504)
(1.85495e-08 -5.00999e-09 -0.000110341)
(-1.6121e-09 -1.33074e-08 -0.00010538)
(-2.227e-09 -4.89589e-10 -0.000107079)
(-5.03845e-09 1.10374e-08 -0.000105641)
(-4.34427e-09 -9.98304e-09 -0.000106795)
(1.62505e-09 -2.16105e-08 -0.000110225)
(3.14123e-09 -1.66645e-08 -0.00010368)
(-4.98414e-09 1.09255e-09 -0.000105452)
(-3.00375e-09 -1.33455e-08 -0.000107108)
(-5.29299e-09 -2.19972e-08 -0.000105717)
(-4.92864e-09 -5.43616e-09 -0.000106824)
(1.49375e-10 8.64886e-09 -0.000103808)
(1.25755e-09 1.20456e-09 -0.000110289)
(3.98332e-09 -3.42093e-09 -0.000103753)
(5.52757e-09 1.56575e-08 -0.000110328)
(-6.48363e-09 -2.14645e-09 -0.000109386)
(-1.47553e-08 -6.63497e-09 -0.000104337)
(1.5424e-08 1.46927e-08 -0.000104232)
(2.14169e-08 1.25992e-08 -0.00011029)
(1.75385e-09 -4.67509e-10 -0.000105394)
(2.81677e-09 3.13363e-09 -0.000106797)
(6.74681e-09 4.02833e-09 -0.000105388)
(-1.52156e-09 -2.67859e-09 -0.000106798)
(2.10769e-08 7.22144e-09 -0.000103725)
(-1.01957e-08 6.09281e-10 -0.000105397)
(-1.3213e-08 2.45324e-09 -0.000106807)
(-1.33847e-08 6.56417e-09 -0.000105392)
(-1.14295e-08 -1.09609e-09 -0.000106801)
(-5.87438e-09 2.8554e-10 -0.000110274)
(-2.04593e-08 7.42473e-09 -0.000103734)
(-2.51788e-09 7.74125e-09 -0.000109215)
(-1.55439e-08 1.65958e-08 -0.000109206)
(9.5013e-09 -7.14049e-09 -0.000104385)
(-7.23877e-09 1.4099e-08 -0.000104214)
(1.64603e-08 -5.73607e-09 -0.00010426)
(-1.25264e-08 9.76849e-09 -0.000104171)
(2.83764e-10 6.86943e-09 -0.000110289)
(-1.93053e-08 1.21277e-08 -0.000110263)
(7.45546e-09 1.31006e-08 -0.000109387)
(4.90527e-09 -2.40968e-09 -0.000109394)
(1.92486e-08 -1.34053e-08 -0.000109356)
(-4.78095e-09 1.98914e-09 -0.000109313)
(1.72738e-09 -4.75864e-09 -0.000104309)
(2.06047e-09 -6.2405e-09 -0.000109324)
(-3.76894e-09 -1.51446e-09 -0.000104281)
(-6.90002e-09 1.19222e-08 -0.000110459)
(-7.49941e-10 1.00069e-08 -0.000110342)
(-1.03284e-08 -2.6417e-08 -0.00011058)
(1.04449e-08 -2.67063e-08 -0.000110517)
(-8.42793e-09 -4.33383e-09 -0.000104354)
(1.44345e-08 1.97023e-08 -0.000104192)
(2.06982e-09 3.08862e-09 -0.000109218)
(1.0788e-08 1.29638e-08 -0.000109227)
(7.45483e-09 -1.76244e-09 -0.000110265)
(-3.33159e-09 4.68751e-09 -0.00011024)
(-5.05328e-10 6.19871e-09 -0.000110265)
(-1.69339e-08 3.31962e-09 -0.000103698)
(1.29265e-08 -2.51702e-10 -0.000103762)
(2.23702e-08 1.0877e-08 -0.000110349)
(-9.52283e-09 -1.20736e-09 -0.00011036)
(1.60309e-09 -7.1743e-09 -0.000103844)
(5.36918e-09 -3.42996e-09 -0.000103784)
(-7.8182e-09 -5.09504e-09 -0.000103653)
(2.65755e-08 -1.32858e-09 -0.000103809)
(2.03342e-08 4.45423e-09 -0.00011031)
(-2.99787e-08 -6.53807e-09 -0.000110403)
(-7.57895e-09 2.43599e-10 -0.00010378)
(2.42344e-09 9.27345e-09 -0.000103836)
(2.70382e-09 1.03183e-08 -0.000110493)
(5.63103e-10 -3.31545e-09 -0.000110505)
(-1.83132e-08 7.69998e-09 -0.000110283)
(1.30506e-08 -4.06005e-09 -0.000110297)
(1.13066e-09 -3.59744e-09 -0.000110396)
(1.02236e-09 1.64861e-09 -0.000110317)
(2.12931e-08 -8.80283e-09 -0.000110314)
(-1.68352e-08 4.971e-09 -0.000110254)
(-1.23131e-09 5.24095e-09 -0.000110328)
(-1.19459e-09 -2.5663e-09 -0.000110364)
(2.14422e-08 5.34662e-09 -0.000103763)
(-9.47421e-09 1.73343e-09 -0.000103834)
(1.78321e-08 -2.45491e-09 -0.000103778)
(-1.62737e-08 1.93517e-10 -0.000103667)
(-1.56426e-08 -2.04745e-09 -0.000103858)
(2.15097e-08 1.66383e-09 -0.000103744)
(-1.60719e-10 2.50055e-09 -0.000110528)
(3.01875e-10 2.97005e-09 -0.000110447)
(-2.13512e-08 -8.36072e-09 -0.000110386)
(2.68933e-08 1.06348e-08 -0.000110325)
(-6.54081e-10 1.90596e-09 -0.000110475)
(1.44802e-09 -2.0116e-09 -0.000110497)
(-9.14231e-10 1.60776e-10 -0.000103981)
(1.58591e-09 -9.35909e-10 -0.000103904)
(5.67578e-11 5.41961e-09 -0.000103798)
(4.20635e-10 -9.29374e-09 -0.000103813)
(1.39357e-09 -3.63261e-09 -0.00010393)
(-2.52495e-09 6.17699e-09 -0.000103932)
(3.31334e-10 1.40036e-09 -0.000103967)
(4.92276e-11 5.90241e-09 -0.000103903)
(8.32145e-10 -4.23552e-09 -0.000103884)
(-1.91455e-10 -7.02343e-09 -0.000103821)
(-2.66147e-10 2.11581e-09 -0.000103929)
(3.14948e-09 -8.27527e-10 -0.000103934)
(-3.30114e-10 -4.06737e-09 -0.000103832)
(5.75148e-09 -4.7029e-09 -0.000103847)
(-1.49218e-08 3.76708e-09 -0.000110243)
(3.24693e-08 -1.27183e-08 -0.000110345)
(-1.69673e-09 -6.02355e-09 -0.000110323)
(-1.36936e-09 9.72854e-09 -0.00011036)
(1.17727e-08 -2.18141e-09 -0.000103728)
(-2.20228e-08 -1.53119e-09 -0.000103871)
(8.32126e-10 -5.76726e-09 -0.000110476)
(-5.01099e-10 7.64612e-09 -0.000110502)
(-2.00714e-09 9.93661e-09 -0.000103914)
(9.35244e-09 1.82273e-09 -0.000103966)
(3.28859e-09 -8.38497e-09 -0.00010391)
(-6.20683e-09 2.20553e-09 -0.00010396)
(1.55612e-09 1.34115e-08 -0.000103814)
(-7.86146e-09 -3.47274e-10 -0.00010385)
(-2.16674e-08 -5.88587e-09 -0.000110346)
(2.68161e-08 6.96624e-09 -0.000110444)
(-1.50157e-08 -2.24062e-09 -0.00011035)
(-2.13105e-08 -1.0326e-09 -0.000103725)
(2.30227e-08 1.65832e-09 -0.000103874)
(9.58629e-09 5.35301e-09 -0.00010369)
(-3.29241e-08 3.84178e-09 -0.000103851)
(-3.45699e-09 4.96175e-09 -0.000103719)
(-6.29837e-09 9.39205e-09 -0.00010369)
(-4.57986e-09 1.59261e-08 -0.000110376)
(-7.01607e-09 2.95976e-09 -0.000110394)
(1.90242e-08 -5.17884e-09 -0.000110262)
(-3.81546e-08 1.41744e-08 -0.000110354)
(1.33943e-09 2.99236e-09 -0.000110273)
(3.38505e-09 -4.58729e-09 -0.00010536)
(3.35619e-10 3.57324e-09 -0.000106847)
(3.36074e-09 -4.28787e-09 -0.000106774)
(-6.479e-09 5.20683e-09 -0.000105437)
(1.40863e-08 1.51789e-09 -0.000103773)
(-1.68561e-08 2.11057e-09 -0.000103678)
(-1.07921e-08 -1.02027e-09 -0.000110368)
(2.41587e-08 1.05356e-08 -0.000110328)
(-1.36103e-09 7.15977e-09 -0.000105567)
(5.28653e-10 -3.97199e-09 -0.000106901)
(-2.28158e-10 3.55817e-09 -0.000107015)
(3.08436e-09 -1.61922e-08 -0.000105472)
(8.96148e-09 -2.10703e-08 -0.000110326)
(6.60915e-09 -4.99451e-09 -0.000103784)
(-2.21468e-09 1.32703e-09 -0.000110379)
(2.06744e-09 -9.41114e-09 -0.000103826)
(1.66658e-08 -6.88219e-09 -0.000105339)
(2.69459e-09 7.01855e-09 -0.000106857)
(2.90326e-09 -2.57176e-09 -0.000106756)
(7.50438e-09 5.9093e-09 -0.000105446)
(4.12482e-09 4.02744e-09 -0.00011034)
(2.27777e-08 -2.39171e-09 -0.0001038)
(2.03026e-08 -1.0597e-08 -0.000110188)
(-1.17209e-09 -7.22543e-09 -0.00010364)
(-2.5658e-08 -8.57862e-09 -0.000110403)
(1.04314e-08 -7.09672e-10 -0.000110286)
(-2.30124e-09 1.13796e-08 -0.000105548)
(7.62262e-09 -4.32417e-09 -0.000106977)
(-2.40114e-09 2.08129e-09 -0.00010698)
(7.33614e-09 -1.09599e-08 -0.000105552)
(5.03184e-09 -3.39776e-09 -0.00011039)
(-1.00092e-09 1.42733e-08 -0.000103818)
(-4.90585e-09 1.05997e-09 -0.000103776)
(-2.96335e-10 -4.66336e-09 -0.000110506)
(4.31921e-09 1.11896e-08 -0.000110476)
(-3.6762e-09 1.11391e-08 -0.000104292)
(-8.4276e-09 5.03631e-09 -0.000104301)
(1.07738e-08 -1.44469e-09 -0.000104189)
(-2.26192e-08 1.01393e-08 -0.000104227)
(-1.07986e-08 6.3954e-09 -0.000104296)
(-5.99204e-09 1.32144e-08 -0.000104279)
(-2.8564e-08 1.08863e-08 -0.000104227)
(7.54549e-09 -7.2447e-10 -0.000104184)
(-1.30612e-09 4.23106e-09 -0.000109318)
(1.46019e-08 -9.3906e-09 -0.000109256)
(1.41306e-08 -3.75971e-09 -0.000110303)
(-2.16879e-08 8.8802e-09 -0.000110264)
(2.19686e-09 1.12263e-10 -0.000110318)
(2.38473e-09 -5.38133e-09 -0.00011038)
(-1.61369e-08 4.33406e-09 -0.000110237)
(2.05241e-08 -8.16038e-09 -0.000110297)
(-6.61016e-10 -5.37196e-09 -0.000110335)
(-7.71843e-10 3.54547e-09 -0.000110314)
(-1.56799e-09 -2.98585e-09 -0.00010542)
(2.88073e-09 4.58436e-09 -0.000106874)
(3.57089e-09 -2.86308e-09 -0.000106804)
(6.26822e-09 5.57392e-09 -0.000105492)
(-9.65942e-09 1.86916e-09 -0.000103834)
(2.58966e-09 -2.72502e-09 -0.000110297)
(1.90768e-08 3.73965e-09 -0.000103747)
(-6.36586e-09 4.49306e-09 -0.000105438)
(2.94276e-09 -3.98279e-09 -0.000106766)
(3.30399e-09 -5.47269e-09 -0.000105349)
(-3.24715e-09 3.42241e-09 -0.000106854)
(-1.14299e-08 -2.19935e-09 -0.000103651)
(1.80434e-08 -1.87347e-09 -0.000103764)
(6.16135e-09 3.80429e-09 -0.000105496)
(2.25956e-09 -3.22345e-09 -0.000106796)
(-1.79151e-09 -4.58124e-09 -0.000105412)
(-2.76066e-10 3.05395e-09 -0.000106878)
(-8.73656e-11 -6.68299e-09 -0.000110281)
(1.77424e-08 6.28181e-10 -0.000103729)
(-1.12012e-08 -2.98687e-10 -0.000103841)
(5.16631e-09 6.89025e-09 -0.000104388)
(-2.11028e-09 1.40943e-09 -0.000104325)
(-9.99445e-10 1.28095e-09 -0.00010433)
(4.98256e-09 4.16167e-09 -0.000104369)
(1.8466e-09 1.36644e-09 -0.000109384)
(2.16422e-10 4.69403e-09 -0.000110447)
(9.64092e-10 -4.35934e-10 -0.000110507)
(2.39692e-08 7.98904e-09 -0.00011031)
(-1.30996e-08 -4.7057e-09 -0.00011037)
(2.10034e-09 1.33297e-10 -0.000109359)
(-1.01684e-09 3.83103e-09 -0.000104363)
(7.09018e-09 4.16022e-09 -0.000104348)
(4.64356e-09 2.75312e-09 -0.000104364)
(-6.55923e-10 2.36721e-09 -0.000104343)
(2.95247e-09 -9.21512e-10 -0.000109345)
(2.64448e-09 -1.15024e-09 -0.000110483)
(9.36291e-10 5.2087e-09 -0.000110455)
(-1.43938e-09 -9.24696e-09 -0.000105639)
(6.00918e-11 1.55301e-09 -0.000106922)
(-9.41202e-11 -3.10813e-09 -0.000107041)
(2.78591e-09 1.27837e-08 -0.000105535)
(3.32887e-09 -2.23866e-09 -0.000103915)
(-4.72126e-09 -1.14324e-08 -0.000110492)
(-1.36202e-09 2.26132e-09 -0.000103954)
(2.21092e-09 -9.20428e-09 -0.000105487)
(-1.99383e-09 5.39275e-09 -0.000106999)
(-3.48332e-09 8.67627e-09 -0.000105551)
(6.0644e-10 2.70964e-10 -0.000106917)
(-1.65721e-09 -7.33459e-09 -0.000103789)
(1.94974e-09 1.34704e-09 -0.000103783)
(3.49548e-09 1.42529e-08 -0.000105546)
(-1.27883e-09 -1.47086e-09 -0.00010702)
(-2.06738e-09 -7.16092e-09 -0.000105614)
(6.77211e-10 4.84091e-09 -0.000106936)
(-1.63131e-09 7.18914e-09 -0.000103918)
(1.51365e-09 -1.16555e-09 -0.000103908)
(3.67169e-09 1.89049e-08 -0.000105674)
(2.25285e-10 -1.26531e-09 -0.000106978)
(7.00642e-10 7.83341e-09 -0.000107092)
(-1.63429e-09 -6.08071e-09 -0.000105576)
(-2.8162e-09 5.43769e-09 -0.000103905)
(6.78332e-09 1.95782e-08 -0.000110505)
(3.05832e-09 8.22406e-10 -0.000103945)
(1.4502e-09 -4.49144e-09 -0.00010562)
(-5.26205e-10 2.62451e-09 -0.000106954)
(3.85465e-10 -1.97417e-09 -0.000107068)
(-3.52149e-09 1.51689e-08 -0.000105522)
(-3.68241e-09 -4.24134e-09 -0.000103819)
(2.88719e-09 -6.73816e-09 -0.000110417)
(-3.43587e-11 1.84662e-09 -0.000103868)
(-2.80095e-09 -9.81582e-09 -0.000105587)
(6.97751e-10 1.56772e-09 -0.00010707)
(3.27722e-09 1.23469e-08 -0.000105652)
(-9.84627e-10 -6.24248e-09 -0.000106983)
(1.94453e-09 -6.95877e-09 -0.000103925)
(-8.2381e-10 5.9508e-09 -0.000103913)
(-2.47093e-09 1.15415e-08 -0.000105532)
(1.14975e-09 -1.53397e-09 -0.000107047)
(1.7915e-09 -6.80923e-09 -0.000105602)
(-1.07227e-09 3.07578e-09 -0.000106964)
(4.06001e-09 2.07384e-09 -0.000103825)
(1.38011e-09 -1.12564e-08 -0.000103819)
(2.41884e-08 -8.62924e-09 -0.000110339)
(-1.35149e-08 1.86603e-09 -0.000110231)
(-3.02698e-09 1.17976e-08 -0.00011034)
(-2.09058e-09 -3.34182e-09 -0.000110314)
(-1.18826e-08 -4.25411e-09 -0.000105396)
(1.27006e-09 8.45528e-09 -0.000106883)
(-4.10903e-09 -4.64531e-09 -0.000106777)
(6.70676e-10 6.06971e-09 -0.0001055)
(-1.73039e-08 -1.40048e-09 -0.000103868)
(-1.57845e-08 -1.14271e-08 -0.000110272)
(4.77212e-09 -5.88925e-09 -0.000103708)
(-7.23656e-09 -5.04702e-09 -0.000109342)
(4.37931e-09 -2.19804e-09 -0.00010434)
(-3.58998e-09 3.04349e-09 -0.000104363)
(-1.25284e-09 5.10034e-09 -0.00010439)
(-2.62429e-09 -8.42102e-09 -0.000104358)
(-1.44126e-11 4.04445e-09 -0.000110483)
(-5.01887e-09 -1.56696e-08 -0.000110467)
(-3.65781e-09 -8.73345e-09 -0.000105596)
(4.24673e-09 7.17157e-09 -0.000106993)
(-9.64326e-10 -1.03492e-09 -0.000107006)
(9.42159e-09 1.48407e-08 -0.000105616)
(5.60255e-09 -2.04665e-09 -0.000103951)
(-4.51447e-09 -9.42409e-09 -0.00011044)
(-1.58881e-09 9.58094e-09 -0.000103895)
(4.54371e-10 4.40794e-09 -0.000105603)
(-7.58207e-09 -8.68697e-09 -0.000106996)
(1.04843e-09 -4.76555e-09 -0.000107012)
(-7.84281e-09 -1.62863e-08 -0.00010561)
(-4.20657e-09 1.55372e-09 -0.000103943)
(4.447e-09 3.26125e-09 -0.000110445)
(1.90577e-10 -1.15294e-08 -0.000103895)
(4.89417e-09 -1.51863e-08 -0.000105547)
(-5.25244e-09 1.78176e-09 -0.000106987)
(1.99415e-09 -7.83199e-09 -0.000106998)
(-6.92562e-09 6.22364e-09 -0.000105555)
(-6.01852e-09 4.35874e-09 -0.000103839)
(5.6099e-09 -9.93157e-09 -0.000110338)
(-1.09224e-09 1.35437e-08 -0.000103797)
(-9.88314e-09 -1.92844e-09 -0.000104306)
(1.82452e-08 7.83868e-09 -0.000104366)
(2.07859e-08 9.37695e-09 -0.000104357)
(-1.00263e-08 -3.07398e-09 -0.000104303)
(-1.59632e-08 -8.66019e-09 -0.000109359)
(1.85176e-08 4.50979e-09 -0.000110453)
(-1.91549e-08 -4.05108e-09 -0.000110331)
(9.09203e-10 6.56848e-09 -0.000109375)
(-4.99522e-09 -6.44362e-10 -0.00010434)
(9.27112e-09 5.17226e-09 -0.000105364)
(-7.09944e-10 -7.13546e-09 -0.000106855)
(1.34465e-09 4.04065e-09 -0.00010675)
(-4.94462e-09 -6.7839e-09 -0.000105472)
(1.10032e-08 -1.45991e-09 -0.000103876)
(9.1255e-09 9.57549e-09 -0.000110237)
(-9.88142e-09 4.15186e-09 -0.00010371)
(-1.41356e-08 6.26402e-09 -0.000105355)
(-3.84765e-09 -6.05197e-09 -0.000106854)
(-9.18071e-09 4.95249e-09 -0.000106751)
(-1.34556e-09 -6.02306e-09 -0.000105466)
(-2.4587e-08 2.94118e-09 -0.000103848)
(-1.53697e-08 9.77759e-09 -0.00011023)
(-4.91913e-10 7.82624e-09 -0.000103677)
(6.41773e-09 3.41301e-09 -0.000106757)
(1.71097e-08 5.98906e-09 -0.000105363)
(-1.20069e-08 2.53803e-09 -0.000106758)
(-2.63635e-08 7.37122e-09 -0.000105355)
(-6.49387e-09 4.16161e-09 -0.000110393)
(-4.48863e-09 1.49947e-08 -0.000110359)
(-2.77537e-08 9.99516e-09 -0.000110363)
(1.2047e-08 -1.04624e-09 -0.000110247)
(-1.72534e-09 5.02606e-09 -0.000104189)
(-2.11611e-08 1.67977e-09 -0.000103765)
(1.00435e-08 -1.35848e-10 -0.000103742)
(2.5712e-08 9.88649e-09 -0.000110401)
(-2.00453e-08 -1.01176e-08 -0.000110279)
(-2.92395e-09 -5.47395e-10 -0.000103877)
(1.93404e-09 -3.39802e-09 -0.000103711)
(-3.76206e-09 -4.47774e-09 -0.00011055)
(2.58143e-10 1.6065e-09 -0.000110358)
(-1.23699e-08 1.75762e-09 -0.00010371)
(2.22775e-08 -3.93343e-09 -0.000103701)
(2.00532e-08 7.81565e-09 -0.000110304)
(-1.16348e-08 -3.39025e-09 -0.00011025)
(-2.65445e-09 8.03406e-09 -0.000103883)
(1.05597e-09 -2.48758e-10 -0.000103722)
(-8.72124e-10 -2.39857e-09 -0.000110561)
(2.7873e-09 6.35877e-09 -0.000110378)
(-1.41468e-08 1.39489e-09 -0.000103678)
(1.60502e-08 -1.79769e-09 -0.000103683)
(2.75652e-08 1.25404e-08 -0.000110313)
(-2.06325e-08 -6.77397e-09 -0.00011028)
(-3.73388e-09 9.3846e-09 -0.000103895)
(-4.31482e-10 2.12394e-09 -0.000103732)
(1.69117e-09 6.60745e-10 -0.000110591)
(8.79201e-10 3.33944e-09 -0.000110398)
(-2.40471e-08 5.88588e-09 -0.000103691)
(3.49264e-09 2.27383e-09 -0.000103686)
(1.62907e-08 6.96785e-09 -0.000110341)
(-1.354e-08 -5.97609e-09 -0.000110273)
(-2.98349e-09 7.40411e-09 -0.000103913)
(4.1027e-09 -7.24882e-09 -0.000103746)
(-1.87404e-09 -5.37233e-09 -0.000110591)
(-2.60172e-09 -3.40964e-09 -0.000110392)
(-1.62194e-08 3.295e-09 -0.000103688)
(1.20615e-08 -2.12261e-09 -0.000103691)
(1.97052e-08 7.99847e-09 -0.00011033)
(-1.93046e-08 -8.45451e-09 -0.000110273)
(-4.89992e-10 -3.99221e-09 -0.00010391)
(1.49656e-09 -5.49007e-09 -0.000103737)
(-2.37486e-09 -5.23797e-09 -0.000110584)
(2.07519e-09 5.32434e-09 -0.000110402)
(-9.95595e-09 -6.48e-10 -0.000103681)
(1.74126e-08 -2.9131e-09 -0.000103686)
(1.4683e-08 5.47678e-09 -0.000110339)
(-1.92632e-08 -7.68615e-09 -0.000110284)
(-2.84379e-09 5.1797e-09 -0.000103904)
(2.94771e-09 -2.97006e-09 -0.000103745)
(-2.27321e-10 -2.3495e-09 -0.000110597)
(2.95308e-09 3.84742e-09 -0.000110416)
(-1.15078e-08 3.48675e-10 -0.000103684)
(1.51256e-08 -3.64811e-09 -0.000103684)
(2.64822e-08 1.17267e-08 -0.00011034)
(-1.23779e-08 -5.53978e-09 -0.000110279)
(-5.75173e-10 5.99996e-10 -0.000103915)
(2.47995e-09 -6.17127e-09 -0.000103742)
(2.566e-09 5.90077e-09 -0.000110594)
(3.12558e-09 7.40406e-09 -0.000110403)
(-1.98797e-08 3.81311e-09 -0.000103693)
(2.24608e-08 -3.91115e-09 -0.000103704)
(2.55387e-08 1.15232e-08 -0.000110344)
(-9.45952e-09 -1.53262e-09 -0.000110287)
(-5.42867e-09 1.17623e-08 -0.000103908)
(-6.10424e-11 5.25262e-09 -0.00010374)
(-3.82195e-09 -9.92215e-09 -0.000110601)
(-2.6748e-09 -5.9886e-09 -0.000110407)
(-2.13013e-08 6.25904e-09 -0.000103701)
(1.24965e-08 -2.0564e-09 -0.000103702)
(2.21499e-08 9.19316e-09 -0.000110348)
(-1.10966e-08 -3.94176e-09 -0.000110298)
(-1.74508e-09 5.93381e-09 -0.000103905)
(-7.81339e-10 2.44464e-09 -0.000103732)
(5.79659e-10 2.96428e-10 -0.000110595)
(3.48281e-09 8.26507e-09 -0.000110411)
(-1.876e-08 4.44932e-09 -0.000103698)
(1.30886e-08 -5.75058e-10 -0.000103682)
(1.14197e-08 3.43693e-09 -0.000110362)
(-2.37083e-08 -9.9563e-09 -0.000110295)
(-3.03235e-09 4.87757e-09 -0.000103891)
(1.65265e-09 -1.25542e-10 -0.000103709)
(-7.52269e-10 -3.76105e-09 -0.000110606)
(2.56618e-09 4.59736e-09 -0.000110396)
(-1.28708e-08 -4.37508e-10 -0.000103664)
(2.02362e-08 -7.07202e-09 -0.00010368)
(3.08899e-08 1.285e-08 -0.00011033)
(-4.78138e-09 -1.80972e-09 -0.00011028)
(-5.89363e-09 1.03504e-08 -0.000103853)
(-3.19173e-09 2.35805e-09 -0.000103694)
(-2.2745e-09 -2.0428e-09 -0.000110557)
(-2.64575e-09 1.41954e-09 -0.000110384)
(-1.96944e-08 6.01141e-09 -0.000103709)
(1.21047e-08 3.16921e-10 -0.000103708)
(2.38448e-08 1.08952e-08 -0.000110364)
(-1.32948e-08 -4.0792e-09 -0.000110301)
(2.77215e-09 -6.50393e-09 -0.000103874)
(7.72619e-09 -1.51254e-08 -0.0001037)
(1.39207e-09 -1.39524e-09 -0.000110604)
(1.74457e-09 8.55065e-10 -0.000110404)
(-1.88448e-08 3.90343e-09 -0.000103704)
(8.84453e-09 5.44306e-11 -0.000103725)
(2.29015e-08 1.00934e-08 -0.000110355)
(-9.30586e-09 -3.19335e-09 -0.000110319)
(7.18035e-10 -3.5802e-09 -0.00010385)
(1.03471e-09 -7.72035e-09 -0.000103693)
(-3.69906e-09 -4.30579e-09 -0.000110564)
(-1.14175e-09 -3.8535e-10 -0.000110408)
(-1.83052e-08 4.69258e-09 -0.000103715)
(1.49065e-08 -5.28652e-09 -0.000103726)
(1.64988e-08 6.04638e-09 -0.00011035)
(-1.89807e-08 -9.6462e-09 -0.000110317)
(6.41816e-10 -3.43846e-09 -0.000103851)
(3.71939e-10 -4.05859e-09 -0.000103708)
(-6.31881e-10 -1.56802e-09 -0.000110578)
(7.6678e-11 3.31143e-09 -0.000110411)
(-1.88023e-08 4.69289e-09 -0.000103702)
(1.07071e-08 -3.62283e-10 -0.000103733)
(2.52889e-08 1.13003e-08 -0.00011035)
(-8.02192e-09 -1.13521e-09 -0.00011033)
(-4.62313e-10 -2.6665e-09 -0.000103848)
(5.91924e-09 -1.07469e-08 -0.000103738)
(-1.08421e-09 -2.31265e-09 -0.000110577)
(-1.05089e-09 -1.93661e-09 -0.00011043)
(5.86462e-11 2.38168e-10 -0.000110556)
(-5.1521e-10 -2.31255e-09 -0.000110463)
(1.08246e-08 -5.79528e-09 -0.000110368)
(6.36943e-09 -1.64849e-08 -0.000110246)
(1.28779e-08 -2.45016e-09 -0.000103799)
(5.47443e-09 -8.9334e-09 -0.00010377)
(-8.05811e-09 5.9371e-10 -0.000103834)
(9.97549e-09 -2.71957e-09 -0.000103813)
(-2.11026e-08 -9.12345e-09 -0.000110398)
(8.00714e-09 1.35281e-09 -0.000110418)
(-8.72641e-09 -2.21887e-08 -0.000110403)
(-3.78907e-10 -2.19753e-09 -0.000110581)
(1.48267e-09 -6.50802e-09 -0.000103733)
(-1.70608e-09 -1.55837e-09 -0.000103875)
(-4.75232e-09 -1.31473e-08 -0.000103861)
(2.64114e-09 -6.20811e-09 -0.000104)
(3.0185e-09 -3.10557e-09 -0.000103811)
(-1.77012e-09 1.63626e-09 -0.000110386)
(8.84333e-09 2.63142e-09 -0.000110316)
(1.05032e-08 2.69582e-09 -0.000103751)
(-1.78607e-08 4.04708e-09 -0.000103763)
(1.02545e-09 1.80331e-09 -0.000110335)
(-1.98305e-08 1.01122e-08 -0.000110292)
(-2.88021e-08 1.15878e-08 -0.00011038)
(1.82195e-08 -8.06437e-09 -0.00011029)
(3.81001e-09 -9.67638e-09 -0.000110416)
(3.11817e-09 -7.55466e-09 -0.000110238)
(2.2272e-08 -1.05761e-08 -0.000110253)
(-1.15056e-08 3.04553e-09 -0.000110332)
(1.09686e-09 -1.97666e-09 -0.00011024)
(6.50546e-10 -9.13849e-10 -0.000110426)
(2.0625e-08 1.74614e-09 -0.000103789)
(-1.66591e-08 -3.29258e-09 -0.000103742)
(2.00116e-08 -4.62363e-09 -0.000103713)
(-1.73062e-08 1.53274e-09 -0.000103739)
(-2.00512e-08 -5.02646e-09 -0.000103715)
(9.75633e-09 -1.05723e-09 -0.000103738)
(-3.67942e-09 -9.62549e-09 -0.000110567)
(-8.22998e-10 -5.1006e-09 -0.000110383)
(-1.74024e-08 -8.20546e-09 -0.000110251)
(8.15262e-09 -2.32352e-10 -0.000110325)
(2.73331e-10 1.74047e-09 -0.000110376)
(-1.50313e-09 -1.77284e-09 -0.00011057)
(-3.92521e-09 -4.58476e-09 -0.000104016)
(1.61489e-09 3.78022e-09 -0.000103835)
(6.69949e-10 1.24316e-09 -0.000103708)
(-2.01108e-09 1.06293e-09 -0.000103876)
(1.1043e-09 -1.28777e-09 -0.000103844)
(-6.63877e-10 -9.19333e-10 -0.000104009)
(-1.92856e-10 -1.20437e-08 -0.000103995)
(-2.62304e-09 -7.20403e-09 -0.000103831)
(4.38804e-09 -3.23424e-09 -0.000103953)
(-1.1752e-09 3.66926e-09 -0.000103776)
(-1.21474e-09 9.30514e-11 -0.000103827)
(-8.72172e-10 -4.0613e-09 -0.000104)
(-2.81254e-09 3.85919e-09 -0.000103787)
(1.66864e-09 2.7722e-10 -0.000103946)
(-2.46363e-08 -9.08634e-09 -0.000110348)
(1.61673e-08 6.78092e-09 -0.000110289)
(1.92945e-09 3.69586e-09 -0.000110368)
(-1.08811e-09 -3.94162e-09 -0.000110552)
(2.34828e-08 9.70932e-09 -0.000110303)
(-1.69252e-08 -6.55854e-09 -0.000110345)
(-1.89786e-08 -1.70165e-09 -0.00010373)
(1.90161e-08 4.78583e-09 -0.000103728)
(1.57331e-08 -1.29757e-09 -0.000103742)
(-1.01197e-08 9.81353e-10 -0.000103741)
(2.08584e-08 4.54021e-09 -0.00010374)
(-1.44446e-08 -5.37565e-10 -0.000103729)
(-1.73449e-08 2.8315e-09 -0.000103742)
(2.36821e-08 -4.53099e-09 -0.000103739)
(2.3843e-09 -2.4831e-09 -0.0001105)
(-2.09511e-09 5.39697e-09 -0.000110316)
(1.64782e-08 -5.44325e-09 -0.000110331)
(-1.1291e-08 4.53204e-09 -0.000110283)
(-2.69639e-09 4.79571e-09 -0.000110327)
(-2.99192e-11 -1.02412e-09 -0.000110505)
(-1.28169e-08 4.06519e-09 -0.000110281)
(2.65187e-08 -1.17334e-08 -0.000110337)
(-9.69775e-09 3.50917e-09 -0.000110307)
(2.27638e-08 -9.76181e-09 -0.00011025)
(-2.42839e-09 7.20172e-09 -0.000110433)
(2.53621e-10 -1.36014e-09 -0.000110255)
(1.42859e-08 -5.1335e-09 -0.000110241)
(-1.25416e-08 5.17049e-09 -0.000110304)
(1.37785e-09 -3.64292e-10 -0.000110265)
(-2.87229e-10 1.3253e-09 -0.000110451)
(1.55811e-08 1.1843e-09 -0.000103705)
(-1.87277e-08 -3.85336e-09 -0.000103704)
(1.58079e-08 -2.83635e-09 -0.000103682)
(-1.31967e-08 2.39444e-09 -0.000103696)
(-1.60278e-08 -3.2113e-09 -0.00010371)
(1.51775e-08 2.32324e-09 -0.000103705)
(2.80415e-09 6.7331e-09 -0.000110566)
(-7.89741e-10 -1.66448e-09 -0.000110388)
(-1.17764e-08 -4.70371e-09 -0.000110255)
(2.69804e-08 1.18835e-08 -0.00011031)
(-3.77865e-09 -7.20725e-09 -0.000110394)
(2.49122e-09 6.63273e-09 -0.00011058)
(-2.49914e-09 -5.31318e-09 -0.000104014)
(9.32851e-10 1.45587e-09 -0.00010385)
(1.93844e-09 1.39396e-09 -0.000103726)
(-7.31579e-10 1.05721e-09 -0.000103891)
(4.29507e-09 6.79596e-09 -0.000103866)
(-4.1373e-10 1.13419e-09 -0.000104026)
(1.81384e-09 3.1544e-09 -0.000103995)
(-2.18675e-09 -1.60385e-10 -0.000103841)
(-1.36618e-09 1.80158e-09 -0.000103962)
(-1.87373e-09 3.31565e-09 -0.000103794)
(-2.88297e-09 -5.15957e-09 -0.000103844)
(2.56886e-10 1.86182e-09 -0.000104014)
(-3.26007e-09 4.79205e-09 -0.00010379)
(1.54619e-09 -2.06115e-09 -0.000103964)
(-1.21291e-08 -4.81087e-09 -0.000110358)
(2.18863e-08 8.36063e-09 -0.000110311)
(5.14046e-09 9.48047e-09 -0.000110397)
(2.87361e-09 4.82713e-09 -0.000110574)
(1.11732e-08 3.67437e-09 -0.00011032)
(-1.79869e-08 -8.76218e-09 -0.000110372)
(-1.16914e-08 -5.21782e-10 -0.000103737)
(1.95603e-08 2.02115e-09 -0.000103754)
(1.56765e-08 -2.8031e-09 -0.000103743)
(-1.74842e-08 2.1933e-09 -0.000103748)
(1.72174e-08 2.53575e-09 -0.000103756)
(-1.62157e-08 -4.07897e-09 -0.000103755)
(-1.71869e-08 3.49462e-09 -0.000103753)
(1.37291e-08 -2.12006e-09 -0.00010375)
(-3.9597e-10 -2.11678e-09 -0.000110524)
(-6.46716e-10 2.38237e-09 -0.000110337)
(1.83786e-08 -7.44362e-09 -0.000110337)
(-1.67247e-08 6.49777e-09 -0.000110292)
(-4.17386e-09 7.20917e-09 -0.000110326)
(6.73154e-10 -3.95807e-09 -0.000110523)
(-1.64316e-08 5.63712e-09 -0.000110292)
(1.70573e-08 -7.48706e-09 -0.000110346)
(-1.72307e-08 7.44294e-09 -0.000110292)
(1.58623e-08 -6.35583e-09 -0.000110239)
(-3.07707e-09 6.62472e-09 -0.000110452)
(-5.01207e-10 1.10017e-09 -0.000110274)
(1.29e-08 -4.22462e-09 -0.000110243)
(-1.95262e-08 8.95725e-09 -0.000110298)
(-8.77377e-10 1.59879e-09 -0.00011029)
(-3.11431e-09 8.2758e-09 -0.000110468)
(1.83543e-08 2.74077e-09 -0.000103709)
(-1.45804e-08 -2.87974e-10 -0.000103733)
(9.56941e-09 3.26122e-10 -0.00010369)
(-2.06706e-08 5.27487e-09 -0.000103686)
(-1.7176e-08 -2.57471e-09 -0.000103734)
(1.57811e-08 4.2772e-09 -0.000103739)
(1.5806e-09 4.33931e-09 -0.000110582)
(-7.10708e-10 -1.74278e-09 -0.000110395)
(-1.8965e-08 -8.76964e-09 -0.000110288)
(8.29146e-09 3.21394e-09 -0.000110345)
(5.60948e-11 -6.59381e-10 -0.000110385)
(-2.88768e-09 -4.24575e-09 -0.000110581)
(1.93627e-10 7.52769e-10 -0.00010404)
(1.85027e-09 5.51286e-09 -0.000103869)
(2.01912e-09 -2.62494e-10 -0.000103743)
(-1.87809e-09 4.2579e-09 -0.000103905)
(4.33531e-09 7.4721e-09 -0.000103868)
(1.36149e-09 3.64627e-09 -0.000104041)
(6.07803e-10 -1.28705e-09 -0.000104012)
(-2.01608e-09 -8.75076e-10 -0.000103844)
(-1.44543e-09 4.79446e-09 -0.00010396)
(-4.76546e-09 9.41017e-09 -0.000103788)
(-1.10236e-09 1.94321e-09 -0.000103831)
(5.84366e-10 -4.09865e-10 -0.000104006)
(-6.82473e-09 1.21762e-08 -0.000103792)
(-1.62121e-09 5.60422e-09 -0.000103956)
(-1.95542e-08 -8.81396e-09 -0.000110374)
(1.54595e-08 5.57545e-09 -0.000110326)
(2.74117e-09 3.68146e-09 -0.000110403)
(-7.02888e-10 -1.86271e-09 -0.000110591)
(7.37245e-09 1.69409e-09 -0.000110322)
(-2.16608e-08 -9.36867e-09 -0.000110382)
(-1.94533e-08 -3.4323e-09 -0.000103752)
(1.30525e-08 1.42833e-09 -0.000103759)
(2.03168e-08 -4.25759e-09 -0.000103752)
(-1.83142e-08 3.07884e-09 -0.00010375)
(8.57202e-09 -6.82947e-10 -0.000103749)