# Region type : patch wall
# Faces       : 46496
# Area        : 1.255632e-02
# Scale factor: 1.000000e+00
# Time        	areaAverage(wallShearStress)
0.1           	(-3.271341e-11 -7.516222e-11 -2.114018e-04)
0.2           	(-9.774653e-11 -7.266497e-12 -1.618288e-04)
0.3           	(-1.211519e-10 -6.087957e-11 -1.420476e-04)
0.4           	(7.234970e-06 2.265161e-06 -1.353695e-04)
0.5           	(-1.157568e-05 -4.176676e-06 -1.274718e-04)
