# Region type : patch wall
# Faces       : 46496
# Area        : 1.255632e-02
# Scale factor: 1.000000e+00
# Time        	areaAverage(wallShearStress)
10            	(-2.311215e-10 5.834130e-12 -2.620493e-04)
20            	(-1.294949e-11 -3.756553e-11 -1.876342e-04)
26            	(-2.023335e-11 -6.275283e-11 -1.682142e-04)
