/*--------------------------------*- C++ -*----------------------------------*\
| =========                 |                                                 |
| \\      /  F ield         | OpenFOAM: The Open Source CFD Toolbox           |
|  \\    /   O peration     | Version:  2206                                  |
|   \\  /    A nd           | Website:  www.openfoam.com                      |
|    \\/     M anipulation  |                                                 |
\*---------------------------------------------------------------------------*/
FoamFile
{
    version     2.0;
    format      ascii;
    arch        "LSB;label=32;scalar=64";
    class       volScalarField;
    location    "0.3";
    object      Co;
}
// * * * * * * * * * * * * * * * * * * * * * * * * * * * * * * * * * * * * * //

dimensions      [0 0 0 0 0 0 0];

internalField   nonuniform List<scalar> 
185303
(
0.147817
0.147963
0.147762
0.147449
0.147519
0.148263
0.148198
0.147519
0.147773
0.14745
0.14798
0.147299
0.147389
0.147594
0.1481
0.147681
0.14761
0.147539
0.148166
0.147903
0.14751
0.147228
0.147452
0.14782
0.147674
0.14818
0.148027
0.147823
0.147408
0.147599
0.147355
0.146567
0.147403
0.147448
0.14782
0.147313
0.146232
0.147484
0.147599
0.147384
0.147637
0.147254
0.147707
0.147784
0.147425
0.14742
0.1483
0.147425
0.146343
0.145826
0.145981
0.14654
0.147228
0.146627
0.14785
0.147722
0.148146
0.147452
0.147068
0.147457
0.14742
0.14615
0.147793
0.147363
0.14782
0.146288
0.147729
0.147422
0.147326
0.145988
0.147227
0.14633
0.146767
0.147818
0.147603
0.146616
0.147638
0.147506
0.147807
0.146379
0.146848
0.146655
0.14756
0.147425
0.146546
0.147587
0.147508
0.14788
0.147944
0.147567
0.147111
0.147333
0.147372
0.148195
0.147793
0.147793
0.147769
0.147813
0.147451
0.147482
0.147316
0.147842
0.147563
0.147622
0.147509
0.147888
0.147187
0.147704
0.147194
0.147923
0.147459
0.147472
0.147404
0.146749
0.147282
0.147747
0.146122
0.147046
0.146349
0.146039
0.147436
0.148113
0.147788
0.147215
0.147764
0.147247
0.146844
0.146186
0.146632
0.147776
0.147418
0.148257
0.147359
0.14755
0.147481
0.146207
0.148481
0.147457
0.147531
0.147316
0.147611
0.147035
0.147425
0.146292
0.147635
0.147279
0.1481
0.147028
0.147928
0.14745
0.146644
0.146877
0.146333
0.147421
0.147345
0.146075
0.146179
0.146972
0.147381
0.147486
0.146628
0.146999
0.146031
0.147744
0.147001
0.146247
0.147316
0.147496
0.146448
0.146893
0.147421
0.146291
0.147492
0.147767
0.147549
0.147381
0.148059
0.147508
0.147451
0.147363
0.146897
0.146148
0.148034
0.147314
0.146675
0.146093
0.146397
0.147505
0.147539
0.146048
0.146485
0.14728
0.14726
0.147539
0.147745
0.14756
0.147426
0.147243
0.147535
0.147346
0.147726
0.147047
0.14689
0.147548
0.147659
0.147581
0.147304
0.147508
0.148024
0.148327
0.147276
0.147684
0.147765
0.14743
0.147684
0.14652
0.14755
0.147314
0.147924
0.146373
0.147406
0.146586
0.147153
0.148126
0.146336
0.146076
0.147107
0.146291
0.145917
0.146456
0.147275
0.147558
0.147774
0.14756
0.147377
0.147391
0.147781
0.147471
0.147455
0.147602
0.147444
0.147636
0.147813
0.148312
0.148044
0.147243
0.146712
0.147652
0.146148
0.147744
0.147925
0.147502
0.147933
0.147228
0.147359
0.145801
0.147547
0.147342
0.14642
0.145969
0.147517
0.147617
0.147745
0.147342
0.148059
0.147544
0.147496
0.146246
0.147289
0.148312
0.146626
0.148021
0.147708
0.147623
0.147397
0.147369
0.147425
0.147252
0.147633
0.146439
0.148005
0.147458
0.14711
0.147615
0.146048
0.146799
0.145838
0.147405
0.147945
0.146849
0.146232
0.147455
0.147667
0.148397
0.148173
0.147213
0.147693
0.147633
0.148109
0.14756
0.147693
0.1478
0.147882
0.148027
0.147412
0.147461
0.147776
0.148283
0.147843
0.147494
0.147367
0.14603
0.14787
0.147782
0.147953
0.147493
0.147822
0.146126
0.147435
0.147443
0.145713
0.147558
0.147421
0.146177
0.146561
0.147422
0.147562
0.147523
0.146848
0.147519
0.147796
0.147247
0.14782
0.147405
0.147794
0.145871
0.145899
0.147459
0.147513
0.146209
0.148015
0.147403
0.147703
0.1465
0.147945
0.14739
0.147156
0.147898
0.147573
0.148013
0.147497
0.147517
0.147396
0.146746
0.147332
0.147009
0.147534
0.14752
0.146271
0.146276
0.147251
0.146818
0.14773
0.147157
0.147429
0.146143
0.147183
0.146566
0.147915
0.14747
0.147576
0.146466
0.147918
0.14745
0.146651
0.147784
0.147912
0.148122
0.147452
0.148198
0.146166
0.147788
0.146873
0.146988
0.146429
0.147576
0.147471
0.14731
0.146562
0.146238
0.14773
0.147723
0.147592
0.147414
0.146155
0.147104
0.145979
0.146861
0.146076
0.147363
0.147252
0.146981
0.147547
0.147981
0.147381
0.146437
0.148308
0.146774
0.147428
0.147024
0.147435
0.147289
0.147216
0.147472
0.146969
0.147408
0.147851
0.147078
0.147877
0.148546
0.147309
0.147315
0.147634
0.14731
0.14737
0.147401
0.1476
0.147542
0.147624
0.147357
0.147933
0.147342
0.147414
0.14728
0.147282
0.147258
0.147318
0.147595
0.147751
0.147721
0.147338
0.147429
0.148
0.147364
0.146076
0.147551
0.147693
0.147513
0.1476
0.148
0.147441
0.147544
0.147679
0.147725
0.147404
0.147632
0.147859
0.147999
0.148001
0.147759
0.147876
0.147823
0.147802
0.147496
0.147267
0.147808
0.147111
0.147872
0.147359
0.147711
0.147708
0.147573
0.147991
0.147594
0.147561
0.147747
0.14765
0.147295
0.146035
0.147758
0.147429
0.147401
0.147709
0.147493
0.147456
0.147606
0.147663
0.147516
0.147901
0.147607
0.14818
0.147594
0.147851
0.147304
0.147481
0.147945
0.148501
0.147758
0.147439
0.147212
0.148186
0.14733
0.147313
0.148223
0.147735
0.14762
0.147414
0.147703
0.147448
0.148049
0.147774
0.146306
0.147915
0.14837
0.148458
0.148152
0.148159
0.147687
0.147818
0.147691
0.147721
0.14745
0.147977
0.147723
0.148057
0.147275
0.147501
0.147475
0.147845
0.147799
0.148257
0.147455
0.147312
0.147468
0.147702
0.147743
0.147843
0.147451
0.147682
0.147439
0.147376
0.147406
0.147608
0.147432
0.147901
0.147528
0.1476
0.147869
0.147534
0.147535
0.147538
0.147482
0.147672
0.14741
0.147627
0.147403
0.147783
0.14752
0.147584
0.14766
0.147588
0.147519
0.147471
0.147442
0.147821
0.147486
0.147435
0.148062
0.147678
0.147598
0.147739
0.147896
0.148336
0.148246
0.148065
0.148099
0.148114
0.148136
0.147889
0.147844
0.147953
0.147708
0.147577
0.147783
0.147851
0.147653
0.147563
0.147632
0.147678
0.147815
0.14772
0.147732
0.147667
0.147918
0.147813
0.147813
0.147748
0.147678
0.148187
0.147746
0.147754
0.147467
0.147933
0.148136
0.148337
0.14794
0.147942
0.147624
0.147964
0.147975
0.148065
0.148172
0.147853
0.147853
0.147714
0.147385
0.147497
0.147803
0.148334
0.147754
0.147639
0.14788
0.147968
0.148024
0.148053
0.148335
0.147969
0.147667
0.147628
0.147572
0.147746
0.147981
0.147627
0.147669
0.147532
0.147501
0.147782
0.147782
0.14745
0.147491
0.147806
0.148213
0.148071
0.148071
0.147907
0.147747
0.147837
0.147822
0.147514
0.147776
0.147525
0.147557
0.147582
0.147632
0.147521
0.147873
0.147597
0.147552
0.147575
0.147575
0.147801
0.147426
0.147631
0.147631
0.147496
0.147495
0.147375
0.147461
0.147627
0.147901
0.147909
0.147638
0.147428
0.147428
0.14772
0.14772
0.147817
0.147521
0.147493
0.147627
0.147476
0.147577
0.147588
0.147507
0.147558
0.147558
0.147573
0.147582
0.147629
0.147919
0.147723
0.147876
0.147864
0.147582
0.147167
0.147306
0.147539
0.147536
0.147781
0.147815
0.147679
0.147699
0.148004
0.148012
0.14784
0.148043
0.14827
0.147947
0.147909
0.147878
0.147634
0.147533
0.147439
0.147439
0.147513
0.147861
0.147593
0.147635
0.147773
0.147656
0.147591
0.147797
0.148012
0.147962
0.148031
0.147657
0.14765
0.147703
0.147501
0.148071
0.148123
0.148043
0.147934
0.147804
0.147802
0.147828
0.148169
0.147988
0.147911
0.147787
0.147668
0.148106
0.148223
0.147543
0.14732
0.147341
0.147691
0.147764
0.148111
0.147786
0.147851
0.147715
0.147662
0.147662
0.147558
0.147575
0.147616
0.147616
0.14748
0.14748
0.147324
0.147885
0.147576
0.147372
0.147428
0.147428
0.147548
0.147753
0.14783
0.147819
0.148004
0.148253
0.148003
0.148003
0.147821
0.147821
0.148065
0.147665
0.1474
0.147562
0.147851
0.147548
0.147671
0.14782
0.147808
0.147481
0.147654
0.147465
0.147513
0.147527
0.14766
0.147702
0.147672
0.147551
0.147442
0.147676
0.148114
0.147827
0.147487
0.147681
0.148055
0.147836
0.148195
0.147896
0.147711
0.147805
0.147502
0.147362
0.147695
0.147947
0.147952
0.147453
0.147657
0.147628
0.147648
0.147648
0.14766
0.147947
0.147905
0.147953
0.147953
0.147458
0.14747
0.147263
0.147514
0.147939
0.147939
0.147816
0.148066
0.147748
0.148503
0.148184
0.148165
0.148524
0.147943
0.147648
0.147845
0.14776
0.147862
0.147768
0.147984
0.147574
0.147541
0.147641
0.147889
0.147595
0.147687
0.147779
0.147916
0.147968
0.14782
0.147994
0.147946
0.147477
0.147628
0.147628
0.147568
0.147813
0.148158
0.1478
0.147863
0.148173
0.147974
0.148048
0.148444
0.147882
0.147972
0.147971
0.147553
0.147672
0.147517
0.147517
0.147868
0.147578
0.147605
0.147756
0.147882
0.148105
0.147705
0.147862
0.14757
0.147526
0.147569
0.147632
0.147488
0.147289
0.147397
0.147397
0.147414
0.147494
0.147413
0.147794
0.147586
0.147629
0.147469
0.147755
0.14787
0.147915
0.14793
0.148279
0.148074
0.148159
0.148181
0.147973
0.148
0.147864
0.147681
0.147803
0.14786
0.147472
0.1478
0.147521
0.147706
0.147788
0.147864
0.14736
0.147382
0.147382
0.147597
0.147597
0.147779
0.147784
0.147492
0.147476
0.147411
0.147404
0.147627
0.147967
0.147755
0.147677
0.147791
0.147604
0.147822
0.147717
0.147721
0.147466
0.147482
0.147929
0.147811
0.147483
0.147664
0.14759
0.147774
0.147524
0.147677
0.14763
0.147531
0.147838
0.147638
0.147865
0.147866
0.147469
0.147913
0.14795
0.147898
0.148044
0.14783
0.148221
0.148221
0.147928
0.147876
0.147955
0.147801
0.147601
0.147862
0.147486
0.147459
0.147699
0.147553
0.147562
0.147822
0.148003
0.147711
0.147382
0.14766
0.147946
0.147806
0.147661
0.148052
0.147625
0.147542
0.147808
0.147752
0.147665
0.147606
0.147926
0.147892
0.147805
0.147859
0.147859
0.147961
0.148412
0.147785
0.148001
0.148089
0.147905
0.14776
0.147619
0.147366
0.147526
0.147627
0.147626
0.147619
0.147568
0.147841
0.147848
0.148224
0.147563
0.147355
0.147725
0.147628
0.147628
0.147934
0.147357
0.147266
0.147318
0.14748
0.147479
0.147479
0.147447
0.147461
0.147647
0.147576
0.147657
0.147725
0.148094
0.148273
0.147901
0.148149
0.148566
0.14816
0.148041
0.148041
0.147566
0.147504
0.147414
0.147605
0.148055
0.148055
0.147948
0.147998
0.147629
0.147519
0.147519
0.147687
0.147409
0.147606
0.147596
0.147799
0.148135
0.148276
0.147175
0.14751
0.147522
0.147595
0.147478
0.14723
0.147466
0.147655
0.147635
0.14757
0.147439
0.147326
0.147389
0.147301
0.147301
0.147463
0.147285
0.147686
0.147676
0.147651
0.147525
0.147578
0.147818
0.147705
0.147468
0.147559
0.148106
0.1474
0.147492
0.147801
0.14754
0.147914
0.147746
0.147556
0.147789
0.147815
0.147746
0.147824
0.147685
0.148158
0.14809
0.147841
0.147425
0.147577
0.147411
0.147473
0.14754
0.147666
0.147882
0.147615
0.14781
0.147827
0.147823
0.147784
0.148043
0.147916
0.147484
0.147883
0.147968
0.148156
0.147666
0.147838
0.147845
0.147656
0.147603
0.147658
0.147778
0.147781
0.148124
0.147841
0.147524
0.147685
0.147631
0.147735
0.147692
0.147898
0.147519
0.14752
0.147571
0.147683
0.147694
0.147796
0.148101
0.147804
0.147812
0.147457
0.147588
0.147624
0.147882
0.147549
0.147549
0.147888
0.147351
0.14741
0.147347
0.147368
0.147368
0.147452
0.147452
0.147636
0.147686
0.147693
0.148158
0.147945
0.148043
0.148502
0.148158
0.148106
0.148218
0.1476
0.147784
0.147784
0.147347
0.147553
0.147648
0.147766
0.148147
0.147792
0.147469
0.147745
0.147538
0.147702
0.147828
0.147832
0.14752
0.147649
0.147626
0.147681
0.147878
0.147554
0.147318
0.147391
0.147298
0.147286
0.147293
0.147604
0.147645
0.147674
0.147446
0.147501
0.1473
0.147515
0.147296
0.147312
0.147366
0.147545
0.14789
0.147717
0.147654
0.147588
0.147825
0.147701
0.147579
0.147637
0.147617
0.147747
0.147563
0.147546
0.147491
0.147615
0.147557
0.147608
0.147591
0.147812
0.147812
0.147536
0.148005
0.14783
0.14783
0.147648
0.147506
0.147527
0.147539
0.147643
0.147682
0.147849
0.148002
0.147981
0.147582
0.148116
0.147976
0.148023
0.147973
0.147896
0.147912
0.147561
0.147994
0.147843
0.147749
0.147725
0.147682
0.147931
0.147679
0.147627
0.147627
0.147936
0.148056
0.148233
0.147622
0.147533
0.147874
0.147611
0.147568
0.147489
0.147489
0.147458
0.147611
0.147578
0.147578
0.147819
0.147905
0.147835
0.147747
0.147883
0.147708
0.14738
0.147537
0.147683
0.147435
0.147642
0.147814
0.147906
0.147742
0.147576
0.147525
0.147651
0.14765
0.147477
0.147646
0.147741
0.147991
0.147999
0.148299
0.148299
0.147989
0.148084
0.147801
0.147803
0.147788
0.147853
0.147302
0.147566
0.147696
0.147591
0.147591
0.147583
0.147829
0.147441
0.147566
0.147674
0.147607
0.147981
0.147779
0.147501
0.147946
0.147556
0.147556
0.147609
0.147562
0.147313
0.147859
0.147718
0.147834
0.147978
0.147709
0.14755
0.14775
0.147541
0.147167
0.147191
0.147191
0.14756
0.147509
0.147385
0.14759
0.147623
0.147623
0.147549
0.147747
0.147542
0.147252
0.147358
0.147484
0.147697
0.147627
0.147903
0.14733
0.147413
0.147856
0.147884
0.147934
0.147872
0.147872
0.147539
0.147699
0.147862
0.147862
0.147946
0.147548
0.14756
0.147498
0.147652
0.147652
0.147844
0.147844
0.148148
0.148017
0.147792
0.148024
0.148024
0.147638
0.147615
0.147721
0.147901
0.147994
0.148147
0.147634
0.147576
0.147916
0.147664
0.147485
0.147688
0.147789
0.14796
0.148008
0.147674
0.147482
0.147676
0.147719
0.147634
0.147837
0.147512
0.147512
0.147558
0.147558
0.147451
0.147646
0.147911
0.147911
0.147784
0.147985
0.147492
0.147492
0.147793
0.147792
0.147488
0.147523
0.147432
0.147414
0.147401
0.147657
0.147352
0.1474
0.147469
0.147469
0.147436
0.147506
0.147583
0.148773
0.148521
0.148437
0.147898
0.147695
0.147693
0.147883
0.147555
0.147555
0.147595
0.147832
0.147718
0.147657
0.147609
0.147812
0.147684
0.147427
0.147418
0.147432
0.147568
0.147956
0.147668
0.147668
0.147514
0.147513
0.147328
0.14784
0.147596
0.147689
0.14755
0.147631
0.147435
0.147702
0.147434
0.1477
0.147588
0.147456
0.147579
0.147458
0.147234
0.147277
0.147725
0.147725
0.14749
0.147706
0.147646
0.14772
0.147759
0.147785
0.147442
0.147442
0.147495
0.147353
0.147372
0.14744
0.147439
0.147439
0.14765
0.147671
0.147766
0.147802
0.148179
0.147849
0.147703
0.147557
0.147613
0.147613
0.147487
0.147487
0.147542
0.147466
0.147688
0.147688
0.147828
0.148019
0.147953
0.148074
0.148055
0.148266
0.148067
0.147609
0.147498
0.147675
0.147816
0.148432
0.14813
0.147583
0.147915
0.147778
0.147705
0.147755
0.147825
0.147749
0.147819
0.147844
0.147637
0.147854
0.147944
0.147718
0.147456
0.147511
0.147454
0.147503
0.147526
0.147526
0.147637
0.147642
0.147835
0.147795
0.147935
0.147692
0.147671
0.147964
0.147668
0.147668
0.147583
0.147341
0.147488
0.14754
0.147515
0.147657
0.14732
0.147175
0.147454
0.14757
0.147537
0.147537
0.147649
0.148741
0.148538
0.148442
0.147729
0.148198
0.147766
0.147661
0.147711
0.147544
0.14791
0.147613
0.147613
0.147451
0.147577
0.147474
0.14773
0.147792
0.147349
0.14753
0.147722
0.147536
0.147337
0.14756
0.147728
0.147638
0.147638
0.147363
0.147363
0.147522
0.147764
0.147442
0.147804
0.147713
0.147442
0.147519
0.147606
0.147408
0.147455
0.147583
0.147583
0.147671
0.147511
0.147609
0.147609
0.147539
0.147539
0.147519
0.147519
0.147643
0.14752
0.147595
0.147595
0.147453
0.147295
0.147344
0.147344
0.147414
0.147419
0.147611
0.14779
0.148089
0.14804
0.14762
0.148002
0.148002
0.147616
0.147765
0.147672
0.147626
0.147757
0.147605
0.148088
0.147835
0.147984
0.147898
0.147975
0.148045
0.147957
0.147926
0.148283
0.147754
0.147432
0.147437
0.147445
0.147746
0.147841
0.147772
0.147469
0.147529
0.147531
0.147627
0.147768
0.147839
0.147599
0.148268
0.147884
0.147979
0.147758
0.147823
0.147567
0.147557
0.147557
0.14752
0.147524
0.147461
0.14766
0.147732
0.147772
0.147703
0.148263
0.148004
0.148004
0.147632
0.147612
0.147611
0.147678
0.147488
0.147488
0.147399
0.147496
0.147597
0.147597
0.147242
0.147355
0.147417
0.147466
0.14745
0.147725
0.147762
0.147979
0.148142
0.148392
0.148157
0.148186
0.148186
0.147454
0.147872
0.147607
0.147536
0.147536
0.147788
0.147625
0.147578
0.147477
0.147444
0.147444
0.147111
0.14777
0.147564
0.147775
0.147684
0.147635
0.147557
0.148187
0.147892
0.148188
0.147921
0.147568
0.14783
0.147728
0.147727
0.147726
0.147698
0.147398
0.147427
0.147547
0.147369
0.14751
0.147447
0.147446
0.147367
0.147373
0.147613
0.147669
0.147631
0.147631
0.147623
0.147596
0.147603
0.147603
0.14763
0.147486
0.147472
0.147265
0.147282
0.147355
0.147358
0.14777
0.147676
0.1479
0.147845
0.147845
0.147911
0.147987
0.147683
0.147905
0.14793
0.147663
0.147789
0.147575
0.147576
0.147553
0.147867
0.147904
0.147959
0.14809
0.147863
0.147788
0.147984
0.147677
0.14827
0.147501
0.147258
0.14719
0.147605
0.147605
0.14774
0.147429
0.147546
0.147598
0.147499
0.147347
0.147543
0.147989
0.147989
0.147621
0.147724
0.148069
0.147603
0.147583
0.14762
0.147539
0.147508
0.147508
0.147427
0.147862
0.147953
0.147879
0.147675
0.148078
0.148328
0.147846
0.147872
0.147709
0.147538
0.14793
0.14782
0.147583
0.147499
0.147433
0.147643
0.147592
0.147477
0.147354
0.147327
0.147327
0.147458
0.147571
0.147679
0.148122
0.148042
0.147938
0.147753
0.148103
0.147966
0.147703
0.14753
0.147452
0.147459
0.147459
0.147595
0.147907
0.147683
0.147653
0.147599
0.147436
0.147315
0.147315
0.147393
0.14803
0.147657
0.147657
0.147595
0.147782
0.147762
0.148135
0.148135
0.147651
0.147863
0.147869
0.147877
0.147351
0.147447
0.147311
0.147351
0.14729
0.147058
0.147058
0.147391
0.147609
0.147654
0.147405
0.147504
0.147505
0.147602
0.147606
0.147678
0.147678
0.147572
0.147604
0.147538
0.147484
0.147377
0.147377
0.147457
0.147396
0.147352
0.147383
0.147724
0.147978
0.147886
0.148198
0.147975
0.147975
0.147806
0.147984
0.147689
0.147497
0.1474
0.147406
0.147625
0.147883
0.147883
0.148098
0.148208
0.14777
0.147822
0.147822
0.147549
0.147743
0.147668
0.147668
0.147821
0.147206
0.147573
0.147572
0.147587
0.147417
0.147819
0.147703
0.147832
0.147447
0.147722
0.147836
0.147683
0.148135
0.147902
0.147902
0.147872
0.147476
0.147419
0.147455
0.147521
0.147415
0.147477
0.147633
0.147811
0.147697
0.147823
0.148306
0.147975
0.14818
0.147832
0.147699
0.147586
0.147586
0.147433
0.147433
0.147583
0.147502
0.147391
0.147391
0.147545
0.14727
0.14736
0.147361
0.147553
0.147553
0.147759
0.147923
0.147864
0.147855
0.14774
0.14774
0.14748
0.147534
0.147764
0.147689
0.14774
0.147808
0.147745
0.147835
0.147542
0.147542
0.147361
0.147724
0.147518
0.147416
0.147458
0.147461
0.147615
0.147948
0.148074
0.147859
0.147627
0.147974
0.147693
0.147648
0.147535
0.148061
0.147622
0.147395
0.147249
0.14717
0.147217
0.147531
0.147479
0.147276
0.147473
0.147481
0.147584
0.147584
0.147554
0.147756
0.147778
0.1476
0.14762
0.14762
0.147588
0.147572
0.147509
0.147518
0.147409
0.14759
0.147423
0.147624
0.147577
0.147408
0.14801
0.147897
0.147606
0.147746
0.147821
0.147821
0.147534
0.147534
0.147641
0.14749
0.147396
0.147496
0.14765
0.147666
0.147836
0.148182
0.147972
0.147853
0.14784
0.147715
0.147639
0.147522
0.14769
0.14769
0.147669
0.14752
0.147625
0.147625
0.147419
0.147865
0.147873
0.147911
0.147924
0.147542
0.147716
0.147716
0.147639
0.147416
0.14784
0.147949
0.147798
0.14744
0.147685
0.147714
0.147343
0.147576
0.147607
0.14772
0.147817
0.147914
0.147867
0.148196
0.147636
0.147557
0.147583
0.147706
0.147667
0.147667
0.147582
0.147408
0.147555
0.147555
0.147372
0.147485
0.14735
0.147765
0.147601
0.147576
0.147741
0.147752
0.148091
0.147998
0.147707
0.14786
0.147961
0.147807
0.147454
0.147573
0.147766
0.148055
0.147586
0.147657
0.147865
0.147796
0.147833
0.147552
0.147455
0.147486
0.147514
0.147473
0.14753
0.147579
0.14772
0.147647
0.147853
0.147638
0.147798
0.14803
0.147425
0.147401
0.147541
0.147366
0.147416
0.147475
0.147186
0.147166
0.147113
0.147228
0.147326
0.147429
0.147498
0.147507
0.147608
0.147608
0.147609
0.147828
0.147726
0.147615
0.14772
0.147579
0.147645
0.147603
0.147602
0.147616
0.147572
0.147358
0.147535
0.147627
0.14777
0.147769
0.147947
0.147626
0.147992
0.147693
0.147844
0.147815
0.147731
0.14777
0.147565
0.147599
0.147454
0.147464
0.14753
0.147607
0.147888
0.148199
0.147887
0.147609
0.147499
0.14758
0.147633
0.147633
0.147663
0.14785
0.147447
0.147484
0.147668
0.147668
0.147388
0.147658
0.147877
0.147902
0.147792
0.147547
0.147837
0.14777
0.147596
0.147639
0.147746
0.147746
0.14747
0.148069
0.147916
0.147832
0.147697
0.147572
0.14796
0.147619
0.147731
0.147721
0.147974
0.147755
0.147868
0.147596
0.147461
0.147662
0.147724
0.147594
0.147475
0.147475
0.147521
0.147653
0.147476
0.147407
0.147381
0.147253
0.147468
0.147794
0.147835
0.147615
0.147643
0.148013
0.14781
0.147562
0.147786
0.147835
0.147912
0.147299
0.147666
0.147666
0.147995
0.147592
0.147538
0.147607
0.147659
0.147749
0.147706
0.147384
0.147421
0.147421
0.147589
0.147829
0.147944
0.14783
0.147851
0.14802
0.148238
0.14785
0.147593
0.147453
0.147249
0.147317
0.147472
0.147472
0.147475
0.147109
0.147151
0.147053
0.147393
0.147494
0.147521
0.14746
0.147593
0.147703
0.14759
0.147563
0.147604
0.147678
0.147678
0.147527
0.147654
0.147545
0.147549
0.147554
0.147706
0.147774
0.147382
0.147382
0.147528
0.147842
0.147802
0.147822
0.14777
0.147567
0.147849
0.147727
0.147488
0.147466
0.147537
0.147483
0.147542
0.147458
0.147616
0.147928
0.148004
0.14802
0.147873
0.14774
0.147433
0.147784
0.147775
0.147548
0.147852
0.147984
0.14782
0.147983
0.148117
0.14772
0.147602
0.147617
0.147746
0.147931
0.147563
0.147566
0.147976
0.147976
0.148072
0.14752
0.147781
0.147842
0.147691
0.147385
0.1477
0.147565
0.147715
0.148004
0.147742
0.147471
0.147754
0.147525
0.147738
0.147899
0.14784
0.147631
0.147598
0.147793
0.147861
0.147419
0.147477
0.147477
0.14763
0.14766
0.147632
0.147604
0.147633
0.147365
0.147639
0.147567
0.147587
0.147424
0.147555
0.147976
0.148168
0.147684
0.147739
0.147739
0.147631
0.147534
0.147412
0.147704
0.147587
0.147587
0.147491
0.147491
0.147644
0.147912
0.147883
0.147555
0.147197
0.147197
0.147527
0.14797
0.148
0.148128
0.147734
0.147944
0.147666
0.147613
0.147756
0.14758
0.147073
0.147208
0.147461
0.147461
0.147529
0.147118
0.14734
0.147093
0.147352
0.147352
0.147455
0.14739
0.147416
0.147416
0.147947
0.147777
0.147526
0.147624
0.147883
0.14756
0.147642
0.147629
0.147547
0.147914
0.14776
0.14786
0.147994
0.147316
0.147407
0.147407
0.147594
0.147791
0.147944
0.147802
0.14811
0.147807
0.147677
0.147578
0.147599
0.147599
0.147476
0.147565
0.147814
0.147932
0.147816
0.147995
0.147797
0.147568
0.147602
0.147855
0.147537
0.147754
0.147992
0.14833
0.148073
0.147902
0.147809
0.147414
0.147487
0.147487
0.147763
0.147923
0.147628
0.147557
0.147983
0.147983
0.148122
0.147749
0.147684
0.147577
0.147742
0.147641
0.147489
0.147949
0.147794
0.147618
0.147751
0.147939
0.147733
0.147786
0.148034
0.147847
0.147642
0.148008
0.148156
0.14748
0.147572
0.147572
0.147699
0.147465
0.147649
0.147694
0.147597
0.147254
0.147404
0.147589
0.147579
0.147528
0.147506
0.14742
0.14753
0.147759
0.147647
0.147647
0.147663
0.147641
0.147666
0.147656
0.147778
0.147403
0.147687
0.147687
0.147889
0.14751
0.147549
0.147675
0.147582
0.147469
0.147286
0.147286
0.147553
0.147819
0.147848
0.147714
0.147809
0.147862
0.147743
0.147861
0.147787
0.147466
0.147402
0.147127
0.147371
0.147371
0.147187
0.147187
0.147243
0.147243
0.147464
0.147464
0.147516
0.147407
0.147405
0.147565
0.147615
0.147615
0.14789
0.148082
0.147889
0.147798
0.147867
0.147695
0.147564
0.147584
0.147829
0.147611
0.147416
0.147416
0.147536
0.147629
0.147545
0.147526
0.147722
0.148211
0.147977
0.147763
0.147763
0.147353
0.147561
0.147561
0.14788
0.147555
0.147702
0.147828
0.147752
0.147947
0.14774
0.147625
0.14769
0.147815
0.147783
0.147534
0.147754
0.147746
0.147567
0.147938
0.147408
0.147385
0.147516
0.147847
0.147809
0.14778
0.147697
0.147426
0.147838
0.14793
0.147843
0.147904
0.14754
0.147922
0.147771
0.147529
0.147715
0.147952
0.147667
0.147578
0.147743
0.148004
0.147862
0.147635
0.147722
0.14764
0.147796
0.148216
0.147855
0.147491
0.147548
0.147548
0.14768
0.147849
0.147915
0.147699
0.147418
0.147252
0.147473
0.147473
0.147449
0.147411
0.147421
0.147421
0.147609
0.147766
0.147659
0.147704
0.147621
0.147702
0.147824
0.147824
0.147696
0.147728
0.147706
0.147933
0.147698
0.147626
0.147547
0.147547
0.147584
0.147498
0.147612
0.147423
0.147925
0.147662
0.147688
0.147798
0.147782
0.147665
0.147676
0.148032
0.147709
0.147357
0.147243
0.147015
0.147349
0.147349
0.147208
0.147452
0.147291
0.147575
0.147602
0.147606
0.147633
0.147668
0.147488
0.14738
0.14753
0.147773
0.147963
0.148209
0.148036
0.147529
0.147465
0.147354
0.147686
0.148104
0.147494
0.147585
0.147407
0.147795
0.147716
0.14779
0.147693
0.147548
0.147647
0.147647
0.147597
0.147685
0.147774
0.147336
0.147402
0.147661
0.147666
0.147691
0.14791
0.147635
0.147687
0.147687
0.147686
0.147614
0.147716
0.147574
0.147498
0.147506
0.147714
0.147861
0.147836
0.147559
0.147412
0.147315
0.147445
0.147654
0.147745
0.147867
0.147536
0.147633
0.147721
0.147721
0.147841
0.147841
0.148124
0.147826
0.147357
0.147839
0.147806
0.147953
0.147766
0.147311
0.147692
0.147732
0.147925
0.147759
0.147633
0.147892
0.147766
0.147766
0.147386
0.147693
0.147919
0.147649
0.147835
0.148051
0.148058
0.147701
0.147365
0.147562
0.147606
0.147694
0.147694
0.14749
0.147626
0.147666
0.147568
0.147969
0.147772
0.147848
0.148023
0.14782
0.147866
0.147851
0.147818
0.147818
0.147825
0.147939
0.147705
0.147753
0.147827
0.147635
0.147578
0.147521
0.147429
0.147708
0.147774
0.147346
0.147459
0.147459
0.147767
0.147573
0.148071
0.147565
0.14739
0.147262
0.147435
0.147277
0.147414
0.147241
0.147246
0.147295
0.147296
0.147483
0.147598
0.147696
0.147597
0.147659
0.147601
0.147418
0.147364
0.147851
0.148014
0.147908
0.148133
0.147829
0.147361
0.147834
0.147905
0.147759
0.14732
0.147275
0.147374
0.14739
0.147839
0.14775
0.147732
0.147705
0.147757
0.147823
0.147642
0.147695
0.147516
0.147532
0.147422
0.147612
0.147735
0.147697
0.147801
0.148099
0.147924
0.148076
0.147684
0.147684
0.147631
0.147626
0.147796
0.14741
0.147537
0.147537
0.147742
0.147559
0.147584
0.147346
0.147614
0.147859
0.147758
0.147563
0.147756
0.147759
0.147967
0.147919
0.148087
0.148145
0.147869
0.147869
0.147588
0.147493
0.147597
0.14756
0.14752
0.147482
0.14758
0.147769
0.147736
0.147803
0.147748
0.147599
0.147664
0.147664
0.147599
0.147842
0.147487
0.147543
0.147994
0.148004
0.148042
0.14786
0.147666
0.147254
0.147731
0.147689
0.147886
0.147601
0.147793
0.147746
0.14751
0.147874
0.148314
0.148324
0.14794
0.147558
0.148072
0.148291
0.14833
0.148148
0.148146
0.147958
0.147757
0.147971
0.147704
0.147483
0.14735
0.147351
0.14749
0.147771
0.147813
0.147232
0.147394
0.147334
0.147566
0.14772
0.147807
0.147591
0.147479
0.147479
0.147267
0.147301
0.147348
0.147105
0.147304
0.147278
0.147347
0.147497
0.147454
0.147499
0.14761
0.147753
0.147517
0.147411
0.147684
0.147729
0.148308
0.148389
0.147921
0.147858
0.147589
0.147549
0.147686
0.147694
0.14799
0.147399
0.147362
0.147635
0.147696
0.147696
0.147867
0.147716
0.147593
0.147552
0.147792
0.147578
0.147419
0.14733
0.147457
0.147495
0.147588
0.147901
0.14795
0.148159
0.148035
0.147741
0.147625
0.147531
0.147661
0.147661
0.147769
0.147699
0.147676
0.14765
0.147645
0.147645
0.147886
0.147501
0.147674
0.147797
0.1476
0.1476
0.14756
0.148025
0.147928
0.148284
0.147865
0.147605
0.147727
0.147666
0.148113
0.147524
0.147417
0.147591
0.147527
0.147527
0.147602
0.147542
0.147677
0.147677
0.147634
0.14753
0.147571
0.147776
0.147703
0.147536
0.14742
0.147782
0.147786
0.147879
0.147732
0.14805
0.148309
0.147475
0.148017
0.147699
0.147692
0.147783
0.147634
0.147663
0.147525
0.147642
0.147571
0.148319
0.147914
0.147914
0.147932
0.148136
0.14775
0.148061
0.147853
0.147914
0.147999
0.147769
0.147708
0.147725
0.147635
0.147402
0.147431
0.147253
0.147389
0.147389
0.147972
0.147522
0.14756
0.147361
0.147562
0.147797
0.147597
0.147783
0.147502
0.147502
0.147838
0.147687
0.146994
0.147405
0.147402
0.147582
0.147391
0.147535
0.147571
0.147594
0.147738
0.147645
0.14739
0.147539
0.14781
0.148271
0.147487
0.147393
0.147824
0.147727
0.147566
0.14758
0.147827
0.148088
0.147629
0.147648
0.147427
0.147232
0.14771
0.147559
0.147749
0.147745
0.1477
0.147672
0.14767
0.147673
0.147722
0.147348
0.147502
0.147502
0.147587
0.147889
0.148042
0.148279
0.147891
0.147985
0.147747
0.147693
0.147765
0.147589
0.147603
0.14763
0.147705
0.147489
0.147473
0.147855
0.147695
0.147695
0.147746
0.147719
0.147755
0.14753
0.147623
0.147584
0.147829
0.147829
0.148389
0.147755
0.147466
0.147916
0.147633
0.147633
0.147444
0.147444
0.147484
0.147484
0.147557
0.147557
0.147592
0.147592
0.14788
0.147584
0.147546
0.147494
0.147493
0.147608
0.147413
0.147528
0.147839
0.147838
0.14763
0.147462
0.147613
0.148225
0.147754
0.14733
0.147397
0.147397
0.147668
0.147753
0.14763
0.147217
0.147636
0.148549
0.147694
0.147602
0.147965
0.147771
0.14777
0.147667
0.147646
0.147634
0.147864
0.147791
0.14774
0.14763
0.14763
0.147675
0.147439
0.147453
0.147321
0.147298
0.147991
0.147554
0.147554
0.147803
0.147441
0.147482
0.147399
0.147507
0.147507
0.147277
0.147841
0.147612
0.147612
0.147393
0.147134
0.14726
0.147184
0.147439
0.147367
0.147649
0.147798
0.147715
0.147568
0.14739
0.147706
0.147713
0.147492
0.147616
0.147822
0.147461
0.147618
0.147616
0.147772
0.14758
0.147545
0.147506
0.147574
0.147679
0.147474
0.147711
0.147905
0.148127
0.148124
0.147916
0.147916
0.147971
0.147605
0.147461
0.147734
0.147693
0.147943
0.148257
0.147914
0.148229
0.147883
0.147973
0.14793
0.14757
0.147645
0.147377
0.147572
0.147613
0.147613
0.147666
0.147604
0.147425
0.1475
0.147597
0.147624
0.14773
0.147783
0.147772
0.147588
0.147756
0.147609
0.147686
0.148094
0.147762
0.147762
0.147735
0.147652
0.147599
0.147666
0.147861
0.147449
0.147519
0.147958
0.147771
0.147631
0.147574
0.14783
0.14777
0.14777
0.147606
0.147606
0.147539
0.147539
0.147644
0.147446
0.147862
0.14805
0.147653
0.147286
0.147616
0.147616
0.147618
0.14737
0.147443
0.147606
0.147638
0.14762
0.147489
0.147922
0.147875
0.148145
0.147916
0.147852
0.14766
0.147487
0.147621
0.147621
0.147923
0.147609
0.147715
0.147591
0.1476
0.1476
0.147826
0.147484
0.147379
0.147405
0.147473
0.147473
0.147618
0.147338
0.147377
0.147546
0.147519
0.147519
0.147504
0.147504
0.147716
0.147716
0.147621
0.14735
0.147502
0.147502
0.148028
0.147487
0.147215
0.147485
0.147715