/*--------------------------------*- C++ -*----------------------------------*\
| =========                 |                                                 |
| \\      /  F ield         | OpenFOAM: The Open Source CFD Toolbox           |
|  \\    /   O peration     | Version:  2206                                  |
|   \\  /    A nd           | Website:  www.openfoam.com                      |
|    \\/     M anipulation  |                                                 |
\*---------------------------------------------------------------------------*/
FoamFile
{
    version     2.0;
    format      ascii;
    arch        "LSB;label=32;scalar=64";
    class       volScalarField;
    location    "0.3";
    object      p;
}
// * * * * * * * * * * * * * * * * * * * * * * * * * * * * * * * * * * * * * //

dimensions      [0 2 -2 0 0 0 0];

internalField   nonuniform List<scalar> 
185303
(
0.0554333
0.0446405
0.061171
0.0618699
0.0609201
0.0495204
0.0488508
0.0622006
0.0612396
0.0485897
0.0499048
0.0450284
0.0621891
0.0449574
0.0627722
0.0563145
0.0502281
0.063047
0.0595653
0.0478441
0.0589645
0.0627221
0.0631532
0.0538078
0.0618763
0.0492592
0.0638037
0.0501222
0.0588931
0.0507673
0.0476284
0.055376
0.0443278
0.0508742
0.0641379
0.0459043
0.0615037
0.0504469
0.0505421
0.0598534
0.0533799
0.0476159
0.0482505
0.0620959
0.0479333
0.0562848
0.064411
0.0599491
0.0443344
0.0444039
0.0446485
0.0447134
0.0625108
0.0449699
0.0650253
0.0482649
0.0637009
0.0633812
0.0450421
0.0466641
0.0560746
0.045292
0.058004
0.0602721
0.0647046
0.0453721
0.0459421
0.0631533
0.045678
0.0456147
0.0505623
0.0457007
0.0460222
0.0491551
0.0450081
0.0602254
0.0498978
0.05565
0.0489153
0.046284
0.0463479
0.0466118
0.0443929
0.0466755
0.0469207
0.0570357
0.0443109
0.0612322
0.0462656
0.0540191
0.047308
0.0508715
0.0631613
0.0547565
0.054435
0.0546814
0.0634736
0.0505376
0.0615397
0.0507778
0.0443798
0.0543824
0.0456169
0.0468967
0.0592074
0.0562967
0.0583372
0.0463181
0.0452894
0.0641445
0.0572648
0.0588747
0.0560665
0.0470171
0.0589825
0.064053
0.0472611
0.047327
0.0475621
0.0478802
0.0572453
0.0465954
0.0640717
0.0575708
0.0634993
0.04534
0.0476348
0.0479625
0.0482083
0.0475265
0.0482819
0.0647317
0.0566151
0.0465545
0.0554417
0.0485261
0.0469973
0.060832
0.060594
0.0445902
0.0553261
0.0486079
0.0569473
0.0488569
0.0605417
0.0446923
0.0518019
0.0491964
0.0537445
0.0621159
0.0495066
0.0495902
0.0498415
0.0592955
0.0592422
0.0499256
0.0501835
0.0502511
0.0612276
0.0598987
0.0504977
0.0505648
0.0508146
0.0504589
0.0508902
0.051149
0.0512245
0.0618753
0.0514728
0.0515432
0.0606003
0.0518033
0.0569736
0.0547673
0.0567094
0.0614424
0.0579401
0.0442788
0.0617686
0.0572907
0.051881
0.0521296
0.0466441
0.0521882
0.052216
0.0524628
0.0525407
0.0556979
0.0628293
0.0528658
0.0531111
0.0585507
0.0449153
0.0615524
0.0460014
0.0455736
0.0453545
0.0450199
0.0531865
0.0617873
0.0459019
0.0557583
0.0534323
0.0615004
0.0580141
0.0473171
0.0559739
0.0501503
0.0648158
0.063766
0.056608
0.0634831
0.0472044
0.0482779
0.0491373
0.0537459
0.0463272
0.0538209
0.0608641
0.0547799
0.0502329
0.0541438
0.0535015
0.0497979
0.0543805
0.0547003
0.0599508
0.0550407
0.0560117
0.0551207
0.0528373
0.0499058
0.0515292
0.0446163
0.0514282
0.0511943
0.0625055
0.0582507
0.0527342
0.0514469
0.0608169
0.0546537
0.0551011
0.0465629
0.0472384
0.0602827
0.0554646
0.0495757
0.0556985
0.0485436
0.051525
0.0478726
0.057621
0.0559754
0.0563925
0.055778
0.0550914
0.0596418
0.056091
0.0563299
0.0589105
0.0534794
0.0462295
0.058225
0.0472068
0.0536985
0.0596358
0.05641
0.0595272
0.0491741
0.0566562
0.05501
0.0537872
0.0621304
0.0512016
0.0583256
0.0601713
0.0611301
0.0621976
0.0569861
0.0643721
0.0567365
0.0570606
0.0570374
0.0573057
0.0573767
0.0576176
0.063716
0.0508164
0.0576942
0.0579476
0.0525207
0.0544376
0.0468782
0.0475641
0.0580179
0.0498409
0.062403
0.0540741
0.0566296
0.0495785
0.048805
0.0644655
0.0640282
0.0494716
0.05218
0.0602105
0.0618095
0.0492558
0.0615479
0.0456812
0.0582673
0.0549871
0.0504995
0.0560167
0.0481743
0.0534523
0.0583484
0.0605154
0.0606025
0.0585905
0.0518637
0.0595398
0.0589229
0.058679
0.0633916
0.049238
0.0460094
0.0590003
0.0624572
0.0463303
0.0455808
0.0643579
0.05792
0.0550201
0.0592451
0.0593258
0.057027
0.05735
0.0595763
0.0644666
0.0531664
0.0596527
0.0599042
0.0462349
0.0576809
0.0599734
0.0489111
0.0582841
0.0586033
0.0531687
0.0586557
0.0589719
0.0631755
0.0563754
0.0592961
0.0515351
0.0602948
0.0605421
0.0540638
0.0447021
0.0606152
0.0541179
0.0443864
0.0630909
0.0608556
0.0563791
0.0609352
0.062827
0.0566881
0.0627443
0.061177
0.0634195
0.0612498
0.0615635
0.0524527
0.0638141
0.051128
0.0560654
0.0644763
0.061819
0.0630712
0.0618865
0.0638256
0.0621364
0.0520928
0.0611544
0.0528475
0.0622124
0.0624488
0.0543622
0.0641256
0.056928
0.0576746
0.062525
0.0452666
0.0627646
0.0628406
0.0631004
0.0604941
0.0609169
0.0634344
0.0553523
0.0634999
0.0489323
0.0637417
0.0647931
0.0640777
0.0599405
0.0641571
0.0602694
0.0593043
0.0573512
0.0586569
0.0644172
0.0586564
0.0644873
0.0647468
0.0531444
0.0648226
0.0585664
0.0573615
0.0543358
0.0530558
0.0533824
0.0527463
0.0528208
0.0521092
0.0614719
0.0625341
0.0469647
0.057999
0.0578996
0.0583332
0.0601833
0.0527653
0.0598625
0.0596226
0.0459935
0.0476122
0.0592093
0.062835
0.0541265
0.0452503
0.0544572
0.0576715
0.0557505
0.0575873
0.0530528
0.0502167
0.0524187
0.0534767
0.0537996
0.0541201
0.0524163
0.0518639
0.0495683
0.0498148
0.0554149
0.0521329
0.046657
0.0469871
0.0553292
0.0534098
0.0453532
0.0550919
0.0475123
0.0624383
0.0478472
0.0517763
0.0540323
0.0518602
0.0514683
0.0511003
0.0547064
0.0638014
0.0481997
0.0484989
0.0527822
0.0488253
0.0609217
0.0525049
0.054781
0.04794
0.0469137
0.048165
0.0485864
0.0484828
0.0489119
0.0479419
0.051193
0.0508661
0.0501427
0.0557439
0.0556537
0.0494899
0.0492437
0.0485826
0.0537053
0.0521953
0.0530877
0.0525124
0.0456749
0.0472957
0.0544387
0.0647024
0.0449383
0.0447036
0.0510941
0.0648011
0.0517633
0.0459554
0.0567151
0.0647987
0.0647182
0.0644551
0.0643781
0.0641235
0.0640451
0.0637919
0.0637295
0.0634749
0.0634052
0.063153
0.0630978
0.0628375
0.0627668
0.0625227
0.062441
0.0621877
0.0621272
0.0618733
0.0618063
0.0615484
0.0614746
0.0612298
0.0611595
0.0609118
0.060848
0.0605887
0.0605262
0.0602698
0.0601966
0.0599467
0.0598805
0.0596282
0.0595625
0.059297
0.0592219
0.0589778
0.0589057
0.0586578
0.0585878
0.0583283
0.0582635
0.0580046
0.057933
0.0576756
0.057601
0.0573467
0.0572712
0.057017
0.0569316
0.0566841
0.0566094
0.0563558
0.0562887
0.0560527
0.0559749
0.0557291
0.0556717
0.0554214
0.0553664
0.0551008
0.0550356
0.0547729
0.0547046
0.0544375
0.0543598
0.0541134
0.0540362
0.0537872
0.0537132
0.0534619
0.0533979
0.0531344
0.0530711
0.052822
0.0527522
0.0525004
0.0524301
0.0521802
0.0521089
0.0518581
0.0517874
0.051531
0.0514593
0.0512025
0.0511333
0.0508746
0.050801
0.0505459
0.0504807
0.0502307
0.05015
0.0499015
0.0498341
0.0495641
0.0495116
0.0492402
0.0491695
0.0489156
0.0488368
0.0485778
0.0485039
0.0482566
0.0481925
0.0479381
0.0478791
0.0476034
0.047545
0.0472895
0.047205
0.046972
0.0469006
0.046649
0.0465916
0.04632
0.046266
0.0459986
0.0459258
0.0456699
0.0456008
0.0453447
0.0452737
0.0450182
0.0449598
0.0447022
0.0446361
0.0443926
0.0443252
0.0647893
0.0647082
0.0644485
0.0643676
0.0641192
0.064044
0.0637943
0.0637164
0.0634679
0.0633921
0.0631507
0.0630795
0.0628324
0.0627623
0.062512
0.0624301
0.0621969
0.0621169
0.0618777
0.061807
0.061548
0.0614729
0.0612219
0.0611455
0.0609045
0.0608317
0.0605816
0.0605043
0.0602556
0.0601812
0.0599429
0.0598717
0.0596227
0.0595595
0.0592922
0.05922
0.0589718
0.058896
0.0586557
0.0585825
0.0583275
0.0582466
0.0580016
0.0579264
0.0576724
0.0575962
0.0573435
0.0572605
0.0570028
0.0569256
0.0566712
0.0565866
0.0563402
0.0562717
0.0560484
0.0559799
0.0557328
0.0556541
0.0554084
0.0553302
0.0550907
0.0550169
0.0547581
0.0546811
0.0544261
0.054349
0.0541131
0.0540377
0.0537798
0.0537029
0.0534514
0.0533651
0.0531265
0.0530573
0.0528123
0.0527379
0.052496
0.0524173
0.0521694
0.0520943
0.0518459
0.0517739
0.0515257
0.0514448
0.051197
0.0511329
0.0508727
0.0507997
0.0505408
0.050468
0.0502216
0.0501449
0.0498951
0.0498178
0.0495706
0.0494916
0.0492303
0.0491614
0.0489132
0.0488401
0.0485885
0.0485135
0.0482543
0.0481907
0.0479364
0.0478514
0.0476018
0.0475281
0.0472787
0.0472127
0.0469666
0.0468851
0.0466435
0.0465645
0.046314
0.0462372
0.0459883
0.0459239
0.0456758
0.045598
0.0453425
0.0452642
0.0450225
0.0449428
0.0446971
0.0446358
0.0443848
0.0443082
0.0647858
0.0647093
0.0644465
0.0643709
0.064117
0.0640355
0.0637942
0.0637139
0.0634659
0.0634
0.0631534
0.06307
0.0628251
0.0627559
0.0625006
0.062433
0.0621893
0.0621175
0.0618743
0.061796
0.0615511
0.0614794
0.0612253
0.0611471
0.0609054
0.0608296
0.0605868
0.0605131
0.0602606
0.0601927
0.059942
0.0598712
0.0596147
0.0595423
0.0592908
0.059216
0.0589684
0.0589009
0.0586553
0.0585791
0.058324
0.0582539
0.0580048
0.057929
0.0576672
0.0576007
0.0573395
0.0572579
0.0570032
0.0569272
0.0566691
0.0566029
0.0563499
0.0562777
0.0560428
0.0559749
0.0557279
0.0556473
0.0554034
0.0553331
0.0550875
0.0550112
0.0547498
0.0546747
0.0544202
0.0543557
0.0541077
0.0540271
0.0537816
0.0537039
0.053454
0.0533774
0.0531317
0.0530546
0.0528074
0.0527372
0.0524953
0.0524203
0.0521671
0.052093
0.0518456
0.0517739
0.0515257
0.051456
0.0511982
0.0511221
0.0508717
0.0507946
0.0505427
0.0504775
0.0502235
0.0501505
0.0498976
0.0498187
0.049569
0.0495011
0.0492479
0.0491701
0.0489104
0.0488443
0.0485917
0.0485085
0.0482637
0.048189
0.0479325
0.0478716
0.0476163
0.0475279
0.0472836
0.0472071
0.0469561
0.046881
0.0466391
0.0465589
0.0463105
0.046235
0.0459872
0.0459177
0.0456679
0.0455944
0.0453486
0.0452744
0.0450183
0.0449425
0.044693
0.0446115
0.0443778
0.0443023
0.0647796
0.0647025
0.0644445
0.0643653
0.0641077
0.0640341
0.0637907
0.0637115
0.063469
0.0633974
0.0631451
0.0630781
0.0628273
0.0627458
0.0625105
0.0624343
0.0621879
0.0621168
0.0618663
0.0617943
0.0615503
0.0614779
0.0612228
0.0611477
0.0608978
0.0608242
0.0605828
0.060502
0.0602667
0.0601915
0.0599507
0.0598786
0.0596257
0.0595552
0.0592989
0.0592252
0.0589744
0.0589029
0.0586573
0.0585833
0.0583305
0.0582558
0.0580039
0.0579307
0.057666
0.0575923
0.0573377
0.0572639
0.0570029
0.0569251
0.0566763
0.0566004
0.0563521
0.0562902
0.0560435
0.0559728
0.0557298
0.0556535
0.0554115
0.0553366
0.0550903
0.0550189
0.0547594
0.0546771
0.0544202
0.0543435
0.0540896
0.0540192
0.0537702
0.0536937
0.0534483
0.0533718
0.0531316
0.0530591
0.0528145
0.0527426
0.0524958
0.0524232
0.0521707
0.0520949
0.0518446
0.0517698
0.0515294
0.0514579
0.0512003
0.0511218
0.0508724
0.0507972
0.0505504
0.0504738
0.0502234
0.0501532
0.0498971
0.0498187
0.0495665
0.0494949
0.0492422
0.0491641
0.0489146
0.0488322
0.0485827
0.048516
0.0482734
0.0481881
0.0479319
0.047866
0.047607
0.0475319
0.0472835
0.0472041
0.0469563
0.0468839
0.0466389
0.0465596
0.0463175
0.0462377
0.0459902
0.0459106
0.0456626
0.0455872
0.0453456
0.045272
0.0450238
0.0449481
0.0446984
0.0446266
0.0443738
0.0443034
0.064782
0.0647037
0.0644493
0.0643739
0.0641137
0.0640364
0.0637869
0.063717
0.0634677
0.0633871
0.0631538
0.0630726
0.0628207
0.0627536
0.0625033
0.0624286
0.0621903
0.0621118
0.0618676
0.0617964
0.0615439
0.0614681
0.061223
0.0611494
0.0609015
0.0608273
0.0605775
0.0605106
0.0602662
0.0601943
0.0599495
0.0598775
0.0596268
0.0595535
0.0593065
0.0592402
0.0589801
0.0589007
0.0586532
0.0585795
0.0583333
0.0582519
0.0580117
0.0579337
0.0576733
0.0575954
0.0573411
0.0572634
0.0570062
0.0569345
0.0566848
0.0566129
0.0563656
0.0562896
0.0560447
0.055982
0.0557338
0.0556564
0.0554138
0.0553352
0.0550856
0.0550143
0.0547645
0.0546879
0.0544341
0.0543569
0.0540971
0.0540219
0.0537702
0.0537018
0.0534512
0.0533818
0.0531335
0.0530566
0.0528073
0.0527286
0.0524916
0.0524179
0.05217
0.0520946
0.0518462
0.0517758
0.0515273
0.0514567
0.0511994
0.0511264
0.0508728
0.0508003
0.0505491
0.0504731
0.0502197
0.0501476
0.049897
0.0498169
0.0495671
0.0494896
0.0492376
0.0491651
0.0489066
0.0488276
0.0485836
0.0485174
0.0482661
0.0481924
0.0479396
0.047859
0.0476023
0.0475353
0.0472783
0.0471902
0.0469504
0.0468808
0.0466266
0.0465516
0.0463093
0.0462288
0.0459848
0.0459109
0.0456613
0.0455847
0.0453452
0.0452688
0.0450197
0.0449453
0.0447018
0.0446257
0.0443775
0.044297
0.064779
0.0647109
0.0644561
0.0643763
0.0641126
0.0640352
0.0637898
0.063711
0.0634587
0.0633953
0.0631449
0.0630812
0.0628322
0.0627496
0.0625026
0.0624368
0.0621876
0.0621159
0.0618713
0.0617942
0.061542
0.0614705
0.0612216
0.0611557
0.0609096
0.0608265
0.0605819
0.0605122
0.0602698
0.0602005
0.0599559
0.0598834
0.0596352
0.0595544
0.0593125
0.0592365
0.0589746
0.0589018
0.058655
0.058581
0.0583275
0.0582549
0.058009
0.057927
0.0576712
0.0575943
0.0573399
0.0572636
0.0570093
0.0569335
0.0566954
0.0566227
0.056371
0.0562956
0.0560494
0.0559715
0.0557201
0.055649
0.0554057
0.0553337
0.0550836
0.0550053
0.0547602
0.0546873
0.0544295
0.0543524
0.0540986
0.0540184
0.0537735
0.0536996
0.0534531
0.0533848
0.0531399
0.0530632
0.0528096
0.0527394
0.0524941
0.0524246
0.0521743
0.0521032
0.0518533
0.0517778
0.0515285
0.0514593
0.0512033
0.0511289
0.0508778
0.050805
0.0505536
0.0504725
0.0502162
0.0501576
0.0498999
0.0498309
0.049568
0.0494863
0.049236
0.0491595
0.0489066
0.0488314
0.0485899
0.0485052
0.0482619
0.0481882
0.0479387
0.0478579
0.0476097
0.0475345
0.0472762
0.0472041
0.0469559
0.0468769
0.0466222
0.0465512
0.0463032
0.0462284
0.0459895
0.0459056
0.0456604
0.0455918
0.0453419
0.0452678
0.0450181
0.0449418
0.0446936
0.0446229
0.0443781
0.0443026
0.0647793
0.0647033
0.0644615
0.0643907
0.0641223
0.0640391
0.0637948
0.0637208
0.063474
0.0633992
0.0631449
0.0630786
0.0628299
0.0627516
0.0625122
0.0624326
0.0621877
0.0621189
0.0618689
0.0617927
0.0615495
0.0614712
0.0612225
0.0611543
0.0609039
0.0608274
0.0605826
0.0605056
0.0602658
0.0601955
0.0599507
0.0598736
0.0596302
0.0595614
0.0593157
0.0592341
0.0589816
0.0589177
0.0586596
0.0585781
0.0583292
0.0582574
0.0580029
0.0579339
0.0576757
0.057592
0.0573424
0.0572676
0.0570142
0.0569434
0.0566944
0.0566199
0.0563709
0.0562934
0.0560491
0.0559695
0.0557169
0.0556451
0.0553983
0.0553212
0.0550794
0.0550105
0.0547598
0.0546834
0.0544246
0.0543507
0.0540969
0.0540261
0.0537758
0.0537013
0.0534577
0.053392
0.0531397
0.0530745
0.0528226
0.0527451
0.0524991
0.0524233
0.0521756
0.0521006
0.051855
0.0517796
0.0515342
0.0514621
0.0512034
0.0511267
0.0508787
0.050801
0.0505472
0.0504787
0.0502271
0.0501488
0.0498869
0.0498358
0.0495659
0.049483
0.0492305
0.0491546
0.0489059
0.0488347
0.0485782
0.0484993
0.0482554
0.0481796
0.0479305
0.0478561
0.0476052
0.0475244
0.0472731
0.0471998
0.0469447
0.0468583
0.0466217
0.0465441
0.0462941
0.0462248
0.0459752
0.0459013
0.0456627
0.0455837
0.0453383
0.045263
0.0450184
0.0449442
0.0446896
0.0446196
0.0443711
0.0442968
0.0647848
0.064703
0.0644568
0.0643907
0.0641182
0.0640428
0.0637935
0.0637197
0.0634765
0.0633953
0.0631496
0.063073
0.0628266
0.0627584
0.0625097
0.0624308
0.0621918
0.0621147
0.0618608
0.0617966
0.0615455
0.0614682
0.0612222
0.0611413
0.0608969
0.0608337
0.0605817
0.0605047
0.0602743
0.0602074
0.059957
0.059884
0.0596344
0.0595633
0.059312
0.0592347
0.0589866
0.0589097
0.0586548
0.0585833
0.0583365
0.0582592
0.0580018
0.057928
0.0576708
0.057589
0.0573378
0.0572624
0.057012
0.0569334
0.056686
0.056616
0.0563665
0.0562954
0.0560448
0.0559665
0.0557198
0.0556454
0.055396
0.055324
0.0550801
0.055006
0.0547583
0.0546818
0.0544229
0.054355
0.0541005
0.0540262
0.053776
0.0537058
0.0534696
0.0534001
0.0531478
0.0530826
0.0528309
0.0527543
0.0525049
0.0524293
0.052177
0.0521029
0.0518593
0.0517879
0.0515424
0.051463
0.0512042
0.0511322
0.0508762
0.0508009
0.0505587
0.0504896
0.0502245
0.0501511
0.0498995
0.0498262
0.0495649
0.0494911
0.0492314
0.0491533
0.048904
0.0488292
0.0485782
0.0485067
0.0482545
0.048178
0.0479306
0.0478555
0.0475996
0.0475241
0.0472734
0.047197
0.0469371
0.0468717
0.0466254
0.0465443
0.0463036
0.0462263
0.0459783
0.0459091
0.045664
0.045589
0.0453385
0.0452688
0.0450219
0.0449472
0.0446923
0.0446124
0.044368
0.0442946
0.0650278
0.0647768
0.064703
0.0644518
0.0643646
0.0641183
0.0640597
0.0637998
0.0637207
0.063469
0.0633937
0.0631498
0.0630715
0.0628324
0.062758
0.0625092
0.0624442
0.0621949
0.0621152
0.0618674
0.0617974
0.0615485
0.0614787
0.0612249
0.0611499
0.060908
0.0608377
0.0605846
0.0605182
0.0602787
0.0601982
0.0599541
0.0598768
0.0596334
0.0595558
0.0593082
0.0592413
0.0589894
0.0589005
0.0586494
0.0585825
0.0583266
0.058254
0.058002
0.0579194
0.0576688
0.057594
0.0573401
0.0572607
0.0570111
0.0569354
0.0566872
0.0566168
0.0563692
0.0562991
0.0560485
0.0559838
0.0557226
0.0556403
0.0553984
0.0553202
0.055081
0.055006
0.0547566
0.0546788
0.054426
0.0543521
0.0541064
0.0540359
0.0537861
0.0537149
0.0534743
0.0534037
0.0531532
0.0530819
0.0528305
0.0527617
0.052511
0.0524301
0.052185
0.0521102
0.0518571
0.051784
0.0515372
0.0514647
0.051207
0.0511259
0.0508745
0.050801
0.0505553
0.0504714
0.0502235
0.0501471
0.0498912
0.0498165
0.0495622
0.0494947
0.049228
0.0491538
0.0489011
0.0488256
0.0485797
0.0485084
0.0482529
0.0481787
0.0479293
0.0478504
0.0475998
0.0475337
0.0472711
0.0471884
0.0469415
0.0468639
0.0466207
0.0465507
0.0462999
0.0462239
0.0459791
0.0459042
0.0456649
0.0455906
0.0453387
0.0452632
0.0450174
0.0449377
0.044691
0.0446189
0.044368
0.044287
0.065104
0.0650288
0.0647793
0.0646974
0.0644464
0.0643744
0.0641179
0.0640473
0.0637925
0.0637204
0.0634675
0.0633946
0.0631427
0.0630744
0.062829
0.0627507
0.0625069
0.0624348
0.062189
0.0621184
0.0618724
0.061791
0.0615466
0.0614704
0.0612241
0.0611497
0.0609103
0.060839
0.0605856
0.0605228
0.0602715
0.060191
0.0599511
0.0598784
0.0596329
0.0595575
0.0593102
0.0592369
0.0589749
0.0589094
0.0586501
0.0585664
0.0583164
0.058254
0.0579978
0.0579252
0.0576742
0.0576019
0.0573404
0.0572623
0.0570106
0.0569353
0.0566881
0.0566143
0.0563724
0.0562974
0.0560478
0.0559736
0.0557203
0.0556512
0.0554006
0.0553209
0.0550779
0.0549987
0.0547541
0.0546741
0.0544286
0.0543547
0.0541088
0.0540448
0.0537955
0.0537319
0.0534846
0.0534117
0.0531664
0.0530934
0.0528452
0.0527781
0.0525219
0.0524469
0.0521947
0.0521133
0.0518569
0.051782
0.0515308
0.0514624
0.0512077
0.0511302
0.0508768
0.0508018
0.0505447
0.0504698
0.0502203
0.0501404
0.0498912
0.0498257
0.0495643
0.0494801
0.0492278
0.0491537
0.0489002
0.048827
0.0485765
0.0485056
0.0482544
0.0481789
0.0479259
0.0478497
0.0476019
0.0475278
0.0472723
0.047201
0.0469482
0.046876
0.046628
0.0465523
0.0463013
0.0462256
0.0459766
0.0459067
0.0456594
0.0455844
0.045337
0.0452607
0.0450125
0.0449387
0.0446904
0.0446199
0.044367
0.0442908
0.0651038
0.0650247
0.0647782
0.0646964
0.0644507
0.0643711
0.0641209
0.0640469
0.0637904
0.0637211
0.0634685
0.0633901
0.063141
0.0630676
0.0628302
0.0627611
0.0625157
0.0624401
0.0621934
0.0621209
0.0618701
0.0617915
0.0615435
0.0614699
0.0612266
0.0611546
0.0609139
0.060839
0.0605872
0.0605146
0.0602613
0.0601971
0.0599557
0.0598808
0.0596318
0.0595634
0.0593096
0.0592281
0.058982
0.0589111
0.0586426
0.0585714
0.0583214
0.0582418
0.0579949
0.057922
0.0576685
0.0575984
0.0573431
0.0572669
0.0570171
0.0569391
0.0566947
0.0566203
0.0563742
0.0562983
0.0560462
0.0559755
0.0557196
0.0556533
0.0553991
0.055327
0.0550784
0.0549991
0.0547535
0.0546783
0.0544318
0.0543601
0.0541204
0.0540493
0.0538084
0.0537367
0.0534893
0.0534151
0.0531687
0.0530927
0.052846
0.0527691
0.0525154
0.0524434
0.0521842
0.0521009
0.0518564
0.0517889
0.0515366
0.0514582
0.0512099
0.0511337
0.0508811
0.0508045
0.0505398
0.050462
0.0502116
0.0501357
0.0498891
0.0498091
0.0495526
0.049477
0.0492282
0.0491531
0.0489002
0.0488228
0.0485762
0.0485043
0.0482547
0.0481771
0.0479267
0.0478522
0.047602
0.0475224
0.0472695
0.0472037
0.0469429
0.0468636
0.0466144
0.0465474
0.0463019
0.0462229
0.0459768
0.0459008
0.0456494
0.0455867
0.0453338
0.0452579
0.0450136
0.0449348
0.0446898
0.0446154
0.044369
0.0443009
0.0650996
0.065025
0.0647706
0.0646969
0.0644455
0.0643649
0.0641242
0.0640511
0.0637943
0.06372
0.0634661
0.0633962
0.0631443
0.0630701
0.0628265
0.0627587
0.062514
0.0624443
0.0621958
0.0621225
0.0618699
0.0617972
0.0615533
0.0614814
0.0612314
0.0611703
0.0609202
0.0608432
0.0605974
0.0605263
0.0602728
0.0602051
0.0599561
0.059883
0.0596395
0.0595647
0.0593043
0.0592294
0.0589836
0.0589065
0.0586532
0.0585774
0.0583213
0.0582504
0.0579982
0.0579223
0.0576627
0.0575905
0.0573363
0.0572691
0.0570095
0.0569344
0.0566941
0.0566196
0.0563771
0.0563033
0.0560526
0.0559775
0.055724
0.0556453
0.0553946
0.0553273
0.0550769
0.055007
0.0547576
0.0546799
0.0544358
0.0543604
0.054123
0.0540505
0.0538094
0.0537313
0.0534873
0.05341
0.0531624
0.0530874
0.0528407
0.0527628
0.0525019
0.0524387
0.052187
0.0521164
0.0518663
0.0517841
0.0515294
0.0514587
0.051206
0.0511352
0.0508762
0.0507978
0.0505418
0.0504568
0.0502043
0.0501303
0.049883
0.0498042
0.0495535
0.0494881
0.0492308
0.0491543
0.0489059
0.0488306
0.0485815
0.0485079
0.0482514
0.0481748
0.0479332
0.0478592
0.0476092
0.0475301
0.047279
0.0471992
0.0469458
0.0468804
0.0466208
0.0465439
0.0462992
0.0462284
0.0459799
0.0459021
0.0456512
0.0455792
0.0453328
0.0452585
0.0450105
0.0449336
0.0446896
0.0446162
0.0443663
0.0443002
0.065104
0.0650234
0.0647697
0.0646932
0.0644402
0.0643694
0.0641253
0.0640478
0.0637957
0.063722
0.0634649
0.0633918
0.0631441
0.0630808
0.062832
0.0627587
0.0625168
0.0624468
0.0621999
0.0621249
0.0618697
0.0617983
0.0615534
0.061474
0.0612318
0.061157
0.0609109
0.0608405
0.0605975
0.0605231
0.0602788
0.0602004
0.0599515
0.059881
0.0596298
0.0595558
0.0593057
0.0592298
0.0589803
0.0589075
0.0586553
0.0585792
0.0583214
0.058244
0.0579946
0.0579152
0.0576631
0.0575954
0.0573376
0.057256
0.057014
0.0569448
0.056697
0.0566227
0.0563774
0.0563004
0.056053
0.0559736
0.0557193
0.0556481
0.055401
0.0553273
0.0550775
0.0550086
0.0547563
0.0546848
0.0544356
0.0543593
0.054122
0.0540485
0.0538079
0.0537383
0.0534871
0.0534073
0.0531602
0.0530817
0.0528357
0.0527618
0.0525149
0.0524344
0.0521764
0.0521115
0.0518579
0.0517712
0.051529
0.0514516
0.0512071
0.0511341
0.0508764
0.0508012
0.0505382
0.0504554
0.0502066
0.0501309
0.0498807
0.049803
0.0495563
0.0494863
0.0492264
0.0491521
0.0489031
0.0488251
0.0485786
0.0485038
0.0482537
0.0481831
0.0479358
0.0478585
0.0476102
0.0475324
0.0472793
0.0472018
0.0469559
0.0468881
0.0466211
0.0465486
0.046302
0.0462282
0.0459793
0.045907
0.0456547
0.0455774
0.0453311
0.0452596
0.0450127
0.0449351
0.0446959
0.044625
0.0443747
0.0443019
0.0650991
0.0650223
0.0647723
0.0646921
0.0644451
0.0643724
0.0641273
0.0640557
0.0637992
0.0637256
0.0634729
0.0633991
0.0631541
0.063079
0.06283
0.0627603
0.0625176
0.0624464
0.0622046
0.0621324
0.0618747
0.0617992
0.0615482
0.0614762
0.061233
0.0611556
0.0609117
0.0608365
0.0605938
0.0605222
0.0602773
0.060203
0.0599547
0.0598783
0.059631
0.0595607
0.059307
0.0592388
0.058979
0.058901
0.05865
0.0585705
0.0583181
0.0582435
0.0579958
0.0579195
0.0576715
0.0575951
0.0573385
0.0572748
0.0570173
0.0569488
0.0567058
0.0566278
0.0563748
0.0563009
0.0560523
0.0559744
0.0557269
0.0556579
0.0554072
0.0553351
0.0550816
0.0550095
0.0547605
0.0546885
0.0544366
0.0543637
0.0541283
0.0540564
0.0538141
0.0537382
0.0534851
0.0534092
0.0531594
0.0530782
0.0528337
0.0527568
0.0525103
0.0524333
0.0521753
0.0520966
0.0518409
0.0517708
0.0515296
0.0514527
0.0512058
0.0511267
0.0508743
0.0508044
0.0505285
0.0504541
0.0502086
0.0501321
0.049881
0.049805
0.049559
0.0494796
0.0492306
0.0491563
0.0489046
0.0488318
0.0485829
0.0485089
0.0482572
0.0481841
0.0479304
0.0478563
0.0476083
0.0475313
0.0472809
0.0472033
0.0469584
0.0468789
0.0466315
0.0465613
0.0463082
0.046228
0.04598
0.0459126
0.0456567
0.0455817
0.0453362
0.0452664
0.0450155
0.0449457
0.0446993
0.0446218
0.0443732
0.0443047
0.0650995
0.0650245
0.0647723
0.0646947
0.0644476
0.0643678
0.0641207
0.0640456
0.0638001
0.0637185
0.0634709
0.0633989
0.0631546
0.063081
0.0628341
0.0627623
0.0625201
0.062454
0.062205
0.0621373
0.0618741
0.0617916
0.0615544
0.0614835
0.0612305
0.0611661
0.0609121
0.0608356
0.0605915
0.060522
0.0602752
0.0602001
0.0599557
0.0598779
0.0596333
0.0595559
0.0593041
0.0592316
0.058977
0.058896
0.0586487
0.0585768
0.0583267
0.0582519
0.0580008
0.0579288
0.0576727
0.0575957
0.0573513
0.0572805
0.0570194
0.0569485
0.0567039
0.0566248
0.0563834
0.0563103
0.0560549
0.0559835
0.0557323
0.0556542
0.0554077
0.05533
0.0550822
0.0550077
0.05476
0.0546852
0.0544348
0.054365
0.0541259
0.0540517
0.0538117
0.053733
0.0534739
0.0533981
0.0531489
0.0530676
0.0528294
0.0527541
0.0525047
0.0524331
0.0521768
0.0520982
0.051853
0.0517815
0.0515284
0.0514564
0.0512053
0.0511292
0.0508756
0.0507946
0.0505339
0.0504631
0.0502114
0.050141
0.0498833
0.0498062
0.0495549
0.0494815
0.0492356
0.0491594
0.0489094
0.0488334
0.0485838
0.0485092
0.0482622
0.0481844
0.0479297
0.0478583
0.0476065
0.0475332
0.0472828
0.047204
0.0469504
0.0468737
0.0466308
0.0465538
0.0463002
0.0462291
0.0459786
0.0458976
0.0456539
0.045581
0.0453401
0.0452579
0.0450152
0.0449491
0.0446982
0.0446271
0.0443721
0.0442982
0.0650992
0.0650173
0.064772
0.0647012
0.0644507
0.0643716
0.0641257
0.0640517
0.0638
0.0637297
0.0634705
0.0633964
0.0631516
0.0630786
0.0628406
0.0627656
0.0625285
0.0624566
0.062208
0.0621382
0.0618786
0.0618092
0.0615594
0.0614845
0.061227
0.0611623
0.0609103
0.0608313
0.0605924
0.0605161
0.060271
0.0602066
0.0599546
0.0598769
0.0596314
0.0595511
0.0593011
0.0592252
0.0589694
0.058896
0.0586495
0.0585772
0.0583266
0.0582478
0.0580066
0.0579278
0.0576718
0.0576027
0.0573536
0.0572731
0.0570197
0.0569474
0.0567003
0.0566357
0.056387
0.0563071
0.0560586
0.0559823
0.0557288
0.055658
0.0554066
0.0553286
0.0550849
0.0550115
0.0547588
0.0546853
0.0544415
0.0543731
0.0541255
0.0540561
0.053806
0.0537228
0.0534766
0.0533968
0.0531421
0.0530739
0.0528269
0.0527515
0.0525086
0.0524348
0.0521757
0.0521091
0.0518579
0.0517737
0.0515301
0.0514538
0.0512007
0.0511283
0.0508681
0.0507868
0.0505362
0.0504583
0.0502034
0.0501315
0.0498794
0.0498027
0.0495549
0.049481
0.0492322
0.049157
0.0489139
0.0488407
0.0485803
0.0485087
0.0482608
0.0481831
0.047937
0.0478635
0.0476087
0.0475353
0.0472818
0.047207
0.0469509
0.0468822
0.0466319
0.0465588
0.0463036
0.0462279
0.0459721
0.0459025
0.0456562
0.0455833
0.0453377
0.0452686
0.0450124
0.0449337
0.0446989
0.0446255
0.0443817
0.0443059
0.0650935
0.065025
0.06477
0.0646965
0.064449
0.064377
0.064126
0.0640481
0.063802
0.0637263
0.0634737
0.0633958
0.0631526
0.063082
0.0628392
0.0627656
0.0625317
0.06246
0.0622099
0.0621346
0.0618854
0.0618144
0.0615604
0.0614789
0.0612281
0.0611448
0.0609044
0.0608335
0.060585
0.0605074
0.0602697
0.0601991
0.0599413
0.0598704
0.0596191
0.0595407
0.0592961
0.0592187
0.0589732
0.0588972
0.0586486
0.0585777
0.0583283
0.0582636
0.0580158
0.0579423
0.0576847
0.0576049
0.0573523
0.0572773
0.05703
0.0569569
0.0567014
0.0566345
0.0563835
0.0563107
0.0560564
0.0559803
0.0557312
0.0556601
0.0554085
0.0553429
0.0550846
0.0550057
0.0547602
0.0546869
0.0544468
0.0543766
0.0541286
0.0540441
0.0537912
0.0537179
0.0534702
0.0533882
0.0531478
0.0530666
0.052825
0.0527531
0.0525076
0.0524259
0.0521808
0.0521074
0.0518468
0.0517731
0.0515239
0.0514425
0.0511964
0.0511158
0.0508626
0.0507898
0.0505407
0.0504619
0.0502071
0.0501358
0.0498808
0.0498114
0.0495589
0.0494837
0.0492351
0.0491637
0.0489177
0.0488435
0.0485894
0.0485159
0.0482602
0.0481915
0.0479388
0.0478576
0.0476081
0.0475342
0.0472811
0.0472043
0.046957
0.0468803
0.0466283
0.0465563
0.0463015
0.0462369
0.0459783
0.0459037
0.0456541
0.04558
0.045337
0.0452603
0.0450166
0.0449464
0.0446979
0.0446229
0.0443754
0.044299
0.0651017
0.0650287
0.0647656
0.0646959
0.0644518
0.0643838
0.0641277
0.0640527
0.0638023
0.0637315
0.0634736
0.0633982
0.0631547
0.0630829
0.0628415
0.0627715
0.0625368
0.0624599
0.0622116
0.062143
0.0618889
0.0618146
0.0615686
0.0614881
0.0612302
0.061155
0.0609042
0.0608238
0.060581
0.0605073
0.0602666
0.0601883
0.0599369
0.0598611
0.059618
0.0595437
0.0592928
0.0592234
0.0589695
0.0588933
0.0586499
0.0585795
0.0583254
0.0582604
0.0580121
0.057941
0.0576865
0.0576029
0.0573496
0.0572793
0.0570349
0.0569578
0.0567049
0.0566286
0.0563857
0.0563116
0.0560642
0.0559907
0.0557413
0.0556678
0.0554119
0.0553381
0.0550849
0.0550108
0.0547619
0.0546844
0.0544456
0.0543774
0.0541234
0.0540469
0.0537939
0.0537123
0.0534574
0.0533827
0.0531376
0.0530621
0.0528257
0.0527502
0.0525056
0.0524313
0.0521806
0.0521001
0.0518504
0.0517775
0.0515194
0.0514443
0.0511954
0.0511187
0.0508687
0.050799
0.0505458
0.0504694
0.0502145
0.0501361
0.0498806
0.0498106
0.049561
0.0494821
0.0492375
0.04916
0.0489141
0.0488424
0.0485913
0.0485162
0.0482647
0.0481922
0.0479368
0.0478605
0.0476133
0.0475342
0.0472819
0.0472075
0.0469534
0.0468789
0.0466293
0.0465592
0.0463004
0.0462341
0.0459756
0.0458931
0.0456514
0.0455818
0.0453374
0.0452686
0.045023
0.0449533
0.0446979
0.0446227
0.0443763
0.0443027
0.0651044
0.0650249
0.0647695
0.0646915
0.0644455
0.0643779
0.0641234
0.0640543
0.0638055
0.0637289
0.0634792
0.0634036
0.063158
0.063089
0.0628504
0.0627838
0.0625357
0.0624572
0.0622157
0.0621396
0.0618806
0.0618051
0.061558
0.0614886
0.0612283
0.0611415
0.0608935
0.0608184
0.0605782
0.0604996
0.0602626
0.0601888
0.0599473
0.0598739
0.0596243
0.0595468
0.0592973
0.0592182
0.0589694
0.0588976
0.0586546
0.0585792
0.0583325
0.0582532
0.0579957
0.0579469
0.0576854
0.0576088
0.0573583
0.0572855
0.0570373
0.0569609
0.0567061
0.0566312
0.0563835
0.0563139
0.05606
0.0559863
0.0557438
0.0556664
0.0554136
0.0553364
0.0550871
0.0550131
0.0547592
0.0546838
0.0544406
0.0543637
0.0541172
0.0540536
0.0537914
0.0537098
0.0534618
0.0533874
0.053134
0.053066
0.052827
0.0527519
0.052505
0.0524202
0.0521725
0.0521001
0.0518506
0.0517716
0.0515219
0.051452
0.0511936
0.0511198
0.0508676
0.0507895
0.0505479
0.0504726
0.0502121
0.0501259
0.0498797
0.0498102
0.0495569
0.0494837
0.0492361
0.0491604
0.0489128
0.048837
0.0485893
0.0485149
0.0482682
0.0481969
0.04794