/*--------------------------------*- C++ -*----------------------------------*\
| =========                 |                                                 |
| \\      /  F ield         | OpenFOAM: The Open Source CFD Toolbox           |
|  \\    /   O peration     | Version:  2206                                  |
|   \\  /    A nd           | Website:  www.openfoam.com                      |
|    \\/     M anipulation  |                                                 |
\*---------------------------------------------------------------------------*/
FoamFile
{
    version     2.0;
    format      ascii;
    arch        "LSB;label=32;scalar=64";
    class       volVectorField;
    location    "0.3";
    object      wallShearStress;
}
// * * * * * * * * * * * * * * * * * * * * * * * * * * * * * * * * * * * * * //

dimensions      [0 2 -2 0 0 0 0];

internalField   uniform (0 0 0);

boundaryField
{
    wall
    {
        type            calculated;
        value           nonuniform List<vector> 
8037
(
(1.02356e-06 2.61586e-07 -0.000303397)
(1.99752e-07 -2.80608e-08 -0.000302847)
(3.48886e-08 -6.55278e-08 -0.000302975)
(-2.51897e-07 -8.31075e-08 -0.000303012)
(-3.40681e-07 -7.50453e-08 -0.000302533)
(-2.71108e-07 -1.25544e-07 -0.000302642)
(-9.12506e-09 7.77452e-10 -0.00030215)
(6.91214e-07 1.59715e-07 -0.000302658)
(-1.25001e-07 -9.71061e-08 -0.000301775)
(4.37127e-07 6.42441e-08 -0.000302323)
(-1.26097e-07 -7.28694e-08 -0.000302116)
(3.43466e-08 -3.01223e-08 -0.000302745)
(6.34268e-08 5.30567e-08 -0.000302447)
(-1.47573e-07 -9.31998e-08 -0.000302181)
(-2.63569e-07 -3.99924e-08 -0.000302608)
(-3.5069e-08 -2.38787e-08 -0.00030236)
(7.42231e-08 2.12681e-08 -0.000302029)
(2.25529e-07 4.36705e-08 -0.000302512)
(-8.37019e-07 -2.59565e-07 -0.000301618)
(7.01273e-08 8.08016e-09 -0.000302714)
(-4.6558e-07 -2.04683e-07 -0.000301836)
(-2.30193e-07 -4.43929e-08 -0.000302768)
(-9.25393e-08 -7.72731e-08 -0.000302625)
(-5.72465e-08 -7.18437e-08 -0.000302674)
(3.02261e-07 5.34218e-08 -0.000302497)
(5.13418e-07 8.07735e-08 -0.000302284)
(-1.218e-07 -9.2398e-08 -0.00030198)
(-5.08359e-07 -1.87624e-07 -0.000302083)
(-2.82431e-07 -1.22268e-07 -0.000302446)
(5.0957e-07 1.18692e-07 -0.000302834)
(7.06728e-07 1.50863e-07 -0.000302689)
(5.10597e-07 1.44411e-07 -0.000302904)
(3.69432e-07 5.60472e-08 -0.00030236)
(-4.04678e-07 -1.44131e-07 -0.000302559)
(-6.59315e-07 -2.34275e-07 -0.000302855)
(-3.5774e-07 -1.19334e-07 -0.000302695)
(-1.20256e-07 -6.08429e-08 -0.000303211)
(-2.27369e-07 -8.89674e-08 -0.00030344)
(1.45584e-07 6.50467e-08 -0.000303325)
(6.45719e-07 1.39093e-07 -0.000303055)
(2.8304e-07 7.51245e-08 -0.000301974)
(2.62495e-07 3.91825e-08 -0.000302292)
(4.20267e-07 9.5716e-08 -0.000302981)
(3.7981e-07 5.43117e-08 -0.000301582)
(-7.18321e-08 -3.99199e-09 -0.000302409)
(6.37574e-07 1.8856e-07 -0.000302601)
(-4.20397e-09 -9.08229e-08 -0.000302078)
(2.51662e-07 1.09066e-07 -0.000303592)
(2.6562e-07 1.83956e-08 -0.000302368)
(3.63209e-08 -7.98748e-09 -0.000302425)
(9.20063e-08 -1.27568e-09 -0.000302595)
(9.72447e-08 -1.6644e-08 -0.000302574)
(-4.53984e-07 -1.32266e-07 -0.000302269)
(2.89138e-07 3.83199e-08 -0.000302875)
(-9.44573e-07 -3.07533e-07 -0.000302966)
(-2.16051e-07 -9.92689e-08 -0.000303609)
(1.90751e-08 -2.4031e-09 -0.000302395)
(-3.64247e-07 -1.78888e-07 -0.000302584)
(-4.67656e-07 -1.36493e-07 -0.000302154)
(-1.41397e-07 -4.46353e-08 -0.000302268)
(1.82958e-08 -5.13491e-08 -0.000302677)
(2.0074e-07 7.14502e-08 -0.000301839)
(7.09863e-08 8.86115e-09 -0.000302238)
(-2.06648e-07 -8.36357e-08 -0.00030247)
(5.30858e-07 2.22036e-07 -0.000318082)
(9.14712e-07 2.63814e-07 -0.000317655)
(4.04279e-07 1.19517e-07 -0.000317765)
(-1.98872e-08 1.77448e-08 -0.0003172)
(1.96359e-07 1.09499e-07 -0.000317157)
(1.74545e-07 1.17192e-07 -0.000317468)
(-3.1821e-07 -6.21856e-08 -0.000317292)
(2.30248e-07 6.92375e-08 -0.000316826)
(1.34585e-07 7.14475e-08 -0.00031634)
(-6.02177e-07 -1.20991e-07 -0.00031741)
(-8.45659e-07 -2.33668e-07 -0.000316791)
(6.47634e-08 5.93089e-08 -0.000317091)
(-3.10567e-07 -6.29153e-08 -0.000317764)
(-5.49565e-07 -1.01102e-07 -0.000316818)
(-8.12176e-08 -5.59271e-09 -0.000317117)
(3.33231e-08 1.91395e-08 -0.000317039)
(3.42333e-07 1.8139e-07 -0.000317326)
(2.45759e-07 5.89833e-08 -0.000316981)
(4.54449e-07 1.90993e-07 -0.000316482)
(-3.1856e-07 -1.91647e-08 -0.000317234)
(-5.28915e-07 -1.47875e-07 -0.000316628)
(-3.31617e-08 6.09417e-08 -0.00031728)
(-3.07411e-07 -5.58521e-08 -0.000317164)
(-2.28661e-08 2.15923e-08 -0.000317018)
(-1.6858e-07 -9.50153e-09 -0.000317218)
(-1.75619e-09 3.02994e-08 -0.000317115)
(-1.78025e-08 1.1171e-08 -0.000316746)
(-1.48589e-08 1.27473e-09 -0.000316838)
(-2.95806e-07 -6.0823e-08 -0.00031674)
(-5.21992e-07 -9.55546e-08 -0.000317286)
(-4.11998e-07 -8.27202e-08 -0.000317383)
(-4.15285e-08 1.04808e-08 -0.000316865)
(7.9529e-07 2.46828e-07 -0.000317448)
(2.30357e-07 9.7778e-08 -0.000317334)
(-1.23168e-07 -1.84322e-08 -0.000317274)
(7.13412e-08 2.06132e-08 -0.000317374)
(1.99649e-07 7.96949e-08 -0.000317786)
(-4.9184e-09 6.7348e-08 -0.000317833)
(3.32157e-07 1.22343e-07 -0.00031765)
(4.51514e-07 2.00499e-07 -0.000317924)
(-1.40181e-07 -2.18263e-08 -0.000317124)
(4.69037e-07 1.79724e-07 -0.00031675)
(-1.49125e-07 1.58762e-08 -0.000317046)
(-3.50591e-07 -5.91842e-08 -0.000316742)
(2.58972e-07 1.05515e-07 -0.000316866)
(4.27757e-07 1.90494e-07 -0.000316802)
(3.56767e-07 1.11599e-07 -0.000317484)
(1.1824e-07 1.0343e-07 -0.000317563)
(-3.38372e-07 -9.34175e-08 -0.000317285)
(7.43796e-07 2.31322e-07 -0.000317064)
(2.2358e-08 6.98328e-08 -0.000317251)
(1.98316e-08 1.02953e-08 -0.000317082)
(1.11823e-07 4.85592e-08 -0.000317144)
(-2.6759e-07 -2.12679e-08 -0.000317696)
(1.26449e-07 1.62035e-08 -0.000317429)
(-7.22752e-08 3.66074e-08 -0.000318155)
(-4.54524e-07 -7.7865e-08 -0.000317114)
(4.75684e-07 1.71903e-07 -0.00031709)
(-3.11827e-07 -5.40992e-08 -0.000317419)
(7.12822e-08 3.76153e-08 -0.000316938)
(1.5012e-07 6.467e-08 -0.000317316)
(-1.62696e-07 -2.91401e-08 -0.000316525)
(4.95102e-07 1.91631e-07 -0.00031673)
(2.48673e-07 8.19722e-08 -0.000316887)
(8.24607e-08 3.60181e-08 -0.000317575)
(6.43918e-07 6.00334e-08 -0.000303089)
(9.17983e-07 1.23751e-07 -0.000303228)
(1.00787e-06 1.48406e-07 -0.000302744)
(-1.61536e-07 -4.59017e-08 -0.000301886)
(-2.27376e-07 -9.15172e-08 -0.00030284)
(1.42421e-07 -2.63263e-09 -0.000302673)
(8.94351e-08 -1.46045e-08 -0.000302497)
(-1.32007e-07 -3.36845e-08 -0.000302136)
(-3.78497e-07 -1.13243e-07 -0.000302477)
(-5.34331e-07 -8.69921e-08 -0.0003017)
(-7.93442e-08 -4.53902e-08 -0.000302788)
(6.79908e-08 -3.80694e-08 -0.000302623)
(1.27589e-07 6.67182e-09 -0.00030301)
(9.9508e-08 -2.03257e-08 -0.00030292)
(-3.20539e-07 -1.25063e-07 -0.000302314)
(-2.522e-08 -2.61178e-08 -0.000302964)
(6.93812e-07 1.3862e-07 -0.000302412)
(3.42133e-07 -1.76715e-08 -0.000301983)
(2.6814e-07 5.67429e-08 -0.000302279)
(-1.70151e-08 -3.22258e-08 -0.000301356)
(-6.01451e-07 -1.4302e-07 -0.000302454)
(-1.24536e-07 -4.90854e-08 -0.000302022)
(-1.93902e-07 -8.76797e-08 -0.000302758)
(-1.9403e-07 -1.76381e-08 -0.000302645)
(-3.94887e-07 -8.6532e-08 -0.000302635)
(-2.76213e-08 -2.96359e-08 -0.000302675)
(1.47046e-07 -1.3496e-08 -0.000302415)
(1.07445e-07 -1.36215e-08 -0.000301878)
(-3.76834e-07 -2.22028e-08 -0.000301792)
(-5.70726e-07 -9.97588e-08 -0.000302239)
(-5.81435e-07 -1.08054e-07 -0.000302968)
(2.91026e-07 2.22123e-08 -0.000303159)
(3.77629e-07 2.88589e-08 -0.000303004)
(6.51931e-07 1.05754e-07 -0.000302253)
(4.50146e-07 5.71557e-08 -0.000302203)
(2.5351e-07 -2.18977e-08 -0.000302741)
(1.13706e-07 -4.59428e-08 -0.000302756)
(3.34368e-07 4.40162e-08 -0.000303096)
(4.51164e-07 6.6977e-08 -0.000303083)
(1.36975e-07 6.3409e-09 -0.000303053)
(2.65201e-07 5.04639e-08 -0.000302941)
(1.81172e-07 -1.83163e-08 -0.000302072)
(-5.70514e-07 -1.21449e-07 -0.000301602)
(-3.20744e-07 -8.347e-08 -0.000303052)
(4.26649e-07 4.54391e-08 -0.000301791)
(5.06293e-07 5.62905e-08 -0.000302344)
(-1.57598e-08 -3.22637e-08 -0.00030213)
(1.18046e-06 1.72958e-07 -0.000302593)
(-2.48176e-07 -1.11778e-07 -0.000302803)
(5.27717e-07 1.42367e-09 -0.00030311)
(4.22137e-07 3.85391e-08 -0.000302276)
(-4.90562e-08 -5.74095e-08 -0.000302391)
(7.6918e-08 -2.42285e-08 -0.000302665)
(-8.80957e-08 -6.69024e-08 -0.000302325)
(3.37231e-07 2.83494e-08 -0.000303224)
(2.41769e-08 -2.97075e-08 -0.000302874)
(-1.5916e-07 -2.76731e-08 -0.00030316)
(-3.79178e-07 -1.17342e-07 -0.000302642)
(2.04882e-07 3.57082e-08 -0.0003028)
(3.88983e-07 -1.1882e-08 -0.000302445)
(-2.82658e-07 -8.99355e-08 -0.000302228)
(1.68888e-07 1.00282e-08 -0.0003028)
(1.68566e-07 -2.13944e-08 -0.000301859)
(-2.00956e-07 -8.67247e-08 -0.000302031)
(2.17204e-07 2.4824e-08 -0.000302632)
(-3.12448e-07 -8.83818e-09 -0.000317547)
(7.84795e-08 1.94061e-08 -0.000317178)
(7.37522e-07 1.89161e-07 -0.000317476)
(2.6192e-07 4.87116e-08 -0.000317186)
(-3.75062e-08 2.66259e-08 -0.000317061)
(-5.87488e-08 2.07071e-09 -0.000316984)
(-5.02773e-08 7.41681e-08 -0.000317374)
(-3.07246e-07 -4.9121e-08 -0.000316913)
(-3.82893e-07 -5.75168e-08 -0.000316284)
(5.13288e-07 1.38555e-07 -0.000317105)
(-4.33612e-07 -4.56298e-08 -0.000317579)
(4.88267e-08 3.0808e-08 -0.000316847)
(9.58586e-07 1.68788e-07 -0.000317326)
(6.5794e-07 1.44617e-07 -0.000317529)
(2.23142e-07 4.94422e-08 -0.000317242)
(5.01977e-07 1.5192e-07 -0.000317002)
(3.75507e-07 8.55407e-08 -0.000317021)
(8.62686e-09 6.54057e-09 -0.000317015)
(-8.02689e-08 -2.53247e-10 -0.00031615)
(4.8971e-07 1.20695e-07 -0.000316879)
(-5.31503e-07 -6.12446e-08 -0.000316997)
(3.47201e-08 2.65228e-08 -0.000317261)
(-1.26118e-07 3.68201e-08 -0.000317494)
(-4.16729e-07 -8.44299e-08 -0.00031706)
(-7.395e-08 6.43389e-08 -0.000317378)
(-4.02107e-07 -6.26568e-08 -0.000317146)
(-1.77959e-07 3.34563e-08 -0.00031677)
(-4.56938e-08 1.35794e-08 -0.000316881)
(2.86213e-07 9.88e-08 -0.000316519)
(2.0777e-07 9.18509e-08 -0.000317368)
(-8.58233e-08 -2.44034e-09 -0.000317938)
(-6.0293e-07 -5.10721e-08 -0.0003174)
(3.9793e-07 6.84543e-08 -0.00031704)
(8.42629e-07 1.73918e-07 -0.00031725)
(5.57506e-07 1.07051e-07 -0.000317143)
(-2.05694e-07 -2.07407e-08 -0.000317035)
(1.1276e-07 3.08472e-08 -0.000317544)
(2.80675e-07 1.25922e-07 -0.000318057)
(-2.05983e-07 1.14351e-08 -0.000317355)
(1.34623e-07 6.9969e-08 -0.000317425)
(-7.31087e-07 -7.08884e-08 -0.000317228)
(-1.34558e-07 6.76057e-10 -0.00031667)
(-2.59646e-07 -3.94934e-08 -0.000316983)
(-4.4099e-07 -1.38946e-08 -0.000317047)
(-5.12278e-07 -4.0287e-08 -0.000316894)
(-8.83761e-08 3.66159e-08 -0.000316843)
(-2.71016e-07 -3.91526e-08 -0.000317181)
(4.02384e-07 1.31902e-07 -0.000317249)
(-1.12144e-06 -1.65257e-07 -0.000317438)
(-2.5024e-07 -5.36636e-08 -0.000316936)
(3.63591e-07 9.32573e-08 -0.00031736)
(2.27194e-08 -1.11022e-08 -0.000316963)
(2.37116e-08 4.42517e-08 -0.000316968)
(2.74596e-07 4.44843e-08 -0.000317966)
(2.34368e-09 -2.74759e-09 -0.00031743)
(7.26869e-07 1.85743e-07 -0.00031788)
(-7.52807e-07 -1.35626e-07 -0.000317837)
(-3.59029e-07 -5.97464e-08 -0.000316955)
(3.99628e-07 1.1549e-07 -0.000317501)
(-1.53659e-07 -2.76797e-09 -0.000316955)
(2.88392e-07 6.65776e-08 -0.000317192)
(-1.43372e-07 7.84755e-09 -0.000316823)
(5.955e-08 -6.09938e-09 -0.000316838)
(1.61718e-07 6.96735e-08 -0.00031678)
(2.83352e-07 8.90052e-08 -0.00031715)
(-4.35143e-07 -1.948e-08 -0.000303032)
(-2.90806e-07 -6.27042e-08 -0.000303454)
(5.21237e-07 2.32272e-08 -0.000302984)
(7.91688e-07 -3.29462e-09 -0.000302041)
(-3.73336e-08 -4.18123e-08 -0.000302425)
(-6.11992e-07 -6.89394e-08 -0.000302368)
(-1.05445e-07 9.72974e-09 -0.000302852)
(1.9418e-07 -4.22887e-08 -0.000302638)
(-1.85727e-07 -4.1586e-08 -0.000302439)
(-2.13973e-07 -7.97081e-08 -0.000301937)
(-2.81852e-07 5.30041e-09 -0.000302686)
(1.93607e-07 -4.32318e-08 -0.000302614)
(-1.21527e-07 -4.04809e-08 -0.000302581)
(6.18076e-07 -3.23319e-08 -0.000303032)
(6.36713e-07 -2.47952e-08 -0.000302252)
(5.99622e-07 -4.6957e-09 -0.000302783)
(2.28476e-08 -2.68081e-08 -0.000302153)
(3.3317e-07 -1.99102e-08 -0.000302015)
(-2.04656e-07 -8.40458e-08 -0.000301924)
(-1.44088e-07 -6.69071e-08 -0.000301398)
(2.22502e-07 -4.37038e-08 -0.00030254)
(2.2357e-07 -1.60167e-08 -0.000302189)
(2.10603e-07 -2.64385e-08 -0.00030261)
(-6.01229e-07 -7.38316e-08 -0.000302581)
(-2.41435e-07 -4.76106e-08 -0.00030303)
(-3.70237e-07 -4.02138e-08 -0.000302806)
(-2.1181e-07 -4.52978e-08 -0.000302432)
(2.96579e-07 -3.04168e-08 -0.000302194)
(3.526e-07 -5.10289e-08 -0.000301915)
(6.07834e-08 -2.74004e-08 -0.000302102)
(3.24879e-08 -2.51195e-08 -0.000303222)
(-2.9384e-07 -1.25969e-08 -0.000302985)
(4.47717e-08 -5.39963e-08 -0.000303391)
(6.63252e-07 -1.3492e-08 -0.000302482)
(2.93373e-07 -2.23608e-08 -0.00030175)
(1.61376e-08 -2.24628e-08 -0.000302375)
(5.90562e-07 4.17932e-08 -0.000303067)
(4.10933e-07 6.99201e-09 -0.000303048)
(-1.90026e-08 -4.35341e-08 -0.000302854)
(-5.51781e-07 -7.28154e-08 -0.000302997)
(-1.24942e-06 -7.26702e-08 -0.000302543)
(1.96668e-08 -3.43221e-08 -0.000302759)
(-5.81083e-07 -7.08758e-08 -0.000301582)
(-7.28488e-07 -4.75776e-08 -0.000302884)
(-3.21702e-07 -8.83548e-08 -0.00030222)
(1.86019e-07 -3.77182e-08 -0.000303097)
(-4.80672e-07 -7.61384e-08 -0.000301958)
(3.96573e-07 1.98022e-09 -0.000303137)
(-6.11964e-07 -8.29535e-08 -0.000302296)
(3.1634e-07 6.75523e-09 -0.000303595)
(2.93075e-07 -2.60343e-08 -0.000302073)
(-4.14682e-09 -2.31873e-08 -0.000302195)
(1.55623e-07 -6.9009e-09 -0.000302397)
(3.60663e-07 -6.51851e-09 -0.000302429)
(2.76176e-07 -1.03509e-08 -0.000302888)
(7.81669e-07 -3.98321e-10 -0.000303169)
(-3.64756e-07 -6.62422e-08 -0.000302651)
(-1.78693e-07 -3.64674e-08 -0.00030268)
(-2.45153e-07 -5.0707e-08 -0.000302842)
(1.0624e-07 -1.04224e-08 -0.000302203)
(3.30452e-07 -3.55967e-08 -0.00030223)
(8.95068e-08 -2.09513e-08 -0.000302493)
(7.4142e-08 -7.15238e-08 -0.000301966)
(-1.04384e-07 -1.87583e-08 -0.00030201)
(-1.80331e-07 -9.41764e-08 -0.000302647)
(5.28393e-07 9.3768e-08 -0.000318032)
(-2.16183e-07 1.80328e-09 -0.000317719)
(3.45885e-07 6.383e-08 -0.000317312)
(2.24007e-07 3.80697e-08 -0.000316946)
(1.33953e-08 3.68537e-08 -0.000317049)
(-4.33719e-07 1.43462e-08 -0.000317157)
(6.84372e-07 7.09725e-08 -0.000317399)
(2.33402e-07 4.88689e-08 -0.000316905)
(-3.59884e-07 9.07822e-09 -0.000316902)
(1.0406e-07 5.00188e-09 -0.000316475)
(4.51237e-07 1.04156e-07 -0.00031766)
(-3.04801e-07 4.57649e-08 -0.000317448)
(3.23569e-07 -4.7543e-10 -0.000317071)
(1.06899e-06 6.91553e-08 -0.000317143)
(4.57325e-07 2.06051e-08 -0.000317138)
(7.6869e-07 6.79367e-08 -0.000316837)
(5.05933e-07 4.93101e-08 -0.000316785)
(1.70881e-07 2.60007e-08 -0.000316782)
(-8.61104e-07 1.64483e-09 -0.000316368)
(-4.51976e-07 -6.67638e-08 -0.000316532)
(-2.33563e-07 3.56467e-08 -0.000317018)
(4.20413e-08 5.01062e-08 -0.000317023)
(-2.77041e-07 1.88273e-08 -0.000317418)
(-9.16361e-08 2.50091e-08 -0.000317293)
(1.73639e-08 8.0933e-08 -0.00031712)
(-1.24769e-07 2.20042e-08 -0.000317133)
(-9.33563e-08 2.17268e-08 -0.00031691)
(-2.11336e-07 1.01878e-08 -0.000317017)
(-2.59773e-07 -3.53204e-09 -0.000316825)
(3.09806e-07 2.66183e-08 -0.000317207)
(5.89858e-07 7.88292e-08 -0.000317376)
(2.26145e-07 4.87821e-08 -0.000318243)
(-4.14238e-07 -1.90258e-08 -0.000317219)
(-2.74227e-07 5.35592e-08 -0.00031697)
(1.73497e-07 5.00685e-09 -0.000316828)
(-7.51118e-08 3.29686e-08 -0.000317072)
(4.34803e-07 8.38386e-08 -0.000317355)
(9.03155e-07 8.78411e-08 -0.000317886)
(-6.19409e-09 1.8017e-08 -0.000317943)
(-2.48845e-07 1.14581e-08 -0.000317231)
(-3.69074e-07 1.83199e-08 -0.000317588)
(-6.97099e-07 2.2236e-08 -0.000316777)
(-3.83231e-07 2.50492e-08 -0.000317043)
(-5.01214e-07 -6.60551e-09 -0.000317044)
(-1.16209e-06 -8.37201e-08 -0.00031732)
(-3.34418e-07 9.36286e-09 -0.000317436)
(-3.40389e-07 1.37109e-08 -0.000317405)
(3.9258e-07 1.83581e-08 -0.000316942)
(1.66956e-07 6.23214e-08 -0.000317713)
(-3.99387e-07 1.18452e-08 -0.000317097)
(-2.23566e-07 1.99007e-08 -0.00031709)
(4.04061e-07 1.68715e-08 -0.000316855)
(-1.67381e-07 4.73336e-08 -0.000316799)
(2.92445e-07 2.97031e-08 -0.000317572)
(-1.30948e-07 -5.67016e-09 -0.000317787)
(5.50849e-07 5.07195e-08 -0.000317039)
(4.57538e-07 6.18636e-08 -0.000317754)
(-5.30005e-07 6.78271e-09 -0.000317134)
(2.08605e-08 1.70787e-08 -0.000317143)
(-1.2089e-07 2.09772e-08 -0.000317137)
(1.40309e-08 6.1808e-08 -0.000316609)
(-2.49666e-07 6.52614e-09 -0.000316704)
(-4.3613e-07 -1.15012e-08 -0.000317026)
(8.58828e-08 5.367e-09 -0.000317177)
(-3.02651e-07 -4.04594e-09 -0.000317409)
(2.17795e-07 -3.30864e-08 -0.000303173)
(-1.96013e-08 -2.0391e-08 -0.000303159)
(-2.69845e-07 5.4353e-09 -0.000302892)
(3.35494e-07 -6.07247e-08 -0.000302227)
(2.62271e-07 -4.69233e-08 -0.000302618)
(8.61512e-08 -1.72376e-08 -0.000302342)
(-6.00569e-08 -6.35929e-08 -0.000302966)
(-1.83591e-07 -6.03865e-09 -0.000302403)
(1.61268e-08 -2.5838e-08 -0.000302344)
(8.93862e-08 -7.08319e-08 -0.000302008)
(-2.77901e-07 -1.22662e-08 -0.000302574)
(6.4955e-07 2.24514e-08 -0.000302755)
(3.88019e-07 -5.4491e-08 -0.00030267)
(1.69285e-07 -3.94485e-08 -0.000302737)
(5.56344e-07 -4.80978e-08 -0.000302129)
(7.54166e-07 -9.03243e-08 -0.000302543)
(2.88711e-07 -4.70804e-08 -0.000301942)
(5.96207e-08 -2.78887e-08 -0.000301777)
(7.37534e-08 -2.95953e-08 -0.000302027)
(-6.75135e-07 1.0733e-08 -0.000301627)
(-2.96992e-07 4.76091e-09 -0.000302647)
(2.0206e-07 -6.74818e-08 -0.000302638)
(3.69053e-07 -4.65333e-08 -0.000302736)
(-2.61327e-07 -6.03617e-08 -0.000302341)
(-1.36938e-07 1.06612e-08 -0.000302628)
(-3.92052e-07 -2.66841e-08 -0.000302671)
(-8.30045e-08 -1.10115e-08 -0.000302568)
(-1.06758e-08 -3.07931e-08 -0.00030239)
(6.07018e-07 -6.46122e-08 -0.000302357)
(1.95862e-07 -1.39831e-08 -0.000301944)
(3.52467e-07 -4.80156e-08 -0.000302997)
(1.14088e-07 -2.86498e-08 -0.000302834)
(-2.65711e-07 9.48902e-09 -0.00030323)
(3.2838e-08 2.06617e-08 -0.000302548)
(2.07465e-07 -7.98096e-08 -0.000302239)
(-1.96731e-07 -1.80833e-08 -0.000302109)
(1.59897e-07 3.49803e-09 -0.000302865)
(6.20303e-07 -3.83934e-08 -0.000303069)
(4.92711e-07 -3.58979e-08 -0.000302486)
(-1.11055e-08 -7.87081e-08 -0.000302707)
(-9.31498e-07 -1.54572e-08 -0.000302546)
(-8.11899e-07 6.59114e-08 -0.000302904)
(-2.34905e-07 -4.66783e-08 -0.000302243)
(-9.18489e-07 1.72268e-08 -0.000302706)
(-1.23581e-06 9.40149e-09 -0.000302289)
(-1.87072e-07 2.47586e-08 -0.000303689)
(1.27105e-07 -1.87642e-08 -0.00030212)
(2.27131e-09 -4.52144e-08 -0.000303051)
(-8.31995e-08 -3.76059e-08 -0.000302067)
(-1.02991e-07 -1.82098e-08 -0.000303607)
(3.77042e-08 -2.24278e-08 -0.000302015)
(2.65946e-07 -8.11054e-08 -0.000302632)
(-1.80498e-07 -4.782e-08 -0.000302164)
(3.52246e-07 -3.90015e-08 -0.000302851)
(4.5493e-07 -5.77746e-08 -0.000302984)
(6.88768e-07 -4.03862e-08 -0.000303041)
(2.2863e-07 -4.47607e-08 -0.000302198)
(-7.89727e-08 -1.98606e-08 -0.000302414)
(-5.08001e-08 -2.10283e-08 -0.000302931)
(-3.73456e-07 -1.75345e-08 -0.000302174)
(2.50084e-07 -4.2473e-08 -0.000302525)
(-4.26285e-07 -8.51315e-09 -0.00030226)
(1.75647e-07 -2.01912e-09 -0.000302334)
(3.3034e-07 -5.63101e-08 -0.000302517)
(-2.23312e-07 3.49396e-08 -0.000302176)
(5.87152e-07 1.1359e-08 -0.000317517)
(5.41488e-08 7.62756e-08 -0.000317724)
(2.91514e-07 2.69738e-09 -0.000317339)
(-3.41659e-07 -9.34067e-09 -0.000317069)
(5.67299e-07 -1.04655e-08 -0.00031704)
(1.88323e-07 6.61164e-08 -0.000317654)
(-3.1948e-07 -7.31312e-09 -0.000317381)
(3.96524e-07 1.14034e-08 -0.000316671)
(2.99917e-07 2.73312e-08 -0.000317242)
(-2.46113e-07 -2.11763e-08 -0.000316849)
(4.34076e-07 4.26701e-08 -0.000317149)
(4.07496e-07 5.364e-08 -0.000317783)
(-3.71047e-08 5.57608e-08 -0.000317366)
(6.70813e-07 -2.793e-08 -0.000316926)
(1.2895e-07 3.65774e-08 -0.00031717)
(-3.20185e-07 3.14712e-08 -0.000316639)
(4.61269e-07 1.52547e-08 -0.000316453)
(-1.90316e-09 1.5194e-08 -0.000316225)
(-1.99212e-07 5.00378e-08 -0.000316717)
(-1.15189e-07 4.38937e-08 -0.000316844)
(-2.40081e-07 1.3718e-08 -0.000317305)
(3.00709e-07 -5.38076e-09 -0.000317079)
(7.75864e-08 1.22912e-08 -0.000317637)
(-1.05999e-07 3.77949e-08 -0.000317435)
(-4.09546e-07 -9.56115e-09 -0.000317113)
(2.51232e-08 4.5228e-08 -0.00031712)
(2.34492e-07 1.91314e-08 -0.000316781)
(3.32791e-07 3.0976e-09 -0.000316922)
(2.14548e-07 5.13571e-08 -0.00031719)
(4.55782e-07 -6.35836e-09 -0.000317379)
(1.17921e-07 2.34252e-08 -0.000317087)
(4.204e-07 2.45937e-08 -0.00031772)
(3.17041e-08 4.24257e-08 -0.000317229)
(-3.03054e-07 5.21393e-08 -0.000317368)
(-3.72775e-08 -5.01024e-09 -0.000316994)
(1.97828e-07 1.63681e-08 -0.000317284)
(6.16167e-08 1.18649e-08 -0.000317565)
(7.46416e-07 2.74017e-08 -0.000317199)
(6.55721e-07 -1.85403e-08 -0.000317725)
(-5.83961e-07 5.44694e-08 -0.000317127)
(-6.87421e-07 5.91638e-08 -0.000317486)
(-5.67585e-07 1.79518e-08 -0.00031743)
(-4.43943e-07 8.39844e-08 -0.000317395)
(-3.53638e-07 -9.15654e-11 -0.000316945)
(-2.93831e-07 5.88445e-08 -0.000317505)
(-1.72473e-07 6.77763e-08 -0.000317661)
(-6.70535e-08 5.7851e-08 -0.000317475)
(-1.35172e-07 -5.6323e-09 -0.000317171)
(2.20653e-07 3.2332e-08 -0.000317206)
(7.93759e-08 2.14315e-08 -0.000317356)
(-7.23802e-07 7.76463e-08 -0.00031743)
(-2.24489e-07 1.24834e-08 -0.000316761)
(2.03078e-07 -1.81664e-09 -0.00031725)
(1.60149e-07 2.12453e-08 -0.000317257)
(2.17815e-07 2.95377e-08 -0.000317971)
(-7.92024e-08 3.68851e-08 -0.000317085)
(5.14202e-07 -4.18953e-09 -0.000317042)
(5.99741e-08 5.96082e-08 -0.000317392)
(-3.78565e-07 4.62312e-08 -0.000316888)
(-9.70834e-08 1.88993e-08 -0.000317302)
(-1.14642e-07 2.44737e-08 -0.0003167)
(2.47889e-07 1.71206e-08 -0.000316654)
(3.73381e-07 3.15534e-08 -0.000317103)
(4.07584e-07 3.31823e-08 -0.000317045)
(3.8336e-07 2.31337e-08 -0.000317606)
(1.58946e-07 -7.80474e-08 -0.000303312)
(2.29759e-07 -1.40407e-08 -0.000302942)
(5.30001e-08 -7.30997e-08 -0.000303072)
(-5.67364e-07 6.03351e-08 -0.000301988)
(5.35867e-07 -1.34655e-07 -0.000303241)
(1.73524e-07 -5.50661e-08 -0.00030212)
(4.19455e-07 -9.68873e-08 -0.000303048)
(7.18923e-09 -4.20837e-08 -0.000302307)
(3.2013e-07 -6.43335e-08 -0.000302454)
(2.4243e-07 -9.74184e-08 -0.000302026)
(1.22484e-07 -3.08332e-08 -0.000302505)
(-2.27102e-07 4.07785e-08 -0.000302535)
(2.36312e-07 -4.05743e-08 -0.000302611)
(5.89886e-07 -1.4613e-07 -0.000302916)
(1.87071e-07 -3.92256e-08 -0.000301861)
(7.56952e-08 -1.88303e-08 -0.000302176)
(1.57243e-07 -7.92394e-08 -0.000302255)
(-3.08715e-07 -2.73998e-09 -0.000301598)
(-4.94753e-07 5.62732e-08 -0.000301717)
(1.43062e-07 -3.5407e-08 -0.000302073)
(-8.1749e-08 2.92013e-08 -0.000302337)
(1.63412e-07 -7.00761e-08 -0.000302767)
(1.10295e-08 -2.41969e-08 -0.000302592)
(4.66751e-07 -1.08696e-07 -0.000302416)
(-4.46106e-07 4.32108e-08 -0.00030239)
(-1.35062e-07 -2.87409e-09 -0.000302874)
(2.47596e-07 -8.50629e-08 -0.000302769)
(-6.69886e-08 -2.23929e-08 -0.000302167)
(6.66761e-07 -9.58084e-08 -0.000302312)
(7.35077e-07 -1.98102e-07 -0.000302276)
(1.26882e-07 -5.4432e-08 -0.000302751)
(-7.66635e-08 -4.87081e-08 -0.000302857)
(2.03758e-07 -7.34623e-08 -0.000303412)
(-2.64661e-07 2.03932e-08 -0.000302565)
(6.41515e-08 -4.65005e-08 -0.000302528)
(3.09322e-07 -9.57314e-08 -0.00030222)
(-3.11933e-07 4.55967e-09 -0.000302637)
(4.87978e-07 -9.0764e-08 -0.00030334)
(1.63908e-07 -6.46616e-08 -0.000302283)
(-3.98577e-07 1.40164e-08 -0.000302254)
(-1.739e-07 -4.83217e-09 -0.000302737)
(-9.18797e-07 8.73413e-08 -0.000302989)
(-3.73038e-07 9.24618e-08 -0.0003021)
(-3.65243e-07 5.57693e-08 -0.000302709)
(-3.72221e-07 2.49912e-08 -0.000302218)
(-2.9976e-07 1.13322e-08 -0.000303698)
(1.21666e-07 -4.76424e-08 -0.000302262)
(-1.64778e-07 -3.41173e-08 -0.000303177)
(3.03106e-07 -5.99146e-08 -0.000302329)
(-1.82802e-07 -1.49441e-08 -0.000303384)
(-5.2831e-07 7.78911e-08 -0.000301994)
(3.02806e-07 -4.05879e-08 -0.000303196)
(1.80569e-07 -5.96211e-08 -0.000302301)
(-1.91766e-07 2.5187e-08 -0.000302633)
(3.1013e-07 -6.97729e-08 -0.000303164)
(4.33246e-07 -1.10978e-07 -0.000303167)
(9.12428e-08 -7.00365e-08 -0.000301961)
(1.88467e-07 -6.63264e-08 -0.000302527)
(-3.0009e-07 5.40254e-08 -0.000302446)
(-3.16779e-07 1.73387e-08 -0.000302367)
(1.29843e-07 -4.06096e-08 -0.000302711)
(-9.83523e-08 -1.15972e-08 -0.000301988)
(-2.78976e-07 3.39537e-08 -0.000301979)
(7.0809e-07 -9.9832e-08 -0.000302526)
(5.98078e-07 -1.38018e-07 -0.00030216)
(1.83395e-07 -1.03045e-08 -0.000317432)
(3.91546e-07 -1.72947e-08 -0.000317818)
(1.75934e-07 -2.71305e-08 -0.000317058)
(6.37254e-08 3.26576e-08 -0.000317485)
(5.40982e-08 1.7218e-09 -0.000316804)
(7.09813e-07 -9.69438e-08 -0.000317398)
(-8.60282e-09 2.82532e-08 -0.000317495)
(5.2132e-08 2.95823e-08 -0.000316601)
(4.72398e-07 -5.51807e-08 -0.000316728)
(7.56951e-08 9.24533e-09 -0.000317213)
(2.44562e-07 2.86807e-08 -0.000317003)
(6.56438e-07 -6.50678e-08 -0.000317595)
(-1.90491e-07 9.5738e-08 -0.000317544)
(-1.43342e-07 4.54709e-08 -0.000316336)
(5.69948e-07 -5.17161e-08 -0.000316888)
(-4.40726e-07 1.17448e-07 -0.000316994)
(9.39084e-08 -1.61799e-08 -0.000316574)
(1.38077e-07 4.72434e-10 -0.000316265)
(-4.2668e-08 2.49614e-08 -0.000316795)
(2.73904e-07 2.55753e-08 -0.000316826)
(5.09799e-08 3.74682e-09 -0.000317271)
(2.57679e-07 -4.20407e-09 -0.000316843)
(7.35391e-07 -9.60455e-08 -0.000317388)
(2.68251e-07 7.55639e-09 -0.000317246)
(-1.99633e-08 2.4665e-08 -0.00031721)
(-1.49446e-07 6.12298e-08 -0.000317238)
(-3.87602e-07 7.06216e-08 -0.000316869)
(4.94791e-07 -3.41264e-08 -0.000316541)
(3.62266e-07 -7.11052e-09 -0.000317086)
(4.44503e-07 -6.12285e-08 -0.000317292)
(2.46107e-07 -2.53149e-08 -0.00031754)
(4.47754e-07 -4.18339e-08 -0.000317489)
(2.33868e-07 -1.97046e-08 -0.000316918)
(2.28884e-07 1.17593e-08 -0.000317399)
(2.80318e-07 -2.79195e-08 -0.000317148)
(1.39077e-07 -3.40077e-09 -0.000317089)
(-5.55775e-08 3.72289e-08 -0.000317917)
(-3.61969e-07 9.02602e-08 -0.000317267)
(2.66099e-07 -5.40162e-08 -0.000317136)
(-1.78293e-07 4.40158e-08 -0.000317375)
(-3.77681e-07 1.18115e-07 -0.000317272)
(8.13523e-09 2.74094e-08 -0.000317328)
(-3.54445e-07 7.47276e-08 -0.000317623)
(-4.00895e-07 1.16297e-07 -0.000316794)
(2.37487e-07 -2.08542e-09 -0.000317379)
(-5.20671e-09 6.88842e-08 -0.000317557)
(-5.5088e-07 5.87736e-08 -0.000317465)
(-6.7383e-08 4.41923e-08 -0.000317684)
(6.98115e-08 3.42113e-09 -0.000317204)
(3.7059e-07 -1.45522e-08 -0.000316934)
(5.16767e-07 -5.23996e-08 -0.000317827)
(-4.63415e-08 5.00253e-08 -0.000317128)
(5.64375e-07 -5.58018e-08 -0.000317193)
(4.94942e-07 -4.12904e-08 -0.000317247)
(1.46233e-07 6.41383e-10 -0.000317525)
(-1.18303e-07 7.00974e-08 -0.000317602)
(-7.55697e-07 9.8239e-08 -0.000316836)
(3.91422e-07 -2.27904e-08 -0.000317298)
(3.38242e-08 3.06113e-08 -0.000317133)
(4.48461e-08 4.95933e-08 -0.000316974)
(1.98073e-07 -8.20404e-09 -0.000317239)
(8.36242e-08 4.84708e-08 -0.000316562)
(3.22283e-07 -3.35284e-08 -0.000316986)
(1.97217e-07 1.69665e-08 -0.000316882)
(3.35303e-07 3.53314e-09 -0.000317041)
(3.7495e-07 -1.20174e-07 -0.000303534)
(-3.16608e-07 4.8186e-08 -0.00030244)
(3.52888e-07 -1.21224e-07 -0.000303144)
(5.8715e-08 -4.79594e-08 -0.000301726)
(3.55681e-07 -1.47206e-07 -0.000303059)
(3.71613e-08 -5.69949e-08 -0.000302175)
(5.53653e-08 -2.89619e-08 -0.000302749)
(5.73594e-07 -1.81102e-07 -0.000302773)
(-1.18792e-07 -9.36584e-09 -0.000302112)
(1.29354e-07 -5.53288e-08 -0.000301919)
(7.1648e-07 -2.3019e-07 -0.00030283)
(2.862e-07 -1.18575e-07 -0.000302733)
(-3.52043e-07 8.99543e-08 -0.000302424)
(3.40472e-07 -1.08617e-07 -0.000303269)
(2.83453e-07 -8.41074e-08 -0.000301867)
(-2.1968e-08 -3.1585e-08 -0.000301646)
(2.30166e-07 -8.69288e-08 -0.000302475)
(2.5829e-07 -1.18895e-07 -0.000301511)
(-2.99186e-07 6.46652e-09 -0.000301434)
(4.84179e-07 -1.35566e-07 -0.000302448)
(4.82506e-08 -4.6138e-08 -0.000302131)
(5.47796e-07 -1.69105e-07 -0.000302767)
(9.44406e-08 -5.34219e-08 -0.000302188)
(6.10027e-07 -1.42419e-07 -0.000302369)
(4.96033e-07 -1.98201e-07 -0.000302383)
(-2.4876e-07 4.81063e-08 -0.000302564)
(-6.70179e-08 2.87843e-08 -0.000302768)
(4.59779e-07 -1.47857e-07 -0.000302482)
(-1.87897e-07 2.79195e-08 -0.000301902)
(6.78365e-07 -1.86225e-07 -0.000302464)
(7.9277e-07 -2.58219e-07 -0.000302683)
(4.00259e-08 -1.13821e-08 -0.000302191)
(-1.43013e-07 1.21959e-08 -0.000303033)
(-3.32349e-08 1.79422e-08 -0.000302407)
(1.81892e-10 -3.02388e-09 -0.000302344)
(2.47687e-07 -9.2736e-08 -0.000302324)
(2.13713e-07 -8.83714e-08 -0.000302969)
(-1.66176e-08 -2.32038e-08 -0.000303507)
(-1.18318e-07 -2.32713e-08 -0.000302682)
(-8.22342e-08 8.86737e-09 -0.000302317)
(-2.91714e-07 4.98569e-08 -0.000302412)
(1.99298e-07 -1.07319e-07 -0.000303491)
(-3.56624e-07 1.01605e-07 -0.000302093)
(-3.42959e-07 8.87846e-08 -0.000302682)
(2.89497e-07 -6.47449e-08 -0.000302591)
(-2.51415e-07 3.15481e-08 -0.000303248)
(-7.37395e-07 1.60684e-07 -0.00030201)
(4.14197e-07 -1.13058e-07 -0.000303944)
(2.26147e-07 -1.08604e-07 -0.000302297)
(3.29131e-07 -1.27426e-07 -0.000303109)
(1.12448e-07 -6.59338e-08 -0.000301919)
(-5.09688e-10 -2.90037e-08 -0.0003028)
(7.30058e-07 -2.33259e-07 -0.000302564)
(1.17361e-07 -8.08184e-08 -0.000302287)
(-3.06754e-07 5.97803e-08 -0.000302668)
(9.50741e-08 -6.23187e-08 -0.000303421)
(-1.49799e-07 2.83612e-08 -0.000302101)
(3.85256e-07 -1.28116e-07 -0.000302744)
(-1.12748e-07 -2.37266e-08 -0.000302274)
(-6.03773e-08 2.51183e-08 -0.00030226)
(2.0926e-07 -1.27473e-07 -0.000303047)
(6.19408e-07 -1.81152e-07 -0.0003022)
(-5.41469e-08 -5.05199e-08 -0.000302087)
(-2.32561e-07 5.35988e-08 -0.000302524)
(2.9549e-08 -2.45172e-08 -0.000302094)
(-3.21719e-07 1.3395e-07 -0.000317447)
(-4.00469e-07 1.00577e-07 -0.000317686)
(-5.47405e-07 1.92241e-07 -0.000316755)
(1.81163e-07 -2.0102e-08 -0.000317208)
(-6.02038e-07 1.58616e-07 -0.000317131)
(1.30064e-07 1.10531e-09 -0.000317033)
(1.26766e-07 -1.50203e-08 -0.0003175)
(3.4992e-07 -4.02892e-08 -0.000317015)
(4.64038e-07 -1.06955e-07 -0.000316522)
(4.03626e-07 -8.54748e-08 -0.000317122)
(-1.20763e-07 5.9215e-08 -0.000317356)
(5.54651e-07 -1.42545e-07 -0.000317175)
(7.46884e-07 -1.47826e-07 -0.000317828)
(-3.98603e-08 2.76307e-08 -0.000316821)
(5.9635e-07 -9.90698e-08 -0.000316176)
(-2.06768e-07 7.1593e-08 -0.000317016)
(-3.37219e-07 1.07512e-07 -0.000316453)