/*--------------------------------*- C++ -*----------------------------------*\
| =========                 |                                                 |
| \\      /  F ield         | OpenFOAM: The Open Source CFD Toolbox           |
|  \\    /   O peration     | Version:  2206                                  |
|   \\  /    A nd           | Website:  www.openfoam.com                      |
|    \\/     M anipulation  |                                                 |
\*---------------------------------------------------------------------------*/
FoamFile
{
    version     2.0;
    format      ascii;
    arch        "LSB;label=32;scalar=64";
    class       volScalarField;
    location    "130";
    object      k;
}
// * * * * * * * * * * * * * * * * * * * * * * * * * * * * * * * * * * * * * //

dimensions      [0 2 -2 0 0 0 0];

internalField   nonuniform List<scalar> 
67442
(
8.67237e-05
0.000120218
0.0001185
0.000120096
0.000121144
0.000118662
0.000119005
0.000121652
0.000119633
0.00012071
0.000119867
0.000122296
0.000117439
3.38943e-05
8.68176e-05
2.18612e-05
3.39322e-05
8.66622e-05
8.71219e-05
8.75672e-05
8.70421e-05
8.9289e-05
0.000105231
0.00011726
2.19005e-05
0.000101452
8.93107e-05
0.000116231
5.18549e-05
5.21031e-05
2.16437e-05
2.17183e-05
5.24746e-05
5.23461e-05
3.42427e-05
8.69929e-05
8.93789e-05
0.000102356
0.000115798
9.0196e-05
0.000102018
0.000115887
5.28714e-05
5.23649e-05
2.17215e-05
8.93784e-05
0.000104386
0.000116566
3.42849e-05
8.682e-05
0.000105232
8.99906e-05
0.000116785
3.40578e-05
8.74286e-05
0.000104943
8.88238e-05
0.000117008
3.38376e-05
8.73455e-05
5.2749e-05
5.26004e-05
2.16829e-05
0.000102439
8.92381e-05
0.000116364
3.38954e-05
8.70527e-05
3.385e-05
8.6737e-05
2.15109e-05
2.15242e-05
2.01194e-05
3.38156e-05
5.03667e-05
5.02766e-05
2.01321e-05
2.67745e-05
8.67912e-05
2.93919e-05
7.90638e-05
2.93369e-05
7.90105e-05
2.68044e-05
2.18358e-05
2.70064e-05
8.67558e-05
7.89441e-05
2.95915e-05
2.02102e-05
3.38622e-05
5.01697e-05
5.00526e-05
2.0248e-05
2.02688e-05
3.39622e-05
5.02252e-05
2.6922e-05
8.65206e-05
7.88753e-05
2.95737e-05
7.87729e-05
2.95024e-05
2.69828e-05
2.18608e-05
2.19222e-05
8.45609e-05
0.000106172
5.17484e-05
3.36005e-05
0.000106099
3.35425e-05
8.46437e-05
8.36268e-05
0.000105739
5.20476e-05
3.33153e-05
0.000105657
3.32685e-05
8.372e-05
4.06498e-05
1.97194e-05
1.96809e-05
1.96846e-05
1.96435e-05
4.07297e-05
2.16147e-05
2.16783e-05
2.17387e-05
8.5368e-05
0.000107066
5.2357e-05
3.39217e-05
3.38783e-05
0.000106985
8.54344e-05
8.43705e-05
0.000106577
5.22628e-05
3.36539e-05
3.35955e-05
0.000106499
8.44556e-05
4.10433e-05
1.98803e-05
1.98859e-05
1.98539e-05
1.98556e-05
4.11212e-05
2.03265e-05
3.42158e-05
5.09139e-05
5.08551e-05
2.034e-05
2.6934e-05
8.6928e-05
2.94229e-05
7.95505e-05
2.94101e-05
7.95359e-05
2.69521e-05
8.45788e-05
0.000107326
5.2808e-05
3.38239e-05
3.37868e-05
0.00010719
8.47487e-05
8.52697e-05
0.000106847
5.22736e-05
3.39459e-05
0.0001068
3.38496e-05
8.53292e-05
4.10598e-05
1.98902e-05
1.9913e-05
1.98644e-05
1.98704e-05
4.11389e-05
2.1679e-05
2.71502e-05
8.68952e-05
2.96556e-05
7.93143e-05
2.04007e-05
3.42096e-05
5.06049e-05
5.04832e-05
2.04535e-05
2.04475e-05
3.42912e-05
5.06204e-05
2.70649e-05
8.6694e-05
2.96358e-05
7.92576e-05
2.9566e-05
7.91184e-05
2.71269e-05
2.04454e-05
3.39928e-05
5.06261e-05
5.05371e-05
2.04832e-05
2.72512e-05
8.72857e-05
7.96832e-05
2.99464e-05
7.95394e-05
2.98708e-05
2.73141e-05
2.02921e-05
3.37723e-05
5.02387e-05
5.01384e-05
2.03261e-05
2.71206e-05
8.72489e-05
2.98859e-05
7.92198e-05
2.98181e-05
7.91216e-05
2.7179e-05
8.50706e-05
0.00010779
5.26439e-05
3.39223e-05
3.38596e-05
0.000107708
8.51791e-05
8.56037e-05
0.00010705
5.25433e-05
3.41442e-05
0.000106976
3.40916e-05
8.57331e-05
4.12454e-05
2.0022e-05
2.00283e-05
1.99922e-05
1.99953e-05
4.13559e-05
2.16606e-05
2.0188e-05
3.38577e-05
5.05104e-05
5.04818e-05
2.01922e-05
2.68637e-05
8.69416e-05
7.94024e-05
2.94106e-05
7.93801e-05
2.94135e-05
2.68736e-05
2.02084e-05
3.3786e-05
5.0592e-05
5.0538e-05
2.02202e-05
2.68731e-05
8.67837e-05
7.93057e-05
2.93995e-05
7.92509e-05
2.93488e-05
2.6878e-05
2.14757e-05
2.15021e-05
6.72151e-05
6.92982e-05
4.68781e-05
0.000110999
0.000122039
0.000121309
0.00012035
0.000122194
0.000121244
0.000111088
0.000111861
0.000122984
0.00012276
0.000121319
0.000123041
0.000122871
0.00011189
0.000112148
0.000123306
0.000122903
0.000122051
0.000123171
0.00012338
0.000112149
0.000112557
0.000124278
0.000123109
0.000122372
0.000123174
0.000124304
0.000112651
6.76597e-05
7.01021e-05
4.70402e-05
6.92519e-05
6.8173e-05
4.73373e-05
6.95782e-05
6.80107e-05
4.7269e-05
0.00012075
0.000117429
8.92166e-05
0.000105764
0.000117422
0.000105657
0.000120602
0.000120666
0.000117172
0.00011441
0.000118622
0.000114328
0.000118951
0.00012052
0.000119491
0.000117006
8.91865e-05
0.000105628
0.000116924
0.000105604
0.000119666
0.000118767
0.000116406
0.000116885
0.000113588
0.000116796
0.000113563
0.000118761
0.000119016
0.000116954
8.93368e-05
0.00010532
0.000105303
0.000116993
0.000119033
0.000118276
0.000115963
0.000113097
0.000116577
0.000113128
0.000116807
0.000117982
0.000120034
0.000117637
9.01494e-05
0.000106203
0.00010627
0.000117702
0.000119775
0.000118491
0.000115926
0.000113792
0.000116686
0.000113803
0.000116765
0.000118632
0.000119942
0.000117517
8.92149e-05
0.000105358
0.000105255
0.000117568
0.000119987
0.000119642
0.000116604
0.000113445
0.000118642
0.000113383
0.000118621
0.000119613
0.000121039
0.00011834
8.99083e-05
0.000105991
0.000105936
0.000118412
0.000120994
0.00012038
0.00011673
0.000118911
0.000114031
0.000118999
0.000113949
0.000120386
0.000119716
0.00011662
8.87063e-05
0.000105103
0.000116578
0.00010501
0.000119714
0.000119686
0.000117092
0.000118751
0.00011351
0.000118573
0.000113467
0.000119681
0.000119461
0.000116713
8.91236e-05
0.00010545
0.00011671
0.000105385
0.000119457
0.000118657
0.00011629
0.00011672
0.000113605
0.00011672
0.000113738
0.000118694
6.24996e-06
1.45397e-06
2.53401e-07
5.46633e-08
2.41852e-07
6.31805e-06
1.51078e-06
2.69785e-07
6.09944e-08
2.73252e-07
6.32941e-06
1.4716e-06
2.56094e-07
5.49173e-08
2.42867e-07
6.37557e-06
1.52416e-06
2.72042e-07
6.13064e-08
2.74226e-07
6.25466e-06
1.49588e-06
2.67297e-07
6.07922e-08
2.73106e-07
6.3236e-06
1.51199e-06
2.70004e-07
6.11039e-08
2.73901e-07
6.32319e-06
1.47072e-06
2.55874e-07
5.47537e-08
2.4209e-07
6.32368e-06
1.51205e-06
2.70016e-07
6.11322e-08
2.74038e-07
6.39652e-06
1.48638e-06
2.58258e-07
5.49952e-08
2.43117e-07
6.35856e-06
1.4785e-06
2.57166e-07
5.49764e-08
2.43068e-07
6.31687e-06
1.46928e-06
2.55827e-07
5.49179e-08
2.42884e-07
6.26978e-06
1.49983e-06
2.67994e-07
6.08718e-08
2.73321e-07
6.25331e-06
1.45529e-06
2.53637e-07
5.469e-08
2.41975e-07
6.25454e-06
1.45554e-06
2.5364e-07
5.46564e-08
2.41811e-07
6.26099e-06
1.49749e-06
2.67628e-07
6.08968e-08
2.73711e-07
6.21623e-06
1.48639e-06
2.65642e-07
6.06005e-08
2.72799e-07
6.2792e-06
1.50065e-06
2.67985e-07
6.08065e-08
2.72895e-07
6.24811e-06
1.45454e-06
2.53518e-07
5.46518e-08
2.41773e-07
6.31497e-06
1.51035e-06
2.69706e-07
6.09411e-08
2.7292e-07
6.15318e-06
1.44871e-06
2.55352e-07
5.65052e-08
2.51324e-07
6.36273e-06
1.50384e-06
2.65635e-07
5.826e-08
2.58258e-07
6.37207e-06
1.52244e-06
2.71594e-07
6.11144e-08
2.73146e-07
6.32326e-06
1.4707e-06
2.55867e-07
5.47406e-08
2.42014e-07
6.33554e-06
1.47319e-06
2.56344e-07
5.49145e-08
2.42847e-07
6.36941e-06
1.52315e-06
2.71843e-07
6.11423e-08
2.73209e-07
6.3824e-06
1.5259e-06
2.72348e-07
6.13257e-08
2.74206e-07
6.42024e-06
1.49162e-06
2.59344e-07
5.53535e-08
2.44705e-07
6.4154e-06
1.49082e-06
2.59119e-07
5.51865e-08
2.43913e-07
6.35802e-06
1.47805e-06
2.57297e-07
5.51993e-08
2.44099e-07
6.35177e-06
1.4768e-06
2.57055e-07
5.51109e-08
2.43666e-07
5.96938e-06
1.42229e-06
2.53816e-07
5.89349e-08
2.68245e-07
5.94617e-06
1.41667e-06
2.52825e-07
5.88158e-08
2.68032e-07
5.96307e-06
1.42118e-06
2.53619e-07
5.88053e-08
2.67391e-07
5.93901e-06
1.41533e-06
2.52592e-07
5.87017e-08
2.67318e-07
6.25176e-06
1.49604e-06
2.67371e-07
6.07524e-08
2.72773e-07
6.31681e-06
1.51083e-06
2.6978e-07
6.09399e-08
2.72881e-07
6.32944e-06
1.51348e-06
2.70264e-07
6.11187e-08
2.73869e-07
6.31794e-06
1.46973e-06
2.55739e-07
5.47439e-08
2.42043e-07
6.48395e-06
1.50529e-06
2.6131e-07
5.54272e-08
2.44911e-07
6.47418e-06
1.50337e-06
2.60923e-07
5.52719e-08
2.44166e-07
6.02691e-06
1.43555e-06
2.56015e-07
5.91534e-08
2.68474e-07
6.01846e-06
1.43389e-06
2.55714e-07
5.90229e-08
2.67699e-07
6.31586e-06
1.51055e-06
2.69732e-07
6.09696e-08
2.7306e-07
6.18724e-06
1.45662e-06
2.56634e-07
5.66101e-08
2.51529e-07
6.37718e-06
1.50724e-06
2.66179e-07
5.82949e-08
2.58326e-07
6.43718e-06
1.53781e-06
2.74127e-07
6.13271e-08
2.73426e-07
6.38877e-06
1.48506e-06
2.5796e-07
5.48157e-08
2.42264e-07
6.39847e-06
1.48703e-06
2.58371e-07
5.49922e-08
2.43108e-07
6.35234e-06
1.47734e-06
2.56873e-07
5.47961e-08
2.42206e-07
6.39797e-06
1.52871e-06
2.72657e-07
6.12105e-08
2.73269e-07
6.31156e-06
1.46843e-06
2.55591e-07
5.47421e-08
2.42036e-07
6.48865e-06
1.50633e-06
2.61451e-07
5.54026e-08
2.44767e-07
6.48492e-06
1.50588e-06
2.61358e-07
5.53396e-08
2.44468e-07
6.05322e-06
1.44228e-06
2.57246e-07
5.93004e-08
2.68677e-07
6.26809e-06
1.5001e-06
2.68065e-07
6.0831e-08
2.72986e-07
6.30267e-06
1.50621e-06
2.68906e-07
6.08939e-08
2.73012e-07
6.25301e-06
1.456e-06
2.53764e-07
5.46808e-08
2.41915e-07
6.30598e-06
1.50715e-06
2.69076e-07
6.09006e-08
2.72984e-07
6.24646e-06
1.45425e-06
2.5347e-07
5.46363e-08
2.41736e-07
6.25617e-06
1.49676e-06
2.67474e-07
6.07468e-08
2.72732e-07
6.21382e-06
1.48617e-06
2.6561e-07
6.05521e-08
2.72464e-07
6.34845e-06
1.51676e-06
2.70636e-07
6.10586e-08
2.73249e-07
6.44732e-06
1.54017e-06
2.74521e-07
6.13712e-08
2.73523e-07
6.01643e-06
1.41804e-06
2.50383e-07
5.59473e-08
2.49778e-07
6.22286e-06
1.47226e-06
2.60584e-07
5.77122e-08
2.56594e-07
6.22288e-06
1.47296e-06
2.60726e-07
5.7714e-08
2.56549e-07
6.01695e-06
1.41779e-06
2.50321e-07
5.59453e-08
2.49801e-07
6.28046e-06
1.50046e-06
2.6793e-07
6.07946e-08
2.72843e-07
6.45412e-06
1.49895e-06
2.60373e-07
5.53449e-08
2.44573e-07
6.44946e-06
1.49813e-06
2.60186e-07
5.52431e-08
2.44086e-07
6.00827e-06
1.43133e-06
2.55343e-07
5.90971e-08
2.6841e-07
6.00314e-06
1.43032e-06
2.55147e-07
5.89775e-08
2.6764e-07
6.37829e-06
1.52345e-06
2.71798e-07
6.12819e-08
2.74188e-07
6.13942e-06
1.44585e-06
2.54811e-07
5.62882e-08
2.50172e-07
6.35895e-06
1.5029e-06
2.65481e-07
5.82553e-08
2.58267e-07
6.34944e-06
1.5011e-06
2.65093e-07
5.8017e-08
2.57003e-07
6.14824e-06
1.44763e-06
2.55184e-07
5.64974e-08
2.5133e-07
6.38549e-06
1.52534e-06
2.72136e-07
6.1305e-08
2.74174e-07
6.49947e-06
1.50877e-06
2.61849e-07
5.54862e-08
2.45161e-07
6.49371e-06
1.50783e-06
2.61595e-07
5.5293e-08
2.4424e-07
6.06077e-06
1.44379e-06
2.57458e-07
5.93278e-08
2.68805e-07
6.05776e-06
1.44384e-06
2.57495e-07
5.92046e-08
2.67851e-07
6.44722e-06
1.49702e-06
2.60061e-07
5.533e-08
2.44524e-07
6.44476e-06
1.49691e-06
2.60009e-07
5.52405e-08
2.4409e-07
6.00371e-06
1.43007e-06
2.55116e-07
5.90356e-08
2.68194e-07
6.00054e-06
1.42991e-06
2.55111e-07
5.89481e-08
2.67532e-07
6.44883e-06
1.49787e-06
2.60255e-07
5.53835e-08
2.44804e-07
6.44427e-06
1.49724e-06
2.60066e-07
5.52166e-08
2.44008e-07
6.01889e-06
1.43367e-06
2.55737e-07
5.91328e-08
2.68494e-07
6.01457e-06
1.43315e-06
2.55647e-07
5.90098e-08
2.67627e-07
6.05367e-06
1.42675e-06
2.51813e-07
5.60896e-08
2.5005e-07
6.23771e-06
1.4761e-06
2.61221e-07
5.77798e-08
2.56744e-07
6.23399e-06
1.47531e-06
2.61096e-07
5.77652e-08
2.56686e-07
6.05646e-06
1.42733e-06
2.51919e-07
5.61009e-08
2.50081e-07
6.34716e-06
1.51625e-06
2.70544e-07
6.10449e-08
2.73209e-07
6.17341e-06
1.45376e-06
2.56091e-07
5.63901e-08
2.50377e-07
6.37308e-06
1.50624e-06
2.66019e-07
5.82909e-08
2.5834e-07
6.36368e-06
1.50444e-06
2.65623e-07
5.80499e-08
2.5707e-07
6.18214e-06
1.45553e-06
2.56471e-07
5.66047e-08
2.51544e-07
6.44873e-06
1.54017e-06
2.7457e-07
6.15163e-08
2.74477e-07
6.44615e-06
1.53963e-06
2.74495e-07
6.15091e-08
2.74463e-07
6.45459e-06
1.54166e-06
2.74836e-07
6.15466e-08
2.74527e-07
6.21704e-06
1.46366e-06
2.5764e-07
5.6488e-08
2.50544e-07
6.44293e-06
1.5223e-06
2.68545e-07
5.84298e-08
2.58616e-07
6.43198e-06
1.52002e-06
2.6805e-07
5.81805e-08
2.57373e-07
6.22699e-06
1.46581e-06
2.58094e-07
5.67075e-08
2.51691e-07
6.18859e-06
1.45729e-06
2.56637e-07
5.64086e-08
2.50353e-07
6.42916e-06
1.51918e-06
2.68045e-07
5.83962e-08
2.58519e-07
6.41988e-06
1.51724e-06
2.67602e-07
5.81487e-08
2.57266e-07
6.19714e-06
1.4591e-06
2.57038e-07
5.66251e-08
2.5151e-07
6.40365e-06
1.52981e-06
2.72902e-07
6.13814e-08
2.74298e-07
6.04765e-06
1.44132e-06
2.57074e-07
5.92068e-08
2.68092e-07
6.29817e-06
1.5053e-06
2.68787e-07
6.08788e-08
2.72966e-07
6.03721e-06
1.42259e-06
2.51105e-07
5.60165e-08
2.49901e-07
6.23531e-06
1.47504e-06
2.61e-07
5.77565e-08
2.5668e-07
6.23384e-06
1.47492e-06
2.61012e-07
5.77391e-08
2.56588e-07
6.03979e-06
1.42315e-06
2.51198e-07
5.60323e-08
2.49947e-07
6.30724e-06
1.50746e-06
2.6911e-07
6.08954e-08
2.72936e-07
6.0406e-06
1.42351e-06
2.51258e-07
5.60261e-08
2.49885e-07
6.22533e-06
1.47265e-06
2.60622e-07
5.77306e-08
2.56655e-07
6.22309e-06
1.47268e-06
2.60648e-07
5.77253e-08
2.56607e-07
6.03591e-06
1.42215e-06
2.51038e-07
5.60191e-08
2.49931e-07
0.000120514
0.00012229
0.000118849
8.77084e-05
8.64984e-05
0.000104307
0.000116536
3.42067e-05
8.65752e-05
0.000105664
8.98068e-05
0.00011656
2.18429e-05
5.25877e-05
2.69704e-05
8.66098e-05
7.87194e-05
2.94895e-05
7.88503e-05
2.95611e-05
2.69044e-05
2.04692e-05
3.42788e-05
5.05843e-05
5.0711e-05
2.04184e-05
2.71035e-05
8.67397e-05
2.95491e-05
7.90348e-05
2.96205e-05
7.92084e-05
2.70403e-05
2.18824e-05
8.52074e-05
0.000107631
5.26871e-05
3.38343e-05
0.000107686
3.3895e-05
8.50699e-05
8.55909e-05
0.000106932
0.00010698
8.54267e-05
4.13261e-05
1.99691e-05
1.99959e-05
4.12207e-05
0.000112509
0.00012197
0.000124315
0.000123179
0.000124014
0.000123075
0.000112518
6.95562e-05
4.69632e-05
6.96219e-05
6.79885e-05
4.65929e-05
0.000119611
0.000116479
0.000113302
0.000118294
0.000113396
0.000118355
0.000119726
0.000120745
0.000118245
8.99136e-05
0.000105819
0.00010591
0.000118153
0.000120803
0.000120311
0.000116587
0.00011891
0.000113849
0.000118761
0.000113946
0.000120312
0.000119568
0.000117028
0.000116922
0.000119651
0.000121382
0.000118854
0.000119742
8.68719e-05
2.16133e-05
2.1666e-05
5.24563e-05
5.22274e-05
3.38434e-05
8.66671e-05
8.92761e-05
0.000102288
0.000115712
3.38426e-05
8.91579e-05
2.16299e-05
2.17097e-05
8.53633e-05
0.000106933
5.2501e-05
3.3852e-05
3.39001e-05
0.000106984
8.52812e-05
8.43713e-05
0.000106424
5.23199e-05
3.35617e-05
3.36208e-05
0.000106464
8.42906e-05
4.10745e-05
1.98357e-05
1.9835e-05
1.98618e-05
1.98641e-05
4.10042e-05
2.01066e-05
3.38695e-05
5.02902e-05
5.0333e-05
2.0098e-05
2.67574e-05
8.67321e-05
2.9341e-05
7.89375e-05
2.9351e-05
7.89834e-05
2.67045e-05
2.02372e-05
3.3912e-05
5.00453e-05
5.01447e-05
2.01947e-05
0.000111783
0.000120924
0.000123011
0.000122825
0.000122923
0.000122501
0.000111766
6.78066e-05
0.000118984
0.000117027
8.93218e-05
0.000105184
0.000116955
0.000105219
0.000119055
0.00011784
0.000115649
0.00011301
0.000116615
0.00011306
0.000116139
0.000118196
0.000119963
0.00011752
8.92837e-05
0.000105156
0.000117486
0.000105284
0.000120118
6.38843e-06
1.48491e-06
2.57927e-07
5.48143e-08
2.42258e-07
6.36401e-06
1.52183e-06
2.71613e-07
6.11251e-08
2.73204e-07
6.45342e-06
1.54118e-06
2.74732e-07
6.15282e-08
2.74478e-07
6.39736e-06
1.4868e-06
2.58337e-07
5.49968e-08
2.43114e-07
6.37102e-06
1.52328e-06
2.71915e-07
6.13e-08
2.74237e-07
6.14547e-06
1.44699e-06
2.55079e-07
5.64927e-08
2.51331e-07
6.3464e-06
1.50034e-06
2.64966e-07
5.80115e-08
2.57e-07
6.35786e-06
1.50291e-06
2.65507e-07
5.82582e-08
2.58265e-07
6.13625e-06
1.44522e-06
2.54718e-07
5.62834e-08
2.50169e-07
6.17843e-06
1.4548e-06
2.56361e-07
5.66012e-08
2.51547e-07
6.36026e-06
1.50364e-06
2.65495e-07
5.80445e-08
2.57067e-07
6.37161e-06
1.50619e-06
2.66038e-07
5.82938e-08
2.58342e-07
6.169e-06
1.4529e-06
2.55968e-07
5.63851e-08
2.50379e-07
6.44307e-06
1.53917e-06
2.7435e-07
6.13405e-08
2.73415e-07
6.48841e-06
1.5066e-06
2.61413e-07
5.52973e-08
2.44261e-07
6.49423e-06
1.50798e-06
2.61766e-07
5.54854e-08
2.45158e-07
6.04895e-06
1.44111e-06
2.56972e-07
5.91629e-08
2.67887e-07
6.05467e-06
1.44237e-06
2.57226e-07
5.93155e-08
2.68852e-07
6.24923e-06
1.49467e-06
2.67086e-07
6.07253e-08
2.72748e-07
6.31323e-06
1.5099e-06
2.69611e-07
6.09257e-08
2.72869e-07
6.24384e-06
1.453e-06
2.53269e-07
5.46409e-08
2.41743e-07
6.31924e-06
1.4697e-06
2.5571e-07
5.47409e-08
2.42014e-07
6.25049e-06
1.49476e-06
2.6711e-07
6.07734e-08
2.73071e-07
6.32174e-06
1.51172e-06
2.69972e-07
6.11006e-08
2.73884e-07
6.27298e-06
1.49958e-06
2.67829e-07
6.0783e-08
2.72811e-07
6.24464e-06
1.45329e-06
2.53329e-07
5.46563e-08
2.41829e-07
6.32734e-06
1.47139e-06
2.56081e-07
5.49186e-08
2.42859e-07
5.99453e-06
1.42819e-06
2.54764e-07
5.89122e-08
2.67502e-07
6.0078e-06
1.43141e-06
2.55337e-07
5.89772e-08
2.67585e-07
6.37449e-06
1.52249e-06
2.71618e-07
6.12674e-08
2.7418e-07
6.36725e-06
1.52123e-06
2.71374e-07
6.10961e-08
2.73134e-07
6.43989e-06
1.49564e-06
2.598e-07
5.52327e-08
2.44049e-07
6.44452e-06
1.49651e-06
2.59995e-07
5.53263e-08
2.44494e-07
6.4377e-06
1.49577e-06
2.59846e-07
5.52109e-08
2.43985e-07
6.44393e-06
1.497e-06
2.60144e-07
5.53751e-08
2.44761e-07
6.01297e-06
1.43244e-06
2.55542e-07
5.91114e-08
2.68454e-07
5.99864e-06
1.42891e-06
2.54903e-07
5.90114e-08
2.68154e-07
6.0088e-06
1.41584e-06
2.50008e-07
5.592e-08
2.49774e-07
6.21548e-06
1.47104e-06
2.60409e-07
5.76903e-08
2.56517e-07
6.21439e-06
1.47042e-06
2.60302e-07
5.76913e-08
2.56559e-07
6.00787e-06
1.41625e-06
2.50094e-07
5.59226e-08
2.49746e-07
6.27619e-06
1.50039e-06
2.67972e-07
6.08023e-08
2.72869e-07
0.000120481
8.71177e-05
0.000120169
0.000119211
0.000120619
0.000120822
0.000121266
0.000118374
0.000118954
0.000121186
0.000119838
0.000120834
0.00011951
0.000121855
0.000118353
5.20724e-05
5.21261e-05
0.000120738
5.19826e-05
5.20891e-05
8.52632e-05
3.39282e-05
8.69784e-05
2.16873e-05
2.14934e-05
3.33858e-05
8.62897e-05
8.75649e-05
8.79272e-05
8.65386e-05
8.93463e-05
0.000105165
0.000119819
0.000116884
2.17116e-05
0.000101995
8.91531e-05
0.000116119
5.17903e-05
5.22064e-05
2.15936e-05
2.15111e-05
2.1523e-05
2.15225e-05
0.000120708
5.17953e-05
5.21011e-05
5.19714e-05
5.21619e-05
2.14551e-05
2.15094e-05
2.15345e-05
2.15435e-05
2.16175e-05
2.1367e-05
5.23939e-05
5.16432e-05
8.5271e-05
3.40341e-05
3.34374e-05
8.69531e-05
0.000114854
8.94737e-05
0.000101333
0.000103227
0.000116391
0.000115064
8.9758e-05
0.000102311
0.000118597
8.88268e-05
0.000102783
0.00011649
5.25488e-05
5.25514e-05
0.000121626
5.21095e-05
2.17796e-05
8.8331e-05
0.000105481
0.000116466
3.41088e-05
8.68081e-05
0.000105413
8.95664e-05
0.000116916
3.39323e-05
8.66672e-05
0.000104781
8.85881e-05
0.000116853
3.35874e-05
8.66345e-05
5.22895e-05
5.2378e-05
2.15967e-05
0.000102059
8.94233e-05
0.000116124
3.38428e-05
8.70016e-05
3.38861e-05
8.70692e-05
2.1427e-05
2.15547e-05
4.08967e-05
1.97906e-05
1.96995e-05
1.98271e-05
1.97101e-05
4.08026e-05
8.50432e-05
0.000106698
3.37469e-05
5.19646e-05
3.36977e-05
8.51934e-05
0.000106549
8.40893e-05
0.000106087
3.34318e-05
5.20503e-05
3.33443e-05
8.40923e-05
0.000106069
4.09116e-05
1.98383e-05
1.979e-05
1.98079e-05
1.97186e-05
4.09553e-05
8.52158e-05
3.37218e-05
5.20612e-05
0.000106591
3.3769e-05
8.51742e-05
0.000106689
8.40675e-05
3.33354e-05
5.21425e-05
0.000105998
3.33853e-05
8.39786e-05
0.000106107
2.64066e-05
2.85951e-05
7.77801e-05
8.58514e-05
2.88307e-05
7.83536e-05
2.62166e-05
2.01392e-05
3.39432e-05
5.04973e-05
5.03257e-05
2.01577e-05
1.99943e-05
3.367e-05
4.98586e-05
2.6639e-05
8.64184e-05
2.93777e-05
7.93601e-05
2.90822e-05
7.89148e-05
2.6845e-05
2.16728e-05
2.15648e-05
1.99645e-05
3.33481e-05
4.95105e-05
4.94111e-05
1.99801e-05
2.66863e-05
8.60566e-05
7.82471e-05
2.93689e-05
7.80399e-05
2.93265e-05
2.67203e-05
2.16943e-05
8.49545e-05
0.000106381
3.36392e-05
5.1626e-05
8.50505e-05
0.00010626
3.36021e-05
8.38862e-05
0.000106078
3.3415e-05
5.21491e-05
8.4075e-05
0.000106025
3.336e-05
4.07975e-05
1.97618e-05
1.97357e-05
4.08568e-05
1.97396e-05
1.97199e-05
2.15495e-05
2.15731e-05
2.15115e-05
2.15331e-05
4.08558e-05
1.98068e-05
1.9737e-05
4.09101e-05
1.97768e-05
1.97218e-05
8.50535e-05
0.000106402
3.35939e-05
5.18604e-05
8.49587e-05
3.36304e-05
0.000106491
8.40837e-05
0.000106018
3.33686e-05
5.21917e-05
8.39486e-05
3.34088e-05
0.000106143
4.08305e-05
1.97375e-05
1.9716e-05
4.07534e-05
1.97484e-05
1.97378e-05
8.51207e-05
3.3677e-05
0.000106575
5.18798e-05
8.51483e-05
3.36633e-05
0.000106526
8.39628e-05
3.33962e-05
0.000106087
5.21052e-05
8.40986e-05
3.33653e-05
0.000105968
2.14643e-05
2.14812e-05
2.15546e-05
2.15252e-05
2.16169e-05
2.15026e-05
2.13384e-05
8.50302e-05
0.000106871
5.22945e-05
3.37963e-05
3.37675e-05
0.00010684
8.51156e-05
8.382e-05
0.000105903
5.14746e-05
3.31989e-05
3.3137e-05
0.000105737
8.38986e-05
5.22106e-05
0.000106854
4.07352e-05
1.9746e-05
1.96664e-05
1.97355e-05
1.96405e-05
4.07421e-05
2.64335e-05
2.86237e-05
7.76525e-05
8.58967e-05
2.88335e-05
7.8433e-05
2.62081e-05
2.01711e-05
3.40324e-05
5.07623e-05
5.04407e-05
2.02635e-05
2.00293e-05
4.95102e-05
3.36827e-05
5.00002e-05
1.98986e-05
2.66737e-05
8.6371e-05
2.93878e-05
7.95986e-05
2.91059e-05
7.89508e-05
2.69386e-05
4.11015e-05
1.98157e-05
1.98889e-05
1.99321e-05
8.45454e-05
0.000106993
5.24197e-05
3.36277e-05
3.35494e-05
0.000106859
8.46206e-05
8.55715e-05
0.000107298
5.24376e-05
3.40053e-05
0.000107223
3.39845e-05
8.56432e-05
8.47077e-05
3.35003e-05
5.24059e-05
0.000106779
3.37627e-05
0.000107027
8.46203e-05
8.571e-05
5.24863e-05
0.000107335
3.39432e-05
4.10346e-05
1.98603e-05
1.99533e-05
1.98404e-05
1.99275e-05
4.11239e-05
2.17427e-05
2.17737e-05
2.04421e-05
3.40815e-05
5.06095e-05
5.05396e-05
2.04545e-05
2.71054e-05
8.66228e-05
2.95902e-05
7.93461e-05
2.95277e-05
7.91642e-05
2.71613e-05
2.69546e-05
8.65894e-05
7.90542e-05
2.94453e-05
2.03033e-05
3.39087e-05
5.03119e-05
5.01771e-05
2.03256e-05
2.02905e-05
3.39305e-05
5.0281e-05
2.69691e-05
8.6581e-05
7.90114e-05
2.94691e-05
7.89085e-05
2.94708e-05
2.70063e-05
2.69183e-05
8.66237e-05
2.9484e-05
7.87301e-05
2.01327e-05
3.35621e-05
4.98648e-05
4.97648e-05
2.01442e-05
2.01196e-05
3.35617e-05
4.97669e-05
2.69067e-05
8.64953e-05
2.95095e-05
7.87531e-05
2.94206e-05
7.86842e-05
2.69179e-05
8.44421e-05
0.000107075
5.21845e-05
3.35159e-05
3.34114e-05
0.000106874
8.4544e-05
8.54697e-05
0.000107017
5.22895e-05
3.38917e-05
0.000106909
3.38729e-05
8.5558e-05
4.09556e-05
1.98228e-05
1.98614e-05
1.97877e-05
1.98446e-05
4.10186e-05
2.1588e-05
2.01498e-05
3.37794e-05
5.03921e-05
5.03793e-05
2.01411e-05
2.68322e-05
8.6873e-05
7.91893e-05
2.94098e-05
7.9175e-05
2.94132e-05
2.682e-05
2.01747e-05
3.38962e-05
5.04571e-05
5.04719e-05
2.01673e-05
2.68538e-05
8.69295e-05
7.92936e-05
2.94687e-05
7.92802e-05
2.94556e-05
2.67938e-05
2.1402e-05
2.14055e-05
2.15428e-05
0.000111637
0.000122922
0.000122049
0.000120904
0.000111732
0.00012299
0.0001221
6.7483e-05
6.99458e-05
4.72341e-05
0.000111634
0.000122855
0.000122033
0.000121071
0.000111693
0.000122838
0.000122168
0.000111718
0.000120783
0.000122876
0.000122059
0.000111694
0.000122818
0.000122066
0.000111555
0.000122713
0.000122481
0.000121304
0.000122707
0.000122509
0.000111599
0.000112105
0.00012306
0.000123052
0.000121553
0.00012318
0.00012334
0.000112177
0.000112172
0.000123672
0.000122948
0.000121956
0.00012299
0.000123734
0.000112204
0.000111738
0.000120759
0.000122954
0.000121812
0.000111673
0.000122873
0.00012199
6.75121e-05
7.01944e-05
4.74337e-05
7.02357e-05
6.80706e-05
4.76408e-05
6.88564e-05
6.76926e-05
4.71092e-05
0.000120445
0.000117467
8.92808e-05
0.000105623
0.000117513
0.000105519
0.000120443
0.0001205
8.93912e-05
0.000117592
0.000105646
0.00012038
0.000116923
0.000113864
0.000118794
0.000113849
0.000118653
0.000120314
0.00011898
0.000117158
8.91354e-05
0.000105189
0.000117168
0.000105212
0.000119061
0.000118171
0.000116004
0.000116286
0.000113133
0.000116029
0.000113063
0.000117819
0.000111719
0.000120564
0.000122907
0.000122012
0.000111737
0.000122947
0.000122051
0.000118242
0.000112343
0.000116422
0.000115704
0.000113144
0.000116689
0.000118338
0.000119312
0.000116929
8.95221e-05
0.000105567
0.000105547
0.000116966
0.000119449
0.000119162
8.90932e-05
0.000105063
0.000116765
0.000118692
0.000116196
0.000113619
0.000116768
0.000113516
0.000116905
0.000118641
0.000118385
0.000112178
0.00011703
0.000115607
0.000113099
0.000117069
0.000118008
0.000119684
0.000117378
8.96752e-05
0.00010604
0.000105783
0.000117352
0.000119889
0.000119413
0.000104655
8.93106e-05
0.000116821
0.000105313
0.000119255
0.000117249
0.000118802
0.000116143
0.000114075
0.000117065
0.000113628
0.00011717
0.00011917
0.000112213
0.000121629
0.000123123
0.000123039
0.000123115
0.000123242
0.000112219
0.000119367
0.000116381
8.80981e-05
0.000104415
0.000104262
0.000116306
0.00011917
0.000119183
0.000116393
0.000112992
0.000118659
0.000112973
0.000118851
0.0001195
0.000120798
0.000117716
8.94685e-05
0.000106027
0.000105949
0.000117735
0.000120823
0.000120646
0.000116992
0.000118672
0.000114283
0.00011916
0.000114297
0.000120297
0.00011935
0.000116402
8.83957e-05
0.000104919
0.000116522
0.000104734
0.000119356
0.000119327
0.00011685
0.000118505
0.000113499
0.00011853
0.000113448
0.000119262
0.000119321
0.000116848
8.94237e-05
0.00010562
0.000116842
0.000105549
0.000119309
0.000118565
0.000116026
0.000116045
0.000113627
0.000116474
0.000113638
0.000118241
8.65196e-05
0.000120311
0.000119275
0.000120954
8.67784e-05
0.000120197
0.000119467
0.000121139
8.75707e-05
0.000120219
0.00011965
0.000120789
8.77909e-05
0.000120536
0.000119891
0.000120544
8.72598e-05
0.000120609
0.000119745
0.000120887
8.72505e-05
0.000120768
0.000119221
0.000120801
8.77937e-05
0.000120317
0.000118824
0.000120744
8.77599e-05
0.000120155
0.000119138
0.000120875
8.70555e-05
0.000120535
0.000118843
0.000121297
8.69318e-05
0.000120548
0.000118973
0.000121238
8.69492e-05
0.000120887
0.000119466
0.000121236
8.64591e-05
0.000120321
0.000119223
0.000121078
8.64804e-05
0.000120607
0.000118651
0.000121056
8.73485e-05
0.000120103
0.000118912
0.000121125
8.76455e-05
0.000120356
0.000118737
0.000120702
8.74571e-05
0.000119907
0.000118415
0.000121501
0.000118751
0.000118959
0.000121659
0.000120019
0.000120876
0.000120133
0.000119586
0.000122513
0.000118828
0.000117958
0.000120755
0.00012121
0.000122092
0.00011832
0.000119473
0.000118439
0.000119431
0.000121398
0.000121991
0.000120094
0.00012082
0.000120321
0.000120805
0.000119565
0.00012037
0.000119843
0.000122458
0.000122809
0.000117992
0.000119552
0.00011787
0.000121197
0.000122158
0.000122424
0.000118885
0.000119275
0.000118598
0.000118966
0.000121577
0.000121786
0.000120202
0.000120909
0.00012082
0.000121396
0.000119739
0.000120172
0.000120093
0.000122908
0.000122979
0.000118174
0.000120024
0.000118175
0.00012122
0.000122427
0.000122125
0.000119234
0.000119233
0.000119263
0.000119084
0.000121747
0.000122059
0.000120881
0.000121034
0.000120923
0.000121283
0.000119881
0.000120656
0.000119868
0.000122825
0.000122733
0.000118156
0.000119898
0.000118487
0.000120869
0.000122424
0.000122326
0.000119787
0.000119482
0.000119296
0.000119708
0.000121911
0.000122274
0.00012056
0.000121126
0.000120387
0.000121139
0.00011945
0.00012043
0.000119596
0.000122712
0.000122459
0.000118561
0.000119826
0.00011859
0.000121081
0.000121997
0.000121481
0.000119453
0.000119661
0.000119388
0.000119539
0.000122224
0.000121932
0.000120593
0.000121236
0.000120246
0.00012116
0.000119965
0.000120662
0.000119702
0.000122514
0.000122214
0.000118647
0.000118899
0.000117618
0.000120986
0.000121697
0.000121729
0.000119392
0.000119104
0.000119073
0.000119145
0.000122079
0.00012202
0.00012016
0.000121169
0.000119713
0.000121288
0.000119724
0.000120825
0.000119404
0.000121974
0.000122331
0.000118059
0.000118938
0.000118456
0.000120638
0.000121673
0.000121743
0.000118931
0.000119282
0.000119142
0.000118644
0.0001219
0.000121672
0.000119818
0.000121356
0.000119671
0.000120995
0.000119526
0.000120171
0.000119664
0.000122304
0.000122208
0.000118482
0.000119175
0.000118492
0.000120889
0.000121739
0.00012175
0.000118792
0.000118905
0.000118944
0.000119148
0.000121775
0.000121826
0.000120143
0.000120909
0.000120178
0.000121189
0.000119367
0.000120248
0.000119839
0.000121805
0.000122322
0.000118486
0.000119121
0.000117884
0.000121283
0.000121641
0.000121256
0.000118775
0.000119232
0.000118201
0.000119222
0.000121841
0.000121873
0.000120224
0.00012087
0.000119561
0.000120515
0.000120004
0.000120626
0.000119687
0.000122204
0.000122365
0.000118242
0.000119095
0.000118539
0.000121309
0.000121075
0.000121167
0.000118609
0.000119056
0.000118339
0.000119384
0.000121571
0.000121649
0.00011996
0.000120902
0.000119119
0.000120808
0.000119778
0.000120892
0.000120079
0.000122321
0.000122343
0.000118476
0.000119433
0.000118737
0.000121273
0.000121154
0.000120963
0.000118314
0.000119442
0.000118542
0.000118922
0.000121905
0.000122116
0.00011939
0.000121236
0.000119307
0.000120797
0.00012022
0.000120771
0.00012034
0.000122359
0.000121847
0.000118744
0.00011942
0.000118685
0.000121189
0.000121201
0.000121142
0.000118538
0.000119109
0.000118849
0.000119036
0.000122075
0.000121526
0.000119812
0.000120425
0.000119801
0.000120307
0.000120229
0.000120366
0.000120583
0.000121795
0.000122023
0.000118754
0.000118927
0.000118234
0.000121267
0.000121103
0.000121641
0.00011899
0.000118627
0.000119111
0.000118872
0.000121281
0.000121431
0.000119828
0.000120192
0.000119949
0.000120532
0.000120674
0.000120309
0.000120087
0.000121663
0.00012151
0.000118462
0.000118538
0.000118636
0.00012127
0.000121584
0.000121364
0.000119191
0.000118898
0.000119001
0.00011857
0.000121408
0.000121641
0.000119939
0.000120286
0.000119982
0.000120732
0.000120106
0.000120431
0.000119926
0.000121849
0.000121825
0.000118759
0.000118725
0.000118507
0.000121021
0.000121656
0.000121668
0.000118989
0.000118689
0.000118838
0.000118884
0.000121669
0.000121549
0.000119737
0.000120824
0.000120135
0.000120717
0.000119991
0.000120214
0.000119448