/*--------------------------------*- C++ -*----------------------------------*\
| =========                 |                                                 |
| \\      /  F ield         | OpenFOAM: The Open Source CFD Toolbox           |
|  \\    /   O peration     | Version:  2206                                  |
|   \\  /    A nd           | Website:  www.openfoam.com                      |
|    \\/     M anipulation  |                                                 |
\*---------------------------------------------------------------------------*/
FoamFile
{
    version     2.0;
    format      ascii;
    arch        "LSB;label=32;scalar=64";
    class       volScalarField;
    location    "130";
    object      nut;
}
// * * * * * * * * * * * * * * * * * * * * * * * * * * * * * * * * * * * * * //

dimensions      [0 2 -1 0 0 0 0];

internalField   nonuniform List<scalar> 
67442
(
2.66415e-06
1.86273e-06
1.86663e-06
1.89322e-06
1.91087e-06
1.8614e-06
1.86723e-06
1.92229e-06
1.84941e-06
1.86262e-06
1.85037e-06
1.93167e-06
1.84746e-06
1.14379e-07
4.68671e-07
5.49665e-08
1.13716e-07
4.59741e-07
2.67625e-06
2.68342e-06
2.67498e-06
4.92615e-07
2.1932e-06
9.69924e-07
5.48394e-08
2.19368e-06
4.98588e-07
9.8441e-07
2.49598e-07
2.52942e-07
5.44368e-08
5.43926e-08
2.5467e-07
2.51839e-07
1.15531e-07
4.69768e-07
4.9907e-07
2.21379e-06
9.8151e-07
5.03978e-07
2.20608e-06
9.82534e-07
2.56559e-07
2.52078e-07
5.44055e-08
4.92895e-07
2.17483e-06
9.63198e-07
1.14869e-07
4.60702e-07
2.19123e-06
4.96893e-07
9.65355e-07
1.14129e-07
4.64329e-07
2.18646e-06
4.89785e-07
9.67804e-07
1.13394e-07
4.63739e-07
2.53872e-07
2.5524e-07
5.45273e-08
2.215e-06
4.97587e-07
9.85472e-07
1.14382e-07
4.69971e-07
1.14228e-07
4.68217e-07
5.38859e-08
5.41312e-08
4.84473e-08
1.14151e-07
2.35818e-07
2.35603e-07
4.84611e-08
8.21279e-08
4.69818e-07
9.59766e-08
4.00236e-07
9.58245e-08
4.01122e-07
8.22041e-08
5.49205e-08
8.19806e-08
4.60235e-07
3.93435e-07
9.55779e-08
4.83841e-08
1.13528e-07
2.31662e-07
2.31286e-07
4.84515e-08
4.85029e-08
1.13835e-07
2.32183e-07
8.176e-08
4.62548e-07
3.9309e-07
9.5515e-08
3.95669e-07
9.53292e-08
8.19167e-08
5.47647e-08
5.48976e-08
4.28195e-07
7.0142e-07
2.49227e-07
1.09506e-07
7.01265e-07
1.09352e-07
4.26285e-07
4.29547e-07
7.04378e-07
2.52721e-07
1.08677e-07
7.03829e-07
1.0856e-07
4.2802e-07
1.63762e-07
4.90047e-08
4.89209e-08
4.89381e-08
4.88457e-08
1.64065e-07
5.43829e-08
5.43176e-08
5.44501e-08
4.33502e-07
7.1325e-07
2.54292e-07
1.10825e-07
1.10732e-07
7.12581e-07
4.31843e-07
4.3276e-07
7.05766e-07
2.51724e-07
1.09483e-07
1.09342e-07
7.05533e-07
4.30874e-07
1.65351e-07
4.94631e-08
4.93618e-08
4.94156e-08
4.93067e-08
1.65647e-07
4.89405e-08
1.15481e-07
2.38504e-07
2.38345e-07
4.89581e-08
8.2617e-08
4.70694e-07
9.60786e-08
4.03062e-07
9.60552e-08
4.04154e-07
8.26607e-08
4.34189e-07
7.15152e-07
2.56398e-07
1.1033e-07
1.1025e-07
7.14021e-07
4.3403e-07
4.32695e-07
7.07856e-07
2.51746e-07
1.10606e-07
7.07946e-07
1.10322e-07
4.29803e-07
1.65396e-07
4.94369e-08
4.94738e-08
4.93994e-08
4.93819e-08
1.65685e-07
5.43206e-08
8.2414e-08
4.61105e-07
9.57869e-08
3.95536e-07
4.88322e-08
1.14666e-07
2.33721e-07
2.33277e-07
4.89357e-08
4.89229e-08
1.14911e-07
2.33881e-07
8.21901e-08
4.6359e-07
9.57155e-08
3.95251e-07
9.55355e-08
3.97648e-07
8.2351e-08
4.89394e-08
1.13944e-07
2.33862e-07
2.33617e-07
4.90072e-08
8.2747e-08
4.67198e-07
3.97523e-07
9.67021e-08
3.99937e-07
9.64922e-08
8.29131e-08
4.85777e-08
1.13205e-07
2.31976e-07
2.31651e-07
4.86369e-08
8.23517e-08
4.6685e-07
9.65083e-08
3.94931e-07
9.63242e-08
3.97569e-07
8.25026e-08
4.36894e-07
7.13625e-07
2.53515e-07
1.10381e-07
1.10211e-07
7.13233e-07
4.35279e-07
4.34855e-07
7.14667e-07
2.55027e-07
1.11532e-07
7.14203e-07
1.11399e-07
4.33374e-07
1.66136e-07
4.96944e-08
4.98278e-08
4.96389e-08
4.97587e-08
1.66533e-07
5.44875e-08
4.8611e-08
1.14276e-07
2.36634e-07
2.36589e-07
4.86045e-08
8.24046e-08
4.70684e-07
4.02085e-07
9.60424e-08
4.03144e-07
9.60693e-08
8.24194e-08
4.86626e-08
1.14036e-07
2.37075e-07
2.3686e-07
4.86755e-08
8.24336e-08
4.69795e-07
4.01556e-07
9.60027e-08
4.02449e-07
9.58546e-08
8.24341e-08
5.38195e-08
5.40921e-08
3.10409e-06
3.09144e-06
2.86751e-06
8.04383e-07
1.11407e-06
1.11893e-06
1.84842e-06
1.09721e-06
1.10358e-06
8.06936e-07
8.11797e-07
1.12853e-06
1.12879e-06
1.86465e-06
1.11401e-06
1.11129e-06
8.14048e-07
8.14239e-07
1.1286e-06
1.13511e-06
1.8797e-06
1.11884e-06
1.11464e-06
8.1638e-07
8.1819e-07
1.13347e-06
1.14212e-06
1.88391e-06
1.12778e-06
1.11517e-06
8.20794e-07
3.14335e-06
3.15869e-06
2.89267e-06
3.05916e-06
3.12102e-06
2.8849e-06
3.10492e-06
3.17256e-06
2.89996e-06
1.29907e-06
9.69281e-07
4.94776e-07
7.03254e-07
9.58523e-07
7.03e-07
1.31896e-06
1.37936e-06
9.66329e-07
8.86562e-07
1.53612e-06
8.84041e-07
1.50326e-06
1.40449e-06
1.3176e-06
9.756e-07
4.99188e-07
7.13822e-07
9.6724e-07
7.12921e-07
1.33142e-06
1.40076e-06
9.83329e-07
1.54608e-06
8.99458e-07
1.5323e-06
8.96818e-07
1.41095e-06
1.31599e-06
9.79149e-07
5.00103e-07
7.11828e-07
7.11084e-07
9.71831e-07
1.32777e-06
1.39758e-06
9.80409e-07
8.95989e-07
1.54452e-06
8.9393e-07
1.5354e-06
1.40412e-06
1.32784e-06
9.84623e-07
5.05028e-07
7.18787e-07
7.18625e-07
9.77578e-07
1.33683e-06
1.40015e-06
9.80273e-07
9.02439e-07
1.54656e-06
9.00129e-07
1.53529e-06
1.41208e-06
1.2881e-06
9.67749e-07
4.94527e-07
6.99963e-07
6.99669e-07
9.57569e-07
1.30988e-06
1.36585e-06
9.6056e-07
8.77832e-07
1.53499e-06
8.7536e-07
1.4978e-06
1.39216e-06
1.30514e-06
9.80089e-07
4.98956e-07
7.05064e-07
7.05173e-07
9.70035e-07
1.32603e-06
1.37663e-06
9.61963e-07
1.54094e-06
8.83375e-07
1.50508e-06
8.80768e-07
1.40345e-06
1.28961e-06
9.65144e-07
4.91707e-07
6.98235e-07
9.54258e-07
6.98134e-07
1.3109e-06
1.36911e-06
9.6561e-07
1.53918e-06
8.79005e-07
1.49977e-06
8.76743e-07
1.39603e-06
1.31529e-06
9.70471e-07
4.98239e-07
7.1225e-07
9.62801e-07
7.11093e-07
1.32708e-06
1.39903e-06
9.82347e-07
1.54318e-06
8.9943e-07
1.53069e-06
8.9815e-07
1.40967e-06
8.42112e-09
8.95822e-10
5.65611e-11
3.24278e-12
2.07098e-12
8.80038e-09
9.47831e-10
6.12153e-11
3.68473e-12
2.33725e-12
8.52617e-09
9.05639e-10
5.70564e-11
3.2478e-12
2.07929e-12
8.88172e-09
9.55983e-10
6.17065e-11
3.7016e-12
2.34599e-12
8.71498e-09
9.3894e-10
6.06974e-11
3.6773e-12
2.33699e-12
8.81175e-09
9.4868e-10
6.12734e-11
3.69212e-12
2.3428e-12
8.51259e-09
9.0476e-10
5.69686e-11
3.2342e-12
2.07264e-12
8.81263e-09
9.48858e-10
6.12887e-11
3.69502e-12
2.34476e-12
8.60839e-09
9.13458e-10
5.74114e-11
3.24049e-12
2.08124e-12
8.56388e-09
9.09474e-10
5.7245e-11
3.24624e-12
2.08139e-12
8.51187e-09
9.04507e-10
5.70186e-11
3.24969e-12
2.07997e-12
8.73545e-09
9.41362e-10
6.08491e-11
3.68116e-12
2.33846e-12
8.42658e-09
8.96698e-10
5.66102e-11
3.24353e-12
2.07178e-12
8.42758e-09
8.96741e-10
5.66037e-11
3.24091e-12
2.07025e-12
8.72727e-09
9.40008e-10
6.07757e-11
3.68364e-12
2.34157e-12
8.66281e-09
9.33194e-10
6.03382e-11
3.66709e-12
2.33338e-12
8.78229e-09
9.42377e-10
6.08579e-11
3.67781e-12
2.33572e-12
8.42134e-09
8.96236e-10
5.65761e-11
3.24079e-12
2.0703e-12
8.79753e-09
9.47592e-10
6.11943e-11
3.68108e-12
2.33442e-12
8.45141e-09
9.01291e-10
5.75498e-11
3.39258e-12
2.15263e-12
8.74362e-09
9.37527e-10
5.98878e-11
3.49051e-12
2.2125e-12
8.91306e-09
9.55397e-10
6.16112e-11
3.6899e-12
2.33777e-12
8.52039e-09
9.04941e-10
5.69687e-11
3.23323e-12
2.072e-12
8.53501e-09
9.06541e-10
5.70954e-11
3.24575e-12
2.07913e-12
8.87494e-09
9.553e-10
6.16461e-11
3.69001e-12
2.33728e-12
8.89144e-09
9.57054e-10
6.17698e-11
3.70205e-12
2.34582e-12
8.65887e-09
9.17912e-10
5.77277e-11
3.26646e-12
2.09516e-12
8.65328e-09
9.17154e-10
5.7639e-11
3.25269e-12
2.08838e-12
8.57966e-09
9.10501e-10
5.73668e-11
3.26631e-12
2.08997e-12
8.573e-09
9.09683e-10
5.73039e-11
3.26007e-12
2.08627e-12
8.3458e-09
8.9187e-10
5.76332e-11
3.57101e-12
2.2943e-12
8.31244e-09
8.88412e-10
5.74157e-11
3.56438e-12
2.29242e-12
8.33848e-09
8.91168e-10
5.75838e-11
3.56264e-12
2.287e-12
8.30393e-09
8.87585e-10
5.736e-11
3.55713e-12
2.28632e-12
8.71266e-09
9.3908e-10
6.07094e-11
3.67423e-12
2.33414e-12
8.80413e-09
9.47914e-10
6.121e-11
3.68078e-12
2.33408e-12
8.82015e-09
9.49597e-10
6.13278e-11
3.69244e-12
2.34254e-12
8.50749e-09
9.04262e-10
5.69468e-11
3.23437e-12
2.07224e-12
8.73744e-09
9.25184e-10
5.80518e-11
3.26038e-12
2.09703e-12
8.72705e-09
9.23929e-10
5.79459e-11
3.24907e-12
2.09065e-12
8.42491e-09
8.99997e-10
5.81179e-11
3.58263e-12
2.29625e-12
8.41463e-09
8.98966e-10
5.80463e-11
3.57436e-12
2.28962e-12
8.80326e-09
9.47868e-10
6.12127e-11
3.68396e-12
2.3364e-12
8.49591e-09
9.05814e-10
5.77994e-11
3.39523e-12
2.15447e-12
8.76232e-09
9.39433e-10
5.99884e-11
3.49042e-12
2.21312e-12
9.00088e-09
9.64515e-10
6.21313e-11
3.69754e-12
2.33993e-12
8.60105e-09
9.12537e-10
5.73118e-11
3.22616e-12
2.07393e-12
8.61251e-09
9.13872e-10
5.74298e-11
3.23938e-12
2.08115e-12
8.55655e-09
9.08526e-10
5.71433e-11
3.23182e-12
2.07401e-12
8.94856e-09
9.59158e-10
6.18315e-11
3.69374e-12
2.33902e-12
8.5058e-09
9.0373e-10
5.69273e-11
3.2353e-12
2.07271e-12
8.74036e-09
9.25574e-10
5.80621e-11
3.25702e-12
2.09635e-12
8.73768e-09
9.25262e-10
5.80285e-11
3.25193e-12
2.09379e-12
8.46007e-09
9.04083e-10
5.83836e-11
3.59045e-12
2.29827e-12
8.73445e-09
9.41537e-10
6.08596e-11
3.67798e-12
2.3356e-12
8.81439e-09
9.45737e-10
6.1054e-11
3.68181e-12
2.33671e-12
8.42763e-09
8.97112e-10
5.66284e-11
3.24183e-12
2.07128e-12
8.81887e-09
9.46307e-10
6.10902e-11
3.68181e-12
2.3364e-12
8.41883e-09
8.9605e-10
5.65684e-11
3.23991e-12
2.06961e-12
8.72201e-09
9.39487e-10
6.07291e-11
3.67332e-12
2.3332e-12
8.66096e-09
9.33092e-10
6.03286e-11
3.66375e-12
2.33052e-12
8.87657e-09
9.521e-10
6.14198e-11
3.68887e-12
2.3387e-12
9.01506e-09
9.6596e-10
6.2216e-11
3.69959e-12
2.341e-12
8.26552e-09
8.83215e-10
5.65277e-11
3.36865e-12
2.13909e-12
8.55211e-09
9.19009e-10
5.88718e-11
3.46956e-12
2.19786e-12
8.55419e-09
9.19545e-10
5.89014e-11
3.46908e-12
2.19747e-12
8.26519e-09
8.83028e-10
5.65144e-11
3.36875e-12
2.13929e-12
8.78252e-09
9.42186e-10
6.08438e-11
3.67702e-12
2.33528e-12
8.69927e-09
9.21675e-10
5.78821e-11
3.25908e-12
2.09437e-12
8.69422e-09
9.21041e-10
5.78197e-11
3.251e-12
2.0902e-12
8.39766e-09
8.97418e-10
5.79742e-11
3.58024e-12
2.29632e-12
8.39209e-09
8.96789e-10
5.79258e-11
3.57252e-12
2.28973e-12
8.92029e-09
9.56116e-10
6.16741e-11
3.70177e-12
2.3467e-12
8.43402e-09
8.9941e-10
5.7409e-11
3.37756e-12
2.14277e-12
8.73821e-09
9.36988e-10
5.98602e-11
3.49095e-12
2.21258e-12
8.72728e-09
9.35703e-10
5.97375e-11
3.4728e-12
2.20175e-12
8.44539e-09
9.00705e-10
5.75191e-11
3.39273e-12
2.15268e-12
8.93037e-09
9.57282e-10
6.17436e-11
3.70232e-12
2.34658e-12
8.75702e-09
9.26992e-10
5.81495e-11
3.26212e-12
2.09939e-12
8.7518e-09
9.26218e-10
5.80516e-11
3.2463e-12
2.0915e-12
8.47014e-09
9.04982e-10
5.84298e-11
3.59192e-12
2.29909e-12
8.46743e-09
9.04976e-10
5.84288e-11
3.58342e-12
2.29094e-12
8.68898e-09
9.20543e-10
5.78256e-11
3.25965e-12
2.09396e-12
8.68836e-09
9.20438e-10
5.77928e-11
3.25187e-12
2.09024e-12
8.3919e-09
8.96568e-10
5.79152e-11
3.57581e-12
2.29358e-12
8.38917e-09
8.96496e-10
5.79098e-11
3.56995e-12
2.28791e-12
8.69336e-09
9.21064e-10
5.7872e-11
3.26312e-12
2.09601e-12
8.68979e-09
9.20511e-10
5.77921e-11
3.24919e-12
2.0892e-12
8.41295e-09
8.98804e-10
5.80559e-11
3.58165e-12
2.29637e-12
8.40867e-09
8.98491e-10
5.80301e-11
3.57353e-12
2.28897e-12
8.31484e-09
8.88337e-10
5.68227e-11
3.37434e-12
2.14174e-12
8.57265e-09
9.21336e-10
5.90045e-11
3.47231e-12
2.19953e-12
8.56907e-09
9.20939e-10
5.89815e-11
3.47179e-12
2.19904e-12
8.31779e-09
8.88637e-10
5.68427e-11
3.37462e-12
2.142e-12
8.87356e-09
9.51733e-10
6.13987e-11
3.68815e-12
2.33835e-12
8.47839e-09
9.03918e-10
5.76561e-11
3.37979e-12
2.14461e-12
8.75657e-09
9.38869e-10
5.99601e-11
3.49099e-12
2.21324e-12
8.74569e-09
9.37567e-10
5.98346e-11
3.47257e-12
2.20236e-12
8.48965e-09
9.05222e-10
5.77701e-11
3.39557e-12
2.1546e-12
9.01535e-09
9.66058e-10
6.22456e-11
3.71042e-12
2.34892e-12
9.01227e-09
9.65778e-10
6.22311e-11
3.71008e-12
2.3488e-12
9.02409e-09
9.67023e-10
6.23049e-11
3.71186e-12
2.3496e-12
8.53473e-09
9.09451e-10
5.79434e-11
3.37983e-12
2.14554e-12
8.84664e-09
9.47785e-10
6.04135e-11
3.48836e-12
2.21515e-12
8.8323e-09
9.46083e-10
6.0262e-11
3.46939e-12
2.2045e-12
8.54844e-09
9.11071e-10
5.80767e-11
3.39593e-12
2.15536e-12
8.49754e-09
9.05834e-10
5.77503e-11
3.37818e-12
2.14399e-12
8.82873e-09
9.46078e-10
6.03224e-11
3.48825e-12
2.21434e-12
8.81723e-09
9.44573e-10
6.01809e-11
3.46918e-12
2.20361e-12
8.50938e-09
9.07246e-10
5.78716e-11
3.39409e-12
2.1539e-12
8.95538e-09
9.59978e-10
6.19047e-11
3.70578e-12
2.34783e-12
8.45363e-09
9.03496e-10
5.83416e-11
3.58441e-12
2.29326e-12
8.80688e-09
9.45119e-10
6.10261e-11
3.68083e-12
2.33632e-12
8.29346e-09
8.85918e-10
5.66773e-11
3.37156e-12
2.14032e-12
8.57001e-09
9.2074e-10
5.89609e-11
3.47173e-12
2.19901e-12
8.56928e-09
9.20731e-10
5.89611e-11
3.4701e-12
2.19801e-12
8.29631e-09
8.86251e-10
5.66969e-11
3.37241e-12
2.14092e-12
8.81935e-09
9.46447e-10
6.10964e-11
3.68136e-12
2.33599e-12
8.29787e-09
8.86433e-10
5.67083e-11
3.3715e-12
2.14031e-12
8.55707e-09
9.19407e-10
5.88892e-11
3.47132e-12
2.19877e-12
8.55519e-09
9.19467e-10
5.88943e-11
3.47077e-12
2.19836e-12
8.29096e-09
8.85638e-10
5.66657e-11
3.37178e-12
2.1407e-12
1.85992e-06
1.88233e-06
1.87261e-06
2.68928e-06
4.62447e-07
2.17352e-06
9.60009e-07
1.14653e-07
4.62969e-07
2.20092e-06
4.984e-07
9.60514e-07
5.47206e-08
2.53139e-07
8.18762e-08
4.59462e-07
3.95419e-07
9.52859e-08
3.92968e-07
9.54826e-08
8.17142e-08
4.89744e-08
1.14874e-07
2.33678e-07
2.34401e-07
4.88788e-08
8.22788e-08
4.60266e-07
9.54774e-08
3.97263e-07
9.56733e-08
3.95006e-07
8.21241e-08
5.48023e-08
4.34593e-07
7.12772e-07
2.53735e-07
1.1016e-07
7.1289e-07
1.10391e-07
4.36818e-07
4.33391e-07
7.13862e-07
7.14222e-07
4.34017e-07
1.66316e-07
4.95869e-08
4.96425e-08
1.65986e-07
8.19594e-07
1.92656e-06
1.11543e-06
1.1277e-06
1.13135e-06
1.1415e-06
8.17804e-07
3.11954e-06
2.87633e-06
3.08484e-06
3.12397e-06
2.84523e-06
1.3923e-06
9.62437e-07
8.74764e-07
1.49352e-06
8.77443e-07
1.53117e-06
1.36684e-06
1.32315e-06
9.68581e-07
4.96463e-07
7.04396e-07
7.04466e-07
9.78534e-07
1.30237e-06
1.40273e-06
9.63652e-07
1.50408e-06
8.79999e-07
1.53914e-06
8.82658e-07
1.3757e-06
1.33029e-06
9.68157e-07
9.7478e-07
1.31945e-06
1.8657e-06
1.86471e-06
1.85152e-06
2.67083e-06
5.43767e-08
5.42849e-08
2.54633e-07
2.51312e-07
1.14242e-07
4.69112e-07
4.9976e-07
2.21318e-06
9.78079e-07
1.13462e-07
4.94211e-07
5.44051e-08
5.43758e-08
4.3143e-07
7.12222e-07
2.54968e-07
1.10634e-07
1.10766e-07
7.12672e-07
4.33019e-07
4.30387e-07
7.04963e-07
2.51893e-07
1.09224e-07
1.09391e-07
7.04922e-07
4.32313e-07
1.65509e-07
4.93701e-08
4.9255e-08
4.94184e-08
4.9309e-08
1.65197e-07
4.83994e-08
1.14315e-07
2.35509e-07
2.35774e-07
4.83969e-08
8.2056e-08
4.6816e-07
9.58333e-08
4.00761e-07
9.58491e-08
3.99817e-07
8.19204e-08
4.84279e-08
1.13672e-07
2.31151e-07
2.31751e-07
4.83515e-08
8.13227e-07
1.90745e-06
1.1137e-06
1.11082e-06
1.12795e-06
1.12638e-06
8.1105e-07
3.14769e-06
1.32709e-06
9.72056e-07
4.9872e-07
7.10248e-07
9.79078e-07
7.11065e-07
1.31605e-06
1.4023e-06
9.80027e-07
8.92831e-07
1.53271e-06
8.95558e-07
1.53884e-06
1.39628e-06
1.30976e-06
9.57139e-07
4.92336e-07
6.99048e-07
9.67459e-07
6.99436e-07
1.28991e-06
8.59921e-09
9.12372e-10
5.73033e-11
3.22625e-12
2.07388e-12
8.86756e-09
9.54497e-10
6.15987e-11
3.68949e-12
2.33724e-12
9.02227e-09
9.66704e-10
6.22798e-11
3.71079e-12
2.34893e-12
8.61152e-09
9.13807e-10
5.74269e-11
3.24008e-12
2.08121e-12
8.87658e-09
9.55534e-10
6.16824e-11
3.70155e-12
2.34608e-12
8.44246e-09
9.004e-10
5.75013e-11
3.39292e-12
2.15269e-12
8.72223e-09
9.35206e-10
5.97123e-11
3.47305e-12
2.20173e-12
8.73834e-09
9.37119e-10
5.98685e-11
3.49107e-12
2.21257e-12
8.43084e-09
8.99132e-10
5.73941e-11
3.37764e-12
2.14273e-12
8.48544e-09
9.04878e-10
5.77523e-11
3.39589e-12
2.15463e-12
8.74016e-09
9.37044e-10
5.98091e-11
3.47282e-12
2.20233e-12
8.75604e-09
9.38952e-10
5.99667e-11
3.4911e-12
2.21325e-12
8.47354e-09
9.03513e-10
5.76358e-11
3.38002e-12
2.14462e-12
9.00968e-09
9.65386e-10
6.21782e-11
3.69777e-12
2.33984e-12
8.74441e-09
9.25529e-10
5.80232e-11
3.24792e-12
2.09168e-12
8.7529e-09
9.26698e-10
5.81381e-11
3.26244e-12
2.09936e-12
8.45555e-09
9.0331e-10
5.83162e-11
3.58158e-12
2.29125e-12
8.46272e-09
9.04169e-10
5.8381e-11
3.59149e-12
2.2995e-12
8.70897e-09
9.3822e-10
6.06485e-11
3.67307e-12
2.33393e-12
8.79899e-09
9.47325e-10
6.11737e-11
3.68025e-12
2.33398e-12
8.41537e-09
8.95359e-10
5.65361e-11
3.24164e-12
2.07004e-12
8.51448e-09
9.04359e-10
5.69433e-11
3.23441e-12
2.072e-12
8.70979e-09
9.38287e-10
6.06585e-11
3.67644e-12
2.33669e-12
8.80984e-09
9.48557e-10
6.12676e-11
3.69199e-12
2.34266e-12
8.77235e-09
9.41655e-10
6.08214e-11
3.67636e-12
2.335e-12
8.4156e-09
8.95474e-10
5.65474e-11
3.24246e-12
2.07078e-12
8.52544e-09
9.05685e-10
5.70593e-11
3.24807e-12
2.07923e-12
8.38075e-09
8.95414e-10
5.78337e-11
3.56811e-12
2.28765e-12
8.39909e-09
8.97392e-10
5.79614e-11
3.57181e-12
2.2886e-12
8.91588e-09
9.55635e-10
6.16395e-11
3.70139e-12
2.34662e-12
8.90742e-09
9.54756e-10
6.15691e-11
3.6894e-12
2.33767e-12
8.68118e-09
9.19717e-10
5.77585e-11
3.25279e-12
2.08989e-12
8.68711e-09
9.20351e-10
5.78191e-11
3.25994e-12
2.0937e-12
8.68051e-09
9.19661e-10
5.77548e-11
3.25018e-12
2.089e-12
8.6896e-09
9.20744e-10
5.78563e-11
3.26313e-12
2.09564e-12
8.40507e-09
8.98069e-10
5.80135e-11
3.5805e-12
2.29604e-12
8.38539e-09
8.95905e-10
5.78702e-11
3.57456e-12
2.29324e-12
8.25466e-09
8.81912e-10
5.64523e-11
3.36791e-12
2.13906e-12
8.54393e-09
9.18331e-10
5.88366e-11
3.46862e-12
2.1972e-12
8.54232e-09
9.18037e-10
5.88191e-11
3.46914e-12
2.19756e-12
8.25489e-09
8.82234e-10
5.64715e-11
3.36783e-12
2.13882e-12
8.77851e-09
9.42247e-10
6.08552e-11
3.67746e-12
2.3355e-12
1.88061e-06
2.69176e-06
1.8423e-06
1.86065e-06
1.86047e-06
1.89443e-06
1.88779e-06
1.85242e-06
1.86069e-06
1.88732e-06
1.83737e-06
1.83706e-06
1.8174e-06
1.88086e-06
1.84552e-06
2.5053e-07
2.52703e-07
1.88169e-06
2.50205e-07
2.52582e-07
4.56184e-07
1.14476e-07
4.6934e-07
5.45315e-08
5.39572e-08
1.11874e-07
4.58714e-07
2.70164e-06
2.69804e-06
2.65905e-06
4.94221e-07
2.1578e-06
1.87761e-06
9.66601e-07
5.43703e-08
2.19726e-06
4.9808e-07
9.82922e-07
2.49182e-07
2.53103e-07
5.40853e-08
5.38984e-08
5.41236e-08
5.41359e-08
1.87523e-06
2.49351e-07
2.5266e-07
2.50417e-07
2.53052e-07
5.37584e-08
5.38806e-08
5.41635e-08
5.41778e-08
5.43676e-08
5.35218e-08
2.54193e-07
2.48338e-07
4.56259e-07
1.14835e-07
1.12433e-07
4.6928e-07
9.54654e-07
5.00129e-07
2.20208e-06
2.18386e-06
9.87044e-07
9.56453e-07
5.01706e-07
2.2228e-06
1.85447e-06
4.94157e-07
2.17418e-06
9.88049e-07
2.54886e-07
2.52876e-07
1.90393e-06
2.5197e-07
5.45429e-08
4.87316e-07
2.16708e-06
9.62368e-07
1.14268e-07
4.61805e-07
2.15673e-06
4.95319e-07
9.66857e-07
1.13693e-07
4.61033e-07
2.14492e-06
4.89648e-07
9.66254e-07
1.12557e-07
4.60823e-07
2.51519e-07
2.53929e-07
5.43078e-08
2.19844e-06
4.99236e-07
9.82952e-07
1.14181e-07
4.69809e-07
1.14336e-07
4.70149e-07
5.36759e-08
5.42065e-08
1.6473e-07
4.91916e-08
4.8976e-08
4.9268e-08
4.89903e-08
1.64415e-07
4.30732e-07
7.05522e-07
1.09957e-07
2.50238e-07
1.09835e-07
4.29465e-07
7.05246e-07
4.31933e-07
7.06823e-07
1.09033e-07
2.52578e-07
1.08784e-07
4.30212e-07
7.07092e-07
1.64814e-07
4.92954e-08
4.9188e-08
4.92359e-08
4.90249e-08
1.65041e-07
4.29634e-07
1.09913e-07
2.50871e-07
7.05576e-07
1.10046e-07
4.31215e-07
7.0511e-07
4.30143e-07
1.08746e-07
2.5303e-07
7.06658e-07
1.08894e-07
4.31184e-07
7.06749e-07
8.06234e-08
9.28089e-08
3.90755e-07
4.60851e-07
9.37202e-08
3.94938e-07
7.99432e-08
4.84461e-08
1.14617e-07
2.36323e-07
2.35531e-07
4.85083e-08
4.79965e-08
1.13361e-07
2.32253e-07
8.15584e-08
4.6573e-07
9.58685e-08
4.01946e-07
9.47869e-08
3.98912e-07
8.22849e-08
5.45289e-08
5.41674e-08
4.77926e-08
1.1176e-07
2.2852e-07
2.28059e-07
4.78168e-08
8.10212e-08
4.58673e-07
3.90666e-07
9.48457e-08
3.9064e-07
9.47265e-08
8.11167e-08
5.43417e-08
4.29423e-07
7.04023e-07
1.09619e-07
2.48394e-07
4.29431e-07
7.01991e-07
1.09509e-07
4.30166e-07
7.07473e-07
1.0898e-07
2.52894e-07
4.30764e-07
7.06083e-07
1.08816e-07
1.64327e-07
4.91069e-08
4.90539e-08
1.64682e-07
4.90635e-08
4.90247e-08
5.39939e-08
5.40396e-08
5.41084e-08
5.41525e-08
1.64603e-07
4.92192e-08
4.9058e-08
1.6488e-07
4.91596e-08
4.90329e-08
4.29157e-07
7.03691e-07
1.09493e-07
2.49867e-07
4.29675e-07
1.09604e-07
7.04002e-07
4.30537e-07
7.06471e-07
1.08847e-07
2.53354e-07
4.30675e-07
1.08969e-07
7.07297e-07
1.64573e-07
4.90596e-08
4.90163e-08
1.64172e-07
4.90753e-08
4.90612e-08
4.30824e-07
1.09756e-07
7.0474e-07
2.49812e-07
4.29448e-07
1.09735e-07
7.04723e-07
4.31017e-07
1.0893e-07
7.06928e-07
2.52798e-07
4.30423e-07
1.08847e-07
7.06301e-07
5.37697e-08
5.38255e-08
5.42065e-08
5.41426e-08
5.44026e-08
5.40176e-08
5.34627e-08
4.31136e-07
7.12118e-07
2.53969e-07
1.10402e-07
1.10336e-07
7.11168e-07
4.30561e-07
4.28894e-07
7.00858e-07
2.47551e-07
1.08016e-07
1.07832e-07
6.98936e-07
4.28349e-07
2.5305e-07
7.12152e-07
1.64095e-07
4.91284e-08
4.8822e-08
4.91171e-08
4.87718e-08
1.64184e-07
8.07147e-08
9.29207e-08
3.90194e-07
4.61149e-07
9.37328e-08
3.95466e-07
7.99364e-08
4.85192e-08
1.14899e-07
2.37748e-07
2.36071e-07
4.87652e-08
4.80863e-08
2.30093e-07
1.13425e-07
2.33203e-07
4.7748e-08
8.16728e-08
4.65517e-07
9.59031e-08
4.03325e-07
9.48737e-08
3.99222e-07
8.25812e-08
1.65459e-07
4.93248e-08
4.9511e-08
4.94969e-08
4.3354e-07
7.13067e-07
2.54431e-07
1.097e-07
1.09483e-07
7.11224e-07
4.33978e-07
4.33887e-07
7.12114e-07
2.52327e-07
1.10769e-07
7.11023e-07
1.10726e-07
4.3238e-07
4.32491e-07
1.09392e-07
2.54103e-07
7.09098e-07
1.10193e-07
7.13104e-07
4.32647e-07
4.3494e-07
2.52571e-07
7.13119e-07
1.10611e-07
1.65261e-07
4.93608e-08
4.95706e-08
4.93349e-08
4.95142e-08
1.65729e-07
5.4463e-08
5.45299e-08
4.89178e-08
1.14189e-07
2.33728e-07
2.33427e-07
4.8933e-08
8.22856e-08
4.62046e-07
9.55582e-08
3.96817e-07
9.53758e-08
3.96925e-07
8.24475e-08
8.18184e-08
4.61089e-07
3.95574e-07
9.51028e-08
4.85889e-08
1.1363e-07
2.32255e-07
2.31684e-07
4.86269e-08
4.85465e-08
1.13702e-07
2.32211e-07
8.1873e-08
4.61776e-07
3.94957e-07
9.51675e-08
3.95445e-07
9.51931e-08
8.19788e-08
8.17112e-08
4.61205e-07
9.52268e-08
3.93808e-07
4.819e-08
1.12494e-07
2.30225e-07
2.29878e-07
4.82021e-08
4.81476e-08
1.12513e-07
2.29929e-07
8.16856e-08
4.61283e-07
9.52974e-08
3.93563e-07
9.50308e-08
3.94208e-07
8.17105e-08
4.32428e-07
7.08803e-07
2.51085e-07
1.09061e-07
1.08729e-07
7.06147e-07
4.32644e-07
4.33057e-07
7.14616e-07
2.53579e-07
1.10685e-07
7.12855e-07
1.10646e-07
4.33018e-07
1.64899e-07
4.92062e-08
4.94117e-08
4.91302e-08
4.93777e-08
1.65221e-07
5.42962e-08
4.85156e-08
1.13981e-07
2.3582e-07
2.35841e-07
4.8483e-08
8.22936e-08
4.70031e-07
4.0117e-07
9.60256e-08
4.01721e-07
9.60623e-08
8.22461e-08
4.8578e-08
1.14392e-07
2.36222e-07
2.364e-07
4.85487e-08
8.23609e-08
4.70337e-07
4.01655e-07
9.62193e-08
4.02239e-07
9.61994e-08
8.21675e-08
5.36247e-08
5.36272e-08
5.4184e-08
8.10363e-07
1.11837e-06
1.12349e-06
1.8513e-06
8.11979e-07
1.10499e-06
1.11278e-06
3.06885e-06
3.07917e-06
2.86814e-06
8.09472e-07
1.11256e-06
1.11939e-06
1.85781e-06
8.12159e-07
1.10419e-06
1.11418e-06
8.11635e-07
1.91384e-06
1.1143e-06
1.11979e-06
8.1045e-07
1.12142e-06
1.1255e-06
8.08855e-07
1.123e-06
1.11733e-06
1.86543e-06
1.11278e-06
1.10806e-06
8.11487e-07
8.14356e-07
1.12316e-06
1.1278e-06
1.87056e-06
1.11951e-06
1.1161e-06
8.17212e-07
8.1448e-07
1.117e-06
1.13267e-06
1.87313e-06
1.12651e-06
1.1095e-06
8.16993e-07
8.11594e-07
1.91515e-06
1.11257e-06
1.1156e-06
8.10707e-07
1.12285e-06
1.12571e-06
3.0428e-06
3.08854e-06
2.87406e-06
3.07881e-06
3.07767e-06
2.88512e-06
3.0019e-06
3.05215e-06
2.85064e-06
1.29465e-06
9.62405e-07
4.9444e-07
7.03008e-07
9.58503e-07
7.01227e-07
1.30218e-06
1.31775e-06
4.94854e-07
9.7173e-07
7.03649e-07
1.37093e-06
9.63401e-07
8.82448e-07
1.50897e-06
8.79248e-07
1.4941e-06
1.37866e-06
1.31081e-06
9.7068e-07
4.98087e-07
7.10581e-07
9.68623e-07
7.09739e-07
1.31324e-06
1.3948e-06
9.79315e-07
1.53203e-06
8.9519e-07
1.52076e-06
8.92432e-07
1.39283e-06
8.10801e-07
1.84673e-06
1.11585e-06
1.12121e-06
8.11981e-07
1.1049e-06
1.11285e-06
1.39475e-06
8.74622e-07
1.50091e-06
9.7128e-07
8.89501e-07
1.52835e-06
1.37852e-06
1.32378e-06
9.76166e-07
5.00648e-07
7.14618e-07
7.11378e-07
9.73909e-07
1.32711e-06
1.31738e-06
4.96935e-07
7.07293e-07
9.72577e-07
1.40179e-06
9.77816e-07
9.01656e-07
1.54072e-06
8.93131e-07
1.53198e-06
1.40496e-06
1.3968e-06
8.73483e-07
1.50926e-06
9.70516e-07
8.89409e-07
1.53385e-06
1.37506e-06
1.32833e-06
9.79065e-07
5.01424e-07
7.18239e-07
7.13294e-07
9.76357e-07
1.33237e-06
1.32066e-06
6.99903e-07
4.98166e-07
9.65008e-07
7.09337e-07
1.30113e-06
9.76031e-07
1.40384e-06
9.77466e-07
9.05718e-07
1.54526e-06
8.94335e-07
1.53612e-06
1.4118e-06
8.1746e-07
1.917e-06
1.11454e-06
1.12756e-06
1.13491e-06
1.12545e-06
8.14534e-07
1.28073e-06
9.50241e-07
4.86577e-07
6.93341e-07
6.91157e-07
9.45324e-07
1.28619e-06
1.35681e-06
9.5825e-07
8.74136e-07
1.50733e-06
8.7083e-07
1.49674e-06
1.36922e-06
1.29975e-06
9.65988e-07
4.95282e-07
7.06062e-07
7.04345e-07
9.62179e-07
1.30774e-06
1.37476e-06
9.63958e-07
1.50918e-06
8.86021e-07
1.50225e-06
8.8296e-07
1.37961e-06
1.28343e-06
9.55599e-07
4.89061e-07
6.97881e-07
9.52632e-07
6.95417e-07
1.29105e-06
1.35915e-06
9.62655e-07
1.50611e-06
8.7913e-07
1.49327e-06
8.75501e-07
1.36706e-06
1.31335e-06
9.66131e-07
4.99356e-07
7.13379e-07
9.64019e-07
7.11936e-07
1.31488e-06
1.39934e-06
9.79567e-07
1.52887e-06
8.99239e-07
1.52648e-06
8.97115e-07
1.39801e-06
2.65684e-06
1.86414e-06
1.87872e-06
1.90745e-06
2.66343e-06
1.86141e-06
1.88095e-06
1.91017e-06
2.6872e-06
1.86181e-06
1.88369e-06
1.90491e-06
2.6952e-06
1.8667e-06
1.8879e-06
1.90118e-06
2.6784e-06
1.8679e-06
1.88619e-06
1.90711e-06
2.67869e-06
1.8705e-06
1.87834e-06
1.90568e-06
2.6962e-06
1.86403e-06
1.87257e-06
1.90552e-06
2.69589e-06
1.86186e-06
1.87744e-06
1.90739e-06
2.67593e-06
1.86762e-06
1.87232e-06
1.91425e-06
2.67259e-06
1.86736e-06
1.8737e-06
1.91281e-06
2.67343e-06
1.87178e-06
1.88075e-06
1.91208e-06
2.65789e-06
1.86237e-06
1.87538e-06
1.90858e-06
2.65942e-06
1.86517e-06
1.8649e-06
1.90608e-06
2.68817e-06
1.85516e-06
1.86759e-06
1.90386e-06
2.69972e-06
1.85579e-06
1.86235e-06
1.89315e-06
2.69569e-06
1.84394e-06
1.85346e-06
1.86752e-06
1.86255e-06
1.8665e-06
1.87302e-06
1.85569e-06
1.86497e-06
1.86173e-06
1.84581e-06
1.88604e-06
1.87205e-06
1.85566e-06
1.85545e-06
1.91132e-06
1.87698e-06
1.85554e-06
1.8742e-06
1.85762e-06
1.87355e-06
1.91758e-06
1.8776e-06
1.85663e-06
1.8638e-06
1.8603e-06
1.86343e-06
1.84505e-06
1.8647e-06
1.84923e-06
1.93404e-06
1.8901e-06
1.85571e-06
1.88269e-06
1.85401e-06
1.8622e-06
1.92721e-06
1.88353e-06
1.86478e-06
1.87061e-06
1.86105e-06
1.86647e-06
1.91939e-06
1.8743e-06
1.85858e-06
1.86461e-06
1.86925e-06
1.8724e-06
1.8471e-06
1.86119e-06
1.85301e-06
1.94052e-06
1.89277e-06
1.85824e-06
1.88981e-06
1.85856e-06
1.86267e-06
1.93296e-06
1.88004e-06
1.87111e-06
1.8705e-06
1.87261e-06
1.8688e-06
1.92253e-06
1.87893e-06
1.87028e-06
1.86653e-06
1.87224e-06
1.87122e-06
1.84929e-06
1.86899e-06
1.8499e-06
1.93919e-06
1.88985e-06
1.8576e-06
1.88843e-06
1.86344e-06
1.85732e-06
1.93345e-06
1.88311e-06
1.8808e-06
1.87481e-06
1.87352e-06
1.87925e-06
1.92469e-06
1.88225e-06
1.86643e-06
1.86832e-06
1.86399e-06
1.86968e-06
1.84309e-06
1.86559e-06
1.84646e-06
1.93847e-06
1.88637e-06
1.86433e-06
1.88803e-06
1.86616e-06
1.86176e-06
1.9267e-06
1.8696e-06
1.87545e-06
1.87802e-06
1.87455e-06
1.87655e-06
1.93031e-06
1.87776e-06
1.86655e-06
1.87047e-06
1.86126e-06
1.87058e-06
1.85146e-06
1.86936e-06
1.84822e-06
1.93545e-06
1.8825e-06
1.86643e-06
1.87393e-06
1.85121e-06
1.86013e-06
1.9211e-06
1.87293e-06
1.87424e-06
1.86903e-06
1.86974e-06
1.87032e-06
1.92866e-06
1.87961e-06
1.85924e-06
1.86976e-06
1.85271e-06
1.87263e-06
1.8476e-06
1.87265e-06
1.84391e-06
1.92669e-06
1.88444e-06
1.85741e-06
1.87528e-06
1.86478e-06
1.85552e-06
1.92014e-06
1.87276e-06
1.86708e-06
1.87185e-06
1.87074e-06
1.86251e-06
1.92628e-06
1.87421e-06
1.85362e-06
1.8723e-06
1.85237e-06
1.86828e-06
1.84464e-06
1.86307e-06
1.84841e-06
1.93206e-06
1.8825e-06
1.8641e-06
1.87937e-06
1.86585e-06
1.85951e-06
1.92087e-06
1.87358e-06
1.8644e-06
1.86572e-06
1.86827e-06
1.87092e-06
1.92403e-06
1.87716e-06
1.85856e-06
1.86529e-06
1.86073e-06
1.87109e-06
1.84213e-06
1.86481e-06
1.85165e-06
1.92392e-06
1.88374e-06
1.86431e-06
1.87874e-06
1.85662e-06
1.86635e-06
1.91958e-06
1.86626e-06
1.86485e-06
1.87127e-06
1.85683e-06
1.87262e-06
1.92494e-06
1.87735e-06
1.85991e-06
1.86341e-06
1.85148e-06
1.86068e-06
1.85187e-06
1.87101e-06
1.84994e-06
1.92907e-06
1.88434e-06
1.86024e-06
1.87827e-06
1.86727e-06
1.86703e-06
1.91025e-06
1.86422e-06
1.86182e-06
1.86847e-06
1.85839e-06
1.87496e-06
1.91959e-06
1.87406e-06
1.85523e-06
1.86338e-06
1.84455e-06
1.86645e-06
1.84795e-06
1.87536e-06
1.85682e-06
1.93015e-06
1.88498e-06
1.86344e-06
1.8841e-06
1.87119e-06
1.86689e-06
1.91022e-06
1.86166e-06
1.85596e-06
1.87373e-06
1.86176e-06
1.86801e-06
1.92504e-06
1.88234e-06
1.8454e-06
1.86813e-06
1.84843e-06
1.86676e-06
1.85431e-06
1.87418e-06
1.86208e-06
1.93061e-06
1.87755e-06
1.86783e-06
1.88391e-06
1.87144e-06
1.86636e-06
1.91076e-06
1.86519e-06
1.85918e-06
1.86839e-06
1.86731e-06
1.87028e-06
1.9276e-06
1.87276e-06
1.85144e-06
1.8539e-06
1.85708e-06
1.86037e-06
1.8534e-06
1.86853e-06
1.86743e-06
1.91984e-06
1.88149e-06
1.86729e-06
1.87676e-06
1.86526e-06
1.86861e-06
1.90841e-06
1.87442e-06
1.86636e-06
1.86028e-06
1.87258e-06
1.86834e-06
1.91275e-06
1.87264e-06
1.85039e-06
1.84808e-06
1.86126e-06
1.86634e-06
1.8582e-06
1.86909e-06
1.86089e-06
1.91633e-06
1.87586e-06
1.86099e-06
1.87271e-06
1.87244e-06
1.86996e-06
1.91493e-06
1.8721e-06
1.86932e-06
1.86355e-06
1.87167e-06
1.86323e-06
1.9129e-06
1.87701e-06
1.85069e-06
1.847e-06
1.8648e-06
1.87408e-06
1.84538e-06
1.87307e-06
1.86196e-06
1.917e-06
1.88483e-06
1.86307e-06
1.87849e-06
1.87267e-06
1.87031e-06
1.91281e-06
1.88135e-06
1.86482e-06
1.85835e-06
1.8698e-06
1.86934e-06
1.91374e-06
1.8798e-06
1.84538e-06
1.85176e-06
1.87145e-06
1.88064e-06
1.83929e-06
1.87274e-06
1.86121e-06
1.91224e-06
1.89331e-06