/*--------------------------------*- C++ -*----------------------------------*\
| =========                 |                                                 |
| \\      /  F ield         | OpenFOAM: The Open Source CFD Toolbox           |
|  \\    /   O peration     | Version:  2206                                  |
|   \\  /    A nd           | Website:  www.openfoam.com                      |
|    \\/     M anipulation  |                                                 |
\*---------------------------------------------------------------------------*/
FoamFile
{
    version     2.0;
    format      ascii;
    arch        "LSB;label=32;scalar=64";
    class       volScalarField;
    location    "130";
    object      omega;
}
// * * * * * * * * * * * * * * * * * * * * * * * * * * * * * * * * * * * * * //

dimensions      [0 0 -1 0 0 0 0];

internalField   nonuniform List<scalar> 
67442
(
29.359
48.4811
48.3109
56.0011
56.5717
48.6775
48.0065
55.0768
49.7688
49.9418
49.7049
56.3803
48.2796
296.334
169.705
397.718
298.395
173.045
29.4388
29.6987
29.4555
163.206
35.9618
100.748
399.357
34.4987
160.82
96.6036
207.754
205.989
397.593
399.288
206.05
207.855
296.394
169.425
161.137
34.7181
97.5782
160.708
34.2095
97.3699
206.079
207.733
399.253
163.401
36.4306
101.131
298.469
172.998
36.4892
163.305
101.068
298.415
172.781
36.0548
162.875
100.798
298.407
172.809
207.778
206.083
397.652
34.5495
161.097
97.5345
296.335
169.588
296.337
169.649
399.193
397.631
415.284
296.235
213.584
213.395
415.429
326.009
169.068
306.24
182.006
306.153
181.773
326.071
397.589
329.424
172.868
185.101
309.606
417.703
298.272
216.565
216.41
417.902
417.888
298.346
216.318
329.281
172.875
185.268
309.624
185.069
309.479
329.393
399.177
399.328
180.992
130.899
207.636
306.837
130.658
306.74
180.864
179.478
129.705
205.949
306.552
129.965
306.454
179.229
248.225
402.398
402.301
402.234
402.154
248.253
397.455
399.103
399.24
180.665
129.981
205.893
306.085
305.949
129.508
180.506
180.133
131.027
207.619
307.39
307.252
130.567
179.963
248.219
401.923
402.86
401.774
402.696
248.247
415.332
296.29
213.472
213.367
415.457
326.01
169.191
306.238
181.526
306.179
181.878
326.057
179.558
129.518
205.961
306.57
306.455
129.827
179.184
181.141
130.707
207.644
306.909
131.036
306.826
180.689
248.251
402.336
402.497
402.119
402.382
248.295
399.094
329.437
172.781
309.6
184.993
417.771
298.342
216.519
216.409
417.966
417.953
298.415
216.437
329.296
172.784
309.624
185.138
309.476
184.992
329.405
417.77
298.329
216.478
216.325
417.963
329.332
172.807
184.856
309.676
184.958
309.567
329.43
417.724
298.327
216.569
216.439
417.916
329.327
172.793
309.672
185.232
309.559
185.063
329.432
180.164
130.973
207.656
307.32
307.226
130.511
180.024
180.423
129.834
206.03
306.137
129.343
306.031
180.168
248.263
402.903
401.951
402.752
401.845
248.334
397.533
415.298
296.279
213.454
213.374
415.437
325.998
169.541
181.822
306.225
181.674
306.17
326.059
415.277
296.276
213.4
213.366
415.408
325.997
169.66
181.737
306.236
181.661
306.18
326.055
399.031
397.509
21.6537
22.4161
16.348
121.609
86.9575
86.1214
56.4152
87.3112
86.5621
120.928
121.554
86.1075
86.801
54.8105
85.5631
86.2439
121.162
121.179
85.7904
86.241
56.43
86.6963
86.2257
120.718
121.396
86.6592
85.8362
55.6854
85.2942
85.2431
121.019
21.5247
22.1934
16.2619
22.6376
21.8432
16.4087
22.409
21.4372
16.2999
77.2794
101.378
163.136
129.056
101.791
129.162
76.7901
66.0475
101.199
109.698
59.4758
110.086
59.9126
65.5175
75.3856
100.052
161.261
126.169
98.6122
125.999
74.9285
63.4574
97.811
56.845
106.606
56.3067
106.916
63.1636
75.4107
99.8281
160.831
126.591
126.087
99.2592
74.8213
63.8099
95.9716
106.762
56.8514
106.169
55.2133
63.5811
74.9719
99.4256
160.893
126.11
126.284
99.7961
74.5008
63.4273
97.6551
106.386
55.615
106.773
56.8259
63.0296
78.0217
101.486
163.124
129.267
128.23
100.658
76.9535
67.1083
99.6611
110.062
59.9957
109.165
59.332
65.8746
77.8313
101.462
163.04
129.137
128.189
100.96
77.3261
66.8417
100.003
59.828
109.97
58.7254
109.062
66.0378
77.7765
101.567
163.492
129.145
101.92
129.328
77.3284
66.4157
101.24
59.743
110.003
60.1499
110.359
65.9528
75.1806
99.5611
160.932
126.285
99.3054
126.143
74.497
63.5938
97.3631
56.87
105.691
56.5825
106.846
63.2046
742.177
1623.05
4480.12
16857
116782
717.929
1593.93
4407.15
16553.3
116912
742.351
1624.92
4488.43
16909.1
116802
717.831
1594.33
4408.65
16562.1
116892
717.69
1593.16
4403.77
16531.7
116862
717.633
1593.78
4406.54
16549.8
116912
742.805
1625.54
4491.48
16929.6
116803
717.57
1593.54
4405.64
16544.5
116872
743.057
1627.21
4498.38
16971.2
116814
742.487
1625.67
4492.37
16935.4
116781
742.124
1624.4
4486.73
16899.4
116772
717.739
1593.26
4404.24
16536.1
116881
742.093
1622.94
4480.41
16861.3
116795
742.151
1623.15
4480.99
16864.5
116802
717.405
1593.06
4403.54
16531.7
116892
717.576
1592.8
4402.55
16525.5
116911
714.983
1592.41
4403.45
16533.4
116835
741.938
1622.94
4481.01
16863.7
116782
717.812
1593.88
4407.37
16555.2
116912
728.065
1607.38
4437.06
16655.5
116752
727.7
1604.05
4435.55
16691
116727
714.913
1593.51
4408.2
16562.6
116840
742.132
1625.19
4491.36
16930.6
116802
742.301
1625.07
4489.75
16918.9
116802
717.685
1594.42
4409.73
16569.7
116892
717.814
1594.37
4409.07
16565.3
116892
741.463
1625.02
4492.54
16946
116795
741.383
1625.49
4495.54
16966.4
116795
741.057
1623.34
4485.11
16899.6
116795
740.904
1623.42
4485.82
16904.8
116795
715.256
1594.73
4403.99
16503.7
116918
715.334
1594.61
4403.42
16501
116921
715.127
1594.73
4404.34
16506.1
116918
715.205
1594.58
4403.62
16502.5
116921
717.549
1593.09
4404.11
16534.7
116862
717.483
1593.85
4407.45
16556.3
116912
717.611
1593.81
4406.88
16552.4
116912
742.632
1625.34
4490.85
16925.7
116803
742.087
1627.02
4501.32
17000.2
116789
741.852
1627.15
4502.88
17011.6
116789
715.367
1595.06
4405.11
16511.1
116919
715.238
1595.05
4405.34
16512.9
116919
717.446
1593.63
4406.47
16550
116872
728.261
1608.08
4440.07
16673.4
116747
727.796
1604.41
4437.18
16701.4
116725
715.173
1594.39
4412.06
16585.9
116852
742.789
1627.4
4501
16991
116814
742.927
1627.17
4498.91
16976.2
116814
742.395
1626.08
4495.24
16955.2
116781
714.972
1593.81
4409.67
16571.4
116831
742.03
1624.86
4489.78
16920.2
116772
742.379
1627.45
4502.95
17010.2
116759
742.178
1627.51
4503.95
17017.5
116759
715.505
1595.29
4406.14
16516.2
116904
717.629
1593.25
4404.65
16539.2
116881
715.044
1592.63
4404.39
16539.1
116836
741.965
1622.99
4481.21
16867.3
116795
715.056
1592.67
4404.57
16541
116840
741.964
1622.96
4480.76
16863.5
116802
717.286
1593.17
4404.39
16537.3
116892
717.451
1592.74
4402.73
16527.4
116911
715.192
1593.07
4406.34
16552.1
116838
715.172
1594.45
4412.39
16588.6
116840
727.895
1605.54
4429.39
16608.2
116768
727.64
1602.01
4426.29
16633.9
116747
727.465
1601.84
4426.49
16636.7
116747
727.987
1605.6
4429.32
16607.1
116768
715.109
1592.54
4403.57
16533.6
116835
741.915
1626.34
4498.34
16981.7
116776
741.809
1626.56
4499.96
16992.6
116776
715.469
1594.95
4404.42
16506.5
116887
715.333
1594.93
4404.73
16508.6
116887
715.031
1593.37
4406.99
16554.8
116840
727.935
1607.55
4438.51
16665.4
116752
727.717
1603.97
4435.02
16687.5
116727
727.539
1604.25
4437.62
16706.1
116727
728
1607.22
4436.52
16652.5
116752
715.03
1593.4
4407.52
16558.5
116840
742.201
1627.59
4503.04
17009.2
116777
741.985
1627.94
4506.25
17032.6
116777
715.545
1595.38
4406.28
16517
116918
715.419
1595.44
4406.98
16521.8
116918
741.999
1626.23
4497.34
16974.2
116776
741.77
1626.31
4498.99
16987.3
116776
715.417
1595.04
4404.99
16509.7
116933
715.273
1595
4405.32
16512.3
116933
741.812
1626.24
4497.09
16972.5
116795
741.591
1626.54
4500.03
16994
116795
715.431
1595.08
4405.01
16509.9
116921
715.282
1595.06
4405.43
16513
116921
728.057
1606.09
4431.55
16622.4
116751
727.629
1602.13
4427.13
16640.2
116727
727.499
1601.97
4426.75
16638.4
116727
728.134
1606.2
4431.87
16624.4
116751
715.289
1593.14
4406.34
16551.6
116838
728.135
1608.28
4441.7
16684.5
116747
727.806
1604.32
4436.61
16697.6
116725
727.636
1604.62
4439.29
16716.7
116725
728.197
1607.92
4439.51
16670.2
116747
715.305
1594.28
4411.07
16579.4
116852
715.264
1594.19
4410.9
16578.9
116852
715.262
1594.23
4411.15
16581.1
116840
728.44
1609.38
4446.41
16713.2
116774
728.291
1606.17
4445.13
16749.9
116749
728.234
1606.64
4448.07
16769.7
116749
728.436
1608.89
4444.02
16698.7
116774
728.28
1608.78
4443.91
16697.9
116769
728.209
1605.77
4443.54
16740.8
116747
728.106
1606.27
4446.63
16761.5
116747
728.272
1608.28
4441.52
16683.4
116769
715.061
1593.59
4408.41
16563.7
116831
715.391
1595.27
4406.36
16517.9
116904
715.142
1592.7
4404.47
16539.4
116836
727.948
1605.78
4430.44
16614.4
116758
727.573
1602.01
4426.66
16636.2
116725
727.464
1601.9
4426.85
16639
116736
728.009
1605.8
4430.55
16614.9
116747
715.16
1592.76
4404.69
16541.5
116840
727.969
1605.88
4430.72
16617.6
116752
727.507
1601.74
4425.63
16630.7
116727
727.405
1601.67
4425.7
16631.8
116727
728.011
1605.8
4430.17
16614.1
116752
49.71
55.1587
48.0763
29.5813
172.788
36.24
100.318
298.349
172.762
36.3205
162.947
100.969
399.172
207.743
329.405
172.817
185.246
309.485
185.124
309.597
329.25
417.956
298.404
216.47
216.343
417.736
329.411
172.78
309.487
185.097
309.6
184.942
329.261
399.297
180.085
130.363
207.646
307.138
130.424
307.045
180.114
179.961
129.138
129.243
180.156
248.48
402.709
402.799
248.338
120.649
55.3354
86.471
84.8234
85.3035
84.9992
120.564
22.297
16.3274
22.569
21.7635
16.3758
66.3045
100.427
109.986
59.0129
108.957
59.2356
66.5819
76.7814
100.694
162.967
129.035
128.174
100.823
76.5888
66.1977
99.8921
59.6337
109.902
58.4602
108.84
66.5453
74.6462
99.8771
98.8818
74.9815
55.3592
48.4503
49.5536
29.1514
397.473
399.118
206.008
207.819
296.244
169.612
160.691
34.5242
97.2795
298.273
163.046
397.572
399.254
180.471
129.279
205.912
305.98
306.051
129.416
180.524
179.878
130.433
207.707
307.274
307.346
130.492
179.991
248.171
401.775
402.701
401.91
402.85
248.214
415.432
296.283
213.538
213.479
415.274
326.087
169.257
306.167
181.739
306.221
181.836
325.981
417.883
298.331
216.505
216.373
417.664
120.919
55.5938
85.077
85.8867
85.237
86.0238
121.212
21.5417
74.8365
98.9101
160.746
125.863
99.0811
125.993
74.996
63.2578
96.2754
105.809
56.5459
106.011
55.5031
63.4626
77.2736
101.307
163.062
129.202
101.057
128.379
77.5746
742.909
1627.52
4501.08
16990.1
116814
717.673
1594.38
4409.4
16567.3
116892
715.277
1594.27
4411.25
16580.9
116852
742.883
1627.04
4498.54
16973.9
116814
717.734
1594.17
4408.3
16560.7
116892
727.923
1607.05
4436.06
16650.2
116752
727.611
1604.29
4437.37
16703.3
116727
727.582
1603.76
4434.83
16687.8
116727
727.834
1607.35
4438.05
16663.5
116752
728.121
1607.73
4438.98
16667.6
116747
727.705
1604.66
4439.04
16714
116725
727.682
1604.12
4436.43
16697.8
116725
728.031
1608.06
4441.13
16681.9
116747
715.127
1594.36
4412.32
16588.5
116852
742.007
1627.83
4505.33
17025.5
116777
741.952
1627.26
4502.48
17007.3
116777
715.383
1595.36
4406.52
16518.6
116918
715.452
1595.25
4405.99
16515.6
116918
717.562
1593.09
4403.84
16532.6
116862
717.494
1593.85
4407.3
16554.8
116912
741.956
1622.82
4479.77
16855.9
116782
742.176
1625.13
4490.61
16924.6
116802
717.64
1593.07
4403.5
16530.5
116862
717.578
1593.71
4406.44
16549.5
116912
715.085
1592.49
4403.52
16533.5
116835
742.031
1622.93
4479.94
16856.4
116782
742.172
1624.61
4487.98
16908.1
116802
715.274
1595
4405.11
16510.7
116933
715.291
1595.08
4405.29
16511.8
116921
714.959
1593.17
4406.56
16552.6
116840
714.825
1593.32
4407.63
16559.9
116840
741.822
1626.2
4498.04
16980.1
116776
741.849
1626.03
4496.7
16971.6
116776
741.627
1626.43
4499.13
16987
116795
741.568
1625.86
4496.39
16969.9
116795
715.398
1595.02
4404.87
16509.2
116921
715.368
1594.93
4404.73
16508.7
116933
727.928
1605.42
4428.66
16603.8
116768
727.473
1601.86
4425.96
16632.1
116747
727.483
1601.7
4425.46
16629.9
116747
727.795
1605.29
4428.68
16604.9
116768
714.95
1592.35
4403.43
16533.8
116835
58.3284
29.9261
50.183
48.7773
58.384
57.2967
57.9144
49.4444
49.3937
57.6825
50.4355
50.803
50.8669
57.8238
49.4338
207.849
206.275
57.7807
207.76
206.227
171.925
296.378
169.619
397.703
398.341
298.422
173.398
29.9728
29.934
30.0655
163.794
36.7887
49.4622
102.229
399.329
34.9732
161.813
98.8469
207.841
206.265
399.251
399.104
397.663
397.564
57.0365
207.72
206.211
207.539
206.131
399.103
399.204
397.583
397.644
397.616
399.22
206.119
207.955
171.329
296.374
297.398
169.572
100.933
161.583
34.5292
36.4119
98.4888
101.018
161.42
35.3246
49.073
162.388
35.7965
98.1385
206.166
207.814
57.4965
206.809
399.312
163.896
37.0953
102.403
298.5
173.292
37.1295
163.737
102.187
298.455
173.212
37.1255
163.748
102.106
298.404
173.23
207.895
206.27
397.673
35.4525
161.652
99.0426
296.396
170.062
296.373
170.006
399.193
397.641
248.264
402.316
402.227
402.434
402.327
248.168
181.396
132.119
306.911
207.661
306.805
181.106
131.09
179.803
130.634
306.62
206.077
306.519
179.562
129.717
248.228
402.438
402.333
402.305
402.215
248.152
181.033
306.805
207.521
132.068
306.863
180.933
131.681
179.496
306.542
206.073
130.669
306.585
179.516
130.336
327.53
308.107
184.029
170.892
307.625
183.219
327.941
415.703
296.145
213.679
213.67
415.552
416.579
297.015
214.674
326.624
170.273
306.438
181.887
306.817
182.387
326.245
397.456
398.114
417.731
298.39
216.657
216.659
417.846
329.374
173.278
185.56
309.65
185.578
309.591
329.405
399.22
181.481
132.255
306.873
207.839
181.164
131.679
306.842
179.963
130.688
306.615
206.209
179.456
129.977
306.573
248.27
402.424
402.327
248.096
402.328
402.244
399.109
399.209
397.562
397.638
248.208
402.42
402.32
248.121
402.298
402.215
181.299
131.773
306.815
207.552
181.126
306.835
131.697
179.868
130.54
306.564
206.003
179.655
306.591
129.792
248.099
402.317
402.233
248.236
402.411
402.311
181.039
306.834
131.175
207.676
180.961
306.767
131.296
179.875
306.586
129.578
206.114
179.446
306.534
130.456
399.189
399.09
397.639
397.565
397.351
398.067
399.127
181.092
130.926
205.909
306.121
306.041
130.69
180.555
180.353
131.795
207.935
307.351
307.303
131.116
179.793
206.325
130.644
248.242
401.926
402.817
401.805
402.702
248.149
327.493
308.044
183.631
170.811
307.614
183.034
327.862
415.735
296.194
213.513
213.668
415.532
416.528
215.175
296.96
214.406
416.742
326.592
170.01
306.432
181.708
306.786
182.193
326.207
248.409
401.739
401.707
402.694
179.592
130.594
206.027
306.542
306.433
130.195
179.193
181.224
131.742
207.816
306.993
131.502
306.923
180.664
179.25
306.241
206.239
131.358
306.397
129.907
180.208
180.933
207.808
131.358
306.869
248.302
402.349
402.523
402.158
402.461
248.14
399.22
399.298
417.887
298.465
216.531
216.511
418.011
329.407
173.076
309.656
185.383
309.593
185.194
329.437
329.444
173.002
185.205
309.616
417.858
298.414
216.624
216.575
417.991
417.959
298.414
216.531
329.402
173.123
185.39
309.655
185.332
309.589
329.43
329.432
172.986
309.619
185.205
417.776
298.346
216.592
216.484
417.911
417.874
298.292
216.445
329.393
173.013
309.657
185.452
309.59
185.275
329.43
180.541
131.773
207.836
307.313
307.29
131.181
180.119
180.746
130.575
206.206
306.2
129.888
306.137
180.522
248.368
402.853
401.956
402.761
401.894
248.266
397.596
415.326
296.36
213.689
213.616
415.427
326.055
169.714
182.348
306.271
182.107
306.189
326.094
415.305
296.317
213.6
213.502
415.404
326.051
169.707
182.301
306.266
182.09
306.193
326.088
399.108
399.154
397.587
122.178
88.3483
87.5827
57.0916
121.831
87.5767
85.9898
21.9897
22.7158
16.4686
122.286
88.3502
87.6078
56.987
121.422
87.1965
86.2891
122.255
57.4396
88.2351
87.5433
121.933
87.0292
86.5089
122.173
87.3799
88.0592
56.9163
86.3698
87.1476
121.842
122.142
87.1453
87.7976
56.9539
87.1657
85.8251
121.24
122.177
87.9676
86.999
56.3907
85.7893
86.9544
121.323
121.217
56.5475
88.2386
87.3525
121.656
86.9446
86.9271
22.1875
22.7274
16.5041
22.8126
22.1176
16.5126
22.9377
22.1786
16.5258
78.4736
102.708
163.404
129.957
102.431
129.427
77.9906
77.0094
163.637
102.353
129.446
66.9269
101.269
110.894
60.9305
110.16
59.7674
65.5321
76.3122
101.129
161.48
127.537
99.9083
126.566
76.0559
64.1945
97.6972
58.1161
107.907
56.7432
106.991
63.8054
121.629
57.3951
87.6716
85.8117
121.639
87.4659
87.1832
65.9901
109.821
59.8667
99.6982
107.731
57.7864
65.8145
76.4425
100.8
161.292
127.42
127.435
100.276
75.0813
75.9959
162.061
127.962
100.931
63.8141
97.6538
107.891
58.2295
107.633
57.8369
64.0342
65.6223
109.836
59.776
99.54
108.295
58.213
65.0248
75.4584
100.845
160.912
127.241
126.38
100.065
76.0943
75.2194
129.139
162.101
102.216
128.387
77.6764
100.189
64.613
98.4917
107.57
58.3897
106.936
58.3602
64.4893
121.64
56.3896
87.403
87.6045
86.5085
86.8528
121.78
78.604
102.95
163.644
130.101
129.451
102.105
78.161
67.286
101.527
111.281
61.0911
110.414
60.0955
66.7873
78.5862
102.494
163.433
129.811
129.195
101.549
78.2019
67.2221
100.993
61.3024
110.912
59.9165
110.085
66.74
78.518
102.871
163.443
129.911
101.988
129.397
78.0923
67.0172
101.289
60.9226
110.772
59.7785
109.999
66.5349
76.3235
101.146
161.179
127.182
100.242
126.624
75.2757
64.4277
98.0912
58.2117
107.823
56.8756
106.907
63.972
29.3636
49.9832
48.3482
57.4911
29.4998
50.1725
48.3849
57.8514
29.5126
49.9498
48.3534
57.8113
29.6765
50.1056
48.4235
58.1795
29.7431
50.1929
48.7427
58.1228
29.8728
49.9864
48.7983
58.3617
29.825
50.0217
48.9326
58.2644
29.9547
50.2038
48.9481
58.3066
29.9681
50.2531
49.024
58.1038
29.9854
49.9045
49.0364
58.3034
29.8142
50.0544
49.1587
58.1307
29.7826
50.0974
49.1244
58.1872
29.7897
50.1468
48.835
58.1042
29.7985
50.2898
48.7104
58.1544
29.7569
50.3409
48.7206
58.4687
29.8438
50.3992
48.706
56.1953
48.6501
49.0044
56.7899
49.6995
49.9156
49.6867
50.2422
56.5226
47.9899
48.9094
57.1504
55.3117
56.424
47.3792
47.5005
48.8007
48.9713
55.6471
56.7533
48.7573
49.542
49.718
49.9086
49.8329
49.9965
50.2254
55.6883
56.5184
47.5421
47.9139
49.0086
56.8531
55.9432
56.7225
48.2535
47.7356
48.7519
49.2097
55.5979
56.9429
48.2516
49.5167
49.8142
49.9592
49.6279
49.6221
50.3595
54.6589
56.8751
48.4803
48.0021
48.9373
56.8261
56.1812
56.9317
47.5711
48.0073
48.9294
49.1602
55.9077
57.4096
48.6094
48.8376
50.0245
50.0169
49.8711
49.8137
50.404
55.0004
57.06
47.5405
48.077
49.1581
58.0057
55.1251
57.153
48.2013
48.281
49.0441
49.1416
55.5532
57.2686
49.6817
48.8863
50.2604
50.3781
49.776
49.8868
50.524
56.2041
57.105
48.7058
48.4359
49.2211
57.7983
56.5717
57.2599
48.3217
48.2709
49.0475
49.2089
56.0607
57.2395
49.6312
49.8055
50.2628
50.3889
49.9265
49.6968
50.6102
56.3602
57.1895
48.1147
48.1963
49.4428
57.4492
56.3172
57.283
48.3222
48.2214
49.0824
49.3877
55.8957
57.3635
49.6248
49.0599
50.3865
50.4881
49.9867
49.6958
50.5885
56.4263
57.18
48.9836
48.0753
49.3137
58.1219
55.625
57.5412
48.3854
48.8832
49.2775
49.2501
56.6838
57.2614
49.8279
50.0299
50.4395
50.4007
50.063
49.3336
50.6681
56.5848
57.4799
48.6739
48.0139
49.322
58.1816
56.8864
57.3538
47.8881
48.6364
49.381
49.2478
56.4131
56.9953
49.8445
49.8081
50.4615
50.3543
49.8383
50.0744
50.4556
56.8811
57.0971
48.8586
48.7224
49.3232
57.8918
56.4179
57.4605
48.8186
48.1039
49.2782
49.4601
55.4062
56.9147
49.2781
49.0908
50.4625
50.3843
49.8132
49.2588
50.6048
56.354
57.0499
48.5509
48.7299
49.3548
57.3536
56.8484
57.1922
48.4516
48.5517
49.256
49.2888
55.39
57.2044
49.3039
49.8309
50.4647
50.4618
50.2351
49.1622
50.5816
56.4919
57.2646
48.3542
49.0113
49.4172
57.7911
55.6164
57.2791
47.8402
48.4129
49.3022
49.2044
56.2264
57.0899
50.0163
49.3721
50.355
50.5319
49.9922
49.8813
50.5472
56.4045
57.1212
48.9653
48.3016
49.3882
57.1655
56.2531
57.4352
48.9145
48.4325
49.2792
49.3357
56.6417
57.2919
49.6295
49.8784
50.3638
50.4038
49.6915
49.1834
50.3937
55.5783
56.958
48.91
48.5538
49.4064
57.899
56.4393
57.2772
48.7858
48.6135
49.2903
49.2942
55.7072
57.278
49.3918
49.3201
50.5546
50.5549
49.3259
49.9906
50.8734
55.8012
57.2611
48.6915
48.4011
49.2099
57.8235
56.1159
57.2157
48.5244
48.8287
49.2578
49.3164
56.0835
57.2819
50.0659
49.9545
50.3122
50.4888
50.4405
50.1256
50.6407
56.44
57.2951
47.8434
48.3649
49.4053
57.5067
55.4004
57.3339
48.2029
48.6053
49.4336
49.2411
56.4564
57.4863
49.7229
49.9114
50.366
50.6698
49.5783
49.5189
50.9734
55.7986
57.3281
48.8746
48.3894
49.3181
58.1503
56.3834
56.7165
48.8083
48.178
48.9913
49.0952
57.0497
56.5505
49.8596
50.1135
50.0158
49.8673
49.8517
49.8062
50.6703
56.4041
57.5933
48.4438
48.3703
49.1455
169.666
296.239
397.584
172.367
298.284
29.1708
29.7836
29.6279
29.8018
101.699
49.5272
163.682
36.1835
399.17
98.5798
47.5066
34.2657
161.458
56.9852
207.737
206.115
169.663
296.322
169.661
296.241
397.731
397.612
172.948
298.454
172.841
298.347
29.1136
29.4227
29.2985
29.3406
29.7256
29.6386
29.7774
101.783
163.533
36.5778
49.3385
101.738
163.508
36.1262
399.367
399.214
98.2188
34.9725
161.462
47.2799
98.2704
34.4085
161.397
207.757
206.228
57.4542
207.683
206.135
169.732
296.359
169.716
296.297
397.749
397.623
173.048
298.468
172.912
298.352
29.1754
29.2885
29.3865
29.2887
29.6536
29.5625
29.8677
101.71
163.655
36.6259
49.2621
101.595
163.597
35.9777
399.394
399.259
98.5626
34.9376
161.384
47.5423
98.4922
34.4188
161.366
207.751
206.218
57.6623
207.674
206.161
169.803
296.407
169.789
296.329
397.764
397.632
173.211
298.46
173.178
298.35
29.2879
29.0406
29.1192
29.1042
29.8252
29.6227
30.0199
101.914
163.725
36.4871
48.8463
101.918
163.747
35.7911
399.452
399.277
98.7316
34.852
161.628
47.4591
98.7911
34.1988
161.572
207.761
206.2
57.6898
207.686
206.17
169.92
296.402
169.94
296.32
397.76
397.611
173.254
298.464
173.286
298.363
29.5869
29.3126
29.2937
29.1624
29.8785
29.8406
30.1552
101.888
163.749
36.4895
49.4347
101.817
163.571
35.8649
399.465
399.274
98.8556
34.9565
161.595
47.3424
98.8809
34.5139
161.61
207.789
206.24
58.0547
207.721
206.23
169.9
296.392
169.927
296.307
397.737
397.625
173.295
298.471
173.274
298.359
29.5261
29.0197
29.9069
29.3588
29.8627
29.8755
30.1258
101.736
163.734
36.5993
49.3876
101.714
163.705
36.16
399.414
399.254
98.9494
35.1048
161.61
48.0854
98.9424
34.7494
161.603
207.781
206.27
58.0999
207.722
206.194
169.992
296.389
169.896
296.303
397.762
397.615
173.393
298.475
173.268
298.359
29.3761
29.4065
29.7688
29.3644
29.9293
30.0214
30.142
102.069
163.574
36.8015
48.9433
101.884
163.653
36.0944
399.433
399.251
98.8468
35.1329
161.601
47.5229
98.8925
34.7467
161.53
207.835
206.26
58.0056
207.781
206.225
169.986
296.366
169.988
296.288
397.756
397.626
173.221
298.476
173.219
298.365
29.3299
29.496
29.6084
29.4564
30.0056
29.944
30.0641
102.123
163.811
36.5504
48.6833
102.092
163.779
35.854
399.406
399.242
98.7763
35.2073
161.662
48.4482
98.7124
34.485
161.646
207.876
206.284
58.0367
207.777
206.243
170.032
296.364
169.965
296.282
397.741
397.6
173.283
298.483
173.242
298.37
29.2918
29.4793
29.7084
29.4789
29.8911
29.9626
30.1059
101.741
163.826
36.5745
49.6949
102.119
163.863
35.8884
399.417
399.219
98.9406
35.193
161.805
48.4307
99.0687
34.6019
161.699
207.848
206.283
57.9968
207.761
206.225
170.003
296.372
170.051
296.286
397.736
397.59
173.208
298.452
173.286
298.329
29.4353
29.1693
29.6622
29.8306
29.9781
30.1317
30.0912
102.199
163.899
36.5747
49.5119
102.099
163.807
35.882
399.399
399.234
98.8432
35.2063
161.744
48.153
99.0083
34.6899
161.724
207.828
206.267
57.9863
207.763
206.202
169.997
296.347
169.991
296.264
397.713
397.574
173.244
298.446
173.008
298.341
29.4464
29.7962
29.7288
29.6527
29.9453
30.068
30.1589
101.972
163.819
36.5692
48.5975
102.112
163.852
36.051
399.408
399.239
98.7157
35.1848
161.715
48.4089
98.968
35.0099
161.669
207.83
206.209
58.0877
207.723
206.147
169.897
296.354
170.003
296.285
397.702
397.566
173.312
298.468
173.251
298.36
29.615
29.367
29.8511
29.5893
29.9782
30.0264
30.1232
102.097
163.87
36.5239
49.4675
102.055
163.861
35.6612
399.394
399.218
98.7672
35.2872
161.807
47.728
98.7999
34.3863
161.778
207.856
206.242
58.0039
207.758
206.198
169.969
296.376
170.014
296.304
397.689
397.556
173.264
298.468
173.208
298.356
29.5781
29.7566
29.5561
29.5932
29.9213
29.9838
30.0473
102.032
163.904
36.7122
49.3976
102.053
163.891
35.7925
399.38
399.231
98.786
35.1119
161.745
48.3944
98.7356
34.3632
161.643
207.79
206.278
58.0642
207.746
206.22
169.982
296.379
170.018
296.29
397.685
397.562
173.291
298.45
173.206
298.342
29.5354
29.6204
29.5758
29.6095
29.8734
29.8849
30.1232
102.25
163.688
36.7196
49.6847
102.243
163.715
35.9711
399.389
399.226
98.9569
34.9729
161.804
47.8198
99.0205
34.3769
161.7
207.806
206.316
58.0467
207.74
206.216
170.01
296.366
170.095
296.289
397.696
397.563
173.21
298.466
173.262
298.364
29.1716
29.4758
29.5717
29.5588
30.0158
29.8852
30.0648
102.216
163.929
36.7404
49.6337
102.176
163.764
36.1038
399.378
399.213
98.6574
34.9992
161.805
47.8284
98.9797
34.1291
161.686
207.792
206.243
58.1202
207.668
206.192
169.907
296.356
169.93
296.297
397.703
397.586
173.325
298.482
173.276
298.378
29.5596
29.4588
29.3885
29.6602
30.0224
29.9221
30.3235
102.142
163.813
36.7467
48.9293
102.195
163.783
35.9955
399.339
399.201
98.8736
35.2063
161.793
47.8192
99.0914
34.7
161.672
207.779
206.258
58.1649
207.746
206.202
170.025
296.357
169.941
296.266
397.684
397.576
173.362
298.461
173.378
298.378
29.4779
29.5306
29.5563
29.7789
29.8373
29.3269
29.8762
102.292
163.767
36.6281
49.4475
102.042
163.671
35.7158
399.331
399.188
98.6537
35.0445
161.836
47.8058
98.7517
34.2765
161.793
397.456
399.098
56.3468
205.893
207.718
397.492
397.564
399.154
399.262
54.91
205.91
207.657
205.954
207.653
169.756
296.304
97.6667
47.915
161.164
33.7511
98.0079
48.9397
161.112
34.9387
169.08
296.25
296.269
169.364
169.224
296.279
296.321
169.614
96.7507
47.711
161.037
34.7556
160.835
34.5425
97.6791
96.933
48.7353
161.254
35.1447
160.5
34.5414
97.792
56.7681
206.19
207.801
399.135
397.603
397.679
55.8524
205.939
207.684
206.052
207.743
399.121
399.282
101.013
48.4556
163.465
35.8199
172.455
298.343
101.013
49.1468
35.4408
163.35
172.663
298.348
298.378
172.82
99.9037
49.4399
163.413
36.3934
163.182
35.6706
100.953
172.498
298.383
298.423
172.826
99.1338
48.9267
36.43
163.351
36.2444
163.081
101.135
172.801
298.351
101.787
49.4115
36.321
163.661
172.74
298.328
100.983
48.8697
163.469
36.3124
163.269
36.2639
101.006
172.917
298.377
298.426
172.787
101.144
49.4497
36.5984
163.507
36.3597
163.31
101.793
172.995
298.348
298.4
172.917
56.4701
207.683
206.082
397.543
399.189
399.313
54.6383
207.497
206.003
207.643
205.883
397.572
397.65
98.4135
48.5541
34.7943
161.382
169.806
296.282
169.811
296.284
97.9887
47.8185
34.782
161.43
34.2573
160.72
98.0434
96.7313
48.5807
35.0358
161.392
34.8772
160.944
98.4084
169.372
296.296
296.319
169.733
169.354
296.289
296.315
169.724
399.032
397.509
56.1426
207.695
206.176
207.507
205.962
399.056
399.177
397.527
397.615
397.588
397.49
399.293
399.154
205.879
207.643
56.3275
205.901
207.664
397.516
397.585
399.18
399.297
55.4792
205.913
207.564
205.83
207.604
169.657
296.384
169.308
296.301
97.7231
160.494
34.0349
48.3071
96.6364
160.998
34.3343
97.8201
160.776
34.8058
48.4967
96.6903
160.986
34.3404
169.289
296.274
296.261
169.609
169.136
296.334
296.317
169.757
96.1351
47.8904
161.133
34.7148
160.585
34.422
97.8723
97.0785
48.066
160.987
35.1714
160.416
35.0784
97.9375
206.035
207.587
56.9911
206.002
207.563
399.252
399.107
397.627
397.704
55.6579
205.972
207.632
205.952
207.724
399.137
399.257
101.131
163.18
36.0169
48.2548
99.7878
163.396
36.1904
172.887
298.417
172.448
298.363
101.194
35.6771
162.415
49.0827
100.42
36.0139
163.207
172.542
298.371
298.404
172.839
99.9171
49.4546
163.423
36.334
163.171
36.1715
101.138
172.465
298.396
298.418
172.91
100.525
48.9468
36.3597
163.182
36.0876
162.872
101.265
172.579
298.424
172.467
298.351
101.643
36.0937
163.009
49.249
100.97
36.3225
163.492
172.747
298.41
172.935
298.349
100.868
49.12
163.373
36.4069
163.175
35.9311
100.864
172.844
298.379
298.42
172.738
100.741
49.9005
36.6116
163.468
36.4536
163.121
101.33
172.865
298.377
298.412
172.71
207.604
206.08
56.2417
207.553
205.978
397.666
397.556
399.231
399.331
54.5566
207.525
205.925
207.424
205.819
397.611
397.668
98.0206
34.5661
160.621
48.4911
97.6599
34.3552
161.393
169.826
296.327
169.441
296.281
169.82
296.319
169.507
296.266
97.4502
48.2728
34.7754
160.968
34.6572
161.098
97.9179
97.4038
48.1085
35.0107
161.39
34.3143
161.088
98.1668
169.629
296.311
296.323
169.798
169.214
296.28
296.308
169.862
399.21
399.067
397.632
397.516
56.7128
207.697
206.146
207.649
206.014
399.095
399.221
397.531
397.623
397.61
397.527
399.324
399.174
205.848
207.707
56.7463
205.928
207.69
397.56
397.627
399.19
399.311
55.8463
205.955
207.746
205.875
207.537
169.671
296.366
169.437
296.334
98.1642
160.851
34.1874
48.5144
97.3244
161.155
34.509
97.9391
160.507
34.5664
48.7053
97.1349
160.998
34.3875
169.399
296.33
296.331
169.727
169.319
296.362
296.363
169.69
96.5031
48.4582
161.121
34.9152
160.793
34.6229
98.3883
97.1478
48.3319
161.166
35.096
160.681
34.3748
98.1833
205.811
207.657
56.7392
206.074
207.696
399.281
399.173
397.639
397.712
55.2959
205.901
207.603
205.883
207.646
399.165
399.317
101.621
162.981
35.1399
49.2682
100.346
163.469
35.9838
173.033
298.445
172.458
298.404
101.454
35.8933
162.721
49.0774
100.081
35.7889
163.258
172.628
298.364
298.387
172.92
99.9484
48.8788
163.513
36.4841
162.942
35.7316
102.099
172.7
298.432
298.458
172.974
100.725
48.9839
36.5045
163.389
35.7596
162.978
101.891
172.637
298.441
172.474
298.375
101.439
36.0129
163.238
49.404
100.485
36.289
163.437
172.848
298.435
172.873
298.354
101.038
49.516
163.662
36.2441
163.358
36.1778
101.201
172.838
298.395
298.436
172.967
100.849
49.4135
36.6432
163.629
36.3725
163.197
101.672
172.581
298.377
298.413
172.97
207.387
206.029
56.7408
207.618
205.998
397.713
397.602
399.275
399.393
55.0249
207.555
205.973
207.611
205.988
397.631
397.712
98.3486
34.7258
161.101
48.6971
97.7342
34.2975
161.391
169.856
296.36
169.379
296.319
169.83
296.321
169.594
296.261
97.7498
47.8644
34.3949
161.585
34.2397
160.831
98.6851
97.2874
48.645
34.9206
161.393
34.5764
161.082
98.3501
169.456
296.349
296.357
169.822
169.427
296.302
296.32
169.849
399.236
399.085
397.636
397.535
56.9158
207.706
206.132
207.627
206.094
399.104
399.233