/*--------------------------------*- C++ -*----------------------------------*\
| =========                 |                                                 |
| \\      /  F ield         | OpenFOAM: The Open Source CFD Toolbox           |
|  \\    /   O peration     | Version:  2206                                  |
|   \\  /    A nd           | Website:  www.openfoam.com                      |
|    \\/     M anipulation  |                                                 |
\*---------------------------------------------------------------------------*/
FoamFile
{
    version     2.0;
    format      ascii;
    arch        "LSB;label=32;scalar=64";
    class       volScalarField;
    location    "130";
    object      p;
}
// * * * * * * * * * * * * * * * * * * * * * * * * * * * * * * * * * * * * * //

dimensions      [0 2 -2 0 0 0 0];

internalField   nonuniform List<scalar> 
67442
(
-0.00967431
-0.00967419
-0.00967418
-0.00966277
-0.00966284
-0.00967422
-0.00967421
-0.00966287
-0.00967421
-0.00967422
-0.00967409
-0.00966285
-0.00967411
-0.00966319
-0.0096632
-0.00966316
-0.00966297
-0.0096627
-0.00967425
-0.00967429
-0.00967418
-0.0096631
-0.0096742
-0.00966292
-0.00966302
-0.00967421
-0.00966337
-0.00966357
-0.0096629
-0.00966304
-0.00966314
-0.009663
-0.00966312
-0.00966296
-0.00966318
-0.00966319
-0.00966346
-0.00967426
-0.00966367
-0.00966345
-0.00967425
-0.00966365
-0.00966313
-0.0096629
-0.00966296
-0.00966313
-0.00967425
-0.00966297
-0.00966298
-0.00966271
-0.00967431
-0.00966314
-0.00966296
-0.00966294
-0.00966266
-0.00967419
-0.00966306
-0.00966291
-0.00966292
-0.00966265
-0.00966298
-0.00966303
-0.00966306
-0.00967417
-0.00966337
-0.00966358
-0.00966309
-0.00966308
-0.0096631
-0.00966309
-0.00966296
-0.00966308
-0.00968518
-0.00968528
-0.00966319
-0.00968528
-0.0096633
-0.00968521
-0.0096853
-0.00966329
-0.0096632
-0.00968522
-0.00968529
-0.00966329
-0.00968529
-0.00970744
-0.00970713
-0.00970719
-0.00970742
-0.00968541
-0.00968548
-0.00966288
-0.00968556
-0.00966304
-0.0097075
-0.00970741
-0.00970733
-0.00968548
-0.00968574
-0.00966275
-0.00966297
-0.00968569
-0.00968549
-0.00966299
-0.00968547
-0.00970746
-0.00968546
-0.00966244
-0.00968544
-0.00966305
-0.00968578
-0.00968529
-0.00966283
-0.00968538
-0.00966261
-0.00968525
-0.00966312
-0.0096856
-0.00968518
-0.00966291
-0.00968544
-0.00966301
-0.00966304
-0.00968532
-0.00968527
-0.00966286
-0.0096853
-0.00968545
-0.00970745
-0.00968546
-0.00966273
-0.00968532
-0.0096632
-0.00968525
-0.00968565
-0.00966296
-0.00968556
-0.00966249
-0.00968549
-0.0096631
-0.00968535
-0.00968587
-0.00966288
-0.00968552
-0.00966311
-0.00966308
-0.00968534
-0.00968538
-0.00966294
-0.00968517
-0.00968527
-0.00966319
-0.00968528
-0.00966331
-0.0096852
-0.00968529
-0.00966328
-0.00966319
-0.00968521
-0.00968528
-0.00966327
-0.00968563
-0.00966274
-0.00968535
-0.0096632
-0.00968541
-0.0096857
-0.00966303
-0.00968526
-0.00966246
-0.0096854
-0.00966305
-0.00968578
-0.00968513
-0.0096628
-0.00968547
-0.00966311
-0.00966304
-0.00968535
-0.0096853
-0.00966291
-0.00968542
-0.00970744
-0.00970713
-0.00970742
-0.00970718
-0.00968541
-0.0096855
-0.0096629
-0.00968558
-0.00966305
-0.00970749
-0.00970742
-0.00970733
-0.00968548
-0.00968574
-0.00966298
-0.00966276
-0.00968549
-0.0096857
-0.00966299
-0.00968537
-0.00968545
-0.00966285
-0.00968552
-0.00966301
-0.00968543
-0.00968571
-0.00966272
-0.00966293
-0.00968566
-0.00968544
-0.00966296
-0.00968537
-0.00968544
-0.00966284
-0.00968552
-0.00966301
-0.00968543
-0.0096857
-0.00966293
-0.00966269
-0.00968544
-0.00968565
-0.00966294
-0.00968557
-0.00966255
-0.00968552
-0.00966309
-0.00968539
-0.00968591
-0.00966286
-0.00968542
-0.00966261
-0.00968523
-0.00966314
-0.0096856
-0.00968516
-0.00966293
-0.00968549
-0.00966307
-0.00966306
-0.0096854
-0.00968527
-0.00966291
-0.00968522
-0.00968509
-0.0096852
-0.00966307
-0.00968519
-0.0096632
-0.00968511
-0.00968518
-0.00966308
-0.00966317
-0.00968519
-0.00968511
-0.00966317
-0.00968509
-0.00968521
-0.00966309
-0.0096852
-0.00966321
-0.00968512
-0.00968519
-0.00966309
-0.00966317
-0.00968519
-0.00968512
-0.00966319
-0.00968541
-0.00968523
-0.00967429
-0.0096743
-0.00967431
-0.00968465
-0.00966273
-0.00966288
-0.00968539
-0.00968538
-0.00968528
-0.00966359
-0.00968475
-0.00966295
-0.00966279
-0.00968548
-0.00968534
-0.00968548
-0.00966362
-0.00968468
-0.00966298
-0.00966282
-0.00968547
-0.0096855
-0.00968527
-0.00966366
-0.00968474
-0.00966286
-0.00966285
-0.00968549
-0.00968532
-0.00968549
-0.0096636
-0.00967421
-0.0096742
-0.00967414
-0.00967432
-0.00967424
-0.0096743
-0.00967418
-0.00967417
-0.00967413
-0.0096861
-0.0096621
-0.00968524
-0.00966307
-0.0096862
-0.00968523
-0.00966223
-0.00968622
-0.00968536
-0.00966302
-0.00966188
-0.00968531
-0.00968638
-0.00966204
-0.00968553
-0.00966243
-0.00968491
-0.00966346
-0.00968584
-0.00968474
-0.00966273
-0.00968542
-0.00968466
-0.00966279
-0.00966356
-0.00968545
-0.00968468
-0.00966284
-0.00968555
-0.0096625
-0.00968498
-0.00966359
-0.00968484
-0.00968586
-0.00966278
-0.00968546
-0.00968472
-0.00966367
-0.00966285
-0.00968475
-0.00968548
-0.00966288
-0.00968555
-0.00966251
-0.00968498
-0.00966357
-0.00968482
-0.00968586
-0.00966282
-0.00968546
-0.00968472
-0.00966363
-0.00966283
-0.00968475
-0.00968547
-0.00966288
-0.00968616
-0.00966209
-0.00968529
-0.0096631
-0.00968529
-0.00968623
-0.0096622
-0.0096863
-0.00968541
-0.00966303
-0.00966194
-0.00968534
-0.00968646
-0.00966206
-0.00968616
-0.0096621
-0.00968531
-0.00966311
-0.0096853
-0.00968623
-0.0096622
-0.00968632
-0.00968541
-0.00966191
-0.00966306
-0.00968644
-0.00968535
-0.00966205
-0.00968604
-0.00966201
-0.00968522
-0.00966303
-0.00968613
-0.00968521
-0.00966215
-0.00968621
-0.00968537
-0.00966187
-0.00966297
-0.00968637
-0.00968528
-0.00966201
-0.00968548
-0.00966243
-0.0096849
-0.00966348
-0.00968581
-0.00968473
-0.00966275
-0.00968539
-0.00968466
-0.00966279
-0.00966358
-0.00968544
-0.00968465
-0.00966284
-0.00966328
-0.00966329
-0.00966329
-0.00966329
-0.0096633
-0.0096632
-0.00966321
-0.00966321
-0.00966322
-0.00966322
-0.0096631
-0.0096631
-0.0096631
-0.0096631
-0.0096631
-0.00966308
-0.00966309
-0.00966308
-0.00966308
-0.00966308
-0.00966319
-0.00966319
-0.00966319
-0.00966319
-0.00966319
-0.00966306
-0.00966307
-0.00966307
-0.00966307
-0.00966306
-0.00966326
-0.00966327
-0.00966327
-0.00966327
-0.00966327
-0.00966302
-0.00966303
-0.00966302
-0.00966302
-0.00966302
-0.00966311
-0.00966311
-0.00966311
-0.00966311
-0.00966311
-0.00966308
-0.00966309
-0.00966309
-0.00966309
-0.00966309
-0.00966306
-0.00966307
-0.00966306
-0.00966306
-0.00966306
-0.00966311
-0.00966312
-0.00966312
-0.00966312
-0.00966312
-0.00966318
-0.00966318
-0.00966318
-0.00966319
-0.00966319
-0.00966319
-0.0096632
-0.0096632
-0.0096632
-0.0096632
-0.00966302
-0.00966303
-0.00966303
-0.00966303
-0.00966303
-0.00966312
-0.00966313
-0.00966313
-0.00966313
-0.00966314
-0.00968518
-0.00968519
-0.00968518
-0.00968518
-0.00968518
-0.00968519
-0.00968518
-0.00968518
-0.00968518
-0.00968517
-0.00968524
-0.00968524
-0.00968524
-0.00968523
-0.00968523
-0.0097075
-0.0097075
-0.0097075
-0.0097075
-0.00970749
-0.00970748
-0.00970749
-0.00970748
-0.00970748
-0.00970748
-0.00968538
-0.00968538
-0.00968538
-0.00968538
-0.00968538
-0.00968535
-0.00968534
-0.00968535
-0.00968535
-0.00968535
-0.00970755
-0.00970756
-0.00970755
-0.00970755
-0.00970755
-0.00968541
-0.0096854
-0.0096854
-0.0096854
-0.0096854
-0.00970752
-0.00970752
-0.00970752
-0.00970752
-0.00970752
-0.00966307
-0.00966307
-0.00966307
-0.00966307
-0.00966307
-0.00968529
-0.00968528
-0.00968528
-0.00968528
-0.00968528
-0.00966312
-0.00966312
-0.00966313
-0.00966313
-0.00966313
-0.00968519
-0.00968519
-0.00968519
-0.00968519
-0.00968519
-0.00966305
-0.00966306
-0.00966305
-0.00966305
-0.00966305
-0.00966307
-0.00966308
-0.00966308
-0.00966308
-0.00966308
-0.00968529
-0.00968529
-0.00968529
-0.00968529
-0.00968529
-0.00968525
-0.00968524
-0.00968524
-0.00968524
-0.00968524
-0.00968526
-0.00968525
-0.00968525
-0.00968525
-0.00968525
-0.00968539
-0.00968538
-0.00968538
-0.00968538
-0.00968538
-0.00970751
-0.00970752
-0.00970752
-0.00970752
-0.00970752
-0.00968518
-0.00968518
-0.00968518
-0.00968518
-0.00968517
-0.0096631
-0.00966311
-0.00966311
-0.00966311
-0.00966311
-0.00968526
-0.00968527
-0.00968526
-0.00968526
-0.00968526
-0.00966308
-0.00966308
-0.00966308
-0.00966308
-0.00966307
-0.00968529
-0.00968529
-0.00968529
-0.00968529
-0.00968529
-0.00968536
-0.00968535
-0.00968536
-0.00968536
-0.00968536
-0.00970749
-0.00970749
-0.00970749
-0.00970749
-0.00970749
-0.00970748
-0.00970749
-0.00970749
-0.00970748
-0.00970748
-0.00968538
-0.00968538
-0.00968538
-0.00968538
-0.00968538
-0.00968536
-0.00968535
-0.00968536
-0.00968536
-0.00968536
-0.00970755
-0.00970756
-0.00970755
-0.00970755
-0.00970755
-0.00968532
-0.00968531
-0.00968531
-0.00968531
-0.00968531
-0.00968534
-0.00968533
-0.00968533
-0.00968533
-0.00968533
-0.00968531
-0.0096853
-0.0096853
-0.0096853
-0.0096853
-0.00966313
-0.00966313
-0.00966313
-0.00966313
-0.00966313
-0.00968518
-0.00968518
-0.00968518
-0.00968518
-0.00968518
-0.00966309
-0.00966309
-0.00966309
-0.00966309
-0.00966309
-0.00968518
-0.00968517
-0.00968517
-0.00968517
-0.00968516
-0.00968509
-0.00968509
-0.00968508
-0.00968508
-0.00968507
-0.00968511
-0.00968511
-0.00968511
-0.00968511
-0.0096851
-0.00968509
-0.0096851
-0.00968509
-0.00968509
-0.00968508
-0.00968512
-0.00968511
-0.00968511
-0.00968511
-0.0096851
-0.00968535
-0.00968534
-0.00968534
-0.00968534
-0.00968534
-0.0096852
-0.00968519
-0.00968519
-0.00968519
-0.00968518
-0.00968517
-0.00968517
-0.00968517
-0.00968516
-0.00968516
-0.00968534
-0.00968535
-0.00968535
-0.00968535
-0.00968535
-0.0096852
-0.0096852
-0.0096852
-0.00968519
-0.00968519
-0.0096633
-0.00966329
-0.00966329
-0.00966329
-0.00966329
-0.00968522
-0.00968521
-0.00968521
-0.00968521
-0.00968521
-0.0096633
-0.0096633
-0.00966331
-0.00966331
-0.00966331
-0.0096633
-0.00966329
-0.00966329
-0.0096633
-0.0096633
-0.00966318
-0.00966317
-0.00966317
-0.00966317
-0.00966317
-0.00968528
-0.00968527
-0.00968527
-0.00968527
-0.00968528
-0.00966313
-0.00966314
-0.00966314
-0.00966314
-0.00966314
-0.00968531
-0.0096853
-0.0096853
-0.0096853
-0.0096853
-0.00966308
-0.00966308
-0.00966308
-0.00966308
-0.00966308
-0.00968542
-0.00968542
-0.00968542
-0.00968542
-0.00968543
-0.00966304
-0.00966304
-0.00966304
-0.00966304
-0.00966303
-0.00968544
-0.00968543
-0.00968543
-0.00968544
-0.00968544
-0.00966305
-0.00966305
-0.00966305
-0.00966305
-0.00966304
-0.00970753
-0.00970753
-0.00970753
-0.00970753
-0.00970753
-0.00966311
-0.00966311
-0.0096631
-0.0096631
-0.0096631
-0.00968535
-0.00968535
-0.00968535
-0.00968535
-0.00968535
-0.0096631
-0.0096631
-0.0096631
-0.0096631
-0.0096631
-0.00968536
-0.00968536
-0.00968536
-0.00968536
-0.00968536
-0.0096632
-0.0096632
-0.0096632
-0.0096632
-0.0096632
-0.00968524
-0.00968524
-0.00968524
-0.00968524
-0.00968524
-0.00966314
-0.00966314
-0.00966313
-0.00966313
-0.00966313
-0.00968531
-0.0096853
-0.0096853
-0.0096853
-0.0096853
-0.00966311
-0.00966311
-0.00966311
-0.00966311
-0.00966311
-0.00968533
-0.00968533
-0.00968533
-0.00968533
-0.00968533
-0.00966311
-0.00966312
-0.00966312
-0.00966311
-0.00966311
-0.00968534
-0.00968533
-0.00968533
-0.00968533
-0.00968533
-0.0096852
-0.0096852
-0.0096852
-0.0096852
-0.00968519
-0.0096633
-0.0096633
-0.0096633
-0.00966331
-0.00966331
-0.0096852
-0.0096852
-0.0096852
-0.00968519
-0.00968519
-0.00966328
-0.00966328
-0.00966328
-0.00966328
-0.00966329
-0.00966331
-0.00966331
-0.00966331
-0.00966331
-0.00966332
-0.00968542
-0.00968542
-0.00968542
-0.00968542
-0.00968543
-0.00966304
-0.00966304
-0.00966304
-0.00966304
-0.00966304
-0.00968544
-0.00968543
-0.00968543
-0.00968544
-0.00968544
-0.00966305
-0.00966305
-0.00966305
-0.00966304
-0.00966304
-0.00966308
-0.00966308
-0.00966308
-0.00966308
-0.00966308
-0.00970752
-0.00970752
-0.00970752
-0.00970752
-0.00970752
-0.00966304
-0.00966304
-0.00966304
-0.00966304
-0.00966304
-0.00968538
-0.00968537
-0.00968537
-0.00968537
-0.00968537
-0.00966299
-0.00966299
-0.00966299
-0.00966299
-0.00966298
-0.00968539
-0.00968538
-0.00968538
-0.00968539
-0.00968539
-0.00966302
-0.00966302
-0.00966302
-0.00966302
-0.00966302
-0.00968537
-0.00968537
-0.00968537
-0.00968537
-0.00968538
-0.009663
-0.009663
-0.009663
-0.009663
-0.00966299
-0.00968538
-0.00968538
-0.00968538
-0.00968538
-0.00968538
-0.009663
-0.009663
-0.009663
-0.009663
-0.009663
-0.00966304
-0.00966304
-0.00966304
-0.00966304
-0.00966304
-0.00968523
-0.00968523
-0.00968523
-0.00968523
-0.00968523
-0.0096632
-0.0096632
-0.00966321
-0.00966321
-0.00966321
-0.0096851
-0.0096851
-0.0096851
-0.00968509
-0.00968509
-0.00966318
-0.00966318
-0.00966318
-0.00966319
-0.00966319
-0.0096851
-0.0096851
-0.0096851
-0.00968509
-0.00968509
-0.00966318
-0.00966318
-0.00966318
-0.00966318
-0.00966319
-0.00966321
-0.00966321
-0.00966321
-0.00966322
-0.00966322
-0.00968511
-0.0096851
-0.0096851
-0.0096851
-0.0096851
-0.00966318
-0.00966318
-0.00966319
-0.00966319
-0.00966319
-0.00968511
-0.00968511
-0.0096851
-0.0096851
-0.0096851
-0.0096632
-0.0096632
-0.0096632
-0.0096632
-0.00966321
-0.0096297
-0.00964099
-0.00962966
-0.00962964
-0.00964129
-0.00962971
-0.00964094
-0.00964104
-0.00964129
-0.00962972
-0.00964083
-0.00964093
-0.00964101
-0.00964107
-0.00961853
-0.00961825
-0.00964123
-0.00964103
-0.0096183
-0.00961852
-0.00964101
-0.00961859
-0.00961852
-0.00964111
-0.00961843
-0.00964095
-0.00961853
-0.00961826
-0.00964104
-0.00964125
-0.00961853
-0.0096183
-0.00964102
-0.00961857
-0.0096183
-0.00964145
-0.00961853
-0.00964092
-0.00961811
-0.00961863
-0.00964107
-0.00961857
-0.00964105
-0.00961817
-0.00964093
-0.00961844
-0.00964095
-0.00961863
-0.00964102
-0.00961915
-0.0096184
-0.00964104
-0.00964076
-0.00961844
-0.00961839
-0.00964021
-0.00962963
-0.00962939
-0.00962959
-0.00962951
-0.0096294
-0.00961758
-0.00961851
-0.00964086
-0.00964194
-0.0096186
-0.00961746
-0.00964177
-0.00961772
-0.00964174
-0.00961869
-0.00964082
-0.00961865
-0.00961768
-0.00964163
-0.00961755
-0.00961852
-0.00964192
-0.00964087
-0.00961744
-0.00961857
-0.00964178
-0.00961826
-0.00964132
-0.00961799
-0.00964104
-0.009641
-0.00962973
-0.00962971
-0.00962973
-0.00964085
-0.00964098
-0.00964085
-0.009641
-0.00964083
-0.00964083
-0.0096405
-0.00962971
-0.00964025
-0.00964101
-0.00964078
-0.00961871
-0.00961855
-0.00961851
-0.00964116
-0.00961869
-0.0096408
-0.00961877
-0.00961828
-0.00964098
-0.00961841
-0.00964137
-0.0096185
-0.00964089
-0.00961865
-0.00961804
-0.00964107
-0.00961848
-0.00964089
-0.00964092
-0.00961866
-0.00961864
-0.00964106
-0.00961886
-0.00961876
-0.00964082
-0.00961875
-0.00964074
-0.00961885
-0.00961875
-0.00964078
-0.00964081
-0.00961884
-0.00961875
-0.00964075
-0.00961859
-0.00961851
-0.00964109
-0.00961843
-0.00964094
-0.00961916
-0.00961844
-0.00964086
-0.00964098
-0.00961854
-0.00961836
-0.00964023
-0.00962957
-0.00961833
-0.00964137
-0.00961902
-0.00964034
-0.00961807
-0.00961913
-0.00964105
-0.0096184
-0.00961922
-0.00964027
-0.00964101
-0.0096192
-0.00961837
-0.00964097
-0.00961772
-0.00964171
-0.00961868
-0.00964077
-0.00961764
-0.00961862
-0.00964162
-0.00964091
-0.0096409
-0.00964091
-0.00964091
-0.00964091
-0.00964096
-0.00964095
-0.00964095
-0.00964095
-0.00964095
-0.00961863
-0.00961863
-0.00961863
-0.00961863
-0.00961863
-0.00961865
-0.00961866
-0.00961866
-0.00961866
-0.00961866
-0.00961862
-0.00961863
-0.00961863
-0.00961863
-0.00961862
-0.00961859
-0.0096186
-0.0096186
-0.0096186
-0.00961859
-0.00964098
-0.00964098
-0.00964098
-0.00964098
-0.00964098
-0.00961858
-0.00961858
-0.00961858
-0.00961858
-0.00961858
-0.00964096
-0.00964096
-0.00964096
-0.00964096
-0.00964097
-0.00961859
-0.00961859
-0.00961859
-0.00961859
-0.00961859
-0.00964098
-0.00964098
-0.00964098
-0.00964098
-0.00964098
-0.00961859
-0.0096186
-0.00961859
-0.00961859
-0.00961859
-0.00964097
-0.00964097
-0.00964097
-0.00964097
-0.00964097
-0.00964092
-0.00964092
-0.00964093
-0.00964093
-0.00964093
-0.0096409
-0.00964089
-0.00964089
-0.00964089
-0.00964089
-0.00961867
-0.00961866
-0.00961866
-0.00961866
-0.00961866
-0.00964091
-0.0096409
-0.0096409
-0.0096409
-0.00964091
-0.00961864
-0.00961864
-0.00961864
-0.00961864
-0.00961863
-0.00964082
-0.00964082
-0.00964083
-0.00964082
-0.00964082
-0.00964092
-0.00964091
-0.00964091
-0.00964091
-0.00964092
-0.00964074
-0.00964074
-0.00964073
-0.00964073
-0.00964072
-0.00964089
-0.00964089
-0.00964089
-0.00964089
-0.00964089
-0.00961874
-0.00961875
-0.00961875
-0.00961875
-0.00961875
-0.00961862
-0.00961863
-0.00961863
-0.00961863
-0.00961863
-0.00961886
-0.00961885
-0.00961885
-0.00961885
-0.00961886
-0.00961886
-0.00961887
-0.00961887
-0.00961887
-0.00961888
-0.00961864
-0.00961865
-0.00961865
-0.00961865
-0.00961865
-0.00964087
-0.00964087
-0.00964087
-0.00964087
-0.00964087
-0.00964088
-0.00964088
-0.00964088
-0.00964088
-0.00964088
-0.00961862
-0.00961863
-0.00961862
-0.00961862
-0.00961862
-0.00964091
-0.00964092
-0.00964092
-0.00964092
-0.00964092
-0.00964079
-0.00964079
-0.00964079
-0.00964079
-0.00964079
-0.00961878
-0.00961878
-0.00961879
-0.00961879
-0.00961879
-0.00964088
-0.00964089
-0.00964089
-0.00964089
-0.00964089
-0.00961866
-0.00961866
-0.00961866
-0.00961866
-0.00961866
-0.00961868
-0.00961869
-0.00961869
-0.00961869
-0.00961869
-0.00961869
-0.00961869
-0.00961869
-0.00961869
-0.00961869
-0.00961887
-0.00961887
-0.00961888
-0.00961888
-0.00961889
-0.00964078
-0.00964078
-0.00964078
-0.00964078
-0.00964078
-0.00961884
-0.00961884
-0.00961885
-0.00961885
-0.00961885
-0.00964075
-0.00964075
-0.00964074
-0.00964074
-0.00964074
-0.00964075
-0.00964075
-0.00964075
-0.00964075
-0.00964074
-0.0125214
-0.0127123
-0.0127117
-0.0127119
-0.0127017
-0.0126792
-0.0127015
-0.0127125
-0.0127125
-0.0127015
-0.0127118
-0.0127115
-0.0127115
-0.0127018
-0.0127118
-0.0125216
-0.0125218
-0.0125894
-0.012589
-0.0125889
-0.0127683
-0.0127015
-0.0127015
-0.0127015
-0.0127684
-0.0127015
-0.0127014
-0.0127123
-0.0127118
-0.0127118
-0.0127018
-0.0127114
-0.0127588
-0.0127019
-0.0127016
-0.0127122
-0.012702
-0.0127022
-0.0127016
-0.0127017
-0.0125217
-0.0125889
-0.0125218
-0.0125889
-0.0126115
-0.0126788
-0.0126788
-0.0126116
-0.0126118
-0.0126788
-0.0126116
-0.0126788
-0.0126118
-0.0127015
-0.0127015
-0.0127015
-0.0127015
-0.0127683
-0.0127015
-0.0127683
-0.0127015
-0.0127677
-0.012702
-0.0127123
-0.0127583
-0.0127021
-0.0127677
-0.0127021
-0.0127124
-0.0127579
-0.0127681
-0.0127584
-0.0127022
-0.0127016
-0.0127015
-0.0127688
-0.0127683
-0.0127016
-0.0127018
-0.0127114
-0.0127019
-0.0127016
-0.0127014
-0.0127114
-0.0127018
-0.0127019
-0.0127016
-0.0127015
-0.0127115
-0.0127019
-0.0127019
-0.0127016
-0.0127015
-0.0127016
-0.0127017
-0.0127017
-0.0127122
-0.0127021
-0.0127022
-0.0127017
-0.0127017
-0.0127017
-0.0127017
-0.0127016
-0.0127017
-0.0125666
-0.0125889
-0.0125889
-0.0125667
-0.0125667
-0.0125891
-0.0125441
-0.0125211
-0.0125218
-0.0125441
-0.0125439
-0.0125215
-0.0125445
-0.0125441
-0.0125213
-0.0125218
-0.012544
-0.0125439
-0.0125216
-0.0125443
-0.0125441
-0.0125217
-0.0125218
-0.012544
-0.0125439
-0.0125216
-0.0125666
-0.0125889
-0.0125666
-0.0125894
-0.0125667
-0.0125891
-0.0125663
-0.0125666
-0.0125888
-0.0125667
-0.0125893
-0.0125668
-0.0125891
-0.0125664
-0.0127463
-0.0127683
-0.0127683
-0.0127464
-0.0127462
-0.0127464
-0.0127683
-0.0127232
-0.0127232
-0.0127014
-0.0127233
-0.0127015
-0.0127463
-0.0127462
-0.0127463
-0.0127231
-0.0127234
-0.0127013
-0.0127014
-0.0127231
-0.0127234
-0.0127013
-0.0127235
-0.0127463
-0.0127236
-0.0127237
-0.0127015
-0.0127238
-0.0127016
-0.0127237
-0.0127239
-0.0127014
-0.0127016
-0.0127239
-0.0127238
-0.0127016
-0.0127238
-0.0127238
-0.0127012
-0.0127017
-0.0127238
-0.0127016
-0.012724
-0.0127237
-0.0127238
-0.0127013
-0.0127018
-0.0127238
-0.0127017
-0.012724
-0.0127237
-0.0127239
-0.0127017
-0.0127017
-0.0127016
-0.0127237
-0.0127237
-0.012544
-0.0125666
-0.012544
-0.0125668
-0.012634
-0.0126117
-0.0126118
-0.0126116
-0.0126338
-0.0126338
-0.0126566
-0.0126792
-0.0126787
-0.0126566
-0.012679
-0.0126567
-0.0126564
-0.0126566
-0.0126791
-0.0126787
-0.0126567
-0.0126789
-0.0126568
-0.0126565
-0.0126566
-0.0126788
-0.0126788
-0.012679
-0.0126567
-0.0126567
-0.0126339
-0.0126117
-0.0126111
-0.0126339
-0.0126115
-0.0126338
-0.0126342
-0.0126339
-0.0126118
-0.0126113
-0.0126338
-0.0126116
-0.0126338
-0.0126341
-0.0126566
-0.0126338
-0.0126568
-0.0126338
-0.0127235
-0.0127463
-0.0127237
-0.0127238
-0.0127012
-0.0127235
-0.0127015
-0.0127236
-0.012724
-0.0127014
-0.0127238
-0.0127011
-0.0127238
-0.0127016
-0.0127236
-0.012724
-0.0127014
-0.0127464
-0.0127464
-0.0127238
-0.0127015
-0.0127015
-0.0127236
-0.0127237
-0.0127013
-0.0127463
-0.0127683
-0.0127683
-0.0127464
-0.0127462
-0.0127464
-0.0127683
-0.0127232
-0.0127232
-0.0127014
-0.0127233
-0.0127015
-0.0127463
-0.0127683
-0.0127462
-0.0127463
-0.0127683
-0.0127231
-0.0127234
-0.0127013
-0.0127014
-0.0127231
-0.0127234
-0.0127013
-0.0127464
-0.0127686
-0.0127464
-0.0127466
-0.012724
-0.0127013
-0.0127236
-0.0127016
-0.0127238
-0.0127241
-0.0127016
-0.0127236
-0.0127011
-0.0127238
-0.0127016
-0.012724
-0.0127235
-0.0127014
-0.0127465
-0.0127682
-0.0127463
-0.0127687
-0.0127464
-0.0127463
-0.0127684
-0.0127464
-0.0127466
-0.0127465
-0.0127467
-0.0127239
-0.0127016
-0.0127016
-0.0127237
-0.0127237
-0.0127014
-0.0127238
-0.0127466
-0.0127237
-0.0127238
-0.0127015
-0.0127238
-0.0127017
-0.0127237
-0.012724
-0.0127016
-0.0127015
-0.0127238
-0.0127239
-0.0127016
-0.0127466
-0.0127466
-0.0127466
-0.0127466
-0.0127237
-0.0127238
-0.0127016
-0.0127238
-0.0127017
-0.0127467
-0.0127466
-0.0127466
-0.0127238
-0.0127239
-0.0127015
-0.0127016
-0.0127239
-0.0127238
-0.0127017
-0.0127466
-0.0127465
-0.0127466
-0.0127466
-0.0127237
-0.0127238
-0.0127015
-0.0127238
-0.0127017
-0.0127467
-0.0127466
-0.0127466
-0.0127238
-0.0127239
-0.0127016
-0.0127015
-0.0127238
-0.0127239
-0.0127016
-0.0127238
-0.0127012
-0.0127238
-0.0127017
-0.0127237
-0.0127241
-0.0127016
-0.0127237
-0.0127013
-0.0127237
-0.0127018
-0.0127239
-0.0127236
-0.0127016
-0.0127238
-0.0127017
-0.0127017
-0.0127237
-0.0127237
-0.0127015
-0.0127237
-0.0127237
-0.0127237
-0.0127017
-0.0127238
-0.0127018
-0.0127237
-0.0127239
-0.0127017
-0.0127017
-0.0127238
-0.0127238
-0.0127017
-0.0127237
-0.0127238
-0.0127017
-0.0127238
-0.0127018
-0.0127237
-0.0127239
-0.0127017
-0.0127017
-0.0127238
-0.0127238
-0.0127018
-0.0127238
-0.0127466
-0.0127238
-0.0125433
-0.0125213
-0.0125216
-0.012544
-0.0125223
-0.012544
-0.0125439
-0.0127128
-0.0127116
-0.0127123
-0.0127229
-0.0127015
-0.0127017
-0.0127233
-0.0127025
-0.0127234
-0.0127234
-0.0126573
-0.0126566
-0.0126791
-0.0126789
-0.0126783
-0.0126567
-0.0126567
-0.012723
-0.0127015
-0.0127013
-0.0127237
-0.0127236
-0.0127236
-0.0127022
-0.012723
-0.0127016
-0.0127014
-0.0127236
-0.0127236
-0.0127236
-0.0127023
-0.0127229
-0.0127016
-0.0127017
-0.0127233
-0.0127234
-0.0127234
-0.0127025
-0.0125673
-0.0125666
-0.0125893
-0.0125891
-0.0125885
-0.0125667
-0.0125667
-0.0127128
-0.0127116
-0.0127122
-0.0127114
-0.012712
-0.0127118
-0.0127114
-0.012712
-0.0127117
-0.0127239
-0.0127009
-0.0127235
-0.0127019
-0.0127242
-0.0127233
-0.0127012
-0.0127462
-0.0127469
-0.0127462
-0.012747
-0.0127239
-0.0127234
-0.0127019
-0.0127012
-0.0127233
-0.012724
-0.0127012
-0.0127238
-0.0127011
-0.0127234
-0.0127021
-0.0127241
-0.0127233
-0.0127014
-0.0127238
-0.0127233
-0.0127014
-0.0127022
-0.0127239
-0.0127233
-0.0127015
-0.0126331
-0.0126338
-0.0126114
-0.0126116
-0.0126123
-0.0126338
-0.0126337
-0.0127472
-0.0127677
-0.0127684
-0.0127474
-0.0127474
-0.012747
-0.0127684
-0.0127235
-0.0127012
-0.012723
-0.0127021
-0.0127229
-0.012724
-0.0127017
-0.0127471
-0.0127472
-0.0127475
-0.0127465
-0.0127235
-0.0127231
-0.0127021
-0.0127017
-0.012723
-0.0127237
-0.0127018
-0.0127472
-0.0127677
-0.0127684
-0.0127473
-0.0127474
-0.012747
-0.0127685
-0.0127235
-0.0127012
-0.012723
-0.0127022
-0.012723
-0.0127241
-0.0127018
-0.012747
-0.0127679
-0.0127471
-0.012769
-0.0127474
-0.0127685
-0.0127464
-0.0127235
-0.0127231
-0.0127022
-0.0127017
-0.012723
-0.0127238
-0.0127019
-0.0127472
-0.0127467
-0.0127686
-0.0127686
-0.0127468
-0.0127467
-0.0127681
-0.012724
-0.0127009
-0.0127235
-0.0127019
-0.0127234
-0.0127242
-0.0127012
-0.0127239
-0.0127233
-0.0127019
-0.0127011
-0.0127233
-0.012724
-0.0127012
-0.012724
-0.0127009
-0.0127235
-0.0127019
-0.0127234
-0.0127242
-0.0127011
-0.0127239
-0.0127233
-0.0127011
-0.0127019
-0.012724
-0.0127233
-0.0127012
-0.012724
-0.0127008
-0.0127235
-0.0127019
-0.0127242
-0.0127234
-0.0127012
-0.012724
-0.0127234
-0.0127012
-0.0127019
-0.0127241
-0.0127234
-0.0127012
-0.0127238
-0.0127011
-0.0127234
-0.0127021
-0.0127241
-0.0127232
-0.0127014
-0.0127238
-0.0127233
-0.0127014
-0.0127022
-0.0127239
-0.0127233
-0.0127015
-0.00985184
-0.00985191
-0.00985185
-0.00984054
-0.0100295
-0.0100296
-0.0100295
-0.0100182
-0.0102074
-0.0102074
-0.0102073
-0.010196
-0.0103854
-0.0103854
-0.0103854
-0.010374
-0.0105636
-0.0105635
-0.0105635
-0.0105522
-0.010742
-0.0107419
-0.010742
-0.0107305
-0.0109203
-0.0109204
-0.0109204
-0.010909
-0.0110988
-0.0110988
-0.0110988
-0.0110874
-0.0112775
-0.0112774
-0.0112774
-0.011266
-0.0114562
-0.0114562
-0.0114562
-0.0114448
-0.0116353
-0.0116353
-0.0116353
-0.011624
-0.0118146
-0.0118146
-0.0118145
-0.0118032
-0.011994
-0.0119939
-0.0119939
-0.0119825
-0.0121734
-0.0121733
-0.0121733
-0.012162
-0.012353
-0.0123527
-0.0123528
-0.0123416
-0.0125326
-0.0125323
-0.0125323
-0.00981873
-0.00980747
-0.00980749
-0.00981878
-0.00980746
-0.00980747
-0.00980748
-0.00980743
-0.00981877
-0.00980748
-0.00980745
-0.00981874
-0.00984052
-0.00999637
-0.00985187
-0.00985189
-0.00998507
-0.00998513
-0.00984058
-0.00999642
-0.00985186
-0.00985183
-0.00998509
-0.0099851
-0.00985187
-0.00998517
-0.00998517
-0.00984052
-0.00999636
-0.00985189
-0.00998509
-0.00998521
-0.00999645
-0.0100182
-0.0101742
-0.0100295
-0.0100295
-0.0101629
-0.0101629
-0.0100182
-0.0101742
-0.0100295
-0.0100295
-0.0101629
-0.0101629
-0.0100296
-0.0101629
-0.0101629
-0.0100182
-0.0101742
-0.0100296
-0.0101629
-0.0101629
-0.0101742
-0.010196
-0.0103523
-0.0102074
-0.0102074
-0.010341
-0.0103409
-0.0101961
-0.0103522
-0.0102074
-0.0102073
-0.010341
-0.0103409
-0.0102074
-0.0103409
-0.0103408
-0.010196
-0.0103522
-0.0102074
-0.0103409
-0.0103408
-0.0103521
-0.0103741
-0.0105303
-0.0103854
-0.0103854
-0.010519
-0.010519
-0.010374
-0.0105303
-0.0103854
-0.0103854
-0.010519
-0.0105191
-0.0103854
-0.010519
-0.010519
-0.010374
-0.0105304
-0.0103853
-0.0105191
-0.010519
-0.0105303
-0.0105521
-0.0107087
-0.0105635
-0.0105635
-0.0106974
-0.0106973
-0.0105522
-0.0107087
-0.0105635
-0.0105635
-0.0106974
-0.0106974
-0.0105636
-0.0106973
-0.0106974
-0.0105522
-0.0107087
-0.0105636
-0.0106974
-0.0106974
-0.0107086
-0.0107305
-0.0108871
-0.0107419
-0.0107419
-0.0108758
-0.0108758
-0.0107305
-0.0108871
-0.0107419
-0.010742
-0.0108758
-0.0108758
-0.010742
-0.0108758
-0.0108757
-0.0107306
-0.0108871
-0.0107419
-0.0108758
-0.0108758
-0.0108871
-0.010909
-0.0110656
-0.0109203
-0.0109203
-0.0110543
-0.0110542
-0.010909
-0.0110656
-0.0109203
-0.0109204
-0.0110542
-0.0110543
-0.0109204
-0.0110542
-0.0110542
-0.010909
-0.0110656
-0.0109204
-0.0110543
-0.0110543
-0.0110656
-0.0110875
-0.0112442
-0.0110988
-0.0110988
-0.0112328
-0.0112328
-0.0110875
-0.0112441
-0.0110988
-0.0110988
-0.0112329
-0.0112328
-0.0110988
-0.0112328
-0.0112328
-0.0110875
-0.0112441
-0.0110988
-0.0112328
-0.0112328
-0.0112441
-0.0112661
-0.0114229
-0.0112774
-0.0112774
-0.0114116
-0.0114116
-0.011266
-0.0114229
-0.0112774
-0.0112774
-0.0114116
-0.0114115
-0.0112774
-0.0114116
-0.0114115
-0.011266
-0.0114229
-0.0112774
-0.0114115
-0.0114115
-0.0114229
-0.0114448
-0.0116019
-0.0114563
-0.0114562
-0.0115906
-0.0115906
-0.0114448
-0.011602
-0.0114563
-0.0114562
-0.0115906
-0.0115907
-0.0114562
-0.0115906
-0.0115907
-0.0114448
-0.011602
-0.0114562
-0.0115907
-0.0115907
-0.011602
-0.0116239
-0.0117812
-0.0116353
-0.0116353
-0.0117699
-0.01177
-0.0116239
-0.0117813
-0.0116353
-0.0116353
-0.0117699
-0.0117699
-0.0116353
-0.01177
-0.01177
-0.011624
-0.0117812
-0.0116354
-0.0117699
-0.0117699
-0.0117812
-0.0118032
-0.0119606
-0.0118146
-0.0118147
-0.0119493
-0.0119494
-0.0118033
-0.0119606
-0.0118146
-0.0118145
-0.0119493
-0.0119493
-0.0118146
-0.0119494
-0.0119493
-0.0118031
-0.0119606
-0.0118146
-0.0119493
-0.0119493
-0.0119606
-0.0119825
-0.0121402
-0.011994
-0.011994
-0.0121288
-0.0121288
-0.0119825
-0.01214
-0.0119939
-0.0119939
-0.0121289
-0.0121289
-0.0119939
-0.0121288
-0.0121288
-0.0119825
-0.0121401
-0.0119939
-0.0121288
-0.0121288
-0.01214
-0.012162
-0.0123197
-0.0121734
-0.0121734
-0.0123084
-0.0123083
-0.0121619
-0.0123196
-0.0121733
-0.0121733
-0.0123086
-0.0123086
-0.0121732
-0.0123085
-0.0123085
-0.0121621
-0.0123197
-0.0121733
-0.0123085
-0.0123085
-0.0123197
-0.0123415
-0.0124994
-0.0123528
-0.0123528
-0.0124881
-0.0124881
-0.0123414
-0.0124994
-0.0123527
-0.0123527
-0.0124884
-0.0124885
-0.0123527
-0.0124884
-0.0124886
-0.0123416
-0.0124994
-0.0123528
-0.0124884
-0.0124885
-0.0124995
-0.0125212
-0.0126791
-0.0125325
-0.0125325
-0.012668
-0.012668
-0.0125213
-0.0126791
-0.0125323
-0.0125321
-0.0126686
-0.0126688
-0.0125322
-0.0126685
-0.0126688
-0.0125214
-0.0126792
-0.0125324
-0.0126685
-0.0126685
-0.00972973
-0.00972972
-0.00972968
-0.00973024
-0.00972995
-0.00980747
-0.00980748
-0.00980742
-0.00980743
-0.00972985
-0.00971865
-0.00972978
-0.00971863
-0.0097299
-0.00972915
-0.00971869
-0.00971864
-0.0097294
-0.00972988
-0.00972991
-0.00972972
-0.00990737
-0.00984092
-0.00984093
-0.00990738
-0.00984089
-0.00990741
-0.00990785
-0.00984073
-0.00984046
-0.00990759
-0.00985188
-0.0098518
-0.00985187
-0.00998511
-0.00998519
-0.00998511
-0.00998518
-0.00990753
-0.00984086
-0.00985185
-0.00989628
-0.0098407
-0.00990738
-0.00989626
-0.00984076
-0.00990754
-0.00990682
-0.00985187
-0.00984117
-0.00989627
-0.0098414
-0.00989625
-0.00990706
-0.0098407
-0.00984082
-0.00990759
-0.00990763
-0.00990742
-0.0100851