/*--------------------------------*- C++ -*----------------------------------*\
| =========                 |                                                 |
| \\      /  F ield         | OpenFOAM: The Open Source CFD Toolbox           |
|  \\    /   O peration     | Version:  2206                                  |
|   \\  /    A nd           | Website:  www.openfoam.com                      |
|    \\/     M anipulation  |                                                 |
\*---------------------------------------------------------------------------*/
FoamFile
{
    version     2.0;
    format      ascii;
    arch        "LSB;label=32;scalar=64";
    class       surfaceScalarField;
    location    "130";
    object      phi;
}
// * * * * * * * * * * * * * * * * * * * * * * * * * * * * * * * * * * * * * //

dimensions      [0 3 -1 0 0 0 0];

oriented        oriented;

internalField   nonuniform List<scalar> 
198714
(
-2.16595e-13
1.27498e-12
-1.91707e-12
1.81363e-13
-1.24725e-07
1.24725e-07
-2.74299e-11
-2.1791e-12
-3.59259e-13
4.07157e-11
2.83879e-11
-3.62746e-11
-6.92146e-11
6.60774e-11
-6.83952e-11
6.99345e-11
1.1489e-07
-3.25695e-11
7.27547e-15
-3.29278e-13
2.80465e-11
3.32511e-11
-2.81825e-11
-1.40823e-11
3.71308e-11
-3.74257e-11
1.43951e-11
-1.16134e-07
1.16134e-07
1.64499e-11
3.36085e-11
5.80738e-11
4.25413e-11
2.74239e-08
2.36817e-11
2.73232e-11
5.06976e-11
4.92838e-11
2.74057e-08
-2.75566e-08
1.55747e-13
2.38378e-11
2.44762e-11
-2.38893e-11
1.00275e-11
3.59714e-11
-3.59204e-11
-9.86122e-12
-1.17227e-07
1.17226e-07
-2.3528e-11
6.85888e-13
-8.60961e-13
2.451e-11
2.4538e-11
-2.86313e-11
9.8631e-12
3.55824e-11
-3.36253e-11
-9.95014e-12
1.17238e-07
5.04089e-11
4.97781e-11
2.74045e-08
1.00058e-12
4.02156e-11
2.78815e-11
-4.04455e-11
-6.90663e-11
6.58585e-11
-6.56903e-11
6.9956e-11
-1.14919e-07
1.14918e-07
-1.63097e-11
-5.79905e-13
-4.89281e-13
3.76073e-11
1.73093e-11
-3.7486e-11
-4.93064e-11
6.48506e-11
-6.49684e-11
4.99797e-11
-1.15966e-07
1.15966e-07
-9.75237e-13
-1.49001e-13
3.73008e-11
1.75872e-11
-3.67973e-11
-4.9546e-11
6.52837e-11
-6.53384e-11
5.02546e-11
1.16007e-07
5.74996e-11
4.30521e-11
2.74081e-08
-2.75575e-08
8.29749e-13
1.15519e-12
2.77126e-11
3.36304e-11
-2.80895e-11
-1.3757e-11
3.68281e-11
-3.72036e-11
1.40878e-11
1.16211e-07
2.95092e-13
-7.9233e-12
1.31828e-08
-6.7205e-13
-1.03369e-12
-1.31734e-08
-8.06703e-14
-1.95406e-11
1.98895e-08
5.4423e-12
1.60578e-12
-1.98769e-08
-5.83306e-14
-4.95859e-12
6.58104e-09
-7.45452e-13
3.23263e-12
-1.57431e-11
1.29048e-08
-4.28199e-12
-1.52557e-13
-1.28878e-08
-5.32448e-11
-1.58616e-13
1.92749e-08
4.86043e-12
1.74452e-11
-1.92438e-08
-1.98651e-12
3.00427e-13
1.24697e-07
-5.46146e-13
-9.98409e-13
-1.25021e-07
1.25022e-07
-6.34924e-13
-9.84045e-13
1.25083e-07
1.20976e-11
1.552e-11
-3.57341e-11
2.04359e-08
-1.71287e-11
3.25457e-13
-2.40096e-12
-1.08029e-10
1.4228e-10
-1.41278e-10
1.08247e-10
1.20172e-07
5.3469e-11
3.71467e-14
2.37375e-08
1.11603e-11
-1.01856e-10
-2.91074e-12
-6.96701e-12
6.45764e-09
5.52294e-13
-6.44831e-09
-4.58775e-13
-8.14972e-15
-1.40057e-11
1.05402e-11
-1.06116e-11
1.36311e-11
1.19947e-07
5.24158e-12
7.58875e-12
-1.78453e-11
2.07914e-08
-7.98106e-12
2.58844e-13
1.91793e-11
2.43818e-08
-3.14101e-11
4.49328e-12
-1.2075e-11
6.72022e-12
-2.49156e-11
2.08267e-08
5.27017e-12
-4.95362e-12
4.82452e-12
-1.76506e-11
2.09394e-08
1.21477e-12
-5.21191e-12
6.57777e-09
-5.45714e-13
-6.57171e-09
-6.7533e-12
6.45487e-09
7.21732e-13
-6.4456e-09
-5.39034e-12
-1.83327e-11
2.11112e-08
1.56592e-12
-2.10942e-08
-1.20908e-11
-2.5075e-11
2.06708e-08
5.76538e-12
-2.06462e-08
-7.89627e-12
1.31931e-08
-2.25837e-13
-1.11015e-12
-1.94916e-11
1.98931e-08
5.67122e-12
1.48323e-12
-1.80467e-11
2.07826e-08
-7.66588e-12
-2.07702e-08
1.25416e-12
1.32123e-12
8.77237e-12
9.48868e-12
-9.94933e-12
-9.01273e-12
-1.22554e-07
1.22553e-07
7.1915e-14
2.43837e-08
4.4876e-12
-3.14866e-11
-2.43763e-08
4.79196e-12
-1.77894e-11
2.07776e-08
-7.31015e-12
1.10699e-12
8.55301e-12
9.50064e-12
-9.98837e-12
-8.81089e-12
1.22554e-07
2.43861e-08
4.32018e-12
-3.11552e-11
-1.82112e-11
2.10021e-08
1.03109e-12
6.65377e-12
-2.51607e-11
2.07887e-08
5.84665e-12
-2.89758e-12
6.45655e-09
6.33611e-13
-3.57226e-11
2.04206e-08
-1.70495e-11
-2.03957e-08
2.3816e-12
-1.99644e-12
-1.0782e-10
1.42426e-10
-1.41272e-10
1.08562e-10
-1.20191e-07
1.2019e-07
5.81869e-14
2.37369e-08
1.08059e-11
-1.01681e-10
-2.36994e-08
-1.58408e-11
1.29073e-08
-3.91398e-12
-1.86496e-13
-1.28903e-08
-5.34319e-11
1.9272e-08
1.75352e-11
4.56251e-12
-1.92408e-08
-2.74098e-12
-8.9631e-11
1.41894e-10
-1.40825e-10
9.07828e-11
-1.21469e-07
1.21472e-07
1.18639e-11
-3.57431e-11
2.04118e-08
-1.68654e-11
-2.03869e-08
2.37337e-08
-1.01933e-10
1.0733e-11
-2.36959e-08
1.29089e-08
-3.95885e-12
-1.50613e-13
-1.50732e-13
1.92804e-08
5.0016e-12
1.77552e-11
-2.63442e-12
-8.97906e-11
1.41851e-10
-1.40948e-10
9.07449e-11
1.2148e-07
1.58176e-11
-3.56777e-11
2.04198e-08
-1.7015e-11
5.34696e-11
2.37358e-08
-1.01903e-10
1.08259e-11
3.05978e-12
1.29001e-08
-4.14991e-12
-1.64435e-13
1.92761e-08
1.77447e-11
4.77249e-12
-2.51149e-11
2.07265e-08
5.28003e-12
-2.07018e-08
4.75189e-12
-1.84553e-11
2.10662e-08
2.0186e-12
-4.00573e-13
6.57957e-09
-5.36651e-13
6.29207e-13
-1.3956e-11
1.03604e-11
-1.10734e-11
1.31912e-11
1.19971e-07
7.76611e-12
-1.75424e-11
2.07814e-08
-7.68066e-12
1.90739e-11
2.43847e-08
-3.12832e-11
4.51901e-12
1.31842e-08
-9.70979e-13
-1.09868e-12
1.59652e-13
1.98868e-08
1.69705e-12
5.36023e-12
2.32699e-13
1.3183e-08
-8.21293e-13
-1.15669e-12
1.98906e-08
1.80707e-12
5.04944e-12
6.45212e-09
5.23018e-13
6.57532e-09
-8.3751e-13
6.83805e-13
-5.47969e-09
7.12962e-13
1.84865e-12
5.47645e-09
1.37924e-12
-8.21993e-13
7.43438e-12
1.06485e-12
1.31737e-08
2.02961e-08
1.19326e-12
-2.51541e-12
-1.25839e-11
-2.02828e-08
3.01708e-12
1.20007e-11
2.02831e-08
-3.58412e-13
-1.80563e-12
-5.47632e-09
5.07803e-13
4.23108e-12
-9.7639e-09
8.05894e-13
9.75907e-09
-5.38664e-12
-1.91043e-12
-1.10452e-13
1.91652e-11
1.98778e-08
1.18653e-08
1.99291e-13
-8.66987e-14
-9.2872e-13
-1.1859e-08
1.88224e-08
4.43618e-12
-1.69647e-11
-1.88107e-08
-1.42991e-13
7.85999e-13
1.18598e-08
1.64279e-11
1.88113e-08
-8.2142e-13
-9.75882e-09
9.66793e-13
4.16959e-12
6.48192e-13
6.57527e-09
-1.45024e-11
-1.48774e-12
2.35141e-12
-9.46889e-09
6.36129e-13
9.48189e-09
4.91095e-12
1.76079e-11
-1.92442e-08
-1.71365e-13
1.92751e-08
-5.33001e-11
7.26302e-12
-1.82484e-08
1.82759e-08
-4.43137e-11
-1.14929e-08
-2.54547e-13
8.3871e-13
1.15084e-08
5.6243e-12
-5.32833e-09
5.32071e-09
2.3402e-12
-3.51198e-13
3.96348e-12
1.28878e-08
-2.94307e-12
1.57537e-11
1.61647e-13
1.97869e-08
5.60376e-12
-7.31989e-12
-2.95721e-11
-1.97599e-08
1.97599e-08
7.25429e-12
2.94191e-11
-2.35718e-12
3.22669e-13
-5.32068e-09
-5.62408e-12
2.48778e-13
5.32844e-09
-4.02987e-12
3.04562e-12
-1.73953e-13
1.29048e-08
-1.58022e-11
1.9787e-08
-2.94902e-11
1.47077e-11
1.23292e-12
-9.48172e-09
-7.66812e-13
-4.73981e-12
-1.77191e-11
-1.60178e-13
5.3371e-11
1.82757e-08
1.43783e-11
-4.43144e-11
-1.82482e-08
1.15082e-08
1.44147e-12
-2.46464e-13
7.60541e-13
-1.14927e-08
4.44969e-11
-2.40981e-13
-9.31653e-13
6.05016e-13
-9.46885e-09
6.44852e-09
3.21492e-12
6.60415e-12
-7.03697e-13
-3.01911e-12
5.84918e-13
6.45788e-09
-6.92427e-12
2.34817e-11
-1.19667e-11
-1.91675e-08
-1.51064e-11
2.50499e-11
1.91461e-08
2.29416e-08
2.4219e-11
-4.73743e-11
-3.4456e-11
2.49448e-11
-5.4896e-12
-6.66203e-12
1.1493e-11
2.08025e-08
1.24394e-08
-1.18584e-11
3.26254e-12
-1.89141e-13
4.75039e-11
3.35241e-11
2.2909e-08
-3.6533e-12
4.99248e-14
1.24256e-08
1.52239e-11
-2.50936e-11
1.87701e-11
-9.79131e-12
-1.83562e-08
-1.36507e-11
2.02426e-11
1.83407e-08
2.2383e-08
1.85188e-11
-3.46697e-11
-2.31057e-11
1.74166e-11
-1.95526e-12
-4.58083e-12
5.62227e-12
2.09229e-08
1.2346e-08
-9.90134e-12
1.54582e-12
-5.97591e-13
3.40271e-11
2.38333e-11
2.23614e-08
-1.79036e-12
4.91122e-13
1.23356e-08
1.35522e-11
-2.09993e-11
-4.09134e-12
-5.04573e-12
-1.47456e-08
1.4726e-08
5.33641e-09
-4.19649e-12
1.95481e-13
5.36912e-09
-4.90956e-12
-7.91322e-14
-4.06936e-13
5.32908e-09
-8.58567e-14
5.36238e-09
4.37396e-12
8.18772e-13
6.57175e-09
6.44575e-09
6.81204e-12
-6.29551e-13
6.61133e-13
6.45503e-09
-6.89272e-12
-9.77364e-12
1.8294e-11
-1.9258e-08
-1.28202e-11
2.35396e-11
1.92387e-08
2.31636e-08
1.84534e-11
-3.74625e-11
-2.25641e-11
-2.31404e-08
-1.83176e-12
1.74777e-11
5.75344e-12
2.10942e-08
1.256e-08
-1.05782e-11
1.60722e-12
-3.55508e-13
-1.25492e-08
-1.5021e-12
5.85162e-13
1.25494e-08
3.67637e-11
2.28715e-11
2.31398e-08
1.33417e-11
-2.44129e-11
-1.9239e-08
-1.17415e-11
2.42074e-11
-1.82789e-08
-1.542e-11
2.11207e-11
1.82607e-08
2.21773e-08
2.47349e-11
-4.37606e-11
-3.41928e-11
-2.21492e-08
-5.34322e-12
2.47585e-11
1.1271e-11
2.0647e-08
1.22402e-08
-1.22423e-11
3.69965e-12
-1.36142e-15
-1.22259e-08
-3.45779e-12
1.17364e-13
1.22264e-08
4.33637e-11
3.37279e-11
2.21492e-08
1.59873e-11
-2.18082e-11
-1.82606e-08
-4.73185e-12
-4.25226e-12
-1.47523e-08
1.47331e-08
5.36779e-09
-5.10102e-12
1.69807e-13
-5.36124e-09
5.34248e-09
-4.5229e-12
6.22972e-13
-5.33488e-09
1.23851e-13
5.36142e-09
-3.28826e-13
5.33512e-09
-1.47326e-08
5.1628e-13
-5.48676e-09
9.19218e-13
1.81471e-12
5.48351e-09
1.51546e-12
7.34788e-12
1.13673e-12
1.3184e-08
2.03149e-08
1.2762e-12
-2.4767e-12
-1.2805e-11
3.2848e-12
1.22204e-11
2.03015e-08
-2.91869e-13
-1.79149e-12
7.11393e-13
4.33648e-12
-9.77369e-09
8.63215e-13
9.7687e-09
-5.53412e-12
-2.09608e-12
1.91838e-11
1.98814e-08
1.18698e-08
4.45617e-14
-8.12693e-13
1.88332e-08
4.66973e-12
-1.70229e-11
7.98744e-13
1.1864e-08
1.64739e-11
1.88223e-08
-8.77811e-13
1.37335e-11
5.98038e-11
-1.83928e-08
-1.08874e-10
-1.01362e-10
1.85294e-08
2.27524e-08
1.53683e-11
-3.82476e-11
-2.25461e-11
-9.74455e-12
1.30302e-11
6.00744e-12
2.0997e-08
1.23471e-08
-1.17914e-11
-4.04795e-13
-5.13527e-13
-2.13104e-11
-4.78908e-14
1.23725e-08
4.0391e-12
2.6936e-11
2.27943e-08
2.22035e-13
-3.81496e-11
-1.7439e-11
-3.47724e-11
-1.91594e-08
8.67703e-11
1.39192e-10
1.89856e-08
2.25912e-08
2.74796e-11
-4.3261e-11
-3.50722e-11
2.97234e-11
2.36863e-12
-6.39882e-12
1.15568e-11
2.07515e-08
1.24555e-08
-1.06908e-11
5.37562e-12
-9.12798e-14
7.57682e-11
3.05646e-11
2.24972e-08
1.66115e-11
7.21826e-13
1.24058e-08
2.9536e-11
-9.05926e-12
1.4654e-11
-2.3213e-11
-1.47587e-08
1.47452e-08
5.37213e-09
-7.06661e-12
1.93706e-13
5.34016e-09
-2.24735e-12
1.84428e-13
-4.63661e-13
5.36597e-09
1.71816e-13
5.33337e-09
3.01719e-12
-4.506e-13
6.44758e-09
-1.0593e-12
-1.48152e-11
2.21828e-12
-9.46748e-09
6.99851e-13
9.48044e-09
1.7666e-11
4.59042e-12
-1.92413e-08
1.92723e-08
-5.34381e-11
-1.14917e-08
8.41241e-13
1.15072e-08
7.21979e-12
-1.82431e-08
1.82704e-08
-4.4789e-11
5.44444e-12
-5.32793e-09
5.32027e-09
2.493e-12
-2.80863e-13
4.2467e-12
1.28905e-08
1.56534e-11
1.40309e-13
1.97833e-08
5.82121e-12
-7.16344e-12
-2.97623e-11
-1.97561e-08
1.97564e-08
7.38395e-12
2.9255e-11
-2.18183e-12
4.01395e-13
-5.32032e-09
-5.88218e-12
4.30637e-13
5.32795e-09
-4.03669e-12
-1.446e-13
1.29076e-08
-1.59725e-11
1.97836e-08
-2.98886e-11
1.62182e-12
1.44853e-11
-9.48038e-09
-7.02563e-13
-1.76498e-11
-4.98179e-12
5.32369e-11
1.1507e-08
1.02868e-12
7.99905e-13
-1.14916e-08
1.82704e-08
1.46639e-11
-4.47382e-11
-1.82429e-08
-9.24265e-13
4.42061e-11
6.81582e-13
-9.46754e-09
5.26834e-12
-5.33228e-09
2.37059e-12
-2.14409e-13
5.32486e-09
4.09407e-12
1.56501e-11
1.13774e-13
1.28921e-08
1.97957e-08
5.50347e-12
-7.24034e-12
-2.92495e-11
7.22542e-12
2.92339e-11
1.97686e-08
-2.22738e-12
2.28482e-13
1.4357e-11
1.39778e-12
-9.48992e-09
-6.67758e-13
9.47721e-09
-4.74294e-12
-1.74769e-11
-1.04108e-14
5.31884e-11
1.92494e-08
1.82834e-08
1.43954e-11
-4.41203e-11
1.15172e-08
1.42769e-12
-7.9341e-14
8.94128e-13
4.42379e-11
1.8256e-08
5.93645e-14
-7.81519e-13
1.15019e-08
6.79769e-13
5.47671e-12
-5.32654e-09
2.27666e-12
-2.06731e-13
5.31899e-09
3.87987e-12
-2.93557e-12
1.55436e-11
2.10847e-13
1.28834e-08
1.97795e-08
5.733e-12
-7.36906e-12
-2.96899e-11
7.11536e-12
2.91939e-11
1.97526e-08
-2.33841e-12
3.70679e-13
1.27763e-12
1.43965e-11
-9.48144e-09
-6.33468e-13
9.46867e-09
-1.7482e-11
-4.68582e-12
5.31847e-11
1.92451e-08
1.1513e-08
1.26912e-12
9.13819e-13
1.8272e-08
1.47605e-11
-4.47069e-11
-8.1923e-13
1.14977e-08
4.41752e-11
1.82446e-08
7.05344e-13
-1.13309e-11
2.40921e-11
-1.82858e-08
-1.58641e-11
2.07858e-11
1.82681e-08
2.25316e-08
2.44388e-11
-4.5835e-11
-3.41768e-11
-2.25012e-08
-5.73124e-12
2.48265e-11
1.18693e-11
2.07022e-08
1.22347e-08
-1.21977e-11
3.52115e-12
4.38785e-14
-1.22208e-08
-3.62031e-12
-7.05563e-15
1.22212e-08
4.5714e-11
3.38781e-11
2.2501e-08
1.62547e-11
-2.11005e-11
-1.82687e-08
1.84795e-11
-1.06106e-11
-1.92708e-08
-1.24945e-11
2.43756e-11
1.9251e-08
2.28049e-08
1.85783e-11
-3.62897e-11
-2.32328e-11
-2.27824e-08
1.81712e-11
-1.79204e-12
-4.49266e-12
5.1064e-12
2.10492e-08
1.25781e-08
-1.05538e-11
1.65443e-12
-5.28595e-13
3.56227e-11
2.32403e-11
2.27827e-08
-1.49123e-12
6.39805e-13
1.25665e-08
1.26321e-11
-2.51116e-11
-1.92503e-08
-3.82026e-12
-5.25659e-12
-1.47631e-08
1.47439e-08
5.34471e-09
-4.51535e-12
4.47302e-13
-5.33711e-09
5.37216e-09
-5.01421e-12
2.24054e-13
-4.48274e-13
5.33772e-09
1.15102e-13
5.36532e-09
-1.47437e-08
5.42819e-13
7.31084e-13
6.57382e-09
7.85561e-13
-5.48043e-09
6.06802e-13
1.86424e-12
5.47717e-09
1.04039e-12
7.78151e-12
1.0643e-12
1.31748e-08
2.0297e-08
9.91138e-13
-2.75702e-12
-1.25147e-11
2.82045e-12
1.24191e-11
2.02836e-08
-5.40749e-13
-1.81437e-12
4.40374e-12
4.70359e-13
-9.7653e-09
8.86376e-13
9.76015e-09
-1.84654e-12
-5.43637e-12
8.85482e-14
1.95203e-11
1.98745e-08
1.88205e-08
4.49083e-12
-1.65223e-11
1.1865e-08
3.34456e-13
1.08539e-13
-8.37326e-13
1.67457e-11
1.88092e-08
1.0692e-13
8.13339e-13
1.18591e-08
-8.74993e-13
8.95325e-13
-5.48349e-09
7.07138e-13
1.85477e-12
5.48003e-09
1.22128e-12
-6.17762e-13
7.7091e-12
1.07745e-12
1.31736e-08
2.03032e-08
1.04903e-12
-2.66518e-12
-1.24547e-11
2.95549e-12
1.22174e-11
2.02901e-08
-5.10145e-13
-1.94656e-12
4.5537e-12
3.89037e-13
-9.76973e-09
7.70963e-13
9.76473e-09
-1.79645e-12
-5.30697e-12
1.95991e-11
1.98782e-08
1.88282e-08
4.25843e-12
-1.63366e-11
1.18667e-08
4.32058e-13
-9.2765e-13
1.67722e-11
1.88172e-08
7.94921e-13
1.18611e-08
-9.74938e-13
-5.71909e-13
6.4431e-09
6.8758e-13
6.56945e-09
9.71042e-13
-6.58252e-13
-1.32561e-07
1.3256e-07
-2.27277e-12
7.27025e-13
-1.29625e-07
1.29625e-07
-1.51982e-12
5.71863e-13
-1.43079e-07
1.43079e-07
2.85209e-11
3.01088e-11
-2.2396e-08
2.23826e-08
2.56273e-08
2.96437e-11
2.45927e-08
3.03282e-11
-5.78527e-11
-4.12261e-11
2.75742e-08
2.56086e-08
2.45876e-08
2.60203e-11
3.3185e-11
-2.23879e-08
2.23733e-08
2.57329e-08
2.65491e-11
-2.57224e-08
2.44786e-08
3.36599e-11
-2.44665e-08
-4.99156e-11
-4.84961e-11
2.75564e-08
2.57219e-08
2.44662e-08
-2.23739e-08
-9.95376e-12
6.93039e-11
-2.23977e-08
2.23761e-08
2.56835e-08
2.4718e-11
2.45312e-08
3.52298e-11
-5.48449e-11
-4.39337e-11
2.75562e-08
2.45059e-08
2.56843e-08
2.81971e-11
3.08626e-11
-2.23829e-08
2.2369e-08
2.55594e-08
3.15894e-11
-2.55417e-08
2.46286e-08
2.8259e-11
-2.4622e-08
-4.21428e-11
-5.69025e-11
2.75577e-08
2.46221e-08
2.55416e-08
-2.23692e-08
1.18595e-12
1.32554e-07
-1.67227e-12
7.17184e-13
1.29617e-07
1.36985e-12
1.43077e-07
-1.82009e-12
-1.3366e-07
1.3366e-07
-2.41655e-14
-3.68487e-13
-1.27548e-07
1.27547e-07
-1.18395e-12
-1.4323e-07
1.4323e-07
-1.97544e-12
1.33682e-07
-4.27966e-13
1.27566e-07
1.43239e-07
-3.79247e-11
-5.66455e-11
-2.57089e-08
-2.48547e-11
2.57591e-08
2.43394e-08
-3.8903e-11
3.61133e-11
1.64149e-11
2.04105e-08
2.24513e-08
-5.68615e-11
-1.52111e-11
2.42998e-08
1.43608e-11
2.24259e-08
2.38242e-11
-8.07051e-11
1.83545e-11
-2.5922e-08
2.58515e-08
-1.02361e-11
1.01361e-10
-1.20063e-13
2.36997e-08
2.29349e-08
-8.05883e-11
2.69238e-08
1.94527e-11
7.05872e-12
2.29026e-08
-7.00374e-12
2.69092e-08
-2.15083e-11
-2.12939e-11
-2.61273e-08
-5.37885e-11
2.62098e-08
2.46634e-08
-2.1536e-11
-2.46458e-08
1.8255e-11
7.67288e-12
2.07783e-08
2.29388e-08
-2.14447e-11
-5.03865e-12
2.4646e-08
4.96883e-12
2.29327e-08
5.37002e-11
-2.62095e-08
5.41116e-12
-2.60779e-11
-2.63702e-08
2.63231e-08
3.18943e-11
-4.28099e-12
2.45597e-14
2.43737e-08
2.75003e-08
5.98289e-12
3.93026e-13
2.34828e-08
-2.54705e-11
-2.34521e-13
2.75272e-08
2.34741e-08
-1.99451e-11
-2.48683e-11
-2.61061e-08
7.9252e-12
2.6153e-08
2.46753e-08
-2.46894e-11
-2.46553e-08
7.98057e-12
1.75787e-11
2.07702e-08
2.2938e-08
-2.06561e-11
-7.95165e-12
-2.29297e-08
8.04494e-12
2.293e-08
2.4655e-08
-7.95277e-12
-2.61533e-08
-2.41326e-11
9.06782e-12
-2.63788e-08
2.64106e-08
-4.26057e-12
3.10309e-11
-8.10966e-14
2.43762e-08
2.34853e-08
-2.48722e-11
-2.34808e-08
2.74992e-08
9.35355e-12
7.15502e-13
-2.75312e-08
2.34814e-08
-1.08852e-13
2.75294e-08
-2.64113e-08
-2.01781e-11
-2.51696e-11
-2.61031e-08
8.24266e-12
2.61501e-08
2.46214e-08
-2.45449e-11
8.04589e-12
1.77504e-11
2.07652e-08
2.29423e-08
-2.04497e-11
-7.92114e-12
8.37862e-12
2.2934e-08
2.46073e-08
-8.15786e-12
-2.46553e-11
9.18524e-12
-2.63794e-08
2.64117e-08
-4.50655e-12
3.10874e-11
2.43786e-08
2.34894e-08
-2.49349e-11
2.75011e-08
9.62124e-12
2.34851e-08
2.75313e-08
-5.64292e-11
-3.7693e-11
-2.57042e-08
-2.47573e-11
2.5754e-08
2.42822e-08
-3.81557e-11
-2.42481e-08
1.62152e-11
3.55618e-11
2.03959e-08
2.2445e-08
-5.70704e-11
-1.49873e-11
-2.24195e-08
1.46168e-11
2.24196e-08
2.42481e-08
2.45468e-11
-2.5754e-08
-8.08238e-11
1.86371e-11
-2.59237e-08
2.58534e-08
-1.05224e-11
1.01398e-10
-8.47684e-14
2.36995e-08
2.29324e-08
-8.08867e-11
-2.29e-08
2.69259e-08
1.89937e-11
7.32754e-12
-2.69115e-08
2.29002e-08
-6.88612e-12
2.69115e-08
-2.58525e-08
-5.56774e-11
-4.08501e-11
-2.56735e-08
2.94892e-11
2.56912e-08
2.42867e-08
-4.14609e-11
-2.42503e-08
1.63821e-11
3.56502e-11
2.03873e-08
2.24359e-08
-5.63705e-11
-1.77285e-11
-2.24084e-08
1.73986e-11
2.24085e-08
2.42504e-08
-3.01339e-11
-2.56912e-08
2.15861e-11
-7.96836e-11
-2.59202e-08
2.59182e-08
1.01315e-10
-1.05859e-11
2.36962e-08
2.69219e-08
2.21964e-11
-2.68968e-08
2.2924e-08
-8.05878e-11
-2.28952e-08
2.68971e-08
2.28954e-08
-2.5918e-08
-4.07258e-11
-5.53281e-11
-2.56853e-08
2.95244e-11
2.57023e-08
2.43467e-08
-4.16794e-11
3.55566e-11
1.6036e-11
2.03952e-08
2.24404e-08
-5.59704e-11
-1.78949e-11
2.43097e-08
1.71569e-11
2.24132e-08
-3.00931e-11
2.17245e-11
-7.951e-11
-2.59254e-08
2.59229e-08
1.0139e-10
-1.05064e-11
2.3698e-08
2.69222e-08
2.21146e-11
2.29284e-08
-8.02122e-11
2.68974e-08
2.28997e-08
-2.15435e-11
-2.1029e-11
-2.61314e-08
-5.36646e-11
2.62139e-08
2.46134e-08
-2.1047e-11
1.76489e-11
7.94449e-12
2.07691e-08
2.29434e-08
-2.14268e-11
-4.9277e-12
2.45961e-08
5.11382e-12
2.29374e-08
5.38465e-11
5.71489e-12
-2.60193e-11
-2.63758e-08
2.63285e-08
3.19831e-11
-4.38815e-12
2.43767e-08
2.7504e-08
5.76663e-12
2.34885e-08
-2.53031e-11
2.75304e-08
2.348e-08
-5.2547e-13
-3.70893e-13
2.24836e-09
1.80172e-13
-2.24867e-09
-2.21582e-13
-2.5176e-13
1.20819e-09
1.21029e-13
-1.20839e-09
-6.02307e-14
-1.50011e-13
5.9271e-10
6.5843e-14
-5.92833e-10
6.50214e-15
-7.52362e-14
2.44687e-10
2.63514e-14
-2.44758e-10
-1.85084e-14
5.79624e-11
9.40035e-15
-5.79843e-11
-3.51688e-13
3.65032e-13
4.20349e-09
-4.8241e-13
-1.17702e-13
2.29369e-13
2.25464e-09
-2.99798e-13
-1.39001e-14
1.21243e-13
1.10658e-09
-1.67921e-13
1.37626e-14
5.0882e-14
4.57652e-10
-7.96747e-14
1.61417e-14
1.08797e-10
-1.80938e-14
-9.49391e-14
1.3769e-13
2.25251e-09
-2.31764e-13
-2.25246e-09
-5.27541e-14
5.85873e-14
1.21042e-09
-1.15258e-13
-1.21039e-09
-3.25591e-14
2.65628e-14
5.93798e-10
-5.23217e-14
-5.93772e-10
-1.85023e-14
1.11837e-14
2.45115e-10
-1.99045e-14
-2.45098e-10
1.16161e-15
5.80601e-11
-5.74104e-15
-5.80577e-11
2.93521e-13
-4.49929e-14
4.2081e-09
2.73617e-14
-4.20781e-09
1.35841e-13
-5.97516e-15
2.25716e-09
8.52197e-15
-2.25699e-09
4.75764e-14
9.26725e-16
1.10786e-09
4.40098e-15
-1.10776e-09
6.0544e-15
1.98169e-15
4.5821e-10
2.28851e-15
-4.58159e-10
5.22622e-16
1.08944e-10
1.6053e-15
-1.08931e-10
-3.33033e-13
4.20123e-09
-3.3647e-13
-4.20144e-09
-2.10989e-13
2.25349e-09
-1.91403e-13
-2.25362e-09
-1.29729e-13
1.10599e-09
-9.59377e-14
-1.10605e-09
-6.28052e-14
4.57432e-10
-3.82498e-14
-4.57448e-10
1.08789e-10
-1.09112e-14
-1.08805e-10
4.38038e-13
4.20622e-09
1.67756e-13
-4.20596e-09
2.4114e-13
2.25615e-09
9.60617e-14
-2.25601e-09
1.15487e-13
1.10736e-09
4.87398e-14
-1.10728e-09
4.04397e-14
4.57963e-10
1.99032e-14
-4.57928e-10
1.08881e-10
6.28687e-15
-1.08868e-10
-6.24608e-13
2.2504e-09
2.53303e-13
-3.18582e-13
1.2093e-09
1.78428e-13
-1.43908e-13
5.93278e-10
1.10943e-13
-4.78364e-14
2.449e-10
5.76494e-14
5.80007e-11
1.19005e-14
3.32318e-13
-3.9365e-15
1.8331e-13
4.20685e-09
1.34655e-13
2.5743e-14
1.18024e-13
2.25658e-09
2.5845e-14
2.12994e-14
7.21079e-14
1.1076e-09
-1.1158e-14
1.26189e-14
3.84463e-14
4.58094e-10
3.70645e-15
8.3599e-15
1.0893e-10
-1.1411e-13
2.25326e-09
-1.6642e-13
-2.2532e-09
-5.63352e-14
1.21088e-09
-8.70632e-14
-1.21085e-09
-2.55431e-14
5.93988e-10
-4.41457e-14
-5.93965e-10
-9.16579e-15
2.45217e-10
-1.95431e-14
-2.45204e-10
5.80726e-11
-5.54048e-15
-5.80704e-11
-5.29378e-14
2.2532e-09
-1.51748e-13
4.19719e-15
1.21085e-09
-7.67291e-14
1.42518e-14
5.94015e-10
-4.10435e-14
5.22419e-15
2.45227e-10
-2.09916e-14
5.80862e-11
-4.21277e-15
-1.06644e-13
8.35809e-14
2.25186e-09
-1.93313e-13
-5.23168e-14
2.85611e-14
1.21006e-09
-9.50207e-14
-2.81669e-14
1.17544e-14
5.93602e-10
-4.19858e-14
-1.60974e-14
4.36242e-15
2.45071e-10
-1.44527e-14
4.63991e-16
5.80537e-11
-5.82134e-15
-2.17473e-13
2.66172e-13
-2.59405e-13
4.20293e-09
-6.06003e-14
1.7177e-13
-1.47125e-13
2.25439e-09
-4.86087e-15
9.19289e-14
-7.80343e-14
1.10655e-09
4.97671e-15
3.87564e-14
-3.48897e-14
4.57647e-10
1.35986e-14
-8.50467e-15
1.08819e-10
-6.0074e-13
2.24892e-09
1.35953e-13
-2.94952e-13
1.2086e-09
1.06276e-13
-1.26783e-13
5.9294e-10
6.77516e-14
-3.96593e-14
2.44774e-10
3.41966e-14
5.79753e-11
8.5932e-15
-6.24462e-13
-2.89627e-13
2.24875e-09
1.31334e-13
-3.00145e-13
-1.88469e-13
1.20852e-09
9.51445e-14
-1.24724e-13
-1.05282e-13
5.92877e-10
5.89386e-14
-3.71148e-14
-4.87722e-14
2.4477e-10
2.98102e-14
-1.33066e-14
5.79661e-11
6.9602e-15
3.07042e-13
6.75769e-14
4.20418e-09
1.65883e-13
3.4377e-14
2.25504e-09
7.11271e-14
1.7897e-14
1.10685e-09
1.51465e-14
7.89237e-15
4.57806e-10
3.57486e-15
1.08844e-10
-4.41835e-13
-3.46388e-13
4.19978e-09
-1.9986e-13
-2.02648e-13
2.25282e-09
-7.67736e-14
-1.08693e-13
1.1057e-09
-2.05204e-14
-4.96477e-14
4.57322e-10
-1.1349e-14
1.08713e-10
1.03777e-12
1.43233e-14
1.21311e-13
-4.20333e-09
4.204e-09
5.17707e-13
2.20312e-14
6.15153e-14
-2.25258e-09
2.25299e-09
2.28718e-13
1.48116e-14
2.75487e-14
-1.10484e-09
1.10505e-09
8.01528e-14
5.8501e-15
8.92281e-15
-4.56746e-10
4.56837e-10
3.12839e-15
3.79997e-15
-1.08551e-10
1.08593e-10
5.46984e-13
1.75682e-13
2.24874e-09
2.36892e-13
1.30763e-13
1.20842e-09
8.35945e-14
7.99964e-14
5.9284e-10
2.03412e-14
4.00166e-14
2.44752e-10
1.11055e-14
5.79858e-11
3.03153e-13
-8.7063e-14
1.53917e-13
4.20381e-09
9.93556e-14
-7.73001e-14
1.03113e-13
2.25487e-09
1.48e-14
-4.8454e-14
6.92294e-14
1.10671e-09
-4.9765e-15
-2.28015e-14
3.82533e-14
4.57719e-10
-8.85871e-15
9.24318e-15
1.0882e-10
3.48052e-13
-1.84109e-13
-2.58416e-09
2.47991e-13
2.5844e-09
1.753e-13
-1.09408e-13
-1.38785e-09
1.45737e-13
1.38799e-09
6.91705e-14
-5.73691e-14
-6.81032e-10
7.91192e-14
6.81123e-10
9.94298e-15
-2.4138e-14
-2.81339e-10
3.58623e-14
2.81393e-10
-7.44686e-15
-6.67472e-11
9.96205e-15
6.67593e-11
4.48127e-13
-8.08403e-14
-2.82205e-09
2.82234e-09
2.1745e-13
-4.75208e-14
-1.51501e-09
1.51519e-09
8.40053e-14
-2.39975e-14
-7.43709e-10
7.43819e-10
1.56832e-14
-9.65387e-15
-3.07468e-10
3.07531e-10
-2.69619e-15
-7.30502e-11
7.3066e-11
-2.20095e-13
-2.11495e-13
-4.2122e-09
2.2574e-13
4.21206e-09
-1.26281e-13
-1.16689e-13
-2.25743e-09
1.37688e-13
2.25732e-09
-6.09644e-14
-6.03594e-14
-1.10726e-09
7.94372e-14
1.10719e-09
-1.69952e-14
-2.68561e-14
-4.57714e-10
3.90126e-14
4.57671e-10
-6.97966e-15
-1.08794e-10
9.42725e-15
1.08783e-10
8.08489e-14
2.25246e-09
-8.33911e-14
2.5318e-14
1.21039e-09
-3.79241e-14
6.74262e-15
5.93775e-10
-1.95593e-14
4.02918e-15
2.45098e-10
-8.62873e-15
5.80579e-11
-1.28615e-15
-1.01442e-13
6.61586e-14
-1.77604e-13
2.25251e-09
-4.31737e-14
1.46455e-14
-8.59182e-14
1.21042e-09
-1.8323e-14
2.59601e-15
-3.93999e-14
5.93798e-10
-1.04936e-14
-6.11093e-17
-1.58216e-14
2.45117e-10
-1.28982e-15
-4.34524e-15
5.80588e-11
-4.46143e-13
4.20792e-09
1.27665e-13
-1.93056e-13
-2.47723e-13
2.25704e-09
4.71765e-14
-1.1656e-13
-1.06768e-13
1.10777e-09
1.69932e-14
-6.52916e-14
-2.25764e-14
4.58155e-10
4.86652e-15
-3.15517e-14
1.0893e-10
-1.26168e-16
-7.27397e-15
3.14124e-13
-8.51175e-14
4.20824e-09
5.50864e-14
1.54075e-13
-3.23361e-14
2.25722e-09
2.52847e-14
5.94558e-14
-1.26304e-14
1.10788e-09
1.24993e-14
8.29061e-15
-3.6442e-15
4.58218e-10
5.31721e-15
-5.94269e-16
1.08943e-10
2.30806e-15
-9.22426e-14
2.23572e-09
-9.53826e-16
-4.07194e-14
1.20104e-09
2.06693e-15
-1.71196e-14
5.89184e-10
3.39752e-15
-8.46442e-15
2.43217e-10
2.86125e-15
5.76147e-11
2.49241e-16
-4.69979e-15
-1.5452e-13
1.72369e-13
2.23576e-09
-1.60241e-14
-1.06858e-13
1.07544e-13
1.20105e-09
-9.35525e-15
-6.15074e-14
5.99253e-14
5.8918e-10
1.44234e-15
-2.8637e-14
2.75358e-14
2.43209e-10
-6.89541e-15
7.95395e-15
5.76161e-11
-3.03583e-13
2.23352e-09
-3.86676e-13
-1.45498e-13
1.19992e-09
-2.14243e-13
-6.05535e-14
5.88633e-10
-1.12701e-13
-1.82253e-14
2.42995e-10
-5.09309e-14
5.7562e-11
-1.28055e-14
2.38879e-13
3.46317e-13
-2.529e-13
2.23368e-09
1.08002e-13
2.03131e-13
-1.60183e-13
1.20001e-09
4.22019e-14
1.10289e-13
-8.95488e-14
5.88679e-10
1.30491e-14
4.97133e-14
-4.07071e-14
2.43017e-10
1.38597e-14
-1.07647e-14
5.75728e-11
1.00956e-13
1.76549e-13
4.01249e-09
5.3719e-14
9.65451e-14
2.15221e-09
2.07014e-14
5.10727e-14
1.0559e-09
3.25603e-16
2.35293e-14
4.3649e-10
5.75121e-15
1.03689e-10
-3.86442e-14
4.01167e-09
-8.8215e-15
2.15167e-09
-2.35865e-15
1.05571e-09
-4.80156e-15
4.36382e-10
1.03662e-10
-2.30998e-13
-2.86938e-13
4.01245e-09
-1.25125e-13
-1.76898e-13
2.15218e-09
-5.24965e-14
-9.72405e-14
1.05588e-09
-8.56178e-15
-4.39989e-14
4.36471e-10
-1.17841e-14
1.03688e-10
-4.55775e-14
4.0117e-09
-3.26572e-14
2.15169e-09
-1.44549e-14
1.05571e-09
1.25475e-15
4.36382e-10
1.03667e-10
4.46841e-13
2.37092e-13
4.20152e-09
2.09215e-13
1.3979e-13
2.25368e-09
8.46826e-14
7.17192e-14
1.10609e-09
2.79008e-14
2.88355e-14
4.57464e-10
9.22365e-15
1.08809e-10
-3.99539e-13
4.20603e-09
-1.10389e-13
-2.28495e-13
2.25604e-09
-6.8504e-14
-1.04559e-13
1.10729e-09
-3.80803e-14
-2.7292e-14
4.57921e-10
-1.6631e-14
1.08868e-10
-6.33803e-15
3.80631e-13
4.20629e-09
9.55801e-14
2.00724e-13
2.25618e-09
5.30379e-14
8.45646e-14
1.10737e-09
2.90888e-14
1.58425e-14
4.57974e-10
1.42283e-14
1.08879e-10
3.70079e-15
6.31267e-13
4.09307e-14
2.25077e-09
3.09654e-13
-3.52273e-15
1.20952e-09
1.30114e-13
-1.71308e-14
5.93386e-10
4.10818e-14
-1.47909e-14
2.44945e-10
-2.49899e-15
5.80235e-11
-4.51429e-14
2.23715e-09
1.78374e-13
-3.96639e-15
1.20168e-09
1.03846e-13
1.00799e-14
5.89457e-10
5.1225e-14
6.58778e-15
2.43344e-10
1.95242e-14
5.76445e-11
5.44241e-15
3.38976e-13
4.62132e-14
1.3786e-13
2.23737e-09
1.29183e-13
5.93762e-15
9.51117e-14
1.20183e-09
2.84334e-14
3.44323e-15
6.32065e-14
5.89535e-10
-1.39006e-15
4.23128e-15
3.36714e-14
2.43379e-10
-7.06626e-16
1.04301e-14
5.76559e-11
4.38598e-14
4.01529e-09
4.53069e-13
-8.39908e-15
2.15332e-09
2.73205e-13
-2.40164e-14
1.05654e-09
1.47811e-13
-1.7574e-14
4.36718e-10
6.76645e-14
1.03742e-10
1.56751e-14
2.18747e-13
-2.033e-14
4.01528e-09
1.26694e-13
-1.60419e-14
2.15339e-09
5.62389e-14
-8.01669e-15
1.05657e-09
2.31927e-14
-3.62806e-15
4.36718e-10
3.86559e-16
1.03752e-10
-2.56726e-13
1.25351e-13
4.20664e-09
-1.34172e-13
5.73148e-14
2.25646e-09
-5.42153e-14
2.37048e-14
1.10751e-09
-5.8656e-15
5.78562e-15
4.58035e-10
2.87699e-15
1.08921e-10
3.70917e-13
-3.10746e-14
-2.58412e-09
1.55721e-13
2.58434e-09
1.77899e-13
-2.13283e-14
-1.38781e-09
9.29982e-14
1.38794e-09
6.74459e-14
-1.6056e-14
-6.80974e-10
5.32983e-14
6.81055e-10
1.20098e-14
-1.05285e-14
-2.81333e-10
2.60814e-14
2.8138e-10
-1.31901e-15
-6.6745e-11
6.54038e-15
6.67569e-11
4.55539e-13
-2.82183e-09
2.82211e-09
2.27018e-13
-1.5149e-09
1.51507e-09
9.02872e-14
-7.43652e-10
7.43759e-10
1.5876e-14
-3.07443e-10
3.07506e-10
-7.30446e-11
7.30597e-11
-1.7915e-13
-2.40855e-13
3.14778e-13
-4.21239e-09
4.21223e-09
-1.12316e-13
-1.2145e-13
1.84875e-13
-2.25762e-09
2.2575e-09
-5.76517e-14
-5.78081e-14
9.90056e-14
-1.10727e-09
1.10719e-09
-1.34925e-14
-2.4356e-14
4.4107e-14
-4.57763e-10
4.57712e-10
-5.72635e-15
1.22338e-14
-1.08783e-10
1.08772e-10
6.63757e-14
2.25323e-09
1.58417e-14
1.21087e-09
1.80108e-15
5.93969e-10
2.49001e-15
2.45202e-10
5.80705e-11
-9.12079e-14
-2.03916e-13
2.2533e-09
-4.07808e-14
-1.11545e-13
1.2109e-09
-1.6558e-14
-5.67632e-14
5.93996e-10
-7.00786e-15
-2.49536e-14
2.4522e-10
-6.49206e-15
5.80723e-11
3.72022e-14
2.70269e-13
2.25316e-09
-1.08355e-14
1.54029e-13
1.21084e-09
-1.65298e-14
8.08976e-14
5.94006e-10
-5.58395e-15
3.65964e-14
2.45221e-10
8.80448e-15
5.80863e-11
-1.46899e-13
-1.92243e-13
2.20551e-13
-4.21101e-09
4.21094e-09
-1.04021e-13
-9.86343e-14
1.31848e-13
-2.25671e-09
2.25666e-09
-6.47025e-14
-4.68479e-14
7.56857e-14
-1.10686e-09
1.10682e-09
-2.65025e-14
-1.89207e-14
3.76305e-14
-4.57571e-10
4.57548e-10
-5.56404e-15
8.77813e-15
-1.08759e-10
1.08752e-10
1.04512e-13
-8.31176e-14
2.25186e-09
3.33972e-14
-3.32347e-14
1.21006e-09
8.29704e-15
-1.5908e-14
5.93589e-10
5.38768e-15
-7.12018e-15
2.45056e-10
-1.44114e-16
5.80536e-11
-2.76912e-13
2.23679e-09
-3.43735e-13
-1.44972e-13
1.20152e-09
-1.73103e-13
-7.0458e-14
5.89397e-10
-8.01649e-14
-2.57364e-14
2.43307e-10
-3.00378e-14
5.76543e-11
-1.06005e-14
3.605e-13
-2.93712e-13
4.13988e-13
2.23694e-09
1.817e-13
-1.82867e-13
2.46723e-13
1.20162e-09
7.76919e-14
-1.03771e-13
1.36317e-13
5.89449e-10
2.59741e-14
-4.97531e-14
6.2244e-14
2.43329e-10
-1.0928e-14
1.67933e-14
5.76672e-11
1.75541e-13
-2.14194e-13
4.01669e-09
1.05707e-13
-1.06344e-13
2.15421e-09
4.54404e-14
-4.94105e-14
1.05688e-09
9.93451e-15
-1.96957e-14
4.36833e-10
-4.8236e-15
1.03799e-10
3.71033e-13
-2.15923e-13
4.20324e-09
1.48134e-13
-1.48458e-13
2.25463e-09
4.64152e-14
-8.58347e-14
1.10668e-09