/*--------------------------------*- C++ -*----------------------------------*\
| =========                 |                                                 |
| \\      /  F ield         | OpenFOAM: The Open Source CFD Toolbox           |
|  \\    /   O peration     | Version:  2206                                  |
|   \\  /    A nd           | Website:  www.openfoam.com                      |
|    \\/     M anipulation  |                                                 |
\*---------------------------------------------------------------------------*/
FoamFile
{
    version     2.0;
    format      ascii;
    arch        "LSB;label=32;scalar=64";
    class       volVectorField;
    location    "130";
    object      U;
}
// * * * * * * * * * * * * * * * * * * * * * * * * * * * * * * * * * * * * * //

dimensions      [0 1 -1 0 0 0 0];

internalField   nonuniform List<vector> 
67442
(
(-2.12612e-06 -5.06651e-08 0.144575)
(2.08585e-06 -2.94393e-07 0.134895)
(3.69664e-07 -8.76879e-08 0.135283)
(-0.000119245 -0.000117228 0.12942)
(0.000117621 0.000117354 0.129392)
(3.35186e-07 7.65411e-08 0.135306)
(4.07249e-07 1.14003e-06 0.135285)
(-0.000116863 0.000116586 0.129384)
(-1.05925e-06 6.3791e-07 0.134914)
(-7.30193e-07 -1.00707e-07 0.134894)
(1.50902e-06 4.91505e-07 0.134946)
(0.000117341 -0.000116313 0.129368)
(-1.92036e-06 -1.51488e-06 0.13533)
(6.76443e-06 1.44944e-05 0.0696681)
(3.91733e-07 2.6726e-05 0.0955545)
(-8.77378e-06 4.88411e-07 0.0595082)
(1.0595e-05 -3.96448e-06 0.0694725)
(1.58343e-05 -2.18486e-06 0.0949452)
(2.72421e-06 -6.59953e-08 0.14454)
(-9.41829e-07 4.90659e-07 0.144547)
(1.07013e-06 3.17053e-07 0.144588)
(-1.61667e-05 7.2405e-06 0.0976534)
(3.04871e-06 -3.47187e-07 0.13999)
(-2.75368e-05 -2.92577e-06 0.11476)
(-6.11778e-07 -1.91833e-07 0.0594506)
(-9.86752e-07 9.64268e-08 0.140633)
(1.77371e-05 -1.85285e-05 0.0980114)
(4.84784e-07 -3.48371e-05 0.115415)
(5.04726e-07 -4.67548e-06 0.0825327)
(-1.64565e-05 6.8262e-07 0.0826994)
(7.94965e-06 2.17916e-07 0.0594804)
(-1.81003e-07 -1.6193e-06 0.0594184)
(1.489e-05 -2.74048e-06 0.0827683)
(-1.3957e-06 3.43272e-06 0.0825083)
(-7.29265e-06 1.4253e-05 0.0697089)
(-1.07384e-06 2.67918e-05 0.0955584)
(1.88636e-05 1.66939e-05 0.0980068)
(2.82451e-07 1.46693e-06 0.140688)
(9.00699e-08 3.28962e-05 0.115418)
(-1.97668e-05 1.75284e-05 0.0980087)
(1.44906e-06 9.28045e-07 0.140671)
(-6.54791e-07 3.33284e-05 0.115416)
(-1.73363e-05 -1.46454e-06 0.0827577)
(5.30464e-07 3.42017e-06 0.0825527)
(6.41514e-07 -1.92939e-07 0.0594293)
(1.52168e-05 5.68976e-06 0.0976248)
(-1.99927e-06 1.94221e-06 0.140018)
(2.78913e-05 -2.26826e-06 0.114762)
(9.95101e-06 2.43269e-06 0.0695058)
(1.50473e-05 6.12267e-07 0.094947)
(-3.89032e-06 1.69165e-06 0.140019)
(1.52431e-05 -6.90314e-06 0.0976457)
(2.72344e-05 1.44031e-06 0.11476)
(-1.03104e-05 -2.32801e-06 0.0694914)
(-1.44704e-05 -2.68704e-06 0.0949672)
(3.25156e-06 1.49123e-08 0.140029)
(-1.49908e-05 -6.39817e-06 0.0976414)
(-2.70521e-05 1.79896e-06 0.114766)
(-1.03941e-05 3.22783e-06 0.0694646)
(-1.47997e-05 1.30898e-06 0.0949648)
(-1.60114e-06 -6.12376e-06 0.0825579)
(1.35137e-05 1.09041e-06 0.0827768)
(6.80654e-06 -7.44814e-07 0.0594991)
(-6.66304e-07 -4.86143e-07 0.140646)
(-1.92149e-05 -1.85408e-05 0.0979904)
(4.20922e-07 -3.50924e-05 0.115415)
(5.69419e-06 -1.54913e-05 0.0696779)
(7.48257e-07 -2.77187e-05 0.0955471)
(-6.17277e-06 -1.57091e-05 0.0696587)
(5.22587e-07 -2.81801e-05 0.0955467)
(4.2333e-08 6.02711e-07 0.0593967)
(-7.89944e-06 -1.42741e-06 0.0594577)
(-2.06523e-07 -6.58659e-06 0.0577051)
(-4.16357e-06 -1.60065e-05 0.069553)
(4.9634e-06 1.88721e-05 0.0811193)
(-2.71081e-06 -2.03593e-05 0.0809735)
(2.34147e-06 5.70985e-06 0.0577497)
(1.18255e-06 -6.23968e-06 0.0639947)
(-3.99197e-08 -2.80123e-05 0.095359)
(2.35807e-07 6.29077e-06 0.0663633)
(2.27541e-06 2.58741e-05 0.092055)
(1.979e-07 -5.77334e-06 0.0662863)
(-7.47374e-08 -2.74523e-05 0.0918685)
(1.21211e-06 5.991e-06 0.0640652)
(3.92357e-06 -2.52281e-06 0.0594015)
(-3.47196e-06 -4.18307e-06 0.0638905)
(1.56261e-05 -2.30434e-06 0.0949459)
(1.64729e-05 -4.9525e-06 0.0914972)
(-5.25769e-06 -2.23456e-06 0.0661549)
(5.13188e-07 4.02054e-06 0.0574675)
(-1.02932e-05 2.44995e-06 0.0691645)
(1.21068e-05 -4.78027e-06 0.0807335)
(-1.22879e-05 4.34285e-06 0.0803026)
(-2.98942e-07 -4.06686e-06 0.0576938)
(-3.49002e-07 -3.65158e-06 0.0576946)
(1.04019e-05 -2.94378e-06 0.0694722)
(1.25086e-05 -4.11433e-06 0.0807329)
(4.42359e-06 3.51848e-06 0.0635783)
(-1.41133e-05 1.24527e-06 0.0943121)
(1.65662e-05 -4.70273e-06 0.0914968)
(-4.43496e-06 -2.10756e-06 0.0661539)
(-1.48386e-05 4.85001e-06 0.0909103)
(5.84853e-06 3.83875e-07 0.0658161)
(-2.88651e-06 -3.98387e-06 0.0638897)
(5.27294e-09 -1.83563e-06 0.0592285)
(-5.57184e-07 2.89585e-07 0.0594522)
(3.14295e-05 2.42114e-06 0.0937635)
(-3.65477e-05 -4.92125e-06 0.106902)
(-1.63952e-07 5.07477e-06 0.0821218)
(-2.3756e-06 -1.24364e-07 0.0687752)
(3.43863e-05 7.59127e-06 0.106337)
(1.96979e-06 -1.67615e-06 0.0684997)
(-3.27643e-05 -5.63776e-07 0.0942507)
(7.57727e-06 2.84399e-05 0.0938048)
(-1.56164e-05 -3.29584e-05 0.10699)
(1.28406e-05 -3.30894e-07 0.082446)
(-8.32627e-06 -1.52238e-07 0.0687377)
(1.25186e-05 3.36593e-05 0.106582)
(6.48322e-06 2.97475e-08 0.0685436)
(-8.13113e-06 -2.73865e-05 0.0942204)
(5.59928e-06 -1.0721e-06 0.0747351)
(1.06667e-06 -1.03196e-06 0.0581024)
(-6.75675e-06 4.45952e-06 0.0581192)
(-4.43145e-07 -9.89627e-07 0.057907)
(6.13729e-06 -4.97508e-06 0.0579487)
(-5.97282e-06 1.33622e-07 0.0750778)
(-5.57373e-06 -2.34379e-06 0.0593723)
(5.0206e-07 3.75636e-07 0.0591965)
(-5.50058e-07 -6.29147e-07 0.0594197)
(-1.00373e-05 -2.89202e-05 0.0939415)
(1.55001e-05 3.08454e-05 0.107089)
(-1.37546e-05 -1.05415e-06 0.0825163)
(7.15953e-06 -1.70754e-06 0.0688787)
(-7.32449e-06 -1.09095e-06 0.0686878)
(-1.39167e-05 -3.35988e-05 0.106686)
(8.34711e-06 2.52694e-05 0.0943565)
(-3.28434e-05 -4.24056e-07 0.0936674)
(3.54367e-05 4.86227e-06 0.106797)
(6.65967e-07 -5.46625e-06 0.0820988)
(1.04011e-06 -1.99686e-06 0.0686972)
(-2.25888e-06 7.87174e-07 0.068421)
(-3.57531e-05 -5.4203e-06 0.106237)
(3.05565e-05 -1.79172e-06 0.094152)
(-6.44729e-06 1.36661e-07 0.0747641)
(6.31016e-06 -5.57585e-06 0.0581427)
(-1.55655e-06 -1.00277e-06 0.0581281)
(-6.7637e-06 4.32756e-06 0.0579781)
(7.38146e-07 1.4358e-07 0.0579326)
(4.82802e-06 -2.14862e-06 0.0751031)
(-1.05757e-06 -6.71973e-06 0.0577447)
(3.1077e-06 -1.69589e-05 0.0695941)
(-5.44382e-06 1.85168e-05 0.0811606)
(1.53322e-06 -2.11464e-05 0.0810126)
(-2.9777e-06 5.50013e-06 0.0577911)
(-2.22084e-06 -6.61783e-06 0.0640245)
(-7.80764e-07 -2.80342e-05 0.095359)
(-1.01166e-06 5.79608e-06 0.0663752)
(-2.75914e-06 2.5492e-05 0.0920751)
(-1.39944e-06 -6.03645e-06 0.0662954)
(-8.00655e-07 -2.77853e-05 0.0918841)
(-1.89381e-06 5.82917e-06 0.0640978)
(5.3819e-06 -3.03982e-05 0.0938422)
(-1.65493e-05 3.28179e-05 0.107038)
(1.17633e-05 -4.72956e-07 0.0824994)
(-9.53222e-06 -1.4219e-06 0.0688008)
(4.00928e-06 -9.83924e-07 0.0685694)
(1.15578e-05 -3.37592e-05 0.106632)
(-1.0121e-05 2.73151e-05 0.0942542)
(2.93706e-05 -3.62037e-06 0.0938056)
(-3.55991e-05 3.59872e-06 0.106875)
(-6.42825e-07 -5.49653e-06 0.0821454)
(-3.07255e-06 -2.67886e-06 0.0687988)
(3.51357e-05 -7.93166e-06 0.106316)
(2.06717e-06 -1.84053e-06 0.0685601)
(-3.26948e-05 -1.14476e-06 0.094284)
(1.69889e-06 -3.07902e-06 0.0747798)
(-8.14172e-06 -7.1634e-06 0.0581612)
(-1.27273e-06 -1.4734e-06 0.0581282)
(2.04054e-06 2.63686e-06 0.0579737)
(-2.57513e-06 -3.81625e-06 0.0579521)
(-8.20254e-06 -2.53577e-06 0.0751164)
(5.30598e-07 7.45046e-07 0.0592081)
(-4.36775e-06 2.31372e-06 0.0639153)
(1.49996e-05 7.44737e-07 0.0949475)
(-5.34218e-06 -2.97239e-07 0.0661638)
(1.46832e-05 3.84889e-06 0.0915101)
(1.46749e-07 -4.55276e-06 0.0574973)
(-1.07793e-05 -3.72189e-06 0.0691974)
(1.10277e-05 4.18705e-06 0.0807578)
(-1.32025e-05 -4.67678e-06 0.0803268)
(-7.4072e-07 3.26138e-06 0.0577249)
(-9.84361e-07 3.46366e-06 0.0577248)
(9.64311e-06 2.94807e-06 0.0695069)
(1.08179e-05 4.56997e-06 0.0807585)
(3.713e-06 -5.17603e-06 0.0636026)
(-1.45909e-05 -2.65307e-06 0.0943137)
(-4.70077e-06 -3.41516e-07 0.0661631)
(1.48623e-05 3.74702e-06 0.0915103)
(5.66526e-06 -2.76552e-06 0.0658248)
(-1.60077e-05 -5.64259e-06 0.0909231)
(-3.73111e-06 2.24019e-06 0.0639154)
(1.6422e-07 4.63041e-06 0.0575106)
(1.04326e-05 3.18627e-06 0.0691841)
(-1.25478e-05 -3.98137e-06 0.0807648)
(1.25117e-05 4.5537e-06 0.0803372)
(4.04253e-07 -3.03302e-06 0.0577337)
(-3.4816e-06 4.15508e-06 0.0636337)
(1.53798e-05 1.44346e-06 0.0943338)
(-1.60927e-05 -5.21525e-06 0.0915295)
(5.53214e-06 -1.82664e-06 0.0662042)
(1.54247e-05 4.62625e-06 0.0909461)
(-4.8061e-06 1.47872e-06 0.0658673)
(3.69347e-06 -3.76046e-06 0.0639423)
(9.05501e-09 -3.62735e-06 0.0574809)
(1.10344e-05 -2.28862e-06 0.0691558)
(-1.1781e-05 4.81524e-06 0.0807389)
(1.32117e-05 -3.64212e-06 0.0803063)
(7.16173e-07 3.88173e-06 0.0577077)
(-3.33358e-06 -3.53975e-06 0.063608)
(1.52339e-05 -1.49875e-06 0.0943298)
(5.67002e-06 8.93589e-07 0.0661952)
(-1.5034e-05 4.90255e-06 0.0915158)
(-4.89212e-06 -9.10774e-07 0.0658572)
(1.64854e-05 -4.20715e-06 0.0909263)
(4.18912e-06 3.41762e-06 0.06392)
(-3.45077e-05 1.55319e-06 0.0937065)
(3.59048e-05 -6.38323e-06 0.106854)
(1.7764e-08 3.58862e-06 0.0821428)
(5.74749e-07 1.40313e-06 0.068743)
(-3.18117e-06 -1.50331e-06 0.0684427)
(-3.57395e-05 4.3696e-06 0.106296)
(3.07512e-05 2.47715e-06 0.0941901)
(-7.81679e-06 2.61376e-05 0.0939715)
(1.39051e-05 -3.14175e-05 0.107055)
(-1.44666e-05 -8.05421e-07 0.0825299)
(7.30552e-06 4.19542e-07 0.0689049)
(-1.47889e-05 3.27521e-05 0.106656)
(-7.50421e-06 -3.83986e-07 0.0687395)
(9.83517e-06 -2.6233e-05 0.0943754)
(-8.36609e-06 -3.16118e-06 0.0748106)
(-1.40321e-06 6.98588e-07 0.0581603)
(6.58054e-06 5.6921e-06 0.0581822)
(-7.77164e-07 -2.0243e-06 0.0579559)
(-7.93158e-06 -5.85697e-06 0.0580289)
(5.02102e-06 1.17215e-06 0.0751453)
(-6.11853e-06 1.8303e-06 0.0593925)
(-8.04743e-07 6.51703e-06 0.0577159)
(-5.10147e-06 1.53523e-05 0.0695627)
(3.94249e-06 -1.97087e-05 0.0811286)
(-3.69544e-06 2.01372e-05 0.0809805)
(1.43332e-06 -5.9527e-06 0.0577612)
(5.39708e-07 6.72887e-06 0.0640047)
(2.57685e-07 2.69973e-05 0.0953477)
(1.32132e-06 -2.71833e-05 0.0920535)
(3.05249e-07 -6.02179e-06 0.066365)
(-8.73202e-07 2.67493e-05 0.0918626)
(6.83505e-07 6.01381e-06 0.0662865)
(7.70929e-08 -6.04592e-06 0.0640768)
(2.64217e-07 6.50674e-06 0.0577136)
(4.76953e-06 1.59931e-05 0.0695424)
(-4.58348e-06 -2.01537e-05 0.0811203)
(3.04122e-06 2.06908e-05 0.0809717)
(-1.72253e-06 -6.45183e-06 0.05776)
(-6.35014e-07 6.04147e-06 0.0640026)
(4.97389e-07 2.657e-05 0.0953499)
(-1.50162e-06 -2.79891e-05 0.0920529)
(7.39562e-07 -6.6991e-06 0.06636)
(5.37634e-07 2.63697e-05 0.091864)
(2.77149e-07 5.89096e-06 0.0662836)
(-1.06934e-08 -7.07773e-06 0.064074)
(-1.81294e-08 -6.13179e-07 0.0591758)
(5.62985e-06 1.93995e-06 0.0593498)
(-1.57833e-06 1.47761e-06 0.1485)
(-1.98969e-06 8.01531e-07 0.148129)
(-3.05935e-06 2.58992e-07 0.151881)
(3.68688e-05 3.44799e-05 0.109469)
(-3.82166e-05 -0.000126426 0.120635)
(-0.000127141 -3.17089e-05 0.120646)
(0.000121497 0.000123688 0.129256)
(3.64764e-05 0.000129079 0.120211)
(0.000126772 3.52247e-05 0.120294)
(-3.67874e-05 -3.00194e-05 0.109924)
(-3.86549e-05 -3.17506e-05 0.109476)
(0.000128831 3.28891e-05 0.120734)
(3.68007e-05 0.000124989 0.120509)
(-0.000123033 -0.000121694 0.129232)
(-0.00012917 -3.40643e-05 0.120387)
(-3.72996e-05 -0.000124232 0.12009)
(3.66e-05 2.94795e-05 0.109928)
(3.60968e-05 -3.37342e-05 0.109499)
(-0.000128885 3.40102e-05 0.120726)
(-3.60744e-05 0.000123341 0.120533)
(0.000122962 -0.000122542 0.129224)
(3.72367e-05 -0.000127309 0.120115)
(0.000126803 -3.39616e-05 0.120382)
(-3.74095e-05 3.01343e-05 0.109944)
(-3.55232e-05 3.35994e-05 0.109494)
(3.78204e-05 -0.00012554 0.120598)
(0.000126737 -3.17636e-05 0.120636)
(-0.00012221 0.000121973 0.129209)
(-0.000126915 3.3908e-05 0.120291)
(-3.64942e-05 0.000125513 0.120184)
(3.79491e-05 -2.88353e-05 0.109939)
(5.80417e-07 1.80912e-06 0.148486)
(1.45892e-06 1.03334e-06 0.148108)
(1.09249e-06 7.29194e-07 0.151869)
(-8.40349e-07 4.2676e-07 0.148169)
(-8.02913e-07 -4.45443e-07 0.148432)
(-2.95553e-06 8.13459e-07 0.151874)
(1.57296e-06 3.46094e-07 0.148179)
(2.34401e-07 -1.01985e-06 0.148445)
(1.45742e-06 1.7031e-06 0.151871)
(0.000154737 -7.97865e-07 0.121488)
(-0.000150125 1.57899e-06 0.115715)
(1.369e-05 -8.85063e-06 0.0971219)
(-2.54593e-05 -2.35097e-06 0.106698)
(0.000147077 -4.7572e-06 0.115196)
(2.36793e-05 -6.70668e-07 0.106108)
(-0.000153533 -3.10929e-06 0.121915)
(0.000150727 6.80245e-07 0.125164)
(2.52429e-05 5.20774e-07 0.114052)
(-2.90191e-05 -5.05918e-06 0.112172)
(-0.000146725 -3.07067e-06 0.127523)
(2.62065e-05 1.26881e-06 0.111514)
(0.000147956 8.4752e-07 0.126992)
(-0.000153192 -5.22902e-06 0.125645)
(-4.31522e-06 0.000149641 0.122282)
(9.80257e-06 -0.000145375 0.116045)
(-1.84636e-05 1.66555e-05 0.0977587)
(7.67091e-06 -2.97021e-05 0.107185)
(-9.30645e-06 0.000142915 0.115768)
(-8.26514e-06 2.90185e-05 0.106964)
(4.24739e-06 -0.00014779 0.122401)
(-4.66858e-07 0.000143791 0.126151)
(-6.15402e-07 3.19984e-05 0.115202)
(-1.09752e-06 -0.000141205 0.128186)
(2.74453e-06 -3.48753e-05 0.112783)
(-2.10736e-07 0.000139419 0.128075)
(-2.90724e-06 3.29309e-05 0.112576)
(-2.16544e-07 -0.000147419 0.126243)
(-3.9605e-06 -0.000148115 0.12226)
(1.03573e-05 0.000143259 0.116038)
(-1.71985e-05 -1.89747e-05 0.097755)
(8.65087e-06 2.79281e-05 0.107181)
(-7.54141e-06 -3.07419e-05 0.106963)
(-8.93668e-06 -0.000143394 0.115761)
(4.5125e-06 0.000146586 0.122385)
(-5.63092e-07 -0.000145642 0.12614)
(-8.09857e-07 -3.3614e-05 0.11521)
(2.98062e-06 3.25767e-05 0.112787)
(6.28512e-08 0.000140247 0.128171)
(-3.02279e-06 -3.46232e-05 0.112583)
(5.81662e-07 -0.000139772 0.128059)
(3.59147e-07 0.000144944 0.126234)
(3.03813e-06 -0.000147461 0.122235)
(-1.08186e-05 0.000144169 0.116015)
(1.58165e-05 -1.88637e-05 0.0977558)
(-8.73014e-06 2.89482e-05 0.107178)
(6.29206e-06 -2.96953e-05 0.106956)
(7.42035e-06 -0.000141933 0.115735)
(-4.8671e-06 0.000146566 0.122363)
(3.80251e-07 -0.000144202 0.12612)
(2.47672e-07 -3.34887e-05 0.115205)
(-3.38233e-06 3.30486e-05 0.112778)
(1.75688e-06 0.000140124 0.128165)
(1.8499e-06 -3.38808e-05 0.112572)
(3.81217e-07 -0.000139433 0.128053)
(4.9045e-07 0.000143529 0.126215)
(-0.000156018 6.66456e-07 0.121484)
(0.000149344 2.16642e-06 0.115684)
(-1.48182e-05 -9.62349e-06 0.0970974)
(2.48543e-05 -2.12748e-06 0.106679)
(-2.41893e-05 6.92522e-09 0.106087)
(-0.000148084 -3.91784e-06 0.115167)
(0.000152975 -1.92172e-06 0.121911)
(-0.000152358 2.7792e-06 0.125176)
(-2.50383e-05 1.30263e-06 0.114057)
(2.90654e-05 -3.09035e-06 0.112168)
(0.0001478 -1.81841e-06 0.127534)
(-2.6339e-05 3.06368e-06 0.111508)
(-0.000148255 2.20601e-06 0.127004)
(0.000153104 -3.13181e-06 0.125657)
(-0.000154107 -1.99287e-07 0.121449)
(0.000148555 -1.86633e-06 0.115676)
(-1.53288e-05 8.2976e-06 0.0971186)
(2.44712e-05 1.88321e-06 0.106682)
(-2.45547e-05 -7.74269e-08 0.10609)
(-0.00014611 3.84654e-06 0.115161)
(0.000151486 2.59544e-06 0.12188)
(-0.000153207 -1.49216e-06 0.12515)
(-2.56567e-05 -1.68102e-06 0.114054)
(0.000146499 2.23678e-06 0.127523)
(2.70767e-05 3.20088e-06 0.112164)
(-0.000147716 -1.02647e-06 0.126992)
(-2.73721e-05 -2.72869e-06 0.111503)
(0.000150558 3.63968e-06 0.125634)
(0.000154359 -2.23119e-07 0.121484)
(-0.000149616 -1.77357e-06 0.11572)
(1.57479e-05 9.89328e-06 0.0971088)
(-2.44206e-05 2.57228e-06 0.106696)
(0.000146802 4.86616e-06 0.115198)
(2.50037e-05 1.15858e-06 0.1061)
(-0.000152274 2.01369e-06 0.121919)
(0.000152621 -1.73091e-06 0.125171)
(2.55194e-05 -1.48198e-06 0.114057)
(-0.000146711 1.69799e-06 0.127522)
(-2.72348e-05 3.8491e-06 0.112182)
(0.000147176 -1.67634e-06 0.12699)
(2.71052e-05 -2.03193e-06 0.111517)
(-0.000150825 3.50202e-06 0.125656)
(3.04428e-06 0.000150666 0.122287)
(-1.08287e-05 -0.000145566 0.11604)
(1.73438e-05 1.81059e-05 0.0977371)
(-8.42906e-06 -2.99066e-05 0.107181)
(7.91881e-06 0.0001443 0.115759)
(7.35224e-06 2.99779e-05 0.106961)
(-4.62613e-06 -0.000147541 0.122408)
(-2.21159e-07 0.000144415 0.126154)
(7.09181e-07 3.18579e-05 0.115202)
(7.61538e-07 -0.000141984 0.128189)
(-2.66569e-06 -3.55854e-05 0.112783)
(-7.81798e-07 0.000138924 0.128077)
(2.42921e-06 3.28894e-05 0.112577)
(3.08659e-07 -0.000148098 0.126247)
(4.57406e-06 1.94311e-06 0.0404579)
(3.63634e-06 2.31201e-07 0.0273007)
(2.56964e-06 -4.07471e-07 0.0169675)
(1.46171e-06 -5.77658e-07 0.00893114)
(5.31449e-07 -1.86136e-07 0.00271024)
(-6.31042e-06 -1.90466e-06 0.0418188)
(-4.62387e-06 -1.94791e-06 0.0284229)
(-3.13748e-06 -1.56027e-06 0.0177899)
(-1.77353e-06 -1.02103e-06 0.00942703)
(-6.05389e-07 -3.38531e-07 0.00288186)
(1.06799e-06 -2.27849e-06 0.0405629)
(5.91078e-07 -1.21244e-06 0.0273667)
(4.29504e-07 -5.90436e-07 0.0170062)
(2.75572e-07 -2.42202e-07 0.00895041)
(3.89921e-08 -7.41058e-08 0.00271602)
(-1.67392e-06 -6.09877e-09 0.0418994)
(-9.14565e-07 -2.31894e-07 0.0284753)
(-4.04205e-07 -2.86706e-07 0.0178217)
(-1.58749e-07 -2.12986e-07 0.00944361)
(-3.52491e-08 -5.69565e-08 0.00288708)
(5.55324e-06 -1.84045e-06 0.0417985)
(4.16966e-06 -1.51906e-06 0.0284094)
(2.94697e-06 -1.03924e-06 0.0177816)
(1.76137e-06 -5.78356e-07 0.00942321)
(5.69444e-07 -2.269e-07 0.00288113)
(-1.21613e-06 -1.80926e-06 0.0418762)
(-5.27358e-07 -1.2148e-06 0.0284597)
(-1.4456e-07 -6.96651e-07 0.0178119)
(-3.76349e-08 -3.53913e-07 0.00943828)
(1.67135e-08 -9.55692e-08 0.0028854)
(-4.99875e-06 2.32964e-06 0.0404852)
(-3.93646e-06 6.78142e-07 0.0273181)
(-2.78378e-06 3.72069e-08 0.0169773)
(-1.64206e-06 -1.47276e-07 0.00893563)
(-5.29883e-07 -1.1512e-07 0.00271144)
(1.54521e-06 -5.87246e-07 0.041883)
(6.43474e-07 -3.2491e-07 0.0284642)
(9.06515e-08 -1.54078e-07 0.0178148)
(-1.09831e-07 -8.67888e-08 0.00944018)
(-3.02446e-08 4.52248e-11 0.00288604)
(9.01677e-07 1.38027e-06 0.0405869)
(4.59211e-07 6.95529e-07 0.027383)
(3.18204e-07 3.51604e-07 0.0170162)
(1.53875e-07 1.70121e-07 0.00895545)
(4.69354e-08 6.41078e-08 0.00271738)
(-3.78198e-07 -9.42629e-07 0.0405772)
(8.64239e-08 -2.57521e-07 0.0273771)
(1.02325e-07 -1.46213e-08 0.0170131)
(6.18714e-08 2.984e-08 0.00895437)
(5.31788e-08 3.49804e-08 0.00271709)
(-9.13664e-07 1.7227e-06 0.0405592)
(-4.70763e-07 8.37877e-07 0.0273642)
(-3.23514e-07 3.59133e-07 0.0170051)
(-1.89077e-07 1.01119e-07 0.00895041)
(-3.91958e-08 6.52971e-08 0.00271598)
(4.22958e-06 1.35671e-06 0.0418155)
(2.85044e-06 1.26862e-06 0.0284222)
(1.84984e-06 9.33109e-07 0.0177902)
(1.00044e-06 5.5827e-07 0.00942751)
(3.81992e-07 2.05797e-07 0.00288232)
(3.86185e-06 -2.61562e-06 0.0404683)
(3.10782e-06 -8.45551e-07 0.0273085)
(2.20236e-06 -1.40831e-07 0.0169722)
(1.26966e-06 8.36461e-08 0.00893332)
(4.66337e-07 1.08501e-07 0.00271089)
(-3.92864e-06 -2.83189e-06 0.0404567)
(-3.02941e-06 -9.41938e-07 0.0273006)
(-2.12476e-06 -1.64718e-07 0.0169674)
(-1.25309e-06 1.12241e-07 0.00893078)
(-4.04922e-07 8.65175e-08 0.00270995)
(1.2327e-06 7.71382e-07 0.0418587)
(6.16572e-07 4.64061e-07 0.0284481)
(2.16354e-07 2.35764e-07 0.0178052)
(4.27077e-08 9.90344e-08 0.00943521)
(-4.53648e-09 4.64353e-08 0.00288439)
(-5.34113e-06 1.10187e-06 0.0417821)
(-3.77338e-06 1.20717e-06 0.028399)
(-2.53022e-06 9.78112e-07 0.0177754)
(-1.44934e-06 6.43448e-07 0.00941961)
(-4.62797e-07 2.20907e-07 0.00287963)
(2.46468e-07 -4.09027e-06 0.0417707)
(3.35665e-07 -2.19796e-06 0.0283982)
(3.17429e-07 -1.07886e-06 0.0177769)
(2.06967e-07 -4.85846e-07 0.00942079)
(8.92172e-08 -9.96023e-08 0.00288015)
(-2.45118e-06 -2.95161e-06 0.0404345)
(-1.92171e-06 -1.00008e-06 0.0272917)
(-1.35147e-06 -1.81741e-07 0.0169632)
(-7.80273e-07 1.00675e-07 0.00892892)
(-2.95082e-07 7.93924e-08 0.00270966)
(2.58567e-06 1.99117e-07 0.0417712)
(1.9633e-06 6.00543e-07 0.0283986)
(1.48431e-06 6.76826e-07 0.0177766)
(9.34661e-07 5.33605e-07 0.0094204)
(3.57208e-07 1.91966e-07 0.00287993)
(-1.90203e-06 -3.36666e-06 0.0407942)
(-8.22185e-07 -2.51668e-06 0.0276073)
(-2.31615e-07 -1.71126e-06 0.0172063)
(3.96809e-08 -9.58914e-07 0.00908082)
(9.99587e-09 -3.57697e-07 0.0027639)
(-2.7053e-06 -1.76537e-06 0.0410575)
(-1.30544e-06 -1.31798e-06 0.0278286)
(-5.01478e-07 -8.63665e-07 0.0173748)
(-1.24378e-07 -4.54403e-07 0.00918662)
(-1.81343e-08 -1.75826e-07 0.00280205)
(5.69552e-08 3.84473e-06 0.0417816)
(-2.41137e-07 2.96349e-06 0.0284094)
(-3.23178e-07 2.1171e-06 0.0177847)
(-2.31356e-07 1.28803e-06 0.00942492)
(-1.076e-07 4.1582e-07 0.00288153)
(-8.75067e-07 1.77764e-06 0.0404522)
(-4.2975e-07 1.08512e-06 0.0273066)
(-2.99836e-07 6.46551e-07 0.016973)
(-1.5918e-07 3.50948e-07 0.00893393)
(-4.96562e-08 9.60716e-08 0.00271116)
(7.97445e-07 -1.45773e-06 0.0405629)
(3.40629e-07 -6.14269e-07 0.0273667)
(2.1287e-07 -2.20863e-07 0.0170062)
(1.23654e-07 -5.61812e-08 0.0089504)
(3.3638e-10 -9.57782e-09 0.00271597)
(1.11676e-06 -1.96898e-06 0.041785)
(4.85713e-07 -1.32783e-06 0.0284106)
(8.50505e-08 -7.80499e-07 0.0177852)
(-6.5191e-08 -4.02385e-07 0.00942523)
(-2.94287e-08 -8.88177e-08 0.00288162)
(-1.46963e-06 5.24666e-07 0.0419002)
(-7.40099e-07 2.0242e-07 0.0284755)
(-2.97713e-07 4.66246e-09 0.0178217)
(-9.55935e-08 -6.20479e-08 0.00944348)
(-1.96879e-08 -1.19801e-08 0.002887)
(-8.80605e-07 3.49171e-07 0.0407024)
(-5.15008e-07 2.9418e-07 0.0274571)
(-3.24017e-07 2.47367e-07 0.0170636)
(-1.93495e-07 1.64132e-07 0.00898219)
(-6.52351e-08 7.96784e-08 0.00272619)
(1.45274e-06 -2.11765e-06 0.0406)
(1.11968e-06 -1.79797e-06 0.0274013)
(8.18892e-07 -1.30899e-06 0.0170327)
(5.12778e-07 -7.69781e-07 0.0089669)
(1.79552e-07 -2.61565e-07 0.00272168)
(-4.79901e-06 7.73077e-07 0.0406431)
(-3.28449e-06 1.01639e-06 0.0274202)
(-2.12602e-06 9.11112e-07 0.0170418)
(-1.1936e-06 6.24182e-07 0.00897107)
(-3.61085e-07 2.05269e-07 0.00272289)
(3.7204e-06 -5.49844e-07 0.0405805)
(2.66298e-06 -8.67156e-07 0.027388)
(1.76556e-06 -8.19355e-07 0.0170245)
(9.86366e-07 -5.50453e-07 0.00896259)
(3.4362e-07 -2.04628e-07 0.00272039)
(9.78415e-07 -1.50198e-07 0.0416588)
(5.31145e-07 -1.6029e-07 0.0282749)
(2.4849e-07 -1.40414e-07 0.0176742)
(8.42299e-08 -8.40457e-08 0.00935436)
(3.57915e-08 -3.77855e-08 0.00285587)
(-4.00583e-06 3.48567e-06 0.0416422)
(-2.78296e-06 2.43402e-06 0.0282641)
(-1.88861e-06 1.61873e-06 0.0176677)
(-1.11125e-06 9.30809e-07 0.00935086)
(-3.59004e-07 3.06053e-07 0.0028548)
(1.79675e-07 -1.9358e-06 0.0415571)
(6.03943e-07 -1.55156e-06 0.0282183)
(6.10228e-07 -1.05736e-06 0.0176426)
(4.20261e-07 -5.90777e-07 0.00933855)
(1.53322e-07 -1.8439e-07 0.00285118)
(4.07638e-06 -4.00066e-06 0.0415549)
(3.1033e-06 -2.91138e-06 0.0282161)
(2.19831e-06 -1.98363e-06 0.017641)
(1.29883e-06 -1.13772e-06 0.00933756)
(4.59967e-07 -3.92758e-07 0.00285086)
(-3.72305e-06 2.2023e-07 0.0417507)
(-2.65763e-06 5.43984e-07 0.0283855)
(-1.7948e-06 5.30307e-07 0.0177691)
(-1.01467e-06 3.65245e-07 0.00941715)
(-3.71239e-07 1.58348e-07 0.00287936)
(1.47129e-06 9.31926e-07 0.0417621)
(7.20206e-07 7.22087e-07 0.0283952)
(2.45927e-07 4.5125e-07 0.0177754)
(6.35469e-08 2.34353e-07 0.00941986)
(-2.90381e-08 8.11428e-08 0.00287995)
(-1.52795e-06 -8.72228e-07 0.0418766)
(-7.74908e-07 -4.72729e-07 0.0284597)
(-2.9582e-07 -2.06064e-07 0.0178118)
(-6.24138e-08 -7.80576e-08 0.00943816)
(-2.23369e-08 -5.79734e-09 0.00288532)
(1.85719e-06 -3.59469e-06 0.0404624)
(1.58845e-06 -1.57006e-06 0.0273107)
(1.20508e-06 -5.78446e-07 0.0169747)
(7.53596e-07 -1.28677e-07 0.00893466)
(2.58518e-07 2.65663e-08 0.00271117)
(-1.80247e-06 -2.13599e-06 0.0407198)
(-1.21707e-06 -1.76296e-06 0.0274694)
(-8.20869e-07 -1.30194e-06 0.0170715)
(-4.78845e-07 -8.08901e-07 0.00898641)
(-1.45003e-07 -2.57687e-07 0.00272744)
(2.98261e-06 -7.95306e-07 0.0406295)
(1.63468e-06 2.01484e-07 0.0274184)
(7.9308e-07 5.89851e-07 0.0170425)
(3.39923e-07 5.03565e-07 0.00897173)
(1.35111e-07 2.39826e-07 0.00272313)
(-1.41422e-06 -2.4326e-06 0.0416783)
(-1.44074e-06 -1.82996e-06 0.0282877)
(-1.11313e-06 -1.16255e-06 0.017682)
(-6.66651e-07 -6.15015e-07 0.00935816)
(-2.03209e-07 -1.87365e-07 0.00285702)
(-7.1378e-07 -2.05371e-06 0.0415871)
(-4.75416e-07 -1.25314e-06 0.0282369)
(-4.0803e-07 -8.66157e-07 0.0176537)
(-3.00884e-07 -5.39798e-07 0.00934403)
(-1.15615e-07 -1.65497e-07 0.00285285)
(-5.91763e-07 1.46702e-06 0.0417701)
(-3.19624e-08 1.244e-06 0.0284011)
(2.4822e-07 9.09922e-07 0.0177796)
(2.4183e-07 5.33654e-07 0.00942264)
(1.31282e-07 2.27028e-07 0.00288088)
(-2.3772e-06 1.58623e-06 0.0408118)
(-1.07707e-06 1.12099e-06 0.0276187)
(-3.59724e-07 7.99751e-07 0.0172131)
(-4.26373e-08 5.15945e-07 0.00908439)
(-6.01234e-09 1.42002e-07 0.00276498)
(-2.83931e-06 -3.13507e-07 0.0410638)
(-1.42396e-06 -2.38694e-07 0.0278328)
(-5.83976e-07 -1.13917e-07 0.0173774)
(-1.42449e-07 -1.14393e-08 0.00918791)
(-4.74926e-08 -3.22246e-08 0.00280243)
(-1.99098e-07 -4.16052e-06 0.0418059)
(-3.48959e-07 -3.10301e-06 0.0284259)
(-3.46756e-07 -2.12948e-06 0.0177948)
(-2.51799e-07 -1.23104e-06 0.00943006)
(-8.67444e-08 -4.22563e-07 0.00288291)
(-8.92326e-07 -2.15248e-06 0.0404759)
(-3.61453e-07 -1.10165e-06 0.0273227)
(-2.07351e-07 -5.10772e-07 0.0169829)
(-9.52439e-08 -2.10336e-07 0.00893889)
(-1.29168e-08 -3.43014e-08 0.0027125)
(9.20923e-07 1.94345e-06 0.0405875)
(5.33667e-07 1.15047e-06 0.0273833)
(3.73728e-07 6.52282e-07 0.0170163)
(2.00078e-07 3.27197e-07 0.00895541)
(4.32679e-08 1.08319e-07 0.00271734)
(9.08577e-07 2.46202e-06 0.040466)
(3.9504e-07 1.57854e-06 0.027316)
(2.32102e-07 9.14055e-07 0.016979)
(8.70748e-08 4.42219e-07 0.00893728)
(4.75337e-08 1.45848e-07 0.0027121)
(1.39423e-07 -3.44794e-06 0.0417908)
(2.76103e-07 -2.6319e-06 0.0284152)
(2.70899e-07 -1.87525e-06 0.0177883)
(1.59148e-07 -1.14433e-06 0.00942703)
(8.13002e-08 -3.76267e-07 0.00288205)
(9.64704e-07 -1.53401e-06 0.0404484)
(3.96742e-07 -8.24792e-07 0.0273042)
(2.32869e-07 -4.2051e-07 0.0169721)
(1.15689e-07 -1.93654e-07 0.00893407)
(2.07786e-08 -4.68203e-08 0.00271117)
(3.77751e-06 3.08004e-07 0.0406944)
(2.44183e-06 5.05292e-07 0.0274536)
(1.50275e-06 4.34317e-07 0.0170621)
(7.80487e-07 2.5954e-07 0.0089819)
(2.85559e-07 1.29557e-07 0.0027265)
(-4.65837e-06 -2.44326e-07 0.0406464)
(-3.30721e-06 -6.91999e-07 0.0274305)
(-2.1774e-06 -7.82068e-07 0.0170503)
(-1.23498e-06 -5.79272e-07 0.00897624)
(-3.80128e-07 -1.98413e-07 0.00272484)
(3.67035e-06 4.24702e-06 0.0416872)
(2.39138e-06 2.70004e-06 0.0282944)
(1.50306e-06 1.56885e-06 0.0176862)
(7.97202e-07 7.71087e-07 0.00936074)
(3.06252e-07 2.74736e-07 0.00285811)
(-4.14192e-06 -7.26294e-07 0.0417682)
(-2.97353e-06 -9.48654e-07 0.0283981)
(-2.04268e-06 -8.43907e-07 0.0177772)
(-1.20325e-06 -5.86769e-07 0.00942111)
(-3.87534e-07 -1.88698e-07 0.00288044)
(-4.44978e-07 3.88112e-06 0.0417799)
(-2.85417e-07 1.86752e-06 0.0284046)
(-1.66976e-07 7.21451e-07 0.0177809)
(-8.54044e-08 1.4898e-07 0.00942288)
(-1.27806e-08 3.13321e-08 0.00288077)
(-3.17211e-06 2.77521e-06 0.0404454)
(-2.53467e-06 9.71862e-07 0.0273008)
(-1.83945e-06 1.81253e-07 0.0169692)
(-1.10972e-06 -1.26148e-07 0.00893213)
(-3.7228e-07 -8.38805e-08 0.00271053)
(1.4138e-08 4.02001e-06 0.0417783)
(-1.77671e-08 2.03579e-06 0.0284039)
(-4.07156e-08 8.71222e-07 0.0177805)
(-3.84057e-08 2.66627e-07 0.0094226)
(-2.44525e-08 5.24513e-08 0.00288058)
(3.20241e-06 2.74656e-06 0.0404331)
(2.67219e-06 8.71001e-07 0.0272921)
(1.97336e-06 8.78984e-08 0.0169639)
(1.19105e-06 -1.65793e-07 0.00892927)
(4.18311e-07 -1.06088e-07 0.00270951)
(-1.18229e-06 -1.22123e-06 0.0417458)
(-5.32048e-07 -9.16771e-07 0.0283845)
(-1.21276e-07 -5.79493e-07 0.0177695)
(3.61515e-08 -3.12664e-07 0.00941728)
(2.45309e-08 -8.63143e-08 0.00287907)
(4.00371e-06 -7.49993e-07 0.0417343)
(3.02833e-06 -1.01755e-06 0.0283747)
(2.14121e-06 -8.82231e-07 0.0177625)
(1.25952e-06 -5.75658e-07 0.00941324)
(4.50974e-07 -2.1677e-07 0.00287775)
(-1.31665e-06 -4.22152e-06 0.0418006)
(-1.1587e-06 -2.17699e-06 0.0284183)
(-8.8839e-07 -9.39965e-07 0.0177889)
(-5.6278e-07 -2.6364e-07 0.00942675)
(-1.86149e-07 -7.2487e-08 0.00288192)
(4.50131e-07 4.35942e-06 0.0418128)
(6.2506e-07 3.26853e-06 0.0284302)
(5.62646e-07 2.22479e-06 0.0177977)
(3.82107e-07 1.25597e-06 0.00943176)
(1.40111e-07 4.47802e-07 0.0028834)
(1.29188e-06 -2.80104e-06 0.0406343)
(1.11238e-06 -1.30825e-06 0.0275104)
(8.59392e-07 -5.12882e-07 0.0171496)
(5.57236e-07 -1.0285e-07 0.00905193)
(1.6521e-07 -4.48471e-08 0.00275504)
(6.2862e-08 2.95056e-06 0.040903)
(2.69114e-08 1.73073e-06 0.02773)
(7.0213e-10 1.01476e-06 0.0173159)
(-9.68333e-09 6.19512e-07 0.00915628)
(-4.95535e-09 1.17242e-07 0.00279266)
(7.86638e-08 -2.33433e-06 0.0408849)
(3.57219e-08 -1.13561e-06 0.0277238)
(1.65897e-08 -5.26028e-07 0.0173136)
(7.54474e-09 -2.45694e-07 0.00915543)
(6.73123e-09 -4.52899e-08 0.00279241)
(6.12333e-07 2.56592e-06 0.0406511)
(3.80329e-07 1.18338e-06 0.0275163)
(1.5073e-07 4.38551e-07 0.0171522)
(-1.66957e-08 5.86221e-08 0.00905326)
(3.03924e-08 2.44768e-08 0.00275536)
(1.67898e-06 3.53447e-06 0.0417809)
(1.23089e-06 1.81804e-06 0.028399)
(7.8468e-07 8.13958e-07 0.0177759)
(3.99698e-07 2.89766e-07 0.00942006)
(1.35759e-07 4.20472e-08 0.00287991)
(-5.90966e-06 -2.14351e-06 0.0406834)
(-4.36825e-06 -1.92874e-06 0.0274456)
(-2.94654e-06 -1.45767e-06 0.0170569)
(-1.68371e-06 -8.73355e-07 0.00897908)
(-5.40195e-07 -3.05628e-07 0.00272539)
(9.24498e-07 1.55443e-06 0.0406074)
(9.84104e-07 1.07049e-06 0.0274076)
(9.23515e-07 6.78551e-07 0.0170371)
(6.57306e-07 3.78167e-07 0.00896954)
(2.54716e-07 1.32459e-07 0.00272263)
(-5.77909e-06 -5.98802e-06 0.0416697)
(-4.2934e-06 -4.38539e-06 0.0282816)
(-2.94556e-06 -2.89222e-06 0.0176783)
(-1.69516e-06 -1.59546e-06 0.00935663)
(-5.73914e-07 -5.22617e-07 0.00285673)
(6.59283e-07 2.93411e-06 0.0415731)
(6.35001e-07 1.76475e-06 0.0282285)
(4.65867e-07 9.73809e-07 0.0176487)
(2.9114e-07 4.37583e-07 0.00934188)
(1.23913e-07 1.28695e-07 0.00285242)
(-3.45037e-08 -3.64499e-06 0.0419014)
(2.62867e-07 -2.63533e-06 0.0284765)
(3.12807e-07 -1.74119e-06 0.0178224)
(2.1595e-07 -9.63978e-07 0.00944381)
(8.31664e-08 -3.54521e-07 0.00288713)
(2.45339e-06 2.63657e-06 0.0406548)
(1.19075e-06 1.99846e-06 0.0275285)
(4.33194e-07 1.44228e-06 0.0171619)
(7.51822e-08 8.9875e-07 0.0090586)