/*--------------------------------*- C++ -*----------------------------------*\
| =========                 |                                                 |
| \\      /  F ield         | OpenFOAM: The Open Source CFD Toolbox           |
|  \\    /   O peration     | Version:  2206                                  |
|   \\  /    A nd           | Website:  www.openfoam.com                      |
|    \\/     M anipulation  |                                                 |
\*---------------------------------------------------------------------------*/
FoamFile
{
    version     2.0;
    format      ascii;
    arch        "LSB;label=32;scalar=64";
    class       volVectorField;
    location    "130";
    object      wallShearStress;
}
// * * * * * * * * * * * * * * * * * * * * * * * * * * * * * * * * * * * * * //

dimensions      [0 2 -2 0 0 0 0];

internalField   uniform (0 0 0);

boundaryField
{
    topPatch
    {
        type            calculated;
        value           nonuniform List<vector> 0();
    }
    wall
    {
        type            calculated;
        value           nonuniform List<vector> 
7803
(
(-2.05365e-08 6.74527e-09 -0.00010355)
(2.32119e-08 1.31176e-08 -0.000110168)
(-1.71473e-09 2.7747e-09 -0.00010378)
(1.43022e-09 2.14455e-09 -0.000110358)
(-2.22311e-08 8.07394e-09 -0.000110117)
(-1.51707e-10 3.9778e-09 -0.000110304)
(2.08753e-08 3.18477e-09 -0.000103605)
(1.28942e-09 -3.75695e-11 -0.00011031)
(-2.24328e-09 -2.31128e-09 -0.000103837)
(-2.32476e-09 -1.16032e-09 -0.000103811)
(1.83428e-09 -2.40839e-09 -0.000103765)
(-1.45931e-08 -8.07536e-09 -0.000110171)
(-1.82989e-08 -3.17464e-09 -0.000103581)
(1.59733e-08 -2.24412e-09 -0.000103548)
(-3.20527e-11 -1.90192e-09 -0.000110256)
(1.79657e-08 -8.17068e-09 -0.000110083)
(-3.07844e-09 5.01549e-09 -0.000110067)
(1.16076e-08 -2.35868e-09 -0.000103528)
(-1.37297e-08 -7.37805e-09 -0.000110095)
(2.50573e-10 1.38165e-08 -0.000105587)
(1.25407e-09 6.78666e-09 -0.000107033)
(4.14394e-09 -1.59605e-08 -0.000110122)
(2.20231e-09 -3.59812e-09 -0.000103594)
(-2.20066e-10 3.1629e-10 -0.000103778)
(7.93507e-10 3.5986e-09 -0.00011015)
(8.86277e-10 3.73684e-10 -0.000110356)
(2.68441e-09 -2.92709e-09 -0.000104165)
(-6.83656e-09 1.00655e-08 -0.000103993)
(1.42065e-08 -7.45716e-09 -0.000104039)
(-1.3446e-08 7.58349e-09 -0.000103944)
(-1.38084e-09 1.36301e-09 -0.000109178)
(1.3767e-08 -1.17576e-08 -0.000109138)
(-5.77417e-09 7.25257e-09 -0.000108998)
(-1.76152e-08 1.51191e-08 -0.000108988)
(1.45502e-08 -5.56574e-09 -0.000110049)
(8.68675e-10 -3.27221e-09 -0.000110095)
(1.14345e-09 3.98439e-10 -0.000110301)
(-1.04007e-08 2.00291e-10 -0.000103595)
(5.27139e-09 1.00729e-08 -0.000104211)
(-5.5916e-09 -8.88885e-09 -0.000104046)
(8.0653e-09 7.07265e-09 -0.000109222)
(3.77648e-09 6.80328e-09 -0.000109062)
(-5.21175e-09 -8.60583e-09 -0.000110112)
(7.6389e-10 -5.5619e-09 -0.000105626)
(2.58509e-09 1.19432e-09 -0.000107046)
(3.18765e-09 1.62568e-08 -0.000110181)
(6.72005e-10 1.30623e-09 -0.000103651)
(-1.87599e-09 -4.09643e-09 -0.000103836)
(-1.87562e-09 -5.61817e-09 -0.000103621)
(-3.08285e-09 1.44311e-08 -0.000110137)
(-1.07913e-09 1.72747e-09 -0.000103581)
(-1.12678e-08 -4.59247e-09 -0.000104161)
(1.51957e-08 6.85999e-09 -0.000104098)
(-1.1437e-08 -1.09295e-08 -0.000109257)
(1.50244e-08 7.00091e-09 -0.000110099)
(7.11305e-10 -1.93823e-09 -0.000110091)
(1.4659e-08 2.26372e-09 -0.000103567)
(6.79847e-10 -2.83948e-09 -0.000110086)
(-1.64135e-08 3.14623e-09 -0.000103531)
(-6.75866e-10 3.47877e-09 -0.000110052)
(-1.74676e-08 8.09224e-09 -0.000110011)
(6.95695e-09 3.35101e-09 -0.000110136)
(-5.82702e-09 -1.70654e-08 -0.000110193)
(-6.30976e-09 1.93281e-09 -0.000105256)
(1.26964e-10 -5.99234e-09 -0.000106683)
(-2.14066e-10 2.22848e-09 -0.000106674)
(-1.27369e-09 -1.26592e-09 -0.000105268)
(-5.56945e-09 -2.75956e-09 -0.000110058)
(2.11242e-08 1.12472e-08 -0.000104126)
(-9.73159e-09 -5.19012e-09 -0.000104021)
(2.17028e-08 2.04336e-08 -0.000109196)
(-4.2823e-09 -5.48707e-09 -0.000109032)
(-3.11746e-09 1.36447e-08 -0.000110336)
(-4.46613e-10 -1.04276e-08 -0.000105337)
(4.92968e-10 6.07799e-09 -0.000107032)
(-1.89435e-09 -8.62102e-10 -0.000106767)
(1.55357e-10 1.21453e-08 -0.000105586)
(-2.84805e-09 1.31197e-08 -0.000110335)
(-1.32054e-09 -2.82579e-09 -0.000104258)
(5.26849e-09 8.89708e-09 -0.000104058)
(2.4889e-10 7.43544e-10 -0.000109289)
(1.28052e-08 1.50711e-08 -0.000109092)
(-1.26217e-08 9.5925e-09 -0.00010412)
(1.32986e-08 -8.03012e-09 -0.000104023)
(-1.70552e-08 1.22252e-08 -0.00010917)
(1.81995e-08 -1.45491e-08 -0.000109033)
(-6.84657e-09 7.27188e-09 -0.000104188)
(5.83153e-09 -7.4554e-09 -0.000104017)
(-1.86546e-09 4.50172e-09 -0.000109228)
(3.83886e-09 -4.99063e-09 -0.000109047)
(9.6045e-09 5.30229e-09 -0.000105307)
(3.41372e-09 -5.94327e-10 -0.000106711)
(5.84135e-09 2.08511e-09 -0.000106691)
(3.29107e-09 -3.20759e-09 -0.000105312)
(7.12315e-09 -7.95808e-10 -0.000110134)
(8.43113e-10 1.64132e-08 -0.000105379)
(2.40319e-09 1.2767e-09 -0.000107047)
(-1.5693e-09 8.09459e-09 -0.000106779)
(-2.64782e-10 -5.59112e-09 -0.000105627)
(-2.72987e-09 -1.29054e-08 -0.000110398)
(-2.66433e-09 -1.3725e-08 -0.000110396)
(3.24066e-09 1.18261e-08 -0.000110396)
(5.99251e-10 -1.28065e-08 -0.00010542)
(-3.28584e-10 3.7114e-09 -0.000107107)
(8.75106e-10 -5.60466e-09 -0.000106848)
(-3.78357e-10 1.05949e-08 -0.000105666)
(-5.7631e-10 9.51549e-09 -0.000105381)
(-2.42443e-09 -5.29742e-09 -0.000107091)
(1.71552e-09 1.18847e-09 -0.000106825)
(2.1621e-10 -1.1121e-08 -0.000105626)
(3.23038e-09 -1.50253e-08 -0.00011035)
(2.71218e-08 2.28963e-08 -0.000109133)
(-1.80453e-09 2.37389e-09 -0.000110085)
(-5.02547e-09 -3.95284e-09 -0.000105284)
(-2.12446e-09 1.66435e-09 -0.0001067)
(-3.71798e-09 -2.9806e-09 -0.000106684)
(2.03554e-09 2.78587e-09 -0.000105291)
(1.22601e-09 2.65554e-09 -0.00011008)
(3.68982e-09 -3.07726e-09 -0.000105277)
(-4.29944e-09 2.16383e-09 -0.000106696)
(-6.18184e-10 -2.21517e-09 -0.000106682)
(-4.72543e-09 3.60609e-09 -0.000105287)
(1.35828e-09 2.39045e-09 -0.000103649)
(1.42614e-09 5.13575e-09 -0.000110148)
(-2.2969e-09 -1.35326e-08 -0.000110395)
(-1.28819e-09 -7.30631e-10 -0.000103833)
(1.58743e-09 1.89131e-09 -0.000110356)
(4.40552e-10 1.27517e-08 -0.000105584)
(-9.86103e-10 -1.23271e-09 -0.000106765)
(7.17017e-10 5.1846e-09 -0.000107028)
(-3.34259e-11 -1.09416e-08 -0.000105335)
(-4.51535e-10 -5.61601e-09 -0.000105624)
(-2.76203e-09 7.23329e-09 -0.000106776)
(1.89764e-09 9.06649e-10 -0.000107044)
(8.69284e-10 1.53649e-08 -0.000105378)
(3.98112e-09 1.65176e-08 -0.000110178)
(5.54145e-09 1.05158e-08 -0.000104059)
(-4.9734e-10 -1.69807e-09 -0.000104253)
(1.00857e-08 1.21242e-08 -0.000109097)
(-4.78125e-09 -5.79045e-09 -0.000109293)
(1.26003e-08 -1.61903e-09 -0.000110046)
(-2.09305e-09 3.36642e-11 -0.00011009)
(1.00883e-08 -3.45768e-09 -0.000103519)
(1.28773e-09 -1.10511e-09 -0.000103592)
(-2.4098e-08 8.13675e-09 -0.000110107)
(-1.56748e-09 7.48287e-09 -0.000110296)
(-6.89112e-09 -4.83405e-09 -0.000110048)
(-2.24892e-08 5.95018e-09 -0.000103545)
(-2.20357e-09 6.37153e-09 -0.000103775)
(1.73071e-08 -1.05737e-08 -0.000109028)
(-1.36581e-10 -3.4096e-09 -0.000109035)
(-3.52004e-09 1.53066e-08 -0.000110332)
(3.63892e-09 -1.40957e-08 -0.000110119)
(9.22872e-09 -6.71885e-09 -0.000104012)
(-1.53258e-08 1.11903e-08 -0.000104114)
(4.06501e-09 -3.74685e-09 -0.000104009)
(-9.78264e-09 1.11787e-08 -0.000104174)
(-4.15529e-09 7.37934e-09 -0.000109218)
(-1.96566e-08 1.60932e-08 -0.00010916)
(-1.35784e-09 -1.42644e-10 -0.000105263)
(-1.97012e-09 4.56095e-09 -0.000106671)
(-3.93173e-10 -3.17091e-09 -0.000106675)
(-8.1489e-09 2.60941e-09 -0.000105249)
(-3.95346e-09 4.29701e-09 -0.000110063)
(-7.86951e-09 -4.19016e-09 -0.00010356)
(6.4436e-09 -2.56973e-09 -0.000110148)
(-4.81938e-08 -1.96437e-08 -0.000110207)
(-4.88527e-09 -1.24088e-08 -0.000103692)
(-3.93955e-09 -1.8962e-10 -0.000110301)
(5.09672e-09 -5.82556e-09 -0.000110304)
(1.91712e-09 -7.4661e-09 -0.000110267)
(1.43172e-08 -3.75865e-09 -0.000110123)
(-5.89391e-09 -6.23229e-11 -0.000110176)
(1.22144e-10 -8.01449e-09 -0.000110276)
(5.625e-09 -2.92184e-09 -0.00011027)
(-2.8595e-09 -2.23881e-09 -0.000110195)
(1.36412e-08 -2.39193e-09 -0.000110112)
(-1.6434e-08 2.88451e-09 -0.000110132)
(4.40269e-09 -1.0762e-08 -0.00011021)
(-4.02628e-09 -9.12591e-09 -0.000103581)
(-4.31543e-08 -1.04407e-08 -0.000103738)
(-2.20083e-09 -1.19001e-08 -0.000110346)
(-5.76717e-09 1.05917e-10 -0.000103811)
(2.03141e-09 -1.10299e-08 -0.000103811)
(4.81524e-09 7.65328e-10 -0.000103756)
(-1.17349e-08 1.95532e-09 -0.000110155)
(-1.04917e-08 8.77613e-10 -0.000103593)
(9.27902e-09 4.17948e-09 -0.000103578)
(7.20535e-09 -4.32658e-09 -0.000110264)
(1.36339e-08 -2.38004e-09 -0.00011012)
(9.02053e-09 -8.24746e-09 -0.000104223)
(2.05653e-10 -3.60508e-09 -0.00010419)
(1.01186e-08 -2.87439e-09 -0.000104094)
(-5.02585e-09 2.61965e-10 -0.00010411)
(5.33183e-09 -2.62942e-09 -0.000109231)
(1.38995e-08 -8.7412e-09 -0.000109191)
(-6.09946e-12 -3.94418e-09 -0.000104204)
(9.15058e-09 -7.49221e-09 -0.000104209)
(-1.64727e-09 -2.73217e-09 -0.000104128)
(1.31772e-08 -4.61795e-09 -0.000104085)
(2.15619e-08 -5.42575e-09 -0.000105369)
(-5.8258e-10 4.56115e-09 -0.000106854)
(7.35708e-09 -2.30288e-09 -0.000106789)
(7.78076e-09 3.93176e-09 -0.000105437)
(2.86016e-08 -5.23752e-10 -0.000110203)
(3.62525e-08 -8.26237e-09 -0.000103663)
(2.75144e-08 -1.13425e-08 -0.000110144)
(5.97735e-09 -5.99167e-09 -0.000103609)
(-4.22376e-08 -1.78835e-08 -0.000110185)
(-2.13572e-08 -1.45512e-08 -0.000110167)
(6.85914e-09 -1.56625e-08 -0.000110266)
(7.54737e-09 1.07644e-09 -0.000103723)
(-1.48866e-09 -9.65736e-09 -0.000110295)
(1.16285e-08 -9.66915e-09 -0.000104193)
(-1.63749e-09 -4.85964e-09 -0.000104208)
(1.16839e-08 -8.14278e-10 -0.000104079)
(-5.74518e-09 -2.52496e-09 -0.00010414)
(2.02852e-09 -6.72009e-09 -0.000110256)
(5.61541e-09 -5.25691e-09 -0.000110287)
(-8.32016e-09 1.72506e-09 -0.000110159)
(1.4098e-08 -3.61608e-09 -0.000110115)
(-1.32468e-09 -5.66962e-09 -0.000104222)
(1.00106e-08 -7.91286e-09 -0.000104188)
(-9.52465e-10 -5.16415e-09 -0.000104147)
(1.43381e-08 -3.65654e-09 -0.000104072)
(2.77738e-09 -9.69587e-09 -0.000109237)
(-3.87455e-09 -1.3915e-09 -0.000109217)
(9.68255e-09 -7.77619e-09 -0.000104196)
(-3.17224e-10 -5.12326e-09 -0.000104209)
(1.39611e-08 -3.85584e-09 -0.000104077)
(2.44379e-10 -4.4466e-09 -0.000104134)
(5.38318e-09 -2.60186e-09 -0.00011026)
(5.31517e-10 -6.84273e-09 -0.00011027)
(1.49401e-08 -3.08154e-09 -0.000110109)
(-4.44907e-09 -1.52583e-09 -0.000110184)
(2.82071e-08 -1.01702e-08 -0.000110173)
(8.13905e-09 -7.25933e-09 -0.000110153)
(2.26044e-09 1.8311e-09 -0.000110198)
(-1.96481e-08 -4.89532e-09 -0.000105395)
(2.84506e-09 4.80288e-09 -0.000106864)
(-3.1144e-09 -2.24456e-09 -0.0001068)
(-4.49327e-09 5.16887e-09 -0.000105464)
(-4.77164e-08 -1.17293e-08 -0.00010369)
(-1.82222e-08 -1.03339e-08 -0.00010363)
(-1.17217e-09 -1.08843e-08 -0.000104253)
(-1.01354e-08 -3.2425e-09 -0.00010428)
(-2.16269e-09 -1.0847e-08 -0.000104305)
(-9.46432e-09 -1.58728e-08 -0.000109277)
(-2.21213e-09 2.90233e-09 -0.000109261)
(-6.26188e-09 -3.06193e-09 -0.000110349)
(-4.5614e-09 -1.65874e-08 -0.00011039)
(3.32561e-09 -5.98592e-09 -0.000103833)
(6.12131e-09 8.42288e-09 -0.000105636)
(4.30667e-09 7.88456e-09 -0.000107063)
(-6.49362e-09 -5.22916e-10 -0.000103836)
(2.20417e-09 -9.6905e-09 -0.000103844)
(4.34468e-09 -4.49044e-10 -0.000105608)
(4.19415e-09 2.25133e-09 -0.000107049)
(-9.37582e-09 1.37229e-08 -0.000110324)
(-4.31562e-09 -5.35546e-09 -0.000103776)
(5.11022e-09 8.20201e-10 -0.000103781)
(-7.28595e-09 -1.34852e-09 -0.000104135)
(3.2883e-09 -8.50295e-10 -0.000104214)
(7.55246e-09 -2.34798e-09 -0.000110234)
(6.83712e-09 -2.59965e-09 -0.0001037)
(1.00676e-08 -7.39841e-09 -0.000110215)
(-9.26202e-09 -3.18617e-09 -0.00010369)
(-8.54591e-10 -8.43645e-09 -0.00011026)
(7.02279e-09 -3.1724e-09 -0.000110295)
(-8.6771e-09 -6.87858e-10 -0.000110191)
(1.40796e-08 -2.54139e-09 -0.000103534)
(-8.15422e-09 -3.0289e-09 -0.000110097)
(2.64336e-09 -6.1019e-09 -0.000103592)
(4.80454e-10 2.27844e-09 -0.000110151)
(-1.22937e-08 1.34756e-09 -0.00010354)
(1.62221e-08 -3.53296e-09 -0.000103528)
(1.83987e-08 8.13318e-09 -0.000110167)
(-1.50874e-08 -6.91703e-09 -0.000110091)
(-1.59074e-09 1.41281e-09 -0.000103765)
(8.2187e-10 -3.67653e-09 -0.00010358)
(1.58614e-09 2.37901e-09 -0.000110359)
(1.03315e-09 4.56679e-09 -0.000110153)
(-2.24446e-08 5.0899e-09 -0.000103576)
(8.91652e-09 -1.02448e-09 -0.000103568)
(2.57592e-08 1.15694e-08 -0.000110178)
(-5.52388e-09 -1.16691e-09 -0.000110106)
(-3.50576e-09 6.34058e-09 -0.000103791)
(2.6414e-10 -5.30583e-11 -0.000103606)
(9.12238e-10 1.76496e-10 -0.000110399)
(6.84816e-11 1.88142e-09 -0.000110199)
(-1.7499e-08 3.51108e-09 -0.000103601)
(1.57121e-08 -3.57146e-09 -0.000103591)
(1.97303e-08 9.04973e-09 -0.000110195)
(-2.03962e-08 -8.93763e-09 -0.000110128)
(-2.248e-09 3.88901e-09 -0.000103787)
(7.26592e-10 -8.61289e-10 -0.000103598)
(-8.6791e-10 -3.18792e-09 -0.00011043)
(-7.0673e-10 2.50106e-10 -0.000110227)
(-1.61668e-08 3.32725e-09 -0.00010362)
(1.31452e-08 -1.98909e-09 -0.0001036)
(1.66957e-08 7.21438e-09 -0.000110198)
(-1.59722e-08 -6.07788e-09 -0.000110118)
(-1.72674e-09 3.42273e-09 -0.000103793)
(1.99433e-09 -3.64349e-09 -0.000103615)
(2.87162e-09 4.56484e-09 -0.000110436)
(2.4497e-09 7.67793e-09 -0.000110223)
(-1.86532e-08 4.15835e-09 -0.000103618)
(1.49357e-08 -2.26284e-09 -0.000103599)
(1.33156e-08 6.02841e-09 -0.000110201)
(-2.13099e-08 -1.0372e-08 -0.000110128)
(-9.2059e-10 1.43546e-09 -0.000103817)
(1.87801e-09 -4.64801e-09 -0.000103638)
(6.77571e-09 1.09605e-08 -0.000110445)
(3.93246e-09 8.99848e-09 -0.000110238)
(-1.60176e-08 3.45111e-09 -0.000103611)
(1.64398e-08 -2.7038e-09 -0.000103586)
(2.16117e-08 9.48802e-09 -0.000110213)
(-7.38107e-09 -1.74346e-09 -0.000110145)
(6.89257e-10 -2.37042e-09 -0.000103833)
(4.22633e-09 -8.68788e-09 -0.000103645)
(1.4758e-10 3.10168e-11 -0.000110439)
(-1.25208e-09 7.04114e-10 -0.00011022)
(-1.69642e-08 3.70825e-09 -0.000103587)
(1.44257e-08 -2.09972e-09 -0.00010356)
(2.40157e-08 1.17299e-08 -0.000110223)
(-1.27482e-08 -5.1638e-09 -0.000110144)
(-4.78453e-10 9.66762e-10 -0.000103821)
(2.6124e-09 -5.02113e-09 -0.000103627)
(-1.83033e-09 -5.86725e-09 -0.00011044)
(-2.82945e-09 -3.75913e-09 -0.000110227)
(-1.41131e-08 2.08753e-09 -0.000103578)
(1.53339e-08 -3.44359e-09 -0.000103568)
(1.5477e-08 6.32584e-09 -0.000110209)
(-1.27867e-08 -4.94978e-09 -0.000110137)
(-2.81847e-10 -3.60592e-10 -0.000103802)
(1.29223e-09 -4.05261e-09 -0.000103619)
(2.03431e-10 2.38265e-11 -0.000110427)
(-1.78912e-10 1.10022e-09 -0.000110223)
(-1.74433e-08 2.03146e-09 -0.00010359)
(1.46642e-08 -3.76433e-09 -0.000103573)
(1.96589e-08 8.37426e-09 -0.000110211)
(-1.51845e-08 -7.21083e-09 -0.00011014)
(-2.32066e-09 3.79132e-09 -0.000103818)
(1.15179e-09 -2.24095e-09 -0.000103643)
(2.44935e-09 2.85137e-09 -0.000110451)
(1.77041e-09 5.50799e-09 -0.000110242)
(-1.58722e-08 2.56675e-09 -0.000103598)
(1.97585e-08 -5.10952e-09 -0.000103583)
(2.42355e-08 1.09087e-08 -0.000110207)
(-9.78088e-09 -3.96422e-09 -0.00011013)
(-1.31665e-09 2.1748e-09 -0.000103842)
(1.68736e-09 -3.40934e-09 -0.000103663)
(-2.12993e-10 -1.82447e-09 -0.000110455)
(-3.40721e-09 -4.02262e-09 -0.000110236)
(-1.00753e-08 7.63959e-10 -0.000103621)
(1.75651e-08 -3.91202e-09 -0.000103614)
(1.78822e-08 7.80685e-09 -0.000110215)
(-1.76933e-08 -8.4438e-09 -0.000110139)
(9.31706e-10 -4.92848e-09 -0.000103848)
(3.78933e-09 -8.83679e-09 -0.000103673)
(-3.41199e-09 -6.51984e-09 -0.00011044)
(-3.00182e-09 -2.90659e-09 -0.000110233)
(-2.23897e-08 5.13245e-09 -0.000103628)
(7.87787e-09 -2.74634e-10 -0.000103604)
(1.70811e-08 7.0161e-09 -0.000110205)
(-9.48001e-09 -3.45564e-09 -0.000110116)
(-3.68427e-09 7.29484e-09 -0.000103848)
(-1.36244e-09 4.26387e-09 -0.000103665)
(8.63341e-10 3.32214e-10 -0.000110452)
(-3.55711e-10 1.70736e-09 -0.000110248)
(-1.30985e-08 2.24167e-09 -0.00010361)
(1.70212e-08 -3.53281e-09 -0.000103596)
(1.95518e-08 9.23021e-09 -0.000110194)
(-1.83072e-08 -8.40928e-09 -0.000110136)
(-5.77656e-09 1.30125e-08 -0.000103831)
(-1.19233e-09 4.79241e-09 -0.000103657)
(-1.0734e-11 -1.08234e-09 -0.000110452)
(-1.46587e-09 -3.83277e-10 -0.000110249)
(-1.42096e-08 1.32984e-09 -0.000103596)
(1.71525e-08 -4.16638e-09 -0.000103597)
(2.11752e-08 8.65809e-09 -0.000110205)
(-1.043e-08 -3.73665e-09 -0.000110161)
(-9.66931e-11 -3.35183e-09 -0.000103814)
(3.7053e-09 -7.37752e-09 -0.000103657)
(-1.60042e-09 -2.32856e-09 -0.000110423)
(-2.41229e-09 -2.39936e-09 -0.000110236)
(-1.29772e-08 5.67697e-10 -0.0001036)
(1.56856e-08 -2.55385e-09 -0.000103642)
(1.4456e-08 5.15354e-09 -0.000110223)
(-1.85441e-08 -8.36793e-09 -0.000110202)
(2.26972e-09 -1.13433e-08 -0.000103789)
(5.97882e-09 -1.25266e-08 -0.00010368)
(-1.50444e-10 1.16911e-09 -0.000110385)
(3.4106e-10 1.44767e-09 -0.000110249)
(-1.48305e-08 1.00803e-09 -0.000103593)
(1.12207e-08 1.01535e-09 -0.000103688)
(1.32681e-08 3.61186e-09 -0.000110191)
(-2.08058e-08 -7.16306e-09 -0.00011022)
(-4.94426e-10 -7.03455e-09 -0.000103743)
(5.05005e-09 -3.08789e-09 -0.000103724)
(-8.00841e-10 2.30187e-09 -0.000110336)
(-8.48306e-10 -5.43114e-09 -0.0001103)
(1.80361e-08 -7.33014e-09 -0.000110051)
(2.5793e-09 -6.56433e-09 -0.000110094)
(1.90857e-08 -9.22662e-09 -0.000110039)
(-1.53326e-08 6.53579e-09 -0.000110123)
(2.45132e-09 -6.93788e-09 -0.000110082)
(1.59632e-09 -1.92769e-09 -0.000110298)
(-7.45419e-09 1.30862e-09 -0.000103594)
(1.80119e-08 -4.4499e-09 -0.000103522)
(-1.58271e-08 2.99331e-09 -0.000103552)
(-1.4056e-08 -2.43182e-09 -0.000103586)
(2.18516e-08 4.94679e-09 -0.000103615)
(-1.59511e-09 -3.28411e-09 -0.000110115)
(-1.71761e-08 -8.16566e-09 -0.000110094)
(2.22972e-08 1.1029e-08 -0.000110183)
(-3.39532e-09 -9.00049e-09 -0.0001101)
(-5.09603e-10 -5.51152e-10 -0.000110305)
(1.5922e-09 2.37953e-09 -0.000103651)
(1.64223e-09 -4.89171e-09 -0.00010358)
(-9.24232e-11 -1.23361e-09 -0.000103775)
(1.92835e-09 5.03091e-09 -0.000103648)
(-1.03286e-09 -2.88564e-09 -0.000103837)
(-1.44177e-10 -1.3165e-09 -0.000103628)
(-1.24454e-09 1.90036e-09 -0.000103586)
(-1.87695e-09 -6.76775e-09 -0.000103619)
(1.22241e-09 2.34956e-09 -0.000103808)
(-2.36116e-09 5.36848e-09 -0.000103589)
(1.55878e-09 -3.0628e-09 -0.000103774)
(1.7377e-08 8.99946e-09 -0.000110096)
(1.09882e-09 5.0119e-09 -0.000110153)
(-3.15372e-09 -7.13023e-09 -0.000110354)
(1.92094e-08 9.51301e-09 -0.000110081)
(-1.90984e-08 -8.74393e-09 -0.000110173)
(1.9312e-08 4.18779e-09 -0.000103564)
(-1.66849e-08 3.80756e-09 -0.000103529)
(2.3371e-08 6.17766e-09 -0.000103551)
(-1.05127e-08 -2.0338e-10 -0.000103578)
(-1.6061e-08 3.13814e-09 -0.000103525)
(1.55685e-08 -2.39019e-09 -0.000103546)
(-4.5352e-10 3.191e-09 -0.000110057)
(-1.77857e-08 8.62551e-09 -0.000110009)
(-2.73306e-09 7.53035e-09 -0.000110063)
(6.74412e-10 -3.05039e-09 -0.000110267)
(-1.96436e-08 9.12821e-09 -0.000110007)
(1.69406e-08 -7.32622e-09 -0.000110082)
(-1.27562e-08 5.03917e-09 -0.000110112)
(1.67631e-08 -7.69465e-09 -0.000110045)
(5.64437e-10 4.05474e-11 -0.000110286)
(1.08617e-09 -4.7308e-09 -0.000110082)
(5.59513e-09 -1.73977e-09 -0.000110071)
(-2.09442e-08 9.34089e-09 -0.000110125)
(-5.51781e-10 -1.23077e-09 -0.000110102)
(-4.85992e-11 8.19513e-10 -0.000110294)
(1.78896e-08 3.44727e-09 -0.0001036)
(-1.29197e-08 -2.00743e-09 -0.000103581)
(9.8866e-09 -6.69382e-10 -0.000103551)
(-1.82038e-08 3.78272e-09 -0.000103551)
(-1.43638e-08 -3.29679e-09 -0.000103597)
(1.98419e-08 3.98994e-09 -0.000103602)
(-1.12509e-09 -1.33751e-09 -0.000110303)
(-2.79283e-09 -6.67975e-09 -0.000110111)
(-1.25993e-08 -5.77665e-09 -0.000110105)
(2.28826e-08 1.05829e-08 -0.00011017)
(-3.265e-09 -7.9112e-09 -0.000110129)
(-1.81263e-10 1.6214e-09 -0.00011032)
(-8.79279e-10 -5.42346e-12 -0.000103831)
(2.07549e-09 6.40501e-09 -0.000103647)
(2.87547e-10 -1.7894e-10 -0.000103599)
(-1.68464e-09 1.38331e-09 -0.000103771)
(1.48552e-09 3.68871e-09 -0.00010368)
(-9.00538e-10 -6.31613e-10 -0.00010384)
(-6.97548e-12 -1.87062e-09 -0.000103802)
(-3.57544e-09 -8.50636e-09 -0.000103627)
(9.09117e-10 -2.28835e-10 -0.000103774)
(-2.77086e-10 1.43959e-09 -0.000103589)
(-2.50717e-09 -5.38607e-09 -0.000103643)
(-3.4977e-10 -1.78744e-09 -0.000103816)
(-1.3168e-09 3.72466e-09 -0.000103608)
(2.74868e-09 -5.32721e-09 -0.00010378)
(-1.30266e-08 -5.33111e-09 -0.000110156)
(1.10965e-08 4.88797e-09 -0.000110096)
(8.23088e-10 3.72287e-09 -0.000110187)
(-1.91948e-09 -4.7664e-09 -0.000110363)
(7.37192e-09 3.02827e-09 -0.00011012)
(-2.90504e-08 -1.39223e-08 -0.00011018)
(-1.09039e-08 -6.63228e-10 -0.00010357)
(1.75131e-08 4.28357e-09 -0.00010356)
(1.67614e-08 -2.61212e-09 -0.000103542)
(-2.02799e-08 5.26662e-09 -0.000103516)
(1.38489e-08 3.0624e-09 -0.000103581)
(-1.54087e-08 -2.2087e-09 -0.000103584)
(-2.27777e-08 6.02426e-09 -0.000103521)
(1.00964e-08 -1.1845e-10 -0.000103534)
(-1.12157e-09 1.25228e-09 -0.00011027)
(-1.20858e-09 5.01779e-09 -0.000110067)
(1.39894e-08 -5.87534e-09 -0.000110081)
(-2.49928e-08 1.21374e-08 -0.000110004)
(-1.24666e-09 5.13791e-09 -0.000110082)
(6.03406e-10 -2.38759e-09 -0.000110277)
(-2.16674e-08 1.06961e-08 -0.000110011)
(9.15802e-09 -3.15761e-09 -0.000110077)
(-2.8716e-08 1.37124e-08 -0.000110151)
(6.85111e-09 -2.45695e-09 -0.000110087)
(-2.97842e-09 7.08713e-09 -0.000110315)
(-1.923e-09 1.79916e-09 -0.00011011)
(1.08376e-08 -4.42259e-09 -0.000110096)
(-2.62226e-08 1.21061e-08 -0.000110163)
(-2.22432e-09 1.97709e-09 -0.000110109)
(-2.86895e-09 6.73604e-09 -0.000110317)
(1.75161e-08 2.79372e-09 -0.000103615)
(-9.00873e-09 -9.13068e-10 -0.000103603)
(1.43513e-08 -2.29222e-09 -0.000103581)
(-2.17601e-08 4.62626e-09 -0.000103589)
(-1.58579e-08 -3.17266e-09 -0.00010362)
(2.01383e-08 4.21438e-09 -0.00010363)
(-4.26549e-10 8.85587e-10 -0.00011034)
(1.23103e-09 -6.64616e-10 -0.000110149)
(-1.56987e-08 -6.81304e-09 -0.000110119)
(2.66583e-08 1.26052e-08 -0.000110193)
(2.83954e-10 -1.50549e-09 -0.000110158)
(1.54295e-09 4.68426e-09 -0.000110349)
(-1.51322e-09 -1.49903e-09 -0.00010387)
(1.56093e-09 2.93888e-09 -0.000103694)
(8.95659e-10 -1.75509e-09 -0.000103603)
(-2.77105e-09 4.70703e-09 -0.000103791)
(1.33468e-10 -2.23481e-10 -0.000103708)
(-1.9879e-09 -4.05695e-09 -0.000103884)
(1.04569e-10 -2.93777e-10 -0.000103832)
(-2.90102e-10 -1.68125e-10 -0.000103658)
(1.80604e-10 1.4031e-09 -0.000103799)
(-3.67047e-09 8.15151e-09 -0.000103624)
(-4.25734e-10 -8.56216e-10 -0.000103664)
(1.87925e-09 3.75334e-09 -0.000103842)
(-3.36484e-09 6.63551e-09 -0.000103635)
(-7.05048e-10 2.00778e-09 -0.000103815)
(-2.42313e-08 -1.06929e-08 -0.000110198)
(8.68985e-09 2.81622e-09 -0.000110147)
(-6.31541e-10 1.09718e-09 -0.00011022)
(-3.05019e-09 -7.48545e-09 -0.000110407)
(1.50489e-08 5.83409e-09 -0.000110151)
(-2.613e-08 -1.33289e-08 -0.000110229)
(-2.16839e-08 -4.33306e-09 -0.000103605)
(5.73237e-09 -9.18536e-10 -0.000103602)
(1.09821e-08 -4.5199e-10 -0.000103542)
(-2.03708e-08 4.82128e-09 -0.000103533)
(1.08093e-08 4.50691e-10 -0.000103611)
(-2.60024e-08 -7.3429e-09 -0.000103625)
(-1.50736e-08 2.45512e-09 -0.000103553)
(1.30045e-08 -1.70832e-09 -0.000103555)
(-1.06849e-09 3.58408e-10 -0.000110295)
(-2.89167e-09 6.34709e-09 -0.0001101)
(1.4078e-08 -6.00401e-09 -0.000110089)
(-1.71558e-08 7.78646e-09 -0.000110027)
(-3.21784e-09 6.99248e-09 -0.000110108)
(-1.69864e-09 2.80705e-10 -0.00011031)
(-1.29516e-08 4.98009e-09 -0.000110047)
(1.9733e-08 -9.23461e-09 -0.000110105)
(-2.26849e-08 1.0432e-08 -0.000110171)
(1.21886e-08 -5.46218e-09 -0.000110102)
(-3.33385e-09 7.75426e-09 -0.000110315)
(-1.00971e-09 -8.57212e-11 -0.000110104)
(1.6848e-08 -7.6029e-09 -0.000110111)
(-1.94997e-08 8.6238e-09 -0.000110179)
(9.17617e-10 -3.82243e-09 -0.000110112)
(-1.69184e-09 4.65729e-09 -0.000110312)
(1.68922e-08 3.17125e-09 -0.00010364)
(-1.58021e-08 -2.4564e-09 -0.000103631)
(1.57361e-08 -2.97326e-09 -0.000103602)
(-1.54096e-08 2.33957e-09 -0.000103612)
(-1.79957e-08 -3.78503e-09 -0.00010363)
(1.57637e-08 3.24422e-09 -0.000103652)
(1.99563e-09 5.29579e-09 -0.000110363)
(-1.5129e-09 -4.07339e-09 -0.000110167)
(-2.11459e-08 -1.02324e-08 -0.000110128)
(1.46775e-08 6.99994e-09 -0.000110208)
(-2.90899e-09 -6.41748e-09 -0.000110183)
(2.13097e-10 2.82194e-09 -0.000110375)
(-2.64091e-09 -5.23765e-09 -0.000103896)
(2.70199e-09 5.62761e-09 -0.000103717)
(1.44708e-09 -2.92882e-09 -0.000103604)
(-1.9198e-09 3.83467e-09 -0.000103785)
(3.17028e-09 7.80278e-09 -0.000103725)
(2.57464e-10 9.87882e-10 -0.000103906)
(1.95214e-09 4.63939e-09 -0.00010385)
(-1.79973e-09 -3.16553e-09 -0.000103673)
(-9.28978e-10 1.41599e-09 -0.000103825)
(-3.03494e-09 5.73516e-09 -0.000103645)
(-1.80051e-09 -3.41205e-09 -0.000103686)
(8.49412e-10 1.77422e-09 -0.00010386)
(-2.02669e-09 4.51197e-09 -0.000103654)
(4.71416e-10 -4.39385e-10 -0.000103833)
(-1.74459e-08 -8.11393e-09 -0.000110221)
(9.50588e-09 3.79659e-09 -0.000110145)
(2.80884e-09 7.52462e-09 -0.000110232)
(-2.31799e-09 -6.71381e-09 -0.000110432)
(1.34555e-08 5.83587e-09 -0.000110142)
(-2.808e-08 -1.35888e-08 -0.000110223)
(-2.03715e-08 -4.86402e-09 -0.000103626)
(1.2779e-08 1.58954e-09 -0.000103606)
(2.07837e-08 -4.98014e-09 -0.000103576)
(-1.24637e-08 1.29196e-09 -0.00010357)
(1.37365e-08 2.27092e-09 -0.000103605)
(-1.99516e-08 -4.45526e-09 -0.000103624)
(-1.37104e-08 2.39901e-09 -0.000103576)
(1.86172e-08 -3.87936e-09 -0.000103589)
(-1.88182e-09 7.6696e-10 -0.000110318)
(-3.39196e-09 7.42873e-09 -0.000110118)
(2.28607e-08 -1.11204e-08 -0.000110126)
(-1.31968e-08 5.25821e-09 -0.000110063)
(-3.57747e-09 8.72425e-09 -0.000110122)
(-2.18591e-09 1.9155e-09 -0.000110325)
(-1.38987e-08 6.31041e-09 -0.000110064)
(2.12697e-08 -1.00251e-08 -0.000110138)
(-1.65439e-08 7.53217e-09 -0.000110186)
(1.47571e-08 -6.38449e-09 -0.000110113)
(-1.82945e-10 2.49387e-09 -0.000110322)
(1.61409e-09 -4.32669e-09 -0.000110124)
(1.53189e-08 -6.42055e-09 -0.000110117)
(-1.82282e-08 8.40538e-09 -0.000110187)
(2.26693e-09 -5.67705e-09 -0.00011014)
(9.61502e-10 4.04757e-10 -0.000110334)
(1.47306e-08 2.11918e-09 -0.000103644)
(-1.17302e-08 -1.06529e-09 -0.000103621)
(1.20638e-08 -1.46077e-09 -0.0001036)
(-1.85616e-08 3.9834e-09 -0.000103617)
(-2.12246e-08 -4.44006e-09 -0.000103627)
(1.75486e-08 3.6218e-09 -0.000103644)
(2.38899e-11 3.05151e-09 -0.000110394)
(1.88725e-09 8.64615e-10 -0.000110197)
(-2.19705e-08 -9.81333e-09 -0.000110126)
(1.60242e-08 7.6768e-09 -0.000110205)
(-7.46885e-10 -2.63703e-09 -0.0001102)
(8.19564e-10 3.26102e-09 -0.000110394)
(-8.70928e-11 2.08894e-09 -0.000103909)
(3.87351e-09 9.60371e-09 -0.000103725)
(2.32364e-09 -4.62343e-09 -0.000103629)
(-6.12286e-10 9.84846e-10 -0.000103803)
(5.612e-09 1.34975e-08 -0.000103737)
(7.97792e-10 4.09918e-09 -0.000103911)
(-7.91344e-11 8.88307e-10 -0.000103877)
(-4.06813e-10 -4.62329e-10 -0.0001037)
(2.98732e-10 8.78428e-10 -0.000103844)
(-3.04022e-09 6.48309e-09 -0.000103665)
(-9.56812e-10 -1.65799e-09 -0.000103704)
(1.67421e-09 2.70098e-09 -0.00010388)
(-1.97016e-09 3.94086e-09 -0.000103665)
(3.91392e-10 -8.16479e-11 -0.000103852)
(-1.68373e-08 -7.53057e-09 -0.000110216)
(1.12713e-08 4.65166e-09 -0.000110148)
(6.07532e-09 1.33812e-08 -0.000110237)
(3.66162e-11 -8.90229e-10 -0.000110426)
(3.98757e-09 5.70391e-10 -0.00011014)
(-2.80763e-08 -1.35327e-08 -0.000110226)
(-1.91873e-08 -4.43417e-09 -0.000103625)
(9.89783e-09 8.44805e-10 -0.000103609)
(2.10786e-08 -4.86577e-09 -0.000103596)
(-1.42441e-08 2.43873e-09 -0.000103581)
(2.2517e-09 -2.1412e-09 -0.000103606)
(-2.44165e-08 -6.18472e-09 -0.000103627)
(-1.79788e-08 3.56233e-09 -0.000103592)
(1.6581e-08 -2.77396e-09 -0.0001036)
(-2.36212e-09 2.68869e-09 -0.000110332)
(-1.67316e-09 4.63006e-09 -0.000110133)
(2.13956e-08 -9.93198e-09 -0.00011014)
(-1.52446e-08 6.60277e-09 -0.000110068)
(-6.2033e-10 2.84414e-09 -0.000110135)
(4.11785e-10 -2.9078e-09 -0.00011034)
(-1.77883e-08 8.18004e-09 -0.000110075)
(1.81803e-08 -8.15517e-09 -0.000110142)
(-1.77038e-08 8.1571e-09 -0.000110189)
(1.68033e-08 -7.54009e-09 -0.000110111)
(1.40982e-09 -6.93458e-10 -0.000110349)
(2.82427e-09 -6.84072e-09 -0.000110146)
(2.02505e-08 -9.24146e-09 -0.000110111)
(-1.73879e-08 7.78888e-09 -0.000110187)
(1.14895e-09 -3.51659e-09 -0.000110152)
(5.22421e-10 3.51995e-10 -0.000110355)
(1.00067e-08 1.163e-09 -0.000103645)
(-2.36756e-08 -5.87298e-09 -0.000103627)
(1.52782e-08 -2.67356e-09 -0.000103594)
(-1.69316e-08 3.21258e-09 -0.000103616)
(-1.99227e-08 -4.57672e-09 -0.000103637)
(8.93431e-09 -5.84139e-11 -0.000103646)
(2.45845e-09 6.29006e-09 -0.000110406)
(2.42584e-09 2.52524e-09 -0.000110207)
(-1.71916e-08 -7.62545e-09 -0.00011014)
(1.62721e-08 7.2982e-09 -0.000110206)
(6.29787e-10 -5.0413e-10 -0.000110206)
(3.96066e-09 9.16518e-09 -0.000110411)
(3.07454e-09 8.63521e-09 -0.000103924)
(4.14588e-09 9.56285e-09 -0.000103743)
(2.66994e-09 -6.42927e-09 -0.000103646)
(-4.31496e-10 -3.44265e-10 -0.000103826)
(-5.67272e-11 1.19293e-10 -0.000103745)
(-2.01384e-10 6.79836e-10 -0.000103928)
(2.23281e-09 5.6727e-09 -0.000103891)
(8.18099e-10 2.88359e-09 -0.000103713)
(6.13411e-10 -1.07895e-09 -0.000103854)
(-2.88107e-09 4.70194e-09 -0.000103675)
(1.30685e-09 2.97648e-09 -0.000103709)
(3.77791e-09 7.98379e-09 -0.000103895)
(-1.13478e-09 2.39692e-09 -0.000103668)
(7.67196e-10 -8.7081e-10 -0.000103861)
(-2.80475e-08 -1.39385e-08 -0.000110212)
(2.94336e-09 -7.81463e-12 -0.000110138)
(9.58338e-11 3.42387e-09 -0.000110236)
(-7.20647e-10 -2.63307e-09 -0.000110439)
(1.13516e-08 5.03519e-09 -0.000110121)
(-3.27278e-08 -1.63172e-08 -0.000110214)
(-3.09207e-08 -9.14132e-09 -0.000103625)
(7.52499e-09 -5.31017e-10 -0.000103611)
(1.52371e-08 -2.68845e-09 -0.000103612)
(-1.70461e-08 2.76182e-09 -0.000103604)
(1.52671e-08 3.35367e-09 -0.000103603)
(-2.30332e-08 -5.71384e-09 -0.000103628)
(-1.64261e-08 3.1931e-09 -0.000103609)
(1.62511e-08 -3.3947e-09 -0.000103625)
(8.68195e-10 -3.6077e-09 -0.000110345)
(2.125e-10 6.58465e-10 -0.000110149)
(1.76674e-08 -7.99005e-09 -0.000110153)
(-1.66169e-08 6.98382e-09 -0.000110091)
(1.03203e-10 1.71046e-09 -0.000110143)
(1.5985e-09 -5.21306e-09 -0.000110356)
(-1.2603e-08 5.05394e-09 -0.000110095)
(1.92582e-08 -9.14023e-09 -0.000110168)
(-1.23603e-08 5.29505e-09 -0.000110184)