/*--------------------------------*- C++ -*----------------------------------*\
| =========                 |                                                 |
| \\      /  F ield         | OpenFOAM: The Open Source CFD Toolbox           |
|  \\    /   O peration     | Version:  2206                                  |
|   \\  /    A nd           | Website:  www.openfoam.com                      |
|    \\/     M anipulation  |                                                 |
\*---------------------------------------------------------------------------*/
FoamFile
{
    version     2.0;
    format      ascii;
    arch        "LSB;label=32;scalar=64";
    class       volVectorField;
    location    "0.4";
    object      U;
}
// * * * * * * * * * * * * * * * * * * * * * * * * * * * * * * * * * * * * * //

dimensions      [0 1 -1 0 0 0 0];

internalField   nonuniform List<vector> 
66616
(
(0.00292579 0.00152092 0.125814)
(-0.00572114 0.00625472 0.106795)
(0.00369641 -0.0291707 0.127321)
(-0.00285765 -0.00670891 0.0839599)
(2.83223e-05 -0.000614234 0.136851)
(0.000605947 -0.000297241 0.128673)
(0.000391641 -0.000443559 0.13202)
(-0.00338534 -0.00503052 0.109083)
(-0.000213905 -0.000411548 0.134877)
(0.000403662 -0.000471667 0.13074)
(-0.000298225 0.000289573 0.131237)
(0.000543593 0.000275366 0.127163)
(-5.4367e-05 -8.0915e-05 0.134282)
(0.000120441 -6.39031e-05 0.130763)
(-4.43221e-05 0.000107236 0.130977)
(-7.50468e-05 -0.000100156 0.128)
(-5.28612e-05 -5.42833e-05 0.13396)
(8.24502e-05 -4.57893e-05 0.130569)
(-4.32939e-05 8.08956e-05 0.130745)
(-0.000102902 -0.00010484 0.127793)
(-5.05034e-05 -4.89334e-05 0.133705)
(7.13692e-05 -4.61291e-05 0.130378)
(-4.46871e-05 7.24833e-05 0.130549)
(-0.000112012 -0.000111586 0.127606)
(-5.14748e-05 -4.93949e-05 0.133472)
(6.90363e-05 -4.87528e-05 0.130228)
(-4.87593e-05 7.13061e-05 0.130395)
(-0.000117437 -0.000117363 0.127502)
(-5.6276e-05 -5.38327e-05 0.133236)
(7.2818e-05 -5.43426e-05 0.130115)
(-5.32773e-05 7.58448e-05 0.130275)
(-0.000122712 -0.000123073 0.127474)
(-5.63684e-05 -5.38681e-05 0.132995)
(6.95632e-05 -4.98216e-05 0.13006)
(-5.03969e-05 7.58922e-05 0.130206)
(-0.000138411 -0.000138234 0.127533)
(-2.68805e-05 -2.63365e-05 0.132821)
(2.68338e-05 -2.33503e-05 0.1301)
(-2.64734e-05 3.33444e-05 0.130228)
(-0.000175112 -0.00017673 0.127683)
(5.2317e-06 6.00663e-06 0.132819)
(-1.38181e-05 4.01719e-07 0.130208)
(4.84963e-06 -2.16519e-05 0.130305)
(-0.000207959 -0.000208558 0.127819)
(9.3286e-06 1.50751e-05 0.132895)
(-1.58769e-05 8.02118e-06 0.130288)
(8.66514e-06 -2.79107e-05 0.130332)
(-0.000207464 -0.000210165 0.12782)
(0.0100521 0.00691365 0.0954813)
(0.00723256 0.00341677 0.107477)
(-0.00801029 0.00201888 0.0971237)
(-0.00952132 0.00484739 0.0799924)
(0.00602921 0.00474082 0.107967)
(0.000223332 0.00247929 0.112097)
(0.00376244 0.00166953 0.120938)
(-0.00257027 0.00210099 0.117986)
(0.00025505 -0.00728742 0.116398)
(-4.51242e-05 -0.00252975 0.117382)
(-0.00625319 0.00507432 0.0946736)
(-0.00108501 -0.00453114 0.0982823)
(-0.0124165 0.0085347 0.100956)
(-0.0124788 -0.0185734 0.105185)
(-0.00125439 -0.00442822 0.0968713)
(-0.000918693 -0.0058959 0.0824298)
(0.00786431 0.00579547 0.100852)
(0.00285746 0.00333221 0.114165)
(0.00320891 0.00395943 0.114998)
(-0.00143694 0.00109015 0.110445)
(0.0021756 0.000883925 0.128046)
(-0.0022253 0.00118981 0.124727)
(-0.0110431 0.00692244 0.0835209)
(-0.00299247 0.00460676 0.109658)
(0.00516025 0.0016067 0.116798)
(0.000771155 -0.00112703 0.118032)
(0.000407525 0.0013029 0.128133)
(0.000708475 -0.00304374 0.128806)
(-0.000959344 -0.00265917 0.108642)
(-0.00012001 0.00152278 0.125899)
(-0.000735647 -0.00404353 0.122589)
(-0.00986628 0.00124801 0.105052)
(0.0030921 -0.00393397 0.117125)
(-0.000389223 -0.00487884 0.10828)
(0.00177861 -0.00207676 0.131612)
(-0.0021571 -0.00214207 0.123967)
(-0.00476034 -0.00677737 0.104768)
(0.00205949 0.00235339 0.116621)
(-0.000624686 -0.000882662 0.127277)
(0.000641921 -0.000123179 0.129751)
(-0.000667335 0.000162297 0.127489)
(-0.000404996 -0.000482685 0.131005)
(0.000666103 -0.000401134 0.130513)
(-0.00231506 0.00319521 0.113002)
(0.00080551 -0.000861806 0.126811)
(-0.000191383 -0.00024886 0.129938)
(7.18681e-06 -0.00107059 0.130409)
(-0.000298071 -0.000746042 0.130986)
(-0.000311959 0.00052418 0.130997)
(0.000159588 -0.00147522 0.126201)
(0.000586596 -0.000778621 0.130678)
(0.000560512 0.000577382 0.130236)
(0.00257676 -0.00309708 0.118785)
(-0.000728202 0.00071911 0.127375)
(-7.95851e-05 -0.000778924 0.127462)
(-0.000496805 0.000388932 0.131403)
(0.00095631 0.00030455 0.130687)
(0.00103023 0.000670717 0.126512)
(-0.000195259 -0.000400252 0.127704)
(-0.000214237 -0.000247183 0.127975)
(-0.000248261 -0.000340391 0.131041)
(0.000467449 -0.000293904 0.130761)
(-5.04673e-05 -0.000133972 0.131021)
(0.000120951 -0.000123733 0.13097)
(0.0003768 -0.000395727 0.12735)
(0.000255863 -0.000239136 0.127921)
(-0.000201914 -0.000461448 0.130958)
(-0.000215651 0.000355521 0.130952)
(-9.57315e-05 -9.46133e-05 0.130859)
(-9.88384e-05 8.78267e-05 0.130846)
(0.00040685 0.00039838 0.130523)
(0.000147433 -8.97397e-05 0.13079)
(0.000149858 8.70669e-05 0.130763)
(-0.000280834 0.000290681 0.127765)
(-0.000219168 0.000243432 0.127963)
(0.000628369 0.000247063 0.130856)
(-5.55055e-05 0.000125622 0.131031)
(0.00013124 0.000114805 0.130976)
(0.000261583 0.000231162 0.127906)
(0.000108503 8.70026e-05 0.128055)
(-0.000222528 -0.000226914 0.127739)
(-4.30299e-05 -0.000113201 0.130977)
(8.35188e-05 -0.000106756 0.130949)
(-4.51753e-05 -9.01404e-05 0.130808)
(5.44556e-05 -8.95487e-05 0.130806)
(-7.46455e-05 9.39808e-05 0.128013)
(0.000225287 -0.000226158 0.127734)
(-8.92834e-05 -6.80289e-05 0.130807)
(-9.0679e-05 6.64789e-05 0.130796)
(-8.20575e-05 -4.88597e-05 0.130632)
(-8.14927e-05 5.01926e-05 0.130623)
(0.000121004 6.32586e-05 0.130747)
(8.78857e-05 -4.59495e-05 0.130621)
(8.73498e-05 4.86587e-05 0.13061)
(0.000107163 -8.8989e-05 0.128042)
(-0.000219841 0.000226859 0.127725)
(8.67237e-05 9.9725e-05 0.130948)
(-4.28278e-05 8.51452e-05 0.130802)
(5.00631e-05 8.30465e-05 0.1308)
(0.000224083 0.000224604 0.127719)
(0.000102995 0.000102283 0.12781)
(-0.000224241 -0.00022591 0.127541)
(-4.60679e-05 -8.61434e-05 0.130752)
(5.04341e-05 -8.51717e-05 0.130752)
(-4.74246e-05 -7.90018e-05 0.130598)
(4.92925e-05 -7.9005e-05 0.130601)
(-0.000100534 0.000103588 0.127807)
(0.000223975 -0.000225536 0.127543)
(-7.92003e-05 -4.75735e-05 0.130577)
(-7.85255e-05 4.89656e-05 0.130567)
(-7.18034e-05 -4.61433e-05 0.130423)
(-7.11742e-05 4.74131e-05 0.130415)
(8.18608e-05 4.80965e-05 0.130558)
(7.25143e-05 -4.57715e-05 0.130419)
(7.18859e-05 4.74083e-05 0.13041)
(0.000106595 -0.000102592 0.127798)
(-0.000221153 0.000225517 0.127529)
(4.7238e-05 7.95043e-05 0.130746)
(-4.40611e-05 7.33284e-05 0.130592)
(4.45541e-05 7.29216e-05 0.130596)
(0.000221462 0.000225307 0.127528)
(0.000109108 0.000110473 0.127618)
(-0.000228784 -0.000230122 0.12743)
(-4.80889e-05 -7.81404e-05 0.130554)
(4.76177e-05 -7.79644e-05 0.130557)
(-4.97018e-05 -7.56887e-05 0.130433)
(5.11929e-05 -7.65128e-05 0.130437)
(-0.000107009 0.00011086 0.127619)
(0.000227017 -0.000231098 0.127432)
(-7.07255e-05 -4.64483e-05 0.130381)
(-7.00547e-05 4.76445e-05 0.130373)
(-6.71898e-05 -4.71628e-05 0.130261)
(-6.66776e-05 4.83062e-05 0.130254)
(7.05449e-05 4.76463e-05 0.130369)
(6.75289e-05 -4.53561e-05 0.130258)
(6.70043e-05 4.84249e-05 0.130249)
(0.000112843 -0.000110908 0.127607)
(-0.000225794 0.000229586 0.127419)
(4.48915e-05 7.2133e-05 0.130553)
(-4.63435e-05 7.00107e-05 0.130429)
(4.62247e-05 6.97852e-05 0.130434)
(0.000225705 0.000229551 0.127419)
(0.000114485 0.000116242 0.127512)
(-0.000240217 -0.000242058 0.127394)
(-5.20652e-05 -7.69247e-05 0.130398)
(5.19715e-05 -7.6847e-05 0.130403)
(-5.64763e-05 -8.00628e-05 0.1303)
(5.74147e-05 -7.98948e-05 0.130305)
(-0.000115106 0.000116016 0.127514)
(0.000239505 -0.000241732 0.127397)
(-6.86951e-05 -4.98262e-05 0.13023)
(-6.81963e-05 5.09569e-05 0.130224)
(-7.08506e-05 -5.35429e-05 0.130131)
(-7.03257e-05 5.48341e-05 0.130126)
(6.85184e-05 5.10382e-05 0.13022)
(7.13367e-05 -5.33351e-05 0.130128)
(7.06681e-05 5.50027e-05 0.130121)
(0.000118041 -0.000116784 0.127502)
(-0.00023734 0.000240701 0.127385)
(4.86129e-05 7.10032e-05 0.1304)
(-5.24972e-05 7.44406e-05 0.130298)
(5.22577e-05 7.42061e-05 0.130304)
(0.000237332 0.000240721 0.127385)
(0.000119742 0.000121263 0.127482)
(-0.000246187 -0.00024859 0.127441)
(-5.72261e-05 -8.13842e-05 0.130276)
(5.59302e-05 -8.10705e-05 0.130282)
(-5.68353e-05 -8.32816e-05 0.130212)
(5.78476e-05 -8.40094e-05 0.130217)
(-0.000118062 0.000121613 0.127484)
(0.000244978 -0.000250032 0.127443)
(-7.22488e-05 -5.47838e-05 0.130118)
(-7.15307e-05 5.61608e-05 0.130113)
(-7.22221e-05 -5.24804e-05 0.130045)
(-7.20781e-05 5.39105e-05 0.130041)
(7.18618e-05 5.62286e-05 0.130109)
(7.25757e-05 -5.10063e-05 0.130043)
(7.21945e-05 5.41423e-05 0.130036)
(0.000123376 -0.000122483 0.127474)
(-0.000243038 0.000247209 0.127433)
(5.30629e-05 7.55016e-05 0.13028)
(-5.25174e-05 7.87374e-05 0.130211)
(5.21504e-05 7.86318e-05 0.130216)
(0.000242798 0.000247402 0.127433)
(0.000135097 0.000136798 0.127539)
(-0.000227911 -0.000228717 0.127582)
(-5.41898e-05 -7.9709e-05 0.130207)
(5.42029e-05 -7.96055e-05 0.130213)
(-3.44968e-05 -4.92114e-05 0.130204)
(3.50388e-05 -4.91742e-05 0.130208)
(-0.000135373 0.000136429 0.127542)
(0.000226883 -0.000228766 0.127583)
(-6.93793e-05 -5.05388e-05 0.130063)
(-6.97285e-05 5.19609e-05 0.130059)
(-3.86177e-05 -2.97156e-05 0.130033)
(-3.88224e-05 3.07533e-05 0.13003)
(6.97858e-05 5.19837e-05 0.130055)
(3.89161e-05 -2.94206e-05 0.13003)
(3.88235e-05 3.09844e-05 0.130025)
(0.000138803 -0.000137741 0.127532)
(-0.000227002 0.000230024 0.127576)
(5.01011e-05 7.55979e-05 0.130211)
(-3.32163e-05 4.88038e-05 0.130202)
(3.28671e-05 4.89654e-05 0.130207)
(0.000226654 0.000230465 0.127575)
(0.000173979 0.000178155 0.127687)
(-0.000200411 -0.000203197 0.127739)
(-2.66575e-05 -3.21195e-05 0.130229)
(2.5615e-05 -3.19695e-05 0.130235)
(8.52967e-08 1.11519e-05 0.130272)
(2.17334e-07 1.13173e-05 0.130275)
(-0.0001726 0.000178294 0.12769)
(0.000199573 -0.000204659 0.127737)
(-2.65353e-05 -2.36065e-05 0.130103)
(-2.65273e-05 2.46712e-05 0.1301)
(8.77543e-06 -1.98552e-06 0.130087)
(9.19629e-06 2.37825e-06 0.130084)
(2.6604e-05 2.4462e-05 0.130097)
(-8.14209e-06 -2.3418e-06 0.130084)
(-9.09876e-06 2.88117e-06 0.130078)
(0.000175388 -0.000176271 0.127682)
(-0.000199559 0.000204192 0.127735)
(2.63777e-05 3.32162e-05 0.130234)
(3.85975e-07 -1.02631e-05 0.130273)
(-6.34564e-07 -9.85169e-06 0.130278)
(0.000199493 0.000204896 0.127731)
(0.000206322 0.000209447 0.127818)
(-0.000197541 -0.000200181 0.127806)
(4.70638e-06 2.27837e-05 0.130303)
(-4.49024e-06 2.34844e-05 0.13031)
(1.04873e-05 2.64746e-05 0.130307)
(-1.04083e-05 2.70431e-05 0.130309)
(-0.000206808 0.000209319 0.127823)
(0.000197986 -0.000200995 0.127796)
(1.44078e-05 4.84101e-07 0.130212)
(1.44306e-05 -5.52358e-08 0.130208)
(1.80531e-05 6.6671e-06 0.130089)
(1.85562e-05 -6.53918e-06 0.130087)
(-1.43883e-05 -6.606e-07 0.130206)
(-1.73369e-05 7.01076e-06 0.130086)
(-1.86712e-05 -6.42014e-06 0.130081)
(0.000208133 -0.000207997 0.127814)
(-0.000197773 0.000200096 0.127804)
(-4.82368e-06 -2.20582e-05 0.13031)
(1.13605e-05 -2.61671e-05 0.130309)
(-1.09354e-05 -2.58586e-05 0.130315)
(0.000197932 0.000201143 0.127791)
(0.000206076 0.000209625 0.127809)
(8.81895e-06 2.93193e-05 0.130331)
(-9.07131e-06 3.03098e-05 0.130339)
(-0.000206187 0.000211054 0.127823)
(1.62107e-05 8.03384e-06 0.130292)
(1.58285e-05 -7.68689e-06 0.130289)
(-1.60859e-05 -9.13895e-06 0.130287)
(0.000207102 -0.000208561 0.127806)
(-8.41166e-06 -2.91211e-05 0.130336)
(0.000276207 -0.000135523 0.128478)
(0.00213405 0.00152141 0.106127)
(0.000326778 0.00049704 0.123013)
(0.000958383 -7.70871e-05 0.121101)
(-0.000313856 -0.000247474 0.0871388)
(-0.000650866 0.00112924 0.0891374)
(-0.0352392 0.0460029 0.0853479)
(-0.000458089 -6.60591e-05 0.11924)
(-0.000451874 0.000338733 0.0779345)
(0.000582834 -0.00116488 0.0935486)
(0.000304461 -0.000598936 0.113102)
(0.112193 -0.118047 0.27208)
(0.000436971 0.00110951 0.064278)
(-0.0378581 -0.0618851 0.102949)
(-0.052701 -0.0414416 0.126439)
(0.00423546 0.0077615 0.10702)
(-0.0126935 0.0181979 0.102778)
(0.00167314 0.0125076 0.0944159)
(-0.00355171 0.0111237 0.0965214)
(0.0154498 0.0126416 0.0876131)
(0.00276458 0.0061928 0.0778785)
(0.00598222 -0.0048565 0.102456)
(0.00941934 -0.00613788 0.0823798)
(0.015069 -0.00267185 0.0879881)
(0.00298836 0.00152896 0.0888429)
(-0.00262085 0.00191011 0.123445)
(0.000228846 -0.00997908 0.125514)
(-0.000780197 -0.0034196 0.122071)
(0.00102782 0.000368587 0.136759)
(-0.000191327 0.00037123 0.135641)
(0.00113394 -0.00249597 0.137951)
(-0.000106433 -0.00164055 0.13536)
(-0.00401278 9.40691e-05 0.117681)
(-0.00978571 -0.0071583 0.0930167)
(-0.0026456 0.00119282 0.122737)
(-0.00369473 0.00583422 0.114018)
(-0.0049309 -0.000847501 0.102502)
(-0.00704851 -0.00496688 0.108439)
(-0.00149967 0.000733825 0.128774)
(0.0087424 0.00730151 0.0734463)
(0.00125224 -0.00479292 0.077845)
(0.00722524 -0.00478012 0.123795)
(0.0106656 -0.0127223 0.124426)
(0.0583248 -0.0579882 0.18073)
(0.00193312 -0.0131203 0.129854)
(0.0277615 -0.0010533 0.112343)
(0.00643541 -0.00743639 0.132013)
(0.00119849 -0.0121925 0.113888)
(-0.00390131 0.0084007 0.0917802)
(0.0104284 -0.0113244 0.0762837)
(-0.0054322 -0.00866992 0.0938558)
(-0.00663871 0.00197457 0.100516)
(0.00943386 -0.00924827 0.0967784)
(0.000206752 -0.000227922 0.104313)
(-0.00294882 0.000846149 0.0803141)
(0.000828177 0.00070553 0.107401)
(-0.000780309 -0.000461302 0.0767731)
(0.00355067 0.00151904 0.0649932)
(0.00135428 7.69771e-05 0.0650999)
(-0.000131269 -0.000268736 0.103711)
(0.000819011 -0.0034325 0.080071)
(0.000476088 -0.00123008 0.106865)
(-0.000287819 -0.00102263 0.0767446)
(0.000659751 -0.000717412 0.136154)
(0.000111582 -0.000759105 0.137668)
(0.000937026 -0.00022538 0.136084)
(-0.000342309 -0.000637141 0.135254)
(0.000692048 -0.000667755 0.135018)
(-0.000368551 0.000390523 0.135416)
(0.000853983 0.000497065 0.135078)
(0.000314806 -0.000411608 0.121635)
(-0.00212001 -0.00434108 0.110712)
(0.00126667 -0.000829786 0.136156)
(0.000860047 -0.00106091 0.129966)
(-0.000213631 -0.000596722 0.124371)
(-0.000460904 -0.00319083 0.106573)
(0.00128396 -0.000877173 0.135383)
(0.0016319 0.0029119 0.0651632)
(0.000114401 0.00118956 0.0650262)
(5.58563e-05 7.06964e-05 0.123364)
(0.000655083 2.13899e-05 0.137546)
(-0.00232969 -0.00186653 0.111387)
(-0.000448868 0.000271548 0.131876)
(0.00044292 -0.000781841 0.126436)
(7.12139e-05 0.000538876 0.136403)
(-0.00267552 -0.000473325 0.107652)
(-0.00474437 0.00530201 0.0923636)
(0.00724873 -0.00577818 0.0934147)
(0.00072204 -0.000270318 0.120192)
(-0.00094309 0.00329641 0.0896669)
(0.00380124 -0.00128615 0.0905216)
(2.60283e-05 -0.00011608 0.103725)
(0.00015854 -0.000210026 0.076927)
(6.03678e-05 -0.000121455 0.103721)
(0.000105624 -0.000144156 0.0771028)
(3.48253e-05 -0.000114406 0.0662973)
(-1.96698e-05 -8.89555e-05 0.0664905)
(-9.67513e-05 -7.60535e-07 0.102812)
(-0.000171104 9.085e-05 0.0767797)
(-8.27547e-05 5.64546e-06 0.103243)
(-0.000132083 7.97338e-05 0.0767321)
(0.00046913 -0.000421107 0.13471)
(-0.000235158 0.000286808 0.134958)
(0.00056837 0.000340821 0.134742)
(-5.89814e-05 -0.000105339 0.134376)
(0.000131779 -9.94445e-05 0.134324)
(-6.28574e-05 9.50141e-05 0.134376)
(0.00014404 9.45047e-05 0.13432)
(0.000237356 -3.43893e-05 0.119427)
(0.00016773 -0.000381793 0.104806)
(0.00050688 -0.000268872 0.133426)
(0.000275761 -0.000263183 0.130775)
(0.000217178 -9.26171e-05 0.120065)
(0.000202499 -7.78726e-05 0.10444)
(0.000347125 -0.000145704 0.133182)
(-0.000113843 8.13457e-06 0.0662563)
(-8.49513e-05 -2.73459e-05 0.0663292)
(2.51893e-05 0.000208535 0.120435)
(-4.53311e-05 0.000362637 0.133903)
(-0.00031723 0.000133865 0.105367)
(-0.000160782 0.00021045 0.131142)
(5.18297e-05 0.000157249 0.120834)
(-1.37505e-05 0.000265157 0.133576)
(-5.19066e-05 0.000190967 0.105125)
(0.000182552 0.000252352 0.090488)
(0.000353671 0.000121869 0.0907824)
(0.00043963 0.000332262 0.127778)
(0.000158046 2.21539e-05 0.090486)
(6.10168e-05 0.000132991 0.0908552)
(-9.53672e-06 -0.000122886 0.104027)
(4.39615e-05 -7.41756e-05 0.0775251)
(-3.8771e-06 -5.96555e-05 0.104125)
(1.96613e-05 -0.000103627 0.0776573)
(-2.1947e-05 -6.05002e-05 0.0668825)
(-7.02024e-06 -6.84244e-05 0.0670142)
(-0.000116505 -1.14998e-05 0.103068)
(-7.19259e-05 3.68087e-05 0.0772645)
(-5.56501e-05 -1.0785e-05 0.10352)
(-0.000102789 1.72425e-05 0.0772413)
(9.89441e-05 -7.60629e-05 0.134249)
(-5.57526e-05 7.85241e-05 0.134277)
(0.000103435 7.6117e-05 0.134243)
(-5.37169e-05 -5.76456e-05 0.134033)
(6.34785e-05 -5.49083e-05 0.134026)
(-5.30176e-05 6.12273e-05 0.134025)
(6.21532e-05 5.99779e-05 0.134017)
(0.000175334 -1.531e-05 0.119474)
(7.02618e-05 -2.08002e-05 0.105058)
(0.000158854 -3.16944e-05 0.132913)
(0.000104891 -5.35526e-05 0.130722)
(7.93795e-05 -2.05116e-05 0.119995)
(0.000148152 -5.27542e-05 0.104726)
(0.000138788 -2.50656e-05 0.13285)
(-5.8426e-05 -2.04304e-05 0.0667755)
(-6.53978e-05 -4.59943e-06 0.0668173)
(-1.13576e-05 0.000169359 0.120386)
(-7.86411e-06 0.000145475 0.133186)
(-1.29367e-05 7.50694e-05 0.105452)
(-4.18413e-05 9.6946e-05 0.130918)
(-6.90144e-06 7.47246e-05 0.120559)
(-1.23726e-05 0.00013258 0.133107)
(-4.92461e-05 0.000154957 0.10534)
(8.57717e-05 -4.40625e-06 0.0911146)
(-1.35081e-06 8.61187e-05 0.0913431)
(0.000229981 0.000222554 0.127828)
(0.000101351 3.33826e-05 0.0909209)
(3.22926e-05 0.000104338 0.0912726)
(-1.29558e-05 -0.000125549 0.104151)
(1.08794e-05 -5.87114e-05 0.0781158)
(-1.43529e-05 -7.18003e-05 0.104283)
(2.75208e-06 -8.69037e-05 0.0782524)
(-8.41324e-06 -4.649e-05 0.0674185)
(2.72626e-06 -5.2156e-05 0.0675338)
(-0.000117375 -1.22728e-05 0.103198)
(-5.69757e-05 6.40259e-06 0.0778325)
(-6.96294e-05 -1.39499e-05 0.103667)
(-8.3681e-05 -1.63977e-06 0.0778195)
(5.86007e-05 -5.25291e-05 0.133955)
(-5.20477e-05 5.81963e-05 0.133951)
(5.72191e-05 5.74543e-05 0.133947)
(-5.07947e-05 -4.96512e-05 0.133763)
(5.23405e-05 -4.90522e-05 0.133762)
(-4.98697e-05 5.36755e-05 0.133756)
(5.07866e-05 5.36603e-05 0.133755)
(0.000157531 -1.29755e-05 0.119339)
(5.57659e-05 -3.47231e-05 0.105214)
(0.000105234 -1.85139e-05 0.13266)
(7.81197e-05 -4.56863e-05 0.130516)
(5.91926e-05 -1.53348e-05 0.119902)
(0.000131872 -6.12257e-05 0.104872)
(9.81996e-05 -1.76706e-05 0.132598)
(-4.25868e-05 -2.64411e-06 0.0672912)
(-4.79096e-05 7.88023e-06 0.0673189)
(-1.43446e-05 0.000152501 0.120236)
(-1.75372e-05 0.000107558 0.132895)
(-3.12701e-05 6.39043e-05 0.105596)
(-4.35264e-05 7.75215e-05 0.130691)
(-1.47014e-05 5.90437e-05 0.120446)
(-1.77797e-05 0.000101988 0.132831)
(-5.99291e-05 0.000139073 0.105482)
(6.59544e-05 2.02977e-05 0.0914544)
(1.4654e-05 7.16242e-05 0.0916847)
(0.000221961 0.000224947 0.127615)
(8.20427e-05 4.78606e-05 0.0912707)
(4.39153e-05 8.68234e-05 0.0916261)
(-6.66737e-06 -0.000113891 0.104271)
(1.36281e-05 -4.21846e-05 0.0786194)
(-9.81897e-06 -5.82762e-05 0.104385)
(1.2979e-05 -7.73548e-05 0.0787039)
(-1.44755e-05 -3.60067e-05 0.0678472)
(-1.04496e-05 -4.81324e-05 0.0679189)
(-0.000102596 -6.65556e-06 0.103319)
(-3.81705e-05 7.46261e-06 0.0783147)
(-5.30895e-05 -9.39437e-06 0.103769)
(-7.21238e-05 7.23491e-06 0.0782499)
(5.13881e-05 -4.82074e-05 0.133704)
(-4.95927e-05 5.29172e-05 0.133698)
(5.00859e-05 5.29474e-05 0.133697)
(-5.00183e-05 -4.79113e-05 0.133527)
(5.07861e-05 -4.61805e-05 0.133527)
(-4.92218e-05 5.18516e-05 0.133521)
(4.93688e-05 5.19778e-05 0.133521)
(0.000141329 -9.59142e-06 0.119196)
(3.0423e-05 -3.14718e-05 0.105348)
(8.95813e-05 -1.66406e-05 0.132436)
(6.96311e-05 -4.61777e-05 0.130334)
(3.66869e-05 -1.28649e-05 0.119726)
(0.000112858 -5.05799e-05 0.105019)
(8.75662e-05 -1.6353e-05 0.132382)
(-3.22973e-05 -8.07418e-06 0.0677056)
(-4.35299e-05 -5.20252e-06 0.067692)
(-1.12586e-05 0.000135821 0.120086)
(-1.8238e-05 9.51248e-05 0.132662)
(-2.77654e-05 3.82026e-05 0.105734)
(-4.49848e-05 7.15135e-05 0.130507)
(-1.32576e-05 3.59566e-05 0.120267)
(-1.81313e-05 9.39347e-05 0.132609)
(-4.98932e-05 0.00011793 0.105633)
(4.52796e-05 1.49343e-05 0.0917871)
(8.48328e-06 5.14264e-05 0.0920214)
(0.000222411 0.000226523 0.127465)
(6.80945e-05 3.21928e-05 0.0915846)
(2.84932e-05 7.22603e-05 0.0919447)
(-1.52191e-06 -0.000105553 0.104459)
(2.24105e-05 -3.27094e-05 0.0790083)
(-3.69553e-06 -4.80047e-05 0.104536)
(1.20548e-05 -6.2334e-05 0.0790716)
(-1.99269e-05 -2.70006e-05 0.0681573)
(-5.17588e-06 -3.26008e-05 0.0681858)
(-9.3511e-05 -1.93299e-06 0.103502)
(-2.84944e-05 1.50042e-05 0.0786811)
(-4.20431e-05 -3.84644e-06 0.103917)
(-5.67788e-05 4.79702e-06 0.0785996)
(5.20584e-05 -4.82502e-05 0.133472)
(-5.07214e-05 5.33431e-05 0.133466)
(5.08017e-05 5.34525e-05 0.133467)
(-5.55644e-05 -5.30602e-05 0.133289)
(5.63414e-05 -5.27473e-05 0.133289)
(-5.45308e-05 5.70454e-05 0.133285)
(5.45875e-05 5.71694e-05 0.133285)
(0.000135548 -6.21908e-06 0.119136)
(1.69059e-05 -1.3661e-05 0.105491)
(8.62674e-05 -1.74432e-05 0.132239)
(6.99851e-05 -5.1129e-05 0.130188)
(2.38971e-05 -9.22809e-06 0.119625)
(0.000103014 -3.65113e-05 0.105182)
(8.69405e-05 -1.81959e-05 0.132181)
(-2.27105e-05 -1.36382e-05 0.0680038)
(-2.81189e-05 5.04485e-07 0.067947)
(-7.63633e-06 0.000130173 0.12002)
(-1.93578e-05 9.26377e-05 0.132458)
(-9.00545e-06 2.4021e-05 0.105881)
(-5.08806e-05 7.27613e-05 0.130359)
(-9.41297e-06 2.32313e-05 0.120161)
(-1.98814e-05 9.38567e-05 0.132404)
(-3.4532e-05 0.000108193 0.105799)
(3.42493e-05 -2.89585e-06 0.0920464)
(-9.67243e-06 3.96376e-05 0.092283)
(0.000232356 0.000235679 0.127393)
(5.44761e-05 2.42e-05 0.0918225)
(1.96028e-05 5.83844e-05 0.0921846)
(-1.9151e-06 -7.85504e-05 0.104733)
(8.19084e-06 -3.57442e-06 0.0793265)
(-1.46376e-06 -2.71472e-05 0.104779)
(-3.20673e-06 -3.277e-05 0.0793539)
(-5.79591e-06 -4.73994e-06 0.0683551)
(9.04779e-06 -1.18321e-05 0.0683459)
(-6.84116e-05 -2.30334e-06 0.103762)
(5.30831e-07 9.13573e-07 0.0789794)
(-2.11416e-05 -2.06209e-06 0.104152)
(-2.69132e-05 -9.14596e-06 0.078863)
(5.6841e-05 -5.34031e-05 0.133236)
(-5.523e-05 5.80777e-05 0.133232)
(5.52545e-05 5.8119e-05 0.133232)
(-5.91714e-05 -5.5792e-05 0.133043)
(5.97978e-05 -5.43151e-05 0.133043)
(-5.85625e-05 6.00317e-05 0.133039)
(5.85443e-05 6.01505e-05 0.133039)
(0.000124429 -3.34181e-06 0.119215)
(-2.59673e-06 -4.26587e-06 0.105683)
(8.97565e-05 -1.83889e-05 0.132047)
(7.33152e-05 -5.43327e-05 0.130078)
(1.16705e-05 -5.96014e-06 0.119641)
(8.07452e-05 -2.993e-05 0.105408)
(9.06922e-05 -1.83841e-05 0.131981)
(-2.22743e-06 -1.26713e-07 0.0681932)
(-9.15833e-06 1.25122e-05 0.0681021)
(-3.7551e-06 0.000119773 0.120092)
(-2.03445e-05 9.69497e-05 0.132256)
(1.39218e-06 5.58699e-06 0.106076)
(-5.3529e-05 7.78467e-05 0.130247)
(-5.77213e-06 1.0933e-05 0.120168)
(-2.00107e-05 9.96463e-05 0.132199)
(-2.84508e-05 8.57637e-05 0.106034)
(1.16158e-05 -4.2315e-06 0.0922691)
(-1.15357e-05 1.68681e-05 0.0925086)
(0.000241252 0.000245453 0.127397)
(2.96488e-05 2.21064e-05 0.0920474)
(1.96636e-05 3.27647e-05 0.092416)
(-5.45323e-06 -4.73594e-05 0.104965)
(-5.83278e-06 2.16697e-05 0.0795072)
(-4.3619e-06 5.00789e-06 0.10505)
(-1.79671e-05 -1.48222e-05 0.0794734)
(6.49813e-06 1.03693e-05 0.0684442)
(2.03865e-05 -5.55269e-07 0.0684011)
(-3.94613e-05 -5.46411e-06 0.103979)
(2.38353e-05 -8.67797e-06 0.0791391)
(1.0574e-05 -4.77969e-06 0.104402)
(-1.04478e-05 -1.94001e-05 0.0789649)
(5.69813e-05 -5.29068e-05 0.132997)
(-5.61115e-05 5.78217e-05 0.132992)
(5.60646e-05 5.78194e-05 0.132993)
(-3.71284e-05 -3.5543e-05 0.132832)
(3.7547e-05 -3.51155e-05 0.132831)
(-3.69115e-05 3.75126e-05 0.13283)
(3.6798e-05 3.76313e-05 0.132829)
(0.000100069 -2.968e-06 0.119444)
(-3.35725e-05 3.50798e-06 0.105935)
(9.3569e-05 -1.59438e-05 0.131882)
(6.13304e-05 -4.35853e-05 0.130025)
(-8.65404e-06 -4.36797e-06 0.119822)
(4.90257e-05 -2.52549e-05 0.105661)
(8.71164e-05 -1.46157e-05 0.131811)
(1.12962e-05 7.62167e-06 0.0682719)
(-2.89637e-07 1.93606e-05 0.0681516)
(-2.74726e-06 9.52227e-05 0.120315)
(-1.89229e-05 0.000102568 0.132071)
(6.67867e-06 -2.63454e-05 0.106339)
(-4.558e-05 7.05525e-05 0.130193)
(-4.27363e-06 -9.39579e-06 0.120342)
(-1.6566e-05 9.73928e-05 0.13202)
(-2.77367e-05 5.01526e-05 0.106306)
(-1.41384e-05 -9.46645e-06 0.0924682)
(-1.27446e-05 -1.10095e-05 0.0927224)
(0.000238103 0.000242375 0.127493)
(5.89563e-06 2.08273e-05 0.0922144)
(2.34451e-05 5.65832e-06 0.0925965)
(-4.94063e-06 -2.76019e-05 0.104954)
(-1.46219e-05 2.98699e-05 0.079506)
(-6.08935e-06 3.27088e-05 0.10513)
(-1.72998e-05 -1.46919e-05 0.0794577)
(7.7341e-06 1.26027e-05 0.0684511)
(1.39895e-05 -3.82131e-06 0.068414)
(-2.47664e-05 -5.18144e-06 0.103974)
(2.8159e-05 -1.32937e-05 0.0791295)
(3.47931e-05 -6.09303e-06 0.104459)
(-1.52625e-05 -1.42705e-05 0.0789572)
(2.74444e-05 -2.58316e-05 0.132822)
(-2.67767e-05 2.80138e-05 0.132819)
(2.6831e-05 2.79835e-05 0.132821)
(-1.32347e-06 -8.40595e-07 0.132779)
(1.09321e-06 -9.32309e-07 0.132778)
(-9.91413e-07 2.068e-06 0.132778)
(6.39641e-07 2.05666e-06 0.132776)
(5.58619e-05 -4.05432e-06 0.1196)
(-6.15347e-05 1.94267e-06 0.106085)
(4.92082e-05 -8.38566e-06 0.131813)
(1.28736e-05 -1.44594e-05 0.130055)
(-5.16769e-05 -5.37217e-06 0.120023)
(3.29251e-05 -2.83798e-05 0.105766)
(3.0238e-05 -7.25675e-06 0.131735)
(1.09255e-05 5.62285e-06 0.0682778)
(-6.05772e-06 1.01038e-05 0.068179)
(-3.51463e-06 5.53139e-05 0.12046)
(-1.16023e-05 5.5586e-05 0.131975)
(3.4298e-06 -5.67247e-05 0.106503)
(-1.66753e-05 1.81538e-05 0.130236)
(-4.9616e-06 -5.28725e-05 0.120549)
(-7.99699e-06 3.42388e-05 0.131945)
(-3.00543e-05 3.25578e-05 0.10641)
(-2.60193e-05 -7.4753e-06 0.0925329)
(-7.81988e-06 -2.54948e-05 0.0927966)
(0.000212127 0.000215933 0.127662)
(6.39958e-06 2.15259e-05 0.0922589)
(2.56292e-05 3.62824e-06 0.0926315)
(-2.65112e-06 -2.85559e-05 0.104827)
(-4.08754e-06 2.30314e-05 0.0794685)
(-3.96653e-06 3.31852e-05 0.104974)
(-5.49847e-06 -2.00419e-05 0.0794889)
(-3.5866e-06 6.92089e-06 0.0684572)
(5.13222e-06 -7.03607e-06 0.0684568)
(-3.03689e-05 -1.98038e-06 0.103889)
(1.89797e-05 1.07313e-06 0.0790948)
(3.36235e-05 -3.42625e-06 0.104276)
(-2.2654e-05 -2.33499e-06 0.079001)
(-4.52979e-06 6.2827e-06 0.132822)
(5.25808e-06 -4.40076e-06 0.132819)
(-4.94188e-06 -4.5733e-06 0.132821)
(1.27667e-05 1.35899e-05 0.132844)
(-1.24037e-05 1.38843e-05 0.132841)
(1.32863e-05 -1.29905e-05 0.132843)
(-1.28675e-05 -1.2929e-05 0.13284)
(4.64138e-05 -2.01398e-06 0.119547)
(-5.54697e-05 4.66621e-06 0.106022)
(-1.26624e-05 -8.74967e-07 0.131857)
(-1.83736e-05 4.93933e-06 0.130097)
(-7.61627e-05 -4.51541e-06 0.119956)
(4.40833e-05 -2.18004e-05 0.105761)
(-1.99946e-05 -1.19458e-06 0.131728)
(4.91988e-06 -5.98176e-06 0.0682815)
(-9.70104e-06 2.3948e-06 0.0682302)
(-2.04675e-06 4.80984e-05 0.120367)
(-1.81449e-06 -2.25986e-05 0.131995)
(4.9555e-06 -5.3767e-05 0.106433)
(9.70283e-06 -2.58498e-05 0.1303)
(-4.81452e-06 -6.91028e-05 0.120518)
(1.89302e-06 -3.39261e-05 0.131951)
(-2.34684e-05 4.01027e-05 0.10639)
(-1.39633e-05 -1.21026e-05 0.0924957)
(-1.18341e-05 -1.48317e-05 0.092759)
(0.000195641 0.000200452 0.127772)
(1.71903e-05 1.63917e-05 0.0922835)
(1.9153e-05 1.3388e-05 0.0926354)
(-9.7913e-08 -2.58729e-05 0.104265)
(2.03197e-06 1.93055e-05 0.0794208)
(-1.38958e-06 2.74011e-05 0.104817)
(-1.07873e-05 -1.98766e-05 0.0793491)
(-5.81717e-06 6.60933e-06 0.0684364)
(9.59538e-06 -9.83531e-06 0.0684022)
(1.93796e-05 5.48642e-06 0.0790561)
(2.87103e-05 -9.31219e-07 0.104073)
(-8.60765e-06 1.58662e-05 0.132899)
(9.10542e-06 -1.3667e-05 0.132895)
(-8.6233e-06 -1.46094e-05 0.132899)
(5.27788e-05 1.39083e-07 0.119561)
(-4.65953e-05 1.11658e-05 0.105875)
(-2.508e-05 2.94307e-06 0.131931)
(-1.17109e-05 5.69988e-06 0.130055)
(-6.69311e-05 -2.1755e-06 0.119712)
(4.56614e-05 -1.38308e-05 0.105852)
(-1.53632e-05 1.82403e-07 0.131689)
(7.04841e-06 -7.22328e-06 0.0682585)
(5.18615e-08 5.49962e-05 0.119831)
(-1.27613e-06 -3.48181e-05 0.132035)
(8.99213e-06 -4.32182e-05 0.106269)
(-2.54641e-06 -5.74275e-05 0.120356)
(7.75227e-07 -3.34686e-05 0.131912)
(-1.14341e-05 -1.46789e-05 0.0924252)
(-1.44972e-05 -1.06174e-05 0.0927081)
(0.000204146 0.000205806 0.12781)
(1.48176e-05 1.18999e-05 0.0923734)
(1.56898e-05 1.12785e-05 0.0925467)
(0.00268681 0.00274982 0.0670625)
(0.0257367 0.0497771 0.129907)
(0.0840657 0.090382 0.20153)
(-0.0124185 0.00858477 0.067822)
(-0.00557865 0.0080779 0.0983952)
(0.0046148 -0.00789234 0.0603055)
(0.0650165 0.0780649 0.185384)
(0.00816621 0.0084134 0.0706274)
(-0.00443387 0.00383639 0.0856869)
(0.00390411 0.000672468 0.0887115)
(0.025076 0.0426695 0.131081)
(0.07844 0.0921563 0.21567)
(-0.000422723 6.25835e-06 0.0890688)
(0.0029064 0.00133895 0.093533)
(-0.000995225 0.000137855 0.0758614)
(0.000313644 0.000408457 0.119792)
(0.000634728 0.00023985 0.0877316)
(-0.00117747 0.000504228 0.0902361)
(-0.00421593 -0.00241522 0.0795818)
(2.54504e-05 0.000449465 0.119779)
(0.000561831 0.00307293 0.0723902)
(-0.0103033 0.00755545 0.086882)
(-0.00843707 -0.0158844 0.0827884)
(-0.000329218 0.0153873 0.0894545)
(-0.00111262 0.00191328 0.0703614)
(0.0152816 0.0125661 0.0765979)
(0.0129812 -0.0194685 0.0856746)
(0.00113694 0.0156782 0.0860732)
(-0.000164618 0.000179762 0.0885906)
(0.0053747 0.00304525 0.096411)
(-0.00436183 0.00378893 0.0911186)
(0.00143428 0.00248121 0.118813)
(0.00590869 6.30125e-05 0.083054)
(0.000712359 0.000850351 0.118564)
(-0.000234037 0.00709907 0.1006)
(0.000116356 0.0003318 0.0870688)
(-0.00380533 0.00376018 0.0922957)
(0.00907216 0.00926693 0.0953065)
(-4.97188e-05 0.00275077 0.118119)
(-0.00852587 -0.00613809 0.088041)
(7.8565e-07 0.000831827 0.118198)
(0.000671815 0.00750494 0.100263)
(8.12446e-05 -0.000821771 0.063931)
(-0.0240469 0.0220564 0.102168)
(-0.0514962 0.0590582 0.136112)
(0.0175599 0.0127713 0.071338)
(0.0069207 -0.00785886 0.0882116)
(-0.00452226 0.0110201 0.0635308)
(0.016419 0.00412638 0.0944407)
(-0.00284613 -0.00957753 0.0858548)
(-0.0212193 0.0116704 0.10235)
(-0.0389595 0.0535157 0.137608)
(-0.01377 -0.0172333 0.0644724)