/*--------------------------------*- C++ -*----------------------------------*\
| =========                 |                                                 |
| \\      /  F ield         | OpenFOAM: The Open Source CFD Toolbox           |
|  \\    /   O peration     | Version:  2206                                  |
|   \\  /    A nd           | Website:  www.openfoam.com                      |
|    \\/     M anipulation  |                                                 |
\*---------------------------------------------------------------------------*/
FoamFile
{
    version     2.0;
    format      ascii;
    arch        "LSB;label=32;scalar=64";
    class       volVectorField;
    location    "0.4";
    object      wallShearStress;
}
// * * * * * * * * * * * * * * * * * * * * * * * * * * * * * * * * * * * * * //

dimensions      [0 2 -2 0 0 0 0];

internalField   uniform (0 0 0);

boundaryField
{
    topPatch
    {
        type            calculated;
        value           uniform (0 0 0);
    }
    wall
    {
        type            calculated;
        value           nonuniform List<vector> 
7742
(
(-5.47168e-05 -0.000188858 -0.000871257)
(5.56207e-05 -9.35716e-05 -0.00160998)
(9.76941e-06 -0.000312836 -0.00077388)
(-0.000242095 8.47725e-07 -0.00064956)
(-8.73461e-05 7.35023e-05 -0.00100383)
(-0.000291233 0.000134184 -0.000970989)
(0.000273207 -1.52215e-05 -0.00086014)
(0.000183173 5.09395e-06 -0.000762326)
(-1.60891e-05 0.000232317 -0.000752965)
(0.000136491 0.000203916 -0.00160235)
(0.000140391 0.000258586 -0.000755834)
(-4.26103e-05 7.47064e-05 -0.000864143)
(5.4061e-05 -0.000105463 -0.000385074)
(0.00011399 -2.16786e-05 -0.000269913)
(4.62395e-05 -8.52251e-05 -0.00041724)
(-0.000174189 2.46841e-05 -0.000274029)
(-2.04773e-05 3.15807e-05 -0.000215235)
(-0.000158993 -5.03e-05 -0.000345114)
(-2.74155e-05 -0.000445883 -0.000963163)
(-5.06388e-05 -0.000297401 -0.000889664)
(-0.000114824 -0.000116096 -0.000409413)
(-0.000100079 -0.000119954 -0.000466578)
(-0.000188493 -7.49503e-05 -0.000229616)
(0.000135062 6.5902e-05 -0.000388252)
(3.05868e-05 5.68555e-05 -0.000210827)
(7.47876e-05 2.95886e-05 -0.000335229)
(-0.000315721 -9.2893e-06 -0.000855028)
(-0.000413933 2.98717e-05 -0.000795201)
(0.000442662 8.51625e-05 -0.0010152)
(0.000261319 1.71341e-05 -0.000968402)
(-0.000174761 -8.83378e-07 -0.000327352)
(-0.000116139 8.7008e-05 -0.000344334)
(-8.32583e-07 5.73125e-06 -0.000290623)
(-0.000362313 0.000325146 -0.000659763)
(-4.09978e-05 -2.75433e-05 -0.000497504)
(-0.00042269 0.000381923 -0.0012202)
(-5.61819e-06 0.000367581 -0.00085422)
(7.21436e-05 0.00037713 -0.000684387)
(8.56113e-05 -3.9721e-05 -0.000320071)
(8.32026e-05 -2.333e-05 -0.000307259)
(-3.91614e-06 -6.16369e-05 -0.000251342)
(7.71651e-05 0.00012886 -0.000426291)
(0.000150575 9.44906e-05 -0.000427779)
(8.38813e-05 -2.75193e-05 -0.000398371)
(3.6352e-05 -1.06772e-05 -0.00100535)
(-0.000152648 -7.5136e-05 -0.000661921)
(-0.000122108 -0.000192343 -0.000596953)
(-7.46522e-05 0.0001215 -0.000777555)
(-2.73695e-05 6.88766e-05 -0.000157975)
(-2.57899e-05 -0.000136249 -0.000811568)
(-0.000202134 -0.000199239 -0.000621428)
(6.06728e-05 0.000109558 -0.00117567)
(-6.40605e-05 -0.00010464 -0.00086481)
(0.000125641 -0.000119026 -0.000662568)
(3.09393e-05 -9.51967e-05 -0.00022144)
(0.000171192 0.00017365 -0.00126534)
(9.2484e-05 1.92747e-05 -0.000520874)
(-0.000131336 2.27127e-05 -0.000863132)
(-2.60327e-05 -1.50339e-05 -0.00050039)
(-5.18756e-05 -4.41043e-05 -0.000882326)
(2.83419e-05 -2.67041e-05 -0.00123857)
(7.89422e-05 -0.000197069 -0.00087988)
(-0.000174381 8.83806e-05 -0.000467607)
(7.44895e-05 7.80755e-05 -0.00151084)
(0.000203123 0.000146632 -0.00103402)
(1.02388e-05 0.000131779 -0.000292063)
(-3.67014e-05 -2.87841e-05 -0.000277206)
(-0.000153031 0.000229518 -0.000797357)
(-0.000105911 4.59146e-05 -0.000271787)
(1.49803e-05 -0.000194654 -0.0018785)
(9.83097e-05 6.6978e-06 -0.000262547)
(-5.57136e-05 -6.68466e-05 -0.000822486)
(-0.000125364 -4.79871e-05 -0.000213373)
(-0.000158633 7.01959e-05 -0.00141507)
(-8.4389e-05 -4.95114e-05 -0.00114833)
(-5.96876e-05 -0.000136515 -0.000202438)
(0.000167363 7.94778e-05 -0.00173006)
(9.9365e-05 -3.52531e-05 -0.00141911)
(0.00011478 0.000176046 -0.00183603)
(-2.30208e-05 0.000113776 -0.00135377)
(5.36063e-05 -8.58209e-05 -0.00046805)
(8.53145e-06 -1.17315e-05 -0.000241963)
(-1.9054e-05 -7.60268e-05 -0.000317746)
(-4.60018e-06 -6.58322e-06 -0.000196931)
(-2.01166e-05 8.31122e-06 -0.000357471)
(-5.3658e-06 -3.96259e-07 -0.000210078)
(-4.41247e-05 1.03509e-05 -0.000259125)
(2.64066e-06 1.07113e-05 -0.000206093)
(-2.65391e-06 1.00298e-06 -0.000113933)
(-2.17082e-06 1.00701e-06 -0.000114572)
(-2.83716e-06 -1.72678e-06 -0.000116285)
(-8.12483e-07 -3.00892e-07 -0.000118261)
(-1.686e-07 4.40608e-07 -0.000117422)
(6.06044e-07 -1.18988e-06 -0.000116733)
(-2.59284e-06 -4.04818e-06 -0.00011999)
(-3.76825e-07 -8.72261e-07 -0.000119131)
(-7.83181e-07 3.46328e-07 -0.000118694)
(-3.85919e-07 1.72501e-07 -0.000119533)
(1.46795e-07 1.27262e-07 -0.000123929)
(1.37273e-07 9.84936e-08 -0.000125029)
(2.66158e-07 -5.95797e-07 -0.0001193)
(1.43429e-07 -3.18209e-07 -0.000119775)
(1.53181e-07 2.05925e-07 -0.000124457)
(1.02869e-07 1.53583e-07 -0.000125292)
(-1.45598e-07 6.49748e-08 -0.00012031)
(-9.4405e-08 5.03828e-08 -0.000120791)
(9.64137e-08 6.18924e-08 -0.000126029)
(6.24165e-08 4.71685e-08 -0.00012651)
(5.7323e-08 -1.27014e-07 -0.000120526)
(4.57477e-08 -8.3594e-08 -0.000120892)
(5.36784e-08 8.29738e-08 -0.000126202)
(3.75346e-08 4.64213e-08 -0.000126576)
(-8.10513e-08 3.83328e-08 -0.000121527)
(-8.72949e-08 4.67262e-08 -0.000121996)
(6.20455e-08 4.1268e-08 -0.000127282)
(6.4404e-08 4.66168e-08 -0.0001277)
(3.20141e-08 -6.49082e-08 -0.000121693)
(4.10803e-08 -7.3955e-08 -0.000122059)
(3.10506e-08 4.30144e-08 -0.000127387)
(3.70685e-08 4.72198e-08 -0.000127721)
(-8.96676e-08 4.00372e-08 -0.000122669)
(-6.89966e-08 3.79444e-08 -0.000123098)
(1.00942e-07 5.9654e-08 -0.000128353)
(6.83685e-08 4.66503e-08 -0.000128697)
(3.43349e-08 -7.53688e-08 -0.00012279)
(3.24088e-08 -5.61943e-08 -0.000123111)
(5.05644e-08 8.32493e-08 -0.000128429)
(3.93825e-08 5.60209e-08 -0.000128697)
(-1.75487e-08 9.71053e-09 -0.000123635)
(1.05622e-08 4.47323e-09 -0.000123986)
(3.24866e-08 2.04931e-08 -0.000129171)
(1.14255e-09 8.01881e-09 -0.000129425)
(4.64231e-09 -4.89449e-09 -0.000123714)
(1.41479e-09 1.75379e-08 -0.000123971)
(1.36128e-08 1.96404e-08 -0.000129226)
(3.51551e-09 -6.64326e-09 -0.000129401)
(2.3251e-08 -9.29841e-09 -0.000124387)
(3.07505e-08 -6.00224e-09 -0.000124634)
(3.00033e-10 9.35796e-10 -0.000129785)
(-2.08219e-08 -5.8217e-09 -0.00012996)
(-9.10262e-09 2.31034e-08 -0.000124448)
(-2.39983e-09 2.11524e-08 -0.000124601)
(-8.53452e-10 -3.52735e-09 -0.000129825)
(-4.44298e-09 -1.81718e-08 -0.000129929)
(2.52217e-08 -1.17728e-08 -0.000124818)
(2.75854e-08 -5.50809e-09 -0.000124968)
(-1.62882e-08 -9.36935e-09 -0.000130167)
(-2.8252e-08 -1.07315e-08 -0.000130283)
(-1.00274e-08 2.08903e-08 -0.000124862)
(-3.37273e-09 2.12933e-08 -0.000124928)
(-6.72419e-09 -1.16498e-08 -0.000130201)
(-7.84035e-09 -2.26716e-08 -0.000130255)
(1.3186e-08 -8.03495e-09 -0.000125021)
(9.38605e-09 5.19182e-10 -0.000125127)
(-3.52826e-09 -3.67807e-09 -0.000130397)
(-1.02614e-08 -2.13898e-09 -0.000130464)
(-6.34834e-09 9.17613e-09 -0.000125066)
(3.29689e-09 2.04021e-09 -0.000125101)
(-4.75816e-10 2.21265e-09 -0.000130432)
(2.0504e-09 -2.19665e-09 -0.000130453)
(-2.79901e-10 -3.78746e-09 -0.000125074)
(-1.48687e-09 4.27692e-09 -0.000125189)
(9.54809e-09 1.83818e-09 -0.000130463)
(-4.24569e-09 4.15286e-10 -0.000130527)
(-8.31592e-10 -7.45386e-09 -0.000125121)
(6.43371e-09 -6.73133e-09 -0.000125171)
(6.25924e-09 1.68003e-08 -0.000130493)
(4.60331e-09 2.98731e-09 -0.000130523)
(8.1853e-10 -4.02695e-09 -0.000125054)
(1.45744e-08 -1.30578e-09 -0.000125263)
(6.48829e-09 2.69765e-10 -0.00013045)
(-5.65391e-09 4.08492e-11 -0.000130553)
(-1.47016e-09 -7.57184e-09 -0.00012509)
(3.61342e-09 1.3405e-08 -0.000130463)
(6.38654e-05 -3.4432e-05 -0.00026804)
(-1.34744e-05 3.18226e-05 -0.000256608)
(5.29059e-05 3.17441e-05 -0.000206034)
(-6.45374e-05 7.0845e-06 -0.000195107)
(-7.88468e-05 -3.04434e-05 -0.000318279)
(3.95478e-05 8.38603e-05 -0.000262488)
(3.28535e-05 4.54733e-05 -0.000137566)
(-6.23052e-06 -5.83586e-05 -0.000149855)
(-9.2743e-06 6.88098e-05 -0.000209251)
(-8.79715e-06 -5.41075e-05 -0.000182313)
(-8.63588e-06 -3.78157e-06 -0.000232409)
(-8.47838e-06 2.65882e-05 -0.00020728)
(5.32275e-05 -1.16764e-05 -0.000116378)
(-7.80158e-05 -4.40758e-06 -0.000184424)
(1.2101e-05 -3.18342e-05 -0.000267276)
(-8.71151e-05 6.32688e-05 -0.000221278)
(2.98394e-05 -7.89122e-05 -0.000301662)
(1.31399e-05 -1.17947e-05 -0.00022397)
(-4.88749e-05 2.60552e-06 -0.000273743)
(-1.0657e-05 1.29812e-05 -0.000205944)
(1.15496e-06 -1.29277e-06 -0.000123192)
(9.9726e-06 -9.81137e-06 -0.000193247)
(-3.80928e-06 6.10488e-06 -0.000124947)
(-1.21922e-05 1.59235e-05 -0.00018254)
(-3.28406e-05 -5.49336e-05 -0.000390084)
(-3.53712e-07 -6.38428e-06 -0.00020172)
(-2.30161e-06 4.61099e-07 -0.000118723)
(2.57915e-06 -5.84313e-06 -0.000193217)
(-7.25617e-07 -6.33623e-07 -0.000116682)
(-2.5335e-06 -4.73526e-06 -0.000171526)
(8.68637e-05 4.37041e-05 -0.000279681)
(9.6605e-06 1.06198e-05 -0.000198106)
(-3.55684e-06 -2.48349e-06 -0.000120071)
(-5.46788e-06 -6.65538e-06 -0.000173199)
(2.18215e-06 2.92793e-06 -0.000119964)
(8.63092e-06 9.19077e-06 -0.000176082)
(-5.21337e-05 -1.87753e-05 -0.000352749)
(-1.90091e-07 1.34297e-05 -0.000206681)
(-1.06542e-06 2.01538e-06 -0.000121518)
(-5.27921e-06 4.72853e-06 -0.000179077)
(-1.70176e-06 -3.02137e-06 -0.000122243)
(-1.6655e-06 4.92903e-06 -0.000181431)
(8.5145e-05 5.20134e-05 -0.000416543)
(9.94159e-06 8.01496e-06 -0.000210987)
(6.33017e-05 -2.17738e-05 -0.000378913)
(5.87205e-06 3.77475e-07 -0.000206855)
(6.83953e-07 7.18849e-07 -0.000116128)
(5.8837e-06 4.91548e-06 -0.000175856)
(4.05156e-07 3.06182e-08 -0.000116821)
(4.50148e-06 -1.66196e-06 -0.000175498)
(-8.54502e-07 7.18185e-05 -0.000230666)
(8.24819e-07 2.65363e-06 -0.000199379)
(-3.67332e-06 -5.29017e-06 -0.000126252)
(-2.80364e-06 1.54635e-06 -0.00018777)
(6.07836e-06 4.07499e-06 -0.000129203)
(5.15274e-06 6.16947e-06 -0.000189967)
(6.27619e-05 0.000115928 -0.000361233)
(1.53191e-05 1.16128e-05 -0.000219795)
(-6.82337e-05 6.44947e-05 -0.000425892)
(-2.11276e-05 1.478e-05 -0.000224994)
(3.18676e-06 1.86545e-06 -0.000126168)
(8.41458e-06 7.33809e-06 -0.000192741)
(-4.38183e-06 2.219e-06 -0.000124482)
(-1.83251e-05 1.11362e-05 -0.000190066)
(5.15044e-05 1.05214e-05 -0.000275066)
(2.67075e-06 2.57219e-06 -0.000199626)
(-5.31261e-05 8.19036e-05 -0.000264064)
(-2.4479e-05 1.71051e-05 -0.000204569)
(1.23992e-06 -1.06622e-06 -0.000120398)
(5.16089e-06 -2.28646e-06 -0.000177219)
(-6.08924e-06 3.98689e-06 -0.000126246)
(-2.05315e-05 1.49297e-05 -0.000183836)
(2.02991e-07 -3.56356e-07 -0.000118281)
(-9.9472e-07 6.43957e-07 -0.000119272)
(-2.19567e-06 3.75933e-06 -0.000120878)
(-3.67644e-08 2.77348e-07 -0.000121085)
(-6.11837e-07 3.9025e-07 -0.000123745)
(-9.79368e-07 6.30526e-07 -0.000120708)
(2.07552e-07 -2.88876e-07 -0.000124304)
(1.48488e-07 -8.69731e-08 -0.000122223)
(1.36592e-07 4.56261e-08 -0.000112736)
(8.24293e-07 5.15994e-07 -0.000114034)
(-9.87141e-07 4.48436e-07 -0.000118232)
(-1.84492e-06 8.537e-07 -0.000115666)
(5.27753e-07 2.77896e-07 -0.000117984)
(7.75764e-07 4.58463e-07 -0.000115314)
(1.01835e-06 1.46935e-06 -0.000115819)
(-4.09416e-07 -5.18026e-07 -0.000117545)
(9.30574e-08 1.20048e-07 -0.000123263)
(-4.15091e-07 -9.40066e-08 -0.000119877)
(-3.21249e-07 -4.58412e-07 -0.00012301)
(-4.68992e-07 -6.37326e-07 -0.000119334)
(-1.01724e-06 -2.15556e-06 -0.000116444)
(2.11557e-07 2.09454e-07 -0.000114939)
(3.39639e-07 -7.31328e-07 -0.000118916)
(5.6503e-07 -1.15866e-06 -0.000117461)
(2.82429e-07 5.60401e-07 -0.000118466)
(3.05883e-07 4.8145e-07 -0.000116107)
(-1.01484e-07 -4.06642e-07 -0.000112039)
(-7.70736e-07 -1.54228e-06 -0.000113053)
(-3.38831e-07 1.03013e-06 -0.000112811)
(-8.62688e-07 1.7764e-06 -0.000113571)
(-4.0921e-07 -8.5034e-07 -0.000117561)
(-7.03381e-07 -1.44065e-06 -0.000114455)
(-4.25065e-07 8.89648e-07 -0.000117673)
(-7.63981e-07 1.59063e-06 -0.000114861)
(4.08959e-06 2.5988e-06 -0.000122013)
(3.39047e-07 9.51526e-08 -0.000119616)
(1.5838e-07 1.76032e-07 -0.000123786)
(-7.90077e-08 -3.46919e-07 -0.000120667)
(-4.09943e-07 -2.81125e-07 -0.000123638)
(-1.38687e-07 -1.71841e-07 -0.000120785)
(1.52036e-06 8.28685e-07 -0.000118835)
(-9.44694e-07 -4.8403e-07 -0.000115475)
(-1.89674e-06 9.01934e-07 -0.0001184)
(7.63543e-07 -4.16826e-07 -0.000115762)
(-8.06474e-07 -3.76008e-07 -0.000118227)
(-1.08691e-06 -5.31341e-07 -0.000116143)
(6.0209e-07 -2.99043e-07 -0.000118188)
(8.41387e-07 -4.33324e-07 -0.000116379)
(4.53725e-07 -3.38332e-07 -0.000116435)
(-4.53849e-07 6.4545e-07 -0.000118001)
(-3.7614e-06 2.35613e-06 -0.00012097)
(-5.60776e-07 2.16878e-07 -0.000119881)
(-3.2577e-07 4.75844e-07 -0.00012309)
(-4.81754e-07 6.86321e-07 -0.000119676)
(1.37141e-07 -1.35774e-07 -0.000123521)
(-1.78254e-07 3.81732e-09 -0.000120943)
(-5.06803e-07 3.13811e-07 -0.000124313)
(-2.46056e-07 1.53186e-07 -0.000125188)
(1.83608e-07 -2.76287e-07 -0.000124794)
(1.07316e-07 -1.65194e-07 -0.000125385)
(-1.05277e-07 7.0764e-08 -0.000125873)
(-2.07543e-07 1.25122e-07 -0.000125397)
(5.7948e-08 -8.29e-08 -0.000125986)
(9.1693e-08 -1.48149e-07 -0.000125631)
(4.51976e-07 2.24111e-07 -0.000118487)
(2.7649e-07 1.32408e-07 -0.000119424)
(-1.69709e-07 8.09637e-08 -0.000120178)
(-3.12282e-07 1.34701e-07 -0.000119694)
(1.54692e-07 7.61118e-08 -0.000120152)
(2.40155e-07 1.08482e-07 -0.000119611)
(-2.66083e-07 -3.94381e-07 -0.000123827)
(-1.36845e-07 -2.03671e-07 -0.000125017)
(9.05557e-08 6.40146e-08 -0.000125845)
(1.38444e-07 9.07574e-08 -0.00012528)
(-6.37687e-08 -8.91394e-08 -0.000125895)
(-1.10825e-07 -1.71511e-07 -0.000125369)
(2.32484e-07 4.90274e-07 -0.000119018)
(1.36714e-07 2.96509e-07 -0.000119702)
(7.23183e-08 -1.49753e-07 -0.000120313)
(1.12606e-07 -2.60078e-07 -0.000119987)
(7.27683e-08 1.50093e-07 -0.000120303)
(1.0941e-07 2.48693e-07 -0.000119943)
(-3.1882e-07 -6.81366e-07 -0.000118291)
(-1.62664e-07 -3.45511e-07 -0.000119395)
(-3.30052e-07 7.11988e-07 -0.000118367)
(-1.69606e-07 3.63987e-07 -0.000119411)
(-7.5948e-08 -1.52977e-07 -0.000120228)
(-1.25834e-07 -2.77736e-07 -0.00011972)
(-7.88605e-08 1.60511e-07 -0.00012023)
(-1.31621e-07 2.93116e-07 -0.00011973)
(-3.8354e-07 -2.4802e-07 -0.000124218)
(-2.15956e-07 -1.37696e-07 -0.000125161)
(5.90737e-08 8.4753e-08 -0.000125962)
(8.95474e-08 1.42099e-07 -0.000125567)
(-9.7531e-08 -6.66096e-08 -0.000125884)
(-1.87614e-07 -1.14846e-07 -0.000125383)
(-6.70531e-07 -3.01608e-07 -0.000118664)
(-3.5643e-07 -1.61463e-07 -0.000119517)
(5.05681e-07 -2.41664e-07 -0.000118623)
(2.95198e-07 -1.39177e-07 -0.000119474)
(-1.61893e-07 -7.7936e-08 -0.000120186)
(-2.92514e-07 -1.2727e-07 -0.000119685)
(1.57236e-07 -7.6811e-08 -0.000120174)
(2.52735e-07 -1.13078e-07 -0.000119652)
(-2.72772e-07 4.12885e-07 -0.000123871)
(-1.46042e-07 2.22303e-07 -0.000125018)
(1.66228e-07 -1.32828e-07 -0.0001241)
(1.40083e-07 -9.9118e-08 -0.00012509)
(-6.74447e-08 9.6576e-08 -0.000125886)
(-1.19329e-07 1.8854e-07 -0.000125364)
(9.04791e-08 -6.36308e-08 -0.000125871)
(1.39083e-07 -9.04951e-08 -0.000125333)
(-1.00954e-07 6.36484e-08 -0.00012605)
(-5.64388e-08 4.34252e-08 -0.000126507)
(5.24296e-08 -8.07065e-08 -0.000126221)
(3.63918e-08 -4.41754e-08 -0.000126588)
(-4.35761e-08 3.61012e-08 -0.000127116)
(-6.31008e-08 4.246e-08 -0.000126676)
(2.89763e-08 -3.10077e-08 -0.000127177)
(3.46494e-08 -4.88456e-08 -0.000126819)
(1.38977e-07 6.30568e-08 -0.000120291)
(1.01112e-07 5.3263e-08 -0.000120789)
(-7.64589e-08 4.29727e-08 -0.000121404)
(-8.93245e-08 4.21288e-08 -0.000120921)
(8.24803e-08 4.53574e-08 -0.000121408)
(9.66896e-08 4.52311e-08 -0.00012092)
(-5.52884e-08 -8.26229e-08 -0.000126159)
(-3.33822e-08 -3.75611e-08 -0.000126574)
(4.70316e-08 3.79167e-08 -0.000127133)
(6.58566e-08 4.42985e-08 -0.000126681)
(-2.87832e-08 -2.98268e-08 -0.000127176)
(-3.34096e-08 -4.58975e-08 -0.000126809)
(5.81128e-08 1.2846e-07 -0.000120519)
(4.64583e-08 8.52982e-08 -0.000120891)
(3.77939e-08 -6.4198e-08 -0.000121485)
(3.64779e-08 -7.50237e-08 -0.000121108)
(3.81207e-08 6.49293e-08 -0.000121487)
(3.71763e-08 7.67563e-08 -0.000121108)
(-5.95276e-08 -1.28217e-07 -0.000120469)
(-4.45627e-08 -7.88637e-08 -0.000120883)
(-6.17783e-08 1.34123e-07 -0.000120471)
(-4.65848e-08 8.41589e-08 -0.000120882)
(-3.77277e-08 -6.36181e-08 -0.000121489)
(-3.50447e-08 -7.04455e-08 -0.000121102)
(-3.71087e-08 6.21335e-08 -0.00012149)
(-3.66878e-08 7.45253e-08 -0.000121104)
(-9.46705e-08 -6.01935e-08 -0.000126062)
(-5.10837e-08 -4.05061e-08 -0.000126525)
(2.9515e-08 3.21248e-08 -0.000127167)
(3.57467e-08 5.09629e-08 -0.000126808)
(-3.90575e-08 -3.36375e-08 -0.000127133)
(-5.81665e-08 -3.97383e-08 -0.000126691)
(-1.39309e-07 -6.24943e-08 -0.000120318)
(-8.94175e-08 -4.84777e-08 -0.000120803)
(1.40077e-07 -6.32669e-08 -0.000120312)
(9.61797e-08 -5.12543e-08 -0.000120804)
(-7.20038e-08 -4.12295e-08 -0.000121416)
(-8.44563e-08 -4.02133e-08 -0.000120931)
(7.78949e-08 -4.35588e-08 -0.000121419)
(9.14083e-08 -4.3008e-08 -0.000120934)
(-5.87111e-08 8.9671e-08 -0.000126148)
(-3.7506e-08 4.5357e-08 -0.000126558)
(9.39111e-08 -6.04115e-08 -0.000126058)
(5.72105e-08 -4.39651e-08 -0.000126532)
(-2.80414e-08 2.92561e-08 -0.000127162)
(-3.47477e-08 4.8456e-08 -0.000126795)
(4.43542e-08 -3.65079e-08 -0.000127143)
(6.48058e-08 -4.33924e-08 -0.000126701)
(-5.78405e-08 3.91152e-08 -0.000127272)
(-6.11027e-08 4.49468e-08 -0.000127685)
(3.06241e-08 -4.21736e-08 -0.000127396)
(3.72095e-08 -4.74269e-08 -0.000127728)
(-8.70271e-08 5.77157e-08 -0.000128218)
(-8.16635e-08 5.11236e-08 -0.000127828)
(5.04504e-08 -7.41949e-08 -0.000128241)
(4.22552e-08 -6.53915e-08 -0.000127933)
(8.54882e-08 4.00677e-08 -0.000121527)
(9.06898e-08 4.80593e-08 -0.000122)
(-8.8796e-08 4.64799e-08 -0.000122565)
(-9.32969e-08 4.24498e-08 -0.000122109)
(9.09167e-08 4.73359e-08 -0.000122566)
(9.61169e-08 4.3509e-08 -0.000122109)
(-3.1035e-08 -4.23374e-08 -0.000127399)
(-3.7379e-08 -4.78123e-08 -0.000127734)
(8.62123e-08 5.72877e-08 -0.00012823)
(8.57755e-08 5.32378e-08 -0.000127836)
(-5.06391e-08 -7.46255e-08 -0.000128242)
(-4.16095e-08 -6.42687e-08 -0.000127938)
(3.22681e-08 6.54962e-08 -0.000121696)
(4.09672e-08 7.35858e-08 -0.000122063)
(4.15112e-08 -7.74184e-08 -0.000122604)
(3.60026e-08 -7.70805e-08 -0.000122256)
(4.11233e-08 7.63691e-08 -0.00012261)
(3.58968e-08 7.67346e-08 -0.00012226)
(-3.2398e-08 -6.56817e-08 -0.000121697)
(-4.11383e-08 -7.43901e-08 -0.000122064)
(-3.12486e-08 6.27405e-08 -0.000121699)
(-4.00804e-08 7.12997e-08 -0.000122066)
(-4.14798e-08 -7.75419e-08 -0.000122606)
(-3.6105e-08 -7.75218e-08 -0.000122259)
(-4.05973e-08 7.50488e-08 -0.000122611)
(-3.51003e-08 7.46801e-08 -0.000122262)
(-5.35483e-08 -3.67406e-08 -0.000127286)
(-5.66129e-08 -4.25448e-08 -0.000127701)
(4.97174e-08 7.28554e-08 -0.000128235)
(4.2003e-08 6.49735e-08 -0.000127926)
(-8.34612e-08 -5.57805e-08 -0.000128232)
(-7.77527e-08 -4.89478e-08 -0.00012784)
(-7.65283e-08 -3.65642e-08 -0.000121535)
(-8.31081e-08 -4.51154e-08 -0.000122007)
(8.17501e-08 -3.86036e-08 -0.00012154)
(8.67377e-08 -4.6517e-08 -0.00012201)
(-8.51791e-08 -4.50545e-08 -0.000122574)
(-8.91997e-08 -4.08135e-08 -0.000122116)
(8.75101e-08 -4.59601e-08 -0.000122575)
(9.23502e-08 -4.2014e-08 -0.00012212)
(-2.94115e-08 3.99297e-08 -0.000127382)
(-3.58717e-08 4.49834e-08 -0.000127717)
(5.84886e-08 -3.93809e-08 -0.000127297)
(5.96954e-08 -4.41782e-08 -0.000127708)
(-4.94989e-08 7.25067e-08 -0.000128233)
(-4.08559e-08 6.28176e-08 -0.000127922)
(8.50387e-08 -5.66294e-08 -0.000128237)
(8.0625e-08 -5.04679e-08 -0.000127848)
(-1.00338e-07 5.98203e-08 -0.000128349)
(-6.97146e-08 4.68763e-08 -0.000128696)
(5.13707e-08 -8.46994e-08 -0.000128434)
(4.0665e-08 -5.8336e-08 -0.000128701)
(-2.73756e-08 2.31451e-08 -0.000129086)
(-7.17528e-08 4.34791e-08 -0.000128805)
(1.81992e-08 -1.89857e-08 -0.000129075)
(3.61187e-08 -5.89319e-08 -0.000128873)
(9.11785e-08 4.06081e-08 -0.000122666)
(7.05824e-08 3.86312e-08 -0.000123094)
(-2.45565e-08 1.94937e-08 -0.000123566)
(-6.25455e-08 2.85922e-08 -0.000123183)
(2.47091e-08 1.95031e-08 -0.000123562)
(6.40341e-08 2.92945e-08 -0.000123178)
(-5.09906e-08 -8.39081e-08 -0.000128436)
(-3.72e-08 -5.19162e-08 -0.000128706)
(2.64906e-08 2.25525e-08 -0.000129087)
(6.78357e-08 4.11451e-08 -0.000128803)
(-2.00805e-08 -2.19322e-08 -0.000129081)
(-3.52037e-08 -5.73357e-08 -0.000128876)
(3.38849e-08 7.41552e-08 -0.000122795)
(3.16866e-08 5.43274e-08 -0.000123117)
(1.48643e-08 -1.3996e-08 -0.00012356)
(2.24723e-08 -4.73234e-08 -0.00012328)
(1.40675e-08 1.18794e-08 -0.000123567)
(2.17935e-08 4.55494e-08 -0.000123286)
(-3.43618e-08 -7.53978e-08 -0.00012279)
(-3.12318e-08 -5.30439e-08 -0.000123113)
(-3.34063e-08 7.29569e-08 -0.000122797)
(-3.12837e-08 5.33058e-08 -0.000123119)
(-1.52486e-08 -1.51128e-08 -0.000123561)
(-2.13911e-08 -4.46643e-08 -0.000123279)
(-1.39877e-08 1.16674e-08 -0.000123569)
(-2.14324e-08 4.46773e-08 -0.000123288)
(-9.70337e-08 -5.79941e-08 -0.000128359)
(-6.57826e-08 -4.51044e-08 -0.000128708)
(1.67931e-08 1.63927e-08 -0.000129072)
(3.48555e-08 5.66221e-08 -0.000128869)
(-2.47354e-08 -2.16871e-08 -0.000129099)
(-6.88437e-08 -4.15308e-08 -0.000128813)
(-8.61159e-08 -3.86182e-08 -0.000122673)
(-6.43507e-08 -3.6187e-08 -0.000123105)
(8.81713e-08 -3.94087e-08 -0.000122676)
(6.60432e-08 -3.68366e-08 -0.000123104)
(-2.08859e-08 -1.8092e-08 -0.000123572)
(-5.85193e-08 -2.69881e-08 -0.000123186)
(2.20178e-08 -1.85276e-08 -0.000123571)
(5.98469e-08 -2.74861e-08 -0.000123187)
(-5.0327e-08 8.28121e-08 -0.000128427)
(-3.95044e-08 5.62342e-08 -0.000128697)
(9.84534e-08 -5.87327e-08 -0.000128364)
(6.62999e-08 -4.54056e-08 -0.000128709)
(-1.70035e-08 1.67457e-08 -0.000129076)
(-3.48542e-08 5.65899e-08 -0.00012887)
(2.53523e-08 -2.20214e-08 -0.000129096)
(6.95147e-08 -4.186e-08 -0.000128814)
(-3.18842e-08 2.03547e-08 -0.000129176)
(-1.33211e-09 8.03386e-09 -0.000129426)
(1.50504e-08 -2.22362e-08 -0.000129229)
(5.27052e-09 3.38555e-09 -0.000129404)
(1.06989e-08 5.01194e-10 -0.000129728)
(-1.13363e-08 7.98432e-09 -0.000129507)
(2.58636e-10 1.1001e-08 -0.000129698)
(4.78707e-09 -4.95039e-09 -0.000129549)
(1.68364e-08 9.35337e-09 -0.000123629)
(-1.08382e-08 4.39284e-09 -0.000123981)
(2.65548e-08 -3.22549e-09 -0.000124352)
(1.17879e-08 -3.3068e-09 -0.000124043)
(-2.65613e-08 -3.19078e-09 -0.000124347)
(-1.20196e-08 -3.40505e-09 -0.000124036)
(-1.71874e-08 -2.57692e-08 -0.000129238)
(-6.38765e-09 1.28914e-09 -0.000129414)
(-1.25929e-08 -4.94966e-10 -0.000129727)
(1.21756e-08 8.6653e-09 -0.0001295)
(-1.26521e-09 9.04564e-09 -0.000129705)
(-5.1108e-09 -5.57247e-09 -0.000129558)
(3.80545e-09 2.7449e-09 -0.000123721)
(5.7165e-10 -1.98011e-08 -0.000123977)
(-3.06799e-09 2.56774e-08 -0.00012433)
(-6.54466e-09 2.01645e-08 -0.000124112)
(-4.05475e-09 -2.82284e-08 -0.000124337)
(-7.34289e-09 -2.23903e-08 -0.000124119)
(-5.49273e-09 -7.24442e-09 -0.000123715)
(-2.17098e-09 1.53197e-08 -0.000123973)
(-3.75778e-09 2.61401e-09 -0.000123723)
(-4.24726e-10 -2.02294e-08 -0.00012398)
(2.8482e-09 2.48393e-08 -0.000124331)
(5.82897e-09 1.8133e-08 -0.000124113)
(4.0401e-09 -2.82408e-08 -0.000124339)
(7.51905e-09 -2.28409e-08 -0.000124122)
(-2.98358e-08 -1.92037e-08 -0.000129186)
(1.16046e-09 -6.81448e-09 -0.000129439)
(-1.51749e-09 -1.42135e-08 -0.000129696)
(3.06275e-09 1.72216e-09 -0.000129546)
(1.25522e-08 4.43037e-10 -0.000129741)
(-9.5009e-09 -7.2632e-09 -0.000129517)
(-1.4367e-08 -8.41395e-09 -0.000123638)
(1.3968e-08 -3.20779e-09 -0.000123993)
(1.52162e-08 -8.74293e-09 -0.000123637)
(-1.36406e-08 -3.3232e-09 -0.000123991)
(2.8647e-08 4.01802e-09 -0.00012436)
(1.44867e-08 4.50255e-09 -0.000124046)
(-2.82561e-08 3.86509e-09 -0.000124357)
(-1.43002e-08 4.44136e-09 -0.000124045)
(-1.36498e-08 1.96262e-08 -0.000129229)
(-3.50365e-09 -6.691e-09 -0.000129406)
(3.07324e-08 -1.96434e-08 -0.000129184)
(-7.8925e-10 -7.00058e-09 -0.000129435)
(1.25611e-09 -1.37406e-08 -0.000129702)
(-2.90545e-09 1.40701e-09 -0.000129551)
(-1.24873e-08 4.14154e-10 -0.000129736)
(9.92454e-09 -7.44033e-09 -0.000129514)
(-6.34482e-10 1.34026e-09 -0.000129793)
(1.90056e-08 -4.89654e-09 -0.000129966)
(9.33375e-10 2.73858e-10 -0.000129827)
(-2.2506e-09 1.41046e-08 -0.000129931)
(2.74612e-08 -9.86495e-09 -0.000130147)
(7.80422e-09 -4.20598e-09 -0.000130012)
(-5.44544e-09 1.90185e-08 -0.000130109)
(-1.91813e-09 3.76329e-09 -0.00013004)
(-2.40583e-08 -9.66767e-09 -0.00012438)
(-3.13984e-08 -6.20164e-09 -0.000124627)
(2.92908e-08 -5.93485e-09 -0.000124831)
(2.54643e-08 -1.12259e-08 -0.000124643)
(-3.06209e-08 -6.42827e-09 -0.000124823)
(-2.63899e-08 -1.15247e-08 -0.000124636)
(-1.14406e-09 -4.42886e-11 -0.000129833)
(5.57794e-09 2.02877e-08 -0.00012994)
(-3.05082e-08 -1.16177e-08 -0.000130139)
(-1.34762e-08 -7.22456e-09 -0.000130003)
(4.19941e-09 1.72476e-08 -0.000130114)
(2.70425e-09 5.17394e-09 -0.000130047)
(-1.01593e-08 -2.5876e-08 -0.000124455)
(-3.64444e-09 -2.43236e-08 -0.000124607)
(-3.0602e-09 2.15549e-08 -0.00012479)
(-9.05346e-09 2.00411e-08 -0.000124693)
(-4.31417e-09 -2.46076e-08 -0.000124796)
(-1.01769e-08 -2.30253e-08 -0.000124699)
(8.95052e-09 2.26007e-08 -0.000124448)
(3.48062e-09 2.40305e-08 -0.000124603)
(1.01308e-08 -2.57821e-08 -0.000124458)
(3.62443e-09 -2.42871e-08 -0.00012461)
(2.47519e-09 1.99346e-08 -0.00012479)
(9.98957e-09 2.23556e-08 -0.000124693)
(4.11407e-09 -2.40994e-08 -0.000124799)
(1.01127e-08 -2.2873e-08 -0.000124702)
(7.95107e-10 -4.93792e-10 -0.000129802)
(2.07988e-08 5.81636e-09 -0.000129977)
(-7.63184e-09 -2.30986e-08 -0.000130106)
(-4.10423e-09 -7.81896e-09 -0.000130038)
(2.86985e-08 1.05028e-08 -0.000130159)
(8.95127e-09 4.85578e-09 -0.00013002)
(2.48243e-08 9.98652e-09 -0.000124391)
(3.28581e-08 6.8067e-09 -0.000124641)
(-2.46251e-08 9.9011e-09 -0.00012439)
(-3.31362e-08 6.98743e-09 -0.000124638)
(3.13154e-08 6.73958e-09 -0.000124839)
(2.74006e-08 1.20539e-08 -0.000124647)
(-3.12598e-08 6.69687e-09 -0.000124835)
(-2.76048e-08 1.21522e-08 -0.000124645)
(6.69652e-10 -3.24121e-09 -0.00012983)
(4.14611e-09 -1.76033e-08 -0.000129935)
(-6.68355e-10 -5.39103e-10 -0.000129798)
(-2.12069e-08 6.08568e-09 -0.000129973)
(7.16464e-09 -2.22328e-08 -0.000130112)
(3.89447e-09 -7.47442e-09 -0.000130043)
(-2.89949e-08 1.0659e-08 -0.000130153)
(-9.14743e-09 4.98897e-09 -0.000130016)
(1.50236e-08 -8.5103e-09 -0.000130179)
(2.83655e-08 -1.0777e-08 -0.000130292)
(-4.52312e-09 7.64346e-09 -0.000130204)
(-5.89536e-09 1.906e-08 -0.000130258)
(2.03993e-08 -7.04784e-09 -0.000130404)
(1.32969e-08 -8.09017e-09 -0.000130311)
(-2.36081e-09 1.14425e-08 -0.000130377)
(-3.96668e-09 5.4934e-09 -0.000130339)
(-2.68328e-08 -1.24005e-08 -0.00012481)
(-2.84227e-08 -5.84298e-09 -0.000124959)
(1.92276e-08 -2.78069e-09 -0.000125064)
(2.20216e-08 -1.08812e-08 -0.00012494)
(-2.02976e-08 -3.14928e-09 -0.000125056)
(-2.24212e-08 -1.10617e-08 -0.000124932)
(2.70326e-09 4.64662e-09 -0.000130211)
(4.28073e-09 1.59167e-08 -0.000130264)
(-2.20555e-08 -8.00669e-09 -0.000130397)
(-1.15083e-08 -7.14757e-09 -0.0001303)
(9.58228e-10 8.81385e-09 -0.00013038)
(3.22909e-09 4.05947e-09 -0.000130345)
(-1.1153e-08 -2.38062e-08 -0.000124867)
(-4.29749e-09 -2.37589e-08 -0.000124932)
(-7.26914e-10 1.34925e-08 -0.00012503)
(-9.55414e-09 1.85533e-08 -0.000124983)
(-1.14716e-09 -1.46276e-08 -0.000125032)
(-1.02973e-08 -2.05417e-08 -0.000124986)
(8.92961e-09 1.80163e-08 -0.000124862)
(2.6907e-09 1.92447e-08 -0.000124928)
(1.09163e-08 -2.32489e-08 -0.000124871)
(4.33766e-09 -2.37881e-08 -0.000124934)
(2.65735e-10 1.21473e-08 -0.00012503)
(8.92102e-09 1.68402e-08 -0.000124984)
(1.17293e-09 -1.46495e-08 -0.000125034)
(1.03274e-08 -2.06284e-08 -0.000124991)
(1.57249e-08 8.91886e-09 -0.000130188)
(2.94317e-08 1.12989e-08 -0.000130305)
(-3.34978e-09 -1.32412e-08 -0.000130373)
(-5.6806e-09 -8.71471e-09 -0.000130335)
(2.01593e-08 6.87181e-09 -0.000130418)
(1.36586e-08 8.28454e-09 -0.000130322)
(2.65589e-08 1.23514e-08 -0.000124824)
(2.85046e-08 5.77353e-09 -0.000124977)
(-2.64888e-08 1.2321e-08 -0.000124822)
(-2.8848e-08 5.95043e-09 -0.000124973)
(1.85346e-08 2.40019e-09 -0.000125074)
(2.21009e-08 1.09036e-08 -0.000124947)
(-1.88381e-08 2.52048e-09 -0.00012507)
(-2.23252e-08 1.09995e-08 -0.000124946)
(6.34791e-09 -1.1061e-08 -0.000130207)
(7.75161e-09 -2.24466e-08 -0.00013026)
(-1.56288e-08 8.89458e-09 -0.000130185)
(-3.00129e-08 1.16179e-08 -0.000130299)
(3.36115e-09 -1.32302e-08 -0.000130377)
(5.69118e-09 -8.77864e-09 -0.000130342)
(-2.06549e-08 7.13639e-09 -0.000130411)
(-1.37291e-08 8.33455e-09 -0.000130319)
(3.9893e-09 -3.75151e-09 -0.000130406)
(1.07571e-08 -2.52102e-09 -0.000130478)
(2.75248e-10 -3.58705e-09 -0.000130436)
(2.32926e-09 1.68275e-09 -0.000130457)
(4.10793e-09 2.66626e-10 -0.00013052)
(-5.18341e-09 5.4121e-10 -0.000130456)
(4.66843e-09 -3.12591e-09 -0.000130501)
(4.76876e-09 -1.3101e-08 -0.000130487)
(-1.40789e-08 -8.41844e-09 -0.000125014)
(-9.20393e-09 5.87014e-10 -0.000125117)
(2.66111e-09 2.79037e-09 -0.000125165)
(4.14177e-09 -4.9835e-09 -0.000125063)
(-4.63859e-09 2.02759e-09 -0.000125154)
(-3.32319e-09 -4.56689e-09 -0.000125057)
(-8.93019e-10 -4.49796e-09 -0.000130443)
(-2.80375e-10 5.37165e-09 -0.000130464)
(-7.89207e-09 -1.28235e-09 -0.000130509)
(2.91392e-09 -4.4743e-10 -0.000130448)
(-5.65479e-09 -4.61691e-09 -0.000130499)
(-4.8184e-09 -1.3462e-08 -0.000130496)
(-6.64502e-09 -9.96493e-09 -0.000125068)
(3.14898e-09 -2.35501e-09 -0.000125102)
(5.82107e-09 -5.16606e-09 -0.000125143)
(-2.61906e-09 -1.87987e-09 -0.000125111)
(5.83704e-09 5.20573e-09 -0.000125144)
(-2.65286e-09 1.79882e-09 -0.000125113)
(5.73208e-09 7.66792e-09 -0.000125068)
(-2.57643e-09 3.76878e-09 -0.000125101)
(6.53663e-09 -9.77517e-09 -0.000125073)
(-3.04881e-09 -2.55788e-09 -0.000125103)
(-5.98213e-09 -5.64409e-09 -0.000125138)
(3.33589e-09 -1.70398e-10 -0.000125113)
(-5.78356e-09 5.18224e-09 -0.000125143)
(2.59699e-09 1.82353e-09 -0.000125119)