/*--------------------------------*- C++ -*----------------------------------*\
| =========                 |                                                 |
| \\      /  F ield         | OpenFOAM: The Open Source CFD Toolbox           |
|  \\    /   O peration     | Version:  2206                                  |
|   \\  /    A nd           | Website:  www.openfoam.com                      |
|    \\/     M anipulation  |                                                 |
\*---------------------------------------------------------------------------*/
FoamFile
{
    version     2.0;
    format      ascii;
    arch        "LSB;label=32;scalar=64";
    class       volScalarField;
    location    "0.4";
    object      k;
}
// * * * * * * * * * * * * * * * * * * * * * * * * * * * * * * * * * * * * * //

dimensions      [0 2 -2 0 0 0 0];

internalField   nonuniform List<scalar> 
67442
(
2.0632e-05
2.79885e-05
2.77076e-05
3.17748e-05
3.17638e-05
2.77017e-05
2.77004e-05
3.17408e-05
2.80078e-05
2.79966e-05
2.7992e-05
3.1772e-05
2.77194e-05
2.16804e-05
4.43585e-05
1.40865e-05
2.10799e-05
4.3229e-05
2.06291e-05
2.06322e-05
2.06331e-05
4.18451e-05
2.34705e-05
4.30395e-05
1.37986e-05
2.30453e-05
4.24284e-05
4.30535e-05
2.88146e-05
2.9291e-05
1.40964e-05
1.38177e-05
2.92735e-05
2.87612e-05
2.16545e-05
4.43362e-05
4.2389e-05
2.3014e-05
4.30556e-05
4.23802e-05
2.30106e-05
4.3041e-05
2.92339e-05
2.87892e-05
1.38121e-05
4.18665e-05
2.34757e-05
4.30422e-05
2.10519e-05
4.32181e-05
2.34749e-05
4.1819e-05
4.3033e-05
2.10594e-05
4.32203e-05
2.34729e-05
4.18337e-05
4.30373e-05
2.10566e-05
4.32179e-05
2.87383e-05
2.93084e-05
1.41113e-05
2.30465e-05
4.24526e-05
4.30553e-05
2.1671e-05
4.43334e-05
2.16828e-05
4.43331e-05
1.38155e-05
1.41192e-05
1.29765e-05
2.16655e-05
2.9852e-05
2.98345e-05
1.29823e-05
1.71805e-05
4.43465e-05
1.87724e-05
4.18348e-05
1.87587e-05
4.1817e-05
1.7194e-05
1.40751e-05
1.67973e-05
4.32345e-05
4.0732e-05
1.83258e-05
1.25919e-05
2.10491e-05
2.8956e-05
2.89178e-05
1.2612e-05
1.26116e-05
2.10795e-05
2.89544e-05
1.67626e-05
4.32074e-05
4.07311e-05
1.83255e-05
4.06991e-05
1.82878e-05
1.67976e-05
1.37793e-05
1.37993e-05
3.92695e-05
4.26395e-05
2.87794e-05
2.06837e-05
4.26384e-05
2.06535e-05
3.93112e-05
3.90037e-05
4.26804e-05
2.92658e-05
2.07363e-05
4.26796e-05
2.07138e-05
3.90447e-05
2.15697e-05
1.19887e-05
1.20349e-05
1.19727e-05
1.20205e-05
2.16104e-05
1.40853e-05
1.37976e-05
1.38175e-05
3.93784e-05
4.27576e-05
2.92489e-05
2.0907e-05
2.08847e-05
4.27578e-05
3.94156e-05
3.88085e-05
4.24857e-05
2.87253e-05
2.04579e-05
2.04281e-05
4.24819e-05
3.88508e-05
2.15474e-05
1.20449e-05
1.19492e-05
1.2031e-05
1.19331e-05
2.15866e-05
1.29559e-05
2.16384e-05
2.98106e-05
2.97908e-05
1.29624e-05
1.71625e-05
4.43255e-05
1.87637e-05
4.17909e-05
1.87493e-05
4.17744e-05
1.71768e-05
3.89213e-05
4.2646e-05
2.92066e-05
2.07143e-05
2.06969e-05
4.26447e-05
3.89602e-05
3.9143e-05
4.2506e-05
2.87537e-05
2.06765e-05
4.25093e-05
2.06381e-05
3.91496e-05
2.16167e-05
1.20452e-05
1.20022e-05
1.20287e-05
1.19864e-05
2.16473e-05
1.37923e-05
1.6787e-05
4.32248e-05
1.83203e-05
4.07043e-05
1.25786e-05
2.10211e-05
2.89185e-05
2.88805e-05
1.25986e-05
1.25984e-05
2.10515e-05
2.89174e-05
1.67519e-05
4.31963e-05
1.83198e-05
4.07005e-05
1.82822e-05
4.06683e-05
1.67868e-05
1.25798e-05
2.10289e-05
2.89257e-05
2.88882e-05
1.25995e-05
1.67529e-05
4.3198e-05
4.07078e-05
1.83195e-05
4.0677e-05
1.82818e-05
1.67874e-05
1.25786e-05
2.10258e-05
2.89189e-05
2.88811e-05
1.25987e-05
1.67513e-05
4.31954e-05
1.83181e-05
4.07017e-05
1.82803e-05
4.06701e-05
1.67863e-05
3.88273e-05
4.25205e-05
2.87037e-05
2.04763e-05
2.04467e-05
4.25165e-05
3.88699e-05
3.92969e-05
4.27006e-05
2.92792e-05
2.09739e-05
4.27009e-05
2.09402e-05
3.93191e-05
2.16396e-05
1.1985e-05
1.21042e-05
1.19685e-05
1.20839e-05
2.17003e-05
1.40993e-05
1.29596e-05
2.1655e-05
2.98217e-05
2.98023e-05
1.29657e-05
1.71594e-05
4.43244e-05
4.1797e-05
1.87552e-05
4.17821e-05
1.87413e-05
1.71733e-05
1.29625e-05
2.16672e-05
2.98321e-05
2.98133e-05
1.29688e-05
1.71619e-05
4.4324e-05
4.18019e-05
1.8755e-05
4.17865e-05
1.87414e-05
1.71757e-05
1.37955e-05
1.4108e-05
1.89418e-05
1.90439e-05
1.83058e-05
4.2225e-05
3.83358e-05
3.8254e-05
3.18013e-05
3.83817e-05
3.82932e-05
4.22211e-05
4.21866e-05
3.8255e-05
3.82886e-05
3.17885e-05
3.82906e-05
3.83309e-05
4.21832e-05
4.20891e-05
3.82372e-05
3.82344e-05
3.17668e-05
3.82791e-05
3.82727e-05
4.20822e-05
4.21392e-05
3.83436e-05
3.82334e-05
3.17971e-05
3.82653e-05
3.83836e-05
4.21305e-05
1.89414e-05
1.90431e-05
1.83058e-05
1.90362e-05
1.8951e-05
1.83059e-05
1.90362e-05
1.89497e-05
1.83059e-05
3.78205e-05
4.10588e-05
4.18174e-05
4.40551e-05
4.10952e-05
4.40496e-05
3.77796e-05
3.53469e-05
4.3072e-05
4.38775e-05
3.37536e-05
4.38989e-05
3.38261e-05
3.52853e-05
3.75874e-05
4.1094e-05
4.24092e-05
4.44571e-05
4.11165e-05
4.44535e-05
3.75744e-05
3.495e-05
4.30709e-05
3.33218e-05
4.40609e-05
3.33404e-05
4.40735e-05
3.49349e-05
3.75618e-05
4.10495e-05
4.23716e-05
4.44463e-05
4.44441e-05
4.10692e-05
3.75493e-05
3.49268e-05
4.3071e-05
4.40665e-05
3.3317e-05
4.40773e-05
3.33345e-05
3.49135e-05
3.75538e-05
4.10414e-05
4.23619e-05
4.44207e-05
4.44176e-05
4.10617e-05
3.75414e-05
3.49153e-05
4.30563e-05
4.40372e-05
3.33102e-05
4.4047e-05
3.33281e-05
3.4902e-05
3.78498e-05
4.10992e-05
4.1837e-05
4.40877e-05
4.40813e-05
4.11315e-05
3.78105e-05
3.53615e-05
4.30766e-05
4.38969e-05
3.37572e-05
4.39199e-05
3.3828e-05
3.53004e-05
3.78303e-05
4.10583e-05
4.17895e-05
4.40472e-05
4.40408e-05
4.10896e-05
3.77919e-05
3.53489e-05
4.30667e-05
3.37543e-05
4.38716e-05
3.38249e-05
4.38924e-05
3.52893e-05
3.78267e-05
4.10657e-05
4.18038e-05
4.40469e-05
4.10989e-05
4.40397e-05
3.77873e-05
3.53502e-05
4.30701e-05
3.3755e-05
4.38744e-05
3.38279e-05
4.38941e-05
3.52891e-05
3.76049e-05
4.1126e-05
4.24345e-05
4.44698e-05
4.11474e-05
4.44684e-05
3.75926e-05
3.49564e-05
4.30714e-05
3.33237e-05
4.40688e-05
3.33418e-05
4.4079e-05
3.49421e-05
4.2742e-06
1.03076e-06
1.89479e-07
6.37647e-08
3.52331e-07
4.21111e-06
1.02493e-06
1.90182e-07
6.76829e-08
3.82573e-07
4.202e-06
1.01345e-06
1.86455e-07
6.34959e-08
3.52578e-07
4.15709e-06
1.01181e-06
1.87914e-07
6.7503e-08
3.82879e-07
4.21511e-06
1.02596e-06
1.90387e-07
6.77465e-08
3.82804e-07
4.16244e-06
1.01308e-06
1.8812e-07
6.75175e-08
3.8286e-07
4.2685e-06
1.02937e-06
1.89216e-07
6.37195e-08
3.52218e-07
4.16252e-06
1.01316e-06
1.88157e-07
6.7549e-08
3.83008e-07
4.19648e-06
1.01213e-06
1.86229e-07
6.34639e-08
3.52548e-07
4.19781e-06
1.01248e-06
1.86299e-07
6.34896e-08
3.52635e-07
4.1975e-06
1.01236e-06
1.86289e-07
6.34988e-08
3.52684e-07
4.22063e-06
1.02733e-06
1.90623e-07
6.77668e-08
3.82839e-07
4.27237e-06
1.03036e-06
1.89396e-07
6.3751e-08
3.52322e-07
4.27452e-06
1.03088e-06
1.8949e-07
6.37524e-08
3.52295e-07
4.16341e-06
1.01334e-06
1.88184e-07
6.75348e-08
3.82922e-07
4.22116e-06
1.02743e-06
1.90625e-07
6.77418e-08
3.82709e-07
4.19032e-06
1.02028e-06
1.89368e-07
6.72999e-08
3.8012e-07
4.27461e-06
1.03108e-06
1.89549e-07
6.38035e-08
3.52587e-07
4.21024e-06
1.02493e-06
1.90191e-07
6.76863e-08
3.82593e-07
4.03271e-06
9.75159e-07
1.80434e-07
6.46952e-08
3.66566e-07
4.13798e-06
1.00218e-06
1.85493e-07
6.59544e-08
3.72614e-07
4.1067e-06
1.00006e-06
1.85795e-07
6.67418e-08
3.78468e-07
4.20025e-06
1.01336e-06
1.86451e-07
6.3466e-08
3.52341e-07
4.20194e-06
1.01344e-06
1.86453e-07
6.34959e-08
3.5258e-07
4.15502e-06
1.01162e-06
1.87886e-07
6.74571e-08
3.8253e-07
4.15737e-06
1.01189e-06
1.87928e-07
6.75018e-08
3.82859e-07
4.21519e-06
1.01387e-06
1.86426e-07
6.39427e-08
3.5616e-07
4.21278e-06
1.01357e-06
1.86379e-07
6.38852e-08
3.55733e-07
4.22488e-06
1.01619e-06
1.86821e-07
6.39472e-08
3.55884e-07
4.22346e-06
1.01608e-06
1.86807e-07
6.39205e-08
3.55678e-07
3.79296e-06
9.24176e-07
1.72549e-07
6.5781e-08
3.81058e-07
3.79847e-06
9.25572e-07
1.72794e-07
6.57993e-08
3.8102e-07
3.79081e-06
9.2392e-07
1.72508e-07
6.57263e-08
3.80649e-07
3.79669e-06
9.25389e-07
1.72767e-07
6.57562e-08
3.80694e-07
4.21437e-06
1.02598e-06
1.90402e-07
6.77505e-08
3.82824e-07
4.16011e-06
1.01282e-06
1.88082e-07
6.74693e-08
3.825e-07
4.16239e-06
1.01307e-06
1.88119e-07
6.75179e-08
3.82864e-07
4.26874e-06
1.02965e-06
1.89281e-07
6.37578e-08
3.52474e-07
4.21401e-06
1.01368e-06
1.86412e-07
6.39404e-08
3.56151e-07
4.21126e-06
1.01332e-06
1.86354e-07
6.38874e-08
3.55768e-07
3.7982e-06
9.2553e-07
1.7279e-07
6.5804e-08
3.81055e-07
3.79567e-06
9.25176e-07
1.72733e-07
6.57559e-08
3.8071e-07
4.16014e-06
1.01288e-06
1.88114e-07
6.75013e-08
3.82656e-07
4.03046e-06
9.7459e-07
1.80339e-07
6.46872e-08
3.66574e-07
4.13675e-06
1.00188e-06
1.85439e-07
6.59476e-08
3.72602e-07
4.10207e-06
9.98895e-07
1.85593e-07
6.67117e-08
3.78436e-07
4.19474e-06
1.01205e-06
1.86224e-07
6.34335e-08
3.52306e-07
4.19644e-06
1.01213e-06
1.86227e-07
6.34623e-08
3.52537e-07
4.19609e-06
1.0124e-06
1.86297e-07
6.34609e-08
3.52405e-07
4.10214e-06
9.98937e-07
1.85604e-07
6.67284e-08
3.78497e-07
4.19575e-06
1.01227e-06
1.86285e-07
6.34683e-08
3.52442e-07
4.25887e-06
1.02438e-06
1.88266e-07
6.41325e-08
3.56158e-07
4.25586e-06
1.0239e-06
1.88192e-07
6.41088e-08
3.56024e-07
3.82271e-06
9.31466e-07
1.73829e-07
6.59207e-08
3.81114e-07
4.21956e-06
1.02728e-06
1.90625e-07
6.77709e-08
3.82869e-07
4.18476e-06
1.01891e-06
1.89128e-07
6.72684e-08
3.80063e-07
4.27272e-06
1.03068e-06
1.89468e-07
6.37921e-08
3.52595e-07
4.18582e-06
1.01919e-06
1.89175e-07
6.72661e-08
3.8003e-07
4.27487e-06
1.03118e-06
1.8956e-07
6.3792e-08
3.52559e-07
4.16106e-06
1.01307e-06
1.88142e-07
6.74858e-08
3.82559e-07
4.22044e-06
1.02746e-06
1.9064e-07
6.77462e-08
3.82731e-07
4.18324e-06
1.01857e-06
1.8906e-07
6.72605e-08
3.80052e-07
4.10238e-06
9.99008e-07
1.85614e-07
6.67186e-08
3.78449e-07
4.06763e-06
9.83672e-07
1.81897e-07
6.46846e-08
3.65402e-07
4.17309e-06
1.0106e-06
1.86918e-07
6.59024e-08
3.71174e-07
4.1724e-06
1.01059e-06
1.86924e-07
6.58994e-08
3.71144e-07
4.06824e-06
9.83642e-07
1.81882e-07
6.46819e-08
3.65394e-07
4.18991e-06
1.01999e-06
1.89303e-07
6.72594e-08
3.79847e-07
4.22106e-06
1.01543e-06
1.86712e-07
6.39506e-08
3.55961e-07
4.21898e-06
1.01513e-06
1.86664e-07
6.39141e-08
3.55704e-07
3.80233e-06
9.26567e-07
1.72982e-07
6.58367e-08
3.81098e-07
3.79987e-06
9.26205e-07
1.72922e-07
6.57866e-08
3.8074e-07
4.1092e-06
1.00032e-06
1.85831e-07
6.67947e-08
3.78867e-07
4.02886e-06
9.74564e-07
1.8033e-07
6.45975e-08
3.65859e-07
4.13787e-06
1.00214e-06
1.85485e-07
6.59536e-08
3.72614e-07
4.13391e-06
1.00154e-06
1.85378e-07
6.58483e-08
3.71849e-07
4.03269e-06
9.75131e-07
1.80427e-07
6.46944e-08
3.66565e-07
4.10913e-06
1.00032e-06
1.85833e-07
6.67951e-08
3.78869e-07
4.18704e-06
1.00738e-06
1.85329e-07
6.38268e-08
3.5605e-07
4.18476e-06
1.00713e-06
1.85289e-07
6.37615e-08
3.55554e-07
3.78999e-06
9.23377e-07
1.72406e-07
6.57626e-08
3.81006e-07
3.78823e-06
9.23234e-07
1.72383e-07
6.57008e-08
3.80526e-07
4.24529e-06
1.02089e-06
1.87642e-07
6.40586e-08
3.56098e-07
4.24391e-06
1.02079e-06
1.87631e-07
6.40332e-08
3.55901e-07
3.80277e-06
9.26574e-07
1.72967e-07
6.58045e-08
3.80962e-07
3.80111e-06
9.26405e-07
1.72942e-07
6.5764e-08
3.80655e-07
4.18327e-06
1.00637e-06
1.85142e-07
6.37993e-08
3.56018e-07
4.18088e-06
1.00608e-06
1.85096e-07
6.37405e-08
3.5558e-07
3.77891e-06
9.20763e-07
1.7196e-07
6.57172e-08
3.8103e-07
3.7768e-06
9.20508e-07
1.71918e-07
6.56619e-08
3.80617e-07
4.06322e-06
9.82652e-07
1.81717e-07
6.46787e-08
3.65441e-07
4.17113e-06
1.01017e-06
1.86849e-07
6.59133e-08
3.71254e-07
4.17029e-06
1.01012e-06
1.86848e-07
6.59085e-08
3.71215e-07
4.06394e-06
9.82635e-07
1.81705e-07
6.46777e-08
3.65445e-07
4.18292e-06
1.01828e-06
1.88992e-07
6.72206e-08
3.79787e-07
4.02658e-06
9.73992e-07
1.80235e-07
6.45897e-08
3.65869e-07
4.13662e-06
1.00184e-06
1.85431e-07
6.59469e-08
3.72603e-07
4.13267e-06
1.00123e-06
1.85325e-07
6.58415e-08
3.71837e-07
4.03037e-06
9.7455e-07
1.8033e-07
6.46866e-08
3.66576e-07
4.10454e-06
9.9915e-07
1.85628e-07
6.67647e-08
3.78836e-07
4.10452e-06
9.99158e-07
1.85631e-07
6.67646e-08
3.78833e-07
4.10469e-06
9.99219e-07
1.85642e-07
6.67693e-08
3.78837e-07
4.02634e-06
9.739e-07
1.80212e-07
6.45675e-08
3.65773e-07
4.1364e-06
1.00172e-06
1.85417e-07
6.59267e-08
3.72536e-07
4.13241e-06
1.00109e-06
1.85306e-07
6.58211e-08
3.71772e-07
4.03001e-06
9.74427e-07
1.80302e-07
6.46629e-08
3.66472e-07
4.02618e-06
9.7386e-07
1.80199e-07
6.45708e-08
3.65784e-07
4.13603e-06
1.00164e-06
1.85389e-07
6.59245e-08
3.72519e-07
4.13203e-06
1.00101e-06
1.85279e-07
6.58184e-08
3.71751e-07
4.02989e-06
9.74395e-07
1.8029e-07
6.46676e-08
3.66493e-07
4.10452e-06
9.99156e-07
1.85633e-07
6.6781e-08
3.789e-07
3.81965e-06
9.31042e-07
1.73766e-07
6.58888e-08
3.80903e-07
4.1843e-06
1.01859e-06
1.89054e-07
6.72249e-08
3.79773e-07
4.0624e-06
9.82394e-07
1.81675e-07
6.46635e-08
3.65376e-07
4.16916e-06
1.00965e-06
1.86758e-07
6.58975e-08
3.71196e-07
4.16841e-06
1.00962e-06
1.86758e-07
6.58869e-08
3.71142e-07
4.06303e-06
9.82359e-07
1.81661e-07
6.46676e-08
3.65392e-07
4.18542e-06
1.01889e-06
1.89104e-07
6.72244e-08
3.79752e-07
4.0629e-06
9.82571e-07
1.81702e-07
6.46737e-08
3.65413e-07
4.16917e-06
1.00968e-06
1.86763e-07
6.58994e-08
3.71211e-07
4.16848e-06
1.00967e-06
1.86769e-07
6.5898e-08
3.71194e-07
4.0635e-06
9.82529e-07
1.81684e-07
6.46697e-08
3.65397e-07
2.79964e-05
3.17933e-05
2.77074e-05
2.06322e-05
4.31993e-05
2.3476e-05
4.30799e-05
2.10217e-05
4.31901e-05
2.34748e-05
4.17949e-05
4.3071e-05
1.37785e-05
2.87029e-05
1.67971e-05
4.32235e-05
4.06916e-05
1.82876e-05
4.07221e-05
1.83253e-05
1.67627e-05
1.25983e-05
2.10525e-05
2.8881e-05
2.89184e-05
1.2579e-05
1.67865e-05
4.32164e-05
1.82818e-05
4.06646e-05
1.83196e-05
4.06997e-05
1.67518e-05
1.37973e-05
3.88918e-05
4.25139e-05
2.8739e-05
2.0447e-05
4.25144e-05
2.04735e-05
3.88425e-05
3.92971e-05
4.27026e-05
4.27032e-05
3.92691e-05
2.17301e-05
1.19669e-05
1.19785e-05
2.16733e-05
4.21255e-05
3.17686e-05
3.83843e-05
3.82676e-05
3.83431e-05
3.82316e-05
4.21336e-05
1.90439e-05
1.83059e-05
1.90362e-05
1.89515e-05
1.83059e-05
3.5304e-05
4.30506e-05
4.39183e-05
3.38337e-05
4.38998e-05
3.37634e-05
3.53633e-05
3.77925e-05
4.10879e-05
4.1822e-05
4.40414e-05
4.40478e-05
4.10555e-05
3.78294e-05
3.52934e-05
4.30416e-05
3.38308e-05
4.38943e-05
3.37605e-05
4.38768e-05
3.53519e-05
3.75718e-05
4.11119e-05
4.10885e-05
3.75853e-05
3.17854e-05
2.77017e-05
2.80074e-05
2.0632e-05
1.40855e-05
1.37979e-05
2.92494e-05
2.87258e-05
2.16643e-05
4.43483e-05
4.2376e-05
2.30141e-05
4.30718e-05
2.10498e-05
4.18421e-05
1.40968e-05
1.38181e-05
3.9425e-05
4.27596e-05
2.92739e-05
2.08855e-05
2.09079e-05
4.27589e-05
3.93912e-05
3.88597e-05
4.24831e-05
2.87612e-05
2.04286e-05
2.04585e-05
4.24845e-05
3.88213e-05
2.15918e-05
1.20314e-05
1.19334e-05
1.20457e-05
1.19499e-05
2.15509e-05
1.2982e-05
2.16809e-05
2.98351e-05
2.98537e-05
1.29759e-05
1.71945e-05
4.43578e-05
1.87583e-05
4.18213e-05
1.87725e-05
4.18358e-05
1.71805e-05
1.26118e-05
2.10805e-05
2.89183e-05
2.89554e-05
1.25925e-05
4.21847e-05
3.17617e-05
3.82868e-05
3.83264e-05
3.82497e-05
3.8283e-05
4.21908e-05
1.89418e-05
3.75473e-05
4.10691e-05
4.23926e-05
4.44445e-05
4.10458e-05
4.44464e-05
3.75611e-05
3.49137e-05
4.30581e-05
4.40759e-05
3.33366e-05
4.40661e-05
3.33182e-05
3.49272e-05
3.78096e-05
4.11278e-05
4.18682e-05
4.40821e-05
4.10938e-05
4.40879e-05
3.78471e-05
4.1949e-06
1.01209e-06
1.86234e-07
6.34356e-08
3.52315e-07
4.15478e-06
1.01156e-06
1.87879e-07
6.74589e-08
3.8255e-07
4.10458e-06
9.99166e-07
1.85632e-07
6.67651e-08
3.78836e-07
4.19649e-06
1.01213e-06
1.86226e-07
6.34644e-08
3.52554e-07
4.15662e-06
1.0117e-06
1.87894e-07
6.75029e-08
3.82895e-07
4.03271e-06
9.75149e-07
1.80431e-07
6.46945e-08
3.66563e-07
4.13394e-06
1.00155e-06
1.85381e-07
6.5848e-08
3.71844e-07
4.13779e-06
1.00212e-06
1.8548e-07
6.59527e-08
3.72611e-07
4.02891e-06
9.74571e-07
1.8033e-07
6.45968e-08
3.65854e-07
4.03036e-06
9.74557e-07
1.80332e-07
6.46865e-08
3.66574e-07
4.13267e-06
1.00124e-06
1.85327e-07
6.58411e-08
3.71832e-07
4.13651e-06
1.00181e-06
1.85425e-07
6.59459e-08
3.726e-07
4.02656e-06
9.73982e-07
1.80232e-07
6.4589e-08
3.65866e-07
4.10215e-06
9.98906e-07
1.85594e-07
6.67116e-08
3.78435e-07
4.18416e-06
1.00693e-06
1.8525e-07
6.37572e-08
3.5555e-07
4.18511e-06
1.00687e-06
1.8524e-07
6.38184e-08
3.56052e-07
3.7869e-06
9.22852e-07
1.72315e-07
6.57014e-08
3.80583e-07
3.7876e-06
9.22787e-07
1.72305e-07
6.57623e-08
3.81082e-07
4.21459e-06
1.02605e-06
1.90415e-07
6.7751e-08
3.82816e-07
4.16028e-06
1.01287e-06
1.88091e-07
6.74694e-08
3.82493e-07
4.27452e-06
1.03108e-06
1.89553e-07
6.38031e-08
3.52581e-07
4.20042e-06
1.01341e-06
1.8646e-07
6.34662e-08
3.52335e-07
4.2152e-06
1.02597e-06
1.90389e-07
6.77463e-08
3.82802e-07
4.16251e-06
1.01308e-06
1.8812e-07
6.75172e-08
3.82858e-07
4.18986e-06
1.01998e-06
1.89302e-07
6.7259e-08
3.79845e-07
4.27412e-06
1.03073e-06
1.89472e-07
6.37636e-08
3.52328e-07
4.20202e-06
1.01345e-06
1.86452e-07
6.34953e-08
3.52575e-07
3.8012e-06
9.2643e-07
1.72947e-07
6.57636e-08
3.80648e-07
3.77686e-06
9.20527e-07
1.71922e-07
6.56614e-08
3.8061e-07
4.10927e-06
1.00035e-06
1.85836e-07
6.6795e-08
3.78866e-07
4.10682e-06
1.00008e-06
1.85797e-07
6.67413e-08
3.78463e-07
4.24408e-06
1.02084e-06
1.8764e-07
6.40333e-08
3.55894e-07
4.2453e-06
1.02089e-06
1.8764e-07
6.40579e-08
3.56095e-07
4.18101e-06
1.00611e-06
1.85103e-07
6.37404e-08
3.55573e-07
4.18323e-06
1.00634e-06
1.85137e-07
6.37984e-08
3.56015e-07
3.77893e-06
9.20747e-07
1.71956e-07
6.57164e-08
3.81028e-07
3.80285e-06
9.26571e-07
1.72965e-07
6.58038e-08
3.8096e-07
4.06827e-06
9.83642e-07
1.81882e-07
6.46814e-08
3.65391e-07
4.17234e-06
1.01059e-06
1.86924e-07
6.58989e-08
3.7114e-07
4.17298e-06
1.01055e-06
1.86909e-07
6.59012e-08
3.71172e-07
4.06752e-06
9.83637e-07
1.8189e-07
6.46832e-08
3.65397e-07
4.1902e-06
1.02026e-06
1.89366e-07
6.72991e-08
3.80116e-07
3.17718e-05
2.06257e-05
2.79883e-05
2.76927e-05
3.17705e-05
3.17887e-05
3.17616e-05
2.76675e-05
2.767e-05
3.17442e-05
2.80048e-05
2.79811e-05
2.79888e-05
3.17358e-05
2.77163e-05
2.88112e-05
2.92869e-05
3.18008e-05
2.87806e-05
2.92656e-05
4.41166e-05
2.16749e-05
4.43356e-05
1.40832e-05
1.40318e-05
2.10757e-05
4.32321e-05
2.06222e-05
2.06278e-05
2.06324e-05
4.18481e-05
2.34705e-05
2.80538e-05
4.30349e-05
1.37921e-05
2.30424e-05
4.24156e-05
4.30557e-05
2.88086e-05
2.92869e-05
1.38125e-05
1.37971e-05
1.41167e-05
1.41094e-05
3.17786e-05
2.8778e-05
2.92666e-05
2.88145e-05
2.92899e-05
1.37978e-05
1.38115e-05
1.41095e-05
1.41179e-05
1.40923e-05
1.3813e-05
2.92717e-05
2.87591e-05
4.40953e-05
2.16562e-05
2.15179e-05
4.43164e-05
4.32168e-05
4.23839e-05
2.29439e-05
2.31594e-05
4.30417e-05
4.32045e-05
4.23763e-05
2.29402e-05
2.77347e-05
4.22678e-05
2.31603e-05
4.30296e-05
2.92274e-05
2.87911e-05
3.17587e-05
2.91244e-05
1.38077e-05
4.18692e-05
2.34772e-05
4.30422e-05
2.10474e-05
4.32207e-05
2.34725e-05
4.18127e-05
4.30327e-05
2.10548e-05
4.32193e-05
2.34727e-05
4.18334e-05
4.30324e-05
2.10525e-05
4.32176e-05
2.873e-05
2.9278e-05
1.41006e-05
2.30449e-05
4.24595e-05
4.30564e-05
2.167e-05
4.43392e-05
2.16868e-05
4.43383e-05
1.38094e-05
1.41164e-05
2.16038e-05
1.19728e-05
1.20199e-05
1.19848e-05
1.20306e-05
2.1568e-05
3.92644e-05
4.26396e-05
2.06785e-05
2.87779e-05
2.06533e-05
3.93071e-05
4.26344e-05
3.90056e-05
4.26767e-05
2.07313e-05
2.92632e-05
2.07109e-05
3.90408e-05
4.26761e-05
2.15668e-05
1.19852e-05
1.20311e-05
1.19721e-05
1.20193e-05
2.16064e-05
3.92901e-05
2.06533e-05
2.8813e-05
4.26326e-05
2.06777e-05
3.92519e-05
4.2638e-05
3.90293e-05
2.07106e-05
2.92872e-05
4.26736e-05
2.07301e-05
3.89922e-05
4.26753e-05
1.70191e-05
1.85174e-05
4.15726e-05
4.41847e-05
1.85702e-05
4.16445e-05
1.6974e-05
1.29645e-05
2.16969e-05
2.98504e-05
2.98257e-05
1.29763e-05
1.28934e-05
2.15846e-05
2.9686e-05
1.71148e-05
4.43036e-05
1.87462e-05
4.18213e-05
1.86754e-05
4.17831e-05
1.71825e-05
1.41033e-05
1.40535e-05
1.25952e-05
2.10502e-05
2.89518e-05
2.89187e-05
1.26065e-05
1.67655e-05
4.32123e-05
4.07337e-05
1.83198e-05
4.07042e-05
1.82908e-05
1.67929e-05
1.37809e-05
3.92692e-05
4.26377e-05
2.0677e-05
2.87765e-05
3.93088e-05
4.26361e-05
2.06539e-05
3.90083e-05
4.26758e-05
2.073e-05
2.92638e-05
3.90416e-05
4.26764e-05
2.07113e-05
2.15684e-05
1.19832e-05
1.20293e-05
2.16062e-05
1.19738e-05
1.20207e-05
1.37965e-05
1.38122e-05
1.41084e-05
1.41173e-05
2.15728e-05
1.1985e-05
1.20307e-05
2.16074e-05
1.19739e-05
1.20209e-05
3.93042e-05
4.26358e-05
2.06548e-05
2.88121e-05
3.92765e-05
2.06781e-05
4.26386e-05
3.90319e-05
4.26755e-05
2.07122e-05
2.92899e-05
3.90087e-05
2.07308e-05
4.26746e-05
2.161e-05
1.19743e-05
1.20212e-05
2.15728e-05
1.19844e-05
1.20303e-05
3.92617e-05
2.06776e-05
4.26363e-05
2.87809e-05
3.92876e-05
2.06543e-05
4.26335e-05
3.89942e-05
2.07302e-05
4.26731e-05
2.9268e-05
3.9021e-05
2.07117e-05
4.26734e-05
1.38102e-05
1.37976e-05
1.41173e-05
1.41099e-05
1.41123e-05
1.40639e-05
1.38019e-05
3.93815e-05
4.27589e-05
2.92607e-05
2.09044e-05
2.08856e-05
4.27593e-05
3.94187e-05
3.8812e-05
4.24893e-05
2.87276e-05
2.04542e-05
2.04309e-05
4.24839e-05
3.88542e-05
2.92554e-05
4.27549e-05
2.15488e-05
1.20429e-05
1.19465e-05
1.20329e-05
1.19363e-05
2.15863e-05
1.70039e-05
1.85084e-05
4.15327e-05
4.41638e-05
1.85612e-05
4.16053e-05
1.69589e-05
1.29489e-05
2.16784e-05
2.98175e-05
2.97928e-05
1.29605e-05
1.28788e-05
2.95932e-05
2.15686e-05
2.96554e-05
1.28636e-05
1.70995e-05
4.4284e-05
1.87376e-05
4.17835e-05
1.86664e-05
4.17462e-05
1.71676e-05
2.16959e-05
1.20449e-05
1.20411e-05
1.20032e-05
3.89214e-05
4.26523e-05
2.92173e-05
2.07031e-05
2.06899e-05
4.26499e-05
3.89578e-05
3.91659e-05
4.25193e-05
2.87606e-05
2.06792e-05
4.25213e-05
2.06457e-05
3.91702e-05
3.88886e-05
2.07105e-05
2.92042e-05
4.26259e-05
2.0755e-05
4.26332e-05
3.89296e-05
3.92487e-05
2.87881e-05
4.25326e-05
2.06478e-05
2.1615e-05
1.20383e-05
1.2e-05
1.2026e-05
1.19887e-05
2.16427e-05
1.3796e-05
1.38067e-05
1.25822e-05
2.10216e-05
2.89159e-05
2.88827e-05
1.25935e-05
1.67549e-05
4.32008e-05
1.83142e-05
4.07024e-05
1.82854e-05
4.06722e-05
1.67821e-05
1.67802e-05
4.32258e-05
4.07095e-05
1.83126e-05
1.25827e-05
2.10285e-05
2.89219e-05
2.88896e-05
1.25936e-05
1.25918e-05
2.10503e-05
2.892e-05
1.67548e-05
4.32001e-05
4.07062e-05
1.83133e-05
4.06779e-05
1.82845e-05
1.67814e-05
1.67795e-05
4.32228e-05
1.83113e-05
4.07031e-05
1.25818e-05
2.1027e-05
2.89158e-05
2.88834e-05
1.25929e-05
1.25914e-05
2.10502e-05
2.8915e-05
1.67537e-05
4.31981e-05
1.83121e-05
4.07021e-05
1.82833e-05
4.06725e-05
1.67808e-05
3.87604e-05
4.24719e-05
2.86978e-05
2.04633e-05
2.04387e-05
4.24695e-05
3.87984e-05
3.92058e-05
4.2626e-05
2.92545e-05
2.09382e-05
4.26265e-05
2.09136e-05
3.92249e-05
2.16217e-05
1.19782e-05
1.20856e-05
1.19673e-05
1.20713e-05
2.16793e-05
1.40931e-05
1.29645e-05
2.16591e-05
2.9824e-05
2.98065e-05
1.29648e-05
1.71618e-05
4.43296e-05
4.18024e-05
1.87569e-05
4.17876e-05
1.87435e-05
1.71746e-05
1.29671e-05
2.16739e-05
2.98364e-05
2.98189e-05
1.29681e-05
1.71637e-05
4.43284e-05
4.18066e-05
1.87563e-05
4.17908e-05
1.87433e-05
1.71764e-05
1.37983e-05
1.3809e-05
1.41095e-05
4.22224e-05
3.83341e-05
3.82513e-05
3.17988e-05
4.2218e-05
3.83802e-05
3.82904e-05
1.89325e-05
1.90451e-05
1.83074e-05
4.22213e-05
3.83303e-05
3.82475e-05
3.17984e-05
4.22166e-05
3.83762e-05
3.82863e-05
4.22094e-05
3.17734e-05
3.83654e-05
3.82755e-05
4.22188e-05
3.8329e-05
3.82451e-05
4.21904e-05
3.82563e-05
3.82916e-05
3.17875e-05
3.8291e-05
3.83339e-05
4.21884e-05
4.21011e-05
3.82458e-05
3.82444e-05
3.17689e-05
3.82876e-05
3.82778e-05
4.20964e-05
4.20434e-05
3.82853e-05
3.81687e-05
3.17608e-05
3.82003e-05
3.83253e-05
4.20306e-05
4.2213e-05
3.17785e-05
3.8379e-05
3.82902e-05
4.22148e-05
3.83418e-05
3.82596e-05
1.8929e-05
1.90443e-05
1.83071e-05
1.90365e-05
1.89499e-05
1.83074e-05
1.90372e-05
1.89493e-05
1.83073e-05
3.78182e-05
4.10624e-05
4.18214e-05
4.40549e-05
4.10989e-05
4.40509e-05
3.7778e-05
3.77872e-05
4.18339e-05
4.10749e-05
4.40554e-05
3.5343e-05
4.30652e-05
4.38743e-05
3.37512e-05
4.38945e-05
3.38211e-05
3.52827e-05
3.75735e-05
4.10627e-05
4.23967e-05
4.44534e-05
4.10851e-05
4.445e-05
3.75694e-05
3.49388e-05
4.30727e-05
3.33202e-05
4.40645e-05
3.33378e-05
4.4076e-05
3.49364e-05
4.22116e-05
3.17997e-05
3.83362e-05
3.82536e-05
4.22067e-05
3.83727e-05
3.82819e-05
3.52543e-05
4.40697e-05
3.38739e-05
4.3155e-05
4.4061e-05
3.37046e-05
3.54193e-05
3.75097e-05
4.10523e-05
4.24064e-05
4.44495e-05
4.44312e-05
4.10548e-05
3.7548e-05
3.77001e-05
4.23173e-05
4.43568e-05
4.10603e-05
3.49135e-05
4.3088e-05
4.40668e-05
3.32841e-05
4.40664e-05
3.33533e-05
3.49076e-05
3.52452e-05
4.40454e-05
3.38695e-05
4.31428e-05
4.40365e-05
3.37002e-05
3.54099e-05
3.75059e-05
4.10453e-05
4.23994e-05
4.44299e-05
4.44116e-05
4.10569e-05
3.75441e-05
3.76925e-05
4.43229e-05
4.23093e-05
4.11279e-05
4.43372e-05
3.78092e-05
4.10532e-05
3.49045e-05
4.30759e-05
4.40411e-05
3.32796e-05
4.40415e-05
3.33488e-05
3.48983e-05
4.20868e-05
3.17541e-05
3.82724e-05
3.82809e-05
3.82502e-05
3.82456e-05
4.207e-05
3.78511e-05
4.11017e-05
4.18402e-05
4.40904e-05
4.40837e-05
4.11345e-05
3.78108e-05
3.53623e-05
4.30771e-05
4.38981e-05
3.37549e-05
4.39209e-05
3.38276e-05
3.52997e-05
3.78217e-05
4.10333e-05
4.17842e-05
4.40454e-05
4.40385e-05
4.10655e-05
3.77822e-05
3.53459e-05
4.30668e-05
3.37513e-05
4.38715e-05
3.38238e-05
4.3892e-05
3.52849e-05
3.78233e-05
4.10628e-05
4.18046e-05
4.4047e-05
4.1097e-05
4.40399e-05
3.7784e-05
3.53451e-05
4.30631e-05
3.37525e-05
4.38709e-05
3.38226e-05
4.38898e-05
3.52856e-05
3.76005e-05
4.11246e-05
4.24416e-05
4.44739e-05
4.11476e-05
4.44707e-05
3.75954e-05
3.49472e-05
4.30724e-05
3.33219e-05
4.40703e-05
3.33389e-05
4.408e-05
3.49449e-05
2.06317e-05
2.79883e-05
2.77069e-05
3.17753e-05
2.06312e-05
2.79918e-05
2.77157e-05
3.17802e-05
2.06295e-05
2.80098e-05
2.77216e-05
3.18382e-05
2.06318e-05
2.80082e-05
2.77221e-05
3.1812e-05
2.06401e-05
2.80092e-05
2.77214e-05
3.18079e-05
2.06616e-05
2.80216e-05
2.77362e-05
3.18125e-05
2.06734e-05
2.80464e-05
2.77568e-05
3.1842e-05
2.06633e-05
2.80471e-05
2.77493e-05
3.18447e-05
2.06476e-05
2.80255e-05
2.77287e-05
3.18201e-05
2.06417e-05
2.80158e-05
2.77183e-05
3.18099e-05
2.06351e-05
2.79961e-05
2.77005e-05
3.17805e-05
2.06324e-05
2.79884e-05
2.76936e-05
3.17694e-05
2.06322e-05
2.79891e-05
2.76937e-05
3.17747e-05
2.06321e-05
2.79886e-05
2.76934e-05
3.17703e-05
2.0632e-05
2.79891e-05
2.76937e-05
3.17754e-05
2.06317e-05
2.79892e-05
2.76939e-05
3.17855e-05
2.77007e-05
2.76997e-05
3.17689e-05
2.80062e-05
2.79951e-05
2.79889e-05
2.79913e-05
3.17917e-05
2.7707e-05
2.77189e-05
3.17989e-05
3.17638e-05
3.17963e-05
2.77006e-05
2.7699e-05
2.77059e-05
2.76999e-05
3.17464e-05
3.17635e-05
2.80061e-05
2.79947e-05
2.8011e-05
2.79985e-05
2.79907e-05
2.7988e-05
2.79913e-05
3.17696e-05
3.17956e-05
2.77183e-05
2.77094e-05
2.77193e-05
3.18007e-05
3.17826e-05
3.18458e-05
2.77136e-05
2.77039e-05
2.77226e-05
2.77199e-05
3.17452e-05
3.18211e-05
2.80195e-05
2.80062e-05
2.80301e-05
2.80152e-05
2.79949e-05
2.80097e-05
2.80136e-05
3.17794e-05
3.18359e-05
2.77237e-05
2.77231e-05
2.77394e-05
3.18597e-05
3.1819e-05
3.18312e-05
2.77216e-05
2.77203e-05
2.7723e-05
2.77187e-05
3.18005e-05
3.17979e-05
2.80281e-05
2.80124e-05
2.80292e-05
2.80127e-05
2.80137e-05
2.80063e-05
2.80102e-05
3.18074e-05
3.18187e-05
2.77394e-05
2.77218e-05
2.77367e-05
3.1832e-05
3.18137e-05
3.18205e-05
2.77233e-05
2.77197e-05
2.77232e-05
2.77203e-05
3.17788e-05
3.17994e-05
2.80298e-05
2.80128e-05
2.80288e-05
2.80104e-05
2.80123e-05
2.80084e-05
2.8012e-05
3.17997e-05
3.18018e-05
2.77379e-05
2.77207e-05
2.77381e-05
3.18339e-05
3.17995e-05
3.18284e-05
2.77246e-05
2.77209e-05
2.77348e-05
2.77289e-05
3.17762e-05
3.18054e-05
2.80303e-05
2.80111e-05
2.8041e-05
2.80208e-05
2.80122e-05
2.80172e-05
2.80184e-05
3.17801e-05
3.18092e-05
2.77385e-05
2.77304e-05
2.7745e-05
3.18352e-05
3.18092e-05
3.18624e-05
2.7741e-05
2.77331e-05
2.77606e-05
2.77528e-05
3.17844e-05
3.18311e-05
2.80467e-05
2.80266e-05
2.80675e-05
2.80453e-05
2.80222e-05
2.80408e-05
2.80418e-05
3.17899e-05
3.18382e-05
2.77494e-05
2.77542e-05
2.77686e-05
3.18594e-05
3.18454e-05
3.18607e-05
2.77633e-05
2.77574e-05
2.77617e-05
2.77592e-05
3.18148e-05
3.18418e-05
2.80708e-05
2.80481e-05
2.8069e-05
2.80454e-05
2.80474e-05
2.80491e-05
2.80503e-05
3.18201e-05
3.1835e-05
2.77733e-05
2.77548e-05
2.7775e-05
3.18707e-05
3.18368e-05
3.18298e-05
2.77562e-05
2.77562e-05
2.77391e-05
2.77398e-05
3.1817e-05
3.18178e-05
2.80634e-05
2.80396e-05
2.80445e-05
2.80199e-05
2.80484e-05
2.80294e-05
2.80304e-05
3.18106e-05
3.18033e-05
2.77728e-05
2.77317e-05
2.7756e-05
3.18487e-05
3.18041e-05
3.18233e-05
2.77363e-05
2.77361e-05
2.77284e-05
2.77296e-05
3.17922e-05
3.1805e-05
2.80416e-05
2.8017e-05
2.8035e-05
2.801e-05
2.80258e-05
2.80188e-05
2.80196e-05
3.17779e-05
3.17965e-05
2.77522e-05
2.7722e-05
2.77453e-05
3.18329e-05
3.17991e-05
3.17898e-05
2.7724e-05
2.77259e-05
2.77092e-05
2.77123e-05
3.17821e-05
3.17776e-05
2.80304e-05
2.8006e-05
2.80139e-05
2.79894e-05
2.8017e-05
2.79998e-05
2.80012e-05
3.17723e-05
3.17662e-05
2.77426e-05
2.77041e-05
2.77291e-05
3.18072e-05
3.17654e-05
3.17809e-05
2.77057e-05
2.77089e-05
2.76996e-05
2.77018e-05
3.17528e-05
3.17668e-05
2.80104e-05
2.79861e-05
2.80054e-05
2.79808e-05
2.79971e-05
2.79885e-05
2.79887e-05
3.17419e-05
3.17554e-05
2.77256e-05
2.76937e-05
2.77174e-05
3.1793e-05
3.17593e-05
3.17855e-05
2.76994e-05
2.77007e-05
2.76997e-05
2.77006e-05
3.17438e-05
3.17673e-05
2.80056e-05
2.79808e-05
2.80065e-05
2.79811e-05
2.79887e-05
2.7988e-05
2.79892e-05
3.1734e-05
3.17578e-05
2.77172e-05
2.76931e-05
2.77172e-05
3.17971e-05
3.17646e-05
3.17807e-05
2.77e-05
2.77012e-05
2.76991e-05
2.77006e-05
3.17464e-05
3.17674e-05
2.80068e-05
2.79816e-05
2.80051e-05
2.79804e-05
2.79902e-05
2.7988e-05
2.79885e-05
3.17368e-05
3.17561e-05
2.77177e-05
2.76927e-05
2.77167e-05
3.17942e-05
3.17593e-05
3.1786e-05
2.76996e-05
2.77008e-05
2.76994e-05
2.77003e-05
3.17449e-05
3.1767e-05
2.80061e-05
2.79814e-05
2.80055e-05
2.79803e-05
2.79895e-05
2.79876e-05
2.79887e-05
3.17346e-05
3.17573e-05
2.77174e-05
2.76925e-05
2.77167e-05
3.17978e-05
3.17643e-05
3.17823e-05
2.76999e-05
2.7701e-05
2.76988e-05
2.77e-05
3.17458e-05
3.17674e-05
2.80065e-05
2.79819e-05
2.80046e-05
2.79794e-05
2.79905e-05
2.79871e-05