/*--------------------------------*- C++ -*----------------------------------*\
| =========                 |                                                 |
| \\      /  F ield         | OpenFOAM: The Open Source CFD Toolbox           |
|  \\    /   O peration     | Version:  2206                                  |
|   \\  /    A nd           | Website:  www.openfoam.com                      |
|    \\/     M anipulation  |                                                 |
\*---------------------------------------------------------------------------*/
FoamFile
{
    version     2.0;
    format      ascii;
    arch        "LSB;label=32;scalar=64";
    class       volVectorField;
    location    "0.4";
    object      U;
}
// * * * * * * * * * * * * * * * * * * * * * * * * * * * * * * * * * * * * * //

dimensions      [0 1 -1 0 0 0 0];

internalField   nonuniform List<vector> 
67442
(
(-1.11515e-06 1.51215e-07 0.132922)
(1.07411e-06 4.5264e-07 0.130159)
(2.75653e-06 -1.03353e-06 0.130302)
(-0.000199377 -0.000199214 0.127825)
(0.000198503 0.000199813 0.127827)
(2.98247e-06 2.48738e-06 0.1303)
(-3.69073e-06 3.13006e-06 0.130305)
(-0.000197375 0.000199894 0.127828)
(-5.26372e-07 5.26107e-07 0.130161)
(2.48902e-07 -8.19937e-07 0.13016)
(-2.70768e-07 -7.85117e-07 0.130157)
(0.000198723 -0.00019874 0.127825)
(-2.71264e-06 -1.09597e-06 0.130306)
(3.17182e-06 2.17913e-05 0.0795241)
(-9.165e-08 3.1932e-05 0.104873)
(-5.76553e-06 7.81493e-06 0.0684971)
(1.95688e-05 3.31093e-06 0.0791656)
(3.07938e-05 -2.73421e-07 0.104237)
(1.4001e-06 4.45581e-07 0.132923)
(-5.48029e-07 2.11819e-07 0.132923)
(6.31794e-07 1.50521e-07 0.132923)
(-4.80192e-05 1.3403e-05 0.106011)
(2.84561e-06 -1.34847e-06 0.131805)
(-6.26341e-05 -1.35201e-06 0.119794)
(6.95708e-06 -5.07311e-06 0.0683316)
(-1.43024e-06 -2.43827e-06 0.131983)
(1.7067e-05 -4.55956e-05 0.106405)
(-8.68169e-07 -6.0791e-05 0.120295)
(-1.38247e-05 -1.48611e-05 0.0925361)
(-1.80896e-05 -1.28458e-05 0.092783)
(5.91192e-06 6.91826e-06 0.0685056)
(6.48787e-06 5.29682e-06 0.0683375)
(1.79254e-05 1.3235e-05 0.0928249)
(1.33962e-05 1.48454e-05 0.0924967)
(-3.0372e-06 2.19282e-05 0.0795179)
(-1.15934e-07 3.19174e-05 0.104874)
(1.64844e-05 4.54967e-05 0.106404)
(-6.98471e-07 1.80293e-06 0.131988)
(-5.08258e-07 5.94047e-05 0.120297)
(-1.63684e-05 4.52493e-05 0.106395)
(3.17222e-07 1.92486e-06 0.131989)
(3.80133e-07 5.94007e-05 0.120298)
(-1.81069e-05 1.31948e-05 0.0927863)
(-1.30796e-05 1.48933e-05 0.0925311)
(-5.91893e-06 5.60333e-06 0.0683407)
(4.79054e-05 1.3284e-05 0.106)
(-2.6999e-06 -1.19293e-06 0.131805)
(6.2586e-05 -1.29686e-06 0.119793)
(1.96935e-05 -3.10889e-06 0.0791629)
(3.06668e-05 4.30946e-08 0.104238)
(-2.3038e-06 1.36845e-06 0.131798)
(4.83938e-05 -1.33674e-05 0.105998)
(6.25609e-05 9.91461e-07 0.119794)
(-1.95635e-05 3.62379e-06 0.0791678)
(-3.08393e-05 -2.49846e-07 0.104237)
(2.25267e-06 1.31576e-06 0.131797)
(-4.8254e-05 -1.33655e-05 0.106008)
(-6.26426e-05 9.78296e-07 0.119794)
(-1.97732e-05 -3.21968e-06 0.079168)
(-3.07312e-05 7.35179e-08 0.104238)
(1.37852e-05 -1.53908e-05 0.0925002)
(1.78255e-05 -1.29375e-05 0.0928183)
(6.49903e-06 -6.39009e-06 0.068511)
(1.43662e-06 -2.5387e-06 0.131983)
(-1.69544e-05 -4.53582e-05 0.106395)
(8.55806e-07 -6.07815e-05 0.120295)
(3.82574e-06 -2.16218e-05 0.0795254)
(-5.43305e-08 -3.32163e-05 0.104867)
(-3.74685e-06 -2.16221e-05 0.0795231)
(5.12206e-08 -3.31966e-05 0.104866)
(-6.71895e-06 -5.28535e-06 0.0683385)
(-6.28913e-06 -6.77634e-06 0.0685068)
(1.30162e-06 -8.71916e-06 0.0662066)
(-3.30123e-06 -2.03292e-05 0.0794625)
(1.49134e-06 2.49229e-05 0.0912431)
(-2.43679e-06 -2.50806e-05 0.0911442)
(-2.09195e-06 8.71579e-06 0.0662257)
(2.2662e-06 -9.327e-06 0.074086)
(-1.37161e-07 -3.29039e-05 0.104713)
(-6.99e-07 8.85358e-06 0.07679)
(1.24318e-07 3.15708e-05 0.101626)
(8.05725e-07 -9.03538e-06 0.0767219)
(-6.41538e-07 -3.25995e-05 0.101475)
(-2.54351e-06 9.02739e-06 0.0741436)
(4.70078e-06 -6.31587e-06 0.0684415)
(8.78516e-06 -1.72981e-06 0.0738342)
(3.06505e-05 -2.10586e-07 0.104237)
(3.09237e-05 2.23182e-07 0.100995)
(8.31127e-06 -5.09528e-07 0.0764647)
(-8.49094e-06 2.63051e-06 0.0657589)
(-1.97059e-05 -2.81501e-06 0.0789636)
(2.3583e-05 1.42804e-06 0.0906638)
(-2.47267e-05 -1.00832e-06 0.0903405)
(8.11624e-06 -1.54847e-06 0.065903)
(8.17576e-06 -1.54343e-06 0.0659032)
(1.95717e-05 3.36643e-06 0.0791657)
(2.352e-05 1.46281e-06 0.090664)
(-8.25538e-06 2.73594e-06 0.073606)
(-3.0137e-05 3.69751e-08 0.103728)
(3.10522e-05 1.48841e-07 0.100995)
(8.27715e-06 -5.8804e-07 0.0764644)
(-3.01483e-05 1.43562e-07 0.100522)
(-7.73467e-06 7.51637e-07 0.0762126)
(8.73617e-06 -1.77655e-06 0.073834)
(-7.06967e-06 4.16705e-06 0.0681988)
(7.5819e-06 -4.91379e-06 0.0683313)
(3.99562e-05 2.00679e-05 0.102404)
(-5.81335e-05 -3.07293e-05 0.113446)
(1.43245e-05 1.43064e-05 0.0922209)
(-1.00082e-05 -5.88096e-06 0.0784663)
(5.57168e-05 3.09864e-05 0.113019)
(1.05786e-05 5.91218e-06 0.0782596)
(-4.05805e-05 -1.79253e-05 0.102801)
(1.70661e-05 4.06755e-05 0.10248)
(-3.16167e-05 -5.73371e-05 0.113556)
(1.57119e-05 1.3267e-05 0.0925959)
(-7.09059e-06 -9.31683e-06 0.0784929)
(2.74795e-05 5.80421e-05 0.113259)
(6.16069e-06 1.00275e-05 0.0783452)
(-1.80655e-05 -3.91491e-05 0.102819)
(1.14578e-05 1.1688e-05 0.0846261)
(-4.95064e-06 -4.1701e-06 0.0670854)
(-5.20532e-06 -4.27843e-06 0.0671267)
(5.24899e-06 4.41363e-06 0.0669522)
(4.59709e-06 5.05625e-06 0.0670111)
(-1.17818e-05 -1.06437e-05 0.0849012)
(-4.87731e-06 -6.95585e-06 0.0684472)
(-7.37354e-06 -4.3494e-06 0.0682014)
(6.54859e-06 5.36876e-06 0.0683377)
(-1.82327e-05 -4.04131e-05 0.102561)
(3.23169e-05 5.68768e-05 0.113623)
(-1.53154e-05 -1.30994e-05 0.0926368)
(7.2776e-06 9.49485e-06 0.0786003)
(-6.09594e-06 -1.0131e-05 0.0784542)
(-2.78295e-05 -5.63864e-05 0.113328)
(1.98404e-05 3.90259e-05 0.1029)
(-4.04758e-05 -1.89251e-05 0.102324)
(5.88608e-05 2.95188e-05 0.113384)
(-1.45505e-05 -1.46563e-05 0.0921797)
(9.80311e-06 5.39287e-06 0.0783596)
(-1.05871e-05 -6.19362e-06 0.0781495)
(-5.75278e-05 -3.04186e-05 0.112954)
(4.0926e-05 1.60444e-05 0.102723)
(-1.14213e-05 -1.18777e-05 0.0846269)
(5.40855e-06 4.07709e-06 0.067129)
(5.02469e-06 3.76533e-06 0.0670807)
(-4.42229e-06 -5.23791e-06 0.0670162)
(-5.14278e-06 -4.67948e-06 0.0669459)
(1.2161e-05 1.01816e-05 0.0849008)
(-1.16763e-06 -8.6786e-06 0.0662025)
(3.33857e-06 -2.00173e-05 0.0794575)
(-1.52744e-06 2.48338e-05 0.0912418)
(2.33161e-06 -2.49634e-05 0.091142)
(2.12407e-06 8.70516e-06 0.0662225)
(-2.04621e-06 -9.2132e-06 0.0740846)
(-1.48589e-08 -3.28993e-05 0.104712)
(6.7936e-07 8.84788e-06 0.0767913)
(-2.62739e-07 3.14539e-05 0.101628)
(-4.12736e-07 -8.979e-06 0.0767212)
(4.65275e-07 -3.25864e-05 0.101475)
(2.52362e-06 8.97147e-06 0.0741445)
(1.59162e-05 -3.78926e-05 0.102491)
(-3.23265e-05 5.86189e-05 0.113584)
(1.44615e-05 -1.29349e-05 0.0926021)
(-8.14354e-06 9.61893e-06 0.078499)
(4.6942e-06 -9.74226e-06 0.0783225)
(2.66282e-05 -5.85849e-05 0.113296)
(-1.89234e-05 3.82122e-05 0.102813)
(3.58044e-05 -1.97826e-05 0.102409)
(-5.8297e-05 2.94879e-05 0.113428)
(1.43676e-05 -1.5464e-05 0.0922131)
(-9.67366e-06 5.16753e-06 0.0784554)
(5.8082e-05 -3.1753e-05 0.112994)
(1.07531e-05 -7.00742e-06 0.078276)
(-3.85056e-05 1.6575e-05 0.102811)
(9.54182e-06 -1.37357e-05 0.0846324)
(-6.19995e-06 3.31333e-06 0.0671284)
(-5.25759e-06 2.9718e-06 0.0670805)
(3.03933e-06 -6.97655e-06 0.0669987)
(5.02828e-06 -5.40984e-06 0.0669643)
(-1.27568e-05 9.71687e-06 0.0848997)
(7.65855e-06 -4.45796e-06 0.0682052)
(8.47997e-06 1.94236e-06 0.0738341)
(3.05297e-05 5.3221e-08 0.104238)
(8.25886e-06 5.05097e-07 0.0764643)
(3.01753e-05 -3.70406e-08 0.100996)
(-8.51971e-06 -2.2563e-06 0.0657599)
(-1.94693e-05 2.92341e-06 0.0789614)
(2.37816e-05 -1.02833e-06 0.0906628)
(-2.46084e-05 1.41814e-06 0.0903396)
(8.12503e-06 1.90233e-06 0.0659039)
(8.17274e-06 2.01536e-06 0.0659042)
(1.97846e-05 -2.92088e-06 0.0791629)
(2.36871e-05 -9.26674e-07 0.0906629)
(-8.58458e-06 -2.63586e-06 0.0736058)
(-3.02249e-05 -2.98617e-07 0.103729)
(8.21547e-06 4.12256e-07 0.076464)
(3.03154e-05 -3.22343e-08 0.100996)
(-7.78596e-06 -8.72588e-07 0.0762121)
(-3.09098e-05 -9.22926e-08 0.100524)
(8.41929e-06 1.86465e-06 0.0738338)
(8.35199e-06 2.69258e-06 0.0657592)
(1.96312e-05 -2.59075e-06 0.0789681)
(-2.36734e-05 1.54341e-06 0.0906633)
(2.44444e-05 -9.50871e-07 0.0903438)
(-8.27314e-06 -1.43864e-06 0.0659008)
(8.12829e-06 2.75981e-06 0.0736063)
(2.99306e-05 8.25823e-08 0.103729)
(-3.11299e-05 1.65661e-07 0.100994)
(-8.40064e-06 -5.49272e-07 0.0764637)
(2.98812e-05 1.37364e-07 0.100525)
(7.59672e-06 7.68856e-07 0.0762124)
(-8.88894e-06 -1.74722e-06 0.073832)
(8.4004e-06 -2.29995e-06 0.0657604)
(1.92999e-05 2.89895e-06 0.0789658)
(-2.38363e-05 -1.05033e-06 0.0906651)
(2.44156e-05 1.39213e-06 0.0903418)
(-8.25883e-06 1.86152e-06 0.0659045)
(8.43789e-06 -2.64194e-06 0.0736057)
(2.99965e-05 -2.30227e-07 0.10373)
(-8.34864e-06 4.41665e-07 0.076464)
(-3.0419e-05 -2.69106e-08 0.100997)
(7.63166e-06 -8.68192e-07 0.0762119)
(3.06416e-05 -1.81675e-08 0.100524)
(-8.58424e-06 1.87495e-06 0.0738339)
(-3.99034e-05 2.00942e-05 0.102337)
(6.10943e-05 -3.16568e-05 0.113408)
(-1.47635e-05 1.35115e-05 0.0921881)
(1.02027e-05 -5.14559e-06 0.0783605)
(-1.07818e-05 6.46494e-06 0.078136)
(-5.6247e-05 2.90115e-05 0.112991)
(3.98927e-05 -1.59997e-05 0.102719)
(-1.73632e-05 3.81745e-05 0.102557)
(3.12152e-05 -5.56997e-05 0.113598)
(-1.67411e-05 1.31993e-05 0.092628)
(7.38419e-06 -9.05274e-06 0.0785966)
(-2.9887e-05 5.87582e-05 0.113296)
(-6.06752e-06 9.77439e-06 0.0784652)
(1.96324e-05 -3.68358e-05 0.102902)
(-1.29342e-05 1.01189e-05 0.0846324)
(5.54574e-06 -3.91023e-06 0.0670754)
(4.86539e-06 -3.77885e-06 0.0671349)
(-5.83278e-06 3.99039e-06 0.0669356)
(-5.16685e-06 4.76131e-06 0.0670307)
(1.14693e-05 -1.08667e-05 0.0849014)
(-4.93584e-06 7.51589e-06 0.068453)
(2.16088e-06 9.14995e-06 0.0662043)
(-3.08112e-06 2.09458e-05 0.0794665)
(2.49226e-06 -2.48447e-05 0.0912415)
(-1.75643e-06 2.60474e-05 0.0911451)
(-1.15829e-06 -8.76805e-06 0.0662217)
(2.82813e-06 9.1312e-06 0.0740804)
(4.2307e-08 3.23827e-05 0.104709)
(8.18092e-07 -3.33448e-05 0.10162)
(-6.56535e-07 -9.33882e-06 0.0767834)
(2.08805e-07 3.21983e-05 0.101472)
(6.81896e-07 8.83461e-06 0.076717)
(-1.95956e-06 -9.72489e-06 0.0741372)
(-2.10687e-06 9.10455e-06 0.066202)
(3.08453e-06 2.09852e-05 0.0794622)
(-2.43435e-06 -2.49079e-05 0.0912414)
(1.79226e-06 2.60351e-05 0.0911431)
(1.15052e-06 -8.79166e-06 0.066221)
(-2.86431e-06 9.17187e-06 0.0740817)
(-8.30688e-08 3.23639e-05 0.10471)
(-7.62223e-07 -3.32953e-05 0.101621)
(6.38338e-07 -9.30504e-06 0.0767837)
(-1.40152e-07 3.22459e-05 0.101472)
(-7.33397e-07 8.84191e-06 0.0767189)
(1.87766e-06 -9.64247e-06 0.0741386)
(7.11149e-06 4.29364e-06 0.0682028)
(4.85473e-06 7.19899e-06 0.0684492)
(-2.82252e-07 2.82082e-07 0.133648)
(-3.42226e-08 1.04777e-06 0.133595)
(-9.66647e-07 4.00379e-07 0.134012)
(5.51692e-05 5.66193e-05 0.115352)
(-5.3946e-05 -0.00021713 0.12284)
(-0.000213591 -5.12673e-05 0.122845)
(0.000205391 0.000209921 0.127728)
(5.04345e-05 0.000217919 0.122568)
(0.000210914 5.22302e-05 0.12263)
(-5.4599e-05 -5.25566e-05 0.115674)
(-5.59301e-05 -5.60354e-05 0.115355)
(0.000217158 5.26534e-05 0.122911)
(5.23383e-05 0.000213576 0.122776)
(-0.000206058 -0.000209063 0.127731)
(-0.000214408 -5.2105e-05 0.122701)
(-5.04296e-05 -0.000214672 0.122503)
(5.54018e-05 5.20719e-05 0.115676)
(5.71634e-05 -5.75509e-05 0.115361)
(-0.000218863 5.35584e-05 0.122907)
(-5.08766e-05 0.000215875 0.122786)
(0.000205039 -0.000207242 0.127733)
(5.09205e-05 -0.000219489 0.122514)
(0.000216488 -5.20079e-05 0.122695)
(-5.57238e-05 5.31767e-05 0.115684)
(-5.50791e-05 5.81565e-05 0.115359)
(5.50361e-05 -0.000218874 0.122834)
(0.000215538 -4.99947e-05 0.122853)
(-0.000205449 0.000209112 0.127729)
(-0.000214078 5.27359e-05 0.122639)
(-5.01308e-05 0.000218107 0.122566)
(5.57754e-05 -5.28905e-05 0.115678)
(3.29546e-07 3.42963e-07 0.133648)
(2.12615e-07 1.00464e-06 0.133595)
(1.03549e-06 4.08399e-07 0.134012)
(-6.03762e-07 -1.05425e-06 0.133599)
(-4.92209e-07 -1.48944e-06 0.133644)
(-1.15404e-06 -9.61671e-07 0.134012)
(8.41203e-07 -1.03046e-06 0.133599)
(5.00206e-07 -1.45753e-06 0.133644)
(1.26532e-06 -1.00046e-06 0.134012)
(0.000261405 -5.46836e-06 0.123639)
(-0.000246324 1.2605e-05 0.119755)
(4.6794e-05 -1.59469e-05 0.105631)
(-5.9214e-05 1.35131e-06 0.113513)
(0.000240479 -1.68535e-05 0.119409)
(5.89378e-05 -4.13276e-06 0.113079)
(-0.000256492 7.60976e-07 0.12391)
(0.000249028 -3.44855e-06 0.125721)
(5.93316e-05 8.29392e-08 0.119297)
(-6.37553e-05 -1.37807e-06 0.117874)
(-0.000241876 -8.75277e-07 0.127022)
(6.0336e-05 -1.66791e-07 0.117398)
(0.000242833 -4.84405e-07 0.126725)
(-0.000253587 -2.86832e-07 0.125998)
(3.42691e-07 0.000254532 0.124172)
(1.32883e-05 -0.000240224 0.119999)
(-1.69355e-05 4.47617e-05 0.106264)
(4.23551e-06 -5.70952e-05 0.113972)
(-1.01006e-05 0.000236572 0.119852)
(-3.59081e-06 5.7605e-05 0.113849)
(9.16771e-07 -0.000248462 0.124209)
(1.77076e-06 0.000239851 0.126295)
(4.37606e-07 5.9333e-05 0.120168)
(-1.07957e-06 -0.000233415 0.12735)
(2.6264e-07 -6.17956e-05 0.118374)
(8.55642e-07 0.000233196 0.127311)
(1.30428e-06 6.03337e-05 0.118253)
(-2.36962e-06 -0.000245214 0.126315)
(2.8126e-06 -0.000249112 0.124158)
(1.15649e-05 0.000239297 0.12)
(-1.64187e-05 -4.39309e-05 0.106262)
(2.5259e-06 5.5192e-05 0.113974)
(-4.69853e-06 -5.47026e-05 0.113846)
(-7.73039e-06 -0.000233834 0.119854)
(-2.85929e-07 0.000247222 0.124207)
(1.10345e-06 -0.000241048 0.126286)
(3.39613e-07 -5.87527e-05 0.120169)
(-5.79906e-07 5.82768e-05 0.118379)
(2.20094e-07 0.000230367 0.127345)
(-2.30544e-11 -5.83043e-05 0.118252)
(-4.39721e-07 -0.000232519 0.127304)
(-6.32154e-07 0.000238653 0.126317)
(-3.47827e-06 -0.000249037 0.124159)
(-1.21215e-05 0.00023964 0.119993)
(1.6215e-05 -4.40017e-05 0.106253)
(-2.56241e-06 5.51359e-05 0.113973)
(4.54336e-06 -5.47558e-05 0.113845)
(6.65467e-06 -0.000233502 0.119847)
(-3.15132e-07 0.000247425 0.124208)
(-1.54729e-06 -0.000241081 0.126287)
(-4.54733e-07 -5.87952e-05 0.120169)
(4.58525e-07 5.82706e-05 0.118381)
(-4.94096e-07 0.000230441 0.127345)
(-1.83366e-07 -5.84131e-05 0.118253)
(4.98756e-08 -0.000232507 0.127304)
(2.8953e-07 0.000238784 0.126319)
(-0.000261443 -4.93089e-06 0.123637)
(0.000246264 1.25619e-05 0.119743)
(-4.7098e-05 -1.59249e-05 0.105622)
(5.90914e-05 1.29626e-06 0.113509)
(-5.922e-05 -4.06665e-06 0.113074)
(-0.000240245 -1.58887e-05 0.1194)
(0.000256432 1.01029e-06 0.123907)
(-0.000249105 -3.10505e-06 0.125719)
(-5.94763e-05 9.98407e-08 0.119295)
(6.3686e-05 -1.26925e-06 0.117873)
(0.000241787 -7.36829e-07 0.127021)
(-6.05689e-05 -4.32165e-08 0.117395)
(-0.00024295 -3.50199e-07 0.126724)
(0.000253539 -5.62979e-08 0.125997)
(-0.000258076 5.03261e-06 0.123627)
(0.000245789 -1.36073e-05 0.119743)
(-4.68906e-05 1.56373e-05 0.105621)
(6.00352e-05 -6.99248e-07 0.11351)
(-5.962e-05 4.79886e-06 0.113073)
(-0.00023818 1.58281e-05 0.119402)
(0.000256394 -1.21695e-06 0.123902)
(-0.000251694 2.91379e-06 0.125711)
(-5.95646e-05 -4.35768e-07 0.119296)
(0.000241383 1.36085e-06 0.127017)
(6.29015e-05 1.57902e-06 0.117876)
(-0.000241862 3.27598e-07 0.126719)
(-6.18032e-05 2.98012e-07 0.117395)
(0.000249181 4.63853e-07 0.125996)
(0.000257861 5.06911e-06 0.123627)
(-0.000245525 -1.35394e-05 0.119751)
(4.67261e-05 1.59141e-05 0.105629)
(-5.99903e-05 -8.84583e-07 0.113512)
(0.000238241 1.66788e-05 0.119407)
(5.93945e-05 4.73542e-06 0.113076)
(-0.000256457 -1.42339e-06 0.123903)
(0.000251424 2.9638e-06 0.125712)
(5.93806e-05 -3.97838e-07 0.119296)
(-0.00024158 1.29918e-06 0.127017)
(-6.29862e-05 1.47151e-06 0.117876)
(0.00024164 3.60225e-07 0.12672)
(6.15162e-05 2.89558e-07 0.117397)
(-0.000249392 3.11133e-07 0.125996)
(-4.94763e-07 0.000254494 0.124171)
(-1.31131e-05 -0.000240145 0.119989)
(1.68371e-05 4.48805e-05 0.106254)
(-4.01607e-06 -5.698e-05 0.11397)
(9.39073e-06 0.0002362 0.119844)
(3.68924e-06 5.78184e-05 0.113847)
(-9.4801e-07 -0.000248442 0.124208)
(-1.96869e-06 0.000239854 0.126295)
(-4.76962e-07 5.93357e-05 0.120168)
(1.05398e-06 -0.000233429 0.12735)
(-2.03689e-07 -6.17615e-05 0.118374)
(-9.84256e-07 0.000233179 0.127311)
(-1.30877e-06 6.04091e-05 0.118253)
(2.316e-06 -0.000245178 0.126316)
(7.62632e-07 5.37103e-06 0.0473845)
(4.04142e-07 2.35795e-06 0.0323759)
(2.18105e-07 9.95135e-07 0.0202886)
(9.51487e-08 3.16698e-07 0.01074)
(3.12113e-08 5.50758e-08 0.00327413)
(-3.01203e-06 2.79028e-06 0.0489372)
(-1.73584e-06 1.00132e-06 0.0335501)
(-1.02241e-06 2.63114e-07 0.021075)
(-5.3257e-07 -2.4234e-08 0.0111761)
(-1.72663e-07 -4.06459e-08 0.00341301)
(4.78606e-06 9.03956e-07 0.0474121)
(2.07331e-06 5.30793e-07 0.0323929)
(8.69321e-07 3.04115e-07 0.0202985)
(2.71076e-07 1.37773e-07 0.0107446)
(4.62589e-08 4.10633e-08 0.00327537)
(2.41641e-06 -2.6761e-06 0.0489561)
(8.78454e-07 -1.60227e-06 0.0335622)
(2.43531e-07 -9.56412e-07 0.0210828)
(-1.57555e-08 -4.94194e-07 0.0111805)
(-3.44792e-08 -1.58195e-07 0.00341443)
(3.17361e-06 2.22699e-06 0.0489427)
(1.92024e-06 6.64481e-07 0.0335542)
(1.17771e-06 8.67261e-08 0.0210779)
(6.29283e-07 -1.01673e-07 0.0111783)
(2.06021e-07 -6.02041e-08 0.00341404)
(1.9927e-06 2.87077e-06 0.0489601)
(5.63186e-07 1.80327e-06 0.0335644)
(5.18827e-08 1.13554e-06 0.0210837)
(-1.09826e-07 6.14093e-07 0.0111805)
(-6.04053e-08 2.01727e-07 0.00341433)
(-5.65865e-07 5.52514e-06 0.047381)
(-2.01738e-07 2.47014e-06 0.0323738)
(-5.8799e-08 1.07225e-06 0.0202871)
(2.87753e-09 3.6037e-07 0.0107388)
(3.33149e-09 6.89959e-08 0.00327361)
(-1.62418e-06 3.16985e-06 0.0489619)
(-3.18123e-07 2.07363e-06 0.0335662)
(9.65233e-08 1.3371e-06 0.0210853)
(1.84543e-07 7.3186e-07 0.0111819)
(8.19186e-08 2.40298e-07 0.00341501)
(4.94029e-06 -7.42381e-07 0.0474117)
(2.1966e-06 -3.34204e-07 0.0323932)
(9.6654e-07 -1.1284e-07 0.0202988)
(3.32152e-07 -1.3457e-09 0.0107445)
(6.73732e-08 1.08858e-08 0.00327523)
(-4.75751e-06 1.21376e-06 0.0474124)
(-2.00212e-06 8.04383e-07 0.0323935)
(-7.98255e-07 5.1417e-07 0.0202993)
(-2.22807e-07 2.66932e-07 0.0107453)
(-2.8613e-08 8.5765e-08 0.00327564)
(-4.92337e-06 -8.69271e-07 0.0474133)
(-2.13958e-06 -4.8994e-07 0.0323936)
(-9.00825e-07 -2.69089e-07 0.0202995)
(-2.83879e-07 -1.15802e-07 0.0107456)
(-4.92988e-08 -3.33217e-08 0.00327587)
(3.66872e-06 -1.71959e-06 0.0489479)
(2.34337e-06 -2.79662e-07 0.033558)
(1.5131e-06 1.65021e-07 0.0210803)
(8.45894e-07 2.40016e-07 0.0111792)
(2.85025e-07 1.04283e-07 0.00341419)
(1.33474e-06 -5.23906e-06 0.0473875)
(8.97603e-07 -2.19594e-06 0.0323785)
(6.06929e-07 -8.51953e-07 0.0202902)
(3.42968e-07 -2.22325e-07 0.0107406)
(1.20029e-07 -2.09795e-08 0.00327409)
(-1.24658e-06 -5.27599e-06 0.0473867)
(-7.56758e-07 -2.26011e-06 0.0323782)
(-4.49354e-07 -9.19673e-07 0.0202903)
(-2.22754e-07 -2.71625e-07 0.0107403)
(-7.11912e-08 -4.05647e-08 0.00327396)
(-2.13721e-06 -2.87846e-06 0.0489603)
(-6.42342e-07 -1.79139e-06 0.0335648)
(-9.11863e-08 -1.1144e-06 0.0210844)
(9.28814e-08 -5.96511e-07 0.0111813)
(5.5849e-08 -1.94175e-07 0.00341461)
(-3.4727e-06 -2.10415e-06 0.0489453)
(-2.13347e-06 -5.68724e-07 0.0335562)
(-1.3165e-06 -2.08758e-08 0.0210789)
(-7.05661e-07 1.39812e-07 0.0111782)
(-2.29875e-07 7.22111e-08 0.0034136)
(1.34325e-06 -4.92678e-06 0.0486781)
(1.13561e-06 -2.41835e-06 0.0333992)
(8.78119e-07 -1.11946e-06 0.0209911)
(5.62805e-07 -4.3645e-07 0.0111359)
(2.01469e-07 -1.10395e-07 0.00340198)
(-1.18426e-06 -4.95951e-06 0.0473897)
(-7.75408e-07 -2.08289e-06 0.0323857)
(-4.98008e-07 -8.28111e-07 0.0202959)
(-2.63038e-07 -2.33707e-07 0.010744)
(-8.68932e-08 -3.15784e-08 0.00327533)
(2.4598e-06 -2.14935e-06 0.0489248)
(1.49078e-06 -7.34564e-07 0.033548)
(9.3415e-07 -1.58655e-07 0.021075)
(5.12936e-07 5.5827e-08 0.0111763)
(1.74329e-07 4.46546e-08 0.00341309)
(2.44467e-06 -1.49677e-06 0.0481784)
(1.15791e-06 -1.14545e-06 0.0329592)
(5.67655e-07 -8.17923e-07 0.0206726)
(2.26598e-07 -4.95474e-07 0.0109503)
(6.12166e-08 -1.70808e-07 0.00334044)
(1.93336e-06 -4.86471e-07 0.0484818)
(8.54257e-07 -3.86199e-07 0.0331878)
(3.96551e-07 -2.76044e-07 0.0208263)
(1.41434e-07 -1.65036e-07 0.0110362)
(3.52472e-08 -5.56016e-08 0.00336805)
(-4.50324e-06 2.69924e-06 0.0485525)
(-2.34001e-06 2.17631e-06 0.03332)
(-1.18257e-06 1.59137e-06 0.0209437)
(-5.08491e-07 9.70694e-07 0.0111113)
(-1.39937e-07 3.35568e-07 0.0033946)
(-5.13342e-06 -2.10478e-07 0.0473656)
(-2.3254e-06 8.74556e-08 0.0323743)
(-1.04312e-06 1.4169e-07 0.02029)
(-3.72177e-07 1.21249e-07 0.0107408)
(-7.9572e-08 4.43788e-08 0.00327425)
(4.87821e-06 8.868e-07 0.0474122)
(2.12928e-06 4.9382e-07 0.0323929)
(8.99918e-07 2.72152e-07 0.0202985)
(2.8463e-07 1.1783e-07 0.0107447)
(4.90931e-08 3.47968e-08 0.00327538)
(-2.48861e-06 1.97545e-06 0.0489064)
(-8.8878e-07 1.18101e-06 0.0335399)
(-2.48087e-07 7.48084e-07 0.0210716)
(5.28214e-09 4.10101e-07 0.0111751)
(2.72383e-08 1.39392e-07 0.00341285)
(2.72464e-06 -2.55838e-06 0.0489558)
(1.0087e-06 -1.52572e-06 0.0335618)
(2.85312e-07 -9.32051e-07 0.0210824)
(-1.11296e-08 -4.97757e-07 0.0111802)
(-3.82175e-08 -1.65163e-07 0.00341434)
(-2.31894e-06 -1.79548e-06 0.0476601)
(-8.67525e-07 -9.69765e-07 0.0325621)
(-2.98358e-07 -5.34671e-07 0.0204039)
(-5.35872e-08 -2.48421e-07 0.0107998)
(7.47307e-11 -7.39626e-08 0.00329205)
(2.7668e-06 1.45872e-06 0.0476013)
(1.18913e-06 6.49495e-07 0.0325344)
(5.0722e-07 2.92932e-07 0.0203897)
(1.67074e-07 1.02953e-07 0.010793)
(3.48426e-08 2.48485e-08 0.00329004)
(-2.37128e-06 -2.1681e-06 0.0476375)
(-1.27504e-06 -7.65317e-07 0.032548)
(-6.94604e-07 -2.23755e-07 0.0203954)
(-3.26178e-07 -1.01314e-08 0.0107955)
(-9.70911e-08 1.41716e-08 0.00329075)
(1.8447e-06 2.55947e-06 0.0476017)
(9.61045e-07 1.00454e-06 0.0325329)
(5.14941e-07 3.57264e-07 0.0203882)
(2.36246e-07 7.49219e-08 0.0107922)
(7.10389e-08 3.60202e-09 0.00328978)
(-2.0641e-06 -1.70712e-06 0.0489022)
(-8.49797e-07 -8.64228e-07 0.033512)
(-3.12725e-07 -4.29789e-07 0.0210447)
(-7.23804e-08 -1.78877e-07 0.0111573)
(-7.02502e-09 -5.08787e-08 0.00340644)
(-2.36203e-06 -1.69306e-06 0.0489002)
(-1.25926e-06 -5.95729e-07 0.033511)
(-6.65634e-07 -1.42121e-07 0.0210443)
(-3.03703e-07 2.53276e-08 0.011157)
(-8.98986e-08 2.50876e-08 0.00340627)
(2.29052e-06 1.72275e-06 0.0488478)
(1.01328e-06 8.01369e-07 0.0334864)
(4.19351e-07 3.57079e-07 0.0210316)
(1.29948e-07 1.26413e-07 0.011151)
(2.49625e-08 3.0885e-08 0.00340459)
(1.96183e-06 2.18267e-06 0.0488545)
(9.93108e-07 8.93939e-07 0.0334901)
(4.96367e-07 3.14439e-07 0.0210338)
(2.11795e-07 6.11322e-08 0.0111519)
(6.11776e-08 -1.07844e-12 0.00340479)
(-2.56117e-06 -2.40759e-06 0.0489293)
(-1.54705e-06 -8.08094e-07 0.0335518)
(-9.57277e-07 -1.83384e-07 0.0210779)
(-5.14094e-07 4.50187e-08 0.0111785)
(-1.69549e-07 4.06247e-08 0.00341412)
(-2.77084e-06 -1.94527e-06 0.0489085)
(-1.12088e-06 -1.03343e-06 0.033541)
(-4.0802e-07 -5.80736e-07 0.021072)
(-8.23179e-08 -2.8771e-07 0.0111749)
(2.01241e-10 -9.23932e-08 0.0034127)
(2.061e-06 2.89001e-06 0.0489603)
(6.12907e-07 1.79426e-06 0.0335645)
(8.06481e-08 1.12023e-06 0.0210837)
(-9.7035e-08 6.02086e-07 0.0111805)
(-5.77317e-08 1.97332e-07 0.00341435)
(1.30595e-06 -4.89211e-06 0.0473864)
(8.78727e-07 -2.04332e-06 0.0323837)
(5.7086e-07 -8.00245e-07 0.0202944)
(3.06478e-07 -2.1683e-07 0.0107427)
(1.02884e-07 -2.5226e-08 0.0032748)
(-2.12245e-06 1.50484e-06 0.0476547)
(-8.11738e-07 8.31147e-07 0.0325596)
(-2.91457e-07 4.89148e-07 0.0204031)
(-5.26855e-08 2.41226e-07 0.0107996)
(1.16025e-09 7.67789e-08 0.00329201)
(3.55687e-06 -2.44183e-06 0.0476051)
(1.5326e-06 -1.09262e-06 0.0325357)
(6.21523e-07 -4.08861e-07 0.0203907)
(2.12566e-07 -9.99303e-08 0.0107935)
(4.82952e-08 -5.97222e-09 0.00329021)
(-2.67767e-06 4.94083e-07 0.0489008)
(-1.47592e-06 -8.43441e-08 0.0335117)
(-7.88764e-07 -2.04556e-07 0.021045)
(-3.52814e-07 -1.6731e-07 0.0111574)
(-9.98221e-08 -5.61978e-08 0.00340642)
(2.70414e-06 -2.99151e-06 0.0488549)
(1.07108e-06 -1.55714e-06 0.0334903)
(3.31257e-07 -8.07329e-07 0.0210341)
(2.08548e-08 -3.58971e-07 0.0111521)
(-2.83231e-08 -9.97868e-08 0.00340486)
(2.95186e-06 -1.9755e-06 0.0489109)
(1.18713e-06 -1.02188e-06 0.0335432)
(4.40488e-07 -5.50555e-07 0.0210738)
(9.99509e-08 -2.61362e-07 0.0111764)
(5.4387e-09 -8.18285e-08 0.00341341)
(2.33716e-06 1.65365e-06 0.0481789)
(1.11748e-06 1.27079e-06 0.0329593)
(5.57888e-07 9.06852e-07 0.0206726)
(2.28057e-07 5.47278e-07 0.0109505)
(6.34013e-08 1.88281e-07 0.00334048)
(1.91889e-06 4.80541e-07 0.0484815)
(8.47003e-07 3.7833e-07 0.0331875)
(3.93777e-07 2.70211e-07 0.020826)
(1.40801e-07 1.62521e-07 0.011036)
(3.53339e-08 5.57069e-08 0.003368)
(-4.44878e-06 -2.32263e-06 0.0485534)
(-2.26883e-06 -1.84537e-06 0.0333206)
(-1.12157e-06 -1.33954e-06 0.0209443)
(-4.68773e-07 -8.17149e-07 0.0111116)
(-1.25726e-07 -2.82937e-07 0.00339446)
(-4.91932e-06 4.11224e-07 0.0473652)
(-2.16591e-06 1.63519e-07 0.0323745)
(-9.32026e-07 8.88353e-08 0.0202902)
(-3.06605e-07 3.41132e-08 0.0107406)
(-5.7289e-08 1.22619e-08 0.00327409)
(5.12082e-06 -4.72355e-07 0.0474115)
(2.30927e-06 -1.06909e-07 0.0323929)
(1.02646e-06 2.4218e-08 0.0202986)
(3.5873e-07 6.1218e-08 0.0107444)
(7.33072e-08 2.60208e-08 0.00327519)
(5.2155e-06 -1.78318e-09 0.0473667)
(2.40643e-06 2.8737e-07 0.0323755)
(1.10208e-06 2.96731e-07 0.0202911)
(4.06429e-07 2.13652e-07 0.0107416)
(9.07854e-08 7.48055e-08 0.00327455)
(4.41256e-06 -2.42496e-06 0.0485536)
(2.27694e-06 -1.96443e-06 0.0333206)
(1.14115e-06 -1.44422e-06 0.0209442)
(4.85088e-07 -8.86035e-07 0.0111118)
(1.32174e-07 -3.07216e-07 0.00339474)
(5.01745e-06 3.07628e-07 0.0473665)
(2.26062e-06 -6.38527e-09 0.0323749)
(1.00611e-06 -8.41908e-08 0.0202909)
(3.54415e-07 -8.7446e-08 0.0107416)
(7.43769e-08 -3.26519e-08 0.00327473)
(2.3245e-06 -2.15907e-06 0.0476469)
(1.07629e-06 -7.52458e-07 0.0325551)
(5.48484e-07 -2.42279e-07 0.0204004)
(2.5926e-07 -3.1311e-08 0.0107986)
(8.43442e-08 5.72976e-09 0.003292)
(-2.09551e-06 2.7322e-06 0.0476181)
(-1.13483e-06 1.14159e-06 0.032544)
(-5.65198e-07 4.4712e-07 0.0203955)
(-2.21273e-07 1.26845e-07 0.0107964)
(-5.12652e-08 2.21816e-08 0.00329137)
(1.63534e-06 -1.46578e-06 0.0489029)
(4.85572e-07 -7.03062e-07 0.0335122)
(5.00678e-08 -4.22353e-07 0.0210448)
(-7.44072e-08 -2.26487e-07 0.0111576)
(-3.80246e-08 -8.1239e-08 0.00340667)
(-2.41143e-06 2.85619e-06 0.0489348)
(-1.30025e-06 1.14298e-06 0.0335558)
(-7.01564e-07 4.06008e-07 0.0210805)
(-3.30028e-07 7.80107e-08 0.0111796)
(-9.94341e-08 -8.68866e-10 0.00341432)
(2.17671e-06 5.24936e-06 0.0486761)
(1.8315e-06 2.6553e-06 0.0333974)
(1.38732e-06 1.27806e-06 0.0209899)
(8.65138e-07 5.24628e-07 0.0111352)
(3.0314e-07 1.38979e-07 0.00340173)
(-7.25771e-07 5.3158e-06 0.047394)
(-3.12454e-07 2.34529e-06 0.0323892)
(-1.18408e-07 1.00895e-06 0.0202979)
(-2.17777e-08 3.38012e-07 0.0107448)
(-2.00674e-09 6.59472e-08 0.00327537)
(-2.02105e-06 5.23496e-06 0.0486745)
(-1.64398e-06 2.6171e-06 0.0333967)
(-1.22086e-06 1.23708e-06 0.0209896)
(-7.55225e-07 4.95717e-07 0.0111349)
(-2.6259e-07 1.27779e-07 0.00340158)
(9.14443e-07 5.26177e-06 0.0473924)
(5.61129e-07 2.26345e-06 0.0323885)
(3.52828e-07 9.25084e-07 0.0202978)
(1.82876e-07 2.76544e-07 0.0107444)
(6.27898e-08 4.20393e-08 0.00327519)
(2.6546e-06 1.90949e-06 0.0489088)
(1.07395e-06 1.01523e-06 0.0335414)
(3.91031e-07 5.7026e-07 0.0210726)
(7.79609e-08 2.82309e-07 0.0111756)
(-5.12013e-10 9.1155e-08 0.00341297)
(2.53814e-06 2.54633e-06 0.0489324)
(1.52556e-06 8.81832e-07 0.033554)
(9.423e-07 2.15173e-07 0.0210789)
(5.07353e-07 -3.52189e-08 0.0111784)
(1.69145e-07 -4.00083e-08 0.00341369)
(-1.25888e-06 -4.94509e-06 0.0486748)
(-1.10454e-06 -2.43434e-06 0.0333972)
(-8.70442e-07 -1.12661e-06 0.0209899)
(-5.61384e-07 -4.38308e-07 0.0111349)
(-2.0011e-07 -1.10192e-07 0.00340168)
(4.45871e-06 2.76641e-06 0.0485521)
(2.33063e-06 2.23859e-06 0.0333198)
(1.18337e-06 1.6341e-06 0.0209438)
(5.11092e-07 9.92353e-07 0.0111114)
(1.41182e-07 3.41151e-07 0.00339452)
(1.78189e-06 -2.97878e-06 0.0480783)
(1.34684e-06 -1.37656e-06 0.0329003)
(9.63762e-07 -6.50805e-07 0.0206386)
(5.86855e-07 -2.59331e-07 0.010933)
(2.04625e-07 -7.0977e-08 0.00333505)
(-5.53334e-07 2.28097e-06 0.0483737)
(-4.77696e-07 9.91066e-07 0.0331199)
(-3.605e-07 4.46122e-07 0.0207856)
(-2.17007e-07 1.60494e-07 0.011015)
(-7.19311e-08 4.08806e-08 0.00336146)
(4.53763e-07 -2.39942e-06 0.04836)
(2.95829e-07 -1.02865e-06 0.0331158)
(2.00896e-07 -4.53257e-07 0.0207842)
(1.21441e-07 -1.59115e-07 0.0110145)
(4.25006e-08 -4.00102e-08 0.00336132)
(-2.02143e-06 2.80698e-06 0.0480891)
(-1.581e-06 1.32317e-06 0.0329025)
(-1.14135e-06 6.43619e-07 0.0206388)
(-6.88303e-07 2.64975e-07 0.0109329)
(-2.35263e-07 7.4699e-08 0.00333501)
(-2.11602e-06 5.0063e-06 0.0486696)
(-1.81054e-06 2.54591e-06 0.0333884)
(-1.37415e-06 1.23261e-06 0.0209836)
(-8.54712e-07 5.09685e-07 0.0111318)
(-2.97961e-07 1.36216e-07 0.00340075)
(-2.74385e-06 2.32661e-06 0.0476404)
(-1.50205e-06 8.06894e-07 0.0325495)
(-8.24764e-07 1.87931e-07 0.0203964)
(-3.97656e-07 -2.93461e-08 0.0107963)
(-1.20172e-07 -3.11154e-08 0.00329112)
(5.5324e-07 -1.46671e-06 0.0475945)
(3.3047e-07 -6.64987e-07 0.0325301)
(2.44034e-07 -2.82924e-07 0.0203872)
(1.46395e-07 -6.75956e-08 0.010792)
(6.0281e-08 -7.47448e-09 0.00328991)
(-3.21477e-06 6.95167e-07 0.0488997)
(-2.0418e-06 -2.45041e-07 0.0335103)
(-1.27064e-06 -4.60536e-07 0.0210439)
(-6.73773e-07 -3.73117e-07 0.0111573)
(-2.16148e-07 -1.39278e-07 0.00340662)
(5.70414e-07 -2.46511e-06 0.0488469)
(1.2627e-07 -1.21842e-06 0.0334862)
(-7.93922e-08 -6.21693e-07 0.021032)
(-1.15867e-07 -2.83311e-07 0.0111517)
(-4.51399e-08 -8.74956e-08 0.003405)
(4.11182e-06 -1.64543e-06 0.0486099)
(2.05972e-06 -1.33998e-06 0.033346)
(1.00261e-06 -1.00615e-06 0.0209567)
(4.10697e-07 -6.33e-07 0.0111175)
(1.09389e-07 -2.24363e-07 0.00339642)
(-2.30454e-06 2.3386e-06 0.0480947)
(-1.12529e-06 1.80528e-06 0.0329167)
(-5.81314e-07 1.27919e-06 0.02065)
(-2.50554e-07 7.63647e-07 0.0109393)
(-7.31917e-08 2.60791e-07 0.00333718)
(1.87359e-06 -4.96507e-07 0.0484816)
(8.22216e-07 -3.7958e-07 0.0331877)
(3.82094e-07 -2.67288e-07 0.0208262)
(1.36978e-07 -1.59344e-07 0.0110361)
(3.50029e-08 -5.44398e-08 0.00336805)