/*--------------------------------*- C++ -*----------------------------------*\
| =========                 |                                                 |
| \\      /  F ield         | OpenFOAM: The Open Source CFD Toolbox           |
|  \\    /   O peration     | Version:  2206                                  |
|   \\  /    A nd           | Website:  www.openfoam.com                      |
|    \\/     M anipulation  |                                                 |
\*---------------------------------------------------------------------------*/
FoamFile
{
    version     2.0;
    format      ascii;
    arch        "LSB;label=32;scalar=64";
    class       surfaceScalarField;
    location    "149";
    object      phi;
}
// * * * * * * * * * * * * * * * * * * * * * * * * * * * * * * * * * * * * * //

dimensions      [0 3 -1 0 0 0 0];

oriented        oriented;

internalField   nonuniform List<scalar> 
196294
(
-8.70411e-12
7.93117e-11
8.48644e-12
2.5762e-12
1.29125e-08
5.06312e-11
5.62344e-13
-4.97637e-12
-1.41256e-11
-1.92039e-08
1.91719e-08
-2.29354e-12
1.24901e-11
4.25188e-12
-1.2858e-08
1.94912e-12
1.28416e-08
-5.08442e-11
4.62483e-13
-1.09737e-11
1.01459e-10
-2.36687e-08
2.36286e-08
-1.3752e-11
-1.29385e-11
1.58085e-11
3.24069e-11
2.03116e-08
7.82115e-12
-5.70005e-12
1.09465e-10
-1.48409e-10
1.43559e-10
-1.14534e-10
1.20331e-07
1.60303e-12
4.11711e-12
-6.4345e-09
2.49917e-12
6.42628e-09
-2.74022e-13
-1.93894e-11
3.19734e-11
-5.18408e-12
-2.43213e-08
2.43142e-08
-4.10886e-12
2.93809e-11
2.98653e-12
1.53544e-11
-4.21549e-11
3.77236e-11
-1.71436e-11
-3.17756e-11
-2.71199e-11
2.88555e-11
1.16186e-07
-4.02899e-11
4.0008e-12
1.45467e-11
-1.2676e-11
1.16232e-11
-1.64881e-11
1.20175e-07
-4.87327e-12
-5.84926e-12
7.79882e-12
-2.06932e-08
1.70324e-11
2.06791e-08
-1.24315e-11
-2.93543e-11
-2.73761e-08
-5.92187e-11
-4.18732e-11
2.7519e-08
9.77833e-12
-4.465e-12
-3.22079e-12
-2.07399e-08
2.31754e-11
2.07147e-08
5.41696e-12
-2.23123e-12
-1.61581e-12
-2.08497e-08
1.54216e-11
2.08327e-08
2.88469e-11
3.44016e-12
6.46021e-09
3.2737e-12
-6.43083e-09
2.47462e-12
6.42279e-09
-2.71342e-11
-1.91392e-11
-2.73647e-08
-5.07221e-11
-5.0648e-11
2.75124e-08
5.2432e-11
-1.73461e-11
1.1782e-10
2.08319e-08
1.07179e-11
-4.77906e-12
-2.05762e-08
2.27544e-11
2.05507e-08
1.0585e-09
-2.36591e-11
-1.08608e-10
2.39675e-11
-3.49725e-10
-4.53456e-10
1.17072e-07
6.74729e-11
1.9965e-10
2.04211e-08
-4.14831e-12
-4.26228e-11
-3.11928e-12
2.06624e-08
1.90888e-12
2.23916e-12
6.42812e-09
3.42843e-13
-1.08777e-11
1.01223e-10
-2.36681e-08
2.3628e-08
1.72086e-10
-9.98502e-11
-2.61502e-11
-4.39249e-11
4.09856e-11
7.09578e-11
-6.9363e-11
6.657e-11
-7.20903e-11
1.14874e-07
1.59298e-11
-2.03219e-08
3.41401e-11
2.02951e-08
3.77252e-11
-9.34517e-11
1.09634e-10
-1.48514e-10
1.43756e-10
-1.12838e-10
1.20596e-07
5.06843e-11
-1.41545e-11
-3.83627e-12
-1.92018e-08
1.91697e-08
1.3104e-11
2.95591e-12
-1.28635e-08
1.94829e-12
1.28471e-08
1.0136e-10
-9.8462e-12
-2.36639e-08
2.36234e-08
2.28924e-12
1.21403e-11
-2.19379e-12
5.07871e-11
-6.67402e-11
-5.44927e-11
6.54026e-11
-1.49642e-11
-4.5034e-11
3.86788e-11
1.16002e-07
-4.98686e-12
9.19224e-11
-1.48103e-10
1.43228e-10
-9.63813e-11
1.21675e-07
-9.80258e-12
1.49453e-11
-2.03122e-08
3.46123e-11
2.02855e-08
6.48312e-13
-4.89891e-12
-1.42669e-11
1.91764e-08
3.58972e-12
1.94337e-12
1.28512e-08
-5.10229e-11
1.01697e-10
-9.72867e-12
-2.36655e-08
2.3625e-08
4.2985e-12
-5.65055e-13
-1.53674e-11
-4.10985e-11
3.82156e-11
5.03825e-11
-6.96676e-11
6.51728e-11
-5.48255e-11
1.16015e-07
-2.4e-12
9.16296e-11
-1.48352e-10
1.4301e-10
-9.66399e-11
1.21648e-07
-1.34683e-11
1.47617e-11
-2.03225e-08
3.49942e-11
2.0296e-08
-1.43757e-11
-3.65229e-12
1.91723e-08
-1.26531e-12
2.49817e-12
1.88932e-12
1.28446e-08
-2.7368e-08
-5.23726e-11
-4.83385e-11
2.75103e-08
-1.06528e-11
-2.06309e-08
1.81103e-11
2.06178e-08
-2.10343e-12
5.90036e-12
-2.09695e-08
2.06374e-11
2.09402e-08
-2.59574e-13
-6.55597e-09
2.94181e-12
6.55119e-09
-1.96748e-11
3.20015e-11
-5.41701e-12
-2.43234e-08
2.43162e-08
-2.26046e-12
3.88964e-12
-3.24936e-11
-3.16255e-11
2.85608e-11
1.49528e-11
-3.96382e-11
3.7179e-11
-1.6953e-11
1.16239e-07
2.82261e-12
1.44665e-11
-1.26962e-11
1.18622e-11
-1.62476e-11
1.2011e-07
-5.99817e-12
8.35781e-12
-2.0683e-08
1.68515e-11
2.06692e-08
-2.43389e-13
-2.05038e-12
-5.27393e-12
-1.98152e-08
1.98034e-08
8.81931e-13
-1.31388e-08
2.1414e-12
1.31297e-08
-2.53879e-12
-5.09975e-12
-1.98185e-08
1.98062e-08
-2.72254e-13
1.65447e-12
-1.31394e-08
2.07354e-12
1.313e-08
2.47332e-12
6.42471e-09
-6.5546e-09
2.75309e-12
6.54935e-09
-2.38025e-11
1.4177e-10
1.98033e-08
4.61735e-12
5.33475e-09
-1.06068e-11
-3.69944e-13
9.46669e-09
8.99013e-13
-1.64524e-12
-1.82063e-08
-1.10033e-11
-7.06719e-12
4.16377e-11
1.81778e-08
-1.14935e-08
-1.5081e-12
5.38619e-13
1.51239e-12
1.14788e-08
3.59842e-12
1.3584e-11
5.01039e-13
-5.01428e-11
5.46416e-12
-4.1173e-11
4.88099e-13
-1.56895e-12
-1.90873e-12
1.54472e-12
9.45455e-09
-2.19005e-12
5.3155e-09
-3.44921e-12
-1.97123e-08
-1.54124e-12
2.63689e-11
1.96847e-08
-2.20673e-12
8.78021e-13
-1.25625e-11
-2.09424e-12
-2.63284e-11
3.19284e-12
5.30886e-09
-1.72264e-12
-3.47602e-12
-2.83195e-12
1.66234e-12
3.0682e-12
1.4699e-08
-1.31275e-11
-1.13074e-11
-5.32455e-09
2.49537e-12
1.36571e-12
2.60844e-12
5.31808e-09
-5.35704e-09
2.40704e-12
8.03791e-13
2.67989e-12
5.35115e-09
-1.94721e-12
-2.77852e-12
1.09515e-13
-2.84269e-12
1.27026e-11
1.25714e-11
1.46786e-08
-2.19957e-11
9.05407e-12
1.9079e-08
-2.35047e-11
-1.24026e-08
9.87712e-12
1.73486e-12
1.23892e-08
-2.18996e-11
4.26445e-12
-1.06803e-11
-2.2837e-08
-2.1735e-11
4.72133e-11
3.24316e-11
2.28022e-08
-4.61853e-11
-3.28609e-11
-1.7892e-12
2.43534e-11
1.90555e-08
-1.66348e-11
7.87026e-12
1.82708e-08
-1.95182e-11
-1.23081e-08
7.36867e-12
1.86697e-12
1.22981e-08
-1.5664e-11
-1.95077e-13
2.83982e-12
-3.98681e-12
-2.22822e-08
-1.84138e-11
3.25245e-11
2.38733e-11
2.22597e-08
-3.33544e-11
-2.23031e-11
-1.89454e-12
1.85196e-11
1.82538e-08
-4.11678e-12
-2.83564e-12
3.05569e-12
3.57267e-12
1.46997e-08
-1.19597e-11
-1.31566e-11
-5.35385e-09
4.52762e-12
-1.47479e-13
1.80707e-12
5.34766e-09
-5.32774e-09
2.92501e-12
2.54739e-12
1.51725e-12
5.32075e-09
-1.30575e-12
-1.79095e-12
-1.35046e-12
-1.86686e-12
1.19945e-11
1.45513e-11
1.46807e-08
8.22601e-12
1.91658e-08
-2.25506e-11
-1.25173e-08
4.11052e-11
1.67461e-12
1.2457e-08
-4.6146e-11
1.50305e-10
1.38652e-10
2.29514e-08
-1.20171e-12
2.37209e-11
1.9149e-08
1.05786e-11
1.81902e-08
-2.13226e-11
-2.1157e-11
-1.21964e-08
1.03211e-11
1.50721e-12
1.21823e-08
2.78565e-12
-2.29319e-11
-9.20113e-12
-2.26843e-11
-2.20773e-08
4.39763e-11
3.31972e-11
2.20456e-08
-1.57794e-12
2.15102e-11
1.81709e-08
-4.36346e-11
-3.19485e-11
-4.7253e-11
5.38868e-11
1.12512e-12
5.32226e-09
2.31933e-10
1.46963e-08
-5.89503e-11
1.12979e-12
1.23681e-08
-1.50506e-10
5.43782e-11
2.23905e-08
1.88928e-08
-1.31509e-12
-1.0617e-11
9.46671e-09
1.65859e-12
-1.55416e-12
-1.1493e-08
-4.91188e-13
1.52997e-12
1.14784e-08
-1.82023e-08
-1.11256e-11
-5.93717e-12
4.17528e-11
1.81738e-08
1.35992e-11
4.60927e-12
-5.01942e-11
-1.56123e-12
6.5792e-12
-4.12907e-11
-1.10203e-12
1.58189e-12
9.45462e-09
-1.61167e-12
5.31584e-09
-3.35763e-12
-1.97123e-08
-2.25409e-12
2.67794e-11
1.96848e-08
-3.48118e-12
-1.25431e-11
-2.0192e-12
-2.61896e-11
3.22156e-12
5.30927e-09
-1.09415e-11
-6.68712e-12
4.1549e-11
1.81837e-08
-1.39427e-12
5.77159e-13
1.4819e-12
1.14839e-08
-1.64901e-12
1.52711e-12
9.46037e-09
-1.65549e-12
2.63054e-11
1.96952e-08
3.20444e-12
5.31263e-09
-3.47561e-13
1.45226e-12
1.14811e-08
-1.13825e-11
-5.7054e-12
4.21279e-11
1.81745e-08
-9.49817e-13
1.51758e-12
9.45461e-09
-2.65037e-12
2.71522e-11
1.9683e-08
3.08729e-12
5.30839e-09
3.51522e-12
1.42485e-12
1.47101e-08
-8.76083e-13
-2.49444e-11
-5.32976e-09
-1.66476e-11
2.03642e-11
2.3342e-12
5.32371e-09
-5.3562e-09
2.09686e-11
-1.91294e-11
3.21008e-12
5.35115e-09
-4.33222e-13
-2.44013e-12
-1.5916e-12
-2.93814e-12
1.08038e-10
-8.90678e-11
1.46955e-08
1.07791e-11
-1.97707e-11
1.82211e-08
-3.74933e-11
-1.21941e-08
-1.35899e-11
1.25522e-12
1.22162e-08
4.14949e-12
-2.21693e-11
-1.05435e-11
-2.24315e-08
-6.20626e-11
3.54062e-11
1.48384e-11
2.24614e-08
-1.61614e-12
-3.29575e-11
-4.73289e-11
-9.87281e-11
1.83522e-08
-1.98652e-11
6.85115e-12
1.91507e-08
-6.91734e-12
-1.25283e-08
3.03623e-11
2.49833e-12
1.24823e-08
-1.64729e-11
4.73957e-13
2.60841e-12
-4.52579e-12
-2.26979e-08
2.31103e-11
1.98509e-11
6.55618e-11
2.261e-08
-2.27399e-11
-3.27101e-11
-1.93328e-12
1.37459e-10
1.89776e-08
3.93473e-13
-2.86377e-12
-3.33221e-12
-7.8414e-13
9.74934e-09
6.31493e-13
-1.46902e-12
-1.87498e-08
-3.69629e-12
-2.93445e-12
1.60934e-11
1.87383e-08
-1.18488e-08
-3.19137e-13
-2.26062e-13
1.06195e-12
1.1843e-08
2.4227e-12
4.97384e-12
-3.43933e-13
-1.92561e-11
3.16509e-12
-1.58617e-11
-3.30265e-13
-1.13231e-12
-3.74745e-13
1.41226e-12
9.74429e-09
1.09991e-12
5.46742e-09
-3.42353e-12
-2.02208e-08
9.86444e-13
1.07824e-11
2.0207e-08
-9.94593e-13
-5.84786e-12
-2.15104e-12
-1.10657e-11
3.47782e-12
5.46456e-09
-3.40815e-12
-1.70237e-13
9.75432e-09
1.732e-13
-1.46444e-12
-1.87565e-08
-3.7435e-12
-3.51416e-12
1.6431e-11
1.87448e-08
-1.18514e-08
-7.63604e-13
1.07046e-12
1.18458e-08
1.74346e-12
4.78178e-12
-1.94785e-11
2.47489e-12
-1.60821e-11
-1.16372e-12
-7.72776e-13
1.33139e-12
9.74926e-09
6.16009e-13
5.47078e-09
-3.50351e-12
-2.02282e-08
1.01369e-12
1.08559e-11
2.02145e-08
-2.27655e-13
-8.55826e-13
-6.00927e-12
-2.22174e-12
-1.09996e-11
3.34833e-12
5.46768e-09
-3.0956e-12
-1.96866e-10
4.6063e-10
1.25812e-07
3.27079e-10
-4.48026e-10
1.36794e-07
-3.86745e-10
4.35325e-11
1.31069e-07
-3.85419e-10
1.40377e-11
1.44338e-07
4.02173e-10
-1.20842e-12
1.25628e-07
6.92479e-12
1.36798e-07
-4.44087e-13
1.10092e-11
1.30221e-07
1.12142e-11
1.43592e-07
-2.41521e-12
-5.34008e-12
1.25404e-07
-8.00986e-12
1.34365e-07
2.70322e-11
-4.26355e-10
1.28638e-07
-3.9573e-10
1.44634e-07
-1.1586e-11
3.75913e-12
1.25443e-07
-1.73217e-12
1.34329e-07
-1.89309e-11
1.27787e-07
1.43735e-07
8.08848e-11
-1.79103e-11
2.588e-08
-2.28546e-08
8.01924e-11
-1.45236e-11
2.28195e-08
-2.68932e-08
-1.92451e-11
-6.61515e-12
2.68721e-08
9.72573e-12
-1.02289e-10
5.33282e-13
7.32034e-12
2.47389e-11
2.58016e-08
5.56373e-11
2.2327e-08
3.9031e-11
2.42054e-08
2.56821e-08
-6.55423e-12
2.625e-11
2.63406e-08
-5.28544e-11
-2.74833e-08
-6.81051e-12
-5.32573e-13
2.75099e-08
-2.34094e-08
2.60456e-11
-5.82487e-12
2.34001e-08
-3.26767e-11
5.29143e-12
-2.32939e-13
-4.29196e-14
5.79717e-12
5.26747e-11
2.62907e-08
2.16302e-11
2.21866e-11
2.6067e-08
-2.28474e-08
2.06877e-11
2.28395e-08
-1.77444e-11
-7.88652e-12
-2.4581e-08
2.19469e-11
2.45538e-08
2.61452e-08
-3.01883e-11
-3.04883e-11
2.22991e-08
5.96347e-11
4.43385e-11
-2.55511e-08
-2.8381e-11
2.55264e-08
-2.45213e-08
-3.07018e-11
2.45111e-08
2.22829e-08
2.22908e-08
-2.60079e-11
-3.34712e-11
5.2135e-11
4.97891e-11
-2.68772e-11
-2.56639e-08
2.56817e-08
-3.27652e-11
-2.44101e-08
2.43923e-08
2.22764e-08
3.03829e-10
2.24734e-08
1.6191e-10
2.43912e-08
2.58447e-08
8.12094e-11
-1.79552e-11
2.58826e-08
-2.58679e-11
-2.28532e-08
8.00015e-11
-1.46593e-11
2.28186e-08
-2.68953e-08
-1.91413e-11
-6.60841e-12
2.68737e-08
9.77479e-12
-1.02729e-10
3.99624e-13
1.34427e-11
7.32131e-12
2.1157e-11
2.58095e-08
5.65663e-11
3.64208e-11
2.56362e-08
-2.23502e-08
5.52395e-11
2.23226e-08
-1.47688e-11
-3.48663e-11
-2.41966e-08
3.75326e-11
2.41571e-08
2.5678e-08
-2.18816e-11
8.0909e-11
2.58766e-08
2.92591e-11
-2.68901e-08
-2.11628e-11
2.6858e-08
-2.28427e-08
7.95226e-11
-1.63189e-11
2.28114e-08
-1.02788e-10
1.06284e-11
1.72456e-11
-2.83336e-11
2.58669e-08
5.60419e-11
2.56021e-08
4.04816e-11
-2.23394e-08
5.51996e-11
2.23096e-08
-1.58271e-11
-3.48082e-11
3.96869e-11
-2.41985e-08
2.41621e-08
2.56141e-08
-2.17941e-11
8.02359e-11
2.58795e-08
2.91535e-11
-2.68901e-08
-2.11846e-11
2.6858e-08
-2.28453e-08
7.96162e-11
-1.62195e-11
2.28143e-08
-1.02482e-10
1.07494e-11
1.73104e-11
-2.84794e-11
2.58697e-08
4.03398e-11
5.53547e-11
2.56094e-08
-2.23427e-08
5.53023e-11
2.23131e-08
-3.44469e-11
-1.59278e-11
-2.42547e-08
3.97256e-11
2.42127e-08
2.56211e-08
-3.21029e-11
-2.92962e-11
2.22839e-08
4.5008e-11
5.92579e-11
-2.54878e-08
-7.13806e-11
2.54767e-08
-2.45606e-08
1.23919e-11
2.45383e-08
2.22636e-08
-6.26443e-12
2.61267e-11
2.63437e-08
-5.32333e-11
-2.74859e-08
-6.84165e-12
2.75115e-08
-2.34129e-08
2.61613e-11
-6.21441e-12
2.3404e-08
-3.26039e-11
4.82666e-12
5.32429e-12
5.25209e-11
2.62943e-08
2.10842e-11
2.19782e-11
2.60676e-08
-2.28496e-08
2.08358e-11
2.28418e-08
-1.72968e-11
-7.38191e-12
-2.45283e-08
2.20416e-11
2.45074e-08
2.6146e-08
1.3426e-12
6.48705e-13
-4.3662e-13
2.24498e-09
6.36947e-13
3.99375e-13
-2.86779e-13
1.20694e-09
2.49389e-13
2.14512e-13
-1.57906e-13
5.92317e-10
6.06735e-14
9.42766e-14
-7.12465e-14
2.44604e-10
2.38904e-14
-1.64601e-14
5.79666e-11
1.11801e-12
-3.19011e-13
-2.24647e-09
4.31303e-13
2.24719e-09
5.39399e-13
-1.62055e-13
-1.20762e-09
2.31951e-13
1.20813e-09
2.10546e-13
-7.49883e-14
-5.9258e-10
1.12608e-13
5.92866e-10
4.97043e-14
-2.84621e-14
-2.44655e-10
4.61866e-14
2.44792e-10
-5.90659e-15
-5.79587e-11
1.14462e-14
5.79983e-11
1.35185e-12
6.10209e-14
-4.19549e-09
-7.22414e-14
4.19666e-09
6.05418e-13
1.01457e-14
-2.25126e-09
-4.49762e-14
2.25206e-09
2.0973e-13
-3.39266e-15
-1.10526e-09
-2.02729e-14
1.1057e-09
3.58412e-14
-4.52084e-15
-4.57216e-10
-7.31758e-15
4.57424e-10
-2.59043e-15
-1.08723e-10
-1.91547e-15
1.08779e-10
1.76139e-12
7.06583e-13
4.1921e-09
7.99195e-13
4.37092e-13
2.24955e-09
2.9245e-13
2.37237e-13
1.10442e-09
6.03978e-14
1.06503e-13
4.56899e-10
2.52088e-14
1.08698e-10
1.34051e-12
-4.19299e-09
-3.40647e-13
4.19416e-09
6.02957e-13
-2.24989e-09
-2.0238e-13
2.25069e-09
2.1223e-13
-1.10458e-09
-1.03827e-13
1.10502e-09
3.98557e-14
-4.56896e-10
-4.38542e-14
4.57104e-10
-1.08642e-10
-1.11067e-14
1.08698e-10
1.19413e-12
1.77022e-13
-2.15638e-13
4.19745e-09
5.35532e-13
7.759e-14
-1.33667e-13
2.25258e-09
1.90605e-13
2.7157e-14
-6.33652e-14
1.10597e-09
3.66426e-14
5.69414e-15
-2.34836e-14
4.57512e-10
-4.58259e-17
-5.72401e-15
1.08821e-10
1.10875e-12
-2.24771e-09
1.45473e-13
2.24847e-09
5.2911e-13
-1.20836e-09
6.48273e-14
1.20888e-09
2.03732e-13
-5.92907e-10
2.58255e-14
5.93199e-10
4.77464e-14
-2.44815e-10
8.76803e-15
2.44954e-10
-5.79844e-11
2.60923e-15
5.80248e-11
1.1059e-12
3.00495e-13
2.24889e-09
5.30626e-13
1.56401e-13
1.20912e-09
2.04087e-13
7.2466e-14
5.93366e-10
4.53814e-14
2.84342e-14
2.45021e-10
7.0308e-15
5.80547e-11
1.07907e-12
6.56607e-14
3.36324e-14
2.248e-09
5.15939e-13
6.31938e-14
1.09002e-15
1.20856e-09
1.96674e-13
4.18888e-14
-5.88606e-15
5.93055e-10
4.24177e-14
2.20725e-14
-4.10757e-15
2.44901e-10
5.84518e-15
-6.95209e-16
5.80324e-11
1.60197e-12
-2.12986e-13
1.36947e-13
-4.19026e-09
4.19168e-09
7.37175e-13
-1.40037e-13
8.27063e-14
-2.24846e-09
2.2494e-09
2.6981e-13
-7.55432e-14
3.7424e-14
-1.10395e-09
1.10447e-09
5.45439e-14
-3.39803e-14
1.34595e-14
-4.56659e-10
4.56912e-10
-8.83169e-15
1.83911e-15
-1.08603e-10
1.08677e-10
1.19488e-12
-2.24341e-09
-7.28765e-14
2.24422e-09
5.78263e-13
-1.20613e-09
-5.72486e-14
1.20667e-09
2.2884e-13
-5.91866e-10
-3.28589e-14
5.92168e-10
5.53167e-14
-2.44374e-10
-1.51196e-14
2.44523e-10
-5.78926e-11
-3.04543e-15
5.79388e-11
1.15881e-12
7.9536e-14
-2.24364e-09
6.48176e-14
2.24442e-09
5.60471e-13
7.1549e-14
-1.20625e-09
1.65895e-14
1.20676e-09
2.21405e-13
4.41329e-14
-5.91923e-10
2.98356e-15
5.92215e-10
5.33736e-14
2.16536e-14
-2.4442e-10
-2.86878e-16
2.44565e-10
6.48402e-15
-5.78965e-11
3.29317e-16
5.79417e-11
1.35291e-12
6.97688e-15
4.19552e-09
6.20646e-13
2.70857e-15
2.25143e-09
2.28025e-13
-1.51082e-15
1.10541e-09
4.9178e-14
-3.06498e-15
4.57306e-10
-8.34471e-16
1.08754e-10
1.51068e-12
8.90909e-14
-4.1893e-09
4.19054e-09
7.03875e-13
5.6862e-14
-2.24808e-09
2.24892e-09
2.62089e-13
3.03197e-14
-1.10367e-09
1.10414e-09
5.33829e-14
1.33784e-14
-4.56559e-10
4.56793e-10
2.72102e-15
-1.08556e-10
1.08623e-10
-9.84472e-13
4.61127e-14
2.58231e-09
3.33383e-14
-4.88214e-13
2.90205e-14
1.38729e-09
1.22052e-14
-1.97167e-13
1.54465e-14
6.8092e-10
8.37239e-15
-5.10179e-14
6.86234e-15
2.81345e-10
5.82903e-15
8.11068e-16
6.67556e-11
1.47648e-15
8.89982e-13
-2.8211e-09
-3.06694e-13
1.63255e-13
2.82187e-09
4.1963e-13
-1.515e-09
-1.77059e-13
9.57081e-14
1.51556e-09
1.5245e-13
-7.43879e-10
-9.21961e-14
5.02879e-14
7.44199e-10
2.99842e-14
-3.07595e-10
-4.03711e-14
2.21407e-14
3.07746e-10
-7.30888e-11
-9.89166e-15
5.25663e-15
7.31303e-11
-9.31239e-13
1.47931e-13
-4.5177e-13
8.65402e-14
-1.75283e-13
4.5157e-14
-4.19253e-14
1.96388e-14
4.67368e-15
9.20731e-13
-4.32116e-13
2.58306e-09
4.4582e-13
-2.43068e-13
1.38783e-09
1.70211e-13
-1.25644e-13
6.81227e-10
3.74064e-14
-5.48909e-14
2.8149e-10
-1.35322e-14
6.6796e-11
-1.21349e-12
-1.37976e-13
1.07922e-14
-5.9513e-13
-1.08543e-13
2.92774e-14
-2.38421e-13
-6.46196e-14
2.33846e-14
-5.96932e-14
-2.99315e-14
1.21218e-14
-9.5429e-15
2.98118e-15
-1.59596e-12
-1.42724e-13
1.52183e-13
-7.48106e-13
-5.93178e-14
7.57555e-14
-2.81197e-13
-2.46767e-14
3.38638e-14
-6.26478e-14
-9.27316e-15
1.2378e-14
-4.00804e-16
3.54395e-15
9.70968e-13
-2.23119e-09
6.12583e-14
2.2319e-09
4.63568e-13
-1.19907e-09
3.20298e-14
1.19955e-09
1.74243e-13
-5.88365e-10
1.84452e-14
5.88644e-10
3.51207e-14
-2.42914e-10
9.39111e-15
2.43051e-10
-5.7556e-11
2.24975e-15
5.75942e-11
-1.01359e-12
2.03055e-13
-4.90632e-13
1.19411e-13
-1.90625e-13
5.95586e-14
-4.35693e-14
2.38808e-14
6.23865e-15
1.0409e-12
-2.22879e-09
1.7323e-13
2.22954e-09
5.06631e-13
-1.19786e-09
9.74624e-14
1.19835e-09
2.00552e-13
-5.87779e-10
5.09733e-14
5.8806e-10
4.8888e-14
-2.42684e-10
2.21017e-14
2.42821e-10
-5.75006e-11
6.70757e-15
5.75422e-11
-1.06744e-12
4.03691e-13
-4.65576e-13
-5.23505e-13
2.28196e-13
-2.55129e-13
-2.11666e-13
1.15692e-13
-1.26677e-13
-5.52411e-14
4.93484e-14
-5.21521e-14
1.1162e-14
-1.3961e-14
-1.58962e-12
-1.37598e-13
-7.4533e-13
-9.34679e-14
-2.81658e-13
-5.64213e-14
-6.4739e-14
-2.71246e-14
-6.77088e-15
4.54189e-13
1.61728e-13
4.00946e-09
1.65369e-13
1.11539e-13
2.15113e-09
5.00472e-14
6.15886e-14
1.05578e-09
7.46061e-15
2.65662e-14
4.36476e-10
6.21426e-15
1.03732e-10
5.66537e-13
2.23299e-09
2.50652e-13
1.20004e-09
9.19643e-14
5.88849e-10
2.00155e-14
2.43146e-10
5.7623e-11
-9.3175e-13
-2.59666e-13
2.58263e-09
3.41165e-13
-4.58282e-13
-1.52081e-13
1.38745e-09
1.919e-13
-1.81936e-13
-8.07153e-14
6.80957e-10
1.01842e-13
-4.55863e-14
-3.60003e-14
2.81379e-10
4.62095e-14
-8.93428e-15
6.67631e-11
1.12504e-14
9.04273e-13
-2.82104e-09
1.24505e-14
2.82182e-09
4.30892e-13
-1.51497e-09
8.66072e-15
1.51554e-09
1.59781e-13
-7.43864e-10
4.12909e-15
7.44186e-10
3.31118e-14
-3.07589e-10
1.91e-15
3.07741e-10
-7.30872e-11
-2.39278e-16
7.31286e-11
-9.35285e-13
-4.57505e-13
-1.77912e-13
-4.12411e-14
9.30429e-13
-1.01678e-13
2.5834e-09
4.44656e-13
-5.13195e-14
1.388e-09
1.67693e-13
-2.58942e-14
6.81267e-10
3.77429e-14
-1.14813e-14
2.81524e-10
-3.2198e-15
6.68039e-11
-1.16974e-12
-2.78343e-13
-5.69043e-13
-1.4466e-13
-2.23672e-13
-6.89944e-14
-5.38034e-14
-2.82913e-14
-7.1213e-15
8.88094e-13
-2.80661e-13
1.77074e-13
2.82337e-09
4.2975e-13
-1.6556e-13
1.0457e-13
1.51637e-09
1.62561e-13
-8.7685e-14
5.52131e-14
7.44486e-10
3.39192e-14
-3.89279e-14
2.43961e-14
3.07945e-10
-9.75287e-15
5.689e-15
7.31533e-11
9.12367e-13
-3.48012e-13
2.58475e-09
4.41673e-13
-1.96972e-13
1.3887e-09
1.68464e-13
-1.02299e-13
6.81613e-10
3.6951e-14
-4.47632e-14
2.81681e-10
-1.12796e-14
6.68266e-11
8.6409e-13
6.36503e-14
2.82248e-09
4.1329e-13
3.9086e-14
1.51596e-09
1.53956e-13
2.08487e-14
7.44321e-10
3.22386e-14
9.09427e-15
3.07833e-10
1.45569e-15
7.31344e-11
9.09747e-13
-2.45074e-14
2.5833e-09
4.41827e-13
-5.88726e-15
1.38797e-09
1.68382e-13
-1.50642e-15
6.81254e-10
3.57648e-14
-3.28754e-16
2.81514e-10
-9.00928e-16
6.67935e-11
1.86783e-12
-2.23731e-13
1.24159e-13
-4.00715e-09
4.0086e-09
8.93454e-13
-1.19449e-13
7.99312e-14
-2.1499e-09
2.15092e-09
3.39918e-13
-6.49642e-14
5.015e-14
-1.05504e-09
1.05562e-09
7.54242e-14
-3.01337e-14
2.56297e-14
-4.36152e-10
4.36424e-10
-8.0513e-15
8.08799e-15
-1.03651e-10
1.03728e-10
1.37448e-12
-2.23039e-09
2.23144e-09
6.64236e-13
-1.19854e-09
1.19922e-09
2.57494e-13
-5.8809e-10
5.88472e-10
5.8863e-14
-2.4281e-10
2.42994e-10
-5.7547e-11
5.76002e-11
-1.12978e-12
3.05649e-13
-4.08506e-13
-5.62528e-13
1.63255e-13
-2.2349e-13
-2.26816e-13
7.83454e-14
-1.12752e-13
-5.60697e-14
3.10841e-14
-4.81487e-14
7.21735e-15
-1.23353e-14
-1.58646e-12
2.26869e-13
-7.44825e-13
1.42773e-13
-2.8558e-13
7.43181e-14
-6.83254e-14
3.15597e-14
9.62034e-15
-8.36607e-13
-1.89897e-13
2.57627e-09
2.11361e-13
-4.16849e-13
-1.16712e-13
1.38414e-09
1.29055e-13
-1.74489e-13
-6.62976e-14
6.79373e-10
7.69603e-14
-4.85306e-14
-3.1181e-14
2.80729e-10
3.87341e-14
-8.66807e-15
6.66019e-11
1.0075e-14
5.50915e-13
-2.81419e-09
-3.98786e-14
-5.37137e-14
2.8148e-09
2.52612e-13
-1.51143e-09
-3.29275e-14
-2.64119e-14
1.5118e-09
9.297e-14
-7.42169e-10
-2.43643e-14
-1.17544e-14
7.42378e-10
1.81401e-14
-3.06894e-10
-1.32524e-14
-4.55471e-15
3.07001e-10
-7.29148e-11
-4.85982e-15
-6.94597e-16
7.2948e-11
-6.07887e-13
-8.83195e-14
-2.86582e-13
-4.84826e-14
-1.13789e-13
-2.44511e-14
-3.03863e-14
-1.07156e-14
-2.12798e-15
7.91615e-13
-9.09903e-14
2.57694e-09
3.86289e-13
-5.79934e-14
1.38457e-09
1.54287e-13
-3.91835e-14
6.79613e-10
3.75633e-14
-2.14119e-14
2.80849e-10
-6.6252e-15
6.664e-11
-1.21323e-12
2.15895e-14
-5.92797e-13
2.44344e-14
-2.37533e-13
1.41776e-14
-5.90234e-14
5.65595e-15
1.49745e-15
-8.15844e-13
-2.76447e-14
2.57757e-09
3.80099e-14
-3.93396e-13
-3.33401e-14
1.38479e-09
3.58424e-14
-1.56823e-13
-2.80499e-14
6.79695e-10
3.12165e-14
-4.09273e-14
-1.66701e-14
2.80882e-10
1.94877e-14
-5.2734e-15
6.66317e-11
5.83042e-15
5.69277e-13
-2.81497e-09
-1.56475e-13
2.81558e-09
2.73515e-13
-1.51178e-09
-9.44854e-14
1.51215e-09
1.10059e-13
-7.42311e-10
-5.44642e-14
7.42516e-10
2.67955e-14
-3.06997e-10
-2.64153e-14
3.07101e-10
-7.29317e-11
-7.16399e-15
7.29644e-11
-6.29699e-13
-3.00066e-13
-1.19107e-13
-3.02843e-14
7.39786e-13
-2.13304e-13
2.57822e-09
3.5715e-13
-1.20293e-13
1.38521e-09
1.41129e-13
-6.74644e-14
6.79932e-10
3.34309e-14
-3.21346e-14
2.81001e-10
-9.06747e-15
6.6669e-11
-1.24562e-12
-3.54984e-13
1.59657e-13
-6.04883e-13
-2.14395e-13
9.65257e-14
-2.41559e-13
-1.10013e-13
4.79453e-14
-6.13634e-14
-4.6378e-14
1.90393e-14
-1.3062e-14
4.32844e-15
-1.71674e-12
-8.09705e-13
-3.12531e-13
-7.49938e-14
1.45782e-12
-7.18057e-14
-4.00628e-09
4.00757e-09
6.85562e-13
-4.56606e-14
-2.14967e-09
2.15052e-09
2.61753e-13
-2.62459e-14
-1.05491e-09
1.05538e-09
6.09057e-14
-1.29846e-14
-4.36145e-10
4.36361e-10
-3.01255e-15
-1.03627e-10
1.03689e-10
1.49416e-12
-4.00538e-09
4.00668e-09
6.96695e-13
-2.14909e-09
2.14996e-09
2.58442e-13
-1.05469e-09
1.05518e-09
5.20231e-14
-4.36025e-10
4.36261e-10
-1.03599e-10
1.03664e-10
2.43219e-12
4.20012e-09
1.12297e-12
2.25186e-09
4.21052e-13
1.10486e-09
9.33229e-14
4.56879e-10
1.08626e-10
-1.94962e-12
4.20385e-09
-9.25803e-13
2.25372e-09
-3.54263e-13
1.10571e-09
-8.34638e-14
4.57141e-10
1.08669e-10
1.76679e-12
4.20529e-09
8.24032e-13
2.25467e-09
3.07844e-13
1.10623e-09
6.74763e-14
4.57389e-10
1.08737e-10
1.19691e-12
2.01217e-14
-4.00812e-09
4.00938e-09
5.25186e-13
1.11804e-14
-2.1504e-09
2.15116e-09
1.83328e-13
8.31401e-15
-1.05528e-09
1.05568e-09
3.30687e-14
4.82267e-15
-4.36268e-10
4.36457e-10
6.65927e-16
-1.03665e-10
1.03717e-10
7.18531e-13
-2.23141e-09
2.2319e-09
3.44429e-13
-1.19918e-09
1.19952e-09
1.33822e-13
-5.88417e-10
5.8861e-10
3.17069e-14
-2.42956e-10
2.43051e-10
-5.75718e-11
5.76003e-11
-8.87798e-13
1.46282e-13
-4.2764e-13
8.43078e-14
-1.68621e-13
4.31281e-14
-4.10068e-14
1.90689e-14
3.88879e-15
-1.58895e-12
3.48297e-13
-7.60066e-13
1.99133e-13
-2.95884e-13
1.0326e-13
-7.21512e-14
4.53125e-14
1.06412e-14
-1.61872e-12
-7.71757e-13
-2.99784e-13
-7.1749e-14
8.9992e-13
-6.98837e-13
4.65092e-13
-4.00536e-09
4.00651e-09
3.94904e-13
-4.09051e-13
2.74441e-13
-2.14899e-09
2.14964e-09
1.40552e-13
-2.18677e-13
1.44262e-13
-1.05462e-09
1.05496e-09
2.6279e-14
-9.72042e-14
6.31099e-14
-4.36033e-10
4.36194e-10
-2.44514e-14
1.4896e-14
-1.03587e-10
1.0363e-10
8.61889e-13
-2.23026e-09
2.23108e-09
4.03641e-13
-1.19847e-09
1.19896e-09
1.55534e-13
-5.88047e-10
5.88308e-10
3.67077e-14
-2.42803e-10
2.42926e-10
-5.75378e-11
5.75738e-11
-7.11836e-13
-1.02597e-13
-3.54854e-13
-2.36571e-14
-1.43529e-13
4.24576e-15
-3.55005e-14
7.60973e-15
1.4942e-15
8.88656e-13
2.73775e-13
-4.0065e-09
4.00734e-09
4.15059e-13
1.76533e-13
-2.14942e-09
2.15e-09
1.52837e-13
9.04566e-14
-1.05486e-09
1.05518e-09
3.1233e-14
3.73282e-14
-4.36137e-10
4.36294e-10
8.31859e-15
-1.03618e-10
1.03662e-10
8.51399e-13
-2.2301e-09
2.2307e-09
4.11769e-13
-1.1984e-09
1.19882e-09
1.59558e-13
-5.88042e-10
5.88279e-10
3.64294e-14
-2.42809e-10
2.42924e-10
-5.75284e-11
5.75616e-11
-9.08905e-13
-1.97804e-13
-4.47553e-13
-1.21982e-13
-1.77303e-13
-7.15547e-14
-4.18209e-14
-3.43384e-14
-9.58193e-15
-1.06492e-12
3.63053e-14
-5.16779e-13
4.3838e-14
-2.03712e-13
3.37182e-14
-4.95708e-14
1.84648e-14
4.85936e-15
-1.09258e-12
-5.2509e-13
-2.03989e-13
-4.90228e-14
-1.9105e-12
4.20465e-09
-9.14415e-13
2.25425e-09
-3.52303e-13
1.10589e-09
-8.1826e-14
4.57263e-10
1.08677e-10
1.77918e-12
4.20615e-09
8.27639e-13
2.25523e-09
3.07905e-13
1.10642e-09
6.68461e-14
4.57514e-10
1.08745e-10
1.78667e-12
4.20829e-09
8.40735e-13
2.25633e-09
3.15471e-13
1.10706e-09
6.78091e-14
4.5776e-10
1.08816e-10
1.71815e-12
4.20542e-09
8.0522e-13
2.25474e-09
3.01464e-13
1.10622e-09
6.59739e-14
4.5741e-10
1.08747e-10
-1.37139e-12
3.00467e-13
-6.47602e-13
1.65527e-13
-2.49989e-13
8.46094e-14
-5.99708e-14
3.66613e-14
9.40484e-15
-1.70336e-12
-8.21705e-13
-3.2054e-13
-7.59442e-14
-1.9185e-12
4.19596e-09
-9.19787e-13
2.24958e-09
-3.60883e-13
1.10364e-09
-8.95713e-14
4.56335e-10
1.08476e-10
1.93274e-12
4.19736e-09
9.22595e-13
2.25049e-09
3.59294e-13
1.10415e-09
8.46636e-14
4.56589e-10
1.08553e-10
-1.96927e-12
4.19828e-09
-9.50564e-13
2.25083e-09
-3.75231e-13
1.10434e-09
-9.19295e-14
4.56616e-10
1.08534e-10
1.87224e-12
4.19962e-09
9.00569e-13
2.25171e-09
3.52945e-13
1.10483e-09
8.23413e-14
4.56861e-10
1.08609e-10
2.10336e-11
8.86681e-12
6.43076e-09
-4.53903e-13
-4.38105e-12
-1.14057e-12
6.43063e-09
-2.31198e-12
2.0768e-11
-1.39036e-10
4.94889e-11
1.81062e-10
2.74001e-08
-1.74386e-11
8.90951e-11
4.37299e-11
2.07376e-08
-9.49734e-12
3.50982e-12
-2.31738e-11
2.05755e-08
-5.06108e-11
5.54442e-13
3.83245e-12
1.44765e-11
1.92036e-08
-1.29974e-11
-2.5886e-12
1.28582e-08
-2.14251e-12
5.90992e-13
1.00133e-11
-9.92684e-11
2.36661e-08
-3.09825e-10
-1.67843e-09
4.29494e-11
4.73134e-10
6.77035e-11
2.99925e-10
7.19347e-11
1.1557e-07
1.46695e-10
2.10124e-10
-1.50744e-11
-3.30815e-11
2.03207e-08
2.14949e-10
-4.16055e-09
6.09652e-10
1.46564e-10
1.11546e-10
7.08781e-10
1.22656e-07
-5.06018e-11
1.44666e-11
4.89444e-12
1.92015e-08
-1.27846e-11
1.95318e-12
-3.94382e-12
1.2864e-08
-2.12616e-12
-9.92063e-11
1.08758e-11
2.36617e-08
-8.16615e-10
-1.62892e-11
-1.95564e-09
4.77081e-10
7.87279e-11
5.3294e-11
2.87945e-10
4.25435e-10
1.64775e-11
2.47365e-10
1.17205e-07
-4.00744e-09
6.16356e-10
1.45804e-10
9.42122e-11
7.08984e-10
1.23516e-07
7.53652e-12
-1.64923e-11
-3.48854e-11
2.03166e-08
-1.29434e-11
-1.95645e-09
4.7819e-10
6.63065e-11
5.19894e-11
3.01402e-10
4.21331e-10
3.95585e-11
2.23433e-10
1.17212e-07
-8.09725e-10
1.2508e-11
1.09522e-11
-1.62547e-11
-3.23439e-11
2.03212e-08
2.24342e-12
-4.33276e-12
1.28613e-08
-2.14295e-12
-3.60163e-12
6.43419e-09
-2.35234e-12
2.55649e-11
2.73732e-08
8.86272e-11
6.58098e-12
-3.41033e-11
-4.88184e-11
2.07047e-08
3.51817e-12
-7.31084e-12
3.99696e-11
1.02874e-11
2.08938e-08
6.18025e-13
6.5565e-09
-2.40396e-12
8.78451e-14
-9.37583e-12
2.65451e-11
4.99135e-13
2.42964e-08
-5.23422e-10
-1.26819e-09
4.23678e-10
5.29421e-11
1.61387e-10
2.97717e-10
2.49463e-11
1.57665e-11
2.33345e-10
1.16794e-07
-2.02873e-10
-7.97084e-10
2.01374e-10
-8.75977e-11
-3.0882e-11
8.85569e-11
1.2048e-07
6.20464e-12
-7.44335e-12
-1.38476e-11
2.06869e-08
-9.17065e-12
2.65724e-11
2.64851e-13
2.42986e-08
-4.84445e-10
-3.01508e-11
-1.25274e-09
2.91702e-10
3.7996e-11
1.60049e-11
2.19229e-10
4.28115e-10
2.95711e-11
1.8555e-10
1.16798e-07
-7.84852e-10
1.96043e-10
-8.78982e-11
-3.15144e-11
8.86463e-11
1.20043e-07
6.19577e-12
3.94628e-12
-7.29459e-12
-1.58492e-11
2.06822e-08
-1.22305e-13
1.7113e-13
-3.7396e-12
1.97977e-08
-6.33851e-13
1.31394e-08
-2.24441e-12
-1.21903e-13
-3.94736e-12
1.9801e-08
-8.7805e-13
-2.41493e-13
1.31396e-08
-2.32768e-12
2.73776e-08
5.72287e-11
4.11113e-11
3.4938e-12
4.88192e-12
-2.25086e-11
2.07398e-08
3.27287e-12
6.44056e-15
-1.62624e-11
2.08496e-08
6.43276e-09
-2.30296e-12
6.55449e-09
-2.73009e-12
1.28903e-11
1.0669e-11
5.32468e-09
-5.78794e-13
-3.65839e-12
-1.77494e-12
5.32781e-09
-1.61919e-12
6.36199e-12
-1.36674e-11
1.46972e-08
4.79533e-11
1.24031e-08
-7.53992e-13
-7.4548e-11
1.79566e-10
2.28283e-08
1.07224e-10
5.30135e-11
1.90758e-08
-1.05739e-11
1.21963e-08
-1.68908e-12
2.22556e-11
-4.36399e-11
-3.26145e-11
2.20764e-08
-2.12895e-11
1.81902e-08
-9.46709e-09
-4.50111e-11
-1.10587e-12
3.32211e-12
9.50995e-09
-5.74909e-14
1.13818e-11
1.82061e-08
5.77502e-12
-4.16446e-11
5.27486e-13
1.14939e-08
5.18472e-13
-1.6356e-12
1.03701e-11
5.34885e-11
5.78146e-13
-1.76325e-10
1.93155e-08
1.01232e-12
-1.63441e-12
1.60061e-11
-1.52708e-10
1.83082e-08
5.63074e-13
1.1546e-08
-2.08158e-13
-5.31532e-09
-2.1077e-11
5.3397e-09
2.16519e-14
2.58537e-12
1.97122e-08
-2.69266e-11
-4.66176e-12
-6.20076e-11
7.55308e-12
1.29166e-08
7.3606e-13
-2.85809e-12
-1.085e-10
1.9811e-08
-9.46724e-09
-2.1771e-12
-4.50826e-11
4.15759e-12
9.51035e-09
8.65841e-16
1.5002e-12
1.14935e-08
-1.62888e-12
1.13489e-11
1.82021e-08
6.90626e-12
-4.17004e-11
5.36368e-11
1.15633e-11
-1.76265e-10
1.93131e-08
1.79999e-12
-1.56584e-12
1.15457e-08
-2.00421e-13
1.7189e-11
-1.52591e-10
1.8304e-08
-5.3158e-09
-2.03298e-11
5.34025e-09
4.50068e-14
1.92916e-12
1.97125e-08
-2.66575e-11
-5.99918e-12
8.31757e-12
-6.16342e-11
1.29226e-08
7.23795e-13
-2.79352e-12
-1.08295e-10
1.98117e-08
-5.31482e-09
-1.9991e-11
-4.20645e-12
5.33913e-09
-1.05661e-13
1.61059e-12
1.97104e-08
-2.62548e-11
-7.09755e-12
-6.39452e-12
8.49549e-12