/*--------------------------------*- C++ -*----------------------------------*\
| =========                 |                                                 |
| \\      /  F ield         | OpenFOAM: The Open Source CFD Toolbox           |
|  \\    /   O peration     | Version:  2206                                  |
|   \\  /    A nd           | Website:  www.openfoam.com                      |
|    \\/     M anipulation  |                                                 |
\*---------------------------------------------------------------------------*/
FoamFile
{
    version     2.0;
    format      ascii;
    arch        "LSB;label=32;scalar=64";
    class       volVectorField;
    location    "149";
    object      U;
}
// * * * * * * * * * * * * * * * * * * * * * * * * * * * * * * * * * * * * * //

dimensions      [0 1 -1 0 0 0 0];

internalField   nonuniform List<vector> 
66621
(
(-1.60013e-05 -1.75116e-05 0.0691871)
(-2.75495e-05 3.4586e-06 0.094216)
(-2.41309e-05 3.77655e-07 0.0690503)
(3.35977e-05 3.51735e-06 0.114046)
(2.54901e-05 -1.36387e-05 0.0969122)
(-6.27239e-06 1.27447e-06 0.13972)
(-1.03269e-05 4.27195e-06 0.0591053)
(1.08389e-06 3.26083e-05 0.114963)
(3.29165e-06 -7.88997e-06 0.135099)
(-3.99068e-06 -4.44467e-06 0.140758)
(-1.97444e-05 2.47992e-05 0.0974587)
(0.000109103 0.000112067 0.129181)
(7.46011e-06 1.29173e-05 0.0819489)
(1.46009e-05 8.26637e-06 0.0822162)
(-1.6492e-05 -6.18303e-06 0.0591399)
(-1.21369e-05 -9.69616e-07 0.0590665)
(-0.000112551 -0.000112753 0.129125)
(-1.91829e-05 1.64668e-06 0.0820957)
(-1.02974e-05 -8.23594e-06 0.0818896)
(5.69724e-06 4.10855e-06 0.135345)
(-2.09887e-05 -1.49086e-05 0.0971028)
(9.18658e-06 -1.00329e-05 0.0819679)
(9.9034e-06 -2.74622e-06 0.0591131)
(-3.45603e-05 2.74402e-06 0.114047)
(2.3696e-06 1.07174e-05 0.134645)
(-2.61829e-05 -1.13387e-05 0.0968776)
(5.86909e-06 3.26571e-06 0.139753)
(-2.73722e-05 1.36211e-06 0.0942213)
(-2.24927e-05 3.62676e-06 0.0690979)
(-3.42274e-05 1.00533e-06 0.11404)
(8.08375e-06 -1.00601e-05 0.134569)
(8.25282e-06 8.5027e-08 0.139738)
(-2.46341e-05 1.53068e-05 0.0968933)
(2.67972e-05 3.63121e-06 0.0942352)
(2.31922e-05 -2.1159e-06 0.0690986)
(3.27219e-05 1.80114e-06 0.114042)
(-9.81261e-06 -1.07834e-05 0.13459)
(-1.02548e-05 -1.84165e-06 0.139742)
(2.27049e-05 1.60302e-05 0.0968978)
(2.61382e-05 2.08846e-06 0.0942323)
(2.12429e-05 5.19017e-06 0.0690828)
(-0.00011053 0.00011178 0.129166)
(-8.85081e-06 1.21226e-05 0.0819327)
(-1.64069e-05 8.74994e-06 0.0822733)
(-8.79515e-06 1.00493e-05 0.0592389)
(-2.20538e-06 3.24463e-05 0.114959)
(-5.13478e-06 -8.40617e-06 0.135119)
(2.05456e-06 -4.73795e-06 0.140763)
(1.7431e-05 2.46371e-05 0.0974347)
(2.83587e-07 2.70947e-05 0.0950384)
(-8.18302e-06 2.30738e-05 0.0694063)
(-2.16912e-06 2.6966e-05 0.0950368)
(5.56382e-06 2.34874e-05 0.0693943)
(9.40023e-06 5.99284e-06 0.0590877)
(6.55711e-06 1.02011e-05 0.0592222)
(-3.94456e-06 -2.14205e-05 0.0803807)
(-4.51689e-06 -1.51573e-05 0.0574784)
(1.18704e-05 1.72012e-06 0.0636814)
(-2.86124e-05 4.78121e-06 0.0908037)
(-8.9366e-06 3.40365e-06 0.0658579)
(2.95013e-05 1.59318e-06 0.0943619)
(3.04922e-05 1.91313e-06 0.0909275)
(1.08489e-05 1.85474e-06 0.0659561)
(-1.06422e-05 4.43934e-06 0.0635967)
(1.23477e-05 1.55611e-06 0.0574722)
(-2.63464e-05 4.14237e-06 0.0801802)
(2.32418e-05 6.78543e-06 0.0690982)
(2.60416e-05 3.35915e-06 0.0802619)
(-1.30814e-05 4.96893e-06 0.0574205)
(1.19887e-05 -3.94904e-06 0.0591575)
(-1.67329e-05 -7.90079e-06 0.0747071)
(6.61606e-06 8.50037e-06 0.0578593)
(1.01479e-05 5.62194e-06 0.0578937)
(-9.5124e-06 -5.92875e-06 0.0579)
(-1.44119e-05 -2.63226e-06 0.05792)
(1.17531e-05 1.02942e-05 0.0746425)
(-4.13871e-05 -8.69674e-06 0.093611)
(1.03545e-05 8.84623e-06 0.0684155)
(-1.34485e-05 -1.01004e-05 0.0820318)
(3.90818e-05 1.28308e-05 0.106112)
(-4.36627e-05 -1.11942e-05 0.106175)
(-1.42211e-05 -6.02578e-06 0.0684636)
(3.75365e-05 9.993e-06 0.0935498)
(-1.66573e-05 -3.3914e-05 0.0935982)
(1.0512e-05 1.04238e-05 0.0684312)
(-2.12246e-05 -7.87582e-06 0.0822304)
(1.26552e-05 4.04544e-05 0.106307)
(-1.97864e-05 -3.77817e-05 0.106318)
(-1.57034e-05 -8.07783e-06 0.0684373)
(9.51877e-06 3.76628e-05 0.0935639)
(9.92172e-06 7.91111e-06 0.0591184)
(8.45218e-06 8.5532e-06 0.0747692)
(-1.3781e-05 3.11039e-06 0.0578743)
(-5.54465e-06 -2.96448e-06 0.0578298)
(7.83598e-06 2.19835e-06 0.0579502)
(2.38309e-06 8.74131e-06 0.0579167)
(-1.05351e-05 -1.93867e-06 0.0745721)
(1.27384e-05 3.33017e-05 0.0938113)
(-1.56012e-05 3.67266e-08 0.0684999)
(-1.56513e-05 -2.86372e-05 0.106258)
(8.26696e-06 7.77994e-06 0.0686042)
(-1.22309e-05 -2.65785e-05 0.0935932)
(3.33967e-05 1.17765e-05 0.0935538)
(-1.03776e-05 -3.95828e-06 0.0682845)
(9.50963e-06 1.52362e-05 0.0819748)
(-3.92283e-05 -1.00768e-05 0.105997)
(8.21809e-06 1.00585e-05 0.0683529)
(-3.47358e-05 -4.96587e-06 0.0933671)
(3.83735e-05 1.6164e-05 0.106091)
(3.77069e-06 -3.12474e-06 0.0578723)
(1.08185e-05 -2.76287e-06 0.07461)
(9.21698e-06 -5.34345e-06 0.0684307)
(3.9241e-05 -1.23639e-05 0.106075)
(3.64316e-05 -9.95761e-06 0.0935157)
(1.20073e-05 3.22066e-06 0.0637154)
(-8.72403e-06 1.81826e-06 0.0658708)
(-2.82003e-05 3.54484e-07 0.0908231)
(2.93662e-05 2.64091e-06 0.0943669)
(1.0994e-05 2.91637e-06 0.0659686)
(3.01217e-05 2.73129e-06 0.090947)
(-1.01754e-05 8.77685e-07 0.0636308)
(1.31723e-05 3.07062e-06 0.0575105)
(-2.47965e-05 8.5948e-07 0.0802188)
(2.42629e-05 -2.52736e-06 0.069147)
(2.68302e-05 1.50715e-06 0.0803008)
(-1.19931e-05 -7.15695e-08 0.057459)
(2.81154e-05 3.86035e-06 0.0908328)
(8.60812e-06 3.29769e-06 0.0658872)
(1.03151e-05 3.30578e-06 0.0636358)
(2.58106e-05 1.96659e-06 0.0802229)
(1.26049e-05 3.16226e-06 0.0574596)
(8.14817e-06 2.3477e-06 0.0658849)
(2.68846e-05 1.2964e-06 0.0908242)
(9.44661e-06 1.86295e-06 0.0636294)
(2.34918e-05 2.13403e-06 0.0802083)
(1.1134e-05 1.18905e-06 0.0574482)
(1.59513e-05 -7.43085e-06 0.0747375)
(-7.56386e-06 6.83618e-06 0.0578703)
(-1.22996e-05 5.63428e-06 0.0579323)
(8.32364e-06 -5.13315e-06 0.0579291)
(1.44268e-05 -3.14296e-06 0.0579376)
(-1.43322e-05 9.22039e-06 0.0746786)
(4.05609e-05 -6.71409e-06 0.0935158)
(-1.09128e-05 7.55391e-06 0.0683098)
(1.22162e-05 -1.11268e-05 0.0820202)
(-4.13334e-05 1.26298e-05 0.106055)
(1.28764e-05 -6.02666e-06 0.0683958)
(4.27357e-05 -1.04356e-05 0.106117)
(-4.06396e-05 8.79388e-06 0.0934587)
(1.62806e-05 -3.26262e-05 0.0937379)
(-1.22675e-05 1.15076e-05 0.0685891)
(1.8787e-05 -7.60194e-06 0.0822831)
(-1.48985e-05 4.09185e-05 0.106384)
(1.80927e-05 -3.63458e-05 0.106392)
(1.482e-05 -8.49379e-06 0.0685569)
(-1.25777e-05 3.69688e-05 0.0937112)
(1.0196e-05 -8.76459e-06 0.0592318)
(-2.04158e-06 -1.09821e-05 0.0639436)
(4.51295e-07 2.90723e-05 0.0915901)
(-3.86569e-07 6.87255e-06 0.0662097)
(-2.58727e-06 -2.78999e-05 0.0951721)
(-1.64439e-06 -3.04029e-05 0.0916404)
(-2.3443e-06 -8.22068e-06 0.0662631)
(1.04117e-08 9.63439e-06 0.063932)
(-1.06077e-07 -1.2409e-05 0.0575859)
(-3.82606e-06 2.68866e-05 0.0807718)
(8.2814e-06 -2.33423e-05 0.069362)
(2.92964e-06 -2.6499e-05 0.0807352)
(-1.11503e-06 1.22301e-05 0.0576205)
(-1.10522e-06 -1.06075e-05 0.0639464)
(-2.70819e-06 2.87876e-05 0.0915833)
(-1.72587e-06 6.94739e-06 0.0662107)
(-3.40478e-07 -2.79481e-05 0.0951709)
(-1.47623e-06 -3.03066e-05 0.0916392)
(-7.84062e-07 -8.18528e-06 0.0662633)
(-2.29243e-06 9.47092e-06 0.0639311)
(-2.65366e-06 -1.20308e-05 0.0575897)
(1.03469e-06 2.68588e-05 0.0807647)
(-1.07577e-05 -2.31559e-05 0.0693537)
(-5.92786e-06 -2.64371e-05 0.0807352)
(-1.13501e-06 1.2339e-05 0.0576195)
(-1.21831e-05 -8.80528e-06 0.0592167)
(-9.29518e-06 7.56483e-06 0.14492)
(-3.10935e-06 3.56078e-06 0.149424)
(-1.49012e-05 7.01203e-06 0.148478)
(-1.05404e-05 1.23402e-05 0.152848)
(9.48428e-06 6.65145e-06 0.144888)
(3.66844e-06 3.29659e-06 0.149421)
(1.32708e-05 5.66237e-06 0.14846)
(1.19953e-05 1.20206e-05 0.15285)
(-7.53055e-06 -2.39707e-06 0.144657)
(-7.63008e-06 -1.34825e-06 0.148457)
(-5.11872e-06 -3.96738e-06 0.149057)
(-7.71073e-06 2.76036e-06 0.152652)
(5.76243e-06 -3.66526e-06 0.144676)
(8.37757e-06 -2.50174e-06 0.148461)
(3.24382e-06 -4.84937e-06 0.149067)
(8.31147e-06 2.85583e-06 0.152658)
(-0.000137435 1.90851e-06 0.125177)
(3.58444e-05 3.48869e-06 0.111436)
(0.000130185 3.60201e-06 0.127135)
(-3.66825e-05 1.17217e-06 0.114128)
(-3.82186e-05 1.59214e-06 0.11149)
(-0.00012997 7.24236e-07 0.127115)
(0.000136192 2.39965e-06 0.125248)
(3.39485e-05 -1.556e-06 0.105939)
(0.000140702 -6.67038e-06 0.115042)
(0.000145326 -1.49201e-06 0.121414)
(-4.60808e-06 -0.00013826 0.126016)
(2.57086e-06 0.000133496 0.12804)
(1.64146e-06 3.55637e-05 0.112322)
(-2.86145e-06 -3.34519e-05 0.115086)
(-3.56031e-06 -0.000131648 0.128069)
(-1.91744e-06 -3.61399e-05 0.11234)
(4.76663e-06 0.00013798 0.126102)
(2.13928e-06 -0.000137436 0.121994)
(-5.86378e-06 3.49415e-05 0.106692)
(1.99736e-05 -2.50132e-05 0.0973991)
(-8.49673e-06 0.000139762 0.11556)
(1.08411e-05 -0.000137909 0.115496)
(5.66481e-06 -3.35287e-05 0.106613)
(-8.95474e-07 0.000143836 0.122135)
(-4.08321e-05 -3.437e-05 0.109216)
(-0.000107303 -0.000101613 0.129061)
(3.51175e-05 0.000119611 0.120102)
(0.000116247 3.69843e-05 0.120166)
(-3.91138e-05 -0.000114425 0.120047)
(-0.000119209 -3.31632e-05 0.12009)
(3.70605e-05 3.85109e-05 0.109242)
(3.68623e-05 3.6742e-05 0.10933)
(0.000113255 0.000106422 0.129124)
(-0.000122024 -3.04261e-05 0.120185)
(-3.15687e-05 -0.000118137 0.119929)
(-3.60416e-05 -3.27515e-05 0.109131)
(0.000127127 3.50447e-05 0.120295)
(3.34646e-05 0.000118868 0.120012)
(-8.12087e-06 -2.73599e-05 0.106175)
(-1.24992e-05 -0.000134565 0.115259)
(-7.56478e-06 -0.000139826 0.12172)
(0.000137163 8.17666e-07 0.125194)
(-3.64795e-05 3.22464e-06 0.111435)
(-0.000131083 2.63359e-06 0.127148)
(3.60457e-05 3.95888e-07 0.114129)
(3.80502e-05 1.02479e-06 0.111491)
(0.000129515 -1.76452e-07 0.127129)
(-0.000137188 1.51081e-06 0.125265)
(0.0001416 4.25453e-06 0.121351)
(-3.43866e-05 -6.79029e-07 0.105927)
(2.702e-05 1.68161e-05 0.0969192)
(-0.000141275 -5.1766e-06 0.115026)
(3.54761e-05 5.31774e-06 0.105963)
(0.000141313 9.68903e-06 0.115036)
(-0.000145957 -1.58445e-06 0.121423)
(0.000134785 1.1771e-06 0.125161)
(-0.000129953 6.76452e-07 0.12713)
(-3.59445e-05 1.04643e-06 0.111418)
(3.58455e-05 2.30663e-06 0.114122)
(0.000128894 2.0285e-06 0.127112)
(3.73526e-05 2.42698e-06 0.111476)
(-0.000136657 1.65646e-06 0.125227)
(0.000140007 -1.36916e-06 0.121307)
(-3.30675e-05 5.0891e-06 0.105918)
(2.78568e-05 -1.20376e-05 0.0969363)
(-0.000138006 8.56218e-06 0.115005)
(3.56388e-05 -1.03412e-06 0.105956)
(-0.000142122 4.6524e-06 0.121369)
(0.000140144 -5.25817e-06 0.115016)
(-0.000136042 1.00474e-06 0.125172)
(0.000129057 1.2318e-06 0.127127)
(3.41771e-05 1.52453e-06 0.111426)
(-3.7155e-05 3.09759e-06 0.114125)
(-0.000129669 2.48728e-06 0.127108)
(-3.90972e-05 2.93834e-06 0.111483)
(0.000135757 1.69115e-06 0.125239)
(-0.000141708 -1.85105e-06 0.121323)
(3.12812e-05 5.71911e-06 0.105925)
(-2.93272e-05 -1.17885e-05 0.0969415)
(0.00013712 8.24013e-06 0.11503)
(-0.000142044 -6.20922e-06 0.115041)
(-3.73025e-05 -5.91071e-07 0.105963)
(0.000141154 4.60631e-06 0.121386)
(3.9468e-05 -3.2952e-05 0.109226)
(0.000105357 -0.00010143 0.129046)
(-3.73239e-05 0.000118863 0.120091)
(-0.000118236 3.72041e-05 0.120179)
(0.000117495 -3.22884e-05 0.120103)
(3.73124e-05 -0.000113051 0.12003)
(-3.99771e-05 3.79052e-05 0.10926)
(3.26834e-06 -0.000138778 0.126011)
(-3.45263e-06 0.000133534 0.128037)
(-3.11171e-06 3.48945e-05 0.112309)
(8.36907e-07 -3.36287e-05 0.115082)
(2.03936e-06 -0.000131984 0.128066)
(-1.95405e-07 -3.66106e-05 0.112332)
(-5.80319e-06 0.000137796 0.126093)
(-3.27905e-06 -0.000138322 0.121986)
(3.72768e-06 3.42451e-05 0.106675)
(-2.20469e-05 -2.56201e-05 0.0973763)
(7.05044e-06 0.000139337 0.115538)
(-1.19418e-05 -0.00013863 0.115474)
(-7.68947e-06 -3.43289e-05 0.106601)
(-5.2644e-07 0.00014332 0.122124)
(-1.03353e-05 -6.83785e-06 0.0403869)
(-7.19093e-06 -2.31563e-06 0.0272683)
(-4.56544e-06 -2.86048e-07 0.0169533)
(-2.45847e-06 3.23355e-07 0.00892578)
(-7.53893e-07 1.76915e-07 0.00270936)
(-8.84286e-06 1.52494e-06 0.0403941)
(-4.61554e-06 1.45204e-06 0.0272703)
(-2.19204e-06 1.08546e-06 0.0169527)
(-8.14829e-07 6.51764e-07 0.00892443)
(-1.75712e-07 2.15637e-07 0.0027086)
(-4.81458e-06 2.03854e-06 0.0417033)
(-2.32575e-06 9.1189e-07 0.0283595)
(-9.25986e-07 4.08667e-07 0.017756)
(-2.13716e-07 1.49177e-07 0.00941109)
(-1.76921e-08 5.29302e-08 0.00287764)
(-1.26458e-05 -1.63057e-06 0.0416714)
(-8.74834e-06 7.78392e-07 0.0283394)
(-5.53827e-06 1.468e-06 0.0177446)
(-2.97144e-06 1.19441e-06 0.00940598)
(-9.17411e-07 4.20228e-07 0.00287654)
(-6.31598e-06 7.75135e-07 0.0416741)
(-3.46739e-06 1.24014e-06 0.0283394)
(-1.72609e-06 1.07483e-06 0.0177432)
(-6.83565e-07 6.905e-07 0.00940409)
(-1.74178e-07 2.31381e-07 0.00287548)
(5.00202e-06 -3.87858e-07 0.0417095)
(2.61597e-06 2.90645e-07 0.0283643)
(1.16966e-06 2.74186e-07 0.0177593)
(3.55866e-07 1.40615e-07 0.009413)
(7.09637e-08 3.21009e-08 0.00287843)
(-7.56541e-06 1.61547e-06 0.0404267)
(-3.61687e-06 9.28923e-07 0.0272924)
(-1.52032e-06 5.0425e-07 0.0169664)
(-4.57125e-07 2.25806e-07 0.0089314)
(-5.32201e-08 5.96988e-08 0.00271054)
(8.06737e-06 -1.66097e-07 0.040426)
(4.02992e-06 1.49935e-07 0.0272927)
(1.7853e-06 1.58763e-07 0.016967)
(5.64987e-07 1.07197e-07 0.00893211)
(9.7045e-08 3.49686e-08 0.00271099)
(6.83223e-06 2.91264e-06 0.0404161)
(3.11851e-06 1.93061e-06 0.0272854)
(1.20115e-06 1.18955e-06 0.0169625)
(2.5573e-07 6.11582e-07 0.00893001)
(9.87812e-09 1.75367e-07 0.00271043)
(-5.71378e-06 4.08439e-06 0.0416709)
(-3.41869e-06 1.58838e-06 0.0283383)
(-1.83346e-06 4.35719e-07 0.0177433)
(-8.16326e-07 -3.36075e-08 0.00940471)
(-2.15669e-07 -3.93188e-08 0.00287589)
(-4.93752e-06 6.93759e-06 0.040376)
(-3.30837e-06 3.05502e-06 0.0272597)
(-2.01755e-06 1.11114e-06 0.0169468)
(-1.04269e-06 2.00833e-07 0.00892175)
(-3.11426e-07 -9.85244e-09 0.00270786)
(3.23526e-06 7.31361e-06 0.0403704)
(2.15108e-06 3.37093e-06 0.027256)
(1.29667e-06 1.33284e-06 0.0169448)
(6.57471e-07 3.3241e-07 0.00892059)
(2.02588e-07 2.84338e-08 0.00270743)
(4.05567e-06 3.52e-06 0.0416906)
(1.77995e-06 1.9985e-06 0.0283513)
(6.30547e-07 1.07474e-06 0.0177512)
(1.1076e-07 4.87488e-07 0.00940868)
(-1.85019e-08 1.32299e-07 0.00287694)
(4.20475e-06 4.39743e-06 0.0416586)
(2.50832e-06 1.89058e-06 0.0283299)
(1.39286e-06 6.19248e-07 0.0177378)
(6.51822e-07 4.07907e-08 0.00940155)
(1.96994e-07 -2.68486e-08 0.00287474)
(5.78171e-06 9.77758e-07 0.0407177)
(2.94933e-06 5.61272e-07 0.0275717)
(1.32565e-06 2.46677e-07 0.0171906)
(4.68575e-07 6.27781e-08 0.00907497)
(6.99457e-08 -1.02903e-08 0.00276278)
(-5.33982e-06 2.75477e-06 0.0409462)
(-2.61971e-06 2.17652e-06 0.0277706)
(-1.1008e-06 1.52988e-06 0.017345)
(-3.24837e-07 8.95314e-07 0.00917299)
(-5.59031e-08 2.86612e-07 0.00279833)
(5.13112e-06 1.33343e-06 0.0409956)
(2.54117e-06 9.50567e-07 0.0278035)
(1.09615e-06 6.09554e-07 0.0173658)
(3.512e-07 3.3099e-07 0.00918433)
(4.89368e-08 8.34985e-08 0.00280199)
(-6.30628e-06 3.7983e-06 0.0406749)
(-3.31809e-06 3.03162e-06 0.0275435)
(-1.53978e-06 2.14633e-06 0.0171727)
(-5.55258e-07 1.26613e-06 0.00906516)
(-1.17145e-07 4.13219e-07 0.00275957)
(7.23742e-06 3.91082e-06 0.0404116)
(3.34757e-06 2.70727e-06 0.0272826)
(1.30899e-06 1.69455e-06 0.0169613)
(3.33995e-07 8.7457e-07 0.00892945)
(-1.62689e-08 2.78638e-07 0.00271037)
(5.78436e-06 -2.01019e-06 0.0417373)
(2.87803e-06 -9.66874e-07 0.0283833)
(1.22381e-06 -4.13995e-07 0.0177717)
(3.72287e-07 -1.30151e-07 0.00941989)
(4.96444e-08 -3.49424e-08 0.00288056)
(5.72397e-06 4.11917e-06 0.0405625)
(2.82322e-06 2.0018e-06 0.0273801)
(1.16862e-06 8.02665e-07 0.017022)
(3.33403e-07 1.96741e-07 0.00896229)
(6.41325e-08 2.603e-08 0.00272081)
(-7.79554e-06 -1.46345e-06 0.0405823)
(-4.37765e-06 2.03649e-08 0.0273939)
(-2.2215e-06 5.495e-07 0.0170314)
(-9.40786e-07 5.34044e-07 0.00896768)
(-2.3935e-07 2.24821e-07 0.00272268)
(5.44162e-06 5.35665e-06 0.0405312)
(3.01593e-06 2.47165e-06 0.0273602)
(1.49303e-06 8.97009e-07 0.0170101)
(6.12949e-07 1.88561e-07 0.00895629)
(1.61436e-07 -5.7567e-09 0.00271903)
(-8.58925e-06 -3.27376e-06 0.0405265)
(-5.24153e-06 -1.00901e-06 0.0273582)
(-2.9218e-06 1.36377e-08 0.01701)
(-1.39469e-06 2.64442e-07 0.00895666)
(-3.85552e-07 1.70437e-07 0.00271938)
(4.10771e-06 5.09654e-06 0.0417078)
(1.60003e-06 3.30496e-06 0.0283629)
(3.58307e-07 2.02083e-06 0.0177587)
(-1.09497e-07 1.04247e-06 0.00941271)
(-1.12704e-07 3.38583e-07 0.00287834)
(2.37937e-06 -2.12872e-07 0.0415453)
(1.78586e-06 8.14673e-07 0.0282163)
(1.27469e-06 1.03292e-06 0.0176444)
(7.67409e-07 7.85699e-07 0.00934074)
(2.83597e-07 2.83971e-07 0.00285258)
(4.88473e-06 6.46369e-08 0.0405848)
(2.78929e-06 8.56653e-07 0.0273951)
(1.43362e-06 7.83074e-07 0.0170317)
(5.87417e-07 4.86374e-07 0.00896768)
(1.64935e-07 1.54081e-07 0.00272259)
(6.05835e-06 2.937e-06 0.0407411)
(3.21791e-06 2.41539e-06 0.0275872)
(1.53234e-06 1.77913e-06 0.0172001)
(5.94912e-07 1.08966e-06 0.00908008)
(1.14963e-07 3.59638e-07 0.00276431)
(-5.20121e-06 1.32737e-06 0.0409549)
(-2.51606e-06 9.33284e-07 0.0277764)
(-1.03276e-06 5.94697e-07 0.0173485)
(-2.86887e-07 3.21272e-07 0.00917481)
(-4.0624e-08 8.10698e-08 0.00279887)
(5.32882e-06 2.44856e-06 0.0410037)
(2.7172e-06 1.94623e-06 0.0278088)
(1.21805e-06 1.37487e-06 0.017369)
(4.13752e-07 8.06841e-07 0.00918596)
(6.71627e-08 2.60523e-07 0.00280248)
(-5.78054e-06 3.11205e-07 0.0406982)
(-2.86497e-06 5.09749e-08 0.0275587)
(-1.21619e-06 -6.7305e-08 0.017182)
(-3.7755e-07 -8.83098e-08 0.0090701)
(-6.00638e-08 -5.98552e-08 0.00276105)
(8.28117e-06 -5.07635e-07 0.0404447)
(4.22053e-06 -4.59644e-08 0.0273052)
(1.93152e-06 1.48125e-07 0.0169753)
(6.8768e-07 1.78652e-07 0.00893665)
(1.14486e-07 6.07729e-08 0.00271238)
(5.27895e-06 2.75117e-06 0.0409667)
(2.64565e-06 2.20547e-06 0.0277845)
(1.15123e-06 1.5669e-06 0.0173539)
(3.57017e-07 9.24478e-07 0.0091777)
(6.53824e-08 2.97408e-07 0.00279954)
(6.13513e-06 3.09515e-06 0.0407012)
(3.21733e-06 2.56406e-06 0.0275611)
(1.48369e-06 1.86002e-06 0.0171836)
(5.28574e-07 1.11503e-06 0.00907074)
(1.07687e-07 3.74695e-07 0.00276113)
(4.93493e-06 1.74737e-06 0.0409647)
(2.38467e-06 1.2587e-06 0.0277831)
(9.78075e-07 8.15773e-07 0.0173527)
(2.73288e-07 4.44952e-07 0.00917687)
(3.53087e-08 1.17919e-07 0.00279935)
(5.47777e-06 1.08391e-06 0.0406977)
(2.73417e-06 6.57814e-07 0.0275587)
(1.1551e-06 3.58173e-07 0.0171819)
(3.32725e-07 1.5865e-07 0.00906986)
(5.20918e-08 1.26916e-08 0.00276093)
(-7.61818e-06 3.60926e-06 0.0415505)
(-4.46021e-06 1.13987e-06 0.0282164)
(-2.56924e-06 -1.09015e-07 0.0176431)
(-1.28754e-06 -4.73531e-07 0.00933989)
(-4.04764e-07 -2.54215e-07 0.00285222)
(-7.449e-06 7.38274e-06 0.0405671)
(-4.00714e-06 3.41645e-06 0.027381)
(-1.85995e-06 1.2348e-06 0.0170222)
(-6.99564e-07 2.65771e-07 0.00896278)
(-1.46242e-07 1.49215e-08 0.00272115)
(8.01852e-06 -4.14903e-06 0.0405473)
(4.73411e-06 -1.63236e-06 0.0273715)
(2.54473e-06 -3.80884e-07 0.0170182)
(1.15022e-06 8.38661e-08 0.00896138)
(3.10558e-07 1.03585e-07 0.00272099)
(6.62917e-06 -3.35007e-06 0.0416651)
(4.04247e-06 -1.22275e-06 0.0283358)
(2.26863e-06 -2.34355e-07 0.0177428)
(1.07606e-06 1.0225e-07 0.00940493)
(3.31897e-07 1.02983e-07 0.00287617)
(-1.99715e-06 -5.45139e-06 0.0406193)
(-1.87644e-06 -2.90133e-06 0.0275064)
(-1.56031e-06 -1.42008e-06 0.0171506)
(-1.03895e-06 -5.92691e-07 0.0090541)
(-3.73605e-07 -1.32718e-07 0.00275639)
(-2.04576e-07 3.27497e-06 0.0408736)
(3.59623e-08 1.54549e-06 0.0277249)
(1.64455e-07 6.27414e-07 0.0173178)
(1.56522e-07 1.6838e-07 0.00915901)
(8.90949e-08 5.12641e-08 0.00279413)
(-1.83742e-06 -3.61008e-06 0.0408883)
(-1.49904e-06 -1.75448e-06 0.0277321)
(-1.10736e-06 -7.7653e-07 0.0173219)
(-6.7613e-07 -2.89689e-07 0.00916121)
(-2.28839e-07 -5.61589e-08 0.00279491)
(2.72042e-07 5.01566e-06 0.0406236)
(5.8986e-07 2.58258e-06 0.0275109)
(7.01933e-07 1.18415e-06 0.0171533)
(5.50405e-07 4.26449e-07 0.00905531)
(2.39132e-07 1.08965e-07 0.00275662)
(4.66122e-06 -7.06182e-06 0.0403439)
(3.07224e-06 -3.22768e-06 0.0272398)
(1.81452e-06 -1.25706e-06 0.0169359)
(8.85797e-07 -3.15722e-07 0.00891655)
(2.88474e-07 5.15546e-09 0.00270651)
(-1.21119e-07 -5.05708e-06 0.0406212)
(4.40841e-07 -2.57355e-06 0.0275079)
(6.78623e-07 -1.18728e-06 0.0171519)
(5.78883e-07 -4.69676e-07 0.00905477)
(2.39352e-07 -8.86075e-08 0.00275654)
(-1.17526e-06 3.40409e-06 0.0408744)
(-9.41808e-07 1.67918e-06 0.0277255)
(-7.08927e-07 7.3822e-07 0.0173186)
(-4.47307e-07 2.40084e-07 0.00915955)
(-1.49513e-07 7.05035e-08 0.00279423)
(-3.07763e-07 -3.61635e-06 0.0408887)
(1.14364e-08 -1.75764e-06 0.0277322)
(1.72267e-07 -7.71433e-07 0.0173222)
(1.75382e-07 -2.75438e-07 0.0091615)
(9.04523e-08 -5.12174e-08 0.00279494)
(-1.812e-06 4.93886e-06 0.0406235)
(-1.62114e-06 2.55723e-06 0.0275108)
(-1.3311e-06 1.18633e-06 0.0171535)
(-8.84324e-07 4.35054e-07 0.00905542)
(-3.2452e-07 1.18252e-07 0.00275659)
(-6.27908e-06 -6.69432e-06 0.0403401)
(-4.1488e-06 -2.90651e-06 0.0272374)
(-2.45982e-06 -1.03411e-06 0.0169346)
(-1.22028e-06 -2.10477e-07 0.00891579)
(-3.75614e-07 5.09094e-08 0.00270621)
(-8.25964e-06 -3.05208e-06 0.0416538)
(-5.30376e-06 -8.31658e-07 0.0283279)
(-3.14441e-06 1.10719e-07 0.0177375)
(-1.58728e-06 3.38674e-07 0.00940187)
(-4.84127e-07 1.78786e-07 0.00287505)
(3.6895e-06 4.67193e-06 0.0415332)
(1.68277e-06 2.49683e-06 0.0282064)
(5.72828e-07 1.23223e-06 0.0176374)
(7.77011e-08 5.07916e-07 0.00933684)
(-2.92824e-08 1.28133e-07 0.00285116)
(6.12776e-06 2.65231e-06 0.0415276)
(3.60452e-06 8.01695e-07 0.0282024)
(1.98435e-06 -8.31427e-08 0.017635)
(9.23275e-07 -3.43605e-07 0.00933541)
(2.84297e-07 -1.64411e-07 0.00285073)
(-5.01356e-06 -9.18956e-06 0.0417419)
(-3.618e-06 -3.964e-06 0.0283875)
(-2.17236e-06 -1.34707e-06 0.0177747)
(-1.06969e-06 -2.58211e-07 0.00942157)
(-2.92878e-07 -1.33738e-08 0.00288105)
(7.45722e-06 9.02596e-07 0.0417787)
(3.76787e-06 4.04262e-07 0.0284109)
(1.63577e-06 5.09876e-08 0.0177885)
(5.49414e-07 -9.91189e-08 0.00942849)
(8.65756e-08 -6.33979e-08 0.00288313)
(-8.33255e-06 4.64006e-06 0.0417457)
(-4.52578e-06 3.76502e-06 0.0283877)
(-2.20394e-06 2.72185e-06 0.0177731)
(-8.75176e-07 1.6257e-06 0.00941981)
(-2.09239e-07 5.49008e-07 0.00288022)
(-3.29947e-06 3.30097e-06 0.0415451)
(-1.63195e-06 1.60625e-06 0.0282142)
(-7.2897e-07 5.61323e-07 0.0176422)
(-2.52261e-07 6.50051e-08 0.00933926)
(-7.58978e-08 -1.64448e-08 0.00285195)
(-4.46466e-06 2.05381e-06 0.0405574)
(-2.35299e-06 8.18386e-07 0.0273792)
(-1.11325e-06 2.47498e-07 0.0170223)
(-4.05869e-07 -3.2779e-10 0.00896289)
(-8.88833e-08 -1.80022e-08 0.00272107)
(6.45276e-06 -1.83808e-06 0.0405922)
(3.48278e-06 -5.31141e-07 0.0274002)
(1.66957e-06 4.69591e-08 0.0170353)
(6.68581e-07 1.88517e-07 0.00896995)
(1.48457e-07 1.00833e-07 0.0027234)
(-6.10358e-06 -2.53457e-06 0.04156)
(-3.45992e-06 -8.67668e-07 0.0282253)
(-1.73148e-06 -1.07889e-07 0.01765)
(-7.14794e-07 1.26611e-07 0.00934391)
(-1.64163e-07 8.81186e-08 0.00285357)
(-9.28281e-06 -4.52086e-07 0.0415448)
(-5.78544e-06 7.2976e-07 0.028215)
(-3.33858e-06 1.05572e-06 0.0176437)
(-1.64546e-06 8.35623e-07 0.00934046)
(-4.90101e-07 3.32957e-07 0.00285249)
(-9.16648e-06 2.84429e-06 0.0415133)
(-6.092e-06 2.84387e-06 0.0281943)
(-3.79658e-06 2.35369e-06 0.0176306)
(-2.03048e-06 1.51907e-06 0.00933324)
(-6.3738e-07 5.03912e-07 0.00284998)
(-1.08288e-05 -4.80843e-07 0.0405432)
(-7.45323e-06 1.24948e-06 0.0273684)
(-4.6894e-06 1.70352e-06 0.0170157)
(-2.52309e-06 1.29754e-06 0.0089596)
(-7.73063e-07 4.50755e-07 0.00272022)
(3.18919e-06 3.91204e-06 0.0405609)
(1.13933e-06 2.20935e-06 0.027377)
(1.22953e-07 1.25288e-06 0.0170205)
(-2.26718e-07 6.05884e-07 0.00896218)
(-1.20879e-07 1.63684e-07 0.00272111)
(-4.60273e-06 -2.29157e-08 0.04152)
(-3.04234e-06 8.41295e-07 0.0281984)
(-1.72534e-06 8.58351e-07 0.0176331)
(-7.95706e-07 5.89261e-07 0.00933462)
(-2.07696e-07 1.84638e-07 0.00285044)
(-7.46898e-06 -1.53151e-07 0.0405359)
(-4.40257e-06 9.84532e-07 0.0273634)
(-2.31798e-06 1.1063e-06 0.0170124)
(-1.01778e-06 7.81967e-07 0.00895743)
(-2.65875e-07 2.82172e-07 0.00271931)
(4.25866e-06 5.11575e-06 0.0405607)
(1.81023e-06 3.08343e-06 0.0273795)
(4.80091e-07 1.76354e-06 0.0170227)
(-5.07592e-08 8.65066e-07 0.0089632)
(-9.07005e-08 2.49275e-07 0.00272125)
(4.41262e-06 1.55838e-06 0.0415564)
(2.24106e-06 8.84784e-07 0.0282205)
(9.69461e-07 4.05298e-07 0.0176464)
(3.18701e-07 1.40073e-07 0.0093416)
(7.36528e-08 -6.47714e-10 0.00285267)
(1.05261e-06 5.27737e-06 0.0415683)
(-3.80785e-08 3.37158e-06 0.0282279)
(-5.39936e-07 2.07769e-06 0.017651)
(-5.49486e-07 1.0972e-06 0.00934416)
(-2.27956e-07 3.4577e-07 0.00285349)
(8.32067e-06 2.97839e-06 0.0418094)
(4.51284e-06 2.54281e-06 0.0284318)
(2.16944e-06 1.94669e-06 0.0178015)
(8.47763e-07 1.22528e-06 0.00943527)
(1.89892e-07 4.21397e-07 0.00288501)
(-7.31883e-06 -6.09468e-07 0.0417767)
(-3.72194e-06 -7.28835e-07 0.0284089)
(-1.65081e-06 -6.69102e-07 0.0177863)
(-5.63149e-07 -4.66033e-07 0.00942668)
(-1.08334e-07 -1.90255e-07 0.00288213)
(7.97968e-06 3.17164e-06 0.0417765)
(4.28877e-06 2.68965e-06 0.0284092)
(2.04571e-06 2.00432e-06 0.0177868)
(7.75824e-07 1.22474e-06 0.00942701)
(1.77717e-07 4.25418e-07 0.00288238)
(6.71674e-06 5.65347e-07 0.0417682)
(3.3625e-06 1.82629e-07 0.0284033)
(1.4502e-06 -4.7847e-08 0.017783)
(4.66323e-07 -1.16224e-07 0.00942521)
(7.81225e-08 -8.397e-08 0.00288192)
(5.17305e-06 -2.36885e-06 0.0415822)
(2.83917e-06 -8.95392e-07 0.0282385)
(1.39672e-06 -1.65307e-07 0.0176576)
(5.77591e-07 9.75294e-08 0.00934775)
(1.33179e-07 6.47009e-08 0.00285473)
(9.07587e-06 -1.00888e-06 0.0415564)
(5.5778e-06 2.97047e-07 0.0282231)
(3.19709e-06 8.00094e-07 0.0176487)
(1.57213e-06 7.25292e-07 0.00934345)
(4.68828e-07 3.05096e-07 0.00285356)
(-2.43728e-07 -7.71091e-06 0.0416929)
(-6.25203e-07 -4.03691e-06 0.028354)
(-7.89833e-07 -1.86879e-06 0.0177538)
(-6.46007e-07 -7.15323e-07 0.00941058)
(-2.43158e-07 -1.50793e-07 0.00287771)
(-8.96496e-07 7.53062e-06 0.0417223)
(-2.99977e-07 3.81064e-06 0.0283725)
(1.30485e-07 1.68999e-06 0.0177642)
(2.46248e-07 5.82227e-07 0.00941554)
(1.40175e-07 1.24946e-07 0.00287901)
(-1.83034e-06 -7.33063e-06 0.0416953)
(-8.0663e-07 -3.75749e-06 0.0283557)
(-1.09468e-07 -1.68903e-06 0.017755)
(1.66086e-07 -6.09464e-07 0.00941104)
(1.07416e-07 -1.16649e-07 0.00287779)
(-8.40561e-07 7.72827e-06 0.0417221)
(-8.80227e-07 4.02483e-06 0.028373)
(-8.53576e-07 1.85621e-06 0.0177648)
(-6.23542e-07 6.7378e-07 0.0094157)
(-2.50791e-07 1.58902e-07 0.00287901)
(3.74147e-06 3.31645e-06 0.0591202)
(8.98037e-06 6.2084e-06 0.0591206)
(0.000109327 0.00012257 0.129068)
(1.78456e-05 7.88019e-06 0.0820717)
(6.33994e-06 1.32938e-05 0.0819406)
(2.68978e-05 1.31933e-06 0.0943093)
(2.12232e-05 5.2213e-06 0.0690772)
(3.49454e-05 3.43031e-07 0.114051)
(3.22157e-06 -1.75481e-06 0.135289)
(2.44058e-05 1.53406e-05 0.0968638)
(4.55896e-07 -9.23875e-08 0.14071)
(2.69119e-05 3.19712e-06 0.0943141)
(2.28232e-05 -9.88878e-07 0.0691275)
(3.49808e-05 2.69869e-06 0.114043)
(-9.50595e-07 2.57068e-06 0.135332)
(-1.97405e-06 1.01259e-06 0.140723)
(2.59221e-05 -1.02034e-05 0.0968809)
(-8.75238e-08 2.54868e-06 0.135353)
(-2.74197e-05 -1.03219e-05 0.0968854)
(-2.35976e-05 5.24893e-07 0.0691105)
(1.13078e-05 -2.20404e-06 0.0591593)
(0.000114073 -0.000115617 0.128935)
(9.76737e-06 -6.57125e-06 0.0819859)
(2.25659e-05 -3.03143e-06 0.082265)
(1.12871e-05 -6.39133e-06 0.0592388)
(-1.88529e-06 -3.31456e-05 0.115079)
(1.69e-06 1.78893e-06 0.135614)
(1.14021e-06 8.6141e-07 0.140958)
(2.1615e-05 -2.35457e-05 0.0973637)
(1.43098e-06 -3.31934e-05 0.115076)
(-2.78358e-06 1.61063e-06 0.135626)
(-2.66785e-06 2.34083e-06 0.140956)
(-2.21871e-05 -2.45952e-05 0.0973394)
(-1.44807e-06 -2.67763e-05 0.0951678)
(9.14017e-06 -2.15614e-05 0.0693497)
(3.23043e-07 -2.69625e-05 0.0951664)
(-1.05754e-05 -2.21204e-05 0.0693393)
(-0.000115949 -0.00011731 0.128951)
(-1.02945e-05 -8.37765e-06 0.0819994)
(-2.0951e-05 -5.01962e-06 0.0822069)
(-1.15689e-05 -1.05052e-06 0.0591429)
(-1.20244e-05 -7.57661e-06 0.0592183)
(3.98394e-06 1.04662e-06 0.0579464)
(2.4893e-06 6.83579e-06 0.0579161)
(7.9117e-06 7.05929e-06 0.0747591)
(4.86778e-06 7.6708e-06 0.0685126)
(1.89992e-05 3.98776e-05 0.106252)
(1.2224e-05 3.4416e-05 0.093726)
(7.08773e-06 7.62836e-06 0.0683322)
(3.91884e-05 1.38497e-05 0.106022)
(3.44871e-05 8.03883e-06 0.0935168)
(-4.45945e-07 7.45691e-06 0.0636108)
(2.79482e-05 6.40119e-07 0.090877)
(7.6832e-06 1.67811e-06 0.0659403)
(-1.80799e-05 4.14165e-06 0.0942716)
(9.18258e-06 1.00502e-06 0.063668)
(-1.93627e-05 7.05126e-06 0.0908574)
(1.27324e-06 4.35939e-06 0.065874)
(-2.63327e-06 7.36267e-06 0.057404)
(2.33008e-05 1.907e-06 0.0802276)
(-1.54684e-05 6.06262e-06 0.0690708)
(1.11685e-05 4.35743e-07 0.0574785)
(-1.69604e-05 5.64057e-06 0.0802155)
(-4.66172e-08 -1.99342e-06 0.063646)
(7.86491e-06 3.3332e-06 0.065953)
(2.77241e-05 4.25991e-06 0.0908966)
(-1.78658e-05 8.61806e-07 0.0942769)
(9.43687e-06 4.07076e-06 0.0637027)
(1.48705e-06 1.11642e-06 0.0658874)
(-1.90851e-05 -1.75633e-06 0.090877)
(-1.4969e-06 -2.29253e-06 0.0574439)
(2.43963e-05 3.1971e-06 0.0802677)
(-1.37559e-05 -2.03805e-06 0.0691201)
(1.21373e-05 4.40728e-06 0.0575183)
(-1.53616e-05 -4.07693e-07 0.0802553)
(6.90475e-07 -1.65312e-06 0.0574309)
(-2.56525e-05 4.23118e-06 0.0802551)
(1.25431e-05 -4.44658e-07 0.0691029)
(-1.27796e-05 5.40863e-06 0.0575066)
(1.42043e-05 3.74631e-07 0.0802421)
(-2.8479e-06 -5.74198e-07 0.0590921)
(-5.96537e-06 6.54663e-06 0.0747144)
(7.88272e-06 -6.55068e-06 0.0579489)
(1.04192e-05 -2.85878e-06 0.0579331)
(1.44815e-05 -5.40555e-06 0.0747153)
(-5.21156e-07 3.60645e-06 0.0578627)
(-3.18462e-06 -1.34854e-06 0.0579121)
(-3.00663e-05 2.57122e-06 0.0935152)
(1.30672e-05 -6.60262e-06 0.0684151)
(4.34428e-05 -6.02182e-06 0.106052)
(-3.25029e-06 8.1811e-06 0.0819659)
(-3.42345e-05 8.94141e-06 0.10611)
(4.22189e-05 -7.80548e-06 0.0934735)
(-5.27366e-06 1.15693e-06 0.0683591)
(-1.05294e-05 3.47937e-05 0.093757)
(1.20061e-05 -4.63619e-06 0.068513)
(2.1779e-05 -3.72461e-05 0.106346)
(-1.51636e-05 2.28842e-06 0.0822997)
(1.06684e-05 -3.17055e-05 0.0936965)
(-6.03648e-06 4.67252e-06 0.0685719)