/*--------------------------------*- C++ -*----------------------------------*\
| =========                 |                                                 |
| \\      /  F ield         | OpenFOAM: The Open Source CFD Toolbox           |
|  \\    /   O peration     | Version:  2206                                  |
|   \\  /    A nd           | Website:  www.openfoam.com                      |
|    \\/     M anipulation  |                                                 |
\*---------------------------------------------------------------------------*/
FoamFile
{
    version     2.0;
    format      ascii;
    arch        "LSB;label=32;scalar=64";
    class       volVectorField;
    location    "149";
    object      wallShearStress;
}
// * * * * * * * * * * * * * * * * * * * * * * * * * * * * * * * * * * * * * //

dimensions      [0 2 -2 0 0 0 0];

internalField   uniform (0 0 0);

boundaryField
{
    topPatch
    {
        type            calculated;
        value           nonuniform List<vector> 0();
    }
    wall
    {
        type            calculated;
        value           nonuniform List<vector> 
7709
(
(2.99581e-08 -4.24764e-09 -0.000103516)
(9.08224e-09 -7.38798e-09 -0.000103496)
(2.12997e-09 -2.81085e-09 -0.000109998)
(3.61738e-08 -1.44332e-08 -0.000109942)
(8.20341e-09 -8.06236e-09 -0.000109924)
(-4.09692e-09 -4.85396e-10 -0.000110019)
(4.22091e-09 -3.13703e-09 -0.000103576)
(-5.97575e-09 -4.86629e-10 -0.000103579)
(-2.52683e-09 -7.55561e-09 -0.000103553)
(9.16385e-09 -1.01953e-10 -0.000109925)
(1.27951e-08 -1.84634e-09 -0.000103465)
(-8.5885e-09 -3.21998e-09 -0.000103452)
(-8.25174e-10 -5.90475e-09 -0.000109971)
(-8.3968e-09 -4.90426e-10 -0.000109896)
(-4.38139e-09 1.52347e-10 -0.000105544)
(3.8577e-09 -1.09219e-08 -0.00010689)
(-3.30577e-09 -3.27339e-09 -0.00010703)
(6.41769e-09 -1.56005e-08 -0.000105421)
(-1.50015e-09 -1.15177e-08 -0.000103564)
(-3.43492e-09 2.15186e-09 -0.000110109)
(-4.11902e-09 -2.16407e-09 -0.00010396)
(1.05986e-08 -7.63469e-09 -0.000104031)
(-7.44803e-09 -1.52464e-09 -0.000103892)
(1.58254e-08 -5.13012e-09 -0.000103905)
(2.75135e-09 -1.38613e-08 -0.000110034)
(-1.11553e-08 -1.07505e-08 -0.000109045)
(-7.0055e-09 -5.43321e-09 -0.00010402)
(-5.96527e-09 -1.35933e-08 -0.0001056)
(3.32493e-09 -3.20073e-09 -0.00010691)
(-3.99699e-09 -9.93176e-09 -0.000107048)
(4.1889e-09 2.02572e-09 -0.000105476)
(-6.44637e-09 -1.54236e-09 -0.000103646)
(-4.29738e-09 -1.13305e-08 -0.000106947)
(-5.99902e-09 -1.41188e-08 -0.000105491)
(-3.02845e-09 -4.61828e-09 -0.000106939)
(-3.88157e-09 -7.57044e-10 -0.000105481)
(1.71536e-08 7.86259e-09 -0.000109032)
(7.3522e-09 -3.00577e-09 -0.000103957)
(-1.30764e-08 -2.34959e-09 -0.000103951)
(-1.34506e-08 -2.65831e-09 -0.000109936)
(1.41801e-08 6.29089e-09 -0.000105308)
(-3.39472e-09 -2.53208e-09 -0.000106739)
(8.77771e-09 2.63149e-09 -0.000106769)
(-9.00372e-09 -5.46763e-09 -0.000105316)
(-1.18138e-08 1.75341e-09 -0.000103414)
(-9.06142e-09 4.31859e-09 -0.000105316)
(5.72024e-09 -3.45568e-09 -0.000106744)
(-3.43843e-09 2.47922e-09 -0.000106771)
(1.22904e-08 -5.68503e-09 -0.000105317)
(1.5156e-08 -4.28932e-11 -0.000103405)
(1.93819e-08 -5.39757e-09 -0.000109908)
(-3.25527e-10 -6.10999e-09 -0.000108997)
(-1.20799e-08 4.92321e-09 -0.000108982)
(1.19141e-08 2.9664e-09 -0.000110101)
(-5.39107e-09 1.84976e-09 -0.000110183)
(1.02129e-08 -2.04759e-08 -0.000110072)
(3.93917e-09 -1.91287e-10 -0.000109027)
(4.55801e-09 -1.09102e-10 -0.000103962)
(-6.87228e-09 -3.03341e-09 -0.000104051)
(7.62915e-09 -2.31909e-09 -0.00010909)
(1.98989e-08 -1.14924e-08 -0.00010905)
(2.5051e-08 -1.86999e-08 -0.00010896)
(3.06858e-08 -1.59237e-08 -0.000103929)
(3.9824e-09 -7.21445e-09 -0.000103963)
(8.83354e-09 -6.41997e-09 -0.000108971)
(1.16415e-08 -9.81248e-09 -0.000103903)
(2.16924e-09 -1.05232e-08 -0.000103977)
(-3.50874e-09 -8.51294e-10 -0.000109062)
(7.79719e-09 -1.40604e-08 -0.000109088)
(-9.36413e-09 -1.56016e-08 -0.000110261)
(6.31338e-09 6.7025e-09 -0.000110151)
(-9.06373e-09 -1.57104e-08 -0.000110154)
(-5.08891e-09 2.63857e-09 -0.000110132)
(-6.19983e-09 -1.62071e-09 -0.000109134)
(-1.91847e-08 -1.03133e-08 -0.000109083)
(8.82979e-09 7.59343e-09 -0.000109974)
(-4.82693e-09 -6.81782e-09 -0.000110024)
(-3.61239e-09 6.35058e-09 -0.000109979)
(9.08258e-09 -8.08344e-09 -0.000110025)
(-1.66241e-08 8.04522e-09 -0.000109988)
(1.68042e-09 -5.25681e-09 -0.000110108)
(-1.11249e-09 -5.11564e-09 -0.00010364)
(-5.85449e-09 -6.31181e-09 -0.000103724)
(7.2386e-09 -9.78812e-09 -0.000103701)
(-6.45994e-09 -9.65582e-09 -0.000110181)
(-2.77144e-08 -1.25228e-08 -0.000110001)
(-2.00483e-08 -2.89821e-09 -0.000103464)
(2.07683e-08 -3.14538e-09 -0.000103449)
(6.76999e-09 -1.01168e-08 -0.00011016)
(2.40744e-08 -9.84489e-09 -0.00010996)
(-1.12303e-09 -2.1468e-08 -0.000105336)
(-7.98086e-10 -2.86435e-09 -0.000107116)
(-1.55765e-09 1.24789e-09 -0.00010563)
(-3.82988e-09 -1.16039e-08 -0.000106801)
(4.01518e-09 -2.71981e-08 -0.00011)
(4.17363e-09 -1.55577e-08 -0.000103418)
(-2.88118e-09 7.51393e-09 -0.000105393)
(-1.45751e-09 -1.07007e-08 -0.000107135)
(-3.49117e-09 -1.44012e-08 -0.000105687)
(-4.48553e-09 -3.05628e-09 -0.000106821)
(4.30136e-10 6.24433e-09 -0.000103499)
(6.60313e-10 1.07542e-08 -0.000110059)
(2.1359e-09 -7.10915e-11 -0.000103476)
(2.27352e-09 1.00653e-08 -0.000109933)
(-1.3923e-08 -1.04452e-08 -0.000109176)
(-2.15079e-08 -1.23629e-08 -0.000104048)
(1.25428e-08 1.13252e-08 -0.000103911)
(2.04065e-08 1.21272e-08 -0.000109889)
(2.66846e-09 -9.74477e-10 -0.000105301)
(3.19576e-09 1.6159e-09 -0.000106784)
(4.04298e-09 3.42045e-09 -0.000105334)
(2.05993e-09 -9.35069e-10 -0.000106742)
(2.0163e-08 5.95647e-09 -0.000103422)
(-2.16877e-09 -7.74544e-10 -0.000105302)
(-2.957e-09 1.8268e-09 -0.000106786)
(-3.07768e-09 3.12457e-09 -0.000105338)
(-3.10779e-09 -1.13922e-09 -0.000106745)
(-4.07629e-09 -6.79455e-10 -0.000109991)
(-1.60403e-08 4.6028e-09 -0.000103403)
(2.19714e-09 1.37405e-09 -0.000108941)
(-1.1481e-08 1.24981e-08 -0.000108928)
(1.15562e-08 -1.26464e-08 -0.000104102)
(-5.74197e-10 4.08285e-09 -0.000103895)
(2.01137e-08 -1.00641e-08 -0.000103963)
(-1.01238e-08 7.49832e-09 -0.000103835)
(3.53548e-09 4.57716e-10 -0.000109908)
(-1.40859e-08 8.1452e-09 -0.00010985)
(6.37547e-10 2.95882e-09 -0.000109189)
(8.03295e-09 -7.16244e-09 -0.000109163)
(2.35276e-08 -1.79402e-08 -0.000109118)
(-9.85919e-09 8.38864e-09 -0.000109105)
(-8.39396e-09 4.23536e-09 -0.000104019)
(1.88844e-09 -3.85918e-09 -0.000109137)
(-2.99891e-09 7.40774e-10 -0.000104038)
(-3.51384e-09 6.28457e-09 -0.000110269)
(1.78644e-10 1.33074e-08 -0.000110081)
(-7.38009e-09 -2.04117e-08 -0.00011035)
(7.95329e-09 -2.28226e-08 -0.000110331)
(-1.11717e-08 -1.07899e-08 -0.000104091)
(6.84536e-09 9.41312e-09 -0.000103892)
(-7.44986e-09 -7.19487e-09 -0.000108979)
(1.37591e-09 5.87647e-09 -0.000108973)
(5.41057e-09 -1.614e-10 -0.000109992)
(-2.22565e-09 3.45229e-09 -0.000110017)
(3.24227e-09 3.27331e-09 -0.000110018)
(-1.25418e-08 7.87457e-10 -0.000103385)
(1.35937e-08 -7.20333e-10 -0.000103426)
(2.15491e-08 9.3177e-09 -0.000109962)
(-1.38625e-08 -4.60715e-09 -0.000109947)
(1.04926e-09 -6.55133e-09 -0.000103532)
(4.74989e-09 -5.54646e-09 -0.000103449)
(-1.31505e-08 -2.28922e-10 -0.000103337)
(1.5845e-08 7.0892e-10 -0.000103447)
(2.35549e-08 8.78024e-09 -0.000109911)
(-2.00678e-08 -4.31336e-09 -0.000109962)
(-1.37683e-10 -8.88602e-09 -0.000103484)
(4.34661e-09 3.06954e-09 -0.000103501)
(2.56732e-09 8.7162e-09 -0.000110111)
(-1.04412e-09 -9.76736e-09 -0.000110106)
(-1.47832e-08 5.75599e-09 -0.000109893)
(1.67345e-08 -6.61181e-09 -0.000109881)
(3.53983e-09 -7.08572e-09 -0.00010998)
(2.89568e-09 -3.55786e-09 -0.000109876)
(1.82436e-08 -6.00161e-09 -0.000109896)
(-1.88327e-08 6.92753e-09 -0.000109872)
(2.8e-09 -8.1073e-10 -0.000109905)
(4.49683e-09 -1.06814e-08 -0.000109957)
(1.78067e-08 3.13339e-09 -0.000103446)
(-1.15501e-08 -2.60803e-10 -0.000103486)
(1.26761e-08 4.25169e-10 -0.000103442)
(-1.51798e-08 1.36407e-09 -0.000103365)
(-1.25498e-08 5.78605e-10 -0.000103506)
(1.68468e-08 1.83581e-09 -0.000103426)
(-1.73183e-09 -3.57772e-09 -0.000110152)
(-9.44727e-10 -8.8619e-11 -0.000110041)
(-2.00063e-08 -6.902e-09 -0.000109966)
(2.34309e-08 9.67541e-09 -0.000109941)
(-1.00035e-09 2.7155e-09 -0.000110058)
(-9.48744e-10 -4.4225e-09 -0.000110115)
(-3.39643e-09 -4.67389e-09 -0.000103693)
(1.76353e-10 -4.66904e-09 -0.000103606)
(4.23445e-09 -1.32875e-09 -0.000103479)
(1.10939e-09 -9.18742e-09 -0.00010351)
(2.02627e-09 -3.99607e-09 -0.000103635)
(-3.16032e-09 -3.70766e-10 -0.000103669)
(-8.81829e-10 -5.81165e-09 -0.000103693)
(-3.43225e-09 -2.58987e-09 -0.000103602)
(3.63535e-09 -4.15233e-09 -0.00010362)
(1.53717e-09 -8.70153e-09 -0.000103536)
(-2.18463e-09 2.94757e-09 -0.000103619)
(3.66118e-10 -5.17256e-09 -0.00010366)
(-1.67811e-09 -5.5099e-09 -0.000103553)
(5.97967e-09 -6.86841e-09 -0.000103595)
(-2.1158e-08 7.2609e-09 -0.000109841)
(2.40474e-08 -8.19696e-09 -0.000109894)
(4.59821e-09 -1.34236e-08 -0.000109928)
(2.49553e-09 2.15527e-09 -0.000109921)
(1.34139e-08 -2.27908e-10 -0.000103398)
(-1.18391e-08 2.02201e-09 -0.000103508)
(-7.38903e-10 -6.40095e-09 -0.000110079)
(3.39074e-09 1.29578e-08 -0.000110076)
(-1.2164e-09 4.83357e-09 -0.000103643)
(3.25448e-09 -4.31001e-09 -0.000103653)
(1.65428e-09 -4.90406e-09 -0.000103624)
(-3.4464e-10 9.96351e-09 -0.000103636)
(2.24715e-09 3.5702e-09 -0.00010356)
(-3.32663e-09 -6.40067e-09 -0.000103569)
(-1.83242e-08 -6.07978e-09 -0.000109932)
(2.18836e-08 6.04325e-09 -0.000109997)
(-2.40976e-08 -7.21413e-09 -0.000109949)
(-1.17615e-08 7.45912e-10 -0.000103405)
(1.70794e-08 1.43795e-11 -0.000103524)
(1.04754e-08 1.03713e-09 -0.000103374)
(-1.87064e-08 2.46797e-10 -0.000103488)
(-1.10396e-08 3.4352e-09 -0.000103403)
(9.5749e-09 3.59584e-09 -0.000103368)
(2.54675e-11 4.28698e-09 -0.000110009)
(1.39152e-09 -1.03452e-08 -0.000109997)
(2.04084e-08 -7.26187e-09 -0.00010986)
(-2.44093e-08 7.87382e-09 -0.000109921)
(1.93377e-08 -4.80602e-09 -0.000109865)
(6.36833e-09 -3.81784e-09 -0.000105258)
(6.43497e-10 3.27237e-09 -0.000106738)
(3.80422e-09 -3.14055e-09 -0.000106703)
(-3.81312e-09 3.95705e-09 -0.000105297)
(1.58202e-08 -1.86391e-09 -0.000103418)
(-1.38042e-08 1.26161e-09 -0.000103376)
(-1.35898e-08 -4.45602e-09 -0.00010994)
(2.24729e-08 9.64052e-09 -0.00010995)
(-5.40841e-10 5.4535e-09 -0.000105527)
(5.73081e-10 -7.47833e-09 -0.000106879)
(4.96982e-10 -4.50577e-10 -0.000107022)
(2.83511e-09 -1.62756e-08 -0.000105401)
(6.65236e-09 -2.01409e-08 -0.000110035)
(4.3999e-09 -5.89249e-09 -0.000103435)
(-2.15977e-09 4.56481e-09 -0.000110138)
(1.49273e-09 -7.93641e-09 -0.000103522)
(8.38961e-09 -5.90186e-09 -0.000105234)
(-1.43744e-09 3.64689e-09 -0.000106742)
(3.22082e-09 -4.35049e-09 -0.000106677)
(-5.29434e-09 4.93399e-09 -0.000105303)
(-4.74754e-09 6.63815e-09 -0.000110017)
(1.2862e-08 9.99128e-10 -0.000103446)
(9.14342e-09 -7.90753e-09 -0.000109907)
(-1.10465e-08 -2.23926e-09 -0.000103322)
(-2.31609e-08 -7.81437e-09 -0.000109968)
(1.60347e-08 3.78472e-09 -0.000109892)
(-4.48418e-09 8.75384e-09 -0.000105477)
(2.68966e-09 -3.51636e-09 -0.000106929)
(-1.85495e-09 3.23388e-09 -0.000106969)
(5.13355e-09 -1.03331e-08 -0.000105457)
(7.06228e-09 -1.28903e-08 -0.000110098)
(4.19766e-09 8.11451e-10 -0.000103488)
(-1.56347e-09 -8.50366e-09 -0.000103473)
(-9.47249e-10 -8.87694e-09 -0.000110098)
(1.59209e-09 9.29556e-09 -0.000110098)
(1.28333e-09 1.8614e-09 -0.000103988)
(5.95996e-10 -5.76045e-09 -0.000103961)
(1.50195e-08 -6.09832e-09 -0.000103877)
(-1.47804e-08 6.15028e-09 -0.000103871)
(1.25216e-09 -7.35328e-09 -0.000103963)
(1.52902e-09 2.82444e-09 -0.000103973)
(-1.50605e-08 6.12485e-09 -0.000103876)
(1.592e-08 -6.98591e-09 -0.000103877)
(6.4492e-09 -4.65812e-09 -0.000109066)
(2.14559e-08 -1.5213e-08 -0.000108998)
(1.81502e-08 -7.28127e-09 -0.000109874)
(-1.67235e-08 6.57182e-09 -0.000109883)
(3.01614e-09 -3.93622e-09 -0.000109863)
(4.25368e-09 -8.75177e-09 -0.00010997)
(-2.03352e-08 7.65977e-09 -0.000109858)
(1.67321e-08 -5.95396e-09 -0.000109887)
(4.8321e-09 -1.18259e-08 -0.000109944)
(2.87056e-09 -2.41501e-09 -0.000109887)
(-2.76102e-10 -2.88308e-09 -0.000105301)
(4.39467e-09 3.61406e-09 -0.000106755)
(2.47464e-09 -2.76537e-09 -0.000106721)
(8.89039e-09 4.50225e-09 -0.000105338)
(-1.18831e-08 -5.38937e-10 -0.000103478)
(2.437e-09 -3.49723e-09 -0.000110003)
(1.71613e-08 2.54088e-09 -0.000103436)
(-4.50851e-09 4.37147e-09 -0.000105304)
(3.15673e-09 -2.92417e-09 -0.000106697)
(5.59372e-09 -4.02143e-09 -0.000105253)
(4.06231e-10 3.68576e-09 -0.000106747)
(-1.51686e-08 8.98475e-10 -0.000103352)
(1.25994e-08 -4.0339e-11 -0.000103432)
(8.59996e-09 5.05532e-09 -0.000105346)
(2.03751e-09 -2.82819e-09 -0.000106715)
(-7.21748e-10 -3.24507e-09 -0.000105295)
(3.85882e-09 3.82531e-09 -0.000106764)
(5.72435e-10 -4.53491e-09 -0.000109987)
(1.57287e-08 1.32941e-09 -0.000103413)
(-1.1974e-08 8.86987e-11 -0.000103494)
(2.35992e-09 2.64696e-09 -0.000104109)
(-3.30529e-09 -2.43745e-09 -0.000104005)
(-2.60903e-09 -1.70024e-09 -0.000104011)
(2.20547e-09 1.0322e-09 -0.000104091)
(4.74124e-09 5.36392e-09 -0.000109178)
(-1.24923e-09 -9.30522e-10 -0.000110033)
(-1.46534e-09 -3.94646e-09 -0.000110135)
(2.40236e-08 9.81876e-09 -0.000109928)
(-1.61352e-08 -5.55485e-09 -0.000109954)
(-4.09766e-10 -3.03032e-09 -0.00010914)
(-2.36623e-09 1.69745e-09 -0.000104027)
(2.09407e-09 -4.21159e-10 -0.000104051)
(2.24839e-09 -1.69115e-10 -0.000104071)
(-2.27936e-09 3.1698e-10 -0.000104016)
(-2.90464e-09 -6.1173e-09 -0.00010912)
(-4.31653e-10 -3.7185e-09 -0.000110097)
(-7.89516e-10 1.42986e-09 -0.000110046)
(-2.12933e-09 -1.52293e-08 -0.000105606)
(2.33277e-10 -1.41409e-09 -0.000106904)
(-1.99574e-12 -7.15239e-09 -0.000107047)
(9.73296e-10 5.86491e-09 -0.000105477)
(-1.34363e-10 -5.13908e-09 -0.000103593)
(-5.92958e-09 -1.74621e-08 -0.000110269)
(-3.16962e-09 -3.00908e-09 -0.000103681)
(3.46677e-09 -1.59275e-08 -0.000105415)
(1.3614e-10 -4.893e-10 -0.000107009)
(-1.26718e-09 5.31772e-09 -0.000105515)
(1.24748e-09 -7.13534e-09 -0.000106891)
(7.56062e-10 -9.4296e-09 -0.000103498)
(4.62174e-09 -4.17863e-09 -0.000103461)
(2.10415e-09 7.48067e-09 -0.000105489)
(-3.68173e-10 -6.61782e-09 -0.000107032)
(-2.58122e-09 -1.38237e-08 -0.000105591)
(7.74675e-10 -4.90775e-10 -0.000106914)
(-1.77666e-09 2.39881e-09 -0.000103656)
(1.0535e-09 -4.03881e-09 -0.000103617)
(3.73573e-10 5.14707e-09 -0.000105654)
(-5.78655e-10 -7.96505e-09 -0.000106973)
(-6.11375e-10 -1.67252e-09 -0.000107117)
(-2.84053e-09 -1.55879e-08 -0.000105527)
(-3.61226e-09 -4.52811e-09 -0.000103594)
(2.83053e-09 6.7573e-09 -0.000110293)
(-4.09065e-10 -5.55706e-09 -0.000103678)
(1.71845e-09 -1.51748e-08 -0.000105609)
(-2.97888e-10 -1.4778e-09 -0.000106953)
(-1.48097e-10 -7.8674e-09 -0.000107097)
(-8.48467e-10 5.33416e-09 -0.00010548)
(2.12811e-10 -4.74683e-09 -0.00010352)
(5.60125e-09 -1.64882e-08 -0.000110223)
(3.04891e-09 -2.72909e-09 -0.00010361)
(-3.18387e-09 -1.42354e-08 -0.000105534)
(3.50761e-11 -1.5571e-10 -0.0001071)
(1.41396e-09 6.52341e-09 -0.000105636)
(-8.96216e-10 -6.33321e-09 -0.000106981)
(1.13516e-09 -4.5657e-09 -0.000103642)
(-2.87086e-09 3.84356e-12 -0.000103606)
(-1.70814e-09 6.14036e-09 -0.000105488)
(8.19806e-10 -6.74634e-09 -0.00010708)
(2.90707e-09 -1.52564e-08 -0.000105592)
(-4.69718e-10 -1.23247e-10 -0.000106961)
(3.64081e-09 -1.08706e-09 -0.000103573)
(1.75726e-09 -1.12354e-08 -0.000103539)
(2.08404e-08 -7.05025e-09 -0.000109897)
(-2.15639e-08 6.60625e-09 -0.000109827)
(2.63912e-09 6.61424e-10 -0.000109912)
(4.0457e-09 -1.37023e-08 -0.000109918)
(-6.45591e-09 -4.75912e-09 -0.000105275)
(2.63596e-09 4.46548e-09 -0.00010676)
(-5.83608e-10 -4.50271e-09 -0.000106695)
(7.10278e-09 4.82268e-09 -0.000105344)
(-1.219e-08 1.46383e-09 -0.000103509)
(-7.92833e-09 -7.92574e-09 -0.00010997)
(1.08074e-08 -2.11338e-09 -0.000103383)
(-5.3361e-09 -4.55517e-09 -0.000109066)
(1.77559e-09 -2.89505e-09 -0.000104034)
(-2.69274e-09 2.937e-09 -0.000104024)
(3.56892e-09 7.50231e-09 -0.00010404)
(-2.93035e-09 -7.14466e-09 -0.000104057)
(-1.04226e-09 4.39456e-09 -0.000110064)
(-4.08353e-09 -1.40251e-08 -0.000110073)
(-2.93049e-09 -8.41889e-09 -0.000105552)
(3.69654e-09 3.83993e-09 -0.000106954)
(-2.19618e-09 -2.34238e-09 -0.00010699)
(4.63711e-09 1.08225e-08 -0.000105526)
(2.96177e-09 -3.5908e-09 -0.000103643)
(-6.53738e-09 -8.81817e-09 -0.000110212)
(-2.07094e-09 5.2216e-09 -0.000103632)
(3.12272e-09 9.64964e-09 -0.000105585)
(-4.04069e-09 -4.43293e-09 -0.00010701)
(2.55642e-09 2.95734e-09 -0.000107049)
(-4.35629e-09 -9.88886e-09 -0.000105561)
(-1.80928e-09 5.01012e-09 -0.000103625)
(7.08536e-09 9.00934e-09 -0.000110218)
(2.59049e-09 -5.10079e-09 -0.000103611)
(4.06569e-09 -8.90705e-09 -0.000105541)
(-2.75113e-09 2.73662e-09 -0.000106988)
(2.09991e-09 -2.93733e-09 -0.00010703)
(-5.2539e-09 9.68037e-09 -0.000105518)
(-2.71444e-09 -5.05977e-09 -0.000103561)
(6.08218e-09 -1.07271e-08 -0.000110153)
(2.39963e-09 4.43985e-09 -0.000103545)
(-1.24484e-08 -4.81424e-09 -0.000103987)
(1.42681e-08 5.26676e-09 -0.000104011)
(1.49281e-08 4.97383e-09 -0.000104009)
(-1.26565e-08 -4.47833e-09 -0.000103985)
(-1.46511e-08 -9.39209e-09 -0.000109117)
(1.92605e-08 5.59103e-09 -0.000109994)
(-2.04516e-08 -6.4681e-09 -0.000109928)
(-1.15184e-09 2.90977e-09 -0.000109142)
(-1.18393e-08 -4.49026e-09 -0.000104021)
(7.20619e-09 5.19786e-09 -0.000105278)
(-2.22911e-09 -4.06402e-09 -0.000106779)
(1.4262e-09 4.22523e-09 -0.000106714)
(-5.49061e-09 -5.02031e-09 -0.000105348)
(1.39086e-08 -9.1695e-10 -0.00010352)
(8.39769e-09 7.73962e-09 -0.00010996)
(-1.10275e-08 2.0942e-09 -0.000103396)
(-9.27726e-09 5.63572e-09 -0.000105281)
(-2.7986e-10 -4.15473e-09 -0.000106784)
(-4.30399e-09 4.60204e-09 -0.000106717)
(3.73347e-09 -4.75508e-09 -0.000105352)
(-1.64568e-08 -7.99983e-11 -0.000103486)
(-9.50556e-09 7.97189e-09 -0.000109955)
(8.4998e-09 2.94247e-09 -0.000103361)
(5.89346e-09 3.24493e-09 -0.000106718)
(1.68644e-08 6.73821e-09 -0.000105273)
(-9.87596e-09 3.46099e-09 -0.000106721)
(-1.94056e-08 6.92262e-09 -0.000105277)
(1.62446e-09 -8.9727e-09 -0.000109993)
(9.85547e-10 4.19508e-09 -0.000109997)
(-2.242e-08 7.66192e-09 -0.000109919)
(2.24769e-08 -7.42948e-09 -0.000109849)
(1.25673e-08 -4.16628e-09 -0.000103887)
(-2.1392e-08 3.91294e-09 -0.000103483)
(1.62592e-08 -1.94564e-09 -0.000103429)
(2.26811e-08 9.08575e-09 -0.000110016)
(-3.09688e-08 -1.47351e-08 -0.000109887)
(8.42162e-10 -4.94487e-09 -0.000103638)
(5.5535e-09 -1.32581e-08 -0.000103432)
(-3.11715e-09 -6.37711e-09 -0.000110179)
(-4.2547e-10 1.52557e-09 -0.00010995)
(-6.75116e-09 -7.23818e-10 -0.000103427)
(1.85262e-08 -4.5941e-09 -0.000103375)
(5.97274e-10 -1.22757e-09 -0.000109947)
(-2.63931e-08 -1.32552e-08 -0.000109846)
(5.33791e-10 -1.81341e-09 -0.000103619)
(2.41458e-09 -5.62449e-09 -0.000103419)
(1.18707e-10 -1.72962e-09 -0.000110167)
(1.94584e-09 5.61768e-09 -0.000109948)
(-1.65763e-08 2.80936e-09 -0.000103373)
(1.3525e-08 -2.34322e-09 -0.000103334)
(2.13365e-08 9.61986e-09 -0.000109916)
(-1.24416e-08 -5.23346e-09 -0.000109816)
(-1.8481e-09 3.04255e-09 -0.000103603)
(1.18377e-09 -2.38309e-09 -0.000103406)
(2.37797e-09 2.42078e-09 -0.000110163)
(3.13666e-09 7.82214e-09 -0.000109946)
(-1.71524e-08 3.46986e-09 -0.000103369)
(1.39308e-08 -2.39783e-09 -0.000103343)
(1.87734e-08 8.48663e-09 -0.00010991)
(-1.41061e-08 -6.44334e-09 -0.000109828)
(-2.82857e-09 6.31795e-09 -0.000103614)
(2.01265e-10 3.95363e-10 -0.000103428)
(2.47742e-09 2.59175e-09 -0.000110183)
(4.19076e-09 9.86286e-09 -0.00010998)
(-1.5999e-08 3.10462e-09 -0.000103386)
(1.48771e-08 -3.0667e-09 -0.000103362)
(2.81876e-08 1.40423e-08 -0.000109946)
(-6.5848e-09 -1.26602e-09 -0.000109872)
(-4.56364e-09 1.01592e-08 -0.000103641)
(-8.64281e-10 3.66738e-09 -0.000103458)
(3.34229e-09 3.44194e-09 -0.000110223)
(2.83895e-09 6.70185e-09 -0.000110017)
(-1.6888e-08 3.38105e-09 -0.000103405)
(1.24143e-08 -1.58797e-09 -0.000103381)
(2.10949e-08 1.02353e-08 -0.000109984)
(-1.62648e-08 -7.43995e-09 -0.0001099)
(-2.82944e-09 5.5316e-09 -0.000103663)
(2.07495e-09 -4.44466e-09 -0.000103472)
(-8.1477e-10 -3.55471e-09 -0.00011025)
(-1.39521e-09 -3.93366e-10 -0.000110037)
(-2.04778e-08 4.59173e-09 -0.000103414)
(1.12439e-08 -1.13872e-09 -0.000103382)
(2.14931e-08 1.0235e-08 -0.000109992)
(-1.48813e-08 -6.08132e-09 -0.000109901)
(-1.8211e-10 -6.86837e-10 -0.000103664)
(4.03371e-09 -9.33462e-09 -0.000103466)
(-2.50652e-09 -7.13039e-09 -0.000110259)
(-1.56481e-09 -1.09035e-09 -0.000110038)
(-1.7059e-08 3.37097e-09 -0.000103409)
(1.57439e-08 -2.8953e-09 -0.000103375)
(1.24531e-08 5.33217e-09 -0.000109992)
(-2.29763e-08 -1.11536e-08 -0.000109898)
(1.55079e-09 -3.49737e-09 -0.000103659)
(3.97607e-09 -9.27813e-09 -0.00010346)
(-1.40601e-09 -4.84158e-09 -0.000110251)
(-1.12459e-10 2.13597e-09 -0.000110027)
(-1.44623e-08 1.92808e-09 -0.000103399)
(1.50155e-08 -2.8162e-09 -0.000103369)
(1.91381e-08 8.37263e-09 -0.000109985)
(-1.37537e-08 -5.23445e-09 -0.000109895)
(4.09296e-10 -2.54178e-09 -0.000103654)
(2.86233e-09 -7.71012e-09 -0.000103459)
(5.42233e-11 -1.91487e-09 -0.000110238)
(7.97335e-10 3.17541e-09 -0.000110018)
(-1.69518e-08 2.87078e-09 -0.000103397)
(1.27782e-08 -1.84549e-09 -0.000103362)
(1.88765e-08 8.61799e-09 -0.000109988)
(-1.55315e-08 -7.13766e-09 -0.000109898)
(-1.58651e-09 2.94011e-09 -0.000103657)
(1.27586e-09 -3.2491e-09 -0.000103458)
(-1.38316e-09 -4.99313e-09 -0.000110236)
(-1.10496e-09 -7.25694e-11 -0.000110016)
(-1.62395e-08 3.28662e-09 -0.000103388)
(1.46469e-08 -2.54588e-09 -0.000103358)
(2.0003e-08 9.42699e-09 -0.000109985)
(-1.53512e-08 -6.46311e-09 -0.000109891)
(-2.29811e-09 4.79476e-09 -0.000103647)
(1.08027e-09 -2.12593e-09 -0.000103447)
(-1.59221e-09 -5.1065e-09 -0.000110234)
(-4.28008e-10 1.71347e-09 -0.000110014)
(-1.83228e-08 4.00755e-09 -0.00010339)
(1.06998e-08 -6.48151e-10 -0.000103362)
(1.75308e-08 8.0205e-09 -0.000109975)
(-1.73409e-08 -7.44797e-09 -0.000109885)
(-2.39518e-09 5.54258e-09 -0.000103632)
(5.31248e-10 -1.05068e-10 -0.000103436)
(-8.5532e-11 -3.12417e-09 -0.00011023)
(5.59345e-10 2.3748e-09 -0.00011001)
(-1.92608e-08 4.54977e-09 -0.000103395)
(1.22876e-08 -1.35823e-09 -0.000103371)
(2.14489e-08 1.03438e-08 -0.000109974)
(-1.15e-08 -4.36426e-09 -0.000109885)
(-2.83651e-09 7.36009e-09 -0.000103626)
(9.33056e-10 -6.9909e-10 -0.000103431)
(-1.08421e-10 -2.80771e-09 -0.000110218)
(4.59769e-10 3.58547e-09 -0.000109997)
(-1.51884e-08 2.70563e-09 -0.000103398)
(1.63108e-08 -3.44847e-09 -0.00010338)
(2.34438e-08 1.08206e-08 -0.000109968)
(-9.01915e-09 -3.06472e-09 -0.000109892)
(-6.66803e-10 1.48172e-09 -0.000103597)
(2.32758e-09 -5.68426e-09 -0.000103405)
(3.5174e-09 4.30305e-09 -0.000110195)
(4.70255e-09 9.87863e-09 -0.000109989)
(-1.08588e-08 8.74468e-10 -0.000103395)
(1.95681e-08 -3.68512e-09 -0.000103398)
(2.65635e-08 1.24902e-08 -0.000109969)
(-9.98282e-09 -2.66419e-09 -0.000109916)
(1.14228e-10 -2.23332e-09 -0.000103558)
(3.27485e-09 -5.90876e-09 -0.000103406)
(1.64778e-09 1.89444e-09 -0.000110176)
(-4.437e-10 -3.65622e-10 -0.000110007)
(-1.61953e-09 -2.53252e-09 -0.00011016)
(-2.57569e-09 -5.77475e-09 -0.000110054)
(1.22402e-08 -5.32813e-09 -0.000109949)
(2.96557e-09 -8.60418e-09 -0.000109903)
(5.20406e-09 1.22061e-09 -0.000103483)
(-8.53637e-09 -1.1214e-09 -0.000103481)
(-9.81818e-09 -8.00022e-10 -0.000103517)
(1.30654e-08 1.74201e-10 -0.000103516)
(-2.0189e-08 -9.68523e-09 -0.000109973)
(2.3485e-08 1.11502e-08 -0.000110023)
(-6.13134e-09 -1.35657e-08 -0.00011)
(1.7479e-09 1.84556e-09 -0.000110192)
(3.52535e-09 -1.01571e-08 -0.000103473)
(-1.34827e-09 -2.25066e-09 -0.000103563)
(-3.68701e-09 -1.04947e-08 -0.000103556)
(2.79261e-09 -3.751e-10 -0.000103721)
(1.513e-09 -2.5499e-09 -0.000103529)
(-2.64541e-09 -1.43518e-09 -0.000109988)
(1.35614e-08 5.95842e-09 -0.000109915)
(1.28802e-08 2.22545e-09 -0.000103452)
(-1.49884e-08 3.2242e-09 -0.000103436)
(3.80107e-09 -4.0108e-09 -0.000109951)
(-1.46193e-08 6.99608e-09 -0.000109881)
(-2.50135e-08 1.06983e-08 -0.000109994)
(2.35136e-08 -1.14357e-08 -0.000109874)
(2.76546e-09 -4.54301e-09 -0.000110095)
(4.66842e-09 -1.11926e-08 -0.000109867)
(2.47347e-08 -1.20067e-08 -0.000109847)
(-8.31598e-09 2.5844e-09 -0.000109952)
(3.08777e-09 -7.53474e-09 -0.00010986)
(3.59528e-09 -5.10953e-09 -0.000110084)
(1.51725e-08 1.26155e-09 -0.000103511)
(-2.13254e-08 -3.83076e-09 -0.000103452)
(2.47749e-08 -6.94045e-09 -0.000103402)
(-8.3159e-09 2.24109e-10 -0.000103458)
(-3.60082e-08 -1.11101e-08 -0.000103425)
(-7.03652e-10 -3.47137e-09 -0.000103482)
(-2.31296e-09 -2.77847e-09 -0.000110194)
(-4.0663e-09 -1.09817e-08 -0.000109979)
(-3.59817e-08 -1.85684e-08 -0.000109865)
(-5.64488e-09 -4.72951e-09 -0.000109969)
(-5.26551e-09 -1.12605e-08 -0.000109972)
(-6.99044e-09 -1.09673e-08 -0.000110193)
(-4.43849e-09 -8.2576e-09 -0.00010373)
(7.80071e-10 1.53451e-09 -0.000103523)
(4.24867e-09 -9.64585e-09 -0.000103424)
(2.07923e-09 -6.43706e-09 -0.000103626)
(2.16058e-09 4.49951e-09 -0.000103522)
(-1.96093e-09 -4.11783e-09 -0.000103721)
(-1.29032e-09 -5.34182e-09 -0.000103724)
(-3.52882e-09 -8.98782e-09 -0.000103524)
(4.23904e-09 -7.48152e-09 -0.000103693)
(-1.76647e-09 3.87966e-09 -0.000103478)
(-4.21611e-09 -1.12559e-08 -0.00010352)
(-1.84094e-09 -5.30761e-09 -0.000103718)
(-2.96797e-09 7.69563e-09 -0.000103466)
(1.2791e-09 -1.66266e-09 -0.000103672)
(-2.18104e-08 -9.9509e-09 -0.000109988)
(1.46429e-08 6.51562e-09 -0.0001099)
(8.80736e-10 3.16861e-09 -0.000109949)
(-7.84662e-10 -3.42792e-09 -0.000110169)
(1.74649e-08 7.99355e-09 -0.000109902)
(-1.95434e-08 -9.15097e-09 -0.000109988)
(-1.89866e-08 -3.81035e-09 -0.000103466)
(1.34133e-08 2.08519e-09 -0.000103434)
(1.54343e-08 -2.16348e-09 -0.000103451)
(-1.82442e-08 3.96731e-09 -0.000103417)
(1.52396e-08 2.76157e-09 -0.000103436)
(-1.77993e-08 -3.82903e-09 -0.000103465)
(-1.93797e-08 4.55814e-09 -0.000103424)
(1.26545e-08 -1.87527e-09 -0.000103451)
(3.96513e-09 -8.2357e-09 -0.000110141)
(4.18716e-10 2.25384e-09 -0.000109908)
(1.9718e-08 -8.7311e-09 -0.000109951)
(-1.78255e-08 8.39524e-09 -0.000109862)
(-1.54829e-09 5.56538e-09 -0.000109898)
(6.8862e-10 -3.08241e-09 -0.000110123)
(-2.08795e-08 9.55359e-09 -0.000109869)
(1.62544e-08 -7.27661e-09 -0.000109951)
(-1.03744e-08 3.80236e-09 -0.000109929)
(1.90937e-08 -9.23713e-09 -0.000109829)
(1.38182e-09 -5.60857e-10 -0.000110076)
(5.51363e-10 -3.12818e-09 -0.000109854)
(1.53245e-08 -7.55827e-09 -0.000109807)
(-1.62868e-08 6.76073e-09 -0.00010991)
(-6.4226e-10 -1.71662e-09 -0.000109843)
(-7.66272e-10 3.26353e-09 -0.00011007)
(-3.53755e-09 -4.90695e-09 -0.000103447)
(-2.46875e-08 -7.06542e-09 -0.000103395)
(1.43875e-08 -3.16061e-09 -0.000103346)
(-1.35142e-08 1.50574e-09 -0.000103399)
(-1.59881e-08 -3.52624e-09 -0.000103371)
(9.45563e-09 -1.78217e-10 -0.00010342)
(-2.9303e-09 -3.79427e-09 -0.000110191)
(-2.68026e-09 -6.47072e-09 -0.000109978)
(-2.05283e-08 -1.04075e-08 -0.000109832)
(1.34922e-08 5.64668e-09 -0.000109933)
(-2.04971e-09 -5.7241e-09 -0.000109971)
(1.2698e-09 3.88356e-09 -0.000110191)
(-4.25549e-10 -1.34085e-09 -0.000103719)
(2.89816e-09 7.67236e-09 -0.00010352)
(1.52159e-09 -3.75305e-09 -0.000103409)
(-1.05116e-09 1.85111e-09 -0.000103613)
(3.60912e-09 9.27857e-09 -0.000103515)
(2.74941e-10 1.67615e-09 -0.000103718)
(-1.52255e-09 -3.91805e-09 -0.000103718)
(-2.71956e-09 -6.90939e-09 -0.000103525)
(-2.21624e-10 1.24373e-09 -0.000103661)
(-3.55827e-09 8.20284e-09 -0.000103461)
(-1.2928e-09 -3.58782e-09 -0.000103523)
(9.86574e-10 1.9522e-09 -0.000103722)
(-3.00361e-09 6.62553e-09 -0.000103462)
(4.15535e-11 7.82148e-10 -0.000103658)
(-1.67643e-08 -7.75935e-09 -0.00010999)
(1.91775e-08 8.87838e-09 -0.000109903)
(2.89448e-09 8.12703e-09 -0.000109944)
(1.37068e-09 7.7219e-10 -0.000110167)
(1.94579e-08 9.34599e-09 -0.0001099)
(-1.51252e-08 -6.83345e-09 -0.00010999)
(-1.56313e-08 -3.11811e-09 -0.000103466)
(1.68898e-08 3.44602e-09 -0.000103434)
(1.18583e-08 -1.90554e-09 -0.000103458)
(-1.93388e-08 4.41574e-09 -0.000103429)
(1.65599e-08 3.33392e-09 -0.000103428)
(-1.42185e-08 -2.28085e-09 -0.000103464)
(-1.91997e-08 4.63293e-09 -0.000103428)
(1.16826e-08 -1.37667e-09 -0.000103462)
(-9.15207e-10 -4.20667e-10 -0.000110115)
(-2.43573e-09 6.77357e-09 -0.000109897)
(1.35312e-08 -6.17206e-09 -0.000109959)
(-2.18086e-08 1.0039e-08 -0.000109877)
(-2.44886e-09 6.46612e-09 -0.0001099)
(-1.17751e-09 9.73773e-12 -0.000110116)
(-2.13949e-08 1.02502e-08 -0.000109877)
(1.28114e-08 -5.6116e-09 -0.000109965)
(-1.87994e-08 8.37318e-09 -0.00010989)
(1.37124e-08 -5.96864e-09 -0.000109801)
(-1.30606e-09 4.20593e-09 -0.000110059)
(1.62417e-10 -2.00441e-09 -0.000109838)
(1.34321e-08 -5.64002e-09 -0.000109806)
(-2.01582e-08 9.61074e-09 -0.000109889)
(-2.1835e-10 -1.11897e-09 -0.000109846)
(-7.2577e-10 4.02764e-09 -0.000110058)
(1.59473e-08 2.36993e-09 -0.000103394)
(-8.96544e-09 -4.19382e-10 -0.000103352)
(1.34893e-08 -2.56193e-09 -0.000103335)
(-1.69431e-08 3.29729e-09 -0.000103365)
(-1.42325e-08 -2.80053e-09 -0.000103354)
(1.84489e-08 3.69238e-09 -0.000103384)
(2.69281e-09 7.16806e-09 -0.000110189)
(1.7314e-09 -5.21374e-11 -0.000109973)
(-1.63113e-08 -7.59439e-09 -0.000109823)
(1.54814e-08 6.81945e-09 -0.000109907)
(7.91876e-10 4.66855e-11 -0.000109973)
(-1.02788e-09 2.29409e-10 -0.000110189)
(6.04635e-10 2.30706e-09 -0.000103713)
(2.83956e-09 6.7153e-09 -0.000103516)
(3.21544e-10 -6.50399e-10 -0.000103415)
(-2.46952e-09 4.86166e-09 -0.000103603)
(2.35962e-09 6.19682e-09 -0.000103528)
(-6.06615e-10 -9.14679e-10 -0.000103717)
(1.25518e-09 3.18588e-09 -0.000103722)
(9.08212e-10 2.11273e-09 -0.000103526)
(8.97934e-11 -3.42168e-10 -0.000103659)
(-3.22059e-09 7.62815e-09 -0.000103464)
(4.67384e-10 1.42412e-09 -0.000103529)
(3.01827e-09 6.47215e-09 -0.000103721)
(-3.95387e-09 1.0167e-08 -0.000103478)
(3.53291e-10 1.01333e-09 -0.000103663)
(-1.5182e-08 -6.80543e-09 -0.000109986)
(1.79586e-08 8.79757e-09 -0.000109896)
(3.25941e-09 7.67572e-09 -0.00010996)
(2.10639e-09 1.77565e-09 -0.000110168)
(1.62863e-08 7.208e-09 -0.000109898)
(-1.70792e-08 -7.60576e-09 -0.000109983)
(-1.51663e-08 -2.71563e-09 -0.000103456)
(1.61796e-08 3.38855e-09 -0.000103422)
(1.23379e-08 -1.7234e-09 -0.000103458)
(-1.67699e-08 3.7682e-09 -0.000103422)