/*--------------------------------*- C++ -*----------------------------------*\
| =========                 |                                                 |
| \\      /  F ield         | OpenFOAM: The Open Source CFD Toolbox           |
|  \\    /   O peration     | Version:  2206                                  |
|   \\  /    A nd           | Website:  www.openfoam.com                      |
|    \\/     M anipulation  |                                                 |
\*---------------------------------------------------------------------------*/
FoamFile
{
    version     2.0;
    format      ascii;
    arch        "LSB;label=32;scalar=64";
    class       volScalarField;
    location    "1";
    object      k;
}
// * * * * * * * * * * * * * * * * * * * * * * * * * * * * * * * * * * * * * //

dimensions      [0 2 -2 0 0 0 0];

internalField   nonuniform List<scalar> 
67442
(
0.000106754
0.000146037
0.000145276
0.000147597
0.000147576
0.000145391
0.000145399
0.000147457
0.000146189
0.000146425
0.000146313
0.000147653
0.000145354
4.27012e-05
0.0001082
2.69989e-05
4.18386e-05
0.000105494
0.000106697
0.00010687
0.000106858
0.000106909
0.00013026
0.000141138
2.66538e-05
0.000128294
0.000108548
0.000143588
6.34061e-05
6.42413e-05
2.70235e-05
2.66702e-05
6.4266e-05
6.33297e-05
4.26743e-05
0.000108188
0.000108378
0.000127901
0.000143267
0.000108361
0.000127877
0.00014321
6.41668e-05
6.33537e-05
2.66485e-05
0.000106972
0.000130341
0.000141199
4.18093e-05
0.000105468
0.000130431
0.000106894
0.000141148
4.18205e-05
0.000105481
0.000130369
0.000106873
0.0001411
4.1813e-05
0.000105462
6.33249e-05
6.42971e-05
2.70593e-05
0.000128314
0.000108587
0.00014359
4.2784e-05
0.000108455
4.27788e-05
0.00010845
2.6655e-05
2.70554e-05
2.53116e-05
4.26521e-05
6.34856e-05
6.34226e-05
2.53289e-05
3.52594e-05
0.000108131
3.89009e-05
9.86619e-05
3.88644e-05
9.85878e-05
3.52925e-05
2.69701e-05
3.46568e-05
0.000105505
9.62856e-05
3.81343e-05
2.4738e-05
4.17538e-05
6.19233e-05
6.1797e-05
2.47851e-05
2.47879e-05
4.18413e-05
6.19329e-05
3.45761e-05
0.000105331
9.62714e-05
3.81294e-05
9.61108e-05
3.80475e-05
3.46497e-05
2.66057e-05
2.6658e-05
0.000101446
0.000126979
6.32786e-05
4.19964e-05
0.000126826
4.19125e-05
0.00010161
0.000100759
0.000127139
6.4151e-05
4.19193e-05
0.000127023
4.18513e-05
0.000100904
4.9343e-05
2.43096e-05
2.43612e-05
2.42693e-05
2.43247e-05
4.94562e-05
2.6994e-05
2.6621e-05
2.66725e-05
0.000101808
0.000127601
6.41818e-05
4.23254e-05
4.22645e-05
0.000127492
0.000101942
0.000100382
0.000126451
6.32082e-05
4.15588e-05
4.14816e-05
0.000126303
0.000100533
4.93325e-05
2.43866e-05
2.42726e-05
2.43499e-05
2.42309e-05
4.94374e-05
2.52942e-05
4.26225e-05
6.34564e-05
6.33873e-05
2.53128e-05
3.52466e-05
0.000108114
3.88979e-05
9.86389e-05
3.88581e-05
9.85588e-05
3.52836e-05
0.000100735
0.000127332
6.40743e-05
4.18741e-05
4.18246e-05
0.000127188
0.000100914
0.000101386
0.000126621
6.32296e-05
4.19892e-05
0.000126493
4.18733e-05
0.000101487
4.92858e-05
2.43305e-05
2.42902e-05
2.4296e-05
2.4249e-05
4.93856e-05
2.66032e-05
3.46355e-05
0.000105479
3.81226e-05
9.62231e-05
2.47195e-05
4.17245e-05
6.18692e-05
6.17428e-05
2.47666e-05
2.47695e-05
4.18118e-05
6.18786e-05
3.45548e-05
0.000105305
3.81176e-05
9.62091e-05
3.80358e-05
9.60486e-05
3.46284e-05
2.47242e-05
4.17327e-05
6.18952e-05
6.17631e-05
2.47707e-05
3.45592e-05
0.000105311
9.62417e-05
3.81235e-05
9.60747e-05
3.80355e-05
3.46378e-05
2.47147e-05
4.17243e-05
6.18666e-05
6.17335e-05
2.47617e-05
3.45454e-05
0.000105292
3.81152e-05
9.61997e-05
3.80272e-05
9.60316e-05
3.46247e-05
0.000100585
0.000126758
6.32092e-05
4.15887e-05
4.1513e-05
0.000126609
0.000100768
0.000101725
0.00012733
6.42008e-05
4.23811e-05
0.000127223
4.23014e-05
0.000101838
4.93172e-05
2.42699e-05
2.44112e-05
2.42333e-05
2.43652e-05
4.94204e-05
2.70284e-05
2.5364e-05
4.27307e-05
6.3614e-05
6.35428e-05
2.53839e-05
3.53393e-05
0.00010838
9.88777e-05
3.9003e-05
9.8796e-05
3.89628e-05
3.53774e-05
2.53602e-05
4.27255e-05
6.36121e-05
6.3541e-05
2.53803e-05
3.53385e-05
0.000108376
9.88763e-05
3.9001e-05
9.87948e-05
3.89617e-05
3.53763e-05
2.66083e-05
2.70272e-05
8.07135e-05
8.34474e-05
5.01868e-05
0.00013303
0.000147244
0.000146692
0.000147651
0.00014729
0.000146725
0.000133153
0.000133022
0.000147279
0.000146757
0.000147596
0.0001473
0.00014678
0.000133134
0.000132942
0.000147208
0.000146552
0.000147513
0.0001466
0.000147256
0.000133057
0.000133047
0.000147349
0.000146653
0.000147675
0.000146669
0.000147378
0.000133161
8.06976e-05
8.34185e-05
5.01565e-05
8.31643e-05
8.12849e-05
5.02462e-05
8.31486e-05
8.12415e-05
5.02187e-05
0.000145453
0.000140138
0.000106739
0.000126677
0.000140079
0.000126521
0.00014541
0.000146825
0.000141046
0.000137184
0.000146345
0.000137061
0.000146408
0.00014676
0.000146545
0.000141148
0.000108445
0.000128679
0.000141147
0.000128612
0.000146514
0.000147691
0.000143576
0.000147137
0.000139461
0.000147165
0.000139426
0.000147648
0.000146259
0.000140937
0.000108282
0.000128458
0.000128394
0.000140936
0.000146226
0.000147405
0.000143244
0.000139182
0.000146774
0.000139149
0.000146799
0.000147371
0.000146213
0.000140901
0.000108259
0.000128419
0.000128349
0.000140901
0.000146175
0.000147336
0.000143203
0.000139126
0.000146726
0.000139091
0.000146759
0.000147301
0.000145608
0.00014028
0.000106811
0.000126752
0.000126602
0.000140217
0.000145571
0.000146943
0.000141111
0.000137241
0.000146423
0.000137122
0.000146472
0.000146885
0.00014549
0.000140201
0.000106732
0.000126641
0.000126491
0.000140134
0.000145456
0.000146851
0.00014106
0.000146367
0.000137136
0.000146416
0.000137018
0.000146796
0.000145369
0.000140097
0.000106704
0.000126601
0.000140036
0.000126444
0.000145332
0.000146757
0.000141007
0.000146301
0.000137104
0.000146365
0.000136982
0.000146695
0.000146561
0.00014116
0.000108483
0.000128717
0.000141161
0.000128646
0.000146524
0.000147718
0.000143578
0.000147146
0.000139471
0.000147174
0.000139437
0.000147682
8.01027e-06
1.87557e-06
3.25501e-07
6.34908e-08
2.64819e-07
7.76363e-06
1.8364e-06
3.21026e-07
6.56287e-08
2.85074e-07
7.93383e-06
1.85755e-06
3.22407e-07
6.31735e-08
2.64656e-07
7.72325e-06
1.82684e-06
3.19408e-07
6.54781e-08
2.85077e-07
7.77338e-06
1.83882e-06
3.21479e-07
6.57187e-08
2.85336e-07
7.72759e-06
1.82776e-06
3.19539e-07
6.54857e-08
2.8507e-07
8.00351e-06
1.87402e-06
3.25217e-07
6.34394e-08
2.64665e-07
7.72492e-06
1.8276e-06
3.19569e-07
6.55146e-08
2.85199e-07
7.92852e-06
1.85635e-06
3.22211e-07
6.31451e-08
2.64628e-07
7.92986e-06
1.85675e-06
3.22304e-07
6.31731e-08
2.6471e-07
7.92873e-06
1.85641e-06
3.22264e-07
6.31797e-08
2.6476e-07
7.78473e-06
1.84174e-06
3.21984e-07
6.5769e-08
2.85416e-07
8.02628e-06
1.87946e-06
3.26156e-07
6.35553e-08
2.6488e-07
8.02456e-06
1.87901e-06
3.26086e-07
6.35341e-08
2.64805e-07
7.72664e-06
1.82792e-06
3.19618e-07
6.55086e-08
2.85158e-07
7.78027e-06
1.84032e-06
3.21696e-07
6.57115e-08
2.85242e-07
7.85479e-06
1.85829e-06
3.24875e-07
6.59527e-08
2.8462e-07
8.00765e-06
1.87545e-06
3.25506e-07
6.3471e-08
2.64647e-07
7.76028e-06
1.83589e-06
3.20946e-07
6.55796e-08
2.84726e-07
7.97447e-06
1.87507e-06
3.26349e-07
6.50768e-08
2.76814e-07
8.26284e-06
1.94647e-06
3.39026e-07
6.69304e-08
2.82048e-07
7.75666e-06
1.83542e-06
3.2093e-07
6.53533e-08
2.8278e-07
7.92632e-06
1.85648e-06
3.22249e-07
6.30784e-08
2.63987e-07
7.93455e-06
1.85777e-06
3.2245e-07
6.31779e-08
2.64656e-07
7.71628e-06
1.82579e-06
3.19243e-07
6.53761e-08
2.84353e-07
7.72489e-06
1.82729e-06
3.19492e-07
6.54852e-08
2.85068e-07
8.11439e-06
1.89437e-06
3.2834e-07
6.40239e-08
2.67109e-07
8.10651e-06
1.89314e-06
3.28147e-07
6.39176e-08
2.66378e-07
8.09529e-06
1.89067e-06
3.27761e-07
6.39404e-08
2.66861e-07
8.0896e-06
1.88986e-06
3.27638e-07
6.38672e-08
2.6635e-07
7.3781e-06
1.7491e-06
3.06683e-07
6.41027e-08
2.82419e-07
7.37891e-06
1.74926e-06
3.06706e-07
6.41044e-08
2.82428e-07
7.37156e-06
1.74789e-06
3.06426e-07
6.39716e-08
2.81724e-07
7.37319e-06
1.74822e-06
3.06482e-07
6.39869e-08
2.81805e-07
7.76991e-06
1.83843e-06
3.2143e-07
6.56728e-08
2.84988e-07
7.72025e-06
1.82661e-06
3.19358e-07
6.53826e-08
2.84349e-07
7.72863e-06
1.82807e-06
3.19598e-07
6.54918e-08
2.85071e-07
8.00118e-06
1.87389e-06
3.2521e-07
6.34184e-08
2.64495e-07
8.11115e-06
1.89358e-06
3.28227e-07
6.40041e-08
2.67033e-07
8.1018e-06
1.89217e-06
3.28011e-07
6.39056e-08
2.66383e-07
7.37268e-06
1.74796e-06
3.06511e-07
6.40852e-08
2.82364e-07
7.36577e-06
1.7467e-06
3.06256e-07
6.39637e-08
2.81729e-07
7.71818e-06
1.8265e-06
3.1939e-07
6.54128e-08
2.8449e-07
7.96985e-06
1.87394e-06
3.26164e-07
6.50583e-08
2.76799e-07
8.26038e-06
1.94589e-06
3.38927e-07
6.69188e-08
2.8203e-07
7.75103e-06
1.83407e-06
3.20708e-07
6.5321e-08
2.82735e-07
7.92104e-06
1.85529e-06
3.22056e-07
6.30497e-08
2.63955e-07
7.92929e-06
1.85659e-06
3.22258e-07
6.31489e-08
2.64621e-07
7.92252e-06
1.85572e-06
3.22149e-07
6.30791e-08
2.64051e-07
7.74972e-06
1.83382e-06
3.2067e-07
6.53323e-08
2.82792e-07
7.92131e-06
1.85538e-06
3.22109e-07
6.30846e-08
2.64092e-07
8.15679e-06
1.90464e-06
3.30135e-07
6.42219e-08
2.6725e-07
8.14918e-06
1.90325e-06
3.2991e-07
6.41539e-08
2.66859e-07
7.39647e-06
1.75345e-06
3.07358e-07
6.41592e-08
2.82513e-07
7.78074e-06
1.84107e-06
3.21876e-07
6.57189e-08
2.85082e-07
7.87137e-06
1.86218e-06
3.25541e-07
6.60211e-08
2.84671e-07
8.02358e-06
1.87924e-06
3.26135e-07
6.35333e-08
2.64714e-07
7.87008e-06
1.86191e-06
3.2549e-07
6.60063e-08
2.84612e-07
8.02197e-06
1.87883e-06
3.26072e-07
6.35119e-08
2.6463e-07
7.71975e-06
1.82681e-06
3.19438e-07
6.54055e-08
2.8444e-07
7.77703e-06
1.83986e-06
3.21626e-07
6.56632e-08
2.84894e-07
7.84952e-06
1.85712e-06
3.24661e-07
6.59206e-08
2.84532e-07
7.75233e-06
1.83445e-06
3.20776e-07
6.53348e-08
2.82772e-07
8.00634e-06
1.88336e-06
3.27811e-07
6.51031e-08
2.75937e-07
8.29947e-06
1.95516e-06
3.405e-07
6.69579e-08
2.812e-07
8.29628e-06
1.95479e-06
3.40453e-07
6.6922e-08
2.80934e-07
8.00949e-06
1.88378e-06
3.27871e-07
6.51381e-08
2.76182e-07
7.8566e-06
1.85841e-06
3.24883e-07
6.59706e-08
2.84764e-07
8.08634e-06
1.88858e-06
3.27429e-07
6.39189e-08
2.66902e-07
8.0808e-06
1.88774e-06
3.27295e-07
6.38367e-08
2.66324e-07
7.36939e-06
1.74717e-06
3.06403e-07
6.40991e-08
2.82428e-07
7.3638e-06
1.74613e-06
3.06172e-07
6.39728e-08
2.81761e-07
7.76487e-06
1.83679e-06
3.21153e-07
6.54696e-08
2.83572e-07
7.96382e-06
1.87321e-06
3.26047e-07
6.49359e-08
2.75878e-07
8.26196e-06
1.94627e-06
3.38993e-07
6.69274e-08
2.82049e-07
8.25191e-06
1.94457e-06
3.3872e-07
6.67837e-08
2.81064e-07
7.97348e-06
1.87489e-06
3.26323e-07
6.50746e-08
2.76814e-07
7.76551e-06
1.83696e-06
3.21187e-07
6.5473e-08
2.83572e-07
8.06161e-06
1.88257e-06
3.26394e-07
6.38146e-08
2.66851e-07
8.05488e-06
1.88163e-06
3.26252e-07
6.37007e-08
2.66014e-07
7.36402e-06
1.74556e-06
3.06113e-07
6.40661e-08
2.82357e-07
7.35892e-06
1.74478e-06
3.05925e-07
6.39259e-08
2.81592e-07
8.14624e-06
1.90183e-06
3.29628e-07
6.41646e-08
2.67222e-07
8.14091e-06
1.90109e-06
3.29521e-07
6.40941e-08
2.66717e-07
7.38643e-06
1.7508e-06
3.06916e-07
6.40996e-08
2.82376e-07
7.38074e-06
1.74989e-06
3.06734e-07
6.39888e-08
2.81762e-07
8.05756e-06
1.8818e-06
3.26268e-07
6.37912e-08
2.66804e-07
8.04992e-06
1.88062e-06
3.26086e-07
6.36848e-08
2.66061e-07
7.3658e-06
1.74608e-06
3.06214e-07
6.40733e-08
2.824e-07
7.35906e-06
1.74496e-06
3.05985e-07
6.39425e-08
2.81698e-07
8.00315e-06
1.88272e-06
3.27696e-07
6.51009e-08
2.75952e-07
8.29802e-06
1.95497e-06
3.4048e-07
6.69706e-08
2.81253e-07
8.29503e-06
1.95458e-06
3.40426e-07
6.69334e-08
2.80983e-07
8.00631e-06
1.88322e-06
3.27778e-07
6.51388e-08
2.76203e-07
7.85192e-06
1.85738e-06
3.24693e-07
6.59412e-08
2.8468e-07
7.9592e-06
1.87208e-06
3.25862e-07
6.49173e-08
2.75863e-07
8.2595e-06
1.94569e-06
3.38894e-07
6.69158e-08
2.82031e-07
8.24947e-06
1.94399e-06
3.38622e-07
6.67721e-08
2.81045e-07
7.96886e-06
1.87376e-06
3.26137e-07
6.50561e-08
2.76801e-07
7.75921e-06
1.83543e-06
3.20931e-07
6.54374e-08
2.83529e-07
7.75991e-06
1.83562e-06
3.20966e-07
6.54406e-08
2.83526e-07
7.76036e-06
1.83581e-06
3.21002e-07
6.54499e-08
2.83549e-07
7.95976e-06
1.87218e-06
3.25873e-07
6.49033e-08
2.75808e-07
8.2599e-06
1.94564e-06
3.38905e-07
6.6901e-08
2.8198e-07
8.24953e-06
1.94388e-06
3.3862e-07
6.67564e-08
2.81001e-07
7.96975e-06
1.87392e-06
3.26163e-07
6.50424e-08
2.76734e-07
7.95696e-06
1.87152e-06
3.25748e-07
6.48936e-08
2.75799e-07
8.25808e-06
1.94524e-06
3.38815e-07
6.68922e-08
2.81961e-07
8.24771e-06
1.94348e-06
3.38529e-07
6.67473e-08
2.80979e-07
7.96706e-06
1.87328e-06
3.2604e-07
6.50339e-08
2.76734e-07
7.75783e-06
1.8352e-06
3.209e-07
6.54493e-08
2.83583e-07
7.38798e-06
1.75175e-06
3.07052e-07
6.40544e-08
2.81979e-07
7.87415e-06
1.86254e-06
3.25589e-07
6.60431e-08
2.84817e-07
8.02508e-06
1.88777e-06
3.28565e-07
6.51895e-08
2.76027e-07
8.32127e-06
1.9604e-06
3.4141e-07
6.70691e-08
2.81333e-07
8.31811e-06
1.95994e-06
3.41337e-07
6.70233e-08
2.81044e-07
8.02848e-06
1.88835e-06
3.28664e-07
6.52357e-08
2.76299e-07
7.87277e-06
1.86225e-06
3.25534e-07
6.60289e-08
2.84766e-07
8.02462e-06
1.88775e-06
3.28552e-07
6.51921e-08
2.76039e-07
8.32091e-06
1.96039e-06
3.41408e-07
6.70685e-08
2.81337e-07
8.31786e-06
1.95995e-06
3.41341e-07
6.70311e-08
2.81077e-07
8.02795e-06
1.88832e-06
3.28645e-07
6.52306e-08
2.76286e-07
0.000146406
0.000147664
0.000145256
0.000106858
0.000105332
0.000130323
0.000141097
4.17237e-05
0.000105306
0.000130413
0.000106727
0.000141046
2.6601e-05
6.31938e-05
3.46527e-05
0.000105508
9.61055e-05
3.80438e-05
9.62777e-05
3.81328e-05
3.4571e-05
2.47648e-05
4.18121e-05
6.17379e-05
6.18715e-05
2.47163e-05
3.46313e-05
0.000105482
3.80322e-05
9.6043e-05
3.81212e-05
9.62148e-05
3.45498e-05
2.66459e-05
0.000100891
0.000126609
6.33199e-05
4.14917e-05
0.000126774
4.15599e-05
0.00010064
0.000101769
0.00012721
0.000127318
0.00010165
4.94347e-05
2.42185e-05
2.42488e-05
4.93139e-05
0.000133176
0.000147605
0.000147338
0.000146638
0.000147277
0.00014659
0.000133047
8.34442e-05
5.01895e-05
8.31619e-05
8.12865e-05
5.02482e-05
0.000146846
0.000141191
0.000137126
0.000146455
0.000137249
0.000146386
0.000146902
0.000145408
0.000140108
0.000106898
0.000126485
0.000126643
0.000140172
0.000145443
0.000146755
0.00014114
0.000146398
0.00013702
0.000146331
0.000137144
0.00014681
0.000146472
0.000141106
0.000141102
0.000146509
0.000147585
0.00014537
0.000146167
0.000106743
2.69906e-05
2.66193e-05
6.41735e-05
6.32036e-05
4.26507e-05
0.000108124
0.000108277
0.000127886
0.00014322
4.17531e-05
0.000106806
2.70185e-05
2.66662e-05
0.000101941
0.000127485
6.42637e-05
4.22594e-05
4.2327e-05
0.000127598
0.000101797
0.000100534
0.000126297
6.33312e-05
4.14762e-05
4.15595e-05
0.000126451
0.000100372
4.9442e-05
2.43481e-05
2.42292e-05
2.43833e-05
2.42693e-05
4.93299e-05
2.53275e-05
4.27026e-05
6.34183e-05
6.34861e-05
2.53078e-05
3.52942e-05
0.000108197
3.88629e-05
9.85834e-05
3.89024e-05
9.86613e-05
3.52574e-05
2.47833e-05
4.18417e-05
6.1792e-05
6.19258e-05
2.47349e-05
0.000133139
0.000147523
0.000147271
0.000146756
0.00014722
0.000146702
0.000133016
8.07113e-05
0.000146178
0.00014089
0.000108379
0.00012837
0.000140882
0.000128439
0.000146209
0.000147327
0.000143225
0.00013912
0.000146774
0.000139151
0.000146734
0.000147358
0.000145523
0.000140186
0.000106976
0.000126597
0.000140245
0.000126755
0.000145563
7.92071e-06
1.85516e-06
3.22028e-07
6.30476e-08
2.63962e-07
7.71471e-06
1.82539e-06
3.19171e-07
6.53701e-08
2.84362e-07
7.75848e-06
1.8353e-06
3.20911e-07
6.54353e-08
2.83525e-07
7.92831e-06
1.85631e-06
3.22209e-07
6.31454e-08
2.64629e-07
7.72148e-06
1.82656e-06
3.19372e-07
6.54758e-08
2.85082e-07
7.97336e-06
1.87483e-06
3.26315e-07
6.50733e-08
2.76809e-07
8.2513e-06
1.9444e-06
3.38686e-07
6.67797e-08
2.81061e-07
8.26203e-06
1.94629e-06
3.39002e-07
6.69279e-08
2.82043e-07
7.96341e-06
1.87318e-06
3.26049e-07
6.49362e-08
2.75875e-07
7.96871e-06
1.8737e-06
3.26129e-07
6.50549e-08
2.76795e-07
8.24886e-06
1.94382e-06
3.38587e-07
6.67681e-08
2.81043e-07
8.2596e-06
1.94572e-06
3.38904e-07
6.69164e-08
2.82025e-07
7.95879e-06
1.87205e-06
3.25864e-07
6.49178e-08
2.75862e-07
7.75063e-06
1.83405e-06
3.20712e-07
6.53219e-08
2.82736e-07
8.05036e-06
1.88057e-06
3.2607e-07
6.36839e-08
2.66019e-07
8.05639e-06
1.8816e-06
3.2625e-07
6.38006e-08
2.66841e-07
7.35433e-06
1.74376e-06
3.05771e-07
6.39258e-08
2.81635e-07
7.36008e-06
1.74505e-06
3.06077e-07
6.40774e-08
2.82416e-07
7.76878e-06
1.83813e-06
3.21376e-07
6.56669e-08
2.84983e-07
7.71952e-06
1.82641e-06
3.19318e-07
6.5378e-08
2.84345e-07
8.00709e-06
1.87526e-06
3.25473e-07
6.34672e-08
2.64642e-07
7.92604e-06
1.85638e-06
3.22227e-07
6.30757e-08
2.63984e-07
7.77236e-06
1.83877e-06
3.21484e-07
6.57189e-08
2.85331e-07
7.72688e-06
1.8277e-06
3.19538e-07
6.54855e-08
2.85066e-07
7.85661e-06
1.85844e-06
3.24892e-07
6.59708e-08
2.84756e-07
8.0097e-06
1.87552e-06
3.25501e-07
6.34903e-08
2.64812e-07
7.9337e-06
1.85754e-06
3.2241e-07
6.31736e-08
2.64651e-07
7.37998e-06
1.74967e-06
3.06689e-07
6.39857e-08
2.8176e-07
7.35832e-06
1.74474e-06
3.05941e-07
6.39396e-08
2.81696e-07
7.76418e-06
1.83667e-06
3.21137e-07
6.54678e-08
2.83567e-07
7.75634e-06
1.83541e-06
3.20937e-07
6.53541e-08
2.82778e-07
8.13999e-06
1.90086e-06
3.29478e-07
6.40894e-08
2.66713e-07
8.14601e-06
1.9018e-06
3.29629e-07
6.41645e-08
2.67217e-07
8.04902e-06
1.88039e-06
3.26044e-07
6.36804e-08
2.66058e-07
8.05737e-06
1.88178e-06
3.26272e-07
6.37915e-08
2.668e-07
7.36538e-06
1.74615e-06
3.06246e-07
6.40761e-08
2.82396e-07
7.38594e-06
1.75086e-06
3.06946e-07
6.41024e-08
2.82372e-07
8.00893e-06
1.88372e-06
3.27867e-07
6.51371e-08
2.76175e-07
8.29575e-06
1.95462e-06
3.40418e-07
6.69178e-08
2.80928e-07
8.29899e-06
1.95516e-06
3.40509e-07
6.69584e-08
2.81194e-07
8.00612e-06
1.88336e-06
3.27816e-07
6.51033e-08
2.75931e-07
7.85444e-06
1.85829e-06
3.24881e-07
6.5953e-08
2.84614e-07
0.000147788
0.000107025
0.000146208
0.000145402
0.000147788
0.000147755
0.000147755
0.000145631
0.000145609
0.000147659
0.0001464
0.000146547
0.000146536
0.000147696
0.000145564
6.34303e-05
6.42612e-05
0.000147774
6.3307e-05
6.41734e-05
0.000106984
4.27279e-05
0.000108274
2.70148e-05
2.68918e-05
4.18527e-05
0.000105533
0.000106973
0.000107027
0.000107084
0.000106926
0.000130504
0.000146297
0.00014125
2.66436e-05
0.000128475
0.000108539
0.000143689
6.34232e-05
6.42566e-05
2.66686e-05
2.66266e-05
2.70681e-05
2.70427e-05
0.000147778
6.33074e-05
6.41743e-05
6.34248e-05
6.42568e-05
2.6629e-05
2.66643e-05
2.70437e-05
2.70647e-05
2.70362e-05
2.66712e-05
6.43003e-05
6.33531e-05
0.000106971
4.27012e-05
4.22609e-05
0.000108263
0.000142783
0.000108417
0.000127817
0.000128886
0.000143449
0.000142772
0.000108399
0.000127796
0.000145772
0.000107756
0.000128891
0.000143439
6.41934e-05
6.33731e-05
0.000147675
6.38579e-05
2.66531e-05
0.000107009
0.000130571
0.000141271
4.18076e-05
0.000105503
0.000130644
0.000106891
0.000141217
4.18277e-05
0.000105498
0.000130617
0.000106899
0.000141213
4.18239e-05
0.000105481
6.33221e-05
6.42721e-05
2.70473e-05
0.000128534
0.000108603
0.000143693
4.2777e-05
0.000108451
4.27881e-05
0.000108448
2.66586e-05
2.70623e-05
4.94738e-05
2.42865e-05
2.43412e-05
2.43206e-05
2.43721e-05
4.93667e-05
0.000101477
0.000126995
4.20148e-05
6.33068e-05
4.19407e-05
0.000101633
0.000126841
0.000100785
0.000127144
4.19366e-05
6.41729e-05
4.18759e-05
0.000100924
0.000127027
4.93684e-05
2.43228e-05
2.43743e-05
2.42854e-05
2.43401e-05
4.94743e-05
0.000101629
4.19406e-05
6.34269e-05
0.000126843
4.20123e-05
0.000101474
0.000126991
0.00010092
4.18758e-05
6.42585e-05
0.000127031
4.19344e-05
0.000100782
0.000127142
3.49157e-05
3.82875e-05
9.75219e-05
0.000107305
3.84406e-05
9.78274e-05
3.47858e-05
2.53016e-05
4.27497e-05
6.35878e-05
6.34178e-05
2.53614e-05
2.51695e-05
4.2493e-05
6.29926e-05
3.51288e-05
0.000107917
3.8893e-05
9.87676e-05
3.86808e-05
9.846e-05
3.53155e-05
2.70388e-05
2.69528e-05
2.47553e-05
4.17776e-05
6.19439e-05
6.18261e-05
2.4783e-05
3.4591e-05
0.000105377
9.62995e-05
3.81381e-05
9.61458e-05
3.80642e-05
3.46565e-05
2.66143e-05
0.000101488
0.000126994
4.20076e-05
6.33118e-05
0.000101627
0.000126862
4.19422e-05
0.000100798
0.000127148
4.19307e-05
6.41801e-05
0.000100919
0.00012706
4.18782e-05
4.93694e-05
2.43141e-05
2.43661e-05
4.94652e-05
2.42892e-05
2.43438e-05
2.66254e-05
2.66667e-05
2.70416e-05
2.70666e-05
4.9366e-05
2.43181e-05
2.43698e-05
4.94705e-05
2.42858e-05
2.43404e-05
0.000101631
0.000126849
4.19397e-05
6.34226e-05
0.000101477
4.20081e-05
0.000126993
0.000100923
0.000127038
4.18751e-05
6.42558e-05
0.000100785
4.1931e-05
0.000127147
4.9467e-05
2.42874e-05
2.4342e-05
4.93641e-05
2.43161e-05
2.43679e-05
0.000101478
4.201e-05
0.000126986
6.33053e-05
0.00010163
4.19393e-05
0.00012684
0.000100787
4.19325e-05
0.000127141
6.41722e-05
0.000100922
4.18747e-05
0.000127031
2.66621e-05
2.66274e-05
2.70637e-05
2.70431e-05
2.70527e-05
2.69958e-05
2.66418e-05
0.000101842
0.000127637
6.42377e-05
4.23528e-05
4.22956e-05
0.000127545
0.000101968
0.000100413
0.00012648
6.32393e-05
4.15736e-05
4.15046e-05
0.000126345
0.000100555
6.42395e-05
0.000127676
4.93557e-05
2.43969e-05
2.42783e-05
2.43658e-05
2.42466e-05
4.94576e-05
3.49066e-05
3.82836e-05
9.74997e-05
0.000107295
3.84369e-05
9.78037e-05
3.47775e-05
2.52944e-05
4.27226e-05
6.35732e-05
6.33935e-05
2.53492e-05
2.5145e-05
6.26653e-05
4.24489e-05
6.29474e-05
2.50749e-05
3.51197e-05
0.000107904
3.88891e-05
9.87456e-05
3.86763e-05
9.84361e-05
3.53066e-05
4.94255e-05
2.43327e-05
2.43595e-05
2.42887e-05
0.000100776
0.000127361
6.41341e-05
4.18887e-05
4.18462e-05
0.000127238
0.000100945
0.000101404
0.000126628
6.3263e-05
4.20073e-05
0.000126506
4.19208e-05
0.000101498
0.000100901
4.18716e-05
6.41445e-05
0.000127243
4.20558e-05
0.000127354
0.000101003
0.000101639
6.33578e-05
0.00012664
4.18852e-05
4.93092e-05
2.43387e-05
2.43e-05
2.43095e-05
2.42696e-05
4.9398e-05
2.66251e-05
2.66537e-05
2.47318e-05
4.17322e-05
6.18747e-05
6.17566e-05
2.47595e-05
3.4566e-05
0.000105347
3.81249e-05
9.62269e-05
3.80511e-05
9.60725e-05
3.46314e-05
3.4643e-05
0.000105488
9.62501e-05
3.81279e-05
2.47435e-05
4.17515e-05
6.19075e-05
6.1789e-05
2.47706e-05
2.47684e-05
4.18245e-05
6.19039e-05
3.45783e-05
0.000105338
9.62524e-05
3.81286e-05
9.60967e-05
3.80562e-05
3.46422e-05
3.46326e-05
0.000105471
3.81209e-05
9.62148e-05
2.47362e-05
4.17479e-05
6.18846e-05
6.17652e-05
2.4764e-05
2.47619e-05
4.18198e-05
6.18803e-05
3.4567e-05
0.000105321
3.81215e-05
9.62166e-05
3.80491e-05
9.60601e-05
3.46316e-05
0.000100519
0.000126744
6.32113e-05
4.1571e-05
4.15077e-05
0.000126603
0.000100697
0.000101696
0.000127274
6.41921e-05
4.23602e-05
0.000127196
4.22985e-05
0.000101792
4.93007e-05
2.42572e-05
2.43935e-05
2.42337e-05
2.43619e-05
4.93959e-05
2.70308e-05
2.53784e-05
4.27378e-05
6.36153e-05
6.35596e-05
2.53857e-05
3.53514e-05
0.000108388
9.88743e-05
3.90087e-05
9.88076e-05
3.89739e-05
3.53812e-05
2.53787e-05
4.27481e-05
6.36274e-05
6.35711e-05
2.53871e-05
3.53541e-05
0.000108387
9.88842e-05
3.90079e-05
9.88165e-05
3.89739e-05
3.53839e-05
2.66307e-05
2.66561e-05
2.7047e-05
0.000133033
0.000147394
0.000146836
0.00014783
0.000133152
0.000147413
0.000146844
8.09948e-05
8.36907e-05
5.04111e-05
0.000133062
0.000147415
0.000146855
0.000147834
0.000133156
0.000147416
0.000146855
0.000133161
0.000147799
0.000147367
0.000146819
0.000133041
0.000147431
0.000146873
0.000133052
0.000147391
0.00014689
0.000147786
0.000147389
0.000146892
0.000133148
0.000132948
0.000147376
0.000146713
0.000147698
0.000146712
0.000147375
0.000133057
0.000132957
0.000147367
0.000146658
0.000147749
0.000146659
0.000147376
0.00013305
0.000133149
0.000147781
0.000147354
0.000146818
0.000133031
0.000147404
0.000146837
8.10005e-05
8.3662e-05
5.04045e-05
8.33771e-05
8.14524e-05
5.04194e-05
8.3384e-05
8.15579e-05
5.04349e-05
0.000145591
0.000140251
0.000106764
0.000126695
0.000140179
0.000126539
0.000145576
0.00014562
0.000106926
0.000140272
0.000126691
0.000147032
0.000141156
0.000137194
0.000146522
0.000137101
0.000146615
0.000146936
0.000146624
0.000141205
0.000108463
0.000128755
0.000141187
0.000128692
0.000146609
0.000147827
0.000143657
0.000147282
0.000139549
0.000147288
0.000139507
0.000147815
0.00013304
0.00014783
0.000147398
0.000146841
0.000133153
0.000147431
0.000146857
0.00014747
0.00013857
0.000146984
0.000142921
0.000138761
0.000146938
0.000147469
0.000146441
0.000141088
0.000108481
0.000128565
0.000128573
0.000141088
0.000146416
0.000146354
0.000108154
0.000128081
0.00014107
0.000147538
0.000143349
0.000139356
0.000147002
0.000139251
0.00014696
0.000147569
0.000147459
0.000138552
0.000146977
0.00014291
0.000138739
0.000146932
0.00014746
0.000146464
0.000141095
0.000108501
0.00012856
0.000128563
0.000141123
0.00014643
0.000146267
0.000127749
0.000108046
0.000140866
0.000127994
0.000146217
0.000140989
0.000147531
0.000143339
0.00013934
0.000146997
0.000139234
0.000146956
0.000147563
0.000133074
0.000147686
0.000147356
0.000146669
0.000146747
0.000147375
0.000132981
0.000145718
0.000140374
0.000106858
0.000126779
0.000126645
0.000140335
0.000145698
0.000147112
0.000141202
0.000137249
0.000146565
0.000137174
0.000146664
0.000147012
0.000145557
0.000140226
0.000106739
0.000126638
0.000126501
0.000140193
0.000145535
0.000146997
0.000141147
0.000146504
0.000137132
0.000146604
0.000137052
0.000146902
0.000145529
0.000140217
0.000106746
0.00012663
0.000140186
0.000126486
0.000145508
0.000146973
0.000141118
0.000146479
0.000137126
0.000146574
0.000137025
0.000146882
0.000146718
0.000141322
0.000108526
0.000128808
0.000141302
0.000128743
0.000146704
0.000147878
0.000143662
0.000147294
0.000139576
0.000147301
0.000139533
0.000147867
0.000106785
0.000146137
0.00014538
0.000147734
0.000106846
0.000146224
0.000145467
0.000147824
0.000106891
0.000146282
0.000145482
0.000147882
0.000106931
0.000146284
0.000145482
0.000147876
0.000106954
0.000146289
0.000145488
0.000147872
0.000106992
0.000146293
0.000145497
0.000147874
0.00010704
0.000146284
0.000145491
0.00014786
0.000107068
0.000146276
0.000145488
0.000147833
0.000107085
0.000146287
0.000145491
0.000147814
0.000107119
0.0001463
0.000145504
0.00014783
0.000107147
0.000146316
0.000145502
0.000147859
0.000107135
0.000146306
0.000145479
0.000147855
0.000107113
0.000146282
0.000145455
0.000147838
0.000107092
0.000146262
0.000145435
0.000147818
0.00010707
0.000146249
0.00014542
0.000147797
0.000107044
0.000146241
0.00014541
0.000147705
0.000145462
0.000145466
0.000147605
0.00014626
0.000146493
0.000146105
0.000146384
0.000147775
0.000145354
0.000145422
0.000147748
0.000147655
0.000147797
0.00014548
0.000145485
0.000145557
0.000145564
0.000147557
0.000147703
0.000146281
0.000146506
0.000146353
0.000146576
0.000146404
0.0001462
0.00014648
0.000147725
0.000147858
0.00014544
0.000145447
0.000145514
0.00014784
0.000147744
0.000147846
0.000145568
0.000145582
0.00014561
0.00014563
0.000147652
0.000147765
0.000146369
0.000146587
0.000146413
0.000146625
0.000146496
0.000146274
0.000146552
0.000147805
0.000147897
0.000145528
0.000145481
0.000145583
0.000147906
0.000147784
0.000147842
0.000145613
0.000145636
0.000145639
0.00014567
0.000147707
0.000147776
0.000146403
0.00014661
0.00014641
0.00014661
0.000146542
0.000146279
0.000146555
0.000147834
0.000147877
0.000145572
0.000145482
0.000145588
0.000147904
0.000147778
0.000147837
0.000145629
0.00014566
0.000145645
0.000145672
0.000147713
0.000147764
0.000146395
0.000146586
0.000146411
0.0001466
0.000146543
0.000146282
0.00014656
0.000147812
0.00014786
0.000145576
0.000145484
0.000145595
0.000147898
0.000147775
0.000147846
0.000145638
0.000145665
0.000145667
0.000145691
0.000147702
0.000147767
0.000146403
0.000146589
0.000146428
0.000146606
0.000146551
0.000146291
0.000146573
0.000147796
0.000147855
0.000145586
0.000145496
0.000145611
0.0001479
0.000147786
0.000147858
0.000145664
0.000145686
0.000145697
0.00014571
0.000147706
0.000147757
0.000146424
0.000146597
0.000146446
0.000146605
0.000146563
0.00014628
0.000146568
0.000147793
0.000147844
0.000145601
0.000145492
0.000145611
0.00014789
0.000147795
0.000147846
0.000145691
0.000145703
0.000145706
0.00014572
0.000147695
0.000147751
0.000146435
0.000146585
0.000146435
0.000146587
0.000146547
0.00014627
0.000146547
0.000147779
0.000147821
0.000145593
0.000145488
0.000145595
0.000147862
0.000147781
0.000147834
0.000145692
0.000145707
0.000145712
0.000145729
0.000147689
0.000147743
0.000146416
0.000146566
0.00014642
0.000146579
0.000146525
0.000146271
0.000146526
0.000147757
0.00014781
0.000145578
0.000145484
0.000145593
0.000147841
0.000147772
0.000147862
0.000145706
0.000145725
0.000145731
0.000145747
0.000147684
0.000147758
0.000146413
0.000146574
0.000146475
0.000146604
0.000146508
0.000146289
0.000146527
0.00014775
0.000147824
0.000145585
0.000145492
0.000145604
0.000147848
0.000147804
0.000147875
0.000145727
0.000145741
0.000145742
0.000145748
0.000147699
0.000147766
0.000146474
0.000146603
0.000146478
0.000146614
0.00014656
0.0001463
0.000146581
0.000147767
0.000147835
0.0001456
0.000145494
0.00014562
0.000147881
0.000147814
0.000147863
0.000145727
0.000145733
0.000145729
0.000145739
0.000147707
0.000147765
0.000146477
0.000146613
0.00014647
0.000146608
0.000146581
0.000146295
0.000146577
0.000147776
0.000147823
0.000145615
0.000145471
0.000145621
0.000147879
0.0001478
0.000147841
0.000145715
0.000145725
0.000145709
0.000145719
0.000147705
0.000147739
0.00014647
0.000146607
0.00014645
0.000146589
0.000146578
0.000146269
0.000146559
0.000147763
0.0001478
0.000145621
0.000145442
0.000145609
0.00014786
0.00014778
0.00014782
0.000145706
0.000145718
0.000145696
0.00014571
0.000147679
0.00014772
0.00014645
0.000146591
0.000146426
0.00014656
0.00014656
0.000146241
0.000146533
0.000147742
0.000147772
0.000145609
0.000145414
0.000145588
0.000147836
0.000147762
0.000147797
0.000145694
0.000145708
0.000145676
0.000145689
0.000147663
0.000147693
0.000146426
0.000146565
0.000146396
0.000146523
0.000146538
0.000146216
0.000146499
0.000147719
0.000147741
0.000145587
0.000145388
0.000145558
0.000147806
0.000147743
0.00014777
0.000145674
0.000145689
0.000145653
0.000145671
0.000147641
0.000147673
0.000146403
0.000146547
0.000146362
0.000146483
0.000146523
0.00014619