/*--------------------------------*- C++ -*----------------------------------*\
| =========                 |                                                 |
| \\      /  F ield         | OpenFOAM: The Open Source CFD Toolbox           |
|  \\    /   O peration     | Version:  2206                                  |
|   \\  /    A nd           | Website:  www.openfoam.com                      |
|    \\/     M anipulation  |                                                 |
\*---------------------------------------------------------------------------*/
FoamFile
{
    version     2.0;
    format      ascii;
    arch        "LSB;label=32;scalar=64";
    class       volScalarField;
    location    "1";
    object      nut;
}
// * * * * * * * * * * * * * * * * * * * * * * * * * * * * * * * * * * * * * //

dimensions      [0 2 -1 0 0 0 0];

internalField   nonuniform List<scalar> 
67442
(
2.94644e-06
2.28386e-06
2.31305e-06
2.43638e-06
2.43418e-06
2.30597e-06
2.30441e-06
2.43142e-06
2.28486e-06
2.28406e-06
2.28376e-06
2.43704e-06
2.31273e-06
1.45313e-07
6.21906e-07
6.75997e-08
1.41412e-07
5.9561e-07
2.94565e-06
2.94433e-06
2.94426e-06
6.2044e-07
2.6155e-06
1.26619e-06
6.65052e-08
2.66753e-06
6.38661e-07
1.32297e-06
3.16268e-07
3.23014e-07
6.76677e-08
6.65407e-08
3.2346e-07
3.15652e-07
1.45216e-07
6.21827e-07
6.3784e-07
2.65561e-06
1.32002e-06
6.37281e-07
2.65535e-06
1.3194e-06
3.2268e-07
3.15883e-07
6.64954e-08
6.20535e-07
2.61707e-06
1.26673e-06
1.41309e-07
5.95473e-07
2.61601e-06
6.20328e-07
1.26692e-06
1.41354e-07
5.95522e-07
2.61479e-06
6.20585e-07
1.26655e-06
1.41325e-07
5.95449e-07
3.15739e-07
3.23377e-07
6.7746e-08
2.66813e-06
6.38533e-07
1.32287e-06
1.45586e-07
6.23412e-07
1.45568e-07
6.2337e-07
6.65114e-08
6.77337e-08
6.00905e-08
1.4517e-07
3.04519e-07
3.04227e-07
6.01145e-08
1.08491e-07
6.22682e-07
1.27977e-07
5.27097e-07
1.27875e-07
5.27849e-07
1.08576e-07
6.75482e-08
1.05673e-07
5.95675e-07
5.05818e-07
1.24223e-07
5.83518e-08
1.41163e-07
2.92129e-07
2.91468e-07
5.84348e-08
5.84421e-08
1.41425e-07
2.92215e-07
1.05461e-07
5.98702e-07
5.0574e-07
1.24204e-07
5.084e-07
1.23978e-07
1.0565e-07
6.64134e-08
6.65154e-08
5.39006e-07
8.92847e-07
3.15489e-07
1.39525e-07
8.91835e-07
1.39285e-07
5.37249e-07
5.43253e-07
9.02034e-07
3.22498e-07
1.39168e-07
9.00699e-07
1.38973e-07
5.41836e-07
2.01773e-07
5.97004e-08
5.9908e-08
5.96251e-08
5.98398e-08
2.02216e-07
6.76139e-08
6.64468e-08
6.65486e-08
5.42194e-07
9.04414e-07
3.22946e-07
1.40902e-07
1.40732e-07
9.03014e-07
5.40726e-07
5.39808e-07
8.89675e-07
3.14916e-07
1.37706e-07
1.37489e-07
8.88715e-07
5.38023e-07
2.01748e-07
5.99787e-08
5.96017e-08
5.99113e-08
5.95241e-08
2.02156e-07
6.00507e-08
1.4506e-07
3.04325e-07
3.03976e-07
6.00778e-08
1.08453e-07
6.22554e-07
1.27967e-07
5.26941e-07
1.27853e-07
5.27649e-07
1.0855e-07
5.4228e-07
9.01671e-07
3.22202e-07
1.39054e-07
1.38926e-07
8.99865e-07
5.42218e-07
5.39465e-07
8.91347e-07
3.15174e-07
1.39488e-07
8.90709e-07
1.39132e-07
5.3627e-07
2.01491e-07
5.98436e-08
5.96497e-08
5.97922e-08
5.95678e-08
2.0191e-07
6.64095e-08
1.05607e-07
5.95537e-07
1.24184e-07
5.05519e-07
5.83102e-08
1.4106e-07
2.91873e-07
2.91203e-07
5.83931e-08
5.84005e-08
1.41321e-07
2.91958e-07
1.05395e-07
5.98562e-07
1.24165e-07
5.05442e-07
1.23939e-07
5.08105e-07
1.05584e-07
5.83205e-08
1.41093e-07
2.91964e-07
2.91265e-07
5.84024e-08
1.05408e-07
5.98578e-07
5.05567e-07
1.24181e-07
5.08203e-07
1.23934e-07
1.05612e-07
5.82997e-08
1.4106e-07
2.91845e-07
2.9113e-07
5.8383e-08
1.05364e-07
5.98493e-07
1.24154e-07
5.05414e-07
1.23907e-07
5.0803e-07
1.05571e-07
5.41238e-07
8.90558e-07
3.15041e-07
1.37875e-07
1.37639e-07
8.89497e-07
5.39768e-07
5.41644e-07
9.03899e-07
3.22879e-07
1.41055e-07
9.02736e-07
1.40829e-07
5.39891e-07
2.01618e-07
5.95999e-08
6.00405e-08
5.9534e-08
5.99437e-08
2.02003e-07
6.76889e-08
6.021e-08
1.45425e-07
3.05081e-07
3.04722e-07
6.024e-08
1.08728e-07
6.24165e-07
5.28278e-07
1.28302e-07
5.28978e-07
1.28188e-07
1.08828e-07
6.02011e-08
1.45406e-07
3.05061e-07
3.04695e-07
6.02319e-08
1.08729e-07
6.24145e-07
5.28262e-07
1.28297e-07
5.28956e-07
1.28186e-07
1.08828e-07
6.64221e-08
6.76822e-08
3.19246e-06
3.14552e-06
2.80207e-06
1.02804e-06
1.42352e-06
1.43435e-06
2.37927e-06
1.40212e-06
1.41673e-06
1.03179e-06
1.02792e-06
1.42998e-06
1.42737e-06
2.37713e-06
1.41223e-06
1.40583e-06
1.03167e-06
1.02724e-06
1.42408e-06
1.42966e-06
2.37562e-06
1.40798e-06
1.40692e-06
1.03115e-06
1.02869e-06
1.41966e-06
1.4386e-06
2.37999e-06
1.42096e-06
1.39837e-06
1.03228e-06
3.19304e-06
3.14489e-06
2.80034e-06
3.12593e-06
3.22248e-06
2.80504e-06
3.12531e-06
3.22125e-06
2.80366e-06
1.66059e-06
1.2266e-06
6.22339e-07
8.9438e-07
1.21344e-06
8.9353e-07
1.68535e-06
1.76566e-06
1.26158e-06
1.14581e-06
1.99427e-06
1.14226e-06
1.9531e-06
1.79528e-06
1.71941e-06
1.25064e-06
6.39293e-07
9.27324e-07
1.24111e-06
9.25374e-07
1.73397e-06
1.83511e-06
1.31837e-06
2.05484e-06
1.19503e-06
2.0396e-06
1.19067e-06
1.84734e-06
1.72081e-06
1.25415e-06
6.38458e-07
9.25869e-07
9.24035e-07
1.24458e-06
1.73524e-06
1.83306e-06
1.31532e-06
1.19284e-06
2.05099e-06
1.18855e-06
2.03585e-06
1.84535e-06
1.71887e-06
1.25141e-06
6.37898e-07
9.2526e-07
9.23362e-07
1.24198e-06
1.73331e-06
1.83181e-06
1.31479e-06
1.19216e-06
2.05004e-06
1.1878e-06
2.03499e-06
1.84415e-06
1.66161e-06
1.22589e-06
6.22442e-07
8.94848e-07
8.93981e-07
1.21276e-06
1.68645e-06
1.76682e-06
1.26214e-06
1.14632e-06
1.99519e-06
1.14271e-06
1.95383e-06
1.7966e-06
1.6657e-06
1.23085e-06
6.22212e-07
8.94488e-07
8.93685e-07
1.21769e-06
1.69049e-06
1.77007e-06
1.26232e-06
1.99991e-06
1.14629e-06
1.95848e-06
1.14271e-06
1.79998e-06
1.66529e-06
1.23205e-06
6.22445e-07
8.94418e-07
1.21887e-06
8.93562e-07
1.69003e-06
1.76918e-06
1.2619e-06
1.99921e-06
1.14613e-06
1.95796e-06
1.1425e-06
1.79897e-06
1.7185e-06
1.24859e-06
6.39116e-07
9.27397e-07
1.23895e-06
9.25361e-07
1.73307e-06
1.83523e-06
1.31833e-06
2.0548e-06
1.195e-06
2.03958e-06
1.19064e-06
1.84753e-06
1.07842e-08
1.15248e-09
7.20541e-11
3.69911e-12
2.26764e-12
1.0682e-08
1.13261e-09
7.11263e-11
3.82262e-12
2.43838e-12
1.06888e-08
1.14148e-09
7.13668e-11
3.68019e-12
2.26584e-12
1.06356e-08
1.12713e-09
7.0781e-11
3.81438e-12
2.43881e-12
1.06945e-08
1.1341e-09
7.12341e-11
3.82876e-12
2.44165e-12
1.0641e-08
1.12763e-09
7.08042e-11
3.81428e-12
2.43834e-12
1.07749e-08
1.15152e-09
7.19887e-11
3.69567e-12
2.26592e-12
1.06389e-08
1.12772e-09
7.08222e-11
3.81682e-12
2.44026e-12
1.06816e-08
1.14076e-09
7.13239e-11
3.67849e-12
2.26538e-12
1.06836e-08
1.14107e-09
7.13521e-11
3.68077e-12
2.26671e-12
1.06821e-08
1.14083e-09
7.13419e-11
3.68121e-12
2.26732e-12
1.07098e-08
1.13588e-09
7.1346e-11
3.83146e-12
2.44194e-12
1.08055e-08
1.1549e-09
7.21996e-11
3.70267e-12
2.2679e-12
1.08032e-08
1.15462e-09
7.21843e-11
3.7014e-12
2.26712e-12
1.06406e-08
1.12783e-09
7.08281e-11
3.81615e-12
2.4395e-12
1.07037e-08
1.13497e-09
7.12751e-11
3.82755e-12
2.43981e-12
1.08338e-08
1.14665e-09
7.20213e-11
3.84401e-12
2.43608e-12
1.07828e-08
1.15249e-09
7.20567e-11
3.69797e-12
2.26617e-12
1.06787e-08
1.13232e-09
7.11087e-11
3.81977e-12
2.4354e-12
1.08731e-08
1.15455e-09
7.23153e-11
3.79372e-12
2.37096e-12
1.12424e-08
1.19895e-09
7.51587e-11
3.903e-12
2.41631e-12
1.07102e-08
1.13286e-09
7.11484e-11
3.8089e-12
2.42023e-12
1.06817e-08
1.14094e-09
7.13335e-11
3.67466e-12
2.26011e-12
1.06898e-08
1.14162e-09
7.13763e-11
3.68044e-12
2.26584e-12
1.06284e-08
1.12651e-09
7.07436e-11
3.80844e-12
2.43262e-12
1.06379e-08
1.12741e-09
7.07993e-11
3.81479e-12
2.43874e-12
1.0949e-08
1.16434e-09
7.2691e-11
3.73007e-12
2.28699e-12
1.0941e-08
1.16367e-09
7.26493e-11
3.72389e-12
2.28073e-12
1.09209e-08
1.16205e-09
7.2562e-11
3.7252e-12
2.28486e-12
1.09155e-08
1.16164e-09
7.25358e-11
3.72095e-12
2.28048e-12
1.02248e-08
1.08316e-09
6.81622e-11
3.74464e-12
2.41554e-12
1.02251e-08
1.08322e-09
6.81674e-11
3.74464e-12
2.41555e-12
1.0217e-08
1.08221e-09
6.80825e-11
3.73518e-12
2.4096e-12
1.02182e-08
1.0824e-09
6.80969e-11
3.73613e-12
2.41022e-12
1.06916e-08
1.13392e-09
7.12238e-11
3.82609e-12
2.43867e-12
1.06334e-08
1.12696e-09
7.07637e-11
3.80828e-12
2.43217e-12
1.06427e-08
1.12783e-09
7.08175e-11
3.81464e-12
2.43835e-12
1.0774e-08
1.15153e-09
7.19889e-11
3.69447e-12
2.26446e-12
1.09449e-08
1.16386e-09
7.26674e-11
3.72912e-12
2.28645e-12
1.0935e-08
1.16309e-09
7.26209e-11
3.7234e-12
2.28088e-12
1.02178e-08
1.0825e-09
6.81314e-11
3.74402e-12
2.41505e-12
1.02095e-08
1.08157e-09
6.80549e-11
3.73529e-12
2.40962e-12
1.06313e-08
1.12702e-09
7.07806e-11
3.8109e-12
2.4342e-12
1.08671e-08
1.15386e-09
7.22747e-11
3.7928e-12
2.37092e-12
1.12392e-08
1.19861e-09
7.51377e-11
3.90238e-12
2.41619e-12
1.07028e-08
1.13205e-09
7.10989e-11
3.80699e-12
2.41959e-12
1.06746e-08
1.14022e-09
7.12911e-11
3.67294e-12
2.25962e-12
1.06827e-08
1.14091e-09
7.13343e-11
3.67871e-12
2.26532e-12
1.06768e-08
1.14055e-09
7.13195e-11
3.67531e-12
2.26107e-12
1.07016e-08
1.13194e-09
7.10933e-11
3.80794e-12
2.42053e-12
1.06753e-08
1.14031e-09
7.13092e-11
3.67568e-12
2.26159e-12
1.10025e-08
1.17065e-09
7.3093e-11
3.74222e-12
2.28891e-12
1.09945e-08
1.16987e-09
7.30442e-11
3.73827e-12
2.28556e-12
1.02476e-08
1.08545e-09
6.82827e-11
3.74596e-12
2.41662e-12
1.07056e-08
1.13549e-09
7.13222e-11
3.82855e-12
2.43908e-12
1.0856e-08
1.14901e-09
7.21686e-11
3.84799e-12
2.4365e-12
1.08041e-08
1.15485e-09
7.21965e-11
3.70141e-12
2.26647e-12
1.08544e-08
1.14887e-09
7.21597e-11
3.84716e-12
2.43592e-12
1.0802e-08
1.15461e-09
7.21829e-11
3.70012e-12
2.26562e-12
1.06329e-08
1.12712e-09
7.07864e-11
3.81015e-12
2.43335e-12
1.07005e-08
1.13471e-09
7.12595e-11
3.82475e-12
2.43683e-12
1.08271e-08
1.14597e-09
7.19762e-11
3.84202e-12
2.43526e-12
1.07049e-08
1.13231e-09
7.11175e-11
3.80801e-12
2.42016e-12
1.0908e-08
1.15959e-09
7.2636e-11
3.79515e-12
2.36312e-12
1.12822e-08
1.20421e-09
7.54813e-11
3.90436e-12
2.40863e-12
1.12794e-08
1.20403e-09
7.54717e-11
3.90228e-12
2.40634e-12
1.09109e-08
1.15979e-09
7.26486e-11
3.79718e-12
2.36522e-12
1.08347e-08
1.14666e-09
7.20218e-11
3.84504e-12
2.43731e-12
1.09093e-08
1.16081e-09
7.24923e-11
3.72435e-12
2.28558e-12
1.09041e-08
1.16036e-09
7.24635e-11
3.71956e-12
2.28063e-12
1.02131e-08
1.08212e-09
6.81192e-11
3.74595e-12
2.41624e-12
1.02066e-08
1.08129e-09
6.80446e-11
3.7367e-12
2.41054e-12
1.07191e-08
1.13365e-09
7.11973e-11
3.81567e-12
2.42701e-12
1.08614e-08
1.15349e-09
7.22491e-11
3.78551e-12
2.36294e-12
1.12412e-08
1.19883e-09
7.51514e-11
3.90283e-12
2.41632e-12
1.12303e-08
1.19786e-09
7.50917e-11
3.89445e-12
2.40788e-12
1.08718e-08
1.15444e-09
7.23095e-11
3.79359e-12
2.37096e-12
1.072e-08
1.13376e-09
7.12047e-11
3.81587e-12
2.42701e-12
1.08799e-08
1.15713e-09
7.22632e-11
3.71826e-12
2.28512e-12
1.08733e-08
1.15664e-09
7.22328e-11
3.71163e-12
2.27795e-12
1.02057e-08
1.08102e-09
6.80509e-11
3.7441e-12
2.41501e-12
1.02007e-08
1.08044e-09
6.79857e-11
3.73357e-12
2.40846e-12
1.0989e-08
1.16892e-09
7.29782e-11
3.73862e-12
2.28834e-12
1.0984e-08
1.16853e-09
7.29554e-11
3.73452e-12
2.284e-12
1.02334e-08
1.08381e-09
6.8192e-11
3.74319e-12
2.41485e-12
1.02276e-08
1.08323e-09
6.8137e-11
3.73518e-12
2.40961e-12
1.08739e-08
1.15662e-09
7.22324e-11
3.7166e-12
2.28438e-12
1.08661e-08
1.15598e-09
7.21931e-11
3.71041e-12
2.27801e-12
1.02082e-08
1.08136e-09
6.8075e-11
3.74454e-12
2.41531e-12
1.02011e-08
1.08061e-09
6.80061e-11
3.73496e-12
2.40931e-12
1.0904e-08
1.15923e-09
7.26151e-11
3.79515e-12
2.36359e-12
1.12804e-08
1.2041e-09
7.5481e-11
3.90534e-12
2.4095e-12
1.12779e-08
1.20392e-09
7.54699e-11
3.90318e-12
2.40719e-12
1.09067e-08
1.15948e-09
7.26323e-11
3.79735e-12
2.36574e-12
1.08291e-08
1.14608e-09
7.1982e-11
3.84321e-12
2.43653e-12
1.08553e-08
1.1528e-09
7.22085e-11
3.78458e-12
2.3629e-12
1.1238e-08
1.19849e-09
7.51304e-11
3.9022e-12
2.4162e-12
1.12272e-08
1.19752e-09
7.50708e-11
3.89382e-12
2.40776e-12
1.08658e-08
1.15375e-09
7.22686e-11
3.79266e-12
2.37094e-12
1.07116e-08
1.13283e-09
7.11477e-11
3.81377e-12
2.42639e-12
1.07126e-08
1.13295e-09
7.11556e-11
3.81396e-12
2.42636e-12
1.07139e-08
1.13312e-09
7.11673e-11
3.81471e-12
2.42681e-12
1.08557e-08
1.15279e-09
7.22057e-11
3.78331e-12
2.36189e-12
1.12383e-08
1.1984e-09
7.51279e-11
3.90119e-12
2.41528e-12
1.12271e-08
1.1974e-09
7.50655e-11
3.89277e-12
2.40689e-12
1.08666e-08
1.15378e-09
7.22691e-11
3.79141e-12
2.36982e-12
1.08519e-08
1.1524e-09
7.21776e-11
3.78272e-12
2.36191e-12
1.12358e-08
1.19817e-09
7.51077e-11
3.90053e-12
2.41514e-12
1.12246e-08
1.19717e-09
7.50452e-11
3.89209e-12
2.40673e-12
1.0863e-08
1.1534e-09
7.22415e-11
3.79089e-12
2.36992e-12
1.07107e-08
1.13275e-09
7.11439e-11
3.81474e-12
2.4273e-12
1.02371e-08
1.0843e-09
6.82029e-11
3.73891e-12
2.41205e-12
1.08585e-08
1.14918e-09
7.21781e-11
3.84926e-12
2.43775e-12
1.09334e-08
1.16231e-09
7.28039e-11
3.8003e-12
2.36408e-12
1.13117e-08
1.20745e-09
7.56855e-11
3.91114e-12
2.41022e-12
1.13089e-08
1.20721e-09
7.56691e-11
3.90833e-12
2.40752e-12
1.09365e-08
1.16261e-09
7.28258e-11
3.80312e-12
2.36664e-12
1.08567e-08
1.14903e-09
7.21684e-11
3.84846e-12
2.43724e-12
1.09328e-08
1.16231e-09
7.2804e-11
3.80044e-12
2.36431e-12
1.13113e-08
1.20744e-09
7.56867e-11
3.91105e-12
2.41022e-12
1.13087e-08
1.20722e-09
7.56728e-11
3.90888e-12
2.408e-12
1.09358e-08
1.1626e-09
7.28236e-11
3.80267e-12
2.36643e-12
2.28391e-06
2.37991e-06
2.31283e-06
2.94429e-06
5.98708e-07
2.61689e-06
1.26202e-06
1.41055e-07
5.98568e-07
2.61586e-06
6.22181e-07
1.26219e-06
6.64032e-08
3.14934e-07
1.05656e-07
5.9569e-07
5.08369e-07
1.23963e-07
5.05772e-07
1.24212e-07
1.05444e-07
5.83889e-08
1.41319e-07
2.91145e-07
2.91853e-07
5.83036e-08
1.0559e-07
5.95553e-07
1.23924e-07
5.08073e-07
1.24174e-07
5.0547e-07
1.05378e-07
6.64903e-08
5.39436e-07
8.89544e-07
3.15696e-07
1.37624e-07
8.90613e-07
1.37896e-07
5.41443e-07
5.4053e-07
9.02531e-07
9.03927e-07
5.41343e-07
2.01912e-07
5.94985e-08
5.95523e-08
2.0148e-07
1.03221e-06
2.43631e-06
1.39802e-06
1.4205e-06
1.41933e-06
1.43759e-06
1.02857e-06
3.1457e-06
2.80238e-06
3.1262e-06
3.22276e-06
2.8053e-06
1.7962e-06
1.26666e-06
1.14274e-06
1.95364e-06
1.14638e-06
1.99477e-06
1.76636e-06
1.68993e-06
1.21748e-06
6.20355e-07
8.93634e-07
8.94489e-07
1.2307e-06
1.66514e-06
1.79953e-06
1.26686e-06
1.95826e-06
1.14272e-06
1.99948e-06
1.14634e-06
1.76958e-06
1.73354e-06
1.24073e-06
1.25018e-06
1.71903e-06
2.37699e-06
2.30572e-06
2.28464e-06
2.94633e-06
6.76043e-08
6.64413e-08
3.22869e-07
3.14848e-07
1.4516e-07
6.2264e-07
6.38423e-07
2.65544e-06
1.31508e-06
1.41157e-07
6.22413e-07
6.76562e-08
6.65321e-08
5.4072e-07
9.0295e-07
3.2339e-07
1.4071e-07
1.40904e-07
9.04377e-07
5.42133e-07
5.38026e-07
8.88669e-07
3.15632e-07
1.37466e-07
1.37706e-07
8.89667e-07
5.39754e-07
2.02161e-07
5.99057e-08
5.95186e-08
5.99715e-08
5.95946e-08
2.01721e-07
6.01106e-08
1.45318e-07
3.04163e-07
3.04503e-07
6.00817e-08
1.08578e-07
6.21883e-07
1.27868e-07
5.27822e-07
1.27979e-07
5.2709e-07
1.08483e-07
5.84307e-08
1.41423e-07
2.91408e-07
2.92109e-07
5.83454e-08
1.03169e-06
2.4334e-06
1.41195e-06
1.4056e-06
1.42941e-06
1.42684e-06
1.02786e-06
3.19284e-06
1.73469e-06
1.24416e-06
6.37837e-07
9.23854e-07
1.25367e-06
9.25727e-07
1.72022e-06
1.84482e-06
1.31962e-06
1.18829e-06
2.03549e-06
1.19256e-06
2.05045e-06
1.83245e-06
1.68592e-06
1.2125e-06
6.20553e-07
8.9394e-07
1.2256e-06
8.94864e-07
1.66111e-06
1.06741e-08
1.14014e-09
7.12849e-11
3.67282e-12
2.25968e-12
1.06265e-08
1.12628e-09
7.07277e-11
3.80809e-12
2.4327e-12
1.07112e-08
1.13278e-09
7.11437e-11
3.81365e-12
2.42635e-12
1.06812e-08
1.14073e-09
7.13235e-11
3.6785e-12
2.26539e-12
1.06345e-08
1.12706e-09
7.07745e-11
3.81424e-12
2.43886e-12
1.08716e-08
1.1544e-09
7.23077e-11
3.79351e-12
2.37091e-12
1.12295e-08
1.19776e-09
7.50841e-11
3.89422e-12
2.40786e-12
1.12412e-08
1.19884e-09
7.51533e-11
3.90286e-12
2.41627e-12
1.08608e-08
1.15347e-09
7.22497e-11
3.78552e-12
2.36292e-12
1.08656e-08
1.15372e-09
7.22669e-11
3.7926e-12
2.37089e-12
1.12263e-08
1.19742e-09
7.50632e-11
3.8936e-12
2.40774e-12
1.1238e-08
1.1985e-09
7.51325e-11
3.90224e-12
2.41615e-12
1.08548e-08
1.15278e-09
7.2209e-11
3.78461e-12
2.36289e-12
1.07027e-08
1.13205e-09
7.10999e-11
3.80705e-12
2.4196e-12
1.08675e-08
1.15599e-09
7.21924e-11
3.71065e-12
2.278e-12
1.0873e-08
1.15655e-09
7.22314e-11
3.71744e-12
2.28504e-12
1.01947e-08
1.07985e-09
6.79575e-11
3.73428e-12
2.40883e-12
1.02021e-08
1.08096e-09
6.80558e-11
3.7453e-12
2.41551e-12
1.06902e-08
1.13374e-09
7.12119e-11
3.82575e-12
2.43863e-12
1.06324e-08
1.12683e-09
7.07545e-11
3.80802e-12
2.43214e-12
1.0782e-08
1.15238e-09
7.20495e-11
3.69775e-12
2.26613e-12
1.06813e-08
1.14088e-09
7.13286e-11
3.6745e-12
2.26009e-12
1.06941e-08
1.13413e-09
7.12359e-11
3.82877e-12
2.4416e-12
1.06411e-08
1.12768e-09
7.08054e-11
3.81428e-12
2.4383e-12
1.08351e-08
1.14669e-09
7.20239e-11
3.84505e-12
2.43724e-12
1.07832e-08
1.15245e-09
7.2054e-11
3.69908e-12
2.26758e-12
1.06885e-08
1.14147e-09
7.13676e-11
3.68019e-12
2.2658e-12
1.02264e-08
1.08305e-09
6.81254e-11
3.73512e-12
2.40959e-12
1.01999e-08
1.08043e-09
6.79945e-11
3.73493e-12
2.40929e-12
1.07187e-08
1.1336e-09
7.11941e-11
3.81556e-12
2.42697e-12
1.07102e-08
1.13287e-09
7.11501e-11
3.80895e-12
2.42021e-12
1.09828e-08
1.1684e-09
7.29465e-11
3.73425e-12
2.28397e-12
1.09885e-08
1.16889e-09
7.29784e-11
3.73861e-12
2.28829e-12
1.08649e-08
1.15585e-09
7.21845e-11
3.71015e-12
2.27799e-12
1.08735e-08
1.15661e-09
7.22333e-11
3.71661e-12
2.28434e-12
1.02088e-08
1.08157e-09
6.80878e-11
3.7447e-12
2.41528e-12
1.02339e-08
1.08402e-09
6.82046e-11
3.74335e-12
2.41482e-12
1.091e-08
1.15975e-09
7.26477e-11
3.79712e-12
2.36515e-12
1.12786e-08
1.20392e-09
7.54641e-11
3.90203e-12
2.40629e-12
1.12814e-08
1.2042e-09
7.54834e-11
3.90439e-12
2.40857e-12
1.09077e-08
1.15959e-09
7.26373e-11
3.79516e-12
2.36307e-12
1.08336e-08
1.14665e-09
7.20227e-11
3.84402e-12
2.43603e-12
2.41574e-06
2.95937e-06
2.26336e-06
2.29033e-06
2.3868e-06
2.42576e-06
2.40727e-06
2.30301e-06
2.30092e-06
2.40463e-06
2.26513e-06
2.24873e-06
2.25034e-06
2.38421e-06
2.29185e-06
3.16336e-07
3.2304e-07
2.41102e-06
3.15461e-07
3.2241e-07
6.09064e-07
1.45407e-07
6.21761e-07
6.76434e-08
6.72134e-08
1.41485e-07
5.97096e-07
2.95903e-06
2.93619e-06
2.93772e-06
6.21552e-07
2.57337e-06
2.31747e-06
1.26699e-06
6.64855e-08
2.65615e-06
6.3909e-07
1.32379e-06
3.16335e-07
3.23042e-07
6.65443e-08
6.64581e-08
6.77634e-08
6.77125e-08
2.40467e-06
3.15452e-07
3.22399e-07
3.16345e-07
3.23052e-07
6.64603e-08
6.65372e-08
6.77121e-08
6.77578e-08
6.77019e-08
6.65491e-08
3.23431e-07
3.15719e-07
6.08972e-07
1.45314e-07
1.43247e-07
6.21686e-07
1.29005e-06
6.38479e-07
2.66931e-06
2.61811e-06
1.32207e-06
1.28983e-06
6.37927e-07
2.6691e-06
2.30499e-06
6.31011e-07
2.61839e-06
1.32187e-06
3.22689e-07
3.15961e-07
2.41858e-06
3.19746e-07
6.65118e-08
6.21739e-07
2.5744e-06
1.26717e-06
1.41329e-07
5.96929e-07
2.56592e-06
6.21262e-07
1.26731e-06
1.41396e-07
5.96883e-07
2.5658e-06
6.21738e-07
1.26738e-06
1.41386e-07
5.96821e-07
3.15589e-07
3.2321e-07
6.77219e-08
2.65769e-06
6.39172e-07
1.32376e-06
1.45575e-07
6.23566e-07
1.45613e-07
6.23543e-07
6.6527e-08
6.77547e-08
2.02306e-07
5.96596e-08
5.98729e-08
5.97281e-08
5.99354e-08
2.01805e-07
5.38979e-07
8.92744e-07
1.39581e-07
3.15475e-07
1.39357e-07
5.37552e-07
8.92178e-07
5.43223e-07
9.01861e-07
1.3922e-07
3.22427e-07
1.39035e-07
5.42095e-07
9.00974e-07
2.01825e-07
5.97324e-08
5.99397e-08
5.96588e-08
5.98722e-08
2.02294e-07
5.37659e-07
1.39354e-07
3.16343e-07
8.9241e-07
1.39576e-07
5.38783e-07
8.92644e-07
5.42192e-07
1.39032e-07
3.2305e-07
9.01094e-07
1.39215e-07
5.4305e-07
9.01806e-07
1.06941e-07
1.25149e-07
5.16584e-07
6.13195e-07
1.25859e-07
5.20102e-07
1.06386e-07
5.99879e-08
1.45551e-07
3.0492e-07
3.03829e-07
6.01805e-08
5.95488e-08
1.44241e-07
3.00089e-07
1.07865e-07
6.18858e-07
1.2787e-07
5.27556e-07
1.26973e-07
5.24902e-07
1.08606e-07
6.77358e-08
6.74135e-08
5.83776e-08
1.41161e-07
2.92241e-07
2.91377e-07
5.8436e-08
1.05463e-07
5.97478e-07
5.07016e-07
1.2425e-07
5.07266e-07
1.23975e-07
1.05684e-07
6.64166e-08
5.38065e-07
8.93481e-07
1.39592e-07
3.15452e-07
5.38317e-07
8.91098e-07
1.39314e-07
5.42431e-07
9.02452e-07
1.39229e-07
3.22416e-07
5.42779e-07
9.00307e-07
1.39002e-07
2.01764e-07
5.97171e-08
5.99252e-08
2.02322e-07
5.96613e-08
5.98748e-08
6.64564e-08
6.65417e-08
6.77109e-08
6.77615e-08
2.01778e-07
5.97239e-08
5.99314e-08
2.02314e-07
5.9658e-08
5.98712e-08
5.3806e-07
8.92023e-07
1.3933e-07
3.16331e-07
5.38317e-07
1.39573e-07
8.92946e-07
5.42553e-07
9.00818e-07
1.39011e-07
3.23037e-07
5.42638e-07
1.39213e-07
9.02068e-07
2.02323e-07
5.96592e-08
5.98725e-08
2.01755e-07
5.97206e-08
5.99284e-08
5.38669e-07
1.39572e-07
8.92785e-07
3.15454e-07
5.37789e-07
1.39348e-07
8.91922e-07
5.42951e-07
1.39211e-07
9.01901e-07
3.22402e-07
5.42309e-07
1.39026e-07
9.00834e-07
6.65328e-08
6.64595e-08
6.7756e-08
6.77133e-08
6.77787e-08
6.75166e-08
6.64798e-08
5.41776e-07
9.04937e-07
3.23281e-07
1.40992e-07
1.40798e-07
9.03105e-07
5.41407e-07
5.3913e-07
8.9023e-07
3.14825e-07
1.37771e-07
1.37504e-07
8.88293e-07
5.38872e-07
3.22587e-07
9.05436e-07
2.01708e-07
6.00053e-08
5.96199e-08
5.99418e-08
5.95521e-08
2.02283e-07
1.06918e-07
1.25137e-07
5.16431e-07
6.13117e-07
1.25848e-07
5.1994e-07
1.06363e-07
5.99672e-08
1.45426e-07
3.0503e-07
3.03414e-07
6.01572e-08
5.94969e-08
2.97585e-07
1.44124e-07
3.00147e-07
5.92639e-08
1.07839e-07
6.18761e-07
1.27859e-07
5.27402e-07
1.26959e-07
5.24737e-07
1.08585e-07
2.0192e-07
5.99109e-08
5.99915e-08
5.96425e-08
5.41848e-07
9.0213e-07
3.22442e-07
1.39109e-07
1.38946e-07
8.99872e-07
5.42934e-07
5.38735e-07
8.91771e-07
3.15211e-07
1.39557e-07
8.90134e-07
1.39248e-07
5.37047e-07
5.40359e-07
1.39215e-07
3.22225e-07
8.98084e-07
1.39755e-07
9.01732e-07
5.41341e-07
5.40633e-07
3.15772e-07
8.9305e-07
1.39158e-07
2.01538e-07
5.9865e-08
5.9677e-08
5.98162e-08
5.96094e-08
2.0199e-07
6.64478e-08
6.65155e-08
5.83249e-08
1.41004e-07
2.91911e-07
2.91047e-07
5.83834e-08
1.05386e-07
5.97314e-07
1.24207e-07
5.06644e-07
1.23932e-07
5.06904e-07
1.05607e-07
1.0564e-07
5.97537e-07
5.07318e-07
1.24208e-07
5.83516e-08
1.41097e-07
2.92066e-07
2.91231e-07
5.84077e-08
5.84051e-08
1.41381e-07
2.91987e-07
1.05435e-07
5.97247e-07
5.06751e-07
1.24209e-07
5.07e-07
1.23964e-07
1.05636e-07
1.05608e-07
5.97475e-07
1.24184e-07
5.07191e-07
5.83358e-08
1.41074e-07
2.91969e-07
2.91117e-07
5.83937e-08
5.83915e-08
1.41373e-07
2.91914e-07
1.05399e-07
5.97181e-07
1.24186e-07
5.06624e-07
1.23941e-07
5.06863e-07
1.05603e-07
5.39689e-07
8.90823e-07
3.14716e-07
1.37832e-07
1.37544e-07
8.88282e-07
5.40339e-07
5.40364e-07
9.03681e-07
3.22586e-07
1.41013e-07
9.01654e-07
1.40761e-07
5.40423e-07
2.01402e-07
5.95767e-08
6e-08
5.95231e-08
5.99237e-08
2.01923e-07
6.76818e-08
6.02352e-08
1.45394e-07
3.05046e-07
3.04605e-07
6.02465e-08
1.08746e-07
6.23994e-07
5.28529e-07
1.28314e-07
5.28687e-07
1.28206e-07
1.08836e-07
6.02359e-08
1.45428e-07
3.05099e-07
3.04651e-07
6.02495e-08
1.08757e-07
6.23988e-07
5.28578e-07
1.28312e-07
5.28735e-07
1.28208e-07
1.08848e-07
6.6461e-08
6.65267e-08
6.77167e-08
1.02864e-06
1.41906e-06
1.43162e-06
2.37035e-06
1.03128e-06
1.40173e-06
1.41736e-06
3.23683e-06
3.20493e-06
2.81554e-06
1.02807e-06
1.41233e-06
1.42655e-06
2.37368e-06
1.03166e-06
1.40269e-06
1.41865e-06
1.03132e-06
2.45392e-06
1.41528e-06
1.42718e-06
1.02874e-06
1.42584e-06
1.43526e-06
1.02806e-06
1.42786e-06
1.4181e-06
2.37865e-06
1.41553e-06
1.40691e-06
1.0317e-06
1.02721e-06
1.42239e-06
1.42053e-06
2.3772e-06
1.40923e-06
1.41051e-06
1.03107e-06
1.02743e-06
1.40667e-06
1.42873e-06
2.37161e-06
1.42089e-06
1.39722e-06
1.031e-06
1.03112e-06
2.45401e-06
1.4114e-06
1.42422e-06
1.02888e-06
1.42635e-06
1.43582e-06
3.23776e-06
3.20559e-06
2.8154e-06
3.16153e-06
3.20662e-06
2.81606e-06
3.16221e-06
3.21058e-06
2.81689e-06
1.66017e-06
1.21847e-06
6.21199e-07
8.95146e-07
1.21255e-06
8.92576e-07
1.6693e-06
1.69005e-06
6.22084e-07
1.22974e-06
8.958e-07
1.75815e-06
1.26171e-06
1.14615e-06
1.95752e-06
1.14151e-06
1.94388e-06
1.76702e-06
1.71801e-06
1.2432e-06
6.38574e-07
9.27726e-07
1.24006e-06
9.25733e-07
1.72078e-06
1.83675e-06
1.31913e-06
2.04797e-06
1.19543e-06
2.03796e-06
1.19159e-06
1.84039e-06
1.02864e-06
2.3702e-06
1.41623e-06
1.42948e-06
1.03121e-06
1.4023e-06
1.41804e-06
1.83279e-06
1.16652e-06
2.00069e-06
1.3048e-06
1.17998e-06
2.03329e-06
1.80943e-06
1.72849e-06
1.25261e-06
6.39099e-07
9.27789e-07
9.23757e-07
1.2487e-06
1.73238e-06
1.72338e-06
6.35566e-07
9.19121e-07
1.24981e-06
1.83281e-06
1.31027e-06
1.1958e-06
2.04793e-06
1.18435e-06
2.03018e-06
1.84064e-06
1.83242e-06
1.16615e-06
2.0004e-06
1.30459e-06
1.17955e-06
2.03304e-06
1.80906e-06
1.72743e-06
1.2502e-06
6.38763e-07
9.27393e-07
9.2336e-07
1.24669e-06
1.73113e-06
1.72116e-06
9.09523e-07
6.34548e-07
1.23564e-06
9.18122e-07
1.69632e-06
1.24682e-06
1.83254e-06
1.31007e-06
1.19542e-06
2.04782e-06
1.18399e-06
2.03005e-06
1.84042e-06
1.0313e-06
2.43604e-06
1.41088e-06
1.42261e-06
1.43012e-06
1.42358e-06
1.02722e-06
1.66093e-06
1.21764e-06
6.21453e-07
8.95667e-07
8.9322e-07
1.21205e-06
1.67e-06
1.7589e-06
1.26209e-06
1.14665e-06
1.95803e-06
1.14207e-06
1.94445e-06
1.76782e-06
1.66212e-06
1.22033e-06
6.20919e-07
8.95036e-07
8.92609e-07
1.21526e-06
1.67107e-06
1.76129e-06
1.26225e-06
1.96196e-06
1.14641e-06
1.94834e-06
1.14185e-06
1.77033e-06
1.66303e-06
1.22252e-06
6.21397e-07
8.95273e-07
1.21745e-06
8.92776e-07
1.67198e-06
1.76143e-06
1.26208e-06
1.96196e-06
1.14655e-06
1.94827e-06
1.14178e-06
1.77047e-06
1.71844e-06
1.2424e-06
6.38627e-07
9.2799e-07
1.23924e-06
9.25944e-07
1.72135e-06
1.83729e-06
1.31913e-06
2.04833e-06
1.19564e-06
2.03825e-06
1.19173e-06
1.84117e-06
2.94689e-06
2.28531e-06
2.31458e-06
2.43856e-06
2.94802e-06
2.28663e-06
2.31588e-06
2.4401e-06
2.94877e-06
2.28748e-06
2.31605e-06
2.44116e-06
2.9495e-06
2.28755e-06
2.31598e-06
2.44119e-06
2.94981e-06
2.28765e-06
2.31601e-06
2.44123e-06
2.95064e-06
2.28778e-06
2.31609e-06
2.44136e-06
2.9519e-06
2.28757e-06
2.31585e-06
2.44109e-06
2.95267e-06
2.28729e-06
2.31559e-06
2.4404e-06
2.95311e-06
2.28724e-06
2.31536e-06
2.43973e-06
2.95411e-06
2.28728e-06
2.31523e-06
2.43971e-06
2.95517e-06
2.28716e-06
2.31474e-06
2.43973e-06
2.95519e-06
2.28636e-06
2.3135e-06
2.43877e-06
2.95478e-06
2.28462e-06
2.31153e-06
2.43678e-06
2.95437e-06
2.28201e-06
2.30869e-06
2.43341e-06
2.95437e-06
2.27813e-06
2.30463e-06
2.42747e-06
2.95552e-06
2.27238e-06
2.29873e-06
2.37896e-06
2.30713e-06
2.3055e-06
2.37664e-06
2.28601e-06
2.28522e-06
2.28494e-06
2.28487e-06
2.38163e-06
2.31423e-06
2.3138e-06
2.38087e-06
2.43548e-06
2.38054e-06
2.30733e-06
2.30571e-06
2.30862e-06
2.30702e-06
2.43326e-06
2.37838e-06
2.28621e-06
2.28527e-06
2.2874e-06
2.28647e-06
2.28507e-06
2.28636e-06
2.28632e-06
2.43816e-06
2.38303e-06
2.31397e-06
2.31566e-06
2.31522e-06
2.38243e-06
2.43703e-06
2.38151e-06
2.30871e-06
2.3072e-06
2.30951e-06
2.30809e-06
2.4346e-06
2.37943e-06
2.28751e-06
2.28645e-06
2.28836e-06
2.28725e-06
2.28641e-06
2.28754e-06
2.28747e-06
2.43951e-06
2.38376e-06
2.31529e-06
2.31619e-06
2.31632e-06
2.38362e-06
2.43786e-06
2.38162e-06
2.30942e-06
2.30804e-06
2.31005e-06
2.30876e-06
2.43593e-06
2.37988e-06
2.28802e-06
2.28677e-06
2.28838e-06
2.28708e-06
2.2871e-06
2.28767e-06
2.28759e-06
2.44005e-06
2.38356e-06
2.31594e-06
2.31622e-06
2.31644e-06
2.38378e-06
2.43788e-06
2.38172e-06
2.30972e-06
2.30843e-06
2.31024e-06
2.30891e-06
2.43587e-06
2.37983e-06
2.2879e-06
2.28635e-06
2.28849e-06
2.28698e-06
2.28711e-06
2.28787e-06
2.28778e-06
2.43973e-06
2.3834e-06
2.31596e-06
2.3163e-06
2.31664e-06
2.3839e-06
2.43794e-06
2.38204e-06
2.30989e-06
2.30855e-06
2.3107e-06
2.30931e-06
2.43616e-06
2.38016e-06
2.28803e-06
2.28633e-06
2.28888e-06
2.28721e-06
2.28721e-06
2.28818e-06
2.28817e-06
2.43949e-06
2.38345e-06
2.31609e-06
2.31661e-06
2.31706e-06
2.38418e-06
2.43822e-06
2.3824e-06
2.31032e-06
2.30892e-06
2.31131e-06
2.30976e-06
2.43601e-06
2.38007e-06
2.28834e-06
2.28637e-06
2.28936e-06
2.28735e-06
2.28739e-06
2.2882e-06
2.28832e-06
2.43941e-06
2.38334e-06
2.31634e-06
2.31667e-06
2.31728e-06
2.38421e-06
2.43841e-06
2.38231e-06
2.31076e-06
2.30919e-06
2.31158e-06
2.31e-06
2.43615e-06
2.38012e-06
2.2885e-06
2.28603e-06
2.28937e-06
2.28728e-06
2.28704e-06
2.28818e-06
2.28821e-06
2.43902e-06
2.38303e-06
2.31614e-06
2.31677e-06
2.3172e-06
2.38386e-06
2.43809e-06
2.38229e-06
2.31072e-06
2.30916e-06
2.31187e-06
2.31032e-06
2.43561e-06
2.38004e-06
2.28807e-06
2.28548e-06
2.2894e-06
2.28748e-06
2.28644e-06
2.28844e-06
2.28816e-06
2.43838e-06
2.38302e-06
2.31566e-06
2.317e-06
2.3174e-06
2.38362e-06
2.43788e-06
2.38312e-06
2.31091e-06
2.30938e-06
2.31252e-06
2.31095e-06
2.43575e-06
2.38075e-06
2.28785e-06
2.28526e-06
2.2908e-06
2.28848e-06
2.28576e-06
2.28919e-06
2.28876e-06
2.43799e-06
2.38364e-06
2.31547e-06
2.31762e-06
2.31809e-06
2.38414e-06
2.43838e-06
2.38386e-06
2.31126e-06
2.30968e-06
2.31323e-06
2.31151e-06
2.43568e-06
2.38134e-06
2.28866e-06
2.28528e-06
2.29161e-06
2.28964e-06
2.28615e-06
2.2901e-06
2.29062e-06
2.43794e-06
2.3845e-06
2.31541e-06
2.31847e-06
2.31916e-06
2.38538e-06
2.4384e-06
2.38428e-06
2.3113e-06
2.30957e-06
2.31365e-06
2.31195e-06
2.436e-06
2.38203e-06
2.28839e-06
2.28478e-06
2.2925e-06
2.29094e-06
2.28582e-06
2.29103e-06
2.29197e-06
2.43761e-06
2.38523e-06
2.31518e-06
2.31919e-06
2.32028e-06
2.3863e-06
2.43771e-06
2.38467e-06
2.31095e-06
2.30926e-06
2.31393e-06
2.31224e-06
2.43519e-06
2.38227e-06
2.28761e-06
2.28345e-06
2.29347e-06
2.2926e-06
2.28458e-06
2.29195e-06
2.29369e-06
2.43645e-06
2.38617e-06
2.31444e-06
2.32014e-06
2.32155e-06
2.38737e-06
2.43636e-06
2.38554e-06
2.31028e-06
2.30863e-06
2.31442e-06
2.31278e-06
2.43405e-06
2.38326e-06
2.28594e-06
2.28102e-06
2.29499e-06
2.29514e-06
2.28215e-06
2.29337e-06
2.29629e-06
2.43431e-06
2.38795e-06
2.31271e-06
2.32175e-06
2.32328e-06
2.38926e-06
2.43423e-06
2.38755e-06
2.30915e-06
2.30754e-06
2.31513e-06
2.3135e-06
2.43165e-06
2.38516e-06
2.28326e-06
2.27706e-06
2.29757e-06
2.29943e-06
2.27829e-06
2.29606e-06
2.30065e-06
2.43083e-06
2.39175e-06
2.30989e-06
2.32458e-06
2.32606e-06
2.39312e-06
2.43063e-06
2.39234e-06
2.30748e-06
2.30587e-06
2.31644e-06
2.3149e-06
2.42826e-06
2.39026e-06
2.27927e-06
2.27112e-06
2.30214e-06
2.30695e-06
2.27245e-06
2.30079e-06
2.30826e-06