/*--------------------------------*- C++ -*----------------------------------*\
| =========                 |                                                 |
| \\      /  F ield         | OpenFOAM: The Open Source CFD Toolbox           |
|  \\    /   O peration     | Version:  2206                                  |
|   \\  /    A nd           | Website:  www.openfoam.com                      |
|    \\/     M anipulation  |                                                 |
\*---------------------------------------------------------------------------*/
FoamFile
{
    version     2.0;
    format      ascii;
    arch        "LSB;label=32;scalar=64";
    class       volScalarField;
    location    "1";
    object      omega;
}
// * * * * * * * * * * * * * * * * * * * * * * * * * * * * * * * * * * * * * //

dimensions      [0 0 -1 0 0 0 0];

internalField   nonuniform List<scalar> 
67442
(
23.3562
36.9099
36.1841
46.0881
46.0002
36.2604
36.2537
46.0305
36.9209
36.9425
36.9381
46.0475
36.1817
293.857
156.173
399.393
295.864
159.583
23.3568
23.3874
23.386
150.573
28.5505
86.3346
400.778
27.6894
148.063
83.3268
200.482
198.881
399.356
400.81
198.683
200.631
293.868
156.223
147.977
27.6759
83.2672
148.115
27.6743
83.2911
198.856
200.56
400.758
150.507
28.5568
86.2802
295.872
159.577
28.5737
150.467
86.2576
295.856
159.682
28.5689
150.514
86.3088
295.864
159.673
200.561
198.83
399.423
27.6913
148.136
83.3386
293.874
156.251
293.876
156.258
400.759
399.438
421.225
293.808
208.479
208.471
421.344
324.998
156.289
303.969
170.059
303.924
170.179
325.049
399.273
327.962
159.551
173.536
306.984
423.945
295.784
211.972
212.02
424.15
424.145
295.854
211.943
327.857
159.842
173.568
306.99
173.82
306.89
327.966
400.607
400.779
169.044
116.238
200.573
300.995
116.452
300.912
168.852
167.5
114.913
198.919
301.213
115.074
301.146
167.329
244.548
407.194
406.643
407.032
406.496
244.571
399.238
400.636
400.797
168.404
115.002
198.738
300.39
300.319
115.18
168.184
168.105
116.075
200.714
301.793
301.71
116.306
167.861
244.525
406.588
407.246
406.432
407.077
244.551
421.214
293.827
208.516
208.527
421.333
324.993
156.314
303.969
170.147
303.927
170.23
325.045
167.565
115.001
198.864
301.135
301.057
115.161
167.399
168.835
116.176
200.618
301.024
116.356
300.962
168.706
244.605
406.569
407.214
406.34
407.082
244.592
400.594
327.967
159.545
306.985
173.533
423.93
295.793
211.973
212.026
424.136
424.131
295.863
211.944
327.861
159.836
306.991
173.566
306.891
173.817
327.97
423.936
295.782
211.996
212.051
424.138
327.862
159.888
173.667
306.998
173.871
306.9
327.973
423.925
295.792
211.985
212.048
424.126
327.866
159.881
306.999
173.65
306.901
173.858
327.976
168.195
116.11
200.638
301.641
301.608
116.347
168.016
168.275
114.964
198.839
300.458
115.138
300.373
168.031
244.607
407.215
406.579
407.05
406.468
244.652
399.303
421.259
293.833
208.515
208.527
421.379
325.026
156.341
170.148
303.993
170.231
303.95
325.078
421.258
293.836
208.523
208.539
421.376
325.016
156.348
170.155
303.99
170.238
303.947
325.067
400.594
399.325
19.626
19.8837
17.9106
106.863
73.1621
72.5633
46.1625
73.3819
72.7441
106.651
106.863
72.6046
73.0622
46.0877
72.7887
73.2838
106.625
106.837
72.6908
73.0505
46.1057
73.2704
72.8702
106.63
106.855
73.1713
72.4736
46.1357
72.6597
73.3944
106.615
19.6266
19.8831
17.9109
19.8856
19.6415
17.9128
19.8839
19.6313
17.9119
64.9108
86.7254
150.756
115.001
86.9747
115.238
64.7352
55.3399
86.6019
95.1641
49.9106
95.4225
50.1028
55.1479
62.8541
85.1202
148.169
112.075
85.2798
112.2
62.7687
53.1703
83.4311
47.9525
92.0814
47.9993
92.1939
53.1142
62.8049
84.9832
148.132
112.031
112.161
85.143
62.7175
53.2149
83.3785
92.0191
47.9198
92.137
47.973
53.15
62.8
85.0654
148.218
112.117
112.236
85.2252
62.726
53.1928
83.4
92.0839
47.9251
92.1963
47.9757
53.1383
64.9523
86.7181
150.756
114.938
115.198
86.9775
64.758
55.3857
86.5621
95.1041
49.8887
95.3786
50.0852
55.18
64.8956
86.5765
150.715
114.907
115.167
86.8366
64.6972
55.3517
86.54
49.8638
95.0705
50.0608
95.3461
55.1422
64.8716
86.5828
150.702
114.949
86.8359
115.187
64.6947
55.3125
86.5771
49.89
95.1218
50.0824
95.3809
55.1192
62.8665
85.1829
148.241
112.137
85.3387
112.257
62.798
53.2175
83.4461
47.9646
92.1076
48.015
92.2201
53.1644
742.781
1627.42
4517.46
17163.8
116782
726.797
1621.38
4513.46
17168.5
116912
742.257
1627.31
4517.6
17165.8
116802
726.171
1620.8
4512.63
17166.1
116892
726.855
1621.39
4513
17164.5
116862
726.206
1620.89
4512.99
17168.5
116912
742.792
1627.43
4517.61
17165.9
116803
726.101
1620.61
4512.27
17164.7
116872
742.258
1627.29
4517.58
17166.1
116814
742.247
1627.2
4517.09
17163
116781
742.244
1627.25
4517.18
17162.7
116772
726.881
1621.43
4513
17165.5
116881
742.795
1627.38
4517.42
17164.7
116795
742.795
1627.38
4517.4
17164.9
116802
726.145
1620.74
4512.59
17166.2
116892
726.877
1621.47
4513.45
17168
116912
725.026
1620.63
4510.81
17157.3
116835
742.634
1627.29
4517.36
17163.7
116782
726.71
1621.36
4513.46
17168.5
116912
733.411
1624.07
4512.87
17153.8
116752
734.971
1623.48
4510.8
17148.4
116727
724.229
1620.17
4510.71
17158
116840
742.046
1627.15
4517.5
17165.8
116802
742.257
1627.32
4517.6
17165.8
116802
726.008
1620.74
4512.68
17166.1
116892
726.17
1620.79
4512.64
17166.1
116892
741.108
1626.99
4516.94
17164.3
116795
740.927
1626.87
4516.87
17164.2
116795
741.265
1627.01
4516.98
17164.3
116795
741.112
1626.9
4516.91
17164.2
116795
721.586
1614.82
4499.31
17118.5
116918
721.649
1614.87
4499.31
17119
116921
721.5
1615.11
4500.8
17126.8
116918
721.571
1615.14
4500.68
17126.5
116921
726.73
1621.3
4512.96
17164.4
116862
726.039
1620.83
4513.03
17168.5
116912
726.193
1620.87
4512.98
17168.5
116912
742.636
1627.3
4517.5
17165.8
116803
741.092
1626.99
4516.85
17163.3
116789
740.904
1626.85
4516.76
17163.3
116789
721.551
1614.74
4498.82
17116.7
116919
721.461
1614.97
4500.14
17124.1
116919
725.984
1620.65
4512.39
17164.7
116872
733.392
1624.06
4512.84
17153.1
116747
734.962
1623.46
4510.75
17148.2
116725
724.203
1620.14
4510.73
17158.1
116852
742.048
1627.13
4517.47
17166
116814
742.258
1627.29
4517.58
17166.1
116814
742.031
1627.04
4516.98
17163
116781
724.164
1620.07
4510.56
17156.9
116831
742.025
1627.08
4517.07
17162.7
116772
741.354
1627
4516.64
17161.5
116759
741.206
1626.89
4516.58
17161.4
116759
721.779
1615.42
4501.26
17127.6
116904
726.788
1621.39
4512.99
17165.5
116881
725.068
1620.68
4510.83
17157.3
116836
742.641
1627.25
4517.32
17164.6
116795
725.062
1620.64
4510.68
17157.2
116840
742.638
1627.24
4517.3
17164.8
116802
726.024
1620.78
4512.7
17166.1
116892
726.788
1621.44
4513.44
17168
116912
724.986
1620.56
4510.68
17157.8
116838
724.187
1620.09
4510.5
17157.2
116840
733.986
1624.16
4513.06
17154.3
116768
735.623
1623.61
4511.05
17149.5
116747
735.527
1623.54
4511
17149.5
116747
734.084
1624.24
4513.11
17154.3
116768
725.131
1620.73
4510.89
17157.4
116835
741.232
1626.95
4516.74
17162.4
116776
741.081
1626.85
4516.68
17162.4
116776
721.564
1614.57
4498.04
17111.6
116887
721.471
1614.87
4499.58
17120.1
116887
724.398
1620.25
4510.75
17158.1
116840
733.225
1623.96
4512.81
17153.8
116752
734.97
1623.48
4510.8
17148.4
116727
734.787
1623.37
4510.75
17148.4
116727
733.407
1624.07
4512.87
17153.8
116752
724.397
1620.25
4510.75
17158.1
116840
740.966
1626.93
4516.74
17162.5
116777
740.793
1626.81
4516.68
17162.5
116777
721.559
1614.73
4498.29
17111.2
116918
721.416
1614.87
4499.85
17121.9
116918
741.307
1627
4516.8
17162.6
116776
741.162
1626.9
4516.74
17162.6
116776
721.8
1615.41
4500.76
17124.3
116933
721.651
1615.44
4501.73
17131.4
116933
741
1626.98
4516.92
17163.9
116795
740.827
1626.86
4516.85
17163.8
116795
721.56
1614.72
4498.18
17111.1
116921
721.402
1614.78
4499.39
17120
116921
733.968
1624.11
4512.78
17153.7
116751
735.617
1623.59
4510.8
17148.4
116727
735.513
1623.51
4510.75
17148.4
116727
734.072
1624.19
4512.84
17153.7
116751
725.076
1620.63
4510.75
17157.9
116838
733.207
1623.94
4512.79
17153.1
116747
734.961
1623.46
4510.75
17148.2
116725
734.778
1623.35
4510.7
17148.2
116725
733.389
1624.06
4512.84
17153.1
116747
724.371
1620.22
4510.77
17158.2
116852
724.371
1620.21
4510.77
17158.2
116852
724.329
1620.14
4510.53
17157.2
116840
733.235
1624.04
4513.12
17155.2
116774
734.974
1623.53
4511.04
17148.8
116749
734.784
1623.42
4510.99
17148.8
116749
733.419
1624.16
4513.17
17155.2
116774
733.23
1624.02
4513.14
17155.3
116769
734.978
1623.51
4511.05
17149.5
116747
734.788
1623.4
4511
17149.5
116747
733.415
1624.14
4513.19
17155.3
116769
724.306
1620.12
4510.57
17156.9
116831
721.689
1615.55
4502.04
17131.8
116904
725.162
1620.76
4510.91
17157.3
116836
734
1624.16
4513.02
17153.8
116758
735.635
1623.59
4510.91
17148.2
116725
735.534
1623.53
4510.92
17148.8
116736
734.103
1624.23
4513.01
17153.2
116747
725.156
1620.72
4510.76
17157.2
116840
733.994
1624.14
4512.83
17153.8
116752
735.63
1623.59
4510.8
17148.4
116727
735.526
1623.52
4510.75
17148.4
116727
734.099
1624.22
4512.89
17153.9
116752
36.9317
46.1497
36.1752
23.3839
159.891
28.5532
86.5967
295.799
159.886
28.5704
150.761
86.5756
400.598
200.657
327.976
159.67
173.865
306.897
173.654
306.998
327.861
424.135
295.87
212.052
211.996
423.925
327.98
159.666
306.899
173.864
306.999
173.652
327.866
400.749
168.126
116.368
200.572
301.487
116.141
301.386
168.327
168.053
115.171
114.993
168.255
244.833
407.044
407.186
244.758
106.658
46.0573
73.4179
72.6768
73.1907
72.4874
106.875
19.8816
17.9096
19.8837
19.6449
17.9119
55.1948
86.319
95.4156
50.1029
95.1497
49.9026
55.3841
64.7234
86.8613
150.555
115.206
114.957
86.6006
64.9026
55.1574
86.2994
50.0793
95.3832
49.881
95.1174
55.3509
62.7586
85.2968
85.1307
62.8357
46.1015
36.2501
36.9095
23.3567
399.244
400.643
198.76
200.743
293.818
156.316
148.159
27.6734
83.3948
295.791
150.8
399.35
400.802
168.267
115.205
198.718
300.329
300.396
115.029
168.433
167.954
116.338
200.649
301.72
301.798
116.113
168.141
244.567
406.441
407.086
406.581
407.24
244.545
421.348
293.855
208.501
208.491
421.222
325.059
156.215
303.931
170.202
303.975
170.113
325.003
424.149
295.863
212.047
211.996
423.939
106.674
46.0088
72.8101
73.3072
72.6218
73.0816
106.888
19.6241
62.7193
85.1606
148.037
112.184
84.9981
112.055
62.7954
53.1412
83.2776
92.155
47.9808
92.036
47.9191
53.1994
64.7807
87.0035
150.595
115.237
86.7429
114.99
64.9575
742.05
1627.13
4517.47
17166
116814
725.988
1620.73
4512.67
17166.1
116892
724.333
1620.17
4510.75
17158.2
116852
742.267
1627.3
4517.58
17166.1
116814
726.079
1620.65
4512.53
17166.1
116892
733.409
1624.07
4512.87
17153.8
116752
734.786
1623.36
4510.75
17148.4
116727
734.977
1623.48
4510.8
17148.4
116727
733.223
1623.96
4512.81
17153.8
116752
733.389
1624.06
4512.84
17153.1
116747
734.777
1623.35
4510.7
17148.2
116725
734.968
1623.46
4510.75
17148.2
116725
733.203
1623.94
4512.79
17153.1
116747
724.176
1620.11
4510.72
17158.1
116852
740.773
1626.8
4516.68
17162.5
116777
740.951
1626.91
4516.73
17162.5
116777
721.389
1614.81
4499.44
17118.7
116918
721.431
1614.36
4497.45
17108.8
116918
726.723
1621.3
4512.96
17164.4
116862
726.035
1620.84
4513.04
17168.5
116912
742.636
1627.29
4517.35
17163.7
116782
742.047
1627.15
4517.49
17165.8
116802
726.79
1621.31
4512.95
17164.5
116862
726.132
1620.77
4512.91
17168.5
116912
725.107
1620.7
4510.89
17157.3
116835
742.792
1627.43
4517.46
17163.8
116782
742.266
1627.32
4517.6
17165.8
116802
721.662
1615.5
4501.83
17130.8
116933
721.414
1614.85
4499.49
17119.3
116921
724.359
1620.2
4510.73
17158.1
116840
724.202
1620.14
4510.7
17158
116840
741.161
1626.89
4516.71
17162.6
116776
741.319
1627.01
4516.8
17162.6
116776
740.825
1626.85
4516.82
17163.8
116795
741.01
1626.98
4516.92
17163.9
116795
721.474
1614.47
4497.8
17111.1
116921
721.71
1615.15
4500.38
17124.3
116933
734.09
1624.24
4513.11
17154.3
116768
735.529
1623.54
4511
17149.5
116747
735.633
1623.62
4511.05
17149.5
116747
733.986
1624.16
4513.06
17154.3
116768
725.008
1620.62
4510.81
17157.3
116835
46.365
23.4597
37.127
36.3973
46.3761
46.4625
46.313
36.5034
36.2897
46.3065
37.1584
37.2471
37.2444
46.3709
36.4132
200.515
198.926
46.4475
200.681
199.042
159.216
293.849
156.293
399.37
400.095
295.809
159.757
23.4834
23.4894
23.4964
150.688
28.7268
37.3302
86.6181
400.743
27.8277
148.274
83.6841
200.494
198.911
400.764
400.653
399.449
399.375
46.3424
200.688
199.052
200.492
198.906
400.676
400.742
399.392
399.433
399.342
400.775
198.807
200.663
159.238
293.854
295.022
156.306
86.2473
148.277
27.6187
28.3102
83.3751
86.2596
148.341
27.6188
36.7677
149.855
28.3154
83.3894
198.933
200.572
46.3904
199.714
400.728
150.722
28.7374
86.6264
295.817
159.754
28.7579
150.698
86.607
295.818
159.756
28.7558
150.625
86.5922
295.814
159.747
200.648
198.855
399.388
27.8412
148.308
83.6919
293.848
156.431
293.848
156.438
400.719
399.415
244.549
407.085
406.547
407.188
406.64
244.626
169.203
116.497
301.006
200.671
300.958
168.942
116.736
167.664
115.206
301.226
199.031
301.189
167.438
115.374
244.61
407.195
406.647
407.072
406.535
244.566
168.936
300.965
200.5
116.745
301
169.195
116.493
167.422
301.195
198.912
115.367
301.221
167.653
115.177
326.494
305.934
172.925
158.118
305.427
171.897
326.977
421.779
293.709
208.539
208.728
421.423
422.671
294.597
209.913
325.673
157.431
304.161
170.084
304.638
171.106
325.17
399.18
399.813
424.055
295.957
211.961
212.186
424.104
327.991
160.059
173.706
306.946
174.006
307.032
327.925
400.718
169.227
116.499
300.931
200.702
168.937
116.755
301.063
167.687
115.209
301.164
199.06
167.434
115.393
301.278
244.689
407.154
406.609
244.487
407.119
406.578
400.645
400.751
399.368
399.439
244.655
407.175
406.628
244.523
407.084
406.546
168.939
116.748
301.009
200.495
169.204
300.975
116.493
167.44
115.403
301.236
198.912
167.675
301.2
115.199
244.495
407.103
406.564
244.673
407.164
406.618
169.206
300.991
116.481
200.68
168.938
300.969
116.736
167.673
301.215
115.165
199.044
167.429
301.2
115.372
400.736
400.657
399.429
399.377
399.132
399.839
400.749
168.61
115.333
198.706
300.391
300.4
115.467
168.358
168.312
116.395
200.872
301.759
301.843
116.649
168.032
199.138
115.537
244.689
406.579
407.218
406.491
407.149
244.497
326.481
305.933
172.972
158.125
305.424
171.904
326.97
421.804
293.775
208.417
208.934
421.382
422.627
210.58
294.532
209.722
423.107
325.667
157.449
304.156
170.096
304.636
171.148
325.153
244.777
406.147
406.049
407.238
167.777
115.304
198.901
301.122
301.169
115.483
167.556
169.041
116.44
200.7
301.004
116.655
301.051
168.869
167.458
300.77
199.068
116.057
300.925
115.279
167.945
168.843
200.644
116.449
300.991
244.665
406.561
407.193
406.403
407.145
244.557
400.692
400.714
424.034
295.965
211.964
212.188
424.085
327.994
160.056
306.947
173.707
307.033
174.007
327.928
327.934
159.774
173.732
306.969
424.042
295.907
211.965
212.165
424.097
424.079
295.828
212.009
327.959
160.047
173.713
306.971
173.998
306.994
327.94
327.937
159.764
306.97
173.718
424.032
295.93
211.956
212.166
424.086
424.067
295.811
211.981
327.964
160.038
306.971
173.698
306.995
173.985
327.943
168.445
116.479
200.852
301.606
301.778
116.738
168.172
168.48
115.285
198.992
300.399
115.478
300.499
168.208
244.787
407.159
406.559
407.13
406.548
244.627
399.38
421.321
293.946
208.543
208.662
421.365
325.083
156.563
170.284
304.01
170.425
303.994
325.086
421.323
293.947
208.547
208.669
421.367
325.073
156.569
170.288
304.009
170.43
303.99
325.077
400.696
400.682
399.414
107.168
73.4847
72.8963
46.4586
106.923
73.7176
73.0849
19.6641
19.9291
17.9046
107.187
73.4959
72.9061
46.4795
106.928
73.7391
73.1033
106.941
46.3655
73.7186
73.091
107.174
73.4918
72.8945
107.197
72.9723
73.4323
46.4114
73.1651
73.6727
106.941
107.18
73.0252
73.3856
46.3855
73.6212
73.2086
106.944
107.209
73.568
72.8689
46.4746
73.0664
73.8102
106.95
106.908
46.358
73.7112
73.0758
107.151
73.4804
72.8855
19.657
19.9275
17.9032
19.9296
19.673
17.9042
19.9302
19.6734
17.9044
65.2671
87.0448
150.959
115.227
87.3243
115.504
65.0592
65.0394
150.725
87.0877
115.238
55.675
86.9286
95.4322
50.1832
95.7341
50.4049
55.4483
63.1728
85.514
148.458
112.395
85.6903
112.549
63.0832
53.5308
83.7973
48.2613
92.427
48.3172
92.553
53.4712
107.184
46.4544
73.4679
72.8677
106.924
73.7243
73.0811
54.0478
94.842
49.8556
84.9305
93.5456
48.8999
54.9757
62.8814
85.4071
148.067
112.385
112.355
85.3175
63.0402
63.7699
149.121
113.595
85.8436
53.5389
84.3227
92.1305
48.0781
92.9074
48.4518
53.3957
54.06
94.8855
49.8582
84.9435
93.5724
48.9065
55.0045
63.0018
85.4514
148.258
112.323
112.541
85.4451
63.0679
63.3805
114.448
148.743
86.6524
113.179
64.3766
85.5235
53.562
84.3376
92.1453
48.0834
92.9432
48.4605
53.4
106.92
46.3352
73.3273
73.6376
73.3958
72.9978
107.113
65.2972
87.0889
151.014
115.239
115.526
87.3735
65.089
55.6935
86.9335
95.4399
50.1989
95.7389
50.4184
55.4705
65.2493
86.9676
150.99
115.212
115.501
87.2562
65.0328
55.6593
86.9145
50.1758
95.4106
50.3959
95.7115
55.4299
65.2217
86.9086
150.917
115.177
87.1961
115.466
65.006
55.6452
86.9011
50.1625
95.3928
50.383
95.6934
55.4163
63.1934
85.5361
148.489
112.425
85.7113
112.568
63.1048
53.5466
83.8099
48.2707
92.4463
48.3275
92.5709
53.4871
23.392
36.9582
36.2221
46.1087
23.4398
37.0168
36.2989
46.1536
23.4743
37.1331
36.3996
46.2552
23.4822
37.1664
36.4211
46.3632
23.4807
37.1736
36.4322
46.3785
23.4769
37.1687
36.4286
46.3743
23.4745
37.1645
36.4251
46.376
23.4727
37.1607
36.423
46.3727
23.4711
37.1577
36.4213
46.3698
23.4696
37.1559
36.4213
46.3688
23.4684
37.1608
36.4211
46.367
23.4675
37.1635
36.4229
46.3674
23.4666
37.1571
36.4168
46.3659
23.4655
37.1502
36.4112
46.3651
23.4643
37.1393
36.405
46.3643
23.4635
37.1378
36.3998
46.1314
36.2821
36.2832
46.1424
36.9441
36.9652
36.9416
36.9702
46.1819
36.2023
36.2114
46.2005
46.0225
46.1835
36.2904
36.2903
36.3428
36.3402
46.0342
46.1958
36.9531
36.9737
37.003
37.0266
36.9766
36.9999
37.023
46.0741
46.2402
36.2173
36.2701
36.2642
46.2466
46.0767
46.3069
36.3637
36.3518
36.4592
36.4461
46.0865
46.2867
37.0248
37.0477
37.1279
37.1535
37.0323
37.0992
37.1275
46.1347
46.3688
36.2768
36.384
36.3695
46.3339
46.2067
46.3935
36.4544
36.4446
36.4908
36.4885
46.1877
46.395
37.1259
37.1494
37.1627
37.1872
37.1355
37.1578
37.1814
46.2688
46.448
36.368
36.4132
36.4134
46.4556
46.2823
46.4108
36.4811
36.4794
36.5039
36.5034
46.2859
46.4093
37.1523
37.1751
37.1735
37.1996
37.1706
37.1672
37.1952
46.3359
46.4699
36.4034
36.4302
36.4294
46.4722
46.2992
46.4037
36.4904
36.4912
36.4993
36.5038
46.2976
46.4147
37.1602
37.1846
37.1663
37.1947
37.1825
37.1661
37.193
46.3583
46.4615
36.4165
36.4275
36.4291
46.4761
46.2881
46.4034
36.4851
36.4882
36.4949
36.4972
46.2981
46.4087
37.1524
37.1753
37.1618
37.1902
37.177
37.1608
37.1876
46.3453
46.4624
36.4136
36.4241
36.425
46.4754
46.2887
46.3995
36.4808
36.4829
36.4908
36.4948
46.2937
46.4055
37.1484
37.1737
37.1574
37.1862
37.1726
37.1554
37.1837
46.3467
46.4591
36.4099
36.4224
36.4211
46.471
46.2851
46.3972
36.4771
36.4806
36.4877
36.4899
46.2915
46.4027
37.1445
37.1708
37.1543
37.1829
37.1693
37.1515
37.1804
46.344
46.457
36.4064
36.4196
36.4179
46.4684
46.2829
46.3959
36.4745
36.4767
36.4848
36.4885
46.2874
46.4016
37.1421
37.1672
37.1518
37.1795
37.1666
37.1478
37.1778
46.342
46.4558
36.404
36.4186
36.4158
46.467
46.2816
46.395
36.472
36.475
36.4831
36.4848
46.2878
46.4005
37.1402
37.1644
37.1502
37.1763
37.1652
37.1532
37.1744
46.341
46.4546
36.4025
36.4162
36.413
46.4655
46.2811
46.3947
36.4709
36.4726
36.4814
36.4845
46.2859
46.4024
37.1397
37.1593
37.148
37.1712
37.1616
37.1537
37.1708
46.34
46.4542
36.3999
36.4147
36.4098
46.4654
46.2808
46.3943
36.4696
36.472
36.4798
36.4814
46.2891
46.4012
37.1371
37.1557
37.1447
37.1665
37.1578
37.1463
37.1655
46.3401
46.4527
36.3956
36.4067
36.405
46.4636
46.2806
46.3922
36.4681
36.4702
36.4756
36.4789
46.2867
46.4005
37.1326
37.1578
37.1391
37.1609
37.1578
37.1364
37.1604
46.3391
46.451
36.3914
36.3978
36.4002
46.4621
46.2789
46.3901
36.4618
36.465
36.4709
36.4726
46.2874
46.3935
37.1363
37.1596
37.1337
37.1568
37.1614
37.1206
37.1549
46.3379
46.449
36.3929
36.3868
36.3937
46.4609
46.2776
46.3901
36.4571
36.4595
36.4661
36.4684
46.2798
46.3918
37.1345
37.1565
37.1292
37.1484
37.156
37.1101
37.1447
46.3378
46.4476
36.3936
36.3749
36.3877
46.4589
46.2794
46.4023
36.4543
36.4555
36.4608
36.4626
46.2817
46.4025
37.1302
37.157
37.1207
37.1342
37.1536
37.1019
37.1317
46.3395
46.4583
36.3875
36.3627
36.3792
156.293
293.8
399.252
159.818
295.778
23.3909
23.3837
23.4074
23.4064
86.5985
36.9145
150.733
28.5514
400.607
83.4442
36.1691
27.6893
148.165
46.1767
200.556
198.908
156.298
293.83
156.164
293.789
399.39
399.277
159.824
295.844
159.548
295.769
23.383
23.4155
23.4127
23.4338
23.4238
23.4485
23.4458
86.6267
150.473
28.5805
36.966
86.3072
150.728
28.5875
400.786
400.63
83.4951
27.7128
148.022
36.2315
83.3481
27.7199
148.198
200.434
198.832
46.2227
200.522
198.89
156.373
293.845
156.206
293.813
399.416
399.283
159.88
295.856
159.557
295.793
23.4218
23.4609
23.4534
23.4756
23.4733
23.5067
23.4987
86.6567
150.472
28.6271
37.0271
86.3323
150.763
28.6352
400.817
400.666
83.556
27.7667
148.071
36.3186
83.4038
27.7784
148.243
200.43
198.831
46.2724
200.542
198.917
156.45
293.87
156.302
293.834
399.437
399.326
159.987
295.884
159.693
295.814
23.4654
23.5025
23.4971
23.4859
23.4875
23.5103
23.5113
86.8388
150.588
28.7075
37.1296
86.451
150.883
28.7065
400.844
400.684
83.7032
27.8426
148.158
36.3898
83.5159
27.8375
148.331
200.49
198.887
46.4092
200.6
198.967
156.478
293.881
156.336
293.84
399.454
399.309
160.005
295.892
159.72
295.819
23.4741
23.5017
23.5042
23.4853
23.4856
23.5077
23.5097
86.8769
150.637
28.7325
37.153
86.5863
150.897
28.7219
400.851
400.685
83.7534
27.8593
148.199
36.4082
83.6206
27.8505
148.373
200.52
198.919
46.4639
200.617
198.989
156.486
293.883
156.35
293.84
399.449
399.33
160.004
295.893
159.733
295.818
23.4714
23.5004
23.5024
23.4815
23.4837
23.5038
23.5063
86.9279
150.665
28.7356
37.1584
86.6081
150.912
28.7254
400.848
400.68
83.7824
27.8625
148.231
36.4147
83.6594
27.8518
148.386
200.529
198.928
46.4841
200.621
198.994
156.484
293.883
156.35
293.841
399.451
399.305
160.006
295.892
159.724
295.818
23.4695
23.4959
23.4976
23.4789
23.4819
23.5018
23.5045
86.8945
150.656
28.7302
37.1528
86.5932
150.908
28.7193
400.843
400.676
83.7781
27.8628
148.236
36.4114
83.6664
27.8523
148.389
200.527
198.928
46.4668
200.622
198.995
156.486
293.884
156.351
293.842
399.439
399.319
160.008
295.893
159.729
295.819
23.4678
23.4932
23.4959
23.4771
23.4802
23.5002
23.5024
86.9032
150.663
28.7262
37.1481
86.6056
150.909
28.7152
400.839
400.672
83.779
27.8615
148.238
36.4077
83.6644
27.8498
148.392
200.53
198.931
46.4633
200.625
198.997
156.491
293.885
156.356
293.843
399.44
399.293
160.013
295.895
159.733
295.821
23.4663
23.4925
23.494
23.4754
23.4785
23.4983
23.5009
86.9065
150.663
28.7261
37.1447
86.5978
150.916
28.715
400.834
400.666
83.777
27.8567
148.242
36.405
83.6622
27.8454
148.397
200.533
198.934
46.4622
200.628
199
156.496
293.887
156.36
293.846
399.431
399.312
160.018
295.897
159.738
295.823
23.4646
23.49
23.4936
23.4738
23.4772
23.4968
23.4993
86.9067
150.669
28.7248
37.1415
86.5972
150.918
28.7129
400.829
400.661
83.7798
27.8559
148.247
36.4031
83.6622
27.8447
148.402
200.536
198.937
46.4592
200.631
199.004
156.502
293.889
156.367
293.847
399.433
399.287
160.023
295.898
159.743
295.824
23.4634
23.4889
23.4917
23.4725
23.4765
23.4951
23.4973
86.9077
150.672
28.7236
37.1396
86.5983
150.925
28.7111
400.824
400.657
83.7808
27.8548
148.253
36.4022
83.6649
27.8425
148.408
200.539
198.94
46.4589
200.634
199.006
156.505
293.89
156.37
293.848
399.425
399.307
160.027
295.9
159.747
295.825
23.4628
23.4877
23.4896
23.4716
23.476
23.4936
23.4956
86.9096
150.679
28.7138
37.1424
86.6005
150.927
28.6947
400.821
400.654
83.7822
27.853
148.258
36.4014
83.667
27.8404
148.412
200.542
198.943
46.4571
200.637
199.009
156.511
293.891
156.376
293.849
399.428
399.282
160.031
295.9
159.752
295.825
23.4624
23.4856
23.4875
23.4707
23.475
23.4914
23.4937
86.9116
150.68
28.7147
37.1439
86.6019
150.932
28.7018
400.817
400.651
83.7861
27.8536
148.262
36.4017
83.667
27.841
148.416
200.544
198.944
46.4564
200.639
199.011
156.514
293.891
156.379
293.849
399.419
399.302
160.034
295.899
159.755
295.826
23.4612
23.4839
23.4858
23.4697
23.4737
23.4886
23.4915
86.9134
150.684
28.7112
37.1284
86.6042
150.932
28.6904
400.813
400.648
83.7895
27.8449
148.266
36.3871
83.6713
27.8254
148.419
200.544
198.946
46.455
200.642
199.013
156.517
293.89
156.382
293.849
399.421
399.279
160.037
295.898
159.758
295.827
23.4597
23.4804
23.4843
23.4686
23.4709
23.4855
23.4889
86.9149
150.685
28.705
37.1167
86.606
150.937
28.6827
400.807
400.648
83.7866
27.8415
148.269
36.3774
83.6732
27.8239
148.422
200.543
198.946
46.4539
200.647
199.017
156.52
293.887
156.385
293.853
399.409
399.304
160.04
295.895
159.76
295.832
23.4562
23.4774
23.4805
23.4681
23.4687
23.4826
23.4861
86.9163
150.689
28.7031
37.1021
86.6084
150.936
28.677
400.798
400.653
83.7919
27.8394
148.272
36.3666
83.6739
27.8182
148.425
200.535
198.941
46.4492
200.662
199.027
156.521
293.88
156.387
293.866
399.404
399.294
160.043
295.886
159.762
295.848
23.4538
23.4753
23.4785
23.4689
23.4664
23.4795
23.4889
86.9195
150.689
28.7048
37.094
86.6124
150.941
28.6717
400.781
400.672
83.795
27.8336
148.273
36.354
83.6776
27.8119
148.429
399.239
400.63
46.1086
198.741
200.708
399.245
399.344
400.64
400.794
45.999
198.727
200.689
198.647
200.579
156.312
293.82
83.3992
36.2614
148.132
27.6737
83.4166
36.2597
148.216
27.6742
156.157
293.789
293.831
156.295
156.174
293.807
293.853
156.312
83.2608
36.2675
148.136
27.6944
147.957
27.6806
83.4194
83.2784
36.2713
148.226
27.6886
148.044
27.6781
83.4355
46.1204
198.889
200.714
400.628
399.272
399.362
46.0102
198.872
200.612
198.823
200.559
400.599
400.783
86.571
36.9228
150.75
28.557
159.812
295.788
86.5487
36.9316
28.5736
150.712
159.535
295.771
295.847
159.828
86.2509
36.9298
150.752
28.5758
150.473
28.5621
86.582
159.53
295.78
295.856
159.818
86.2293
36.9431
28.5921
150.712
28.5788
150.434
86.5628
159.855
295.78
86.5745
36.9433
28.5701
150.681
159.848
295.788
86.2727
36.9341
150.74
28.5671
150.451
28.5596
86.5997
159.562
295.769
295.848
159.84
86.2508
36.9562
28.5856
150.675
28.5749
150.399
86.5746
159.556
295.777
295.855
159.834
46.1548
200.624
198.805
399.294
400.608
400.764
46.0488
200.657
198.841
200.585
198.743
399.314
399.416
83.4605
36.1862
27.6913
148.239
156.336
293.825
156.343
293.83
83.3033
36.1836
27.6993
148.185
27.6934
147.989
83.4639
83.3204
36.1981
27.705
148.244
27.695
148.063
83.4755
156.2
293.812
293.86
156.336
156.208
293.815
293.862
156.344
400.594
399.324
46.065
200.531
198.894
200.435
198.828
400.592
400.753
399.324
399.431
399.351
399.253
400.801
400.646
198.644
200.573
46.1552
198.727
200.687
399.273
399.362
400.666
400.81
46.0477
198.742
200.7
198.638
200.565
156.316
293.842
156.174
293.801
83.4411
147.961
27.7027
36.3082
83.2825
148.137
27.7189
83.4588
148.052
27.6958
36.3056
83.3004
148.227
27.7112
156.166
293.8
293.826
156.326
156.18
293.808
293.838
156.329
83.3034
36.3311
148.159
27.7448
147.965
27.7351
83.4666
83.3221
36.3319
148.232
27.7371
148.053
27.7313
83.4812
198.786
200.491
46.1688
198.861
200.572
400.757
400.596
399.291
399.389
46.0627
198.855
200.563
198.77
200.459
400.61
400.759
86.6013
150.475
28.5829
36.9724
86.265
150.748
28.597
159.817
295.847
159.531
295.779
86.581
28.5996
150.435
36.9913
86.2472
28.614
150.711
159.536
295.779
295.838
159.83
86.2821
36.9928
150.761
28.6232
150.472
28.6159
86.6089
159.53
295.789
295.848
159.82
86.262
37.0136
28.6403
150.724
28.6337
150.435
86.5901
159.842
295.836
159.553
295.76
86.5931
28.5925
150.398
36.9897
86.2568
28.6052
150.672
159.834
295.844
159.548
295.769
86.304
36.991
150.736
28.6151
150.448
28.6082
86.6273
159.555
295.765
295.83
159.837
86.2741
37.0152
28.6334
150.674
28.6271
150.395
86.5977
159.547
295.773
295.838
159.83
200.542
198.759
46.2074
200.624
198.783
399.412
399.297
400.638
400.785
46.1037
200.678
198.848
200.581
198.729
399.332
399.423
83.498
27.7119
148.068
36.2302
83.3382
27.7264
148.243
156.343
293.847
156.201
293.807
156.348
293.85
156.211
293.808
83.3558
36.2575
27.7497
148.233
27.7414
148.027
83.5189
83.3604
36.2552
27.7519
148.252
27.7465
148.068
83.518
156.208
293.815
293.847
156.348
156.214
293.815
293.846
156.352
400.753
400.596
399.432
399.328
46.1125
200.521
198.892
200.41
198.814
400.608
400.759
399.341
399.438
399.381
399.286
400.829
400.679
198.669
200.594
46.2312
198.776
200.735
399.301
399.395
400.695
400.843
46.1325
198.799
200.762
198.693
200.621
156.366
293.848
156.198
293.817
83.517
147.993
27.7615
36.3882
83.3332
148.207
27.7763
83.519
148.06
27.7488
36.3718
83.3474
148.257
27.7627
156.249
293.826
293.852
156.422
156.239
293.831
293.858
156.413
83.3884
36.4357
148.262
27.8206
148.046
27.8076
83.5876
83.3892
36.4138
148.316
27.8123
148.098
27.7939
83.5824
198.798
200.482
46.223
198.903
200.7
400.77
400.657
399.318
399.398
46.1204
198.923
200.663
198.844
200.567
400.646
400.818
86.6577
150.493
28.636
37.0486
86.2929
150.814
28.6515
159.873
295.861
159.541
295.805
86.6375
28.6528
150.456
37.0709
86.2754
28.6685
150.78
159.613
295.808
295.865
159.96
86.3573
37.0965
150.887
28.7088
150.557
28.6845
86.7637
159.607
295.818
295.876
159.949
86.3371
37.1215
28.7259
150.852
28.7022
150.522
86.7439
159.864
295.837
159.552
295.779
86.6211
28.6404
150.398
37.0497
86.2784
28.653
150.694
159.856
295.845
159.547
295.784
86.3431
37.0597
150.839
28.6835
150.5
28.6565
86.7222
159.591
295.794
295.853
159.924
86.3112
37.0848
28.7047
150.76
28.6775
150.43
86.6913
159.583
295.799
295.857
159.916
200.573
198.774
46.2909
200.679
198.818
399.433
399.322
400.667
400.821
46.196
200.742
198.899
200.646
198.771
399.356
399.448
83.547
27.763
148.08
36.2944
83.3809
27.7771
148.281
156.379
293.855
156.216
293.824
156.381
293.854
156.222
293.826
83.4211
36.3586
27.8296
148.312
27.8084
148.075
83.6162
83.4147
36.3339
27.8279
148.337
27.8087
148.118
83.608
156.254
293.838
293.866
156.427
156.257
293.839
293.866
156.428
400.772
400.621
399.451
399.354
46.1674
200.577
198.942
200.439
198.845
400.638
400.786
399.368
399.465
399.408