/*--------------------------------*- C++ -*----------------------------------*\
| =========                 |                                                 |
| \\      /  F ield         | OpenFOAM: The Open Source CFD Toolbox           |
|  \\    /   O peration     | Version:  2206                                  |
|   \\  /    A nd           | Website:  www.openfoam.com                      |
|    \\/     M anipulation  |                                                 |
\*---------------------------------------------------------------------------*/
FoamFile
{
    version     2.0;
    format      ascii;
    arch        "LSB;label=32;scalar=64";
    class       surfaceScalarField;
    location    "1";
    object      phi;
}
// * * * * * * * * * * * * * * * * * * * * * * * * * * * * * * * * * * * * * //

dimensions      [0 3 -1 0 0 0 0];

oriented        oriented;

internalField   nonuniform List<scalar> 
198714
(
-8.52159e-13
6.04079e-13
-3.93823e-13
5.78303e-13
-1.23887e-07
1.23887e-07
-2.34079e-11
-9.19301e-13
-6.98204e-13
4.32951e-11
2.4008e-11
-3.85617e-11
-7.48748e-11
7.11379e-11
-7.37131e-11
7.54363e-11
1.13471e-07
-2.82465e-11
5.45598e-13
1.47439e-13
3.00233e-11
2.83626e-11
-3.04363e-11
-1.55762e-11
4.0075e-11
-4.0483e-11
1.57587e-11
-1.147e-07
1.14699e-07
1.33517e-11
2.8754e-11
6.25705e-11
4.55395e-11
2.70819e-08
1.98758e-11
2.32135e-11
5.42274e-11
5.31986e-11
2.70717e-08
-2.72222e-08
2.66178e-13
2.54787e-11
2.01938e-11
-2.60599e-11
9.1223e-12
3.85276e-11
-3.91981e-11
-9.23565e-12
-1.15773e-07
1.15773e-07
-1.99422e-11
9.51542e-13
4.47542e-13
2.60592e-11
2.01505e-11
-3.06921e-11
9.12042e-12
3.83164e-11
-3.64408e-11
-9.27291e-12
1.15814e-07
5.37992e-11
5.36495e-11
2.70733e-08
-4.68469e-13
4.31253e-11
2.38132e-11
-4.29162e-11
-7.49189e-11
7.08228e-11
-7.10373e-11
7.54008e-11
-1.13483e-07
1.13483e-07
-1.34482e-11
-9.53012e-14
-2.93935e-13
3.99559e-11
1.39222e-11
-3.98415e-11
-5.43829e-11
6.972e-11
-7.01606e-11
5.44954e-11
-1.1453e-07
1.14531e-07
-1.65351e-13
-3.54786e-13
3.98214e-11
1.40433e-11
-3.96626e-11
-5.47083e-11
7.02949e-11
-7.07074e-11
5.48191e-11
1.14524e-07
6.15654e-11
4.61083e-11
2.70768e-08
-2.72262e-08
4.20602e-13
5.92644e-14
2.99246e-11
2.8939e-11
-3.04625e-11
-1.523e-11
3.98956e-11
-4.03266e-11
1.54743e-11
1.14742e-07
1.18415e-12
-7.53483e-12
1.34881e-08
-1.62476e-12
-8.53141e-13
-1.34792e-08
5.64424e-15
-2.0916e-11
2.01597e-08
6.71297e-12
1.98861e-12
-2.01475e-08
-1.07989e-12
-3.53512e-12
6.73438e-09
-1.03604e-12
2.35745e-12
-1.49836e-11
1.31786e-08
-3.08331e-12
-6.20789e-13
-1.31622e-08
-5.36259e-11
3.20254e-14
1.95293e-08
4.3704e-12
1.69447e-11
-1.94971e-08
-4.15801e-13
4.95288e-13
1.2389e-07
5.21323e-13
-2.20778e-13
-1.24199e-07
1.24199e-07
2.88928e-13
-2.40307e-13
1.24223e-07
1.22682e-11
1.48068e-11
-3.58755e-11
2.05175e-08
-1.75457e-11
3.84953e-13
-1.08564e-12
-1.1511e-10
1.50195e-10
-1.49631e-10
1.15205e-10
1.18841e-07
5.36166e-11
1.45466e-13
2.36599e-08
1.07284e-11
-1.05382e-10
-2.47437e-12
-5.83097e-12
6.59795e-09
-6.04474e-13
-6.58904e-09
3.64991e-13
1.61898e-12
-1.55835e-11
1.18157e-11
-1.20313e-11
1.50667e-11
1.18616e-07
7.004e-12
7.57962e-12
-1.65602e-11
2.08892e-08
-9.81488e-12
1.45458e-13
2.07342e-11
2.43065e-08
-3.30868e-11
4.93763e-12
-1.22885e-11
5.87949e-12
-2.47483e-11
2.11154e-08
4.80179e-12
-7.22373e-12
3.99087e-12
-1.71872e-11
2.1246e-08
2.69191e-12
-3.93548e-12
6.73599e-09
-8.75163e-13
-6.72999e-09
-5.94596e-12
6.59921e-09
-5.6601e-13
-6.59034e-09
-7.43938e-12
-1.74023e-11
2.14143e-08
2.74877e-12
-2.13961e-08
-1.20751e-11
-2.46708e-11
2.09513e-08
4.90138e-12
-2.09254e-08
-7.49085e-12
1.34879e-08
-1.42409e-12
-8.72555e-13
-2.09254e-11
2.01627e-08
6.91933e-12
1.99302e-12
-1.62959e-11
2.08805e-08
-9.85931e-12
-2.08693e-08
3.16204e-13
1.2328e-12
8.028e-12
1.08388e-11
-1.11377e-11
-8.20288e-12
-1.21204e-07
1.21203e-07
1.26304e-13
2.43061e-08
4.96929e-12
-3.29734e-11
-2.42991e-08
7.26527e-12
-1.62378e-11
2.08713e-08
-9.60624e-12
1.09701e-12
8.05597e-12
1.08608e-11
-1.11079e-11
-8.19655e-12
1.21223e-07
2.43092e-08
4.88464e-12
-3.26966e-11
-1.74251e-11
2.12952e-08
2.86449e-12
5.92107e-12
-2.4921e-11
2.10685e-08
4.65611e-12
-2.30059e-12
6.60019e-09
-4.91522e-13
-3.56013e-11
2.05048e-08
-1.73043e-11
-2.0479e-08
5.16665e-13
-8.54834e-13
-1.15139e-10
1.50491e-10
-1.49652e-10
1.15484e-10
-1.18836e-07
1.18835e-07
1.78991e-13
2.36584e-08
1.06695e-11
-1.05382e-10
-2.36175e-08
-1.49165e-11
1.31741e-08
-3.22871e-12
-6.42974e-13
-1.31578e-08
-5.36407e-11
1.95259e-08
1.69556e-11
4.39866e-12
-1.94936e-08
-9.1576e-13
-9.67126e-11
1.49722e-10
-1.4927e-10
9.71705e-11
-1.20074e-07
1.20074e-07
1.22972e-11
-3.55523e-11
2.04908e-08
-1.73228e-11
-2.04652e-08
2.36551e-08
-1.05392e-10
1.06272e-11
-2.36138e-08
1.31801e-08
-3.07466e-12
-6.20263e-13
1.21858e-14
1.95303e-08
4.42014e-12
1.69309e-11
-1.08722e-12
-9.67119e-11
1.49727e-10
-1.49267e-10
9.71757e-11
1.20076e-07
1.49254e-11
-3.56119e-11
2.05036e-08
-1.72742e-11
5.36252e-11
2.36563e-08
-1.0538e-10
1.06064e-11
2.38765e-12
1.31762e-08
-3.16343e-12
-6.35895e-13
1.95266e-08
1.69363e-11
4.38551e-12
-2.46606e-11
2.0997e-08
4.88725e-12
-2.09707e-08
3.90195e-12
-1.78279e-11
2.13651e-08
2.91248e-12
-9.83179e-13
6.73677e-09
-7.9693e-13
1.48652e-12
-1.55817e-11
1.18252e-11
-1.23854e-11
1.47634e-11
1.1863e-07
7.76235e-12
-1.62839e-11
2.08802e-08
-9.83827e-12
2.07404e-11
2.43094e-08
-3.30768e-11
4.87775e-12
1.34895e-08
-1.46819e-12
-8.512e-13
2.78411e-14
2.01608e-08
1.93874e-12
6.6075e-12
1.02683e-12
1.34903e-08
-1.52964e-12
-8.48579e-13
2.01643e-08
1.93504e-12
6.41971e-12
6.59936e-09
-5.98383e-13
6.7359e-09
-8.69941e-13
1.29547e-12
-5.60039e-09
9.36826e-13
1.18839e-12
5.59697e-09
1.79499e-12
-1.43777e-12
7.59597e-12
8.2198e-13
1.34793e-08
2.06618e-08
1.41606e-12
-3.23943e-12
-1.27486e-11
-2.06488e-08
3.31193e-12
1.26785e-11
2.06489e-08
-8.98612e-13
-1.14644e-12
-5.59693e-09
5.42937e-13
5.38632e-12
-1.01355e-08
4.69405e-13
1.013e-08
-6.65461e-12
-2.03239e-12
-1.12049e-14
2.08873e-11
2.01475e-08
1.2336e-08
5.00952e-13
5.7353e-15
-4.26449e-13
-1.23294e-08
1.90996e-08
5.4761e-12
-1.80965e-11
-1.90882e-08
5.5039e-15
4.5373e-13
1.23294e-08
1.80014e-11
1.90883e-08
-4.36521e-13
-1.013e-08
1.36415e-12
3.57136e-12
7.88952e-13
6.72865e-09
-1.39055e-11
-9.5432e-13
1.79835e-12
-9.81557e-09
-1.58602e-13
9.82879e-09
4.3523e-12
1.69346e-11
-1.9497e-08
2.95011e-14
1.95293e-08
-5.36168e-11
6.57767e-12
-1.85031e-08
1.85316e-08
-4.4601e-11
-1.19373e-08
4.24786e-14
-1.06669e-13
1.19534e-08
4.89263e-12
-5.42295e-09
5.41553e-09
1.90797e-12
6.27697e-13
3.0509e-12
1.31622e-08
-2.35116e-12
1.49765e-11
6.56459e-13
2.01042e-08
5.04246e-12
-6.60731e-12
-2.90725e-11
-2.00767e-08
2.00767e-08
6.57445e-12
2.89034e-11
-1.80556e-12
-5.94563e-13
-5.41551e-09
-5.03404e-12
-6.09462e-13
5.42297e-09
-3.07407e-12
2.34903e-12
-6.28454e-13
1.31786e-08
-1.49793e-11
2.01042e-08
-2.90729e-11
1.39335e-11
1.05929e-12
-9.82878e-09
1.22583e-13
-4.33736e-12
-1.69835e-11
2.36695e-14
5.36143e-11
1.85316e-08
1.39093e-11
-4.45937e-11
-1.85031e-08
1.19534e-08
9.64474e-13
3.57023e-14
-9.58952e-14
-1.19373e-08
4.46399e-11
3.85808e-14
7.784e-14
-1.49712e-13
-9.81556e-09
6.58912e-09
2.30546e-12
5.87396e-12
6.43284e-13
-2.50639e-12
-6.92055e-13
6.59797e-09
-5.64566e-12
2.15332e-11
-1.28928e-11
-1.92812e-08
-1.37929e-11
2.78069e-11
1.92585e-08
2.28913e-08
2.21259e-11
-4.96385e-11
-3.27511e-11
2.47879e-11
-4.48273e-12
-5.878e-12
1.19034e-11
2.1089e-08
1.27048e-08
-1.28593e-11
3.21401e-12
-2.80721e-13
4.9657e-11
3.22281e-11
2.28557e-08
-2.9972e-12
3.35749e-13
1.26901e-08
1.42115e-11
-2.76378e-11
1.8288e-11
-1.01932e-11
-1.84675e-08
-1.37598e-11
2.2142e-11
1.8451e-08
2.23397e-08
1.79953e-11
-3.54575e-11
-2.34829e-11
1.69441e-11
-3.20776e-12
-3.6471e-12
7.6019e-12
2.12284e-08
1.26178e-08
-1.049e-11
2.43609e-12
-3.6231e-13
3.49882e-11
2.40462e-11
2.23159e-08
-2.69754e-12
3.8436e-13
1.26067e-08
1.35546e-11
-2.25657e-11
-3.8245e-12
-3.44409e-12
-1.5007e-08
1.49867e-08
5.46309e-09
-3.6981e-12
-3.87204e-13
5.4984e-09
-3.76746e-12
-4.7486e-13
4.78052e-13
5.45579e-09
5.35953e-13
5.49173e-09
3.65144e-12
8.62083e-13
6.73004e-09
6.59036e-09
5.82498e-12
6.77176e-13
-5.78887e-13
6.59923e-09
-5.94017e-12
-1.03891e-11
1.8213e-11
-1.93714e-08
-1.32441e-11
2.52689e-11
1.93516e-08
2.31189e-08
1.78304e-11
-3.84169e-11
-2.26012e-11
-2.30931e-08
-3.30456e-12
1.72469e-11
7.8217e-12
2.13962e-08
1.28309e-08
-1.06787e-11
2.26282e-12
-3.76769e-13
-1.28194e-08
-2.5772e-12
3.79308e-13
1.28194e-08
3.80397e-11
2.32271e-11
2.30931e-08
1.29797e-11
-2.57005e-11
-1.93516e-08
-1.28143e-11
2.18697e-11
-1.83829e-08
-1.40731e-11
2.41488e-11
1.83637e-08
2.21299e-08
2.25622e-11
-4.5335e-11
-3.27918e-11
-2.2099e-08
-4.542e-12
2.45923e-11
1.16829e-11
2.09254e-08
1.24948e-08
-1.28188e-11
3.25827e-12
-2.565e-13
-1.248e-08
-2.98617e-12
3.34304e-13
1.24801e-08
4.52008e-11
3.21899e-11
2.2099e-08
1.45758e-11
-2.39701e-11
-1.83637e-08
-3.30643e-12
-3.96479e-12
-1.50083e-08
1.49882e-08
5.49479e-09
-3.67785e-12
-4.89476e-13
-5.48836e-09
5.46637e-09
-3.80915e-12
-3.65929e-13
-5.45894e-09
5.33232e-13
5.48837e-09
4.7409e-13
5.45895e-09
-1.49882e-08
1.28328e-12
-5.60304e-09
9.42132e-13
1.19918e-12
5.59961e-09
1.56744e-12
7.64615e-12
8.11433e-13
1.34792e-08
2.06686e-08
1.39737e-12
-3.29712e-12
-1.299e-11
3.37224e-12
1.28913e-11
2.06552e-08
-9.25195e-13
-1.1448e-12
5.35817e-13
5.56216e-12
-1.01403e-08
4.7392e-13
1.01346e-08
-6.83245e-12
-2.05991e-12
2.08803e-11
2.01507e-08
1.23386e-08
5.22263e-13
-4.22153e-13
1.91063e-08
5.66082e-12
-1.81069e-11
4.58413e-13
1.23318e-08
1.79962e-11
1.90952e-08
-4.33198e-13
1.34222e-11
5.93008e-11
-1.84969e-08
-1.0952e-10
-1.00408e-10
1.86341e-08
2.2706e-08
1.51996e-11
-3.92315e-11
-2.28653e-11
-1.06868e-11
1.24803e-11
7.7252e-12
2.12893e-08
1.26087e-08
-1.2298e-11
6.50802e-13
-4.18725e-13
-2.22124e-11
1.23782e-13
1.26336e-08
4.8493e-12
2.68477e-11
2.27461e-08
7.09075e-13
-3.95907e-11
-1.9129e-11
-3.5941e-11
-1.92658e-08
8.9099e-11
1.41424e-10
1.90903e-08
2.25399e-08
2.47734e-11
-4.45031e-11
-3.34484e-11
2.93304e-11
3.31424e-12
-5.5998e-12
1.17821e-11
2.10297e-08
1.27131e-08
-1.17634e-11
4.90785e-12
-2.77569e-13
7.85272e-11
2.91206e-11
2.24424e-08
1.7016e-11
7.05336e-13
1.26628e-08
2.81834e-11
-1.196e-11
1.6413e-11
-2.29189e-11
-1.50118e-08
1.49979e-08
5.49736e-09
-5.53873e-12
-3.79144e-13
5.46346e-09
-2.21388e-12
-3.5688e-13
3.72179e-13
5.49119e-09
7.37906e-13
5.45682e-09
2.27215e-12
7.32046e-13
6.59158e-09
-1.0411e-12
-1.39395e-11
1.90124e-12
-9.80987e-09
-1.35136e-13
9.82308e-09
1.69416e-11
4.40434e-12
-1.94936e-08
1.95259e-08
-5.36315e-11
-1.19341e-08
-1.01805e-13
1.19502e-08
6.72441e-12
-1.84943e-08
1.85228e-08
-4.47068e-11
4.96442e-12
-5.41953e-09
5.41211e-09
1.81699e-12
6.35984e-13
2.93508e-12
1.31579e-08
1.50315e-11
6.34665e-13
2.00933e-08
4.95064e-12
-6.71356e-12
-2.89918e-11
-2.00658e-08
2.00658e-08
6.48118e-12
2.89191e-11
-1.89488e-12
-5.93826e-13
-5.41209e-09
-4.93702e-12
-5.98494e-13
5.41955e-09
-3.25537e-12
-6.50867e-13
1.31741e-08
-1.48894e-11
2.00934e-08
-2.90042e-11
9.81067e-13
1.38833e-11
-9.82306e-09
1.44615e-13
-1.69722e-11
-4.2875e-12
5.3607e-11
1.19502e-08
1.03776e-12
-9.05025e-14
-1.19341e-08
1.85228e-08
1.39471e-11
-4.4704e-11
-1.84943e-08
8.11511e-14
4.45048e-11
-1.25337e-13
-9.80984e-09
4.72511e-12
-5.42298e-09
1.86397e-12
6.40232e-13
5.41575e-09
3.00051e-12
1.4788e-11
6.6144e-13
1.31639e-08
2.01053e-08
4.84039e-12
-6.57218e-12
-2.88414e-11
6.52285e-12
2.86939e-11
2.00778e-08
-1.77603e-12
-6.19361e-13
1.37562e-11
1.04913e-12
-9.82875e-09
1.28607e-13
9.81568e-09
-4.32417e-12
-1.6984e-11
1.09492e-14
5.36223e-11
1.9498e-08
1.85324e-08
1.37046e-11
-4.43438e-11
1.19533e-08
9.80467e-13
1.84294e-14
-1.04579e-13
4.44056e-11
1.8504e-08
2.50177e-14
8.11929e-14
1.19373e-08
-1.60706e-13
4.95596e-12
-5.41981e-09
1.83227e-12
6.362e-13
5.41238e-09
2.95261e-12
-2.31541e-12
1.50418e-11
6.45347e-13
1.31599e-08
2.00955e-08
4.95556e-12
-6.68232e-12
-2.89886e-11
6.49632e-12
2.89406e-11
2.00679e-08
-1.87026e-12
-6.06823e-13
9.96939e-13
1.38952e-11
-9.82339e-09
1.43237e-13
9.81019e-09
-1.69805e-11
-4.29524e-12
5.36228e-11
1.94943e-08
1.19505e-08
1.01518e-12
-1.00862e-13
1.85237e-08
1.39234e-11
-4.46755e-11
8.22082e-14
1.19344e-08
4.45254e-11
1.84952e-08
-1.37618e-13
-1.24747e-11
2.17914e-11
-1.83836e-08
-1.44043e-11
2.36092e-11
1.83651e-08
2.24789e-08
2.21416e-11
-4.73622e-11
-3.26785e-11
-2.24457e-08
-4.63844e-12
2.46662e-11
1.19689e-11
2.09708e-08
1.24819e-08
-1.28585e-11
3.22446e-12
-2.32002e-13
-1.24671e-08
-2.93016e-12
3.10728e-13
1.24674e-08
4.76535e-11
3.23412e-11
2.24454e-08
1.49914e-11
-2.33513e-11
-1.83659e-08
1.81867e-11
-1.10519e-11
-1.93793e-08
-1.27985e-11
2.60816e-11
1.93588e-08
2.27596e-08
1.80097e-11
-3.71741e-11
-2.32811e-11
-2.2735e-08
1.76096e-11
-3.33818e-12
-3.43491e-12
7.34719e-12
2.13469e-08
1.28437e-08
-1.09149e-11
2.31347e-12
-3.95348e-13
3.66099e-11
2.36111e-11
2.27352e-08
-2.58857e-12
4.00542e-13
1.28315e-08
1.246e-11
-2.66761e-11
-1.9358e-08
-3.55672e-12
-3.64881e-12
-1.50115e-08
1.49915e-08
5.46526e-09
-3.87172e-12
-4.41331e-13
-5.45772e-09
5.49604e-09
-3.65799e-12
-3.87199e-13
4.92824e-13
5.45828e-09
5.92387e-13
5.48921e-09
-1.49916e-08
1.36278e-12
9.18359e-13
6.73105e-09
1.25823e-12
-5.6009e-09
1.03152e-12
1.15429e-12
5.59746e-09
1.88397e-12
7.59452e-12
8.21326e-13
1.34806e-08
2.06632e-08
1.47056e-12
-3.11777e-12
-1.3024e-11
3.45604e-12
1.29301e-11
2.06499e-08
-8.03684e-13
-1.17286e-12
5.67306e-12
5.96207e-13
-1.01366e-08
4.31032e-13
1.0131e-08
-2.10219e-12
-6.7473e-12
1.05543e-14
2.10673e-11
2.01486e-08
1.91002e-08
5.54704e-12
-1.78829e-11
1.23374e-08
4.58646e-13
1.80291e-14
-4.69556e-13
1.82237e-11
1.9089e-08
1.31431e-14
4.29998e-13
1.23308e-08
-4.85599e-13
1.43079e-12
-5.60378e-09
1.03426e-12
1.17389e-12
5.60014e-09
1.85148e-12
-1.33475e-12
7.733e-12
8.37499e-13
1.34812e-08
2.06703e-08
1.64252e-12
-3.15477e-12
-1.30372e-11
3.44784e-12
1.28726e-11
2.06573e-08
-8.58088e-13
-1.15717e-12
5.6671e-12
5.60819e-13
-1.01415e-08
4.339e-13
1.01359e-08
-2.07138e-12
-6.55986e-12
2.10722e-11
2.01518e-08
1.91077e-08
5.5517e-12
-1.79086e-11
1.234e-08
4.67026e-13
-4.68562e-13
1.82113e-11
1.90965e-08
4.29879e-13
1.23335e-08
-4.80329e-13
6.57975e-13
6.5905e-09
8.83005e-13
6.73004e-09
7.83905e-13
-3.21757e-14
-1.32442e-07
1.32442e-07
-5.467e-13
8.58413e-14
-1.29432e-07
1.29432e-07
-6.87115e-14
-2.1732e-13
-1.4402e-07
1.44021e-07
3.02774e-11
3.26728e-11
-2.23078e-08
2.22948e-08
2.53949e-08
3.07363e-11
2.43716e-08
3.24301e-11
-6.23667e-11
-4.48414e-11
2.72321e-08
2.53728e-08
2.43639e-08
2.85556e-11
3.46233e-11
-2.22993e-08
2.22856e-08
2.55049e-08
2.82595e-11
-2.54918e-08
2.4262e-08
3.51452e-11
-2.42461e-08
-5.36397e-11
-5.28213e-11
2.72222e-08
2.54917e-08
2.4246e-08
-2.22856e-08
-1.02361e-11
7.3304e-11
-2.23057e-08
2.22837e-08
2.54557e-08
2.63707e-11
2.43128e-08
3.64765e-11
-5.9083e-11
-4.78048e-11
2.72244e-08
2.42834e-08
2.54553e-08
3.03952e-11
3.21034e-11
-2.22915e-08
2.22787e-08
2.53326e-08
3.28258e-11
-2.53113e-08
2.44111e-08
3.00818e-11
-2.44022e-08
-4.54996e-11
-6.15032e-11
2.72261e-08
2.44022e-08
2.5311e-08
-2.22786e-08
6.8065e-13
1.32447e-07
-6.03999e-13
5.64496e-14
1.29442e-07
-1.76547e-13
1.44026e-07
-6.33211e-13
-1.33479e-07
1.33479e-07
1.31754e-12
2.09048e-14
-1.27413e-07
1.27413e-07
-5.28176e-14
-1.44173e-07
1.44173e-07
-6.28357e-13
1.3349e-07
1.07928e-12
1.27417e-07
1.44177e-07
-3.69658e-11
-5.85469e-11
-2.54646e-08
-2.46613e-11
2.55099e-08
2.41737e-08
-3.78265e-11
3.6138e-11
1.68489e-11
2.0491e-08
2.24326e-08
-5.89162e-11
-1.48835e-11
2.41283e-08
1.44803e-11
2.24052e-08
2.40167e-11
-8.37352e-11
1.8185e-11
-2.56589e-08
2.55847e-08
-1.02665e-11
1.0512e-10
-3.74222e-14
2.36187e-08
2.28728e-08
-8.36336e-11
2.66449e-08
1.87765e-11
7.14383e-12
2.28377e-08
-6.83457e-12
2.66254e-08
-2.21084e-11
-2.14672e-11
-2.58828e-08
-5.24475e-11
2.59633e-08
2.45025e-08
-2.17424e-11
-2.44805e-08
1.68568e-11
9.98959e-12
2.08773e-08
2.29341e-08
-2.16826e-11
-6.03189e-12
2.44804e-08
6.30942e-12
2.29292e-08
5.28381e-11
-2.59633e-08
5.59907e-12
-2.72091e-11
-2.61033e-08
2.60569e-08
3.35053e-11
-4.90464e-12
1.52183e-15
2.4299e-08
2.72156e-08
5.74153e-12
4.30938e-13
2.34262e-08
-2.6616e-11
-1.21895e-13
2.72428e-08
2.34187e-08
-2.02595e-11
-2.52025e-11
-2.58617e-08
8.33931e-12
2.5908e-08
2.45149e-08
-2.48141e-11
-2.44905e-08
9.91962e-12
1.6672e-11
2.08693e-08
2.29325e-08
-2.03458e-11
-9.1466e-12
-2.29256e-08
9.20645e-12
2.29256e-08
2.44904e-08
-8.1819e-12
-2.59079e-08
-2.53374e-11
9.1844e-12
-2.61118e-08
2.61443e-08
-4.87541e-12
3.27507e-11
-3.69419e-14
2.42991e-08
2.34264e-08
-2.565e-11
-2.3423e-08
2.72161e-08
9.39228e-12
4.94388e-13
-2.72482e-08
2.34234e-08
-2.49614e-13
2.72472e-08
-2.61445e-08
-2.0234e-11
-2.54483e-11
-2.58636e-08
8.5802e-12
2.59099e-08
2.44633e-08
-2.4782e-11
9.80418e-12
1.66505e-11
2.08603e-08
2.29366e-08
-2.03501e-11
-9.10335e-12
9.2835e-12
2.29298e-08
2.44449e-08
-8.24867e-12
-2.56185e-11
9.4355e-12
-2.61168e-08
2.61496e-08
-4.97251e-12
3.27355e-11
2.43023e-08
2.34324e-08
-2.56615e-11
2.72196e-08
9.29302e-12
2.34291e-08
2.72504e-08
-5.85261e-11
-3.66611e-11
-2.54597e-08
-2.48827e-11
2.55048e-08
2.41193e-08
-3.72262e-11
-2.40797e-08
1.67368e-11
3.57998e-11
2.0479e-08
2.24294e-08
-5.89296e-11
-1.48732e-11
-2.2402e-08
1.45297e-11
2.2402e-08
2.40796e-08
2.43744e-11
-2.55048e-08
-8.40084e-11
1.81183e-11
-2.56575e-08
2.55834e-08
-1.02617e-11
1.05115e-10
-2.9537e-14
2.36172e-08
2.28709e-08
-8.3925e-11
-2.28357e-08
2.66443e-08
1.86808e-11
7.2641e-12
-2.66251e-08
2.28358e-08
-6.89568e-12
2.66248e-08
-2.55829e-08
-5.7732e-11
-3.97267e-11
-2.54295e-08
2.90682e-11
2.54436e-08
2.41228e-08
-4.02098e-11
-2.40811e-08
1.67236e-11
3.58927e-11
2.04652e-08
2.24181e-08
-5.79091e-11
-1.77148e-11
-2.23888e-08
1.72447e-11
2.23888e-08
2.40811e-08
-2.95718e-11
-2.54436e-08
2.13591e-11
-8.29061e-11
-2.56533e-08
2.56472e-08
1.0513e-10
-1.03187e-11
2.36138e-08
2.6639e-08
2.17593e-11
-2.66092e-08
2.28616e-08
-8.32505e-11
-2.28301e-08
2.66093e-08
2.28301e-08
-2.56472e-08
-3.96454e-11
-5.74916e-11
-2.54343e-08
2.90392e-11
2.54477e-08
2.41773e-08
-4.04546e-11
3.59608e-11
1.66901e-11
2.04779e-08
2.24212e-08
-5.76276e-11
-1.76917e-11
2.41352e-08
1.72233e-11
2.23921e-08
-2.95873e-11
2.13751e-11
-8.26539e-11
-2.56543e-08
2.56479e-08
1.05145e-10
-1.03368e-11
2.36151e-08
2.66398e-08
2.17332e-11
2.2863e-08
-8.29392e-11
2.66102e-08
2.28318e-08
-2.19214e-11
-2.13846e-11
-2.58854e-08
-5.25394e-11
2.5966e-08
2.4451e-08
-2.15232e-11
1.64941e-11
1.00096e-11
2.0869e-08
2.29383e-08
-2.1738e-11
-5.95926e-12
2.44292e-08
6.34643e-12
2.29335e-08
5.28119e-11
5.70004e-12
-2.72165e-11
-2.61081e-08
2.60615e-08
3.35157e-11
-4.94187e-12
2.43019e-08
2.7219e-08
5.64464e-12
2.34317e-08
-2.65978e-11
2.72457e-08
2.34241e-08
-4.06808e-13
-6.01194e-14
2.31734e-09
-4.21777e-14
-2.31768e-09
-1.85193e-13
-4.63612e-14
1.25002e-09
-1.52903e-14
-1.25018e-09
-7.21898e-14
-2.78367e-14
6.15535e-10
-5.69993e-15
-6.15614e-10
-1.76573e-14
-1.34743e-14
2.55049e-10
-2.14402e-15
-2.55088e-10
-3.81172e-15
6.0655e-11
-6.19546e-16
-6.06683e-11
-5.09462e-13
3.86828e-14
4.31079e-09
-1.20679e-13
-2.27507e-13
3.30421e-14
2.31209e-09
-7.49302e-14
-8.7011e-14
2.0701e-14
1.13376e-09
-4.17692e-14
-2.07824e-14
1.03495e-14
4.68321e-10
-1.93628e-14
3.0138e-15
1.1115e-10
-5.13517e-15
-2.98782e-13
1.25029e-14
2.31635e-09
-8.84412e-14
-2.3166e-09
-1.36577e-13
-5.13564e-15
1.24952e-09
-4.07576e-14
-1.24964e-09
-5.3532e-14
-6.94448e-15
6.15294e-10
-1.91394e-14
-6.15351e-10
-1.31757e-14
-4.34695e-15
2.54927e-10
-8.25625e-15
-2.54954e-10
-1.51531e-15
6.06193e-11
-2.25209e-15
-6.06287e-11
-3.1439e-13
-4.6296e-14
4.30858e-09
1.16362e-14
-4.30884e-09
-1.45607e-13
-1.74295e-14
2.31095e-09
-2.26058e-15
-2.3111e-09
-5.75486e-14
-7.10779e-15
1.13325e-09
-3.72265e-15
-1.13333e-09
-1.41031e-14
-2.48219e-15
4.68144e-10
-2.32097e-15
-4.68183e-10
-3.65754e-16
1.11117e-10
-7.32243e-16
-1.1113e-10
-4.20185e-13
4.31169e-09
-1.21628e-13
-4.31208e-09
-1.85098e-13
2.3126e-09
-7.20688e-14
-2.31281e-09
-7.12096e-14
1.13397e-09
-3.90146e-14
-1.13407e-09
-1.74177e-14
4.68413e-10
-1.75372e-14
-4.68463e-10
1.11215e-10
-4.48465e-15
-1.11232e-10
-2.70604e-13
4.30939e-09
-6.75825e-15
-4.30967e-09
-1.17283e-13
2.31135e-09
-9.59152e-15
-2.3115e-09
-4.51796e-14
1.13344e-09
-7.04639e-15
-1.13351e-09
-1.11495e-14
4.68173e-10
-3.65673e-15
-4.68207e-10
1.11116e-10
-9.81744e-16
-1.11128e-10
-4.19623e-13
2.31738e-09
-5.7991e-14
-1.9173e-13
1.25008e-09
-2.73981e-14
-7.46586e-14
6.15588e-10
-1.29719e-14
-1.81615e-14
2.55043e-10
-5.54859e-15
6.06459e-11
-1.49935e-15
-2.18268e-13
3.84855e-16
-1.8452e-14
4.30959e-09
-8.99042e-14
1.79625e-14
-1.4902e-14
2.31156e-09
-3.42424e-14
1.40385e-14
-9.33797e-15
1.13356e-09
-8.6446e-15
7.57365e-15
-4.39284e-15
4.68249e-10
2.37635e-15
-1.015e-15
1.11161e-10
-3.13282e-13
2.31571e-09
-1.24089e-13
-2.31596e-09
-1.43565e-13
1.24926e-09
-6.53309e-14
-1.24938e-09
-5.61247e-14
6.15135e-10
-3.37125e-14
-6.15196e-10
-1.36739e-14
2.54886e-10
-1.51427e-14
-2.54915e-10
6.05987e-11
-4.04888e-15
-6.06087e-11
-2.98451e-13
2.31636e-09
-8.03533e-14
-1.35346e-13
1.24959e-09
-3.28825e-14
-5.29095e-14
6.1534e-10
-1.3997e-14
-1.30572e-14
2.5497e-10
-5.77279e-15
6.06319e-11
-1.60906e-15
-3.04871e-13
2.78397e-14
2.31607e-09
-1.12457e-13
-1.38384e-13
4.93764e-15
1.24935e-09
-5.50584e-14
-5.42674e-14
-8.23223e-16
6.15185e-10
-2.65518e-14
-1.33299e-14
-1.98011e-15
2.5491e-10
-1.14167e-14
-9.83384e-16
6.06251e-11
-3.0167e-15
-3.51666e-13
9.54192e-14
-1.30042e-13
4.31256e-09
-1.45e-13
7.04314e-14
-7.31894e-14
2.31301e-09
-5.44508e-14
4.25755e-14
-3.95146e-14
1.13428e-09
-1.35422e-14
2.07441e-14
-1.78337e-14
4.68534e-10
5.8562e-15
-4.52032e-15
1.11221e-10
-4.03035e-13
2.31776e-09
-5.88104e-15
-1.82778e-13
1.25032e-09
9.01745e-15
-7.12086e-14
6.15686e-10
8.54253e-15
-1.74882e-14
2.55094e-10
4.64631e-15
6.06574e-11
1.18491e-15
-4.03298e-13
-7.35548e-14
2.31797e-09
-2.36577e-14
-1.83304e-13
-5.46032e-14
1.25047e-09
-3.33555e-15
-7.15228e-14
-3.22347e-14
6.15744e-10
6.10926e-16
-1.75246e-14
-1.54037e-14
2.55136e-10
4.61483e-16
-4.29814e-15
6.06609e-11
-1.24744e-17
-2.8627e-13
-3.08957e-15
4.30942e-09
-1.23855e-13
-7.07487e-15
2.31132e-09
-4.69731e-14
-5.71689e-15
1.13343e-09
-1.14134e-14
-3.10553e-15
4.68213e-10
-8.51431e-16
1.11133e-10
-4.14704e-13
-1.23038e-13
4.31197e-09
-1.81586e-13
-7.33323e-14
2.31284e-09
-6.96661e-14
-3.98614e-14
1.1341e-09
-1.7039e-14
-1.79716e-14
4.68478e-10
-4.60486e-15
1.11181e-10
5.84271e-13
-7.50622e-14
1.25611e-13
-4.30418e-09
4.30474e-09
2.64119e-13
-3.12981e-14
6.47063e-14
-2.30767e-09
2.30795e-09
1.0292e-13
-1.24309e-14
3.2939e-14
-1.13124e-09
1.13138e-09
2.51663e-14
-4.46139e-15
1.45637e-14
-4.6721e-10
4.67278e-10
-1.03237e-15
3.78726e-15
-1.10892e-10
1.10914e-10
3.92769e-13
-3.44452e-15
2.3177e-09
1.79172e-13
1.42878e-14
1.25019e-09
7.00346e-14
1.30772e-14
6.15618e-10
1.71946e-14
7.69141e-15
2.5509e-10
2.50511e-15
6.06687e-11
3.78058e-13
9.15326e-15
5.66576e-15
4.31119e-09
1.66449e-13
-1.11787e-14
1.25517e-14
2.3123e-09
6.4883e-14
-1.20758e-14
1.15692e-14
1.13386e-09
1.62268e-14
-7.47599e-15
7.14846e-15
4.6837e-10
-2.50045e-15
2.24946e-15
1.11166e-10
-7.29853e-14
-5.0345e-14
-2.69439e-09
1.02865e-13
2.69425e-09
-3.24392e-14
-2.77918e-14
-1.44999e-09
5.43163e-14
1.44992e-09
-1.3306e-14
-1.47417e-14
-7.12724e-10
2.86318e-14
7.12691e-10
-3.63193e-15
-6.73976e-15
-2.94903e-10
1.30232e-14
2.94887e-10
-1.79971e-15
-7.00732e-11
3.45987e-15
7.00679e-11
-4.19801e-14
1.41444e-14
-2.94561e-09
2.94548e-09
-1.84681e-14
8.34947e-15
-1.58303e-09
1.58297e-09
-8.04798e-15
4.31437e-15
-7.77417e-10
7.77388e-10
-2.42719e-15
1.83294e-15
-3.21452e-10
3.21438e-10
4.4516e-16
-7.63604e-11
7.63558e-11
3.12613e-13
-1.33198e-13
-4.29431e-09
1.57152e-13
4.2946e-09
1.39716e-13
-7.26525e-14
-2.30253e-09
8.91698e-14
2.30269e-09
5.41918e-14
-3.73222e-14
-1.12883e-09
4.75686e-14
1.1289e-09
1.32352e-14
-1.64864e-14
-4.66208e-10
2.14159e-14
4.66244e-10
-4.328e-15
-1.1066e-10
5.57947e-15
1.10672e-10
3.17133e-13
2.3166e-09
-4.27468e-14
1.44029e-13
1.24964e-09
-1.82054e-14
5.59396e-14
6.15352e-10
-7.58202e-15
1.3604e-14
2.54955e-10
-2.53268e-15
6.06289e-11
-2.96727e-16
-3.04342e-13
1.20535e-14
-8.74785e-14
2.31635e-09
-1.3958e-13
-5.2813e-15
-4.0317e-14
1.24952e-09
-5.4724e-14
-6.98312e-15
-1.89227e-14
6.15294e-10
-1.34355e-14
-4.36951e-15
-8.14619e-15
2.54926e-10
-1.52492e-15
-2.21301e-15
6.06192e-11
2.99957e-13
4.30888e-09
1.35492e-14
3.52882e-14
1.26869e-13
2.3111e-09
-5.1346e-15
2.62681e-14
4.77682e-14
1.13333e-09
-7.94667e-15
1.6387e-14
1.15631e-14
4.68178e-10
-5.13866e-15
8.02155e-15
1.11128e-10
-1.80029e-15
2.16145e-15
-3.48554e-13
-6.41985e-14
4.30858e-09
1.63371e-14
-1.58553e-13
-2.53438e-14
2.31093e-09
1.05722e-16
-6.15805e-14
-9.4545e-15
1.13324e-09
-5.09003e-15
-1.4874e-14
-2.77737e-15
4.68138e-10
-3.92692e-15
-2.90523e-16
1.11115e-10
-1.40744e-15
-1.27872e-13
2.30182e-09
2.75672e-14
-5.67492e-14
1.24148e-09
8.29482e-15
-2.28079e-14
6.1126e-10
2.15062e-15
-6.06543e-15
2.53204e-10
2.31813e-16
6.02015e-11
-1.6902e-16
1.59242e-13
1.02493e-14
-2.04291e-14
2.30201e-09
7.19193e-14
9.17335e-15
-1.24796e-14
1.24157e-09
2.84461e-14
5.37664e-15
-6.92576e-15
6.11305e-10
7.22235e-15
2.5255e-15
-3.13058e-15
2.53226e-10
7.1461e-16
-7.55019e-16
6.02087e-11
-1.65572e-13
2.30118e-09
-9.98478e-14
-7.34466e-14
1.24116e-09
-6.1865e-14
-2.90792e-14
6.1109e-10
-3.35394e-14
-7.52239e-15
2.53141e-10
-1.50815e-14
6.01864e-11
-3.91049e-15
1.79941e-13
5.75363e-15
-2.53496e-14
2.30141e-09
8.10926e-14
1.10455e-14
-2.02209e-14
1.24127e-09
3.20813e-14
8.60661e-15
-1.35624e-14
6.11144e-10
8.17071e-15
4.77666e-15
-7.06514e-15
2.53167e-10
1.46181e-15
-2.01888e-15
6.01952e-11
-1.7748e-13
6.90403e-14
4.11833e-09
-7.50761e-14
3.76681e-14
2.21059e-09
-2.94212e-14
1.91287e-14
1.08456e-09
-7.68299e-15
8.2416e-15
4.48201e-10
2.05915e-15
1.06412e-10
-2.19955e-13
4.11897e-09
-9.4147e-14
2.21084e-09
-3.68177e-14
1.08475e-09
-9.51812e-15
4.48253e-10
1.06422e-10
2.29279e-13
4.8523e-15
4.11859e-09
1.0007e-13
6.13313e-16
2.21073e-09
3.87531e-14
-9.43618e-16
1.08463e-09
9.66121e-15
-9.20713e-16
4.48233e-10
-3.64544e-16
1.06423e-10
2.57502e-13
4.11926e-09
1.13158e-13
2.211e-09
4.41281e-14
1.08483e-09
1.10889e-14
4.4829e-10
1.06434e-10
4.10889e-13
2.62422e-14
4.31211e-09
1.80074e-13
2.11044e-14
2.31282e-09
6.92576e-14
1.41522e-14
1.13408e-09
1.7006e-14
7.34564e-15
4.68465e-10
2.08916e-15
1.11233e-10
3.29076e-13
4.30968e-09
1.69573e-14
1.44184e-13
2.31151e-09
1.06807e-14
5.47718e-14
1.13351e-09
6.17365e-15
1.30779e-14
4.68209e-10
2.90275e-15
1.11128e-10
7.328e-16
-2.79589e-13
4.3094e-09
-7.32702e-15
-1.2215e-13
2.31136e-09
-9.8205e-15
-4.7118e-14
1.13344e-09
-7.14521e-15
-1.15748e-14
4.68173e-10
-3.704e-15
1.11116e-10
-9.98676e-16
3.86827e-13
7.08622e-14
2.31774e-09
1.77185e-13
2.7754e-14
1.25025e-09
6.96506e-14
1.03379e-14
6.15673e-10
1.72085e-14
3.54045e-15
2.55085e-10
8.10757e-16
6.06598e-11
-1.51233e-13
2.30178e-09
3.47116e-14
-7.33725e-14
1.24138e-09
1.53444e-14
-3.0564e-14
6.11192e-10
6.1382e-15
-8.19872e-15
2.53201e-10
1.775e-15
6.02001e-11
5.84355e-17
3.4451e-13
2.4206e-14
-2.66285e-14
2.30214e-09
1.57305e-13
9.49901e-15
-1.19562e-14
1.24157e-09
5.90963e-14
4.13671e-15
-3.05406e-15
6.11289e-10
1.33598e-14
1.42063e-15
-2.5965e-17
2.53246e-10
1.86672e-16
3.97121e-16
6.02129e-11
-1.68734e-13
4.11863e-09
1.38774e-13
-7.13968e-14
2.21043e-09
8.62215e-14
-2.86074e-14
1.0846e-09
4.60137e-14
-7.72845e-15
4.48187e-10
2.01691e-14
1.06409e-10
5.11458e-15
4.51934e-13
5.03119e-14
4.11889e-09
2.23189e-13
2.72718e-14
2.21064e-09
8.88243e-14
1.68591e-14
1.08472e-09
2.1094e-14
9.04465e-15
4.48247e-10
2.90161e-15
1.06427e-10
3.52672e-13
3.74278e-14
4.3099e-09
1.53142e-13
1.72573e-14
2.31173e-09
5.73524e-14
7.97302e-15
1.13365e-09
1.34141e-14
3.00258e-15
4.6829e-10
4.69213e-16
1.11174e-10
-6.08332e-14
-8.06047e-14
-2.69309e-09
1.44885e-13
2.69295e-09
-2.70826e-14
-4.60521e-14
-1.44929e-09
8.00785e-14
1.44922e-09
-1.14025e-14
-2.43166e-14
-7.12346e-10
4.21667e-14
7.12313e-10
-3.23581e-15
-1.08126e-14
-2.94769e-10
1.88627e-14
2.94753e-10
-2.77038e-15
-7.00412e-11
4.90081e-15
7.00358e-11
-3.9322e-14
-2.94487e-09
2.94474e-09
-1.72656e-14
-1.58264e-09
1.58258e-09
-7.66154e-15
-7.77227e-10
7.77198e-10
-2.37011e-15
-3.21375e-10
3.21361e-10
-7.63422e-11
7.63375e-11
3.1746e-13
-9.74126e-14
1.21114e-13
-4.29187e-09
4.29216e-09
1.4198e-13
-4.70937e-14
6.62149e-14
-2.30132e-09
2.30147e-09
5.49787e-14
-2.22719e-14
3.50155e-14
-1.12817e-09
1.12824e-09
1.33693e-14
-9.51103e-15
1.58209e-14
-4.65987e-10
4.66022e-10
-2.54407e-15
4.16066e-15
-1.10586e-10
1.10597e-10
3.06108e-13
2.31595e-09
1.40101e-13
1.24937e-09
5.48688e-14
6.1519e-10
1.34766e-14
2.54912e-10
6.06079e-11
-3.18674e-13
-1.3722e-13
2.31569e-09
-1.46086e-13
-7.22523e-14
1.24925e-09
-5.69793e-14
-3.61993e-14
6.15128e-10
-1.38288e-14
-1.5698e-14
2.54882e-10
-4.05883e-15
6.05978e-11
3.20374e-13
1.31021e-13
2.31661e-09
1.45421e-13
7.27452e-14
1.24971e-09
5.63038e-14
3.76118e-14
6.154e-10
1.36327e-14
1.65941e-14
2.54999e-10
4.33139e-15
6.06417e-11
3.19489e-13
-1.07451e-13
1.30528e-13
-4.29214e-09
4.29243e-09
1.43813e-13
-5.75818e-14
7.35845e-14
-2.30133e-09
2.30149e-09
5.59351e-14
-2.95665e-14
3.95712e-14
-1.12819e-09
1.12827e-09
1.36346e-14
-1.31768e-14
1.80079e-14
-4.65971e-10
4.66009e-10
-3.52348e-15
4.74359e-15
-1.10607e-10
1.1062e-10
3.1263e-13
-2.60102e-14
2.31632e-09
1.42528e-13
-8.88804e-15
1.24947e-09
5.55728e-14
-2.93992e-15
6.15245e-10
1.36064e-14
-6.19685e-16
2.5494e-10
2.19405e-16
6.06349e-11
-1.67657e-13
2.30279e-09
-1.1103e-13
-6.93683e-14
1.24196e-09
-5.85649e-14
-2.7008e-14
6.11484e-10
-2.87794e-14
-7.32697e-15
2.53305e-10
-1.23797e-14
6.02438e-11
-3.25829e-15
2.14206e-13
-1.06524e-14
3.01069e-14
2.30296e-09
1.05781e-13
-5.55708e-15
2.83737e-14
1.24204e-09
4.34767e-14
-2.81415e-15
1.91008e-14
6.1153e-10
1.10353e-14
-1.25219e-15
9.57351e-15
2.53329e-10
-2.90448e-16
2.59334e-15
6.02525e-11
-1.12814e-13
-5.59294e-14
4.11978e-09
-2.9516e-14
-1.4196e-14
2.21113e-09
-9.56697e-15
-3.43032e-16
1.08485e-09
-3.33306e-15
3.55391e-15
4.48276e-10
1.77725e-15
1.06452e-10
4.54524e-13
3.77561e-14
4.31297e-09
2.03704e-13
1.52473e-14
2.31324e-09
7.84007e-14
5.95829e-15