/*--------------------------------*- C++ -*----------------------------------*\
| =========                 |                                                 |
| \\      /  F ield         | OpenFOAM: The Open Source CFD Toolbox           |
|  \\    /   O peration     | Version:  2206                                  |
|   \\  /    A nd           | Website:  www.openfoam.com                      |
|    \\/     M anipulation  |                                                 |
\*---------------------------------------------------------------------------*/
FoamFile
{
    version     2.0;
    format      ascii;
    arch        "LSB;label=32;scalar=64";
    class       volScalarField;
    location    "149";
    object      nut;
}
// * * * * * * * * * * * * * * * * * * * * * * * * * * * * * * * * * * * * * //

dimensions      [0 2 -1 0 0 0 0];

internalField   nonuniform List<scalar> 
66616
(
1.65168e-06
1.05575e-06
1.05649e-06
1.02354e-06
1.6611e-06
1.18917e-06
1.21049e-06
1.19695e-06
1.66061e-06
1.13699e-06
1.15759e-06
1.14777e-06
1.65268e-06
1.08965e-06
1.10997e-06
1.09437e-06
1.63534e-06
1.04176e-06
1.06186e-06
1.04115e-06
1.60458e-06
9.91338e-07
1.01177e-06
9.77897e-07
1.57372e-06
9.4123e-07
9.61308e-07
9.09219e-07
1.54174e-06
8.99745e-07
9.20045e-07
8.68659e-07
1.49291e-06
8.72098e-07
8.92926e-07
8.53356e-07
1.4625e-06
8.54853e-07
8.78431e-07
8.5096e-07
1.44326e-06
8.5094e-07
8.7335e-07
8.56329e-07
1.47217e-06
8.56434e-07
8.81757e-07
8.68309e-07
7.65178e-07
9.54121e-07
9.54043e-07
7.65421e-07
9.5522e-07
9.53943e-07
1.64885e-06
1.64893e-06
1.64893e-06
1.64901e-06
9.55403e-07
9.53344e-07
7.65279e-07
9.55152e-07
9.54362e-07
7.64871e-07
1.02408e-06
1.20702e-06
1.05709e-06
1.05717e-06
1.20724e-06
1.20696e-06
1.0238e-06
1.20764e-06
1.05608e-06
1.05606e-06
1.19952e-06
1.1961e-06
1.0557e-06
1.20026e-06
1.1959e-06
1.0238e-06
1.20708e-06
1.05631e-06
1.21145e-06
1.21018e-06
1.2067e-06
1.19702e-06
1.13819e-06
1.20695e-06
1.20716e-06
1.16753e-06
1.16724e-06
1.19721e-06
1.13873e-06
1.1893e-06
1.18633e-06
1.15e-06
1.1474e-06
1.18619e-06
1.15079e-06
1.14722e-06
1.19727e-06
1.13844e-06
1.21026e-06
1.17126e-06
1.17009e-06
1.13811e-06
1.14773e-06
1.08343e-06
1.15433e-06
1.15452e-06
1.12e-06
1.11984e-06
1.14819e-06
1.08381e-06
1.13693e-06
1.13435e-06
1.10256e-06
1.10031e-06
1.13436e-06
1.10331e-06
1.10002e-06
1.14822e-06
1.08254e-06
1.15731e-06
1.12309e-06
1.12215e-06
1.08149e-06
1.09664e-06
1.0274e-06
1.10712e-06
1.10742e-06
1.07307e-06
1.07303e-06
1.09662e-06
1.02869e-06
1.08955e-06
1.08734e-06
1.05585e-06
1.05364e-06
1.08725e-06
1.05628e-06
1.05346e-06
1.0955e-06
1.02533e-06
1.1097e-06
1.07553e-06
1.0748e-06
1.02566e-06
1.04181e-06
9.66037e-07
1.06003e-06
1.06013e-06
1.02387e-06
1.02413e-06
1.04237e-06
9.67876e-07
1.04179e-06
1.03977e-06
1.00726e-06
1.00549e-06
1.03981e-06
1.00732e-06
1.00553e-06
1.03929e-06
9.66203e-07
1.06168e-06
1.02616e-06
1.02542e-06
9.66293e-07
9.77504e-07
8.98444e-07
1.0095e-06
1.00995e-06
9.73849e-07
9.73618e-07
9.7836e-07
8.97024e-07
9.91661e-07
9.90169e-07
9.57198e-07
9.56225e-07
9.90013e-07
9.57443e-07
9.5594e-07
9.77099e-07
8.9732e-07
1.01115e-06
9.75399e-07
9.74798e-07
8.97519e-07
9.11667e-07
8.55588e-07
9.62742e-07
9.59191e-07
9.32006e-07
9.28778e-07
9.11039e-07
8.54647e-07
9.41189e-07
9.40408e-07
9.13788e-07
9.1296e-07
9.39841e-07
9.13727e-07
9.12123e-07
9.11085e-07
8.56107e-07
9.61024e-07
9.30944e-07
9.31542e-07
8.54115e-07
8.70501e-07
8.43389e-07
9.22403e-07
9.1758e-07
8.97268e-07
8.97668e-07
8.69204e-07
8.40988e-07
8.9989e-07
8.9937e-07
8.83551e-07
8.81882e-07
8.97736e-07
8.83733e-07
8.80704e-07
8.71097e-07
8.42849e-07
9.20946e-07
8.99945e-07
9.01057e-07
8.38663e-07
8.5834e-07
8.43391e-07
8.90059e-07
8.89764e-07
8.79919e-07
8.79787e-07
8.55937e-07
8.38961e-07
8.72564e-07
8.70483e-07
8.67539e-07
8.64603e-07
8.68836e-07
8.67099e-07
8.63023e-07
8.57852e-07
8.42299e-07
8.93023e-07
8.82839e-07
8.82309e-07
8.37723e-07
8.56311e-07
8.50878e-07
8.75467e-07
8.73446e-07
8.74574e-07
8.73943e-07
8.52334e-07
8.49866e-07
8.56394e-07
8.53565e-07
8.63836e-07
8.62306e-07
8.5202e-07
8.64243e-07
8.6065e-07
8.5523e-07
8.53782e-07
8.76121e-07
8.76635e-07
8.7806e-07
8.47431e-07
8.58762e-07
8.70297e-07
8.73672e-07
8.71444e-07
8.81844e-07
8.7973e-07
8.59514e-07
8.69229e-07
8.51843e-07
8.50819e-07
8.73316e-07
8.72654e-07
8.48426e-07
8.7422e-07
8.71863e-07
8.61958e-07
8.76153e-07
8.74728e-07
8.83051e-07
8.84829e-07
8.68288e-07
8.66841e-07
8.8076e-07
8.76414e-07
8.70152e-07
8.56462e-07
8.5615e-07
8.53621e-07
8.72633e-07
8.82262e-07
1.61624e-06
1.61662e-06
1.62787e-06
1.62787e-06
4.56342e-07
1.04263e-06
1.96032e-07
1.64466e-06
4.55865e-07
1.04251e-06
1.64473e-06
1.9602e-07
7.58801e-07
1.61229e-07
1.61116e-07
3.23444e-07
3.14488e-08
2.95418e-07
4.05744e-08
4.08767e-08
2.53455e-08
3.23212e-07
3.1567e-08
2.95852e-07
4.05074e-08
1.65141e-06
1.65155e-06
1.65165e-06
1.65905e-06
1.65935e-06
1.65925e-06
1.65891e-06
6.22026e-07
2.56354e-07
1.43868e-06
1.13719e-06
5.44584e-07
3.02649e-07
1.503e-06
4.09247e-08
2.53424e-08
6.23756e-07
1.43585e-06
2.56224e-07
1.13763e-06
5.4323e-07
1.50783e-06
3.02905e-07
1.77762e-07
1.7753e-07
1.20263e-06
1.62123e-07
1.62018e-07
2.81249e-07
4.08985e-08
3.01708e-07
4.20711e-08
2.40209e-08
2.41959e-08
2.71857e-07
3.97921e-08
2.94974e-07
4.10654e-08
1.66115e-06
1.66151e-06
1.66175e-06
1.66448e-06
1.66498e-06
1.66512e-06
1.6634e-06
5.94563e-07
2.7697e-07
1.61466e-06
1.1774e-06
6.25555e-07
2.57801e-07
1.6001e-06
2.37794e-08
2.39257e-08
6.16416e-07
1.66904e-06
2.82868e-07
1.19825e-06
6.41299e-07
1.65261e-06
2.64175e-07
1.35513e-07
1.3775e-07
1.1689e-06
1.25299e-07
1.27994e-07
2.41537e-07
4.34883e-08
2.53318e-07
4.37897e-08
2.38482e-08
2.3445e-08
2.32678e-07
4.26578e-08
2.43698e-07
4.28904e-08
1.66046e-06
1.66116e-06
1.6612e-06
1.65702e-06
1.65179e-06
1.65618e-06
1.65719e-06
5.34686e-07
2.35826e-07
1.54766e-06
1.12675e-06
5.60372e-07
2.26865e-07
1.53543e-06
2.36058e-08
2.31464e-08
5.58107e-07
1.6004e-06
2.41972e-07
1.14678e-06
5.80941e-07
1.58686e-06
2.32669e-07
1.17476e-07
1.19901e-07
1.10985e-06
1.12937e-07
1.15378e-07
2.20063e-07
4.38914e-08
2.27109e-07
4.34547e-08
2.28652e-08
2.23177e-08
2.11685e-07
4.29976e-08
2.1764e-07
4.25336e-08
1.64958e-06
1.65474e-06
1.65365e-06
1.64242e-06
1.64107e-06
1.62969e-06
1.63655e-06
4.87744e-07
2.14428e-07
1.48869e-06
1.07982e-06
5.07506e-07
2.08768e-07
1.47731e-06
2.25543e-08
2.20169e-08
5.10046e-07
1.5416e-06
2.20421e-07
1.09948e-06
5.28133e-07
1.52837e-06
2.14035e-07
1.08584e-07
1.10859e-07
1.05353e-06
1.05225e-07
1.07479e-07
2.01527e-07
4.23364e-08
2.08295e-07
4.13744e-08
2.14683e-08
2.08238e-08
1.94116e-07
4.16407e-08
1.99771e-07
4.06455e-08
1.63653e-06
1.62693e-06
1.6322e-06
1.60556e-06
1.61815e-06
1.62213e-06
1.61312e-06
4.44536e-07
1.97948e-07
1.4283e-06
1.03215e-06
4.64461e-07
1.92777e-07
1.41752e-06
2.12026e-08
2.05557e-08
4.64968e-07
1.48227e-06
2.03154e-07
1.0511e-06
4.83536e-07
1.46841e-06
1.9736e-07
1.00996e-07
1.0296e-07
9.99335e-07
9.75045e-08
9.95043e-08
1.88123e-07
4.04297e-08
1.9191e-07
3.99454e-08
2.01059e-08
1.9698e-08
1.80427e-07
3.96276e-08
1.83633e-07
3.90022e-08
1.61037e-06
1.61141e-06
1.61419e-06
1.58204e-06
1.58358e-06
1.591e-06
1.58252e-06
4.08566e-07
1.84595e-07
1.36413e-06
9.82029e-07
4.22534e-07
1.82366e-07
1.35426e-06
1.98312e-08
1.93985e-08
4.27803e-07
1.41927e-06
1.8939e-07
1.00072e-06
4.40606e-07
1.4046e-06
1.86603e-07
9.38023e-08
9.56405e-08
9.2853e-07
9.14148e-08
9.33424e-08
1.81934e-07
3.96731e-08
1.83346e-07
3.97698e-08
1.93609e-08
1.92726e-08
1.7457e-07
3.86177e-08
1.74678e-07
3.84543e-08
1.56814e-06
1.57629e-06
1.56986e-06
1.54903e-06
1.5519e-06
1.55131e-06
1.56013e-06
3.93863e-07
1.781e-07
1.29826e-06
9.34188e-07
3.98207e-07
1.78367e-07
1.29139e-06
1.90294e-08
1.88502e-08
4.15293e-07
1.35422e-06
1.8308e-07
9.51752e-07
4.1833e-07
1.33993e-06
1.83772e-07
8.96819e-08
9.15503e-08
8.73952e-07
8.85588e-08
9.06815e-08
1.87342e-07
4.09272e-08
1.84184e-07
4.15146e-08
1.96086e-08
1.97976e-08
1.78232e-07
3.93411e-08
1.75268e-07
3.97916e-08
1.54098e-06
1.53926e-06
1.54863e-06
1.50542e-06
1.51426e-06
1.49846e-06
1.51016e-06
3.98487e-07
1.80342e-07
1.23781e-06
8.96733e-07
3.98132e-07
1.83461e-07
1.23547e-06
1.90097e-08
1.91837e-08
4.20068e-07
1.29474e-06
1.86763e-07
9.13648e-07
4.18113e-07
1.28336e-06
1.8933e-07
8.89253e-08
9.17442e-08
8.44316e-07
8.95193e-08
9.26867e-08
1.96566e-07
4.31773e-08
1.9297e-07
4.40833e-08
2.045e-08
2.07395e-08
1.85887e-07
4.14156e-08
1.81915e-07
4.21311e-08
1.50045e-06
1.49968e-06
1.49906e-06
1.46323e-06
1.4559e-06
1.47132e-06
1.47048e-06
4.10652e-07
1.87736e-07
1.1895e-06
8.74311e-07
4.07353e-07
1.91654e-07
1.19388e-06
1.98248e-08
2.01264e-08
4.30349e-07
1.24809e-06
1.94365e-07
8.8987e-07
4.26989e-07
1.24065e-06
1.97884e-07
9.25215e-08
9.55149e-08
8.36601e-07
9.36549e-08
9.69089e-08
2.06127e-07
4.5803e-08
2.02313e-07
4.6525e-08
2.1492e-08
2.18153e-08
1.95435e-07
4.39437e-08
1.90993e-07
4.45683e-08
1.45525e-06
1.45721e-06
1.44883e-06
1.45923e-06
1.45347e-06
1.44165e-06
1.44123e-06
4.26135e-07
1.97298e-07
1.15677e-06
8.63248e-07
4.21755e-07
2.01497e-07
1.17127e-06
2.10055e-08
2.13175e-08
4.44318e-07
1.21693e-06
2.03691e-07
8.79127e-07
4.39844e-07
1.212e-06
2.07622e-07
9.74582e-08
1.00627e-07
8.4113e-07
9.88035e-08
1.02098e-07
2.18049e-07
4.85477e-08
2.12848e-07
4.97585e-08
2.26644e-08
2.31586e-08
2.0651e-07
4.65053e-08
2.01713e-07
4.7356e-08
1.44876e-06
1.44107e-06
1.44483e-06
1.46366e-06
1.44754e-06
1.45087e-06
1.44453e-06
4.44938e-07
2.08638e-07
1.13647e-06
8.67862e-07
4.38371e-07
2.13769e-07
1.16446e-06
2.22403e-08
2.27153e-08
4.63839e-07
1.1969e-06
2.15769e-07
8.78783e-07
4.57071e-07
1.19271e-06
2.20708e-07
1.03213e-07
1.06292e-07
8.55583e-07
1.05095e-07
1.08506e-07
2.24443e-07
5.22612e-08
2.25705e-07
5.21029e-08
2.42505e-08
2.47233e-08
4.96492e-08
2.14219e-07
1.46733e-06
1.46014e-06
1.4487e-06
4.6776e-07
2.2208e-07
1.12605e-06
8.83701e-07
4.60299e-07
2.28394e-07
1.17031e-06
2.38048e-08
4.75943e-07
1.18858e-06
2.29531e-07
4.78302e-07
1.16045e-06
1.10238e-07
1.13531e-07
8.83718e-07
1.13531e-07
1.15343e-07
7.5953e-07
1.60821e-07
1.60832e-07
7.09117e-09
7.01544e-08
7.12795e-09
7.01388e-08
7.2329e-07
1.35785e-07
1.35919e-07
1.64787e-07
1.64768e-07
4.55852e-07
1.04783e-06
1.96041e-07
1.64471e-06
4.55934e-07
1.04763e-06
1.95939e-07
1.64461e-06
2.84669e-07
1.77944e-09
1.04839e-07
2.577e-07
2.84686e-07
1.78053e-09
1.04766e-07
2.57706e-07
4.40043e-07
1.11734e-06
1.86111e-07
1.3675e-06
2.15205e-07
1.64817e-06
4.96339e-07
4.40102e-07
1.11711e-06
1.86107e-07
1.36744e-06
2.15399e-07
1.6481e-06
4.96304e-07
7.59435e-07
1.61208e-07
1.60694e-07
7.11277e-09
7.0042e-08
7.23123e-07
1.35684e-07
1.35743e-07
1.63674e-07
1.64718e-07
7.08341e-09
7.00196e-08
4.56388e-07
1.04272e-06
1.9608e-07
1.6447e-06
4.5642e-07
1.04742e-06
1.64457e-06
1.95935e-07
2.84695e-07
1.78199e-09
1.04904e-07
2.56878e-07
4.39503e-07
1.12073e-06
1.85984e-07
1.36465e-06
2.15232e-07
1.64824e-06
4.95315e-07
2.84695e-07
1.77953e-09
1.04747e-07
2.56847e-07
4.39524e-07
1.11701e-06
1.36455e-06
1.85964e-07
1.64815e-06
2.15432e-07
4.95287e-07
1.61616e-06
1.61675e-06
1.62777e-06
1.62797e-06
1.61616e-06
1.61625e-06
1.62788e-06
1.62792e-06
1.61617e-06
1.61494e-06
1.62794e-06
1.62785e-06
1.61573e-06
1.57272e-06
1.62781e-06
1.62765e-06
1.62844e-06
1.62843e-06
1.6139e-06
1.61575e-06
1.57291e-06
1.62745e-06
1.62713e-06
1.62821e-06
1.62823e-06
1.61404e-06
1.61572e-06
1.57248e-06
1.6271e-06
1.62757e-06
1.62821e-06
1.62834e-06
1.61397e-06
1.61578e-06
1.5713e-06
1.62699e-06
1.62755e-06
1.62817e-06
1.62829e-06
1.61407e-06
4.56414e-07
1.04664e-06
1.64456e-06
1.95992e-07
4.39455e-07
1.12052e-06
1.86049e-07
1.36469e-06
2.15236e-07
1.64811e-06
4.95243e-07
2.84626e-07
1.78075e-09
1.04892e-07
2.56825e-07
4.39514e-07
1.11624e-06
1.36446e-06
1.85995e-07
1.64809e-06
2.15478e-07
4.95261e-07
2.84637e-07
1.77917e-09
1.0479e-07
2.56851e-07
7.59325e-07
1.61134e-07
1.60644e-07
7.11883e-09
6.99697e-08
7.23067e-07
1.35866e-07
1.35677e-07
1.63647e-07
1.64618e-07
7.0791e-09
6.997e-08
4.55887e-07
1.04163e-06
1.64461e-06
1.95946e-07
4.40058e-07
1.12025e-06
1.36704e-06
1.86081e-07
1.64825e-06
2.15177e-07
4.96343e-07
4.4008e-07
1.11952e-06
1.3667e-06
1.86091e-07
1.64811e-06
2.15465e-07
4.96316e-07
2.84651e-07
1.77719e-09
1.04768e-07
2.57706e-07
2.84662e-07
1.77773e-09
1.04723e-07
2.57281e-07
7.228e-07
1.35892e-07
1.35657e-07
1.63722e-07
1.63671e-07
7.10504e-09
7.00171e-08
7.09081e-09
6.99577e-08
4.09244e-08
2.5339e-08
4.09194e-08
2.5347e-08
1.77903e-07
1.77784e-07
1.2035e-06
1.62155e-07
1.62157e-07
2.37687e-08
2.32556e-08
2.34888e-08
2.33222e-08
1.14951e-06
1.41109e-07
1.38064e-07
1.5627e-07
1.56127e-07
3.23466e-07
3.14512e-08
2.95447e-07
4.05924e-08
6.23774e-07
2.56308e-07
1.43585e-06
1.13514e-06
5.43273e-07
3.02751e-07
1.50998e-06
6.23746e-07
2.56241e-07
1.43577e-06
1.13504e-06
5.43287e-07
3.02652e-07
1.50993e-06
3.16562e-07
4.04648e-08
3.90506e-08
3.081e-07
3.16575e-07
4.04798e-08
3.90643e-08
3.08067e-07
6.30173e-07
1.18185e-06
2.89245e-07
1.65025e-06
2.96934e-07
1.60262e-06
6.43823e-07
6.30123e-07
1.18198e-06
2.89138e-07
1.64982e-06
2.96836e-07
1.60261e-06
6.43761e-07
1.77553e-07
1.77955e-07
1.20367e-06
1.61952e-07
1.62183e-07
4.09457e-08
2.53204e-08
2.37869e-08
2.32681e-08
1.14953e-06
1.40968e-07
1.38127e-07
1.5607e-07
1.56168e-07
2.34603e-08
2.32939e-08
6.22076e-07
2.56317e-07
1.43867e-06
1.1367e-06
5.44691e-07
3.02603e-07
1.503e-06
3.2319e-07
3.15709e-08
2.95833e-07
4.05333e-08
6.22075e-07
1.43796e-06
2.56304e-07
1.13418e-06
5.4468e-07
1.50317e-06
3.02775e-07
3.16944e-07
3.93119e-08
3.92096e-08
3.03993e-07
6.31973e-07
1.17867e-06
2.84086e-07
1.62467e-06
2.97135e-07
1.5904e-06
6.30345e-07
3.16912e-07
3.93412e-08
3.92321e-08
3.03933e-07
6.31954e-07
1.17521e-06
1.62532e-06
2.8426e-07
1.59171e-06
2.97302e-07
6.3023e-07
3.2319e-07
3.15578e-08
2.95815e-07
4.04971e-08
6.22073e-07
1.43781e-06
2.5635e-07
1.13387e-06
5.44671e-07
1.50306e-06
3.02763e-07
3.2319e-07
3.1569e-08
2.95824e-07
4.05125e-08
6.3188e-07
1.17842e-06
2.84131e-07
1.62472e-06
2.97143e-07
1.59026e-06
6.30173e-07
3.16918e-07
3.92994e-08
3.91953e-08
3.03978e-07
6.31959e-07
1.17495e-06
1.62516e-06
2.84199e-07
1.59157e-06
2.97287e-07
6.30179e-07
3.16906e-07
3.9312e-08
3.92122e-08
3.03939e-07
1.7782e-07
1.77936e-07
1.20303e-06
1.62172e-07
1.62186e-07
4.08903e-08
2.53433e-08
2.3491e-08
2.33206e-08
1.14924e-06
1.38118e-07
1.41152e-07
1.56203e-07
1.56254e-07
2.37846e-08
2.3261e-08
6.23724e-07
1.43548e-06
2.56218e-07
1.13672e-06
5.43275e-07
1.50753e-06
3.02718e-07
3.2347e-07
3.15212e-08
2.95454e-07
4.06509e-08
3.23475e-07
3.15022e-08
2.95638e-07
4.06399e-08
6.30043e-07
1.18468e-06
1.64566e-06
2.89509e-07
1.59805e-06
2.97037e-07
6.43492e-07
6.30094e-07
1.1845e-06
1.64503e-06
2.89278e-07
1.59768e-06
2.9691e-07
6.43408e-07
3.1659e-07
4.05126e-08
3.90915e-08
3.0808e-07
3.16586e-07
4.04981e-08
3.90799e-08
3.08051e-07
4.08783e-08
2.53065e-08
4.08946e-08
2.53537e-08
1.14891e-06
1.3816e-07
1.41016e-07
1.56309e-07
1.56074e-07
2.3454e-08
2.32891e-08
2.38002e-08
2.32737e-08
2.39927e-08
2.41784e-08
2.3774e-08
2.39307e-08
1.37839e-07
1.3547e-07
1.16901e-06
1.28016e-07
1.253e-07
2.38891e-08
2.41715e-08
2.36389e-08
2.39433e-08
1.17339e-06
1.20637e-07
1.18139e-07
1.26783e-07
1.24444e-07
2.81207e-07
4.0892e-08
3.01738e-07
4.20731e-08
6.16758e-07
2.82686e-07
1.67274e-06
1.19426e-06
6.415e-07
2.63959e-07
1.65545e-06
6.16325e-07
2.82564e-07
1.67277e-06
1.19418e-06
6.41323e-07
2.63896e-07
1.65547e-06
2.74652e-07
4.32e-08
4.24045e-08
2.57994e-07
2.74727e-07
4.32132e-08
4.241e-08
2.58066e-07
6.08957e-07
1.18017e-06
2.45549e-07
1.61987e-06
2.58733e-07
1.63624e-06
5.86132e-07
6.1013e-07
1.18037e-06
2.45507e-07
1.61929e-06
2.58632e-07
1.63663e-06
5.8686e-07
1.3773e-07
1.35443e-07
1.16952e-06
1.2791e-07
1.25272e-07
2.37422e-08
2.38971e-08
2.3914e-08
2.41874e-08
1.17358e-06
1.2051e-07
1.18082e-07
1.2668e-07
1.24415e-07
2.35992e-08
2.39139e-08
5.94247e-07
2.76921e-07
1.61491e-06
1.17677e-06
6.25485e-07
2.57811e-07
1.59974e-06
2.71803e-07
3.9806e-08
2.94923e-07
4.10864e-08
5.9322e-07
1.61523e-06
2.77089e-07
1.174e-06
6.2563e-07
1.60047e-06
2.57929e-07
2.65086e-07
4.23286e-08
4.15106e-08
2.48844e-07
5.91035e-07
1.16255e-06
2.39752e-07
1.56524e-06
2.52744e-07
1.58076e-06
5.63499e-07
2.65015e-07
4.23349e-08
4.15291e-08
2.4882e-07
5.89208e-07
1.15981e-06
1.56513e-06
2.39825e-07
1.5807e-06
2.52834e-07
5.62846e-07
2.71899e-07
3.97695e-08
2.94978e-07
4.1061e-08
5.93945e-07
1.6152e-06
2.77015e-07
1.17382e-06
6.2566e-07
1.60014e-06
2.57826e-07
2.71835e-07
3.97789e-08
2.94941e-07
4.10579e-08
5.90927e-07
1.16232e-06
2.39737e-07
1.56534e-06
2.52726e-07
1.58057e-06
5.63177e-07
2.65122e-07
4.23036e-08
4.1494e-08
2.48887e-07
5.90956e-07
1.15975e-06
1.56498e-06
2.39666e-07
1.58062e-06
2.52714e-07
5.63145e-07
2.65065e-07
4.22968e-08
4.15141e-08
2.48842e-07
1.35514e-07
1.37871e-07
1.16903e-06
1.25358e-07
1.28062e-07
2.40087e-08
2.42008e-08
2.36406e-08
2.39568e-08
1.17366e-06
1.18196e-07
1.2067e-07
1.245e-07
1.26812e-07
2.39132e-08
2.41932e-08
6.17002e-07
1.66902e-06
2.82713e-07
1.19721e-06
6.412e-07
1.65217e-06
2.64038e-07
2.81262e-07
4.09215e-08
3.01762e-07
4.21009e-08
2.81242e-07
4.09113e-08
3.01758e-07
4.20985e-08
6.09086e-07
1.1834e-06
1.61728e-06
2.45728e-07
1.63362e-06
2.58844e-07
5.85984e-07
6.10087e-07
1.18322e-06
1.61681e-06
2.4569e-07
1.63366e-06
2.58811e-07
5.86275e-07
2.7473e-07
4.32326e-08
4.2439e-08
2.58071e-07
2.74747e-07
4.32356e-08
4.24376e-08
2.58057e-07
2.37374e-08
2.38807e-08
2.40283e-08
2.42216e-08
1.1734e-06
1.18068e-07
1.20608e-07
1.24417e-07
1.26758e-07
2.3582e-08
2.39112e-08
2.39408e-08
2.42254e-08
2.38447e-08
2.34292e-08
2.36054e-08
2.31508e-08
1.19876e-07
1.17567e-07
1.11042e-06
1.15424e-07
1.13025e-07
2.29239e-08
2.33568e-08
2.26222e-08
2.30973e-08
1.12239e-06
1.1143e-07
1.09012e-07
1.14956e-07
1.12648e-07
2.41599e-07
4.34714e-08
2.53434e-07
4.37943e-08
5.58141e-07
2.41834e-07
1.60234e-06
1.14345e-06
5.80678e-07
2.32513e-07
1.58888e-06
5.58075e-07
2.41776e-07
1.60279e-06
1.14335e-06
5.81749e-07
2.32471e-07
1.58876e-06
2.38199e-07
4.38972e-08
4.38992e-08
2.29756e-07
2.38281e-07
4.38887e-08
4.39245e-08
2.29796e-07
5.52837e-07
1.13077e-06
2.22688e-07
1.55927e-06
2.29754e-07
1.57282e-06
5.32469e-07
5.52854e-07
1.13106e-06
2.22613e-07
1.55877e-06
2.29697e-07
1.57345e-06
5.32487e-07
1.19795e-07
1.17506e-07
1.11085e-06
1.15325e-07
1.12979e-07
2.35641e-08
2.31099e-08
2.29417e-08
2.33836e-08
1.12271e-06
1.11344e-07
1.08996e-07
1.14855e-07
1.12605e-07
2.26001e-08
2.30563e-08
5.34444e-07
2.35858e-07
1.54792e-06
1.12594e-06
5.60496e-07
2.26905e-07
1.53516e-06
2.32689e-07
4.26921e-08
2.43694e-07
4.29057e-08
5.34379e-07
1.54745e-06
2.35924e-07
1.12367e-06
5.60234e-07
1.53518e-06
2.26957e-07
2.28638e-07
4.29592e-08
4.30396e-08
2.21068e-07
5.31753e-07
1.11346e-06
2.17221e-07
1.50634e-06
2.23761e-07
1.51889e-06
5.09359e-07
2.28649e-07
4.29682e-08
4.30476e-08
2.21083e-07
5.31632e-07
1.11101e-06
1.5057e-06
2.17227e-07
1.51836e-06
2.23799e-07
5.09348e-07
2.32767e-07
4.26282e-08
2.4376e-07
4.2868e-08
5.34483e-07
1.54743e-06
2.35753e-07
1.12344e-06
5.60428e-07
1.53493e-06
2.26767e-07
2.32701e-07
4.26142e-08
2.43704e-07
4.2851e-08
5.3187e-07
1.11346e-06
2.17197e-07
1.50637e-06
2.23703e-07
1.51855e-06
5.09534e-07
2.28695e-07
4.29335e-08
4.30126e-08
2.21177e-07
5.31697e-07
1.111e-06
1.50571e-06
2.17093e-07
1.51822e-06
2.23617e-07
5.09428e-07
2.28635e-07
4.29125e-08
4.29938e-08
2.21121e-07
1.17622e-07
1.19944e-07
1.11037e-06
1.13065e-07
1.15508e-07
2.38692e-08
2.34537e-08
2.26165e-08
2.30926e-08
1.1225e-06
1.09024e-07
1.11432e-07
1.12684e-07
1.14981e-07
2.29448e-08
2.33816e-08
5.58193e-07
1.60047e-06
2.4198e-07
1.14588e-06
5.8097e-07
1.5866e-06
2.3264e-07
2.41661e-07
4.35269e-08
2.5343e-07
4.38319e-08
2.41656e-07
4.3523e-08
2.5342e-07
4.38228e-08
5.52773e-07
1.13382e-06
1.55728e-06
2.22808e-07
1.57135e-06
2.29902e-07
5.32407e-07
5.52881e-07
1.13363e-06
1.55707e-06
2.22739e-07
1.57148e-06
2.29882e-07
5.32505e-07
2.38362e-07
4.39208e-08
4.3943e-08
2.2992e-07
2.38368e-07
4.39183e-08
4.39374e-08
2.29917e-07
2.35364e-08
2.30881e-08
2.3893e-08
2.34698e-08
1.1218e-06
1.08928e-07
1.11329e-07
1.12563e-07
1.14896e-07
2.2564e-08
2.30346e-08
2.29556e-08
2.34001e-08
2.28463e-08
2.23099e-08
2.25584e-08
2.203e-08
1.1095e-07
1.08641e-07
1.05653e-06
1.07585e-07
1.0522e-07
2.15622e-08
2.2208e-08
2.13159e-08
2.19369e-08
1.07026e-06
1.03543e-07
1.01332e-07
1.07079e-07
1.04854e-07
2.20095e-07
4.38751e-08
2.27164e-07
4.34498e-08
5.10082e-07
2.2031e-07
1.5429e-06
1.09677e-06
5.28127e-07
2.13985e-07
1.52962e-06
5.10138e-07
2.20227e-07
1.54325e-06
1.09681e-06
5.28197e-07
2.13959e-07
1.5297e-06
2.17632e-07
4.24835e-08
4.3347e-08
2.10703e-07
2.17675e-07
4.25045e-08
4.33417e-08
2.10739e-07
5.06085e-07
1.08411e-06
2.05293e-07
1.50016e-06
2.11699e-07
1.51399e-06
4.88134e-07
5.06192e-07
1.08426e-06
2.05323e-07
1.49996e-06
2.11666e-07
1.51429e-06
4.88269e-07
1.10876e-07
1.08629e-07
1.05666e-06
1.07458e-07
1.05246e-07
2.25229e-08
2.20053e-08
2.15774e-08
2.22143e-08
1.07009e-06
1.03467e-07
1.01317e-07
1.06945e-07
1.04858e-07
2.1288e-08
2.19125e-08
4.8755e-07
2.14465e-07
1.48895e-06
1.07932e-06
5.07277e-07
2.08837e-07
1.47721e-06
2.11688e-07
4.29876e-08
2.17653e-07
4.25247e-08
4.87605e-07
1.48846e-06
2.14454e-07
1.07728e-06
5.07288e-07
1.477e-06
2.08772e-07
2.08502e-07
4.1707e-08
4.25096e-08
2.02864e-07
4.8573e-07
1.06613e-06
2.00656e-07
1.44789e-06
2.06222e-07
1.45962e-06
4.6658e-07
2.08497e-07
4.16808e-08
4.25015e-08
2.02843e-07
4.85739e-07
1.06399e-06
1.44683e-06
2.00528e-07
1.45906e-06
2.06135e-07
4.66513e-07
2.1181e-07
4.29575e-08
2.17728e-07
4.25074e-08
4.87699e-07
1.48829e-06
2.14333e-07
1.07691e-06
5.07453e-07
1.47672e-06
2.08738e-07
2.1177e-07
4.29333e-08
2.17687e-07
4.24898e-08
4.85852e-07
1.06596e-06
2.00512e-07
1.44746e-06
2.06124e-07
1.45905e-06
4.66565e-07
2.0862e-07
4.16714e-08
4.24838e-08
2.02992e-07
4.85809e-07
1.06391e-06
1.44685e-06
2.00548e-07
1.45875e-06
2.06114e-07
4.66641e-07
2.08589e-07
4.1671e-08
4.24668e-08
2.03011e-07
1.08655e-07
1.10973e-07
1.05364e-06
1.05223e-07
1.07568e-07
2.28667e-08
2.23266e-08
2.1298e-08
2.19232e-08
1.06729e-06
1.0132e-07
1.03522e-07
1.04849e-07
1.07072e-07
2.15766e-08
2.22238e-08
5.1002e-07
1.5417e-06
2.20362e-07
1.09874e-06
5.28214e-07
1.52818e-06
2.14013e-07
2.20202e-07
4.39074e-08
2.27292e-07
4.34814e-08
2.20157e-07
4.39073e-08
2.27287e-07
4.34921e-08
5.06033e-07
1.08631e-06
1.49857e-06
2.0534e-07
1.51257e-06
2.11739e-07
4.87725e-07
5.06002e-07
1.08611e-06
1.49843e-06
2.05431e-07
1.51282e-06
2.11753e-07
4.8765e-07
2.17773e-07
4.25246e-08
4.33746e-08
2.10774e-07
2.17715e-07
4.25333e-08
4.33892e-08
2.1064e-07
2.25023e-08
2.19831e-08
2.28794e-08
2.23416e-08
1.06747e-06
1.01375e-07
1.03476e-07
1.04852e-07
1.06982e-07
2.1277e-08
2.18918e-08
2.15948e-08
2.22408e-08
2.14484e-08
2.07989e-08
2.1212e-08
2.05648e-08
1.03032e-07
1.00948e-07
1.00004e-06
9.95637e-08
9.74624e-08
2.01497e-08
2.06972e-08
1.98945e-08
2.04679e-08
1.01388e-06
9.61004e-08
9.40204e-08
9.91138e-08
9.71343e-08
2.01583e-07
4.23401e-08
2.08337e-07
4.13907e-08
4.65952e-07
2.03106e-07
1.48478e-06
1.04891e-06
4.84094e-07
1.97291e-07
1.47153e-06
4.66058e-07
2.03139e-07
1.4843e-06
1.04906e-06
4.84229e-07
1.97343e-07
1.4705e-06
1.99293e-07
4.04989e-08
4.12308e-08
1.93684e-07
1.99392e-07
4.05077e-08
4.12429e-08
1.93832e-07
4.61957e-07
1.03524e-06
1.90931e-07
1.44216e-06
1.95363e-07
1.45654e-06
4.45415e-07
4.62087e-07
1.03574e-06
1.90944e-07
1.43918e-06
1.95408e-07
1.45443e-06
4.45684e-07
1.02967e-07
1.00941e-07
1.00118e-06
9.95734e-08
9.747e-08
2.1183e-08
2.05363e-08
2.0178e-08
2.07223e-08
1.01357e-06
9.61189e-08
9.40995e-08
9.91253e-08
9.71418e-08
1.98836e-08
2.04399e-08
4.44616e-07
1.98112e-07
1.42909e-06
1.03194e-06
4.64485e-07
1.92877e-07
1.41789e-06
1.94115e-07
4.15998e-08
1.99748e-07
4.06242e-08
4.44663e-07
1.42787e-06
1.97977e-07
1.0299e-06
4.64463e-07
1.41645e-06
1.92793e-07
1.91149e-07
3.96681e-08
4.0554e-08
1.86267e-07
4.42269e-07
1.01733e-06
1.86391e-07
1.38685e-06
1.90527e-07
1.39817e-06
4.24119e-07
1.9116e-07
3.96849e-08
4.05399e-08
1.86415e-07
4.42357e-07
1.01543e-06
1.38457e-06
1.86475e-07
1.39624e-06
1.90442e-07
4.24637e-07
1.9427e-07
4.15871e-08
1.99897e-07
4.06132e-08
4.44747e-07
1.4279e-06
1.97988e-07
1.02992e-06
4.64593e-07
1.41695e-06
1.92708e-07
1.94359e-07
4.1588e-08
1.99929e-07
4.06046e-08
4.42143e-07
1.01712e-06
1.8659e-07
1.38616e-06
1.90439e-07
1.39714e-06
4.24333e-07
1.91304e-07
3.96852e-08
4.05252e-08
1.86517e-07
4.42362e-07
1.01552e-06
1.38561e-06
1.86253e-07
1.39678e-06
1.90338e-07
4.24247e-07
1.91403e-07
3.96374e-08
4.05125e-08
1.86602e-07
1.00947e-07
1.03014e-07
9.97631e-07
9.74886e-08
9.9548e-08
2.14618e-08
2.08061e-08
1.98974e-08
2.04604e-08
1.01117e-06
9.40928e-08
9.60565e-08
9.71603e-08
9.90935e-08
2.01473e-08
2.07025e-08
4.64915e-07
1.48261e-06
2.03263e-07
1.05061e-06
4.83455e-07
1.46833e-06
1.97483e-07
2.01521e-07
4.23565e-08
2.08347e-07
4.13852e-08
2.01354e-07
4.23669e-08
2.08216e-07
4.14085e-08
4.60746e-07
1.03721e-06
1.4369e-06
1.90941e-07
1.45162e-06
1.95406e-07
4.43963e-07
4.60753e-07
1.037e-06
1.43657e-06
1.91074e-07
1.45202e-06
1.95552e-07
4.44091e-07
1.99267e-07
4.04838e-08
4.12336e-08
1.93615e-07
1.99134e-07
4.05206e-08
4.12625e-08
1.93518e-07
2.11746e-08
2.05271e-08
2.14819e-08
2.08285e-08
1.01325e-06
9.40432e-08
9.59703e-08
9.71616e-08
9.90345e-08
1.98566e-08
2.04303e-08
2.01683e-08
2.07263e-08
2.00774e-08
1.96841e-08
1.98204e-08
1.93899e-08
9.57864e-08
9.37899e-08
9.28726e-07
9.35575e-08
9.13992e-08
1.93777e-08
1.96424e-08
1.90479e-08
1.93449e-08
9.40426e-07
9.18767e-08
8.96576e-08
9.34124e-08
9.13054e-08
1.88284e-07
4.04198e-08
1.9208e-07
3.99404e-08
4.28687e-07
1.89401e-07
1.42695e-06
9.98352e-07
4.41983e-07
1.86577e-07
1.41375e-06
4.29059e-07
1.89391e-07
1.42222e-06
9.98918e-07
4.42277e-07
1.86482e-07
1.40727e-06
1.86776e-07
3.96371e-08
3.99029e-08
1.84443e-07
1.86931e-07
3.9635e-08
3.99013e-08
1.84509e-07
4.26212e-07
9.8443e-07
1.83967e-07
1.38395e-06
1.85377e-07
1.39852e-06
4.17447e-07
4.26718e-07
9.84288e-07
1.8395e-07
1.37443e-06
1.85291e-07
1.39007e-06
4.17525e-07
9.58159e-08
9.38716e-08
9.30102e-07
9.35003e-08
9.15326e-08
1.98126e-08
1.94026e-08
1.93755e-08
1.96509e-08
9.41181e-07
9.17237e-08
8.97874e-08
9.3344e-08
9.14105e-08
1.90572e-08
1.93577e-08
4.08026e-07
1.8436e-07
1.36511e-06
9.81977e-07
4.22228e-07
1.82054e-07
1.35514e-06
1.80726e-07
3.96323e-08
1.83807e-07
3.90521e-08
4.08856e-07
1.36346e-06
1.84406e-07
9.80822e-07
4.22866e-07
1.35349e-06
1.8225e-07
1.78174e-07
3.85701e-08
3.89898e-08
1.76576e-07
4.06841e-07
9.66079e-07
1.79244e-07
1.32323e-06
1.80279e-07
1.3323e-06
3.97377e-07
1.78467e-07
3.86054e-08
3.90297e-08
1.76812e-07
4.07664e-07
9.64849e-07
1.32171e-06
1.7928e-07
1.33132e-06
1.80429e-07
3.97784e-07
1.80795e-07
3.96345e-08
1.83899e-07
3.9072e-08
4.08298e-07
1.36357e-06
1.84219e-07
9.80722e-07
4.22447e-07
1.35386e-06
1.81905e-07
1.80813e-07
3.95792e-08
1.83976e-07
3.89918e-08
4.07414e-07
9.6558e-07
1.79597e-07
1.32227e-06
1.80717e-07
1.33125e-06
3.98109e-07
1.78547e-07
3.86398e-08
3.90541e-08
1.76968e-07
4.07258e-07
9.64539e-07
1.32191e-06
1.79082e-07
1.33091e-06
1.80238e-07
3.97629e-07
1.78559e-07
3.85446e-08
3.89707e-08
1.76903e-07
9.3862e-08
9.57292e-08
9.29407e-07
9.1473e-08
9.34426e-08
2.00725e-08
1.96728e-08
1.90507e-08
1.93519e-08
9.40538e-07
8.97135e-08
9.17051e-08
9.1386e-08
9.32753e-08
1.93566e-08
1.96259e-08
4.2779e-07
1.41927e-06
1.89517e-07
9.99916e-07
4.40704e-07
1.40427e-06
1.86588e-07
1.88117e-07
4.03972e-08
1.91737e-07
3.99232e-08
1.88037e-07
4.04357e-08
1.91728e-07
3.99579e-08
4.25614e-07
9.86268e-07
1.3717e-06
1.83949e-07
1.38704e-06
1.85407e-07
4.18496e-07
4.25769e-07
9.85528e-07
1.37164e-06
1.84031e-07
1.38704e-06
1.85387e-07
4.17692e-07
1.86742e-07
3.96221e-08
3.98876e-08
1.84634e-07
1.86737e-07
3.96483e-08
3.99231e-08
1.84524e-07
1.97832e-08
1.93554e-08
2.00941e-08
1.96887e-08
9.39796e-07
8.96991e-08
9.16078e-08
9.13172e-08
9.31881e-08
1.90168e-08
1.93101e-08
1.93673e-08
1.96441e-08
1.93613e-08
1.92445e-08
1.9032e-08
1.88606e-08
9.18764e-08
8.96922e-08
8.73682e-07
9.1007e-08
8.85589e-08
1.93542e-08
1.92733e-08
1.89333e-08
1.88791e-08
8.87496e-07
9.1062e-08
8.86573e-08
9.10686e-08
8.87676e-08
1.81951e-07
3.96311e-08
1.83378e-07
3.98413e-08
4.12844e-07
1.83379e-07
1.36712e-06
9.53221e-07
4.16502e-07
1.83996e-07
1.35185e-06
4.12633e-07
1.83349e-07
1.35704e-06
9.49933e-07
4.16572e-07
1.84233e-07
1.34205e-06
1.81739e-07
4.05365e-08
4.00552e-08
1.83363e-07
1.81754e-07
4.06931e-08
4.01538e-08
1.83224e-07
4.14286e-07
9.40203e-07
1.86304e-07
1.32153e-06
1.84289e-07
1.3361e-06
4.14361e-07
4.14155e-07
9.3699e-07
1.86941e-07
1.31139e-06
1.84644e-07
1.32618e-06
4.14215e-07
9.17496e-08
8.97923e-08
8.73635e-07
9.08778e-08
8.87639e-08
1.90385e-08
1.88685e-08
1.94605e-08
1.93137e-08
8.87075e-07
9.15601e-08
8.86192e-08
9.10447e-08
8.88343e-08
1.89155e-08
1.88772e-08
3.93079e-07
1.77745e-07
1.29923e-06
9.34218e-07
3.97361e-07
1.78119e-07
1.29133e-06
1.74836e-07
3.86294e-08
1.74818e-07
3.84321e-08
3.92943e-07
1.29857e-06
1.77752e-07
9.33524e-07
3.97673e-07
1.291e-06
1.77882e-07
1.73678e-07
3.89545e-08
3.86142e-08
1.75817e-07
3.95202e-07
9.19115e-07
1.80283e-07
1.26186e-06
1.7796e-07
1.26791e-06
3.94915e-07
1.73425e-07
3.88745e-08
3.85702e-08
1.75464e-07
3.94921e-07
9.18488e-07
1.26163e-06
1.79783e-07
1.26787e-06
1.77546e-07
3.94656e-07
1.74789e-07
3.86794e-08
1.75016e-07
3.85277e-08
3.92601e-07
1.29806e-06
1.77588e-07
9.32886e-07
3.97394e-07
1.2914e-06
1.77741e-07
1.74551e-07
3.8573e-08
1.74959e-07
3.83737e-08
3.96028e-07
9.19063e-07
1.80176e-07
1.2617e-06
1.78017e-07
1.26703e-06
3.95597e-07
1.73915e-07
3.894e-08
3.8665e-08
1.76037e-07
3.94957e-07
9.17597e-07
1.26181e-06
1.79659e-07
1.26704e-06
1.7745e-07
3.94944e-07
1.73268e-07
3.88466e-08
3.85401e-08
1.76298e-07
8.96949e-08
9.16495e-08
8.73965e-07
8.86603e-08
9.07866e-08
1.93276e-08
1.92184e-08
1.88941e-08
1.88553e-08
8.8787e-07
8.85109e-08
9.09162e-08
8.87304e-08
9.09471e-08
1.93406e-08
1.92477e-08
4.1493e-07
1.35463e-06
1.83243e-07
9.51802e-07
4.17521e-07
1.34009e-06
1.84077e-07
1.82624e-07
3.9638e-08
1.83552e-07
3.97364e-08
1.82518e-07
3.96458e-08
1.8347e-07
3.98111e-08
4.16284e-07
9.3913e-07