/*--------------------------------*- C++ -*----------------------------------*\
| =========                 |                                                 |
| \\      /  F ield         | OpenFOAM: The Open Source CFD Toolbox           |
|  \\    /   O peration     | Version:  2206                                  |
|   \\  /    A nd           | Website:  www.openfoam.com                      |
|    \\/     M anipulation  |                                                 |
\*---------------------------------------------------------------------------*/
FoamFile
{
    version     2.0;
    format      ascii;
    arch        "LSB;label=32;scalar=64";
    class       volVectorField;
    location    "149";
    object      U;
}
// * * * * * * * * * * * * * * * * * * * * * * * * * * * * * * * * * * * * * //

dimensions      [0 1 -1 0 0 0 0];

internalField   nonuniform List<vector> 
66616
(
(0.00040304 0.000400955 0.130579)
(-0.00065499 0.000350235 0.125082)
(0.000350697 -0.00065529 0.125079)
(-0.00093611 -0.000944177 0.12209)
(0.000329535 0.000320099 0.133638)
(-0.00055458 0.000310605 0.12873)
(0.000311612 -0.000552557 0.128921)
(-0.000761806 -0.00077009 0.125789)
(0.000217429 0.000210816 0.135105)
(-0.000364579 0.000218156 0.130049)
(0.000219731 -0.000363652 0.130254)
(-0.00056306 -0.000567152 0.126817)
(0.000192735 0.000186641 0.136258)
(-0.000318094 0.000193682 0.13104)
(0.00019571 -0.000316532 0.131257)
(-0.000504962 -0.000506676 0.12755)
(0.000182583 0.000176374 0.137316)
(-0.000296529 0.000180627 0.131907)
(0.000183794 -0.000295155 0.132134)
(-0.000478581 -0.000479283 0.128188)
(0.000173061 0.000166385 0.138311)
(-0.000279031 0.000168676 0.132693)
(0.000172364 -0.000277511 0.132928)
(-0.000456744 -0.000457104 0.128767)
(0.000162082 0.000154658 0.139244)
(-0.000258879 0.000154016 0.1334)
(0.000158933 -0.000258522 0.133641)
(-0.000432259 -0.000433101 0.129271)
(0.000152061 0.000143065 0.140107)
(-0.000236954 0.000138879 0.134016)
(0.000145306 -0.000237365 0.134254)
(-0.000407177 -0.00040811 0.129664)
(0.000144784 0.000133429 0.140904)
(-0.000216908 0.000124888 0.134538)
(0.000133677 -0.000218338 0.134766)
(-0.000383392 -0.000384407 0.129947)
(0.00014079 0.000125839 0.141639)
(-0.00019927 0.000112425 0.134986)
(0.000123504 -0.000201309 0.135194)
(-0.000360602 -0.000362165 0.130153)
(0.000135552 0.000116917 0.142312)
(-0.000183509 0.000100939 0.135385)
(0.000113856 -0.000185895 0.135553)
(-0.000339639 -0.000342582 0.130295)
(0.000126226 0.000110084 0.142922)
(-0.000170881 9.49971e-05 0.135751)
(0.000106094 -0.000173243 0.135847)
(-0.000318604 -0.000322596 0.130349)
(0.000107785 0.000109326 0.121536)
(0.000386986 0.000348452 0.125336)
(-0.000387507 0.00034869 0.125333)
(-0.000107503 0.000109539 0.121536)
(0.000351301 0.00039109 0.125301)
(0.000348265 -0.000387992 0.125332)
(0.000255343 0.000256471 0.129791)
(-0.000255408 0.000256716 0.12979)
(0.000256619 -0.000256246 0.129788)
(-0.000256559 -0.000256474 0.129788)
(-0.000350973 0.00039137 0.125299)
(-0.000347834 -0.000388582 0.12533)
(0.000108751 -0.000108257 0.121531)
(0.000391134 -0.000351596 0.125292)
(-0.000391867 -0.000351779 0.12529)
(-0.000108264 -0.00010861 0.121522)
(0.000944436 0.000937156 0.122103)
(0.000286399 0.000277311 0.125497)
(0.000356748 0.000657245 0.12506)
(-0.000356292 0.000657407 0.125058)
(0.000359455 0.000647021 0.128423)
(-0.000358614 0.000647725 0.128421)
(-0.000944456 0.000935989 0.122098)
(-0.000287149 0.000275857 0.125497)
(0.000655391 0.000349473 0.125082)
(0.000657173 -0.000355788 0.125053)
(0.000649057 0.000351608 0.128226)
(0.000649692 -0.000357588 0.128226)
(-0.000656719 -0.000356177 0.125052)
(-0.000648995 0.000352098 0.128223)
(-0.000649331 -0.000358436 0.128223)
(0.000936065 -0.000944899 0.122095)
(0.000278527 -0.00028408 0.12549)
(-0.000350109 -0.000655365 0.125076)
(0.000352359 -0.00064776 0.128411)
(-0.000352074 -0.000648069 0.12841)
(-0.000279085 -0.000282711 0.125485)
(0.000769375 0.000764194 0.1258)
(0.000139702 0.000134636 0.126618)
(0.000317541 0.000552171 0.128931)
(-0.000316534 0.000552018 0.12893)
(0.000236381 0.000388516 0.129971)
(-0.00023612 0.000389481 0.129971)
(-0.000769156 0.000763289 0.125798)
(-0.000139084 0.000134739 0.126618)
(0.000555132 0.000309822 0.128732)
(0.000554717 -0.000314712 0.128732)
(0.000390814 0.000231255 0.129759)
(0.000390949 -0.000234606 0.129757)
(-0.000554256 -0.000315233 0.128729)
(-0.000390647 0.000231104 0.129754)
(-0.000390554 -0.000235001 0.129753)
(0.000762272 -0.00077023 0.125795)
(0.000136584 -0.000137243 0.126611)
(-0.000310796 -0.000552588 0.12892)
(0.000231813 -0.000389857 0.129963)
(-0.000231808 -0.000390316 0.129964)
(-0.000136381 -0.000137111 0.126607)
(0.000567118 0.000563642 0.126826)
(8.36591e-05 7.87495e-05 0.127358)
(0.000223688 0.000362916 0.130261)
(-0.000223128 0.00036313 0.130261)
(0.00020328 0.000324968 0.131018)
(-0.000202888 0.000326038 0.131019)
(-0.000565802 0.000564219 0.126826)
(-8.36773e-05 7.84748e-05 0.127359)
(0.000365369 0.000217944 0.130052)
(0.000364754 -0.000220793 0.130051)
(0.000327924 0.000199319 0.130792)
(0.000328031 -0.000201706 0.13079)
(-0.00036416 -0.00022102 0.130047)
(-0.000327507 0.000199256 0.130787)
(-0.00032743 -0.000201982 0.130786)
(0.000563958 -0.000566336 0.126821)
(8.13851e-05 -8.03244e-05 0.127352)
(-0.000219222 -0.000363852 0.130255)
(0.000199771 -0.000325999 0.131013)
(-0.000199643 -0.000326564 0.131015)
(-8.14078e-05 -7.9952e-05 0.127349)
(0.000507871 0.000504119 0.127557)
(5.66404e-05 5.19032e-05 0.127994)
(0.000198764 0.000316056 0.131261)
(-0.000198142 0.000316336 0.131263)
(0.000189605 0.000301306 0.131917)
(-0.000189514 0.000302537 0.131918)
(-0.000507246 0.000504147 0.127557)
(-5.63877e-05 5.20682e-05 0.127995)
(0.000318995 0.000193377 0.131043)
(0.00031838 -0.000195482 0.131042)
(0.000304069 0.000186375 0.131675)
(0.000304366 -0.000188482 0.131673)
(-0.00031766 -0.000195691 0.131039)
(-0.000303502 0.000186126 0.131669)
(-0.000303765 -0.000188731 0.131668)
(0.000505585 -0.000506177 0.127553)
(5.46582e-05 -5.3265e-05 0.127989)
(-0.000195147 -0.000316777 0.131259)
(0.000186786 -0.000302024 0.131912)
(-0.000186713 -0.000302594 0.131916)
(-5.50374e-05 -5.27715e-05 0.127986)
(0.000480821 0.000476987 0.128194)
(3.52382e-05 3.07681e-05 0.128568)
(0.000186177 0.000294993 0.132136)
(-0.000185917 0.000295483 0.132139)
(0.000178403 0.000284547 0.132726)
(-0.000178353 0.000285724 0.132727)
(-0.000479924 0.00047755 0.128194)
(-3.55659e-05 3.03512e-05 0.12857)
(0.000297613 0.000180588 0.13191)
(0.000297157 -0.00018245 0.13191)
(0.000286897 0.000176191 0.132465)
(0.000287218 -0.000177795 0.132465)
(-0.000296531 -0.000182629 0.131906)
(-0.000286412 0.00017612 0.13246)
(-0.000286801 -0.000178101 0.132458)
(0.000478814 -0.000478882 0.12819)
(3.34542e-05 -3.19349e-05 0.128563)
(-0.000183449 -0.00029543 0.132137)
(0.000175982 -0.000284632 0.132723)
(-0.00017595 -0.000285273 0.132726)
(-3.39831e-05 -3.13954e-05 0.128561)
(0.000458666 0.000455039 0.128772)
(1.50323e-05 1.14339e-05 0.129073)
(0.000174519 0.000277843 0.132929)
(-0.000174259 0.000278176 0.132933)
(0.000165631 0.000267012 0.133456)
(-0.000165674 0.000268242 0.133456)
(-0.00045851 0.000455086 0.128772)
(-1.45988e-05 1.10263e-05 0.129075)
(0.000279931 0.000168522 0.132696)
(0.000279554 -0.000169816 0.132697)
(0.00026836 0.000164605 0.133173)
(0.00026891 -0.000166111 0.133174)
(-0.000278919 -0.000170085 0.132693)
(-0.000267948 0.000164327 0.133167)
(-0.000268443 -0.000166367 0.133167)
(0.000456707 -0.000456607 0.128768)
(1.3944e-05 -1.29653e-05 0.129069)
(-0.000172081 -0.000277684 0.132932)
(0.000163243 -0.000266758 0.133454)
(-0.000163042 -0.000267304 0.133457)
(-1.35735e-05 -1.15486e-05 0.129067)
(0.000434213 0.000431393 0.129275)
(-3.23256e-06 -6.7383e-06 0.12947)
(0.000161079 0.000259072 0.13364)
(-0.000160815 0.000259501 0.133644)
(0.000151548 0.000246756 0.134091)
(-0.000151582 0.000248155 0.134092)
(-0.000433621 0.000431835 0.129277)
(3.26078e-06 -7.11311e-06 0.129474)
(0.000259869 0.000154231 0.133403)
(0.000259652 -0.000155558 0.133406)
(0.000247564 0.000152186 0.133781)
(0.000248126 -0.000153461 0.133783)
(-0.00025889 -0.000155625 0.133402)
(-0.000247035 0.000152031 0.133776)
(-0.000247646 -0.000153637 0.133778)
(0.000432734 -0.000433178 0.129273)
(-4.95004e-06 5.79194e-06 0.129468)
(-0.000158505 -0.000258615 0.133644)
(0.000149454 -0.000246594 0.13409)
(-0.000149254 -0.000247136 0.134094)
(4.55204e-06 6.36895e-06 0.129466)
(0.000408506 0.000406041 0.129665)
(-1.87694e-05 -2.16779e-05 0.129758)
(0.000147041 0.000237929 0.134252)
(-0.000147007 0.000238529 0.134259)
(0.000139536 0.000227937 0.134623)
(-0.000139922 0.000229496 0.134623)
(-0.000408556 0.000406465 0.129667)
(1.92824e-05 -2.17592e-05 0.129762)
(0.000237974 0.000138946 0.134017)
(0.000237795 -0.000140031 0.134022)
(0.000227689 0.000142098 0.134277)
(0.000228506 -0.000142881 0.134282)
(-0.000237006 -0.000139885 0.134022)
(-0.000227474 0.000141815 0.134273)
(-0.000228464 -0.000143484 0.134279)
(0.000406582 -0.000407175 0.129664)
(-1.99428e-05 2.09063e-05 0.129757)
(-0.000144957 -0.000237682 0.13426)
(0.00013769 -0.000227303 0.134622)
(-0.000137892 -0.000228135 0.134627)
(1.97565e-05 2.18427e-05 0.129756)
(0.000383747 0.000382344 0.129944)
(-3.04287e-05 -3.27091e-05 0.129973)
(0.000135281 0.000219479 0.134764)
(-0.000135131 0.000220066 0.134772)
(0.00012967 0.000211677 0.135065)
(-0.000129226 0.000213149 0.135066)
(-0.000383816 0.000383415 0.12995)
(3.09783e-05 -3.40084e-05 0.129981)
(0.000217822 0.000125138 0.134536)
(0.000217841 -0.000125761 0.134543)
(0.000210673 0.000134356 0.134672)
(0.000211918 -0.00013403 0.134681)
(-0.000217379 -0.000126092 0.134546)
(-0.000210511 0.000134059 0.134671)
(-0.000211816 -0.00013479 0.134678)
(0.000382422 -0.000383204 0.129945)
(-3.10963e-05 3.37194e-05 0.129976)
(-0.000133601 -0.000218642 0.134773)
(0.000127738 -0.000210073 0.135068)
(-0.000127787 -0.000211137 0.13507)
(3.23461e-05 3.47467e-05 0.129973)
(0.000361626 0.000361939 0.130143)
(-3.82403e-05 -4.17596e-05 0.13015)
(0.000125177 0.000203314 0.135189)
(-0.000124103 0.000203649 0.1352)
(0.000120871 0.000196054 0.13544)
(-0.000120716 0.000197238 0.135441)
(-0.000362061 0.000362097 0.130157)
(3.95736e-05 -4.34287e-05 0.130148)
(0.000200665 0.000112933 0.134983)
(0.000200782 -0.000112283 0.134992)
(0.000195192 0.000126918 0.134983)
(0.000196038 -0.000126451 0.134991)
(-0.000199986 -0.000112515 0.134997)
(-0.000194617 0.000126412 0.134983)
(-0.000196027 -0.000126834 0.134988)
(0.000360221 -0.000360605 0.130147)
(-3.94738e-05 4.17033e-05 0.130148)
(-0.000122729 -0.000201617 0.135201)
(0.00011875 -0.000193817 0.135443)
(-0.000118659 -0.000195254 0.135444)
(4.10192e-05 4.38278e-05 0.130145)
(0.000340004 0.000341177 0.130277)
(-4.28139e-05 -4.80384e-05 0.130315)
(0.000115757 0.00018801 0.135548)
(-0.000114348 0.000187892 0.135562)
(0.000112335 0.000179839 0.135756)
(-0.000111776 0.000180573 0.135756)
(-0.000340705 0.000341733 0.130295)
(4.61639e-05 -5.09158e-05 0.130293)
(0.000185442 0.000101729 0.135384)
(0.000185156 -0.000101762 0.13539)
(0.000178668 0.000116006 0.13521)
(0.000179615 -0.00011714 0.135215)
(-0.000184074 -0.000101487 0.135398)
(-0.000177992 0.000115709 0.135208)
(-0.000179086 -0.000116982 0.135215)
(0.000337831 -0.000340763 0.130275)
(-4.41061e-05 4.6919e-05 0.130307)
(-0.000112468 -0.000186207 0.13556)
(0.000110682 -0.000178697 0.135758)
(-0.000109946 -0.000179741 0.135761)
(4.76967e-05 5.04208e-05 0.130291)
(0.00031703 0.000319829 0.130311)
(0.0001077 0.000174391 0.135846)
(-0.00010622 0.000173985 0.135863)
(-0.000319065 0.000321939 0.130349)
(0.000173162 9.59092e-05 0.135756)
(0.000173031 -9.71446e-05 0.135756)
(-0.000170994 -9.63365e-05 0.135767)
(0.000315381 -0.000319948 0.130302)
(-0.00010386 -0.000173024 0.135857)
(1.3588e-05 1.35407e-05 0.13495)
(0.000206164 0.000206458 0.127404)
(1.44977e-05 0.000189544 0.131378)
(0.000190759 1.49444e-05 0.131372)
(-0.000478743 2.44298e-05 0.110213)
(-0.000189537 0.000227044 0.124692)
(-0.000348809 0.000278218 0.082594)
(-0.000208151 1.32639e-05 0.129573)
(2.36747e-05 -0.000477254 0.11022)
(0.000226771 -0.00018997 0.124685)
(1.30908e-05 -0.000207602 0.129566)
(0.000277422 -0.000349307 0.0825936)
(-0.000189785 -0.000186368 0.120579)
(-0.000218567 -0.000441465 0.0730058)
(-0.000440053 -0.000218286 0.07301)
(4.42727e-05 0.00116461 0.103845)
(0.000901408 -0.000576815 0.067217)
(0.00010213 0.000899343 0.10038)
(-7.24953e-05 0.000591843 0.0790476)
(-0.000397578 -0.000177579 0.0652865)
(0.000515211 0.000658767 0.069816)
(0.00116751 4.63203e-05 0.103697)
(-0.000585117 0.000904171 0.0673231)
(0.00089475 9.70237e-05 0.100507)
(0.000593053 -6.85527e-05 0.0789746)
(-0.000403047 0.000401111 0.130577)
(0.000401631 -0.000401982 0.130576)
(-0.000401569 -0.000402161 0.130576)
(0.000385201 0.000377014 0.133109)
(-0.00038548 0.000377344 0.13311)
(0.000378817 -0.000384559 0.133107)
(-0.000378629 -0.000384386 0.133107)
(-0.00119491 4.31781e-05 0.116731)
(-0.000793183 0.000536682 0.0993257)
(-0.00064577 0.000129838 0.127998)
(-0.000731467 0.000374074 0.126428)
(-0.00107343 0.000102751 0.113698)
(-0.0011267 0.000153522 0.105224)
(-0.000732585 0.00017002 0.129195)
(-0.000182554 -0.00040045 0.0653549)
(0.000659213 0.000511812 0.0697913)
(4.24511e-05 -0.00118954 0.116809)
(0.000129619 -0.000644394 0.127983)
(0.000538877 -0.000798321 0.0992476)
(0.000372552 -0.000731018 0.126417)
(0.000105668 -0.0010787 0.113596)
(0.000170225 -0.000732906 0.129204)
(0.000148345 -0.00112473 0.105302)
(-0.000473662 -0.000501229 0.087432)
(-0.000501935 -0.000475863 0.0874136)
(-0.000239565 -0.000247276 0.123984)
(-0.000774841 2.75179e-05 0.0910569)
(3.41938e-05 -0.000779743 0.0910815)
(-1.41447e-05 0.000542714 0.104722)
(0.000114073 0.000412105 0.0790932)
(-1.26448e-05 0.000901858 0.105168)
(0.000101128 0.000170929 0.0784502)
(-4.39777e-05 0.000382731 0.068291)
(-7.46903e-05 0.000152381 0.0675787)
(0.000544132 -1.34603e-05 0.103791)
(0.000409986 0.000101431 0.0788878)
(0.000899702 -1.47526e-05 0.104816)
(0.000169774 0.000104259 0.0780448)
(-0.000328965 0.000319958 0.133638)
(0.000323985 -0.000325253 0.133635)
(-0.000323646 -0.000325342 0.133636)
(0.00023 0.000224324 0.134774)
(-0.000230218 0.000224785 0.134775)
(0.00022666 -0.00022798 0.134773)
(-0.000226377 -0.000227785 0.134773)
(-0.000553396 2.57886e-06 0.11839)
(-0.000745605 0.000199606 0.106079)
(-0.000540333 0.000116269 0.131406)
(-0.000479864 0.000275193 0.129115)
(-0.000872693 5.71714e-06 0.118776)
(-0.000448375 9.43123e-05 0.105299)
(-0.000464043 9.82782e-05 0.131805)
(0.000381032 -3.36407e-05 0.0682216)
(0.000152191 -7.81923e-05 0.0673955)
(2.24588e-06 -0.00055247 0.119214)
(0.000116294 -0.000535865 0.131732)
(0.000206117 -0.000744601 0.106396)
(0.000276124 -0.000478549 0.129315)
(8.73238e-06 -0.000871631 0.119118)
(9.91777e-05 -0.000460835 0.13214)
(8.71998e-05 -0.000452519 0.105895)
(-0.000517659 -0.000194839 0.0922622)
(-0.000203451 -0.000516057 0.0924475)
(-0.000194811 -0.000196915 0.126149)
(-0.000301688 -0.000126159 0.0916183)
(-0.00011966 -0.00030502 0.0919648)
(-4.10549e-07 0.000325093 0.10348)
(0.000108532 0.000166749 0.0774215)
(-3.84139e-06 0.000496237 0.104026)
(7.89662e-05 6.54451e-05 0.0768957)
(-0.000102914 8.90904e-05 0.0666069)
(-7.3055e-05 4.53869e-05 0.0661177)
(0.000327957 2.37443e-07 0.102457)
(0.000162149 9.99658e-05 0.0771881)
(0.000485697 -6.3786e-06 0.103467)
(6.77328e-05 8.37392e-05 0.0764638)
(-0.000216875 0.000210776 0.135105)
(0.000213937 -0.000213347 0.135103)
(-0.000213631 -0.000213388 0.135104)
(0.000194386 0.000190331 0.135965)
(-0.000194401 0.000190698 0.135966)
(0.000191887 -0.000193169 0.135965)
(-0.000191456 -0.000192973 0.135965)
(-0.000376032 8.98403e-06 0.118415)
(-0.000389228 0.000148238 0.105023)
(-0.000350315 7.22312e-05 0.132802)
(-0.000348186 0.000210287 0.130299)
(-0.000529635 4.30743e-06 0.118988)
(-0.000268443 9.00061e-05 0.104264)
(-0.000335343 6.78791e-05 0.133069)
(8.80223e-05 -9.50589e-05 0.0665272)
(4.77205e-05 -7.65427e-05 0.0659172)
(8.14485e-06 -0.000372805 0.119328)
(7.34235e-05 -0.000346834 0.13313)
(0.000157175 -0.000390465 0.105366)
(0.000210843 -0.000347029 0.130516)
(6.67976e-06 -0.000529061 0.119427)
(6.90644e-05 -0.000331582 0.133413)
(8.34361e-05 -0.000270206 0.104901)
(-0.000219404 -0.000161078 0.0911505)
(-0.000171476 -0.000217502 0.0913556)
(-0.000101717 -0.000101053 0.126996)
(-0.000164012 -0.000109921 0.0903752)
(-0.000104545 -0.000164561 0.0907472)
(6.27158e-06 0.000247883 0.102367)
(7.89764e-05 0.000136551 0.0760832)
(5.36711e-06 0.000389585 0.102878)
(5.245e-05 5.29572e-05 0.075639)
(-8.2922e-05 7.0271e-05 0.0653695)
(-5.37135e-05 3.95498e-05 0.0649431)
(0.00025213 7.19573e-06 0.101275)
(0.000134084 6.96332e-05 0.0758304)
(0.000379541 2.80867e-06 0.102267)
(5.67554e-05 5.72805e-05 0.0751846)
(-0.000192169 0.000186628 0.136259)
(0.000189873 -0.000188601 0.136257)
(-0.00018951 -0.000188651 0.136258)
(0.000181863 0.000179029 0.137036)
(-0.000181977 0.000179594 0.137036)
(0.000179591 -0.000181385 0.137037)
(-0.000179424 -0.000181472 0.137036)
(-0.000319867 1.31592e-05 0.118307)
(-0.000305996 0.000148974 0.104091)
(-0.000310488 6.11906e-05 0.133892)
(-0.000312932 0.000191886 0.131243)
(-0.000449428 9.57426e-06 0.118972)
(-0.000213476 8.79916e-05 0.103338)
(-0.00030701 5.94103e-05 0.134117)
(7.06276e-05 -7.41446e-05 0.065274)
(4.37243e-05 -5.66022e-05 0.0647268)
(1.20118e-05 -0.000316601 0.119302)
(6.22239e-05 -0.00030646 0.134226)
(0.000160016 -0.000306646 0.104455)
(0.000192371 -0.000311235 0.131477)
(1.1845e-05 -0.000448992 0.119453)
(6.04267e-05 -0.000302893 0.134475)
(8.29461e-05 -0.000214149 0.10401)
(-0.000170214 -0.000141936 0.0898735)
(-0.000154189 -0.000167172 0.090092)
(-6.58801e-05 -6.39373e-05 0.127677)
(-0.000136366 -9.19758e-05 0.0890881)
(-8.72164e-05 -0.000136464 0.0894767)
(8.77306e-06 0.00020428 0.101365)
(5.89689e-05 0.000131715 0.0749305)
(9.23001e-06 0.000337511 0.101847)
(3.71817e-05 5.08008e-05 0.074517)
(-6.59717e-05 7.00964e-05 0.0642827)
(-3.95214e-05 4.18016e-05 0.0638854)
(0.000209458 1.01207e-05 0.100215)
(0.000129109 4.98686e-05 0.0746611)
(0.000327013 6.86329e-06 0.101194)
(5.49237e-05 4.2197e-05 0.0740445)
(-0.000182137 0.000176498 0.137317)
(0.000180218 -0.000178248 0.137316)
(-0.000179846 -0.000178158 0.137317)
(0.000171162 0.00016979 0.138039)
(-0.000171534 0.000170565 0.138039)
(0.000169643 -0.000172302 0.138041)
(-0.000169527 -0.000172475 0.138041)
(-0.000286523 1.52599e-05 0.118143)
(-0.00027137 0.000141594 0.103228)
(-0.00029471 5.63718e-05 0.134884)
(-0.000293807 0.000181103 0.132076)
(-0.000409554 1.23361e-05 0.118873)
(-0.000189035 8.15269e-05 0.10247)
(-0.000293228 5.53739e-05 0.135074)
(7.0239e-05 -5.69518e-05 0.0641728)
(4.45867e-05 -4.31522e-05 0.0636541)
(1.40997e-05 -0.000282999 0.119217)
(5.73079e-05 -0.000291031 0.135222)
(0.000154601 -0.000272014 0.103615)
(0.000181438 -0.000292205 0.132329)
(1.48249e-05 -0.000410114 0.119397)
(5.61786e-05 -0.000289327 0.135451)
(7.65499e-05 -0.000188948 0.103177)
(-0.000155611 -0.000124115 0.0886343)
(-0.000137219 -0.000152921 0.0888614)
(-4.3799e-05 -4.12577e-05 0.128281)
(-0.000126502 -7.73048e-05 0.0878601)
(-7.29014e-05 -0.000126166 0.0882612)
(8.67646e-06 0.000166689 0.100453)
(4.92005e-05 0.000124813 0.073883)
(9.78454e-06 0.000296367 0.100912)
(2.9815e-05 4.49497e-05 0.0735029)
(-5.63237e-05 6.73489e-05 0.0632913)
(-3.31103e-05 3.73715e-05 0.062925)
(0.000173326 1.01339e-05 0.0992569)
(0.000122464 3.97975e-05 0.0735959)
(0.000286522 7.71503e-06 0.100221)
(4.93927e-05 3.52714e-05 0.0730117)
(-0.000172933 0.000166661 0.138313)
(0.000171094 -0.000168158 0.138312)
(-0.000171177 -0.000168454 0.138314)
(0.000158558 0.00015924 0.138979)
(-0.00015861 0.000159791 0.138979)
(0.00015706 -0.000161393 0.138981)
(-0.000156452 -0.000161386 0.138981)
(-0.000252594 1.53988e-05 0.11794)
(-0.000246198 0.000131672 0.102411)
(-0.000280531 5.28611e-05 0.13581)
(-0.000276805 0.000170419 0.132826)
(-0.000374028 1.34418e-05 0.118728)
(-0.00016645 7.16457e-05 0.101652)
(-0.000279828 5.19041e-05 0.135959)
(6.70712e-05 -4.76406e-05 0.0631714)
(4.12323e-05 -3.69296e-05 0.0626855)
(1.44629e-05 -0.00024906 0.119083)
(5.3532e-05 -0.000277444 0.136151)
(0.000144547 -0.000246894 0.10282)
(0.000169745 -0.000275017 0.133101)
(1.58876e-05 -0.000375153 0.119297)
(5.24203e-05 -0.000276259 0.13636)
(6.68287e-05 -0.000165492 0.102386)
(-0.000142656 -0.000110179 0.0874726)
(-0.000123476 -0.000139702 0.0877086)
(-2.2808e-05 -2.04259e-05 0.128825)
(-0.000113051 -6.61015e-05 0.0867246)
(-6.11232e-05 -0.000112508 0.0871368)
(8.24426e-06 0.000130142 0.0996404)
(4.25089e-05 0.000113821 0.072956)
(9.13702e-06 0.000256124 0.100067)
(2.47279e-05 3.54584e-05 0.0726208)
(-5.00241e-05 6.06276e-05 0.0624161)
(-2.74304e-05 3.26686e-05 0.0620927)
(0.000137553 9.37131e-06 0.0984157)
(0.000110647 3.4069e-05 0.0726532)
(0.000246344 6.83425e-06 0.0993471)
(3.92371e-05 3.11412e-05 0.0721147)
(-0.000161795 0.000154789 0.139247)
(0.000159961 -0.00015607 0.139245)
(-0.000159927 -0.000156402 0.139249)
(0.000144869 0.000148301 0.139849)
(-0.000145011 0.000148865 0.139847)
(0.000143146 -0.00015009 0.139852)
(-0.000142873 -0.000150349 0.139848)
(-0.000214375 1.41768e-05 0.117684)
(-0.000216774 0.000116618 0.101649)
(-0.000264225 4.8577e-05 0.136668)
(-0.000256695 0.000157926 0.133486)
(-0.000332966 1.27661e-05 0.118522)
(-0.00013935 5.90967e-05 0.100903)
(-0.000264441 4.7408e-05 0.13676)
(6.00752e-05 -4.16832e-05 0.0622848)
(3.48699e-05 -3.23106e-05 0.0618405)
(1.34427e-05 -0.000211176 0.118883)
(4.8949e-05 -0.000263074 0.137009)
(0.00013033 -0.000217701 0.102074)
(0.000155995 -0.000256074 0.133786)
(1.55765e-05 -0.000335649 0.11913)
(4.78106e-05 -0.000262245 0.137191)
(5.40478e-05 -0.000138484 0.101654)
(-0.000124166 -9.60618e-05 0.0864278)
(-0.000108957 -0.000121194 0.0866717)
(-3.29363e-06 -1.4686e-06 0.129281)
(-9.51851e-05 -5.41891e-05 0.0857223)
(-4.88308e-05 -9.43195e-05 0.0861435)
(7.17367e-06 0.000100411 0.0989228)
(3.50891e-05 9.96376e-05 0.0721701)
(8.28181e-06 0.000219332 0.0993235)
(1.59575e-05 2.50545e-05 0.0718789)
(-4.12044e-05 5.29708e-05 0.0616753)
(-1.79384e-05 2.57808e-05 0.0613959)
(0.000107715 8.87374e-06 0.0976865)
(9.58808e-05 2.74189e-05 0.0718556)
(0.000208738 6.2971e-06 0.0985821)
(2.86664e-05 2.28086e-05 0.0713674)
(-0.000151589 0.000142968 0.14011)
(0.000149925 -0.000144311 0.140109)
(-0.000149809 -0.000144451 0.140112)
(0.000132946 0.000139935 0.140648)
(-0.00013318 0.000140509 0.140643)
(0.000131555 -0.000141423 0.140652)
(-0.000131073 -0.000141621 0.140645)
(-0.000180751 1.29787e-05 0.117379)
(-0.000185682 9.9971e-05 0.100952)
(-0.000246715 4.40377e-05 0.137443)
(-0.000236239 0.000146708 0.134039)
(-0.000292001 1.13264e-05 0.118247)
(-0.000114115 4.33536e-05 0.100224)
(-0.000249172 4.35419e-05 0.13746)
(5.18927e-05 -3.40903e-05 0.06153)
(2.89255e-05 -2.29112e-05 0.0611376)
(1.08422e-05 -0.000178229 0.118623)
(4.43095e-05 -0.000247202 0.13778)
(0.000112432 -0.000188032 0.101388)
(0.000143232 -0.000235643 0.134369)
(1.31911e-05 -0.000296597 0.118897)
(4.37331e-05 -0.000246816 0.13793)
(3.76688e-05 -0.0001131 0.100986)
(-0.000104175 -8.01248e-05 0.0855241)
(-9.25404e-05 -0.000102132 0.0857767)
(1.33046e-05 1.52756e-05 0.129622)
(-7.89146e-05 -3.85955e-05 0.0848704)
(-3.28195e-05 -7.83938e-05 0.0852988)
(6.20541e-06 7.87554e-05 0.098276)
(2.66331e-05 8.86683e-05 0.0714929)
(6.6772e-06 0.000191447 0.0986469)
(1.05222e-05 1.73732e-05 0.0712445)
(-3.33448e-05 4.69527e-05 0.061052)
(-1.15792e-05 2.26148e-05 0.0608119)
(8.61082e-05 8.0601e-06 0.0970424)
(8.4429e-05 2.03856e-05 0.0711712)
(0.000180574 5.86959e-06 0.0978868)
(2.09319e-05 1.74788e-05 0.0707324)
(-0.000144453 0.000133557 0.140907)
(0.000143076 -0.000134563 0.140907)
(-0.000142994 -0.000134723 0.14091)
(0.000123431 0.000134423 0.141383)
(-0.000122359 0.000134124 0.141378)
(0.000121608 -0.000134544 0.141387)
(-0.000120829 -0.000134936 0.14138)
(-0.000154937 1.16495e-05 0.117054)
(-0.000162127 8.47909e-05 0.100303)
(-0.000229644 4.09534e-05 0.13814)
(-0.000217962 0.00013762 0.134485)
(-0.000260393 9.99614e-06 0.117921)
(-9.54423e-05 3.31291e-05 0.0996058)
(-0.000235315 4.12423e-05 0.138063)
(4.52868e-05 -2.58926e-05 0.0609016)
(2.40461e-05 -1.64853e-05 0.0605586)
(1.03452e-05 -0.000152686 0.118326)
(4.10173e-05 -0.00023236 0.138467)
(9.54905e-05 -0.000165063 0.100752)
(0.000132403 -0.000217834 0.134856)
(1.13909e-05 -0.000265991 0.11861)
(4.11527e-05 -0.000232083 0.138583)
(2.64192e-05 -9.50612e-05 0.100377)
(-8.91908e-05 -6.57537e-05 0.0847508)
(-7.73146e-05 -8.81124e-05 0.0850105)
(2.69065e-05 2.912e-05 0.129872)
(-6.64857e-05 -2.7906e-05 0.0841502)
(-2.19896e-05 -6.69634e-05 0.0845771)
(6.63643e-06 6.30443e-05 0.0977001)
(2.30826e-05 8.11902e-05 0.070897)
(6.23558e-06 0.000170556 0.0980291)
(9.00906e-06 1.14014e-05 0.070698)
(-2.80979e-05 4.24587e-05 0.0605118)
(-7.64617e-06 1.75951e-05 0.0603123)
(6.8177e-05 8.14418e-06 0.0964854)
(7.61076e-05 1.86928e-05 0.0705642)
(0.000160344 5.95122e-06 0.0972372)
(1.42367e-05 1.47641e-05 0.0701944)
(-0.000139415 0.00012549 0.141646)
(0.000138639 -0.000125651 0.141644)
(-0.000137656 -0.000125382 0.141651)
(0.000114421 0.000128934 0.142058)
(-0.000113849 0.000128995 0.142052)
(0.000112967 -0.000129116 0.142064)
(-0.000112138 -0.000129654 0.142056)
(-0.000132286 9.58099e-06 0.11674)
(-0.000143263 7.57491e-05 0.0996921)
(-0.0002134 3.84058e-05 0.138778)
(-0.000201818 0.000130446 0.134838)
(-0.000233333 8.72108e-06 0.117557)
(-7.98132e-05 2.35216e-05 0.0990614)
(-0.000222311 3.90846e-05 0.138576)
(4.01685e-05 -2.27773e-05 0.06036)
(1.92021e-05 -1.27781e-05 0.0600786)
(9.50622e-06 -0.00012969 0.118017)
(3.83895e-05 -0.000218828 0.139087)
(8.51102e-05 -0.000147349 0.100153)
(0.000123122 -0.000201028 0.135264)
(9.99402e-06 -0.000239325 0.118292)
(3.9043e-05 -0.000216826 0.139159)
(1.91931e-05 -7.86183e-05 0.0998372)
(-7.62396e-05 -5.84359e-05 0.0840729)
(-6.85119e-05 -7.66177e-05 0.084338)
(3.76558e-05 4.03234e-05 0.130063)
(-5.51012e-05 -2.14796e-05 0.0835396)
(-1.51997e-05 -5.63119e-05 0.0839577)
(5.61707e-06 4.60025e-05 0.0972085)
(2.15084e-05 7.54654e-05 0.0703549)
(4.97255e-06 0.000153114 0.0974589)
(8.44096e-06 2.08173e-06 0.0702496)
(-2.75879e-05 3.8128e-05 0.0600312)
(-5.84722e-06 1.31597e-05 0.0598965)
(4.77737e-05 6.12525e-06 0.0960362)
(7.18103e-05 1.67895e-05 0.0700059)
(0.00014666 5.13966e-06 0.0966105)
(5.1548e-06 9.8099e-06 0.0697514)
(-0.000134297 0.000116708 0.142324)
(0.000133944 -0.000117465 0.142319)
(-0.000133034 -0.000117414 0.14233)
(0.00010899 0.000122387 0.142677)
(-0.000108589 0.000122174 0.142671)
(0.000107953 -0.000123593 0.142684)
(-0.000106214 -0.000123592 0.142672)
(-0.000108662 8.47546e-06 0.116476)
(-0.000131077 6.72196e-05 0.0991052)
(-0.000197374 3.50818e-05 0.139371)
(-0.000185813 0.000121637 0.135108)
(-0.000212157 7.36976e-06 0.117149)
(-6.2523e-05 1.5287e-05 0.0986088)
(-0.000208986 3.64966e-05 0.139004)
(3.75016e-05 -2.09429e-05 0.0598714)
(1.22578e-05 -9.30529e-06 0.059688)
(1.00907e-05 -0.00010827 0.117713)
(3.5356e-05 -0.000206602 0.139653)
(7.58877e-05 -0.000132356 0.0995752)
(0.000114649 -0.000185518 0.135608)
(8.38233e-06 -0.000216355 0.117952)
(3.72397e-05 -0.000201117 0.13966)
(1.17867e-05 -6.26791e-05 0.0993903)
(-6.84808e-05 -5.39148e-05 0.0834555)
(-6.29724e-05 -6.75899e-05 0.0837333)
(4.54086e-05 4.77954e-05 0.13022)
(-4.35491e-05 -1.3842e-05 0.0830298)
(-6.20656e-06 -4.65633e-05 0.0834326)
(5.12954e-06 3.61439e-05 0.0961236)
(2.10246e-05 7.35112e-05 0.069859)
(3.57384e-06 0.00014051 0.0969169)
(-1.58213e-06 -2.45178e-06 0.0696583)
(-2.83114e-05 3.58042e-05 0.0596066)
(3.28609e-06 6.08501e-06 0.0594522)
(7.25221e-05 1.7594e-05 0.0694926)
(0.000138724 3.84255e-06 0.0959778)
(-0.000125255 0.000110369 0.14294)
(0.000125917 -0.000112047 0.142932)
(-0.000123531 -0.000110965 0.142947)
(-9.04156e-05 8.12441e-06 0.116318)
(-0.000120468 6.23721e-05 0.0985103)
(-0.000186237 3.23395e-05 0.13993)
(-0.000168421 0.000106185 0.135288)
(-0.000193382 7.13455e-06 0.116659)
(-4.74797e-05 1.10351e-05 0.098279)
(-0.000190464 3.29622e-05 0.139341)
(3.91391e-05 -2.2461e-05 0.0594313)
(9.23727e-06 -9.28581e-05 0.116777)
(3.35933e-05 -0.000195618 0.140178)
(7.05441e-05 -0.000121663 0.0989628)
(7.84974e-06 -0.000197218 0.117603)
(3.60441e-05 -0.00018804 0.140024)
(-6.40777e-05 -4.97391e-05 0.0828818)
(-5.90647e-05 -5.97196e-05 0.0831845)
(5.02854e-05 5.47732e-05 0.130373)
(-3.15143e-05 -9.76133e-06 0.0826364)
(-3.71089e-06 -4.09801e-05 0.0828389)
(0.00018558 0.000190563 0.120593)
(0.00043935 0.000208627 0.0730863)
(0.000209037 0.00043992 0.0730864)
(0.000456379 -0.000788475 0.0440301)
(0.000450628 0.000172704 0.0600066)
(-0.000796723 0.000465379 0.0439952)
(0.000173419 0.000451185 0.0600106)
(0.000348886 0.000341363 0.120372)
(0.000212423 -0.000149464 0.0799904)
(-0.000154019 0.000226419 0.0799706)
(5.90952e-05 0.00037319 0.0757044)
(0.000373716 5.77818e-05 0.0757133)
(2.37785e-05 0.00047716 0.110225)
(0.000224293 0.000189911 0.1247)
(0.000277456 0.000348731 0.0825939)
(1.29956e-05 0.000207659 0.129571)
(-2.39789e-05 0.000477274 0.110227)
(-0.000224578 0.000190085 0.124697)
(-0.000275173 0.000349296 0.0825873)
(-1.30467e-05 0.000207626 0.129571)
(1.23619e-05 0.000618023 0.0947964)
(0.00167005 -0.00352716 0.0356258)
(0.00036572 -1.4448e-05 0.065936)
(-0.000162173 7.0739e-06 0.097004)
(-1.26461e-05 0.000617857 0.0947995)
(-0.0016712 -0.00352801 0.035625)
(-0.000361691 -1.22774e-05 0.0659315)
(0.000161464 7.16711e-06 0.0970079)
(6.90877e-05 0.000509653 0.110085)
(0.000256836 0.000355547 0.124541)
(0.000807328 -0.000472472 0.0866351)
(7.9671e-05 0.000322549 0.126761)
(0.000217695 0.000543404 0.085796)
(5.01812e-05 0.000266602 0.12849)
(-4.95866e-05 0.000317017 0.112481)
(-6.91475e-05 0.000509735 0.110086)
(-0.000257005 0.000355745 0.124539)
(-0.00080882 -0.000474028 0.0866345)
(-7.99859e-05 0.000322723 0.126761)
(-0.000218055 0.000542805 0.0858136)
(-5.03044e-05 0.000266596 0.12849)
(4.90049e-05 0.000317165 0.112483)
(-0.00018579 0.000190523 0.120591)
(-0.000440182 0.000218513 0.0730127)
(-0.000208806 0.000439974 0.0730903)