/*--------------------------------*- C++ -*----------------------------------*\
| =========                 |                                                 |
| \\      /  F ield         | OpenFOAM: The Open Source CFD Toolbox           |
|  \\    /   O peration     | Version:  2206                                  |
|   \\  /    A nd           | Website:  www.openfoam.com                      |
|    \\/     M anipulation  |                                                 |
\*---------------------------------------------------------------------------*/
FoamFile
{
    version     2.0;
    format      ascii;
    arch        "LSB;label=32;scalar=64";
    class       volVectorField;
    location    "149";
    object      wallShearStress;
}
// * * * * * * * * * * * * * * * * * * * * * * * * * * * * * * * * * * * * * //

dimensions      [0 2 -2 0 0 0 0];

internalField   uniform (0 0 0);

boundaryField
{
    topPatch
    {
        type            calculated;
        value           uniform (0 0 0);
    }
    wall
    {
        type            calculated;
        value           nonuniform List<vector> 
7742
(
(1.54457e-05 7.31854e-06 -0.00012735)
(1.49393e-05 4.81739e-05 -3.99832e-05)
(-1.54468e-05 7.32071e-06 -0.000127352)
(7.29116e-06 1.54587e-05 -0.000127459)
(4.83907e-05 1.49866e-05 -3.93183e-05)
(7.28927e-06 -1.54535e-05 -0.000127455)
(-7.28945e-06 1.54594e-05 -0.000127447)
(-7.28864e-06 -1.54533e-05 -0.000127457)
(1.54462e-05 -7.31871e-06 -0.000127334)
(1.49356e-05 -4.81688e-05 -4.00005e-05)
(-1.54416e-05 -7.3223e-06 -0.00012734)
(-1.49305e-05 -4.81669e-05 -4.00061e-05)
(-3.94323e-06 1.04948e-05 -0.000134853)
(1.76587e-05 2.2447e-05 -0.000100071)
(-7.53469e-07 -3.63975e-06 -0.000150606)
(1.04955e-05 -3.95576e-06 -0.000134887)
(2.24381e-05 1.76535e-05 -0.00010009)
(-3.63432e-06 -7.52122e-07 -0.000150638)
(5.44895e-06 1.90817e-07 -0.000121793)
(-5.44433e-06 1.90307e-07 -0.000121788)
(4.0783e-06 1.04973e-05 -0.000134816)
(7.41521e-07 -3.66172e-06 -0.00015054)
(-1.74468e-05 2.24769e-05 -0.000100552)
(-1.0496e-05 -3.95716e-06 -0.000134888)
(-2.24383e-05 1.76501e-05 -0.000100091)
(3.63363e-06 -7.54453e-07 -0.000150639)
(2.08529e-07 5.50054e-06 -0.000121851)
(2.08653e-07 -5.50041e-06 -0.000121855)
(-2.06333e-07 5.50006e-06 -0.00012185)
(-2.10539e-07 -5.49838e-06 -0.000121859)
(1.05008e-05 4.08932e-06 -0.000134867)
(-3.65702e-06 7.3956e-07 -0.00015059)
(2.24654e-05 -1.74416e-05 -0.000100594)
(-3.93825e-06 -1.04946e-05 -0.000134871)
(1.76635e-05 -2.24508e-05 -0.000100075)
(-7.55037e-07 3.63936e-06 -0.000150627)
(5.44913e-06 -1.88932e-07 -0.000121802)
(-5.44251e-06 -1.87904e-07 -0.000121792)
(-1.04991e-05 4.09192e-06 -0.000134857)
(3.65576e-06 7.39493e-07 -0.000150574)
(-2.24596e-05 -1.74336e-05 -0.000100594)
(4.06902e-06 -1.05009e-05 -0.000134832)
(7.42512e-07 3.66333e-06 -0.000150569)
(-1.74512e-05 -2.24766e-05 -0.000100561)
(9.81303e-06 -5.91432e-06 -0.000107651)
(-9.80891e-06 -5.91251e-06 -0.000107643)
(-4.83275e-06 -4.03684e-06 -0.000131719)
(-5.85144e-06 9.79471e-06 -0.000107677)
(5.75975e-07 -5.53221e-06 -0.000152239)
(-5.83702e-06 -9.78923e-06 -0.000107698)
(-3.96799e-06 -4.82234e-06 -0.000131789)
(5.84529e-06 9.79538e-06 -0.000107672)
(5.83559e-06 -9.78798e-06 -0.0001077)
(3.96751e-06 -4.82295e-06 -0.000131779)
(-5.75355e-07 5.53769e-06 -0.000152247)
(9.81913e-06 5.91576e-06 -0.000107631)
(4.84705e-06 4.04271e-06 -0.000131702)
(-9.81541e-06 5.91521e-06 -0.000107628)
(-1.49328e-05 4.81679e-05 -3.99888e-05)
(4.83932e-05 -1.49877e-05 -3.93235e-05)
(-4.83906e-05 -1.49881e-05 -3.93299e-05)
(4.84002e-06 -4.04044e-06 -0.000131724)
(-3.97325e-06 4.82618e-06 -0.000131778)
(-4.83852e-05 1.49851e-05 -3.93251e-05)
(3.97052e-06 4.82863e-06 -0.000131772)
(-5.74713e-07 -5.53138e-06 -0.000152241)
(-5.51804e-06 -5.48018e-07 -0.000152117)
(-4.84349e-06 4.03899e-06 -0.00013171)
(5.52172e-06 -5.52999e-07 -0.000152123)
(5.54381e-06 -1.45078e-05 -0.000164298)
(-5.52028e-06 5.5318e-07 -0.000152125)
(-5.53308e-06 -1.45132e-05 -0.000164297)
(5.5292e-06 5.53734e-07 -0.000152118)
(-1.44996e-05 5.54413e-06 -0.000164428)
(-1.44822e-05 -5.54295e-06 -0.000164419)
(5.74245e-07 5.53977e-06 -0.00015226)
(1.44945e-05 5.54301e-06 -0.000164405)
(1.44829e-05 -5.54256e-06 -0.000164423)
(5.54293e-06 1.4514e-05 -0.000164274)
(-5.53295e-06 1.45173e-05 -0.000164282)
(-1.38515e-06 -1.44878e-05 -0.00025719)
(-2.69959e-07 -2.1164e-06 -0.000165009)
(2.08065e-07 -2.23955e-05 -0.000174363)
(-2.405e-06 -2.76748e-06 -0.000165849)
(-1.4579e-05 -1.42493e-06 -0.000257735)
(-2.11598e-06 -2.76204e-07 -0.000165151)
(-2.23632e-05 1.80043e-07 -0.000174359)
(-2.77803e-06 -2.42861e-06 -0.000165955)
(-1.17353e-06 3.11821e-07 -0.000127751)
(-7.81367e-07 2.719e-07 -0.000123622)
(8.1314e-07 2.73661e-07 -0.000136393)
(4.93549e-07 2.20653e-07 -0.00013188)
(3.07614e-07 -1.16329e-06 -0.000127914)
(2.8032e-07 -8.06194e-07 -0.000123641)
(2.70238e-07 8.05745e-07 -0.00013653)
(2.29118e-07 5.1269e-07 -0.000131913)
(-4.11266e-07 1.29228e-07 -0.000120261)
(-2.35317e-07 8.59575e-08 -0.00011924)
(2.59442e-07 1.04477e-07 -0.000128343)
(1.37379e-07 6.07933e-08 -0.00012713)
(1.23118e-07 -3.88042e-07 -0.000120477)
(8.5366e-08 -2.39931e-07 -0.000119299)
(9.26034e-08 2.33363e-07 -0.000128521)
(6.06246e-08 1.40861e-07 -0.000127177)
(-1.44206e-07 3.12484e-08 -0.000117473)
(-6.79355e-08 2.28066e-08 -0.000116783)
(9.65759e-08 2.49048e-08 -0.000125207)
(3.53381e-08 1.0461e-08 -0.00012434)
(2.50116e-08 -1.22272e-07 -0.000117667)
(2.55667e-08 -7.96172e-08 -0.000116803)
(1.22764e-08 7.03806e-08 -0.000125357)
(1.23061e-08 4.37393e-08 -0.000124352)
(-6.80166e-08 3.4185e-09 -0.000115306)
(-2.21919e-08 4.91231e-09 -0.00011469)
(4.35352e-08 -3.20567e-10 -0.000122751)
(4.38897e-09 -5.82574e-09 -0.000121985)
(-7.4779e-10 -5.08097e-08 -0.000115461)
(8.16777e-09 -3.50404e-08 -0.000114672)
(-8.67976e-09 2.51716e-08 -0.000122867)
(-3.46312e-10 1.73465e-08 -0.000121963)
(-4.88326e-08 -3.47922e-09 -0.000113337)
(-8.03118e-09 3.59231e-10 -0.000112768)
(4.01736e-08 -1.10847e-09 -0.00012055)
(3.31211e-09 -5.12324e-09 -0.000119843)
(-8.65105e-09 -3.06707e-08 -0.000113457)
(3.34292e-09 -2.29053e-08 -0.000112714)
(-1.09108e-08 1.82793e-08 -0.000120638)
(-7.34848e-10 1.65261e-08 -0.000119798)
(-3.84276e-08 -5.84269e-09 -0.00011154)
(-3.57717e-09 -1.74736e-09 -0.000111032)
(3.44203e-08 -2.52155e-09 -0.000118557)
(2.69772e-09 -5.994e-09 -0.000117926)
(-9.72367e-09 -2.42844e-08 -0.000111627)
(2.65555e-09 -2.15128e-08 -0.000110951)
(-1.00131e-08 1.73854e-08 -0.000118623)
(6.24371e-10 1.8688e-08 -0.000117858)
(-2.91404e-08 -8.33829e-09 -0.000109955)
(1.12248e-08 -5.83874e-09 -0.000109534)
(2.64714e-08 -5.17098e-09 -0.000116813)
(-1.22847e-08 -1.06612e-08 -0.000116283)
(-1.18159e-08 -1.44318e-08 -0.000110019)
(-9.38672e-10 -7.03958e-09 -0.000109436)
(-1.27395e-08 8.55859e-09 -0.000116852)
(-5.35181e-09 2.46083e-09 -0.000116197)
(-1.69426e-08 -1.01604e-08 -0.000108611)
(1.49625e-08 -5.27997e-09 -0.000108276)
(1.51643e-08 -8.35198e-09 -0.000115354)
(-1.886e-08 -1.30177e-08 -0.000114921)
(-1.17814e-08 -6.57016e-09 -0.000108659)
(-8.64746e-11 -4.78554e-09 -0.000108172)
(-1.40305e-08 2.37575e-10 -0.000115381)
(-5.81709e-09 -2.37129e-09 -0.000114842)
(-1.88964e-08 -8.65222e-09 -0.000107468)
(9.61793e-09 -2.17098e-09 -0.000107218)
(1.44431e-08 -7.10696e-09 -0.000114117)
(-1.93935e-08 -1.08988e-08 -0.00011377)
(-8.96399e-09 -1.25224e-08 -0.000107497)
(1.29042e-09 -3.83722e-09 -0.000107117)
(-1.1719e-08 1.658e-09 -0.000114138)
(-5.00923e-09 -4.48983e-09 -0.000113715)
(-1.64127e-08 -9.44958e-09 -0.000106445)
(6.56795e-09 7.1411e-10 -0.000106302)
(1.94869e-08 -4.63756e-09 -0.000113023)
(-1.66719e-08 -8.80111e-09 -0.000112776)
(-1.12004e-08 -7.64979e-09 -0.000106451)
(3.66715e-10 4.43273e-09 -0.00010621)
(-1.18481e-08 3.64993e-09 -0.000113032)
(-2.51508e-09 -4.80759e-09 -0.000112761)
(-7.34382e-09 -1.4854e-08 -0.000105557)
(1.76826e-08 -1.22439e-09 -0.000105554)
(1.76217e-08 -6.19001e-09 -0.000112085)
(-3.48099e-08 -1.66941e-08 -0.000111912)
(-1.2245e-08 -1.14941e-08 -0.000105534)
(-9.21165e-09 1.29705e-08 -0.00011207)
(-5.61901e-06 7.62542e-06 -0.000152487)
(7.71983e-06 -5.72167e-06 -0.000152238)
(4.15851e-06 3.48276e-05 -8.17524e-05)
(-4.15197e-06 3.48282e-05 -8.17578e-05)
(5.59486e-06 7.62682e-06 -0.000152519)
(-7.70001e-06 -5.71246e-06 -0.000152211)
(3.50337e-05 4.16839e-06 -8.12636e-05)
(3.50436e-05 -4.17135e-06 -8.12609e-05)
(-3.50306e-05 4.17273e-06 -8.12639e-05)
(-3.50346e-05 -4.17117e-06 -8.12542e-05)
(7.70592e-06 5.68943e-06 -0.000152226)
(-5.61295e-06 -7.62382e-06 -0.000152516)
(4.16769e-06 -3.4821e-05 -8.17843e-05)
(-4.16074e-06 -3.48211e-05 -8.17991e-05)
(-7.68472e-06 5.68702e-06 -0.000152182)
(5.58568e-06 -7.62898e-06 -0.000152534)
(-2.24173e-07 -2.23818e-05 -0.000174343)
(2.3978e-06 -2.76276e-06 -0.000165847)
(-2.23534e-05 -2.07331e-07 -0.000174364)
(-2.77026e-06 2.41463e-06 -0.000165975)
(-9.04091e-07 2.23904e-07 -0.000139732)
(-5.07201e-07 -1.56915e-06 -0.000165113)
(2.26921e-07 -9.12854e-07 -0.000139767)
(-1.59552e-06 -4.61218e-07 -0.000165332)
(1.38548e-06 -1.44862e-05 -0.000257177)
(2.63755e-07 -2.11741e-06 -0.000165006)
(-1.21548e-06 2.31483e-07 -0.000131054)
(-5.07929e-07 -1.6633e-06 -0.000158613)
(1.21095e-06 2.30061e-07 -0.000131058)
(5.04624e-07 -1.66478e-06 -0.00015861)
(2.23483e-05 -2.05283e-07 -0.000174336)
(2.77069e-06 2.41547e-06 -0.000165954)
(8.99347e-07 2.2114e-07 -0.000139738)
(5.03314e-07 -1.57083e-06 -0.000165118)
(-2.28341e-07 -9.13043e-07 -0.000139751)
(1.59738e-06 -4.56823e-07 -0.000165315)
(-1.45743e-05 1.42753e-06 -0.000257775)
(-2.11869e-06 2.74037e-07 -0.000165156)
(2.39065e-07 -1.23552e-06 -0.000131079)
(-1.67475e-06 -4.85484e-07 -0.000158839)
(2.3872e-07 1.23483e-06 -0.00013108)
(-1.67416e-06 4.83642e-07 -0.000158849)
(1.45793e-05 -1.42733e-06 -0.000257729)
(2.11662e-06 -2.78234e-07 -0.00016514)
(1.4574e-05 1.4233e-06 -0.000257742)
(2.11778e-06 2.73809e-07 -0.000165139)
(-2.39882e-07 -1.23762e-06 -0.00013107)
(1.67463e-06 -4.85196e-07 -0.000158832)
(-2.39606e-07 1.2374e-06 -0.000131068)
(1.67536e-06 4.82427e-07 -0.000158831)
(-2.27359e-07 2.23832e-05 -0.000174362)
(2.39472e-06 2.76159e-06 -0.000165864)
(2.25119e-07 9.09e-07 -0.000139757)
(-1.6014e-06 4.49118e-07 -0.000165321)
(-9.02827e-07 -2.23029e-07 -0.000139742)
(-5.08281e-07 1.56778e-06 -0.000165127)
(-1.38941e-06 1.44922e-05 -0.000257187)
(-2.69313e-07 2.11619e-06 -0.000165014)
(1.38876e-06 1.44885e-05 -0.000257185)
(2.64356e-07 2.11848e-06 -0.000165013)
(-1.21351e-06 -2.31236e-07 -0.000131064)
(-5.07364e-07 1.66471e-06 -0.000158616)
(1.20961e-06 -2.29044e-07 -0.00013106)
(5.0421e-07 1.66433e-06 -0.000158616)
(2.23573e-05 1.79082e-07 -0.000174308)
(2.77649e-06 -2.4255e-06 -0.000165922)
(2.08771e-07 2.23969e-05 -0.000174384)
(-2.40542e-06 2.76802e-06 -0.000165866)
(-2.24322e-07 9.07872e-07 -0.000139733)
(1.60162e-06 4.48385e-07 -0.000165283)
(9.00357e-07 -2.21692e-07 -0.000139739)
(5.02399e-07 1.57199e-06 -0.000165128)
(-8.11308e-07 2.72655e-07 -0.000136392)
(-4.91993e-07 2.18866e-07 -0.000131876)
(2.70408e-07 -8.07591e-07 -0.000136534)
(2.30099e-07 -5.14276e-07 -0.000131921)
(-2.63997e-07 1.21859e-07 -0.000128971)
(-4.56101e-07 1.92748e-07 -0.000130848)
(1.2353e-07 -2.69126e-07 -0.00012904)
(1.88062e-07 -4.43332e-07 -0.000131019)
(1.17035e-06 3.09966e-07 -0.000127745)
(7.83811e-07 2.72884e-07 -0.000123622)
(-4.36194e-07 1.57928e-07 -0.000120908)
(-7.14859e-07 2.31728e-07 -0.000122589)
(4.34621e-07 1.57122e-07 -0.000120912)
(7.15336e-07 2.31824e-07 -0.00012259)
(-2.69262e-07 -8.04561e-07 -0.000136522)
(-2.27542e-07 -5.09401e-07 -0.000131912)
(2.62016e-07 1.20857e-07 -0.000128981)
(4.54099e-07 1.91297e-07 -0.000130851)
(-1.23831e-07 -2.69523e-07 -0.000129024)
(-1.88686e-07 -4.44102e-07 -0.000131005)
(3.07298e-07 1.1636e-06 -0.000127913)
(2.79955e-07 8.059e-07 -0.000123639)
(1.59801e-07 -4.44307e-07 -0.000120968)
(2.3167e-07 -7.05344e-07 -0.000122773)
(1.59327e-07 4.43706e-07 -0.000120966)
(2.30984e-07 7.04786e-07 -0.000122774)
(-3.08699e-07 -1.16533e-06 -0.000127903)
(-2.78677e-07 -8.02814e-07 -0.000123635)
(-3.08153e-07 1.16537e-06 -0.0001279)
(-2.80672e-07 8.05778e-07 -0.000123629)
(-1.59896e-07 -4.45506e-07 -0.000120961)
(-2.30945e-07 -7.04025e-07 -0.000122764)
(-1.59846e-07 4.43822e-07 -0.000120955)
(-2.30961e-07 7.0519e-07 -0.000122761)
(-8.10699e-07 -2.72162e-07 -0.000136396)
(-4.90163e-07 -2.18228e-07 -0.000131885)
(1.23389e-07 2.69174e-07 -0.000129031)
(1.87753e-07 4.42997e-07 -0.000131013)
(-2.62119e-07 -1.20854e-07 -0.000128981)
(-4.54803e-07 -1.91739e-07 -0.000130855)
(-1.17243e-06 -3.11301e-07 -0.000127753)
(-7.79899e-07 -2.71299e-07 -0.000123632)
(1.17013e-06 -3.10306e-07 -0.000127751)
(7.78272e-07 -2.70419e-07 -0.000123628)
(-4.35282e-07 -1.57867e-07 -0.000120921)
(-7.14486e-07 -2.31861e-07 -0.000122597)
(4.34978e-07 -1.57812e-07 -0.000120918)
(7.13585e-07 -2.31282e-07 -0.000122596)
(-2.69768e-07 8.05072e-07 -0.000136507)
(-2.28852e-07 5.1237e-07 -0.000131892)
(8.10541e-07 -2.71795e-07 -0.000136395)
(4.88492e-07 -2.17357e-07 -0.000131885)
(-1.22671e-07 2.6839e-07 -0.000129007)
(-1.87196e-07 4.41169e-07 -0.00013099)
(2.62294e-07 -1.21682e-07 -0.000128984)
(4.55195e-07 -1.91623e-07 -0.000130855)
(-2.58867e-07 1.04591e-07 -0.000128339)
(-1.37937e-07 6.08848e-08 -0.000127124)
(9.22572e-08 -2.32387e-07 -0.000128526)
(6.01401e-08 -1.40156e-07 -0.000127186)
(-6.93368e-08 2.63933e-08 -0.000125644)
(-1.5124e-07 5.18546e-08 -0.000126627)
(2.78817e-08 -7.54393e-08 -0.000125687)
(3.88412e-08 -1.23173e-07 -0.000126806)
(4.09832e-07 1.28092e-07 -0.000120257)
(2.34552e-07 8.56087e-08 -0.00011924)
(-1.25067e-07 4.41949e-08 -0.000117931)
(-2.3724e-07 6.54843e-08 -0.000118722)
(1.25034e-07 4.40654e-08 -0.000117934)
(2.36816e-07 6.49829e-08 -0.000118721)
(-9.22187e-08 -2.32385e-07 -0.000128512)
(-6.04176e-08 -1.40107e-07 -0.000127174)
(6.74654e-08 2.55109e-08 -0.000125652)
(1.54131e-07 5.33967e-08 -0.000126631)
(-2.90206e-08 -7.7695e-08 -0.000125674)
(-3.68422e-08 -1.2014e-07 -0.00012679)
(1.22476e-07 3.88609e-07 -0.000120473)
(8.55464e-08 2.40343e-07 -0.000119296)
(4.45523e-08 -1.3217e-07 -0.000117973)
(5.79461e-08 -2.12153e-07 -0.000118934)
(4.41262e-08 1.33094e-07 -0.000117969)
(5.81495e-08 2.12731e-07 -0.000118933)
(-1.23228e-07 -3.89935e-07 -0.000120466)
(-8.57999e-08 -2.41038e-07 -0.000119293)
(-1.22536e-07 3.88642e-07 -0.000120461)
(-8.52854e-08 2.39162e-07 -0.000119285)
(-4.4719e-08 -1.33932e-07 -0.000117967)
(-5.83178e-08 -2.12978e-07 -0.000118927)
(-4.4566e-08 1.32248e-07 -0.00011796)
(-5.75616e-08 2.11963e-07 -0.000118922)
(-2.58403e-07 -1.04054e-07 -0.000128346)
(-1.36624e-07 -5.99974e-08 -0.000127135)
(2.83554e-08 7.64394e-08 -0.000125678)
(3.95252e-08 1.2471e-07 -0.000126799)
(-6.82697e-08 -2.57416e-08 -0.000125656)
(-1.50156e-07 -5.13796e-08 -0.000126636)
(-4.11825e-07 -1.29073e-07 -0.000120268)
(-2.34907e-07 -8.59065e-08 -0.000119253)
(4.11965e-07 -1.29513e-07 -0.000120266)
(2.34992e-07 -8.54879e-08 -0.000119249)
(-1.25204e-07 -4.42334e-08 -0.000117946)
(-2.37653e-07 -6.57319e-08 -0.000118733)
(1.25738e-07 -4.40911e-08 -0.000117941)
(2.38138e-07 -6.62296e-08 -0.000118732)
(-9.21788e-08 2.31542e-07 -0.000128497)
(-5.9637e-08 1.39604e-07 -0.000127155)
(2.60078e-07 -1.04899e-07 -0.00012835)
(1.36953e-07 -6.09708e-08 -0.000127139)
(-2.7699e-08 7.57289e-08 -0.000125658)
(-3.83357e-08 1.22236e-07 -0.000126776)
(6.94586e-08 -2.6866e-08 -0.000125658)
(1.52326e-07 -5.2007e-08 -0.000126638)
(-9.19242e-08 2.2611e-08 -0.000125204)
(-3.10812e-08 8.1613e-09 -0.000124339)
(1.13422e-08 -6.80889e-08 -0.000125363)
(1.19757e-08 -4.28715e-08 -0.00012436)
(-1.17466e-08 -2.3518e-09 -0.00012313)
(-5.94538e-08 6.88324e-09 -0.000123937)
(3.28532e-09 -2.57195e-08 -0.000123131)
(-1.01147e-09 -4.00749e-08 -0.000124078)
(1.4467e-07 3.12707e-08 -0.000117469)
(7.26198e-08 2.51662e-08 -0.000116783)
(-3.60108e-08 1.09052e-08 -0.000115712)
(-9.43491e-08 1.29779e-08 -0.000116356)
(3.50112e-08 1.07735e-08 -0.000115715)
(9.66253e-08 1.37702e-08 -0.000116356)
(-9.80339e-09 -6.5322e-08 -0.000125352)
(-9.64138e-09 -3.85521e-08 -0.000124356)
(1.1354e-08 -2.96673e-09 -0.000123133)
(5.81364e-08 6.4439e-09 -0.000123939)
(-3.72599e-09 -2.55473e-08 -0.000123126)
(1.06665e-09 -4.19764e-08 -0.000124068)
(2.51758e-08 1.23421e-07 -0.000117663)
(2.52136e-08 8.01939e-08 -0.0001168)
(1.38901e-08 -4.98814e-08 -0.000115712)
(7.59094e-09 -7.64081e-08 -0.000116528)
(1.36339e-08 4.9412e-08 -0.00011571)
(7.79557e-09 7.64596e-08 -0.000116528)
(-2.5312e-08 -1.23756e-07 -0.000117659)
(-2.34059e-08 -7.57463e-08 -0.000116801)
(-2.47964e-08 1.22877e-07 -0.000117653)
(-2.50304e-08 7.89439e-08 -0.000116792)
(-1.38955e-08 -5.09439e-08 -0.000115709)
(-7.58599e-09 -7.47016e-08 -0.000116524)
(-1.36714e-08 4.89852e-08 -0.000115704)
(-7.38711e-09 7.55722e-08 -0.00011652)
(-9.1554e-08 -2.24107e-08 -0.000125214)
(-3.04184e-08 -7.73526e-09 -0.000124352)
(3.48763e-09 2.57463e-08 -0.000123124)
(-8.29301e-10 4.09678e-08 -0.000124071)
(-1.10313e-08 2.47e-09 -0.000123143)
(-5.91411e-08 -7.09338e-09 -0.000123948)
(-1.45452e-07 -3.1523e-08 -0.000117482)
(-6.79743e-08 -2.35743e-08 -0.000116798)
(1.46216e-07 -3.19946e-08 -0.00011748)
(6.80404e-08 -2.29129e-08 -0.000116792)
(-3.59998e-08 -1.08105e-08 -0.000115727)
(-9.53596e-08 -1.30966e-08 -0.000116367)
(3.66653e-08 -1.11005e-08 -0.000115721)
(9.5583e-08 -1.33517e-08 -0.000116364)
(-1.19426e-08 6.78788e-08 -0.000125339)
(-1.14083e-08 4.22388e-08 -0.000124337)
(9.4272e-08 -2.39815e-08 -0.000125215)
(3.14868e-08 -8.77986e-09 -0.000124352)
(-2.35088e-09 2.43952e-08 -0.000123112)
(2.06284e-09 3.84675e-08 -0.000124056)
(1.27916e-08 1.35806e-09 -0.00012314)
(6.12819e-08 -7.88692e-09 -0.000123946)
(-4.25306e-08 -1.37918e-09 -0.00012275)
(-4.44879e-09 -4.80439e-09 -0.000121986)
(-9.1401e-09 -2.46127e-08 -0.000122872)
(-1.19219e-10 -1.77544e-08 -0.00012197)
(-3.84249e-09 -6.01889e-09 -0.000120892)
(-3.81058e-08 -3.23797e-09 -0.000121629)
(-1.41235e-09 -1.73929e-08 -0.000120861)
(-1.10558e-08 -1.87504e-08 -0.000121735)
(6.67513e-08 2.48871e-09 -0.000115302)
(2.10617e-08 5.30273e-09 -0.000114691)
(-1.38307e-08 1.94863e-09 -0.000113707)
(-5.55098e-08 -1.06113e-09 -0.000114303)
(1.30672e-08 2.19995e-09 -0.000113709)
(5.51811e-08 -1.75443e-09 -0.000114299)
(9.6651e-09 -2.39059e-08 -0.000122866)
(-7.75187e-10 -1.8664e-08 -0.000121971)
(1.21823e-09 -7.51871e-09 -0.000120892)
(4.08247e-08 -1.49846e-09 -0.000121628)
(-1.54415e-09 -2.1023e-08 -0.000120862)
(1.29242e-08 -1.62125e-08 -0.00012173)
(-1.26969e-09 5.05383e-08 -0.000115458)
(7.85919e-09 3.42067e-08 -0.000114669)
(4.90243e-09 -2.66825e-08 -0.000113672)
(-6.13435e-09 -3.7272e-08 -0.000114439)
(4.36541e-09 2.66299e-08 -0.00011367)
(-6.48351e-09 3.61659e-08 -0.000114439)
(4.68294e-10 -5.23186e-08 -0.000115456)
(-8.5219e-09 -3.62991e-08 -0.000114672)
(1.4586e-09 5.02289e-08 -0.000115452)
(-7.5716e-09 3.34932e-08 -0.000114666)
(-4.9256e-09 -2.83603e-08 -0.000113672)
(5.80131e-09 -3.75449e-08 -0.000114438)
(-4.45088e-09 2.62495e-08 -0.000113668)
(6.73317e-09 3.5718e-08 -0.000114435)
(-4.25689e-08 1.51183e-09 -0.00012276)
(-3.44429e-09 6.01217e-09 -0.000121996)
(-9.86434e-10 1.70937e-08 -0.000120854)
(-1.1498e-08 1.84623e-08 -0.000121729)
(-3.24352e-09 6.23534e-09 -0.000120901)
(-3.6957e-08 3.32576e-09 -0.000121636)
(-6.88419e-08 -3.48575e-09 -0.000115314)
(-2.09963e-08 -5.40548e-09 -0.000114703)
(6.95232e-08 -3.74479e-09 -0.00011531)
(2.18505e-08 -5.62083e-09 -0.000114697)
(-1.42454e-08 -1.9432e-09 -0.000113717)
(-5.54129e-08 1.60123e-09 -0.000114309)
(1.46301e-08 -2.31021e-09 -0.000113713)
(5.64811e-08 9.90158e-10 -0.000114306)
(9.83312e-09 2.26321e-08 -0.000122856)
(1.4647e-09 1.57343e-08 -0.000121956)
(4.55469e-08 -4.13702e-10 -0.000122757)
(5.3508e-09 4.63202e-09 -0.000121993)
(1.83584e-09 1.6142e-08 -0.000120848)
(1.25921e-08 1.58509e-08 -0.000121722)
(5.1031e-09 5.16492e-09 -0.000120896)
(4.01414e-08 1.77856e-09 -0.000121632)
(-3.61355e-08 -3.14015e-09 -0.000120553)
(-8.06267e-10 -7.09727e-09 -0.000119849)
(-1.14765e-08 -1.70554e-08 -0.000120643)
(-1.19368e-09 -1.59684e-08 -0.000119803)
(8.52341e-10 -7.49849e-09 -0.000118862)
(-3.24417e-08 -4.54224e-09 -0.000119532)
(-6.40045e-10 -1.66786e-08 -0.000118803)
(-1.14635e-08 -1.59096e-08 -0.000119608)
(4.8546e-08 -3.75053e-09 -0.000113331)
(1.20739e-08 2.26877e-09 -0.000112764)
(-3.1748e-09 -2.49657e-09 -0.000111872)
(-4.17337e-08 -5.69283e-09 -0.000112414)
(1.74892e-09 -2.83825e-09 -0.000111872)
(4.32609e-08 -5.32958e-09 -0.000112411)
(1.27289e-08 -1.51618e-08 -0.000120642)
(2.92156e-09 -1.31915e-08 -0.000119811)
(-5.38513e-10 -8.21233e-09 -0.00011886)
(2.9933e-08 -5.9447e-09 -0.000119526)
(6.57797e-11 -1.68555e-08 -0.000118806)
(1.03894e-08 -1.85735e-08 -0.000119611)
(-8.22672e-09 3.08696e-08 -0.000113456)
(3.65222e-09 2.3869e-08 -0.000112714)
(1.67339e-09 -1.98585e-08 -0.000111804)
(-9.95463e-09 -2.52369e-08 -0.000112517)
(1.82415e-09 2.03949e-08 -0.000111806)
(-9.3114e-09 2.62027e-08 -0.00011252)
(7.77365e-09 -3.15362e-08 -0.000113457)
(-1.34376e-09 -1.9219e-08 -0.000112719)
(8.72404e-09 2.99229e-08 -0.000113452)
(-2.36595e-09 2.17098e-08 -0.00011271)
(-2.13027e-09 -2.11893e-08 -0.000111807)
(1.06414e-08 -2.41699e-08 -0.000112519)
(-1.48764e-09 1.86709e-08 -0.0001118)
(1.09063e-08 2.4024e-08 -0.000112515)
(-3.70789e-08 2.93348e-09 -0.000120557)
(-2.49653e-09 6.56205e-09 -0.000119856)
(-8.76253e-10 1.629e-08 -0.000118799)
(-1.16106e-08 1.66825e-08 -0.000119604)
(-1.52569e-09 6.38713e-09 -0.00011887)
(-3.54595e-08 3.30701e-09 -0.000119535)
(-5.00393e-08 3.29541e-09 -0.00011334)
(-1.05518e-08 -8.61935e-10 -0.000112776)
(5.03388e-08 3.23056e-09 -0.000113337)
(8.78802e-09 9.03602e-11 -0.000112771)
(-6.82157e-09 9.09805e-10 -0.000111882)
(-4.5267e-08 4.74762e-09 -0.000112418)
(5.79653e-09 1.36871e-09 -0.000111878)
(4.34155e-08 5.40562e-09 -0.000112417)
(1.23739e-08 1.57669e-08 -0.000120633)
(2.38475e-09 1.38701e-08 -0.000119793)
(3.93194e-08 1.5972e-09 -0.000120554)
(1.31711e-09 6.60256e-09 -0.000119852)
(2.75781e-09 1.37457e-08 -0.000118793)
(1.36679e-08 1.23778e-08 -0.000119599)
(2.37163e-09 6.34642e-09 -0.000118863)
(3.51704e-08 3.58439e-09 -0.000119531)
(-3.2916e-08 -3.73879e-09 -0.00011856)
(-2.6377e-09 -5.83184e-09 -0.000117932)
(-9.96855e-09 -1.72522e-08 -0.000118626)
(1.736e-09 -2.02206e-08 -0.000117864)
(6.30724e-09 -9.56868e-09 -0.000117072)
(-3.43941e-08 -2.22435e-09 -0.000117655)
(-1.47083e-09 -1.28673e-08 -0.000116997)
(-7.76637e-09 -1.92706e-08 -0.000117711)
(3.71136e-08 -7.04561e-09 -0.000111533)
(1.45757e-09 -2.57452e-09 -0.000111029)
(4.25535e-09 -4.38471e-09 -0.00011025)
(-3.73743e-08 -6.64372e-09 -0.000110716)
(-6.21107e-09 -4.54132e-09 -0.000110254)
(3.555e-08 -7.45809e-09 -0.000110714)
(1.04073e-08 -1.63502e-08 -0.000118628)
(-2.10695e-09 -2.06913e-08 -0.000117871)
(-9.44208e-09 -1.15282e-08 -0.00011707)
(3.75552e-08 -2.86771e-10 -0.000117651)
(1.5458e-10 -1.52352e-08 -0.000116999)
(1.06121e-08 -1.54203e-08 -0.000117712)
(-9.33505e-09 2.47777e-08 -0.000111628)
(2.70421e-09 2.15322e-08 -0.000110949)
(5.77442e-11 -1.25737e-08 -0.000110158)
(-9.66981e-09 -2.30843e-08 -0.000110792)
(-5.73788e-10 1.12901e-08 -0.000110155)
(-9.75666e-09 2.22108e-08 -0.000110793)
(9.01529e-09 -2.56057e-08 -0.000111628)
(-3.3997e-09 -2.30414e-08 -0.000110954)
(1.0006e-08 2.29804e-08 -0.000111624)
(-2.54451e-09 2.07312e-08 -0.000110945)
(-5.13853e-10 -1.48735e-08 -0.000110158)
(9.52077e-09 -2.3656e-08 -0.000110795)
(2.61188e-10 1.25965e-08 -0.000110149)
(9.76652e-09 2.26713e-08 -0.00011079)
(-3.54906e-08 2.27091e-09 -0.000118565)
(-3.26023e-09 5.09925e-09 -0.000117937)
(-2.15306e-09 1.10706e-08 -0.000116988)
(-8.792e-09 1.79377e-08 -0.000117704)
(5.75923e-09 9.56331e-09 -0.000117074)
(-3.52572e-08 1.68336e-09 -0.000117655)
(-4.29073e-08 4.91684e-09 -0.000111541)
(-4.9193e-09 8.60102e-10 -0.000111038)
(4.25978e-08 4.78037e-09 -0.00011154)
(6.09242e-09 8.17025e-10 -0.000111037)
(3.75009e-09 3.83294e-09 -0.000110253)
(-3.87632e-08 5.96507e-09 -0.000110717)
(-2.06523e-09 3.28083e-09 -0.000110256)
(4.03315e-08 5.59961e-09 -0.000110721)
(1.14753e-08 1.34758e-08 -0.00011862)
(-5.84889e-10 1.77996e-08 -0.000117857)
(3.7959e-08 7.4987e-10 -0.000118562)
(5.86076e-09 3.47968e-09 -0.000117935)
(2.54566e-09 1.10181e-08 -0.000116984)
(9.5003e-09 1.65017e-08 -0.000117704)
(-2.18074e-09 7.45922e-09 -0.000117074)
(3.94517e-08 -8.09517e-10 -0.000117656)
(-2.2909e-08 -7.02965e-09 -0.000116814)
(1.63499e-08 -1.3571e-08 -0.000116288)
(-1.20975e-08 -9.53731e-09 -0.000116861)
(-5.3913e-09 -3.13003e-09 -0.000116209)
(2.05848e-08 -1.46821e-08 -0.000115577)
(-1.3579e-08 -1.02249e-08 -0.000116051)
(-6.14599e-09 1.11664e-09 -0.000115497)
(-1.49196e-08 -1.2207e-09 -0.000116094)
(2.86501e-08 -8.97097e-09 -0.000109952)
(-4.90307e-09 -2.98804e-09 -0.000109534)
(1.59979e-08 -7.01194e-09 -0.000108877)
(-2.03307e-08 -1.04116e-08 -0.000109255)
(-1.36875e-08 -5.69421e-09 -0.00010888)
(2.57374e-08 -8.34018e-09 -0.000109258)
(1.39625e-08 -5.49013e-09 -0.000116864)
(6.2417e-09 -1.67976e-09 -0.000116214)
(-1.75616e-08 -1.35621e-08 -0.000115577)
(1.40972e-08 -1.00718e-08 -0.000116051)
(2.70404e-09 -4.73112e-09 -0.000115496)
(1.18919e-08 -6.62148e-09 -0.000116098)
(-1.22748e-08 1.30515e-08 -0.000110015)
(-1.80731e-09 6.09777e-09 -0.00010943)
(-1.61808e-09 -2.77776e-09 -0.000108775)
(-1.25277e-08 -8.94116e-09 -0.000109311)
(-1.59706e-09 3.43082e-09 -0.000108773)
(-1.28419e-08 8.33225e-09 -0.000109308)
(1.12869e-08 -1.58151e-08 -0.000110021)
(2.54192e-09 -3.74832e-09 -0.000109438)
(1.21832e-08 1.39018e-08 -0.000110012)
(1.28385e-09 5.8382e-09 -0.000109428)
(-3.43158e-10 -9.35069e-09 -0.000108776)
(1.2593e-08 -8.94725e-09 -0.000109315)
(1.6237e-09 4.36131e-09 -0.000108768)
(1.28552e-08 7.86598e-09 -0.000109311)
(-2.34815e-08 6.5953e-09 -0.000116812)
(1.78735e-08 1.4106e-08 -0.000116289)
(-5.8472e-09 -5.43997e-11 -0.000115486)
(-1.44821e-08 2.28078e-09 -0.000116082)
(1.85445e-08 1.37549e-08 -0.00011558)
(-1.32026e-08 1.051e-08 -0.00011605)
(-2.93973e-08 8.33313e-09 -0.00010995)
(1.18186e-08 5.85111e-09 -0.000109533)
(3.28262e-08 6.93419e-09 -0.000109958)
(-7.34156e-09 4.03204e-09 -0.000109542)
(1.3738e-08 6.13728e-09 -0.000108877)
(-2.09097e-08 1.0137e-08 -0.000109251)
(-1.17231e-08 4.92604e-09 -0.000108888)
(2.68207e-08 7.81697e-09 -0.000109264)
(1.33888e-08 7.14111e-09 -0.000116852)
(5.56961e-09 2.20102e-09 -0.000116197)
(2.92041e-08 3.79597e-09 -0.000116816)
(-1.20987e-08 1.09014e-08 -0.000116293)
(6.13056e-09 -7.05063e-10 -0.000115484)
(1.5475e-08 -2.66874e-10 -0.000116087)
(-1.62496e-08 1.26047e-08 -0.000115582)
(2.02143e-08 6.67133e-09 -0.000116057)
(-1.02045e-08 -1.09396e-08 -0.000115351)
(1.88348e-08 -1.29748e-08 -0.000114929)
(-1.4922e-08 7.95908e-10 -0.000115387)
(-4.039e-09 -1.26136e-09 -0.000114848)
(1.60928e-08 -1.09409e-08 -0.000114343)
(-1.22813e-08 -9.09083e-09 -0.000114715)
(-2.0558e-09 -3.56784e-09 -0.00011426)
(-1.18888e-08 -3.97932e-09 -0.000114743)
(2.0701e-08 -9.43987e-09 -0.000108611)
(-1.42576e-08 -5.58297e-09 -0.000108273)
(1.30528e-08 -4.2862e-09 -0.000107727)
(-1.80403e-08 -9.72706e-09 -0.000108016)
(-1.78387e-08 -5.9798e-09 -0.000107722)
(1.9897e-08 -8.93776e-09 -0.000108018)
(1.18561e-08 -4.69175e-09 -0.000115393)
(8.01267e-10 -7.60841e-09 -0.000114846)
(-2.3837e-08 -1.54056e-08 -0.000114326)
(1.66408e-08 -6.54056e-09 -0.000114714)
(5.1621e-10 -7.54958e-09 -0.000114248)
(1.1534e-08 -4.4279e-09 -0.000114747)
(-1.2369e-08 7.12066e-09 -0.000108658)
(-1.80062e-09 1.09013e-09 -0.000108175)
(1.05177e-09 -6.20981e-09 -0.000107622)
(-1.05671e-08 -1.02131e-08 -0.000108056)
(-1.20985e-09 -2.13004e-10 -0.000107626)
(-1.24847e-08 4.76514e-09 -0.000108062)
(9.21806e-09 -1.33426e-08 -0.000108667)
(-2.48197e-09 -1.11799e-08 -0.000108173)
(1.1507e-08 8.49314e-09 -0.00010866)
(2.6895e-10 5.02263e-09 -0.00010816)
(-1.18601e-09 -7.59117e-09 -0.000107616)
(8.97331e-09 -1.38263e-08 -0.000108066)
(-3.13934e-11 4.85739e-09 -0.000107603)
(1.07665e-08 8.65794e-09 -0.000108056)
(-1.37562e-08 9.1082e-09 -0.000115354)
(1.61285e-08 1.13482e-08 -0.000114935)
(-5.18869e-09 -1.6249e-09 -0.000114252)
(-1.40608e-08 1.19792e-10 -0.000114738)
(1.47518e-08 1.01538e-08 -0.000114339)
(-1.47523e-08 7.96066e-09 -0.000114717)
(-2.12842e-08 8.75997e-09 -0.000108608)
(1.06799e-08 3.70114e-09 -0.000108277)
(2.32489e-08 8.37718e-09 -0.000108621)
(-1.28347e-08 4.66994e-09 -0.000108282)
(1.07262e-08 3.62765e-09 -0.000107721)
(-2.20821e-08 8.10622e-09 -0.000108014)
(-1.06556e-08 3.44018e-09 -0.000107725)
(2.20455e-08 8.24041e-09 -0.000108025)
(1.52111e-08 -1.36437e-09 -0.000115384)
(4.76643e-09 4.02354e-10 -0.000114831)
(1.70463e-08 7.41578e-09 -0.00011536)
(-1.619e-08 1.17909e-08 -0.00011493)
(2.43627e-09 4.23708e-09 -0.000114232)
(1.2812e-08 1.8821e-09 -0.000114736)
(-1.36178e-08 9.65652e-09 -0.00011433)
(1.7422e-08 6.41798e-09 -0.000114717)
(-1.31314e-08 -7.75765e-09 -0.000114125)
(1.36985e-08 -8.3657e-09 -0.000113798)
(-9.67532e-09 -6.22781e-09 -0.000114142)
(-2.45313e-09 1.37309e-10 -0.000113716)
(1.15456e-08 -7.57876e-09 -0.00011329)
(-1.53613e-08 -6.75802e-09 -0.000113566)
(-4.93481e-09 5.80148e-09 -0.000113211)
(-1.09408e-08 -5.05989e-09 -0.000113572)
(1.63529e-08 -9.56434e-09 -0.000107463)
(-1.23733e-08 -3.10283e-09 -0.000107204)
(1.04396e-08 -2.23443e-09 -0.000106739)
(-1.87877e-08 -8.1964e-09 -0.000106946)
(-1.42025e-08 -3.83354e-09 -0.000106726)
(1.90835e-08 -8.24529e-09 -0.000106945)
(1.22188e-08 -1.04054e-09 -0.000114149)
(6.27124e-09 5.34086e-09 -0.000113708)
(-1.80756e-08 -1.05879e-08 -0.000113261)
(9.13369e-09 -9.80942e-09 -0.000113556)
(3.57926e-09 3.13912e-09 -0.000113196)
(1.01389e-08 -5.3074e-09 -0.000113592)
(-1.14516e-08 6.54561e-09 -0.0001075)
(-5.07785e-10 -8.79274e-10 -0.000107125)
(-1.7317e-10 2.23087e-09 -0.000106644)
(-9.62887e-09 -9.92943e-09 -0.000106965)
(-4.71153e-10 -3.03467e-09 -0.000106662)
(-1.14877e-08 5.73394e-09 -0.000106977)
(9.08582e-09 -1.12765e-08 -0.000107508)
(1.77608e-09 2.81139e-09 -0.000107112)
(9.79554e-09 1.1137e-08 -0.000107496)
(-1.39122e-09 5.60516e-09 -0.000107103)
(2.3829e-10 1.36171e-09 -0.000106637)
(1.09517e-08 -6.05665e-09 -0.000106984)
(-8.52031e-10 1.56194e-09 -0.000106638)