/*--------------------------------*- C++ -*----------------------------------*\
| =========                 |                                                 |
| \\      /  F ield         | OpenFOAM: The Open Source CFD Toolbox           |
|  \\    /   O peration     | Version:  2206                                  |
|   \\  /    A nd           | Website:  www.openfoam.com                      |
|    \\/     M anipulation  |                                                 |
\*---------------------------------------------------------------------------*/
FoamFile
{
    version     2.0;
    format      ascii;
    arch        "LSB;label=32;scalar=64";
    class       volScalarField;
    location    "30";
    object      k;
}
// * * * * * * * * * * * * * * * * * * * * * * * * * * * * * * * * * * * * * //

dimensions      [0 2 -2 0 0 0 0];

internalField   nonuniform List<scalar> 
66616
(
3.56715e-05
3.60537e-05
3.60409e-05
3.64396e-05
3.36446e-05
3.38769e-05
3.38801e-05
3.4041e-05
3.15571e-05
3.12022e-05
3.12342e-05
3.06358e-05
2.96567e-05
2.93182e-05
2.93314e-05
2.87321e-05
2.82908e-05
2.84737e-05
2.84741e-05
2.77494e-05
2.75216e-05
2.79942e-05
2.79457e-05
2.69375e-05
2.70556e-05
2.81046e-05
2.81209e-05
2.69883e-05
2.66174e-05
2.822e-05
2.82307e-05
2.70993e-05
2.60994e-05
2.81006e-05
2.82698e-05
2.70569e-05
2.55852e-05
2.79527e-05
2.83093e-05
2.69302e-05
2.50798e-05
2.80037e-05
2.80075e-05
2.68425e-05
2.46554e-05
2.75487e-05
2.76297e-05
2.66713e-05
3.66164e-05
3.62809e-05
3.62827e-05
3.66187e-05
3.62757e-05
3.62769e-05
3.61402e-05
3.61427e-05
3.61431e-05
3.6141e-05
3.62788e-05
3.62777e-05
3.66169e-05
3.62824e-05
3.62819e-05
3.66212e-05
3.64362e-05
3.43703e-05
3.6044e-05
3.60434e-05
3.45156e-05
3.45207e-05
3.64386e-05
3.43702e-05
3.60588e-05
3.6055e-05
3.45113e-05
3.45177e-05
3.60612e-05
3.45204e-05
3.45127e-05
3.64392e-05
3.4371e-05
3.60501e-05
3.45338e-05
3.45165e-05
3.43693e-05
3.40384e-05
3.09892e-05
3.39063e-05
3.39011e-05
3.18842e-05
3.19012e-05
3.40431e-05
3.10259e-05
3.38864e-05
3.38865e-05
3.1842e-05
3.18423e-05
3.38885e-05
3.18368e-05
3.18367e-05
3.40388e-05
3.09934e-05
3.39052e-05
3.18974e-05
3.18869e-05
3.09872e-05
3.06409e-05
2.88879e-05
3.12632e-05
3.12666e-05
2.97506e-05
2.97829e-05
3.06758e-05
2.89716e-05
3.12042e-05
3.11915e-05
2.97137e-05
2.96944e-05
3.12184e-05
2.96879e-05
2.96674e-05
3.06396e-05
2.88854e-05
3.12628e-05
2.97384e-05
2.97455e-05
2.88692e-05
2.87626e-05
2.78554e-05
2.94052e-05
2.94099e-05
2.86928e-05
2.87897e-05
2.88637e-05
2.81212e-05
2.93443e-05
2.93241e-05
2.86795e-05
2.86709e-05
2.936e-05
2.86275e-05
2.85599e-05
2.87487e-05
2.78199e-05
2.94053e-05
2.8654e-05
2.87178e-05
2.78352e-05
2.77561e-05
2.71058e-05
2.83827e-05
2.86743e-05
2.82668e-05
2.8274e-05
2.80351e-05
2.71491e-05
2.86016e-05
2.85725e-05
2.82284e-05
2.82777e-05
2.84244e-05
2.81498e-05
2.78895e-05
2.77106e-05
2.69632e-05
2.85496e-05
2.81188e-05
2.81918e-05
2.69728e-05
2.70619e-05
2.72031e-05
2.83554e-05
2.82041e-05
2.82846e-05
2.81114e-05
2.71086e-05
2.69714e-05
2.81743e-05
2.82279e-05
2.81501e-05
2.80204e-05
2.78987e-05
2.80557e-05
2.81153e-05
2.68848e-05
2.69118e-05
2.81727e-05
2.80634e-05
2.82738e-05
2.69918e-05
2.71086e-05
2.71794e-05
2.83057e-05
2.8255e-05
2.83559e-05
2.81891e-05
2.69681e-05
2.71411e-05
2.81598e-05
2.80512e-05
2.8125e-05
2.80988e-05
2.81541e-05
2.8171e-05
2.83059e-05
2.69254e-05
2.71135e-05
2.84129e-05
2.82892e-05
2.84078e-05
2.71159e-05
2.71098e-05
2.70854e-05
2.82679e-05
2.82459e-05
2.82121e-05
2.82211e-05
2.70605e-05
2.69727e-05
2.812e-05
2.80762e-05
2.80932e-05
2.80603e-05
2.83335e-05
2.81353e-05
2.82725e-05
2.7186e-05
2.71203e-05
2.83825e-05
2.82401e-05
2.8195e-05
2.70234e-05
2.69903e-05
2.69619e-05
2.82168e-05
2.81393e-05
2.80498e-05
2.80836e-05
2.69429e-05
2.68331e-05
2.80984e-05
2.80539e-05
2.79987e-05
2.80517e-05
2.8259e-05
2.79344e-05
2.83427e-05
2.7152e-05
2.69787e-05
2.82008e-05
2.83341e-05
2.81745e-05
2.69432e-05
2.69636e-05
2.68497e-05
2.80577e-05
2.80703e-05
2.80925e-05
2.79941e-05
2.68158e-05
2.681e-05
2.79426e-05
2.7969e-05
2.77194e-05
2.79215e-05
2.82871e-05
2.8e-05
2.79827e-05
2.69448e-05
2.68613e-05
2.80876e-05
2.80903e-05
2.80145e-05
2.6815e-05
2.68206e-05
2.67564e-05
2.81181e-05
2.8005e-05
2.80127e-05
2.78496e-05
2.68878e-05
2.67819e-05
2.77157e-05
2.78763e-05
2.76725e-05
2.75972e-05
2.78966e-05
2.76915e-05
2.76706e-05
2.68528e-05
2.6818e-05
2.78744e-05
2.77844e-05
2.76801e-05
2.66049e-05
2.6731e-05
2.79691e-05
2.77821e-05
2.66749e-05
2.76328e-05
2.75763e-05
2.7576e-05
2.68312e-05
2.76284e-05
3.69253e-05
3.69793e-05
3.6937e-05
3.69361e-05
3.76473e-05
3.70539e-05
3.89713e-05
3.69561e-05
3.76457e-05
3.70541e-05
3.69566e-05
3.89709e-05
3.72111e-05
4.01184e-05
4.01082e-05
3.47146e-05
1.48891e-05
3.86315e-05
1.13319e-05
1.62219e-05
9.57684e-06
3.46057e-05
1.4862e-05
3.86309e-05
1.13268e-05
3.56664e-05
3.56667e-05
3.56724e-05
3.4151e-05
3.41548e-05
3.4157e-05
3.41507e-05
3.61635e-05
3.62854e-05
3.58301e-05
3.55706e-05
3.75281e-05
3.15334e-05
3.53171e-05
1.63024e-05
9.60307e-06
3.61869e-05
3.58298e-05
3.62984e-05
3.55904e-05
3.75244e-05
3.53212e-05
3.14899e-05
3.08865e-05
3.08993e-05
3.5621e-05
2.40568e-05
2.40051e-05
2.20959e-05
6.43272e-06
2.61064e-05
5.83737e-06
5.22786e-06
4.88668e-06
2.1527e-05
6.31543e-06
2.5866e-05
5.73251e-06
3.36413e-05
3.36387e-05
3.36474e-05
3.20744e-05
3.20781e-05
3.20837e-05
3.20734e-05
2.94389e-05
2.26624e-05
3.37888e-05
3.3204e-05
3.23668e-05
1.91856e-05
3.32341e-05
5.19845e-06
4.83449e-06
2.98473e-05
3.37849e-05
2.29421e-05
3.32472e-05
3.24989e-05
3.32426e-05
1.95472e-05
1.52117e-05
1.54144e-05
3.27071e-05
1.26273e-05
1.2694e-05
1.85675e-05
6.50306e-06
1.93147e-05
7.44811e-06
5.18451e-06
5.54804e-06
1.82421e-05
6.35758e-06
1.88352e-05
7.30101e-06
3.15494e-05
3.15472e-05
3.15588e-05
3.00829e-05
3.00928e-05
3.0085e-05
3.00796e-05
2.52371e-05
1.73865e-05
3.15522e-05
3.06254e-05
2.63642e-05
1.70886e-05
3.10373e-05
5.1247e-06
5.48396e-06
2.55775e-05
3.1593e-05
1.7576e-05
3.06782e-05
2.67072e-05
3.10815e-05
1.70816e-05
1.12667e-05
1.14325e-05
2.96791e-05
1.10606e-05
1.13344e-05
1.6912e-05
7.97595e-06
1.75831e-05
7.88588e-06
5.57333e-06
5.46725e-06
1.65996e-05
7.91559e-06
1.74161e-05
7.88457e-06
2.96442e-05
2.96394e-05
2.96531e-05
2.85619e-05
2.8584e-05
2.85551e-05
2.85694e-05
2.35778e-05
1.65246e-05
2.98012e-05
2.90359e-05
2.42972e-05
1.61062e-05
2.95028e-05
5.4725e-06
5.36106e-06
2.36342e-05
2.98639e-05
1.64576e-05
2.90801e-05
2.43856e-05
2.95515e-05
1.62067e-05
1.05592e-05
1.08734e-05
2.83364e-05
1.01894e-05
1.05505e-05
1.54974e-05
7.94208e-06
1.58883e-05
8.06029e-06
5.34599e-06
5.32299e-06
1.55125e-05
7.7623e-06
1.57611e-05
7.82684e-06
2.82932e-05
2.8267e-05
2.82874e-05
2.76626e-05
2.76573e-05
2.76286e-05
2.76662e-05
2.20668e-05
1.58249e-05
2.87811e-05
2.8372e-05
2.26668e-05
1.58708e-05
2.86199e-05
5.18343e-06
5.22894e-06
2.21872e-05
2.89525e-05
1.59221e-05
2.83786e-05
2.27325e-05
2.88077e-05
1.58897e-05
9.86982e-06
1.02435e-05
2.73784e-05
9.8185e-06
1.0182e-05
1.54395e-05
8.2853e-06
1.54065e-05
8.34635e-06
5.33517e-06
5.35199e-06
1.54895e-05
7.99771e-06
1.54789e-05
8.03658e-06
2.74971e-05
2.74703e-05
2.75215e-05
2.71609e-05
2.71326e-05
2.71247e-05
2.72046e-05
2.15552e-05
1.62223e-05
2.84162e-05
2.80727e-05
2.16181e-05
1.63674e-05
2.82497e-05
5.35744e-06
5.44166e-06
2.18605e-05
2.84595e-05
1.61111e-05
2.80566e-05
2.17729e-05
2.82837e-05
1.62705e-05
9.92916e-06
1.0123e-05
2.70528e-05
1.00945e-05
1.02623e-05
1.56531e-05
8.43275e-06
1.55958e-05
8.44575e-06
5.32315e-06
5.31677e-06
1.56867e-05
8.07747e-06
1.56448e-05
8.09408e-06
2.70357e-05
2.70078e-05
2.7105e-05
2.67272e-05
2.67045e-05
2.66782e-05
2.67803e-05
2.17935e-05
1.66e-05
2.84598e-05
2.81124e-05
2.16248e-05
1.66638e-05
2.84613e-05
5.51933e-06
5.55214e-06
2.20235e-05
2.82696e-05
1.66514e-05
2.81373e-05
2.19539e-05
2.82992e-05
1.67395e-05
1.03391e-05
1.0395e-05
2.71435e-05
1.03999e-05
1.0443e-05
1.58518e-05
8.53062e-06
1.57926e-05
8.54281e-06
5.30895e-06
5.31979e-06
1.57046e-05
8.18536e-06
1.57041e-05
8.23873e-06
2.65929e-05
2.65443e-05
2.66389e-05
2.62144e-05
2.62507e-05
2.61862e-05
2.62986e-05
2.19229e-05
1.66519e-05
2.85767e-05
2.81252e-05
2.18891e-05
1.66391e-05
2.85995e-05
5.58029e-06
5.58905e-06
2.20856e-05
2.85104e-05
1.68133e-05
2.82289e-05
2.20443e-05
2.84375e-05
1.68367e-05
1.04089e-05
1.0524e-05
2.71493e-05
1.03714e-05
1.05533e-05
1.59498e-05
8.54091e-06
1.59102e-05
8.56186e-06
5.41806e-06
5.47221e-06
1.56462e-05
8.23677e-06
1.56266e-05
8.19546e-06
2.61186e-05
2.60628e-05
2.61701e-05
2.57046e-05
2.57667e-05
2.56599e-05
2.57477e-05
2.18384e-05
1.65761e-05
2.86567e-05
2.80609e-05
2.19796e-05
1.65663e-05
2.85617e-05
5.51894e-06
5.51963e-06
2.2077e-05
2.85601e-05
1.67991e-05
2.826e-05
2.20808e-05
2.85661e-05
1.67265e-05
1.03782e-05
1.05012e-05
2.70451e-05
1.03934e-05
1.05218e-05
1.59155e-05
8.46473e-06
1.59587e-05
8.45614e-06
5.51815e-06
5.54627e-06
1.55497e-05
8.18999e-06
1.55283e-05
8.13665e-06
2.56527e-05
2.55504e-05
2.56119e-05
2.51863e-05
2.53172e-05
2.51291e-05
2.52022e-05
2.18526e-05
1.6562e-05
2.82901e-05
2.7928e-05
2.18003e-05
1.65676e-05
2.81997e-05
5.56044e-06
5.57196e-06
2.19807e-05
2.83528e-05
1.66685e-05
2.82482e-05
2.20179e-05
2.82582e-05
1.66801e-05
1.03478e-05
1.05114e-05
2.696e-05
1.03431e-05
1.05052e-05
1.58965e-05
8.43445e-06
1.59046e-05
8.42629e-06
5.52778e-06
5.53607e-06
1.55176e-05
8.11818e-06
1.55611e-05
8.16264e-06
2.5203e-05
2.4993e-05
2.50598e-05
2.48055e-05
2.49264e-05
2.46839e-05
2.47891e-05
2.19069e-05
1.65736e-05
2.79768e-05
2.79306e-05
2.18745e-05
1.65956e-05
2.78774e-05
5.61127e-06
5.60149e-06
2.18576e-05
2.80394e-05
1.66981e-05
2.79306e-05
2.18768e-05
2.79517e-05
1.66853e-05
1.03508e-05
1.04459e-05
2.67922e-05
1.0321e-05
1.04057e-05
1.5648e-05
8.35938e-06
1.59236e-05
8.27507e-06
5.52483e-06
5.52907e-06
8.22703e-06
1.54999e-05
2.47575e-05
2.44795e-05
2.46546e-05
2.17511e-05
1.6579e-05
2.77034e-05
2.75948e-05
2.1846e-05
1.65679e-05
2.76532e-05
5.60205e-06
2.17414e-05
2.77006e-05
1.67116e-05
2.18984e-05
2.75377e-05
1.03292e-05
1.04029e-05
2.65702e-05
1.03757e-05
1.03119e-05
3.72085e-05
4.01219e-05
4.01269e-05
8.22183e-06
3.9784e-05
8.2078e-06
3.97906e-05
3.71138e-05
3.10245e-05
3.08825e-05
4.11312e-05
4.11361e-05
3.76459e-05
3.7054e-05
3.89662e-05
3.69577e-05
3.76466e-05
3.70552e-05
3.89723e-05
3.69548e-05
3.8464e-05
4.3322e-06
4.1901e-05
3.94509e-05
3.84685e-05
4.22188e-06
4.18642e-05
3.94304e-05
3.77506e-05
3.68943e-05
3.66138e-05
3.63061e-05
3.98547e-05
3.68092e-05
3.7767e-05
3.77512e-05
3.68958e-05
3.64804e-05
3.63075e-05
3.98565e-05
3.68075e-05
3.77631e-05
3.72101e-05
4.01181e-05
4.01203e-05
8.15368e-06
3.97619e-05
3.71156e-05
3.08462e-05
3.09003e-05
4.11265e-05
4.11292e-05
8.20918e-06
3.97593e-05
3.76446e-05
3.70522e-05
3.89692e-05
3.69579e-05
3.76476e-05
3.70519e-05
3.69574e-05
3.89715e-05
3.84636e-05
4.36932e-06
4.19155e-05
3.94288e-05
3.77494e-05
3.68952e-05
3.65981e-05
3.63062e-05
3.9862e-05
3.68092e-05
3.77664e-05
3.84672e-05
4.3695e-06
4.18696e-05
3.94271e-05
3.77521e-05
3.68948e-05
3.63064e-05
3.66013e-05
3.68091e-05
3.98571e-05
3.7764e-05
3.69283e-05
3.69771e-05
3.69329e-05
3.69358e-05
3.69277e-05
3.6977e-05
3.69323e-05
3.69341e-05
3.69276e-05
3.69782e-05
3.69341e-05
3.69371e-05
3.66818e-05
3.67666e-05
3.60733e-05
3.60734e-05
3.67175e-05
3.6717e-05
3.60109e-05
3.66834e-05
3.67661e-05
3.60732e-05
3.60764e-05
3.67145e-05
3.67187e-05
3.60106e-05
3.66845e-05
3.67661e-05
3.60744e-05
3.60748e-05
3.67153e-05
3.6716e-05
3.60131e-05
3.66833e-05
3.67665e-05
3.60749e-05
3.60751e-05
3.67171e-05
3.67185e-05
3.60115e-05
3.76471e-05
3.7054e-05
3.69542e-05
3.89716e-05
3.7751e-05
3.68952e-05
3.66146e-05
3.63055e-05
3.98576e-05
3.68083e-05
3.77645e-05
3.8466e-05
4.36543e-06
4.18566e-05
3.94171e-05
3.77515e-05
3.6897e-05
3.63052e-05
3.66094e-05
3.68069e-05
3.9857e-05
3.77586e-05
3.84695e-05
4.36435e-06
4.18939e-05
3.94087e-05
3.72099e-05
4.01098e-05
4.01173e-05
8.21545e-06
3.97637e-05
3.71155e-05
3.0999e-05
3.10097e-05
4.11312e-05
4.1116e-05
8.20884e-06
3.97603e-05
3.76466e-05
3.70548e-05
3.69542e-05
3.8967e-05
3.77496e-05
3.68941e-05
3.63077e-05
3.66097e-05
3.68089e-05
3.98556e-05
3.77624e-05
3.77512e-05
3.68953e-05
3.63076e-05
3.66021e-05
3.68074e-05
3.98547e-05
3.77587e-05
3.84665e-05
4.3661e-06
4.19088e-05
3.94339e-05
3.84701e-05
4.36338e-06
4.18962e-05
3.94091e-05
3.7116e-05
3.08989e-05
3.08741e-05
4.11399e-05
4.11305e-05
8.20644e-06
3.97942e-05
8.20024e-06
3.97636e-05
1.63026e-05
9.61692e-06
1.62927e-05
9.62088e-06
3.09449e-05
3.09002e-05
3.56175e-05
2.40213e-05
2.40278e-05
5.51948e-06
7.74656e-06
5.48261e-06
7.75999e-06
3.54092e-05
1.67029e-05
1.65536e-05
2.19107e-05
2.1897e-05
3.46875e-05
1.4789e-05
3.86448e-05
1.12837e-05
3.61833e-05
3.62842e-05
3.58311e-05
3.55829e-05
3.75228e-05
3.14901e-05
3.53175e-05
3.61835e-05
3.62071e-05
3.58266e-05
3.55833e-05
3.75267e-05
3.14619e-05
3.53199e-05
3.29681e-05
6.91698e-06
9.56196e-06
2.76229e-05
3.29993e-05
6.92225e-06
9.55141e-06
2.75667e-05
3.55671e-05
3.50694e-05
2.44094e-05
3.43087e-05
2.95692e-05
3.48322e-05
3.32401e-05
3.55619e-05
3.5067e-05
2.44362e-05
3.43107e-05
2.95349e-05
3.48282e-05
3.32588e-05
3.0862e-05
3.08827e-05
3.56199e-05
2.39884e-05
2.40694e-05
1.62869e-05
9.61738e-06
5.51736e-06
7.72152e-06
3.54095e-05
1.66911e-05
1.65542e-05
2.18881e-05
2.18968e-05
5.47509e-06
7.75462e-06
3.61639e-05
3.62776e-05
3.58324e-05
3.55623e-05
3.75205e-05
3.15126e-05
3.53177e-05
3.45812e-05
1.48608e-05
3.86539e-05
1.13018e-05
3.61505e-05
3.58313e-05
3.62982e-05
3.55689e-05
3.75319e-05
3.53164e-05
3.14799e-05
3.30726e-05
6.78516e-06
9.57939e-06
2.73271e-05
3.5579e-05
3.50919e-05
2.41177e-05
3.43295e-05
2.95688e-05
3.48351e-05
3.31115e-05
3.30983e-05
6.78312e-06
9.58557e-06
2.73793e-05
3.55916e-05
3.50859e-05
3.43271e-05
2.40782e-05
3.48342e-05
2.95827e-05
3.31227e-05
3.45646e-05
1.48658e-05
3.86871e-05
1.13234e-05
3.61444e-05
3.58333e-05
3.62832e-05
3.5563e-05
3.75376e-05
3.53153e-05
3.14998e-05
3.45728e-05
1.48584e-05
3.86834e-05
1.1307e-05
3.55828e-05
3.50809e-05
2.41222e-05
3.433e-05
2.95486e-05
3.48334e-05
3.30943e-05
3.31273e-05
6.77906e-06
9.5943e-06
2.73613e-05
3.56028e-05
3.50935e-05
3.43272e-05
2.4092e-05
3.48354e-05
2.9553e-05
3.30991e-05
3.31277e-05
6.77718e-06
9.58454e-06
2.73917e-05
3.09196e-05
3.09603e-05
3.56203e-05
2.4011e-05
2.40527e-05
1.63187e-05
9.62684e-06
5.47404e-06
7.75111e-06
3.54109e-05
1.65181e-05
1.67202e-05
2.19024e-05
2.19399e-05
5.52839e-06
7.76096e-06
3.61618e-05
3.58298e-05
3.62905e-05
3.55817e-05
3.75309e-05
3.53213e-05
3.14824e-05
3.46799e-05
1.48589e-05
3.86523e-05
1.13094e-05
3.45663e-05
1.4858e-05
3.86761e-05
1.13086e-05
3.55523e-05
3.50572e-05
3.43165e-05
2.44263e-05
3.48311e-05
2.95247e-05
3.32443e-05
3.55644e-05
3.50745e-05
3.43145e-05
2.4422e-05
3.48327e-05
2.95848e-05
3.32442e-05
3.29813e-05
6.91923e-06
9.5713e-06
2.75796e-05
3.30503e-05
6.92684e-06
9.57427e-06
2.75418e-05
1.62952e-05
9.62001e-06
1.6302e-05
9.61952e-06
3.54095e-05
1.6583e-05
1.668e-05
2.18591e-05
2.18887e-05
5.47883e-06
7.7492e-06
5.52463e-06
7.7545e-06
5.21044e-06
4.85212e-06
5.19366e-06
4.8324e-06
1.53887e-05
1.52821e-05
3.27145e-05
1.27073e-05
1.26453e-05
4.98456e-06
4.85186e-06
4.96225e-06
4.84021e-06
3.23052e-05
1.14916e-05
1.13834e-05
1.23212e-05
1.22504e-05
2.21513e-05
6.43643e-06
2.61587e-05
5.82488e-06
2.98501e-05
2.2942e-05
3.37863e-05
3.3227e-05
3.25039e-05
1.95727e-05
3.32344e-05
2.98399e-05
2.29526e-05
3.3783e-05
3.32333e-05
3.24831e-05
1.96767e-05
3.32356e-05
2.12987e-05
6.22681e-06
5.87063e-06
1.96634e-05
2.13403e-05
6.15984e-06
5.84883e-06
1.95351e-05
2.90984e-05
3.25648e-05
1.79121e-05
3.21225e-05
1.90933e-05
3.26797e-05
2.70943e-05
2.90878e-05
3.25662e-05
1.80273e-05
3.21236e-05
1.91181e-05
3.26779e-05
2.70906e-05
1.54831e-05
1.532e-05
3.27184e-05
1.28241e-05
1.26552e-05
5.19321e-06
4.83597e-06
5.08957e-06
4.89214e-06
3.23198e-05
1.17043e-05
1.14021e-05
1.24554e-05
1.2246e-05
4.95196e-06
4.83595e-06
2.9463e-05
2.26441e-05
3.3789e-05
3.32056e-05
3.23414e-05
1.91982e-05
3.32359e-05
2.15865e-05
6.31053e-06
2.57921e-05
5.69697e-06
2.94489e-05
3.37886e-05
2.26649e-05
3.32099e-05
3.23157e-05
3.32323e-05
1.91388e-05
2.08759e-05
6.12918e-06
5.76776e-06
1.90703e-05
2.88159e-05
3.25153e-05
1.75471e-05
3.21022e-05
1.86844e-05
3.26622e-05
2.67332e-05
2.08567e-05
6.00115e-06
5.71849e-06
1.91668e-05
2.87825e-05
3.25135e-05
3.20985e-05
1.75442e-05
3.26585e-05
1.87042e-05
2.6713e-05
2.16257e-05
6.3153e-06
2.58993e-05
5.71345e-06
2.94417e-05
3.37906e-05
2.26106e-05
3.32061e-05
3.23552e-05
3.32315e-05
1.92327e-05
2.16275e-05
6.30795e-06
2.58515e-05
5.72224e-06
2.87855e-05
3.25168e-05
1.75597e-05
3.20984e-05
1.86823e-05
3.26634e-05
2.67238e-05
2.08932e-05
5.99216e-06
5.74227e-06
1.90307e-05
2.87766e-05
3.25227e-05
3.20942e-05
1.75542e-05
3.26638e-05
1.87148e-05
2.66829e-05
2.08703e-05
6.01285e-06
5.73574e-06
1.90103e-05
1.53351e-05
1.54107e-05
3.27112e-05
1.26546e-05
1.26824e-05
5.21727e-06
4.84839e-06
5.01882e-06
4.83936e-06
3.23049e-05
1.14247e-05
1.13842e-05
1.22589e-05
1.23503e-05
4.95991e-06
4.84529e-06
2.98371e-05
3.37885e-05
2.29726e-05
3.32346e-05
3.24802e-05
3.32401e-05
1.95509e-05
2.21005e-05
6.43439e-06
2.61411e-05
5.81012e-06
2.21704e-05
6.43665e-06
2.60828e-05
5.8298e-06
2.91169e-05
3.25358e-05
3.21305e-05
1.78284e-05
3.26814e-05
1.89428e-05
2.71701e-05
2.91351e-05
3.25628e-05
3.21301e-05
1.77674e-05
3.26851e-05
1.90511e-05
2.7156e-05
2.13588e-05
6.10063e-06
5.83289e-06
1.9548e-05
2.14877e-05
6.14228e-06
5.84992e-06
1.96283e-05
5.1743e-06
4.80512e-06
5.227e-06
4.85581e-06
3.22997e-05
1.13896e-05
1.15423e-05
1.21634e-05
1.23227e-05
4.94389e-06
4.80025e-06
5.006e-06
4.85029e-06
5.16156e-06
5.50187e-06
5.12316e-06
5.46733e-06
1.14184e-05
1.12992e-05
2.96891e-05
1.1172e-05
1.11026e-05
5.55093e-06
5.56904e-06
5.53952e-06
5.55563e-06
2.94791e-05
1.0874e-05
1.0814e-05
1.11913e-05
1.11059e-05
1.84297e-05
6.47164e-06
1.93288e-05
7.33478e-06
2.55876e-05
1.78372e-05
3.15839e-05
3.06877e-05
2.67057e-05
1.74423e-05
3.10763e-05
2.55525e-05
1.79078e-05
3.15825e-05
3.0713e-05
2.66529e-05
1.7551e-05
3.108e-05
1.84134e-05
7.99336e-06
7.73722e-06
1.77955e-05
1.83114e-05
7.91189e-06
7.61703e-06
1.76238e-05
2.53665e-05
3.01917e-05
1.68991e-05
3.02008e-05
1.73708e-05
3.06155e-05
2.46068e-05
2.53225e-05
3.01886e-05
1.69999e-05
3.02092e-05
1.74364e-05
3.06146e-05
2.45506e-05
1.16452e-05
1.13584e-05
2.97344e-05
1.14098e-05
1.11e-05
5.11925e-06
5.4035e-06
5.62811e-06
5.62177e-06
2.95299e-05
1.11071e-05
1.07259e-05
1.1429e-05
1.11078e-05
5.4555e-06
5.47367e-06
2.52781e-05
1.74365e-05
3.15511e-05
3.06371e-05
2.64074e-05
1.7222e-05
3.10441e-05
1.83412e-05
6.34326e-06
1.90535e-05
7.24633e-06
2.52408e-05
3.15444e-05
1.74784e-05
3.06367e-05
2.63915e-05
3.10398e-05
1.71367e-05
1.82016e-05
7.94129e-06
7.66513e-06
1.76036e-05
2.51505e-05
3.01342e-05
1.68116e-05
3.01735e-05
1.72175e-05
3.05782e-05
2.43269e-05
1.8297e-05
7.78004e-06
7.5273e-06
1.76085e-05
2.50992e-05
3.01132e-05
3.01641e-05
1.66788e-05
3.05657e-05
1.71287e-05
2.42608e-05
1.82241e-05
6.28166e-06
1.88363e-05
7.13847e-06
2.52552e-05
3.15507e-05
1.74097e-05
3.06102e-05
2.638e-05
3.10306e-05
1.71991e-05
1.82631e-05
6.29532e-06
1.88935e-05
7.1698e-06
2.51196e-05
3.01121e-05
1.66601e-05
3.0154e-05
1.70407e-05
3.0574e-05
2.44078e-05
1.82082e-05
7.7622e-06
7.48412e-06
1.7706e-05
2.51364e-05
3.01551e-05
3.01388e-05
1.65819e-05
3.05775e-05
1.71962e-05
2.43611e-05
1.82571e-05
7.71007e-06
7.44946e-06
1.76626e-05
1.14251e-05
1.12957e-05
2.96775e-05
1.11758e-05
1.10213e-05
5.06257e-06
5.40047e-06
5.52311e-06
5.57309e-06
2.94725e-05
1.07986e-05
1.0754e-05
1.12074e-05
1.10222e-05
5.44187e-06
5.44419e-06
2.56014e-05
3.15954e-05
1.77033e-05
3.06829e-05
2.67519e-05
3.10853e-05
1.73368e-05
1.8544e-05
6.41306e-06
1.93018e-05
7.18304e-06
1.86815e-05
6.36442e-06
1.94033e-05
7.24758e-06
2.53632e-05
3.01485e-05
3.01991e-05
1.66513e-05
3.06342e-05
1.70457e-05
2.45915e-05
2.54283e-05
3.01914e-05
3.02105e-05
1.68778e-05
3.06345e-05
1.73231e-05
2.4596e-05
1.84686e-05
7.73428e-06
7.4024e-06
1.77804e-05
1.86214e-05
7.8261e-06
7.50449e-06
1.78601e-05
5.12083e-06
5.42017e-06
5.15618e-06
5.51447e-06
2.94641e-05
1.07239e-05
1.09951e-05
1.10583e-05
1.12413e-05
5.44273e-06
5.47258e-06
5.53607e-06
5.55473e-06
5.50295e-06
5.35451e-06
5.54056e-06
5.38658e-06
1.07439e-05
1.07497e-05
2.83445e-05
1.04128e-05
1.04913e-05
5.32201e-06
5.35928e-06
5.32279e-06
5.38144e-06
2.82391e-05
1.02516e-05
1.03795e-05
1.03769e-05
1.04659e-05
1.67145e-05
7.97817e-06
1.74702e-05
7.98202e-06
2.37416e-05
1.68151e-05
2.98378e-05
2.91054e-05
2.44294e-05
1.63631e-05
2.95311e-05
2.37144e-05
1.6928e-05
2.98373e-05
2.91574e-05
2.4382e-05
1.64888e-05
2.95527e-05
1.66483e-05
7.94468e-06
7.8994e-06
1.60685e-05
1.65791e-05
7.96327e-06
8.01047e-06
1.60422e-05
2.35445e-05
2.88989e-05
1.61964e-05
2.90949e-05
1.6308e-05
2.9279e-05
2.29224e-05
2.35068e-05
2.89282e-05
1.62356e-05
2.91165e-05
1.6429e-05
2.93031e-05
2.28845e-05
1.10339e-05
1.06829e-05
2.84823e-05
1.07079e-05
1.03362e-05
5.42981e-06
5.29197e-06
5.37604e-06
5.46776e-06
2.8424e-05
1.04343e-05
1.01451e-05
1.07522e-05
1.03225e-05
5.22406e-06
5.29582e-06
2.34062e-05
1.67203e-05
2.98056e-05
2.90761e-05
2.42129e-05
1.63472e-05
2.95111e-05
1.66493e-05
7.85181e-06
1.74608e-05
7.81389e-06
2.34007e-05
2.9786e-05
1.66245e-05
2.90478e-05
2.41514e-05
2.95097e-05
1.61645e-05
1.65071e-05
7.78827e-06
7.85808e-06
1.59553e-05
2.3289e-05
2.88472e-05
1.61239e-05
2.90721e-05
1.63243e-05
2.92619e-05
2.26101e-05
1.6535e-05
7.71075e-06
7.80814e-06
1.59691e-05
2.32828e-05
2.88412e-05
2.90638e-05
1.58081e-05
2.92437e-05
1.60745e-05
2.25623e-05
1.70188e-05
7.78885e-06
1.76814e-05
7.75332e-06
2.34921e-05
2.98055e-05
1.64827e-05
2.902e-05
2.42571e-05
2.94671e-05
1.5856e-05
1.67027e-05
7.68712e-06
1.75125e-05
7.55772e-06
2.34511e-05
2.88125e-05
1.58864e-05
2.90857e-05
1.60801e-05
2.92415e-05
2.27865e-05
1.68791e-05
7.7096e-06
7.76187e-06
1.62195e-05
2.33869e-05
2.8839e-05
2.90341e-05
1.54824e-05
2.92458e-05
1.57484e-05
2.25832e-05
1.65672e-05
7.47984e-06
7.56518e-06
1.58251e-05
1.07642e-05
1.07093e-05
2.8344e-05
1.04138e-05
1.04792e-05
5.44557e-06
5.31546e-06
5.20216e-06
5.30556e-06
2.82538e-05
1.00497e-05
1.02653e-05
1.03802e-05
1.04844e-05
5.21763e-06
5.29513e-06
2.36581e-05
2.98599e-05
1.66935e-05
2.90895e-05
2.44254e-05
2.95591e-05
1.6264e-05
1.68325e-05
7.81487e-06
1.75719e-05
7.74416e-06
1.69215e-05
7.85247e-06
1.76822e-05
7.87779e-06
2.34929e-05
2.88089e-05
2.91274e-05
1.59319e-05
2.93152e-05
1.61759e-05
2.28687e-05
2.34749e-05
2.89378e-05
2.91167e-05
1.61082e-05
2.93183e-05
1.62548e-05
2.28068e-05
1.6667e-05
7.65549e-06
7.73349e-06
1.60362e-05
1.67062e-05
7.94085e-06
7.89714e-06
1.61231e-05
5.35789e-06
5.1581e-06
5.53144e-06
5.3828e-06
2.82466e-05
9.92471e-06
1.03254e-05
1.0088e-05
1.05497e-05
5.08103e-06
5.1356e-06
5.32386e-06
5.37763e-06
5.35375e-06
5.39376e-06
5.322e-06
5.32297e-06
1.02724e-05
1.03908e-05
2.73999e-05
1.03688e-05
1.03268e-05
5.49666e-06
5.43797e-06
5.37826e-06
5.36275e-06
2.73241e-05
1.05301e-05
1.03532e-05
1.0416e-05
1.03397e-05
1.56834e-05
7.96627e-06
1.60058e-05
7.94067e-06
2.22103e-05
1.62081e-05
2.89703e-05
2.83335e-05
2.27555e-05
1.62774e-05
2.87207e-05
2.21632e-05
1.61879e-05
2.8954e-05
2.85388e-05
2.26825e-05
1.61856e-05
2.8818e-05
1.55096e-05
8.29417e-06
8.08944e-06
1.54614e-05
1.55644e-05
8.03749e-06
8.0071e-06
1.55486e-05
2.20817e-05
2.82527e-05
1.64917e-05
2.84193e-05
1.63348e-05
2.85679e-05
2.17217e-05
2.20467e-05
2.84623e-05
1.62014e-05
2.85095e-05
1.62042e-05
2.8678e-05
2.1731e-05
1.04324e-05
1.01417e-05
2.76819e-05
1.03187e-05
1.01882e-05
5.24801e-06
5.28643e-06
5.35017e-06
5.34447e-06
2.76018e-05
1.02375e-05
1.03336e-05
1.03148e-05
1.02173e-05
5.38706e-06
5.35935e-06
2.18642e-05
1.61177e-05
2.89534e-05
2.84236e-05
2.25309e-05
1.60874e-05
2.88467e-05
1.56277e-05
7.78159e-06
1.58809e-05
7.82351e-06
2.19068e-05
2.88633e-05
1.58071e-05
2.84673e-05
2.24818e-05
2.87267e-05
1.58212e-05
1.5478e-05
8.01257e-06
7.8948e-06
1.54859e-05
2.18202e-05
2.83185e-05
1.62712e-05
2.86858e-05
1.613e-05
2.87455e-05
2.16908e-05
1.56116e-05
7.97771e-06
7.8724e-06
1.56123e-05
2.18608e-05
2.84138e-05
2.84429e-05
1.60289e-05
2.85755e-05
1.58731e-05
2.16034e-05
1.57016e-05
7.73077e-06
1.606e-05
7.77555e-06
2.19652e-05
2.88584e-05
1.54581e-05
2.81929e-05
2.24836e-05
2.86831e-05
1.54626e-05
1.53975e-05
7.48039e-06
1.57549e-05
7.61445e-06
2.20232e-05
2.82328e-05
1.61748e-05
2.84565e-05
1.59236e-05
2.85877e-05
2.1656e-05
1.5614e-05
7.97994e-06
7.86435e-06
1.55027e-05
2.18514e-05
2.80979e-05
2.8317e-05
1.57394e-05
2.85622e-05
1.55282e-05
2.14715e-05
1.53864e-05
7.76645e-06
7.70578e-06
1.53434e-05
1.00968e-05
1.02444e-05
2.73349e-05
1.00181e-05
1.01707e-05
5.22538e-06
5.24756e-06
5.34563e-06
5.25993e-06
2.71716e-05
1.01872e-05
1.02135e-05
1.00726e-05
1.01853e-05
5.36136e-06
5.27237e-06
2.22024e-05
2.89605e-05
1.61071e-05
2.84842e-05
2.26587e-05
2.88391e-05
1.60924e-05
1.57287e-05
7.66568e-06
1.59214e-05
7.75461e-06
1.58433e-05
7.99995e-06
1.59714e-05
7.99452e-06
2.20926e-05
2.81877e-05
2.85352e-05
1.60758e-05
2.87083e-05
1.59045e-05
2.17979e-05
2.21309e-05
2.8389e-05
2.855e-05
1.62217e-05
2.87526e-05
1.61314e-05
2.18665e-05
1.57736e-05
8.01185e-06
7.8045e-06
1.57767e-05
1.57752e-05
8.09274e-06
8.02694e-06
1.57493e-05
5.05416e-06
5.08743e-06
5.33177e-06
5.31756e-06
2.72633e-05
9.92418e-06
1.0124e-05
9.87632e-06
1.02045e-05
5.20177e-06
5.14315e-06
5.35703e-06
5.31175e-06
5.55202e-06
5.58313e-06
5.39037e-06
5.37887e-06
1.05969e-05
1.03693e-05
2.7053e-05
1.06554e-05
1.03358e-05
5.62185e-06
5.63079e-06
5.42116e-06
5.41314e-06
2.70412e-05
1.07853e-05
1.03945e-05
1.07008e-05
1.03934e-05
1.55466e-05
8.07884e-06
1.55485e-05
8.08948e-06
2.15591e-05
1.65433e-05
2.83815e-05
2.83849e-05
2.16622e-05
1.66547e-05
2.82214e-05
2.16225e-05
1.62085e-05
2.84617e-05
2.81021e-05
2.16286e-05
1.62583e-05
2.82733e-05
1.54604e-05
8.45039e-06
8.40817e-06
1.55487e-05
1.55593e-05
8.11917e-06
8.13305e-06
1.56217e-05
2.15904e-05
2.83593e-05
1.68182e-05
2.82871e-05
1.67319e-05
2.8264e-05
2.17053e-05
2.15742e-05
2.81124e-05
1.62442e-05
2.8524e-05
1.62481e-05
2.83851e-05
2.17138e-05
1.02598e-05
1.0433e-05
2.70618e-05
1.0239e-05
1.05079e-05
5.43247e-06
5.46174e-06
5.34896e-06
5.36502e-06
2.69674e-05
1.01631e-05
1.05574e-05
1.02272e-05
1.05441e-05
5.53048e-06
5.51057e-06
2.15931e-05
1.63223e-05
2.84077e-05
2.81956e-05
2.1718e-05
1.63871e-05
2.83831e-05
1.5701e-05
8.01138e-06
1.56615e-05
8.12586e-06
2.16605e-05
2.83467e-05
1.61156e-05
2.81608e-05
2.16073e-05
2.83254e-05
1.63585e-05
1.55859e-05
8.10284e-06
8.07353e-06
1.55771e-05
2.16114e-05
2.80782e-05
1.64539e-05
2.83183e-05
1.6436e-05
2.84448e-05
2.16571e-05
1.57654e-05
8.28285e-06
8.19313e-06
1.57708e-05
2.16558e-05
2.80577e-05
2.82217e-05
1.65817e-05
2.81826e-05
1.64592e-05
2.17006e-05
1.55104e-05
8.06151e-06
1.54941e-05
8.11304e-06
2.14471e-05
2.83083e-05
1.58295e-05
2.8133e-05
2.14639e-05
2.83874e-05
1.6075e-05
1.5359e-05
7.85731e-06
1.53552e-05
7.95433e-06
2.15304e-05
2.80394e-05
1.65595e-05
2.83026e-05
1.64618e-05
2.82796e-05
2.16271e-05
1.55453e-05
8.23659e-06
8.20476e-06
1.56078e-05
2.14736e-05
2.80582e-05
2.82581e-05
1.63058e-05
2.82587e-05
1.61564e-05
2.16108e-05
1.54041e-05
8.14997e-06
8.02853e-06
1.55309e-05
1.03101e-05
1.02846e-05
2.68505e-05
1.0397e-05
1.03575e-05
5.37581e-06
5.42592e-06
5.51467e-06
5.47777e-06
2.68499e-05
1.04952e-05
1.05809e-05
1.04434e-05
1.04015e-05
5.53799e-06
5.46195e-06
2.18584e-05
2.85142e-05
1.62989e-05
2.8219e-05
2.18561e-05
2.83306e-05
1.64679e-05
1.59057e-05
8.10918e-06
1.58017e-05
8.15759e-06
1.58539e-05
8.14304e-06
1.57624e-05
8.17299e-06
2.19472e-05
2.80327e-05
2.82139e-05
1.66261e-05
2.83186e-05
1.63196e-05
2.1977e-05
2.19038e-05
2.82293e-05
2.83486e-05
1.66151e-05
2.83466e-05
1.65619e-05
2.18976e-05
1.59566e-05
8.31989e-06
8.2337e-06
1.60248e-05
1.59107e-05
8.2809e-06
8.25096e-06
1.59978e-05
5.25204e-06
5.3249e-06
5.3511e-06
5.38013e-06
2.69987e-05
1.0347e-05
1.03998e-05
1.01597e-05
1.02971e-05
5.40738e-06
5.35753e-06
5.44812e-06
5.41645e-06
5.65929e-06
5.66547e-06
5.44104e-06
5.41376e-06
1.08215e-05
1.04206e-05
2.71091e-05
1.08079e-05
1.03798e-05
5.69172e-06
5.6612e-06
5.4639e-06
5.4525e-06
2.70992e-05
1.08416e-05
1.04141e-05
1.0822e-05
1.04083e-05
1.57537e-05
8.14237e-06
1.56716e-05
8.13119e-06
2.16781e-05
1.68589e-05
2.83126e-05
2.84015e-05
2.16781e-05
1.69236e-05
2.84529e-05
2.18082e-05
1.62767e-05
2.8459e-05
2.81922e-05
2.17444e-05
1.62828e-05
2.85672e-05
1.56995e-05
8.54295e-06
8.49084e-06
1.57535e-05
1.57597e-05
8.17903e-06
8.15557e-06
1.58014e-05
2.1682e-05
2.83236e-05
1.69972e-05
2.85496e-05
1.69497e-05
2.85063e-05
2.18384e-05
2.18326e-05
2.81696e-05
1.6311e-05
2.85178e-05
1.62683e-05
2.84702e-05
2.18628e-05
1.01534e-05
1.05953e-05
2.70162e-05
1.01304e-05
1.0607e-05
5.56119e-06
5.54625e-06
5.32507e-06
5.32571e-06
2.70889e-05
1.01095e-05
1.06151e-05
1.01373e-05
1.06407e-05
5.54494e-06
5.57104e-06
2.17039e-05
1.64802e-05
2.83499e-05
2.82016e-05
2.16731e-05
1.64806e-05
2.83694e-05
1.58377e-05
8.33544e-06
1.58356e-05
8.33097e-06
2.17678e-05
2.82376e-05
1.66384e-05
2.80901e-05
2.17608e-05
2.83252e-05
1.67175e-05
1.57106e-05
8.19285e-06
8.14689e-06
1.57426e-05
2.17979e-05
2.81534e-05
1.65129e-05
2.84973e-05
1.64998e-05
2.84742e-05
2.18012e-05
1.58964e-05
8.43794e-06
8.38474e-06
1.58024e-05
2.1801e-05
2.80078e-05
2.8452e-05
1.67875e-05
2.84377e-05
1.67832e-05
2.18039e-05
1.57229e-05
8.27179e-06
1.56882e-05
8.24684e-06
2.17601e-05
2.83085e-05
1.63994e-05
2.8203e-05
2.16273e-05
2.84668e-05
1.64822e-05
1.56754e-05
8.23373e-06
1.56076e-05
8.20514e-06
2.17953e-05
2.81886e-05
1.66746e-05
2.85713e-05
1.67017e-05
2.85824e-05
2.18294e-05
1.57709e-05
8.26678e-06
8.28304e-06
1.58047e-05
2.17535e-05
2.82193e-05
2.86446e-05
1.65803e-05
2.85294e-05
1.65498e-05
2.18411e-05
1.57594e-05
8.27741e-06
8.25255e-06
1.57481e-05
1.05825e-05
1.06326e-05
2.70935e-05
1.05948e-05
1.07222e-05
5.59173e-06
5.606e-06
5.60373e-06
5.58423e-06
2.70249e-05
1.06116e-05
1.07896e-05
1.06476e-05
1.07838e-05
5.62003e-06
5.60304e-06
2.20161e-05
2.83846e-05
1.66388e-05
2.84529e-05
2.19184e-05
2.84287e-05
1.66904e-05
1.6163e-05
8.35716e-06
1.60768e-05
8.38734e-06
1.6128e-05
8.35831e-06