/*--------------------------------*- C++ -*----------------------------------*\
| =========                 |                                                 |
| \\      /  F ield         | OpenFOAM: The Open Source CFD Toolbox           |
|  \\    /   O peration     | Version:  2206                                  |
|   \\  /    A nd           | Website:  www.openfoam.com                      |
|    \\/     M anipulation  |                                                 |
\*---------------------------------------------------------------------------*/
FoamFile
{
    version     2.0;
    format      ascii;
    arch        "LSB;label=32;scalar=64";
    class       volScalarField;
    location    "30";
    object      nut;
}
// * * * * * * * * * * * * * * * * * * * * * * * * * * * * * * * * * * * * * //

dimensions      [0 2 -1 0 0 0 0];

internalField   nonuniform List<scalar> 
66616
(
1.66117e-06
1.65967e-06
1.659e-06
1.67553e-06
1.64688e-06
1.53839e-06
1.55341e-06
1.52541e-06
1.60847e-06
1.4185e-06
1.4337e-06
1.27005e-06
1.56695e-06
1.34992e-06
1.36779e-06
1.21036e-06
1.5435e-06
1.32531e-06
1.34007e-06
1.18147e-06
1.53131e-06
1.28883e-06
1.3048e-06
1.1515e-06
1.52225e-06
1.21173e-06
1.22873e-06
1.15677e-06
1.50021e-06
1.19354e-06
1.21045e-06
1.15945e-06
1.47165e-06
1.18337e-06
1.20792e-06
1.15728e-06
1.44226e-06
1.17438e-06
1.20797e-06
1.15055e-06
1.4143e-06
1.17317e-06
1.1937e-06
1.14963e-06
1.39036e-06
1.14981e-06
1.17691e-06
1.13939e-06
1.67646e-06
1.67168e-06
1.67181e-06
1.67652e-06
1.67146e-06
1.67157e-06
1.66193e-06
1.66291e-06
1.66264e-06
1.66245e-06
1.67163e-06
1.67092e-06
1.67645e-06
1.67184e-06
1.67112e-06
1.67669e-06
1.6758e-06
1.55446e-06
1.65911e-06
1.659e-06
1.60346e-06
1.60596e-06
1.67612e-06
1.55804e-06
1.66012e-06
1.6596e-06
1.58801e-06
1.59449e-06
1.65946e-06
1.5944e-06
1.58762e-06
1.6763e-06
1.55676e-06
1.65937e-06
1.60587e-06
1.60345e-06
1.55447e-06
1.5288e-06
1.28706e-06
1.56167e-06
1.55655e-06
1.45505e-06
1.46309e-06
1.53352e-06
1.29638e-06
1.54955e-06
1.54483e-06
1.44764e-06
1.43371e-06
1.54884e-06
1.44238e-06
1.44402e-06
1.52904e-06
1.28897e-06
1.5659e-06
1.45827e-06
1.46279e-06
1.29217e-06
1.28923e-06
1.22875e-06
1.44538e-06
1.44793e-06
1.3963e-06
1.38277e-06
1.28536e-06
1.2141e-06
1.43425e-06
1.4243e-06
1.38611e-06
1.36622e-06
1.42867e-06
1.36432e-06
1.37885e-06
1.2869e-06
1.21399e-06
1.44679e-06
1.38498e-06
1.39257e-06
1.22685e-06
1.22484e-06
1.19276e-06
1.3867e-06
1.377e-06
1.34965e-06
1.35021e-06
1.22258e-06
1.19835e-06
1.38113e-06
1.3677e-06
1.33919e-06
1.33016e-06
1.36857e-06
1.33269e-06
1.32479e-06
1.22649e-06
1.18644e-06
1.38141e-06
1.34648e-06
1.34985e-06
1.19708e-06
1.20376e-06
1.16825e-06
1.34582e-06
1.35584e-06
1.33706e-06
1.32918e-06
1.20951e-06
1.16171e-06
1.34226e-06
1.34254e-06
1.32007e-06
1.31619e-06
1.32654e-06
1.31915e-06
1.30013e-06
1.19809e-06
1.16094e-06
1.34933e-06
1.32738e-06
1.32968e-06
1.16496e-06
1.17375e-06
1.16945e-06
1.3176e-06
1.30965e-06
1.24325e-06
1.2353e-06
1.17783e-06
1.14908e-06
1.29735e-06
1.29227e-06
1.22735e-06
1.21443e-06
1.27723e-06
1.2234e-06
1.21931e-06
1.1681e-06
1.16179e-06
1.31554e-06
1.24014e-06
1.24936e-06
1.16108e-06
1.17303e-06
1.16783e-06
1.23009e-06
1.22754e-06
1.2135e-06
1.20609e-06
1.15658e-06
1.15872e-06
1.21395e-06
1.20199e-06
1.1946e-06
1.1867e-06
1.20736e-06
1.19677e-06
1.19641e-06
1.17558e-06
1.16441e-06
1.24129e-06
1.21763e-06
1.2223e-06
1.16215e-06
1.17282e-06
1.16137e-06
1.20503e-06
1.20369e-06
1.20144e-06
1.20131e-06
1.16326e-06
1.16163e-06
1.18897e-06
1.18058e-06
1.18771e-06
1.18027e-06
1.19216e-06
1.18997e-06
1.18955e-06
1.18146e-06
1.1696e-06
1.21643e-06
1.20976e-06
1.2072e-06
1.15973e-06
1.16668e-06
1.15517e-06
1.19851e-06
1.19435e-06
1.19435e-06
1.19508e-06
1.17247e-06
1.1556e-06
1.18278e-06
1.17495e-06
1.1842e-06
1.18038e-06
1.18365e-06
1.18218e-06
1.19342e-06
1.18008e-06
1.16652e-06
1.2041e-06
1.21316e-06
1.20621e-06
1.16344e-06
1.16412e-06
1.15041e-06
1.19069e-06
1.18986e-06
1.19667e-06
1.19168e-06
1.16402e-06
1.15363e-06
1.17361e-06
1.16861e-06
1.17428e-06
1.17668e-06
1.18204e-06
1.18737e-06
1.18066e-06
1.17331e-06
1.16154e-06
1.1979e-06
1.20281e-06
1.20007e-06
1.15299e-06
1.15843e-06
1.14934e-06
1.19224e-06
1.18596e-06
1.19445e-06
1.18692e-06
1.16814e-06
1.15204e-06
1.16077e-06
1.16134e-06
1.17606e-06
1.16697e-06
1.16209e-06
1.17841e-06
1.17166e-06
1.16688e-06
1.16114e-06
1.18738e-06
1.19074e-06
1.1869e-06
1.14879e-06
1.15388e-06
1.18528e-06
1.17574e-06
1.15191e-06
1.15315e-06
1.14516e-06
1.14424e-06
1.15877e-06
1.17564e-06
1.66501e-06
1.66595e-06
1.66451e-06
1.66462e-06
1.32933e-06
1.66827e-06
3.65477e-07
1.66497e-06
1.3298e-06
1.66822e-06
1.66502e-06
3.65593e-07
1.67143e-06
2.40908e-07
2.40964e-07
4.11285e-07
1.97572e-08
5.50278e-07
2.39822e-08
2.96054e-08
1.6236e-08
4.09479e-07
1.97174e-08
5.51245e-07
2.39749e-08
1.65984e-06
1.66011e-06
1.66057e-06
1.65104e-06
1.65255e-06
1.65282e-06
1.65204e-06
1.25678e-06
3.2627e-07
1.66792e-06
1.64635e-06
1.4865e-06
2.73446e-07
1.66276e-06
2.97719e-08
1.62828e-08
1.25498e-06
1.66688e-06
3.26095e-07
1.64743e-06
1.48719e-06
1.66394e-06
2.72523e-07
1.55656e-07
1.55641e-07
1.64655e-06
1.16899e-07
1.16513e-07
2.05291e-07
1.87547e-08
2.3469e-07
1.93289e-08
1.15648e-08
1.15338e-08
1.91542e-07
1.82742e-08
2.29908e-07
1.88328e-08
1.64597e-06
1.64567e-06
1.64615e-06
1.61688e-06
1.61789e-06
1.61757e-06
1.61772e-06
6.87233e-07
1.81919e-07
1.6363e-06
1.50202e-06
8.49684e-07
1.78075e-07
1.61677e-06
1.1452e-08
1.13195e-08
7.34554e-07
1.64359e-06
1.88736e-07
1.51868e-06
8.8521e-07
1.62692e-06
1.85235e-07
7.66765e-08
7.86086e-08
1.40544e-06
7.34095e-08
7.33947e-08
1.90761e-07
2.30146e-08
1.95892e-07
2.68245e-08
1.25167e-08
1.35117e-08
1.80478e-07
2.22026e-08
1.84103e-07
2.60066e-08
1.60488e-06
1.60501e-06
1.60715e-06
1.57398e-06
1.57598e-06
1.57371e-06
1.57458e-06
6.27638e-07
1.84293e-07
1.56017e-06
1.40957e-06
6.31517e-07
1.85195e-07
1.54565e-06
1.2297e-08
1.33014e-08
6.64015e-07
1.57723e-06
1.90615e-07
1.42263e-06
6.72596e-07
1.56274e-06
1.89753e-07
6.85491e-08
7.12132e-08
1.23594e-06
6.95908e-08
7.26606e-08
1.74191e-07
2.88936e-08
1.79797e-07
2.86257e-08
1.36329e-08
1.33911e-08
1.64288e-07
2.83271e-08
1.71267e-07
2.83722e-08
1.56605e-06
1.56469e-06
1.56302e-06
1.54395e-06
1.54725e-06
1.54491e-06
1.54366e-06
6.21361e-07
1.80323e-07
1.50744e-06
1.35777e-06
6.27971e-07
1.76935e-07
1.50011e-06
1.33197e-08
1.30627e-08
6.42834e-07
1.5258e-06
1.84159e-07
1.37225e-06
6.49802e-07
1.51569e-06
1.828e-07
6.74476e-08
7.08539e-08
1.20308e-06
6.55878e-08
6.91807e-08
1.59979e-07
2.89874e-08
1.63221e-07
2.94431e-08
1.31081e-08
1.30659e-08
1.53731e-07
2.79559e-08
1.5541e-07
2.83183e-08
1.54311e-06
1.53857e-06
1.53916e-06
1.53452e-06
1.53419e-06
1.52967e-06
1.54222e-06
5.91324e-07
1.72388e-07
1.47994e-06
1.3312e-06
6.03306e-07
1.73407e-07
1.47647e-06
1.26666e-08
1.27757e-08
6.20788e-07
1.49378e-06
1.78122e-07
1.34254e-06
6.27931e-07
1.4896e-06
1.78307e-07
6.39888e-08
6.70402e-08
1.16946e-06
6.41167e-08
6.71498e-08
1.59413e-07
3.03063e-08
1.58339e-07
3.06147e-08
1.30963e-08
1.3145e-08
1.53488e-07
2.88329e-08
1.52625e-07
2.90334e-08
1.52924e-06
1.52418e-06
1.53865e-06
1.5254e-06
1.52424e-06
1.52124e-06
1.52725e-06
5.81234e-07
1.76057e-07
1.47046e-06
1.2633e-06
5.82043e-07
1.78372e-07
1.46242e-06
1.31148e-08
1.33214e-08
6.23125e-07
1.47662e-06
1.79502e-07
1.28024e-06
6.15843e-07
1.46863e-06
1.821e-07
6.4497e-08
6.66713e-08
1.16004e-06
6.6032e-08
6.81091e-08
1.61673e-07
3.07885e-08
1.60336e-07
3.08875e-08
1.30576e-08
1.30597e-08
1.55478e-07
2.91143e-08
1.54282e-07
2.92676e-08
1.51426e-06
1.51002e-06
1.51708e-06
1.49841e-06
1.50771e-06
1.50254e-06
1.50968e-06
5.8629e-07
1.80036e-07
1.47519e-06
1.20436e-06
5.82672e-07
1.81593e-07
1.47295e-06
1.35283e-08
1.35993e-08
6.25698e-07
1.47165e-06
1.8548e-07
1.22136e-06
6.22234e-07
1.47421e-06
1.87395e-07
6.74366e-08
6.91036e-08
1.16483e-06
6.79707e-08
6.92376e-08
1.63766e-07
3.13023e-08
1.62417e-07
3.12872e-08
1.30448e-08
1.30706e-08
1.55621e-07
2.95976e-08
1.54869e-07
2.98101e-08
1.49692e-06
1.48754e-06
1.49454e-06
1.47098e-06
1.48362e-06
1.47628e-06
1.48556e-06
5.95411e-07
1.80635e-07
1.48006e-06
1.1904e-06
5.90939e-07
1.81295e-07
1.48124e-06
1.36675e-08
1.36802e-08
6.2067e-07
1.48605e-06
1.87349e-07
1.2106e-06
6.1828e-07
1.48263e-06
1.88516e-07
6.76819e-08
6.94877e-08
1.16368e-06
6.78282e-08
7.00002e-08
1.64784e-07
3.12526e-08
1.63646e-07
3.13305e-08
1.33226e-08
1.34534e-08
1.55011e-07
2.97489e-08
1.54062e-07
2.96574e-08
1.46983e-06
1.46133e-06
1.47307e-06
1.44649e-06
1.4568e-06
1.44587e-06
1.45565e-06
5.86813e-07
1.79798e-07
1.4772e-06
1.18683e-06
5.87949e-07
1.80541e-07
1.47778e-06
1.35204e-08
1.35409e-08
6.1832e-07
1.48873e-06
1.87191e-07
1.21007e-06
6.19991e-07
1.48975e-06
1.87278e-07
6.78614e-08
6.96295e-08
1.15826e-06
6.80175e-08
6.98122e-08
1.64477e-07
3.08816e-08
1.64165e-07
3.09638e-08
1.35792e-08
1.36654e-08
1.54081e-07
2.96359e-08
1.53078e-07
2.94254e-08
1.44082e-06
1.43507e-06
1.44314e-06
1.41739e-06
1.43151e-06
1.4177e-06
1.4244e-06
5.91182e-07
1.79662e-07
1.45027e-06
1.18265e-06
5.89208e-07
1.80574e-07
1.45819e-06
1.36382e-08
1.36546e-08
6.16448e-07
1.47709e-06
1.85735e-07
1.20932e-06
6.14549e-07
1.47301e-06
1.86805e-07
6.7468e-08
6.92736e-08
1.15565e-06
6.76627e-08
6.94992e-08
1.64352e-07
3.08279e-08
1.63599e-07
3.08121e-08
1.35996e-08
1.36067e-08
1.53759e-07
2.93998e-08
1.53425e-07
2.95787e-08
1.42148e-06
1.40334e-06
1.40573e-06
1.39205e-06
1.40807e-06
1.39105e-06
1.40046e-06
5.88649e-07
1.79749e-07
1.42809e-06
1.18618e-06
5.90592e-07
1.80984e-07
1.44023e-06
1.37439e-08
1.37244e-08
6.17662e-07
1.46015e-06
1.86078e-07
1.1962e-06
6.14593e-07
1.45623e-06
1.86957e-07
6.72725e-08
6.86579e-08
1.14616e-06
6.73849e-08
6.87438e-08
1.58413e-07
3.04992e-08
1.63552e-07
3.01533e-08
1.35956e-08
1.35492e-08
2.96864e-08
1.52849e-07
1.39434e-06
1.37134e-06
1.38909e-06
5.85338e-07
1.79863e-07
1.40754e-06
1.1772e-06
5.83895e-07
1.80617e-07
1.42874e-06
1.37365e-08
5.91787e-07
1.44587e-06
1.86115e-07
6.12444e-07
1.41732e-06
6.74421e-08
6.88227e-08
1.13779e-06
6.78933e-08
6.79259e-08
1.67139e-06
2.40695e-07
2.40644e-07
7.2004e-09
1.51648e-07
7.1881e-09
1.51614e-07
1.67245e-06
1.21196e-07
1.20567e-07
2.57498e-07
2.57461e-07
1.32942e-06
1.66818e-06
3.65563e-07
1.66498e-06
1.32999e-06
1.6682e-06
3.65242e-07
1.66481e-06
7.28947e-07
2.39662e-09
1.52807e-07
4.29072e-07
7.28695e-07
2.33187e-09
1.52639e-07
4.28857e-07
1.31621e-06
1.66672e-06
1.95505e-07
1.66611e-06
4.2176e-07
1.66524e-06
1.54946e-06
1.31664e-06
1.66676e-06
1.93571e-07
1.66674e-06
4.21576e-07
1.66531e-06
1.54857e-06
1.67144e-06
2.41046e-07
2.4053e-07
7.13604e-09
1.51503e-07
1.67237e-06
1.20357e-07
1.20715e-07
2.56326e-07
2.57347e-07
7.18899e-09
1.51462e-07
1.32966e-06
1.66814e-06
3.65548e-07
1.66504e-06
1.32962e-06
1.66813e-06
1.66488e-06
3.65411e-07
7.28924e-07
2.41712e-09
1.52834e-07
4.28407e-07
1.31575e-06
1.66682e-06
1.95182e-07
1.66564e-06
4.21814e-07
1.66516e-06
1.55022e-06
7.28534e-07
2.41691e-09
1.52624e-07
4.2824e-07
1.31562e-06
1.66679e-06
1.66582e-06
1.95333e-07
1.6651e-06
4.21907e-07
1.5499e-06
1.66502e-06
1.6658e-06
1.6642e-06
1.66448e-06
1.66483e-06
1.66582e-06
1.66437e-06
1.66435e-06
1.66483e-06
1.66587e-06
1.66442e-06
1.6643e-06
1.66303e-06
1.66459e-06
1.65982e-06
1.65987e-06
1.66331e-06
1.66327e-06
1.65904e-06
1.66293e-06
1.6648e-06
1.66045e-06
1.66018e-06
1.66328e-06
1.66334e-06
1.65876e-06
1.66327e-06
1.66469e-06
1.6603e-06
1.65996e-06
1.66329e-06
1.66326e-06
1.65964e-06
1.66315e-06
1.66471e-06
1.66033e-06
1.66054e-06
1.66332e-06
1.6634e-06
1.65949e-06
1.33012e-06
1.66816e-06
1.66476e-06
3.65283e-07
1.3154e-06
1.66688e-06
1.95985e-07
1.66539e-06
4.21709e-07
1.66518e-06
1.54938e-06
7.27847e-07
2.41449e-09
1.52559e-07
4.28055e-07
1.31618e-06
1.66682e-06
1.66561e-06
1.95593e-07
1.66499e-06
4.21803e-07
1.5493e-06
7.27712e-07
2.41377e-09
1.52642e-07
4.27944e-07
1.67147e-06
2.41063e-07
2.40625e-07
7.19504e-09
1.51608e-07
1.67225e-06
1.20936e-07
1.21073e-07
2.56449e-07
2.57393e-07
7.18807e-09
1.51481e-07
1.33053e-06
1.66821e-06
1.6646e-06
3.65474e-07
1.31651e-06
1.66675e-06
1.66595e-06
1.9569e-07
1.66526e-06
4.21812e-07
1.54728e-06
1.31724e-06
1.6668e-06
1.66677e-06
1.95449e-07
1.6653e-06
4.22037e-07
1.54777e-06
7.279e-07
2.41475e-09
1.5275e-07
4.28775e-07
7.27799e-07
2.41332e-09
1.527e-07
4.28483e-07
1.67237e-06
1.20855e-07
1.2068e-07
2.563e-07
2.56377e-07
7.18407e-09
1.51578e-07
7.17911e-09
1.51512e-07
2.97616e-08
1.63261e-08
2.97441e-08
1.63321e-08
1.55774e-07
1.55491e-07
1.64638e-06
1.16782e-07
1.16841e-07
1.18412e-08
1.37484e-08
1.17227e-08
1.37713e-08
1.63528e-06
8.33619e-08
8.16862e-08
1.05334e-07
1.0527e-07
4.0949e-07
1.95393e-08
5.50513e-07
2.3858e-08
1.25696e-06
3.24737e-07
1.66702e-06
1.647e-06
1.48709e-06
2.73227e-07
1.66366e-06
1.24859e-06
3.23679e-07
1.66588e-06
1.64705e-06
1.48848e-06
2.72619e-07
1.66477e-06
3.47417e-07
1.92994e-08
2.16259e-08
2.54589e-07
3.51228e-07
1.93017e-08
2.16343e-08
2.49753e-07
1.15649e-06
1.62718e-06
1.98753e-07
1.65392e-06
2.45131e-07
1.66041e-06
9.30261e-07
1.1609e-06
1.62725e-06
1.99746e-07
1.6557e-06
2.4525e-07
1.65904e-06
9.32854e-07
1.5524e-07
1.5552e-07
1.64637e-06
1.16609e-07
1.17267e-07
2.97272e-08
1.63225e-08
1.18366e-08
1.36952e-08
1.63547e-06
8.3792e-08
8.19374e-08
1.05243e-07
1.05416e-07
1.1711e-08
1.37631e-08
1.26045e-06
3.25063e-07
1.66773e-06
1.6462e-06
1.48682e-06
2.73481e-07
1.66265e-06
4.08718e-07
1.96487e-08
5.51403e-07
2.38986e-08
1.25343e-06
1.6673e-06
3.25659e-07
1.64663e-06
1.48706e-06
1.66279e-06
2.73283e-07
3.49279e-07
1.88122e-08
2.16649e-08
2.40387e-07
1.14866e-06
1.63489e-06
1.90142e-07
1.6523e-06
2.44061e-07
1.66149e-06
9.04128e-07
3.50853e-07
1.87869e-08
2.17184e-08
2.41318e-07
1.15838e-06
1.63218e-06
1.65145e-06
1.89491e-07
1.66127e-06
2.45271e-07
8.97471e-07
4.07926e-07
1.9667e-08
5.5178e-07
2.39441e-08
1.247e-06
1.66778e-06
3.24823e-07
1.64587e-06
1.48754e-06
1.66251e-06
2.73503e-07
4.08322e-07
1.96535e-08
5.51686e-07
2.39164e-08
1.15173e-06
1.63085e-06
1.91131e-07
1.65231e-06
2.43497e-07
1.66144e-06
9.0415e-07
3.54068e-07
1.87779e-08
2.17364e-08
2.43113e-07
1.16338e-06
1.63448e-06
1.65208e-06
1.89573e-07
1.66121e-06
2.44048e-07
8.90321e-07
3.5343e-07
1.87757e-08
2.17178e-08
2.42557e-07
1.55524e-07
1.55825e-07
1.64649e-06
1.16673e-07
1.17026e-07
2.9777e-08
1.63361e-08
1.17025e-08
1.3747e-08
1.63503e-06
8.15445e-08
8.34265e-08
1.05263e-07
1.05472e-07
1.18605e-08
1.37719e-08
1.2456e-06
1.6661e-06
3.25416e-07
1.64688e-06
1.48664e-06
1.66482e-06
2.72404e-07
4.10782e-07
1.9653e-08
5.50457e-07
2.39109e-08
4.04498e-07
1.96489e-08
5.50884e-07
2.39134e-08
1.15229e-06
1.62658e-06
1.65444e-06
1.99324e-07
1.66016e-06
2.43542e-07
9.39806e-07
1.16369e-06
1.62741e-06
1.6555e-06
1.98425e-07
1.65961e-06
2.45661e-07
9.30043e-07
3.48432e-07
1.92919e-08
2.16811e-08
2.52726e-07
3.56649e-07
1.93203e-08
2.16946e-08
2.4979e-07
2.97693e-08
1.63333e-08
2.97804e-08
1.63297e-08
1.63283e-06
8.20009e-08
8.30223e-08
1.05059e-07
1.05051e-07
1.1722e-08
1.37548e-08
1.18514e-08
1.37618e-08
1.15147e-08
1.1457e-08
1.14345e-08
1.13807e-08
7.87661e-08
7.77066e-08
1.41193e-06
7.43701e-08
7.38704e-08
1.19807e-08
1.15261e-08
1.18669e-08
1.14032e-08
1.36518e-06
7.19045e-08
7.03544e-08
7.51161e-08
7.18224e-08
2.08203e-07
1.87519e-08
2.42046e-07
1.91759e-08
7.37572e-07
1.91553e-07
1.64341e-06
1.50985e-06
8.96535e-07
1.87279e-07
1.62464e-06
7.42079e-07
1.91849e-07
1.64203e-06
1.51979e-06
8.80065e-07
1.92277e-07
1.62643e-06
2.13979e-07
2.19576e-08
2.05305e-08
2.03131e-07
2.10679e-07
2.17525e-08
2.01599e-08
1.98736e-07
7.25583e-07
1.48919e-06
1.95397e-07
1.59104e-06
2.00889e-07
1.6076e-06
6.88722e-07
7.24158e-07
1.49419e-06
2.01439e-07
1.59316e-06
1.9556e-07
1.6074e-06
6.78268e-07
8.02219e-08
7.80984e-08
1.41861e-06
7.50104e-08
7.37461e-08
1.14331e-08
1.13532e-08
1.23476e-08
1.16493e-08
1.39201e-06
7.35778e-08
7.06801e-08
7.69848e-08
7.16437e-08
1.18686e-08
1.14885e-08
6.99488e-07
1.82142e-07
1.63656e-06
1.49337e-06
8.40132e-07
1.77654e-07
1.61735e-06
1.95411e-07
1.82484e-08
2.25279e-07
1.85775e-08
6.93279e-07
1.63628e-06
1.82469e-07
1.49263e-06
8.31227e-07
1.61468e-06
1.75895e-07
2.03733e-07
2.16425e-08
1.97887e-08
1.8545e-07
6.96671e-07
1.47233e-06
1.91261e-07
1.58083e-06
1.84445e-07
1.59718e-06
6.5038e-07
1.9689e-07
2.0961e-08
1.95409e-08
1.93781e-07
6.82673e-07
1.46308e-06
1.5793e-06
1.8617e-07
1.59586e-06
1.88308e-07
6.54155e-07
2.02015e-07
1.82772e-08
2.3124e-07
1.87671e-08
6.86095e-07
1.63524e-06
1.82551e-07
1.49456e-06
8.44727e-07
1.61604e-06
1.8109e-07
1.95421e-07
1.82474e-08
2.26575e-07
1.88143e-08
6.88894e-07
1.46726e-06
1.84952e-07
1.57932e-06
1.8672e-07
1.5971e-06
6.46204e-07
1.93922e-07
2.09431e-08
1.93744e-08
1.84047e-07
6.88985e-07
1.47061e-06
1.5785e-06
1.89942e-07
1.59493e-06
1.84283e-07
6.44485e-07
1.9518e-07
2.12678e-08
1.90895e-08
1.83278e-07
7.83109e-08
7.88739e-08
1.41637e-06
7.36297e-08
7.38348e-08
1.15247e-08
1.14449e-08
1.20944e-08
1.15383e-08
1.38118e-06
7.02845e-08
6.99506e-08
7.14554e-08
7.6255e-08
1.19283e-08
1.14714e-08
7.44026e-07
1.6435e-06
1.90296e-07
1.51405e-06
8.90072e-07
1.62683e-06
1.85533e-07
2.04042e-07
1.876e-08
2.38873e-07
1.91836e-08
2.14535e-07
1.87473e-08
2.38302e-07
1.93655e-08
7.44369e-07
1.48172e-06
1.59282e-06
1.9506e-07
1.60851e-06
1.94958e-07
6.95347e-07
7.47365e-07
1.48859e-06
1.59265e-06
1.89061e-07
1.60925e-06
1.97369e-07
6.7969e-07
2.08782e-07
2.15954e-08
2.00443e-08
1.96504e-07
2.19211e-07
2.19879e-08
1.99584e-08
1.97871e-07
1.13885e-08
1.11973e-08
1.15489e-08
1.14469e-08
1.37878e-06
7.02086e-08
7.16483e-08
7.08606e-08
7.67516e-08
1.18709e-08
1.12908e-08
1.21162e-08
1.14684e-08
1.25825e-08
1.34112e-08
1.24175e-08
1.3266e-08
7.27123e-08
7.11836e-08
1.24178e-06
7.09516e-08
6.98777e-08
1.35589e-08
1.36867e-08
1.3488e-08
1.36056e-08
1.25529e-06
7.0493e-08
6.90914e-08
7.5625e-08
7.21809e-08
1.89303e-07
2.34791e-08
2.00171e-07
2.63211e-08
6.58893e-07
1.97277e-07
1.57494e-06
1.42764e-06
7.07925e-07
1.93862e-07
1.55822e-06
6.61602e-07
1.97997e-07
1.57646e-06
1.41915e-06
6.80462e-07
1.95049e-07
1.56096e-06
1.88073e-07
2.9348e-08
2.81825e-08
1.82665e-07
1.87026e-07
2.8675e-08
2.77475e-08
1.80852e-07
6.79296e-07
1.41277e-06
1.89897e-07
1.53112e-06
1.925e-07
1.5444e-06
6.49192e-07
6.68497e-07
1.40019e-06
1.91024e-07
1.53323e-06
1.9315e-07
1.54584e-06
6.622e-07
7.5535e-08
7.24947e-08
1.23785e-06
7.34649e-08
6.96311e-08
1.24884e-08
1.31209e-08
1.3771e-08
1.38014e-08
1.24375e-06
7.2687e-08
6.93259e-08
7.59856e-08
7.39189e-08
1.3327e-08
1.33659e-08
6.39254e-07
1.88088e-07
1.56413e-06
1.41749e-06
6.56679e-07
1.86489e-07
1.5492e-06
1.81489e-07
2.28151e-08
1.90232e-07
2.60064e-08
6.49606e-07
1.56214e-06
1.88574e-07
1.4115e-06
6.51201e-07
1.54763e-06
1.856e-07
1.79018e-07
2.84438e-08
2.77294e-08
1.73831e-07
6.64513e-07
1.40082e-06
1.83928e-07
1.52199e-06
1.8593e-07
1.53425e-06
6.26645e-07
1.79975e-07
2.78986e-08
2.70953e-08
1.73876e-07
6.44659e-07
1.38347e-06
1.5213e-06
1.82524e-07
1.53336e-06
1.85008e-07
6.24583e-07
1.80263e-07
2.22202e-08
1.87999e-07
2.5679e-08
6.22916e-07
1.56129e-06
1.86512e-07
1.40908e-06
6.60166e-07
1.54472e-06
1.8639e-07
1.80656e-07
2.21574e-08
1.88574e-07
2.55131e-08
6.52766e-07
1.3821e-06
1.82431e-07
1.51766e-06
1.84147e-07
1.52928e-06
6.30149e-07
1.79069e-07
2.78444e-08
2.70785e-08
1.7485e-07
6.54937e-07
1.39601e-06
1.51424e-06
1.81541e-07
1.52925e-06
1.85859e-07
6.21425e-07
1.7956e-07
2.80621e-08
2.68791e-08
1.74386e-07
7.35914e-08
7.16801e-08
1.23754e-06
7.2025e-08
7.22278e-08
1.22703e-08
1.32541e-08
1.34418e-08
1.37075e-08
1.24953e-06
6.90087e-08
7.04008e-08
7.36585e-08
7.36205e-08
1.33176e-08
1.33227e-08
6.66597e-07
1.5773e-06
1.95599e-07
1.4269e-06
6.93165e-07
1.56111e-06
1.92495e-07
1.90485e-07
2.3264e-08
1.99863e-07
2.57522e-08
1.91942e-07
2.2764e-08
2.0095e-07
2.60586e-08
6.75897e-07
1.40522e-06
1.53659e-06
1.87044e-07
1.55065e-06
1.88765e-07
6.56157e-07
6.93154e-07
1.41321e-06
1.53424e-06
1.89502e-07
1.54889e-06
1.91779e-07
6.53696e-07
1.88647e-07
2.813e-08
2.69581e-08
1.82471e-07
1.90268e-07
2.8359e-08
2.73239e-08
1.83307e-07
1.24894e-08
1.3161e-08
1.26202e-08
1.35202e-08
1.24915e-06
6.87274e-08
7.19683e-08
7.26065e-08
7.36497e-08
1.33413e-08
1.33443e-08
1.35205e-08
1.35677e-08
1.35291e-08
1.31276e-08
1.36819e-08
1.31875e-08
7.1522e-08
7.04906e-08
1.20611e-06
6.8766e-08
6.81923e-08
1.30474e-08
1.33248e-08
1.29754e-08
1.32735e-08
1.21709e-06
6.79657e-08
6.80408e-08
6.99293e-08
7.0748e-08
1.72119e-07
2.92841e-08
1.78628e-07
2.89911e-08
6.3738e-07
1.88315e-07
1.52033e-06
1.36999e-06
6.57442e-07
1.84629e-07
1.5137e-06
6.41163e-07
1.89513e-07
1.52186e-06
1.36684e-06
6.58123e-07
1.86065e-07
1.51559e-06
1.70784e-07
2.91397e-08
2.91477e-08
1.65798e-07
1.70088e-07
2.89724e-08
2.95622e-08
1.65516e-07
6.5146e-07
1.36013e-06
1.82404e-07
1.50289e-06
1.83025e-07
1.50641e-06
6.24827e-07
6.56045e-07
1.35778e-06
1.82798e-07
1.50329e-06
1.84305e-07
1.50698e-06
6.25717e-07
7.41159e-08
7.00319e-08
1.20723e-06
7.04788e-08
6.69608e-08
1.32702e-08
1.29002e-08
1.31847e-08
1.35985e-08
1.22576e-06
6.90762e-08
6.6001e-08
7.45567e-08
6.86248e-08
1.27512e-08
1.30941e-08
6.1529e-07
1.82302e-07
1.5099e-06
1.3603e-06
6.52352e-07
1.79496e-07
1.5028e-06
1.64796e-07
2.86179e-08
1.71722e-07
2.81437e-08
6.16075e-07
1.51098e-06
1.81321e-07
1.34899e-06
6.38963e-07
1.50491e-06
1.77517e-07
1.62659e-07
2.80818e-08
2.8618e-08
1.58102e-07
6.32995e-07
1.35519e-06
1.76641e-07
1.49037e-06
1.78246e-07
1.4949e-06
5.99061e-07
1.62959e-07
2.78379e-08
2.85088e-08
1.58239e-07
6.20985e-07
1.34589e-06
1.49084e-06
1.73149e-07
1.4964e-06
1.75545e-07
6.00806e-07
1.68512e-07
2.83346e-08
1.73926e-07
2.81698e-08
6.07151e-07
1.50366e-06
1.79836e-07
1.35458e-06
6.38524e-07
1.49352e-06
1.74155e-07
1.65293e-07
2.76467e-08
1.7222e-07
2.71123e-08
6.4477e-07
1.34166e-06
1.74142e-07
1.49042e-06
1.75679e-07
1.49311e-06
6.19728e-07
1.66422e-07
2.78269e-08
2.84437e-08
1.6078e-07
6.20575e-07
1.33875e-06
1.48072e-06
1.69605e-07
1.48681e-06
1.71997e-07
5.90016e-07
1.63265e-07
2.69285e-08
2.77147e-08
1.56755e-07
7.10164e-08
7.28542e-08
1.20451e-06
6.75973e-08
6.91685e-08
1.3511e-08
1.30453e-08
1.27075e-08
1.29855e-08
1.21773e-06
6.55299e-08
6.78212e-08
6.90325e-08
7.34323e-08
1.2786e-08
1.30247e-08
6.44107e-07
1.52331e-06
1.86731e-07
1.36725e-06
6.66488e-07
1.51418e-06
1.83337e-07
1.73309e-07
2.86793e-08
1.79665e-07
2.82084e-08
1.74263e-07
2.88192e-08
1.80835e-07
2.85895e-08
6.60813e-07
1.3539e-06
1.50091e-06
1.79344e-07
1.50793e-06
1.81389e-07
6.34505e-07
6.61333e-07
1.36132e-06
1.50004e-06
1.81181e-07
1.50648e-06
1.82194e-07
6.30847e-07
1.70972e-07
2.77775e-08
2.83391e-08
1.65419e-07
1.71399e-07
2.90163e-08
2.9141e-08
1.66336e-07
1.30472e-08
1.25826e-08
1.36796e-08
1.31786e-08
1.2197e-06
6.46081e-08
6.94715e-08
6.65267e-08
7.26011e-08
1.24992e-08
1.25807e-08
1.30767e-08
1.32755e-08
1.33098e-08
1.32337e-08
1.30538e-08
1.30075e-08
7.07546e-08
7.05004e-08
1.17898e-06
6.9193e-08
6.75487e-08
1.35354e-08
1.34419e-08
1.31666e-08
1.31919e-08
1.18546e-06
7.08306e-08
6.79294e-08
7.25545e-08
7.03331e-08
1.61944e-07
2.94094e-08
1.64452e-07
2.89844e-08
6.0897e-07
1.81472e-07
1.50178e-06
1.34605e-06
6.31922e-07
1.82787e-07
1.49225e-06
6.10259e-07
1.8114e-07
1.49984e-06
1.35283e-06
6.32306e-07
1.81634e-07
1.49591e-06
1.59391e-07
3.08735e-08
2.98712e-08
1.59626e-07
1.60019e-07
2.92592e-08
2.97087e-08
1.60552e-07
6.16345e-07
1.34479e-06
1.84909e-07
1.48029e-06
1.82439e-07
1.48629e-06
6.03547e-07
6.31409e-07
1.3395e-06
1.81476e-07
1.48318e-06
1.80781e-07
1.48958e-06
6.01345e-07
7.1267e-08
6.73571e-08
1.18447e-06
6.85546e-08
6.67921e-08
1.29133e-08
1.29349e-08
1.31324e-08
1.32425e-08
1.20124e-06
6.79007e-08
6.8011e-08
7.04022e-08
6.79746e-08
1.31822e-08
1.3309e-08
5.85043e-07
1.75499e-07
1.48852e-06
1.3323e-06
6.12357e-07
1.75676e-07
1.48558e-06
1.54918e-07
2.86022e-08
1.56623e-07
2.81889e-08
5.89163e-07
1.48505e-06
1.72124e-07
1.32906e-06
6.14501e-07
1.48017e-06
1.7275e-07
1.52634e-07
2.94253e-08
2.90825e-08
1.5346e-07
5.99465e-07
1.32787e-06
1.77384e-07
1.47945e-06
1.75143e-07
1.48168e-06
5.82453e-07
1.54009e-07
2.87975e-08
2.86127e-08
1.54747e-07
5.99028e-07
1.33141e-06
1.46636e-06
1.74727e-07
1.47312e-06
1.72353e-07
5.82092e-07
1.55644e-07
2.84205e-08
1.58429e-07
2.80281e-08
5.82831e-07
1.47665e-06
1.68321e-07
1.31553e-06
6.05335e-07
1.47152e-06
1.68852e-07
1.52547e-07
2.72383e-08
1.55324e-07
2.75574e-08
6.18553e-07
1.32382e-06
1.7644e-07
1.47143e-06
1.72982e-07
1.47668e-06
5.8557e-07
1.54031e-07
2.8849e-08
2.89743e-08
1.53636e-07
5.95123e-07
1.31145e-06
1.4569e-06
1.71621e-07
1.46701e-06
1.68613e-07
5.74836e-07
1.51717e-07
2.809e-08
2.8382e-08
1.52002e-07
6.84901e-08
6.9322e-08
1.17438e-06
6.54208e-08
6.76673e-08
1.28785e-08
1.28802e-08
1.30859e-08
1.29362e-08
1.18083e-06
6.68278e-08
6.83012e-08
6.97102e-08
7.03124e-08
1.32025e-08
1.30299e-08
6.21798e-07
1.49732e-06
1.80074e-07
1.34559e-06
6.4647e-07
1.49497e-06
1.80458e-07
1.62375e-07
2.82297e-08
1.63543e-07
2.82134e-08
1.6359e-07
2.96186e-08
1.6409e-07
2.9158e-08
6.38092e-07
1.33827e-06
1.47916e-06
1.80082e-07
1.48642e-06
1.77433e-07
6.17876e-07
6.32297e-07
1.34078e-06
1.48379e-06
1.816e-07
1.49277e-06
1.79876e-07
6.179e-07
1.62161e-07
2.93446e-08
2.88923e-08
1.62953e-07
1.62196e-07
2.95873e-08
2.97848e-08
1.62645e-07
1.23512e-08
1.24505e-08
1.323e-08
1.31407e-08
1.18593e-06
6.4605e-08
6.68973e-08
6.76142e-08
7.04266e-08
1.27431e-08
1.27368e-08
1.32606e-08
1.30545e-08
1.37823e-08
1.37834e-08
1.32946e-08
1.3172e-08
7.30143e-08
6.96323e-08
1.16426e-06
7.12252e-08
6.78232e-08
1.38213e-08
1.40204e-08
1.32708e-08
1.33358e-08
1.17521e-06
7.26325e-08
6.80143e-08
7.40506e-08
7.16789e-08
1.60548e-07
2.98454e-08
1.59839e-07
2.95797e-08
6.04689e-07
1.84563e-07
1.47956e-06
1.2888e-06
6.20512e-07
1.86593e-07
1.47176e-06
6.02438e-07
1.80556e-07
1.4821e-06
1.27565e-06
6.06336e-07
1.81926e-07
1.47252e-06
1.58915e-07
3.14577e-08
3.12624e-08
1.60559e-07
1.59984e-07
2.9679e-08
3.02296e-08
1.61317e-07
6.20912e-07
1.26365e-06
1.88434e-07
1.47507e-06
1.86579e-07
1.47382e-06
6.07527e-07
6.09424e-07
1.25235e-06
1.81662e-07
1.48591e-06
1.80857e-07
1.47849e-06
6.058e-07
6.98913e-08
7.20982e-08
1.15818e-06
6.73198e-08
6.89832e-08
1.33751e-08
1.33848e-08
1.3211e-08
1.33347e-08
1.16149e-06
6.67779e-08
6.95488e-08
6.78839e-08
7.08567e-08
1.35563e-08
1.35837e-08
5.75063e-07
1.76993e-07
1.46546e-06
1.26912e-06
5.85668e-07
1.78472e-07
1.4648e-06
1.55647e-07
2.93361e-08
1.54476e-07
2.94657e-08
5.81846e-07
1.46169e-06
1.74801e-07
1.26033e-06
5.87457e-07
1.46028e-06
1.78211e-07
1.53687e-07
2.96912e-08
2.95341e-08
1.5437e-07
5.89062e-07
1.24068e-06
1.79169e-07
1.46171e-06
1.78101e-07
1.46665e-06
5.83598e-07
1.55533e-07
3.00619e-08
3.01596e-08
1.56321e-07
5.87092e-07
1.23245e-06
1.45573e-06
1.80674e-07
1.45273e-06
1.7847e-07
5.81112e-07
1.53708e-07
2.97358e-08
1.528e-07
2.93198e-08
5.79032e-07
1.45872e-06
1.71719e-07
1.2594e-06
5.95454e-07
1.46457e-06
1.75175e-07
1.5219e-07
2.89014e-08
1.514e-07
2.88385e-08
5.90869e-07
1.23866e-06
1.80476e-07
1.46603e-06
1.78531e-07
1.46445e-06
5.84549e-07
1.53324e-07
2.98657e-08
3.0284e-08
1.54674e-07
5.97061e-07
1.23292e-06
1.45966e-06
1.77698e-07
1.45837e-06
1.752e-07
5.81323e-07
1.51922e-07
2.95817e-08
2.96261e-08
1.53883e-07
7.08441e-08
7.20826e-08
1.15911e-06
6.84338e-08
6.94264e-08
1.33169e-08
1.33453e-08
1.35342e-08
1.34726e-08
1.16908e-06
6.9485e-08
7.09444e-08
7.0993e-08
7.12778e-08
1.36488e-08
1.35668e-08
6.21772e-07
1.48333e-06
1.81535e-07
1.28807e-06
6.36126e-07
1.47528e-06
1.84216e-07
1.64344e-07
3.01234e-08
1.62509e-07
2.97915e-08
1.63797e-07
3.02287e-08
1.62087e-07
2.98949e-08
6.38705e-07
1.25539e-06
1.46745e-06
1.86112e-07
1.4715e-06
1.81717e-07
6.35993e-07
6.39298e-07
1.26435e-06
1.47784e-06
1.85862e-07
1.47621e-06
1.84358e-07
6.22437e-07
1.64175e-07
3.0427e-08
3.06073e-08
1.65596e-07
1.63688e-07
3.0293e-08
3.06717e-08
1.65298e-07
1.29475e-08
1.30521e-08
1.31671e-08
1.32139e-08
1.16681e-06
6.94129e-08
7.08726e-08
6.74788e-08
6.9399e-08
1.32593e-08
1.31495e-08
1.34178e-08
1.3374e-08
1.40066e-08
1.39675e-08
1.33919e-08
1.32633e-08
7.52444e-08
7.05125e-08
1.16426e-06
7.26987e-08
6.77271e-08
1.40208e-08
1.40076e-08
1.33884e-08
1.34844e-08
1.171e-06
7.29151e-08
6.85315e-08
7.52079e-08
7.05555e-08
1.62721e-07
3.02561e-08
1.6114e-07
2.97449e-08
5.99764e-07
1.88014e-07
1.47673e-06
1.22608e-06
6.24483e-07
1.89591e-07
1.48252e-06
6.09738e-07
1.81157e-07
1.48234e-06
1.21703e-06
6.18389e-07
1.8207e-07
1.48826e-06
1.6144e-07
3.15046e-08
3.15815e-08
1.62739e-07
1.621e-07
2.98177e-08
3.03218e-08
1.63228e-07
6.06755e-07
1.21525e-06
1.90469e-07
1.48725e-06
1.89028e-07
1.48584e-06
6.05729e-07
6.19381e-07
1.20831e-06
1.82449e-07
1.48502e-06
1.81035e-07
1.48258e-06
6.0986e-07
6.75656e-08
7.20339e-08
1.15405e-06
6.69663e-08
6.99405e-08
1.3702e-08
1.35756e-08
1.31013e-08
1.31625e-08
1.16703e-06
6.6858e-08
6.99619e-08
6.79557e-08
7.21423e-08
1.359e-08
1.38189e-08
5.89547e-07
1.7858e-07
1.46272e-06
1.20807e-06
6.04936e-07
1.7943e-07
1.46404e-06
1.56998e-07
3.06867e-08
1.56206e-07
3.02241e-08
5.85867e-07
1.45728e-06
1.80466e-07
1.19638e-06
6.09292e-07
1.46207e-06
1.82167e-07
1.54955e-07
2.97447e-08
2.99958e-08
1.56024e-07
6.08581e-07
1.19834e-06
1.79812e-07
1.47275e-06
1.78777e-07
1.47062e-06
5.86676e-07
1.56825e-07
3.06575e-08
3.08763e-08
1.56607e-07
5.97662e-07
1.1852e-06
1.46871e-06
1.82959e-07
1.46765e-06
1.82038e-07
5.86665e-07
1.55829e-07
3.04756e-08
1.54718e-07
2.99235e-08
5.87044e-07
1.46436e-06
1.77884e-07
1.20216e-06
6.00019e-07
1.47025e-06
1.79625e-07
1.55332e-07
3.03915e-08
1.53914e-07
2.97407e-08
5.96009e-07
1.19981e-06
1.81712e-07
1.4789e-06
1.81135e-07
1.47964e-06
5.89985e-07
1.55562e-07
3.00305e-08
3.05832e-08
1.5664e-07
5.99248e-07
1.19509e-06
1.48129e-06
1.80737e-07
1.47372e-06
1.79522e-07
5.87822e-07
1.55435e-07
3.00243e-08
3.03917e-08
1.56048e-07
7.22929e-08
7.24901e-08
1.16354e-06
7.00856e-08
7.19709e-08
1.39616e-08
1.38977e-08
1.37193e-08
1.37989e-08
1.17548e-06
6.93816e-08
7.19179e-08
7.31132e-08
7.59634e-08
1.38232e-08
1.37909e-08
6.23185e-07
1.48052e-06
1.8524e-07
1.23508e-06
6.49474e-07
1.4842e-06
1.86702e-07
1.67044e-07
3.09707e-08
1.65406e-07
3.06178e-08
1.66684e-07
3.10775e-08
1.65188e-07
3.06192e-08
6.37114e-07
1.21534e-06