/*--------------------------------*- C++ -*----------------------------------*\
| =========                 |                                                 |
| \\      /  F ield         | OpenFOAM: The Open Source CFD Toolbox           |
|  \\    /   O peration     | Version:  2206                                  |
|   \\  /    A nd           | Website:  www.openfoam.com                      |
|    \\/     M anipulation  |                                                 |
\*---------------------------------------------------------------------------*/
FoamFile
{
    version     2.0;
    format      ascii;
    arch        "LSB;label=32;scalar=64";
    class       volScalarField;
    location    "30";
    object      omega;
}
// * * * * * * * * * * * * * * * * * * * * * * * * * * * * * * * * * * * * * //

dimensions      [0 0 -1 0 0 0 0];

internalField   nonuniform List<scalar> 
66616
(
21.4738
21.7234
21.7244
21.7481
20.4294
22.021
21.8102
22.3159
19.6193
21.9967
21.7857
24.1217
18.9264
21.7185
21.4444
23.7384
18.329
21.4846
21.2481
23.4871
17.9726
21.3771
21.1923
23.3934
17.7734
21.3589
21.1212
23.3308
17.7424
21.3405
21.0987
23.3725
17.7348
21.3207
21.1051
23.3798
17.7397
21.3295
21.074
23.4063
17.733
21.2992
21.0663
23.3489
17.7331
21.3115
21.1036
23.4084
21.8415
21.7033
21.7026
21.842
21.703
21.7023
21.7459
21.7345
21.7384
21.7395
21.7026
21.7112
21.8419
21.7022
21.7111
21.8413
21.7426
22.1109
21.7249
21.726
21.5257
21.4954
21.7398
22.0599
21.7207
21.7251
21.7324
21.6481
21.7306
21.6511
21.7386
21.7379
22.0786
21.7251
21.5047
21.5265
22.11
22.2647
24.0776
21.7116
21.7796
21.9128
21.804
22.1992
23.9327
21.8686
21.9354
21.9958
22.2097
21.8799
22.0725
22.0472
22.2615
24.0451
21.6523
21.8735
21.7987
23.9808
23.7668
23.5101
21.6298
21.594
21.3067
21.5385
23.8656
23.8626
21.7564
21.8996
21.4367
21.7348
21.8514
21.7602
21.516
23.8089
23.7937
21.6084
21.4721
21.3602
23.5312
23.4827
23.3537
21.2052
21.3579
21.2594
21.3224
23.6089
23.4666
21.2466
21.4406
21.4155
21.5544
21.4529
21.4809
21.5581
23.4399
23.4483
21.2865
21.2807
21.2748
23.2525
23.0579
23.2022
21.0894
21.1488
21.1411
21.2718
23.179
23.37
21.3086
21.2824
21.3841
21.4845
21.4274
21.3394
21.4512
23.1289
23.2254
21.1583
21.1836
21.202
23.1535
23.0559
23.2614
20.9807
21.1266
21.0987
21.2428
23.0157
23.4723
21.2473
21.3752
21.3376
21.3822
21.3147
21.3074
21.3886
23.016
23.1345
20.98
20.9857
21.178
23.2471
23.1098
23.2462
20.9584
21.1347
21.1029
21.25
23.3172
23.4234
21.189
21.2532
21.3192
21.3234
21.1378
21.2828
21.4028
22.8412
23.1877
21.0815
21.0336
21.1016
23.3325
23.1152
23.322
20.903
21.1429
21.1576
21.1754
23.2627
23.2198
21.065
21.2094
21.3608
21.3245
21.1872
21.2691
21.4148
23.0106
23.1427
20.9018
21.061
21.1093
23.3014
23.1343
23.3403
21.0761
21.0055
21.1302
21.1125
22.9326
23.22
21.2749
21.1182
21.3725
21.3126
21.3139
21.2836
21.3771
23.0087
23.1021
20.8843
21.0263
21.1335
23.1583
23.1622
23.3393
21.0111
20.9548
21.1159
21.1434
23.0372
23.2396
21.1533
21.1908
21.4108
21.2737
21.2405
21.2471
21.3754
22.9648
23.1256
20.9384
21.0216
21.1522
23.2569
23.1525
23.2797
21.0078
20.9458
21.1394
21.2028
22.9286
23.2473
21.3064
21.1079
21.3681
21.2636
21.2753
21.126
21.3734
22.9866
23.0962
21.0565
21.0814
21.1552
23.159
22.9508
21.0902
21.0636
23.0596
21.1595
21.0519
21.1497
22.7137
21.0114
22.1773
22.1972
22.1909
22.1889
22.4414
22.2109
27.3324
22.1962
22.4405
22.2117
22.1959
27.3765
22.263
45.8195
45.7289
84.4051
753.607
64.3271
472.515
547.937
589.851
84.5116
753.751
64.46
472.445
21.4879
21.4846
21.482
20.6846
20.668
20.6658
20.6718
28.7747
111.213
21.4819
21.6057
25.246
115.319
21.2401
547.575
589.767
28.8347
21.4951
111.312
21.6036
25.2318
21.2275
115.549
198.428
198.529
21.6337
205.792
206.029
107.632
342.992
111.238
302.002
452.05
423.682
112.388
345.592
112.506
304.389
20.4386
20.4407
20.4401
19.8372
19.8271
19.8344
19.8263
42.8369
124.574
20.6495
22.1062
38.0927
107.739
20.5558
453.932
427.094
40.6332
20.5555
121.557
21.8922
36.7132
20.4328
105.527
198.388
196.09
23.2718
172.011
172.956
95.338
282.562
98.5988
277.661
414.206
410.609
95.3898
286.344
102.308
280.736
19.6584
19.6555
19.6365
19.1127
19.0946
19.1173
19.1033
40.2095
94.3414
20.2236
21.7267
41.7474
87.8667
20.0804
416.743
412.284
38.5194
20.0308
92.2068
21.5645
39.7077
19.8891
88.9322
164.359
160.539
24.0133
158.937
155.991
92.4346
276.045
93.5471
275.482
408.816
408.276
94.9999
279.435
97.0388
277.898
18.9293
18.9427
18.9716
18.4992
18.4741
18.4833
18.5076
37.9454
87.494
19.7695
21.3849
38.6916
86.7899
19.667
410.858
410.409
36.7656
19.5727
85.2279
21.1916
37.5278
19.4971
84.4337
156.554
153.462
23.5533
155.356
152.506
91.0594
273.984
92.0109
273.759
407.838
407.395
94.0852
277.662
94.7241
276.388
18.3352
18.3723
18.3785
18.0268
18.0274
18.0618
17.9392
37.3176
86.3053
19.4475
21.3131
37.571
85.6785
19.384
409.219
409.29
35.7403
19.382
84.1635
21.1379
36.2022
19.3392
83.801
154.243
152.797
23.4111
153.135
151.632
90.3001
273.386
91.2276
272.626
407.381
407.151
93.5972
277.382
94.1653
276.804
17.9808
18.0229
17.8867
17.8058
17.8007
17.8307
17.8128
37.0852
84.7781
19.3247
21.1984
37.1418
84.833
19.317
408.504
408.492
35.082
19.2735
83.1122
20.9101
35.3546
19.2586
83.0439
153.948
151.834
23.3206
152.873
150.675
90.3392
273.893
90.4608
273.436
407.665
407.114
93.1681
277.44
93.0135
276.555
17.8541
17.8857
17.8666
17.837
17.712
17.7555
17.739
37.172
84.8497
19.2923
21.1931
37.1132
85.0671
19.3226
407.986
408.266
35.1983
19.2095
83.2548
20.9121
35.2823
19.1961
83.146
153.315
150.426
23.3025
153.005
150.828
90.7437
272.523
90.5642
273.045
406.977
407.006
93.2088
276.555
93.883
276.374
17.7651
17.8445
17.8242
17.821
17.6937
17.7379
17.7028
36.8198
84.861
19.3078
21.1919
37.0412
84.8337
19.3078
408.289
408.552
35.5835
19.1853
82.7273
20.9476
35.6543
19.1804
82.4806
153.792
151.452
23.3306
152.907
150.762
89.7774
273.286
90.2519
273.275
406.681
406.754
94.0515
276.876
93.9581
276.338
17.7698
17.8351
17.7657
17.7703
17.6872
17.7471
17.6881
37.2153
85.0882
19.3256
21.1595
37.3835
85.3252
19.3217
408.193
407.625
35.7048
19.1841
83.4754
20.9588
35.6146
19.1751
83.0608
152.933
150.816
23.3499
152.805
150.716
89.772
274.102
90.0224
273.098
406.369
405.861
93.9432
276.354
94.2934
276.518
17.8042
17.8044
17.7474
17.7695
17.6857
17.7253
17.6932
36.9643
85.4958
19.3514
21.1681
36.9992
85.002
19.3375
407.71
408.065
35.657
19.195
82.8114
20.9453
35.8278
19.184
82.8176
153.374
151.738
23.3289
152.863
151.155
90.3014
273.598
90.7248
273.473
406.466
406.865
94.0852
276.13
93.8522
275.963
17.7301
17.8097
17.8269
17.8195
17.7025
17.7448
17.7007
37.2155
84.7611
19.3332
21.1596
37.0382
84.7921
19.3562
408.275
408.14
35.3876
19.203
83.1075
20.8749
35.5955
19.1946
82.9214
153.864
152.145
23.3755
153.165
151.369
93.6739
274.085
90.7005
274.433
406.368
408.072
277.131
95.0516
17.7558
17.8509
17.7487
37.16
84.8608
19.3504
21.2251
37.4142
83.9461
19.3549
407.823
36.7387
19.1584
82.8953
35.7558
19.2753
153.156
151.155
23.3525
152.823
151.811
22.2619
45.8729
45.7075
1141.86
196.903
1141.86
197.1
22.1913
255.987
256.145
47.7686
47.68
22.4419
22.2122
27.3909
22.197
22.4404
22.2127
27.4361
22.1976
24.5721
1807.63
103.529
67.396
24.3913
1810.51
102.812
67.5945
22.4879
22.1358
187.278
21.7909
29.3411
22.1044
24.3744
22.5218
22.1363
188.46
21.7836
29.2485
22.1025
24.3858
22.2623
46.364
45.5317
1142.61
197.271
22.1933
256.29
255.978
47.6157
47.579
1141.91
197.26
22.4402
22.2117
27.3908
22.1964
22.4423
22.2116
22.1983
27.3743
24.388
1807.66
102.582
67.5878
22.5207
22.1351
187.507
21.7971
29.0654
22.1055
24.3619
24.4169
1807.89
103.554
67.5907
22.5223
22.1353
21.795
187.38
22.1062
29.2708
24.3655
22.1789
22.1979
22.1926
22.1906
22.181
22.1974
22.19
22.1913
22.181
22.1976
22.1903
22.1939
22.0571
22.0875
21.7332
21.7326
22.075
22.0752
21.7059
22.0595
22.0844
21.725
21.7305
22.0735
22.0753
21.7094
22.0557
22.0858
21.7276
21.7324
22.0739
22.0747
21.6993
22.0565
22.0858
21.7275
21.7249
22.0747
22.0743
21.7003
22.4406
22.2125
22.1979
27.3434
22.4795
22.1343
186.823
21.7999
29.2187
22.1047
24.3739
24.6458
1808.01
102.378
67.6197
22.5217
22.1361
21.797
187.171
22.1063
29.3687
24.3715
24.4267
1808.11
103.79
67.6539
22.2618
45.7849
46.1599
1141.82
197.118
22.195
256.326
256.123
47.1603
48.0851
1142.01
197.593
22.4412
22.2123
22.2
27.3437
22.4767
22.1354
21.7939
187.08
22.104
29.4996
24.4057
22.5229
22.1354
21.7832
187.272
22.1025
29.3236
24.3955
24.6209
1808.1
103.658
67.6262
24.4135
1808.04
104.048
67.767
22.1937
255.67
255.834
47.2196
47.0884
1142.31
197.068
1142.24
197.009
547.773
589.052
547.76
589.077
198.653
198.727
21.6338
205.693
205.646
466.123
563.45
467.691
563.491
21.6533
200.366
202.649
208.011
208.008
84.709
756.883
64.3281
472.954
28.7865
111.734
21.4941
21.6047
25.2325
115.252
21.2288
28.9795
111.861
21.5061
21.6043
25.2115
115.406
21.2161
94.8947
358.404
442.152
108.5
93.9542
358.634
441.495
110.375
30.7542
21.5522
122.813
20.7439
120.626
20.9781
35.732
30.633
21.5499
122.336
20.7228
120.428
20.993
35.6527
198.801
198.577
21.6355
205.716
205.254
547.88
589.212
466.129
563.811
21.6509
199.196
202.035
207.976
207.718
467.517
563.434
28.6911
111.602
21.4858
21.6026
25.2353
115.228
21.2418
84.609
756.326
64.3445
472.905
28.8412
21.4906
111.461
21.601
25.239
21.2392
115.192
94.6881
360.68
442.162
113.68
30.9742
21.4643
126.841
20.7768
121.154
20.9662
36.6225
94.3364
361.056
441.358
113.458
30.7253
21.4963
20.7861
127.068
20.9684
120.612
36.9066
84.7326
755.876
64.2679
472.912
28.9851
21.4856
111.702
21.6074
25.2347
21.2422
115.172
84.6702
756.019
64.3618
472.774
30.8951
21.5108
126.208
20.777
121.351
20.9658
36.6026
93.562
361.012
441.393
112.546
30.603
21.4708
20.7782
127.086
20.9699
121.095
37.1766
93.7319
360.955
441.321
112.929
198.809
198.686
21.6341
205.798
205.532
548.031
589.297
467.769
563.839
21.6576
202.565
200.418
208.073
208.016
466.117
563.535
29.0317
21.5052
111.521
21.6055
25.2454
21.2163
115.573
84.424
756.061
64.2877
472.981
85.4549
756.174
64.4842
472.898
30.8535
21.5527
20.7421
122.546
20.9805
121.23
35.3736
30.5618
21.5524
20.7276
123.079
20.9884
120.43
35.7447
94.6563
358.659
441.457
109.128
92.6691
358.527
441.321
110.26
547.384
588.983
547.407
589.082
21.6861
202.229
200.91
208.066
208.364
467.396
563.382
466.157
563.48
452.502
423.506
454.209
424.612
195.372
196.664
23.17
170.866
171.182
416.051
420.944
418.158
424.46
23.6637
159.817
161.801
164.028
170.565
106.393
343.241
108.073
303.76
40.4707
119.769
20.5587
22.0069
36.255
104.511
20.4565
40.2112
119.639
20.5739
21.867
36.9099
102.335
20.4346
99.5361
283.584
285.946
96.8019
101.293
283.179
290.122
98.2968
40.1034
21.8675
91.6705
20.1896
95.044
20.3283
39.34
40.1677
21.7952
87.0501
20.1634
97.7608
20.3297
39.9409
193.004
196.163
23.0637
170.965
171.605
454.226
425.957
412.191
419.951
23.2181
159.073
161.319
161.79
170.929
417.231
420.939
42.1208
124.321
20.6464
22.2354
38.4956
108.065
20.5496
110.467
345.813
114.489
306.659
42.4777
20.6496
124.213
22.2493
38.8771
20.5813
108.809
102.467
283.2
291.467
102.833
41.3623
22.0842
91.4852
20.3072
101.301
20.45
41.104
105.931
286.3
292.642
98.6152
42.1616
22.2226
20.3245
94.2375
20.4645
99.328
40.8358
107.05
345.529
112.002
304.44
42.912
20.664
123.859
22.218
38.3025
20.5636
106.205
110.672
345.689
114.097
304.143
41.785
22.1616
94.9421
20.3242
100.055
20.4517
41.355
107.74
286.116
296.384
103.401
41.7666
22.1152
20.3321
92.4189
20.4798
101.555
41.4019
106.929
282.721
300.465
103.724
195.824
195.384
23.095
171.868
171.768
452.703
423.627
414.969
419.418
23.3893
162.549
162.746
171.56
161.96
415.811
422.381
40.1023
20.5589
120.72
21.9508
36.4917
20.4325
105.377
108.314
342.985
109.435
302.87
103.341
343.338
109.453
301.04
39.1163
21.9581
20.1721
91.3997
20.3178
97.1638
39.0742
38.9837
21.8749
20.174
93.9774
20.3108
96.5255
39.9535
102.302
282.497
291
99.4788
98.0226
279.348
293.106
99.1976
454.344
429.134
452.596
424.202
23.4263
162.225
161.097
171.652
160.553
416.471
425.145
413.167
422.925
410.216
410.243
412.576
412.131
157.035
158.734
23.9085
157.459
158.887
409.394
406.894
410.7
408.335
23.484
154.257
156.517
147.984
153.862
96.0831
273.069
93.7314
278.665
38.8342
88.785
20.0541
21.4954
37.7239
86.0016
19.9435
38.6222
88.6768
20.0338
21.6418
39.1689
87.8624
19.9108
92.8965
271.011
268.437
92.9728
92.2488
275.916
269.444
93.0914
37.3424
21.3706
84.7551
19.7247
85.8889
19.8236
37.9037
37.8797
21.5604
85.8026
19.7031
86.1115
19.8045
37.0743
154.169
156.678
24.0211
155.309
159.411
409.921
411.823
408.694
407.333
23.7426
152.807
154.717
150.41
150.271
409.356
409.524
39.5431
92.7037
20.1716
21.6137
40.2136
89.2684
20.0388
97.8637
278.029
93.8598
278.637
38.8555
20.193
91.172
21.7051
40.5274
20.0563
90.2678
96.2668
279.192
270.733
96.8961
37.848
21.5118
88.1063
19.8251
88.0531
19.9303
38.8208
92.1227
278.869
277.808
96.2693
38.9341
21.7663
19.8279
86.1962
19.9338
87.6462
38.8433
98.8998
282.7
99.863
277.989
40.5436
20.2081
93.3431
21.7235
39.9597
20.0882
90.0068
99.1746
284.119
97.2244
281.024
38.4818
21.7872
87.001
19.8687
87.9532
19.9924
38.7333
94.1488
278.77
270.396
96.1507
38.3799
21.6009
19.9036
88.8066
19.9951
85.5688
39.202
92.913
274.75
277.147
97.6151
155.251
157.584
23.981
155.166
152.591
412.587
407.458
410.889
406.288
23.5869
156.481
152.755
152.154
149.716
408.622
408.639
38.4061
20.0313
88.3953
21.5032
38.5938
19.9123
88.4842
95.323
272.899
96.1945
278.93
94.8367
279.583
95.5355
278.126
37.5252
21.4546
19.6534
84.832
19.7557
83.9761
37.478
36.685
21.3637
19.6909
86.412
19.7783
83.0201
37.626
91.0714
274.948
271.307
93.3733
89.8594
275.965
274.649
92.9603
410.016
411.835
408.566
407.87
23.5874
156.036
152.777
152.305
152.632
407.962
410.105
409.458
409.41
406.75
407.881
404.956
408.463
150.219
152.498
23.5008
151.423
153.849
407.897
402.203
410.223
405.427
23.2022
150.834
152.548
148.392
147.933
91.938
266.778
90.2382
275.327
37.2487
80.8793
19.6259
21.2449
37.1582
85.1616
19.5092
36.9865
82.9001
19.6058
21.3319
37.0477
84.2242
19.4991
90.5373
272.641
264.597
91.3979
89.5624
274.857
266.416
90.8264
36.1411
21.2472
82.6942
19.3593
81.9156
19.4363
36.686
35.8311
21.3055
83.2135
19.3685
80.4492
19.4449
36.5732
148.874
152.543
23.5932
151.93
154.361
409.174
410.222
407.749
402.084
23.189
151.055
153.712
144.215
150.42
409.692
404.444
38.0409
85.6591
19.7401
21.3748
37.1164
86.9308
19.6374
94.6594
270.473
94.1224
277.642
37.9835
19.7131
82.8523
21.5329
37.7978
19.6089
84.2939
91.1148
277.342
274.585
94.3191
36.7917
21.2865
85.3914
19.5066
83.238
19.5745
37.7426
90.5426
276.988
273.886
92.2212
37.4934
21.4291
19.4949
85.888
19.5426
86.0926
37.5533
94.8396
274.889
89.4676
275.235
38.6924
19.822
86.6019
21.4237
37.9894
19.73
88.3156
96.0597
278.048
96.3369
278.756
36.3712
21.4752
83.6005
19.5152
82.8316
19.5843
36.7686
92.3947
277.055
272.134
93.5457
37.6859
21.5418
19.6081
86.9133
19.6702
85.9652
38.2755
93.7189
277.767
269.361
95.004
151.574
146.997
23.5315
154.056
151.502
403.048
407.461
409.376
408.576
23.2019
153.361
151.358
150.367
142.777
408.074
406.545
36.73
19.602
83.6784
21.2759
36.6478
19.5215
84.937
91.2959
266.77
89.6822
274.534
91.1789
271.812
89.8077
275.548
35.5516
21.2784
19.4066
83.517
19.4408
82.7318
36.0418
35.4963
21.2572
19.4106
84.425
19.4615
82.8424
36.1527
88.7996
275.6
272.891
90.8749
89.6388
273.669
267.964
90.6856
410.654
409.938
404.357
408.449
23.1587
153.614
148.627
151.638
145.31
406.507
408.213
407.125
405.079
402.24
407.577
407.696
409.223
145.184
147.386
23.2403
149.853
152.879
406.094
404.555
408.479
406.519
23.0494
148.666
152.411
143.561
147.011
90.573
270.875
85.1295
273.963
36.4719
79.2347
19.2906
21.0493
36.01
81.7639
19.2466
36.3177
80.9791
19.3047
21.0957
35.8726
83.2084
19.2645
88.8088
267.889
270.811
88.2824
88.6746
274.7
266.039
89.9628
35.8269
21.009
81.0906
19.1985
78.46
19.221
35.9901
34.9166
21.2484
83.8159
19.2219
78.8092
19.2524
36.1373
146.385
150.566
23.3707
150.518
152.536
406.405
408.697
407.404
403.584
22.9777
150.772
151.94
146.512
150.311
408.662
402.686
37.372
81.9961
19.4512
21.3343
36.7938
85.2385
19.4179
92.8356
267.199
90.5701
277.539
37.1829
19.4359
83.6423
21.4192
36.5854
19.4077
85.3932
92.311
272.302
269.293
93.6
36.3994
21.3262
84.8419
19.3895
79.6833
19.4006
37.2405
90.3639
277.028
275.136
93.122
36.4938
21.3412
19.3969
84.0105
19.3979
81.7751
37.1133
93.3965
270.79
91.6522
277.419
37.6871
19.5432
82.0498
21.4309
37.1424
19.4921
86.3468
93.9414
274.628
91.9478
276.313
35.6045
21.3267
84.2529
19.3393
83.6828
19.3595
36.9828
91.8899
276.611
267.711
93.1507
36.7175
21.4251
19.4365
85.2259
19.4697
83.8828
37.3523
88.4233
276.484
268.96
93.9726
147.42
147.779
23.2761
153.134
150.305
405.744
407.412
408.504
406.605
23.0106
152.439
149.536
144.493
144.858
406.088
404.635
35.7067
19.3415
81.0695
21.1686
35.0498
19.2908
83.1458
89.9496
271.546
88.3379
274.856
90.3858
265.471
88.8968
274.179
34.6229
21.0627
19.2915
82.7188
19.3136
80.152
35.2788
35.0007
21.1734
19.2413
82.4064
19.2613
79.684
35.3883
87.4183
273.027
270.124
89.0187
88.7844
273.521
268.064
89.53
409.206
408.613
403.005
404.664
22.9889
153.613
151.337
146.069
144.896
408.203
403.803
403.98
406.889
402.836
405.061
405.457
408.356
145.135
148.915
23.2361
149.601
152.394
406.752
401.614
408.504
405.911
23.0096
148.491
152.828
144.507
144.999
89.7707
270.69
86.8622
273.481
35.6532
78.1096
19.1824
20.8728
34.9102
81.7736
19.1752
35.8916
82.4381
19.2037
21.1696
35.6709
83.8206
19.2006
87.4498
268.628
264.933
89.7359
86.526
273.566
268.664
90.0111
34.7721
21.0511
81.3167
19.1767
78.5793
19.1774
35.7273
35.4009
21.1858
83.9823
19.1963
82.9088
19.1987
35.8433
146.796
144.705
23.3659
152.095
152.326
406.164
408.056
404.887
402.337
23.218
152.192
151.799
150.657
148.809
407.963
405.675
37.5491
83.564
19.3848
21.2975
37.0824
84.9036
19.3768
93.2978
273.089
87.668
275.773
37.2272
19.3932
80.7467
21.2557
36.7811
19.3972
83.984
88.0042
272.904
273.363
92.2138
36.6878
21.2865
84.6267
19.3733
80.1986
19.3944
37.1096
87.9315
275.527
271.659
93.472
36.8865
21.3245
19.3866
83.6846
19.3997
81.097
37.3433
92.5914
268.045
89.1112
276.708
37.0396
19.4063
83.1121
21.3418
36.0463
19.3828
84.6793
93.3199
271.867
91.4177
275.824
36.4385
21.1513
84.1957
19.3056
79.9771
19.3108
36.9979
89.3723
275.788
269.011
92.6827
35.9655
21.3475
19.3593
84.6772
19.3769
83.461
37.1752
89.9812
275.508
268.863
93.098
145.533
142.678
23.1648
151.928
149.186
403.682
406.578
407.462
406.584
22.9667
151.043
149.143
147.105
145.929
405.749
402.597
35.155
19.223
79.2005
21.1299
34.3581
19.2035
82.0692
88.5076
265.017
85.5757
273.823
88.6809
269.382
86.0757
273.391
34.3621
21.059
19.2265
80.5126
19.2447
81.3916
34.5554
34.2622
21.038
19.1825
82.3626
19.2023
77.2055
35.1805
85.3969
273.437
266.214
88.288
83.1926
273.36
264.006
88.9204
405.64
407.972
406.4
407.156
23.1389
149.065
146.739
150.561
148.375
407.818
407.431
406.038
404.998
404.043
405.617
406.295
408.176
143.818
147.784
23.2845
148.667
153.26
405.948
404.15
408.106
404.357
23.1419
148.687
151.961
143.894
147.519
90.3876
269.115
84.6426
273.364
36.1444
78.5363
19.1725
21.0289
34.7137
82.0852
19.1922
35.7666
79.1322
19.1986
21.0962
35.163
83.9471
19.1951
89.0887
271.165
268.532
88.7137
88.2832
274.301
268.789
89.9809
35.7344
21.0578
81.377
19.1963
77.8194
19.1853
36.0532
35.249
21.1284
83.0944
19.2036
82.3356
19.2032
35.8489
150.275
147.088
23.41
151.276
151.658
405.868
408.545
406.454
404.611
23.2118
151.209
151.727
149.176
147.496
408.018
403.148
36.8145
82.5153
19.3816
21.2522
35.8271
84.4829
19.3774
93.2877
271.63
88.0814
275.64
37.1548
19.3769
80.6341
21.1405
35.7149
19.3733
83.667
91.731
275.439
271.601
93.52
35.8176
21.2762
84.1769
19.3498
81.3028
19.362
37.1606
88.1518
275.233
271.56
94.127
36.4771
21.2664
19.372
83.7589
19.3764
80.9069
37.1658
93.4971
271.423
87.494
275.598
37.0673
19.3317
80.1047
21.3355
36.0444
19.3619
85.1922
93.0105
267.887
90.0766
275.889
36.5688
21.2527
84.2752
19.3192
80.5846
19.3172
37
91.2885
275.28
270.006
92.5385
36.3013
21.2358
19.3376
84.9123
19.3587
80.1136
37.1561
89.9306
275.69
271.539
92.9682
146.384
146.677
23.1225
151.169
148.98
400.507
403.375
408.455
404.686
22.9641
152.946
150.026
145.632
141.96
406.566
406.286
35.3284
19.172
80.6259
20.9917
33.748
19.1542
82.368
89.1181
269.841
83.2004
273.937
89.1742
264.548
83.9781
273.577
34.5359
21.0618
19.1785
82.2895
19.194
81.478
34.8004
33.9914
21.0014
19.1382
82.3454
19.1618
81.1515
35.521
87.2742
272.87
269.992
88.7986
87.0079
272.75
270.686
88.8845
405.316
408.002
401.284
406.352
22.9335
149.758
151.061
149.683
144.106
407.752
403.095
406.399
401.166
403.239
406.414
404.64
407.856
145.199
147.229
23.2314
149.473
151.756
406.237
404.632
408.146
403.677
22.8421
149.007
151.711
145.522
147.777
89.8181
271.247
87.6605
273.589
35.8796
78.467
19.1919
21.0839
35.6431
81.9637
19.1971
35.667
81.8548
19.1995
21.1644
35.0562
82.8972
19.1947
88.9525
272.052
267.508
88.4688
88.3186
272.855
268.426
89.4428
34.646
20.9976
81.5589
19.1987
78.8219
19.201
35.915
34.6752
21.1403
82.6234
19.2004
81.6681
19.2069
35.9702
147.548
148.41
23.3138
151.796
151.858
405.642
407.813
403.895
404.316
23.085
150.689
151.576
143.723
148.971
405.052
402.518
37.1001
81.7891
19.3754
21.2548
35.9716
84.5525
19.3758
94.0771
267.156
92.3446
276.368
37.4083
19.3526
78.8911
21.1542
36.4461
19.3896
85.1094
90.7057
274.704
273.316
92.9841
36.1918
21.1837
84.7243
19.3826
83.1674
19.3761
37.3697
90.6585
276.187
267.603
93.3183
36.6575
21.1389
19.3706
84.4696
19.3862
83.6966
37.4155
92.9962
266.482
90.7307
276.1
37.1156
19.3599
83.2121
21.366
36.5946
19.3358
84.845
93.3011
273.434
90.8785
276.331
35.9368
21.2345
84.5707
19.321
81.2491
19.3153
37.2799
90.9214
276.219
267.109
93.4633
36.1192
21.2486
19.372
85.0356
19.3727
83.5235
37.2207
90.0066
276.482
267.697
93.2529
145.742
147.002
23.1177
153.355
148.91
402.161
406.247
408.186
407.038
22.9163
153.013
149.441
151.325
146.822
406.128
404.678
35.3684
19.1401
80.9369
21.0795
34.867
19.1263
82.5826
88.9488
270.754
86.7459
272.987
88.8159
264.887
85.3312
273.803
34.3128
20.9193
19.1823
80.9207
19.1791
80.8688
34.7263
33.8385
21.0564
19.1377
82.8628
19.1344
78.5811
35.519
85.6299
272.941
270.76
89.3701
86.4076
272.925
271.058
88.9955
403.96
408.132
401.408
403.952
23.0101
151.918
149.706
148.558
148.987
405.957
405.212
406.441
406.575
400.847
406.03
404.588
405.115
144.864
144.127
23.2933
149.012
152.706
406.569
404.518
408.25
407
22.9512
149.604
152.303
145.69
147.402
89.1275
265.611
87.6932
273.358
35.686
79.026
19.1903
21.0897
34.4592
81.7177
19.1803
35.6863
79.5722
19.1896
21.0544
34.5112
82.6484
19.1927
85.0872
273.714
270.361
89.0536
87.8112
272.819
267.051
89.3831
35.1645
21.0958
81.9307
19.1866
79.8366
19.191
35.5861
35.2013
21.0593
82.8125
19.1874
81.086
19.1907
35.5396
143.945
144.91
23.1536
150.172
152.724
407.335
408.85
406.105
404.978
22.9909
149.727
152.553
146.39
149.811
408.146
403.035
37.2477
81.6578
19.3611
21.3066
36.5057
85.3385
19.3639
93.7534
272.003
90.8805
276.15
37.4527
19.3432
79.5717
21.2995
36.252
19.3771
84.5542
91.9391
271.192
268.07
93.9506
36.471
21.3228
84.3189
19.3718
81.2938
19.3719
37.04
92.3359
275.32
273.122
93.8165
36.909
21.1497
19.3445
84.2781
19.3703
83.0341
37.2762
93.0163
274.003
89.9978
276.433
37.1247
19.3495
83.7252
21.3403
36.315
19.3557
85.0032
93.0992
273.508
90.9476
275.901
35.8282
21.1564
82.9744
19.3571
83.3822
19.3527
36.2325
88.0762
275.331
273.159
92.4566
35.3859
21.3408
19.3363
84.6254
19.3586
82.0154
37.0795
87.5986
276.114
273.511
92.9866
146.175
143.36
23.0807
152.16
148.991
404.468
406.124
407.137
402.981
22.6733
151.336
148.965
146.465
143.526
405.713
404.087
35.4989
19.1442
80.4515
21.0639
34.9649
19.1565
82.3725
89.6384
269.999
85.6555
269.77
89.5609
266.086
84.1026
273.41
34.562
21.0037
19.1911
82.2767
19.1881
79.462
34.9743
35.0891
20.9828
19.179
82.3603
19.1799
80.1142
35.6696
87.4455
273.786
272.906
89.8468
84.7987
273.445
263.953
89.9206
404.265
408.891
402.263
406.319
23.0063
152.276
147.382
150.692
145.766
405.119
406.587
405.882
404.099
400.544
403.224
403.364
405.202
146.561
147.332
23.2858
149.602
152.973
406.487
406.04
408.259
407.386
22.9629
149.617
152.09
147.932
148.651
89.3225
267.491
87.4986
272.426
35.4076
80.016
19.1748
21.0482
35.17
82.4752
19.1682
35.1623
79.5546
19.1871
20.8969
35.243
82.972
19.1883
86.4227
272.315
267.686
87.6959
86.5732
273.606
271.452
89.0259
34.8093
21.0743
82.8174
19.1723
81.585
19.1648
35.5326
34.8393
21.0985
82.3968
19.1888
79.7732
19.1895
35.4561
147.416
149.14
23.1594
150.076
152.002
405.7
408.097
405.893
402.973
22.7763
150.451
151.673
144.654
146.992
407.099
406.49
37.3539
80.3789
19.3441
21.3422
36.4454
84.6618
19.3579
94.046
268.648
89.0478
275.319
37.6705
19.3522
80.8497
21.233
36.3759
19.3305
84.1074
92.0631
274.866
271.724
90.7775
36.0354
21.2377
85.7136
19.3703
83.5734
19.3689
37.44
88.7655
274.775
268.448
93.8323
37.2148
21.2253
19.3661
84.052
19.3708
79.6525
37.4951
92.4411
271.072
88.6129
275.366
36.9275
19.357
81.7123
21.2932
35.3377
19.3508
84.5908
92.9352
270.948
87.4671
275.981
35.2938
21.2204
84.1346
19.3511
80.3337
19.3658
36.8756
86.884
275.784
273.28
92.8353
35.3191
21.3113
19.3503
84.2852
19.3354
81.636
37.1342
90.8646
275.257
269.023
92.904
146.167
144.015
23.0936
151.992
149.434
402.923
405.845
405.823
403.212
22.9203
151.274
149.53
146.407
140.955
405.887
400.723
35.5661
19.1768
80.9593
21.0988
35.2805
19.167
82.371
89.183
270.052
86.84
273.046
89.7468
270.475
88.5175
272.847
34.8558
20.9899
19.1937
80.423
19.2028
81.2267
35.3897
34.3389
21.0016
19.1596
82.5943
19.1831
80.8258
35.3258
86.7849
273.425
268.159
89.0827
87.6626
272.886
267.327
89.0337
407.853
405.103
403.509
406.679
23.1608
149.806
148.175
147.833
148.159
407.645
407.277
405.662
404.395
401.504
406.484
405.713
408.183
148.072
149.125
23.2439
150.572
152.445
406.599
401.981
408.86
402.55
23.0534
150.345
152.602
143.621
145.467
89.9513
265.547
84.6717
273.56
35.6711
79.5945
19.1543
20.9656
34.3329
82.5709
19.1534
35.5202
79.6326
19.1874
21.1298
34.8599
83.1038
19.1827
88.5361
270.234
265.516
87.6096
87.6037
274.348
266.878
89.4655
35.0985
20.9587
80.0561
19.174
79.542
19.1781
35.8103
34.7654
21.0408
81.2621
19.188
78.797
19.1808
35.612
145.92
146.233
23.2883
150.441
151.472
403.765
405.646
406.267
405.252
23.1354
150.511
151.086
146.634
146.122
406.054
407.523
37.374
84.2261
19.3827
21.3344
36.9422
84.9405
19.3805
93.7821
269.835
88.495
274.991
37.3383
19.3417
82.4035
21.179
37.1289
19.3459
83.9474
91.9824
272.432
268.89
92.2307
36.35
21.3225
84.0041
19.3911
81.2084
19.3931
37.5513
90.0482
275.373
271.425
93.8224
36.9557
21.2167
19.3359
83.6627
19.358
80.8012
36.9307
93.6252
269.215
87.91
275.972
37.1493
19.3381
81.3693
21.3153
36.59
19.3159
84.3193
93.0293
269.806
91.6017
275.124
36.5996
21.137
84.0507
19.345
80.0306
19.3483
36.7171
88.4169
275.738
271.594
93.7377
36.3744
21.3408
19.3383
83.9171
19.3531
81.1685
37.0027
88.1683
274.977
269.414
93.4271
143.675
146.516
23.1149
152.548
149.456
404.2
406.43
407.291
402.866
22.9545
151.375
148.75
150.204
144.863
405.453
403.759
35.1629
19.1624
80.0382
21.0951
34.2945
19.1455
82.5931
88.5494
269.655
85.2852
273.208
88.4889
267.487
85.3952
272.55
34.6179
21.0376
19.1987
80.1757
19.1939
78.7695
35.4431
34.3675
21.1031
19.1623
82.6071
19.1645
80.0162
35.3313
86.1507
272.401
269.265
88.9052
85.4251
273.719
265.709
88.8524
403.255
408.092
402.951
406.017
23.2496
152.1
150.086
148.543
145.842
407.51
403.706
405.051
404.822
400.844
403.937
143.163
144.845
92.3069
271.086
87.8929
275.026
37.119
82.0432
19.1278
21.0986
35.3949
84.7568
19.2659
36.6929
82.9589
19.1535
21.0511
35.2058
85.5909
19.3019
143.831
147.863
23.2392
152.895
151.475
407.222
408.005
80.984
19.4066
36.0183
272.262
90.3396
19.3595
80.7869
37.4671
93.602
273.74
88.4085
276.212
37.1033
19.2864
81.4328
21.1609
36.1688
19.3606
84.4612
93.3246
267.341
87.9458
275.606
35.5674
19.2312
91.1249
36.3982
20.9451
19.1617
80.2152
91.1326
268.873
144.559
143.831
402.54
36.7345
19.1121
77.6775
20.9748
34.4432
19.2632
82.2392
92.0796
269.313
87.1622
91.8135
270.037
86.7135
274.023
404.884
408.188
405.009
407.065
23.1889
150.032
145.434
406.766
405.376
23.164
133.722
193.67
23.182
133.626
193.416
192.518
192.744
23.2049
133.457
192.997
23.1907
133.447
23.2036
132.669
23.1608
134.073
193.288
23.197
133.86
23.1664
134.524
193.345
193.179
22.1913
22.1899
22.1929
22.1945
22.1945
22.191
22.1913
22.1931
22.192
22.1896
22.1913
22.1891
22.6443
22.3358
22.3331
22.2922
22.2006
22.261
22.6329
22.3721
22.3534
22.2695
22.1994
22.2685
22.3358
22.6426
22.3328
22.1989
22.2924
22.2606
22.2714
22.1986
22.2678
22.5566
22.3741
22.3533
9462.71
9463.25
35.0174
22.3669
22.3658
22.906
6243.87
22.3945
24.3862
6244.66
22.3994
24.7574
520.811
79.369
402.67
144.789
395.364
140.604
513.671
683.984
489.667
529.33
1324.23
352.229
518.169
69.5337
358.042
144.034
684.799
362.677
129.718
722.617
314.882
507.722
332.551
704.56
553.395
590.43
521.087
79.5044
144.903
402.735
140.923
395.493
513.963
683.962
490.329
529.195
1323.35
352.457
518.681
69.6557
144.193
358.352
684.783
130.241
362.907
722.757
314.818
507.746
332.875
704.605
553.118
590.333
209.782
498.715
498.037
467.043
466.407
216.995
63.8609
34.7757
337.045
194.346
58.2297
37.869
339.463
64.2692
34.7808
337.805
194.499
58.9366
37.7983
340.879
197.946
375.878
376.007
196.216
441.559
441.583
76.2426
351.703
203.689
45.1284
42.8798
347.267
81.4362
76.1811
353.101
203.833
45.3008
42.573
348.531
81.6718
351.823
109.212
307.593
124.501
320.581
134.716
339.806
469.928
243.904
325.651
484.603
226.185
365.219
109.59
340.652
146.683
380.999
329.118
141.92
459.588
196.948
314.073
214.137
449.24
439.878
432.545
354.795
113.631
133.056
315.609
141.158
322.286
345.428
472.442
247.262
328.207
486.728
230.336
368.525
115.252
153.113
342.71
383.795
149.025
333.465
462.557
204.568
317.422
217.321
452.512
441.996
434.321
227.561
431.499
427.934
434.269
434.049
219.537
111.521
62.0871
321.505
186.855
111.608
63.3827
313.401
114.55
62.1836
321.303
187.252
110.54
63.4517
313.91
227.796
446.09
445.933
232.799
440.211
439.868
114.722
299.691
185.209
64.3033
65.7053
306.38
112.606
113.47
300.567
180.335
63.1912