/*--------------------------------*- C++ -*----------------------------------*\
| =========                 |                                                 |
| \\      /  F ield         | OpenFOAM: The Open Source CFD Toolbox           |
|  \\    /   O peration     | Version:  2206                                  |
|   \\  /    A nd           | Website:  www.openfoam.com                      |
|    \\/     M anipulation  |                                                 |
\*---------------------------------------------------------------------------*/
FoamFile
{
    version     2.0;
    format      ascii;
    arch        "LSB;label=32;scalar=64";
    class       volScalarField;
    location    "30";
    object      p;
}
// * * * * * * * * * * * * * * * * * * * * * * * * * * * * * * * * * * * * * //

dimensions      [0 2 -2 0 0 0 0];

internalField   nonuniform List<scalar> 
66616
(
-0.000456522
-0.000426466
-0.000426355
-0.000378187
-0.00110754
-0.00112332
-0.00112287
-0.00109686
-0.00149706
-0.00150321
-0.0015032
-0.00148573
-0.00179274
-0.00179255
-0.0017926
-0.00177475
-0.00209253
-0.00209341
-0.0020934
-0.00207453
-0.00239197
-0.00239352
-0.00239349
-0.0023758
-0.00267875
-0.00267953
-0.00267953
-0.00266284
-0.0029554
-0.00295563
-0.00295562
-0.00293925
-0.00322755
-0.00322757
-0.00322761
-0.00321133
-0.00349789
-0.00349784
-0.00349793
-0.00348168
-0.00376703
-0.00376691
-0.00376706
-0.00375088
-0.00403541
-0.0040351
-0.00403551
-0.00401935
-0.000312059
-0.000326002
-0.000325993
-0.000312079
-0.000325952
-0.000326013
-0.000328013
-0.000328013
-0.000328007
-0.000328005
-0.000325974
-0.000326039
-0.000312072
-0.000325949
-0.000325935
-0.000312088
-0.000378165
-0.00102537
-0.000426762
-0.000426771
-0.000984263
-0.000984241
-0.000378187
-0.00102536
-0.000426445
-0.000426845
-0.000984791
-0.000984739
-0.000426858
-0.000984791
-0.000984742
-0.000378165
-0.00102537
-0.000426365
-0.000984347
-0.000984339
-0.00102538
-0.00109686
-0.00144457
-0.0011228
-0.00112277
-0.0014235
-0.0014235
-0.00109685
-0.00144456
-0.00112332
-0.00112329
-0.0014236
-0.00142363
-0.00112328
-0.00142361
-0.00142361
-0.00109686
-0.00144458
-0.00112283
-0.00142353
-0.00142352
-0.0014446
-0.00148574
-0.00173723
-0.00150316
-0.00150315
-0.00172042
-0.0017204
-0.00148572
-0.00173719
-0.0015032
-0.00150321
-0.00172041
-0.00172039
-0.00150317
-0.00172037
-0.00172039
-0.00148574
-0.00173723
-0.00150314
-0.00172042
-0.00172043
-0.00173723
-0.00177474
-0.00203455
-0.00179253
-0.00179249
-0.0020172
-0.00201724
-0.00177473
-0.00203461
-0.00179252
-0.00179249
-0.00201723
-0.00201723
-0.00179249
-0.00201723
-0.00201726
-0.00177474
-0.0020346
-0.00179253
-0.00201724
-0.00201729
-0.00203466
-0.00207445
-0.00233724
-0.00209334
-0.00209335
-0.00231973
-0.00231979
-0.00207446
-0.00233727
-0.00209337
-0.00209335
-0.00231975
-0.00231976
-0.00209339
-0.00231975
-0.00231976
-0.00207447
-0.00233724
-0.00209339
-0.00231973
-0.00231976
-0.00233729
-0.00237576
-0.00262636
-0.00239347
-0.00239349
-0.00260939
-0.00260939
-0.00237578
-0.00262632
-0.00239346
-0.00239346
-0.00260937
-0.00260933
-0.00239344
-0.00260933
-0.00260932
-0.00237576
-0.00262631
-0.00239344
-0.00260931
-0.00260933
-0.00262631
-0.00266289
-0.0029038
-0.00267953
-0.00267951
-0.00288731
-0.00288732
-0.00266287
-0.00290379
-0.00267952
-0.00267945
-0.0028873
-0.00288727
-0.00267942
-0.00288727
-0.00288724
-0.00266283
-0.00290377
-0.00267944
-0.00288725
-0.00288726
-0.00290373
-0.00293929
-0.00317617
-0.00295561
-0.0029556
-0.00315996
-0.00315996
-0.0029393
-0.0031762
-0.00295559
-0.00295554
-0.00315997
-0.00315995
-0.00295551
-0.00315994
-0.00315994
-0.00293927
-0.00317617
-0.00295554
-0.00315993
-0.00315996
-0.0031762
-0.00321132
-0.00344676
-0.00322758
-0.00322754
-0.00343063
-0.0034306
-0.00321132
-0.00344673
-0.00322755
-0.0032275
-0.00343066
-0.00343063
-0.00322748
-0.00343061
-0.00343066
-0.0032113
-0.00344674
-0.00322753
-0.0034306
-0.00343064
-0.00344678
-0.0034817
-0.00371612
-0.00349787
-0.00349782
-0.00370006
-0.00370005
-0.00348166
-0.00371614
-0.00349783
-0.00349778
-0.00370013
-0.00370013
-0.00349779
-0.00370012
-0.00370015
-0.00348167
-0.00371614
-0.00349785
-0.00370007
-0.00370012
-0.00371616
-0.00375089
-0.00398456
-0.00376702
-0.00376696
-0.00396861
-0.00396862
-0.00375087
-0.00398457
-0.00376689
-0.00376685
-0.00396874
-0.00396872
-0.00376683
-0.00396874
-0.00396876
-0.00375088
-0.00398455
-0.00376701
-0.00396859
-0.00396865
-0.00398458
-0.00401939
-0.00403549
-0.00403544
-0.00401937
-0.00403513
-0.00403509
-0.004035
-0.0040194
-0.00403539
-0.000199918
-0.000154403
-0.000177918
-0.000177925
-7.27765e-05
-0.000134367
-6.44609e-05
-0.000160873
-7.2717e-05
-0.000134365
-0.000160862
-6.44091e-05
-0.000108884
-6.50386e-05
-6.4995e-05
-0.000686394
-0.000183947
-0.000282302
-0.000711898
-0.000262691
-0.00070452
-0.000686665
-0.000183934
-0.000282296
-0.000712087
-0.000456534
-0.000456522
-0.000456537
-0.000969218
-0.000969228
-0.000969252
-0.000969242
-0.000676478
-0.000282172
-0.000435359
-0.000621956
-0.00033109
-0.00068946
-0.000623554
-0.000262686
-0.000704641
-0.000676305
-0.000435136
-0.000282119
-0.000622031
-0.000331072
-0.000623644
-0.000689332
-0.000330888
-0.000330723
-0.000670317
-0.000689702
-0.000689641
-0.00128646
-0.00114692
-0.00113446
-0.00129232
-0.00114777
-0.00129419
-0.00128697
-0.00114695
-0.00113512
-0.00129224
-0.00110749
-0.00110751
-0.00110748
-0.00141519
-0.0014152
-0.00141523
-0.00141522
-0.00127475
-0.00112856
-0.00111615
-0.00123748
-0.00111638
-0.00128146
-0.00123169
-0.00114786
-0.00129411
-0.00127403
-0.00111493
-0.00112813
-0.00123714
-0.00111517
-0.00123072
-0.00128115
-0.00113504
-0.001135
-0.00126533
-0.00128703
-0.00128699
-0.00159753
-0.00149498
-0.00149293
-0.0015988
-0.00149612
-0.00159935
-0.00159764
-0.00149468
-0.00149259
-0.0015988
-0.00149701
-0.00149704
-0.00149701
-0.00171982
-0.00171985
-0.00171987
-0.00171986
-0.00159512
-0.00149212
-0.00150068
-0.00157742
-0.00148995
-0.00159643
-0.00157572
-0.00149587
-0.00159933
-0.00159504
-0.00150042
-0.00149237
-0.00157743
-0.00149017
-0.00157559
-0.00159642
-0.00149335
-0.00149359
-0.00159509
-0.00159828
-0.00159828
-0.00188363
-0.00177502
-0.00177497
-0.00188374
-0.00177514
-0.00188389
-0.0018839
-0.00177495
-0.00177482
-0.00188388
-0.00179267
-0.00179269
-0.00179267
-0.00201687
-0.00201693
-0.00201693
-0.00201695
-0.00188292
-0.00177615
-0.00179243
-0.00186626
-0.00177622
-0.00188321
-0.00186627
-0.00177511
-0.00188403
-0.00188268
-0.00179244
-0.00177626
-0.00186627
-0.00177643
-0.00186627
-0.00188302
-0.0017754
-0.00177548
-0.00188344
-0.00188397
-0.00188387
-0.00218655
-0.00207441
-0.00207438
-0.00218682
-0.00207451
-0.0021869
-0.00218689
-0.00207441
-0.00207428
-0.00218698
-0.00209251
-0.00209251
-0.00209251
-0.00231815
-0.00231818
-0.00231818
-0.00231816
-0.0021858
-0.0020755
-0.00209314
-0.00216945
-0.00207553
-0.0021862
-0.00216905
-0.00207454
-0.00218705
-0.0021855
-0.0020931
-0.00207557
-0.00216944
-0.00207562
-0.002169
-0.00218596
-0.00207457
-0.00207457
-0.00218708
-0.00218684
-0.0021867
-0.00248288
-0.00237504
-0.00237501
-0.00248303
-0.00237505
-0.00248301
-0.00248315
-0.00237502
-0.00237485
-0.00248315
-0.00239193
-0.00239192
-0.00239187
-0.00260835
-0.00260835
-0.00260835
-0.00260834
-0.00248211
-0.00237598
-0.00239298
-0.00246634
-0.00237597
-0.00248241
-0.00246583
-0.00237508
-0.00248318
-0.00248183
-0.00239292
-0.00237609
-0.00246633
-0.00237612
-0.0024658
-0.00248222
-0.0023751
-0.00237514
-0.00248373
-0.002483
-0.00248288
-0.00276565
-0.00266245
-0.00266252
-0.00276575
-0.00266242
-0.00276575
-0.00276586
-0.00266238
-0.00266234
-0.00276582
-0.00267865
-0.00267866
-0.00267862
-0.00288693
-0.00288695
-0.00288693
-0.00288693
-0.00276482
-0.00266323
-0.00267917
-0.00274921
-0.00266335
-0.00276503
-0.00274892
-0.00266236
-0.0027658
-0.00276459
-0.00267917
-0.00266334
-0.00274921
-0.00266355
-0.00274891
-0.00276485
-0.00266239
-0.00266246
-0.00276603
-0.00276565
-0.00276553
-0.0030402
-0.00293929
-0.00293936
-0.00304023
-0.00293927
-0.00304027
-0.00304036
-0.00293918
-0.00293913
-0.00304029
-0.00295532
-0.00295529
-0.00295526
-0.00315985
-0.00315988
-0.00315987
-0.00315987
-0.00303934
-0.00294
-0.00295544
-0.00302391
-0.00294014
-0.00303952
-0.00302376
-0.00293916
-0.00304029
-0.00303911
-0.00295544
-0.00294012
-0.00302389
-0.00294036
-0.00302375
-0.00303935
-0.00293922
-0.00293926
-0.00304031
-0.00304015
-0.00304005
-0.00331153
-0.00321148
-0.00321157
-0.00331159
-0.00321154
-0.00331167
-0.00331174
-0.00321139
-0.00321134
-0.00331168
-0.00322747
-0.00322747
-0.00322743
-0.00343056
-0.00343058
-0.00343059
-0.0034306
-0.00331067
-0.0032122
-0.0032275
-0.00329537
-0.00321234
-0.00331085
-0.00329529
-0.00321142
-0.00331172
-0.00331048
-0.00322752
-0.00321234
-0.00329537
-0.00321257
-0.00329529
-0.00331071
-0.00321145
-0.00321155
-0.00331166
-0.00331157
-0.00331149
-0.00358142
-0.00348191
-0.00348196
-0.00358149
-0.00348189
-0.00358152
-0.00358162
-0.00348182
-0.00348176
-0.00358158
-0.0034978
-0.00349783
-0.00349779
-0.00369999
-0.00370003
-0.00370005
-0.00370007
-0.00358058
-0.0034826
-0.00349779
-0.00356542
-0.00348276
-0.00358081
-0.00356535
-0.00348187
-0.00358162
-0.00358039
-0.00349784
-0.00348274
-0.0035654
-0.00348297
-0.00356535
-0.00358064
-0.00348187
-0.00348198
-0.0035816
-0.00358148
-0.00358142
-0.00385017
-0.00375113
-0.00375119
-0.0038502
-0.00375116
-0.00385026
-0.00385031
-0.00375108
-0.003751
-0.00385026
-0.00376695
-0.00376698
-0.00376694
-0.00396857
-0.00396859
-0.0039686
-0.0039686
-0.00384931
-0.00375185
-0.00376684
-0.0038344
-0.00375202
-0.00384945
-0.00383433
-0.00375112
-0.00385026
-0.00384917
-0.00376697
-0.003752
-0.00383431
-0.00375222
-0.0038343
-0.00384938
-0.00375114
-0.00375121
-0.0038504
-0.00385016
-0.00385011
-0.00411831
-0.0040196
-0.00401976
-0.00411811
-0.00401956
-0.00411831
-0.00401944
-0.00401945
-0.00403529
-0.00403533
-0.00403524
-0.00411723
-0.0040203
-0.00403495
-0.00410272
-0.00402046
-0.00411743
-0.0041028
-0.00401948
-0.00411742
-0.0040354
-0.00402054
-0.00402076
-0.0041029
-0.00401951
-0.00401964
-0.0041185
-0.00411826
-0.00411824
-0.000108947
-6.4831e-05
-6.48537e-05
-0.000127851
-9.327e-05
-0.000127964
-9.33159e-05
-0.000147597
-0.000210747
-0.000210535
-8.57526e-05
-8.57768e-05
-7.27331e-05
-0.000134197
-6.44478e-05
-0.000160879
-7.27231e-05
-0.000134169
-6.44987e-05
-0.000160861
-8.50128e-05
-4.7773e-05
-0.000102357
-0.000260964
-8.50035e-05
-4.77969e-05
-0.00010244
-0.000260965
-0.000114221
-0.000169644
-0.0002014
-0.00030118
-8.55991e-05
-0.00020061
-0.000272547
-0.000114217
-0.00016962
-0.000201348
-0.000301179
-8.57185e-05
-0.000200588
-0.00027253
-0.000108942
-6.50299e-05
-6.48795e-05
-0.000128005
-9.31733e-05
-0.000147553
-0.000211024
-0.000210773
-8.57325e-05
-8.57952e-05
-0.000127961
-9.33558e-05
-7.27458e-05
-0.000134392
-6.4459e-05
-0.000160865
-7.2746e-05
-0.000134147
-0.000160852
-6.44886e-05
-8.49855e-05
-4.79187e-05
-0.000102406
-0.000261081
-0.00011419
-0.000170004
-0.000201453
-0.000301138
-8.56214e-05
-0.000200574
-0.000272624
-8.49725e-05
-4.80461e-05
-0.000102455
-0.000261089
-0.00011419
-0.000169601
-0.000301141
-0.000201609
-0.000200554
-8.56858e-05
-0.000272622
-0.000199892
-0.000154383
-0.00017791
-0.000177919
-0.000199903
-0.000154373
-0.000177918
-0.000177905
-0.00019988
-0.000154346
-0.000177911
-0.0001779
-0.000245761
-0.000187902
-0.000349917
-0.00034985
-0.000217765
-0.000217716
-0.000370773
-0.000245764
-0.000187878
-0.000349921
-0.000349855
-0.000217752
-0.000217713
-0.000370774
-0.000245778
-0.000187871
-0.000349864
-0.000349926
-0.000217702
-0.000217756
-0.000370824
-0.000245766
-0.000187862
-0.000349866
-0.000349928
-0.000217711
-0.000217758
-0.000370828
-7.27404e-05
-0.000134133
-0.000160867
-6.45262e-05
-0.00011423
-0.000169979
-0.000201538
-0.000301143
-8.56502e-05
-0.00020058
-0.000272642
-8.50309e-05
-4.79476e-05
-0.000102456
-0.000261098
-0.000114216
-0.000169585
-0.000301151
-0.00020166
-0.000200571
-8.57257e-05
-0.000272659
-8.50113e-05
-4.80297e-05
-0.000102499
-0.000261107
-0.000108924
-6.5016e-05
-6.48317e-05
-0.00012811
-9.31534e-05
-0.000147539
-0.000211095
-0.000210695
-8.57206e-05
-8.57604e-05
-0.000127861
-9.32836e-05
-7.26715e-05
-0.000134323
-0.000160858
-6.44814e-05
-0.000114206
-0.000169982
-0.000301202
-0.000201389
-0.000200609
-8.55989e-05
-0.000272543
-0.000114193
-0.000169941
-0.000301199
-0.000201425
-0.000200601
-8.56684e-05
-0.000272536
-8.49767e-05
-4.77369e-05
-0.00010238
-0.000260962
-8.49618e-05
-4.771e-05
-0.000102421
-0.000260959
-0.000147526
-0.00021126
-0.000210947
-8.57611e-05
-8.56877e-05
-0.000128102
-9.3232e-05
-0.000127997
-9.31574e-05
-0.000262695
-0.000704505
-0.000262733
-0.00070464
-0.000330748
-0.000330598
-0.000670333
-0.000689564
-0.00068966
-0.00108572
-0.000777679
-0.00108597
-0.00077773
-0.000771859
-0.00107032
-0.00107079
-0.000776031
-0.000776119
-0.000686377
-0.000183924
-0.000282308
-0.00071189
-0.000676317
-0.000282112
-0.000435233
-0.000621847
-0.000331067
-0.000689365
-0.00062368
-0.000676315
-0.00028209
-0.000435236
-0.000621834
-0.000331057
-0.000689375
-0.000623685
-0.000786152
-0.00108596
-0.00079019
-0.00107085
-0.000786162
-0.00108598
-0.000790202
-0.00107084
-0.000782144
-0.000814899
-0.00106022
-0.000976249
-0.000787024
-0.000809828
-0.00104412
-0.000782148
-0.000814885
-0.00106027
-0.000976253
-0.000787005
-0.000809838
-0.00104412
-0.000330783
-0.000330758
-0.000670319
-0.000689633
-0.000689665
-0.000262737
-0.000704661
-0.00108576
-0.000777674
-0.000771855
-0.00107039
-0.00107079
-0.000776048
-0.000776128
-0.00108597
-0.000777748
-0.000676469
-0.000282119
-0.000435352
-0.000621942
-0.000331045
-0.000689464
-0.000623552
-0.000686656
-0.000183929
-0.000282294
-0.000712085
-0.000676468
-0.000435376
-0.000282144
-0.000621791
-0.000331045
-0.00062351
-0.000689491
-0.000786193
-0.00108618
-0.000790241
-0.00107182
-0.000782298
-0.000815028
-0.00106116
-0.000977454
-0.000787099
-0.000810204
-0.00104555
-0.000786198
-0.00108623
-0.000790251
-0.00107182
-0.000782314
-0.000814957
-0.000977398
-0.00106123
-0.000810108
-0.000787078
-0.00104558
-0.000686675
-0.000183944
-0.000282319
-0.000712082
-0.000676487
-0.000435386
-0.000282178
-0.00062179
-0.00033109
-0.000623508
-0.000689505
-0.000686679
-0.000183949
-0.000282312
-0.000712104
-0.00078232
-0.00081502
-0.00106118
-0.000977431
-0.00078712
-0.000810175
-0.00104552
-0.000786218
-0.0010862
-0.000790259
-0.00107182
-0.000782322
-0.000814965
-0.00097739
-0.00106121
-0.000810096
-0.000787106
-0.00104556
-0.000786226
-0.00108621
-0.000790274
-0.00107182
-0.000330786
-0.000330711
-0.000670329
-0.000689698
-0.000689588
-0.000262689
-0.000704526
-0.00108599
-0.000777714
-0.000771849
-0.00107083
-0.00107035
-0.000776094
-0.00077608
-0.00108576
-0.000777716
-0.000676293
-0.000435141
-0.000282126
-0.000622022
-0.000331068
-0.000623648
-0.000689345
-0.0006864
-0.000183923
-0.00028231
-0.000711878
-0.000686396
-0.00018391
-0.000282305
-0.000711893
-0.000782181
-0.000814978
-0.000976312
-0.00106023
-0.000809845
-0.000787056
-0.00104413
-0.000782174
-0.000815002
-0.000976329
-0.00106024
-0.000809875
-0.000787048
-0.00104415
-0.000786194
-0.00108598
-0.000790212
-0.00107089
-0.000786196
-0.001086
-0.000790235
-0.00107089
-0.000262689
-0.000704673
-0.000262692
-0.000704534
-0.000771868
-0.00107076
-0.00107037
-0.000776114
-0.000776078
-0.00108596
-0.00077775
-0.00108578
-0.000777713
-0.00114775
-0.00129421
-0.00114784
-0.00129409
-0.00113496
-0.00113509
-0.00126534
-0.00128697
-0.00128702
-0.00145783
-0.00133944
-0.00145763
-0.00133915
-0.00131592
-0.00145437
-0.0014543
-0.0013338
-0.00133369
-0.00128647
-0.00114694
-0.00113447
-0.00129229
-0.00127402
-0.00112811
-0.00111483
-0.00123709
-0.00111509
-0.0012812
-0.00123065
-0.00127402
-0.00112812
-0.00111482
-0.00123708
-0.00111508
-0.00128121
-0.00123065
-0.00133322
-0.00145643
-0.00133767
-0.00145384
-0.00133323
-0.00145649
-0.00133766
-0.00145382
-0.00132531
-0.00133573
-0.00145103
-0.00141976
-0.00133068
-0.0013308
-0.00144771
-0.00132533
-0.00133575
-0.00145107
-0.00141976
-0.00133072
-0.00133081
-0.0014477
-0.00113503
-0.00113503
-0.00126534
-0.00128692
-0.00128706
-0.00114783
-0.0012941
-0.00145784
-0.00133944
-0.00131592
-0.00145439
-0.0014542
-0.00133384
-0.00133363
-0.00145757
-0.00133915
-0.00127477
-0.00112856
-0.00111613
-0.00123747
-0.00111634
-0.00128151
-0.00123169
-0.00128697
-0.001147
-0.00113516
-0.00129225
-0.0012748
-0.00111608
-0.00112861
-0.00123747
-0.00111636
-0.00123165
-0.00128152
-0.00133321
-0.00145628
-0.00133737
-0.00145388
-0.00132557
-0.00133594
-0.00145114
-0.00142023
-0.0013307
-0.00133151
-0.00144797
-0.00133322
-0.0014563
-0.00133741
-0.0014539
-0.00132558
-0.00133598
-0.00142021
-0.00145116
-0.0013315
-0.0013307
-0.00144795
-0.00128695
-0.00114695
-0.00113515
-0.00129221
-0.00127479
-0.00111608
-0.00112858
-0.00123745
-0.00111637
-0.00123165
-0.00128152
-0.00128696
-0.00114699
-0.00113515
-0.00129222
-0.00132562
-0.00133594
-0.00145106
-0.00142022
-0.00133066
-0.0013315
-0.00144791
-0.00133326
-0.0014562
-0.00133737
-0.00145383
-0.00132562
-0.00133596
-0.0014202
-0.00145109
-0.00133151
-0.00133069
-0.0014479
-0.00133325
-0.00145624
-0.00133734
-0.00145386
-0.00113511
-0.00113499
-0.00126536
-0.00128703
-0.00128696
-0.00114777
-0.00129422
-0.00145766
-0.00133917
-0.00131595
-0.00145431
-0.00145436
-0.00133369
-0.00133384
-0.00145782
-0.00133946
-0.001274
-0.0011149
-0.00112815
-0.00123713
-0.00111515
-0.00123071
-0.0012812
-0.00128649
-0.00114693
-0.00113452
-0.00129229
-0.00128649
-0.00114695
-0.00113452
-0.00129231
-0.00132539
-0.00133575
-0.00141978
-0.00145104
-0.00133082
-0.00133069
-0.00144774
-0.00132538
-0.00133579
-0.00141978
-0.00145108
-0.00133084
-0.0013307
-0.00144774
-0.0013333
-0.00145643
-0.00133771
-0.00145383
-0.00133328
-0.00145646
-0.00133769
-0.00145385
-0.00114785
-0.00129409
-0.00114778
-0.00129423
-0.00131594
-0.00145422
-0.00145434
-0.00133364
-0.00133381
-0.00145759
-0.00133913
-0.00145783
-0.00133946
-0.00149612
-0.00159942
-0.00149583
-0.00159937
-0.00149362
-0.0014934
-0.00159511
-0.00159833
-0.00159834
-0.00173793
-0.00163511
-0.00173798
-0.00163499
-0.00163216
-0.0017379
-0.00173799
-0.00163473
-0.00163462
-0.00159755
-0.001495
-0.00149293
-0.00159874
-0.00159505
-0.00149235
-0.0015004
-0.00157743
-0.00149008
-0.00159641
-0.0015756
-0.00159505
-0.00149237
-0.00150038
-0.00157742
-0.00149006
-0.00159641
-0.00157559
-0.00163388
-0.0017377
-0.00163472
-0.00173738
-0.0016339
-0.00173768
-0.00163473
-0.0017374
-0.00163424
-0.00164913
-0.00173682
-0.00171998
-0.00163472
-0.00164811
-0.00173641
-0.00163424
-0.00164912
-0.00173683
-0.00171996
-0.00163475
-0.00164812
-0.0017364
-0.00149363
-0.00149335
-0.0015951
-0.00159828
-0.00159825
-0.0014958
-0.0015993
-0.00173791
-0.00163507
-0.00163212
-0.00173789
-0.00173795
-0.00163474
-0.00163458
-0.00173798
-0.00163495
-0.00159519
-0.00149221
-0.00150068
-0.00157744
-0.00148991
-0.0015965
-0.00157575
-0.00159767
-0.00149473
-0.00149262
-0.00159872
-0.00159522
-0.00150066
-0.0014922
-0.00157744
-0.00148993
-0.00157575
-0.00159651
-0.00163364
-0.00173778
-0.00163458
-0.00173757
-0.00163402
-0.00164913
-0.00173696
-0.00172
-0.00163458
-0.00164818
-0.00173659
-0.00163364
-0.00173778
-0.00163457
-0.00173758
-0.00163404
-0.00164912
-0.00172
-0.00173692
-0.00164821
-0.0016346
-0.00173659
-0.00159759
-0.00149464
-0.00149259
-0.0015987
-0.00159513
-0.00150065
-0.00149212
-0.0015774
-0.00148988
-0.00157572
-0.00159644
-0.00159759
-0.00149466
-0.0014926
-0.0015987
-0.00163398
-0.00164906
-0.0017369
-0.00171995
-0.00163458
-0.00164811
-0.00173654
-0.00163363
-0.00173777
-0.00163456
-0.00173754
-0.00163399
-0.00164911
-0.00171999
-0.00173694
-0.00164818
-0.00163456
-0.00173658
-0.00163363
-0.00173776
-0.00163455
-0.00173758
-0.00149344
-0.00149361
-0.00159511
-0.00159829
-0.00159829
-0.00149612
-0.00159942
-0.00173797
-0.00163495
-0.00163215
-0.00173797
-0.00173788
-0.00163459
-0.00163476
-0.00173795
-0.00163514
-0.00159503
-0.00150039
-0.00149236
-0.00157743
-0.00149011
-0.00157557
-0.00159639
-0.00159754
-0.00149498
-0.00149295
-0.00159878
-0.00159756
-0.00149504
-0.00149297
-0.00159876
-0.00163428
-0.00164909
-0.00171994
-0.00173677
-0.00164804
-0.00163477
-0.00173639
-0.00163428
-0.00164914
-0.00171995
-0.0017368
-0.0016481
-0.00163475
-0.00173641
-0.00163394
-0.0017377
-0.00163479
-0.00173737
-0.00163393
-0.00173768
-0.00163475
-0.00173738
-0.0014958
-0.0015993
-0.00149611
-0.00159936
-0.00163213
-0.00173794
-0.00173784
-0.00163456
-0.00163472
-0.00173795
-0.00163496
-0.0017379
-0.00163508
-0.00177515
-0.00188394
-0.00177512
-0.00188404
-0.00177548
-0.00177543
-0.00188343
-0.00188384
-0.00188393
-0.00203508
-0.0019229
-0.00203517
-0.00192291
-0.00192246
-0.00203485
-0.00203496
-0.00192309
-0.00192305
-0.00188362
-0.00177501
-0.00177495
-0.00188368
-0.00188268
-0.00177625
-0.00179241
-0.00186622
-0.00177632
-0.00188303
-0.00186625
-0.00188265
-0.00177623
-0.00179238
-0.00186621
-0.0017763
-0.00188299
-0.00186625
-0.00192284
-0.0020349
-0.0019228
-0.0020347
-0.00192286
-0.00203488
-0.0019228
-0.00203468
-0.00192418
-0.00194123
-0.00203408
-0.0020171
-0.001924
-0.0019413
-0.00203363
-0.00192419
-0.00194129
-0.00203405
-0.00201712
-0.00192402
-0.00194133
-0.00203362
-0.0017755
-0.00177538
-0.00188343
-0.00188376
-0.00188405
-0.00177512
-0.00188409
-0.00203507
-0.00192289
-0.00192249
-0.00203487
-0.00203495
-0.00192313
-0.00192307
-0.0020352
-0.00192295
-0.00188291
-0.00177613
-0.0017924
-0.00186622
-0.00177613
-0.00188321
-0.00186626
-0.00188389
-0.00177496
-0.00177482
-0.00188386
-0.00188293
-0.00179239
-0.0017761
-0.0018662
-0.00177613
-0.00186627
-0.00188318
-0.00192274
-0.00203505
-0.00192279
-0.002035
-0.00192405
-0.00194126
-0.00203423
-0.00201711
-0.00192393
-0.0019413
-0.0020339
-0.00192272
-0.00203509
-0.00192279
-0.00203501
-0.00192406
-0.00194128
-0.00201713
-0.00203426
-0.00194135
-0.00192397
-0.00203389
-0.00188393
-0.00177498
-0.00177482
-0.00188389
-0.00188293
-0.00179242
-0.00177616
-0.00186624
-0.00177618
-0.00186629
-0.00188322
-0.00188393
-0.00177495
-0.00177484
-0.00188386
-0.00192411
-0.00194128
-0.00203423
-0.00201714
-0.00192399
-0.00194132
-0.00203394
-0.00192282
-0.00203509
-0.00192286
-0.00203504
-0.00192412
-0.00194133
-0.00201718
-0.00203431
-0.00194139
-0.00192401
-0.00203398
-0.00192279
-0.00203512
-0.00192283
-0.00203506
-0.00177541
-0.00177549
-0.00188344
-0.00188395
-0.00188385
-0.00177518
-0.00188396
-0.00203521
-0.0019229
-0.00192249
-0.00203501
-0.00203485
-0.00192307
-0.00192314
-0.00203507
-0.00192294
-0.0018827
-0.00179239
-0.00177625
-0.00186627
-0.00177636
-0.00186626
-0.00188303
-0.00188366
-0.00177503
-0.001775
-0.00188373
-0.00188365
-0.00177505
-0.00177499
-0.00188373
-0.00192426
-0.00194129
-0.00201711
-0.00203407
-0.00194129
-0.00192409
-0.00203363
-0.00192425
-0.00194136
-0.00201713
-0.0020341
-0.00194134
-0.00192405
-0.00203366
-0.0019229
-0.00203493
-0.00192286
-0.00203471
-0.0019229
-0.00203494
-0.00192284
-0.00203473
-0.00177509
-0.00188404
-0.00177514
-0.00188395
-0.00192253
-0.00203499
-0.00203483
-0.00192309
-0.00192314
-0.00203522
-0.00192294
-0.00203509
-0.00192293
-0.00207452
-0.00218693
-0.00207451
-0.00218703
-0.00207456
-0.00207453
-0.00218706
-0.00218667
-0.00218676
-0.00233676
-0.00222609
-0.00233685
-0.00222609
-0.00222645
-0.00233656
-0.00233665
-0.00222614
-0.0022261
-0.00218656
-0.00207442
-0.00207437
-0.00218676
-0.00218547
-0.0020755
-0.00209304
-0.00216939
-0.00207551
-0.00218602
-0.00216899
-0.00218546
-0.00207552
-0.00209304
-0.00216943
-0.00207549
-0.00218596
-0.002169
-0.00222591
-0.00233668
-0.00222607
-0.00233645
-0.00222593
-0.00233666
-0.00222606
-0.00233643
-0.00222707
-0.0022449
-0.00233588
-0.00231919
-0.00222706
-0.00224445
-0.00233543
-0.00222708
-0.00224497
-0.00233584
-0.00231919
-0.00222708
-0.00224448
-0.00233543
-0.00207461
-0.00207454
-0.00218709
-0.00218664
-0.00218681
-0.00207453
-0.00218707
-0.00233673
-0.00222608
-0.00222647
-0.00233652
-0.00233668
-0.00222615
-0.00222616
-0.0023369
-0.00222613
-0.00218577
-0.00207543
-0.00209308
-0.00216942
-0.00207539
-0.00218619
-0.00216904
-0.00218688
-0.00207445
-0.0020743
-0.00218697
-0.00218578
-0.00209308
-0.00207547
-0.00216943
-0.00207539
-0.00216904
-0.00218615
-0.00222585
-0.00233682
-0.00222607
-0.00233675
-0.00222696
-0.00224493
-0.00233607
-0.00231921
-0.00222701
-0.00224447
-0.00233573
-0.00222586
-0.00233689
-0.00222608
-0.00233676
-0.00222697
-0.00224497
-0.00231923
-0.0023361
-0.0022445
-0.00222701
-0.0023357
-0.00218695
-0.00207443
-0.00207433
-0.00218699
-0.00218582
-0.00209313
-0.00207552
-0.00216945
-0.00207547
-0.00216906
-0.00218619
-0.00218695
-0.00207448
-0.00207436
-0.00218701
-0.00222704
-0.00224493
-0.00233607
-0.00231922
-0.00222709
-0.00224447
-0.00233572
-0.00222593
-0.00233689
-0.00222613
-0.00233676
-0.00222703
-0.00224499
-0.00231925
-0.0023361
-0.00224452
-0.00222707
-0.00233576
-0.00222591
-0.00233691
-0.00222613
-0.00233679
-0.00207456
-0.00207458
-0.00218709
-0.00218677
-0.00218667
-0.00207452
-0.00218695
-0.0023369
-0.00222611
-0.00222649
-0.00233669
-0.00233658
-0.00222611
-0.00222617
-0.00233681
-0.00222613
-0.00218552
-0.00209306
-0.00207556
-0.00216945
-0.00207557
-0.00216899
-0.00218601
-0.00218661
-0.00207444
-0.00207442
-0.00218682
-0.0021866
-0.00207446
-0.00207443
-0.00218684
-0.00222714
-0.00224491
-0.00231917
-0.00233588
-0.00224442
-0.00222714
-0.00233544
-0.00222715
-0.00224499
-0.00231918
-0.00233592
-0.00224446
-0.00222712
-0.00233544
-0.00222601
-0.00233673
-0.00222613
-0.00233648
-0.00222599
-0.00233674
-0.00222612
-0.0023365
-0.00207456
-0.0021871
-0.0020745
-0.00218697
-0.00222653
-0.0023367
-0.00233655
-0.00222615
-0.00222616
-0.0023369
-0.00222614
-0.00233678
-0.00222612
-0.00237505
-0.00248308
-0.00237502
-0.00248317
-0.00237513
-0.00237509
-0.00248374
-0.00248286
-0.00248298
-0.00262584
-0.00252051
-0.0026259
-0.00252046
-0.0025211
-0.0026257
-0.00262579
-0.00252059
-0.00252055
-0.00248287
-0.00237506
-0.00237499
-0.00248296
-0.00248185
-0.00237606
-0.00239291
-0.00246636
-0.00237602
-0.00248224
-0.00246584
-0.00248185
-0.00237606
-0.00239288
-0.00246635
-0.00237602
-0.00248218
-0.00246583
-0.0025205
-0.00262582
-0.00252054
-0.00262574
-0.0025205
-0.00262583
-0.00252052
-0.00262574
-0.00252156
-0.00253826
-0.00262504
-0.00260899
-0.00252145
-0.00253783
-0.00262474
-0.00252157
-0.00253831
-0.00262501
-0.00260897
-0.0025215
-0.00253785
-0.00262473
-0.00237514
-0.00237507
-0.00248375
-0.00248277
-0.00248306
-0.00237506
-0.00248319
-0.00262583
-0.00252046
-0.00252112
-0.00262572
-0.00262575
-0.00252062
-0.00252053
-0.00262587
-0.00252047
-0.00248211
-0.002376
-0.00239292
-0.00246632
-0.00237588
-0.00248241
-0.00246583
-0.00248314
-0.00237508
-0.00237488
-0.00248317
-0.00248213
-0.00239292
-0.002376
-0.00246633
-0.00237587
-0.00246585
-0.00248241
-0.00252032
-0.00262591
-0.00252048
-0.00262596
-0.00252138
-0.00253823
-0.00262517
-0.00260896
-0.00252138
-0.00253782
-0.00262494
-0.00252032
-0.00262593
-0.00252052
-0.00262596
-0.00252141
-0.00253824
-0.00260897
-0.00262516
-0.00253786
-0.00252138
-0.00262495
-0.00248313
-0.00237506
-0.00237491
-0.00248315
-0.00248212
-0.00239291
-0.00237602
-0.00246631
-0.00237592
-0.00246581
-0.00248241
-0.00248315
-0.0023751
-0.00237494
-0.00248316
-0.00252141
-0.0025382
-0.00262512
-0.00260892
-0.00252137
-0.00253776
-0.00262494
-0.00252036
-0.00262589
-0.00252051
-0.00262591
-0.0025214
-0.00253824
-0.00260893
-0.00262516
-0.00253781
-0.00252138
-0.00262495
-0.00252037
-0.00262591
-0.00252051
-0.00262592
-0.00237513
-0.00237516
-0.00248372
-0.00248301
-0.0024829
-0.0023751
-0.0024831
-0.0026259
-0.00252049
-0.00252109
-0.00262577
-0.00262568
-0.00252057
-0.00252064
-0.00262582
-0.00252053
-0.00248183
-0.00239288
-0.00237611
-0.00246632
-0.00237606
-0.0024658
-0.00248224
-0.00248289
-0.00237511
-0.00237506
-0.00248303
-0.00248289
-0.00237512
-0.00237505
-0.00248303
-0.00252159
-0.00253818
-0.00260892
-0.00262499
-0.00253775
-0.00252151
-0.0026247
-0.00252157
-0.00253827
-0.00260892
-0.00262499
-0.00253781
-0.00252147
-0.00262469
-0.00252052
-0.0026258
-0.00252059
-0.00262568
-0.00252052
-0.00262579
-0.00252056
-0.0026257
-0.00237508
-0.00248318
-0.00237508
-0.00248308
-0.00252112
-0.00262573
-0.00262562
-0.00252053
-0.00252059
-0.00262588
-0.00252047
-0.0026258
-0.0025205
-0.00266242
-0.00276577
-0.00266237
-0.00276582
-0.00266252
-0.00266244
-0.0027661
-0.00276558
-0.00276566
-0.00290365
-0.00280182
-0.00290369
-0.00280175
-0.00280196
-0.00290351
-0.00290357
-0.00280191
-0.00280185
-0.00276565
-0.00266248
-0.00266256
-0.00276572
-0.00276465
-0.00266339
-0.00267918
-0.00274923
-0.0026635
-0.00276494
-0.00274896
-0.00276465
-0.0026634
-0.00267913
-0.00274923
-0.0026635
-0.00276494
-0.00274895
-0.00280185
-0.00290363
-0.00280187
-0.00290354
-0.00280186
-0.00290363
-0.00280189
-0.00290355
-0.0028029
-0.00281843
-0.0029028
-0.00288713
-0.00280272
-0.00281824
-0.00290254
-0.00280291
-0.00281845
-0.0029028
-0.00288714
-0.00280277
-0.00281827
-0.00290254
-0.00266254
-0.00266241
-0.00276608
-0.00276559
-0.00276566
-0.00266233
-0.00276581
-0.00290365
-0.00280183
-0.00280195
-0.00290351
-0.00290357
-0.00280196
-0.00280184
-0.0029037
-0.00280173
-0.00276485
-0.00266326
-0.00267915
-0.00274922
-0.00266328
-0.00276504
-0.00274892
-0.00276586
-0.00266238
-0.00266235
-0.00276578
-0.00276485
-0.00267913
-0.00266322
-0.00274918
-0.00266328
-0.00274894
-0.00276504
-0.00280165
-0.00290368
-0.00280177
-0.00290372
-0.00280266
-0.0028184
-0.00290289
-0.0028871
-0.00280258
-0.0028182
-0.00290272
-0.00280164
-0.0029037
-0.00280176
-0.00290373
-0.00280267
-0.0028184
-0.0028871
-0.00290289
-0.00281824
-0.00280257
-0.00290273
-0.00276582
-0.00266235
-0.00266233
-0.00276578
-0.00276483
-0.0026791
-0.00266322
-0.00274914
-0.0026633
-0.0027489
-0.00276499
-0.00276583
-0.00266235
-0.00266234
-0.00276576
-0.00280267
-0.00281837
-0.00290288
-0.00288705
-0.0028026
-0.00281814
-0.00290272
-0.00280162
-0.00290371
-0.00280177
-0.00290369
-0.00280265
-0.00281839
-0.00288708
-0.00290288
-0.0028182