/*--------------------------------*- C++ -*----------------------------------*\
| =========                 |                                                 |
| \\      /  F ield         | OpenFOAM: The Open Source CFD Toolbox           |
|  \\    /   O peration     | Version:  2206                                  |
|   \\  /    A nd           | Website:  www.openfoam.com                      |
|    \\/     M anipulation  |                                                 |
\*---------------------------------------------------------------------------*/
FoamFile
{
    version     2.0;
    format      ascii;
    arch        "LSB;label=32;scalar=64";
    class       volVectorField;
    location    "30";
    object      U;
}
// * * * * * * * * * * * * * * * * * * * * * * * * * * * * * * * * * * * * * //

dimensions      [0 1 -1 0 0 0 0];

internalField   nonuniform List<vector> 
66616
(
(0.000661164 0.000659459 0.116321)
(-0.00117647 0.00063399 0.11462)
(0.000632582 -0.00117744 0.11462)
(-0.00152476 -0.00153665 0.113415)
(0.000481625 0.000471692 0.120704)
(-0.000859893 0.000461213 0.119608)
(0.000458938 -0.000859751 0.119655)
(-0.00110316 -0.00111919 0.118335)
(0.000166115 0.000163605 0.122599)
(-0.000353746 0.000218136 0.1214)
(0.000214351 -0.000356769 0.12145)
(-0.000556297 -0.000567033 0.119786)
(0.000142076 0.000142012 0.123491)
(-0.000257681 0.000162004 0.122017)
(0.000158054 -0.000261244 0.122067)
(-0.00047383 -0.000482771 0.119886)
(0.000176653 0.000177656 0.124534)
(-0.000312243 0.000198557 0.122663)
(0.00019344 -0.000319986 0.122713)
(-0.000466601 -0.000478943 0.120019)
(0.000122352 0.000123992 0.125451)
(-0.000224365 0.000145445 0.123023)
(0.000142024 -0.000233261 0.123074)
(-0.00034528 -0.000354197 0.119941)
(5.91025e-05 6.05186e-05 0.125911)
(-9.56836e-05 6.09627e-05 0.123051)
(6.15666e-05 -0.000101865 0.123096)
(-0.000252583 -0.000257059 0.119797)
(2.42261e-05 2.45287e-05 0.126057)
(-2.82349e-05 1.67831e-05 0.122995)
(1.9264e-05 -3.20081e-05 0.123029)
(-0.000219732 -0.000222933 0.119721)
(9.82299e-06 8.57777e-06 0.126091)
(-5.97231e-06 2.13436e-06 0.122964)
(6.29181e-06 -9.18816e-06 0.122987)
(-0.000212969 -0.000215518 0.119692)
(5.06506e-06 1.35224e-06 0.126101)
(-1.95842e-07 -1.74404e-06 0.122962)
(2.8734e-06 -2.59056e-06 0.122971)
(-0.000211096 -0.000213675 0.11968)
(5.06936e-06 -1.35949e-06 0.126107)
(1.42445e-06 -4.17121e-06 0.122979)
(2.09703e-06 -1.17743e-06 0.122964)
(-0.000210342 -0.000212673 0.119669)
(4.70222e-06 -2.37581e-06 0.126112)
(-7.9591e-08 -3.2741e-06 0.123017)
(3.26665e-06 -7.93113e-07 0.12296)
(-0.000210791 -0.00021191 0.119649)
(0.000474065 0.000475025 0.112968)
(0.000699484 0.000665371 0.113928)
(-0.000699673 0.000665537 0.113927)
(-0.000474105 0.000475217 0.112968)
(0.000669779 0.000703465 0.113918)
(0.000665523 -0.000699344 0.113929)
(0.000447477 0.000448225 0.115415)
(-0.000447521 0.000448464 0.115412)
(0.000448617 -0.000448588 0.115413)
(-0.000448524 -0.000448834 0.115415)
(-0.000669578 0.000703517 0.113919)
(-0.000665194 -0.000699525 0.113928)
(0.000475808 -0.000473642 0.112969)
(0.000704356 -0.000669895 0.113917)
(-0.00070454 -0.000669967 0.113918)
(-0.000475742 -0.000473744 0.112964)
(0.00153543 0.00152658 0.113419)
(0.000590461 0.000580625 0.117909)
(0.000641016 0.00117965 0.114615)
(-0.00064058 0.00117974 0.114616)
(0.000561242 0.0010451 0.118787)
(-0.000560384 0.00104502 0.118787)
(-0.00153509 0.0015261 0.113418)
(-0.000590727 0.000581117 0.117909)
(0.00117661 0.000633291 0.11462)
(0.00117925 -0.000642015 0.114614)
(0.00105245 0.000552586 0.118742)
(0.00105054 -0.000560928 0.118742)
(-0.00117862 -0.000642316 0.114612)
(-0.00105276 0.000553066 0.118742)
(-0.00105028 -0.000561415 0.11874)
(0.00152496 -0.00153715 0.113419)
(0.000582664 -0.000588728 0.11791)
(-0.000631878 -0.00117744 0.114621)
(0.000551753 -0.00104873 0.118787)
(-0.000551231 -0.00104886 0.118788)
(-0.000582264 -0.000588242 0.117907)
(0.0011116 0.00111163 0.118337)
(0.000146185 0.000144466 0.119697)
(0.000466883 0.000856045 0.119654)
(-0.000466379 0.000855779 0.119654)
(0.000261733 0.000442851 0.121183)
(-0.000261962 0.000442984 0.121183)
(-0.00110941 0.00111168 0.118336)
(-0.000143989 0.000144813 0.119695)
(0.000860478 0.00046073 0.119609)
(0.000857773 -0.000467607 0.119609)
(0.000442946 0.000260512 0.121136)
(0.000441379 -0.000264297 0.121136)
(-0.000857494 -0.00046787 0.119607)
(-0.000442709 0.00026013 0.121134)
(-0.000441179 -0.000264514 0.121133)
(0.00110451 -0.001118 0.118338)
(0.000143271 -0.000146045 0.119696)
(-0.000458284 -0.000859872 0.119656)
(0.000256605 -0.000445877 0.121183)
(-0.000256905 -0.000446035 0.121184)
(-0.000142134 -0.000146749 0.119693)
(0.000559959 0.000563509 0.119789)
(1.33291e-05 1.19604e-05 0.119848)
(0.000218934 0.000354751 0.12145)
(-0.000219071 0.000354893 0.12145)
(0.000157265 0.00024858 0.121924)
(-0.000158284 0.000249352 0.121924)
(-0.000557901 0.000565 0.119786)
(-1.32274e-05 1.16588e-05 0.119845)
(0.000354415 0.00021826 0.121402)
(0.000353318 -0.000221604 0.121403)
(0.000247272 0.000157858 0.121874)
(0.000246929 -0.000160284 0.121877)
(-0.000352791 -0.000220909 0.121401)
(-0.000247624 0.000157043 0.121872)
(-0.000247103 -0.000160349 0.121875)
(0.000557865 -0.000565479 0.119788)
(1.11229e-05 -1.26519e-05 0.119846)
(-0.000214193 -0.000357294 0.121451)
(0.000153191 -0.000250556 0.121922)
(-0.000154708 -0.000250877 0.121923)
(-1.18843e-05 -1.27412e-05 0.119843)
(0.000475499 0.000479712 0.119889)
(1.88089e-05 2.05907e-05 0.119988)
(0.000161449 0.000260394 0.122068)
(-0.00016234 0.000261071 0.122068)
(0.000191779 0.000314618 0.122563)
(-0.000192044 0.000316058 0.122562)
(-0.000475807 0.000480887 0.119886)
(-1.80162e-05 2.10949e-05 0.119987)
(0.000257748 0.000162358 0.122018)
(0.000257603 -0.000164792 0.122022)
(0.000308131 0.000193566 0.12251)
(0.000309218 -0.000196089 0.122519)
(-0.000257464 -0.000164352 0.12202)
(-0.000308024 0.00019346 0.122511)
(-0.000308279 -0.000196371 0.122519)
(0.000474093 -0.000481874 0.119888)
(1.68166e-05 -2.17803e-05 0.119985)
(-0.000158236 -0.00026198 0.122068)
(0.00018871 -0.000314752 0.122561)
(-0.000188588 -0.000315188 0.122561)
(-1.63481e-05 -2.13211e-05 0.119984)
(0.000469254 0.0004768 0.12002)
(-7.9801e-05 -7.80576e-05 0.119939)
(0.000196473 0.00032178 0.122715)
(-0.000196059 0.000322918 0.122714)
(0.000164786 0.000268819 0.123024)
(-0.000163359 0.000269728 0.123028)
(-0.00046854 0.000478003 0.12002)
(8.0504e-05 -7.97693e-05 0.119938)
(0.000313142 0.000198177 0.122662)
(0.000315107 -0.000200708 0.122671)
(0.000257851 0.000165353 0.12297)
(0.000260736 -0.000166461 0.122983)
(-0.000313443 -0.000200335 0.122673)
(-0.000257495 0.000165853 0.122972)
(-0.000259367 -0.000167486 0.122987)
(0.000467958 -0.000478763 0.120019)
(-8.16005e-05 7.84838e-05 0.119938)
(-0.000191976 -0.000321065 0.122713)
(0.000161667 -0.000266151 0.123024)
(-0.00016032 -0.00026679 0.123024)
(8.16699e-05 7.88806e-05 0.119938)
(0.000347662 0.000354089 0.119938)
(-0.000169917 -0.000171042 0.119792)
(0.000144498 0.000235936 0.123075)
(-0.000143307 0.000237178 0.123081)
(8.02122e-05 0.000132098 0.12311)
(-8.01383e-05 0.000133261 0.123121)
(-0.000348297 0.000354231 0.119938)
(0.000170344 -0.000172612 0.119796)
(0.000225646 0.000144675 0.123021)
(0.000228012 -0.000145545 0.123035)
(0.000123974 7.9621e-05 0.123054)
(0.000125454 -7.99772e-05 0.123069)
(-0.000227108 -0.000146137 0.12304)
(-0.000123299 7.89779e-05 0.123055)
(-0.000125576 -8.03713e-05 0.123074)
(0.000346054 -0.000353964 0.119938)
(-0.000170541 0.000170949 0.119792)
(-0.000139839 -0.000233762 0.123076)
(7.85544e-05 -0.000130554 0.123106)
(-7.71763e-05 -0.000129883 0.12311)
(0.000171144 0.000173075 0.119795)
(0.000254139 0.000257365 0.119792)
(-0.000205822 -0.000208639 0.119708)
(6.3005e-05 0.000103915 0.123103)
(-6.26563e-05 0.00010494 0.123116)
(2.73406e-05 4.48037e-05 0.12305)
(-2.78375e-05 4.60534e-05 0.123067)
(-0.000255223 0.000258568 0.119796)
(0.000206163 -0.000209971 0.119714)
(9.67245e-05 6.13159e-05 0.12305)
(9.81318e-05 -6.20194e-05 0.123064)
(4.00603e-05 2.5976e-05 0.122995)
(4.12501e-05 -2.73425e-05 0.123006)
(-9.77435e-05 -6.15477e-05 0.123069)
(-3.96735e-05 2.52329e-05 0.122996)
(-4.09095e-05 -2.68287e-05 0.123011)
(0.000252664 -0.000257088 0.119793)
(-0.000205798 0.000207943 0.119707)
(-5.95452e-05 -0.000101197 0.123104)
(2.58031e-05 -4.44375e-05 0.123039)
(-2.57176e-05 -4.39216e-05 0.12305)
(0.000206458 0.000209699 0.119711)
(0.000220476 0.000222117 0.119716)
(-0.00021443 -0.000217726 0.119678)
(2.04225e-05 3.30533e-05 0.12304)
(-2.04183e-05 3.38679e-05 0.123059)
(9.56731e-06 1.37689e-05 0.122999)
(-9.19266e-06 1.42177e-05 0.123018)
(-0.000220397 0.000222449 0.119721)
(0.000215471 -0.000218394 0.119683)
(2.9037e-05 1.73993e-05 0.122995)
(3.00703e-05 -1.87824e-05 0.123004)
(1.05941e-05 8.46511e-06 0.122943)
(1.13388e-05 -9.47835e-06 0.122952)
(-2.94195e-05 -1.81551e-05 0.123011)
(-9.97988e-06 6.98892e-06 0.122944)
(-1.13512e-05 -9.66041e-06 0.122957)
(0.000219272 -0.000222011 0.119715)
(-0.000214167 0.000217117 0.119676)
(-1.86121e-05 -3.22139e-05 0.123041)
(8.18467e-06 -1.35444e-05 0.122986)
(-8.58601e-06 -1.36944e-05 0.122999)
(0.000214273 0.000218469 0.119679)
(0.000213414 0.000214785 0.11969)
(-0.000216611 -0.000219671 0.119667)
(7.13308e-06 9.74754e-06 0.123)
(-7.01718e-06 9.94799e-06 0.12302)
(5.03009e-06 5.3715e-06 0.122976)
(-5.32198e-06 5.6184e-06 0.122992)
(-0.000211446 0.000214477 0.119695)
(0.000216516 -0.000220306 0.11967)
(7.14104e-06 3.49536e-06 0.122965)
(7.41427e-06 -4.29798e-06 0.122972)
(2.85296e-06 4.95065e-06 0.122913)
(3.73555e-06 -6.26219e-06 0.12292)
(-7.48174e-06 -3.91646e-06 0.122979)
(-2.61129e-06 4.41149e-06 0.122912)
(-3.81023e-06 -6.09327e-06 0.122924)
(0.000211776 -0.000214144 0.119689)
(-0.000215715 0.000218773 0.119664)
(-6.13986e-06 -9.49695e-06 0.123001)
(3.87469e-06 -5.14795e-06 0.122964)
(-4.83604e-06 -5.61699e-06 0.122974)
(0.0002155 0.000220187 0.119667)
(0.000211367 0.000213183 0.11968)
(-0.000216227 -0.000219536 0.119663)
(3.79033e-06 3.82001e-06 0.122984)
(-4.4263e-06 3.71345e-06 0.123001)
(3.69248e-06 3.50208e-06 0.122968)
(-4.27109e-06 4.19015e-06 0.122978)
(-0.000210768 0.000212981 0.119682)
(0.000216313 -0.000219335 0.119664)
(7.68805e-07 -1.3162e-06 0.122963)
(2.01205e-06 2.08787e-09 0.12297)
(9.92261e-07 5.45604e-06 0.122887)
(2.21563e-06 -6.03112e-06 0.122892)
(-1.41138e-06 8.6719e-07 0.122979)
(-7.35753e-07 4.97547e-06 0.122881)
(-2.29516e-06 -5.77028e-06 0.122895)
(0.000210372 -0.000212387 0.119676)
(-0.000215239 0.000219354 0.119658)
(-3.29366e-06 -3.44534e-06 0.122983)
(3.14879e-06 -2.97429e-06 0.122956)
(-3.75942e-06 -3.0835e-06 0.122962)
(0.000215925 0.000220982 0.11966)
(0.000210421 0.000212915 0.11967)
(-0.000214552 -0.000218434 0.119677)
(2.3297e-06 2.50991e-06 0.122979)
(-3.24092e-06 3.14036e-06 0.122991)
(4.42141e-06 2.78686e-06 0.122971)
(-4.63415e-06 3.59966e-06 0.122974)
(-0.000209437 0.000213217 0.119671)
(0.000214607 -0.000219609 0.119673)
(-1.18976e-07 -3.27789e-06 0.122981)
(6.7774e-07 2.97365e-06 0.122985)
(8.75432e-07 5.45101e-06 0.122852)
(1.86744e-06 -5.56256e-06 0.122855)
(-1.61619e-07 4.11599e-06 0.122997)
(-7.55079e-07 4.99406e-06 0.122842)
(-2.43979e-06 -5.65626e-06 0.122856)
(0.000209413 -0.000210957 0.119665)
(-0.000213882 0.000217796 0.11967)
(-1.5735e-06 -1.53619e-06 0.122977)
(3.02191e-06 -1.83762e-06 0.122955)
(-4.53046e-06 -2.10097e-06 0.122961)
(0.000214016 0.000220362 0.119669)
(0.000209533 0.000211327 0.11965)
(2.91969e-06 2.38002e-06 0.122979)
(-3.60485e-06 2.789e-06 0.122988)
(-0.000209783 0.000212305 0.119652)
(1.0871e-06 -3.41603e-06 0.123018)
(1.95193e-06 3.24162e-06 0.12302)
(-1.10935e-06 4.16603e-06 0.123037)
(0.000208009 -0.000209289 0.119645)
(-2.2618e-06 -1.19151e-06 0.122978)
(8.42444e-06 8.24399e-06 0.11692)
(0.000188175 0.000188647 0.114053)
(1.07713e-05 0.000167298 0.115566)
(0.000168664 1.12724e-05 0.115564)
(-0.000336079 3.25073e-05 0.109478)
(-0.000171298 0.000203066 0.113155)
(-0.000460879 0.000284052 0.100953)
(-0.000185809 9.68011e-06 0.114866)
(3.24549e-05 -0.000336324 0.109472)
(0.000203123 -0.000171419 0.113153)
(9.4487e-06 -0.000185187 0.114865)
(0.000283943 -0.000461747 0.100954)
(-0.000155312 -0.000155018 0.111992)
(-0.000526936 -0.000510988 0.0966248)
(-0.000510635 -0.000526834 0.0966331)
(0.000139819 0.0023134 0.111696)
(0.00133357 0.000606333 0.0871097)
(0.00020888 0.00217552 0.108676)
(0.000208102 0.00167011 0.0967572)
(-0.000640646 0.00114624 0.0877357)
(0.000390373 0.00146196 0.0892576)
(0.00231142 0.000140548 0.111653)
(0.000606625 0.00133199 0.0871342)
(0.00217585 0.00020781 0.108707)
(0.00166964 0.000210446 0.0967267)
(-0.000661234 0.000659685 0.116318)
(0.000659887 -0.000659918 0.116319)
(-0.000659872 -0.000660131 0.116321)
(0.000595679 0.000583667 0.119857)
(-0.000595892 0.000584269 0.119855)
(0.000586103 -0.000593647 0.119856)
(-0.000585976 -0.000593686 0.119858)
(-0.00198575 0.000102908 0.114385)
(-0.00222802 0.0011451 0.108074)
(-0.00112776 0.000244825 0.115666)
(-0.00126152 0.000636363 0.116169)
(-0.00184413 0.00016789 0.111489)
(-0.0021805 0.00055884 0.112005)
(-0.00122565 0.00029473 0.117062)
(0.00114499 -0.000639979 0.087763)
(0.00146133 0.000387043 0.0892421)
(0.000103072 -0.00198595 0.114395)
(0.000243481 -0.0011265 0.11566)
(0.00114477 -0.00222795 0.108063)
(0.000636513 -0.00126147 0.116165)
(0.000168033 -0.00184535 0.111472)
(0.000295858 -0.0012272 0.117065)
(0.000558893 -0.00218343 0.112033)
(-0.00206132 -0.00118158 0.103113)
(-0.00118306 -0.00206242 0.103124)
(-0.000641345 -0.00065079 0.115577)
(-0.00192787 -0.000464722 0.106271)
(-0.000462838 -0.0019351 0.10629)
(5.91423e-06 0.000832379 0.113372)
(0.000265676 0.00101302 0.0954658)
(2.46155e-05 0.00156411 0.113383)
(0.000178798 0.000478063 0.0944648)
(-0.000169328 0.000830203 0.0845952)
(-0.000183262 0.000375139 0.0830032)
(0.000831874 8.17952e-06 0.112972)
(0.00100564 0.000259327 0.0952908)
(0.00156657 2.50955e-05 0.113205)
(0.000468135 0.000177054 0.0941744)
(-0.000481505 0.000472125 0.120704)
(0.000474015 -0.000478892 0.120704)
(-0.000473707 -0.000479206 0.120706)
(0.000219497 0.000216011 0.122285)
(-0.000219386 0.000216298 0.122284)
(0.000214674 -0.000218775 0.122285)
(-0.00021484 -0.000218808 0.122287)
(-0.000704842 1.87998e-05 0.117636)
(-0.00132626 0.000457277 0.113283)
(-0.000817043 0.000188827 0.120347)
(-0.000693832 0.000379882 0.120262)
(-0.00130426 3.78659e-05 0.117144)
(-0.000731103 0.000210963 0.113128)
(-0.000650117 0.000150503 0.120992)
(0.00082222 -0.000167379 0.0844938)
(0.00036856 -0.000184459 0.0828467)
(1.83091e-05 -0.000702744 0.117826)
(0.000189717 -0.000810679 0.120427)
(0.000454638 -0.00132717 0.113454)
(0.000376884 -0.000695515 0.120309)
(3.75673e-05 -0.00129583 0.11723)
(0.000152578 -0.000647322 0.121071)
(0.000205681 -0.000737479 0.113395)
(-0.00122479 -0.000550064 0.107174)
(-0.000548558 -0.00122764 0.107303)
(-0.000339018 -0.00034626 0.119143)
(-0.000706958 -0.000349434 0.106697)
(-0.00034286 -0.000713312 0.106901)
(-2.82196e-05 2.24096e-05 0.112604)
(0.000151818 9.22735e-05 0.0933757)
(-1.54827e-05 0.000340593 0.113011)
(7.40766e-05 -0.000165866 0.0934937)
(-0.000216455 2.29913e-05 0.0815507)
(-0.000129468 -0.000117596 0.0815623)
(2.97868e-05 -2.77219e-05 0.11217)
(9.01979e-05 0.000152628 0.0931108)
(0.000347054 -1.48363e-05 0.11271)
(-0.00016312 7.89033e-05 0.0931406)
(-0.000165873 0.000163854 0.122598)
(0.000161751 -0.000165512 0.1226)
(-0.00016194 -0.00016562 0.122601)
(0.000127045 0.000126343 0.123271)
(-0.00012796 0.000126639 0.123271)
(0.000123741 -0.000128658 0.123273)
(-0.000124513 -0.000128412 0.123273)
(-7.71276e-05 -1.52282e-05 0.117543)
(-0.000268918 0.000178155 0.112957)
(-0.000317895 7.23659e-05 0.122126)
(-0.000290323 0.000184127 0.121591)
(-0.000331689 -4.06284e-06 0.117913)
(1.9772e-05 6.14337e-05 0.112632)
(-0.000262495 5.63464e-05 0.122323)
(2.14409e-05 -0.000215773 0.0814361)
(-0.000114782 -0.000129834 0.0813852)
(-1.54112e-05 -7.26891e-05 0.117747)
(7.59545e-05 -0.000318228 0.122207)
(0.000172296 -0.000264698 0.113147)
(0.000180363 -0.000293033 0.121641)
(-4.40319e-06 -0.000324483 0.118025)
(5.98019e-05 -0.000263083 0.122404)
(5.60756e-05 1.93982e-05 0.112911)
(-0.000210843 -0.00032027 0.106062)
(-0.000315759 -0.000206907 0.106233)
(-3.01575e-05 -3.14857e-05 0.119822)
(3.7372e-06 -0.000177598 0.105596)
(-0.000172102 6.85835e-06 0.105835)
(-1.42172e-05 4.26778e-05 0.111313)
(1.25993e-05 -7.62861e-06 0.0935522)
(-2.05803e-05 0.000151323 0.111769)
(-2.80486e-05 -3.38452e-05 0.0935371)
(-2.91286e-05 7.64803e-07 0.0814371)
(2.66321e-05 1.02582e-05 0.0814006)
(4.80442e-05 -1.32548e-05 0.11088)
(-4.6602e-06 1.36854e-05 0.0932574)
(0.000158582 -2.10337e-05 0.11146)
(-3.23261e-05 -2.12408e-05 0.0931655)
(-0.000142689 0.000142214 0.123493)
(0.000139001 -0.000143826 0.123494)
(-0.000139378 -0.000143897 0.123494)
(0.000177652 0.000178366 0.124261)
(-0.000177843 0.000178754 0.124262)
(0.000174818 -0.000180507 0.124263)
(-0.000174249 -0.000180456 0.124264)
(-0.000139999 -6.72478e-06 0.116531)
(-0.000106925 9.87447e-05 0.112229)
(-0.000256767 4.70497e-05 0.12279)
(-0.000275528 0.000171522 0.122179)
(-0.000230702 -1.21573e-05 0.117009)
(-6.88065e-05 8.93959e-06 0.111829)
(-0.000281873 4.99999e-05 0.122969)
(3.52577e-07 -3.07449e-05 0.0813019)
(9.31311e-06 1.9651e-05 0.0812087)
(-6.56026e-06 -0.000137608 0.11674)
(4.80657e-05 -0.000257828 0.122873)
(9.58929e-05 -0.000102931 0.112417)
(0.000167038 -0.000279895 0.122229)
(-1.17827e-05 -0.000224736 0.11712)
(5.04326e-05 -0.000283878 0.123052)
(3.1311e-06 -7.17351e-05 0.112098)
(-5.79866e-05 -0.000115736 0.105015)
(-0.000113367 -5.34889e-05 0.105197)
(-2.52491e-05 -2.85813e-05 0.119919)
(-5.71392e-05 -1.59431e-05 0.104624)
(-8.67058e-06 -5.96404e-05 0.104862)
(-4.99057e-06 4.05232e-05 0.110386)
(-1.0049e-05 0.0001228 0.0930574)
(-5.91826e-06 0.000190394 0.110686)
(-2.41142e-05 2.29851e-05 0.0929157)
(2.68338e-07 8.1579e-05 0.08095)
(1.62734e-05 3.36043e-05 0.0808456)
(4.23186e-05 -2.97855e-06 0.109958)
(0.000120841 -4.16365e-06 0.0927542)
(0.000192926 -4.94418e-06 0.110385)
(2.18633e-05 -1.52439e-05 0.0925406)
(-0.00017624 0.000178064 0.124537)
(0.000174037 -0.000179563 0.124538)
(-0.000172722 -0.000179599 0.124538)
(0.000139683 0.000141148 0.12526)
(-0.000138579 0.000140602 0.125262)
(0.00013686 -0.00014267 0.125264)
(-0.000135591 -0.000142668 0.125263)
(-0.000127347 1.65389e-06 0.115764)
(-0.000211572 7.37266e-05 0.111444)
(-0.000333305 5.61802e-05 0.123539)
(-0.000303708 0.000194001 0.122794)
(-0.000272141 8.52413e-07 0.116142)
(-0.00010142 -3.11151e-06 0.111107)
(-0.000327765 5.39356e-05 0.123709)
(7.67375e-05 -6.50897e-06 0.080809)
(3.04006e-05 8.10418e-06 0.0806549)
(1.12332e-06 -0.000128559 0.11595)
(5.55426e-05 -0.000339247 0.123627)
(6.69437e-05 -0.000212703 0.111617)
(0.000188871 -0.000312238 0.122845)
(5.67968e-07 -0.00027172 0.116232)
(5.3118e-05 -0.000334969 0.123797)
(-1.17337e-05 -0.000107252 0.111362)
(-0.000124361 -6.6071e-05 0.104219)
(-5.83912e-05 -0.000127374 0.104394)
(2.61523e-05 2.09706e-05 0.11999)
(-6.91992e-05 -3.9916e-06 0.10392)
(6.37964e-06 -7.60913e-05 0.10415)
(-1.34821e-06 -1.31316e-05 0.109877)
(5.60842e-06 0.000100032 0.092527)
(-1.27234e-06 0.000140378 0.11002)
(-1.0231e-05 -1.07508e-05 0.0925002)
(-1.68514e-05 5.82939e-05 0.0804755)
(5.78114e-06 4.96653e-06 0.0804652)
(-1.36154e-05 3.32738e-07 0.109461)
(9.81087e-05 7.78536e-06 0.0922248)
(0.000139351 -5.47456e-07 0.109732)
(-1.18772e-05 -5.49188e-06 0.0921268)
(-0.000121194 0.000123475 0.125455)
(0.000119997 -0.000125461 0.125457)
(-0.000118544 -0.000125333 0.125457)
(7.16427e-05 7.38459e-05 0.12583)
(-7.11732e-05 7.3539e-05 0.125833)
(7.03093e-05 -7.59372e-05 0.125835)
(-6.92661e-05 -7.51862e-05 0.125833)
(-3.49334e-05 2.69064e-06 0.115317)
(-0.000154093 5.92687e-05 0.110901)
(-0.000249284 4.04499e-05 0.124067)
(-0.000189049 0.000121904 0.123049)
(-0.000188835 2.52079e-06 0.115574)
(-2.80856e-05 -1.72981e-05 0.110686)
(-0.000212959 3.4118e-05 0.124131)
(5.43017e-05 -1.82358e-05 0.0803577)
(4.53255e-06 3.73848e-06 0.0803018)
(9.46113e-07 -3.77512e-05 0.115481)
(4.02122e-05 -0.000258971 0.12416)
(5.58169e-05 -0.000155408 0.111059)
(0.000119666 -0.000197564 0.123102)
(1.94456e-06 -0.000192211 0.115634)
(3.41447e-05 -0.000222754 0.124224)
(-2.15031e-05 -3.29655e-05 0.110929)
(-8.2971e-05 -5.52376e-05 0.10369)
(-5.25775e-05 -8.54701e-05 0.103858)
(0.000134284 0.000134121 0.119867)
(-2.15371e-05 9.65779e-06 0.103508)
(1.35378e-05 -2.56778e-05 0.103732)
(-4.02595e-07 -4.99913e-05 0.109693)
(1.10074e-05 6.66743e-05 0.0922939)
(3.02966e-07 9.2339e-05 0.109739)
(-7.85319e-06 -3.61175e-05 0.0923481)
(-1.74271e-05 3.33155e-05 0.0802535)
(8.0293e-06 -1.37221e-05 0.0803197)
(-4.94963e-05 -3.96484e-07 0.109286)
(6.56846e-05 1.01114e-05 0.0919918)
(9.16522e-05 3.00205e-07 0.109458)
(-3.68633e-05 -5.59203e-06 0.0919757)
(-5.85298e-05 6.04292e-05 0.125916)
(5.83339e-05 -6.23367e-05 0.125917)
(-5.71496e-05 -6.16403e-05 0.125917)
(2.81572e-05 3.13403e-05 0.126026)
(-2.83163e-05 3.13567e-05 0.126029)
(2.80301e-05 -3.35098e-05 0.126028)
(-2.76056e-05 -3.2927e-05 0.126029)
(2.8039e-05 4.00799e-07 0.115144)
(-8.86701e-05 4.45323e-05 0.11066)
(-0.000111386 1.90002e-05 0.124221)
(-7.25356e-05 4.62884e-05 0.123031)
(-0.00010893 1.6076e-06 0.115315)
(2.36492e-05 -2.94991e-05 0.110527)
(-8.55523e-05 1.44345e-05 0.124218)
(3.12205e-05 -1.58053e-05 0.0801575)
(-1.27464e-05 7.27597e-06 0.0801701)
(-1.28356e-07 2.72517e-05 0.115299)
(1.96044e-05 -0.000119962 0.124313)
(4.38934e-05 -8.71002e-05 0.110813)
(4.65522e-05 -7.81296e-05 0.123078)
(9.51384e-07 -0.000110244 0.115362)
(1.51157e-05 -9.40303e-05 0.124309)
(-3.11651e-05 2.09207e-05 0.110766)
(-4.28353e-05 -3.97964e-05 0.103457)
(-4.15986e-05 -4.22639e-05 0.103617)
(0.000193635 0.000196828 0.119746)
(9.23635e-06 2.29246e-05 0.103356)
(2.39906e-05 6.62843e-06 0.103572)
(-1.6895e-07 -6.28644e-05 0.109647)
(1.07854e-05 5.31786e-05 0.0922273)
(7.80336e-07 7.17798e-05 0.109658)
(-8.86879e-06 -4.50955e-05 0.0923106)
(-1.32435e-05 2.36492e-05 0.0801888)
(1.12687e-05 -2.01456e-05 0.0802806)
(-6.07432e-05 -6.97822e-07 0.10924)
(5.25355e-05 7.99645e-06 0.0919262)
(7.28895e-05 -2.52892e-07 0.109381)
(-4.47379e-05 -8.21657e-06 0.0919402)
(-2.3874e-05 2.42669e-05 0.126063)
(2.42012e-05 -2.59774e-05 0.126061)
(-2.37454e-05 -2.5687e-05 0.126063)
(8.27591e-06 1.22642e-05 0.126069)
(-8.01652e-06 1.22025e-05 0.126073)
(8.3261e-06 -1.34825e-05 0.126069)
(-8.07469e-06 -1.3317e-05 0.126071)
(5.12669e-05 -1.10483e-06 0.115097)
(-5.98784e-05 3.64108e-05 0.110591)
(-3.37154e-05 5.90926e-06 0.124219)
(-1.99785e-05 1.29297e-05 0.122968)
(-7.32858e-05 -6.3015e-07 0.115236)
(4.24453e-05 -3.54334e-05 0.110488)
(-2.4368e-05 3.60171e-06 0.124191)
(2.25249e-05 -1.20657e-05 0.0800959)
(-1.84722e-05 1.00407e-05 0.0801309)
(-6.97934e-07 5.12596e-05 0.115252)
(6.55109e-06 -3.98002e-05 0.124299)
(3.80576e-05 -5.82085e-05 0.11074)
(1.40958e-05 -2.41474e-05 0.123009)
(8.00001e-08 -7.35968e-05 0.115279)
(4.23972e-06 -3.0837e-05 0.124279)
(-3.51683e-05 3.92937e-05 0.110724)
(-2.69694e-05 -3.21268e-05 0.103391)
(-3.39234e-05 -2.57756e-05 0.103547)
(0.000212745 0.000216731 0.119692)
(1.89997e-05 2.70133e-05 0.103317)
(2.92086e-05 1.7306e-05 0.103532)
(2.92084e-07 -6.55797e-05 0.109638)
(1.00941e-05 4.90707e-05 0.0922117)
(1.22058e-06 6.69032e-05 0.10964)
(-8.80763e-06 -4.79402e-05 0.0923016)
(-1.20532e-05 2.03934e-05 0.0801857)
(1.2453e-05 -2.21326e-05 0.0802901)
(-6.53639e-05 -1.65927e-08 0.109232)
(4.89082e-05 7.19124e-06 0.0919126)
(6.75551e-05 -6.1321e-09 0.109362)
(-4.68848e-05 -7.43681e-06 0.091931)
(-9.74154e-06 8.32847e-06 0.126099)
(9.93037e-06 -9.08193e-06 0.126093)
(-1.01611e-05 -9.14794e-06 0.126097)
(-8.30221e-07 4.55094e-06 0.126074)
(5.08491e-07 4.9837e-06 0.126077)
(-3.83004e-07 -5.64472e-06 0.126075)
(1.41458e-07 -5.73389e-06 0.126074)
(5.79764e-05 -1.42838e-06 0.115087)
(-5.14556e-05 3.33367e-05 0.110577)
(-6.32182e-06 3.88348e-07 0.124208)
(-4.63528e-06 4.80065e-06 0.122927)
(-6.22116e-05 -1.42078e-06 0.115217)
(4.6849e-05 -3.61544e-05 0.110483)
(-5.17891e-06 -1.835e-07 0.124157)
(1.91497e-05 -1.13647e-05 0.0800765)
(-2.11674e-05 9.9896e-06 0.0801214)
(-8.36491e-07 5.80669e-05 0.115242)
(3.82414e-07 -1.14117e-05 0.124273)
(3.64514e-05 -4.94986e-05 0.110724)
(4.95718e-06 -7.76807e-06 0.122974)
(6.66136e-08 -6.32583e-05 0.115261)
(-8.48607e-08 -1.00867e-05 0.124249)
(-3.61022e-05 4.49669e-05 0.110717)
(-2.25531e-05 -3.06636e-05 0.103375)
(-3.28869e-05 -2.13938e-05 0.103534)
(0.000215952 0.000220281 0.119673)
(2.19321e-05 2.7873e-05 0.103307)
(2.9283e-05 2.03352e-05 0.103529)
(-3.18726e-07 -6.73124e-05 0.109642)
(9.7523e-06 4.86381e-05 0.0922003)
(3.96196e-07 6.49186e-05 0.109635)
(-9.63369e-06 -4.86097e-05 0.0923033)
(-1.2013e-05 1.97371e-05 0.0801919)
(1.26227e-05 -2.23955e-05 0.0802986)
(-6.66826e-05 -4.20657e-07 0.109241)
(4.7039e-05 8.05466e-06 0.0919044)
(6.50678e-05 -3.52617e-08 0.10936)
(-4.88036e-05 -7.96435e-06 0.091935)
(-5.99201e-06 1.76482e-06 0.126109)
(5.90653e-06 -1.8812e-06 0.126103)
(-6.29211e-06 -2.20595e-06 0.126108)
(-4.85649e-06 2.68729e-06 0.126073)
(4.29414e-06 3.86508e-06 0.126074)
(-4.11922e-06 -3.56243e-06 0.126074)
(4.21734e-06 -3.37833e-06 0.12607)
(5.82397e-05 -3.14961e-07 0.115085)
(-4.84121e-05 3.41056e-05 0.110573)
(1.44532e-06 -1.07561e-06 0.12422)
(-1.07717e-06 4.63773e-06 0.122899)
(-5.94289e-05 -5.51823e-07 0.115207)
(4.8639e-05 -3.61624e-05 0.110487)
(-1.1493e-06 -4.81007e-07 0.124124)
(1.76533e-05 -1.14341e-05 0.0800733)
(-2.13673e-05 1.10631e-05 0.0801307)
(-3.60653e-07 5.95756e-05 0.11524)
(-1.49816e-06 -3.5717e-06 0.124266)
(3.61462e-05 -4.74348e-05 0.110719)
(3.29207e-06 -3.54872e-06 0.122961)
(1.14304e-07 -5.97047e-05 0.115255)
(-5.99453e-07 -4.51551e-06 0.124231)
(-3.6611e-05 4.60728e-05 0.11072)
(-2.12798e-05 -2.99502e-05 0.103367)
(-3.2051e-05 -1.94231e-05 0.103528)
(0.000217076 0.000221538 0.119664)
(2.23618e-05 2.94351e-05 0.103312)
(3.07176e-05 2.08519e-05 0.103531)
(-1.82148e-07 -6.55928e-05 0.109654)
(8.22706e-06 4.94984e-05 0.092187)
(3.65626e-08 6.50364e-05 0.109626)
(-1.00169e-05 -4.92201e-05 0.0923223)
(-1.12814e-05 2.08012e-05 0.08018)
(1.37922e-05 -2.22857e-05 0.080315)
(-6.70554e-05 -1.63689e-07 0.109263)
(4.86316e-05 8.34217e-06 0.0918874)
(6.61739e-05 1.39749e-07 0.10934)
(-4.98162e-05 -9.91913e-06 0.091961)
(-5.952e-06 -5.9177e-07 0.126115)
(6.31415e-06 1.2163e-06 0.126109)
(-6.09129e-06 1.31693e-06 0.126116)
(-5.03997e-06 2.8151e-06 0.126074)
(4.11036e-06 3.66005e-06 0.126072)
(-4.62616e-06 -3.74993e-06 0.126075)
(4.13099e-06 -3.01329e-06 0.126069)
(5.99212e-05 -5.67758e-07 0.115105)
(-4.88774e-05 3.43602e-05 0.110555)
(3.5072e-06 -1.32074e-06 0.124253)
(-4.29178e-07 5.39726e-06 0.122864)
(-5.98391e-05 -1.84701e-07 0.115192)
(4.82972e-05 -3.6527e-05 0.11051)
(-5.03563e-07 -1.13795e-07 0.124078)
(1.94462e-05 -1.11114e-05 0.0800644)
(-2.19599e-05 1.26569e-05 0.0801559)
(-7.75463e-07 5.85759e-05 0.115242)
(-1.87305e-06 -1.96132e-06 0.124273)
(3.58398e-05 -4.67186e-05 0.110704)
(3.30897e-06 -2.28376e-06 0.122956)
(-1.04368e-07 -5.92534e-05 0.115247)
(-9.05537e-08 -2.47101e-06 0.124212)
(-3.6043e-05 4.57541e-05 0.110742)
(-2.09036e-05 -2.96562e-05 0.103351)
(-3.18363e-05 -1.99237e-05 0.103514)
(0.000216456 0.000222373 0.119663)
(2.34284e-05 3.01061e-05 0.103335)
(3.17138e-05 2.06949e-05 0.103544)
(-1.77624e-07 -6.43466e-05 0.109398)
(9.07125e-06 5.16215e-05 0.0921395)
(-4.78528e-07 6.65391e-05 0.109591)
(-1.38509e-05 -5.08773e-05 0.0922037)
(-1.50126e-05 2.18418e-05 0.0801488)
(1.63138e-05 -2.64667e-05 0.0802456)
(5.2601e-05 9.49072e-06 0.0918441)
(6.8583e-05 2.9081e-08 0.109279)
(-4.28508e-06 -2.19114e-06 0.126119)
(5.84663e-06 3.22023e-06 0.126113)
(-5.15731e-06 3.92052e-06 0.126122)
(6.09922e-05 -3.35654e-07 0.115166)
(-5.15412e-05 3.4788e-05 0.110503)
(1.67593e-06 -1.46646e-06 0.124311)
(-3.79572e-07 1.78542e-06 0.122817)
(-6.17224e-05 -4.0751e-07 0.115151)
(4.87173e-05 -3.77074e-05 0.110585)
(2.5838e-06 -8.62843e-07 0.124008)
(2.36184e-05 -1.20449e-05 0.080031)
(-8.08965e-07 5.9728e-05 0.115088)
(-1.32533e-06 -1.65413e-06 0.124298)
(3.55345e-05 -4.63021e-05 0.11065)
(-1.29461e-06 -5.82337e-05 0.115236)
(-3.16161e-07 9.10505e-07 0.124154)
(-2.3804e-05 -3.09183e-05 0.103305)
(-3.53356e-05 -2.03509e-05 0.103478)
(0.000214741 0.000222444 0.11969)
(2.41916e-05 3.23609e-05 0.103398)
(2.97634e-05 2.10659e-05 0.103484)
(0.000154986 0.00015523 0.111997)
(0.000509086 0.000525525 0.0966554)
(0.000525345 0.000509156 0.0966601)
(0.000701375 -0.000373769 0.0682066)
(0.000663219 0.000791833 0.0893818)
(-0.000378224 0.000701892 0.0682052)
(0.00079162 0.000663089 0.089386)
(0.00042482 0.000418061 0.112069)
(0.000795801 0.000992162 0.098558)
(0.000989479 0.000801276 0.0985601)
(0.000417224 0.000677265 0.0978141)
(0.00067741 0.000416685 0.0978196)
(3.27599e-05 0.00033599 0.10947)
(0.000200133 0.000170106 0.113154)
(0.000284222 0.00046098 0.100948)
(9.21897e-06 0.000185279 0.114864)
(-3.27602e-05 0.000336015 0.109475)
(-0.000200286 0.000170311 0.113154)
(-0.000284743 0.000461163 0.100953)
(-9.38064e-06 0.000185386 0.114868)
(1.28471e-05 0.000665404 0.104984)
(0.00182724 -0.00302126 0.061031)
(0.00059032 0.000755115 0.0928901)
(-0.000140689 0.00115219 0.107364)
(-1.35764e-05 0.00066492 0.104987)
(-0.00182683 -0.00301722 0.0610199)
(-0.000589 0.000755474 0.0928839)
(0.000140549 0.0011521 0.107369)
(3.96979e-05 0.000615748 0.109495)
(0.000319041 0.000438672 0.113217)
(0.00121866 0.000347705 0.101007)
(0.000146894 0.000688728 0.114595)
(0.000347665 0.000604374 0.102216)
(6.22608e-05 0.000338174 0.114669)
(2.37324e-05 0.000921558 0.110941)
(-3.98597e-05 0.000615657 0.109499)
(-0.00031924 0.000438851 0.113218)
(-0.00122201 0.000343469 0.101017)
(-0.000147191 0.000688709 0.114598)
(-0.000346202 0.000605042 0.102233)
(-6.24473e-05 0.000338285 0.114673)
(-2.39263e-05 0.000921479 0.110944)
(-0.00015508 0.000155171 0.111996)
(-0.000511046 0.000527913 0.0966308)
(-0.000525212 0.000508962 0.0966592)
(-0.000703138 -0.000377699 0.0682237)
(-0.000665521 0.000793229 0.0894196)
(-0.000424709 0.000418632 0.112067)