/*--------------------------------*- C++ -*----------------------------------*\
| =========                 |                                                 |
| \\      /  F ield         | OpenFOAM: The Open Source CFD Toolbox           |
|  \\    /   O peration     | Version:  2206                                  |
|   \\  /    A nd           | Website:  www.openfoam.com                      |
|    \\/     M anipulation  |                                                 |
\*---------------------------------------------------------------------------*/
FoamFile
{
    version     2.0;
    format      ascii;
    arch        "LSB;label=32;scalar=64";
    class       volScalarField;
    location    "20";
    object      k;
}
// * * * * * * * * * * * * * * * * * * * * * * * * * * * * * * * * * * * * * //

dimensions      [0 2 -2 0 0 0 0];

internalField   nonuniform List<scalar> 
66616
(
3.56645e-05
3.58537e-05
3.58515e-05
3.60878e-05
3.34664e-05
3.34079e-05
3.34375e-05
3.34453e-05
3.14278e-05
3.12507e-05
3.12467e-05
3.10796e-05
3.00185e-05
3.0609e-05
3.03605e-05
2.97131e-05
2.91596e-05
3.03532e-05
3.02267e-05
2.97062e-05
2.85031e-05
2.99719e-05
3.0579e-05
2.93203e-05
2.78161e-05
2.9945e-05
3.01417e-05
2.94472e-05
2.7151e-05
2.97264e-05
2.97528e-05
2.92878e-05
2.65788e-05
2.93382e-05
2.93321e-05
2.93925e-05
2.66298e-05
2.9354e-05
2.93335e-05
2.93009e-05
2.65437e-05
2.91901e-05
2.92153e-05
2.9083e-05
2.63755e-05
2.94487e-05
2.92136e-05
2.91904e-05
3.63579e-05
3.61741e-05
3.61728e-05
3.63584e-05
3.61666e-05
3.61688e-05
3.61613e-05
3.61671e-05
3.61694e-05
3.61684e-05
3.61724e-05
3.61711e-05
3.63572e-05
3.61726e-05
3.61759e-05
3.63621e-05
3.6085e-05
3.38203e-05
3.58473e-05
3.58537e-05
3.41224e-05
3.41146e-05
3.609e-05
3.38176e-05
3.58687e-05
3.58604e-05
3.40908e-05
3.40961e-05
3.58615e-05
3.41003e-05
3.40968e-05
3.60891e-05
3.37917e-05
3.58509e-05
3.41125e-05
3.41161e-05
3.38061e-05
3.34688e-05
3.1308e-05
3.34313e-05
3.34395e-05
3.16864e-05
3.17009e-05
3.34637e-05
3.13843e-05
3.34181e-05
3.34078e-05
3.16419e-05
3.16302e-05
3.34111e-05
3.16485e-05
3.16374e-05
3.34488e-05
3.13284e-05
3.34444e-05
3.168e-05
3.16836e-05
3.12885e-05
3.11431e-05
2.97241e-05
3.12806e-05
3.13204e-05
3.06604e-05
3.08138e-05
3.12167e-05
3.01412e-05
3.12535e-05
3.12289e-05
3.06228e-05
3.06034e-05
3.12555e-05
3.06435e-05
3.04047e-05
3.11546e-05
2.99354e-05
3.13006e-05
3.04186e-05
3.07189e-05
2.97732e-05
2.96773e-05
2.95311e-05
3.0552e-05
3.04893e-05
3.01793e-05
3.02465e-05
3.00321e-05
2.96683e-05
3.05194e-05
3.05822e-05
3.02689e-05
3.00956e-05
3.03599e-05
3.03759e-05
3.0241e-05
2.96975e-05
2.95282e-05
3.06552e-05
3.02053e-05
3.03813e-05
2.96472e-05
2.95199e-05
2.94684e-05
3.01396e-05
3.02471e-05
2.9986e-05
3.0317e-05
2.94941e-05
2.94965e-05
3.00747e-05
3.00907e-05
2.99366e-05
2.99805e-05
3.02749e-05
2.99983e-05
3.04546e-05
2.97592e-05
2.95338e-05
3.01519e-05
3.05566e-05
2.99855e-05
2.95032e-05
2.94675e-05
2.93552e-05
3.00952e-05
3.0203e-05
2.99907e-05
3.00113e-05
2.95373e-05
2.93684e-05
2.99503e-05
2.99882e-05
2.99473e-05
2.98205e-05
3.04092e-05
2.98463e-05
3.01725e-05
2.9539e-05
2.95208e-05
2.99711e-05
3.02662e-05
2.9947e-05
2.95125e-05
2.94997e-05
2.94055e-05
3.00289e-05
2.99208e-05
2.98636e-05
2.977e-05
2.95428e-05
2.9158e-05
2.98002e-05
2.97885e-05
2.96188e-05
2.96934e-05
3.00625e-05
2.97808e-05
2.97987e-05
2.96842e-05
2.93613e-05
2.97745e-05
2.97925e-05
2.95847e-05
2.9523e-05
2.94019e-05
2.94005e-05
2.98394e-05
2.96752e-05
2.96894e-05
2.94522e-05
2.91338e-05
2.90849e-05
2.96049e-05
2.96162e-05
2.94298e-05
2.94469e-05
2.96146e-05
2.95347e-05
2.95091e-05
2.92505e-05
2.9194e-05
2.96146e-05
2.95235e-05
2.93935e-05
2.92627e-05
2.92274e-05
2.92053e-05
2.9616e-05
2.93949e-05
2.94463e-05
2.93533e-05
2.92749e-05
2.91821e-05
2.94146e-05
2.9415e-05
2.93178e-05
2.93677e-05
2.94207e-05
2.93288e-05
2.94214e-05
2.91361e-05
2.93155e-05
2.95615e-05
2.94004e-05
2.9394e-05
2.93087e-05
2.9189e-05
2.90995e-05
2.94237e-05
2.95149e-05
2.94178e-05
2.94615e-05
2.91907e-05
2.94086e-05
2.93886e-05
2.93675e-05
2.92792e-05
2.936e-05
2.93602e-05
2.92091e-05
2.93283e-05
2.92402e-05
2.93937e-05
2.95005e-05
2.9252e-05
2.92837e-05
2.92573e-05
2.91397e-05
2.91281e-05
2.94244e-05
2.94842e-05
2.94644e-05
2.93954e-05
2.91653e-05
2.91735e-05
2.94301e-05
2.94269e-05
2.93441e-05
2.93112e-05
2.93171e-05
2.92539e-05
2.93845e-05
2.93022e-05
2.93932e-05
2.94473e-05
2.92328e-05
2.92878e-05
2.9147e-05
2.92283e-05
2.96197e-05
2.94596e-05
2.91674e-05
2.94158e-05
2.94963e-05
2.94381e-05
2.92856e-05
2.93453e-05
3.70327e-05
3.70576e-05
3.70379e-05
3.70378e-05
3.75455e-05
3.71054e-05
3.82979e-05
3.70478e-05
3.75436e-05
3.71052e-05
3.70481e-05
3.82988e-05
3.72091e-05
3.90119e-05
3.90057e-05
3.09581e-05
1.33968e-05
3.5705e-05
9.98913e-06
1.35276e-05
8.27676e-06
3.09211e-05
1.33665e-05
3.57013e-05
9.9898e-06
3.56556e-05
3.56556e-05
3.56544e-05
3.40237e-05
3.40305e-05
3.40345e-05
3.40269e-05
3.48654e-05
3.38523e-05
3.57537e-05
3.53082e-05
3.66439e-05
2.88007e-05
3.5207e-05
1.36313e-05
8.27909e-06
3.48699e-05
3.57599e-05
3.39207e-05
3.53168e-05
3.66556e-05
3.52045e-05
2.86495e-05
2.82343e-05
2.83092e-05
3.52025e-05
2.11434e-05
2.10966e-05
2.1032e-05
5.7707e-06
2.31975e-05
6.22466e-06
4.75791e-06
5.13986e-06
2.05322e-05
5.70479e-06
2.2858e-05
6.09068e-06
3.34612e-05
3.34632e-05
3.34704e-05
3.18866e-05
3.1894e-05
3.18844e-05
3.18806e-05
2.89898e-05
2.0604e-05
3.35225e-05
3.27414e-05
3.10178e-05
1.87903e-05
3.29475e-05
4.74417e-06
5.07512e-06
2.93001e-05
3.35408e-05
2.0908e-05
3.277e-05
3.12084e-05
3.29576e-05
1.88931e-05
1.35703e-05
1.36453e-05
3.23383e-05
1.23327e-05
1.23871e-05
1.82264e-05
7.95795e-06
1.92455e-05
8.10675e-06
5.86305e-06
5.89513e-06
1.78609e-05
8.08046e-06
1.8899e-05
8.25656e-06
3.14232e-05
3.14121e-05
3.14332e-05
3.03134e-05
3.03516e-05
3.03062e-05
3.03369e-05
2.62946e-05
1.75533e-05
3.15579e-05
3.09628e-05
2.72928e-05
1.70325e-05
3.12584e-05
5.84039e-06
5.90337e-06
2.64086e-05
3.15843e-05
1.73723e-05
3.10681e-05
2.73916e-05
3.12782e-05
1.68706e-05
1.12196e-05
1.15706e-05
3.05552e-05
1.0793e-05
1.11175e-05
1.63258e-05
8.41341e-06
1.68821e-05
8.91903e-06
5.93353e-06
6.04411e-06
1.66216e-05
8.31729e-06
1.65729e-05
8.56488e-06
3.00758e-05
3.0002e-05
3.00779e-05
2.93218e-05
2.94078e-05
2.93722e-05
2.94037e-05
2.41965e-05
1.68006e-05
3.07301e-05
3.04444e-05
2.47801e-05
1.71038e-05
3.06621e-05
5.83262e-06
5.95705e-06
2.43335e-05
3.07907e-05
1.68865e-05
3.03788e-05
2.49482e-05
3.07747e-05
1.71291e-05
1.05449e-05
1.1163e-05
2.97247e-05
1.07176e-05
1.12372e-05
1.64179e-05
9.05751e-06
1.62109e-05
9.15575e-06
6.0889e-06
6.14262e-06
1.69118e-05
8.74486e-06
1.66363e-05
8.91483e-06
2.91803e-05
2.91888e-05
2.92486e-05
2.8634e-05
2.86199e-05
2.86058e-05
2.86776e-05
2.40509e-05
1.77791e-05
3.05376e-05
3.02112e-05
2.39614e-05
1.79375e-05
3.04672e-05
6.17791e-06
6.21664e-06
2.47245e-05
3.05795e-05
1.73883e-05
3.05084e-05
2.50405e-05
3.06273e-05
1.75799e-05
1.10553e-05
1.14137e-05
2.96136e-05
1.12365e-05
1.17084e-05
1.69442e-05
9.26723e-06
1.6652e-05
9.33989e-06
6.08167e-06
5.98237e-06
1.66775e-05
8.94531e-06
1.66708e-05
8.95915e-06
2.84231e-05
2.84028e-05
2.84922e-05
2.79843e-05
2.79422e-05
2.78196e-05
2.79904e-05
2.43185e-05
1.79885e-05
3.02553e-05
3.00022e-05
2.41974e-05
1.83297e-05
3.01951e-05
6.34666e-06
6.40058e-06
2.45972e-05
3.04477e-05
1.81897e-05
3.05003e-05
2.45411e-05
3.03321e-05
1.82864e-05
1.16439e-05
1.15546e-05
2.94968e-05
1.1774e-05
1.16285e-05
1.71401e-05
9.22347e-06
1.69002e-05
9.30537e-06
5.94084e-06
5.96666e-06
1.67031e-05
9.06513e-06
1.67062e-05
9.19403e-06
2.78108e-05
2.76489e-05
2.78168e-05
2.72748e-05
2.73107e-05
2.72206e-05
2.7349e-05
2.4396e-05
1.78094e-05
2.98428e-05
2.98922e-05
2.43954e-05
1.80363e-05
2.97255e-05
6.37682e-06
6.35631e-06
2.46256e-05
2.99941e-05
1.84785e-05
3.00477e-05
2.47005e-05
2.97472e-05
1.82384e-05
1.16754e-05
1.20098e-05
2.93343e-05
1.15906e-05
1.18054e-05
1.69144e-05
9.26393e-06
1.72567e-05
9.31609e-06
6.07194e-06
6.19232e-06
1.66395e-05
9.04192e-06
1.66814e-05
8.99162e-06
2.71835e-05
2.70718e-05
2.72012e-05
2.66223e-05
2.67581e-05
2.65441e-05
2.66834e-05
2.43209e-05
1.80438e-05
2.93374e-05
2.96754e-05
2.4421e-05
1.77778e-05
2.92798e-05
6.26326e-06
6.26446e-06
2.48684e-05
2.93514e-05
1.80055e-05
2.95494e-05
2.45386e-05
2.93138e-05
1.81031e-05
1.15545e-05
1.1709e-05
2.93662e-05
1.15812e-05
1.18183e-05
1.69767e-05
9.23637e-06
1.71919e-05
9.24413e-06
6.28705e-06
6.31115e-06
1.66936e-05
8.90565e-06
1.65488e-05
8.93161e-06
2.66268e-05
2.64092e-05
2.64437e-05
2.63921e-05
2.64524e-05
2.62238e-05
2.63194e-05
2.43028e-05
1.7867e-05
2.91359e-05
2.93185e-05
2.42692e-05
1.81383e-05
2.89531e-05
6.26377e-06
6.32086e-06
2.45697e-05
2.9224e-05
1.78876e-05
2.94595e-05
2.45951e-05
2.90896e-05
1.79003e-05
1.17043e-05
1.16711e-05
2.92433e-05
1.14699e-05
1.16509e-05
1.71793e-05
9.29868e-06
1.70999e-05
9.12866e-06
6.25958e-06
6.24721e-06
1.64411e-05
8.963e-06
1.665e-05
9.11224e-06
2.62838e-05
2.62827e-05
2.62651e-05
2.6503e-05
2.61393e-05
2.62438e-05
2.64494e-05
2.45145e-05
1.77403e-05
2.89258e-05
2.93581e-05
2.47421e-05
1.77218e-05
2.89004e-05
6.35211e-06
6.44154e-06
2.48446e-05
2.89483e-05
1.78726e-05
2.93376e-05
2.45405e-05
2.88883e-05
1.80094e-05
1.14903e-05
1.16717e-05
2.91076e-05
1.16239e-05
1.17232e-05
1.72033e-05
9.04901e-06
1.75119e-05
9.11324e-06
6.23412e-06
6.20579e-06
1.68969e-05
9.04143e-06
1.66418e-05
9.09599e-06
2.61944e-05
2.61319e-05
2.62248e-05
2.63154e-05
2.59997e-05
2.61111e-05
2.62285e-05
2.45058e-05
1.77306e-05
2.88203e-05
2.92137e-05
2.43716e-05
1.77782e-05
2.87761e-05
6.44812e-06
6.40174e-06
2.44004e-05
2.88156e-05
1.78981e-05
2.93963e-05
2.45123e-05
2.88187e-05
1.82545e-05
1.16178e-05
1.15461e-05
2.93741e-05
1.17604e-05
1.15376e-05
1.6642e-05
9.01324e-06
1.70433e-05
8.92581e-06
6.20873e-06
6.25969e-06
9.05469e-06
1.67594e-05
2.5966e-05
2.61396e-05
2.60098e-05
2.43401e-05
1.78427e-05
2.87805e-05
2.92645e-05
2.42575e-05
1.78799e-05
2.87972e-05
6.34729e-06
2.46902e-05
2.88118e-05
1.80926e-05
2.46924e-05
2.88151e-05
1.1891e-05
1.15736e-05
2.91518e-05
1.17428e-05
1.15736e-05
3.72074e-05
3.90132e-05
3.90159e-05
7.00459e-06
3.82479e-05
6.99688e-06
3.82517e-05
3.70338e-05
2.83571e-05
2.83331e-05
3.93899e-05
3.93943e-05
3.75442e-05
3.71046e-05
3.82952e-05
3.7052e-05
3.75446e-05
3.71071e-05
3.82989e-05
3.70475e-05
3.79977e-05
4.22995e-06
4.02206e-05
3.69741e-05
3.79983e-05
4.09001e-06
4.02168e-05
3.69505e-05
3.75408e-05
3.69102e-05
3.35182e-05
3.6271e-05
3.88134e-05
3.68656e-05
3.71118e-05
3.75412e-05
3.6911e-05
3.33669e-05
3.62721e-05
3.88172e-05
3.68651e-05
3.7105e-05
3.72101e-05
3.90091e-05
3.90113e-05
6.93832e-06
3.82263e-05
3.70349e-05
2.83199e-05
2.83416e-05
3.93911e-05
3.93922e-05
6.99532e-06
3.82243e-05
3.75428e-05
3.71023e-05
3.82982e-05
3.70497e-05
3.75459e-05
3.7103e-05
3.70489e-05
3.82991e-05
3.79986e-05
4.26657e-06
4.02404e-05
3.69616e-05
3.75398e-05
3.69112e-05
3.34919e-05
3.62797e-05
3.88182e-05
3.68702e-05
3.7114e-05
3.80002e-05
4.26537e-06
4.02233e-05
3.6965e-05
3.75427e-05
3.69093e-05
3.62804e-05
3.34866e-05
3.68701e-05
3.8816e-05
3.71151e-05
3.70362e-05
3.70551e-05
3.70344e-05
3.70358e-05
3.70339e-05
3.70539e-05
3.70323e-05
3.70336e-05
3.70354e-05
3.70568e-05
3.70354e-05
3.7039e-05
3.67758e-05
3.6831e-05
3.61224e-05
3.61213e-05
3.68016e-05
3.68e-05
3.6075e-05
3.67783e-05
3.6832e-05
3.61173e-05
3.61339e-05
3.67964e-05
3.68045e-05
3.60768e-05
3.67807e-05
3.68326e-05
3.61294e-05
3.61258e-05
3.68007e-05
3.68003e-05
3.60817e-05
3.67791e-05
3.68321e-05
3.61269e-05
3.61259e-05
3.68e-05
3.68015e-05
3.60772e-05
3.75454e-05
3.71054e-05
3.70468e-05
3.82985e-05
3.75424e-05
3.69093e-05
3.3537e-05
3.62798e-05
3.88153e-05
3.68691e-05
3.7111e-05
3.80012e-05
4.25478e-06
4.02267e-05
3.69639e-05
3.75421e-05
3.69123e-05
3.62765e-05
3.3521e-05
3.68655e-05
3.88149e-05
3.71037e-05
3.80003e-05
4.26453e-06
4.02258e-05
3.69423e-05
3.72093e-05
3.90062e-05
3.90066e-05
7.01967e-06
3.82255e-05
3.70348e-05
2.85233e-05
2.8401e-05
3.93918e-05
3.93841e-05
7.02604e-06
3.82264e-05
3.75446e-05
3.71042e-05
3.70471e-05
3.82976e-05
3.75402e-05
3.69091e-05
3.62782e-05
3.3448e-05
3.68688e-05
3.88146e-05
3.71015e-05
3.75408e-05
3.69115e-05
3.62773e-05
3.34975e-05
3.68657e-05
3.88124e-05
3.71013e-05
3.80012e-05
4.25367e-06
4.02267e-05
3.69533e-05
3.80011e-05
4.25692e-06
4.0213e-05
3.69348e-05
3.70365e-05
2.83471e-05
2.83223e-05
3.93947e-05
3.9391e-05
7.00678e-06
3.82511e-05
6.99523e-06
3.82277e-05
1.34883e-05
8.22262e-06
1.35034e-05
8.27452e-06
2.82432e-05
2.82538e-05
3.52024e-05
2.1069e-05
2.11194e-05
4.87619e-06
6.67914e-06
4.88393e-06
6.68776e-06
3.4894e-05
1.45149e-05
1.43978e-05
1.89935e-05
1.90456e-05
3.08913e-05
1.33099e-05
3.57407e-05
1.00127e-05
3.48749e-05
3.38579e-05
3.57599e-05
3.5324e-05
3.66438e-05
2.87608e-05
3.52054e-05
3.48638e-05
3.38081e-05
3.57629e-05
3.53146e-05
3.66566e-05
2.87678e-05
3.51994e-05
2.90339e-05
6.15355e-06
8.35378e-06
2.43344e-05
2.90835e-05
6.14238e-06
8.33812e-06
2.43359e-05
3.41251e-05
3.47363e-05
2.20351e-05
3.40976e-05
2.66336e-05
3.46776e-05
3.18345e-05
3.41296e-05
3.4737e-05
2.2105e-05
3.41031e-05
2.66545e-05
3.46772e-05
3.18443e-05
2.82691e-05
2.82628e-05
3.5195e-05
2.11097e-05
2.11573e-05
1.35091e-05
8.27303e-06
4.92465e-06
6.66674e-06
3.48968e-05
1.47276e-05
1.45257e-05
1.90081e-05
1.89912e-05
4.91139e-06
6.66907e-06
3.48739e-05
3.38665e-05
3.57588e-05
3.52949e-05
3.66317e-05
2.87852e-05
3.52031e-05
3.08931e-05
1.33752e-05
3.5695e-05
9.97411e-06
3.48586e-05
3.57573e-05
3.39036e-05
3.53e-05
3.66355e-05
3.52022e-05
2.87015e-05
2.90318e-05
6.07113e-06
8.37223e-06
2.40292e-05
3.41048e-05
3.47686e-05
2.17273e-05
3.41095e-05
2.66522e-05
3.46807e-05
3.17126e-05
2.90478e-05
6.03551e-06
8.38385e-06
2.39816e-05
3.4134e-05
3.47578e-05
3.41061e-05
2.17685e-05
3.46804e-05
2.67601e-05
3.16852e-05
3.08669e-05
1.33658e-05
3.57203e-05
9.9751e-06
3.48499e-05
3.57557e-05
3.38397e-05
3.53027e-05
3.66549e-05
3.52091e-05
2.87743e-05
3.08684e-05
1.33561e-05
3.57545e-05
9.94993e-06
3.41118e-05
3.47494e-05
2.17526e-05
3.41098e-05
2.66499e-05
3.46766e-05
3.17254e-05
2.91038e-05
6.06196e-06
8.38893e-06
2.40695e-05
3.41369e-05
3.47605e-05
3.41068e-05
2.16907e-05
3.46755e-05
2.66636e-05
3.16911e-05
2.90964e-05
6.02899e-06
8.4017e-06
2.40441e-05
2.83922e-05
2.84268e-05
3.5196e-05
2.10701e-05
2.09957e-05
1.36138e-05
8.22864e-06
4.90551e-06
6.69574e-06
3.48951e-05
1.44785e-05
1.45647e-05
1.90595e-05
1.90772e-05
4.89639e-06
6.67893e-06
3.4858e-05
3.57559e-05
3.38676e-05
3.53216e-05
3.66475e-05
3.52063e-05
2.8739e-05
3.0925e-05
1.33853e-05
3.57353e-05
9.93189e-06
3.0889e-05
1.33576e-05
3.56966e-05
9.99944e-06
3.41269e-05
3.47402e-05
3.41038e-05
2.19567e-05
3.46799e-05
2.67193e-05
3.18768e-05
3.41282e-05
3.47468e-05
3.41039e-05
2.20237e-05
3.46799e-05
2.66996e-05
3.18593e-05
2.90684e-05
6.08923e-06
8.39387e-06
2.42817e-05
2.90855e-05
6.13325e-06
8.35305e-06
2.43283e-05
1.34985e-05
8.25602e-06
1.3557e-05
8.26491e-06
3.48965e-05
1.44754e-05
1.45037e-05
1.89805e-05
1.90194e-05
4.88796e-06
6.68562e-06
4.89551e-06
6.66924e-06
4.71318e-06
5.09223e-06
4.72951e-06
5.09644e-06
1.35891e-05
1.3541e-05
3.23578e-05
1.22846e-05
1.22921e-05
5.82917e-06
5.4226e-06
5.90089e-06
5.36668e-06
3.20625e-05
1.14213e-05
1.14525e-05
1.1998e-05
1.19669e-05
2.09554e-05
5.80756e-06
2.32046e-05
6.01161e-06
2.92602e-05
2.0904e-05
3.35336e-05
3.27823e-05
3.11798e-05
1.9156e-05
3.29543e-05
2.92795e-05
2.09983e-05
3.35252e-05
3.27772e-05
3.11558e-05
1.92707e-05
3.29532e-05
2.06991e-05
7.92265e-06
6.84657e-06
1.9554e-05
2.05115e-05
7.82351e-06
6.41154e-06
1.91543e-05
2.88295e-05
3.21815e-05
1.80528e-05
3.19564e-05
1.88545e-05
3.24368e-05
2.77893e-05
2.88017e-05
3.21934e-05
1.80633e-05
3.19636e-05
1.89472e-05
3.2427e-05
2.77275e-05
1.37723e-05
1.35423e-05
3.23884e-05
1.25113e-05
1.2134e-05
4.7436e-06
4.98811e-06
5.882e-06
5.32764e-06
3.21015e-05
1.16052e-05
1.12717e-05
1.22543e-05
1.19232e-05
5.72324e-06
5.28573e-06
2.89645e-05
2.06502e-05
3.35195e-05
3.27407e-05
3.10197e-05
1.88095e-05
3.29535e-05
2.05819e-05
5.65184e-06
2.28222e-05
6.01052e-06
2.89656e-05
3.35217e-05
2.06225e-05
3.27356e-05
3.09914e-05
3.29487e-05
1.87338e-05
2.03238e-05
7.98744e-06
6.57889e-06
1.92037e-05
2.86506e-05
3.21483e-05
1.79673e-05
3.19635e-05
1.86138e-05
3.24155e-05
2.74151e-05
2.0271e-05
7.86736e-06
6.5584e-06
1.9157e-05
2.86041e-05
3.2137e-05
3.19461e-05
1.76908e-05
3.24062e-05
1.85252e-05
2.73167e-05
2.05633e-05
5.68839e-06
2.29421e-05
5.92598e-06
2.89693e-05
3.35229e-05
2.06374e-05
3.2732e-05
3.09917e-05
3.29422e-05
1.88907e-05
2.06475e-05
5.69963e-06
2.28557e-05
5.89878e-06
2.8657e-05
3.21427e-05
1.77949e-05
3.19656e-05
1.85606e-05
3.24201e-05
2.75259e-05
2.02817e-05
7.60189e-06
6.34073e-06
1.9392e-05
2.86839e-05
3.21384e-05
3.19446e-05
1.78208e-05
3.24145e-05
1.86664e-05
2.7546e-05
2.04554e-05
7.65497e-06
6.45641e-06
1.9385e-05
1.36421e-05
1.35954e-05
3.23525e-05
1.23412e-05
1.20605e-05
4.72079e-06
5.04022e-06
5.86035e-06
5.37869e-06
3.20543e-05
1.15587e-05
1.13152e-05
1.21706e-05
1.17299e-05
5.67894e-06
5.30865e-06
2.93738e-05
3.35385e-05
2.08843e-05
3.27696e-05
3.1241e-05
3.29647e-05
1.90055e-05
2.09782e-05
5.82994e-06
2.33741e-05
5.9125e-06
2.11783e-05
5.83206e-06
2.33978e-05
5.83026e-06
2.88234e-05
3.21705e-05
3.19722e-05
1.75895e-05
3.2441e-05
1.837e-05
2.77393e-05
2.8916e-05
3.21961e-05
3.19807e-05
1.79361e-05
3.24408e-05
1.88246e-05
2.76557e-05
2.05658e-05
7.43248e-06
6.31378e-06
1.9375e-05
2.07848e-05
7.68676e-06
6.42202e-06
1.96333e-05
4.72661e-06
5.07405e-06
4.73172e-06
5.02499e-06
3.20649e-05
1.14073e-05
1.16877e-05
1.21468e-05
1.22775e-05
5.6583e-06
5.3865e-06
5.77192e-06
5.35088e-06
5.84607e-06
5.75122e-06
5.97162e-06
5.87426e-06
1.13564e-05
1.13478e-05
3.0591e-05
1.09939e-05
1.11513e-05
5.89319e-06
5.81862e-06
5.95589e-06
5.91724e-06
3.04408e-05
1.09962e-05
1.12102e-05
1.10072e-05
1.10897e-05
1.7938e-05
7.98867e-06
1.88367e-05
8.09657e-06
2.64712e-05
1.78116e-05
3.15631e-05
3.10054e-05
2.74706e-05
1.72169e-05
3.1212e-05
2.63689e-05
1.79045e-05
3.15742e-05
3.10538e-05
2.74126e-05
1.7264e-05
3.1258e-05
1.80171e-05
8.25233e-06
8.11606e-06
1.71183e-05
1.77822e-05
8.45646e-06
8.30191e-06
1.69798e-05
2.62476e-05
3.08377e-05
1.71255e-05
3.0767e-05
1.71278e-05
3.09615e-05
2.52644e-05
2.61265e-05
3.08583e-05
1.72327e-05
3.08386e-05
1.70732e-05
3.10149e-05
2.52909e-05
1.15902e-05
1.12262e-05
3.07655e-05
1.12756e-05
1.09645e-05
5.7865e-06
5.74884e-06
5.93872e-06
5.93606e-06
3.05408e-05
1.1212e-05
1.09869e-05
1.12536e-05
1.09411e-05
5.92808e-06
5.84476e-06
2.60579e-05
1.76485e-05
3.1571e-05
3.09567e-05
2.72154e-05
1.69881e-05
3.12606e-05
1.78837e-05
8.11472e-06
1.8833e-05
8.15569e-06
2.60212e-05
3.15496e-05
1.74228e-05
3.09556e-05
2.70197e-05
3.12402e-05
1.68777e-05
1.76495e-05
8.3292e-06
8.33024e-06
1.6766e-05
2.576e-05
3.07377e-05
1.71126e-05
3.08633e-05
1.69692e-05
3.10078e-05
2.47469e-05
1.7538e-05
8.30057e-06
8.22648e-06
1.67954e-05
2.57447e-05
3.0746e-05
3.08488e-05
1.68047e-05
3.10046e-05
1.6778e-05
2.48563e-05
1.83429e-05
7.89926e-06
1.92708e-05
8.04007e-06
2.62973e-05
3.155e-05
1.76397e-05
3.09308e-05
2.72701e-05
3.12305e-05
1.67303e-05
1.80378e-05
7.90818e-06
1.91524e-05
7.96226e-06
2.61288e-05
3.07781e-05
1.68347e-05
3.08426e-05
1.69481e-05
3.10049e-05
2.4991e-05
1.81303e-05
8.27553e-06
8.1339e-06
1.72825e-05
2.60497e-05
3.08341e-05
3.08041e-05
1.63523e-05
3.09927e-05
1.64212e-05
2.50709e-05
1.78505e-05
7.91099e-06
7.88993e-06
1.68197e-05
1.14035e-05
1.11346e-05
3.06428e-05
1.11339e-05
1.10453e-05
5.74225e-06
5.73466e-06
5.845e-06
5.86823e-06
3.04776e-05
1.08321e-05
1.10298e-05
1.09603e-05
1.10382e-05
5.85224e-06
5.74078e-06
2.63446e-05
3.15926e-05
1.75537e-05
3.10236e-05
2.73668e-05
3.1281e-05
1.69744e-05
1.80404e-05
7.76693e-06
1.90248e-05
7.94761e-06
1.80097e-05
7.87231e-06
1.93186e-05
8.05976e-06
2.6037e-05
3.05272e-05
3.08838e-05
1.69e-05
3.10445e-05
1.68774e-05
2.50506e-05
2.5993e-05
3.08416e-05
3.09083e-05
1.71689e-05
3.1062e-05
1.70881e-05
2.48379e-05
1.77621e-05
8.18513e-06
8.1722e-06
1.70344e-05
1.77889e-05
8.36556e-06
8.2228e-06
1.69556e-05
5.68676e-06
5.59091e-06
5.84707e-06
5.85493e-06
3.04496e-05
1.07598e-05
1.1235e-05
1.05983e-05
1.13108e-05
5.65841e-06
5.55824e-06
5.9599e-06
5.82229e-06
6.02251e-06
6.17499e-06
6.0795e-06
6.12628e-06
1.11497e-05
1.12548e-05
2.9517e-05
1.14832e-05
1.16601e-05
6.32229e-06
6.23013e-06
6.18598e-06
6.15383e-06
2.9567e-05
1.16807e-05
1.17486e-05
1.14894e-05
1.16169e-05
1.64938e-05
8.52334e-06
1.69131e-05
8.61353e-06
2.4283e-05
1.72847e-05
3.06522e-05
3.04426e-05
2.50575e-05
1.75553e-05
3.05744e-05
2.42077e-05
1.74355e-05
3.07033e-05
3.05205e-05
2.48767e-05
1.75063e-05
3.06401e-05
1.62471e-05
9.06528e-06
8.98317e-06
1.62339e-05
1.66504e-05
8.74061e-06
8.68992e-06
1.64926e-05
2.41251e-05
3.03506e-05
1.80073e-05
3.04889e-05
1.7506e-05
3.05306e-05
2.42349e-05
2.41322e-05
3.04958e-05
1.76123e-05
3.05733e-05
1.76288e-05
3.06053e-05
2.40757e-05
1.12507e-05
1.09842e-05
2.96845e-05
1.13238e-05
1.14434e-05
5.91918e-06
6.05044e-06
6.07956e-06
6.10997e-06
2.97127e-05
1.15135e-05
1.15972e-05
1.13903e-05
1.15497e-05
6.26808e-06
6.17805e-06
2.41149e-05
1.70498e-05
3.07504e-05
3.0457e-05
2.45515e-05
1.73684e-05
3.07098e-05
1.64734e-05
8.4444e-06
1.66945e-05
8.52988e-06
2.41136e-05
3.0741e-05
1.66276e-05
3.03042e-05
2.44903e-05
3.06863e-05
1.67944e-05
1.64256e-05
8.759e-06
8.70772e-06
1.66304e-05
2.4065e-05
3.03498e-05
1.78276e-05
3.06336e-05
1.73898e-05
3.06588e-05
2.42852e-05
1.64792e-05
8.7585e-06
8.69463e-06
1.68781e-05
2.41997e-05
3.03292e-05
3.0622e-05
1.70754e-05
3.0661e-05
1.68208e-05
2.42844e-05
1.64335e-05
8.42429e-06
1.7015e-05
8.58654e-06
2.40667e-05
3.07026e-05
1.6346e-05
3.04354e-05
2.4901e-05
3.06449e-05
1.64655e-05
1.63292e-05
8.0278e-06
1.64781e-05
8.20846e-06
2.40901e-05
3.04399e-05
1.78961e-05
3.05809e-05
1.71444e-05
3.06335e-05
2.40117e-05
1.63813e-05
8.67284e-06
8.54804e-06
1.62804e-05
2.4203e-05
3.04777e-05
3.05862e-05
1.69138e-05
3.06233e-05
1.65481e-05
2.38138e-05
1.6269e-05
8.53095e-06
8.26808e-06
1.61025e-05
1.0827e-05
1.10592e-05
2.94207e-05
1.09455e-05
1.11411e-05
5.82963e-06
5.92347e-06
6.11601e-06
5.99212e-06
2.95074e-05
1.1146e-05
1.12961e-05
1.09763e-05
1.11579e-05
6.06136e-06
6.0534e-06
2.43489e-05
3.08064e-05
1.70153e-05
3.05561e-05
2.47559e-05
3.07581e-05
1.7226e-05
1.66189e-05
8.34429e-06
1.67136e-05
8.47271e-06
1.67464e-05
8.58497e-06
1.69212e-05
8.78702e-06
2.42647e-05
3.013e-05
3.06654e-05
1.7385e-05
3.05804e-05
1.71427e-05
2.48095e-05
2.4329e-05
3.04303e-05
3.07081e-05
1.77852e-05
3.07315e-05
1.74909e-05
2.4299e-05
1.66636e-05
8.75879e-06
8.41329e-06
1.69484e-05
1.67965e-05
8.99647e-06
9.02337e-06
1.67164e-05
5.64956e-06
5.77021e-06
5.99366e-06
6.12553e-06
2.95035e-05
1.12489e-05
1.16468e-05
1.08078e-05
1.14508e-05
5.9642e-06
5.87408e-06
6.16925e-06
6.15109e-06
6.34158e-06
6.37758e-06
6.20566e-06
6.19265e-06
1.17282e-05
1.19819e-05
2.94986e-05
1.18353e-05
1.16491e-05
6.45003e-06
6.39086e-06
6.23226e-06
6.25211e-06
2.95367e-05
1.20653e-05
1.1758e-05
1.19003e-05
1.16355e-05
1.66689e-05
8.85371e-06
1.65246e-05
8.93157e-06
2.44315e-05
1.79885e-05
3.04488e-05
3.01567e-05
2.41391e-05
1.83303e-05
3.04147e-05
2.45147e-05
1.76379e-05
3.05449e-05
3.04022e-05
2.40802e-05
1.76622e-05
3.0483e-05
1.66541e-05
9.28977e-06
9.26697e-06
1.66461e-05
1.66564e-05
8.83538e-06
8.83386e-06
1.67853e-05
2.44844e-05
3.00028e-05
1.81826e-05
3.02725e-05
1.82071e-05
3.03466e-05
2.44507e-05
2.42385e-05
3.03385e-05
1.79165e-05
3.03425e-05
1.78088e-05
3.04241e-05
2.4204e-05
1.15021e-05
1.18567e-05
2.96012e-05
1.16187e-05
1.17939e-05
6.31202e-06
6.38706e-06
6.0692e-06
6.14559e-06
2.94426e-05
1.1396e-05
1.19255e-05
1.15291e-05
1.20023e-05
6.38007e-06
6.36284e-06
2.41946e-05
1.76127e-05
3.05973e-05
3.00271e-05
2.40906e-05
1.76768e-05
3.05451e-05
1.70915e-05
8.9708e-06
1.68726e-05
9.08145e-06
2.42966e-05
3.0596e-05
1.73699e-05
3.01514e-05
2.43169e-05
3.05353e-05
1.74531e-05
1.67046e-05
9.00301e-06
8.87911e-06
1.67026e-05
2.44187e-05
2.99999e-05
1.79791e-05
3.03637e-05
1.79622e-05
3.04713e-05
2.42611e-05
1.71133e-05
9.06023e-06
9.14004e-06
1.70821e-05
2.43901e-05
2.99802e-05
3.03841e-05
1.79735e-05
3.04912e-05
1.7859e-05
2.42701e-05
1.64871e-05
8.79904e-06
1.64198e-05
8.95382e-06
2.42938e-05
3.0558e-05
1.69809e-05
3.03382e-05
2.37771e-05
3.05032e-05
1.73055e-05
1.67525e-05
8.63561e-06
1.64007e-05
8.87357e-06
2.40499e-05
3.01883e-05
1.80462e-05
3.0341e-05
1.82437e-05
3.03979e-05
2.41726e-05
1.67146e-05
8.97476e-06
8.95497e-06
1.67509e-05
2.40385e-05
3.04506e-05
3.03912e-05
1.76562e-05
3.04462e-05
1.73585e-05
2.40574e-05
1.65182e-05
8.97322e-06
9.04682e-06
1.66242e-05
1.13286e-05
1.16049e-05
2.96334e-05
1.13264e-05
1.15417e-05
6.19403e-06
6.179e-06
6.35666e-06
6.34522e-06
2.95021e-05
1.17401e-05
1.17676e-05
1.17103e-05
1.17355e-05
6.37709e-06
6.26644e-06
2.4468e-05
3.06827e-05
1.79637e-05
3.01254e-05
2.44902e-05
3.06364e-05
1.8143e-05
1.70021e-05
8.93657e-06
1.70236e-05
8.8342e-06
1.68738e-05
9.05515e-06
1.68111e-05
9.13937e-06
2.48653e-05
3.04032e-05
3.05175e-05
1.79671e-05
3.06039e-05
1.76866e-05
2.48223e-05
2.45034e-05
3.01556e-05
3.04701e-05
1.80048e-05
3.05533e-05
1.80524e-05
2.45401e-05
1.73065e-05
9.08766e-06
8.86428e-06
1.73131e-05
1.69765e-05
8.97654e-06
9.10872e-06
1.70127e-05
6.06593e-06
6.0821e-06
6.16656e-06
6.25169e-06
2.94225e-05
1.14964e-05
1.1506e-05
1.14208e-05
1.153e-05
6.24819e-06
6.20007e-06
6.16977e-06
6.23516e-06
6.50778e-06
6.5466e-06
6.24517e-06
6.27734e-06
1.2149e-05
1.16037e-05
2.94125e-05
1.22555e-05
1.17412e-05
6.46947e-06
6.46944e-06
6.28675e-06
6.29736e-06
2.93673e-05
1.21589e-05
1.17971e-05
1.2186e-05
1.15505e-05
1.69774e-05
8.86781e-06
1.68541e-05
8.81592e-06
2.43704e-05
1.82259e-05
3.01701e-05
2.9954e-05
2.42112e-05
1.8253e-05
3.00959e-05
2.44667e-05
1.76603e-05
3.02552e-05
3.02046e-05
2.41932e-05
1.75416e-05
3.01558e-05
1.71135e-05
9.36005e-06
9.32627e-06
1.71193e-05
1.68302e-05
8.81831e-06
8.8309e-06
1.69793e-05
2.46189e-05
2.99684e-05
1.82324e-05
2.9863e-05
1.84322e-05
2.99652e-05
2.44855e-05
2.47908e-05
3.00815e-05
1.76982e-05
2.99558e-05
1.75047e-05
3.00397e-05
2.44614e-05
1.14326e-05
1.20912e-05
2.96447e-05
1.12528e-05
1.20475e-05
6.40055e-06
6.33187e-06
5.96859e-06
5.98751e-06
2.94649e-05
1.11005e-05
1.19435e-05
1.13017e-05
1.20717e-05
6.29236e-06
6.4086e-06
2.44227e-05
1.77227e-05
3.02751e-05
2.9904e-05
2.44792e-05
1.77011e-05
3.01881e-05
1.70771e-05
9.07716e-06
1.68401e-05
9.20229e-06
2.43379e-05
3.03196e-05
1.80291e-05
2.9999e-05
2.4251e-05
3.01977e-05
1.83111e-05
1.66902e-05
9.08247e-06
8.98372e-06
1.67721e-05
2.4163e-05
2.98504e-05
1.78904e-05
2.9973e-05
1.76751e-05
3.01194e-05
2.42461e-05
1.71254e-05
9.26903e-06
9.36227e-06
1.67298e-05
2.43911e-05
2.99172e-05
2.99798e-05
1.82641e-05
3.01107e-05
1.80755e-05
2.42553e-05
1.67653e-05
9.0919e-06
1.67663e-05
9.0066e-06
2.42004e-05
3.03309e-05
1.76907e-05
3.03364e-05
2.41384e-05
3.02498e-05
1.77873e-05
1.65744e-05
8.99382e-06
1.65756e-05
9.0221e-06
2.46442e-05
2.98394e-05
1.79311e-05
2.99744e-05
1.81325e-05
3.00739e-05
2.43988e-05
1.71057e-05
9.00727e-06
9.04504e-06
1.69307e-05
2.45733e-05
3.02573e-05
3.00282e-05
1.79629e-05
3.01156e-05
1.77739e-05
2.47001e-05
1.66296e-05
9.06151e-06
9.04309e-06
1.6786e-05
1.17617e-05
1.17803e-05
2.96465e-05
1.20302e-05
1.19251e-05
6.32723e-06
6.37904e-06
6.40439e-06
6.42011e-06
2.95347e-05
1.19917e-05
1.21855e-05
1.19351e-05
1.21065e-05
6.40379e-06
6.43831e-06
2.45876e-05
3.03655e-05
1.81941e-05
2.99817e-05
2.45648e-05
3.02843e-05
1.82488e-05
1.71613e-05
9.08995e-06
1.70909e-05
9.20121e-06
1.71197e-05
8.98701e-06
1.70057e-05
9.04354e-06
2.4641e-05
3.04028e-05
3.00911e-05
1.8304e-05
3.02256e-05
1.83768e-05
2.48631e-05
2.45695e-05
2.99483e-05
3.00996e-05
1.80248e-05
3.0192e-05
1.80334e-05
2.47413e-05
1.71808e-05
9.18554e-06
9.24927e-06
1.76159e-05
1.71978e-05
9.11848e-06
9.19304e-06
1.74406e-05
6.29104e-06
6.32818e-06
6.17261e-06
6.2244e-06
2.93155e-05
1.16405e-05
1.17269e-05
1.18773e-05
1.19155e-05
6.26631e-06
6.35403e-06
6.33114e-06
6.33348e-06
6.49678e-06
6.56925e-06
6.31835e-06
6.30489e-06
1.21093e-05
1.16193e-05
2.93296e-05
1.21224e-05
1.16067e-05
6.51709e-06
6.60318e-06
6.37235e-06
6.33641e-06
2.94586e-05
1.22246e-05
1.18188e-05
1.21299e-05
1.16361e-05
1.74782e-05
8.85219e-06
1.70244e-05
8.85801e-06
2.47085e-05
1.82098e-05
2.97284e-05
3.00088e-05
2.48003e-05
1.81914e-05
2.96123e-05
2.46563e-05
1.77747e-05
2.9796e-05
2.98931e-05
2.44407e-05
1.77413e-05
2.96527e-05
1.72141e-05
9.3752e-06
9.40736e-06
1.72554e-05
1.72818e-05
8.95045e-06
8.90796e-06
1.73309e-05
2.44474e-05
2.99326e-05
1.85528e-05
2.94783e-05
1.82229e-05
2.95283e-05
2.45009e-05
2.45356e-05
2.97298e-05
1.75969e-05
2.95097e-05
1.75575e-05
2.95668e-05
2.47854e-05
1.10991e-05
1.17209e-05
2.927e-05
1.11056e-05
1.17314e-05
6.35591e-06
6.27159e-06
6.07257e-06
6.01131e-06
2.92238e-05
1.12993e-05
1.17293e-05
1.13129e-05
1.17104e-05
6.2892e-06
6.27485e-06
2.42317e-05
1.77168e-05
2.98659e-05
2.98167e-05
2.42066e-05
1.78463e-05
2.97044e-05
1.66304e-05
9.34395e-06
1.67049e-05
9.23969e-06
2.44172e-05
2.98315e-05
1.8316e-05
2.97443e-05
2.43506e-05
2.97274e-05
1.80976e-05
1.671e-05
9.20579e-06
9.27432e-06
1.69044e-05
2.42711e-05
2.96354e-05
1.78945e-05
2.94483e-05
1.78757e-05
2.96024e-05
2.42914e-05
1.66398e-05
9.14026e-06
9.31861e-06
1.67884e-05
2.41651e-05
2.98075e-05
2.94908e-05
1.79194e-05
2.96306e-05
1.79606e-05
2.45039e-05
1.67382e-05
8.97223e-06
1.68838e-05
8.91286e-06
2.46011e-05
2.99074e-05
1.8059e-05
2.98309e-05
2.44594e-05
2.98178e-05
1.79537e-05
1.71423e-05
9.08612e-06
1.68985e-05
9.03207e-06
2.44465e-05
2.9835e-05
1.77521e-05
2.95039e-05
1.78083e-05
2.95966e-05
2.44114e-05
1.6759e-05
8.90483e-06
8.98057e-06
1.68073e-05
2.46343e-05
2.97883e-05
2.961e-05
1.78189e-05
2.97094e-05
1.7704e-05
2.44174e-05
1.68868e-05
9.07919e-06
9.07463e-06
1.68316e-05
1.18727e-05
1.20022e-05
2.93294e-05
1.19541e-05
1.21949e-05
6.41186e-06
6.41607e-06
6.28901e-06
6.36181e-06
2.93376e-05
1.16588e-05
1.22926e-05
1.17395e-05
1.20311e-05
6.39354e-06
6.38663e-06
2.4611e-05
3.00014e-05
1.81165e-05
2.97447e-05
2.46023e-05
2.99097e-05
1.81214e-05
1.71574e-05
9.19808e-06
1.74061e-05
9.13924e-06
1.72823e-05
9.24755e-06
1.76246e-05