/*--------------------------------*- C++ -*----------------------------------*\
| =========                 |                                                 |
| \\      /  F ield         | OpenFOAM: The Open Source CFD Toolbox           |
|  \\    /   O peration     | Version:  2206                                  |
|   \\  /    A nd           | Website:  www.openfoam.com                      |
|    \\/     M anipulation  |                                                 |
\*---------------------------------------------------------------------------*/
FoamFile
{
    version     2.0;
    format      ascii;
    arch        "LSB;label=32;scalar=64";
    class       volScalarField;
    location    "20";
    object      nut;
}
// * * * * * * * * * * * * * * * * * * * * * * * * * * * * * * * * * * * * * //

dimensions      [0 2 -1 0 0 0 0];

internalField   nonuniform List<scalar> 
66616
(
1.66199e-06
1.65267e-06
1.65237e-06
1.66265e-06
1.63985e-06
1.52493e-06
1.5401e-06
1.50033e-06
1.60277e-06
1.44477e-06
1.45635e-06
1.32081e-06
1.5895e-06
1.44109e-06
1.4496e-06
1.29075e-06
1.59247e-06
1.44339e-06
1.45066e-06
1.30325e-06
1.58065e-06
1.43052e-06
1.47161e-06
1.29156e-06
1.54882e-06
1.42943e-06
1.45371e-06
1.29554e-06
1.51346e-06
1.42029e-06
1.43376e-06
1.28604e-06
1.48092e-06
1.40191e-06
1.41448e-06
1.29125e-06
1.4841e-06
1.40359e-06
1.41641e-06
1.28885e-06
1.48154e-06
1.39727e-06
1.40848e-06
1.27675e-06
1.469e-06
1.40814e-06
1.41439e-06
1.28095e-06
1.66755e-06
1.66905e-06
1.66901e-06
1.66772e-06
1.66873e-06
1.66886e-06
1.66353e-06
1.66459e-06
1.66437e-06
1.66432e-06
1.66901e-06
1.66828e-06
1.66783e-06
1.66909e-06
1.66842e-06
1.66779e-06
1.6632e-06
1.53141e-06
1.65225e-06
1.65242e-06
1.58824e-06
1.59022e-06
1.6633e-06
1.53767e-06
1.65365e-06
1.65284e-06
1.56626e-06
1.57343e-06
1.65245e-06
1.57559e-06
1.56782e-06
1.6631e-06
1.5336e-06
1.65236e-06
1.5891e-06
1.58737e-06
1.53141e-06
1.50453e-06
1.33715e-06
1.54051e-06
1.54162e-06
1.47358e-06
1.47527e-06
1.51074e-06
1.34043e-06
1.53207e-06
1.52084e-06
1.46446e-06
1.45256e-06
1.53094e-06
1.45658e-06
1.45825e-06
1.50433e-06
1.34791e-06
1.5438e-06
1.4702e-06
1.47471e-06
1.34251e-06
1.34656e-06
1.30225e-06
1.46848e-06
1.4689e-06
1.45848e-06
1.45872e-06
1.35391e-06
1.30346e-06
1.46058e-06
1.44931e-06
1.45031e-06
1.44748e-06
1.45346e-06
1.44389e-06
1.43249e-06
1.33993e-06
1.30006e-06
1.46839e-06
1.44414e-06
1.45902e-06
1.29418e-06
1.31005e-06
1.30372e-06
1.4666e-06
1.45203e-06
1.44605e-06
1.44205e-06
1.31331e-06
1.30198e-06
1.45061e-06
1.44241e-06
1.43675e-06
1.42311e-06
1.44319e-06
1.44479e-06
1.43096e-06
1.30379e-06
1.29833e-06
1.46427e-06
1.44379e-06
1.45307e-06
1.30405e-06
1.31339e-06
1.30662e-06
1.45217e-06
1.451e-06
1.44527e-06
1.45244e-06
1.30454e-06
1.29573e-06
1.43327e-06
1.42941e-06
1.42462e-06
1.42594e-06
1.44266e-06
1.43235e-06
1.44928e-06
1.32311e-06
1.30777e-06
1.45587e-06
1.47609e-06
1.44065e-06
1.30265e-06
1.30567e-06
1.29341e-06
1.45741e-06
1.45261e-06
1.4459e-06
1.43751e-06
1.3045e-06
1.28704e-06
1.43387e-06
1.43429e-06
1.43072e-06
1.42422e-06
1.45983e-06
1.42703e-06
1.43817e-06
1.32369e-06
1.30687e-06
1.44638e-06
1.46678e-06
1.44293e-06
1.30073e-06
1.307e-06
1.29647e-06
1.45142e-06
1.44296e-06
1.43915e-06
1.42741e-06
1.30306e-06
1.27968e-06
1.42886e-06
1.43698e-06
1.41518e-06
1.41943e-06
1.43787e-06
1.42509e-06
1.42217e-06
1.32167e-06
1.30072e-06
1.4406e-06
1.43833e-06
1.42801e-06
1.30798e-06
1.31232e-06
1.29596e-06
1.44097e-06
1.43435e-06
1.43065e-06
1.41773e-06
1.29758e-06
1.2873e-06
1.41792e-06
1.42047e-06
1.40447e-06
1.40842e-06
1.41878e-06
1.412e-06
1.40816e-06
1.3025e-06
1.29377e-06
1.43415e-06
1.42522e-06
1.41589e-06
1.28815e-06
1.29521e-06
1.28513e-06
1.43812e-06
1.42205e-06
1.41829e-06
1.41406e-06
1.30784e-06
1.28959e-06
1.40629e-06
1.41352e-06
1.39616e-06
1.40731e-06
1.41338e-06
1.40421e-06
1.4024e-06
1.30827e-06
1.30233e-06
1.42805e-06
1.42152e-06
1.41573e-06
1.2924e-06
1.30218e-06
1.28277e-06
1.42194e-06
1.42451e-06
1.41907e-06
1.41777e-06
1.29749e-06
1.29833e-06
1.40291e-06
1.41278e-06
1.39569e-06
1.40815e-06
1.40374e-06
1.40349e-06
1.39708e-06
1.30422e-06
1.30389e-06
1.425e-06
1.41724e-06
1.41021e-06
1.2881e-06
1.3021e-06
1.28315e-06
1.42662e-06
1.423e-06
1.4177e-06
1.41332e-06
1.29301e-06
1.28902e-06
1.40879e-06
1.41654e-06
1.40038e-06
1.40425e-06
1.41052e-06
1.40719e-06
1.40127e-06
1.31444e-06
1.30713e-06
1.42347e-06
1.4097e-06
1.4086e-06
1.29068e-06
1.29739e-06
1.43182e-06
1.42146e-06
1.30328e-06
1.41417e-06
1.41593e-06
1.41169e-06
1.3101e-06
1.41821e-06
1.66929e-06
1.66911e-06
1.66847e-06
1.66869e-06
1.67685e-06
1.67051e-06
5.5764e-07
1.66862e-06
1.67681e-06
1.67043e-06
1.66872e-06
5.57759e-07
1.67175e-06
3.50462e-07
3.50624e-07
3.66201e-07
1.73411e-08
5.59882e-07
2.07881e-08
2.41587e-08
1.38484e-08
3.66135e-07
1.72968e-08
5.5875e-07
2.07994e-08
1.66035e-06
1.66085e-06
1.66074e-06
1.6463e-06
1.64845e-06
1.64878e-06
1.64743e-06
1.21363e-06
3.00593e-07
1.66616e-06
1.63636e-06
1.45493e-06
2.46366e-07
1.65925e-06
2.43638e-08
1.38523e-08
1.20857e-06
1.66556e-06
3.0066e-07
1.63683e-06
1.46044e-06
1.6605e-06
2.44838e-07
1.40973e-07
1.41206e-07
1.62998e-06
1.02038e-07
1.0161e-07
2.23139e-07
1.73323e-08
2.23675e-07
2.24416e-08
1.07444e-08
1.26529e-08
2.07683e-07
1.69878e-08
2.15103e-07
2.17125e-08
1.63813e-06
1.63802e-06
1.63859e-06
1.60938e-06
1.60949e-06
1.6082e-06
1.61003e-06
7.24657e-07
1.76572e-07
1.62447e-06
1.49727e-06
8.03292e-07
1.98934e-07
1.60477e-06
1.06644e-08
1.24259e-08
7.69831e-07
1.63336e-06
1.84934e-07
1.51277e-06
8.53695e-07
1.61459e-06
2.0431e-07
7.27315e-08
7.3649e-08
1.39451e-06
8.02345e-08
8.00506e-08
2.1217e-07
3.04513e-08
2.16397e-07
3.1299e-08
1.48424e-08
1.49969e-08
2.03939e-07
3.05489e-08
2.07235e-07
3.16229e-08
1.59954e-06
1.59902e-06
1.60194e-06
1.58747e-06
1.59315e-06
1.58802e-06
1.589e-06
7.10666e-07
2.07218e-07
1.56513e-06
1.44549e-06
7.12306e-07
2.13451e-07
1.5609e-06
1.47466e-08
1.49584e-08
7.40883e-07
1.58188e-06
2.10929e-07
1.46188e-06
7.49323e-07
1.57796e-06
2.10877e-07
7.56732e-08
7.97518e-08
1.31161e-06
7.46249e-08
7.83208e-08
1.95431e-07
3.25864e-08
1.99698e-07
3.48068e-08
1.51471e-08
1.54693e-08
1.94446e-07
3.19479e-08
1.90862e-07
3.29846e-08
1.59314e-06
1.58812e-06
1.58507e-06
1.58763e-06
1.59503e-06
1.59033e-06
1.59124e-06
6.92848e-07
2.12632e-07
1.55968e-06
1.44168e-06
6.93847e-07
2.21245e-07
1.56435e-06
1.47952e-08
1.5153e-08
7.1322e-07
1.57499e-06
2.21036e-07
1.44758e-06
7.19929e-07
1.57952e-06
2.26012e-07
7.35815e-08
7.97959e-08
1.30164e-06
7.57465e-08
8.08494e-08
2.00449e-07
3.54358e-08
1.94867e-07
3.58942e-08
1.55811e-08
1.57335e-08
1.98685e-07
3.38333e-08
1.94668e-07
3.44819e-08
1.59198e-06
1.587e-06
1.59801e-06
1.57432e-06
1.585e-06
1.58069e-06
1.58825e-06
6.94534e-07
2.31481e-07
1.57591e-06
1.44208e-06
6.91991e-07
2.37127e-07
1.57501e-06
1.5741e-08
1.58446e-08
7.46663e-07
1.57863e-06
2.29105e-07
1.47704e-06
7.46138e-07
1.58462e-06
2.33832e-07
7.85764e-08
8.23805e-08
1.30177e-06
8.03529e-08
8.48698e-08
2.07615e-07
3.63232e-08
2.03097e-07
3.6545e-08
1.55666e-08
1.53026e-08
1.9735e-07
3.4537e-08
1.96065e-07
3.46876e-08
1.57236e-06
1.56763e-06
1.57244e-06
1.5517e-06
1.55631e-06
1.54656e-06
1.55742e-06
7.03405e-07
2.3533e-07
1.56804e-06
1.43663e-06
7.00411e-07
2.39812e-07
1.56686e-06
1.61763e-08
1.63288e-08
7.48595e-07
1.57959e-06
2.41726e-07
1.47285e-06
7.49402e-07
1.57539e-06
2.43982e-07
8.30895e-08
8.38741e-08
1.30073e-06
8.43522e-08
8.45188e-08
2.08754e-07
3.60665e-08
2.06396e-07
3.65373e-08
1.52111e-08
1.52723e-08
1.97957e-07
3.50599e-08
1.98804e-07
3.55852e-08
1.54193e-06
1.53004e-06
1.54295e-06
1.51007e-06
1.52324e-06
1.51657e-06
1.52661e-06
7.04507e-07
2.31802e-07
1.54883e-06
1.43595e-06
7.03438e-07
2.3482e-07
1.54202e-06
1.62567e-08
1.62233e-08
7.45847e-07
1.56368e-06
2.4692e-07
1.45243e-06
7.48959e-07
1.55012e-06
2.42842e-07
8.32114e-08
8.71535e-08
1.29472e-06
8.32209e-08
8.63196e-08
2.05895e-07
3.62446e-08
2.08462e-07
3.64753e-08
1.5539e-08
1.58586e-08
1.96361e-07
3.48752e-08
1.96975e-07
3.48118e-08
1.50959e-06
1.50014e-06
1.51127e-06
1.48025e-06
1.49577e-06
1.47913e-06
1.49098e-06
7.02491e-07
2.35341e-07
1.52215e-06
1.4254e-06
7.11368e-07
2.32725e-07
1.51785e-06
1.59664e-08
1.59626e-08
7.47281e-07
1.53209e-06
2.4195e-07
1.42849e-06
7.35961e-07
1.52861e-06
2.43009e-07
8.2769e-08
8.50048e-08
1.29143e-06
8.2997e-08
8.63234e-08
2.08791e-07
3.61308e-08
2.10114e-07
3.62247e-08
1.61143e-08
1.6169e-08
1.96219e-07
3.44257e-08
1.93456e-07
3.45324e-08
1.48516e-06
1.46088e-06
1.47228e-06
1.46519e-06
1.48019e-06
1.46214e-06
1.47258e-06
7.01834e-07
2.31029e-07
1.50954e-06
1.40499e-06
6.97296e-07
2.3529e-07
1.49738e-06
1.59815e-08
1.61307e-08
7.33784e-07
1.52496e-06
2.38638e-07
1.42872e-06
7.37025e-07
1.5141e-06
2.39189e-07
8.37587e-08
8.44971e-08
1.28725e-06
8.2113e-08
8.48028e-08
2.12292e-07
3.63076e-08
2.08829e-07
3.56842e-08
1.60274e-08
1.60072e-08
1.92993e-07
3.45942e-08
1.95033e-07
3.53098e-08
1.46226e-06
1.45757e-06
1.45477e-06
1.46985e-06
1.46021e-06
1.46216e-06
1.47838e-06
7.1231e-07
2.32202e-07
1.497e-06
1.40971e-06
7.19485e-07
2.31297e-07
1.4949e-06
1.6234e-08
1.64577e-08
7.46591e-07
1.50954e-06
2.38124e-07
1.42236e-06
7.33023e-07
1.50513e-06
2.40242e-07
8.17741e-08
8.44916e-08
1.28227e-06
8.34693e-08
8.50611e-08
2.10173e-07
3.53285e-08
2.14243e-07
3.56569e-08
1.59651e-08
1.58958e-08
1.97538e-07
3.50672e-08
1.95425e-07
3.52788e-08
1.45758e-06
1.44775e-06
1.46123e-06
1.46243e-06
1.45151e-06
1.45226e-06
1.46444e-06
7.05408e-07
2.31787e-07
1.49306e-06
1.40305e-06
7.03015e-07
2.32105e-07
1.49105e-06
1.6457e-08
1.63483e-08
7.40117e-07
1.50247e-06
2.39381e-07
1.42429e-06
7.36385e-07
1.50123e-06
2.44583e-07
8.30279e-08
8.35047e-08
1.29035e-06
8.42947e-08
8.35684e-08
1.95691e-07
3.524e-08
2.05943e-07
3.46608e-08
1.58984e-08
1.59729e-08
3.49938e-08
1.95218e-07
1.44103e-06
1.44168e-06
1.43703e-06
7.03449e-07
2.32333e-07
1.49212e-06
1.40623e-06
6.9709e-07
2.39638e-07
1.4908e-06
1.61931e-08
7.20557e-07
1.50348e-06
2.42701e-07
7.37251e-07
1.494e-06
8.48819e-08
8.36905e-08
1.28289e-06
8.41933e-08
8.35897e-08
1.6718e-06
3.50414e-07
3.50337e-07
5.98915e-09
2.14128e-07
5.98345e-09
2.13923e-07
1.67008e-06
1.09064e-07
1.08969e-07
3.80769e-07
3.8076e-07
1.67677e-06
1.67037e-06
5.57572e-07
1.66874e-06
1.67682e-06
1.67046e-06
5.56711e-07
1.66858e-06
1.03476e-06
2.29486e-09
2.12599e-07
5.56075e-07
1.03376e-06
2.21486e-09
2.12653e-07
5.54229e-07
1.67401e-06
1.66768e-06
1.7601e-07
1.66553e-06
6.13609e-07
1.66763e-06
1.52581e-06
1.67304e-06
1.66768e-06
1.74214e-07
1.66602e-06
6.12983e-07
1.66766e-06
1.52524e-06
1.67188e-06
3.5068e-07
3.5002e-07
5.92482e-09
2.13491e-07
1.66993e-06
1.08861e-07
1.09082e-07
3.79088e-07
3.80489e-07
5.98142e-09
2.13646e-07
1.6768e-06
1.67031e-06
5.57669e-07
1.66869e-06
1.67681e-06
1.67035e-06
1.66851e-06
5.57055e-07
1.03426e-06
2.31435e-09
2.12687e-07
5.54783e-07
1.67306e-06
1.66778e-06
1.75511e-07
1.66556e-06
6.13765e-07
1.66781e-06
1.52776e-06
1.03295e-06
2.31316e-09
2.12417e-07
5.54424e-07
1.673e-06
1.6677e-06
1.6657e-06
1.7577e-07
1.66774e-06
6.13236e-07
1.5272e-06
1.66927e-06
1.669e-06
1.66825e-06
1.66843e-06
1.66906e-06
1.66894e-06
1.66838e-06
1.66823e-06
1.66904e-06
1.66906e-06
1.6685e-06
1.66831e-06
1.6668e-06
1.66736e-06
1.66256e-06
1.66235e-06
1.66689e-06
1.66665e-06
1.66201e-06
1.66681e-06
1.66759e-06
1.66282e-06
1.663e-06
1.66666e-06
1.66695e-06
1.66188e-06
1.66719e-06
1.66756e-06
1.66306e-06
1.66268e-06
1.66678e-06
1.66691e-06
1.66293e-06
1.66711e-06
1.66753e-06
1.66294e-06
1.66316e-06
1.66662e-06
1.66686e-06
1.66261e-06
1.67683e-06
1.67039e-06
1.66844e-06
5.57243e-07
1.6742e-06
1.66774e-06
1.76609e-07
1.66545e-06
6.13695e-07
1.66788e-06
1.52801e-06
1.03224e-06
2.30765e-09
2.12493e-07
5.5435e-07
1.67306e-06
1.66777e-06
1.66549e-06
1.76012e-07
1.66755e-06
6.13691e-07
1.52806e-06
1.03146e-06
2.31259e-09
2.12333e-07
5.53795e-07
1.67185e-06
3.50767e-07
3.50193e-07
5.99986e-09
2.13585e-07
1.66986e-06
1.09624e-07
1.09176e-07
3.79346e-07
3.80603e-07
6.00609e-09
2.13231e-07
1.67678e-06
1.67036e-06
1.66831e-06
5.57535e-07
1.67417e-06
1.66767e-06
1.66543e-06
1.75528e-07
1.66775e-06
6.13884e-07
1.52412e-06
1.67309e-06
1.6678e-06
1.66642e-06
1.75789e-07
1.6678e-06
6.13893e-07
1.52518e-06
1.03256e-06
2.30699e-09
2.12464e-07
5.54127e-07
1.03157e-06
2.30836e-09
2.12368e-07
5.51627e-07
1.67008e-06
1.09298e-07
1.09123e-07
3.7903e-07
3.79211e-07
5.98858e-09
2.13849e-07
5.98237e-09
2.13783e-07
2.39268e-08
1.37692e-08
2.39549e-08
1.38571e-08
1.40586e-07
1.40631e-07
1.62972e-06
1.01407e-07
1.01843e-07
1.05691e-08
1.17525e-08
1.05505e-08
1.17691e-08
1.61352e-06
7.50694e-08
7.37179e-08
9.093e-08
9.12393e-08
3.62885e-07
1.71408e-08
5.57931e-07
2.0823e-08
1.21503e-06
2.99064e-07
1.66556e-06
1.63719e-06
1.45558e-06
2.46256e-07
1.66075e-06
1.20384e-06
2.9827e-07
1.66468e-06
1.63685e-06
1.45897e-06
2.44788e-07
1.66145e-06
3.04342e-07
1.74258e-08
1.86973e-08
2.36892e-07
3.12795e-07
1.73526e-08
1.86925e-08
2.31708e-07
1.10677e-06
1.61461e-06
1.89129e-07
1.64501e-06
2.16979e-07
1.65515e-06
9.01606e-07
1.11946e-06
1.61458e-06
1.90534e-07
1.64699e-06
2.19865e-07
1.65433e-06
8.9529e-07
1.40637e-07
1.40813e-07
1.6296e-06
1.01752e-07
1.02143e-07
2.39677e-08
1.38518e-08
1.0675e-08
1.17255e-08
1.61379e-06
7.72131e-08
7.47785e-08
9.1655e-08
9.13002e-08
1.0615e-08
1.17377e-08
1.21608e-06
2.9946e-07
1.66593e-06
1.63629e-06
1.45387e-06
2.46006e-07
1.65958e-06
3.64839e-07
1.72428e-08
5.56473e-07
2.07419e-08
1.21267e-06
1.6655e-06
3.00107e-07
1.63647e-06
1.45345e-06
1.65994e-06
2.45509e-07
3.0576e-07
1.70767e-08
1.87399e-08
2.21746e-07
1.10232e-06
1.62257e-06
1.78991e-07
1.64362e-06
2.18707e-07
1.6566e-06
8.83376e-07
3.0674e-07
1.69238e-08
1.88061e-08
2.17334e-07
1.10633e-06
1.6214e-06
1.64279e-06
1.79087e-07
1.65597e-06
2.20409e-07
8.59016e-07
3.64925e-07
1.72348e-08
5.5773e-07
2.07437e-08
1.20322e-06
1.6658e-06
2.98684e-07
1.63598e-06
1.45499e-06
1.65969e-06
2.46543e-07
3.6344e-07
1.72179e-08
5.57819e-07
2.06959e-08
1.10516e-06
1.61867e-06
1.7842e-07
1.64351e-06
2.18893e-07
1.6566e-06
8.87453e-07
3.10715e-07
1.7015e-08
1.88151e-08
2.20631e-07
1.11716e-06
1.62131e-06
1.64308e-06
1.7926e-07
1.65627e-06
2.17432e-07
8.53214e-07
3.10359e-07
1.69163e-08
1.8844e-08
2.19014e-07
1.41232e-07
1.4145e-07
1.62857e-06
1.01483e-07
1.01115e-07
2.41398e-08
1.37742e-08
1.05921e-08
1.17745e-08
1.61301e-06
7.4489e-08
7.5273e-08
9.13517e-08
9.1347e-08
1.06128e-08
1.17509e-08
1.20522e-06
1.66441e-06
2.99114e-07
1.63702e-06
1.4551e-06
1.66192e-06
2.43813e-07
3.66534e-07
1.72549e-08
5.5841e-07
2.06501e-08
3.63709e-07
1.7219e-08
5.55301e-07
2.07899e-08
1.11006e-06
1.61434e-06
1.64563e-06
1.87081e-07
1.65516e-06
2.17487e-07
9.15443e-07
1.11816e-06
1.61547e-06
1.64714e-06
1.86653e-07
1.65439e-06
2.20802e-07
8.98176e-07
3.07428e-07
1.72114e-08
1.88214e-08
2.35633e-07
3.1276e-07
1.73331e-08
1.87348e-08
2.35868e-07
2.39622e-08
1.38276e-08
2.40764e-08
1.38405e-08
1.61037e-06
7.44861e-08
7.48231e-08
9.10833e-08
9.10869e-08
1.05678e-08
1.17662e-08
1.0614e-08
1.17356e-08
1.06513e-08
1.25393e-08
1.06523e-08
1.25228e-08
7.41395e-08
7.40467e-08
1.3938e-06
7.98195e-08
7.78418e-08
1.47082e-08
1.36704e-08
1.48179e-08
1.35245e-08
1.38061e-06
7.94923e-08
7.65345e-08
7.84308e-08
7.99847e-08
2.27965e-07
1.74107e-08
2.26246e-07
2.13699e-08
7.70084e-07
1.90335e-07
1.63169e-06
1.51254e-06
8.74898e-07
2.10365e-07
1.6124e-06
7.82418e-07
1.9124e-07
1.63009e-06
1.51525e-06
8.57586e-07
2.12404e-07
1.61571e-06
2.27119e-07
3.03519e-08
2.58866e-08
2.23972e-07
2.22006e-07
2.98935e-08
2.39238e-08
2.21718e-07
7.75588e-07
1.49406e-06
2.24688e-07
1.58599e-06
2.17739e-07
1.60024e-06
7.62507e-07
7.75034e-07
1.49424e-06
2.25275e-07
1.58977e-06
2.23655e-07
1.60018e-06
7.61146e-07
7.63923e-08
7.36428e-08
1.40544e-06
8.07297e-08
7.8176e-08
1.06751e-08
1.22881e-08
1.49882e-08
1.34302e-08
1.39069e-06
8.01648e-08
7.61221e-08
8.32101e-08
8.01776e-08
1.45805e-08
1.3071e-08
7.31499e-07
1.80113e-07
1.62431e-06
1.4995e-06
8.2219e-07
1.96118e-07
1.60708e-06
2.19167e-07
1.68031e-08
2.15098e-07
2.11738e-08
7.41377e-07
1.62365e-06
1.78228e-07
1.49356e-06
8.12203e-07
1.60341e-06
1.97968e-07
2.14246e-07
3.01499e-08
2.42786e-08
2.09866e-07
7.68646e-07
1.48071e-06
2.15246e-07
1.5791e-06
1.9852e-07
1.59088e-06
7.30639e-07
2.1586e-07
2.93178e-08
2.38798e-08
2.11165e-07
7.36298e-07
1.47446e-06
1.5768e-06
2.12688e-07
1.58986e-06
2.06923e-07
7.20149e-07
2.12688e-07
1.69366e-08
2.17448e-07
2.07267e-08
7.22106e-07
1.62284e-06
1.81796e-07
1.48934e-06
8.17113e-07
1.60504e-06
1.98631e-07
2.14218e-07
1.69696e-08
2.1377e-07
2.07917e-08
7.42148e-07
1.47053e-06
2.08138e-07
1.57638e-06
2.0253e-07
1.58969e-06
7.22785e-07
2.18251e-07
2.84811e-08
2.36567e-08
2.09443e-07
7.47507e-07
1.47314e-06
1.57657e-06
2.13005e-07
1.58807e-06
2.13552e-07
7.19814e-07
2.25204e-07
2.88347e-08
2.37634e-08
2.10307e-07
7.44165e-08
7.40427e-08
1.4023e-06
7.80793e-08
7.83677e-08
1.06561e-08
1.24888e-08
1.4796e-08
1.34332e-08
1.3887e-06
7.82406e-08
7.70462e-08
8.05358e-08
7.70557e-08
1.43417e-08
1.33326e-08
8.00934e-07
1.63175e-06
1.87326e-07
1.5104e-06
8.73925e-07
1.61601e-06
2.0528e-07
2.17743e-07
1.75037e-08
2.39172e-07
2.10308e-08
2.25967e-07
1.74973e-08
2.30009e-07
2.07635e-08
7.73046e-07
1.4853e-06
1.58975e-06
2.12952e-07
1.60168e-06
2.13792e-07
7.6801e-07
7.79154e-07
1.49166e-06
1.58892e-06
2.15937e-07
1.60043e-06
2.13926e-07
7.51868e-07
2.27593e-07
2.82465e-08
2.28118e-08
2.18482e-07
2.26705e-07
2.89738e-08
2.41355e-08
2.21693e-07
1.06344e-08
1.25355e-08
1.06845e-08
1.23689e-08
1.38847e-06
7.80734e-08
8.05953e-08
7.90989e-08
8.36468e-08
1.42461e-08
1.33236e-08
1.46222e-08
1.34232e-08
1.49763e-08
1.46314e-08
1.52028e-08
1.48803e-08
8.22745e-08
8.11e-08
1.31911e-06
7.73295e-08
7.7357e-08
1.50315e-08
1.50646e-08
1.5117e-08
1.51251e-08
1.33644e-06
7.90718e-08
7.94948e-08
7.91334e-08
7.92077e-08
2.0882e-07
3.1347e-08
2.17524e-07
3.11563e-08
7.3412e-07
2.22472e-07
1.57601e-06
1.46344e-06
7.57785e-07
2.1811e-07
1.56818e-06
7.50299e-07
2.24019e-07
1.57854e-06
1.46473e-06
7.5389e-07
2.17042e-07
1.57318e-06
2.15026e-07
3.20163e-08
3.2503e-08
2.03625e-07
2.13963e-07
3.28724e-08
3.25979e-08
2.01934e-07
7.61282e-07
1.46331e-06
2.29361e-07
1.56279e-06
2.22945e-07
1.56494e-06
7.24969e-07
7.43493e-07
1.46311e-06
2.24221e-07
1.56805e-06
2.29735e-07
1.5687e-06
7.29712e-07
8.34976e-08
7.8236e-08
1.31939e-06
8.00451e-08
7.62066e-08
1.46234e-08
1.45946e-08
1.51604e-08
1.52573e-08
1.32165e-06
8.07631e-08
7.76629e-08
8.44397e-08
7.98066e-08
1.52696e-08
1.49257e-08
7.15093e-07
2.20413e-07
1.56993e-06
1.45388e-06
7.4913e-07
2.09584e-07
1.56483e-06
2.02716e-07
3.11775e-08
2.14355e-07
3.12327e-08
7.18493e-07
1.56737e-06
2.21628e-07
1.44552e-06
7.33675e-07
1.56385e-06
2.07945e-07
2.11483e-07
3.21218e-08
3.30658e-08
1.94013e-07
7.32404e-07
1.45046e-06
2.16848e-07
1.5603e-06
2.22888e-07
1.56013e-06
6.94223e-07
2.02852e-07
3.19359e-08
3.18678e-08
1.94841e-07
7.40386e-07
1.4435e-06
1.56124e-06
2.15054e-07
1.56054e-06
2.13938e-07
6.95854e-07
2.06785e-07
3.0421e-08
2.21078e-07
3.07501e-08
7.0086e-07
1.56502e-06
2.17011e-07
1.44617e-06
7.39382e-07
1.55843e-06
2.09826e-07
2.009e-07
3.0112e-08
2.212e-07
3.07093e-08
7.44862e-07
1.44225e-06
2.12976e-07
1.55835e-06
2.14318e-07
1.55657e-06
6.98495e-07
2.11953e-07
3.177e-08
3.15354e-08
2.00581e-07
7.07684e-07
1.44877e-06
1.55045e-06
2.04202e-07
1.55257e-06
2.04355e-07
7.01936e-07
2.02597e-07
3.03452e-08
3.04494e-08
1.91283e-07
8.09816e-08
8.00975e-08
1.31758e-06
7.77992e-08
7.87447e-08
1.47242e-08
1.46131e-08
1.49849e-08
1.50328e-08
1.32962e-06
7.58998e-08
7.93453e-08
7.79898e-08
8.19505e-08
1.49594e-08
1.47398e-08
7.44107e-07
1.58032e-06
2.19382e-07
1.46254e-06
7.69213e-07
1.57524e-06
2.11436e-07
2.10454e-07
2.99254e-08
2.25977e-07
3.06714e-08
2.11357e-07
3.04355e-08
2.28976e-07
3.13596e-08
7.66207e-07
1.44088e-06
1.57351e-06
2.22164e-07
1.57611e-06
2.21371e-07
7.24287e-07
7.55169e-07
1.46153e-06
1.57071e-06
2.21666e-07
1.57363e-06
2.20959e-07
7.1778e-07
2.15503e-07
3.18656e-08
3.22738e-08
2.0359e-07
2.15697e-07
3.24625e-08
3.21564e-08
2.03721e-07
1.45783e-08
1.41843e-08
1.51321e-08
1.50922e-08
1.33664e-06
7.69457e-08
8.14367e-08
7.66002e-08
8.13134e-08
1.45177e-08
1.41758e-08
1.52201e-08
1.48587e-08
1.55556e-08
1.58003e-08
1.57647e-08
1.57257e-08
8.30779e-08
8.30143e-08
1.29326e-06
8.3668e-08
8.354e-08
1.62319e-08
1.60904e-08
1.5747e-08
1.56976e-08
1.31062e-06
8.56085e-08
8.44753e-08
8.55018e-08
8.60393e-08
1.99116e-07
3.35041e-08
2.13494e-07
3.3571e-08
7.03058e-07
2.29282e-07
1.56746e-06
1.45471e-06
7.40824e-07
2.33077e-07
1.5729e-06
7.07483e-07
2.33614e-07
1.5703e-06
1.46073e-06
7.35401e-07
2.30958e-07
1.57463e-06
2.04273e-07
3.55765e-08
3.58608e-08
1.95682e-07
2.06128e-07
3.41205e-08
3.41653e-08
2.01218e-07
7.18415e-07
1.45378e-06
2.44597e-07
1.57946e-06
2.43445e-07
1.57501e-06
7.16052e-07
7.23151e-07
1.45375e-06
2.33658e-07
1.58252e-06
2.38517e-07
1.57685e-06
7.16696e-07
8.49307e-08
7.93102e-08
1.29885e-06
8.20352e-08
8.14283e-08
1.51067e-08
1.53525e-08
1.55665e-08
1.59448e-08
1.30903e-06
8.35769e-08
8.30024e-08
8.41999e-08
8.41095e-08
1.59587e-08
1.59979e-08
6.84484e-07
2.19607e-07
1.56191e-06
1.44872e-06
7.10315e-07
2.22856e-07
1.56919e-06
1.94972e-07
3.32733e-08
2.00051e-07
3.30633e-08
6.89733e-07
1.56582e-06
2.23225e-07
1.43599e-06
6.97495e-07
1.57023e-06
2.16638e-07
2.00297e-07
3.46779e-08
3.39187e-08
2.00497e-07
6.95963e-07
1.44664e-06
2.31518e-07
1.57467e-06
2.27333e-07
1.57054e-06
6.96062e-07
2.04718e-07
3.40198e-08
3.4312e-08
2.1035e-07
7.08825e-07
1.44077e-06
1.57361e-06
2.24281e-07
1.57202e-06
2.22526e-07
7.02198e-07
1.93708e-07
3.27844e-08
2.04173e-07
3.31614e-08
6.71159e-07
1.55299e-06
2.08675e-07
1.43843e-06
6.95209e-07
1.55752e-06
2.07222e-07
1.88939e-07
3.11302e-08
1.93477e-07
3.15992e-08
7.26227e-07
1.4472e-06
2.34411e-07
1.57284e-06
2.29944e-07
1.57089e-06
6.96526e-07
2.03269e-07
3.3461e-08
3.39253e-08
1.91772e-07
7.0556e-07
1.44302e-06
1.5643e-06
2.17406e-07
1.56042e-06
2.12697e-07
6.7104e-07
1.92414e-07
3.29526e-08
3.238e-08
1.88523e-07
7.85625e-08
8.26181e-08
1.28667e-06
7.80072e-08
8.11103e-08
1.52196e-08
1.53202e-08
1.57717e-08
1.53672e-08
1.30409e-06
7.99702e-08
8.21249e-08
8.27589e-08
8.31135e-08
1.55295e-08
1.55368e-08
7.19688e-07
1.57347e-06
2.26946e-07
1.46845e-06
7.31764e-07
1.5777e-06
2.27464e-07
2.00914e-07
3.36001e-08
2.08488e-07
3.35389e-08
2.02291e-07
3.46507e-08
2.15638e-07
3.41714e-08
7.36759e-07
1.43867e-06
1.57918e-06
2.29369e-07
1.5731e-06
2.36613e-07
7.40974e-07
7.37841e-07
1.45535e-06
1.58539e-06
2.36031e-07
1.58046e-06
2.35092e-07
7.25915e-07
2.0744e-07
3.40368e-08
3.27955e-08
2.07451e-07
2.12522e-07
3.52236e-08
3.56861e-08
2.02691e-07
1.43603e-08
1.48168e-08
1.54737e-08
1.56616e-08
1.30421e-06
8.21709e-08
8.46665e-08
7.96788e-08
8.66659e-08
1.53798e-08
1.51182e-08
1.58242e-08
1.589e-08
1.66022e-08
1.63621e-08
1.60766e-08
1.57797e-08
8.90087e-08
8.8568e-08
1.3025e-06
8.74955e-08
8.37516e-08
1.65668e-08
1.66949e-08
1.58957e-08
1.61782e-08
1.32248e-06
8.91781e-08
8.42895e-08
9.06286e-08
8.52124e-08
2.04125e-07
3.506e-08
2.07555e-07
3.48491e-08
7.23414e-07
2.54196e-07
1.5812e-06
1.45327e-06
7.20131e-07
2.49819e-07
1.58187e-06
7.24249e-07
2.47453e-07
1.5843e-06
1.45815e-06
7.14178e-07
2.33879e-07
1.5827e-06
2.07634e-07
3.73474e-08
3.66992e-08
2.04812e-07
2.13258e-07
3.44778e-08
3.46769e-08
2.04278e-07
7.4473e-07
1.44719e-06
2.48584e-07
1.57831e-06
2.57207e-07
1.57899e-06
7.29919e-07
7.30846e-07
1.45511e-06
2.35563e-07
1.57964e-06
2.38675e-07
1.58199e-06
7.19544e-07
8.62114e-08
8.70239e-08
1.29985e-06
8.42563e-08
8.54896e-08
1.62178e-08
1.62635e-08
1.55677e-08
1.58938e-08
1.30382e-06
8.24632e-08
8.59601e-08
8.63229e-08
8.91535e-08
1.62889e-08
1.62949e-08
6.95402e-07
2.36303e-07
1.57569e-06
1.43779e-06
7.11763e-07
2.31042e-07
1.57541e-06
2.03535e-07
3.60982e-08
2.03025e-07
3.53248e-08
7.05157e-07
1.57649e-06
2.30589e-07
1.43341e-06
7.15595e-07
1.5739e-06
2.29292e-07
2.01086e-07
3.4845e-08
3.55455e-08
2.02354e-07
7.1906e-07
1.42827e-06
2.35288e-07
1.56684e-06
2.40703e-07
1.57167e-06
7.05431e-07
2.09711e-07
3.50643e-08
3.64697e-08
2.03246e-07
7.14712e-07
1.42645e-06
1.56754e-06
2.37891e-07
1.57171e-06
2.43556e-07
7.10131e-07
1.95009e-07
3.52636e-08
2.04536e-07
3.46299e-08
6.97305e-07
1.56798e-06
2.25129e-07
1.44469e-06
6.84318e-07
1.56777e-06
2.25219e-07
1.97306e-07
3.46136e-08
2.04225e-07
3.4272e-08
7.06207e-07
1.44289e-06
2.37038e-07
1.57024e-06
2.431e-07
1.57297e-06
7.02978e-07
2.02027e-07
3.47325e-08
3.50173e-08
1.9971e-07
7.06349e-07
1.45036e-06
1.56699e-06
2.31179e-07
1.56661e-06
2.31787e-07
6.93926e-07
1.98494e-07
3.48487e-08
3.55264e-08
1.97011e-07
8.27901e-08
8.6967e-08
1.30892e-06
8.14091e-08
8.41844e-08
1.61792e-08
1.58377e-08
1.63913e-08
1.63217e-08
1.3185e-06
8.50239e-08
8.64548e-08
8.62676e-08
8.87139e-08
1.63849e-08
1.6334e-08
7.3709e-07
1.59042e-06
2.48208e-07
1.44666e-06
7.49878e-07
1.58999e-06
2.42126e-07
2.09007e-07
3.58647e-08
2.19428e-07
3.45032e-08
2.08639e-07
3.66922e-08
2.0982e-07
3.56375e-08
7.74344e-07
1.4648e-06
1.58177e-06
2.46041e-07
1.58464e-06
2.45016e-07
7.74144e-07
7.59654e-07
1.44929e-06
1.58424e-06
2.42507e-07
1.58653e-06
2.50261e-07
7.47408e-07
2.21903e-07
3.55657e-08
3.58589e-08
2.163e-07
2.21023e-07
3.51057e-08
3.6071e-08
2.12957e-07
1.54897e-08
1.55046e-08
1.59092e-08
1.6184e-08
1.31235e-06
8.42435e-08
8.60269e-08
8.47771e-08
8.49496e-08
1.59835e-08
1.59687e-08
1.59925e-08
1.5986e-08
1.69209e-08
1.69717e-08
1.60954e-08
1.60025e-08
9.398e-08
8.74093e-08
1.29936e-06
9.05063e-08
8.39334e-08
1.65925e-08
1.66356e-08
1.60081e-08
1.63455e-08
1.3132e-06
8.9861e-08
8.46547e-08
9.26017e-08
8.38188e-08
2.07808e-07
3.55095e-08
2.104e-07
3.44441e-08
7.30633e-07
2.55938e-07
1.57295e-06
1.44804e-06
7.42311e-07
2.48286e-07
1.56936e-06
7.28362e-07
2.3865e-07
1.57399e-06
1.45465e-06
7.24381e-07
2.28997e-07
1.56854e-06
2.17004e-07
3.66862e-08
3.77973e-08
2.11351e-07
2.12674e-07
3.44461e-08
3.52786e-08
2.07998e-07
7.52211e-07
1.44741e-06
2.48699e-07
1.55791e-06
2.58978e-07
1.56279e-06
7.38964e-07
7.49976e-07
1.44692e-06
2.32758e-07
1.56117e-06
2.32345e-07
1.56273e-06
7.2731e-07
8.47978e-08
8.87951e-08
1.30206e-06
8.09808e-08
8.72653e-08
1.64392e-08
1.61672e-08
1.52959e-08
1.54432e-08
1.30259e-06
7.95139e-08
8.61024e-08
8.41119e-08
8.96505e-08
1.60334e-08
1.66725e-08
7.03408e-07
2.34628e-07
1.56308e-06
1.43624e-06
7.1099e-07
2.31748e-07
1.55945e-06
2.03178e-07
3.61668e-08
2.03873e-07
3.56757e-08
6.98957e-07
1.56282e-06
2.47228e-07
1.43366e-06
7.01592e-07
1.55776e-06
2.41504e-07
2.03297e-07
3.52962e-08
3.51519e-08
2.02153e-07
7.11921e-07
1.42905e-06
2.34997e-07
1.55002e-06
2.36365e-07
1.5561e-06
7.05663e-07
2.06533e-07
3.59536e-08
3.78924e-08
1.98576e-07
7.29644e-07
1.43009e-06
1.54891e-06
2.43178e-07
1.55379e-06
2.49047e-07
6.98727e-07
1.99746e-07
3.55037e-08
2.06429e-07
3.48913e-08
6.98176e-07
1.56588e-06
2.4328e-07
1.44742e-06
7.06231e-07
1.56347e-06
2.33086e-07
1.96172e-07
3.61493e-08
2.02685e-07
3.49431e-08
7.40052e-07
1.42782e-06
2.3453e-07
1.55592e-06
2.40392e-07
1.56017e-06
7.06962e-07
2.07632e-07
3.49111e-08
3.54817e-08
2.00686e-07
7.27622e-07
1.45044e-06
1.55495e-06
2.34657e-07
1.55746e-06
2.38331e-07
7.12626e-07
2.03405e-07
3.51466e-08
3.55774e-08
1.98322e-07
8.67958e-08
8.90921e-08
1.31344e-06
8.71381e-08
8.77657e-08
1.65579e-08
1.63701e-08
1.63275e-08
1.6719e-08
1.32619e-06
8.69122e-08
8.92713e-08
8.90047e-08
9.37255e-08
1.64635e-08
1.67221e-08
7.49448e-07
1.5806e-06
2.5404e-07
1.44612e-06
7.62023e-07
1.57757e-06
2.45901e-07
2.15215e-07
3.59918e-08
2.22638e-07
3.60785e-08
2.15054e-07
3.62812e-08
2.1737e-07
3.53269e-08
7.74391e-07
1.47184e-06
1.56557e-06
2.46623e-07
1.57191e-06
2.58206e-07
7.73577e-07
7.59898e-07
1.44439e-06
1.57171e-06
2.43406e-07
1.57356e-06
2.50373e-07
7.50854e-07
2.23156e-07
3.60403e-08
3.67079e-08
2.19797e-07
2.19809e-07
3.57541e-08
3.63582e-08
2.17623e-07
1.62562e-08
1.61611e-08
1.58632e-08
1.59287e-08
1.2983e-06
8.5177e-08
8.6929e-08
8.92385e-08
9.07534e-08
1.59968e-08
1.64958e-08
1.6226e-08
1.63799e-08
1.68461e-08
1.69674e-08
1.62006e-08
1.60706e-08
9.2411e-08
8.41644e-08
1.29574e-06
8.92844e-08
8.30735e-08
1.67341e-08
1.70643e-08
1.6275e-08
1.63472e-08
1.31767e-06
9.02198e-08
8.51124e-08
9.23739e-08
8.57341e-08
2.12778e-07
3.50184e-08
2.12418e-07
3.46043e-08
7.30551e-07
2.54532e-07
1.54758e-06
1.4531e-06
7.43055e-07
2.48328e-07
1.54316e-06
7.34831e-07
2.39801e-07
1.55065e-06
1.43316e-06
7.36214e-07
2.34293e-07
1.54511e-06
2.13719e-07
3.71759e-08
3.77958e-08
2.14162e-07
2.17143e-07
3.49777e-08
3.55319e-08
2.11714e-07
7.30483e-07
1.44901e-06
2.51985e-07
1.53709e-06
2.5841e-07
1.5388e-06
7.28101e-07
7.49528e-07
1.42731e-06
2.33272e-07
1.53863e-06
2.4329e-07
1.53909e-06
7.37086e-07
8.35907e-08
8.72877e-08
1.28553e-06
7.99308e-08
8.42053e-08
1.63391e-08
1.59713e-08
1.55406e-08
1.55123e-08
1.29888e-06
8.16969e-08
8.48866e-08
8.49822e-08
8.73644e-08
1.60608e-08
1.61408e-08
7.03426e-07
2.39733e-07
1.54498e-06
1.43263e-06
7.21018e-07
2.33261e-07
1.53689e-06
1.97288e-07
3.67151e-08
2.01668e-07
3.58999e-08
7.0568e-07
1.54154e-06
2.52763e-07
1.42623e-06
7.11347e-07
1.53491e-06
2.38841e-07
2.01525e-07
3.57357e-08
3.71274e-08
2.06117e-07
7.18433e-07
1.42343e-06
2.34895e-07
1.52408e-06
2.42105e-07
1.53136e-06
7.04342e-07
2.06294e-07
3.54159e-08
3.75043e-08
2.01163e-07
7.06932e-07
1.43326e-06
1.52528e-06
2.36953e-07
1.53166e-06
2.46798e-07
7.15479e-07
1.98854e-07
3.5563e-08
2.04635e-07
3.45079e-08
7.12301e-07
1.54841e-06
2.40918e-07
1.42586e-06
7.24271e-07
1.5438e-06
2.348e-07
2.03731e-07
3.59698e-08
2.08246e-07
3.50391e-08
7.35565e-07
1.43503e-06
2.32736e-07
1.53057e-06
2.41378e-07
1.53604e-06
7.27356e-07
2.09084e-07
3.45322e-08
3.55818e-08
1.9913e-07
7.4301e-07
1.4236e-06
1.53427e-06
2.32359e-07
1.53839e-06
2.35151e-07
7.03364e-07
2.07901e-07
3.50929e-08
3.65428e-08
1.99261e-07
8.86795e-08
9.19866e-08
1.30132e-06
8.62326e-08
8.92631e-08
1.67919e-08
1.6488e-08
1.60763e-08
1.64015e-08
1.31004e-06
8.35935e-08
9.03298e-08
8.67126e-08
8.96613e-08
1.63943e-08
1.64885e-08
7.45159e-07
1.56585e-06
2.54956e-07
1.43791e-06
7.53346e-07
1.56293e-06
2.43853e-07
2.1351e-07
3.67088e-08
2.23601e-07
3.58103e-08
2.15866e-07
3.66476e-08
2.22968e-07
3.61615e-08