/*--------------------------------*- C++ -*----------------------------------*\
| =========                 |                                                 |
| \\      /  F ield         | OpenFOAM: The Open Source CFD Toolbox           |
|  \\    /   O peration     | Version:  2206                                  |
|   \\  /    A nd           | Website:  www.openfoam.com                      |
|    \\/     M anipulation  |                                                 |
\*---------------------------------------------------------------------------*/
FoamFile
{
    version     2.0;
    format      ascii;
    arch        "LSB;label=32;scalar=64";
    class       volScalarField;
    location    "20";
    object      p;
}
// * * * * * * * * * * * * * * * * * * * * * * * * * * * * * * * * * * * * * //

dimensions      [0 2 -2 0 0 0 0];

internalField   nonuniform List<scalar> 
66616
(
-0.000537768
-0.000509636
-0.000509543
-0.000458128
-0.00121389
-0.00123115
-0.00123061
-0.00120593
-0.00160653
-0.00160853
-0.00160861
-0.00158741
-0.00196465
-0.00196682
-0.00196685
-0.0019452
-0.00231299
-0.00231424
-0.00231429
-0.00229448
-0.00264633
-0.00264662
-0.00264665
-0.00262725
-0.00297308
-0.00297309
-0.00297319
-0.00295374
-0.00329717
-0.00329712
-0.00329725
-0.00327788
-0.00361946
-0.00361943
-0.00361954
-0.00360032
-0.00394064
-0.0039406
-0.00394069
-0.0039215
-0.00426181
-0.00426173
-0.00426182
-0.00424268
-0.00458345
-0.00458335
-0.0045836
-0.00456455
-0.000381386
-0.000395423
-0.000395359
-0.000381313
-0.000395361
-0.000395423
-0.000394516
-0.000394479
-0.000394493
-0.000394458
-0.000395306
-0.000395367
-0.000381354
-0.000395321
-0.000395249
-0.000381271
-0.00045828
-0.00113484
-0.000510045
-0.000509961
-0.00109306
-0.00109299
-0.000458211
-0.00113475
-0.000509727
-0.000510098
-0.00109368
-0.00109363
-0.000510001
-0.00109359
-0.00109351
-0.000458242
-0.00113482
-0.000509499
-0.0010931
-0.001093
-0.00113469
-0.00120607
-0.00154207
-0.00123061
-0.00123056
-0.00152177
-0.00152169
-0.00120598
-0.00154194
-0.00123128
-0.00123128
-0.00152179
-0.00152171
-0.00123113
-0.0015217
-0.00152162
-0.00120605
-0.00154198
-0.00123055
-0.00152173
-0.00152165
-0.00154187
-0.00158755
-0.00189787
-0.00160868
-0.00160862
-0.00187708
-0.00187703
-0.00158742
-0.00189783
-0.00160864
-0.00160858
-0.00187702
-0.00187701
-0.00160851
-0.00187699
-0.00187695
-0.00158745
-0.00189783
-0.00160861
-0.00187702
-0.00187697
-0.00189779
-0.00194525
-0.00224996
-0.0019669
-0.00196687
-0.00222934
-0.0022293
-0.00194522
-0.00224987
-0.00196687
-0.00196687
-0.00222937
-0.00222931
-0.00196683
-0.00222925
-0.00222921
-0.00194521
-0.00224991
-0.00196681
-0.00222929
-0.00222923
-0.00224985
-0.00229457
-0.00258426
-0.00231438
-0.00231433
-0.00256448
-0.00256441
-0.00229447
-0.00258414
-0.00231439
-0.00231435
-0.00256447
-0.00256439
-0.00231427
-0.00256435
-0.00256428
-0.00229452
-0.00258418
-0.00231431
-0.00256441
-0.00256433
-0.0025841
-0.00262738
-0.00291131
-0.00264675
-0.00264669
-0.00289187
-0.00289179
-0.00262726
-0.00291118
-0.00264674
-0.0026467
-0.00289189
-0.00289184
-0.0026466
-0.00289178
-0.00289169
-0.0026273
-0.00291127
-0.00264665
-0.00289186
-0.00289175
-0.00291112
-0.0029539
-0.00323575
-0.00297321
-0.00297315
-0.00321645
-0.00321634
-0.00295378
-0.0032356
-0.00297322
-0.00297321
-0.00321647
-0.00321645
-0.00297307
-0.00321635
-0.0032163
-0.00295387
-0.00323571
-0.00297311
-0.00321646
-0.00321635
-0.00323557
-0.00327801
-0.00355838
-0.00329726
-0.00329715
-0.00353919
-0.0035391
-0.00327786
-0.00355828
-0.00329727
-0.00329726
-0.00353921
-0.0035392
-0.00329714
-0.00353911
-0.00353911
-0.00327797
-0.00355839
-0.00329718
-0.00353923
-0.00353915
-0.00355833
-0.00360033
-0.00387962
-0.00361953
-0.00361949
-0.00386053
-0.00386047
-0.00360026
-0.00387961
-0.00361954
-0.00361953
-0.00386052
-0.00386054
-0.00361947
-0.0038605
-0.00386049
-0.00360035
-0.00387966
-0.00361953
-0.00386057
-0.0038605
-0.00387962
-0.00392145
-0.00420069
-0.00394068
-0.00394065
-0.00418162
-0.00418165
-0.00392145
-0.0042007
-0.00394061
-0.00394064
-0.00418165
-0.00418166
-0.00394065
-0.00418171
-0.00418167
-0.00392148
-0.00420072
-0.00394072
-0.00418168
-0.00418167
-0.00420074
-0.0042426
-0.00452218
-0.00426181
-0.00426187
-0.00450316
-0.00450327
-0.00424261
-0.00452229
-0.00426169
-0.0042617
-0.00450324
-0.00450325
-0.00426175
-0.00450338
-0.00450336
-0.00424262
-0.0045222
-0.00426189
-0.00450319
-0.00450326
-0.00452231
-0.00456438
-0.00458359
-0.0045837
-0.0045645
-0.00458322
-0.00458323
-0.00458339
-0.00456437
-0.00458371
-0.000243794
-0.000192819
-0.000219394
-0.000219401
-9.34421e-05
-0.000171117
-7.7689e-05
-0.000201546
-9.3433e-05
-0.000171122
-0.000201565
-7.76514e-05
-0.000140826
-7.4982e-05
-7.48927e-05
-0.000795048
-0.000264282
-0.000368394
-0.000825344
-0.000339615
-0.000817549
-0.000795352
-0.000264308
-0.000368447
-0.000825557
-0.000537711
-0.000537724
-0.000537686
-0.00107525
-0.00107518
-0.00107524
-0.00107517
-0.000780292
-0.00036769
-0.000517503
-0.000717991
-0.000413784
-0.000795851
-0.00071879
-0.000339685
-0.000817751
-0.000780112
-0.000517297
-0.000367714
-0.000718062
-0.000413771
-0.000718855
-0.000795769
-0.00041467
-0.000414504
-0.000769459
-0.000798555
-0.000798502
-0.00138709
-0.00126554
-0.00124907
-0.00139456
-0.00126644
-0.00139633
-0.00138761
-0.00126568
-0.00125005
-0.00139449
-0.00121385
-0.00121391
-0.00121385
-0.00151767
-0.00151757
-0.00151761
-0.00151754
-0.00137546
-0.00124179
-0.00122291
-0.00134048
-0.00122788
-0.00138237
-0.00133437
-0.00126667
-0.00139629
-0.00137494
-0.00122147
-0.00124121
-0.00134016
-0.00122645
-0.00133339
-0.00138222
-0.00125119
-0.00125107
-0.00136631
-0.00138944
-0.00138946
-0.00171661
-0.0015895
-0.0015895
-0.00171659
-0.00159011
-0.00171693
-0.00171669
-0.00158929
-0.00158921
-0.00171661
-0.00160648
-0.00160652
-0.00160648
-0.00187505
-0.00187498
-0.00187501
-0.00187496
-0.0017156
-0.00159021
-0.00160763
-0.00169683
-0.00158978
-0.00171609
-0.00169634
-0.00158994
-0.00171697
-0.00171558
-0.00160761
-0.0015905
-0.00169693
-0.00159012
-0.00169638
-0.00171609
-0.00159008
-0.0015903
-0.00171691
-0.00171702
-0.00171702
-0.00207515
-0.00194386
-0.00194378
-0.00207546
-0.0019438
-0.00207537
-0.00207541
-0.00194388
-0.00194376
-0.0020756
-0.0019646
-0.00196462
-0.00196459
-0.00222763
-0.00222754
-0.00222756
-0.0022275
-0.00207422
-0.00194506
-0.0019661
-0.00205561
-0.00194508
-0.00207464
-0.00205485
-0.00194386
-0.00207557
-0.002074
-0.00196609
-0.00194509
-0.00205563
-0.00194514
-0.00205482
-0.00207454
-0.00194389
-0.00194389
-0.00207649
-0.00207523
-0.00207512
-0.00241804
-0.00229359
-0.00229362
-0.00241823
-0.00229346
-0.0024181
-0.00241825
-0.00229358
-0.00229357
-0.00241829
-0.00231294
-0.00231296
-0.00231292
-0.00256391
-0.00256384
-0.00256386
-0.0025638
-0.00241692
-0.00229441
-0.00231374
-0.00239831
-0.00229457
-0.00241718
-0.00239789
-0.00229354
-0.00241831
-0.00241681
-0.00231374
-0.00229455
-0.00239837
-0.0022947
-0.00239791
-0.00241721
-0.00229345
-0.00229346
-0.00241844
-0.00241792
-0.00241788
-0.00274817
-0.00262727
-0.00262731
-0.00274833
-0.00262709
-0.00274823
-0.00274835
-0.00262726
-0.00262723
-0.00274844
-0.00264631
-0.00264634
-0.0026463
-0.00289174
-0.00289162
-0.00289169
-0.00289159
-0.00274696
-0.00262794
-0.00264642
-0.0027286
-0.00262811
-0.00274725
-0.0027284
-0.00262716
-0.0027484
-0.0027469
-0.00264647
-0.00262812
-0.00272863
-0.00262832
-0.00272847
-0.00274726
-0.00262709
-0.00262714
-0.00274805
-0.00274801
-0.00274797
-0.0030738
-0.00295401
-0.00295407
-0.00307398
-0.0029539
-0.00307396
-0.00307402
-0.00295404
-0.00295401
-0.00307408
-0.00297303
-0.00297309
-0.00297303
-0.00321637
-0.00321626
-0.00321634
-0.00321625
-0.00307256
-0.00295472
-0.00297298
-0.00305433
-0.00295485
-0.0030729
-0.00305421
-0.00295397
-0.0030741
-0.00307253
-0.00297307
-0.0029549
-0.00305443
-0.00295511
-0.00305432
-0.00307291
-0.00295385
-0.00295394
-0.00307364
-0.0030737
-0.00307367
-0.00339731
-0.00327818
-0.00327829
-0.00339745
-0.00327813
-0.00339743
-0.00339754
-0.00327824
-0.00327827
-0.00339756
-0.00329711
-0.0032972
-0.00329713
-0.00353912
-0.00353903
-0.0035391
-0.00353903
-0.00339609
-0.00327886
-0.00329709
-0.00337794
-0.00327906
-0.00339638
-0.00337787
-0.00327821
-0.00339763
-0.00339606
-0.00329717
-0.00327912
-0.00337806
-0.00327935
-0.00337797
-0.00339649
-0.00327806
-0.00327816
-0.00339715
-0.00339719
-0.00339718
-0.00371898
-0.00360058
-0.00360064
-0.00371911
-0.00360043
-0.00371911
-0.0037192
-0.00360061
-0.00360061
-0.0037192
-0.00361944
-0.0036195
-0.00361947
-0.00386046
-0.00386042
-0.00386046
-0.00386043
-0.00371793
-0.0036013
-0.0036194
-0.00369988
-0.00360146
-0.00371813
-0.00369982
-0.00360056
-0.00371927
-0.00371782
-0.00361948
-0.00360154
-0.00369998
-0.00360174
-0.00369992
-0.00371819
-0.00360052
-0.0036006
-0.00371905
-0.00371899
-0.00371894
-0.00403995
-0.00392153
-0.00392163
-0.00404004
-0.00392149
-0.00404009
-0.00404009
-0.00392156
-0.00392158
-0.00404014
-0.00394067
-0.0039407
-0.00394071
-0.0041816
-0.00418161
-0.0041816
-0.0041816
-0.00403896
-0.00392242
-0.0039406
-0.00402108
-0.00392263
-0.00403921
-0.00402104
-0.00392154
-0.00404018
-0.00403885
-0.00394065
-0.00392256
-0.00402109
-0.00392283
-0.00402105
-0.00403914
-0.00392162
-0.00392169
-0.00404018
-0.00404003
-0.00403995
-0.00436114
-0.00424263
-0.00424276
-0.00436119
-0.00424262
-0.00436126
-0.00436115
-0.00424258
-0.00424259
-0.00436114
-0.00426188
-0.00426185
-0.00426189
-0.00450314
-0.00450321
-0.00450314
-0.00450322
-0.00436023
-0.0042436
-0.00426173
-0.00434246
-0.00424382
-0.00436043
-0.00434242
-0.00424256
-0.00436118
-0.0043601
-0.0042618
-0.00424366
-0.00434232
-0.00424396
-0.00434235
-0.00436031
-0.00424281
-0.00424285
-0.00436143
-0.00436126
-0.00436118
-0.00468319
-0.00456446
-0.00456467
-0.00468288
-0.0045645
-0.00468319
-0.00456424
-0.00456428
-0.00458357
-0.0045835
-0.0045836
-0.00468203
-0.00456546
-0.00458329
-0.00466455
-0.0045657
-0.00468228
-0.00466461
-0.00456419
-0.00468217
-0.00458361
-0.00456547
-0.00456583
-0.00466479
-0.00456461
-0.00456469
-0.0046834
-0.00468311
-0.00468307
-0.000140871
-7.48154e-05
-7.48642e-05
-0.000190583
-0.000107061
-0.000190682
-0.000107117
-0.000187235
-0.000282662
-0.000282454
-0.000105954
-0.00010599
-9.34363e-05
-0.000170874
-7.77308e-05
-0.000201626
-9.34243e-05
-0.000170825
-7.7767e-05
-0.000201557
-0.000111648
-9.23213e-05
-0.000125487
-0.000330053
-0.000111632
-9.21868e-05
-0.000125525
-0.000330024
-0.000147016
-0.000212468
-0.000260536
-0.000365201
-0.000108361
-0.000247021
-0.00034123
-0.000147017
-0.000212419
-0.000260254
-0.000365195
-0.000108369
-0.000246984
-0.000341188
-0.000140876
-7.49726e-05
-7.48342e-05
-0.000190673
-0.000107091
-0.000187218
-0.000282782
-0.000282557
-0.000106027
-0.000105929
-0.000190547
-0.000107096
-9.34534e-05
-0.000171135
-7.77699e-05
-0.000201609
-9.34837e-05
-0.000170859
-0.000201545
-7.77306e-05
-0.000111659
-9.23799e-05
-0.00012555
-0.000330172
-0.000147021
-0.000212902
-0.00026053
-0.000365209
-0.000108393
-0.000246997
-0.000341331
-0.000111653
-9.24784e-05
-0.000125519
-0.000330177
-0.000147039
-0.000212456
-0.000365212
-0.00026062
-0.000246966
-0.000108371
-0.000341331
-0.000243792
-0.000192798
-0.000219361
-0.00021935
-0.000243805
-0.000192817
-0.000219378
-0.000219367
-0.000243807
-0.000192745
-0.00021934
-0.000219358
-0.000296455
-0.00023344
-0.000416903
-0.000416863
-0.000266375
-0.000266351
-0.000438915
-0.000296462
-0.0002334
-0.000416887
-0.000416824
-0.000266333
-0.000266313
-0.000438895
-0.000296474
-0.00023343
-0.000416873
-0.000416886
-0.000266324
-0.000266358
-0.000438955
-0.000296497
-0.000233347
-0.000416831
-0.000416878
-0.000266304
-0.000266349
-0.000438937
-9.34637e-05
-0.000170835
-0.00020154
-7.77454e-05
-0.000146972
-0.000212884
-0.00026044
-0.000365142
-0.000108296
-0.000246971
-0.000341225
-0.000111634
-9.22254e-05
-0.000125453
-0.000330058
-0.000146982
-0.000212392
-0.00036514
-0.000260532
-0.000246941
-0.000108353
-0.000341234
-0.000111615
-9.2238e-05
-0.000125516
-0.000330075
-0.000140878
-7.49705e-05
-7.48046e-05
-0.000190827
-0.000107088
-0.000187245
-0.000282907
-0.000282578
-0.000106076
-0.000105931
-0.000190591
-0.000107055
-9.3437e-05
-0.000171066
-0.00020155
-7.76706e-05
-0.000146999
-0.000212919
-0.000365205
-0.000260455
-0.000247016
-0.000108274
-0.000341177
-0.000146995
-0.000212811
-0.0003652
-0.000260403
-0.000246987
-0.000108274
-0.000341182
-0.000111625
-9.22832e-05
-0.000125407
-0.000330011
-0.000111608
-9.21086e-05
-0.000125423
-0.000330014
-0.000187166
-0.000282926
-0.00028266
-0.000106057
-0.000105936
-0.000190605
-0.000107103
-0.000190588
-0.000106943
-0.000339695
-0.000817656
-0.000339724
-0.000817826
-0.00041469
-0.000414569
-0.000769589
-0.000798586
-0.000798742
-0.00120623
-0.000888984
-0.00120647
-0.000889075
-0.0008759
-0.00118783
-0.00118834
-0.000885874
-0.000885981
-0.000795005
-0.000264126
-0.000368394
-0.000825262
-0.000780218
-0.000367824
-0.00051745
-0.000717978
-0.000413862
-0.00079583
-0.000718957
-0.000780182
-0.000367689
-0.000517431
-0.000717881
-0.000413849
-0.000795759
-0.000718939
-0.00089714
-0.00120641
-0.000903037
-0.00118724
-0.000897119
-0.00120631
-0.000902966
-0.00118721
-0.000889724
-0.000919874
-0.00117493
-0.00108353
-0.000895908
-0.00091343
-0.00115672
-0.000889701
-0.000919779
-0.00117484
-0.00108352
-0.000895821
-0.000913406
-0.0011567
-0.00041462
-0.0004146
-0.000769477
-0.00079854
-0.000798608
-0.000339595
-0.000817683
-0.00120614
-0.000888883
-0.000875804
-0.00118777
-0.00118815
-0.000885798
-0.000885844
-0.00120625
-0.000888932
-0.000780433
-0.000367844
-0.000517595
-0.000718081
-0.000413921
-0.000795953
-0.000718894
-0.000795336
-0.000264244
-0.000368458
-0.000825527
-0.000780429
-0.000517609
-0.000367799
-0.000717914
-0.000413928
-0.000718833
-0.000795945
-0.00089729
-0.00120663
-0.000903144
-0.00118823
-0.000889989
-0.00092004
-0.0011759
-0.00108493
-0.000896045
-0.000913888
-0.00115822
-0.000897283
-0.00120659
-0.000903123
-0.00118822
-0.000889991
-0.000919942
-0.00108486
-0.00117589
-0.000913756
-0.00089601
-0.00115824
-0.000795204
-0.000264122
-0.000368346
-0.000825448
-0.000780295
-0.000517522
-0.000367692
-0.000717823
-0.000413812
-0.00071873
-0.00079585
-0.000795207
-0.000264091
-0.000368344
-0.000825413
-0.000889844
-0.000919941
-0.0011757
-0.00108483
-0.000895908
-0.000913784
-0.00115806
-0.000897123
-0.0012064
-0.000902999
-0.00118802
-0.000889839
-0.000919838
-0.00108474
-0.0011757
-0.000913653
-0.000895895
-0.00115805
-0.000897119
-0.00120639
-0.000902978
-0.00118799
-0.0004147
-0.000414625
-0.000769531
-0.00079869
-0.000798587
-0.00033961
-0.00081762
-0.00120645
-0.000889027
-0.000875841
-0.00118832
-0.00118776
-0.000885946
-0.000885861
-0.00120614
-0.00088894
-0.000780089
-0.000517289
-0.000367646
-0.000718017
-0.000413785
-0.000718841
-0.00079569
-0.000794967
-0.000264178
-0.000368358
-0.000825321
-0.000794953
-0.000264074
-0.000368348
-0.000825234
-0.000889668
-0.00091989
-0.00108357
-0.0011748
-0.00091342
-0.000895865
-0.00115663
-0.000889667
-0.000919826
-0.00108354
-0.00117476
-0.000913395
-0.000895803
-0.00115661
-0.000897066
-0.00120629
-0.000902976
-0.00118714
-0.000897067
-0.00120624
-0.000902931
-0.00118711
-0.000339546
-0.000817645
-0.000339562
-0.000817505
-0.000875753
-0.0011881
-0.00118771
-0.000885811
-0.000885765
-0.00120622
-0.00088889
-0.00120609
-0.000888827
-0.00126652
-0.00139645
-0.00126666
-0.00139628
-0.00125118
-0.00125146
-0.00136647
-0.00138966
-0.00138969
-0.00154804
-0.00143605
-0.00154787
-0.0014358
-0.00141476
-0.00154744
-0.00154736
-0.00143191
-0.00143178
-0.00138707
-0.00126547
-0.00124905
-0.00139453
-0.00137501
-0.00124125
-0.00122145
-0.00134019
-0.00122652
-0.00138233
-0.00133341
-0.00137499
-0.00124121
-0.00122144
-0.00134013
-0.00122653
-0.00138228
-0.00133339
-0.00142961
-0.001547
-0.00143433
-0.00154617
-0.00142959
-0.00154687
-0.00143427
-0.00154612
-0.00142337
-0.00143411
-0.00154488
-0.00151961
-0.00142803
-0.0014299
-0.00154321
-0.00142335
-0.00143402
-0.00154476
-0.00151957
-0.00142798
-0.00142985
-0.00154315
-0.00125116
-0.0012512
-0.00136634
-0.00138954
-0.00138957
-0.00126644
-0.00139611
-0.00154792
-0.00143591
-0.00141464
-0.00154733
-0.00154709
-0.00143187
-0.00143152
-0.00154761
-0.00143558
-0.00137569
-0.00124199
-0.00122304
-0.00134063
-0.00122806
-0.00138263
-0.0013345
-0.00138761
-0.00126567
-0.00125004
-0.00139451
-0.00137568
-0.00122299
-0.001242
-0.00134061
-0.00122807
-0.00133446
-0.00138263
-0.00142967
-0.00154683
-0.00143414
-0.00154609
-0.00142355
-0.00143429
-0.00154487
-0.00151982
-0.00142804
-0.00143047
-0.00154319
-0.00142965
-0.00154672
-0.00143407
-0.00154606
-0.00142356
-0.00143423
-0.00151979
-0.00154479
-0.00143042
-0.00142801
-0.00154318
-0.00138735
-0.00126546
-0.00124983
-0.00139428
-0.00137546
-0.00122286
-0.0012418
-0.00134047
-0.00122788
-0.00133434
-0.00138234
-0.00138736
-0.00126547
-0.00124984
-0.00139424
-0.00142337
-0.00143418
-0.00154458
-0.00151972
-0.00142775
-0.00143037
-0.00154299
-0.00142941
-0.00154652
-0.0014339
-0.00154583
-0.00142336
-0.0014341
-0.0015197
-0.00154457
-0.00143033
-0.00142776
-0.001543
-0.00142941
-0.00154647
-0.00143384
-0.00154583
-0.00125144
-0.00125114
-0.0013664
-0.00138969
-0.00138959
-0.00126643
-0.00139635
-0.00154775
-0.00143575
-0.00141469
-0.00154727
-0.0015473
-0.00143173
-0.0014318
-0.00154791
-0.00143594
-0.00137493
-0.00122147
-0.00124114
-0.00134012
-0.00122645
-0.00133339
-0.00138216
-0.00138702
-0.00126544
-0.00124896
-0.00139449
-0.00138702
-0.0012654
-0.00124895
-0.00139442
-0.00142328
-0.00143408
-0.00151953
-0.00154471
-0.00142986
-0.00142792
-0.00154311
-0.00142328
-0.00143398
-0.00151949
-0.00154472
-0.00142982
-0.00142785
-0.00154308
-0.0014295
-0.00154685
-0.00143425
-0.001546
-0.00142948
-0.00154677
-0.00143415
-0.001546
-0.00126642
-0.00139604
-0.00126637
-0.00139626
-0.00141457
-0.00154706
-0.0015472
-0.00143154
-0.0014317
-0.00154753
-0.00143553
-0.00154778
-0.00143583
-0.00159022
-0.00171702
-0.00159007
-0.00171702
-0.00159054
-0.0015904
-0.00171703
-0.00171723
-0.0017172
-0.00189706
-0.0017635
-0.00189711
-0.00176348
-0.00176454
-0.00189691
-0.00189699
-0.00176398
-0.00176394
-0.00171661
-0.00158936
-0.00158948
-0.00171651
-0.00171564
-0.00159061
-0.00160774
-0.001697
-0.00159027
-0.00171617
-0.00169649
-0.00171565
-0.0015905
-0.00160772
-0.00169695
-0.00159024
-0.00171609
-0.00169647
-0.00176343
-0.0018969
-0.00176323
-0.00189659
-0.00176341
-0.00189677
-0.00176316
-0.00189655
-0.00176514
-0.0017868
-0.00189612
-0.00187642
-0.00176505
-0.00178626
-0.00189555
-0.00176513
-0.00178673
-0.00189605
-0.0018764
-0.00176492
-0.00178624
-0.00189553
-0.00159045
-0.00159012
-0.00171694
-0.00171712
-0.00171709
-0.0015898
-0.00171689
-0.00189693
-0.00176342
-0.00176444
-0.00189682
-0.0018969
-0.00176392
-0.00176379
-0.00189704
-0.00176335
-0.0017157
-0.00159046
-0.00160776
-0.00169695
-0.00159001
-0.0017162
-0.00169645
-0.00171671
-0.00158919
-0.0015892
-0.00171656
-0.00171572
-0.00160775
-0.00159032
-0.00169688
-0.00159003
-0.00169644
-0.00171616
-0.00176331
-0.00189696
-0.00176324
-0.0018968
-0.00176498
-0.00178673
-0.00189626
-0.00187641
-0.00176497
-0.00178622
-0.00189573
-0.00176332
-0.00189692
-0.00176315
-0.00189679
-0.001765
-0.00178669
-0.0018764
-0.00189622
-0.00178621
-0.00176491
-0.00189572
-0.00171655
-0.00158899
-0.00158897
-0.0017165
-0.00171561
-0.00160768
-0.00159019
-0.00169682
-0.00158983
-0.00169638
-0.00171601
-0.00171655
-0.00158893
-0.00158899
-0.00171638
-0.00176488
-0.00178666
-0.00189615
-0.00187635
-0.00176481
-0.00178616
-0.00189564
-0.00176318
-0.00189686
-0.0017631
-0.00189667
-0.00176491
-0.00178661
-0.00187635
-0.00189613
-0.00178616
-0.00176479
-0.00189563
-0.00176321
-0.00189681
-0.00176299
-0.00189669
-0.00159029
-0.00159039
-0.00171695
-0.00171717
-0.00171713
-0.0015901
-0.00171695
-0.00189706
-0.00176339
-0.00176446
-0.00189696
-0.00189683
-0.00176387
-0.0017639
-0.00189695
-0.0017634
-0.00171557
-0.00160763
-0.00159044
-0.00169692
-0.00159015
-0.00169639
-0.00171597
-0.00171654
-0.00158933
-0.00158936
-0.00171652
-0.00171653
-0.00158927
-0.00158937
-0.00171644
-0.00176507
-0.00178673
-0.00187636
-0.00189605
-0.00178619
-0.00176493
-0.00189546
-0.00176508
-0.00178667
-0.00187633
-0.00189599
-0.00178617
-0.00176485
-0.00189544
-0.00176336
-0.00189675
-0.00176316
-0.00189647
-0.00176336
-0.0018967
-0.00176308
-0.00189648
-0.00158972
-0.00171679
-0.00158996
-0.00171685
-0.00176436
-0.00189685
-0.00189675
-0.00176372
-0.00176382
-0.00189695
-0.00176325
-0.00189686
-0.00176333
-0.00194392
-0.00207558
-0.00194393
-0.00207566
-0.00194405
-0.00194407
-0.00207661
-0.00207535
-0.00207546
-0.00224906
-0.00212119
-0.00224912
-0.00212124
-0.00212262
-0.0022489
-0.00224898
-0.00212133
-0.00212135
-0.00207514
-0.00194377
-0.00194375
-0.00207533
-0.00207409
-0.00194513
-0.00196616
-0.0020557
-0.00194527
-0.00207462
-0.00205491
-0.00207409
-0.00194509
-0.00196615
-0.00205568
-0.00194526
-0.00207451
-0.0020549
-0.0021211
-0.00224904
-0.00212121
-0.00224887
-0.0021211
-0.00224895
-0.00212108
-0.00224883
-0.00212243
-0.00214317
-0.0022482
-0.00222866
-0.00212237
-0.0021424
-0.00224777
-0.00212242
-0.00214314
-0.0022481
-0.00222864
-0.00212229
-0.00214237
-0.00224774
-0.001944
-0.00194392
-0.00207656
-0.00207514
-0.00207533
-0.00194379
-0.0020755
-0.00224898
-0.00212101
-0.00212257
-0.0022488
-0.00224877
-0.0021212
-0.0021211
-0.00224895
-0.00212103
-0.00207433
-0.00194516
-0.00196618
-0.00205569
-0.00194523
-0.00207475
-0.00205495
-0.00207542
-0.00194382
-0.00194375
-0.00207556
-0.00207435
-0.0019662
-0.00194509
-0.00205567
-0.00194522
-0.00205494
-0.00207471
-0.00212111
-0.00224913
-0.00212125
-0.00224907
-0.00212239
-0.00214318
-0.00224832
-0.00222871
-0.00212237
-0.00214245
-0.00224798
-0.00212111
-0.00224913
-0.00212118
-0.00224905
-0.00212241
-0.00214313
-0.00222869
-0.00224827
-0.00214241
-0.00212232
-0.00224797
-0.00207527
-0.00194375
-0.00194362
-0.00207544
-0.00207419
-0.00196613
-0.00194502
-0.0020556
-0.00194512
-0.00205486
-0.00207455
-0.00207525
-0.00194369
-0.00194362
-0.00207543
-0.00212226
-0.00214309
-0.00224809
-0.00222862
-0.00212221
-0.00214237
-0.00224777
-0.00212096
-0.00224893
-0.00212104
-0.00224883
-0.00212227
-0.00214304
-0.00222859
-0.00224814
-0.00214234
-0.00212217
-0.00224776
-0.00212096
-0.00224894
-0.00212104
-0.00224883
-0.00194401
-0.001944
-0.00207657
-0.00207538
-0.00207522
-0.00194379
-0.00207542
-0.00224912
-0.00212114
-0.00212259
-0.00224895
-0.00224877
-0.00212124
-0.00212117
-0.00224894
-0.00212102
-0.00207398
-0.00196608
-0.00194501
-0.0020556
-0.00194514
-0.00205481
-0.0020744
-0.00207503
-0.00194372
-0.00194363
-0.00207535
-0.00207504
-0.00194368
-0.00194365
-0.00207529
-0.00212234
-0.00214313
-0.00222858
-0.00224804
-0.00214233
-0.00212226
-0.00224761
-0.00212232
-0.00214305
-0.00222856
-0.00224799
-0.00214229
-0.00212216
-0.00224759
-0.00212098
-0.00224888
-0.00212106
-0.00224868
-0.00212098
-0.00224881
-0.002121
-0.00224867
-0.00194373
-0.00207546
-0.0019437
-0.00207534
-0.00212245
-0.00224879
-0.00224867
-0.00212112
-0.0021211
-0.00224893
-0.00212101
-0.00224883
-0.00212096
-0.00229352
-0.00241827
-0.00229352
-0.00241828
-0.00229364
-0.00229364
-0.00241863
-0.0024181
-0.00241813
-0.00258426
-0.00246178
-0.0025843
-0.00246175
-0.00246232
-0.00258407
-0.00258413
-0.00246189
-0.00246187
-0.00241805
-0.00229354
-0.00229358
-0.00241811
-0.00241691
-0.00229465
-0.00231385
-0.00239845
-0.00229489
-0.00241728
-0.00239801
-0.0024169
-0.00229458
-0.00231384
-0.00239843
-0.00229487
-0.00241715
-0.00239801
-0.00246185
-0.00258424
-0.00246181
-0.00258406
-0.00246185
-0.00258407
-0.00246173
-0.00258402
-0.002463
-0.00248176
-0.00258329
-0.0025642
-0.00246279
-0.00248139
-0.00258286
-0.00246299
-0.0024817
-0.00258313
-0.00256416
-0.00246273
-0.00248136
-0.00258283
-0.00229359
-0.00229346
-0.00241851
-0.00241793
-0.00241797
-0.00229335
-0.00241813
-0.0025841
-0.00246165
-0.00246221
-0.0025839
-0.00258393
-0.0024618
-0.00246166
-0.0025841
-0.00246155
-0.00241709
-0.00229462
-0.0023139
-0.00239847
-0.00229483
-0.00241735
-0.00239805
-0.00241825
-0.00229359
-0.00229356
-0.0024183
-0.00241711
-0.00231388
-0.00229457
-0.00239841
-0.00229484
-0.00239805
-0.00241736
-0.00246178
-0.0025843
-0.00246178
-0.00258428
-0.00246292
-0.00248177
-0.00258335
-0.0025642
-0.00246275
-0.00248142
-0.00258307
-0.00246178
-0.00258425
-0.00246179
-0.00258425
-0.00246292
-0.00248169
-0.00256419
-0.0025833
-0.0024814
-0.00246271
-0.00258306
-0.00241803
-0.00229338
-0.0022933
-0.00241812
-0.00241693
-0.00231376
-0.00229442
-0.00239829
-0.00229459
-0.0023979
-0.00241719
-0.00241804
-0.00229339
-0.00229332
-0.00241811
-0.00246271
-0.00248163
-0.00258315
-0.00256409
-0.00246256
-0.00248128
-0.00258287
-0.00246157
-0.00258406
-0.00246159
-0.00258402
-0.00246273
-0.00248154
-0.00256406
-0.00258315
-0.00248126
-0.00246254
-0.00258288
-0.00246158
-0.00258405
-0.00246161
-0.00258402
-0.00229363
-0.00229355
-0.00241854
-0.00241811
-0.00241799
-0.00229342
-0.00241817
-0.00258427
-0.00246175
-0.00246224
-0.00258407
-0.00258396
-0.00246182
-0.0024618
-0.00258417
-0.00246169
-0.00241681
-0.00231375
-0.00229448
-0.00239833
-0.00229472
-0.00239791
-0.00241711
-0.00241791
-0.00229345
-0.00229342
-0.00241812
-0.00241792
-0.00229337
-0.00229343
-0.00241807
-0.00246289
-0.00248168
-0.00256413
-0.00258314
-0.00248131
-0.00246272
-0.00258279
-0.00246289
-0.00248159
-0.00256408
-0.00258305
-0.00248127
-0.00246265
-0.00258277
-0.00246173
-0.0025841
-0.00246171
-0.00258394
-0.00246173
-0.00258401
-0.00246164
-0.00258392
-0.00229333
-0.0024181
-0.00229328
-0.00241807
-0.0024621
-0.00258391
-0.00258385
-0.00246165
-0.00246169
-0.00258405
-0.00246156
-0.00258404
-0.00246156
-0.00262722
-0.00274839
-0.00262722
-0.00274847
-0.00262734
-0.00262733
-0.00274825
-0.00274822
-0.00274829
-0.00291151
-0.00279103
-0.00291159
-0.00279103
-0.00279108
-0.00291134
-0.0029114
-0.00279115
-0.00279112
-0.00274815
-0.00262715
-0.00262727
-0.00274822
-0.00274696
-0.00262819
-0.00264658
-0.00272872
-0.00262846
-0.00274735
-0.00272855
-0.00274694
-0.00262813
-0.00264655
-0.00272866
-0.00262843
-0.00274721
-0.00272853
-0.00279109
-0.00291147
-0.00279104
-0.00291132
-0.00279108
-0.00291135
-0.00279093
-0.00291129
-0.00279218
-0.00281037
-0.0029105
-0.00289177
-0.002792
-0.00281023
-0.00291008
-0.00279217
-0.00281031
-0.00291035
-0.00289172
-0.00279191
-0.00281019
-0.00291005
-0.00262723
-0.00262709
-0.00274813
-0.00274798
-0.00274811
-0.00262699
-0.0027482
-0.0029114
-0.00279087
-0.00279096
-0.00291121
-0.00291118
-0.00279103
-0.00279087
-0.00291131
-0.00279077
-0.00274713
-0.00262817
-0.00264655
-0.00272871
-0.00262836
-0.00274744
-0.00272854
-0.00274835
-0.0026272
-0.0026272
-0.00274838
-0.00274713
-0.00264657
-0.00262806
-0.00272867
-0.00262834
-0.00272855
-0.00274744
-0.00279102
-0.00291156
-0.00279105
-0.00291152
-0.00279208
-0.0028104
-0.00291056
-0.00289176
-0.00279195
-0.00281023
-0.00291027
-0.00279103
-0.00291149
-0.00279099
-0.0029115
-0.00279209
-0.00281031
-0.00289175
-0.00291056
-0.00281022
-0.00279191
-0.00291027
-0.00274812
-0.00262702
-0.00262695
-0.00274817
-0.00274696
-0.00264644
-0.00262792
-0.00272855
-0.00262814
-0.00272842
-0.00274719
-0.00274814
-0.00262702
-0.00262698
-0.00274812
-0.00279187
-0.00281028
-0.00291036
-0.00289164
-0.00279172
-0.00281012
-0.00291004
-0.00279079
-0.00291128
-0.00279078
-0.00291123
-0.00279187
-0.00281016
-0.00289162
-0.00291032
-0.00281009
-0.00279168
-0.00291005
-0.00279079
-0.00291126
-0.00279074
-0.00291124
-0.00262723
-0.00262726
-0.00274819
-0.00274823
-0.00274813
-0.00262714
-0.00274832
-0.00291152
-0.00279098
-0.00279102
-0.00291137
-0.00291126
-0.00279107
-0.00279106
-0.00291142
-0.00279096
-0.00274688
-0.00264648
-0.00262804
-0.00272859
-0.00262832
-0.00272846
-0.00274714
-0.00274809
-0.00262719
-0.00262714
-0.00274827
-0.00274808
-0.00262709
-0.00262714
-0.00274815
-0.00279211
-0.00281034
-0.00289172
-0.00291041
-0.00281019
-0.0027919
-0.00291004
-0.00279209
-0.00281021
-0.00289166
-0.0029103
-0.00281013
-0.0027918
-0.00291001
-0.00279102
-0.00291137
-0.00279099
-0.00291124
-0.002791
-0.00291128
-0.00279084
-0.00291122
-0.00262698
-0.00274815
-0.00262702
-0.00274817
-0.00279085
-0.00291114
-0.00291112
-0.00279086
-0.00279093
-0.00291127
-0.00279073
-0.00291132
-0.00279082
-0.00295398
-0.00307403
-0.00295399
-0.00307411
-0.00295412
-0.0029541
-0.00307379
-0.00307384
-0.00307393
-0.00323594
-0.00311634
-0.003236
-0.00311637
-0.00311623
-0.00323573
-0.00323583
-0.00311646
-0.00311646
-0.00307378
-0.00295394
-0.00295405
-0.00307395
-0.00307255
-0.00295493
-0.00297313
-0.00305444
-0.00295518
-0.00307298
-0.00305436
-0.00307255
-0.00295488
-0.00297311
-0.00305439
-0.00295516
-0.00307287
-0.00305434
-0.00311641
-0.00323588
-0.00311637
-0.0032358
-0.0031164
-0.00323583
-0.00311635
-0.00323578
-0.00311746
-0.00313548
-0.00323487
-0.00321637
-0.0031173
-0.00313539
-0.00323455
-0.00311745
-0.0031354
-0.00323481
-0.00321634
-0.00311724
-0.00313536
-0.00323453
-0.00295403
-0.00295388
-0.00307364
-0.00307374
-0.00307376
-0.00295376
-0.00307391
-0.00323588
-0.00311631
-0.00311611
-0.00323566
-0.00323564
-0.00311639
-0.00311627
-0.00323579
-0.00311616
-0.00307278
-0.0029549
-0.00297313
-0.00305445
-0.0029551
-0.00307309
-0.00305436
-0.00307403
-0.002954
-0.00295399
-0.00307408
-0.00307278
-0.00297315
-0.00295488
-0.00305446
-0.00295508
-0.0030544
-0.0030731
-0.00311637
-0.00323599
-0.0031164
-0.00323604
-0.0031174
-0.00313549
-0.00323502
-0.00321639
-0.00311729
-0.00313541
-0.00323475
-0.00311636
-0.00323602
-0.00311639
-0.00323603
-0.0031174
-0.0031355
-0.0032164
-0.00323506
-0.00313543
-0.00311726
-0.00323476
-0.00307379
-0.00295378
-0.00295374
-0.00307389
-0.00307258
-0.00297302
-0.00295466
-0.00305432
-0.00295487
-0.00305426
-0.00307285
-0.00307379
-0.00295375
-0.00295375
-0.00307385
-0.00311714
-0.00313537
-0.0032348
-0.00321627
-0.00311708
-0.00313527
-0.00323454
-0.00311612
-0.00323576
-0.00311619
-0.00323575
-0.00311718
-0.00313532
-0.00321625
-0.00323482
-0.00313527
-0.00311704