/*--------------------------------*- C++ -*----------------------------------*\
| =========                 |                                                 |
| \\      /  F ield         | OpenFOAM: The Open Source CFD Toolbox           |
|  \\    /   O peration     | Version:  2206                                  |
|   \\  /    A nd           | Website:  www.openfoam.com                      |
|    \\/     M anipulation  |                                                 |
\*---------------------------------------------------------------------------*/
FoamFile
{
    version     2.0;
    format      ascii;
    arch        "LSB;label=32;scalar=64";
    class       volScalarField;
    location    "80";
    object      nut;
}
// * * * * * * * * * * * * * * * * * * * * * * * * * * * * * * * * * * * * * //

dimensions      [0 2 -1 0 0 0 0];

internalField   nonuniform List<scalar> 
66940
(
1.39274e-06
8.46981e-07
8.64243e-07
8.37348e-07
1.37688e-06
8.65358e-07
8.711e-07
8.43122e-07
1.39225e-06
8.57336e-07
8.6354e-07
8.35146e-07
1.3964e-06
8.57447e-07
8.63022e-07
8.34548e-07
1.38681e-06
8.67364e-07
8.67221e-07
8.33531e-07
1.40114e-06
8.52763e-07
8.62928e-07
8.37719e-07
1.38975e-06
8.57985e-07
8.5726e-07
8.29647e-07
1.39095e-06
8.57331e-07
8.66245e-07
8.21744e-07
1.33913e-06
8.5863e-07
8.51944e-07
8.08149e-07
1.20223e-06
8.60796e-07
8.63987e-07
7.95945e-07
8.41675e-07
9.05475e-07
9.0611e-07
7.72347e-07
3.94066e-07
6.25895e-07
5.57771e-07
6.72829e-07
8.04881e-07
8.59137e-07
8.6204e-07
8.10004e-07
8.43269e-07
8.67591e-07
8.48477e-07
8.48827e-07
8.21231e-07
8.71006e-07
8.64277e-07
8.15714e-07
8.28656e-07
8.03884e-07
8.64253e-07
8.68406e-07
8.65892e-07
8.51698e-07
8.34638e-07
8.16236e-07
8.54749e-07
8.73113e-07
8.48445e-07
8.69223e-07
8.62545e-07
8.49941e-07
8.62857e-07
8.43628e-07
8.20077e-07
8.60835e-07
8.61045e-07
8.64868e-07
8.1986e-07
8.34533e-07
8.11281e-07
8.68748e-07
8.65853e-07
8.68481e-07
8.67486e-07
8.38945e-07
8.15139e-07
8.5735e-07
8.73422e-07
8.52285e-07
8.65771e-07
8.51096e-07
8.56997e-07
8.60516e-07
8.38979e-07
8.19667e-07
8.69654e-07
8.74688e-07
8.61984e-07
8.03881e-07
8.33059e-07
8.0991e-07
8.69447e-07
8.69209e-07
8.65312e-07
8.69179e-07
8.41053e-07
8.19379e-07
8.52218e-07
8.65353e-07
8.51628e-07
8.66921e-07
8.62116e-07
8.58998e-07
8.64647e-07
8.43214e-07
8.18718e-07
8.59224e-07
8.64507e-07
8.7175e-07
8.18345e-07
8.33493e-07
8.12485e-07
8.65624e-07
8.70123e-07
8.61047e-07
8.725e-07
8.33235e-07
8.09132e-07
8.62969e-07
8.56322e-07
8.50465e-07
8.67649e-07
8.52031e-07
8.69461e-07
8.64557e-07
8.41986e-07
8.24298e-07
8.71421e-07
8.57047e-07
8.63024e-07
8.09614e-07
8.2582e-07
8.06367e-07
8.59767e-07
8.64457e-07
8.52604e-07
8.66155e-07
8.42328e-07
8.08684e-07
8.6215e-07
8.69079e-07
8.58643e-07
8.64979e-07
8.64004e-07
8.57127e-07
8.58381e-07
8.33127e-07
8.24303e-07
8.72261e-07
8.68402e-07
8.60228e-07
8.17449e-07
8.20977e-07
8.13018e-07
8.53641e-07
8.65523e-07
8.69839e-07
8.63756e-07
8.1912e-07
8.03684e-07
8.5678e-07
8.5547e-07
8.55893e-07
8.70846e-07
8.43855e-07
8.62884e-07
8.49391e-07
8.45595e-07
8.25928e-07
8.68682e-07
8.70718e-07
8.56948e-07
8.11284e-07
8.2895e-07
8.18796e-07
8.56417e-07
8.65445e-07
8.69072e-07
8.71912e-07
8.3114e-07
8.07917e-07
8.5224e-07
8.68062e-07
8.58474e-07
8.68858e-07
8.57028e-07
8.63927e-07
8.64109e-07
8.40266e-07
8.18611e-07
8.64247e-07
8.72072e-07
8.68741e-07
8.15451e-07
8.23538e-07
8.20239e-07
8.4418e-07
8.65386e-07
8.51082e-07
8.57187e-07
8.19714e-07
8.16177e-07
8.51116e-07
8.47361e-07
8.68084e-07
8.72366e-07
8.53545e-07
8.63457e-07
8.66197e-07
8.33742e-07
8.26907e-07
8.61993e-07
8.78243e-07
8.65381e-07
8.24547e-07
8.02401e-07
8.48369e-07
8.48781e-07
8.4506e-07
8.63058e-07
8.41542e-07
8.16143e-07
8.42325e-07
8.47414e-07
8.52261e-07
8.58341e-07
8.69426e-07
8.4457e-07
8.62285e-07
8.60947e-07
8.02532e-07
8.62751e-07
8.4137e-07
8.56683e-07
8.64643e-07
8.56254e-07
7.89215e-07
8.65022e-07
8.56433e-07
8.51968e-07
8.02218e-07
8.07228e-07
7.94443e-07
8.72473e-07
8.50499e-07
8.5754e-07
7.98924e-07
8.15499e-07
8.50841e-07
8.02166e-07
8.03523e-07
8.02629e-07
8.81771e-07
8.6092e-07
8.17818e-07
8.05445e-07
8.60961e-07
7.85206e-07
7.98635e-07
8.80086e-07
8.90098e-07
6.18948e-07
6.2056e-07
7.90723e-07
7.93689e-07
8.83921e-07
8.99606e-07
6.17717e-07
6.30884e-07
8.89729e-07
6.28721e-07
6.17972e-07
7.87423e-07
8.14979e-07
8.83305e-07
6.21101e-07
6.13666e-07
7.96699e-07
6.76869e-07
5.52688e-07
5.38915e-07
7.00013e-07
5.5205e-07
5.6518e-07
3.81968e-07
3.98091e-07
3.94587e-07
5.51881e-07
6.91306e-07
5.48734e-07
2.17149e-08
1.37967e-06
1.37707e-06
1.38365e-06
1.3789e-06
4.42935e-07
8.55932e-07
2.21104e-07
1.0187e-06
8.17958e-07
1.16016e-07
1.16323e-07
2.14832e-07
4.77261e-08
2.14339e-07
4.77839e-08
2.18402e-08
2.20705e-08
2.0291e-07
4.63287e-08
2.04062e-07
4.66842e-08
1.39232e-06
1.39683e-06
1.38438e-06
1.36411e-06
1.37785e-06
1.37906e-06
1.37474e-06
4.43652e-07
2.19288e-07
1.01775e-06
8.48417e-07
4.44249e-07
2.21073e-07
1.01178e-06
2.23338e-08
2.21884e-08
4.54444e-07
1.02981e-06
2.251e-07
8.58466e-07
4.53586e-07
1.02441e-06
2.25484e-07
1.16124e-07
1.18132e-07
8.07646e-07
1.17778e-07
1.16635e-07
2.11265e-07
4.76332e-08
2.12062e-07
4.74378e-08
2.19317e-08
2.21116e-08
2.04657e-07
4.67256e-08
2.03018e-07
4.65425e-08
1.39907e-06
1.39993e-06
1.38264e-06
1.36848e-06
1.36708e-06
1.3692e-06
1.37095e-06
4.43141e-07
2.19715e-07
1.02117e-06
8.61125e-07
4.4581e-07
2.20343e-07
1.00427e-06
2.203e-08
2.21582e-08
4.56933e-07
1.03137e-06
2.24361e-07
8.73292e-07
4.56805e-07
1.0239e-06
2.24057e-07
1.1646e-07
1.17308e-07
8.19259e-07
1.16804e-07
1.16933e-07
2.12894e-07
4.74693e-08
2.10735e-07
4.76414e-08
2.22174e-08
2.21338e-08
2.02521e-07
4.67339e-08
2.02392e-07
4.67214e-08
1.38316e-06
1.39737e-06
1.39907e-06
1.37108e-06
1.37094e-06
1.37292e-06
1.37757e-06
4.41024e-07
2.18613e-07
1.01923e-06
8.55671e-07
4.44697e-07
2.1875e-07
1.01841e-06
2.22366e-08
2.22243e-08
4.52804e-07
1.03875e-06
2.24348e-07
8.69681e-07
4.50308e-07
1.0222e-06
2.25516e-07
1.15396e-07
1.17589e-07
8.12856e-07
1.16443e-07
1.16669e-07
2.11638e-07
4.71837e-08
2.11521e-07
4.72624e-08
2.21131e-08
2.18742e-08
2.00129e-07
4.67691e-08
2.01252e-07
4.62676e-08
1.39232e-06
1.40331e-06
1.39297e-06
1.35118e-06
1.37659e-06
1.37807e-06
1.37303e-06
4.4133e-07
2.16404e-07
1.02057e-06
8.68725e-07
4.43446e-07
2.17451e-07
1.01343e-06
2.22516e-08
2.22191e-08
4.51578e-07
1.03987e-06
2.23881e-07
8.74105e-07
4.54595e-07
1.03859e-06
2.23706e-07
1.1529e-07
1.1637e-07
8.15208e-07
1.16023e-07
1.16535e-07
2.12214e-07
4.72278e-08
2.12488e-07
4.6975e-08
2.17653e-08
2.1966e-08
2.02407e-07
4.6595e-08
2.02333e-07
4.64886e-08
1.40696e-06
1.41111e-06
1.41136e-06
1.36072e-06
1.3652e-06
1.36513e-06
1.3692e-06
4.44832e-07
2.17101e-07
1.01393e-06
8.66029e-07
4.41531e-07
2.15315e-07
1.02525e-06
2.21266e-08
2.1964e-08
4.51356e-07
1.03723e-06
2.23236e-07
8.71005e-07
4.53519e-07
1.0381e-06
2.23625e-07
1.14028e-07
1.16632e-07
8.08579e-07
1.14682e-07
1.16861e-07
2.10436e-07
4.73595e-08
2.11814e-07
4.6939e-08
2.17808e-08
2.17588e-08
2.02093e-07
4.6526e-08
1.99457e-07
4.62098e-08
1.40602e-06
1.40852e-06
1.4112e-06
1.3597e-06
1.37576e-06
1.36507e-06
1.37846e-06
4.42852e-07
2.16957e-07
1.02349e-06
8.65594e-07
4.46769e-07
2.18991e-07
1.03216e-06
2.21261e-08
2.21743e-08
4.45509e-07
1.01031e-06
2.19779e-07
8.766e-07
4.53795e-07
1.03095e-06
2.22218e-07
1.14288e-07
1.16116e-07
8.13827e-07
1.1516e-07
1.16896e-07
2.08374e-07
4.72339e-08
2.10071e-07
4.72423e-08
2.17857e-08
2.19387e-08
2.01353e-07
4.55239e-08
2.01165e-07
4.59594e-08
1.40364e-06
1.41626e-06
1.41777e-06
1.38015e-06
1.38296e-06
1.38311e-06
1.37491e-06
4.45629e-07
2.17884e-07
1.0123e-06
8.54982e-07
4.47038e-07
2.20668e-07
1.0358e-06
2.21928e-08
2.19542e-08
4.51284e-07
1.00815e-06
2.20952e-07
8.65022e-07
4.51397e-07
1.04226e-06
2.18782e-07
1.13619e-07
1.1538e-07
8.15731e-07
1.1449e-07
1.16195e-07
2.10739e-07
4.70958e-08
2.11319e-07
4.71462e-08
2.18949e-08
2.1903e-08
2.03407e-07
4.60551e-08
1.99114e-07
4.61994e-08
1.36984e-06
1.37736e-06
1.40088e-06
1.42232e-06
1.42801e-06
1.40836e-06
1.4252e-06
4.42832e-07
2.18386e-07
1.00247e-06
8.6468e-07
4.42713e-07
2.16872e-07
1.05066e-06
2.21425e-08
2.20323e-08
4.51366e-07
1.00531e-06
2.1949e-07
8.75866e-07
4.49591e-07
1.05399e-06
2.18358e-07
1.14128e-07
1.15745e-07
8.14023e-07
1.1373e-07
1.16295e-07
2.11934e-07
4.72717e-08
2.10142e-07
4.76683e-08
2.19976e-08
2.20826e-08
2.02964e-07
4.5885e-08
2.01336e-07
4.61672e-08
1.31551e-06
1.33508e-06
1.34374e-06
1.56527e-06
1.5702e-06
1.58927e-06
1.54502e-06
4.46088e-07
2.179e-07
9.73875e-07
8.67359e-07
4.44173e-07
2.17134e-07
1.07679e-06
2.19803e-08
2.20111e-08
4.59726e-07
9.75847e-07
2.19582e-07
8.73281e-07
4.53027e-07
1.08607e-06
2.21166e-07
1.14722e-07
1.1668e-07
8.31392e-07
1.13103e-07
1.17048e-07
2.14223e-07
4.80211e-08
2.12471e-07
4.7781e-08
2.20645e-08
2.22754e-08
2.02046e-07
4.63583e-08
1.99228e-07
4.65558e-08
1.19164e-06
1.21653e-06
1.19298e-06
1.55953e-06
1.57121e-06
1.58313e-06
1.55533e-06
4.54977e-07
2.14713e-07
9.06128e-07
8.41954e-07
4.44252e-07
2.16952e-07
1.12517e-06
2.2091e-08
2.23758e-08
4.72427e-07
9.04602e-07
2.20695e-07
8.51595e-07
4.63553e-07
1.1427e-06
2.22284e-07
1.14647e-07
1.1698e-07
8.65846e-07
1.14142e-07
1.1666e-07
2.02498e-07
4.82595e-08
2.09596e-07
4.78304e-08
2.2596e-08
2.33707e-08
2.0295e-07
4.76558e-08
2.07654e-07
4.78466e-08
8.35131e-07
8.53186e-07
8.40573e-07
4.69406e-07
4.65518e-07
4.73055e-07
4.66115e-07
4.88515e-07
2.23478e-07
7.7696e-07
7.40046e-07
4.80236e-07
2.10997e-07
9.88443e-07
2.26542e-08
2.35436e-08
4.90339e-07
7.5814e-07
2.26007e-07
7.44576e-07
4.94157e-07
9.66438e-07
2.10074e-07
1.17478e-07
1.19721e-07
8.38171e-07
1.17719e-07
1.17837e-07
2.61608e-07
1.62609e-09
1.48555e-07
2.64746e-08
2.22816e-09
1.47259e-08
2.59868e-07
1.61982e-09
1.49404e-07
2.60519e-08
2.25874e-07
2.43989e-07
2.4086e-07
3.53485e-07
1.93552e-07
2.45065e-07
2.38653e-07
6.27885e-07
8.5264e-08
5.98609e-07
4.97234e-07
6.12529e-07
9.86139e-08
3.60326e-07
2.23441e-09
1.50471e-08
5.98897e-07
5.91164e-07
8.35804e-08
4.86988e-07
6.19153e-07
3.65103e-07
9.80323e-08
4.02984e-08
4.10481e-08
6.25804e-07
4.16168e-08
4.32647e-08
2.17811e-08
2.14688e-08
2.14901e-08
2.14329e-08
8.24668e-07
1.17197e-07
1.16102e-07
1.16521e-07
1.14613e-07
4.69531e-08
8.50883e-07
2.18178e-07
2.09098e-07
4.78243e-08
4.6865e-08
2.14686e-07
2.10357e-07
4.83731e-08
4.75901e-08
2.13139e-07
4.50416e-07
8.62652e-07
2.20474e-07
1.02966e-06
2.16667e-07
1.01172e-06
4.51234e-07
4.53436e-07
8.46159e-07
2.20517e-07
1.01714e-06
2.17954e-07
9.9961e-07
4.54381e-07
8.20203e-07
1.17257e-07
1.19092e-07
2.21049e-08
2.19789e-08
2.16792e-08
8.34796e-07
1.18466e-07
1.19206e-07
1.17698e-07
1.17902e-07
2.21915e-08
2.21144e-08
2.04373e-07
4.65737e-08
4.61917e-08
2.05615e-07
4.3867e-07
8.55858e-07
2.16809e-07
1.01012e-06
2.14548e-07
1.01113e-06
4.37578e-07
2.04806e-07
4.7639e-08
4.76698e-08
2.07296e-07
4.40096e-07
8.60658e-07
1.01561e-06
2.20228e-07
1.02246e-06
2.17114e-07
4.34113e-07
2.06974e-07
4.77319e-08
4.37982e-07
8.571e-07
1.02185e-06
2.16915e-07
2.06173e-07
4.67935e-08
4.43727e-07
8.39915e-07
2.21153e-07
1.01062e-06
2.19341e-07
1.01585e-06
4.41895e-07
2.02851e-07
4.76742e-08
4.78225e-08
2.06504e-07
4.37927e-07
8.55682e-07
1.01391e-06
2.16838e-07
1.01862e-06
2.13348e-07
4.39389e-07
2.04314e-07
4.69887e-08
4.68569e-08
2.07778e-07
2.2194e-08
2.2173e-08
8.47747e-07
1.19684e-07
1.2021e-07
1.17939e-07
1.19588e-07
2.24656e-08
2.21105e-08
4.47477e-07
8.66655e-07
1.02513e-06
2.25709e-07
1.00647e-06
2.22105e-07
4.55347e-07
4.47158e-07
8.65857e-07
1.01992e-06
2.18545e-07
1.00901e-06
2.13685e-07
4.52974e-07
2.06468e-07
4.90468e-08
4.79368e-08
2.11988e-07
2.04452e-07
4.79789e-08
4.67193e-08
2.08571e-07
2.17437e-08
2.16352e-08
8.34548e-07
1.18217e-07
1.19101e-07
1.16494e-07
1.17387e-07
2.19368e-08
2.15912e-08
2.21157e-08
2.16033e-08
2.16387e-08
2.1733e-08
2.15652e-08
2.1548e-08
1.17527e-07
1.15909e-07
8.09585e-07
1.18357e-07
1.16236e-07
2.17689e-08
2.16959e-08
2.15661e-08
2.15429e-08
8.31464e-07
1.18009e-07
1.15791e-07
1.17406e-07
1.15451e-07
2.13931e-07
4.83808e-08
2.10248e-07
4.81411e-08
4.58506e-07
2.1901e-07
1.01908e-06
8.5872e-07
4.57255e-07
2.22037e-07
1.02036e-06
4.60611e-07
2.2328e-07
1.01847e-06
8.65698e-07
4.62485e-07
2.20609e-07
1.02611e-06
2.14024e-07
4.73239e-08
4.81485e-08
2.14141e-07
2.13337e-07
4.78554e-08
4.82765e-08
2.12992e-07
4.58261e-07
8.55483e-07
2.21272e-07
1.01954e-06
2.19928e-07
1.02596e-06
4.53608e-07
4.54613e-07
8.60088e-07
2.19926e-07
1.02183e-06
2.23202e-07
1.03196e-06
4.60174e-07
1.18225e-07
1.18757e-07
8.14853e-07
1.18517e-07
1.19889e-07
2.21365e-08
2.23059e-08
2.2122e-08
2.20024e-08
8.38083e-07
1.18401e-07
1.18908e-07
1.17212e-07
1.18104e-07
2.227e-08
2.2114e-08
4.38102e-07
2.15342e-07
1.01609e-06
8.4794e-07
4.37186e-07
2.17197e-07
1.00412e-06
2.05281e-07
4.80108e-08
2.06099e-07
4.78937e-08
4.37368e-07
1.01935e-06
2.17126e-07
8.69197e-07
4.40192e-07
1.00562e-06
2.20295e-07
2.04177e-07
4.69452e-08
4.69488e-08
2.05054e-07
4.40343e-07
8.61162e-07
2.15572e-07
1.01123e-06
2.13706e-07
1.01858e-06
4.40169e-07
2.06717e-07
4.76966e-08
4.81062e-08
2.05298e-07
4.411e-07
8.72711e-07
1.01655e-06
2.20481e-07
1.02293e-06
2.16895e-07
4.41063e-07
2.09794e-07
4.80498e-08
2.07276e-07
4.79613e-08
4.39062e-07
1.01937e-06
2.14162e-07
8.59978e-07
4.42672e-07
1.0142e-06
2.15693e-07
2.05973e-07
4.71834e-08
2.04828e-07
4.68996e-08
4.45702e-07
8.51875e-07
2.18985e-07
1.01284e-06
2.20007e-07
1.01769e-06
4.44515e-07
2.06027e-07
4.78328e-08
4.80487e-08
2.09711e-07
4.39567e-07
8.63073e-07
1.01615e-06
2.17233e-07
1.01994e-06
2.1537e-07
4.46161e-07
2.06527e-07
4.67215e-08
4.70677e-08
2.08539e-07
1.18965e-07
1.21183e-07
8.19556e-07
1.18716e-07
1.21512e-07
2.23803e-08
2.24395e-08
2.20858e-08
2.19842e-08
8.43592e-07
1.18908e-07
1.21219e-07
1.18793e-07
1.2101e-07
2.24198e-08
2.22735e-08
4.54379e-07
1.03408e-06
2.17839e-07
8.69914e-07
4.54724e-07
1.02897e-06
2.21252e-07
2.13122e-07
4.91681e-08
2.10013e-07
4.84724e-08
2.10181e-07
4.81984e-08
2.08921e-07
4.73947e-08
4.50754e-07
8.73264e-07
1.02473e-06
2.25503e-07
1.03278e-06
2.2534e-07
4.54513e-07
4.56604e-07
8.59322e-07
1.02894e-06
2.19491e-07
1.03557e-06
2.19759e-07
4.5774e-07
2.12776e-07
4.85581e-08
4.88156e-08
2.12636e-07
2.10193e-07
4.73926e-08
4.80477e-08
2.11082e-07
2.17425e-08
2.18412e-08
2.19879e-08
2.18897e-08
8.36978e-07
1.17443e-07
1.18014e-07
1.17186e-07
1.17036e-07
2.18417e-08
2.16047e-08
2.19235e-08
2.16252e-08
2.17724e-08
2.17484e-08
2.16866e-08
2.16925e-08
1.16859e-07
1.15488e-07
8.03773e-07
1.18332e-07
1.15844e-07
2.1935e-08
2.17385e-08
2.17931e-08
2.16588e-08
8.34365e-07
1.18923e-07
1.17114e-07
1.17188e-07
1.16154e-07
2.13772e-07
4.78731e-08
2.11553e-07
4.78856e-08
4.59989e-07
2.20056e-07
1.02728e-06
8.68243e-07
4.52657e-07
2.22174e-07
1.02233e-06
4.54802e-07
2.2192e-07
1.02237e-06
8.68206e-07
4.57897e-07
2.19732e-07
1.02981e-06
2.13089e-07
4.76428e-08
4.76881e-08
2.1404e-07
2.13546e-07
4.79015e-08
4.7687e-08
2.14519e-07
4.54206e-07
8.69187e-07
2.19864e-07
1.02197e-06
2.2216e-07
1.02821e-06
4.58075e-07
4.58213e-07
8.65896e-07
2.21249e-07
1.03129e-06
2.21729e-07
1.03542e-06
4.53196e-07
1.19113e-07
1.1914e-07
8.10609e-07
1.19664e-07
1.18322e-07
2.21191e-08
2.2032e-08
2.19634e-08
2.18724e-08
8.28305e-07
1.19426e-07
1.18423e-07
1.18678e-07
1.18715e-07
2.20533e-08
2.21815e-08
4.41363e-07
2.15108e-07
1.00494e-06
8.59315e-07
4.40874e-07
2.13394e-07
1.00969e-06
2.03804e-07
4.81371e-08
2.05738e-07
4.75314e-08
4.41432e-07
1.00812e-06
2.18929e-07
8.69672e-07
4.43375e-07
1.01281e-06
2.20373e-07
2.01679e-07
4.65328e-08
4.67572e-08
2.02089e-07
4.41296e-07
8.59106e-07
2.15875e-07
1.01619e-06
2.15481e-07
1.00914e-06
4.38162e-07
2.05272e-07
4.7824e-08
4.80276e-08
2.05585e-07
4.3716e-07
8.70542e-07
1.01367e-06
2.21411e-07
1.01836e-06
2.20237e-07
4.39565e-07
2.07699e-07
4.81292e-08
2.0718e-07
4.77624e-08
4.39554e-07
1.02198e-06
2.16989e-07
8.58723e-07
4.47054e-07
1.01694e-06
2.14819e-07
2.06939e-07
4.70241e-08
2.07564e-07
4.66441e-08
4.43556e-07
8.63402e-07
2.19985e-07
1.01453e-06
2.18898e-07
1.01765e-06
4.43415e-07
2.07205e-07
4.76982e-08
4.79493e-08
2.06785e-07
4.3366e-07
8.62636e-07
1.01381e-06
2.1726e-07
1.02344e-06
2.15745e-07
4.38782e-07
2.07125e-07
4.6631e-08
4.68884e-08
2.06312e-07
1.18147e-07
1.20991e-07
8.13164e-07
1.19026e-07
1.21033e-07
2.23907e-08
2.2312e-08
2.21958e-08
2.2143e-08
8.31754e-07
1.19413e-07
1.21227e-07
1.18599e-07
1.19122e-07
2.2397e-08
2.21271e-08
4.518e-07
1.02144e-06
2.19582e-07
8.55805e-07
4.57068e-07
1.02491e-06
2.17231e-07
2.11983e-07
4.86293e-08
2.09811e-07
4.82969e-08
2.09949e-07
4.78404e-08
2.1068e-07
4.75507e-08
4.57549e-07
8.73843e-07
1.03398e-06
2.26173e-07
1.02587e-06
2.23208e-07
4.51156e-07
4.46845e-07
8.66703e-07
1.0306e-06
2.21092e-07
1.03297e-06
2.19594e-07
4.52263e-07
2.1053e-07
4.81727e-08
4.80762e-08
2.12234e-07
2.11093e-07
4.78559e-08
4.78848e-08
2.12065e-07
2.1631e-08
2.1635e-08
2.18604e-08
2.18152e-08
8.36022e-07
1.16488e-07
1.18485e-07
1.16344e-07
1.17936e-07
2.15846e-08
2.16114e-08
2.19506e-08
2.18442e-08
2.17332e-08
2.18792e-08
2.17503e-08
2.19079e-08
1.18244e-07
1.16708e-07
8.11875e-07
1.18844e-07
1.18024e-07
2.20178e-08
2.18526e-08
2.1733e-08
2.17798e-08
8.32462e-07
1.19578e-07
1.17345e-07
1.18744e-07
1.17053e-07
2.14226e-07
4.77167e-08
2.13598e-07
4.77168e-08
4.58012e-07
2.21551e-07
1.02933e-06
8.5747e-07
4.57868e-07
2.21654e-07
1.02396e-06
4.49892e-07
2.19885e-07
1.02551e-06
8.66566e-07
4.51844e-07
2.23026e-07
1.03065e-06
2.12607e-07
4.73976e-08
4.78042e-08
2.12781e-07
2.11772e-07
4.79808e-08
4.80367e-08
2.13428e-07
4.53611e-07
8.6888e-07
2.19973e-07
1.02462e-06
2.19667e-07
1.01795e-06
4.51171e-07
4.56156e-07
8.7136e-07
2.21679e-07
1.02001e-06
2.21696e-07
1.02872e-06
4.57536e-07
1.19452e-07
1.18661e-07
8.21616e-07
1.2034e-07
1.18612e-07
2.21787e-08
2.21166e-08
2.21538e-08
2.21161e-08
8.42593e-07
1.1979e-07
1.1776e-07
1.19958e-07
1.17498e-07
2.20171e-08
2.19064e-08
4.365e-07
2.15799e-07
1.01706e-06
8.51313e-07
4.38815e-07
2.1766e-07
1.0009e-06
2.05423e-07
4.82281e-08
2.02469e-07
4.79227e-08
4.39814e-07
1.02266e-06
2.20278e-07
8.61886e-07
4.42414e-07
1.01937e-06
2.1851e-07
2.00034e-07
4.66364e-08
4.72116e-08
2.03295e-07
4.34801e-07
8.60762e-07
2.1596e-07
1.01386e-06
2.17507e-07
1.01431e-06
4.32903e-07
2.03801e-07
4.76072e-08
4.79016e-08
2.02644e-07
4.40919e-07
8.56409e-07
1.02273e-06
2.20704e-07
1.01484e-06
2.19708e-07
4.36067e-07
2.05301e-07
4.80428e-08
2.07594e-07
4.75887e-08
4.43363e-07
1.01957e-06
2.14832e-07
8.64248e-07
4.41873e-07
1.00623e-06
2.17523e-07
2.07516e-07
4.68492e-08
2.07785e-07
4.68426e-08
4.38961e-07
8.58917e-07
2.18336e-07
1.00774e-06
2.18005e-07
1.01977e-06
4.41257e-07
2.06159e-07
4.72078e-08
4.78414e-08
2.07619e-07
4.40624e-07
8.64516e-07
1.02007e-06
2.17815e-07
1.02291e-06
2.15081e-07
4.41578e-07
2.0848e-07
4.70041e-08
4.71047e-08
2.08946e-07
1.18892e-07
1.20757e-07
8.16906e-07
1.19714e-07
1.21336e-07
2.22268e-08
2.24484e-08
2.21059e-08
2.23047e-08
8.38229e-07
1.18306e-07
1.21262e-07
1.18967e-07
1.20103e-07
2.23991e-08
2.22155e-08
4.46798e-07
1.0372e-06
2.21028e-07
8.70243e-07
4.52205e-07
1.03196e-06
2.214e-07
2.13031e-07
4.82064e-08
2.10342e-07
4.82962e-08
2.10054e-07
4.81177e-08
2.11249e-07
4.77771e-08
4.54012e-07
8.65124e-07
1.03455e-06
2.24874e-07
1.03504e-06
2.25033e-07
4.53087e-07
4.45925e-07
8.72391e-07
1.02902e-06
2.20603e-07
1.03767e-06
2.19969e-07
4.50987e-07
2.10198e-07
4.82291e-08
4.81826e-08
2.09152e-07
2.09895e-07
4.71736e-08
4.7855e-08
2.11432e-07
2.15456e-08
2.15754e-08
2.18655e-08
2.18721e-08
8.33485e-07
1.16315e-07
1.18143e-07
1.14984e-07
1.17056e-07
2.1699e-08
2.16324e-08
2.18853e-08
2.16713e-08
2.19298e-08
2.19101e-08
2.1734e-08
2.16233e-08
1.19183e-07
1.15797e-07
8.08961e-07
1.18696e-07
1.17579e-07
2.17087e-08
2.17718e-08
2.17447e-08
2.1741e-08
8.33201e-07
1.17474e-07
1.1685e-07
1.18094e-07
1.16384e-07
2.12184e-07
4.80483e-08
2.13296e-07
4.72791e-08
4.52267e-07
2.19823e-07
1.0214e-06
8.49687e-07
4.57542e-07
2.20481e-07
1.00956e-06
4.57178e-07
2.18873e-07
1.03517e-06
8.71759e-07
4.55152e-07
2.2194e-07
1.03297e-06
2.08672e-07
4.69539e-08
4.72747e-08
2.13708e-07
2.12928e-07
4.74645e-08
4.78979e-08
2.12046e-07
4.55128e-07
8.58125e-07
2.19458e-07
1.02459e-06
2.18575e-07
1.02141e-06
4.54989e-07
4.58814e-07
8.73087e-07
2.20616e-07
1.03191e-06
2.1859e-07
1.03585e-06
4.55195e-07
1.19437e-07
1.16211e-07
8.20138e-07
1.1922e-07
1.17887e-07
2.19335e-08
2.19634e-08
2.19575e-08
2.20197e-08
8.40003e-07
1.18738e-07
1.1852e-07
1.18714e-07
1.17301e-07
2.20713e-08
2.18534e-08
4.39421e-07
2.1562e-07
1.01654e-06
8.62758e-07
4.39131e-07
2.16996e-07
1.0158e-06
2.04414e-07
4.78775e-08
2.03476e-07
4.7549e-08
4.40387e-07
1.02642e-06
2.19743e-07
8.64106e-07
4.35423e-07
1.01533e-06
2.21441e-07
2.01679e-07
4.67071e-08
4.6918e-08
2.04109e-07
4.36151e-07
8.5638e-07
2.16275e-07
1.01933e-06
2.14854e-07
1.0191e-06
4.36139e-07
2.03809e-07
4.76375e-08
4.77593e-08
2.03143e-07
4.42304e-07
8.67619e-07
1.02231e-06
2.20339e-07
1.01188e-06
2.20649e-07
4.38554e-07
2.10854e-07
4.74526e-08
2.06926e-07
4.70449e-08
4.42855e-07
1.02577e-06
2.15055e-07
8.6118e-07
4.44094e-07
1.02147e-06
2.15651e-07
2.08917e-07
4.69457e-08
2.08114e-07
4.69889e-08
4.48781e-07
8.70346e-07
2.16431e-07
1.02331e-06
2.16869e-07
1.02763e-06
4.39602e-07
2.09688e-07
4.72814e-08
4.76883e-08
2.0911e-07
4.43456e-07
8.63454e-07
1.01965e-06
2.16945e-07
1.02374e-06
2.13323e-07
4.42937e-07
2.07644e-07
4.63456e-08
4.70122e-08
2.03867e-07
1.18759e-07
1.20867e-07
8.18402e-07
1.18867e-07
1.21096e-07
2.22845e-08
2.22378e-08
2.20978e-08
2.20722e-08
8.39216e-07
1.1933e-07
1.21188e-07
1.17607e-07
1.19311e-07
2.23453e-08
2.21047e-08
4.4619e-07
1.01977e-06
2.17734e-07
8.71695e-07
4.46558e-07
1.02641e-06
2.19164e-07
2.11254e-07
4.82476e-08
2.10814e-07
4.77342e-08
2.11529e-07
4.7598e-08
2.11247e-07
4.73899e-08
4.52082e-07
8.69888e-07
1.02664e-06
2.24176e-07
1.03769e-06
2.21942e-07
4.46373e-07
4.53784e-07
8.73032e-07
1.02411e-06
2.16933e-07
1.02514e-06
2.17928e-07
4.42413e-07
2.08514e-07
4.7997e-08
4.81161e-08
2.10685e-07
2.09349e-07
4.71171e-08
4.75194e-08
2.11769e-07
2.1519e-08
2.16073e-08
2.16687e-08
2.16237e-08
8.30531e-07
1.15835e-07
1.16241e-07
1.15474e-07
1.16922e-07
2.1382e-08
2.14988e-08
2.16003e-08
2.15334e-08
2.18395e-08
2.17395e-08
2.1722e-08
2.16736e-08
1.18025e-07
1.15188e-07
8.10462e-07
1.18385e-07
1.16331e-07
2.18495e-08
2.18943e-08
2.14353e-08
2.16025e-08
8.28759e-07
1.18184e-07
1.16172e-07
1.17921e-07
1.15591e-07
2.10961e-07
4.80062e-08
2.12106e-07
4.78575e-08
4.55704e-07
2.19062e-07
1.02221e-06
8.6211e-07
4.50853e-07
2.2029e-07
1.01451e-06
4.50139e-07
2.21315e-07
1.02397e-06
8.52679e-07
4.55962e-07
2.22095e-07
1.02415e-06
2.12985e-07
4.70082e-08
4.69647e-08
2.12909e-07
2.07391e-07
4.74629e-08
4.81634e-08
2.07925e-07
4.56804e-07
8.59798e-07
2.2133e-07
1.02195e-06
2.1993e-07
1.02076e-06
4.52025e-07
4.53771e-07
8.6209e-07
2.18649e-07
1.03463e-06
2.21944e-07
1.02089e-06
4.47115e-07
1.1732e-07
1.18242e-07
8.0696e-07
1.18527e-07
1.17771e-07
2.20485e-08
2.19746e-08
2.195e-08
2.19177e-08
8.3995e-07
1.18394e-07
1.19096e-07
1.18035e-07
1.18231e-07
2.22095e-08
2.20905e-08
4.38213e-07
2.15437e-07
1.00814e-06
8.53328e-07
4.39483e-07
2.17017e-07
1.0165e-06
2.0442e-07
4.75564e-08
2.04755e-07
4.77482e-08
4.38133e-07
1.02406e-06
2.17592e-07
8.68133e-07
4.41048e-07
1.02433e-06
2.18779e-07
2.01754e-07
4.66038e-08
4.69789e-08
2.03146e-07
4.38972e-07
8.61863e-07
2.1473e-07
1.01902e-06
2.14129e-07
1.0044e-06
4.3693e-07
2.01768e-07
4.77318e-08
4.80639e-08
2.03602e-07
4.40042e-07
8.6999e-07
1.0214e-06
2.22093e-07
1.02197e-06
2.21091e-07
4.3702e-07
2.07502e-07
4.75556e-08
2.0744e-07
4.75086e-08
4.33606e-07
1.02248e-06
2.15923e-07
8.666e-07
4.39359e-07
1.01974e-06
2.13624e-07
2.06243e-07
4.69704e-08
2.04617e-07
4.61033e-08
4.41829e-07
8.63071e-07
2.194e-07
1.02828e-06
2.17793e-07
1.02335e-06
4.46723e-07
2.06923e-07
4.79211e-08
4.79444e-08
2.08474e-07
4.41173e-07
8.55347e-07
1.0226e-06
2.15161e-07
1.0079e-06
2.11678e-07
4.43115e-07
2.03565e-07
4.65981e-08
4.6742e-08
2.06148e-07
1.18604e-07
1.20664e-07
8.09645e-07
1.19052e-07
1.196e-07
2.21415e-08
2.22504e-08
2.22592e-08
2.21269e-08
8.32553e-07
1.18456e-07
1.20711e-07
1.18638e-07
1.20367e-07
2.21806e-08
2.20147e-08
4.43397e-07
1.02621e-06
2.15176e-07
8.7218e-07
4.50916e-07
1.02493e-06
2.18086e-07
2.08304e-07
4.78831e-08
2.10548e-07
4.81228e-08
2.1042e-07
4.75235e-08
2.11694e-07
4.73321e-08
4.46945e-07
8.73081e-07
1.02836e-06
2.22375e-07
1.03561e-06
2.23183e-07
4.52924e-07
4.51128e-07
8.72984e-07
1.03979e-06
2.17488e-07
1.03348e-06
2.1613e-07
4.50127e-07
2.10345e-07
4.77186e-08
4.83933e-08
2.10979e-07
2.08519e-07
4.733e-08
4.72134e-08
2.10898e-07
2.14602e-08
2.1419e-08
2.16333e-08
2.15612e-08
8.24207e-07
1.15633e-07
1.17174e-07
1.1322e-07
1.15347e-07
2.15514e-08
2.13537e-08
2.17205e-08
2.14904e-08
2.16696e-08
2.18551e-08
2.16769e-08
2.14603e-08
1.17093e-07
1.15938e-07
8.11008e-07
1.18629e-07
1.16264e-07
2.1911e-08
2.16532e-08
2.16359e-08
2.16268e-08
8.18628e-07
1.18379e-07
1.16137e-07
1.18103e-07
1.15e-07
2.12254e-07
4.78974e-08
2.10998e-07
4.75033e-08
4.50126e-07
2.21252e-07
1.02691e-06
8.55158e-07
4.51819e-07
2.21767e-07
1.02665e-06
4.53829e-07
2.20791e-07
1.01637e-06
8.60326e-07
4.53309e-07
2.17461e-07
1.03171e-06
2.08109e-07
4.7482e-08
4.7668e-08
2.11494e-07
2.12229e-07
4.75651e-08
4.74097e-08
2.11771e-07
4.47124e-07
8.64744e-07
2.2121e-07
1.04137e-06
2.21203e-07
1.02217e-06
4.50832e-07
4.5552e-07
8.55841e-07
2.17265e-07
1.02783e-06
2.1827e-07
1.02161e-06
4.493e-07
1.18026e-07
1.18364e-07
8.10576e-07
1.18366e-07
1.18885e-07
2.21446e-08
2.20329e-08
2.18975e-08
2.17411e-08
8.25181e-07
1.18105e-07
1.18896e-07
1.16684e-07
1.18557e-07
2.22173e-08
2.21632e-08
4.38316e-07
2.13462e-07
1.01166e-06
8.55271e-07
4.38754e-07
2.15595e-07
1.02176e-06
2.0428e-07
4.80329e-08
2.03071e-07
4.74746e-08
4.3413e-07
1.00501e-06
2.21672e-07
8.67094e-07
4.38889e-07
1.02414e-06
2.21112e-07
2.01411e-07
4.56219e-08
4.64761e-08
2.02653e-07
4.39563e-07
8.53736e-07
2.15771e-07
1.02229e-06
2.1464e-07
1.00429e-06
4.392e-07
2.01013e-07
4.73704e-08
4.77404e-08
2.01089e-07
4.3874e-07
8.68227e-07
1.02593e-06
2.20495e-07
1.01173e-06
2.21143e-07
4.37655e-07
2.07055e-07
4.81844e-08
2.07475e-07
4.7989e-08
4.4364e-07
1.01854e-06
2.13152e-07
8.54787e-07
4.45276e-07
1.02711e-06
2.15369e-07
2.0553e-07
4.69763e-08
2.05592e-07
4.64294e-08
4.4552e-07
8.62245e-07
2.21426e-07
1.0321e-06
2.20892e-07
1.01856e-06
4.45682e-07
2.03772e-07
4.78621e-08
4.8302e-08
2.07055e-07
4.45765e-07
8.48641e-07
1.02321e-06
2.14197e-07
1.01663e-06
2.11804e-07
4.38277e-07
2.04238e-07
4.59522e-08
4.65268e-08
2.02712e-07
1.19026e-07
1.19121e-07
8.25404e-07
1.19542e-07
1.20186e-07
2.22133e-08
2.21674e-08
2.22252e-08
2.19591e-08
8.32393e-07
1.19565e-07
1.19416e-07
1.1821e-07
1.19387e-07
2.21266e-08
2.19421e-08
4.50778e-07
1.03406e-06
2.16135e-07
8.70634e-07
4.51824e-07
1.0411e-06
2.18901e-07
2.08083e-07
4.81516e-08
2.08018e-07
4.74514e-08
2.09305e-07
4.75446e-08
2.08457e-07
4.71669e-08
4.46666e-07
8.63234e-07
1.03542e-06
2.23279e-07
1.02283e-06
2.20196e-07
4.50212e-07
4.5129e-07
8.66131e-07
1.03764e-06
2.18711e-07
1.01501e-06
2.18668e-07
4.50606e-07
2.08639e-07
4.71189e-08
4.73401e-08
2.09177e-07
2.08637e-07
4.7342e-08
4.77652e-08
2.0421e-07
2.14406e-08
2.15094e-08
2.15482e-08
2.17199e-08
8.33587e-07
1.15505e-07
1.16746e-07
1.14037e-07
1.16362e-07
2.12556e-08
2.14514e-08
2.17151e-08
2.15249e-08
2.17798e-08
2.17792e-08
2.16717e-08
2.14276e-08
1.1808e-07
1.16208e-07
8.10741e-07
1.18094e-07
1.16381e-07
2.19304e-08
2.17111e-08
2.15271e-08
2.15683e-08
8.26485e-07
1.18817e-07
1.15665e-07
1.17342e-07
1.14767e-07
2.13061e-07
4.76926e-08
2.09221e-07
4.74943e-08
4.46031e-07
2.19969e-07
1.00918e-06
8.72132e-07
4.53532e-07
2.1901e-07
1.03999e-06
4.56067e-07
2.1762e-07
1.01769e-06
8.6951e-07
4.54759e-07
2.1811e-07
1.04552e-06
2.10005e-07
4.72737e-08
4.74714e-08
2.12265e-07
2.13232e-07
4.74765e-08
4.78041e-08
2.14391e-07
4.45536e-07
8.53517e-07
2.20711e-07
1.0448e-06
2.18566e-07
9.97746e-07
4.53719e-07
4.52201e-07
8.6583e-07
2.20593e-07
1.04645e-06
2.2023e-07
1.01585e-06
4.55017e-07
1.17148e-07
1.18374e-07
8.07193e-07
1.18116e-07
1.17652e-07
2.21913e-08
2.20152e-08
2.1995e-08
2.1723e-08
8.34348e-07
1.17744e-07
1.18843e-07
1.16706e-07
1.18679e-07
2.2145e-08
2.19054e-08
4.35392e-07
2.13098e-07
9.97104e-07
8.55326e-07
4.36816e-07
2.12292e-07
1.01637e-06
2.03775e-07
4.74892e-08
2.02386e-07
4.72686e-08
4.40115e-07
1.00454e-06
2.17223e-07
8.62322e-07
4.39994e-07
1.02594e-06
2.17333e-07
2.02297e-07
4.61334e-08
4.62895e-08
2.0211e-07
4.40072e-07
8.51817e-07
2.14251e-07
1.03371e-06
2.13529e-07
1.00142e-06
4.38929e-07
2.02687e-07
4.74618e-08
4.76842e-08
2.03606e-07
4.3686e-07
8.65378e-07
1.03522e-06
2.19362e-07
9.99216e-07
2.1896e-07
4.38932e-07
2.07257e-07
4.81448e-08
2.03389e-07
4.76565e-08
4.37985e-07
1.00037e-06
2.13371e-07
8.62872e-07
4.32767e-07
1.03411e-06
2.1459e-07
2.03547e-07
4.61654e-08
2.04216e-07
4.61689e-08
4.44935e-07
8.4762e-07
2.18015e-07
1.04199e-06
2.19443e-07
9.99667e-07
4.3935e-07
2.05267e-07
4.72502e-08
4.79618e-08
2.06167e-07
4.34758e-07
8.54924e-07
1.03365e-06
2.12249e-07
1.00679e-06
2.1103e-07
4.40724e-07
2.04025e-07
4.59362e-08
4.63622e-08
2.04754e-07
1.18421e-07
1.1876e-07
8.21555e-07
1.18873e-07
1.19586e-07
2.20737e-08
2.20097e-08
2.21187e-08
2.19817e-08
8.36412e-07
1.18208e-07
1.19242e-07
1.18809e-07
1.19277e-07
2.21713e-08
2.20898e-08
4.47856e-07
1.01372e-06
2.19759e-07
8.67468e-07
4.48114e-07
1.03826e-06
2.17706e-07
2.10561e-07
4.77402e-08
2.08146e-07
4.76287e-08
2.06397e-07
4.72959e-08
2.06303e-07
4.71213e-08
4.44083e-07
8.55521e-07
1.04422e-06
2.18368e-07
1.01544e-06
2.15177e-07
4.49703e-07
4.43396e-07
8.51082e-07
1.05385e-06
2.16631e-07
1.0051e-06
2.17176e-07
4.45981e-07
2.08356e-07
4.76577e-08
4.78306e-08
2.10646e-07
2.0906e-07
4.69068e-08
4.73049e-08
2.10945e-07
2.13312e-08
2.12885e-08
2.16166e-08
2.14699e-08
8.17168e-07
1.14632e-07
1.16458e-07
1.14124e-07
1.16025e-07
2.12369e-08
2.11856e-08
2.17179e-08
2.14831e-08
2.17315e-08
2.19464e-08
2.13729e-08
2.14939e-08
1.17413e-07
1.14213e-07
8.18885e-07
1.1861e-07
1.15312e-07
2.20355e-08
2.17402e-08
2.15836e-08
2.14176e-08
8.03804e-07
1.18782e-07