/*--------------------------------*- C++ -*----------------------------------*\
| =========                 |                                                 |
| \\      /  F ield         | OpenFOAM: The Open Source CFD Toolbox           |
|  \\    /   O peration     | Version:  2206                                  |
|   \\  /    A nd           | Website:  www.openfoam.com                      |
|    \\/     M anipulation  |                                                 |
\*---------------------------------------------------------------------------*/
FoamFile
{
    version     2.0;
    format      ascii;
    arch        "LSB;label=32;scalar=64";
    class       volScalarField;
    location    "80";
    object      p;
}
// * * * * * * * * * * * * * * * * * * * * * * * * * * * * * * * * * * * * * //

dimensions      [0 2 -2 0 0 0 0];

internalField   nonuniform List<scalar> 
66940
(
-0.0171826
-0.0171825
-0.0171826
-0.0171707
-0.0173729
-0.017373
-0.017373
-0.0173612
-0.0175633
-0.0175633
-0.0175634
-0.0175515
-0.0177537
-0.0177537
-0.0177537
-0.0177417
-0.0179442
-0.0179441
-0.0179441
-0.0179318
-0.018135
-0.0181345
-0.0181346
-0.0181217
-0.0183262
-0.0183249
-0.018325
-0.0183112
-0.0185181
-0.0185142
-0.0185143
-0.0184994
-0.0187101
-0.0186998
-0.0187003
-0.0186851
-0.0188915
-0.0188714
-0.0188722
-0.0188671
-0.018942
-0.0189624
-0.0189633
-0.0190341
-0.0175805
-0.0183297
-0.0182778
-0.0188787
-0.0171466
-0.0171351
-0.0171352
-0.0171466
-0.0171348
-0.0171348
-0.0171348
-0.0171349
-0.0171466
-0.0171351
-0.0171351
-0.0171466
-0.0171708
-0.0173369
-0.0171827
-0.0171826
-0.0173252
-0.0173252
-0.0171707
-0.017337
-0.0171826
-0.0171826
-0.0173251
-0.0173252
-0.0171823
-0.0173252
-0.0173252
-0.0171708
-0.0173369
-0.0171827
-0.0173252
-0.0173252
-0.017337
-0.0173612
-0.0175273
-0.017373
-0.0173731
-0.0175155
-0.0175156
-0.0173612
-0.0175274
-0.017373
-0.0173731
-0.0175155
-0.0175155
-0.017373
-0.0175155
-0.0175156
-0.0173612
-0.0175274
-0.0173731
-0.0175156
-0.0175156
-0.0175274
-0.0175514
-0.0177177
-0.0175634
-0.0175634
-0.0177059
-0.0177059
-0.0175515
-0.0177177
-0.0175633
-0.0175634
-0.0177059
-0.0177058
-0.0175633
-0.0177059
-0.0177059
-0.0175515
-0.0177178
-0.0175636
-0.0177059
-0.0177059
-0.0177178
-0.0177416
-0.0179081
-0.0177537
-0.0177538
-0.0178963
-0.0178962
-0.0177416
-0.0179081
-0.0177537
-0.0177538
-0.0178962
-0.0178962
-0.0177537
-0.0178962
-0.0178962
-0.0177417
-0.0179081
-0.0177539
-0.0178962
-0.0178962
-0.0179081
-0.0179317
-0.0180986
-0.0179441
-0.0179441
-0.0180866
-0.0180867
-0.0179317
-0.0180987
-0.0179441
-0.0179441
-0.0180866
-0.0180866
-0.0179441
-0.0180866
-0.0180866
-0.0179318
-0.0180986
-0.0179443
-0.0180866
-0.0180866
-0.0180986
-0.0181216
-0.0182894
-0.0181345
-0.0181346
-0.0182774
-0.0182773
-0.0181216
-0.0182893
-0.0181345
-0.0181346
-0.0182774
-0.0182773
-0.0181346
-0.0182773
-0.0182773
-0.0181217
-0.0182893
-0.0181347
-0.0182772
-0.0182772
-0.0182893
-0.0183109
-0.0184802
-0.0183249
-0.0183249
-0.0184687
-0.0184686
-0.0183109
-0.0184802
-0.0183249
-0.018325
-0.0184687
-0.0184685
-0.0183249
-0.0184686
-0.0184686
-0.0183111
-0.0184801
-0.0183251
-0.0184685
-0.0184684
-0.0184801
-0.018499
-0.0186714
-0.0185141
-0.0185143
-0.0186624
-0.0186622
-0.0184992
-0.0186713
-0.0185141
-0.0185143
-0.0186624
-0.0186623
-0.0185143
-0.0186623
-0.0186623
-0.0184993
-0.0186713
-0.0185145
-0.018662
-0.018662
-0.0186713
-0.0186847
-0.0188639
-0.0186998
-0.0187001
-0.0188634
-0.018863
-0.018685
-0.0188638
-0.0186998
-0.0187
-0.0188635
-0.0188634
-0.0186999
-0.0188636
-0.0188634
-0.0186851
-0.0188638
-0.0187003
-0.0188627
-0.0188628
-0.0188638
-0.0188665
-0.0190484
-0.0188714
-0.0188719
-0.0190695
-0.0190687
-0.0188673
-0.0190481
-0.0188716
-0.0188717
-0.0190695
-0.0190697
-0.0188716
-0.01907
-0.0190702
-0.0188669
-0.0190481
-0.0188723
-0.0190681
-0.0190681
-0.0190483
-0.0190334
-0.0189791
-0.0189612
-0.0189623
-0.0189827
-0.0189755
-0.0190355
-0.0189913
-0.0189635
-0.0189628
-0.018976
-0.0189806
-0.018963
-0.0189872
-0.0189795
-0.0190335
-0.0189788
-0.0189631
-0.0189784
-0.0189802
-0.0189798
-0.0188783
-0.0182795
-0.01827
-0.0189063
-0.0182789
-0.0182832
-0.0175383
-0.017584
-0.017582
-0.0182835
-0.0188779
-0.0182764
-0.0170513
-0.0171349
-0.0171351
-0.017135
-0.0171351
-0.0170508
-0.0170404
-0.0170509
-0.0170405
-0.0170513
-0.0170514
-0.0170512
-0.0172416
-0.0171708
-0.017171
-0.0172417
-0.0171708
-0.0172417
-0.0172421
-0.0171707
-0.0171705
-0.0172419
-0.0171825
-0.0171827
-0.0171825
-0.0173251
-0.0173251
-0.0173251
-0.0173251
-0.0172413
-0.0171712
-0.0171824
-0.0172301
-0.0171713
-0.0172415
-0.0172301
-0.0171707
-0.0172418
-0.0172407
-0.0171827
-0.0171715
-0.0172301
-0.0171719
-0.0172301
-0.0172411
-0.0171707
-0.017171
-0.0172418
-0.0172419
-0.0172415
-0.0174321
-0.0173614
-0.0173614
-0.0174321
-0.0173613
-0.0174322
-0.0174324
-0.0173611
-0.0173609
-0.0174323
-0.0173731
-0.0173731
-0.0173731
-0.0175154
-0.0175154
-0.0175154
-0.0175155
-0.0174317
-0.0173616
-0.0173729
-0.0174206
-0.0173617
-0.0174318
-0.0174206
-0.0173611
-0.0174322
-0.0174312
-0.0173729
-0.0173619
-0.0174206
-0.0173622
-0.0174206
-0.0174316
-0.0173611
-0.0173614
-0.0174322
-0.0174322
-0.0174321
-0.0176224
-0.0175517
-0.0175517
-0.0176225
-0.0175517
-0.0176225
-0.0176228
-0.0175515
-0.0175513
-0.0176226
-0.0175634
-0.0175635
-0.0175635
-0.0177058
-0.0177057
-0.0177057
-0.0177058
-0.017622
-0.017552
-0.0175632
-0.0176109
-0.017552
-0.0176222
-0.017611
-0.0175515
-0.0176226
-0.0176215
-0.0175633
-0.0175523
-0.0176109
-0.0175527
-0.017611
-0.0176219
-0.0175515
-0.0175519
-0.0176226
-0.0176227
-0.0176223
-0.0178128
-0.017742
-0.017742
-0.0178128
-0.017742
-0.0178128
-0.0178131
-0.0177418
-0.0177416
-0.0178129
-0.0177538
-0.0177539
-0.0177539
-0.017896
-0.017896
-0.017896
-0.017896
-0.0178123
-0.0177424
-0.0177535
-0.0178012
-0.0177423
-0.0178125
-0.0178014
-0.0177419
-0.0178129
-0.0178118
-0.0177536
-0.0177427
-0.0178013
-0.0177429
-0.0178014
-0.0178123
-0.0177418
-0.0177421
-0.017813
-0.0178129
-0.0178128
-0.0180031
-0.0179324
-0.0179323
-0.0180032
-0.0179323
-0.0180031
-0.0180035
-0.0179321
-0.0179319
-0.0180033
-0.0179444
-0.0179444
-0.0179444
-0.0180862
-0.0180861
-0.0180861
-0.0180862
-0.0180026
-0.0179328
-0.0179437
-0.0179916
-0.0179326
-0.018003
-0.0179919
-0.0179322
-0.0180033
-0.0180021
-0.0179439
-0.0179331
-0.0179916
-0.0179331
-0.0179919
-0.0180027
-0.0179322
-0.0179325
-0.0180034
-0.0180035
-0.0180031
-0.0181936
-0.0181228
-0.0181228
-0.0181936
-0.0181228
-0.0181936
-0.018194
-0.0181226
-0.0181224
-0.0181938
-0.0181352
-0.0181351
-0.0181352
-0.0182761
-0.0182761
-0.0182761
-0.0182761
-0.0181929
-0.0181234
-0.018134
-0.0181821
-0.0181228
-0.0181935
-0.0181827
-0.0181227
-0.0181937
-0.0181924
-0.0181341
-0.0181237
-0.0181821
-0.0181234
-0.0181825
-0.0181932
-0.0181227
-0.0181229
-0.018194
-0.0181938
-0.0181937
-0.0183841
-0.0183134
-0.0183133
-0.018384
-0.0183134
-0.0183841
-0.0183845
-0.0183133
-0.0183129
-0.0183842
-0.0183264
-0.0183264
-0.0183264
-0.0184654
-0.0184654
-0.0184654
-0.0184654
-0.018383
-0.0183142
-0.0183241
-0.018373
-0.0183129
-0.0183842
-0.0183737
-0.0183133
-0.0183842
-0.0183824
-0.0183243
-0.0183145
-0.0183729
-0.0183135
-0.0183735
-0.0183839
-0.0183133
-0.0183136
-0.0183847
-0.0183845
-0.018384
-0.0185743
-0.0185042
-0.0185038
-0.0185741
-0.0185042
-0.0185741
-0.0185747
-0.018504
-0.0185034
-0.0185743
-0.0185183
-0.0185183
-0.0185183
-0.0186538
-0.0186537
-0.0186537
-0.0186538
-0.0185721
-0.0185053
-0.0185136
-0.0185652
-0.0185023
-0.0185746
-0.0185654
-0.0185041
-0.0185742
-0.0185716
-0.018514
-0.0185056
-0.0185649
-0.018503
-0.018565
-0.0185744
-0.0185041
-0.0185044
-0.0185756
-0.0185745
-0.0185744
-0.0187642
-0.018695
-0.018694
-0.0187637
-0.0186952
-0.0187634
-0.0187645
-0.0186948
-0.0186936
-0.0187639
-0.0187104
-0.0187103
-0.0187103
-0.0188419
-0.0188415
-0.0188417
-0.0188418
-0.0187594
-0.018697
-0.0187008
-0.0187618
-0.0186898
-0.0187652
-0.0187596
-0.0186951
-0.0187636
-0.0187588
-0.0187014
-0.0186973
-0.0187612
-0.0186906
-0.0187591
-0.0187649
-0.0186952
-0.0186955
-0.0187674
-0.0187642
-0.0187639
-0.0189545
-0.0188865
-0.0188835
-0.0189539
-0.0188876
-0.0189529
-0.0189549
-0.0188864
-0.0188832
-0.0189541
-0.0188922
-0.0188919
-0.0188917
-0.019015
-0.0190138
-0.0190147
-0.0190152
-0.0189409
-0.01889
-0.0188752
-0.0189688
-0.018871
-0.0189574
-0.0189612
-0.0188876
-0.018953
-0.0189401
-0.0188756
-0.0188903
-0.0189675
-0.0188719
-0.0189605
-0.018957
-0.0188879
-0.0188881
-0.0189597
-0.0189537
-0.0189535
-0.0191626
-0.0190828
-0.019069
-0.0191838
-0.0190887
-0.0191784
-0.0191638
-0.0190835
-0.0190687
-0.0191842
-0.0189437
-0.0189429
-0.0189423
-0.0186815
-0.0186588
-0.018681
-0.0186823
-0.0190844
-0.0190845
-0.0189423
-0.0191278
-0.0190222
-0.01917
-0.0191153
-0.0190892
-0.0191787
-0.0190806
-0.0189386
-0.0190843
-0.0191269
-0.0190245
-0.019115
-0.0191687
-0.0190873
-0.019087
-0.019095
-0.0191738
-0.0191729
-0.0196678
-0.0194053
-0.0192809
-0.0205039
-0.019471
-0.0207402
-0.0196658
-0.019406
-0.019282
-0.0205043
-0.0155599
-0.0181318
-0.0181359
-0.0171402
-0.0180139
-0.0163356
-0.0163313
-0.018718
-0.0193108
-0.018035
-0.0176643
-0.0189308
-0.0199773
-0.0169691
-0.019471
-0.02074
-0.0187137
-0.0180345
-0.0193085
-0.0176235
-0.0189329
-0.0169761
-0.0199788
-0.0194316
-0.0194318
-0.0179213
-0.0202681
-0.0202668
-0.0171464
-0.0170757
-0.0171466
-0.0170755
-0.0170754
-0.0171464
-0.0171466
-0.0170757
-0.0170756
-0.0170514
-0.0170392
-0.0170504
-0.0170758
-0.0171463
-0.0170759
-0.0171463
-0.0170758
-0.0171463
-0.0170759
-0.0171463
-0.0170766
-0.0170868
-0.0171459
-0.0171352
-0.0170764
-0.0170865
-0.0171457
-0.0170766
-0.0170871
-0.0171459
-0.0171351
-0.0170763
-0.0170866
-0.0171457
-0.0170513
-0.0170512
-0.0170513
-0.0170514
-0.0171464
-0.0170757
-0.0170756
-0.0171464
-0.0171466
-0.0170756
-0.0170755
-0.0171466
-0.0170755
-0.0170753
-0.0171467
-0.0170755
-0.0171469
-0.0170761
-0.0170871
-0.0171461
-0.0171348
-0.017076
-0.017087
-0.017146
-0.0170753
-0.0171466
-0.0170755
-0.0171469
-0.017076
-0.0170871
-0.0171348
-0.0171461
-0.017087
-0.017076
-0.0171461
-0.0170517
-0.0170515
-0.0170508
-0.0170402
-0.0170404
-0.0170509
-0.0170517
-0.0170515
-0.017076
-0.0170873
-0.0171462
-0.0171348
-0.0170759
-0.0170874
-0.017146
-0.0170752
-0.0171467
-0.0170755
-0.0171469
-0.017076
-0.0170874
-0.0171349
-0.0171462
-0.0170875
-0.0170759
-0.0171461
-0.0170753
-0.0171467
-0.0170755
-0.017147
-0.0171466
-0.0170755
-0.0170754
-0.0171466
-0.0171463
-0.0170755
-0.0170757
-0.0171463
-0.0170757
-0.0170766
-0.0170869
-0.0171351
-0.0171459
-0.0170866
-0.0170764
-0.0171457
-0.0170766
-0.0170871
-0.0171351
-0.017146
-0.0170866
-0.0170764
-0.0171457
-0.0170758
-0.0171463
-0.0170759
-0.0171463
-0.0170758
-0.0171463
-0.0170759
-0.0171463
-0.0170515
-0.0170513
-0.0170756
-0.0171466
-0.0171464
-0.0170755
-0.0170757
-0.0171466
-0.0170755
-0.0171464
-0.0170757
-0.0171708
-0.0172417
-0.0171707
-0.0172418
-0.0171709
-0.0171708
-0.0172418
-0.0172417
-0.0172418
-0.0173369
-0.017266
-0.017337
-0.0172659
-0.0172659
-0.0173369
-0.017337
-0.017266
-0.0172659
-0.0172416
-0.0171708
-0.0171709
-0.0172417
-0.0172407
-0.0171715
-0.0171828
-0.0172301
-0.0171719
-0.0172411
-0.0172302
-0.0172406
-0.0171714
-0.0171827
-0.0172301
-0.0171719
-0.0172411
-0.0172301
-0.0172661
-0.0173369
-0.017266
-0.0173369
-0.0172661
-0.0173369
-0.017266
-0.0173369
-0.017267
-0.0172777
-0.0173363
-0.0173252
-0.0172666
-0.0172776
-0.0173359
-0.017267
-0.0172777
-0.0173363
-0.0173252
-0.0172666
-0.0172776
-0.017336
-0.0171709
-0.0171707
-0.0172418
-0.0172415
-0.017242
-0.0171708
-0.0172419
-0.0173369
-0.0172661
-0.017266
-0.0173369
-0.017337
-0.0172661
-0.0172659
-0.017337
-0.0172659
-0.0172413
-0.0171712
-0.0171826
-0.0172302
-0.0171713
-0.0172414
-0.0172301
-0.0172421
-0.0171707
-0.0171705
-0.0172419
-0.0172413
-0.0171827
-0.0171712
-0.0172301
-0.0171713
-0.0172301
-0.0172414
-0.0172657
-0.0173371
-0.0172659
-0.0173373
-0.0172665
-0.0172777
-0.0173365
-0.0173251
-0.0172663
-0.0172776
-0.0173365
-0.0172657
-0.017337
-0.0172658
-0.0173373
-0.0172664
-0.0172776
-0.0173251
-0.0173366
-0.0172775
-0.0172663
-0.0173365
-0.0172421
-0.0171707
-0.0171705
-0.0172419
-0.0172413
-0.0171824
-0.0171712
-0.0172301
-0.0171713
-0.0172301
-0.0172415
-0.0172421
-0.0171707
-0.0171705
-0.0172419
-0.0172665
-0.0172777
-0.0173366
-0.0173252
-0.0172664
-0.0172776
-0.0173364
-0.0172657
-0.0173371
-0.0172659
-0.0173373
-0.0172665
-0.0172775
-0.0173252
-0.0173366
-0.0172776
-0.0172663
-0.0173365
-0.0172657
-0.0173371
-0.0172659
-0.0173373
-0.0171707
-0.0171708
-0.0172417
-0.0172419
-0.0172416
-0.0171707
-0.0172417
-0.017337
-0.0172659
-0.0172659
-0.017337
-0.0173368
-0.0172659
-0.017266
-0.0173369
-0.017266
-0.0172407
-0.0171827
-0.0171715
-0.0172301
-0.0171719
-0.0172301
-0.0172411
-0.0172416
-0.0171707
-0.0171709
-0.0172417
-0.0172416
-0.0171708
-0.0171709
-0.0172416
-0.017267
-0.0172777
-0.0173252
-0.0173363
-0.0172777
-0.0172666
-0.0173359
-0.017267
-0.0172778
-0.0173251
-0.0173363
-0.0172776
-0.0172666
-0.0173359
-0.0172661
-0.0173369
-0.017266
-0.0173369
-0.0172661
-0.0173369
-0.017266
-0.0173369
-0.0171707
-0.0172419
-0.0171708
-0.0172416
-0.0172659
-0.017337
-0.0173369
-0.0172658
-0.0172662
-0.017337
-0.0172659
-0.0173369
-0.017266
-0.0173613
-0.0174321
-0.0173611
-0.0174322
-0.0173613
-0.0173612
-0.0174322
-0.0174321
-0.0174323
-0.0175273
-0.0174565
-0.0175274
-0.0174563
-0.0174563
-0.0175273
-0.0175274
-0.0174565
-0.0174563
-0.0174321
-0.0173613
-0.0173613
-0.0174321
-0.0174312
-0.0173619
-0.017373
-0.0174206
-0.0173622
-0.0174316
-0.0174206
-0.0174312
-0.0173619
-0.017373
-0.0174206
-0.0173622
-0.0174316
-0.0174207
-0.0174565
-0.0175273
-0.0174565
-0.0175273
-0.0174565
-0.0175273
-0.0174565
-0.0175273
-0.0174574
-0.0174681
-0.0175267
-0.0175156
-0.017457
-0.017468
-0.0175263
-0.0174574
-0.0174681
-0.0175267
-0.0175156
-0.017457
-0.017468
-0.0175263
-0.0173613
-0.0173612
-0.0174322
-0.0174321
-0.0174322
-0.0173611
-0.0174322
-0.0175273
-0.0174565
-0.0174563
-0.0175273
-0.0175274
-0.0174565
-0.0174563
-0.0175274
-0.0174563
-0.0174316
-0.0173616
-0.017373
-0.0174206
-0.0173617
-0.0174318
-0.0174206
-0.0174325
-0.0173611
-0.0173608
-0.0174323
-0.0174317
-0.017373
-0.0173616
-0.0174205
-0.0173617
-0.0174206
-0.0174318
-0.0174561
-0.0175275
-0.0174563
-0.0175277
-0.0174569
-0.0174681
-0.017527
-0.0175155
-0.0174567
-0.017468
-0.0175269
-0.0174561
-0.0175275
-0.0174562
-0.0175277
-0.0174569
-0.0174681
-0.0175156
-0.017527
-0.017468
-0.0174567
-0.0175269
-0.0174325
-0.0173611
-0.0173608
-0.0174323
-0.0174317
-0.017373
-0.0173616
-0.0174205
-0.0173616
-0.0174206
-0.0174318
-0.0174325
-0.0173611
-0.0173608
-0.0174323
-0.0174569
-0.0174682
-0.017527
-0.0175156
-0.0174567
-0.017468
-0.0175268
-0.0174561
-0.0175275
-0.0174563
-0.0175277
-0.0174569
-0.017468
-0.0175156
-0.0175269
-0.0174679
-0.0174568
-0.0175269
-0.0174561
-0.0175274
-0.0174563
-0.0175277
-0.0173612
-0.0173613
-0.0174322
-0.0174323
-0.0174321
-0.0173613
-0.0174321
-0.0175274
-0.0174563
-0.0174563
-0.0175274
-0.0175272
-0.0174563
-0.0174565
-0.0175273
-0.0174565
-0.0174312
-0.017373
-0.017362
-0.0174206
-0.0173622
-0.0174206
-0.0174316
-0.0174321
-0.0173613
-0.0173613
-0.0174322
-0.0174321
-0.0173613
-0.0173613
-0.0174322
-0.0174574
-0.0174682
-0.0175156
-0.0175267
-0.0174681
-0.0174571
-0.0175263
-0.0174575
-0.0174681
-0.0175156
-0.0175267
-0.017468
-0.0174571
-0.0175263
-0.0174565
-0.0175273
-0.0174565
-0.0175273
-0.0174565
-0.0175273
-0.0174565
-0.0175273
-0.0173611
-0.0174322
-0.0173613
-0.0174322
-0.0174563
-0.0175274
-0.0175273
-0.0174563
-0.0174565
-0.0175274
-0.0174563
-0.0175273
-0.0174565
-0.0175517
-0.0176225
-0.0175516
-0.0176226
-0.0175517
-0.0175516
-0.0176226
-0.0176225
-0.0176226
-0.0177176
-0.0176468
-0.0177177
-0.0176466
-0.0176466
-0.0177176
-0.0177177
-0.0176468
-0.0176466
-0.0176224
-0.0175517
-0.0175517
-0.0176225
-0.0176215
-0.0175523
-0.0175633
-0.017611
-0.0175526
-0.0176219
-0.017611
-0.0176215
-0.0175523
-0.0175634
-0.017611
-0.0175526
-0.0176219
-0.017611
-0.0176469
-0.0177176
-0.0176468
-0.0177176
-0.0176469
-0.0177176
-0.0176468
-0.0177176
-0.0176477
-0.0176585
-0.0177171
-0.017706
-0.0176474
-0.0176583
-0.0177167
-0.0176477
-0.0176585
-0.0177171
-0.017706
-0.0176474
-0.0176583
-0.0177167
-0.0175517
-0.0175515
-0.0176226
-0.0176223
-0.0176228
-0.0175515
-0.0176226
-0.0177176
-0.0176468
-0.0176466
-0.0177176
-0.0177177
-0.0176468
-0.0176466
-0.0177177
-0.0176467
-0.017622
-0.017552
-0.0175633
-0.0176109
-0.017552
-0.0176222
-0.017611
-0.0176228
-0.0175515
-0.0175512
-0.0176226
-0.017622
-0.0175633
-0.017552
-0.0176109
-0.017552
-0.017611
-0.0176222
-0.0176464
-0.0177177
-0.0176466
-0.017718
-0.0176471
-0.0176585
-0.0177173
-0.0177059
-0.0176471
-0.0176583
-0.0177172
-0.0176464
-0.0177178
-0.0176466
-0.0177181
-0.0176472
-0.0176584
-0.017706
-0.0177174
-0.0176583
-0.0176471
-0.0177171
-0.0176228
-0.0175515
-0.0175512
-0.0176227
-0.017622
-0.0175633
-0.017552
-0.017611
-0.017552
-0.017611
-0.0176223
-0.0176229
-0.0175515
-0.0175512
-0.0176227
-0.0176472
-0.0176585
-0.0177173
-0.017706
-0.0176471
-0.0176583
-0.0177171
-0.0176465
-0.0177178
-0.0176466
-0.017718
-0.0176472
-0.0176583
-0.017706
-0.0177173
-0.0176583
-0.0176471
-0.0177171
-0.0176464
-0.0177177
-0.0176466
-0.017718
-0.0175516
-0.0175517
-0.0176226
-0.0176227
-0.0176224
-0.0175517
-0.0176225
-0.0177178
-0.0176467
-0.0176466
-0.0177178
-0.0177175
-0.0176467
-0.0176469
-0.0177176
-0.0176468
-0.0176215
-0.0175634
-0.0175523
-0.0176109
-0.0175526
-0.017611
-0.0176219
-0.0176225
-0.0175517
-0.0175516
-0.0176225
-0.0176225
-0.0175517
-0.0175516
-0.0176225
-0.0176478
-0.0176586
-0.017706
-0.017717
-0.0176584
-0.0176474
-0.0177166
-0.0176477
-0.0176586
-0.017706
-0.017717
-0.0176583
-0.0176475
-0.0177167
-0.0176469
-0.0177176
-0.0176468
-0.0177177
-0.0176469
-0.0177176
-0.0176468
-0.0177176
-0.0175515
-0.0176226
-0.0175517
-0.0176225
-0.0176466
-0.0177177
-0.0177176
-0.0176465
-0.017647
-0.0177177
-0.0176467
-0.0177176
-0.0176468
-0.017742
-0.0178128
-0.0177418
-0.0178129
-0.017742
-0.0177419
-0.017813
-0.0178128
-0.0178129
-0.017908
-0.0178371
-0.0179081
-0.017837
-0.0178367
-0.0179079
-0.0179081
-0.0178371
-0.017837
-0.0178128
-0.017742
-0.0177419
-0.0178128
-0.0178118
-0.0177427
-0.0177536
-0.0178013
-0.0177429
-0.0178123
-0.0178014
-0.0178118
-0.0177426
-0.0177536
-0.0178013
-0.0177429
-0.0178123
-0.0178014
-0.0178372
-0.017908
-0.0178371
-0.017908
-0.0178372
-0.0179079
-0.0178371
-0.017908
-0.017838
-0.0178488
-0.0179074
-0.0178964
-0.0178378
-0.0178485
-0.0179069
-0.017838
-0.0178488
-0.0179074
-0.0178964
-0.0178378
-0.0178485
-0.0179069
-0.017742
-0.0177418
-0.017813
-0.0178128
-0.0178129
-0.0177418
-0.0178129
-0.0179079
-0.0178371
-0.0178367
-0.0179079
-0.0179081
-0.0178371
-0.017837
-0.0179081
-0.017837
-0.0178123
-0.0177424
-0.0177536
-0.0178012
-0.0177423
-0.0178125
-0.0178014
-0.0178131
-0.0177418
-0.0177415
-0.017813
-0.0178123
-0.0177536
-0.0177424
-0.0178012
-0.0177423
-0.0178014
-0.0178125
-0.0178367
-0.0179081
-0.0178369
-0.0179084
-0.0178375
-0.0178488
-0.0179077
-0.0178964
-0.0178375
-0.0178485
-0.0179075
-0.0178367
-0.0179081
-0.0178369
-0.0179084
-0.0178374
-0.0178488
-0.0178964
-0.0179077
-0.0178485
-0.0178375
-0.0179074
-0.0178131
-0.0177418
-0.0177415
-0.0178129
-0.0178123
-0.0177536
-0.0177423
-0.0178012
-0.0177423
-0.0178014
-0.0178125
-0.0178131
-0.0177417
-0.0177415
-0.0178129
-0.0178374
-0.0178489
-0.0179076
-0.0178964
-0.0178375
-0.0178486
-0.0179074
-0.0178367
-0.0179081
-0.0178369
-0.0179084
-0.0178374
-0.0178487
-0.0178964
-0.0179077
-0.0178485
-0.0178375
-0.0179075
-0.0178367
-0.0179081
-0.0178369
-0.0179084
-0.0177419
-0.017742
-0.017813
-0.017813
-0.0178127
-0.017742
-0.0178128
-0.0179081
-0.017837
-0.0178367
-0.0179081
-0.0179079
-0.017837
-0.0178372
-0.0179079
-0.0178371
-0.0178118
-0.0177536
-0.0177427
-0.0178012
-0.0177429
-0.0178014
-0.0178123
-0.0178127
-0.017742
-0.017742
-0.0178128
-0.0178128
-0.017742
-0.017742
-0.0178128
-0.017838
-0.0178489
-0.0178964
-0.0179074
-0.0178487
-0.0178378
-0.0179069
-0.017838
-0.0178489
-0.0178964
-0.0179074
-0.0178486
-0.0178378
-0.0179069
-0.0178372
-0.0179079
-0.0178371
-0.017908
-0.0178372
-0.017908
-0.0178371
-0.017908
-0.0177418
-0.0178129
-0.017742
-0.0178128
-0.0178367
-0.0179081
-0.017908
-0.017837
-0.0178372
-0.0179081
-0.017837
-0.017908
-0.0178371
-0.0179323
-0.0180032
-0.0179322
-0.0180033
-0.0179324
-0.0179322
-0.0180034
-0.0180032
-0.0180033
-0.0180984
-0.0180275
-0.0180985
-0.0180274
-0.0180266
-0.0180984
-0.0180985
-0.0180276
-0.0180274
-0.0180032
-0.0179323
-0.0179323
-0.0180031
-0.0180021
-0.0179331
-0.0179439
-0.0179916
-0.0179331
-0.0180027
-0.017992
-0.0180021
-0.0179331
-0.0179439
-0.0179916
-0.0179331
-0.0180026
-0.017992
-0.0180275
-0.0180984
-0.0180275
-0.0180984
-0.0180276
-0.0180983
-0.0180275
-0.0180984
-0.0180283
-0.0180392
-0.0180979
-0.018087
-0.0180283
-0.0180388
-0.0180973
-0.0180283
-0.0180392
-0.0180979
-0.018087
-0.0180282
-0.0180388
-0.0180972
-0.0179324
-0.0179322
-0.0180034
-0.018003
-0.0180035
-0.0179322
-0.0180033
-0.0180984
-0.0180275
-0.0180266
-0.0180984
-0.0180986
-0.0180275
-0.0180274
-0.0180985
-0.0180274
-0.0180026
-0.0179328
-0.0179438
-0.0179916
-0.0179326
-0.018003
-0.0179919
-0.0180035
-0.0179322
-0.0179319
-0.0180033
-0.0180026
-0.0179439
-0.0179328
-0.0179915
-0.0179325
-0.0179919
-0.018003
-0.0180271
-0.0180985
-0.0180273
-0.0180988
-0.0180277
-0.0180392
-0.0180982
-0.018087
-0.018028
-0.0180388
-0.0180978
-0.0180271
-0.0180985
-0.0180273
-0.0180988
-0.0180277
-0.0180392
-0.018087
-0.0180982
-0.0180388
-0.018028
-0.0180978
-0.0180036
-0.0179321
-0.0179319
-0.0180034
-0.0180026
-0.0179438
-0.0179328
-0.0179916
-0.0179326
-0.0179919
-0.018003
-0.0180036
-0.0179321
-0.0179318
-0.0180034
-0.0180277
-0.0180393
-0.0180982
-0.018087
-0.018028
-0.0180388
-0.0180978
-0.0180271
-0.0180985
-0.0180274
-0.0180988
-0.0180277
-0.0180391
-0.018087
-0.0180982
-0.0180388
-0.0180279
-0.0180978
-0.0180271
-0.0180985
-0.0180274
-0.0180988
-0.0179322
-0.0179323
-0.0180034
-0.0180034
-0.0180031
-0.0179323
-0.0180032
-0.0180985
-0.0180274
-0.0180268
-0.0180986
-0.0180983
-0.0180274
-0.0180276
-0.0180983
-0.0180275
-0.0180021
-0.017944
-0.0179331
-0.0179915
-0.0179331
-0.0179919
-0.0180027
-0.0180031
-0.0179323
-0.0179323
-0.0180032
-0.0180032
-0.0179323
-0.0179323
-0.0180032
-0.0180283
-0.0180394
-0.018087
-0.0180979
-0.018039
-0.0180283
-0.0180972
-0.0180283
-0.0180394
-0.0180869
-0.0180979
-0.0180389
-0.0180283
-0.0180972
-0.0180276
-0.0180983
-0.0180275
-0.0180984
-0.0180276
-0.0180984
-0.0180275
-0.0180984
-0.0179322
-0.0180033
-0.0179323
-0.0180031
-0.0180267
-0.0180985
-0.0180984
-0.0180273
-0.0180277
-0.0180985
-0.0180274
-0.0180984
-0.0180276
-0.0181228
-0.0181936
-0.0181227
-0.0181938
-0.0181229
-0.0181227
-0.0181941
-0.0181937
-0.0181938
-0.0182889
-0.0182181
-0.018289
-0.018218
-0.0182163
-0.0182889
-0.018289
-0.0182181
-0.0182179
-0.0181936
-0.0181228
-0.0181227
-0.0181936
-0.0181924
-0.0181237
-0.0181341
-0.0181822
-0.0181234
-0.0181933
-0.0181827
-0.0181924
-0.0181236
-0.0181341
-0.0181822
-0.0181233
-0.0181933
-0.0181827
-0.0182181
-0.0182888
-0.0182181
-0.0182889
-0.0182181
-0.0182888
-0.0182181
-0.0182889
-0.0182185
-0.0182296
-0.0182885
-0.0182779
-0.018219
-0.018229
-0.0182874
-0.0182185
-0.0182296
-0.0182886
-0.0182779
-0.018219
-0.018229
-0.0182875
-0.0181228
-0.0181227
-0.018194
-0.0181937
-0.0181938
-0.0181227
-0.0181937
-0.0182889
-0.0182181
-0.0182163
-0.0182889
-0.018289
-0.0182181
-0.0182179
-0.018289
-0.0182179
-0.0181929
-0.0181233
-0.018134
-0.0181822
-0.0181228
-0.0181935
-0.0181827
-0.018194
-0.0181226
-0.0181223
-0.0181938
-0.0181929
-0.0181341
-0.0181233
-0.0181821
-0.0181228
-0.0181826
-0.0181935
-0.0182177
-0.018289
-0.0182179
-0.0182893
-0.0182179
-0.0182296
-0.0182888
-0.0182779
-0.0182187
-0.0182289
-0.018288
-0.0182176
-0.018289
-0.0182179
-0.0182893
-0.0182179
-0.0182297
-0.0182779
-0.0182888
-0.018229
-0.0182186
-0.018288
-0.018194
-0.0181226
-0.0181223
-0.0181938
-0.0181929
-0.0181341
-0.0181233
-0.0181821
-0.0181228
-0.0181826
-0.0181935
-0.018194
-0.0181226
-0.0181223
-0.0181937
-0.0182179
-0.0182297
-0.0182888
-0.018278
-0.0182187
-0.018229
-0.018288
-0.0182176
-0.018289
-0.0182179
-0.0182893
-0.0182179
-0.0182296
-0.0182779
-0.0182887
-0.018229
-0.0182187
-0.018288
-0.0182176
-0.018289
-0.0182179
-0.0182893
-0.0181227
-0.0181228
-0.018194
-0.0181939
-0.0181936
-0.0181228
-0.0181936
-0.018289
-0.0182179
-0.0182165
-0.0182891
-0.0182888
-0.0182179
-0.0182181
-0.0182888
-0.0182181
-0.0181924
-0.0181342
-0.0181237
-0.0181821
-0.0181234
-0.0181825
-0.0181932
-0.0181936
-0.0181228
-0.0181227
-0.0181936
-0.0181936
-0.0181228
-0.0181227
-0.0181936
-0.0182185
-0.0182299
-0.0182778
-0.0182885
-0.0182292
-0.0182189
-0.0182874
-0.0182185
-0.0182298
-0.0182777
-0.0182885
-0.0182291
-0.018219
-0.0182875
-0.018218
-0.0182888
-0.0182181
-0.0182889
-0.018218
-0.0182888
-0.0182181
-0.0182889
-0.0181226
-0.0181937
-0.0181228
-0.0181936
-0.0182165
-0.018289
-0.018289
-0.0182179
-0.0182181
-0.018289
-0.0182179
-0.0182888
-0.0182181
-0.0183134
-0.0183841
-0.0183133
-0.0183842
-0.0183135
-0.0183133
-0.0183848
-0.0183842
-0.0183844
-0.0184791
-0.0184088
-0.0184793
-0.0184087
-0.0184052
-0.0184793
-0.0184795
-0.0184088
-0.0184087
-0.0183841
-0.0183134
-0.0183133
-0.0183841
-0.0183824
-0.0183145
-0.0183243
-0.0183731
-0.0183135
-0.0183839
-0.0183737
-0.0183824
-0.0183145
-0.0183243
-0.018373
-0.0183135
-0.0183839
-0.0183736
-0.0184086
-0.0184791
-0.0184087
-0.0184793
-0.0184086
-0.0184791
-0.0184088
-0.0184793
-0.0184083
-0.0184196
-0.0184791
-0.0184691
-0.0184099
-0.018419
-0.0184772
-0.0184083
-0.0184197
-0.0184791
-0.018469
-0.0184099
-0.018419
-0.0184772
-0.0183135
-0.0183133
-0.0183848
-0.0183841
-0.0183845
-0.0183133
-0.0183842
-0.0184791
-0.0184088
-0.0184053
-0.0184793
-0.0184795
-0.0184089
-0.0184086
-0.0184793
-0.0184086
-0.018383
-0.0183142
-0.0183242
-0.0183731
-0.0183129
-0.0183842
-0.0183738
-0.0183845
-0.0183133
-0.0183129
-0.0183842
-0.018383
-0.0183243
-0.0183142
-0.018373
-0.0183129
-0.0183736
-0.0183842
-0.0184082
-0.0184793
-0.0184086
-0.0184797
-0.0184078
-0.0184196
-0.0184794
-0.0184692
-0.0184096
-0.0184189
-0.0184777
-0.0184082
-0.0184793
-0.0184086
-0.0184797
-0.0184077
-0.0184197
-0.0184691
-0.0184793
-0.018419
-0.0184096
-0.0184777
-0.0183845
-0.0183132
-0.0183128
-0.0183842
-0.018383
-0.0183243
-0.0183142
-0.018373
-0.0183129
-0.0183736
-0.0183842
-0.0183845
-0.0183133
-0.0183128
-0.0183842
-0.0184078
-0.0184197
-0.0184794
-0.0184692
-0.0184096
-0.018419
-0.0184777
-0.0184081
-0.0184793
-0.0184086
-0.0184797
-0.0184078
-0.0184196
-0.0184691
-0.0184794
-0.018419
-0.0184096
-0.0184777
-0.0184082
-0.0184793
-0.0184086
-0.0184797
-0.0183134
-0.0183134
-0.0183847
-0.0183844
-0.0183842
-0.0183134
-0.018384
-0.0184793
-0.0184086
-0.0184054
-0.0184795
-0.0184793
-0.0184086
-0.0184088
-0.0184791
-0.0184088
-0.0183824
-0.0183244
-0.0183145
-0.0183728
-0.0183135
-0.0183734
-0.0183839
-0.0183841
-0.0183134
-0.0183132
-0.018384
-0.0183841
-0.0183134
-0.0183132
-0.018384
-0.0184084
-0.0184199
-0.0184689
-0.0184791
-0.0184193
-0.0184099
-0.0184771
-0.0184084
-0.0184199
-0.0184688
-0.0184791
-0.0184192
-0.01841
-0.0184771
-0.0184086
-0.0184791
-0.0184087
-0.0184793
-0.0184086
-0.0184791
-0.0184087
-0.0184793
-0.0183133
-0.0183842
-0.0183134
-0.018384
-0.0184054
-0.0184795
-0.0184794
-0.0184086
-0.018409
-0.0184793
-0.0184087
-0.0184792
-0.0184088
-0.0185042
-0.0185741
-0.0185041
-0.0185742
-0.0185042
-0.0185041
-0.0185757
-0.0185744
-0.0185745
-0.0186689
-0.0185996
-0.018669
-0.0185995
-0.0185922
-0.0186692
-0.0186694
-0.0185997
-0.0185995
-0.0185743
-0.0185041
-0.0185037
-0.0185741
-0.0185716
-0.0185056
-0.0185139
-0.0185652
-0.0185029
-0.0185744
-0.0185652
-0.0185716
-0.0185056
-0.018514
-0.0185651
-0.0185029
-0.0185744
-0.0185652
-0.018599
-0.0186689
-0.0185995
-0.0186693
-0.018599
-0.0186689
-0.0185994
-0.0186694
-0.018597
-0.0186076
-0.0186695
-0.0186615
-0.0186012
-0.0186079
-0.0186656
-0.0185971
-0.0186078
-0.0186696
-0.0186614
-0.0186012
-0.0186079
-0.0186656
-0.0185042
-0.0185041
-0.0185757
-0.0185744
-0.0185745
-0.0185041
-0.0185742
-0.0186689
-0.0185996
-0.0185924
-0.0186692
-0.0186694
-0.0185996
-0.0185995
-0.018669
-0.0185995
-0.0185722
-0.0185053
-0.0185137
-0.0185652
-0.0185023
-0.0185747
-0.0185654
-0.0185747
-0.018504
-0.0185033
-0.0185743
-0.0185721
-0.0185139
-0.0185053
-0.018565
-0.0185023
-0.0185652
-0.0185746
-0.0185986
-0.0186691
-0.0185993
-0.0186697
-0.0185964
-0.0186076
-0.0186698
-0.0186618
-0.0186009
-0.0186076
-0.0186661
-0.0185986
-0.0186691
-0.0185993
-0.0186697
-0.0185964
-0.0186077
-0.0186615
-0.0186698
-0.0186079
-0.0186009
-0.0186661
-0.0185747
-0.018504
-0.0185033
-0.0185743
-0.0185721
-0.0185139
-0.0185052
-0.0185651
-0.0185023
-0.0185652
-0.0185746
-0.0185747
-0.018504
-0.0185033
-0.0185743
-0.0185964
-0.0186078
-0.0186698
-0.0186617
-0.018601
-0.0186077
-0.0186661
-0.0185985
-0.0186691
-0.0185993
-0.0186697
-0.0185964
-0.0186077
-0.0186615
-0.0186698
-0.0186079
-0.0186009
-0.0186661
-0.0185985
-0.0186691
-0.0185993
-0.0186697
-0.0185042
-0.0185042
-0.0185756
-0.0185746
-0.0185744
-0.0185042
-0.0185741
-0.018669
-0.0185995
-0.0185925
-0.0186694
-0.0186692
-0.0185995
-0.0185997
-0.0186689
-0.0185996
-0.0185716
-0.0185141
-0.0185056
-0.0185649
-0.018503
-0.0185649
-0.0185744
-0.0185743
-0.0185041
-0.0185037
-0.0185741
-0.0185743
-0.0185041
-0.0185037
-0.0185741
-0.0185972
-0.0186081
-0.0186613
-0.0186696
-0.0186082
-0.0186012
-0.0186656
-0.0185972
-0.018608
-0.0186612
-0.0186696
-0.0186082
-0.0186013
-0.0186655
-0.018599
-0.018669
-0.0185995
-0.0186694
-0.018599
-0.018669
-0.0185995
-0.0186694
-0.0185041
-0.0185742
-0.0185042
-0.0185741
-0.0185925
-0.0186693
-0.0186693
-0.0185996
-0.0185997
-0.018669
-0.0185995
-0.0186689
-0.0185996
-0.0186952
-0.0187635
-0.0186951
-0.0187636
-0.0186953
-0.0186952
-0.0187675
-0.018764
-0.0187641
-0.0188579
-0.0187911
-0.018858
-0.018791
-0.0187762
-0.0188585
-0.0188586
-0.0187913
-0.0187912
-0.0187642
-0.018695
-0.018694
-0.0187637
-0.0187588
-0.0186972