/*--------------------------------*- C++ -*----------------------------------*\
| =========                 |                                                 |
| \\      /  F ield         | OpenFOAM: The Open Source CFD Toolbox           |
|  \\    /   O peration     | Version:  2206                                  |
|   \\  /    A nd           | Website:  www.openfoam.com                      |
|    \\/     M anipulation  |                                                 |
\*---------------------------------------------------------------------------*/
FoamFile
{
    version     2.0;
    format      ascii;
    arch        "LSB;label=32;scalar=64";
    class       surfaceScalarField;
    location    "80";
    object      phi;
}
// * * * * * * * * * * * * * * * * * * * * * * * * * * * * * * * * * * * * * //

dimensions      [0 3 -1 0 0 0 0];

oriented        oriented;

internalField   nonuniform List<scalar> 
199822
(
-4.30848e-12
-2.24562e-12
-1.20354e-07
2.7307e-12
4.20643e-12
1.20353e-07
-1.13614e-07
-3.7892e-11
2.43089e-12
3.25471e-13
1.13611e-07
3.23274e-11
3.84773e-11
-2.88478e-11
-5.84643e-11
5.67499e-11
5.89975e-11
-6.02067e-11
-1.14661e-07
-4.28107e-11
5.85717e-12
-2.4782e-12
1.14661e-07
1.97505e-11
4.33437e-11
-2.07568e-11
-3.90582e-12
2.72417e-11
3.54231e-12
-2.93911e-11
-2.7455e-08
-1.22269e-10
1.82103e-10
-7.5564e-11
1.67599e-10
2.73031e-08
-6.86849e-12
-3.70035e-12
-1.20355e-07
3.93828e-12
6.25614e-12
1.20356e-07
-1.13613e-07
-3.74749e-11
4.69096e-12
-3.51947e-12
1.1361e-07
3.26911e-11
3.86599e-11
-3.2408e-11
-5.8581e-11
5.70193e-11
5.91617e-11
-5.76724e-11
-1.14663e-07
-4.23914e-11
7.79606e-12
-3.28045e-12
1.14661e-07
2.00946e-11
4.33513e-11
-2.05151e-11
-4.13174e-12
2.72931e-11
3.27509e-12
-2.92874e-11
-2.7455e-08
4.9461e-11
2.26205e-11
6.19966e-11
1.84289e-11
2.73025e-08
-1.10815e-11
-9.06885e-12
-1.20357e-07
9.33235e-12
1.03013e-11
1.20358e-07
-1.13611e-07
-3.73482e-11
8.33525e-12
-5.46999e-12
1.13607e-07
3.27631e-11
3.89844e-11
-2.85306e-11
-5.91012e-11
5.65969e-11
5.88257e-11
-6.06829e-11
-1.14664e-07
-4.26559e-11
1.292e-11
-7.90246e-12
1.14662e-07
1.98533e-11
4.33082e-11
-2.06508e-11
-4.03258e-12
2.72399e-11
3.32032e-12
-2.96461e-11
-2.74548e-08
-1.22968e-10
1.81867e-10
-7.54665e-11
1.68141e-10
2.73032e-08
-1.94754e-11
-1.75119e-11
-1.20358e-07
1.79602e-11
1.83691e-11
1.20359e-07
-1.13608e-07
-3.69931e-11
1.72069e-11
-1.36582e-11
1.13607e-07
3.30758e-11
3.93304e-11
-3.18164e-11
-6.02764e-11
5.60324e-11
5.78963e-11
-5.91633e-11
-1.14664e-07
-4.24752e-11
2.16096e-11
-1.41283e-11
1.14662e-07
2.01129e-11
4.35211e-11
-2.03386e-11
-5.04192e-12
2.65889e-11
2.73632e-12
-3.05141e-11
-2.74547e-08
4.89788e-11
2.25388e-11
6.16204e-11
1.90357e-11
2.73025e-08
-3.58555e-11
-3.20071e-11
-1.20359e-07
3.43797e-11
3.52281e-11
1.20358e-07
-1.13607e-07
-3.64516e-11
3.10749e-11
-2.38363e-11
1.13605e-07
3.37625e-11
3.98729e-11
-2.73997e-11
-6.19677e-11
5.41605e-11
5.67931e-11
-6.35123e-11
-1.14666e-07
-4.18832e-11
3.98644e-11
-2.90269e-11
1.14665e-07
2.0667e-11
4.39561e-11
-1.98153e-11
-6.92533e-12
2.51969e-11
1.29285e-12
-3.22916e-11
-2.74545e-08
-1.23888e-10
1.8146e-10
-7.56369e-11
1.69057e-10
2.73036e-08
-6.42489e-11
-5.82092e-11
-1.20362e-07
6.4153e-11
6.58716e-11
1.20355e-07
-1.13602e-07
-3.55123e-11
5.79695e-11
-4.57489e-11
1.13605e-07
3.47865e-11
4.05965e-11
-3.03553e-11
-6.60088e-11
5.16455e-11
5.40676e-11
-6.49663e-11
-1.14666e-07
-4.12044e-11
7.02298e-11
-5.26317e-11
1.14668e-07
2.15637e-11
4.44e-11
-1.90536e-11
-1.06771e-11
2.28011e-11
-1.12899e-12
-3.58627e-11
-2.74533e-08
4.7547e-11
2.13668e-11
6.21009e-11
2.01864e-11
2.73021e-08
-1.10656e-10
-1.01043e-10
-1.2037e-07
1.16207e-10
1.21077e-10
1.20344e-07
-1.13595e-07
-3.3718e-11
9.85619e-11
-8.36407e-11
1.13611e-07
3.69968e-11
4.19126e-11
-2.47366e-11
-7.30216e-11
4.67723e-11
4.90981e-11
-7.42776e-11
-1.14667e-07
-3.9239e-11
1.22778e-10
-1.00404e-10
1.14681e-07
2.41333e-11
4.5903e-11
-1.73036e-11
-1.83875e-11
1.77776e-11
-6.18524e-12
-4.30957e-11
-2.7452e-08
-1.26268e-10
1.78714e-10
-7.39665e-11
1.70315e-10
2.73032e-08
-1.79987e-10
-1.6164e-10
-1.20388e-07
1.96221e-10
2.10722e-10
1.20323e-07
-1.13576e-07
-3.1357e-11
1.57103e-10
-1.5721e-10
1.1364e-07
4.06206e-11
4.54817e-11
-2.42995e-11
-8.57506e-11
3.70315e-11
3.89801e-11
-8.45278e-11
-1.14653e-07
-3.6508e-11
1.99092e-10
-1.83259e-10
1.14707e-07
2.82609e-11
4.94941e-11
-1.31213e-11
-3.18239e-11
7.34224e-12
-1.70084e-11
-5.6377e-11
-2.74486e-08
4.37785e-11
1.72182e-11
6.38593e-11
2.16441e-11
2.73021e-08
-2.49211e-10
-2.15778e-10
-1.20418e-07
2.77892e-10
3.15514e-10
1.20289e-07
-1.13518e-07
-3.28262e-11
2.0613e-10
-2.84312e-10
1.13728e-07
4.11149e-11
5.67262e-11
-1.00656e-11
-1.05018e-10
1.37681e-11
1.38288e-11
-1.09423e-10
-1.14599e-07
-3.7607e-11
2.81239e-10
-3.31054e-10
1.14792e-07
2.94656e-11
6.02417e-11
-2.17206e-12
-5.24823e-11
-1.66436e-11
-4.35821e-11
-7.97033e-11
-2.74408e-08
-1.26345e-10
1.77008e-10
-7.73288e-11
1.65375e-10
2.73021e-08
-1.6188e-10
-1.12936e-10
-1.2038e-07
1.40567e-10
2.11088e-10
1.20304e-07
-1.1332e-07
-5.85399e-11
9.48723e-11
-4.66196e-10
1.13981e-07
1.95747e-11
9.78751e-11
2.00332e-11
-1.21008e-10
-4.62163e-11
-5.87564e-11
-1.42739e-10
-1.14404e-07
-6.33927e-11
2.11321e-10
-5.2939e-10
1.15028e-07
9.01285e-12
9.94431e-11
3.04682e-11
-7.10409e-11
-7.73568e-11
-1.17089e-10
-1.15976e-10
-2.7427e-08
7.23647e-11
4.53518e-11
2.3452e-11
-1.45863e-11
2.73004e-08
1.16021e-10
1.0408e-09
-1.19533e-07
-1.13483e-09
-1.39267e-09
1.20903e-07
-1.12583e-07
-1.58598e-10
-1.0878e-09
-5.25458e-10
1.14413e-07
-6.0122e-11
3.22123e-10
1.72274e-10
1.54934e-11
-1.50051e-10
-2.29611e-10
-1.29114e-10
-1.13673e-07
-1.61275e-10
-1.01133e-10
2.92481e-10
1.15175e-07
-6.55135e-11
3.17449e-10
1.02779e-10
-3.86218e-10
-3.18072e-10
-7.73233e-10
-4.09565e-10
-2.73985e-08
5.85573e-12
3.01819e-10
-2.18324e-10
2.4813e-11
2.72844e-08
6.96279e-10
7.98158e-10
-1.30882e-07
-8.98402e-09
-9.10127e-09
3.099e-08
3.08738e-08
3.10391e-08
3.10458e-08
1.90025e-09
5.47937e-09
4.41107e-09
1.93715e-09
5.42918e-09
4.36567e-09
-2.72739e-08
-3.37693e-09
5.45432e-11
-3.69484e-09
2.03626e-09
3.22547e-08
-2.60735e-08
-7.96174e-10
-2.8952e-09
1.17917e-09
-3.25807e-09
3.18437e-08
-2.7492e-08
2.90182e-09
2.89697e-09
-3.04826e-09
-2.73416e-09
2.74756e-08
-3.51966e-11
-3.84738e-11
2.74425e-08
-2.72901e-08
-3.98568e-11
-3.88728e-11
1.15742e-07
-2.40432e-12
-1.15741e-07
4.51607e-13
-3.3921e-11
-1.61409e-11
1.5707e-11
-1.97621e-11
-2.71414e-11
2.66906e-11
2.10862e-11
3.44799e-11
1.15768e-07
-5.18376e-13
-1.15765e-07
4.72338e-13
-3.43731e-11
-1.76195e-11
1.60317e-11
-2.02829e-11
-2.7739e-11
2.62195e-11
2.03047e-11
-3.85518e-11
2.74412e-08
-2.72888e-08
-3.98455e-11
-3.95012e-11
1.13641e-07
-4.10502e-12
-1.13641e-07
6.18043e-13
-3.74152e-11
-3.2501e-11
3.22616e-11
5.96301e-11
-5.63669e-11
5.6997e-11
-5.7502e-11
2.84754e-11
1.14674e-07
-4.0095e-12
-1.14675e-07
-3.62824e-14
-2.69188e-11
-2.93333e-11
3.30182e-11
3.94059e-11
-5.5741e-11
5.3623e-11
-3.8079e-11
-2.5711e-12
-1.13614e-07
1.31566e-12
-3.78809e-11
-3.26103e-11
3.22097e-11
5.92249e-11
-5.71206e-11
-5.80753e-11
5.69043e-11
5.08388e-11
1.14643e-07
5.01983e-11
-1.14692e-07
-2.52401e-11
-2.56315e-11
-2.94872e-11
2.8253e-11
3.88024e-11
-5.58285e-11
5.57354e-11
-3.91924e-11
-4.36782e-11
2.74438e-08
-2.72924e-08
-4.67938e-11
-3.24456e-11
-3.58138e-12
-1.14659e-07
-2.71315e-13
-4.28058e-11
-2.01466e-11
1.64592e-11
4.64609e-12
-2.83608e-11
-2.73869e-12
3.08783e-11
2.29759e-11
1.14773e-07
-7.00597e-11
-1.14715e-07
3.37033e-11
-4.47312e-11
-2.00824e-11
2.02489e-11
4.31103e-12
-2.92487e-11
2.77677e-11
-2.3797e-12
-2.73025e-08
-6.16901e-11
-1.694e-11
3.42717e-11
3.74714e-11
4.05839e-11
3.9956e-11
2.72902e-08
-3.51633e-11
-3.85615e-11
2.74418e-08
-2.72896e-08
-3.96694e-11
-3.8892e-11
-4.37656e-14
1.15741e-07
1.53951e-11
3.49545e-11
-1.61766e-11
2.00183e-11
2.56233e-11
-2.11391e-11
-2.82114e-11
-3.46602e-11
6.37692e-12
7.88601e-13
1.15769e-07
1.57375e-11
3.46382e-11
-2.13168e-11
1.96975e-11
2.51544e-11
-2.13346e-11
-2.6056e-11
1.15743e-07
-2.82297e-12
-1.15742e-07
2.91296e-12
-3.44353e-11
-1.61431e-11
1.53412e-11
-2.07755e-11
-2.71349e-11
2.60748e-11
2.10113e-11
3.50116e-11
1.15768e-07
-4.26257e-12
-1.15768e-07
4.57678e-12
-3.43698e-11
-1.71547e-11
1.59448e-11
-2.06258e-11
-2.68936e-11
2.58283e-11
2.12519e-11
4.01686e-11
3.99598e-11
2.72885e-08
-3.86707e-11
2.74404e-08
-2.72879e-08
-3.97379e-11
-3.91387e-11
-8.6062e-13
1.13639e-07
3.22912e-11
3.82602e-11
-3.25923e-11
-5.8342e-11
5.64439e-11
5.90862e-11
-5.76758e-11
-2.6964e-11
3.0946e-12
-5.6505e-13
1.14673e-07
2.93459e-11
2.7892e-11
-2.97473e-11
-3.92403e-11
5.56655e-11
3.87946e-11
-5.71896e-11
1.13641e-07
-5.93435e-12
-1.1364e-07
1.87211e-12
-3.75276e-11
-3.2514e-11
3.21101e-11
5.93833e-11
-5.62877e-11
5.68675e-11
-5.74098e-11
2.85137e-11
1.14677e-07
-6.18266e-12
-1.14677e-07
1.3759e-12
-2.69794e-11
-2.94773e-11
3.28726e-11
3.94524e-11
-5.56709e-11
5.35501e-11
-3.77256e-11
4.74856e-10
-1.41204e-10
1.13879e-07
7.65046e-11
1.97665e-10
6.53819e-11
-4.21634e-11
5.54841e-11
-8.43474e-11
3.96849e-11
-6.07849e-12
-1.13611e-07
6.55906e-13
-3.7895e-11
-3.2513e-11
3.22439e-11
5.98033e-11
-5.66979e-11
-5.73526e-11
5.75285e-11
-1.20797e-10
1.14639e-07
-4.7587e-10
-1.13878e-07
1.43973e-10
-1.96262e-10
-7.74892e-11
-6.33611e-11
4.25826e-11
-5.56914e-11
8.13132e-11
-3.88858e-11
4.78086e-11
3.35201e-11
2.72927e-08
-4.33231e-11
2.74429e-08
-2.7292e-08
-4.6733e-11
-3.2284e-11
-5.62453e-10
1.75357e-10
1.15581e-07
-2.63983e-11
-1.20809e-10
-1.19479e-10
-5.73925e-13
2.63363e-11
-1.1371e-13
1.79507e-12
-5.63475e-12
-1.1466e-07
4.13404e-12
-4.29726e-11
-2.06964e-11
1.60616e-11
3.73677e-12
-2.83509e-11
-2.79242e-12
3.01177e-11
1.82568e-10
1.14779e-07
5.61508e-10
-1.15583e-07
-1.73833e-10
1.20601e-10
2.64671e-11
1.15726e-10
2.90556e-14
-2.7634e-11
6.91421e-13
-1.3646e-12
-2.7303e-08
7.5572e-11
-1.65791e-10
3.39569e-11
3.70857e-11
4.08064e-11
4.02154e-11
2.72898e-08
-3.47423e-11
-3.8451e-11
2.74412e-08
-2.72892e-08
-3.9629e-11
-3.91088e-11
-2.68224e-12
1.15743e-07
1.54439e-11
3.52397e-11
-1.60971e-11
1.99199e-11
2.54324e-11
-2.11973e-11
-2.82951e-11
-3.4036e-11
7.44206e-12
-1.44806e-12
1.15767e-07
1.61289e-11
3.48603e-11
-1.73751e-11
1.98409e-11
2.54156e-11
-2.09812e-11
-2.84852e-11
1.15745e-07
-6.91565e-12
-1.15744e-07
7.0824e-12
-3.46281e-11
-1.66366e-11
1.49812e-11
-2.0525e-11
-2.67642e-11
2.63034e-11
2.15525e-11
3.47436e-11
1.1577e-07
-8.0809e-12
-1.15769e-07
7.56412e-12
-3.44655e-11
-1.73958e-11
1.591e-11
-2.04223e-11
-2.67513e-11
2.61562e-11
2.14661e-11
4.04121e-11
4.0546e-11
2.7288e-08
-3.86305e-11
2.74397e-08
-2.72874e-08
-3.9568e-11
-3.9376e-11
-3.22999e-12
1.1364e-07
3.25826e-11
3.85596e-11
-3.23971e-11
-5.85046e-11
5.63869e-11
5.91205e-11
-5.77297e-11
-2.68148e-11
4.52905e-12
-1.73257e-12
1.14676e-07
2.92312e-11
2.79998e-11
-2.9674e-11
-3.92517e-11
5.5386e-11
3.89871e-11
-5.71496e-11
1.1364e-07
-9.14645e-12
-1.1364e-07
4.88764e-12
-3.74351e-11
-3.25751e-11
3.23789e-11
5.95818e-11
-5.61243e-11
5.71898e-11
-5.71826e-11
2.84212e-11
1.14679e-07
-9.02782e-12
-1.14678e-07
3.96422e-12
-2.68366e-11
-2.95453e-11
3.29122e-11
3.95289e-11
-5.55486e-11
5.34909e-11
-3.75158e-11
-4.65144e-11
2.48353e-11
1.14688e-07
2.79229e-11
2.66718e-11
-2.96509e-11
-3.94231e-11
5.4883e-11
-5.7432e-11
3.95104e-11
-9.71559e-12
-1.1361e-07
4.99358e-12
-3.7694e-11
-3.28207e-11
3.22723e-11
5.98052e-11
-5.65411e-11
-5.72612e-11
5.7343e-11
5.15267e-11
1.14639e-07
4.30955e-11
-1.14688e-07
-2.26267e-11
-2.4976e-11
-2.94951e-11
2.77886e-11
3.97214e-11
-5.46177e-11
5.64863e-11
-3.80787e-11
4.78477e-11
3.37535e-11
2.72921e-08
-4.28387e-11
2.74418e-08
-2.72913e-08
-4.70833e-11
-3.21926e-11
7.585e-11
-3.6063e-11
1.14719e-07
2.04432e-11
4.50556e-11
-2.02447e-11
-3.78522e-12
2.75809e-11
-2.94096e-11
2.41131e-12
-9.51388e-12
-1.14661e-07
7.07605e-12
-4.31694e-11
-2.11226e-11
1.57109e-11
4.23949e-12
-2.77706e-11
-2.33418e-12
3.05574e-11
2.29718e-11
1.14781e-07
-7.91469e-11
-1.14722e-07
3.99266e-11
-4.49704e-11
-2.00955e-11
2.01611e-11
3.84171e-12
-2.82792e-11
2.77747e-11
-1.52193e-12
-2.73023e-08
-6.16518e-11
-1.63451e-11
3.4233e-11
3.69371e-11
4.08933e-11
3.99602e-11
2.72891e-08
-3.46053e-11
-3.83692e-11
2.74406e-08
-2.72889e-08
-3.95579e-11
-3.91202e-11
-5.32212e-12
1.15744e-07
1.5119e-11
3.5145e-11
-1.62369e-11
1.97244e-11
2.54236e-11
-2.12052e-11
-2.86525e-11
-3.40631e-11
1.20385e-11
-5.86595e-12
1.1577e-07
1.61856e-11
3.50535e-11
-2.09748e-11
1.93919e-11
2.52412e-11
-2.14548e-11
-2.59994e-11
1.15746e-07
-1.537e-11
-1.15746e-07
1.32474e-11
-3.47408e-11
-1.70666e-11
1.46603e-11
-1.98223e-11
-2.56488e-11
2.69389e-11
2.24749e-11
3.47384e-11
1.15773e-07
-1.67558e-11
-1.15771e-07
1.31696e-11
-3.44884e-11
-1.77636e-11
1.56329e-11
-1.97793e-11
-2.55493e-11
2.69661e-11
2.23914e-11
4.05825e-11
4.0375e-11
2.72874e-08
-3.86171e-11
2.74394e-08
-2.72873e-08
-3.9543e-11
-3.9155e-11
-6.49623e-12
1.13638e-07
3.26473e-11
3.88737e-11
-3.22548e-11
-5.91707e-11
5.60273e-11
5.85211e-11
-5.81432e-11
-2.66681e-11
9.78993e-12
-5.34914e-12
1.14676e-07
2.93506e-11
2.84322e-11
-2.95164e-11
-3.98052e-11
5.51361e-11
3.85521e-11
-5.77851e-11
1.13638e-07
-1.56028e-11
-1.13637e-07
1.009e-11
-3.74797e-11
-3.28843e-11
3.21438e-11
5.9932e-11
-5.56062e-11
5.73496e-11
-5.66337e-11
2.86538e-11
1.14676e-07
-1.53359e-11
-1.14677e-07
8.6954e-12
-2.66421e-11
-2.9498e-11
3.29221e-11
3.98106e-11
-5.49213e-11
5.40859e-11
-3.68733e-11
4.80503e-10
-1.46677e-10
1.13874e-07
7.69121e-11
1.98383e-10
6.53501e-11
-4.26194e-11
5.53266e-11
-8.50634e-11
3.95722e-11
-1.64831e-11
-1.13607e-07
8.53696e-12
-3.78425e-11
-3.27519e-11
3.22326e-11
6.02886e-11
-5.52778e-11
-5.64682e-11
5.79723e-11
-1.20774e-10
1.14638e-07
-4.86452e-10
-1.13876e-07
1.51216e-10
-1.96225e-10
-7.79503e-11
-6.36312e-11
4.30086e-11
-5.48276e-11
8.15297e-11
-3.79217e-11
4.74991e-11
3.39274e-11
2.72911e-08
-4.24606e-11
2.74414e-08
-2.7291e-08
-4.73906e-11
-3.18902e-11
-5.5584e-10
1.69013e-10
1.15589e-07
-2.59308e-11
-1.20455e-10
-1.1883e-10
-9.05224e-13
2.61548e-11
-4.98409e-13
1.52495e-12
-1.98991e-11
-1.14661e-07
1.52682e-11
-4.35796e-11
-2.13584e-11
1.55593e-11
5.02332e-12
-2.64527e-11
-9.81461e-13
3.13058e-11
1.8206e-10
1.14784e-07
5.48325e-10
-1.1559e-07
-1.64036e-10
1.20166e-10
2.59656e-11
1.15412e-10
1.15027e-12
-2.58715e-11
1.7626e-12
2.84599e-13
-2.73032e-08
7.50925e-11
-1.65278e-10
3.40173e-11
3.66831e-11
4.11065e-11
3.99369e-11
2.72888e-08
-3.43232e-11
-3.8113e-11
2.74402e-08
-2.72891e-08
-3.94503e-11
-3.91849e-11
-1.2078e-11
1.15746e-07
1.55319e-11
3.54357e-11
-1.57849e-11
1.87557e-11
2.4817e-11
-2.19352e-11
-2.94511e-11
-3.37204e-11
2.06974e-11
-1.34492e-11
1.15773e-07
1.64591e-11
3.53835e-11
-1.69135e-11
1.86352e-11
2.44455e-11
-2.20965e-11
-2.94415e-11
1.15747e-07
-2.91276e-11
-1.15747e-07
2.38422e-11
-3.49979e-11
-1.74905e-11
1.43319e-11
-1.89347e-11
-2.39602e-11
2.79112e-11
2.41446e-11
3.41491e-11
1.15775e-07
-3.08097e-11
-1.15775e-07
2.47306e-11
-3.49033e-11
-1.83998e-11
1.53083e-11
-1.86642e-11
-2.36123e-11
2.78683e-11
2.43782e-11
4.08063e-11
4.05543e-11
2.72873e-08
-3.83725e-11
2.74387e-08
-2.72873e-08
-3.92857e-11
-3.95652e-11
-1.31847e-11
1.13636e-07
3.2862e-11
3.91799e-11
-3.18146e-11
-6.01012e-11
5.52057e-11
5.79141e-11
-5.90765e-11
-2.61393e-11
1.84476e-11
-1.14722e-11
1.14673e-07
2.99368e-11
2.88947e-11
-2.89701e-11
-4.09187e-11
5.41633e-11
3.77284e-11
-5.88009e-11
1.13635e-07
-2.89338e-11
-1.13636e-07
2.01218e-11
-3.76745e-11
-3.34133e-11
3.19368e-11
6.07138e-11
-5.38113e-11
5.81476e-11
-5.48626e-11
2.8514e-11
1.14673e-07
-2.78849e-11
-1.14674e-07
1.79437e-11
-2.68013e-11
-2.99624e-11
3.28805e-11
4.0629e-11
-5.336e-11
5.47685e-11
-3.55341e-11
-3.35167e-11
1.49668e-11
1.14688e-07
2.81284e-11
2.72373e-11
-2.92715e-11
-4.09864e-11
5.3585e-11
-5.90016e-11
3.82817e-11
-2.97149e-11
-1.13607e-07
1.96512e-11
-3.78755e-11
-3.33339e-11
3.19859e-11
6.10669e-11
-5.40385e-11
-5.47435e-11
5.86991e-11
5.1512e-11
1.14638e-07
2.39415e-11
-1.14688e-07
-8.0587e-12
-2.50259e-11
-3.01782e-11
2.76975e-11
4.08977e-11
-5.25933e-11
5.74425e-11
-3.57984e-11
4.75581e-11
3.42377e-11
2.7291e-08
-4.22074e-11
2.74408e-08
-2.7291e-08
-4.73842e-11
-3.17353e-11
9.03184e-11
-4.76171e-11
1.14725e-07
2.07101e-11
4.51891e-11
-1.98583e-11
-5.05286e-12
2.70507e-11
-3.05284e-11
1.7834e-12
-3.57421e-11
-1.14662e-07
2.5063e-11
-4.38026e-11
-2.20481e-11
1.52704e-11
6.21449e-12
-2.44216e-11
9.26035e-13
3.25739e-11
2.22806e-11
1.14787e-07
-1.05108e-10
-1.14728e-07
5.75145e-11
-4.56494e-11
-2.07039e-11
1.9796e-11
5.67815e-12
-2.48659e-11
2.98306e-11
1.72052e-12
-2.73029e-08
-6.22255e-11
-1.56699e-11
3.33506e-11
3.60594e-11
4.15247e-11
4.03157e-11
2.7289e-08
-3.31924e-11
-3.7183e-11
2.74385e-08
-2.72887e-08
-3.97096e-11
-3.9692e-11
-2.51667e-11
1.15747e-07
1.61795e-11
3.60206e-11
-1.51572e-11
1.66758e-11
2.33258e-11
-2.34799e-11
-3.12225e-11
-3.33868e-11
3.7474e-11
-2.64607e-11
1.15776e-07
1.71022e-11
3.58518e-11
-1.98391e-11
1.6735e-11
2.33305e-11
-2.34934e-11
-2.85487e-11
1.15745e-07
-5.37158e-11
-1.15748e-07
4.4283e-11
-3.5606e-11
-1.93117e-11
1.37756e-11
-1.64363e-11
-2.03466e-11
3.00768e-11
2.77536e-11
3.3308e-11
1.15773e-07
-5.69259e-11
-1.15776e-07
4.56722e-11
-3.54459e-11
-1.99838e-11
1.45449e-11
-1.61369e-11
-2.01587e-11
3.00774e-11
2.79875e-11
4.13437e-11
4.05879e-11
2.72869e-08
-3.76177e-11
2.74375e-08
-2.72872e-08
-3.95484e-11
-3.98907e-11
-2.5392e-11
1.13634e-07
3.35335e-11
3.97087e-11
-3.11156e-11
-6.1765e-11
5.40146e-11
5.66306e-11
-6.06896e-11
-2.55287e-11
3.3309e-11
-2.27065e-11
1.14671e-07
3.04616e-11
2.93446e-11
-2.83917e-11
-4.27838e-11
5.2699e-11
3.62277e-11
-6.06222e-11
1.13633e-07
-5.21811e-11
-1.13635e-07
3.82965e-11
-3.81938e-11
-3.46679e-11
3.16867e-11
6.29178e-11
-5.07412e-11
6.02288e-11
-5.17252e-11
2.7736e-11
1.14668e-07
-5.04482e-11
-1.14671e-07
3.5356e-11
-2.71021e-11
-3.12151e-11
3.23874e-11
4.24994e-11
-5.02936e-11
5.65122e-11
-3.24578e-11
5.04601e-10
-1.64074e-10
1.13874e-07
7.76326e-11
1.99367e-10
6.62721e-11
-4.55041e-11
5.30542e-11
-8.80019e-11
3.73422e-11
-5.05965e-11
-1.13605e-07
3.67854e-11
-3.84765e-11
-3.47375e-11
3.17348e-11
6.31931e-11
-5.09716e-11
-5.17567e-11
6.06621e-11
-1.214e-10
1.14637e-07
-5.22176e-10
-1.13876e-07
1.775e-10
-1.96577e-10
-7.97364e-11
-6.41721e-11
4.58191e-11
-5.04139e-11
8.41781e-11
-3.32299e-11
4.78063e-11
3.4769e-11
2.72908e-08
-4.11561e-11
2.74403e-08
-2.72916e-08
-4.77225e-11
-3.2115e-11
-5.29512e-10
1.47746e-10
1.15595e-07
-2.52726e-11
-1.20013e-10
-1.1806e-10
-3.59404e-12
2.48849e-11
-2.70019e-12
-6.8724e-14
-6.3965e-11
-1.14665e-07
4.82842e-11
-4.44142e-11
-2.37274e-11
1.46192e-11
8.55666e-12
-2.09095e-11
4.59018e-12
3.47398e-11
1.80834e-10
1.14791e-07
5.03883e-10
-1.15597e-07
-1.3152e-10
1.19298e-10
2.41344e-11
1.14564e-10
4.72111e-12
-2.02938e-11
5.12527e-12
5.97792e-12
-2.73036e-08
7.46507e-11
-1.64965e-10
3.27872e-11
3.50887e-11
4.20942e-11
4.05245e-11
2.7288e-08
-3.13235e-11
-3.49963e-11
2.74367e-08
-2.72894e-08
-4.07462e-11
-4.03064e-11
-4.7971e-11
1.15748e-07
1.7127e-11
3.63135e-11
-1.43744e-11
1.3339e-11
2.09818e-11
-2.56722e-11
-3.47123e-11
-3.2671e-11
6.69405e-11
-4.9741e-11
1.15778e-07
1.79216e-11
3.6324e-11
-1.53655e-11
1.28228e-11
2.05401e-11
-2.61059e-11
-3.50761e-11
1.1574e-07
-9.65568e-11
-1.15752e-07
8.10624e-11
-3.61185e-11
-2.24963e-11
1.31152e-11
-1.20595e-11
-1.43498e-11
3.43494e-11
3.37283e-11
3.13227e-11
1.1577e-07
-1.00519e-10
-1.15782e-07
8.27411e-11
-3.60376e-11
-2.30882e-11
1.41284e-11
-1.18031e-11
-1.37301e-11
3.45866e-11
3.43521e-11
4.18171e-11
4.10469e-11
2.72865e-08
-3.5637e-11
2.74355e-08
-2.72877e-08
-4.02189e-11
-4.06679e-11
-4.6898e-11
1.13635e-07
3.47095e-11
4.048e-11
-3.00251e-11
-6.55342e-11
5.15564e-11
5.41712e-11
-6.4372e-11
-2.4999e-11
5.96997e-11
-4.31643e-11
1.1467e-07
3.13402e-11
2.96472e-11
-2.77887e-11
-4.62211e-11
5.03838e-11
3.38875e-11
-6.41752e-11
1.13627e-07
-8.99114e-11
-1.13638e-07
7.20633e-11
-3.90289e-11
-3.76061e-11
3.09653e-11
6.69946e-11
-4.49797e-11
6.41322e-11
-4.61428e-11
2.58044e-11
1.14665e-07
-8.88738e-11
-1.14675e-07
6.71756e-11
-2.77842e-11
-3.44803e-11
3.18126e-11
4.67426e-11
-4.43802e-11
6.05439e-11
-2.6546e-11
7.82097e-12
-1.75269e-11
1.1469e-07
2.97778e-11
2.83965e-11
-2.76908e-11
-4.62667e-11
4.95367e-11
-6.43479e-11
3.44831e-11
-8.93067e-11
-1.13608e-07
7.05741e-11
-3.91161e-11
-3.74918e-11
3.13568e-11
6.75099e-11
-4.4989e-11
-4.58395e-11
6.47405e-11
4.89695e-11
1.14634e-07
-3.74758e-11
-1.14694e-07
4.22791e-11
-2.587e-11
-3.42696e-11
2.6707e-11
4.70445e-11
-4.38223e-11
6.3365e-11
-2.71685e-11
4.80827e-11
3.50543e-11
2.7291e-08
-3.91984e-11
2.74385e-08
-2.72921e-08
-4.86352e-11
-3.27876e-11
1.38756e-10
-8.57781e-11
1.14735e-07
2.23806e-11
4.61766e-11
-1.84336e-11
-1.09534e-11
2.31497e-11
-3.59779e-11
-1.95488e-12
-1.10002e-10
-1.14672e-07
8.55814e-11
-4.51172e-11
-2.64651e-11
1.41627e-11
1.29465e-11
-1.46801e-11
1.08642e-11
3.86964e-11
1.96042e-11
1.14789e-07
-1.79428e-10
-1.1474e-07
1.17373e-10
-4.68137e-11
-2.49749e-11
1.88059e-11
1.29035e-11
-1.50557e-11
3.61888e-11
1.1802e-11
-2.73037e-08
-6.30692e-11
-1.66322e-11
3.11094e-11
3.34012e-11
4.28325e-11
4.15933e-11
2.72878e-08
-2.79363e-11
-3.12964e-11
2.74329e-08
-2.72908e-08
-4.14609e-11
-4.13952e-11
-9.15084e-11
1.15757e-07
1.94124e-11
3.76464e-11
-1.25666e-11
5.92416e-12
1.63054e-11
-3.0529e-11
-4.13596e-11
-3.10814e-11
1.15586e-10
-9.26448e-11
1.15788e-07
2.01832e-11
3.73621e-11
-1.73932e-11
5.29673e-12
1.58539e-11
-3.09239e-11
-3.96328e-11
1.15725e-07
-1.61816e-10
-1.15769e-07
1.48996e-10
-3.70112e-11
-2.80324e-11
1.24081e-11
-3.81831e-12
-2.67388e-12
4.22541e-11
4.56738e-11
2.8221e-11
1.15753e-07
-1.68158e-10
-1.15796e-07
1.50438e-10
-3.67885e-11
-2.87092e-11
1.32178e-11
-3.28152e-12
-1.51319e-12
4.26989e-11
4.68099e-11
4.29623e-11
4.18749e-11
2.72859e-08
-3.18949e-11
2.74322e-08
-2.72893e-08
-4.13482e-11
-4.14351e-11
-8.67574e-11
1.13643e-07
3.70165e-11
4.18934e-11
-2.84149e-11
-7.26912e-11
4.68421e-11
4.95326e-11
-7.11595e-11
-2.35182e-11
1.01468e-10
-8.08968e-11
1.14679e-07
3.33583e-11
3.06241e-11
-2.60833e-11
-5.33366e-11
4.59017e-11
2.94909e-11
-7.07429e-11
1.13608e-07
-1.47289e-10
-1.13652e-07
1.35935e-10
-4.04626e-11
-4.35759e-11
2.98936e-11
7.52804e-11
-3.42968e-11
7.20681e-11
-3.50983e-11
2.24342e-11
1.14649e-07
-1.46103e-10
-1.1469e-07
1.28944e-10
-2.89709e-11
-4.02873e-11
3.09609e-11
5.48559e-11
-3.36103e-11
6.83171e-11
-1.56954e-11
5.732e-10
-2.23765e-10
1.13886e-07
8.10828e-11
2.01082e-10
6.88466e-11
-5.61012e-11
4.57981e-11
-9.8182e-11
3.04184e-11
-1.44418e-10
-1.13622e-07
1.31214e-10
-4.06205e-11
-4.32548e-11
3.00904e-11
7.58982e-11
-3.36983e-11
-3.44057e-11
7.30142e-11
-1.26826e-10
1.14619e-07
-6.188e-10
-1.13898e-07
2.73427e-10
-1.9862e-10
-8.88724e-11
-6.57843e-11
5.80632e-11
-3.36202e-11
9.6038e-11
-1.65431e-11
4.91714e-11
3.58868e-11
2.72907e-08
-3.57474e-11
2.74348e-08
-2.72935e-08
-4.95488e-11
-3.36191e-11
-4.45526e-10
7.85946e-11
1.1561e-07
-2.18805e-11
-1.18253e-10
-1.15542e-10
-1.51846e-11
1.70796e-11
-1.38927e-11
-7.75184e-12
-1.81546e-10
-1.1469e-07
1.5958e-10
-4.64045e-11
-3.18198e-11
1.32906e-11
2.12138e-11
-3.0029e-12
2.2983e-11
4.68962e-11
1.75361e-10
1.14772e-07
3.88183e-10
-1.15618e-07
-2.10848e-11
1.17327e-10
1.57259e-11
1.13277e-10
1.75391e-11
-2.19015e-12
1.75478e-11
2.42295e-11
-2.73062e-08
7.2764e-11
-1.66701e-10
2.87664e-11
3.07354e-11
4.35936e-11
4.24885e-11
2.72873e-08
-2.4228e-11
-2.67202e-11
2.7425e-08
-2.72948e-08
-3.96563e-11
-3.96095e-11
-1.71661e-10
1.15786e-07
2.34044e-11
4.10873e-11
-8.39239e-12
-7.06583e-12
5.94913e-12
-4.10127e-11
-5.43534e-11
-2.90139e-11
1.88207e-10
-1.71858e-10
1.15812e-07
2.38414e-11
4.04914e-11
-9.65094e-12
-8.4288e-12
5.32553e-12
-4.17744e-11
-5.56513e-11
1.15666e-07
-2.37855e-10
-1.15817e-07
2.74716e-10
-4.12178e-11
-3.68356e-11
8.98495e-12
1.00162e-11
2.05528e-11
5.73456e-11
7.08185e-11
2.54493e-11
1.15697e-07
-2.50113e-10
-1.15843e-07
2.72213e-10
-4.06175e-11
-3.60798e-11
1.03344e-11
1.12261e-11
2.27308e-11
5.83888e-11
7.28111e-11
4.33778e-11
4.27587e-11
2.72857e-08
-2.76209e-11
2.74256e-08
-2.72941e-08
-3.92404e-11
-3.91593e-11
-1.59642e-10
1.13667e-07
4.07893e-11
4.57126e-11
-2.41928e-11
-8.51444e-11
3.71139e-11
3.95302e-11
-8.38528e-11
-2.12785e-11
1.61357e-10
-1.51421e-10
1.14704e-07
3.68347e-11
3.37995e-11
-2.22729e-11
-6.52582e-11
3.64172e-11
1.9942e-11
-8.29038e-11
1.13549e-07
-2.12292e-10
-1.13698e-07
2.5199e-10
-4.56948e-11
-5.24289e-11
2.64411e-11
8.9383e-11
-1.18941e-11
8.74797e-11
-1.11289e-11
1.82324e-11
1.14591e-07
-2.08235e-10
-1.14735e-07
2.43612e-10
-3.34183e-11
-4.91308e-11
2.74886e-11
6.81358e-11
-1.22462e-11
8.30089e-11
7.16293e-12
1.10415e-10
-1.27601e-10
1.14727e-07
3.54172e-11
3.26014e-11
-2.22975e-11
-6.52121e-11
3.57015e-11
-8.3114e-11
2.04692e-11
-2.06508e-10
-1.13673e-07
2.45977e-10
-4.57509e-11
-5.16263e-11
2.64685e-11
9.04263e-11
-1.04841e-11
-9.74489e-12
8.84204e-11
4.13946e-11
1.1456e-07
-1.57894e-10
-1.14757e-07
2.21284e-10
-3.18585e-11
-4.93175e-11
2.22084e-11
6.8902e-11
-1.10507e-11
8.61218e-11
7.29507e-12
5.00811e-11
3.66976e-11
2.72903e-08
-3.2002e-11
2.74276e-08
-2.72978e-08
-4.75151e-11
-3.20237e-11
2.68449e-10
-2.13419e-10
1.14768e-07
2.83488e-11
5.08354e-11
-1.28342e-11
-3.23268e-11
7.59772e-12
-5.68899e-11
-1.82755e-11
-2.68874e-10
-1.14736e-07
2.86769e-10
-5.06385e-11
-4.00353e-11
1.01217e-11
3.57724e-11
2.08878e-11
4.88992e-11
6.22421e-11
1.26916e-11
1.14715e-07
-3.37585e-10
-1.14798e-07
3.15177e-10
-5.25517e-11
-3.79796e-11
1.48988e-11
3.59789e-11
2.12829e-11
6.03399e-11
5.04045e-11
-2.73093e-08
-6.19105e-11
-1.553e-11
3.07246e-11
3.20323e-11
3.80122e-11
3.78554e-11
2.72864e-08
-3.83299e-11
-3.85199e-11
2.74108e-08
-2.73057e-08
-1.31903e-11
-1.50365e-11
-3.12682e-10
1.15869e-07
2.46586e-11
5.13212e-11
2.71686e-12
-2.63236e-11
-1.78466e-11
-6.69395e-11
-7.65509e-11
-3.13787e-11
2.62118e-10
-3.10297e-10
1.15896e-07
2.45248e-11
5.07775e-11
-2.84288e-12
-2.87461e-11
-1.9256e-11
-6.8249e-11
-7.64369e-11
1.15464e-07
-2.54695e-10
-1.15963e-07
4.634e-10
-5.5393e-11
-3.19414e-11
4.77557e-13
3.26148e-11
7.86511e-11
8.91794e-11
1.37977e-10
4.18717e-11
1.15497e-07
-2.74206e-10
-1.15987e-07
4.53438e-10
-5.49795e-11
-2.87003e-11
1.62422e-12
3.47972e-11
8.20175e-11
9.12821e-11
1.42104e-10
3.77792e-11
3.78432e-11
2.72858e-08
-4.03189e-11
2.74121e-08
-2.73049e-08
-1.21646e-11
-1.28786e-11
-2.89937e-10
1.1375e-07
4.15787e-11
5.69754e-11
-1.34509e-11
-1.03744e-10
1.48786e-11
1.46732e-11
-1.05732e-10
-2.303e-11
2.12021e-10
-2.81724e-10
1.14789e-07
3.80686e-11
4.44254e-11
-1.15618e-11
-8.28157e-11
1.45447e-11
-4.02622e-12
-1.037e-10
1.13354e-07
-2.15469e-10
-1.13844e-07
4.28378e-10
-6.25274e-11
-4.8584e-11
1.66069e-11
1.13231e-10
4.43234e-11
1.20125e-10
5.47454e-11
2.99612e-11
1.14397e-07
-2.04046e-10
-1.14885e-07
4.22069e-10
-4.89912e-11
-4.58032e-11
1.82616e-11
9.02255e-11
4.17934e-11
1.14373e-10
7.01417e-11
6.85154e-10
-4.26727e-10
1.13997e-07
8.52825e-11
2.15753e-10
8.35133e-11
-8.59194e-11
1.42177e-11
-1.31293e-10
-3.43337e-12
-2.01582e-10
-1.13826e-07
4.18442e-10
-6.25915e-11
-4.68911e-11
1.68584e-11
1.15063e-10
4.74944e-11
5.69393e-11
1.21873e-10
-1.17619e-10
1.14365e-07
-6.83209e-10
-1.14093e-07
5.7026e-10
-2.1915e-10
-9.48908e-11
-7.90733e-11
9.47155e-11
4.35637e-11
1.4313e-10
7.07895e-11
4.54774e-11
3.15306e-11
2.72899e-08
-4.52828e-11
2.74136e-08
-2.7309e-08
-2.17306e-11
-7.61665e-12
-2.88674e-10
-1.47668e-10
1.15714e-07
-1.65835e-11
-1.04393e-10
-1.00807e-10
-4.94518e-11
-1.79876e-11
-5.07899e-11
-4.54536e-11
-3.03971e-10
-1.1488e-07
4.80571e-10
-6.58883e-11
-3.47904e-11
8.80897e-13
5.98744e-11
8.02637e-11
1.17998e-10
9.54977e-11
1.85853e-10
1.14515e-07
2.71237e-10
-1.15802e-07
2.92462e-10
9.74379e-11
1.48229e-11
1.01832e-10
5.61697e-11
8.17063e-11
6.60962e-11
1.19888e-10
-2.7321e-08
1.00961e-10
-1.38706e-10
5.77931e-11
5.74038e-11
2.93556e-12
6.40552e-12
2.72862e-08
-2.10156e-10
-2.01845e-10
2.73819e-08
-2.73229e-08
1.83288e-10
1.69638e-10
-5.12464e-10
1.16114e-07
3.83825e-12
9.03568e-11
3.57679e-11
-4.21815e-11
-7.85831e-11
-1.39369e-10
-1.10621e-10
-6.07503e-11
1.8251e-10
-4.97519e-10
1.16136e-07
1.26901e-12
8.83368e-11
3.27686e-11
-4.69576e-11
-8.08016e-11
-1.41652e-10
-1.15487e-10
1.14711e-07
-1.18017e-10
-1.16341e-07
4.22072e-10
-8.20444e-11
1.15105e-10
1.44726e-11
1.09344e-10
3.15821e-10
2.20606e-10
4.23108e-10
2.19352e-10
1.14751e-07
-1.46962e-10
-1.16357e-07
3.88964e-10
-8.25718e-11
1.24641e-10
1.53488e-11
1.12297e-10
3.21884e-10
2.2327e-10
4.30221e-10
2.54454e-12
4.87019e-12
2.72854e-08
-2.04639e-10
2.73851e-08
-2.73229e-08
1.83718e-10
1.78164e-10
-4.7451e-10
1.13996e-07
2.10748e-11
9.79047e-11
1.90596e-11
-1.19602e-10
-4.35915e-11
-5.65854e-11
-1.41078e-10
-4.89283e-11
1.01739e-10
-4.70619e-10
1.15038e-07
1.7223e-11
8.51787e-11
2.19373e-11
-9.58157e-11
-4.24513e-11
-7.31561e-11
-1.35838e-10
1.12639e-07
-1.03542e-10
-1.14217e-07
3.92517e-10
-9.65936e-11
9.32071e-11
2.61343e-11
1.94304e-10
2.77473e-10
2.55111e-10
3.38291e-10
1.98221e-10
1.13666e-07
-7.01418e-11
-1.15268e-07
3.92548e-10
-7.88243e-11
9.91401e-11
3.08275e-11
1.67262e-10
2.70398e-10
2.45664e-10
3.46633e-10
5.5705e-11
-4.48114e-10
1.15061e-07
1.43458e-11
8.50167e-11
2.12431e-11
-9.64132e-11
-4.39146e-11
-1.37508e-10
-7.3796e-11
-6.82441e-11
-1.14208e-07
3.79211e-10
-9.61291e-11
9.6689e-11
2.65705e-11
1.96488e-10
2.85281e-10
3.43775e-10
2.57081e-10
2.2547e-10
1.13632e-07
-3.1196e-11
-1.1529e-07
3.71928e-10
-7.90916e-11
1.00387e-10
2.62773e-11
1.68582e-10
2.75285e-10
2.50106e-10
3.5066e-10
1.20946e-11
-3.61022e-13
2.72896e-08
-2.08674e-10
2.73856e-08
-2.73267e-08
1.69957e-10
1.78114e-10
2.7924e-10
-5.55508e-10
1.15083e-07
9.34212e-12
1.00491e-10
3.15647e-11
-7.25998e-11
-7.86401e-11
-1.17262e-10
-1.19629e-10
-1.9877e-10
-1.15246e-07
4.45224e-10
-9.5137e-11
1.06168e-10
1.06673e-11
1.40769e-10
3.19515e-10
4.06748e-10
2.29058e-10
1.92075e-10
1.13789e-07
-2.65934e-10
-1.15305e-07
4.61884e-10
-9.85195e-11
1.10649e-10
1.4973e-11
1.40973e-10
3.21888e-10
2.26075e-10
4.11572e-10
-2.73381e-08
1.59047e-10
1.98192e-10
1.60121e-10
1.5697e-10
-1.08648e-10
-9.35896e-11
2.72671e-08
-6.84087e-10
9.56599e-11
2.74893e-08
-2.67452e-08
1.61194e-10
-3.16868e-10