/*--------------------------------*- C++ -*----------------------------------*\
| =========                 |                                                 |
| \\      /  F ield         | OpenFOAM: The Open Source CFD Toolbox           |
|  \\    /   O peration     | Version:  2206                                  |
|   \\  /    A nd           | Website:  www.openfoam.com                      |
|    \\/     M anipulation  |                                                 |
\*---------------------------------------------------------------------------*/
FoamFile
{
    version     2.0;
    format      ascii;
    arch        "LSB;label=32;scalar=64";
    class       volVectorField;
    location    "80";
    object      wallShearStress;
}
// * * * * * * * * * * * * * * * * * * * * * * * * * * * * * * * * * * * * * //

dimensions      [0 2 -2 0 0 0 0];

internalField   uniform (0 0 0);

boundaryField
{
    topPatch
    {
        type            calculated;
        value           nonuniform List<vector> 0();
    }
    wall
    {
        type            calculated;
        value           nonuniform List<vector> 
7778
(
(-4.96038e-06 1.74836e-05 -0.000225502)
(-9.90994e-07 -6.45564e-06 -0.00012277)
(1.75067e-05 -4.98316e-06 -0.000225359)
(-6.46123e-06 -1.00273e-06 -0.000122672)
(4.89733e-06 1.74957e-05 -0.000225603)
(1.74335e-05 4.88039e-06 -0.000225345)
(-1.74426e-05 -4.98982e-06 -0.000225443)
(-1.74883e-05 5.00778e-06 -0.000225471)
(-4.92527e-06 -1.74693e-05 -0.000225496)
(-9.83388e-07 6.45722e-06 -0.000122796)
(4.92074e-06 -1.75127e-05 -0.000225498)
(9.48872e-06 4.48741e-05 -0.000188381)
(-1.95727e-05 -8.64778e-07 -0.00028325)
(-6.41154e-06 8.03587e-06 -0.000226178)
(-2.85327e-05 3.46046e-05 -0.000218766)
(4.4696e-05 9.12327e-06 -0.000188159)
(-7.30805e-07 -1.93028e-05 -0.00028288)
(8.13148e-06 -6.16203e-06 -0.000226063)
(3.47084e-05 -2.83312e-05 -0.000218521)
(1.92281e-05 -8.07136e-07 -0.000282418)
(2.81767e-05 3.49782e-05 -0.000218709)
(5.85863e-06 8.33042e-06 -0.000226221)
(-8.26212e-07 1.92276e-05 -0.000282405)
(3.48966e-05 2.82095e-05 -0.00021868)
(8.26002e-06 5.91221e-06 -0.000226281)
(-9.24965e-06 4.47124e-05 -0.00018835)
(8.43219e-07 1.93479e-05 -0.000282828)
(-8.00912e-06 6.2421e-06 -0.000225925)
(-3.45752e-05 2.83733e-05 -0.000218381)
(4.48164e-05 -9.56146e-06 -0.00018831)
(-4.4649e-05 9.07415e-06 -0.000188051)
(-4.4526e-05 -8.75074e-06 -0.00018799)
(1.95422e-05 8.86646e-07 -0.000283274)
(6.41995e-06 -7.94856e-06 -0.000226261)
(2.85554e-05 -3.45384e-05 -0.000218741)
(9.5302e-06 -4.48532e-05 -0.000188401)
(-9.20107e-06 -4.47199e-05 -0.000188276)
(7.73251e-07 -1.91628e-05 -0.000282253)
(-3.49819e-05 -2.81462e-05 -0.000218609)
(-8.32915e-06 -5.77174e-06 -0.000226117)
(-1.93092e-05 8.97607e-07 -0.000282606)
(-2.82494e-05 -3.48739e-05 -0.000218804)
(-6.01166e-06 -8.23778e-06 -0.000226363)
(-9.90357e-06 1.15851e-05 -0.000159372)
(-2.32822e-06 2.14897e-05 -0.000150205)
(1.15811e-05 -9.908e-06 -0.000159219)
(9.88029e-06 1.15407e-05 -0.000159426)
(2.31027e-06 2.14873e-05 -0.000150284)
(1.15056e-05 9.86924e-06 -0.000159237)
(2.14732e-05 2.34471e-06 -0.000150123)
(-1.14768e-05 -9.8077e-06 -0.000159297)
(-1.56739e-05 1.0109e-05 -0.000165864)
(-1.15321e-05 9.83034e-06 -0.000159232)
(-9.91836e-06 -1.15582e-05 -0.000159386)
(1.00879e-05 -1.57052e-05 -0.000165947)
(9.87338e-06 -1.15921e-05 -0.000159323)
(9.49222e-07 -6.46423e-06 -0.000122841)
(-6.48627e-06 9.87814e-07 -0.000122768)
(1.01011e-05 1.56742e-05 -0.000165805)
(2.14853e-05 -2.35437e-06 -0.000150078)
(1.56827e-05 1.00526e-05 -0.000165687)
(1.56821e-05 -1.00549e-05 -0.00016575)
(6.48509e-06 -9.45742e-07 -0.00012283)
(-2.14624e-05 -2.27435e-06 -0.000150211)
(6.48319e-06 9.45591e-07 -0.000122728)
(-2.14742e-05 2.29844e-06 -0.000150076)
(-1.5671e-05 -1.00852e-05 -0.000165678)
(-2.36179e-06 -2.14918e-05 -0.000150257)
(9.50173e-07 6.46787e-06 -0.000122711)
(2.31143e-06 -2.14792e-05 -0.000150173)
(2.97174e-06 1.87447e-05 -0.000164741)
(1.87142e-05 2.95575e-06 -0.00016465)
(-3.01273e-06 1.8707e-05 -0.000164803)
(-1.013e-05 1.56852e-05 -0.00016596)
(1.86571e-05 -2.97381e-06 -0.000164708)
(-1.86295e-05 3.01747e-06 -0.000164779)
(-1.8645e-05 -3.02601e-06 -0.000164774)
(2.97258e-06 -1.87421e-05 -0.000164733)
(-3.0256e-06 -1.8736e-05 -0.000164695)
(-1.01188e-05 -1.56797e-05 -0.00016581)
(-8.86802e-09 3.09952e-09 -0.000117286)
(-8.69779e-10 -5.91232e-09 -0.000110102)
(3.52619e-08 -7.00207e-09 -0.000110195)
(-4.0083e-10 -8.08037e-09 -0.000117163)
(-2.48639e-08 -6.12322e-09 -0.000117211)
(-1.69588e-09 -6.45308e-09 -0.000110182)
(5.08504e-09 4.09203e-10 -0.000110146)
(1.15639e-09 1.06714e-08 -0.00011729)
(8.05423e-09 7.24279e-09 -0.000117237)
(-1.30302e-08 -4.29699e-09 -0.000110043)
(2.20003e-08 -1.52894e-09 -0.000110165)
(1.17444e-08 1.16591e-10 -0.000117123)
(-1.92393e-08 -4.93805e-09 -0.000117185)
(-6.47727e-09 1.6606e-09 -0.000110186)
(2.23151e-09 7.69416e-09 -0.000110161)
(-4.51989e-09 -2.16965e-10 -0.000117299)
(5.44272e-10 -3.12448e-09 -0.000117246)
(-1.61177e-08 -2.42769e-09 -0.000110032)
(1.77539e-08 1.29565e-09 -0.000110159)
(1.55083e-08 1.09247e-09 -0.000117107)
(-8.22902e-09 3.58277e-10 -0.000117176)
(-5.90315e-09 -1.39209e-09 -0.000110194)
(4.78723e-09 5.10957e-09 -0.000110165)
(-5.01186e-09 -1.62802e-09 -0.0001173)
(6.92982e-10 -3.63854e-09 -0.000117246)
(-2.24649e-08 1.9778e-09 -0.000110031)
(1.43213e-08 1.47473e-09 -0.00011015)
(1.86449e-08 4.88286e-09 -0.000117113)
(-9.32167e-09 6.46142e-10 -0.000117184)
(-2.8767e-09 -4.58371e-09 -0.000110201)
(4.04212e-09 2.31699e-09 -0.000110161)
(-4.04344e-09 -1.11908e-09 -0.000117298)
(9.59384e-10 -3.76801e-09 -0.000117235)
(-1.72762e-08 -1.15e-09 -0.000110033)
(2.02575e-08 -1.17672e-09 -0.000110159)
(2.2885e-08 5.31886e-09 -0.000117114)
(-4.29032e-09 4.04972e-09 -0.000117189)
(-5.11099e-09 -1.69928e-10 -0.00011019)
(3.70747e-09 4.81244e-09 -0.000110154)
(-5.13919e-09 6.39605e-10 -0.000117293)
(3.5637e-09 1.58898e-10 -0.000117238)
(-1.53134e-08 -2.69169e-09 -0.000110056)
(1.36691e-08 2.7789e-09 -0.000110175)
(1.66125e-08 1.59187e-10 -0.000117125)
(-9.22162e-09 1.0462e-09 -0.00011722)
(-6.05664e-09 1.50531e-10 -0.000110199)
(5.07085e-09 -1.70034e-10 -0.000110155)
(-8.10919e-09 -2.32131e-09 -0.000117283)
(5.49163e-09 1.77911e-09 -0.000117255)
(-1.25567e-08 -4.59877e-09 -0.000110068)
(8.46807e-09 6.97564e-09 -0.000110193)
(8.14909e-09 -2.59882e-09 -0.00011711)
(9.43033e-09 1.35527e-08 -0.000117276)
(-7.68914e-09 2.3682e-09 -0.000110188)
(9.02624e-09 -5.32477e-09 -0.000110158)
(-1.08574e-08 -9.74883e-09 -0.000117252)
(1.44774e-08 1.74994e-08 -0.000117291)
(5.72517e-09 -1.33106e-08 -0.000110057)
(-1.19654e-08 2.02143e-08 -0.000110235)
(-2.44788e-08 -2.36705e-08 -0.00011701)
(4.22312e-08 3.59144e-08 -0.000117429)
(-1.6445e-08 1.84691e-08 -0.000110158)
(2.31127e-08 -2.3766e-08 -0.000110197)
(-2.98057e-08 -3.76726e-08 -0.000117131)
(3.8106e-08 5.23578e-08 -0.000117433)
(6.46436e-08 -4.32633e-08 -0.000110032)
(-7.75278e-08 5.64106e-08 -0.000110275)
(-1.28177e-07 -8.93079e-08 -0.000116753)
(1.99002e-07 1.33091e-07 -0.000117787)
(-4.50852e-08 7.01344e-08 -0.000110112)
(5.92589e-08 -8.71463e-08 -0.000110242)
(-9.3298e-08 -1.37489e-07 -0.00011686)
(1.31389e-07 2.00107e-07 -0.000117809)
(2.4888e-07 -1.28884e-07 -0.000110223)
(-2.11696e-07 1.3535e-07 -0.000110343)
(-5.26074e-07 -3.29699e-07 -0.00011633)
(7.03454e-07 4.45742e-07 -0.000118812)
(-1.23152e-07 2.38642e-07 -0.000110299)
(1.42707e-07 -2.28131e-07 -0.000110337)
(-3.26683e-07 -5.25857e-07 -0.000116412)
(4.61871e-07 7.36215e-07 -0.000118867)
(7.69074e-07 -3.45309e-07 -0.000114769)
(-1.18542e-06 6.0387e-07 -9.81892e-05)
(-1.85962e-06 -1.09678e-06 -0.000119323)
(2.3334e-06 7.66329e-07 -0.000113589)
(-3.20908e-07 6.84956e-07 -0.000114782)
(6.21561e-07 -1.21931e-06 -9.82163e-05)
(-1.05977e-06 -1.78037e-06 -0.000119379)
(7.77684e-07 2.36e-06 -0.00011357)
(1.11959e-05 2.45979e-05 -0.000116635)
(5.69287e-06 -2.91635e-06 -0.000126056)
(2.45637e-05 1.11846e-05 -0.000116621)
(-2.83817e-06 5.85379e-06 -0.00012597)
(2.91462e-08 -8.16773e-09 -0.000117238)
(-2.18411e-08 5.4835e-09 -0.000117173)
(9.43859e-09 -7.90625e-09 -0.000117179)
(-3.48694e-10 -5.33773e-09 -0.000117216)
(-8.28531e-09 5.43778e-09 -0.000110264)
(2.69517e-08 -3.91313e-10 -0.000110231)
(-2.39215e-08 2.0476e-09 -0.000110101)
(-2.71758e-08 -1.77533e-09 -0.00011025)
(2.19208e-08 1.80045e-09 -0.000110118)
(-8.33583e-09 -3.80699e-09 -0.000117253)
(-3.46687e-08 -1.21751e-08 -0.000117254)
(2.2386e-08 6.31931e-09 -0.000117184)
(-1.15354e-08 -1.37491e-08 -0.000117238)
(1.98453e-09 -3.5167e-09 -0.000117282)
(7.24086e-09 -4.26321e-09 -0.000110151)
(-3.15315e-09 -5.06761e-09 -0.00011017)
(8.33606e-09 7.47455e-09 -0.000110206)
(-2.85286e-09 5.34877e-09 -0.000110226)
(-5.97234e-09 1.90142e-10 -0.000110222)
(-3.99746e-09 -2.10083e-09 -0.000110182)
(-7.5553e-09 -6.83253e-09 -0.0001102)
(2.51841e-09 -7.80102e-09 -0.00011023)
(-9.56238e-09 9.76428e-09 -0.000110161)
(2.47896e-09 4.93774e-09 -0.00011019)
(8.91802e-09 8.54232e-09 -0.000117244)
(-7.00851e-09 -5.85904e-09 -0.000117271)
(2.56578e-08 6.17817e-09 -0.0001173)
(-2.68408e-08 -7.86734e-09 -0.000117239)
(2.52072e-08 -2.05733e-10 -0.000110277)
(-2.39838e-08 -1.95229e-09 -0.00011015)
(-2.87906e-08 3.15361e-09 -0.000110225)
(2.2109e-08 -1.4493e-09 -0.000110105)
(-4.76483e-09 -1.56794e-10 -0.000117208)
(-1.02006e-08 -2.31458e-09 -0.000117274)
(-1.10542e-08 1.18485e-08 -0.000117196)
(2.00023e-09 3.3508e-09 -0.000117237)
(-3.23571e-08 1.1375e-08 -0.000117239)
(1.95664e-08 -4.38439e-09 -0.000117175)
(-1.29831e-10 -6.58838e-09 -0.000117153)
(2.5996e-08 -8.70038e-09 -0.000117201)
(-1.13319e-09 -6.27164e-09 -0.000117226)
(6.72476e-09 -4.72831e-09 -0.000117175)
(1.73493e-08 -3.18967e-09 -0.000117198)
(-5.63859e-09 -3.27123e-09 -0.000117116)
(3.79391e-09 -9.20967e-11 -0.000117185)
(-1.90172e-09 -2.45401e-09 -0.000117222)
(-6.91291e-10 -8.08522e-09 -0.000110114)
(-3.04214e-08 -4.7035e-09 -0.000110204)
(2.20692e-08 -6.01722e-10 -0.000110184)
(-3.75229e-09 -7.05604e-09 -0.000110056)
(-2.39619e-08 -2.11887e-09 -0.000110186)
(4.83809e-09 -6.02237e-09 -0.00011007)
(-2.84771e-10 -7.50374e-09 -0.000117284)
(-3.4077e-09 -1.02609e-09 -0.000117239)
(-2.24536e-08 -7.01773e-09 -0.000117201)
(7.60721e-09 -2.19266e-09 -0.000117133)
(-6.72321e-09 -3.95316e-09 -0.000117251)
(3.78111e-09 -5.52576e-10 -0.000117276)
(-3.82378e-10 9.75283e-09 -0.000110238)
(5.26863e-09 1.40071e-09 -0.000110198)
(3.27719e-09 4.00216e-09 -0.000110158)
(-3.43816e-09 -4.85626e-09 -0.000110175)
(4.64077e-09 -5.48073e-10 -0.000110214)
(-3.3787e-09 3.78053e-09 -0.000110226)
(1.03773e-09 -9.05054e-09 -0.000110227)
(-3.3959e-09 3.20057e-09 -0.0001102)
(5.43979e-10 1.12535e-08 -0.000110186)
(-4.54636e-09 -2.01001e-09 -0.000110157)
(-5.83109e-09 -2.20822e-09 -0.000110211)
(3.82494e-09 -4.3068e-09 -0.000110223)
(-5.98418e-09 6.17318e-10 -0.000110165)
(2.97471e-09 4.79068e-09 -0.000110183)
(-2.09352e-09 4.70721e-09 -0.000117221)
(2.17519e-08 6.48042e-09 -0.000117268)
(3.68793e-09 3.5354e-10 -0.000117252)
(-3.47732e-09 6.84773e-10 -0.000117273)
(1.41966e-08 1.56453e-09 -0.00011726)
(-1.18499e-08 -7.20342e-10 -0.000117194)
(-3.72311e-09 5.74719e-09 -0.00011015)
(3.25992e-08 5.47454e-09 -0.00011024)
(1.99711e-10 6.86973e-09 -0.0001101)
(-2.47243e-08 2.58682e-09 -0.000110184)
(1.85111e-08 -2.65939e-10 -0.000110221)
(-4.98257e-09 6.36079e-09 -0.000110106)
(-2.091e-08 8.95788e-10 -0.000110179)
(9.66458e-09 4.12168e-09 -0.000110054)
(-2.99431e-09 1.23362e-08 -0.000117241)
(-3.31126e-09 4.63668e-10 -0.000117191)
(-4.51956e-09 9.67285e-09 -0.000117155)
(-1.367e-08 1.3889e-09 -0.000117202)
(-4.00952e-09 1.09206e-09 -0.000117195)
(1.03432e-09 3.41156e-09 -0.000117231)
(-1.44728e-08 2.05016e-09 -0.000117205)
(8.69208e-09 1.15978e-09 -0.000117132)
(-1.51829e-08 5.07428e-10 -0.000117116)
(1.61149e-08 -3.32816e-09 -0.00011719)
(-5.13212e-09 2.71774e-09 -0.000117237)
(2.59144e-09 -3.27051e-10 -0.00011719)
(1.31866e-08 -1.50116e-09 -0.000117194)
(-1.42856e-08 1.80826e-09 -0.000117109)
(3.84079e-09 -1.82232e-09 -0.0001172)
(-4.40323e-09 2.1262e-09 -0.000117236)
(1.20025e-08 -4.65385e-09 -0.000110051)
(-2.34452e-08 -3.65834e-10 -0.000110165)
(1.60779e-08 -2.32371e-11 -0.00011016)
(-1.40637e-08 -3.21124e-09 -0.000110031)
(-2.08666e-08 -1.91294e-09 -0.000110157)
(1.45097e-08 -2.46105e-09 -0.00011003)
(3.64198e-09 -1.91826e-09 -0.000117297)
(-4.73861e-09 -3.20979e-09 -0.000117248)
(-1.93247e-08 -5.48447e-09 -0.000117188)
(1.32135e-08 1.35466e-09 -0.000117106)
(-5.47241e-09 -4.73452e-09 -0.00011725)
(3.93412e-09 1.35168e-09 -0.000117296)
(-5.89888e-09 5.08435e-10 -0.000110241)
(2.71936e-09 -5.91166e-09 -0.000110212)
(4.23312e-09 9.00519e-10 -0.000110167)
(-6.75425e-09 1.38919e-09 -0.000110187)
(3.54364e-09 -4.82189e-09 -0.000110218)
(-6.27277e-09 -9.6316e-10 -0.000110236)
(3.89531e-09 -6.5621e-09 -0.000110234)
(-5.49961e-09 1.4583e-09 -0.000110209)
(4.22865e-09 5.55341e-09 -0.000110193)
(-4.83216e-09 -1.70653e-09 -0.000110169)
(-4.35014e-09 -2.06147e-10 -0.00011021)
(4.18282e-09 -3.70912e-09 -0.000110236)
(-7.36564e-09 5.13876e-09 -0.000110174)
(4.62791e-09 3.7741e-09 -0.000110194)
(-1.52978e-08 -1.96071e-09 -0.000117181)
(1.05535e-08 -4.38689e-10 -0.000117252)
(2.49552e-09 -1.25328e-09 -0.000117255)
(-9.611e-09 -9.99233e-09 -0.000117283)
(1.00082e-08 3.44302e-10 -0.000117244)
(-2.49067e-08 -7.54924e-09 -0.000117178)
(-1.65509e-08 2.36316e-09 -0.000110088)
(1.74019e-08 -1.23548e-09 -0.000110206)
(1.22725e-08 4.93842e-09 -0.000110044)
(-2.2352e-08 1.57722e-09 -0.000110158)
(1.58073e-08 -1.78161e-09 -0.000110198)
(-1.88611e-08 3.4531e-10 -0.000110075)
(-1.68639e-08 -1.28417e-09 -0.00011016)
(1.34783e-08 3.63515e-09 -0.000110027)
(2.52492e-09 2.39976e-09 -0.000117248)
(-4.91808e-09 3.87705e-09 -0.000117202)
(1.58856e-08 -1.21249e-09 -0.000117122)
(-1.07159e-08 9.265e-10 -0.000117186)
(-5.72989e-09 2.36309e-09 -0.000117203)
(4.12494e-09 1.37122e-09 -0.000117244)
(-1.34921e-08 1.49024e-09 -0.000117195)
(1.84004e-08 -3.20616e-09 -0.00011711)
(-1.68217e-08 2.00305e-09 -0.000117113)
(1.25205e-08 -1.57506e-09 -0.000117189)
(-3.91775e-09 -1.02237e-10 -0.000117245)
(3.94231e-09 -1.26509e-09 -0.000117195)
(1.25283e-08 -1.93698e-10 -0.000117192)
(-1.78208e-08 4.37045e-09 -0.000117109)
(5.0269e-09 -1.6963e-09 -0.000117206)
(-2.92814e-09 1.33175e-09 -0.000117242)
(1.22404e-08 -3.61326e-09 -0.000110028)
(-1.62694e-08 1.47867e-09 -0.000110145)
(1.21022e-08 4.09063e-09 -0.00011016)
(-1.81641e-08 4.05107e-10 -0.000110028)
(-1.36963e-08 3.60797e-09 -0.000110153)
(1.91933e-08 4.23997e-10 -0.000110019)
(5.04826e-09 2.10168e-09 -0.0001173)
(-2.97717e-10 4.02974e-09 -0.000117247)
(-1.22999e-08 -8.11972e-10 -0.000117189)
(2.12949e-08 6.01122e-09 -0.000117106)
(-7.55323e-09 -6.6633e-09 -0.000117249)
(5.25596e-09 1.90246e-09 -0.00011728)
(-6.21919e-09 -2.19036e-09 -0.000110246)
(2.4742e-09 -9.06441e-09 -0.000110211)
(7.2158e-09 -2.1706e-09 -0.000110173)
(-3.92232e-09 -4.65112e-10 -0.000110194)
(4.47722e-09 -1.32851e-09 -0.000110215)
(-6.87065e-09 -3.87682e-09 -0.000110235)
(4.35656e-09 -2.90062e-09 -0.000110241)
(-2.97064e-09 7.03747e-09 -0.000110207)
(1.70551e-09 6.94515e-09 -0.000110205)
(-2.22637e-09 -6.98895e-09 -0.000110165)
(-7.80735e-09 -6.36654e-09 -0.000110207)
(4.06967e-09 -3.29362e-09 -0.000110228)
(-4.37832e-09 -2.06452e-09 -0.000110168)
(4.32601e-09 1.31179e-09 -0.000110187)
(-1.89452e-08 -4.23075e-09 -0.000117168)
(6.31018e-09 -2.42942e-09 -0.000117242)
(2.22541e-09 -2.88595e-09 -0.000117254)
(-1.03897e-08 -1.02706e-08 -0.00011728)
(9.44614e-09 -2.9037e-10 -0.000117242)
(-2.73124e-08 -8.17027e-09 -0.000117171)
(-1.86941e-08 5.68714e-10 -0.000110067)
(1.61181e-08 -8.28422e-10 -0.00011019)
(1.61352e-08 2.67064e-09 -0.00011003)
(-8.11114e-09 -4.6956e-09 -0.000110148)
(1.10099e-08 -4.11727e-09 -0.00011019)
(-2.21886e-08 2.97527e-11 -0.000110061)
(-9.09922e-09 -4.52742e-09 -0.000110155)
(2.61778e-08 -3.31199e-09 -0.000110025)
(9.91089e-10 3.77872e-09 -0.000117247)
(9.03161e-10 -5.30757e-09 -0.000117185)
(1.51604e-08 -9.48778e-10 -0.000117115)
(2.7094e-09 -7.82218e-09 -0.000117189)
(-2.29586e-09 -4.03911e-09 -0.000117185)
(4.54986e-09 -1.15968e-09 -0.00011722)
(-5.37635e-09 -3.54108e-09 -0.000117197)
(2.58486e-08 -7.21975e-09 -0.000117119)
(-2.08871e-08 5.25705e-09 -0.000117114)
(9.77939e-09 -5.81259e-10 -0.000117182)
(-3.98423e-09 -1.57291e-10 -0.000117251)
(4.37096e-09 -2.16087e-09 -0.000117192)
(7.35592e-09 1.44962e-09 -0.000117187)
(-2.05088e-08 6.13927e-09 -0.000117107)
(3.74384e-09 -2.42797e-09 -0.00011719)
(-3.90299e-09 -1.07247e-09 -0.000117236)
(1.83977e-08 4.09752e-10 -0.000110028)
(-1.53524e-08 1.51051e-09 -0.000110147)
(1.3274e-08 2.20949e-09 -0.000110153)
(-2.11774e-08 5.63108e-10 -0.000110023)
(-1.38732e-08 2.31097e-09 -0.000110154)
(1.89253e-08 -3.39977e-10 -0.000110018)
(1.94737e-09 -3.90341e-09 -0.000117294)
(-3.60686e-09 -9.60988e-10 -0.000117232)
(-1.29623e-08 -1.08949e-09 -0.000117188)
(2.3453e-08 6.50975e-09 -0.000117104)
(-4.15216e-09 -1.96529e-09 -0.000117238)
(7.6694e-09 5.7973e-09 -0.000117281)
(-5.55196e-09 3.11604e-10 -0.000110243)
(2.91445e-09 -6.68816e-09 -0.000110199)
(4.97313e-09 9.59161e-10 -0.000110157)
(-5.72414e-09 -3.11842e-09 -0.000110185)
(4.09344e-09 -1.75622e-09 -0.000110206)
(-4.86717e-09 -2.15296e-09 -0.000110231)
(2.77567e-09 -8.60144e-09 -0.000110235)
(-2.51863e-09 7.70315e-09 -0.000110196)
(3.90649e-09 1.59106e-09 -0.0001102)
(-3.21334e-09 -5.46443e-09 -0.000110163)
(-3.60671e-09 5.82053e-09 -0.000110204)
(6.87966e-09 3.16674e-09 -0.000110229)
(-3.46902e-09 -5.90018e-09 -0.000110165)
(5.84004e-09 -1.27784e-09 -0.000110193)
(-1.91906e-08 -4.96121e-09 -0.000117168)
(8.5031e-09 -2.01905e-10 -0.000117238)
(3.27822e-09 -2.04617e-09 -0.000117246)
(-8.83295e-09 -1.08833e-08 -0.000117276)
(4.55636e-09 -3.76677e-09 -0.000117245)
(-2.60408e-08 -7.07308e-09 -0.000117171)
(-2.32841e-08 -1.03238e-09 -0.000110062)
(1.56392e-08 -4.84277e-10 -0.000110184)
(2.21843e-08 -1.59363e-09 -0.000110029)
(-1.14782e-08 -3.16401e-09 -0.000110144)
(8.6997e-09 -4.92633e-09 -0.000110189)
(-2.29266e-08 -6.09693e-10 -0.000110062)
(-9.99156e-09 -3.92924e-09 -0.000110145)
(2.37512e-08 -2.26964e-09 -0.000110023)
(5.77412e-09 -4.0294e-09 -0.000117234)
(-1.48921e-09 -3.79087e-09 -0.000117186)
(2.42041e-08 -6.83146e-09 -0.000117118)
(-6.53741e-09 -1.91693e-09 -0.000117185)
(-4.64319e-10 -4.88799e-09 -0.000117183)
(8.21622e-09 -7.48043e-09 -0.00011723)
(-6.33699e-09 -2.19749e-09 -0.000117187)
(2.26444e-08 -6.54998e-09 -0.000117115)
(-2.19764e-08 5.74322e-09 -0.000117114)
(1.25151e-08 -2.12346e-09 -0.000117195)
(-5.30023e-09 2.0566e-09 -0.000117238)
(2.70404e-09 2.77269e-10 -0.000117189)
(1.21022e-08 -7.13366e-11 -0.000117214)
(-1.40617e-08 1.88735e-09 -0.000117117)
(3.02387e-09 3.7944e-09 -0.000117204)
(-7.01743e-09 5.82079e-09 -0.000117234)
(1.84208e-08 -1.92769e-09 -0.000110031)
(-1.35616e-08 1.87886e-09 -0.000110152)
(1.54437e-08 1.89257e-09 -0.00011017)
(-1.37821e-08 -2.32568e-09 -0.000110042)
(-1.4649e-08 1.2807e-09 -0.000110171)
(1.71827e-08 -1.73457e-09 -0.000110039)
(6.18691e-09 2.20666e-09 -0.00011729)
(-2.01095e-09 1.29702e-09 -0.000117248)
(-1.55824e-08 -2.17262e-09 -0.000117211)
(1.97078e-08 4.29423e-09 -0.000117118)
(-6.36064e-09 -3.04379e-09 -0.000117256)
(6.47826e-09 3.5113e-09 -0.000117282)
(-5.89472e-09 -2.48811e-10 -0.00011024)
(2.23471e-09 -7.0479e-09 -0.000110195)
(5.22622e-09 1.63284e-09 -0.000110163)
(-6.14944e-09 2.08692e-09 -0.00011019)
(3.72027e-09 -2.71364e-09 -0.000110202)
(-7.82655e-09 -5.11959e-09 -0.00011023)
(6.74748e-09 3.53165e-09 -0.000110239)
(-2.32008e-09 6.3321e-09 -0.000110205)
(6.38315e-09 -3.5985e-09 -0.000110197)
(-1.30696e-09 -8.84849e-09 -0.000110151)
(-4.78953e-09 7.12989e-10 -0.000110206)
(6.22517e-09 1.41508e-09 -0.000110236)
(-2.08283e-09 -3.8592e-09 -0.000110146)
(8.07341e-09 -1.93602e-09 -0.000110182)
(-2.26487e-08 -6.05584e-09 -0.000117176)
(3.71433e-09 -3.22694e-09 -0.000117247)
(2.94082e-09 -2.11802e-09 -0.00011725)
(-1.03904e-08 -9.53134e-09 -0.000117271)
(8.18777e-09 -2.42027e-09 -0.000117255)
(-2.68532e-08 -8.32498e-09 -0.000117179)
(-2.55509e-08 -3.01851e-09 -0.000110072)
(1.26794e-08 -2.89231e-09 -0.000110189)
(2.40815e-08 -2.23809e-09 -0.00011003)
(-6.89131e-09 -5.04967e-09 -0.000110142)
(1.14211e-08 -5.07762e-09 -0.000110197)
(-2.26536e-08 -8.32995e-10 -0.000110074)
(-8.60115e-09 -4.22805e-09 -0.000110156)
(2.3996e-08 3.23032e-11 -0.000110033)
(6.2721e-09 -3.26154e-09 -0.000117227)
(2.64383e-09 -1.08117e-08 -0.000117171)
(1.99811e-08 -3.9033e-09 -0.000117117)
(4.69505e-09 -8.54205e-09 -0.000117188)
(-2.08459e-09 -3.40079e-09 -0.00011717)
(7.5771e-09 -7.2858e-09 -0.000117208)
(-2.77841e-09 -5.12499e-09 -0.000117209)
(2.24433e-08 -5.51059e-09 -0.000117126)
(-1.45619e-08 7.66021e-10 -0.000117128)
(8.50376e-09 2.3254e-09 -0.000117228)
(-7.63923e-09 5.20052e-09 -0.000117239)
(6.38558e-09 -4.93952e-09 -0.000117207)
(5.40329e-09 4.3054e-09 -0.000117255)
(-1.46678e-08 1.85678e-10 -0.000117121)
(9.44013e-09 -7.4619e-09 -0.000117227)
(-8.6639e-09 5.09294e-09 -0.00011722)
(1.79297e-08 -2.4754e-09 -0.000110058)
(-1.26126e-08 2.64863e-09 -0.000110173)
(9.36249e-09 6.78522e-09 -0.000110189)
(-1.66604e-08 -3.06459e-09 -0.00011006)
(-1.19821e-08 4.54139e-09 -0.000110189)
(1.72543e-08 -2.32181e-09 -0.00011006)
(6.75184e-09 3.18753e-09 -0.000117292)
(-6.97685e-09 -4.38992e-09 -0.000117266)
(-8.14129e-09 3.07998e-09 -0.000117252)
(1.24006e-08 1.92093e-10 -0.000117118)
(-1.09882e-08 -8.83496e-09 -0.000117291)
(9.87913e-09 8.42715e-09 -0.000117282)
(-7.89107e-09 2.23039e-12 -0.000110238)
(6.08585e-09 1.02094e-09 -0.000110198)
(9.4743e-09 -5.17866e-09 -0.00011016)
(-6.17895e-09 -9.34006e-10 -0.000110189)
(8.60522e-09 4.3999e-09 -0.000110205)
(-7.90094e-09 -1.41073e-09 -0.000110229)
(6.22733e-09 1.56688e-10 -0.00011025)
(-5.1039e-09 2.17839e-09 -0.00011021)
(7.28688e-09 -1.97187e-09 -0.000110189)
(-6.87301e-09 3.9611e-10 -0.000110151)
(-8.99405e-09 -2.83286e-09 -0.000110221)
(6.0454e-09 1.76084e-09 -0.000110252)
(-1.04056e-08 6.17778e-09 -0.000110159)
(3.94559e-09 2.57747e-09 -0.000110189)
(-1.59858e-08 -1.5184e-09 -0.00011717)
(5.1633e-09 -3.31401e-09 -0.00011727)
(9.36945e-09 5.01172e-09 -0.000117279)
(-1.16523e-08 -1.07186e-08 -0.00011726)
(5.51601e-09 -6.07604e-09 -0.000117298)
(-2.0228e-08 -3.06877e-09 -0.000117174)
(-1.87661e-08 1.51271e-09 -0.000110084)
(1.27425e-08 -2.51608e-09 -0.000110202)
(1.8133e-08 3.79758e-10 -0.000110051)
(-1.50559e-08 -2.57156e-09 -0.000110164)
(9.88247e-09 -6.31146e-09 -0.000110215)
(-1.77011e-08 2.70167e-09 -0.000110093)
(-1.19469e-08 -5.31946e-09 -0.000110184)
(1.49365e-08 2.49366e-09 -0.000110058)
(8.48642e-09 -5.21268e-09 -0.000117208)
(-4.45897e-09 1.64744e-09 -0.000117184)
(2.13693e-08 -4.36396e-09 -0.000117127)
(-4.75289e-09 -3.19134e-09 -0.000117218)
(-1.13615e-08 8.98696e-09 -0.00011721)
(7.87082e-09 -6.73018e-09 -0.000117202)
(-4.2981e-09 -5.10665e-09 -0.000117251)
(1.46794e-08 -8.69917e-10 -0.000117122)
(-5.56046e-09 -4.78013e-09 -0.000117109)
(-3.9406e-09 8.59202e-09 -0.000117282)
(-1.11685e-08 9.57788e-09 -0.000117202)
(1.42044e-08 -1.77893e-08 -0.000117249)
(-1.86362e-08 2.0445e-08 -0.000117347)
(4.27518e-09 -1.10365e-08 -0.000117067)
(2.61416e-08 -3.29075e-08 -0.000117311)
(-1.73062e-08 1.63915e-08 -0.000117152)
(8.59814e-09 -4.74602e-09 -0.000110074)
(-4.80946e-09 7.83442e-09 -0.000110194)
(-3.77995e-09 1.48111e-08 -0.000110219)
(-2.73946e-09 -7.67052e-09 -0.000110062)
(2.84023e-09 1.50426e-08 -0.000110219)
(6.4733e-09 -7.65607e-09 -0.000110064)
(1.32238e-08 1.37292e-08 -0.000117267)
(-9.19635e-09 -9.65983e-09 -0.000117314)
(1.54866e-08 1.88163e-08 -0.000117339)
(-2.13316e-10 -9.77981e-09 -0.000117068)
(-2.81554e-08 -3.60693e-08 -0.000117373)
(2.10642e-08 2.70414e-08 -0.000117208)
(-7.67438e-09 -3.29286e-09 -0.000110235)
(1.13071e-08 7.48146e-09 -0.000110197)
(1.64582e-08 -1.58556e-08 -0.000110179)
(-1.22709e-08 9.80157e-09 -0.000110168)
(1.84868e-08 1.60724e-08 -0.000110224)
(-1.15176e-08 -7.41604e-09 -0.000110205)
(8.76702e-09 6.20881e-09 -0.000110252)
(-9.45002e-09 -3.23023e-09 -0.000110218)
(8.32876e-09 -3.99719e-09 -0.00011019)
(-9.1522e-09 1.89203e-09 -0.000110153)
(-1.88976e-08 -2.24756e-08 -0.000110236)
(1.14055e-08 1.07612e-08 -0.000110228)
(-1.79685e-08 1.69166e-08 -0.000110173)
(1.22916e-08 -1.21022e-08 -0.000110164)
(-2.88101e-09 5.80579e-09 -0.000117157)
(-4.04506e-09 -9.24516e-09 -0.000117327)
(2.37339e-08 2.68134e-08 -0.00011736)
(-2.02758e-08 -2.08354e-08 -0.000117182)
(-1.59964e-08 -1.99943e-08 -0.00011738)
(-1.01333e-09 8.8841e-09 -0.000117123)
(-1.14491e-08 3.56535e-09 -0.000110101)
(7.73123e-09 -6.91911e-09 -0.000110221)
(9.72123e-09 3.96762e-09 -0.000110074)
(-4.94894e-10 -1.03854e-08 -0.000110194)
(-6.00194e-10 -1.28944e-08 -0.000110239)
(-4.8187e-09 8.83235e-09 -0.000110092)
(1.81017e-09 -1.45802e-08 -0.000110222)
(7.99105e-09 8.2172e-09 -0.000110067)
(8.8307e-09 -5.90694e-09 -0.000117182)
(-9.6884e-09 9.26368e-09 -0.000117223)
(5.21964e-09 4.82896e-09 -0.000117114)
(1.67338e-08 -1.79917e-08 -0.000117286)
(-2.3103e-08 2.65584e-08 -0.000117285)
(1.79496e-08 -2.12314e-08 -0.000117118)
(1.97232e-08 -2.24041e-08 -0.000117353)
(1.46583e-09 8.11133e-09 -0.000117085)
(2.26901e-08 -2.32293e-08 -0.00011701)
(-4.24726e-08 3.39783e-08 -0.000117432)
(-2.85075e-08 3.36255e-08 -0.000117088)
(3.8931e-08 -5.40762e-08 -0.000117395)
(-9.2018e-08 6.8812e-08 -0.000117587)
(6.25428e-08 -4.92048e-08 -0.000116895)
(7.29662e-08 -1.04987e-07 -0.000117551)
(-5.33224e-08 7.30662e-08 -0.000116969)
(-7.25205e-09 -1.3435e-08 -0.000110063)
(9.59092e-09 1.94095e-08 -0.000110235)
(-4.04684e-08 3.62176e-08 -0.000110265)
(3.07119e-08 -2.73246e-08 -0.000110033)
(4.12804e-08 3.77374e-08 -0.000110268)
(-3.18421e-08 -2.71696e-08 -0.000110041)
(2.84158e-08 3.39302e-08 -0.000117145)
(-4.49641e-08 -6.30796e-08 -0.000117457)
(9.20811e-08 6.92676e-08 -0.000117582)
(-5.94981e-08 -4.71456e-08 -0.000116897)
(-8.01351e-08 -1.17792e-07 -0.000117613)
(5.23665e-08 7.20448e-08 -0.000117027)
(-1.83399e-08 -2.21345e-08 -0.000110197)
(2.17844e-08 2.47235e-08 -0.00011023)
(3.81659e-08 -5.2733e-08 -0.000110227)
(-2.71903e-08 4.08905e-08 -0.000110128)
(4.06388e-08 5.50499e-08 -0.000110268)
(-3.00327e-08 -3.97033e-08 -0.000110157)
(1.53857e-08 1.59501e-08 -0.000110214)
(-2.62564e-08 -3.2214e-08 -0.000110249)
(1.69007e-08 -2.0281e-08 -0.000110158)
(-2.58709e-08 3.32709e-08 -0.00011019)
(-4.41093e-08 -6.47128e-08 -0.00011028)
(2.73642e-08 3.56539e-08 -0.000110183)
(-4.3381e-08 6.11056e-08 -0.000110225)
(2.76772e-08 -3.61493e-08 -0.000110126)
(2.56334e-08 2.5186e-08 -0.000117053)
(-4.87889e-08 -3.98172e-08 -0.000117471)
(7.28799e-08 1.03767e-07 -0.000117598)
(-5.69002e-08 -7.84695e-08 -0.000116997)
(-1.00496e-07 -7.26618e-08 -0.000117615)
(4.95342e-08 4.09019e-08 -0.000116959)
(6.87308e-09 1.45195e-08 -0.000110084)
(-1.77955e-08 -2.3919e-08 -0.000110262)
(-9.31936e-09 1.54444e-08 -0.000110065)
(1.45511e-08 -2.19418e-08 -0.000110232)
(-4.37194e-08 -3.79139e-08 -0.000110285)
(1.96433e-08 2.18925e-08 -0.000110071)
(4.34676e-08 -3.83746e-08 -0.000110258)
(-2.43374e-08 2.40929e-08 -0.000110041)
(2.98044e-08 -3.78923e-08 -0.000117061)
(-4.23427e-08 5.94498e-08 -0.000117375)
(-2.30248e-08 2.50352e-08 -0.000117015)
(4.58619e-08 -3.73826e-08 -0.00011743)
(-7.69511e-08 1.13145e-07 -0.00011753)
(5.28999e-08 -7.16642e-08 -0.000116948)
(9.65116e-08 -7.06436e-08 -0.00011758)
(-5.89555e-08 4.75867e-08 -0.000116907)
(1.33819e-07 -9.24495e-08 -0.000116746)
(-1.8836e-07 1.26016e-07 -0.000117801)
(-9.46696e-08 1.39222e-07 -0.000116814)
(1.30878e-07 -2.00193e-07 -0.000117772)
(-3.75271e-07 2.42599e-07 -0.000118166)
(2.64969e-07 -1.74541e-07 -0.000116522)
(2.4695e-07 -3.90774e-07 -0.00011815)
(-1.73953e-07 2.68945e-07 -0.000116584)
(-6.35138e-08 -4.282e-08 -0.000110041)
(8.048e-08 5.68888e-08 -0.000110271)
(-1.39228e-07 9.06892e-08 -0.000110285)
(1.30927e-07 -7.62344e-08 -0.000110048)
(1.35138e-07 8.79995e-08 -0.000110286)
(-1.27296e-07 -7.43844e-08 -0.000110064)
(9.44057e-08 1.38751e-07 -0.000116874)
(-1.3205e-07 -2.00049e-07 -0.000117839)
(3.71365e-07 2.39092e-07 -0.000118146)
(-2.57305e-07 -1.71911e-07 -0.000116537)
(-2.52008e-07 -3.93067e-07 -0.000118219)
(1.78462e-07 2.76325e-07 -0.000116635)
(-4.304e-08 -6.94954e-08 -0.000110153)
(5.63501e-08 8.71892e-08 -0.000110272)
(9.51711e-08 -1.50796e-07 -0.000110263)
(-7.4228e-08 1.31641e-07 -0.000110121)
(9.27506e-08 1.4969e-07 -0.000110297)
(-7.76787e-08 -1.32463e-07 -0.000110152)
(4.30933e-08 6.80189e-08 -0.000110171)
(-5.95202e-08 -9.02037e-08 -0.000110296)
(4.3901e-08 -7.04453e-08 -0.00011012)
(-6.05832e-08 9.27648e-08 -0.000110241)
(-9.47234e-08 -1.59372e-07 -0.000110316)
(7.5903e-08 1.39799e-07 -0.000110184)
(-9.45612e-08 1.58434e-07 -0.000110252)
(7.70493e-08 -1.37443e-07 -0.000110133)
(1.25673e-07 8.84113e-08 -0.000116804)
(-1.93631e-07 -1.30737e-07 -0.00011783)
(2.48001e-07 3.88813e-07 -0.000118186)
(-1.77837e-07 -2.70331e-07 -0.000116608)
(-3.70897e-07 -2.41056e-07 -0.000118177)
(2.52029e-07 1.67628e-07 -0.0001166)
(5.7685e-08 4.03771e-08 -0.000110066)
(-7.73548e-08 -5.56899e-08 -0.000110299)
(-5.88617e-08 4.1557e-08 -0.000110028)
(8.72042e-08 -6.17101e-08 -0.000110267)
(-1.3521e-07 -9.0003e-08 -0.000110303)
(1.2019e-07 7.24637e-08 -0.000110092)
(1.44409e-07 -9.29172e-08 -0.000110277)
(-1.20627e-07 7.18195e-08 -0.000110055)
(9.36284e-08 -1.38083e-07 -0.00011679)
(-1.3266e-07 2.00255e-07 -0.000117757)
(-1.257e-07 8.99889e-08 -0.00011675)
(2.07101e-07 -1.38844e-07 -0.000117803)
(-2.49177e-07 3.97478e-07 -0.000118121)
(1.77179e-07 -2.74397e-07 -0.000116555)
(3.78406e-07 -2.43739e-07 -0.000118168)
(-2.54523e-07 1.68463e-07 -0.000116547)
(5.26013e-07 -3.27223e-07 -0.00011631)
(-7.11709e-07 4.4994e-07 -0.000118849)
(-3.22771e-07 5.2191e-07 -0.000116369)
(4.63005e-07 -7.37481e-07 -0.000118858)
(-1.26344e-06 8.275e-07 -0.000120205)
(1.06338e-06 -6.31006e-07 -0.000116391)
(8.37371e-07 -1.27836e-06 -0.000120257)
(-6.20101e-07 1.04387e-06 -0.000116444)
(-2.49856e-07 -1.29272e-07 -0.000110247)
(2.00445e-07 1.3351e-07 -0.000110345)
(-2.62916e-07 2.23085e-07 -0.000110638)
(4.77171e-07 -2.17851e-07 -0.000110938)