/*--------------------------------*- C++ -*----------------------------------*\
| =========                 |                                                 |
| \\      /  F ield         | OpenFOAM: The Open Source CFD Toolbox           |
|  \\    /   O peration     | Version:  2206                                  |
|   \\  /    A nd           | Website:  www.openfoam.com                      |
|    \\/     M anipulation  |                                                 |
\*---------------------------------------------------------------------------*/
FoamFile
{
    version     2.0;
    format      ascii;
    arch        "LSB;label=32;scalar=64";
    class       volScalarField;
    location    "1";
    object      k;
}
// * * * * * * * * * * * * * * * * * * * * * * * * * * * * * * * * * * * * * //

dimensions      [0 2 -2 0 0 0 0];

internalField   nonuniform List<scalar> 
66940
(
0.000106899
0.000146033
0.000145131
0.000147633
0.00010681
0.000146126
0.000145252
0.000147586
0.000106776
0.000146163
0.000145314
0.000147644
0.000106767
0.000146174
0.000145343
0.000147567
0.000106772
0.000146183
0.000145366
0.000147603
0.000106769
0.000146199
0.000145389
0.000147518
0.000106764
0.000146198
0.000145394
0.000147559
0.000106727
0.000146157
0.000145364
0.000147465
0.000106636
0.000146076
0.000145296
0.000147476
0.000106483
0.000145996
0.000145242
0.000147471
0.000106209
0.00014581
0.000145328
0.000147457
0.000110029
0.00014452
0.000144038
0.000143398
0.000147609
0.000145171
0.000145179
0.000147531
0.000146084
0.000146294
0.000145944
0.000146171
0.000147659
0.00014503
0.000145121
0.000147642
0.000147572
0.000147674
0.000145259
0.000145273
0.000145323
0.000145337
0.000147497
0.000147588
0.000146151
0.000146353
0.000146187
0.000146378
0.000146252
0.000146039
0.000146128
0.000147621
0.000147704
0.00014513
0.000145161
0.00014511
0.000147583
0.000147646
0.000147698
0.000145396
0.000145411
0.000145384
0.000145401
0.00014756
0.000147614
0.000146254
0.00014644
0.000146217
0.000146399
0.000146213
0.000146063
0.000146221
0.000147674
0.000147716
0.000145193
0.000145212
0.000145214
0.000147639
0.000147671
0.000147678
0.000145467
0.000145486
0.000145391
0.000145408
0.000147589
0.00014759
0.000146296
0.000146475
0.000146205
0.000146379
0.000146318
0.000146044
0.000146114
0.000147689
0.000147687
0.000145238
0.000145214
0.000145124
0.000147555
0.000147666
0.00014768
0.000145501
0.000145518
0.000145372
0.000145389
0.000147578
0.00014759
0.000146315
0.000146485
0.000146178
0.000146342
0.000146238
0.000146007
0.000146149
0.000147673
0.000147675
0.000145257
0.000145193
0.000145189
0.000147583
0.00014769
0.000147674
0.000145525
0.000145542
0.000145335
0.000145352
0.000147601
0.000147579
0.000146333
0.000146495
0.000146135
0.000146297
0.000146305
0.000145964
0.000146053
0.000147685
0.000147663
0.000145287
0.000145159
0.000145068
0.000147481
0.000147696
0.000147639
0.000145546
0.000145562
0.000145271
0.000145292
0.000147602
0.000147556
0.00014635
0.000146512
0.00014606
0.000146227
0.000146281
0.000145891
0.000146041
0.000147687
0.000147626
0.000145302
0.000145095
0.000145082
0.00014751
0.000147674
0.000147576
0.000145553
0.000145574
0.000145161
0.000145184
0.00014759
0.000147493
0.000146347
0.000146516
0.000145933
0.000146108
0.000146355
0.000145766
0.000145969
0.000147663
0.000147561
0.000145313
0.000144981
0.00014491
0.000147398
0.000147626
0.000147512
0.000145527
0.000145549
0.000145007
0.000145035
0.00014754
0.000147437
0.000146307
0.000146486
0.000145759
0.000145943
0.000146347
0.000145594
0.000145825
0.000147612
0.000147487
0.000145293
0.000144822
0.000144816
0.000147401
0.00014757
0.000147488
0.000145464
0.00014549
0.000144896
0.000144924
0.000147491
0.000147407
0.000146228
0.000146414
0.000145622
0.000145812
0.000146348
0.00014546
0.000145775
0.000147548
0.000147454
0.000145224
0.000144705
0.000144637
0.000147342
0.000147578
0.000147489
0.000145415
0.000145438
0.000145147
0.00014518
0.000147482
0.000147414
0.000146156
0.000146346
0.000145834
0.000146015
0.000146294
0.000145679
0.000145948
0.000147551
0.000147457
0.000145171
0.000144957
0.000144946
0.000147396
0.000147508
0.000146145
0.000145483
0.000145497
0.000146753
0.000146797
0.000147415
0.000145959
0.000146005
0.000146192
0.000147
0.000147195
0.000146176
0.000146365
0.000147186
0.000147485
0.000146123
0.00014521
0.000146575
0.0001465
0.000146072
0.000143452
0.00014421
0.000144249
0.000143181
0.000144418
0.000144598
0.00011022
0.00011014
0.00011013
0.00014459
0.000143413
0.000143972
2.67795e-05
0.000106923
0.000106857
0.000106942
0.000106876
0.000141172
0.000145876
0.000106879
0.000130468
0.000147639
6.33324e-05
6.36414e-05
0.000108524
4.28633e-05
0.000108656
4.2806e-05
2.70588e-05
2.70292e-05
0.000105526
4.19036e-05
0.000105659
4.18322e-05
0.000106827
0.00010692
0.000106877
0.000106817
0.000106746
0.000106862
0.000106993
0.000141298
0.000107049
0.000130458
0.000145994
0.000141351
0.000106907
0.000130389
2.66881e-05
2.6648e-05
0.000143294
0.000128661
0.000108806
0.000145099
0.00014316
0.000128566
0.000108679
6.35022e-05
6.43329e-05
0.000147606
6.34179e-05
6.423e-05
0.000108371
4.28337e-05
0.000108496
4.2765e-05
2.70671e-05
2.70354e-05
0.000105578
4.19377e-05
0.000105733
4.18596e-05
0.000106727
0.000106849
0.000106974
0.000106773
0.000106708
0.000106837
0.000106903
0.000141391
0.000107117
0.000130425
0.00014605
0.000141466
0.000106953
0.000130349
2.67119e-05
2.66678e-05
0.000143569
0.000128533
0.000108746
0.000145181
0.000143518
0.000128445
0.000108605
6.35671e-05
6.43295e-05
0.00014761
6.34259e-05
6.42629e-05
0.000108272
4.27935e-05
0.000108375
4.27307e-05
2.70615e-05
2.70208e-05
0.000105583
4.19574e-05
0.00010575
4.18745e-05
0.00010668
0.000106812
0.000106903
0.000106767
0.000106698
0.000106824
0.00010704
0.000141369
0.000107121
0.000130407
0.000146049
0.000141475
0.000106951
0.000130317
2.67256e-05
2.66776e-05
0.000143665
0.000128474
0.000108669
0.000145204
0.000143658
0.000128382
0.000108547
6.35556e-05
6.43632e-05
0.000147607
6.34408e-05
6.42331e-05
0.000108221
4.27659e-05
0.000108308
4.27091e-05
2.70504e-05
2.70192e-05
0.000105569
4.19617e-05
0.000105742
4.18749e-05
0.000106677
0.000106806
0.000106997
0.000106781
0.0001067
0.000106827
0.000106952
0.000141329
0.000107104
0.000130398
0.000146018
0.000141438
0.00010693
0.000130289
2.67281e-05
2.66767e-05
0.000143674
0.000128451
0.000108618
0.000145192
0.000143681
0.000128347
0.00010851
6.35595e-05
6.43044e-05
0.000147549
6.34071e-05
6.42314e-05
0.000108198
4.27499e-05
0.000108277
4.26947e-05
2.70437e-05
2.70036e-05
0.000105546
4.19543e-05
0.000105721
4.18616e-05
0.000106658
0.000106789
0.000106949
0.000106801
0.000106721
0.000106851
0.000107063
0.000141297
0.000107081
0.000130401
0.000145979
0.000141399
0.000106906
0.000130273
2.67201e-05
2.66659e-05
0.000143674
0.000128448
0.000108597
0.000145165
0.000143681
0.000128326
0.00010849
6.35176e-05
6.4323e-05
0.000147534
6.33927e-05
6.41933e-05
0.000108181
4.27346e-05
0.000108258
4.26799e-05
2.70291e-05
2.69982e-05
0.000105515
4.19308e-05
0.000105696
4.18355e-05
0.00010666
0.000106794
0.000106968
0.000106842
0.000106767
0.000106897
0.000106983
0.000141281
0.000107047
0.000130424
0.000145924
0.000141379
0.000106867
0.00013027
2.67031e-05
2.66493e-05
0.000143662
0.000128459
0.000108568
0.000145119
0.000143669
0.000128313
0.00010846
6.34961e-05
6.42573e-05
0.000147491
6.33352e-05
6.41819e-05
0.000108156
4.27195e-05
0.000108239
4.26651e-05
2.70177e-05
2.69832e-05
0.000105462
4.19037e-05
0.000105644
4.18123e-05
0.00010666
0.000106793
0.000106889
0.000106894
0.000106823
0.000106945
0.000107053
0.000141234
0.000106995
0.000130448
0.000145828
0.000141337
0.000106817
0.000130262
2.6684e-05
2.66348e-05
0.000143634
0.000128474
0.000108538
0.000145031
0.000143638
0.000128301
0.000108433
6.34316e-05
6.42659e-05
0.000147457
6.33074e-05
6.41431e-05
0.000108116
4.27041e-05
0.000108202
4.26522e-05
2.70039e-05
2.69842e-05
0.000105401
4.18819e-05
0.000105586
4.17937e-05
0.000106628
0.000106754
0.00010684
0.000106958
0.000106889
0.000107006
0.000107038
0.000141185
0.000106951
0.000130459
0.000145675
0.000141268
0.000106778
0.00013025
2.66665e-05
2.66273e-05
0.000143595
0.000128482
0.000108504
0.000144891
0.00014359
0.000128293
0.000108402
6.34114e-05
6.4209e-05
0.000147394
6.32629e-05
6.41459e-05
0.000108074
4.26978e-05
0.000108153
4.2647e-05
2.69979e-05
2.69838e-05
0.000105361
4.18718e-05
0.000105527
4.17857e-05
0.000106541
0.000106662
0.000106681
0.000107079
0.000107012
0.000107124
0.000107145
0.000141176
0.000106917
0.000130456
0.000145504
0.000141186
0.000106767
0.000130278
2.66542e-05
2.66281e-05
0.000143577
0.000128493
0.000108479
0.000144733
0.000143521
0.000128347
0.000108391
6.33633e-05
6.42295e-05
0.000147367
6.32586e-05
6.41348e-05
0.000108144
4.27182e-05
0.000108124
4.26598e-05
2.69905e-05
2.70489e-05
0.00010536
4.18824e-05
0.000105468
4.17889e-05
0.000106395
0.000106513
0.000106527
0.00010737
0.000107313
0.000107425
0.000107416
0.000141213
0.000106914
0.000130457
0.000145492
0.000141115
0.00010679
0.000130536
2.66528e-05
2.66871e-05
0.000143629
0.000128524
0.000108472
0.000144739
0.000143466
0.000128669
0.000108413
6.33581e-05
6.42009e-05
0.000147373
6.32604e-05
6.42266e-05
0.000106008
4.28552e-05
0.000107022
4.22018e-05
2.72075e-05
2.76161e-05
0.000105132
4.24215e-05
0.000105728
4.2005e-05
0.000106139
0.000106268
0.000106252
0.000115013
0.000114991
0.000115095
0.00011509
0.000140591
0.000107327
0.000130328
0.000145914
0.000141019
0.000106392
0.000130906
2.69681e-05
2.74968e-05
0.000141754
0.000129225
0.000108426
0.000145442
0.000143041
0.000131289
0.000106729
6.36893e-05
6.44684e-05
0.000147261
6.33719e-05
6.36328e-05
9.39808e-05
7.69022e-06
8.47115e-05
2.96512e-05
4.9598e-06
2.43894e-05
9.32403e-05
7.65183e-06
8.39206e-05
2.95766e-05
5.50788e-05
7.84017e-05
7.8369e-05
0.000114053
5.45571e-05
8.26208e-05
8.26154e-05
0.000124781
6.89326e-05
0.000129691
0.000136713
0.000129602
6.5895e-05
0.000123579
4.94077e-06
2.42512e-05
0.000125658
0.000130084
6.94038e-05
0.000137032
0.000130634
0.000123857
6.61042e-05
4.27172e-05
4.30846e-05
0.000140618
4.54073e-05
4.57223e-05
2.70402e-05
2.68814e-05
2.66548e-05
2.66964e-05
0.000147598
6.42523e-05
6.32867e-05
6.40892e-05
6.33928e-05
4.21234e-05
0.000145431
0.00010743
0.000107126
4.2812e-05
4.23026e-05
0.000108585
0.000107116
4.27885e-05
4.2277e-05
0.000108571
0.000142379
0.000145165
0.000108563
0.000128279
0.00010773
0.000128547
0.000142827
0.000142371
0.00014517
0.000108555
0.000128259
0.000107716
0.000128527
0.000142821
0.000147528
6.3569e-05
6.32826e-05
2.66223e-05
2.7026e-05
2.68648e-05
0.00014748
6.41667e-05
6.33053e-05
6.39976e-05
6.34061e-05
2.66353e-05
2.66748e-05
0.000105639
4.18097e-05
4.18731e-05
0.000105485
0.00014132
0.000146084
0.000106948
0.00013049
0.000107112
0.000130529
0.000141265
0.000105612
4.17773e-05
4.18404e-05
0.000105458
0.000141268
0.000146297
0.000130553
0.000106863
0.000130589
0.000107023
0.000141215
0.000105458
4.17587e-05
0.000141141
0.000146103
0.000130508
0.000106855
0.00010544
4.17544e-05
0.000141275
0.000145944
0.000106877
0.000130434
0.000107031
0.000130479
0.000141239
0.000105615
4.17873e-05
4.18478e-05
0.000105466
0.000141244
0.000146173
0.000130515
0.000106849
0.000130551
0.000107006
0.000141205
0.000105597
4.17831e-05
4.18438e-05
0.000105449
2.66344e-05
2.6673e-05
0.000147652
6.32749e-05
6.42784e-05
6.33953e-05
6.40867e-05
2.70715e-05
2.69132e-05
0.000142611
0.000145021
0.000128672
0.000108716
0.000128936
0.000107876
0.000143067
0.000142611
0.000145126
0.000128679
0.000108749
0.000128946
0.000107908
0.000143067
0.00010727
4.28771e-05
4.2362e-05
0.000108724
0.000107266
4.28748e-05
4.2359e-05
0.000108721
2.66279e-05
2.68275e-05
0.000147589
6.33601e-05
6.42373e-05
6.34565e-05
6.407e-05
2.66427e-05
2.66816e-05
2.70763e-05
2.69156e-05
2.70721e-05
2.705e-05
2.67058e-05
2.66669e-05
6.43442e-05
6.34173e-05
0.000147638
6.42752e-05
6.33182e-05
2.70542e-05
2.70809e-05
2.66772e-05
2.6718e-05
0.000147608
6.42965e-05
6.33408e-05
6.43691e-05
6.34482e-05
0.000108515
4.28383e-05
0.000108643
4.2783e-05
0.000143051
0.000108649
0.000128271
0.000145257
0.000142905
0.000108518
0.0001282
0.000143045
0.000108641
0.000128252
0.00014527
0.000142898
0.000108513
0.000128183
0.000108573
4.27892e-05
4.28515e-05
0.00010844
0.000108566
4.27666e-05
4.28285e-05
0.000108432
0.000143121
0.000145349
0.000108494
0.000128152
0.000108606
0.00012821
0.000143208
0.000143115
0.000145362
0.000108486
0.000128135
0.0001086
0.000128194
0.000143203
6.42572e-05
6.34385e-05
0.000147558
6.41899e-05
6.33354e-05
2.66872e-05
2.66544e-05
2.70369e-05
2.70618e-05
0.000147529
6.42005e-05
6.33608e-05
6.42753e-05
6.34711e-05
2.6659e-05
2.67033e-05
0.000141332
0.000107116
0.000130491
0.000146138
0.000141371
0.000106984
0.000130452
0.000105501
4.18684e-05
0.000105629
4.18e-05
0.000141283
0.000130558
0.00010703
0.000146334
0.000141322
0.000130522
0.000106896
0.000105698
4.18487e-05
4.19211e-05
0.000105561
0.000141439
0.000146221
0.000107021
0.000130447
0.000107156
0.000130489
0.000141391
0.000105674
4.18172e-05
4.18888e-05
0.000105537
0.00014139
0.000146414
0.00013052
0.000106934
0.000130561
0.000107066
0.000141343
0.000105505
4.18782e-05
0.000105636
4.18103e-05
0.000141265
0.000130527
0.000107015
0.000146138
0.000141311
0.00013049
0.000106887
0.000105488
4.18743e-05
0.000105619
4.1806e-05
0.000141402
0.000146075
0.000106947
0.000130382
0.00010708
0.000130425
0.000141358
0.000105679
4.18263e-05
4.18991e-05
0.000105546
0.00014137
0.000146235
0.000130488
0.000106933
0.000130531
0.00010706
0.000141324
0.000105662
4.18228e-05
4.18949e-05
0.00010553
6.34077e-05
6.43672e-05
0.000147681
6.33097e-05
6.4302e-05
2.7103e-05
2.70829e-05
2.66591e-05
2.66964e-05
0.00014765
6.3334e-05
6.43204e-05
6.34574e-05
6.43786e-05
2.7087e-05
2.71164e-05
0.000143296
0.000128661
0.000108837
0.000145104
0.000143147
0.000128593
0.000108709
0.00010868
4.29281e-05
0.000108798
4.28758e-05
0.000108676
4.2927e-05
0.000108794
4.28755e-05
0.000143369
0.000145188
0.000128509
0.000108657
0.000128572
0.000108771
0.000143465
0.000143369
0.000145143
0.000128542
0.000108677
0.000128595
0.000108798
0.000143462
0.000108731
4.28616e-05
4.29226e-05
0.000108605
0.000108728
4.28624e-05
4.29235e-05
0.000108603
2.6697e-05
2.66725e-05
2.71082e-05
2.70722e-05
0.000147563
6.34471e-05
6.42353e-05
6.35567e-05
6.43093e-05
2.66795e-05
2.67213e-05
2.70763e-05
2.71057e-05
2.70827e-05
2.70516e-05
2.6727e-05
2.66846e-05
6.43852e-05
6.34665e-05
0.000147693
6.42952e-05
6.33505e-05
2.70489e-05
2.70798e-05
2.66915e-05
2.67346e-05
0.000147666
6.42918e-05
6.33605e-05
6.43804e-05
6.34757e-05
0.000108365
4.28091e-05
0.000108485
4.27414e-05
0.000143308
0.00010858
0.000128153
0.000145354
0.000143256
0.000108446
0.000128097
0.000143303
0.000108571
0.000128136
0.000145369
0.000143251
0.000108435
0.000128081
0.000108425
4.27475e-05
4.28086e-05
0.000108314
0.000108419
4.27236e-05
4.27848e-05
0.000108308
0.000143336
0.000145449
0.000108419
0.00012808
0.00010853
0.000128136
0.000143372
0.000143332
0.000145465
0.000108407
0.000128064
0.000108518
0.000128121
0.000143368
6.42912e-05
6.34851e-05
0.000147608
6.42039e-05
6.33674e-05
2.67089e-05
2.66653e-05
2.70329e-05
2.70637e-05
0.000147583
6.42022e-05
6.33773e-05
6.42907e-05
6.34928e-05
2.6671e-05
2.67149e-05
0.000141422
0.000107186
0.000130465
0.000146203
0.000141492
0.00010703
0.000130417
0.000105555
4.19046e-05
0.000105704
4.18277e-05
0.000141374
0.00013054
0.0001071
0.000146385
0.000141444
0.000130494
0.000106945
0.000105743
4.18696e-05
4.19464e-05
0.000105584
0.000141513
0.000146291
0.000107039
0.000130416
0.000107192
0.00013047
0.000141419
0.000105719
4.18372e-05
4.19144e-05
0.000105559
0.000141466
0.000146473
0.000130493
0.000106951
0.000130547
0.000107104
0.000141371
0.00010556
4.19132e-05
0.000105714
4.18355e-05
0.000141358
0.000130503
0.000107098
0.000146176
0.000141426
0.000130452
0.000106939
0.000105544
4.19103e-05
0.000105698
4.18334e-05
0.000141481
0.000146137
0.000106956
0.000130346
0.000107113
0.000130401
0.000141384
0.000105723
4.18437e-05
4.1922e-05
0.000105565
0.000141449
0.000146283
0.000130446
0.000106937
0.000130503
0.000107098
0.000141349
0.000105708
4.18423e-05
4.19203e-05
0.000105549
6.34617e-05
6.44069e-05
0.000147719
6.33469e-05
6.43207e-05
2.71148e-05
2.7085e-05
2.66742e-05
2.67148e-05
0.000147691
6.33563e-05
6.43123e-05
6.34897e-05
6.43884e-05
2.70807e-05
2.71158e-05
0.000143574
0.000128544
0.00010876
0.000145163
0.000143515
0.00012848
0.00010862
0.000108547
4.29046e-05
0.000108659
4.28375e-05
0.000108545
4.29058e-05
0.000108657
4.2836e-05
0.000143597
0.000145276
0.000128424
0.000108575
0.000128483
0.000108691
0.000143624
0.000143603
0.000145273
0.000128452
0.000108595
0.000128515
0.000108706
0.000143644
0.000108603
4.2819e-05
4.28815e-05
0.000108498
0.000108602
4.28164e-05
4.288e-05
0.000108498
2.67262e-05
2.66767e-05
2.71085e-05
2.7083e-05
0.000147585
6.34228e-05
6.42775e-05
6.35452e-05
6.43558e-05
2.66776e-05
2.67252e-05
2.70853e-05
2.71139e-05
2.70765e-05
2.70444e-05
2.67405e-05
2.6695e-05
6.43773e-05
6.34845e-05
0.000147687
6.42842e-05
6.33632e-05
2.70408e-05
2.70721e-05
2.66968e-05
2.67435e-05
0.000147667
6.42769e-05
6.33623e-05
6.43684e-05
6.34856e-05
0.000108266
4.27679e-05
0.000108366
4.27061e-05
0.000143386
0.00010851
0.000128104
0.000145385
0.000143366
0.000108396
0.000128043
0.000143383
0.000108498
0.000128089
0.000145402
0.000143363
0.000108385
0.000128029
0.000108332
4.27184e-05
4.27756e-05
0.000108241
0.000108327
4.26934e-05
4.27508e-05
0.000108234
0.000143385
0.000145498
0.000108376
0.000128038
0.000108484
0.000128105
0.000143384
0.000143382
0.000145514
0.000108361
0.000128023
0.000108471
0.000128091
0.000143381
6.42857e-05
6.35032e-05
0.000147602
6.41887e-05
6.33774e-05
2.67207e-05
2.66807e-05
2.70211e-05
2.70501e-05
0.000147583
6.41741e-05
6.33776e-05
6.42665e-05
6.35052e-05
2.66761e-05
2.67268e-05
0.000141407
0.0001072
0.000130451
0.000146207
0.000141505
0.000107037
0.00013039
0.000105557
4.19231e-05
0.00010572
4.18412e-05
0.000141356
0.000130528
0.000107111
0.000146382
0.000141457
0.000130467
0.000106946
0.000105744
4.1876e-05
4.1959e-05
0.000105579
0.000141492
0.000146317
0.00010703
0.000130391
0.000107195
0.000130461
0.000141389
0.000105719
4.18418e-05
4.19256e-05
0.000105554
0.000141441
0.000146492
0.000130467
0.000106937
0.000130539
0.000107101
0.000141339
0.000105564
4.19293e-05
0.000105728
4.18475e-05
0.000141335
0.000130489
0.000107096
0.000146157
0.000141434
0.000130428
0.000106932
0.000105548
4.19279e-05
0.000105712
4.18447e-05
0.000141453
0.000146157
0.000106943
0.000130317
0.000107109
0.000130388
0.000141351
0.000105724
4.1848e-05
4.1932e-05
0.000105556
0.00014142
0.000146271
0.00013043
0.000106922
0.000130501
0.000107089
0.000141315
0.000105708
4.18433e-05
4.19285e-05
0.00010554
6.34811e-05
6.43954e-05
0.000147704
6.33578e-05
6.43028e-05
2.71073e-05
2.70753e-05
2.66784e-05
2.67229e-05
0.000147684
6.33551e-05
6.42901e-05
6.34971e-05
6.43693e-05
2.70698e-05
2.71052e-05
0.000143664
0.000128471
0.000108687
0.00014515
0.00014364
0.000128415
0.000108568
0.000108465
4.28631e-05
0.000108558
4.28e-05
0.000108464
4.28614e-05
0.000108558
4.27977e-05
0.000143664
0.000145318
0.000128377
0.000108524
0.000128445
0.000108636
0.000143659
0.000143678
0.000145225
0.000128409
0.000108534
0.00012847
0.000108654
0.000143672
0.000108528
4.27858e-05
4.28447e-05
0.000108438
0.000108527
4.27825e-05
4.28431e-05
0.000108437
2.67286e-05
2.66936e-05
2.71128e-05
2.70654e-05
0.000147591
6.34432e-05
6.4215e-05
6.35733e-05
6.43076e-05
2.66895e-05
2.67392e-05
2.70605e-05
2.70955e-05
2.7068e-05
2.70364e-05
2.67442e-05
2.6696e-05
6.43617e-05
6.3484e-05
0.000147678
6.42699e-05
6.33584e-05
2.7032e-05
2.70637e-05
2.66933e-05
2.6743e-05
0.000147684
6.42611e-05
6.33525e-05
6.43541e-05
6.34793e-05
0.000108214
4.27393e-05
0.000108298
4.26844e-05
0.000143381
0.000108467
0.000128083
0.000145376
0.000143374
0.000108364
0.000128008
0.000143375
0.000108451
0.000128069
0.000145393
0.000143371
0.000108349
0.000127995
0.000108286
4.2702e-05
4.27555e-05
0.000108207
0.00010828
4.26781e-05
4.2731e-05
0.0001082
0.000143376
0.000145524
0.000108357
0.000128009
0.000108456
0.000128092
0.000143378
0.00014337
0.000145541
0.000108343
0.000127995
0.000108441
0.000128079
0.000143373
6.42619e-05
6.34973e-05
0.000147587
6.41749e-05
6.33697e-05
2.67234e-05
2.66743e-05
2.70161e-05
2.70468e-05
0.000147594
6.41702e-05
6.33655e-05
6.42613e-05
6.3491e-05
2.66712e-05
2.67211e-05
0.000141373
0.000107187
0.000130447
0.000146186
0.000141473
0.000107021
0.000130367
0.000105543
4.19256e-05
0.000105713
4.1839e-05
0.000141322
0.000130523
0.000107093
0.000146351
0.000141423
0.000130444
0.000106924
0.000105728
4.18708e-05
4.1958e-05
0.000105559
0.000141456
0.000146335
0.000107011
0.000130372
0.000107177
0.000130462
0.000141355
0.000105702
4.18336e-05
4.19216e-05
0.000105532
0.000141404
0.000146499
0.000130448
0.00010691
0.000130539
0.000107077
0.000141303
0.000105546
4.19317e-05
0.000105715
4.18463e-05
0.000141295
0.000130479
0.000107077
0.000146123
0.000141397
0.000130395
0.000106905
0.000105529
4.19271e-05
0.000105699
4.18411e-05
0.000141411
0.000146165
0.000106921
0.000130293
0.000107087
0.000130383
0.000141312
0.000105705
4.18419e-05
4.19295e-05
0.000105534
0.000141378
0.000146292
0.000130393
0.000106884
0.000130487
0.000107058
0.000141276
0.000105689
4.18354e-05
4.1924e-05
0.000105518
6.34773e-05
6.4373e-05
0.000147681
6.33487e-05
6.42833e-05
2.70964e-05
2.70654e-05
2.66723e-05
2.67203e-05
0.000147687
6.33388e-05
6.42709e-05
6.3486e-05
6.43498e-05
2.70594e-05
2.70949e-05
0.000143674
0.000128455
0.000108623
0.000145153
0.000143664
0.000128376
0.000108516
0.000108421
4.28317e-05
0.000108502
4.27756e-05
0.000108419
4.28283e-05
0.000108502
4.27689e-05
0.000143669
0.000145342
0.00012835
0.000108502
0.000128433
0.000108603
0.000143667
0.00014367
0.000145322
0.000128373
0.000108511
0.00012846
0.000108609
0.000143674
0.000108487
4.27668e-05
4.28221e-05
0.000108407
0.000108486
4.27589e-05
4.28155e-05
0.000108406
2.67335e-05
2.66779e-05
2.70911e-05
2.70639e-05
0.000147566
6.3389e-05
6.42401e-05
6.35222e-05
6.43224e-05
2.66697e-05
2.67235e-05
2.70642e-05
2.70936e-05
2.70584e-05
2.70267e-05
2.67387e-05
2.66867e-05
6.43447e-05
6.34722e-05
0.000147675
6.42515e-05
6.33411e-05
2.70214e-05
2.70528e-05
2.66785e-05
2.67312e-05
0.000147693
6.42413e-05
6.33247e-05
6.43349e-05
6.34589e-05
0.000108191
4.27246e-05
0.000108267
4.26705e-05
0.00014338
0.000108448
0.000128078
0.000145348
0.000143363
0.000108351
0.000127985
0.000143374
0.000108436
0.000128064
0.000145364
0.000143359
0.00010834
0.000127972
0.000108264
4.26873e-05
4.27408e-05
0.000108188
0.000108258
4.26624e-05
4.27164e-05
0.00010818
0.000143369
0.000145548
0.000108343
0.000127991
0.000108442
0.000128094
0.000143378
0.000143363
0.000145562
0.00010833
0.000127979
0.00010843
0.000128082
0.000143373
6.42524e-05
6.34876e-05
0.000147586
6.41571e-05
6.33526e-05
2.67175e-05
2.66716e-05
2.70022e-05
2.70313e-05
0.000147602
6.41402e-05
6.33406e-05
6.42338e-05
6.34764e-05
2.66585e-05
2.6714e-05
0.000141342
0.000107166
0.000130454
0.000146152
0.000141436
0.000106998
0.000130354
0.000105519
4.19153e-05
0.000105689
4.18239e-05
0.000141289
0.00013053
0.000107063
0.00014631
0.000141385
0.000130429
0.000106893
0.000105705
4.18495e-05
4.19421e-05
0.000105535
0.000141425
0.000146353
0.000106982
0.000130364
0.000107152
0.000130477
0.000141335
0.000105677
4.18121e-05
4.19042e-05
0.000105508
0.000141372
0.000146514
0.000130439
0.000106876
0.000130553
0.000107044
0.000141283
0.000105522
4.19237e-05
0.000105692
4.18331e-05
0.000141262
0.000130482
0.000107036
0.000146088
0.000141357
0.000130384
0.000106868
0.000105505
4.19168e-05
0.000105676
4.18243e-05
0.000141379
0.000146179
0.000106892
0.000130286
0.000107061
0.000130397
0.000141292
0.00010568
4.18217e-05
4.19137e-05
0.000105511
0.000141344
0.000146304
0.0001304
0.000106856
0.000130512
0.000107022
0.000141256
0.000105663
4.18105e-05
4.19043e-05
0.000105494
6.34589e-05
6.43528e-05
0.000147672
6.33259e-05
6.42599e-05
2.70848e-05
2.70527e-05
2.66573e-05
2.67074e-05
0.000147689
6.33094e-05
6.42439e-05
6.3461e-05
6.43251e-05
2.70449e-05
2.70807e-05
0.000143673
0.000128438
0.000108604
0.00014511
0.00014366
0.000128348
0.000108501
0.000108396
4.28128e-05
0.000108474
4.27562e-05
0.000108393
4.28057e-05
0.000108472
4.27491e-05
0.000143663
0.000145366
0.000128333
0.000108476
0.000128438
0.000108581
0.000143666
0.000143662
0.000145272
0.000128351
0.00010848
0.000128451
0.000108591
0.000143667
0.000108462
4.27455e-05
4.28017e-05
0.000108381
0.000108459
4.27385e-05
4.27956e-05
0.000108378
2.67173e-05
2.6676e-05
2.70903e-05
2.70433e-05
0.000147545
6.33837e-05
6.41706e-05
6.35225e-05
6.42663e-05
2.66631e-05
2.67181e-05
2.70357e-05
2.70714e-05
2.70462e-05
2.70156e-05
2.67213e-05
2.66693e-05
6.43237e-05
6.34409e-05
0.00014766
6.42293e-05
6.33044e-05
2.70107e-05
2.70397e-05
2.66625e-05
2.67116e-05
0.000147689
6.42178e-05
6.32882e-05
6.4311e-05
6.34201e-05
0.000108173
4.2708e-05
0.000108247
4.26547e-05
0.000143376
0.000108432
0.000128088
0.0001453
0.000143356
0.000108332
0.000127974
0.000143369
0.000108419
0.000128075
0.000145318
0.000143352
0.000108319
0.000127962
0.000108248
4.26731e-05
4.27255e-05
0.000108172
0.00010824
4.26479e-05
4.27002e-05
0.000108162
0.000143356
0.000145564
0.000108323
0.000127985
0.000108421
0.000128111
0.000143368
0.000143349
0.000145582
0.00010831
0.000127973
0.000108408
0.0001281
0.000143361
6.42257e-05
6.34559e-05
0.000147571
6.41355e-05
6.33199e-05
2.67016e-05
2.66492e-05
2.69942e-05
2.70226e-05
0.000147601
6.41264e-05
6.33052e-05
6.42189e-05
6.34362e-05
2.66418e-05
2.66912e-05
0.000141325
0.000107132
0.000130477
0.000146096
0.000141417
0.000106956
0.000130349
0.000105488
4.18918e-05
0.000105664
4.17981e-05
0.000141274
0.000130551
0.000107026
0.000146256
0.000141366
0.000130424
0.000106851
0.000105669
4.1823e-05
4.19146e-05
0.000105488
0.000141402
0.000146363
0.000106929
0.000130359
0.000107103
0.000130502
0.000141301
0.000105642
4.17852e-05
4.18771e-05
0.000105461
0.00014135
0.000146527
0.000130433
0.000106829
0.000130578
0.000106998
0.000141252
0.000105492
4.19014e-05
0.000105668
4.18081e-05
0.000141247
0.000130508
0.000107005
0.000146041
0.000141338
0.000130378
0.000106823
0.000105475
4.18898e-05
0.000105651
4.17943e-05
0.000141357
0.000146189
0.000106843
0.000130281
0.000107016
0.000130424
0.000141259
0.000105646
4.17951e-05
4.18872e-05
0.000105466
0.000141324
0.000146329
0.000130384
0.000106786
0.00013053
0.000106968
0.000141225
0.000105629
4.17784e-05
4.18727e-05
0.000105448
6.34275e-05
6.43241e-05
0.00014765
6.32925e-05
6.42309e-05
2.70688e-05
2.70381e-05
2.6641e-05
2.66887e-05
0.00014768
6.32756e-05
6.42153e-05
6.34259e-05
6.4295e-05
2.70313e-05
2.70644e-05
0.000143659
0.000128449
0.000108567
0.000145075
0.000143645
0.000128329
0.000108462
0.000108371
4.27909e-05
0.000108447
4.2736e-05
0.000108367
4.27842e-05
0.000108444
4.27274e-05
0.00014364
0.000145383
0.000128322
0.000108448
0.000128453
0.000108549
0.000143643
0.000143638
0.000145356
0.000128332
0.000108458
0.000128466
0.000108552
0.000143646
0.000108436
4.27271e-05
4.27813e-05
0.000108354
0.000108433
4.27203e-05
4.27735e-05
0.000108351
2.67029e-05
2.66436e-05
2.7064e-05
2.70382e-05
0.000147526
6.33074e-05
6.41879e-05
6.34457e-05
6.42703e-05
2.66308e-05
2.66846e-05
2.70388e-05
2.7065e-05
2.70329e-05
2.7006e-05
2.6703e-05
2.66568e-05
6.42986e-05
6.34041e-05
0.000147608
6.42066e-05
6.32754e-05
2.70032e-05
2.70267e-05
2.66527e-05
2.66952e-05
0.000147651
6.41977e-05
6.32636e-05
6.42868e-05
6.33904e-05
0.000108147
4.26929e-05
0.000108227
4.26402e-05
0.000143358
0.00010841
0.000128108
0.000145215
0.000143334
0.000108312
0.00012797
0.00014335
0.000108397
0.000128097
0.000145237
0.000143328
0.0001083
0.00012796
0.000108219
4.26582e-05
4.27097e-05
0.000108138
0.00010821
4.26331e-05
4.26847e-05
0.000108129
0.000143324
0.000145557
0.000108299
0.000127983
0.000108397
0.00012813
0.000143344
0.000143318
0.000145577
0.000108286
0.000127973
0.000108384
0.000128121
0.000143337
6.42054e-05
6.3423e-05
0.000147526
6.41138e-05
6.32893e-05
2.6683e-05
2.66425e-05
2.69842e-05
2.70053e-05
0.000147567
6.40971e-05
6.32809e-05
6.41867e-05
6.341e-05
2.66329e-05
2.66788e-05
0.000141278
0.000107077
0.0001305
0.000145996
0.000141369
0.000106908
0.00013034
0.000105435
4.18638e-05
0.000105613
4.1772e-05
0.000141229
0.000130574
0.000106977
0.000146164
0.000141321
0.000130415
0.000106803
0.000105613
4.18023e-05
4.18909e-05
0.000105435
0.000141341
0.000146343
0.000106891
0.000130345
0.000107056
0.000130519
0.000141253
0.000105586
4.17616e-05
4.18502e-05
0.000105407
0.000141293
0.000146516
0.000130419
0.000106785
0.000130594
0.000106947
0.000141206
0.000105437
4.18738e-05
0.000105618
4.17837e-05
0.0001412
0.000130532
0.000106931
0.000145994
0.000141292
0.000130377
0.00010676
0.000105419
4.18566e-05
0.0001056
4.17643e-05
0.000141293
0.000146171
0.000106802
0.00013027
0.000106965
0.000130442
0.000141206
0.000105587
4.17739e-05
4.18623e-05
0.000105406
0.000141262
0.000146384
0.000130391
0.000106746
0.000130562
0.000106907
0.000141174
0.000105569
4.17516e-05
4.18422e-05
0.000105389
6.33924e-05
6.4294e-05
0.000147597
6.32605e-05
6.42039e-05
2.70525e-05
2.70258e-05
2.66293e-05
2.66701e-05
0.000147641
6.32469e-05
6.41902e-05
6.33919e-05
6.42661e-05
2.70215e-05
2.70483e-05
0.000143632
0.000128443
0.000108548
0.000144981
0.000143613
0.000128297
0.000108449
0.000108339
4.27718e-05
0.000108418
4.27178e-05
0.000108335
4.27666e-05
0.000108415
4.27138e-05
0.000143599
0.000145372
0.000128309
0.000108419
0.000128465
0.000108519
0.000143613
0.000143599
0.000145291
0.000128287
0.00010843
0.000128444
0.000108534
0.000143614
0.000108401
4.27087e-05
4.2762e-05
0.000108316
0.000108398
4.27071e-05
4.27596e-05
0.000108313
2.66733e-05
2.66365e-05
2.70608e-05
2.70196e-05
0.000147497
6.33024e-05
6.41246e-05
6.34338e-05
6.42125e-05
2.66265e-05
2.66725e-05
2.70166e-05
2.70424e-05
2.70218e-05
2.70012e-05
2.66872e-05
2.66506e-05
6.42764e-05
6.33765e-05
0.000147539
6.419e-05
6.32534e-05
2.70002e-05
2.70174e-05
2.66528e-05
2.66808e-05
0.000147595
6.4186e-05