/*--------------------------------*- C++ -*----------------------------------*\
| =========                 |                                                 |
| \\      /  F ield         | OpenFOAM: The Open Source CFD Toolbox           |
|  \\    /   O peration     | Version:  2206                                  |
|   \\  /    A nd           | Website:  www.openfoam.com                      |
|    \\/     M anipulation  |                                                 |
\*---------------------------------------------------------------------------*/
FoamFile
{
    version     2.0;
    format      ascii;
    arch        "LSB;label=32;scalar=64";
    class       volScalarField;
    location    "1";
    object      nut;
}
// * * * * * * * * * * * * * * * * * * * * * * * * * * * * * * * * * * * * * //

dimensions      [0 2 -1 0 0 0 0];

internalField   nonuniform List<scalar> 
66940
(
2.92933e-06
2.26802e-06
2.29529e-06
2.4279e-06
2.92076e-06
2.26348e-06
2.29095e-06
2.42011e-06
2.91145e-06
2.25582e-06
2.28346e-06
2.41626e-06
2.90006e-06
2.24478e-06
2.27247e-06
2.40523e-06
2.8848e-06
2.22971e-06
2.25736e-06
2.39665e-06
2.86236e-06
2.20951e-06
2.23686e-06
2.3803e-06
2.82717e-06
2.18252e-06
2.2094e-06
2.36678e-06
2.76723e-06
2.14772e-06
2.17384e-06
2.3467e-06
2.65845e-06
2.10541e-06
2.13085e-06
2.33509e-06
2.44563e-06
2.06171e-06
2.08587e-06
2.33091e-06
2.03041e-06
2.06537e-06
2.08212e-06
2.3769e-06
1.47231e-06
2.44469e-06
2.12798e-06
2.6801e-06
2.38752e-06
2.31616e-06
2.31448e-06
2.38559e-06
2.29612e-06
2.29468e-06
2.29538e-06
2.29473e-06
2.38946e-06
2.32252e-06
2.32305e-06
2.38849e-06
2.42366e-06
2.3917e-06
2.28831e-06
2.2868e-06
2.32378e-06
2.32217e-06
2.42159e-06
2.38954e-06
2.2684e-06
2.26705e-06
2.30328e-06
2.30177e-06
2.26794e-06
2.30236e-06
2.30138e-06
2.42583e-06
2.39333e-06
2.29195e-06
2.32974e-06
2.32584e-06
2.39008e-06
2.41975e-06
2.3975e-06
2.28432e-06
2.28284e-06
2.33252e-06
2.33086e-06
2.41787e-06
2.39538e-06
2.26401e-06
2.26258e-06
2.31166e-06
2.31003e-06
2.26017e-06
2.31056e-06
2.30897e-06
2.42159e-06
2.39887e-06
2.28795e-06
2.33816e-06
2.33671e-06
2.39625e-06
2.4141e-06
2.40474e-06
2.27702e-06
2.27564e-06
2.34358e-06
2.34186e-06
2.41206e-06
2.40239e-06
2.2564e-06
2.25489e-06
2.3225e-06
2.32067e-06
2.25477e-06
2.32119e-06
2.31988e-06
2.41575e-06
2.40587e-06
2.27861e-06
2.34906e-06
2.34423e-06
2.40184e-06
2.40597e-06
2.41473e-06
2.26614e-06
2.26487e-06
2.35849e-06
2.35657e-06
2.40432e-06
2.41222e-06
2.24538e-06
2.24368e-06
2.33735e-06
2.33523e-06
2.24094e-06
2.3357e-06
2.33374e-06
2.40742e-06
2.41558e-06
2.26891e-06
2.36382e-06
2.36215e-06
2.41224e-06
2.39587e-06
2.42729e-06
2.2511e-06
2.24996e-06
2.37888e-06
2.37665e-06
2.39419e-06
2.42423e-06
2.23026e-06
2.22835e-06
2.35779e-06
2.35541e-06
2.22769e-06
2.35579e-06
2.35486e-06
2.39706e-06
2.42799e-06
2.25242e-06
2.38414e-06
2.3792e-06
2.42263e-06
2.38261e-06
2.44166e-06
2.23067e-06
2.22975e-06
2.40605e-06
2.40343e-06
2.38149e-06
2.4381e-06
2.20975e-06
2.20766e-06
2.38521e-06
2.38252e-06
2.20525e-06
2.38263e-06
2.3812e-06
2.38363e-06
2.44224e-06
2.23335e-06
2.4113e-06
2.40975e-06
2.43831e-06
2.36644e-06
2.45574e-06
2.20328e-06
2.20276e-06
2.43986e-06
2.43673e-06
2.36589e-06
2.45121e-06
2.18224e-06
2.17988e-06
2.41938e-06
2.41636e-06
2.17977e-06
2.41593e-06
2.41744e-06
2.36733e-06
2.45595e-06
2.20478e-06
2.4451e-06
2.43994e-06
2.45032e-06
2.34915e-06
2.46505e-06
2.16797e-06
2.16795e-06
2.47322e-06
2.46937e-06
2.34999e-06
2.45883e-06
2.14656e-06
2.14386e-06
2.45327e-06
2.45022e-06
2.1433e-06
2.44803e-06
2.45029e-06
2.34949e-06
2.46488e-06
2.17086e-06
2.47848e-06
2.47742e-06
2.46166e-06
2.33478e-06
2.47101e-06
2.12512e-06
2.12566e-06
2.47428e-06
2.46947e-06
2.33765e-06
2.46205e-06
2.10283e-06
2.10022e-06
2.45574e-06
2.45314e-06
2.10169e-06
2.44741e-06
2.45517e-06
2.33435e-06
2.471e-06
2.12665e-06
2.47999e-06
2.475e-06
2.46717e-06
2.33296e-06
2.53626e-06
2.08031e-06
2.08171e-06
2.36377e-06
2.35784e-06
2.34001e-06
2.52161e-06
2.05644e-06
2.05389e-06
2.34844e-06
2.34706e-06
2.05501e-06
2.33516e-06
2.34579e-06
2.3318e-06
2.53703e-06
2.08355e-06
2.36899e-06
2.36716e-06
2.53493e-06
2.38086e-06
2.68358e-06
2.07757e-06
2.07904e-06
2.17962e-06
2.17395e-06
2.39482e-06
2.61302e-06
2.05666e-06
2.05523e-06
2.1798e-06
2.18878e-06
2.0577e-06
2.15558e-06
2.18847e-06
2.37795e-06
2.68688e-06
2.07742e-06
2.1746e-06
2.17153e-06
2.68428e-06
2.68686e-06
2.13272e-06
2.10213e-06
2.61309e-06
2.13254e-06
2.14131e-06
1.43199e-06
1.47478e-06
1.47524e-06
2.13859e-06
2.68438e-06
2.12856e-06
6.69057e-08
2.96705e-06
2.96616e-06
2.96495e-06
2.96207e-06
1.26254e-06
2.30657e-06
6.23208e-07
2.65858e-06
2.40323e-06
3.15871e-07
3.18011e-07
6.25628e-07
1.45871e-07
6.25194e-07
1.45693e-07
6.77545e-08
6.76978e-08
5.99836e-07
1.41653e-07
5.96574e-07
1.41442e-07
2.92799e-06
2.927e-06
2.92539e-06
2.96957e-06
2.96842e-06
2.96747e-06
2.97094e-06
1.2638e-06
6.21363e-07
2.59642e-06
2.29822e-06
1.26787e-06
6.23351e-07
2.63832e-06
6.65902e-08
6.65155e-08
1.31601e-06
2.65312e-06
6.3999e-07
2.32586e-06
1.31929e-06
2.69436e-06
6.40576e-07
3.16882e-07
3.23278e-07
2.38887e-06
3.16055e-07
3.22806e-07
6.24486e-07
1.4576e-07
6.24142e-07
1.45545e-07
6.77658e-08
6.77062e-08
6.00177e-07
1.41751e-07
5.97042e-07
1.41517e-07
2.91899e-06
2.91809e-06
2.92117e-06
2.97602e-06
2.97503e-06
2.97394e-06
2.9754e-06
1.26496e-06
6.21818e-07
2.58836e-06
2.30611e-06
1.26918e-06
6.23745e-07
2.64641e-06
6.66435e-08
6.65595e-08
1.31828e-06
2.64269e-06
6.39868e-07
2.33354e-06
1.32225e-06
2.70064e-06
6.40282e-07
3.16922e-07
3.23382e-07
2.39316e-06
3.1616e-07
3.22946e-07
6.23726e-07
1.45617e-07
6.23243e-07
1.45424e-07
6.77504e-08
6.76739e-08
6.00244e-07
1.41804e-07
5.97193e-07
1.41558e-07
2.90917e-06
2.90822e-06
2.91097e-06
2.9864e-06
2.98536e-06
2.98382e-06
2.99041e-06
1.26513e-06
6.21918e-07
2.57742e-06
2.31498e-06
1.2696e-06
6.2373e-07
2.65756e-06
6.66746e-08
6.65821e-08
1.31931e-06
2.63085e-06
6.39504e-07
2.34304e-06
1.32361e-06
2.71125e-06
6.39994e-07
3.16973e-07
3.23475e-07
2.39887e-06
3.16009e-07
3.22753e-07
6.23325e-07
1.45522e-07
6.22748e-07
1.45352e-07
6.77252e-08
6.76681e-08
6.00195e-07
1.41814e-07
5.97209e-07
1.41557e-07
2.89779e-06
2.89641e-06
2.90199e-06
3.00194e-06
3.00075e-06
2.99884e-06
3.00256e-06
1.26514e-06
6.21907e-07
2.56313e-06
2.32772e-06
1.26965e-06
6.23732e-07
2.67363e-06
6.66797e-08
6.65795e-08
1.31968e-06
2.61561e-06
6.39259e-07
2.35565e-06
1.32414e-06
2.72692e-06
6.39793e-07
3.16775e-07
3.23193e-07
2.40671e-06
3.15984e-07
3.22747e-07
6.23115e-07
1.45469e-07
6.22521e-07
1.45303e-07
6.77087e-08
6.76339e-08
6.00055e-07
1.41788e-07
5.97134e-07
1.41511e-07
2.88156e-06
2.88028e-06
2.88545e-06
3.0257e-06
3.02489e-06
3.02259e-06
3.02951e-06
1.26529e-06
6.21841e-07
2.54365e-06
2.34445e-06
1.26978e-06
6.23543e-07
2.69648e-06
6.666e-08
6.6553e-08
1.31999e-06
2.59574e-06
6.39181e-07
2.37304e-06
1.32463e-06
2.75006e-06
6.39664e-07
3.16748e-07
3.23272e-07
2.41713e-06
3.15741e-07
3.22555e-07
6.22922e-07
1.45415e-07
6.22371e-07
1.45252e-07
6.76732e-08
6.76168e-08
5.99798e-07
1.41706e-07
5.97005e-07
1.41422e-07
2.85883e-06
2.85774e-06
2.86323e-06
3.06533e-06
3.06547e-06
3.06233e-06
3.06515e-06
1.26559e-06
6.21723e-07
2.51755e-06
2.36818e-06
1.27027e-06
6.23364e-07
2.72998e-06
6.66175e-08
6.65115e-08
1.32024e-06
2.56836e-06
6.39053e-07
2.39664e-06
1.32523e-06
2.78368e-06
6.39454e-07
3.16451e-07
3.22955e-07
2.43057e-06
3.15608e-07
3.2249e-07
6.22645e-07
1.45362e-07
6.22248e-07
1.452e-07
6.76434e-08
6.75818e-08
5.9935e-07
1.41612e-07
5.96731e-07
1.4134e-07
2.82293e-06
2.82244e-06
2.8261e-06
3.13549e-06
3.13743e-06
3.13221e-06
3.1372e-06
1.26558e-06
6.21494e-07
2.4806e-06
2.39815e-06
1.27105e-06
6.22946e-07
2.77849e-06
6.65696e-08
6.64744e-08
1.32033e-06
2.5305e-06
6.38955e-07
2.42741e-06
1.32602e-06
2.83302e-06
6.39234e-07
3.16298e-07
3.22971e-07
2.44452e-06
3.15292e-07
3.22285e-07
6.22249e-07
1.45305e-07
6.22066e-07
1.45153e-07
6.76076e-08
6.75756e-08
5.98788e-07
1.41532e-07
5.96508e-07
1.41274e-07
2.76165e-06
2.76214e-06
2.76578e-06
3.26613e-06
3.27199e-06
3.26278e-06
3.26397e-06
1.26527e-06
6.2138e-07
2.42806e-06
2.43315e-06
1.27267e-06
6.22634e-07
2.84848e-06
6.65248e-08
6.64522e-08
1.32004e-06
2.4758e-06
6.38869e-07
2.46281e-06
1.32778e-06
2.90475e-06
6.38891e-07
3.1604e-07
3.22718e-07
2.45778e-06
3.15195e-07
3.22268e-07
6.2192e-07
1.45272e-07
6.2183e-07
1.45147e-07
6.75904e-08
6.75834e-08
5.98298e-07
1.41484e-07
5.96443e-07
1.41253e-07
2.65008e-06
2.65352e-06
2.6549e-06
3.50258e-06
3.51764e-06
3.49883e-06
3.50292e-06
1.26556e-06
6.21363e-07
2.35023e-06
2.45534e-06
1.2766e-06
6.21852e-07
2.94255e-06
6.64908e-08
6.64502e-08
1.32014e-06
2.39541e-06
6.38899e-07
2.487e-06
1.33187e-06
3.00211e-06
6.38241e-07
3.15887e-07
3.22735e-07
2.46284e-06
3.15052e-07
3.22179e-07
6.23674e-07
1.4534e-07
6.21651e-07
1.45396e-07
6.75886e-08
6.78216e-08
5.98275e-07
1.41515e-07
5.96917e-07
1.41452e-07
2.43268e-06
2.44074e-06
2.44262e-06
3.51126e-06
3.53464e-06
3.50654e-06
3.50895e-06
1.27131e-06
6.2186e-07
2.22731e-06
2.40772e-06
1.28749e-06
6.20768e-07
3.02391e-06
6.65057e-08
6.66791e-08
1.32656e-06
2.26587e-06
6.39169e-07
2.44233e-06
1.34305e-06
3.08883e-06
6.37386e-07
3.15568e-07
3.22429e-07
2.47963e-06
3.15275e-07
3.22712e-07
6.10356e-07
1.45658e-07
6.19858e-07
1.44635e-07
6.83051e-08
7.02085e-08
6.04868e-07
1.43783e-07
6.09535e-07
1.4393e-07
2.01375e-06
2.0268e-06
2.02745e-06
2.0464e-06
2.03485e-06
2.04568e-06
2.04528e-06
1.3337e-06
6.32399e-07
2.0349e-06
2.24464e-06
1.33724e-06
6.21215e-07
2.83263e-06
6.75858e-08
6.99101e-08
1.35111e-06
2.04495e-06
6.4479e-07
2.26855e-06
1.37602e-06
2.87596e-06
6.25507e-07
3.18406e-07
3.24158e-07
2.58897e-06
3.16842e-07
3.19228e-07
6.754e-07
4.96715e-09
4.05186e-07
7.1555e-08
3.08251e-09
4.80162e-08
6.69134e-07
4.94068e-09
4.01133e-07
7.13733e-08
5.01792e-07
9.53299e-07
9.53082e-07
1.33566e-06
6.06742e-07
8.41132e-07
8.42562e-07
1.56957e-06
2.38006e-07
2.19453e-06
1.81097e-06
1.29992e-06
3.00459e-07
1.37669e-06
3.07038e-09
4.77276e-08
1.58098e-06
2.18888e-06
2.39888e-07
1.78807e-06
1.31097e-06
1.38164e-06
3.0173e-07
1.22651e-07
1.23504e-07
1.83932e-06
1.47944e-07
1.48985e-07
6.77375e-08
6.71607e-08
6.65315e-08
6.66162e-08
2.42601e-06
3.22901e-07
3.15367e-07
3.2099e-07
3.1606e-07
1.42671e-07
2.29485e-06
6.27725e-07
6.0938e-07
1.4572e-07
1.43279e-07
6.25878e-07
6.0932e-07
1.45638e-07
1.43191e-07
6.25773e-07
1.29358e-06
2.27387e-06
6.39924e-07
2.68412e-06
6.30597e-07
2.60716e-06
1.31312e-06
1.29341e-06
2.27225e-06
6.39437e-07
2.68374e-06
6.30062e-07
2.60711e-06
1.31292e-06
2.40082e-06
3.17651e-07
3.15499e-07
6.64725e-08
6.76987e-08
6.71167e-08
2.42336e-06
3.22307e-07
3.15654e-07
3.20369e-07
3.16307e-07
6.64908e-08
6.65711e-08
5.96431e-07
1.41374e-07
1.41569e-07
5.99579e-07
1.26753e-06
2.26991e-06
6.23325e-07
2.6368e-06
6.21418e-07
2.60093e-06
1.26336e-06
5.96285e-07
1.41259e-07
1.41454e-07
5.99433e-07
1.2677e-06
2.26859e-06
2.63771e-06
6.23045e-07
2.6021e-06
6.21201e-07
1.26351e-06
5.99403e-07
1.41231e-07
1.26287e-06
2.30484e-06
2.65733e-06
6.23401e-07
5.99325e-07
1.41214e-07
1.26713e-06
2.26919e-06
6.23224e-07
2.63606e-06
6.21237e-07
2.60023e-06
1.26314e-06
5.96284e-07
1.41303e-07
1.4149e-07
5.99466e-07
1.26749e-06
2.26742e-06
2.63721e-06
6.23398e-07
2.60104e-06
6.21443e-07
1.26344e-06
5.96218e-07
1.41286e-07
1.41474e-07
5.9939e-07
6.64865e-08
6.6563e-08
2.42823e-06
3.15338e-07
3.22912e-07
3.16026e-07
3.2097e-07
6.78054e-08
6.72354e-08
1.29556e-06
2.28006e-06
2.69554e-06
6.40621e-07
2.61738e-06
6.31144e-07
1.31509e-06
1.29556e-06
2.28054e-06
2.69532e-06
6.4043e-07
2.61762e-06
6.31083e-07
1.31504e-06
6.10195e-07
1.45944e-07
1.43484e-07
6.26664e-07
6.10171e-07
1.45934e-07
1.43472e-07
6.26635e-07
6.64885e-08
6.70174e-08
2.42804e-06
3.16019e-07
3.22637e-07
3.16671e-07
3.20722e-07
6.65116e-08
6.65895e-08
6.78147e-08
6.72358e-08
6.77939e-08
6.775e-08
6.66314e-08
6.65594e-08
3.23606e-07
3.16199e-07
2.3892e-06
3.2327e-07
3.15511e-07
6.77574e-08
6.78083e-08
6.65815e-08
6.66593e-08
2.42174e-06
3.23392e-07
3.15574e-07
3.23903e-07
3.16341e-07
6.25553e-07
1.45784e-07
6.25117e-07
1.45612e-07
1.31405e-06
6.39308e-07
2.64161e-06
2.31975e-06
1.31719e-06
6.39832e-07
2.6833e-06
1.31385e-06
6.38814e-07
2.64125e-06
2.31832e-06
1.31704e-06
6.39435e-07
2.68299e-06
6.24723e-07
1.4563e-07
1.45828e-07
6.25009e-07
6.24679e-07
1.4555e-07
1.45746e-07
6.2494e-07
1.31908e-06
2.28693e-06
6.39772e-07
2.68644e-06
6.39202e-07
2.63666e-06
1.31533e-06
1.31893e-06
2.28548e-06
6.39295e-07
2.68615e-06
6.38728e-07
2.63638e-06
1.31514e-06
3.22958e-07
3.16464e-07
2.38644e-06
3.22628e-07
3.15628e-07
6.65933e-08
6.65302e-08
6.77107e-08
6.7759e-08
2.41986e-06
3.227e-07
3.15808e-07
3.23168e-07
3.16524e-07
6.65427e-08
6.66254e-08
1.2641e-06
6.21462e-07
2.59701e-06
2.29941e-06
1.26806e-06
6.23554e-07
2.6394e-06
5.99699e-07
1.41532e-07
5.96411e-07
1.41328e-07
1.26426e-06
2.59785e-06
6.21204e-07
2.29785e-06
1.26824e-06
2.64001e-06
6.2327e-07
5.9682e-07
1.41489e-07
1.41707e-07
6.00058e-07
1.2688e-06
2.26672e-06
6.23791e-07
2.64348e-06
6.21721e-07
2.59358e-06
1.26478e-06
5.96689e-07
1.41377e-07
1.41593e-07
5.99924e-07
1.269e-06
2.26556e-06
2.64368e-06
6.23504e-07
2.59409e-06
6.21498e-07
1.26496e-06
5.99709e-07
1.41575e-07
5.96425e-07
1.41373e-07
1.2641e-06
2.5967e-06
6.21495e-07
2.29834e-06
1.26816e-06
2.63931e-06
6.2351e-07
5.99636e-07
1.41559e-07
5.96365e-07
1.41354e-07
1.26846e-06
2.26585e-06
6.2367e-07
2.64231e-06
6.2156e-07
2.59231e-06
1.26449e-06
5.96694e-07
1.41416e-07
1.41637e-07
5.99965e-07
1.26881e-06
2.26525e-06
2.64296e-06
6.23862e-07
2.59301e-06
6.21729e-07
1.26478e-06
5.96634e-07
1.41399e-07
1.41618e-07
5.99893e-07
3.16179e-07
3.23593e-07
2.39142e-06
3.15553e-07
3.23373e-07
6.7862e-08
6.78249e-08
6.6542e-08
6.661e-08
2.42375e-06
3.1557e-07
3.23371e-07
3.16348e-07
3.23859e-07
6.78283e-08
6.78863e-08
1.31598e-06
2.65258e-06
6.39906e-07
2.32346e-06
1.31915e-06
2.69473e-06
6.40501e-07
6.26505e-07
1.46094e-07
6.25975e-07
1.45931e-07
6.26469e-07
1.46089e-07
6.25976e-07
1.4593e-07
1.32104e-06
2.29295e-06
2.69741e-06
6.40549e-07
2.64765e-06
6.39883e-07
1.31738e-06
1.32104e-06
2.28903e-06
2.69797e-06
6.40384e-07
2.64769e-06
6.39883e-07
1.31729e-06
6.25591e-07
1.45874e-07
1.46068e-07
6.25938e-07
6.25593e-07
1.45878e-07
1.46072e-07
6.25909e-07
6.66198e-08
6.6572e-08
6.78699e-08
6.78002e-08
2.42325e-06
3.16131e-07
3.22778e-07
3.16962e-07
3.23302e-07
6.65869e-08
6.66671e-08
6.78046e-08
6.7863e-08
6.78105e-08
6.77508e-08
6.66787e-08
6.65986e-08
3.23964e-07
3.16364e-07
2.39446e-06
3.23354e-07
3.15565e-07
6.77433e-08
6.7803e-08
6.6614e-08
6.66961e-08
2.41725e-06
3.23319e-07
3.15585e-07
3.23922e-07
3.16371e-07
6.24423e-07
1.45675e-07
6.24081e-07
1.45462e-07
1.31623e-06
6.39122e-07
2.63136e-06
2.32782e-06
1.32021e-06
6.39539e-07
2.68982e-06
1.31605e-06
6.38626e-07
2.63107e-06
2.32616e-06
1.32007e-06
6.39034e-07
2.68955e-06
6.23617e-07
1.45482e-07
1.45674e-07
6.24053e-07
6.23584e-07
1.45398e-07
1.4559e-07
6.23994e-07
1.32095e-06
2.28126e-06
6.3941e-07
2.69479e-06
6.38871e-07
2.62607e-06
1.31689e-06
1.32083e-06
2.27981e-06
6.389e-07
2.69454e-06
6.38362e-07
2.62584e-06
1.31672e-06
3.23284e-07
3.16599e-07
2.39223e-06
3.22696e-07
3.15823e-07
6.66401e-08
6.65574e-08
6.76999e-08
6.7758e-08
2.41531e-06
3.22688e-07
3.15867e-07
3.23269e-07
3.1662e-07
6.65704e-08
6.66541e-08
1.26522e-06
6.21922e-07
2.58909e-06
2.30716e-06
1.26942e-06
6.23872e-07
2.6476e-06
6.00049e-07
1.41636e-07
5.9689e-07
1.41403e-07
1.26542e-06
2.58924e-06
6.21664e-07
2.30545e-06
1.26963e-06
2.64751e-06
6.23607e-07
5.97123e-07
1.41545e-07
1.41775e-07
6.00228e-07
1.26977e-06
2.26078e-06
6.23953e-07
2.65309e-06
6.21991e-07
2.58436e-06
1.26537e-06
5.97001e-07
1.4143e-07
1.41662e-07
6.00094e-07
1.27e-06
2.25951e-06
2.6527e-06
6.23665e-07
2.58429e-06
6.21786e-07
1.26557e-06
6.00062e-07
1.41674e-07
5.96918e-07
1.41439e-07
1.26529e-06
2.58832e-06
6.22009e-07
2.30397e-06
1.26947e-06
2.6468e-06
6.23968e-07
5.99992e-07
1.41658e-07
5.9686e-07
1.41427e-07
1.26948e-06
2.25984e-06
6.23796e-07
2.65182e-06
6.21833e-07
2.58302e-06
1.26507e-06
5.96998e-07
1.41461e-07
1.41696e-07
6.00116e-07
1.26987e-06
2.25724e-06
2.65195e-06
6.24008e-07
2.58314e-06
6.22068e-07
1.26541e-06
5.96941e-07
1.41452e-07
1.41685e-07
6.00042e-07
3.16366e-07
3.23921e-07
2.39632e-06
3.15633e-07
3.23422e-07
6.78807e-08
6.78265e-08
6.65761e-08
6.6651e-08
2.41897e-06
3.15594e-07
3.23269e-07
3.16395e-07
3.23846e-07
6.78119e-08
6.78819e-08
1.31824e-06
2.64262e-06
6.39714e-07
2.33162e-06
1.32222e-06
2.70135e-06
6.40071e-07
6.25472e-07
1.46e-07
6.25042e-07
1.45788e-07
6.25447e-07
1.46005e-07
6.25052e-07
1.45782e-07
1.32295e-06
2.28698e-06
2.70565e-06
6.40148e-07
2.6367e-06
6.39545e-07
1.31884e-06
1.32298e-06
2.28526e-06
2.70632e-06
6.39926e-07
2.63718e-06
6.39429e-07
1.31893e-06
6.24601e-07
1.4572e-07
1.45916e-07
6.25087e-07
6.24614e-07
1.4571e-07
1.45911e-07
6.25075e-07
6.66778e-08
6.65854e-08
6.78642e-08
6.78152e-08
2.41759e-06
3.16163e-07
3.23026e-07
3.1693e-07
3.23529e-07
6.65891e-08
6.66795e-08
6.782e-08
6.78739e-08
6.77942e-08
6.77332e-08
6.67091e-08
6.66226e-08
3.23875e-07
3.16376e-07
2.40082e-06
3.23267e-07
3.15576e-07
6.77243e-08
6.77843e-08
6.66261e-08
6.67164e-08
2.4103e-06
3.23236e-07
3.15562e-07
3.23837e-07
3.16375e-07
6.23669e-07
1.45529e-07
6.2319e-07
1.45338e-07
1.31713e-06
6.38792e-07
2.61967e-06
2.33755e-06
1.32133e-06
6.39299e-07
2.7003e-06
1.31695e-06
6.38281e-07
2.61946e-06
2.33604e-06
1.32122e-06
6.3886e-07
2.70008e-06
6.22929e-07
1.45382e-07
1.45559e-07
6.23491e-07
6.22899e-07
1.45294e-07
1.45471e-07
6.23428e-07
1.32166e-06
2.27223e-06
6.39189e-07
2.70764e-06
6.38669e-07
2.61302e-06
1.31724e-06
1.32154e-06
2.27094e-06
6.38667e-07
2.7074e-06
6.38159e-07
2.61284e-06
1.31707e-06
3.23196e-07
3.16631e-07
2.39782e-06
3.22576e-07
3.15679e-07
6.66679e-08
6.65888e-08
6.76721e-08
6.77281e-08
2.40858e-06
3.22511e-07
3.15773e-07
3.2307e-07
3.16542e-07
6.65809e-08
6.66774e-08
1.26545e-06
6.2208e-07
2.57837e-06
2.31656e-06
1.26987e-06
6.2398e-07
2.65903e-06
6.00104e-07
1.41686e-07
5.97035e-07
1.4144e-07
1.26563e-06
2.57805e-06
6.21808e-07
2.31472e-06
1.2701e-06
2.6584e-06
6.23684e-07
5.9719e-07
1.41561e-07
1.4181e-07
6.00238e-07
1.26995e-06
2.25151e-06
6.23965e-07
2.66669e-06
6.22092e-07
2.57199e-06
1.26549e-06
5.97058e-07
1.4144e-07
1.41692e-07
6.00102e-07
1.27014e-06
2.25012e-06
2.66582e-06
6.2365e-07
2.57152e-06
6.21854e-07
1.26567e-06
6.00128e-07
1.41716e-07
5.97053e-07
1.41471e-07
1.26546e-06
2.57682e-06
6.22082e-07
2.3145e-06
1.26992e-06
2.65759e-06
6.23892e-07
6.00057e-07
1.41708e-07
5.96995e-07
1.41457e-07
1.2696e-06
2.2505e-06
6.23776e-07
2.66519e-06
6.21887e-07
2.5705e-06
1.26514e-06
5.97063e-07
1.4147e-07
1.41722e-07
6.001e-07
1.26997e-06
2.24907e-06
2.66505e-06
6.23926e-07
2.57047e-06
6.22041e-07
1.26545e-06
5.97005e-07
1.41448e-07
1.41706e-07
6.00029e-07
3.16385e-07
3.23812e-07
2.40246e-06
3.15639e-07
3.23302e-07
6.78617e-08
6.78031e-08
6.65855e-08
6.66694e-08
2.41185e-06
3.15557e-07
3.23144e-07
3.16387e-07
3.23724e-07
6.77864e-08
6.78566e-08
1.31922e-06
2.63065e-06
6.39389e-07
2.33931e-06
1.3234e-06
2.71204e-06
6.39874e-07
6.2482e-07
1.45851e-07
6.24253e-07
1.45656e-07
6.24801e-07
1.45843e-07
6.24274e-07
1.45647e-07
1.3238e-06
2.27782e-06
2.71866e-06
6.39875e-07
2.62345e-06
6.39289e-07
1.31939e-06
1.32391e-06
2.27294e-06
2.71951e-06
6.39658e-07
2.62388e-06
6.39246e-07
1.31943e-06
6.2402e-07
1.45606e-07
1.45788e-07
6.24606e-07
6.24036e-07
1.45594e-07
1.45782e-07
6.24589e-07
6.66897e-08
6.66182e-08
6.78697e-08
6.77797e-08
2.41072e-06
3.15991e-07
3.22606e-07
3.16895e-07
3.23219e-07
6.6608e-08
6.67057e-08
6.77654e-08
6.7835e-08
6.77744e-08
6.77149e-08
6.67175e-08
6.66248e-08
3.23793e-07
3.16344e-07
2.40938e-06
3.23196e-07
3.15528e-07
6.77039e-08
6.77645e-08
6.66175e-08
6.67147e-08
2.40135e-06
3.2316e-07
3.15501e-07
3.23769e-07
3.16325e-07
6.23262e-07
1.45431e-07
6.2269e-07
1.45265e-07
1.31736e-06
6.38591e-07
2.60485e-06
2.35032e-06
1.32174e-06
6.39133e-07
2.71587e-06
1.31717e-06
6.38058e-07
2.60465e-06
2.34851e-06
1.32163e-06
6.386e-07
2.71561e-06
6.2259e-07
1.45328e-07
1.45491e-07
6.23206e-07
6.22554e-07
1.45243e-07
1.45404e-07
6.2314e-07
1.32199e-06
2.25938e-06
6.39089e-07
2.7264e-06
6.38554e-07
2.59601e-06
1.31749e-06
1.32185e-06
2.25815e-06
6.38567e-07
2.72612e-06
6.38022e-07
2.59585e-06
1.3173e-06
3.23087e-07
3.16557e-07
2.40687e-06
3.22521e-07
3.15764e-07
6.66724e-08
6.65778e-08
6.76609e-08
6.77182e-08
2.39968e-06
3.22524e-07
3.15767e-07
3.23101e-07
3.16552e-07
6.65703e-08
6.66674e-08
1.26553e-06
6.22089e-07
2.56404e-06
2.32921e-06
1.26997e-06
6.2394e-07
2.6752e-06
6.00054e-07
1.41689e-07
5.97051e-07
1.41429e-07
1.2657e-06
2.56341e-06
6.21788e-07
2.32711e-06
1.27018e-06
2.67416e-06
6.2361e-07
5.97155e-07
1.41542e-07
1.41804e-07
6.00139e-07
1.27004e-06
2.23856e-06
6.23897e-07
2.68597e-06
6.22075e-07
2.55534e-06
1.26558e-06
5.97017e-07
1.41411e-07
1.41675e-07
5.99995e-07
1.27023e-06
2.23695e-06
2.68473e-06
6.23529e-07
2.55467e-06
6.218e-07
1.26574e-06
6.00054e-07
1.41719e-07
5.97039e-07
1.41465e-07
1.26549e-06
2.56254e-06
6.22048e-07
2.32513e-06
1.26996e-06
2.67329e-06
6.2389e-07
5.99982e-07
1.41696e-07
5.96981e-07
1.41441e-07
1.26963e-06
2.2376e-06
6.23695e-07
2.68432e-06
6.21847e-07
2.55386e-06
1.2652e-06
5.97007e-07
1.41449e-07
1.41711e-07
5.99993e-07
1.27003e-06
2.23437e-06
2.68377e-06
6.23799e-07
2.55357e-06
6.22005e-07
1.26554e-06
5.96949e-07
1.41422e-07
1.41686e-07
5.99921e-07
3.16338e-07
3.23687e-07
2.41075e-06
3.15571e-07
3.23199e-07
6.78358e-08
6.778e-08
6.65707e-08
6.66624e-08
2.4027e-06
3.15464e-07
3.23047e-07
3.16312e-07
3.23623e-07
6.77618e-08
6.78323e-08
1.31957e-06
2.61571e-06
6.39048e-07
2.35322e-06
1.32395e-06
2.72777e-06
6.39517e-07
6.24465e-07
1.45743e-07
6.23832e-07
1.45573e-07
6.2444e-07
1.4573e-07
6.2385e-07
1.45547e-07
1.32425e-06
2.26486e-06
2.73771e-06
6.39755e-07
2.60602e-06
6.39145e-07
1.31976e-06
1.32422e-06
2.26284e-06
2.73851e-06
6.3945e-07
2.60668e-06
6.38962e-07
1.31971e-06
6.23721e-07
1.45541e-07
1.4571e-07
6.24344e-07
6.2373e-07
1.45512e-07
1.45686e-07
6.24323e-07
6.66927e-08
6.65873e-08
6.78212e-08
6.77697e-08
2.40063e-06
3.15952e-07
3.22829e-07
3.16747e-07
3.23332e-07
6.65697e-08
6.66741e-08
6.77703e-08
6.78253e-08
6.77514e-08
6.76914e-08
6.67036e-08
6.66018e-08
3.23715e-07
3.1628e-07
2.42065e-06
3.23106e-07
3.15437e-07
6.76776e-08
6.77377e-08
6.65805e-08
6.66851e-08
2.38959e-06
3.23056e-07
3.15354e-07
3.23678e-07
3.16224e-07
6.23049e-07
1.45382e-07
6.2246e-07
1.45219e-07
1.31766e-06
6.38533e-07
2.58521e-06
2.36777e-06
1.32217e-06
6.39052e-07
2.73857e-06
1.31747e-06
6.38015e-07
2.58504e-06
2.36591e-06
1.32204e-06
6.38615e-07
2.73826e-06
6.22428e-07
1.45277e-07
1.45441e-07
6.23009e-07
6.22389e-07
1.4519e-07
1.45355e-07
6.22939e-07
1.32252e-06
2.24183e-06
6.38997e-07
2.75383e-06
6.38519e-07
2.57325e-06
1.31784e-06
1.32238e-06
2.24082e-06
6.38481e-07
2.75349e-06
6.38011e-07
2.57312e-06
1.31765e-06
3.2303e-07
3.1652e-07
2.41722e-06
3.22425e-07
3.15532e-07
6.6659e-08
6.65663e-08
6.76268e-08
6.76832e-08
2.3883e-06
3.22342e-07
3.15572e-07
3.22917e-07
3.16386e-07
6.65373e-08
6.66453e-08
1.26568e-06
6.22048e-07
2.5447e-06
2.34666e-06
1.27011e-06
6.23829e-07
2.6983e-06
5.99906e-07
1.41653e-07
5.96967e-07
1.41378e-07
1.26581e-06
2.54394e-06
6.2169e-07
2.34428e-06
1.2703e-06
2.69689e-06
6.23444e-07
5.97053e-07
1.41469e-07
1.41749e-07
5.99957e-07
1.27031e-06
2.22094e-06
6.23727e-07
2.71377e-06
6.21999e-07
2.5328e-06
1.26584e-06
5.96908e-07
1.41337e-07
1.41615e-07
5.99809e-07
1.27046e-06
2.21914e-06
2.71217e-06
6.23326e-07
2.53205e-06
6.21675e-07
1.26596e-06
5.99908e-07
1.41691e-07
5.96957e-07
1.41419e-07
1.26559e-06
2.5427e-06
6.21897e-07
2.34397e-06
1.27009e-06
2.69589e-06
6.23592e-07
5.99835e-07
1.41663e-07
5.969e-07
1.41385e-07
1.26991e-06
2.2201e-06
6.23517e-07
2.71198e-06
6.21761e-07
2.53133e-06
1.26545e-06
5.96904e-07
1.4138e-07
1.41657e-07
5.99814e-07
1.27026e-06
2.2183e-06
2.71128e-06
6.23572e-07
2.53109e-06
6.21807e-07
1.26574e-06
5.96842e-07
1.41335e-07
1.41619e-07
5.99742e-07
3.16239e-07
3.23586e-07
2.42191e-06
3.15454e-07
3.23081e-07
6.78081e-08
6.77496e-08
6.65335e-08
6.66305e-08
2.39078e-06
3.15307e-07
3.22906e-07
3.16185e-07
3.23502e-07
6.77263e-08
6.77976e-08
1.31987e-06
2.59564e-06
6.39005e-07
2.36917e-06
1.32439e-06
2.7509e-06
6.39459e-07
6.24236e-07
1.45678e-07
6.2362e-07
1.45507e-07
6.24204e-07
1.45651e-07
6.2363e-07
1.45481e-07
1.32481e-06
2.24728e-06
2.76564e-06
6.39577e-07
2.58287e-06
6.39055e-07
1.32008e-06
1.32476e-06
2.24246e-06
2.76639e-06
6.39294e-07
2.58329e-06
6.38944e-07
1.31999e-06
6.23533e-07
1.45469e-07
1.4564e-07
6.24099e-07
6.23534e-07
1.45444e-07
1.45618e-07
6.2407e-07
6.66615e-08
6.65751e-08
6.78163e-08
6.77275e-08
2.38868e-06
3.15674e-07
3.22371e-07
3.16624e-07
3.23014e-07
6.65436e-08
6.6654e-08
6.77052e-08
6.77769e-08
6.7721e-08
6.76634e-08
6.66601e-08
6.6558e-08
3.23608e-07
3.16119e-07
2.43434e-06
3.22983e-07
3.1524e-07
6.76502e-08
6.77048e-08
6.65401e-08
6.66359e-08
2.37484e-06
3.22926e-07
3.15157e-07
3.23557e-07
3.16025e-07
6.22849e-07
1.45324e-07
6.22305e-07
1.45164e-07
1.31802e-06
6.38489e-07
2.55867e-06
2.39142e-06
1.32275e-06
6.38922e-07
2.77156e-06
1.31781e-06
6.37963e-07
2.55856e-06
2.38901e-06
1.32261e-06
6.38398e-07
2.77118e-06
6.22299e-07
1.45228e-07
1.45387e-07
6.22805e-07
6.22254e-07
1.45139e-07
1.45298e-07
6.22729e-07
1.3232e-06
2.21808e-06
6.38848e-07
2.79379e-06
6.38455e-07
2.54188e-06
1.31812e-06
1.32304e-06
2.21735e-06
6.38328e-07
2.79335e-06
6.37933e-07
2.54184e-06
1.31792e-06
3.22913e-07
3.16344e-07
2.43103e-06
3.22316e-07
3.155e-07
6.66177e-08
6.6515e-08
6.76059e-08
6.76582e-08
2.37403e-06
3.22292e-07
3.15445e-07
3.2289e-07
3.16275e-07
6.6496e-08
6.65925e-08
1.26597e-06
6.21919e-07
2.51832e-06
2.37046e-06
1.27059e-06
6.2356e-07
2.7318e-06
5.9965e-07
1.41571e-07
5.96835e-07
1.41289e-07
1.26607e-06
2.51753e-06
6.21534e-07
2.36776e-06
1.27074e-06
2.73003e-06
6.23177e-07
5.96858e-07
1.41378e-07
1.41653e-07
5.99577e-07
1.27092e-06
2.19713e-06
6.23381e-07
2.75417e-06
6.21786e-07
2.50168e-06
1.26597e-06
5.96714e-07
1.41245e-07
1.41521e-07
5.99434e-07
1.27104e-06
2.19508e-06
2.75221e-06
6.23013e-07
2.50096e-06
6.21472e-07
1.26606e-06
5.99658e-07
1.41613e-07
5.96834e-07
1.41334e-07
1.2659e-06
2.51687e-06
6.21768e-07
2.36598e-06
1.27055e-06
2.7291e-06
6.23409e-07
5.99583e-07
1.41567e-07
5.96775e-07
1.4128e-07
1.27056e-06
2.19676e-06
6.23202e-07
2.75227e-06
6.21574e-07
2.50047e-06
1.26561e-06
5.96719e-07
1.41288e-07
1.41565e-07
5.99449e-07
1.27091e-06
2.19281e-06
2.75116e-06
6.23182e-07
2.50016e-06
6.21613e-07
1.2659e-06
5.96656e-07
1.41227e-07
1.4151e-07
5.99368e-07
3.16077e-07
3.23436e-07
2.43544e-06
3.15277e-07
3.22929e-07
6.77684e-08
6.77131e-08
6.64923e-08
6.65835e-08
2.37576e-06
3.15122e-07
3.22751e-07
3.15999e-07
3.23348e-07
6.76919e-08
6.77565e-08
1.32008e-06
2.56837e-06
6.38779e-07
2.39414e-06
1.32497e-06
2.7845e-06
6.39128e-07
6.23994e-07
1.45603e-07
6.23428e-07
1.45438e-07
6.23957e-07
1.45578e-07
6.23433e-07
1.45405e-07
1.32542e-06
2.22344e-06
2.80633e-06
6.39366e-07
2.55068e-06
6.38935e-07
1.32024e-06
1.32532e-06
2.22146e-06
2.80713e-06
6.39039e-07
2.55128e-06
6.38695e-07
1.32012e-06
6.23357e-07
1.45405e-07
1.4557e-07
6.2383e-07
6.23355e-07
1.45379e-07
1.45541e-07
6.23799e-07
6.66177e-08
6.65031e-08
6.7755e-08
6.7707e-08
2.37315e-06
3.15526e-07
3.22548e-07
3.1636e-07
3.23067e-07
6.64737e-08
6.65779e-08
6.77073e-08
6.77547e-08
6.7687e-08
6.7638e-08
6.66139e-08
6.65256e-08
3.23481e-07
3.15934e-07
2.44889e-06
3.22852e-07
3.15076e-07
6.76287e-08
6.76714e-08
6.65134e-08
6.65943e-08
2.35767e-06
3.22799e-07
3.1501e-07
3.23436e-07
3.15879e-07
6.22565e-07
1.4527e-07
6.22174e-07
1.45113e-07
1.3182e-06
6.38438e-07
2.52143e-06
2.42219e-06
1.32364e-06
6.38753e-07
2.82018e-06
1.31798e-06
6.37916e-07
2.52143e-06
2.41958e-06
1.3235e-06
6.38304e-07
2.81969e-06
6.22139e-07
1.45174e-07
1.4533e-07
6.22456e-07
6.22087e-07
1.45086e-07
1.45241e-07
6.22375e-07
1.3245e-06
2.18676e-06
6.38625e-07
2.85289e-06
6.38419e-07
2.49754e-06
1.31814e-06
1.32434e-06
2.18655e-06
6.38115e-07
2.85228e-06
6.3791e-07
2.49761e-06
1.31792e-06
3.22782e-07
3.1619e-07
2.44443e-06
3.22193e-07
3.15189e-07
6.65721e-08
6.64924e-08
6.75784e-08
6.76172e-08
2.35808e-06
3.22087e-07
3.15237e-07
3.2268e-07
3.16054e-07
6.64707e-08
6.65569e-08
1.26597e-06
6.21677e-07
2.48132e-06
2.4015e-06
1.27127e-06
6.23227e-07
2.78052e-06
5.99202e-07
1.41474e-07
5.96564e-07
1.41199e-07
1.26602e-06
2.4806e-06
6.21325e-07
2.39846e-06
1.27137e-06
2.77838e-06
6.22848e-07
5.96594e-07
1.41304e-07
1.41569e-07
5.99096e-07
1.27194e-06
2.1656e-06
6.23071e-07
2.81286e-06
6.21614e-07
2.45752e-06
1.26587e-06
5.96445e-07
1.41162e-07
1.41427e-07
5.98948e-07
1.27199e-06
2.1633e-06
2.81058e-06
6.22667e-07
2.45691e-06
6.21279e-07
1.26589e-06
5.99203e-07
1.41518e-07
5.96577e-07
1.41248e-07
1.2658e-06
2.47973e-06
6.2142e-07
2.39901e-06
1.27125e-06
2.77738e-06
6.22869e-07
5.99118e-07
1.41456e-07
5.96509e-07
1.41179e-07
1.27159e-06
2.16591e-06
6.22866e-07
2.8109e-06
6.21375e-07
2.45646e-06
1.26542e-06
5.9644e-07
1.41212e-07
1.41477e-07
5.98923e-07
1.27185e-06
2.16382e-06
2.80984e-06
6.22793e-07
2.45642e-06
6.2129e-07
1.26562e-06
5.96368e-07
1.41131e-07
1.41404e-07
5.98841e-07
3.15897e-07
3.23278e-07
2.44992e-06
3.15105e-07
3.22787e-07
6.77271e-08
6.76809e-08
6.64607e-08
6.65368e-08
2.3586e-06
3.1495e-07
3.22598e-07
3.15818e-07
3.23201e-07
6.76647e-08
6.77155e-08
1.32018e-06
2.53025e-06
6.38733e-07
2.4234e-06
1.3257e-06
2.83341e-06
6.39054e-07
6.23666e-07
1.45536e-07
6.2324e-07
1.45374e-07
6.23625e-07
1.45514e-07
6.23241e-07
1.45357e-07
1.32658e-06
2.19209e-06
2.86602e-06
6.39096e-07
2.50542e-06
6.38861e-07
1.32022e-06
1.32649e-06
2.18762e-06
2.86608e-06
6.3885e-07
2.50544e-06
6.38723e-07
1.3201e-06
6.23149e-07
1.4534e-07
1.455e-07
6.23439e-07
6.23142e-07
1.45333e-07
1.45491e-07
6.23402e-07
6.65521e-08
6.64766e-08
6.77423e-08
6.76669e-08
2.35663e-06
3.15238e-07
3.22121e-07
3.16164e-07
3.2273e-07
6.64507e-08
6.65405e-08
6.76551e-08
6.77037e-08
6.76576e-08
6.76214e-08
6.6573e-08
6.65063e-08
3.23365e-07
3.15796e-07
2.46124e-06
3.22744e-07
3.14937e-07
6.76161e-08
6.76451e-08
6.65077e-08
6.65559e-08
2.34122e-06
3.22715e-07
3.14923e-07
3.23318e-07