/*--------------------------------*- C++ -*----------------------------------*\
| =========                 |                                                 |
| \\      /  F ield         | OpenFOAM: The Open Source CFD Toolbox           |
|  \\    /   O peration     | Version:  2206                                  |
|   \\  /    A nd           | Website:  www.openfoam.com                      |
|    \\/     M anipulation  |                                                 |
\*---------------------------------------------------------------------------*/
FoamFile
{
    version     2.0;
    format      ascii;
    arch        "LSB;label=32;scalar=64";
    class       volScalarField;
    location    "1";
    object      omega;
}
// * * * * * * * * * * * * * * * * * * * * * * * * * * * * * * * * * * * * * //

dimensions      [0 0 -1 0 0 0 0];

internalField   nonuniform List<scalar> 
66940
(
23.464
37.0009
36.3215
46.1099
23.48
37.0802
36.3629
46.3091
23.4875
37.1561
36.4223
46.3521
23.4825
37.1781
36.4376
46.4914
23.484
37.1859
36.4415
46.3875
23.4849
37.1897
36.4462
46.5013
23.4894
37.202
36.4591
46.3776
23.5044
37.2262
36.487
46.5157
23.5525
37.2942
36.562
46.4466
23.6924
37.4911
36.7744
46.7121
24.1234
37.9124
37.5052
46.5813
27.3097
41.7479
41.0575
53.5046
46.1651
36.3505
36.3387
46.1559
36.9632
36.9929
36.9632
36.9649
46.2054
36.2993
36.2928
46.1986
46.0566
46.2054
36.3612
36.3505
36.3922
36.3949
46.0484
46.2123
36.972
37
37.0237
37.0517
36.9917
37.0199
37.0599
46.1032
46.2633
36.3087
36.313
36.2832
46.4019
46.1084
46.3483
36.4203
36.4291
36.4496
36.4541
46.1165
46.3526
37.0686
37.097
37.1102
37.136
37.0975
37.0976
37.131
46.1663
46.4029
36.3531
36.3694
36.3796
46.4445
46.253
46.3911
36.4763
36.4802
36.4615
36.4654
46.2575
46.399
37.138
37.1623
37.1217
37.147
37.1668
37.1152
37.1584
46.3083
46.4483
36.408
36.3796
36.3759
46.5945
46.2873
46.4094
36.4951
36.4983
36.4521
36.455
46.2943
46.4094
37.1579
37.1815
37.1204
37.1437
37.1917
37.1085
37.1496
46.3439
46.4611
36.4275
36.368
36.3857
46.4866
46.3073
46.3864
36.4999
36.5024
36.4307
36.4332
46.3077
46.3856
37.1714
37.1933
37.1028
37.1263
37.1989
37.0889
37.1442
46.3587
46.4425
36.4315
36.3497
36.358
46.6045
46.289
46.3825
36.5013
36.503
36.4138
36.4162
46.2873
46.3839
37.1762
37.1991
37.0858
37.111
37.2143
37.074
37.1179
46.3455
46.4364
36.4286
36.3352
36.3412
46.4596
46.2926
46.3849
36.5123
36.5141
36.4084
36.4108
46.2943
46.3849
37.1868
37.2125
37.0771
37.1062
37.2239
37.0671
37.1449
46.3479
46.4404
36.4429
36.33
36.3401
46.6054
46.3053
46.4238
36.5407
36.5417
36.4412
36.4433
46.3041
46.4271
37.2112
37.2406
37.1045
37.1356
37.2721
37.095
37.1487
46.3623
46.4806
36.4693
36.3614
36.3624
46.5083
46.3542
46.5044
36.6164
36.6169
36.5886
36.5915
46.3559
46.5043
37.2805
37.3122
37.2466
37.2774
37.3332
37.2368
37.3243
46.413
46.5637
36.5385
36.5082
36.4984
46.6994
46.5005
46.4434
36.8264
36.8295
36.8846
36.8952
46.4983
46.4646
37.4814
37.5123
37.6917
37.7165
37.5505
37.6877
37.739
46.5607
46.506
36.7375
36.8077
36.8112
46.5372
46.4369
49.978
37.5609
37.5769
39.5502
39.5834
46.4588
50.719
37.9021
37.9193
39.4968
39.5412
37.9463
39.6966
39.5767
46.499
50.0036
37.4875
39.4845
39.4615
50.0309
53.3901
41.1061
41.2312
54.7935
41.0558
41.1
27.5058
27.3261
27.3201
41.1466
53.4251
41.0226
400.258
23.4655
23.4541
23.4673
23.4557
86.4916
36.907
150.693
28.5609
46.1535
200.501
200.123
156.131
293.844
155.956
293.81
399.366
399.263
159.788
295.818
159.508
295.756
23.4481
23.4805
23.4726
23.4746
23.473
23.4891
23.5216
86.5793
150.429
28.6225
36.9696
86.2664
150.696
28.603
400.781
400.629
83.3408
27.8839
147.998
36.2805
83.1282
27.8515
148.154
200.397
199.002
46.3072
200.655
198.974
156.402
293.865
156.187
293.827
399.421
399.304
159.917
295.854
159.567
295.792
23.4691
23.4946
23.5332
23.4885
23.4884
23.509
23.5289
86.7109
150.499
28.6776
37.0527
86.3302
150.83
28.6613
400.817
400.661
83.5985
27.8644
148.122
36.3296
83.3526
27.8354
148.349
200.577
198.927
46.4087
200.613
198.99
156.523
293.877
156.366
293.835
399.429
399.279
159.996
295.882
159.709
295.81
23.4827
23.5084
23.5297
23.4834
23.4875
23.5078
23.5472
86.9077
150.624
28.7321
37.1005
86.5675
150.891
28.6987
400.837
400.673
83.7998
27.873
148.252
36.3658
83.6151
27.8353
148.417
200.508
198.974
46.5286
200.756
199.016
156.548
293.879
156.411
293.832
399.415
399.289
160.015
295.892
159.73
295.817
23.4794
23.5078
23.5452
23.4844
23.4815
23.5037
23.5242
86.9065
150.657
28.7433
37.1014
86.5898
150.918
28.695
400.842
400.674
83.8206
27.8662
148.27
36.3608
83.6992
27.8182
148.428
200.646
198.966
46.5229
200.666
199.015
156.541
293.877
156.407
293.831
399.413
399.261
160.007
295.895
159.73
295.818
23.4717
23.5029
23.524
23.4856
23.4809
23.5032
23.5367
86.9001
150.663
28.7446
37.0865
86.6301
150.908
28.6842
400.842
400.671
83.8095
27.8585
148.272
36.3442
83.7085
27.803
148.421
200.53
198.975
46.5461
200.774
199.015
156.545
293.88
156.408
293.833
399.406
399.283
160.018
295.899
159.74
295.821
23.4747
23.5037
23.5363
23.4908
23.49
23.5067
23.5261
86.9204
150.669
28.7446
37.069
86.6065
150.916
28.6744
400.842
400.672
83.8118
27.8611
148.273
36.3274
83.7022
27.7967
148.424
200.651
198.967
46.4943
200.677
199.02
156.555
293.884
156.413
293.838
399.414
399.266
160.032
295.905
159.749
295.827
23.4817
23.5109
23.5231
23.5083
23.5111
23.5367
23.5409
86.9217
150.671
28.7512
37.0566
86.6046
150.925
28.6697
400.843
400.677
83.816
27.874
148.278
36.3161
83.7037
27.7994
148.427
200.544
198.983
46.5403
200.79
199.026
156.578
293.894
156.434
293.843
399.421
399.318
160.062
295.918
159.775
295.835
23.5008
23.5304
23.5334
23.553
23.5585
23.5767
23.5793
86.9537
150.687
28.7674
37.061
86.6304
150.941
28.6803
400.85
400.699
83.8421
27.9015
148.293
36.3235
83.7182
27.8226
148.439
200.643
198.963
46.5117
200.71
199.045
156.585
293.916
156.488
293.82
399.433
399.267
160.099
295.948
159.813
295.822
23.5478
23.5739
23.5702
23.6799
23.6809
23.6979
23.6966
87.0232
150.722
28.8079
37.1309
86.6796
150.982
28.7414
400.87
400.723
83.8848
27.9623
148.331
36.3972
83.7426
27.9002
148.477
200.589
199.016
46.6265
200.788
199.066
156.362
293.919
156.527
293.403
399.335
398.824
159.996
295.957
159.9
295.428
23.6944
23.7137
23.7134
24.0859
24.0944
24.1047
24.108
87.0797
150.755
28.922
37.3967
86.7678
150.917
28.9556
400.76
400.232
83.8212
28.0914
148.365
36.6709
83.7812
28.1126
148.373
200.775
199.116
46.6039
200.651
199.022
159.304
294.218
158.018
291.782
398.323
393.344
159.564
295.039
158.783
291.843
24.1386
24.1384
24.1359
27.1307
27.0484
27.1384
27.1463
87.4057
149.755
29.1315
37.7418
86.198
150.597
30.0157
399.019
393.317
87.2943
28.5949
147.761
37.7357
84.8921
30.0488
150.329
200.025
198.879
47.025
200.011
199.334
139.148
1548.22
209.068
414.383
1609.01
507.941
139.345
1548.74
209.209
414.393
24.475
22.5418
22.5915
28.8103
21.42
24.7459
24.7584
79.5001
289.626
31.1316
36.66
99.7002
219.314
31.4287
1609.17
508.118
79.4809
31.1774
289.318
36.6705
99.6467
31.4753
219.084
348.283
348.85
43.5108
306.922
306.892
399.191
400.255
400.635
400.75
46.0571
198.985
200.676
199.661
200.572
295.248
36.911
149.927
158.568
293.796
295.246
156.093
158.569
293.801
295.248
156.088
85.264
36.3911
148.183
27.8484
149.475
27.9739
83.2148
85.2632
36.3755
148.24
27.8439
149.504
27.9678
83.2217
46.1694
200.122
200.58
400.5
399.209
400.27
46.0507
199.086
200.553
199.762
200.458
400.587
400.696
159.512
295.739
295.779
159.79
86.2258
36.964
150.73
28.5968
150.468
28.5969
86.5602
159.502
295.749
295.788
159.775
86.1956
36.9953
28.6035
150.699
28.6044
150.438
86.5321
159.768
295.677
86.4521
36.9147
28.5513
150.626
159.757
295.682
86.1976
36.9648
150.7
28.5977
150.418
28.5986
86.5587
159.49
295.728
295.765
159.774
86.1612
36.9768
28.5891
150.631
28.5915
150.352
86.5215
159.48
295.734
295.77
159.766
400.599
400.718
46.0738
200.657
199.058
200.602
199.666
399.253
400.283
85.3469
36.3447
27.8846
148.181
28.0061
149.448
83.2329
85.3418
36.345
27.8679
148.214
27.9964
149.494
83.2347
158.635
293.792
295.238
156.082
158.636
293.796
295.242
156.089
400.489
400.306
46.0491
200.495
199.1
200.386
199.768
400.572
400.687
399.268
400.316
399.329
399.262
400.799
400.649
198.835
200.561
46.1738
198.828
200.685
399.28
399.375
400.669
400.814
46.0685
198.819
200.716
198.73
200.569
156.138
293.847
155.949
293.815
83.3232
147.989
27.8481
36.3523
83.0966
148.154
27.8291
83.33
148.047
27.8437
36.3465
83.106
148.214
27.826
156.021
293.821
293.85
156.276
156.029
293.826
293.856
156.281
83.2032
36.3933
148.238
27.829
147.99
27.8411
83.4314
83.2112
36.3949
148.308
27.8277
148.054
27.8393
83.4394
198.964
200.46
46.1726
198.96
200.665
400.749
400.635
399.301
399.383
46.0696
198.948
200.631
198.891
200.525
400.63
400.797
86.5767
150.453
28.6021
36.9747
86.2421
150.734
28.6063
159.779
295.822
159.487
295.766
86.5503
28.6087
150.421
36.997
86.2159
28.613
150.703
159.505
295.774
295.829
159.827
86.2609
37.0242
150.777
28.6446
150.463
28.6442
86.6126
159.498
295.786
295.839
159.816
86.2355
37.0506
28.6539
150.745
28.6535
150.432
86.5905
159.78
295.802
159.487
295.746
86.5424
28.6043
150.355
37.007
86.2061
28.6133
150.651
159.771
295.808
159.48
295.754
86.2594
37.0193
150.748
28.6388
150.423
28.637
86.6112
159.499
295.768
295.821
159.815
86.2267
37.0528
28.6603
150.707
28.653
150.382
86.5802
159.49
295.779
295.83
159.808
200.544
198.914
46.2305
200.631
198.848
399.384
399.306
400.636
400.786
46.1295
200.697
198.906
200.594
198.786
399.346
399.438
83.338
27.8679
148.021
36.2788
83.1138
27.8484
148.189
156.127
293.838
155.942
293.809
156.132
293.842
155.948
293.809
83.219
36.317
27.8442
148.259
27.8595
147.992
83.4424
83.2179
36.3189
27.8452
148.283
27.8585
148.028
83.441
156.018
293.826
293.853
156.266
156.022
293.823
293.851
156.27
400.737
400.657
399.414
399.294
46.1953
200.699
199.008
200.518
198.914
400.672
400.817
399.328
399.418
399.388
399.281
400.833
400.679
198.742
200.612
46.274
198.839
200.753
399.285
399.39
400.69
400.843
46.1832
198.849
200.771
198.753
200.637
156.404
293.867
156.173
293.832
83.5613
148.087
27.8332
36.4158
83.3142
148.322
27.8236
83.5655
148.156
27.8327
36.4224
83.3243
148.389
27.8233
156.287
293.833
293.866
156.481
156.289
293.839
293.872
156.482
83.4451
36.4669
148.37
27.8351
148.162
27.8488
83.6677
83.4506
36.4719
148.434
27.835
148.228
27.8488
83.6741
198.869
200.522
46.2809
198.961
200.642
400.793
400.637
399.305
399.417
46.1904
198.961
200.646
198.877
200.533
400.644
400.8
86.713
150.519
28.6701
37.071
86.3082
150.86
28.6765
159.909
295.86
159.549
295.805
86.6896
28.6817
150.487
37.0953
86.2876
28.6881
150.832
159.652
295.805
295.865
159.981
86.4238
37.1259
150.917
28.7053
150.604
28.7144
86.8391
159.645
295.816
295.877
159.971
86.4011
37.1515
28.7192
150.887
28.7289
150.575
86.8188
159.905
295.843
159.546
295.785
86.6772
28.6861
150.449
37.092
86.276
28.686
150.785
159.897
295.856
159.54
295.796
86.4185
37.1102
150.89
28.695
150.572
28.7
86.84
159.643
295.796
295.86
159.975
86.3875
37.1483
28.7162
150.836
28.7232
150.526
86.8076
159.635
295.805
295.87
159.967
200.596
198.835
46.3285
200.698
198.876
399.448
399.329
400.658
400.817
46.241
200.752
198.943
200.666
198.824
399.35
399.455
83.5712
27.8493
148.131
36.3475
83.3226
27.8383
148.38
156.403
293.867
156.162
293.835
156.404
293.865
156.166
293.837
83.4822
36.3833
27.8462
148.412
27.8598
148.189
83.7116
83.4573
36.3993
27.8483
148.441
27.8626
148.222
83.6931
156.292
293.843
293.877
156.49
156.292
293.847
293.878
156.491
400.825
400.638
399.452
399.365
46.3059
200.602
198.986
200.502
198.918
400.63
400.801
399.37
399.475
399.392
399.278
400.852
400.69
198.772
200.661
46.383
198.858
200.786
399.277
399.386
400.695
400.853
46.2806
198.855
200.792
198.768
200.665
156.529
293.879
156.358
293.839
83.7455
148.203
27.8441
36.4482
83.5453
148.391
27.8258
83.7521
148.267
27.8447
36.4522
83.5538
148.451
27.8268
156.391
293.835
293.872
156.538
156.399
293.841
293.878
156.547
83.6174
36.5007
148.399
27.8296
148.22
27.8536
83.787
83.6257
36.5043
148.463
27.8307
148.282
27.855
83.7999
198.906
200.559
46.39
198.988
200.765
400.803
400.678
399.295
399.393
46.2887
198.983
200.706
198.925
200.622
400.656
400.837
86.8999
150.646
28.7209
37.1083
86.5403
150.93
28.7051
159.989
295.888
159.692
295.823
86.8797
28.7352
150.615
37.1319
86.5217
28.7197
150.901
159.711
295.815
295.881
160.005
86.5812
37.1612
150.946
28.7142
150.657
28.7383
86.8897
159.705
295.827
295.893
159.994
86.5614
37.1861
28.729
150.915
28.7533
150.628
86.8712
159.994
295.868
159.697
295.802
86.8733
28.7362
150.563
37.1394
86.5111
28.7226
150.852
159.986
295.876
159.691
295.811
86.5846
37.1543
150.921
28.7085
150.616
28.7325
86.8909
159.709
295.807
295.875
159.992
86.5542
37.1927
28.7338
150.874
28.7573
150.578
86.8597
159.701
295.82
295.884
159.986
200.645
198.867
46.4379
200.729
198.894
399.45
399.323
400.663
400.828
46.3396
200.772
198.952
200.695
198.84
399.34
399.449
83.7773
27.8585
148.275
36.3727
83.5729
27.8422
148.461
156.54
293.882
156.369
293.843
156.542
293.888
156.37
293.846
83.6662
36.4179
27.8364
148.432
27.8616
148.24
83.8223
83.6495
36.4272
27.8463
148.476
27.8699
148.291
83.8189
156.411
293.847
293.884
156.555
156.413
293.848
293.886
156.562
400.79
400.695
399.483
399.314
46.4169
200.775
199.051
200.613
198.96
400.694
400.853
399.326
399.432
399.384
399.269
400.858
400.692
198.774
200.68
46.3987
198.857
200.801
399.269
399.378
400.694
400.856
46.2992
198.852
200.8
198.766
200.678
156.557
293.88
156.413
293.838
83.8
148.225
27.842
36.4474
83.6514
148.392
27.8129
83.8145
148.288
27.8438
36.4504
83.6669
148.455
27.815
156.414
293.832
293.87
156.541
156.421
293.838
293.877
156.549
83.6593
36.5116
148.382
27.8117
148.215
27.846
83.7883
83.6741
36.5141
148.444
27.8134
148.278
27.8482
83.8025
198.9
200.587
46.4012
198.979
200.687
400.817
400.649
399.287
399.402
46.301
198.962
200.672
198.889
200.571
400.648
400.812
86.9099
150.675
28.7308
37.1109
86.5682
150.959
28.7027
160.008
295.899
159.712
295.83
86.8884
28.746
150.643
37.1331
86.5504
28.7181
150.929
159.729
295.818
295.888
160.011
86.5985
37.1789
150.96
28.7088
150.685
28.7431
86.925
159.724
295.83
295.9
160.003
86.5776
37.2022
28.7244
150.93
28.7589
150.655
86.9087
160.011
295.88
159.71
295.808
86.8723
28.7486
150.603
37.1415
86.5363
28.719
150.887
160.003
295.894
159.704
295.821
86.5934
37.1675
150.932
28.7009
150.639
28.735
86.9325
159.73
295.809
295.881
160.01
86.5617
37.2094
28.7231
150.881
28.7587
150.611
86.899
159.722
295.819
295.893
160.004
200.663
198.874
46.4498
200.743
198.897
399.441
399.313
400.662
400.83
46.3534
200.78
198.952
200.707
198.841
399.331
399.44
83.8275
27.8592
148.303
36.3784
83.682
27.8294
148.48
156.565
293.886
156.421
293.844
156.572
293.888
156.429
293.849
83.6806
36.4252
27.8186
148.434
27.8517
148.246
83.835
83.6879
36.4443
27.8286
148.477
27.8627
148.305
83.8312
156.433
293.846
293.886
156.567
156.438
293.852
293.889
156.574
400.846
400.646
399.448
399.352
46.4048
200.628
198.991
200.545
198.936
400.628
400.809
399.352
399.462
399.378
399.263
400.858
400.69
198.769
200.684
46.3977
198.856
200.804
399.267
399.375
400.695
400.857
46.2944
198.855
200.805
198.762
200.677
156.548
293.879
156.41
293.836
83.7713
148.205
27.8324
36.4301
83.6436
148.374
27.7941
83.7845
148.268
27.8344
36.4331
83.6593
148.436
27.7963
156.409
293.833
293.871
156.54
156.414
293.839
293.877
156.551
83.6296
36.5119
148.382
27.7958
148.202
27.8383
83.7704
83.643
36.5143
148.446
27.7976
148.265
27.8406
83.7859
198.905
200.58
46.402
198.983
200.78
400.809
400.677
399.283
399.38
46.2986
198.982
200.717
198.917
200.63
400.654
400.839
86.8947
150.683
28.7334
37.1006
86.5988
150.951
28.6923
160.001
295.902
159.716
295.831
86.8782
28.7496
150.652
37.1215
86.5844
28.7087
150.924
159.724
295.82
295.89
160.017
86.5708
37.1851
150.959
28.6953
150.676
28.7413
86.899
159.718
295.832
295.902
160.008
86.5538
37.208
28.7113
150.93
28.7577
150.649
86.8812
160.003
295.881
159.722
295.809
86.8713
28.7503
150.601
37.1325
86.5759
28.7103
150.876
159.996
295.89
159.717
295.819
86.5697
37.1701
150.932
28.6877
150.627
28.7332
86.8962
159.719
295.812
295.883
160.009
86.5445
37.2194
28.7144
150.89
28.76
150.6
86.8654
159.712
295.826
295.894
160.002
200.667
198.874
46.445
200.745
198.897
399.433
399.305
400.66
400.829
46.3477
200.787
198.955
200.709
198.84
399.326
399.435
83.8172
27.8498
148.299
36.358
83.6893
27.8128
148.462
156.565
293.887
156.43
293.843
156.571
293.893
156.437
293.847
83.6682
36.4274
27.8074
148.432
27.8487
148.239
83.8278
83.6741
36.4431
27.8146
148.474
27.8567
148.289
83.817
156.433
293.846
293.886
156.571
156.437
293.849
293.889
156.577
400.791
400.69
399.466
399.296
46.4395
200.788
199.058
200.624
198.958
400.686
400.848
399.316
399.419
399.377
399.264
400.86
400.693
198.77
200.686
46.3837
198.863
200.814
399.27
399.376
400.699
400.859
46.2909
198.862
200.815
198.763
200.68
156.555
293.88
156.415
293.837
83.7713
148.209
27.8298
36.4102
83.6307
148.381
27.7835
83.7886
148.272
27.832
36.4121
83.6489
148.443
27.7858
156.413
293.835
293.874
156.542
156.421
293.841
293.88
156.556
83.6312
36.5183
148.385
27.7911
148.208
27.8423
83.7716
83.6484
36.5197
148.447
27.7929
148.27
27.8447
83.7881
198.895
200.591
46.3825
198.983
200.697
400.818
400.649
399.287
399.399
46.2905
198.97
200.685
198.888
200.573
400.652
400.814
86.9145
150.685
28.733
37.0826
86.5844
150.961
28.6818
160.013
295.906
159.725
295.834
86.8974
28.7494
150.655
37.1043
86.5679
28.6985
150.933
159.735
295.824
295.895
160.024
86.5928
37.193
150.964
28.6872
150.686
28.745
86.9027
159.731
295.835
295.907
160.016
86.5765
37.2174
28.704
150.937
28.7619
150.658
86.889
160.017
295.886
159.728
295.812
86.8868
28.7506
150.618
37.1163
86.5513
28.6987
150.893
160.011
295.901
159.722
295.825
86.5929
37.1785
150.934
28.6802
150.635
28.7375
86.9002
159.734
295.815
295.887
160.017
86.5659
37.2267
28.702
150.89
28.7612
150.616
86.875
159.728
295.824
295.9
160.011
200.671
198.877
46.4333
200.752
198.901
399.431
399.304
400.663
400.83
46.3459
200.797
198.962
200.715
198.841
399.329
399.435
83.8185
27.8499
148.3
36.3361
83.6777
27.8029
148.475
156.574
293.888
156.436
293.844
156.581
293.891
156.443
293.85
83.6711
36.4361
27.8054
148.436
27.8568
148.242
83.829
83.6784
36.4441
27.8105
148.481
27.8624
148.301
83.8231
156.442
293.849
293.889
156.579
156.447
293.855
293.893
156.586
400.839
400.637
399.439
399.342
46.3868
200.641
199.002
200.549
198.938
400.622
400.802
399.349
399.456
399.381
399.272
400.863
400.7
198.771
200.688
46.3757
198.873
200.826
399.286
399.382
400.712
400.863
46.2916
198.878
200.831
198.762
200.679
156.564
293.885
156.421
293.842
83.7768
148.212
27.8405
36.3971
83.6315
148.386
27.7855
83.7935
148.274
27.8425
36.4004
83.65
148.446
27.7876
156.425
293.841
293.881
156.558
156.434
293.848
293.888
156.574
83.6382
36.5358
148.394
27.8016
148.214
27.8604
83.7882
83.655
36.5376
148.459
27.803
148.277
27.8625
83.8053
198.913
200.585
46.3816
198.992
200.798
400.813
400.685
399.303
399.385
46.2961
199.005
200.741
198.918
200.63
400.672
400.842
86.9167
150.69
28.7391
37.0678
86.5827
150.969
28.6767
160.026
295.911
159.734
295.838
86.9018
28.7562
150.663
37.0922
86.5702
28.6941
150.943
159.753
295.832
295.904
160.046
86.6004
37.2085
150.978
28.6882
150.696
28.7551
86.9275
159.748
295.841
295.914
160.039
86.5861
37.2375
28.7055
150.95
28.7728
150.67
86.9165
160.029
295.891
159.736
295.817
86.8894
28.756
150.614
37.1149
86.555
28.695
150.9
160.022
295.899
159.731
295.826
86.5987
37.1954
150.948
28.6817
150.646
28.748
86.9234
159.749
295.824
295.896
160.039
86.5727
37.2641
28.7087
150.918
28.7746
150.627
86.9014
159.744
295.837
295.905
160.035
200.674
198.881
46.4282
200.76
198.905
399.434
399.311
400.677
400.833
46.3501
200.816
198.979
200.723
198.842
399.343
399.441
83.8229
27.8583
148.307
36.3256
83.6828
27.8014
148.477
156.584
293.892
156.445
293.849
156.591
293.9
156.452
293.854
83.6753
36.4547
27.8156
148.447
27.8754
148.247
83.8413
83.6834
36.4708
27.8145
148.486
27.8755
148.305
83.8378
156.455
293.855
293.896
156.596
156.46
293.856
293.899
156.604
400.788
400.69
399.466
399.303
46.4478
200.808
199.07
200.635
198.966
400.696
400.846
399.328
399.423
399.391
399.3
400.871
400.723
198.774
200.688
46.3938
198.888
200.844
399.317
399.399
400.748
400.878
46.319
198.894
200.848
198.773
200.684
156.587
293.897
156.443
293.848
83.8047
148.223
27.8675
36.4055
83.6496
148.399
27.8081
83.8209
148.288
27.8692
36.4073
83.6687
148.466
27.8097
156.448
293.841
293.896
156.582
156.458
293.848
293.904
156.596
83.6658
36.5818
148.416
27.8434
148.232
27.8998
83.8243
83.6823
36.5826
148.482
27.8444
148.298
27.9016
83.8414
198.899
200.589
46.3952
199.011
200.73
400.829
400.681
399.331
399.422
46.3198
199.005
200.711
198.895
200.573
400.702
400.834
86.9501
150.706
28.7553
37.0715
86.6092
150.987
28.6876
160.057
295.922
159.761
295.845
86.9384
28.773
150.679
37.0984
86.6
28.7053
150.961
159.787
295.837
295.923
160.079
86.635
37.2487
151.007
28.7161
150.719
28.7799
86.9781
159.783
295.847
295.932
160.072
86.6234
37.2817
28.734
150.98
28.7984
150.693
86.969
160.058
295.905
159.763
295.826
86.9261
28.7744
150.647
37.1238
86.5847
28.7059
150.927
160.053
295.92
159.759
295.839
86.6308
37.2344
150.976
28.7089
150.667
28.7722
86.9709
159.783
295.829
295.915
160.071
86.6088
37.2985
28.7321
150.944
28.7976
150.657
86.9503
159.778
295.837
295.928
160.067
200.672
198.885
46.4468
200.775
198.907
399.443
399.336
400.711
400.847
46.3781
200.826
198.988
200.731
198.845
399.368
399.458
83.8505
27.8843
148.314
36.3306
83.6996
27.8245
148.494
156.606
293.903
156.466
293.854
156.613
293.904
156.474
293.858
83.7009
36.4999
27.8593
148.472
27.9164
148.267
83.8693
83.7108
36.5047
27.862
148.512
27.9189
148.326
83.8717
156.48
293.855
293.913
156.617
156.485
293.86
293.914
156.625
400.841
400.66
399.443
399.371
46.4225
200.665
199.036
200.55
198.94
400.665
400.814
399.395
399.475
399.401
399.287
400.892
400.746
198.814
200.71
46.4568
198.907
200.846
399.197
399.374
400.653
400.877
46.4156
198.942
200.851
198.884
200.77
156.605
293.92
156.472
293.824
83.8558
148.252
27.9254
36.4802
83.6847
148.437
27.8818
83.8715
148.317
27.9268
36.4832
83.7032
148.499
27.883
156.524
293.729
293.925
156.554
156.55
293.735
293.932
156.558
83.7122
36.7079
148.453
27.9716
148.279
27.9892
83.8746
83.7291
36.7093
148.517
27.9724
148.342
27.9909
83.8969
198.948
200.607
46.4575
199.025
200.826
400.841
400.726
399.208
399.373
46.419
199.057
200.755
198.996
200.7
400.606
400.851
87.0231
150.742
28.7961
37.1409
86.6614
151.029
28.7489
160.093
295.952
159.8
295.833
87.0119
28.8161
150.716
37.1683
86.6542
28.7679
151.006
159.837
295.741
295.961
160.11
86.7094
37.3682
151.044
28.8427
150.769
28.8577
87.08
159.831
295.75
295.972
160.105
86.6979
37.402
28.8606
151.022
28.878
150.746
87.0707
160.092
295.933
159.799
295.813
86.9965
28.8157
150.678
37.2014
86.6348
28.7686
150.971
160.086
295.941
159.795
295.82
86.7008
37.3514
151.012
28.8368
150.718
28.8508
87.0673
159.828
295.734
295.952
160.103
86.68
37.4355
28.864
150.996
28.8789
150.711
87.0504
159.822
295.744
295.962
160.101
200.686
198.909
46.5078
200.796
198.951
399.449
399.321
400.605
400.842
46.4777
200.812
199.041
200.78
198.942
399.245
399.436
83.8942
27.9431
148.347
36.3925
83.7304
27.8987
148.523
156.622
293.927
156.492
293.831
156.629
293.932
156.5
293.836
83.7398
36.6247
27.9948
148.505
28.0113
148.316
83.8943
83.7514
36.6229
27.9866
148.539
28.007
148.362
83.9191
156.572
293.742
293.941
156.574
156.579
293.742
293.941
156.585
400.814
400.723
399.488
399.309
46.5548
200.787
199.098
200.708
199.023
400.617
400.841
399.223
399.41
399.3
398.808
400.791
400.266
198.957
200.853
46.4876
198.875
200.802
396.914
398.979
398.427
400.459
46.4935
198.307
200.283
198.903
200.81
156.411
293.921
156.533
293.409
83.8176
148.297
28.0387
36.7522
83.7188
148.355
28.0781
83.8412
148.357
28.0419
36.7578
83.7427
148.429
28.0784
156.303
291.976
293.758
156.229
156.354
291.983
293.766
156.259
83.6249
37.0469
147.605
28.3053
148.15
28.1767
83.7186
83.6488
37.0549
147.688
28.3025
148.214
28.1795
83.7428
199.076
200.756
46.5002
198.999
200.69
400.745
400.209
396.93
399.009
46.5056
198.427
200.183
199.026
200.69
398.363
400.406
87.0927
150.777
28.9045
37.4046
86.7554
150.965
28.9636
159.995
295.96
159.873
295.434
87.0846
28.926
150.755
37.4296
86.7482
28.974
150.944
159.77
294.228
295.797
159.42
86.7289
37.6956
150.429
29.2789
150.658
29.0612
86.8107
159.783
294.233
295.802
159.422
86.7232
37.7238
29.2845
150.412
29.0735
150.635
86.8072
159.993
295.942
159.86
295.418
87.0626
28.93
150.731
37.4635
86.7265
28.9765
150.916
159.994
295.957
159.861
295.425
86.7084
37.6748
150.383
29.2709
150.606
29.0509
86.7982
159.769
294.214
295.782
159.41
86.6957
37.7502
29.2792
150.372
29.0724
150.607
86.779
159.766
294.216
295.791
159.415
200.813
199.041
46.5487
200.775
198.937
399.35
398.846
398.366
400.416
46.5494
200.233
198.423
200.768
199.003
397.002
399.046
83.863
28.059
148.379
36.6609
83.7642
28.1031
148.443
156.429
293.927
156.553
293.409
156.441
293.925
156.563
293.417
83.6328
36.9699
28.3433
147.612
28.2073
148.141
83.7564
83.6712
36.9621
28.3389
147.697
28.2103
148.231
83.7747
156.372
291.984
293.766
156.276
156.383
291.997
293.775
156.288
400.735
400.178
399.347
398.885
46.604
200.101
198.461
200.654
199.046
398.318
400.362
397.013
399.063
398.305
393.399
399.059
393.318
198.716
200.156
46.9342
199.284
199.907
635.445
398.444
635.398
398.374
48.0038
225.089
225.665
200.895
201.362
159.395
294.218
158.024
291.775
87.2417
147.753
28.5317
37.7671
84.8264
150.303
29.9779
87.2754
147.804
28.5327
37.7867
84.8502
150.368
29.9796
160.505
951.955
296.445
169.316
160.478
951.858
296.422
169.343
88.4468
39.9502
274.226
33.2964
150.088
29.9414
93.4434
88.4664
39.9725
274.214
33.2991
150.125
29.9464
93.4641
198.833
200.014
46.9638
199.346
199.922
399.004
393.36
635.246
398.377
48.0881
225.417
227.194
201.007
200.946
634.976
398.346
87.4453
149.796
29.1312
37.7371
86.1972
150.651
30.0218
159.521
295.033
158.773
291.852
87.4229
29.1403
149.777
37.7348
86.1954
30.0136
150.661
160.666
951.985
296.522
169.573
88.6469
39.8264
274.423
33.3775
150.432
30.0285
93.6403
160.738
952.004
296.542
169.59
88.6493
39.9108
33.3343
274.525
29.9755
150.422
93.6508
159.573
295.006
158.737
291.826
87.4302
29.132
149.74
37.7854
86.1599
30.0138
150.639
159.635
295.018
158.74
291.852
88.589
39.8082
274.739
33.3859
150.265
30.027
93.5988
160.623
952.005
296.488
169.524
88.599
39.9569
33.3367
274.498
29.9734
150.43
93.588
160.572
952.008
296.543
169.535
200.12
198.795
46.9639
199.923
199.347
398.377
393.478
635.405
398.429
48.0319
225.593
225.279
201.364
200.901
635.413
398.516
87.3309
28.5935
147.821
37.6915
84.8792
30.0496
150.376
159.366
294.223
158.05
291.799
159.432
294.233
158.059
291.807
88.5025
39.8443
33.421
274.214
30.0725
150.062
93.5217
88.5196
39.8115
33.4151
274.275
30.0719
150.153
93.5201
160.579
951.96
296.451
169.383
160.533
952.003
296.456
169.387
398.956
393.339
398.409
393.427
48.0628
225.369
225.549
201.32
200.985
635.555
398.439
635.436
398.424
1608.87
508.376
1609.13
508.359
348.167
348.817
43.4877
306.804
306.875
43.8192
269.627
269.669
139.278
1548.24
208.997
414.199
79.4207
289.331
31.0352
36.7025
99.5473
219.156
31.3911
79.4604
289.264
31.053
36.6867
99.5706
218.955
31.4174
63.6022
38.0898
197.517
32.9498
63.652
38.085
197.265
32.9738
348.604
348.385
43.4453
306.91
307.138
1609.63
508.355
43.8062
269.505
269.608
79.5055
289.552
31.0977
36.692
99.7124
219.237
31.4228
139.299
1548.76
209.306
414.404
79.5147
31.0632
289.591
36.7039
99.7366
31.418
219.198
63.6662
38.0079
197.59
32.9786
63.6662
38.0907
32.9594
197.502
24.4889
22.5792
22.6284
28.9994
21.4285
24.7889
24.7917
24.4945
22.5781
22.6068
28.8185
21.4349
24.767
24.7874
24.5076
22.5777
22.6044
28.7962
21.4413
24.7685
24.7856
24.9809
30.15
26.5689
26.5868
24.9938
30.372
26.6188
26.6995
25.0009
30.1524
26.6464
26.5768
25.0146
30.2481
26.6595
26.6024
138.303
1548.74
209.249
414.541
79.4986
31.0447
289.598
36.7243
99.649
31.3927
219.331
138.331
1548.61
209.13
414.517
64.1529
38.0594
197.665
32.9742
64.1423
38.1061
32.9297
197.699
348.716
348.316
43.4804
307.028
306.999
1609.16
508.047
43.8213
269.587
269.576
79.4971
31.1524
289.403
36.6722
99.6149
31.4741
219.217
139.153
1548.28
209.108
414.296
139.231
1548.17
209.017
414.426
63.6654
37.9735
33.0414
197.412
63.6965
37.9745
33.0204
197.56
1608.89
508.513
1609.03
508.366
43.8295
269.748
269.694
466.022
466.028
117.868
386.016
117.912
385.8
465.654
466.033
117.927
386.011
117.98
386.015
119.294
386.145
119.329
386.226
465.845
465.783
117.885
385.926
117.89
386.037
466.196
465.993
401.037
406.876
406.598
244.507
300.802
116.393
168.928
301.292
115.929
167.67
325.073
155.978
303.899
170.123
303.948
169.986
325.012
421.383
208.915
293.801
421.5
208.823
325.039
156.089
304.032
169.999
325.118
303.929
170.12
421.484
208.681
293.846
208.696
421.349
399.26
399.376
327.936
159.507
173.756
306.861
173.483
306.95
327.83
423.942
211.888
295.745
424.14
211.948
327.822
159.785
173.483
306.941
327.922
173.753
306.85
424.148
211.966
295.821
211.887
423.946
400.614
400.789
244.638
406.578
406.426
407.217
406.351
244.895
168.821
116.204
300.944
200.526
168.717
116.294
300.839
167.497
114.978
301.117
199.059
167.262
115.213
300.964
244.81
407.225
406.429
244.413
407.106
405.864
168.53
301.199
200.494
116.506
116.151
301.243
168.643
167.33
300.481
198.949
115.086
114.936
300.675
167.693
325.066
156.247
303.931
170.305
303.967
170.158
325.015
421.287
208.568
293.822
421.413
208.565
325.015
156.343
303.959
170.118
325.061
303.922
170.269
421.398
208.572
293.862
208.54
421.273
399.302
399.413
327.976
159.613
173.875
306.901
173.585
306.991
327.87
423.981
211.94
295.781
424.182
212.006
327.863
159.866
173.545
306.983
327.964
173.836
306.892
424.184
212.028
295.857
211.949
423.98
400.649
400.823
244.639
407.053
406.538
407.2
406.676
244.585
168.819
116.288
301.042
200.632
168.503
116.527
300.921
167.746
115.009
300.955
198.976
167.542
115.226
301.018
244.693
407.092
406.65
244.754
407.003
406.522
168.609
300.895
200.524
116.563
116.293
300.982
168.916
167.48
301.11
198.915
115.284