/*--------------------------------*- C++ -*----------------------------------*\
| =========                 |                                                 |
| \\      /  F ield         | OpenFOAM: The Open Source CFD Toolbox           |
|  \\    /   O peration     | Version:  2206                                  |
|   \\  /    A nd           | Website:  www.openfoam.com                      |
|    \\/     M anipulation  |                                                 |
\*---------------------------------------------------------------------------*/
FoamFile
{
    version     2.0;
    format      ascii;
    arch        "LSB;label=32;scalar=64";
    class       volScalarField;
    location    "1";
    object      p;
}
// * * * * * * * * * * * * * * * * * * * * * * * * * * * * * * * * * * * * * //

dimensions      [0 2 -2 0 0 0 0];

internalField   nonuniform List<scalar> 
66940
(
-0.0157905
-0.0157904
-0.0157906
-0.0157786
-0.0159777
-0.0159777
-0.0159777
-0.0159662
-0.016165
-0.0161648
-0.0161649
-0.016153
-0.0163522
-0.0163519
-0.016352
-0.0163406
-0.0165394
-0.016539
-0.0165391
-0.0165271
-0.0167267
-0.0167259
-0.016726
-0.0167144
-0.0169141
-0.0169126
-0.0169127
-0.0169003
-0.0171016
-0.0170986
-0.0170988
-0.017086
-0.0172892
-0.0172833
-0.0172835
-0.0172701
-0.0174728
-0.0174619
-0.0174623
-0.0174522
-0.0175669
-0.0175841
-0.0175857
-0.0176173
-0.0162965
-0.0169587
-0.0169411
-0.0173191
-0.0157555
-0.0157439
-0.0157439
-0.0157555
-0.0157438
-0.0157438
-0.0157438
-0.0157438
-0.0157555
-0.0157439
-0.0157439
-0.0157553
-0.0157789
-0.0159427
-0.0157905
-0.0157905
-0.0159311
-0.0159311
-0.0157789
-0.0159428
-0.0157904
-0.0157904
-0.0159311
-0.0159311
-0.0157904
-0.0159312
-0.0159312
-0.0157789
-0.0159428
-0.0157906
-0.0159311
-0.0159311
-0.0159432
-0.0159661
-0.01613
-0.0159777
-0.0159777
-0.0161185
-0.0161185
-0.0159661
-0.01613
-0.0159777
-0.0159777
-0.0161185
-0.0161184
-0.0159777
-0.0161185
-0.0161184
-0.0159662
-0.01613
-0.0159777
-0.0161184
-0.0161185
-0.0161299
-0.0161533
-0.0163173
-0.0161648
-0.0161648
-0.0163058
-0.0163058
-0.0161533
-0.0163174
-0.0161648
-0.0161648
-0.0163058
-0.0163058
-0.0161648
-0.0163058
-0.0163059
-0.0161534
-0.0163173
-0.0161649
-0.0163058
-0.0163058
-0.0163178
-0.0163405
-0.0165047
-0.016352
-0.016352
-0.0164932
-0.0164932
-0.0163405
-0.0165047
-0.0163519
-0.0163519
-0.0164932
-0.0164932
-0.016352
-0.0164932
-0.0164932
-0.0163405
-0.0165047
-0.016352
-0.0164932
-0.0164933
-0.0165045
-0.0165275
-0.0166923
-0.016539
-0.016539
-0.0166809
-0.0166809
-0.0165275
-0.0166923
-0.016539
-0.016539
-0.0166809
-0.0166809
-0.0165389
-0.0166809
-0.016681
-0.0165275
-0.0166923
-0.0165391
-0.0166808
-0.0166808
-0.0166927
-0.0167143
-0.01688
-0.016726
-0.016726
-0.0168688
-0.0168688
-0.0167143
-0.01688
-0.0167259
-0.0167259
-0.0168689
-0.0168688
-0.016726
-0.0168688
-0.0168687
-0.0167144
-0.01688
-0.0167259
-0.0168687
-0.0168688
-0.01688
-0.0169005
-0.017068
-0.0169127
-0.0169127
-0.0170572
-0.0170572
-0.0169005
-0.017068
-0.0169126
-0.0169126
-0.0170573
-0.0170572
-0.0169125
-0.0170573
-0.0170575
-0.0169006
-0.0170682
-0.0169127
-0.0170571
-0.0170572
-0.0170685
-0.0170858
-0.0172569
-0.0170987
-0.0170987
-0.0172466
-0.0172466
-0.0170857
-0.0172569
-0.0170986
-0.0170986
-0.0172469
-0.0172468
-0.0170987
-0.0172469
-0.0172466
-0.0170859
-0.0172569
-0.0170988
-0.0172465
-0.0172465
-0.0172575
-0.0172693
-0.0174456
-0.0172834
-0.0172835
-0.0174378
-0.0174376
-0.0172693
-0.0174455
-0.0172832
-0.0172833
-0.0174382
-0.0174381
-0.0172829
-0.017438
-0.0174386
-0.0172696
-0.0174458
-0.0172834
-0.0174378
-0.0174378
-0.0174456
-0.0174516
-0.0176178
-0.0174622
-0.0174623
-0.0176136
-0.0176134
-0.0174516
-0.0176176
-0.0174617
-0.0174619
-0.0176151
-0.0176151
-0.017462
-0.0176147
-0.0176155
-0.0174519
-0.0176181
-0.0174624
-0.017614
-0.0176138
-0.0176157
-0.0176206
-0.0174567
-0.0175845
-0.0175847
-0.0174139
-0.0174104
-0.017621
-0.0174627
-0.0175842
-0.0175842
-0.0174131
-0.0174145
-0.0175853
-0.0174122
-0.0174145
-0.0176208
-0.0174566
-0.0175858
-0.0174131
-0.0174139
-0.0174556
-0.0173184
-0.0169406
-0.0169355
-0.0173312
-0.0169414
-0.0169414
-0.0162791
-0.0162969
-0.0162976
-0.0169419
-0.0173186
-0.0169418
-0.015662
-0.0157437
-0.0157437
-0.0157437
-0.0157437
-0.0156618
-0.0156504
-0.0156618
-0.0156499
-0.0156619
-0.0156619
-0.015662
-0.015849
-0.0157789
-0.0157789
-0.0158491
-0.0157789
-0.0158491
-0.0158492
-0.0157789
-0.0157788
-0.0158491
-0.0157905
-0.0157905
-0.0157905
-0.0159311
-0.0159311
-0.0159311
-0.0159311
-0.0158493
-0.0157788
-0.0157905
-0.0158375
-0.0157787
-0.0158491
-0.0158375
-0.0157789
-0.0158491
-0.0158489
-0.0157906
-0.0157789
-0.0158375
-0.0157792
-0.0158374
-0.015849
-0.0157788
-0.015779
-0.0158493
-0.0158493
-0.0158489
-0.0160363
-0.0159661
-0.0159661
-0.0160363
-0.0159661
-0.0160363
-0.0160365
-0.0159661
-0.015966
-0.0160363
-0.0159777
-0.0159778
-0.0159778
-0.0161183
-0.0161183
-0.0161183
-0.0161183
-0.0160365
-0.0159661
-0.0159777
-0.0160248
-0.0159659
-0.0160364
-0.0160247
-0.0159661
-0.0160363
-0.0160362
-0.0159777
-0.0159662
-0.0160248
-0.0159662
-0.0160247
-0.0160362
-0.0159661
-0.0159661
-0.0160364
-0.0160364
-0.0160363
-0.0162236
-0.0161534
-0.0161534
-0.0162235
-0.0161534
-0.0162235
-0.0162237
-0.0161533
-0.0161532
-0.0162236
-0.016165
-0.016165
-0.0161649
-0.0163056
-0.0163056
-0.0163056
-0.0163057
-0.0162238
-0.0161533
-0.0161649
-0.0162121
-0.0161531
-0.0162236
-0.0162121
-0.0161534
-0.0162235
-0.0162235
-0.0161649
-0.0161534
-0.0162121
-0.0161534
-0.016212
-0.0162235
-0.0161532
-0.0161534
-0.0162238
-0.0162238
-0.0162234
-0.0164108
-0.0163406
-0.0163406
-0.0164108
-0.0163406
-0.0164108
-0.0164109
-0.0163406
-0.0163405
-0.0164108
-0.0163522
-0.0163522
-0.0163522
-0.0164929
-0.0164929
-0.0164929
-0.0164928
-0.016411
-0.0163405
-0.016352
-0.0163995
-0.0163403
-0.0164108
-0.0163994
-0.0163406
-0.0164108
-0.0164107
-0.0163521
-0.0163407
-0.0163995
-0.0163407
-0.0163994
-0.0164107
-0.0163405
-0.0163406
-0.016411
-0.0164108
-0.0164108
-0.0165981
-0.0165279
-0.0165279
-0.0165981
-0.0165279
-0.016598
-0.0165982
-0.0165278
-0.0165277
-0.0165981
-0.0165394
-0.0165394
-0.0165394
-0.0166802
-0.0166802
-0.0166802
-0.0166803
-0.0165983
-0.0165278
-0.0165391
-0.016587
-0.0165275
-0.0165982
-0.0165869
-0.0165279
-0.0165981
-0.016598
-0.0165392
-0.0165279
-0.016587
-0.0165278
-0.0165868
-0.016598
-0.0165277
-0.0165279
-0.0165986
-0.0165983
-0.016598
-0.0167855
-0.0167152
-0.0167152
-0.0167854
-0.0167152
-0.0167854
-0.0167856
-0.0167152
-0.016715
-0.0167854
-0.0167267
-0.0167268
-0.0167268
-0.0168676
-0.0168676
-0.0168676
-0.0168675
-0.0167857
-0.016715
-0.0167261
-0.0167748
-0.0167147
-0.0167855
-0.0167746
-0.0167152
-0.0167854
-0.0167855
-0.0167262
-0.0167152
-0.0167748
-0.016715
-0.0167744
-0.0167854
-0.0167151
-0.0167152
-0.016786
-0.0167855
-0.0167855
-0.0169729
-0.0169025
-0.0169025
-0.0169728
-0.0169025
-0.0169727
-0.016973
-0.0169025
-0.0169024
-0.0169728
-0.0169142
-0.0169142
-0.016914
-0.017055
-0.017055
-0.017055
-0.0170551
-0.0169733
-0.0169023
-0.0169129
-0.016963
-0.0169018
-0.016973
-0.0169626
-0.0169026
-0.0169728
-0.0169729
-0.0169131
-0.0169025
-0.0169629
-0.0169022
-0.0169624
-0.0169728
-0.0169024
-0.0169026
-0.0169743
-0.016973
-0.0169727
-0.0171603
-0.0170899
-0.0170899
-0.0171601
-0.0170899
-0.01716
-0.0171604
-0.0170899
-0.0170898
-0.0171601
-0.0171016
-0.0171017
-0.0171017
-0.017243
-0.017243
-0.0172429
-0.0172429
-0.0171609
-0.0170896
-0.0170991
-0.0171519
-0.0170885
-0.0171604
-0.0171515
-0.0170899
-0.01716
-0.0171606
-0.0170994
-0.0170898
-0.0171516
-0.0170891
-0.0171512
-0.0171603
-0.0170898
-0.0170899
-0.0171625
-0.0171602
-0.0171602
-0.0173478
-0.0172771
-0.017277
-0.0173472
-0.0172772
-0.0173471
-0.017348
-0.0172771
-0.017277
-0.0173473
-0.0172893
-0.0172893
-0.0172893
-0.017432
-0.0174319
-0.0174319
-0.0174319
-0.0173489
-0.0172769
-0.0172843
-0.0173423
-0.0172746
-0.0173478
-0.0173426
-0.0172772
-0.0173472
-0.0173486
-0.0172847
-0.0172771
-0.017342
-0.0172756
-0.0173424
-0.0173477
-0.0172771
-0.0172772
-0.0173518
-0.0173475
-0.0173472
-0.0175356
-0.0174643
-0.0174633
-0.017535
-0.0174646
-0.0175346
-0.0175362
-0.0174644
-0.0174638
-0.0175353
-0.0174729
-0.0174729
-0.0174729
-0.0175942
-0.0175941
-0.0175942
-0.0175944
-0.0175362
-0.0174641
-0.0174635
-0.0175327
-0.0174589
-0.0175354
-0.0175362
-0.0174648
-0.0175349
-0.0175355
-0.0174641
-0.0174642
-0.017532
-0.0174608
-0.0175355
-0.0175352
-0.0174646
-0.0174646
-0.0175372
-0.017535
-0.0175348
-0.0177311
-0.0176567
-0.0176508
-0.0177528
-0.0176593
-0.0177538
-0.0177325
-0.0176576
-0.0176511
-0.0177532
-0.0175669
-0.0175674
-0.0175675
-0.0170669
-0.017058
-0.0170676
-0.0170682
-0.0176918
-0.0176516
-0.0175688
-0.0176407
-0.0176281
-0.0177279
-0.0176369
-0.01766
-0.0177547
-0.0176913
-0.0175645
-0.017652
-0.017639
-0.0176246
-0.0176316
-0.0177272
-0.0176573
-0.0176567
-0.0176458
-0.0177407
-0.0177397
-0.0182231
-0.0179772
-0.0178503
-0.0191459
-0.0180373
-0.0193816
-0.0182275
-0.0179789
-0.0178526
-0.0191497
-0.0134463
-0.0161875
-0.0161855
-0.0154379
-0.0159039
-0.0144833
-0.0144903
-0.017394
-0.0178649
-0.0166796
-0.0159352
-0.0175913
-0.0186813
-0.0150452
-0.0180388
-0.0193854
-0.0173971
-0.0166753
-0.017862
-0.0159104
-0.0175878
-0.015041
-0.0186802
-0.0179698
-0.0179684
-0.0163826
-0.0189454
-0.0189398
-0.0157555
-0.0156854
-0.0157555
-0.0156853
-0.0156854
-0.0157555
-0.0157555
-0.0156853
-0.0156852
-0.0156621
-0.0156501
-0.015662
-0.0156854
-0.0157554
-0.0156855
-0.0157552
-0.0156854
-0.0157554
-0.0156855
-0.0157552
-0.0156853
-0.0156968
-0.0157553
-0.015744
-0.0156853
-0.0156967
-0.0157552
-0.0156853
-0.0156968
-0.0157553
-0.015744
-0.0156853
-0.0156967
-0.0157552
-0.0156619
-0.015662
-0.0156619
-0.0156618
-0.0157555
-0.0156854
-0.0156854
-0.0157555
-0.0157555
-0.0156853
-0.0156852
-0.0157555
-0.0156853
-0.0156851
-0.0157555
-0.0156853
-0.0157556
-0.0156851
-0.0156969
-0.0157555
-0.0157439
-0.0156852
-0.0156968
-0.0157557
-0.0156851
-0.0157555
-0.0156853
-0.0157556
-0.0156851
-0.015697
-0.0157439
-0.0157555
-0.0156968
-0.0156853
-0.0157557
-0.0156619
-0.0156618
-0.0156618
-0.0156504
-0.01565
-0.0156618
-0.0156619
-0.0156618
-0.0156851
-0.0156969
-0.0157555
-0.0157438
-0.0156852
-0.0156968
-0.0157557
-0.0156851
-0.0157555
-0.0156853
-0.0157556
-0.0156851
-0.0156969
-0.0157438
-0.0157555
-0.0156968
-0.0156853
-0.0157557
-0.0156851
-0.0157555
-0.0156853
-0.0157556
-0.0157555
-0.0156853
-0.0156854
-0.0157556
-0.0157555
-0.0156852
-0.0156853
-0.0157554
-0.0156854
-0.0156853
-0.0156968
-0.015744
-0.0157553
-0.0156967
-0.0156853
-0.0157552
-0.0156853
-0.0156968
-0.015744
-0.0157553
-0.0156966
-0.0156853
-0.0157552
-0.0156854
-0.0157554
-0.0156856
-0.0157552
-0.0156854
-0.0157554
-0.0156855
-0.0157552
-0.0156618
-0.015662
-0.0156854
-0.0157555
-0.0157556
-0.0156852
-0.0156853
-0.0157555
-0.0156853
-0.0157555
-0.0156854
-0.0157789
-0.0158491
-0.0157789
-0.0158491
-0.0157789
-0.0157788
-0.0158491
-0.0158491
-0.0158492
-0.0159427
-0.0158725
-0.0159427
-0.0158725
-0.0158725
-0.0159427
-0.0159428
-0.0158725
-0.0158725
-0.015849
-0.0157789
-0.0157789
-0.0158491
-0.0158489
-0.0157789
-0.0157906
-0.0158375
-0.0157792
-0.015849
-0.0158374
-0.0158489
-0.0157789
-0.0157906
-0.0158375
-0.0157792
-0.015849
-0.0158374
-0.0158725
-0.0159427
-0.0158725
-0.0159427
-0.0158725
-0.0159427
-0.0158725
-0.0159427
-0.0158726
-0.0158841
-0.0159426
-0.0159311
-0.0158726
-0.015884
-0.0159426
-0.0158726
-0.0158841
-0.0159426
-0.0159311
-0.0158726
-0.015884
-0.0159426
-0.0157789
-0.0157788
-0.0158491
-0.015849
-0.0158493
-0.0157789
-0.0158491
-0.0159427
-0.0158725
-0.0158725
-0.0159427
-0.0159428
-0.0158724
-0.0158725
-0.0159427
-0.0158725
-0.0158493
-0.0157789
-0.0157905
-0.0158375
-0.0157787
-0.0158491
-0.0158375
-0.0158492
-0.0157789
-0.0157788
-0.0158491
-0.0158493
-0.0157906
-0.0157789
-0.0158375
-0.0157787
-0.0158375
-0.0158491
-0.0158724
-0.0159427
-0.0158725
-0.0159428
-0.0158723
-0.0158841
-0.0159428
-0.0159311
-0.0158725
-0.0158841
-0.0159429
-0.0158724
-0.0159427
-0.0158725
-0.0159428
-0.0158723
-0.0158841
-0.0159311
-0.0159428
-0.0158841
-0.0158725
-0.0159429
-0.0158492
-0.0157789
-0.0157788
-0.0158491
-0.0158493
-0.0157905
-0.0157788
-0.0158375
-0.0157787
-0.0158375
-0.0158492
-0.0158492
-0.0157789
-0.0157788
-0.0158491
-0.0158723
-0.0158841
-0.0159427
-0.0159311
-0.0158725
-0.0158841
-0.0159429
-0.0158724
-0.0159427
-0.0158725
-0.0159428
-0.0158723
-0.0158841
-0.0159312
-0.0159428
-0.0158841
-0.0158725
-0.0159429
-0.0158724
-0.0159427
-0.0158725
-0.0159428
-0.0157789
-0.0157788
-0.0158491
-0.0158492
-0.0158491
-0.0157789
-0.0158491
-0.0159427
-0.0158725
-0.0158725
-0.0159428
-0.0159427
-0.0158725
-0.0158725
-0.0159427
-0.0158726
-0.0158489
-0.0157906
-0.015779
-0.0158374
-0.0157792
-0.0158374
-0.015849
-0.015849
-0.0157789
-0.0157789
-0.0158491
-0.015849
-0.0157789
-0.0157789
-0.0158491
-0.0158726
-0.0158841
-0.015931
-0.0159426
-0.015884
-0.0158726
-0.0159426
-0.0158726
-0.0158841
-0.015931
-0.0159426
-0.0158841
-0.0158726
-0.0159426
-0.0158725
-0.0159427
-0.0158725
-0.0159427
-0.0158725
-0.0159427
-0.0158725
-0.0159427
-0.0157789
-0.0158491
-0.0157789
-0.0158491
-0.0158722
-0.0159428
-0.0159427
-0.0158724
-0.0158725
-0.0159427
-0.0158725
-0.0159427
-0.0158725
-0.0159661
-0.0160363
-0.0159661
-0.0160363
-0.0159661
-0.0159661
-0.0160364
-0.0160363
-0.0160364
-0.0161299
-0.0160598
-0.0161299
-0.0160597
-0.0160598
-0.01613
-0.01613
-0.0160597
-0.0160597
-0.0160363
-0.0159661
-0.0159661
-0.0160363
-0.0160362
-0.0159662
-0.0159777
-0.0160248
-0.0159662
-0.0160362
-0.0160248
-0.0160362
-0.0159662
-0.0159777
-0.0160248
-0.0159662
-0.0160362
-0.0160248
-0.0160597
-0.0161299
-0.0160598
-0.0161299
-0.0160597
-0.0161299
-0.0160598
-0.01613
-0.0160598
-0.0160713
-0.0161299
-0.0161184
-0.0160598
-0.0160713
-0.0161298
-0.0160598
-0.0160713
-0.0161299
-0.0161184
-0.0160598
-0.0160713
-0.0161298
-0.0159661
-0.0159661
-0.0160364
-0.0160363
-0.0160364
-0.0159661
-0.0160363
-0.0161299
-0.0160598
-0.0160597
-0.01613
-0.01613
-0.0160597
-0.0160597
-0.0161299
-0.0160597
-0.0160365
-0.0159661
-0.0159777
-0.0160248
-0.0159659
-0.0160364
-0.0160247
-0.0160365
-0.0159661
-0.015966
-0.0160363
-0.0160365
-0.0159777
-0.0159661
-0.0160248
-0.0159659
-0.0160248
-0.0160364
-0.0160596
-0.01613
-0.0160597
-0.0161301
-0.0160595
-0.0160713
-0.01613
-0.0161184
-0.0160597
-0.0160713
-0.0161301
-0.0160596
-0.01613
-0.0160597
-0.0161301
-0.0160595
-0.0160713
-0.0161184
-0.01613
-0.0160713
-0.0160597
-0.0161301
-0.0160364
-0.0159661
-0.015966
-0.0160363
-0.0160365
-0.0159777
-0.0159661
-0.0160248
-0.0159659
-0.0160247
-0.0160364
-0.0160364
-0.0159661
-0.015966
-0.0160363
-0.0160595
-0.0160713
-0.01613
-0.0161184
-0.0160597
-0.0160713
-0.0161301
-0.0160596
-0.01613
-0.0160597
-0.0161301
-0.0160595
-0.0160712
-0.0161184
-0.01613
-0.0160712
-0.0160597
-0.0161301
-0.0160596
-0.0161299
-0.0160597
-0.0161301
-0.0159661
-0.0159661
-0.0160363
-0.0160364
-0.0160363
-0.0159661
-0.0160363
-0.0161299
-0.0160597
-0.0160597
-0.01613
-0.0161299
-0.0160597
-0.0160597
-0.0161299
-0.0160598
-0.0160362
-0.0159777
-0.0159662
-0.0160248
-0.0159662
-0.0160247
-0.0160362
-0.0160363
-0.0159661
-0.0159661
-0.0160363
-0.0160363
-0.0159661
-0.0159661
-0.0160363
-0.0160598
-0.0160713
-0.0161184
-0.0161299
-0.0160713
-0.0160598
-0.0161298
-0.0160598
-0.0160713
-0.0161184
-0.0161299
-0.0160713
-0.0160598
-0.0161298
-0.0160597
-0.0161299
-0.0160598
-0.0161299
-0.0160597
-0.0161299
-0.0160598
-0.0161299
-0.0159661
-0.0160363
-0.0159662
-0.0160363
-0.0160598
-0.0161299
-0.01613
-0.0160597
-0.0160597
-0.0161299
-0.0160597
-0.0161299
-0.0160598
-0.0161534
-0.0162235
-0.0161534
-0.0162236
-0.0161533
-0.0161533
-0.0162237
-0.0162236
-0.0162236
-0.0163172
-0.016247
-0.0163172
-0.016247
-0.0162469
-0.0163172
-0.0163172
-0.0162469
-0.0162469
-0.0162236
-0.0161534
-0.0161534
-0.0162235
-0.0162235
-0.0161534
-0.0161649
-0.0162121
-0.0161535
-0.0162235
-0.0162121
-0.0162235
-0.0161534
-0.0161649
-0.0162121
-0.0161535
-0.0162235
-0.0162121
-0.016247
-0.0163172
-0.016247
-0.0163172
-0.016247
-0.0163172
-0.016247
-0.0163172
-0.0162471
-0.0162584
-0.0163171
-0.0163057
-0.0162471
-0.0162585
-0.0163171
-0.0162471
-0.0162584
-0.0163171
-0.0163057
-0.016247
-0.0162585
-0.0163171
-0.0161534
-0.0161533
-0.0162237
-0.0162235
-0.0162237
-0.0161533
-0.0162236
-0.0163172
-0.016247
-0.0162469
-0.0163172
-0.0163172
-0.0162469
-0.016247
-0.0163172
-0.016247
-0.0162237
-0.0161533
-0.0161649
-0.0162121
-0.0161531
-0.0162236
-0.0162121
-0.0162237
-0.0161534
-0.0161532
-0.0162236
-0.0162238
-0.0161649
-0.0161533
-0.0162121
-0.0161531
-0.0162121
-0.0162236
-0.0162468
-0.0163172
-0.016247
-0.0163173
-0.0162467
-0.0162584
-0.0163172
-0.0163057
-0.0162469
-0.0162584
-0.0163174
-0.0162468
-0.0163172
-0.0162469
-0.0163173
-0.0162467
-0.0162584
-0.0163057
-0.0163172
-0.0162584
-0.0162469
-0.0163174
-0.0162237
-0.0161533
-0.0161532
-0.0162236
-0.0162238
-0.0161648
-0.0161533
-0.0162121
-0.0161531
-0.0162121
-0.0162236
-0.0162237
-0.0161533
-0.0161532
-0.0162236
-0.0162467
-0.0162584
-0.0163172
-0.0163057
-0.0162469
-0.0162584
-0.0163174
-0.0162469
-0.0163172
-0.016247
-0.0163173
-0.0162467
-0.0162584
-0.0163058
-0.0163172
-0.0162585
-0.0162469
-0.0163174
-0.0162469
-0.0163172
-0.016247
-0.0163173
-0.0161533
-0.0161533
-0.0162236
-0.0162236
-0.0162235
-0.0161534
-0.0162235
-0.0163172
-0.0162469
-0.0162469
-0.0163172
-0.0163172
-0.0162469
-0.0162469
-0.0163171
-0.016247
-0.0162235
-0.0161649
-0.0161534
-0.016212
-0.0161534
-0.016212
-0.0162234
-0.0162236
-0.0161534
-0.0161534
-0.0162235
-0.0162236
-0.0161534
-0.0161534
-0.0162235
-0.0162471
-0.0162584
-0.0163057
-0.0163171
-0.0162585
-0.016247
-0.0163171
-0.016247
-0.0162585
-0.0163057
-0.0163171
-0.0162585
-0.016247
-0.0163171
-0.016247
-0.0163172
-0.016247
-0.0163172
-0.016247
-0.0163172
-0.016247
-0.0163172
-0.0161533
-0.0162236
-0.0161534
-0.0162235
-0.0162466
-0.0163173
-0.0163172
-0.0162469
-0.0162469
-0.0163172
-0.016247
-0.0163172
-0.016247
-0.0163406
-0.0164108
-0.0163406
-0.0164108
-0.0163406
-0.0163405
-0.016411
-0.0164108
-0.0164109
-0.0165044
-0.0164342
-0.0165044
-0.0164342
-0.016434
-0.0165045
-0.0165045
-0.0164342
-0.0164341
-0.0164108
-0.0163406
-0.0163406
-0.0164108
-0.0164107
-0.0163407
-0.016352
-0.0163995
-0.0163407
-0.0164107
-0.0163994
-0.0164107
-0.0163407
-0.016352
-0.0163995
-0.0163407
-0.0164107
-0.0163994
-0.0164342
-0.0165044
-0.0164342
-0.0165044
-0.0164342
-0.0165044
-0.0164342
-0.0165044
-0.0164342
-0.0164455
-0.0165044
-0.0164931
-0.0164343
-0.0164456
-0.0165044
-0.0164342
-0.0164455
-0.0165044
-0.0164931
-0.0164343
-0.0164456
-0.0165044
-0.0163406
-0.0163405
-0.016411
-0.0164108
-0.0164108
-0.0163406
-0.0164108
-0.0165044
-0.0164342
-0.016434
-0.0165045
-0.0165045
-0.0164342
-0.0164341
-0.0165044
-0.0164342
-0.016411
-0.0163405
-0.016352
-0.0163995
-0.0163403
-0.0164108
-0.0163994
-0.0164109
-0.0163406
-0.0163405
-0.0164108
-0.016411
-0.016352
-0.0163405
-0.0163995
-0.0163403
-0.0163994
-0.0164108
-0.0164341
-0.0165044
-0.0164342
-0.0165046
-0.0164339
-0.0164455
-0.0165045
-0.0164931
-0.0164341
-0.0164455
-0.0165047
-0.0164341
-0.0165044
-0.0164342
-0.0165046
-0.0164339
-0.0164455
-0.0164931
-0.0165045
-0.0164456
-0.0164341
-0.0165047
-0.0164109
-0.0163406
-0.0163405
-0.0164108
-0.016411
-0.016352
-0.0163405
-0.0163995
-0.0163403
-0.0163994
-0.0164108
-0.0164109
-0.0163406
-0.0163405
-0.0164108
-0.0164339
-0.0164455
-0.0165045
-0.0164931
-0.0164341
-0.0164455
-0.0165047
-0.0164341
-0.0165044
-0.0164342
-0.0165046
-0.0164339
-0.0164454
-0.0164931
-0.0165045
-0.0164455
-0.0164341
-0.0165047
-0.0164341
-0.0165044
-0.0164342
-0.0165046
-0.0163405
-0.0163405
-0.0164109
-0.0164109
-0.0164108
-0.0163406
-0.0164108
-0.0165044
-0.0164342
-0.0164339
-0.0165045
-0.0165044
-0.0164341
-0.0164342
-0.0165044
-0.0164343
-0.0164107
-0.016352
-0.0163407
-0.0163995
-0.0163407
-0.0163994
-0.0164107
-0.0164108
-0.0163406
-0.0163406
-0.0164108
-0.0164108
-0.0163406
-0.0163406
-0.0164108
-0.0164342
-0.0164455
-0.0164931
-0.0165044
-0.0164456
-0.0164343
-0.0165044
-0.0164342
-0.0164456
-0.0164931
-0.0165044
-0.0164456
-0.0164343
-0.0165044
-0.0164342
-0.0165044
-0.0164342
-0.0165044
-0.0164342
-0.0165044
-0.0164342
-0.0165044
-0.0163406
-0.0164108
-0.0163406
-0.0164108
-0.016434
-0.0165044
-0.0165045
-0.0164341
-0.0164342
-0.0165044
-0.0164342
-0.0165044
-0.0164342
-0.0165279
-0.0165981
-0.0165278
-0.0165981
-0.0165278
-0.0165278
-0.0165985
-0.0165981
-0.0165981
-0.0166917
-0.0166215
-0.0166917
-0.0166215
-0.0166209
-0.0166918
-0.0166918
-0.0166215
-0.0166214
-0.0165981
-0.0165279
-0.0165279
-0.0165981
-0.016598
-0.0165279
-0.0165392
-0.016587
-0.0165278
-0.016598
-0.0165868
-0.016598
-0.0165279
-0.0165392
-0.016587
-0.0165278
-0.016598
-0.0165869
-0.0166215
-0.0166917
-0.0166215
-0.0166918
-0.0166215
-0.0166917
-0.0166215
-0.0166918
-0.0166214
-0.0166325
-0.0166917
-0.0166806
-0.0166216
-0.0166327
-0.0166917
-0.0166214
-0.0166325
-0.0166917
-0.0166806
-0.0166215
-0.0166327
-0.0166917
-0.0165278
-0.0165277
-0.0165985
-0.016598
-0.0165982
-0.0165278
-0.0165981
-0.0166917
-0.0166215
-0.0166209
-0.0166918
-0.0166918
-0.0166214
-0.0166215
-0.0166917
-0.0166215
-0.0165983
-0.0165278
-0.0165391
-0.016587
-0.0165275
-0.0165981
-0.0165869
-0.0165982
-0.0165278
-0.0165277
-0.0165981
-0.0165983
-0.0165391
-0.0165278
-0.016587
-0.0165275
-0.0165869
-0.0165982
-0.0166214
-0.0166918
-0.0166215
-0.0166919
-0.0166211
-0.0166325
-0.0166918
-0.0166807
-0.0166214
-0.0166326
-0.016692
-0.0166214
-0.0166918
-0.0166215
-0.0166919
-0.0166211
-0.0166325
-0.0166807
-0.0166918
-0.0166326
-0.0166214
-0.016692
-0.0165982
-0.0165278
-0.0165277
-0.0165981
-0.0165983
-0.0165391
-0.0165277
-0.0165871
-0.0165275
-0.0165869
-0.0165982
-0.0165982
-0.0165278
-0.0165277
-0.0165981
-0.0166211
-0.0166325
-0.0166918
-0.0166807
-0.0166214
-0.0166326
-0.016692
-0.0166214
-0.0166918
-0.0166215
-0.0166919
-0.0166211
-0.0166325
-0.0166808
-0.0166919
-0.0166326
-0.0166214
-0.016692
-0.0166214
-0.0166918
-0.0166215
-0.0166919
-0.0165278
-0.0165278
-0.0165984
-0.0165982
-0.0165981
-0.0165279
-0.0165981
-0.0166917
-0.0166215
-0.0166209
-0.0166918
-0.0166918
-0.0166214
-0.0166215
-0.0166917
-0.0166215
-0.016598
-0.0165392
-0.0165279
-0.0165869
-0.0165278
-0.0165868
-0.016598
-0.0165981
-0.0165279
-0.0165279
-0.0165981
-0.0165981
-0.0165279
-0.0165279
-0.016598
-0.0166214
-0.0166325
-0.0166806
-0.0166917
-0.0166327
-0.0166215
-0.0166917
-0.0166214
-0.0166326
-0.0166806
-0.0166917
-0.0166327
-0.0166215
-0.0166917
-0.0166215
-0.0166917
-0.0166215
-0.0166918
-0.0166215
-0.0166917
-0.0166215
-0.0166918
-0.0165278
-0.0165981
-0.0165279
-0.016598
-0.0166206
-0.0166919
-0.0166917
-0.0166214
-0.0166215
-0.0166917
-0.0166215
-0.0166917
-0.0166215
-0.0167152
-0.0167854
-0.0167152
-0.0167854
-0.0167151
-0.0167151
-0.0167861
-0.0167855
-0.0167855
-0.0168791
-0.0168089
-0.0168791
-0.0168088
-0.0168075
-0.0168791
-0.0168792
-0.0168088
-0.0168088
-0.0167855
-0.0167152
-0.0167152
-0.0167854
-0.0167854
-0.0167152
-0.0167262
-0.0167748
-0.016715
-0.0167854
-0.0167745
-0.0167854
-0.0167152
-0.0167262
-0.0167748
-0.016715
-0.0167854
-0.0167745
-0.0168088
-0.0168791
-0.0168089
-0.0168791
-0.0168088
-0.0168791
-0.0168089
-0.0168791
-0.0168086
-0.0168194
-0.0168791
-0.0168684
-0.0168089
-0.0168197
-0.0168792
-0.0168086
-0.0168194
-0.0168791
-0.0168684
-0.0168089
-0.0168197
-0.0168792
-0.0167151
-0.0167151
-0.0167861
-0.0167855
-0.0167855
-0.0167152
-0.0167854
-0.0168791
-0.0168089
-0.0168075
-0.0168791
-0.0168792
-0.0168088
-0.0168088
-0.0168791
-0.0168088
-0.0167858
-0.0167151
-0.0167261
-0.0167748
-0.0167147
-0.0167855
-0.0167746
-0.0167856
-0.0167152
-0.016715
-0.0167854
-0.0167858
-0.0167261
-0.0167151
-0.0167748
-0.0167147
-0.0167746
-0.0167855
-0.0168087
-0.0168791
-0.0168088
-0.0168793
-0.0168083
-0.0168193
-0.0168792
-0.0168686
-0.0168087
-0.0168195
-0.0168795
-0.0168087
-0.0168791
-0.0168088
-0.0168793
-0.0168083
-0.0168194
-0.0168686
-0.0168792
-0.0168196
-0.0168087
-0.0168795
-0.0167856
-0.0167152
-0.016715
-0.0167854
-0.0167857
-0.0167261
-0.0167151
-0.0167748
-0.0167147
-0.0167746
-0.0167855
-0.0167856
-0.0167152
-0.016715
-0.0167854
-0.0168083
-0.0168193
-0.0168792
-0.0168685
-0.0168087
-0.0168195
-0.0168795
-0.0168087
-0.0168791
-0.0168088
-0.0168793
-0.0168083
-0.0168192
-0.0168685
-0.0168792
-0.0168195
-0.0168087
-0.0168795
-0.0168087
-0.0168791
-0.0168088
-0.0168793
-0.0167151
-0.0167151
-0.016786
-0.0167855
-0.0167854
-0.0167152
-0.0167854
-0.0168791
-0.0168088
-0.0168074
-0.0168792
-0.0168791
-0.0168088
-0.0168088
-0.0168791
-0.0168089
-0.0167855
-0.0167262
-0.0167152
-0.0167747
-0.016715
-0.0167744
-0.0167854
-0.0167855
-0.0167152
-0.0167152
-0.0167854
-0.0167855
-0.0167152
-0.0167152
-0.0167854
-0.0168086
-0.0168194
-0.0168684
-0.0168791
-0.0168197
-0.0168089
-0.0168792
-0.0168086
-0.0168194
-0.0168684
-0.0168791
-0.0168197
-0.0168089
-0.0168792
-0.0168089
-0.0168791
-0.0168089
-0.0168792
-0.0168089
-0.0168791
-0.0168089
-0.0168792
-0.0167152
-0.0167854
-0.0167152
-0.0167854
-0.0168075
-0.0168791
-0.0168792
-0.0168088
-0.0168088
-0.0168791
-0.0168088
-0.0168791
-0.0168089
-0.0169025
-0.0169727
-0.0169025
-0.0169728
-0.0169025
-0.0169025
-0.016974
-0.0169728
-0.0169729
-0.0170664
-0.0169962
-0.0170664
-0.0169962
-0.0169933
-0.0170665
-0.0170665
-0.0169962
-0.0169961
-0.0169729
-0.0169025
-0.0169025
-0.0169727
-0.0169729
-0.0169025
-0.0169131
-0.0169629
-0.0169022
-0.0169728
-0.0169625
-0.0169729
-0.0169025
-0.0169131
-0.0169629
-0.0169022
-0.0169728
-0.0169625
-0.0169962
-0.0170664
-0.0169962
-0.0170666
-0.0169962
-0.0170664
-0.0169962
-0.0170666
-0.0169957
-0.0170058
-0.0170665
-0.0170567
-0.0169962
-0.0170063
-0.0170667
-0.0169957
-0.0170058
-0.0170665
-0.0170567
-0.0169962
-0.0170063
-0.0170667
-0.0169025
-0.0169024
-0.016974
-0.0169727
-0.016973
-0.0169025
-0.0169728
-0.0170664
-0.0169962
-0.0169933
-0.0170665
-0.0170665
-0.0169961
-0.0169962
-0.0170664
-0.0169962
-0.0169733
-0.0169024
-0.0169129
-0.016963
-0.0169018
-0.0169729
-0.0169626
-0.016973
-0.0169025
-0.0169024
-0.0169728
-0.0169733
-0.016913
-0.0169024
-0.0169629
-0.0169018
-0.0169627
-0.0169729
-0.0169961
-0.0170665
-0.0169962
-0.0170667
-0.0169952
-0.0170057
-0.0170667
-0.0170569
-0.016996
-0.0170061
-0.0170671
-0.0169961
-0.0170665
-0.0169962
-0.0170667
-0.0169952
-0.0170058
-0.0170569
-0.0170667
-0.0170062
-0.016996
-0.0170671
-0.016973
-0.0169025
-0.0169024
-0.0169728
-0.0169733
-0.0169129
-0.0169023
-0.016963
-0.0169018
-0.0169627
-0.016973
-0.016973
-0.0169025
-0.0169024
-0.0169728
-0.0169952
-0.0170057
-0.0170666
-0.0170569
-0.016996
-0.0170061
-0.0170671
-0.0169961
-0.0170664
-0.0169962
-0.0170667
-0.0169952
-0.0170058
-0.017057
-0.0170667
-0.0170062
-0.016996
-0.0170671
-0.0169961
-0.0170665
-0.0169962
-0.0170667
-0.0169025
-0.0169025
-0.0169739
-0.0169729
-0.0169728
-0.0169025
-0.0169727
-0.0170664
-0.0169962
-0.0169933
-0.0170666
-0.0170665
-0.0169962
-0.0169962
-0.0170664
-0.0169962
-0.0169729
-0.0169131
-0.0169025
-0.0169628
-0.0169022
-0.0169624
-0.0169728
-0.0169729
-0.0169025
-0.0169025
-0.0169728
-0.0169729
-0.0169025
-0.0169025
-0.0169727
-0.0169957
-0.0170058
-0.0170567
-0.0170666
-0.0170064
-0.0169962
-0.0170668
-0.0169957
-0.0170059
-0.0170566
-0.0170665
-0.0170065
-0.0169961
-0.0170668
-0.0169962
-0.0170664
-0.0169962
-0.0170666
-0.0169962
-0.0170664
-0.0169962
-0.0170666
-0.0169025
-0.0169728
-0.0169025
-0.0169727
-0.0169933
-0.0170666
-0.0170664
-0.0169961
-0.0169962
-0.0170664
-0.0169962
-0.0170664
-0.0169962
-0.0170899
-0.01716
-0.0170899
-0.01716
-0.0170898
-0.0170898
-0.0171625
-0.0171601
-0.0171602
-0.0172536
-0.0171835
-0.0172536
-0.0171835
-0.0171779
-0.0172537
-0.0172538
-0.0171835
-0.0171835
-0.0171603
-0.0170899
-0.0170899
-0.0171601
-0.0171606
-0.0170898
-0.0170993
-0.0171517
-0.0170891
-0.0171603
-0.0171512
-0.0171606
-0.0170898
-0.0170994
-0.0171516
-0.0170891
-0.0171602
-0.0171512
-0.0171835
-0.0172537
-0.0171835
-0.017254
-0.0171835
-0.0172537
-0.0171835
-0.017254
-0.0171824
-0.0171913
-0.0172539
-0.0172464
-0.0171835
-0.0171922
-0.0172545
-0.0171824
-0.0171913
-0.0172539
-0.0172464
-0.0171835
-0.0171922
-0.0172545
-0.0170898
-0.0170898
-0.0171625
-0.0171601
-0.0171602
-0.0170899
-0.01716
-0.0172536
-0.0171835
-0.0171779
-0.0172537
-0.0172538
-0.0171835
-0.0171835
-0.0172536
-0.0171835
-0.0171609
-0.0170896
-0.0170991
-0.0171519
-0.0170886
-0.0171604
-0.0171515
-0.0171604
-0.0170899
-0.0170898
-0.0171601
-0.0171609
-0.0170992
-0.0170896
-0.0171518
-0.0170886
-0.0171515
-0.0171604
-0.0171834
-0.0172537
-0.0171835
-0.0172541
-0.0171817
-0.0171912
-0.0172541
-0.0172467
-0.0171833
-0.0171919
-0.0172548
-0.0171834
-0.0172537
-0.0171835
-0.0172541
-0.0171817
-0.0171913
-0.0172466
-0.0172541
-0.017192
-0.0171833
-0.0172548
-0.0171604
-0.0170899
-0.0170898
-0.0171601
-0.0171609
-0.0170992
-0.0170896
-0.0171518
-0.0170886
-0.0171514
-0.0171604
-0.0171604
-0.0170899
-0.0170898
-0.0171601
-0.0171817
-0.0171912
-0.0172541
-0.0172467
-0.0171832
-0.0171919
-0.0172548
-0.0171834
-0.0172537
-0.0171835
-0.0172541
-0.0171817
-0.0171911
-0.0172465
-0.0172541
-0.0171918
-0.0171832
-0.0172548
-0.0171834
-0.0172537
-0.0171835
-0.0172541
-0.0170898
-0.0170898
-0.0171625
-0.0171602
-0.0171601
-0.0170899
-0.01716
-0.0172536
-0.0171835
-0.0171777
-0.0172538
-0.0172537
-0.0171835
-0.0171835
-0.0172536
-0.0171836
-0.0171606
-0.0170994
-0.0170898
-0.0171516
-0.0170891
-0.0171512
-0.0171603
-0.0171603
-0.0170899
-0.0170899
-0.0171601
-0.0171603
-0.0170899
-0.0170899
-0.0171601
-0.0171825
-0.0171913
-0.0172464
-0.017254
-0.0171922
-0.0171835
-0.0172546
-0.0171825
-0.0171913
-0.0172464
-0.017254
-0.0171922
-0.0171835
-0.0172546
-0.0171835
-0.0172537
-0.0171835
-0.017254
-0.0171835
-0.0172537
-0.0171835
-0.017254
-0.0170899
-0.01716
-0.0170899
-0.01716
-0.0171779
-0.0172538
-0.0172538
-0.0171835
-0.0171835
-0.0172536
-0.0171835
-0.0172536
-0.0171835
-0.0172772
-0.0173471
-0.0172772
-0.0173472
-0.0172771
-0.0172771
-0.0173514
-0.0173473
-0.0173474
-0.0174406
-0.0173708
-0.0174407
-0.0173709
-0.0173605
-0.0174408
-0.017441
-0.0173708
-0.0173708
-0.0173478