/*--------------------------------*- C++ -*----------------------------------*\
| =========                 |                                                 |
| \\      /  F ield         | OpenFOAM: The Open Source CFD Toolbox           |
|  \\    /   O peration     | Version:  2206                                  |
|   \\  /    A nd           | Website:  www.openfoam.com                      |
|    \\/     M anipulation  |                                                 |
\*---------------------------------------------------------------------------*/
FoamFile
{
    version     2.0;
    format      ascii;
    arch        "LSB;label=32;scalar=64";
    class       surfaceScalarField;
    location    "1";
    object      phi;
}
// * * * * * * * * * * * * * * * * * * * * * * * * * * * * * * * * * * * * * //

dimensions      [0 3 -1 0 0 0 0];

oriented        oriented;

internalField   nonuniform List<scalar> 
199822
(
1.13082e-11
1.1741e-11
-1.2389e-07
-1.04288e-11
-9.70876e-12
1.23888e-07
-1.13475e-07
-2.2921e-11
-1.26223e-11
-5.5427e-12
1.13483e-07
4.3744e-11
2.48727e-11
-3.77213e-11
-7.38017e-11
7.19141e-11
7.62262e-11
-7.26234e-11
-1.14693e-07
-2.82535e-11
-9.91066e-12
-5.62032e-12
1.14705e-07
3.02448e-11
2.89304e-11
-2.97244e-11
-1.4868e-11
4.05882e-11
1.61515e-11
-3.97573e-11
-2.72314e-08
-1.39929e-10
1.62586e-10
-5.8678e-11
1.82345e-10
2.70851e-08
1.67104e-11
1.85037e-11
-1.23892e-07
-1.61221e-11
-1.52964e-11
1.23888e-07
-1.13468e-07
-2.27631e-11
-1.88302e-11
-9.43092e-12
1.13486e-07
4.40597e-11
2.53891e-11
-4.17053e-11
-7.33156e-11
7.23501e-11
7.66394e-11
-6.962e-11
-1.14693e-07
-2.74313e-11
-1.5263e-11
-8.11921e-12
1.14708e-07
3.08841e-11
2.96471e-11
-2.91663e-11
-1.43088e-11
4.09479e-11
1.65805e-11
-3.91791e-11
-2.72305e-08
3.39045e-11
9.23492e-12
7.52901e-11
2.93566e-11
2.70827e-08
2.76676e-11
2.98265e-11
-1.23894e-07
-2.59972e-11
-2.49607e-11
1.23888e-07
-1.1346e-07
-2.21821e-11
-3.07766e-11
-1.36985e-11
1.13487e-07
4.45124e-11
2.60577e-11
-3.66082e-11
-7.24563e-11
7.29775e-11
7.72531e-11
-7.12018e-11
-1.14688e-07
-2.69426e-11
-2.48357e-11
-1.44778e-11
1.14714e-07
3.13877e-11
3.04189e-11
-2.84215e-11
-1.34566e-11
4.15404e-11
1.71941e-11
-3.83312e-11
-2.72286e-08
-1.40847e-10
1.61579e-10
-5.88689e-11
1.82347e-10
2.70844e-08
4.60614e-11
4.85441e-11
-1.23896e-07
-4.25178e-11
-4.12344e-11
1.23886e-07
-1.13449e-07
-2.15667e-11
-4.90848e-11
-2.33493e-11
1.13497e-07
4.54265e-11
2.74216e-11
-3.96685e-11
-7.11421e-11
7.39529e-11
7.81663e-11
-6.73032e-11
-1.14679e-07
-2.63014e-11
-4.28079e-11
-2.15075e-11
1.14721e-07
3.21325e-11
3.15716e-11
-2.72707e-11
-1.20398e-11
4.24792e-11
1.81682e-11
-3.69441e-11
-2.72267e-08
3.27848e-11
8.16103e-12
7.46652e-11
2.89232e-11
2.70822e-08
7.73658e-11
8.07249e-11
-1.239e-07
-7.11573e-11
-6.91964e-11
1.23882e-07
-1.13433e-07
-2.03307e-11
-8.20235e-11
-3.70826e-11
1.13511e-07
4.67218e-11
2.93506e-11
-3.32676e-11
-6.89336e-11
7.54847e-11
7.96252e-11
-6.74437e-11
-1.14665e-07
-2.52498e-11
-7.1983e-11
-3.73073e-11
1.14738e-07
3.34573e-11
3.35188e-11
-2.52812e-11
-9.74555e-12
4.39439e-11
1.966e-11
-3.47106e-11
-2.72232e-08
-1.4264e-10
1.60017e-10
-5.99218e-11
1.81728e-10
2.70841e-08
1.31844e-10
1.37482e-10
-1.23907e-07
-1.22245e-10
-1.18474e-10
1.23878e-07
-1.13407e-07
-1.85068e-11
-1.38427e-10
-6.38312e-11
1.13546e-07
4.91161e-11
3.29114e-11
-3.39457e-11
-6.51997e-11
7.80902e-11
8.2022e-11
-6.09165e-11
-1.14641e-07
-2.33794e-11
-1.25263e-10
-6.1819e-11
1.14769e-07
3.57994e-11
3.69054e-11
-2.16736e-11
-5.7592e-12
4.62957e-11
2.1976e-11
-3.0956e-11
-2.72188e-08
2.98923e-11
5.21799e-12
7.32943e-11
2.76606e-11
2.70828e-08
2.28665e-10
2.38895e-10
-1.23917e-07
-2.15517e-10
-2.08357e-10
1.23873e-07
-1.13363e-07
-1.51858e-11
-2.4099e-10
-1.08716e-10
1.13607e-07
5.31841e-11
3.87135e-11
-2.31048e-11
-5.90954e-11
8.20436e-11
8.56432e-11
-5.68421e-11
-1.14601e-07
-2.02185e-11
-2.19287e-10
-1.09812e-10
1.14831e-07
3.98849e-11
4.27881e-11
-1.51459e-11
8.24689e-13
4.99748e-11
2.55405e-11
-2.46973e-11
-2.72118e-08
-1.47108e-10
1.55491e-10
-6.1862e-11
1.80138e-10
2.70852e-08
4.03274e-10
4.21399e-10
-1.23931e-07
-3.92639e-10
-3.78558e-10
1.23877e-07
-1.13281e-07
-1.00901e-11
-4.24366e-10
-1.90254e-10
1.13731e-07
5.95964e-11
4.86601e-11
-1.6202e-11
-5.00986e-11
8.72415e-11
9.02307e-11
-4.44805e-11
-1.14523e-07
-1.53477e-11
-3.91253e-10
-1.90372e-10
1.14948e-07
4.62731e-11
5.24041e-11
-2.90599e-12
6.80206e-12
5.48018e-11
3.00357e-11
-1.52193e-11
-2.72004e-08
2.26617e-11
-4.54569e-12
7.09542e-11
2.45335e-11
2.70868e-08
7.17358e-10
7.48624e-10
-1.23932e-07
-7.4623e-10
-7.20601e-10
1.23933e-07
-1.13123e-07
-3.41294e-12
-7.55866e-10
-3.20242e-10
1.13969e-07
6.71542e-11
6.24782e-11
4.44828e-12
-4.17573e-11
8.78486e-11
9.03114e-11
-3.7644e-11
-1.14371e-07
-9.79628e-12
-6.99442e-10
-3.21588e-10
1.15182e-07
5.4337e-11
6.59841e-11
9.32559e-12
1.20698e-11
5.48129e-11
2.98632e-11
-6.75885e-12
-2.71877e-08
-1.53789e-10
1.49215e-10
-6.7836e-11
1.73758e-10
2.70864e-08
1.29522e-09
1.34543e-09
-1.23838e-07
-1.53311e-09
-1.48972e-09
1.2422e-07
-1.12789e-07
3.76648e-13
-1.3572e-09
-4.78166e-10
1.14441e-07
6.16412e-11
7.70938e-11
1.2998e-11
-4.45275e-11
5.79224e-11
5.81795e-11
-4.00966e-11
-1.14045e-07
-8.61765e-12
-1.26924e-09
-4.7161e-10
1.1564e-07
4.81498e-11
7.85134e-11
1.95759e-11
8.22451e-15
2.48023e-11
1.5301e-12
-1.78971e-11
-2.71731e-08
1.53549e-11
-1.2749e-11
6.30308e-11
1.59909e-11
2.70915e-08
1.86522e-09
2.84982e-09
-1.23157e-07
-3.43183e-09
-3.68464e-09
1.25558e-07
-1.11984e-07
-7.15781e-12
-2.8781e-09
-5.49103e-10
1.15107e-07
7.75957e-11
1.57371e-10
7.77188e-11
-2.41545e-11
4.75988e-11
2.4263e-11
-4.94246e-11
-1.13283e-07
-1.24647e-11
-1.88683e-09
3.49338e-10
1.15926e-07
6.23485e-11
1.54533e-10
-5.93111e-12
-3.9735e-10
-1.15169e-10
-4.76094e-10
-3.15084e-10
-2.71792e-08
-1.70427e-10
1.34016e-10
-4.79264e-11
1.9002e-10
2.70735e-08
1.43123e-09
1.52407e-09
-1.34567e-07
-1.02282e-08
-1.01649e-08
3.31782e-08
3.18842e-08
3.20916e-08
3.20969e-08
2.74029e-09
4.75456e-09
3.87899e-09
2.77275e-09
4.74023e-09
3.86653e-09
-2.70589e-08
-2.51472e-09
-7.00466e-10
-2.90237e-09
1.00122e-09
3.21753e-08
-2.59857e-08
-1.51553e-09
-2.11477e-09
3.19319e-10
-2.50292e-09
3.17996e-08
-2.69763e-08
2.0895e-09
2.10596e-09
-2.24754e-09
-1.95876e-09
2.69871e-08
-1.92631e-11
-2.30139e-11
2.72208e-08
-2.70715e-08
-5.39425e-11
-5.30498e-11
1.15762e-07
9.73832e-12
-1.15773e-07
5.81595e-12
-2.05957e-11
-2.65721e-11
2.51829e-11
-9.27663e-12
-3.99082e-11
3.83292e-11
8.52736e-12
1.92454e-11
1.15802e-07
1.00113e-11
-1.15812e-07
5.69103e-12
-2.06099e-11
-2.73293e-11
2.5905e-11
-9.32507e-12
-3.98035e-11
3.81218e-11
8.51244e-12
-2.32536e-11
2.72226e-08
-2.7073e-08
-5.37191e-11
-5.33764e-11
1.13485e-07
8.95528e-12
-1.13495e-07
4.12404e-12
-2.38056e-11
-4.35809e-11
4.26508e-11
7.48604e-11
-7.17576e-11
7.02868e-11
-7.55929e-11
1.31144e-11
1.14535e-07
9.68746e-12
-1.14545e-07
3.87339e-12
-1.39878e-11
-4.04565e-11
4.36863e-11
5.39441e-11
-7.09772e-11
6.66888e-11
-5.5128e-11
8.92684e-12
-1.13484e-07
4.42349e-12
-2.41126e-11
-4.358e-11
4.26534e-11
7.48495e-11
-7.20055e-11
-7.55841e-11
7.05533e-11
3.45956e-11
1.14477e-07
6.47477e-11
-1.14538e-07
-2.34222e-11
-1.21123e-11
-3.94246e-11
3.90045e-11
5.41773e-11
-7.03916e-11
6.96887e-11
-5.57606e-11
-2.77056e-11
2.7226e-08
-2.70775e-08
-6.16434e-11
-4.59492e-11
8.40523e-12
-1.14701e-07
4.98713e-12
-2.93408e-11
-3.05534e-11
2.54977e-11
1.58176e-11
-4.10263e-11
-1.61903e-11
4.2609e-11
8.92648e-12
1.14788e-07
-6.47019e-11
-1.14737e-07
3.78043e-11
-3.09064e-11
-3.04106e-11
2.9605e-11
1.56247e-11
-4.17502e-11
3.98957e-11
-1.54549e-11
-2.70824e-08
-7.60815e-11
-2.94528e-11
1.95925e-11
2.27232e-11
5.37377e-11
5.28051e-11
2.70719e-08
-1.90634e-11
-2.26396e-11
2.72197e-08
-2.7071e-08
-5.39658e-11
-5.29633e-11
-4.77207e-12
1.15775e-07
2.60541e-11
2.07956e-11
-2.52725e-11
9.74845e-12
3.91404e-11
-8.85603e-12
-3.8353e-11
-1.96078e-11
-1.12834e-11
-4.6758e-12
1.15815e-07
2.66564e-11
2.08009e-11
-2.98904e-11
9.72682e-12
3.89174e-11
-8.91152e-12
-3.56e-11
1.15761e-07
1.67222e-11
-1.15777e-07
7.97176e-12
-2.05925e-11
-2.70704e-11
2.48193e-11
-1.00597e-11
-4.06017e-11
3.75068e-11
8.04526e-12
1.90018e-11
1.158e-07
1.69211e-11
-1.15816e-07
8.01959e-12
-2.06926e-11
-2.79398e-11
2.55759e-11
-1.0126e-11
-4.05165e-11
3.72806e-11
8.02109e-12
5.3319e-11
5.33228e-11
2.70734e-08
-2.29347e-11
2.72215e-08
-2.70725e-08
-5.37063e-11
-5.33179e-11
-6.26799e-12
1.13496e-07
4.36881e-11
2.4672e-11
-4.20535e-11
-7.38662e-11
7.16085e-11
7.6192e-11
-6.99609e-11
-1.30231e-11
-1.12383e-11
-5.44289e-12
1.14545e-07
4.04848e-11
1.47067e-11
-3.89979e-11
-5.33825e-11
7.04406e-11
5.52289e-11
-6.91543e-11
1.13479e-07
1.52091e-11
-1.13496e-07
7.51899e-12
-2.39214e-11
-4.40288e-11
4.24207e-11
7.46696e-11
-7.2186e-11
7.00662e-11
-7.59926e-11
1.2848e-11
1.14529e-07
1.59994e-11
-1.14546e-07
6.65047e-12
-1.40414e-11
-4.08331e-11
4.34603e-11
5.37508e-11
-7.13637e-11
6.64764e-11
-5.55014e-11
4.66174e-10
-1.4645e-10
1.13722e-07
8.94601e-11
1.77961e-10
5.36148e-11
-5.6259e-11
7.09804e-11
-9.71256e-11
5.66937e-11
1.58066e-11
-1.13485e-07
6.56007e-12
-2.42553e-11
-4.39988e-11
4.26089e-11
7.47219e-11
-7.23846e-11
-7.59471e-11
7.04114e-11
-1.39602e-10
1.14466e-07
-4.59796e-10
-1.13722e-07
1.49152e-10
-1.76335e-10
-9.07334e-11
-5.02021e-11
5.68842e-11
-7.18688e-11
9.4588e-11
-5.69143e-11
6.11777e-11
4.56733e-11
2.70778e-08
-2.72638e-11
2.72245e-08
-2.7077e-08
-6.15674e-11
-4.58033e-11
-5.84158e-10
1.73853e-10
1.15612e-07
-1.70127e-11
-1.37645e-10
-1.31399e-10
-1.10056e-11
3.99305e-11
-7.72032e-12
1.45883e-11
1.41628e-11
-1.14706e-07
8.75202e-12
-2.90597e-11
-3.13637e-11
2.54068e-11
1.48166e-11
-4.16174e-11
-1.67519e-11
4.18383e-11
1.62219e-10
1.14794e-07
5.85607e-10
-1.15616e-07
-1.7207e-10
1.38095e-10
1.58539e-11
1.28081e-10
1.08387e-11
-4.10021e-11
1.00449e-11
-1.52314e-11
-2.70847e-08
5.83107e-11
-1.81533e-10
1.90652e-11
2.24542e-11
5.36793e-11
5.28472e-11
2.70716e-08
-1.84803e-11
-2.20192e-11
2.72181e-08
-2.70704e-08
-5.4113e-11
-5.30492e-11
-8.49498e-12
1.15779e-07
2.64147e-11
2.15016e-11
-2.46895e-11
1.01741e-11
3.95049e-11
-8.53109e-12
-3.77749e-11
-1.91281e-11
-1.65236e-11
-8.12111e-12
1.15818e-07
2.71455e-11
2.14615e-11
-2.55405e-11
1.01543e-11
3.92837e-11
-8.58885e-12
-3.76887e-11
1.15755e-07
2.61211e-11
-1.15781e-07
1.24532e-11
-2.08905e-11
-2.76684e-11
2.44263e-11
-1.04355e-11
-4.13473e-11
3.70119e-11
7.50269e-12
1.84295e-11
1.15794e-07
2.62453e-11
-1.1582e-07
1.25149e-11
-2.09423e-11
-2.84685e-11
2.51101e-11
-1.04739e-11
-4.12091e-11
3.68266e-11
7.50317e-12
5.32992e-11
5.32035e-11
2.70731e-08
-2.22761e-11
2.72198e-08
-2.70718e-08
-5.38879e-11
-5.33905e-11
-9.29081e-12
1.13496e-07
4.3923e-11
2.50771e-11
-4.17146e-11
-7.33674e-11
7.20293e-11
7.66019e-11
-6.94335e-11
-1.26969e-11
-1.81087e-11
-8.21515e-12
1.14545e-07
4.07801e-11
1.51482e-11
-3.86182e-11
-5.28658e-11
7.08829e-11
5.56566e-11
-6.86093e-11
1.13472e-07
2.46602e-11
-1.13498e-07
1.20701e-11
-2.42791e-11
-4.46289e-11
4.20246e-11
7.41981e-11
-7.28957e-11
6.9585e-11
-7.667e-11
1.22515e-11
1.14521e-07
2.56427e-11
-1.14548e-07
1.08094e-11
-1.4388e-11
-4.1446e-11
4.30406e-11
5.32691e-11
-7.20766e-11
6.59862e-11
-5.61895e-11
-7.17468e-11
1.7543e-11
1.14536e-07
3.9711e-11
1.34277e-11
-3.83195e-11
-5.32425e-11
7.02676e-11
-6.92729e-11
5.62464e-11
2.48727e-11
-1.13487e-07
1.21379e-11
-2.45717e-11
-4.45887e-11
4.20573e-11
7.41871e-11
-7.31609e-11
-7.66732e-11
6.98415e-11
3.37339e-11
1.1446e-07
8.03869e-11
-1.14537e-07
-1.60592e-11
-1.2489e-11
-4.05203e-11
3.82616e-11
5.34795e-11
-7.15553e-11
6.89286e-11
-5.68491e-11
6.11943e-11
4.5688e-11
2.70775e-08
-2.66825e-11
2.72228e-08
-2.70763e-08
-6.16746e-11
-4.59186e-11
5.65708e-11
-4.17666e-11
1.1475e-07
3.1295e-11
3.12775e-11
-2.88668e-11
-1.40393e-11
4.16608e-11
-3.90527e-11
1.58646e-11
2.35518e-11
-1.1471e-07
1.16213e-11
-2.93622e-11
-3.19225e-11
2.5031e-11
1.43761e-11
-4.22763e-11
-1.74203e-11
4.14038e-11
8.16637e-12
1.14789e-07
-4.95474e-11
-1.14752e-07
4.42513e-11
-3.12554e-11
-3.12605e-11
2.91341e-11
1.42125e-11
-4.29503e-11
3.8786e-11
-1.66091e-11
-2.70811e-08
-7.62548e-11
-2.92771e-11
1.8585e-11
2.19911e-11
5.35047e-11
5.27013e-11
2.70713e-08
-1.73625e-11
-2.09611e-11
2.72158e-08
-2.70697e-08
-5.43568e-11
-5.34059e-11
-1.35819e-11
1.15783e-07
2.69357e-11
2.22732e-11
-2.39347e-11
1.08873e-11
4.01601e-11
-8.01263e-12
-3.68542e-11
-1.86246e-11
-2.75616e-11
-1.33441e-11
1.15824e-07
2.75246e-11
2.22402e-11
-2.86499e-11
1.08604e-11
3.99361e-11
-8.06834e-12
-3.40905e-11
1.15745e-07
4.20056e-11
-1.15787e-07
2.01637e-11
-2.15697e-11
-2.88255e-11
2.36152e-11
-1.10977e-11
-4.25863e-11
3.61565e-11
6.61116e-12
1.73128e-11
1.15784e-07
4.20653e-11
-1.15826e-07
2.01068e-11
-2.16617e-11
-2.9696e-11
2.43771e-11
-1.11514e-11
-4.24683e-11
3.59447e-11
6.60867e-12
5.31046e-11
5.31974e-11
2.70727e-08
-2.12931e-11
2.72175e-08
-2.70711e-08
-5.40635e-11
-5.37782e-11
-1.45044e-11
1.135e-07
4.44443e-11
2.58581e-11
-4.09444e-11
-7.25099e-11
7.26843e-11
7.72301e-11
-6.85249e-11
-1.22717e-11
-2.95444e-11
-1.29542e-11
1.14548e-07
4.12497e-11
1.58714e-11
-3.78703e-11
-5.20159e-11
7.15131e-11
5.62721e-11
-6.77226e-11
1.13461e-07
4.11161e-11
-1.13503e-07
1.95705e-11
-2.49169e-11
-4.56745e-11
4.13209e-11
7.32986e-11
-7.42019e-11
6.86556e-11
-7.79148e-11
1.1244e-11
1.1451e-07
4.22147e-11
-1.14552e-07
1.78237e-11
-1.4998e-11
-4.24975e-11
4.23326e-11
5.23664e-11
-7.3381e-11
6.50627e-11
-5.74431e-11
4.48953e-10
-1.54312e-10
1.13721e-07
9.01278e-11
1.79237e-10
5.45079e-11
-5.49096e-11
7.20056e-11
-9.57768e-11
5.77158e-11
4.19625e-11
-1.13492e-07
1.83572e-11
-2.52107e-11
-4.56306e-11
4.15156e-11
7.33414e-11
-7.44163e-11
-7.78746e-11
6.89815e-11
-1.41313e-10
1.14445e-07
-4.35002e-10
-1.13724e-07
1.60638e-10
-1.7732e-10
-9.23678e-11
-5.12792e-11
5.54469e-11
-7.39481e-11
9.31187e-11
-5.88939e-11
6.10221e-11
4.55263e-11
2.70771e-08
-2.5584e-11
2.72206e-08
-2.70755e-08
-6.20468e-11
-4.61422e-11
-5.98379e-10
1.64403e-10
1.15626e-07
-1.62082e-11
-1.36159e-10
-1.30094e-10
-9.54396e-12
4.08923e-11
-6.03424e-12
1.5654e-11
3.78627e-11
-1.14716e-07
2.06618e-11
-3.00296e-11
-3.30075e-11
2.42638e-11
1.35689e-11
-4.34112e-11
-1.85368e-11
4.06202e-11
1.6049e-10
1.14785e-07
6.10561e-10
-1.15633e-07
-1.60484e-10
1.3703e-10
1.45218e-11
1.27032e-10
9.62266e-12
-4.27242e-11
8.74201e-12
-1.6967e-11
-2.70834e-08
5.77748e-11
-1.81908e-10
1.79508e-11
2.1287e-11
5.3164e-11
5.23491e-11
2.7071e-08
-1.54796e-11
-1.91508e-11
2.72125e-08
-2.70689e-08
-5.49437e-11
-5.4042e-11
-2.20315e-11
1.15792e-07
2.77043e-11
2.34304e-11
-2.27511e-11
1.20426e-11
4.11871e-11
-7.20378e-12
-3.53592e-11
-1.80153e-11
-4.58147e-11
-2.15652e-11
1.15831e-07
2.84334e-11
2.33964e-11
-2.35994e-11
1.20162e-11
4.09546e-11
-7.26299e-12
-3.52885e-11
1.1573e-07
6.91324e-11
-1.15799e-07
3.33208e-11
-2.27217e-11
-3.07758e-11
2.22184e-11
-1.22645e-11
-4.46943e-11
3.46463e-11
5.10325e-12
1.54468e-11
1.15769e-07
6.89443e-11
-1.15838e-07
3.31358e-11
-2.27447e-11
-3.15578e-11
2.29379e-11
-1.22696e-11
-4.44894e-11
3.45144e-11
5.14345e-12
5.28325e-11
5.2695e-11
2.70724e-08
-1.94477e-11
2.72142e-08
-2.70703e-08
-5.46902e-11
-5.43917e-11
-2.31866e-11
1.13507e-07
4.5272e-11
2.70967e-11
-3.96881e-11
-7.12008e-11
7.36205e-11
7.81259e-11
-6.71362e-11
-1.16017e-11
-4.84723e-11
-2.10268e-11
1.14556e-07
4.20633e-11
1.70478e-11
-3.66225e-11
-5.07269e-11
7.24146e-11
5.7143e-11
-6.63764e-11
1.13444e-07
6.93906e-11
-1.13514e-07
3.23745e-11
-2.59816e-11
-4.74842e-11
4.00937e-11
7.17957e-11
-7.63902e-11
6.70864e-11
-7.99825e-11
9.52194e-12
1.14494e-07
7.06748e-11
-1.14564e-07
2.99093e-11
-1.60297e-11
-4.43016e-11
4.11144e-11
5.08318e-11
-7.55646e-11
6.34699e-11
-5.95299e-11
-1.01574e-10
4.89098e-12
1.14544e-07
4.09599e-11
1.52814e-11
-3.64228e-11
-5.11705e-11
7.1736e-11
-6.71099e-11
5.76741e-11
6.98795e-11
-1.13503e-07
3.20767e-11
-2.62367e-11
-4.74073e-11
4.01397e-11
7.17876e-11
-7.66636e-11
-7.99792e-11
6.73377e-11
3.07918e-11
1.14431e-07
1.24773e-10
-1.14551e-07
4.3e-12
-1.41961e-11
-4.3505e-11
3.61476e-11
5.09892e-11
-7.51216e-11
6.63396e-11
-6.02354e-11
6.06032e-11
4.52454e-11
2.70768e-08
-2.37281e-11
2.72173e-08
-2.70747e-08
-6.26929e-11
-4.66605e-11
2.80998e-11
-5.51791e-11
1.14769e-07
3.26391e-11
3.32758e-11
-2.68178e-11
-1.16909e-11
4.32393e-11
-3.67517e-11
1.74998e-11
6.42946e-11
-1.14727e-07
3.19861e-11
-3.11634e-11
-3.48509e-11
2.29257e-11
1.21477e-11
-4.53655e-11
-2.04232e-11
3.9243e-11
5.41318e-12
1.1477e-07
-6.38781e-12
-1.14776e-07
6.4163e-11
-3.30688e-11
-3.41594e-11
2.7082e-11
1.20289e-11
-4.60112e-11
3.66637e-11
-1.95574e-11
-2.70797e-08
-7.72838e-11
-3.00382e-11
1.68789e-11
2.01441e-11
5.26704e-11
5.18251e-11
2.7071e-08
-1.24035e-11
-1.6042e-11
2.72077e-08
-2.70681e-08
-5.61137e-11
-5.50828e-11
-3.67218e-11
1.15809e-07
2.90893e-11
2.54073e-11
-2.06484e-11
1.38653e-11
4.27807e-11
-5.98448e-12
-3.29826e-11
-1.69246e-11
-7.70363e-11
-3.62069e-11
1.1585e-07
2.96305e-11
2.53403e-11
-2.54463e-11
1.3828e-11
4.25513e-11
-6.04378e-12
-3.02089e-11
1.15705e-07
1.16059e-10
-1.15823e-07
5.56194e-11
-2.45421e-11
-3.40254e-11
1.99002e-11
-1.4167e-11
-4.81003e-11
3.21813e-11
2.72005e-12
1.23613e-11
1.15744e-07
1.15569e-10
-1.15862e-07
5.52963e-11
-2.463e-11
-3.49167e-11
2.06344e-11
-1.41543e-11
-4.78809e-11
3.20546e-11
2.78748e-12
5.23244e-11
5.23173e-11
2.70723e-08
-1.64352e-11
2.72095e-08
-2.70695e-08
-5.579e-11
-5.54608e-11
-3.79695e-11
1.13524e-07
4.66377e-11
2.91433e-11
-3.75889e-11
-6.90116e-11
7.5152e-11
7.95828e-11
-6.48017e-11
-1.05082e-11
-8.08258e-11
-3.5009e-11
1.14572e-07
4.3454e-11
1.90056e-11
-3.45388e-11
-4.85862e-11
7.38795e-11
5.85518e-11
-6.41325e-11
1.13418e-07
1.18269e-10
-1.13538e-07
5.46073e-11
-2.78044e-11
-5.06622e-11
3.79209e-11
6.94301e-11
-7.99228e-11
6.45912e-11
-8.3322e-11
6.56501e-12
1.14468e-07
1.19797e-10
-1.14587e-07
5.12464e-11
-1.78338e-11
-4.75281e-11
3.89091e-11
4.84119e-11
-7.90863e-11
6.09652e-11
-6.28909e-11
4.00034e-10
-1.7645e-10
1.13743e-07
9.2094e-11
1.82418e-10
5.7291e-11
-5.15326e-11
7.43127e-11
-9.22978e-11
5.99444e-11
1.1968e-10
-1.13527e-07
5.29518e-11
-2.80446e-11
-5.06247e-11
3.80954e-11
6.94773e-11
-8.01447e-11
-8.32757e-11
6.49111e-11
-1.46375e-10
1.144e-07
-3.56705e-10
-1.13755e-07
1.94047e-10
-1.80039e-10
-9.72936e-11
-5.43455e-11
5.13691e-11
-7.98527e-11
8.89631e-11
-6.44698e-11
6.00351e-11
4.47799e-11
2.70768e-08
-2.06193e-11
2.72127e-08
-2.7074e-08
-6.38188e-11
-4.77437e-11
-6.48978e-10
1.424e-10
1.15657e-07
-1.447e-11
-1.33e-10
-1.27254e-10
-5.64813e-12
4.31656e-11
-1.24045e-12
1.80847e-11
1.08818e-10
-1.14751e-07
5.57362e-11
-3.30081e-11
-3.80285e-11
2.06342e-11
9.76069e-12
-4.8643e-11
-2.3569e-11
3.69367e-11
1.55526e-10
1.14754e-07
6.79754e-10
-1.15673e-07
-1.25204e-10
1.34051e-10
1.0402e-11
1.23846e-10
5.72708e-12
-4.77256e-11
4.49299e-12
-2.19124e-11
-2.70822e-08
5.59995e-11
-1.83465e-10
1.49428e-11
1.82335e-11
5.19665e-11
5.11881e-11
2.70714e-08
-7.34612e-12
-1.08094e-11
2.72004e-08
-2.70675e-08
-5.79088e-11
-5.68566e-11
-6.35191e-11
1.15843e-07
3.15917e-11
2.89062e-11
-1.67825e-11
1.68717e-11
4.53006e-11
-4.07758e-12
-2.90297e-11
-1.50576e-11
-1.31104e-10
-6.23786e-11
1.15881e-07
3.22317e-11
2.88165e-11
-1.77327e-11
1.67952e-11
4.49916e-11
-4.16341e-12
-2.90599e-11
1.15663e-07
1.99001e-10
-1.15869e-07
9.48839e-11
-2.74481e-11
-3.94134e-11
1.59566e-11
-1.7052e-11
-5.32572e-11
2.83799e-11
-1.62194e-12
7.34615e-12
1.15702e-07
1.97763e-10
-1.15907e-07
9.39425e-11
-2.74396e-11
-4.01858e-11
1.67381e-11
-1.69751e-11
-5.28825e-11
2.83763e-11
-1.28953e-12
5.16618e-11
5.15397e-11
2.70728e-08
-1.11985e-11
2.72022e-08
-2.70689e-08
-5.75664e-11
-5.71991e-11
-6.38981e-11
1.13557e-07
4.89754e-11
3.26051e-11
-3.39258e-11
-6.52579e-11
7.77364e-11
8.19853e-11
-6.07701e-11
-8.63792e-12
-1.37719e-10
-5.99405e-11
1.14605e-07
4.5813e-11
2.2377e-11
-3.0881e-11
-4.49105e-11
7.63527e-11
6.0876e-11
-6.02316e-11
1.13374e-07
2.04566e-10
-1.13583e-07
9.36236e-11
-3.08089e-11
-5.60387e-11
3.42162e-11
6.5793e-11
-8.54518e-11
6.06759e-11
-8.84389e-11
1.70561e-12
1.14425e-07
2.06436e-10
-1.14633e-07
8.94591e-11
-2.09021e-11
-5.31009e-11
3.50116e-11
4.46714e-11
-8.46191e-11
5.70267e-11
-6.80833e-11
-1.89799e-10
-3.37144e-11
1.14589e-07
4.45626e-11
2.05288e-11
-3.07746e-11
-4.54989e-11
7.55459e-11
-6.11035e-11
6.1272e-11
2.05912e-10
-1.13572e-07
9.25842e-11
-3.10089e-11
-5.58926e-11
3.42864e-11
6.58127e-11
-8.57634e-11
-8.84353e-11
6.09179e-11
2.24132e-11
1.14358e-07
2.60623e-10
-1.14616e-07
6.50355e-11
-1.905e-11
-5.21936e-11
2.99521e-11
4.48102e-11
-8.42725e-11
5.98196e-11
-6.88322e-11
5.94501e-11
4.40722e-11
2.70772e-08
-1.54351e-11
2.72055e-08
-2.70733e-08
-6.5648e-11
-4.9418e-11
-5.57293e-11
-9.62347e-11
1.14824e-07
3.65631e-11
3.88064e-11
-2.08845e-11
-5.11803e-12
4.72647e-11
-3.05357e-11
2.1524e-11
1.90285e-10
-1.14794e-07
9.30177e-11
-3.59528e-11
-4.33273e-11
1.67386e-11
5.81823e-12
-5.37334e-11
-2.8507e-11
3.33207e-11
-2.97217e-12
1.1471e-07
1.18751e-10
-1.14848e-07
1.25591e-10
-3.75538e-11
-4.23895e-11
2.13581e-11
5.92219e-12
-5.41513e-11
3.09217e-11
-2.75904e-11
-2.7079e-08
-8.0407e-11
-3.29806e-11
1.16774e-11
1.49624e-11
5.07892e-11
5.02554e-11
2.70727e-08
6.21911e-13
-2.45105e-12
2.71893e-08
-2.70671e-08
-6.07384e-11
-5.96376e-11
-1.10457e-10
1.15906e-07
3.58915e-11
3.48854e-11
-9.82694e-12
2.16569e-11
4.91011e-11
-1.27378e-12
-2.26087e-11
-1.18347e-11
-2.27335e-10
-1.08919e-10
1.15945e-07
3.62239e-11
3.46848e-11
-1.4977e-11
2.15034e-11
4.87429e-11
-1.36663e-12
-1.99337e-11
1.15584e-07
3.47595e-10
-1.15956e-07
1.64409e-10
-3.21338e-11
-4.81367e-11
8.89465e-12
-2.09405e-11
-6.02225e-11
2.30448e-11
-1.00121e-11
-5.63802e-13
1.15623e-07
3.45499e-10
-1.15992e-07
1.6244e-10
-3.21554e-11
-4.89096e-11
9.76609e-12
-2.08262e-11
-5.97615e-11
2.31014e-11
-9.70466e-12
5.04533e-11
5.0734e-11
2.7074e-08
-2.96433e-12
2.71913e-08
-2.70685e-08
-6.0368e-11
-6.00307e-11
-1.10171e-10
1.1362e-07
5.30393e-11
3.8577e-11
-2.74123e-11
-5.91345e-11
8.17266e-11
8.56424e-11
-5.41611e-11
-5.41379e-12
-2.39361e-10
-1.04914e-10
1.14669e-07
4.99473e-11
2.82498e-11
-2.432e-11
-3.88438e-11
8.02263e-11
6.44539e-11
-5.37853e-11
1.13293e-07
3.59027e-10
-1.13671e-07
1.61991e-10
-3.57658e-11
-6.48389e-11
2.77569e-11
6.06039e-11
-9.29491e-11
5.49779e-11
-9.55451e-11
-8.87904e-12
1.14346e-07
3.61748e-10
-1.14721e-07
1.57193e-10
-2.55519e-11
-6.19242e-11
2.8426e-11
3.95965e-11
-9.1929e-11
5.15179e-11
-7.50981e-11
2.4137e-10
-2.46356e-10
1.13837e-07
9.84351e-11
1.91705e-10
6.59825e-11
-4.17025e-11
8.07412e-11
-8.20549e-11
6.5924e-11
3.62147e-10
-1.1366e-07
1.58759e-10
-3.58727e-11
-6.46187e-11
2.79682e-11
6.0727e-11
-9.31979e-11
-9.54829e-11
5.53155e-11
-1.61225e-10
1.14267e-07
-1.0568e-10
-1.13888e-07
2.99789e-10
-1.87637e-10
-1.11479e-10
-6.33968e-11
4.20637e-11
-9.3182e-11
7.91404e-11
-7.71032e-11
5.83154e-11
4.30675e-11
2.70785e-08
-7.38003e-12
2.71938e-08
-2.70736e-08
-6.90853e-11
-5.26194e-11
-7.95629e-10
6.69987e-11
1.15759e-07
-8.46941e-12
-1.22896e-10
-1.1769e-10
3.73396e-12
4.9732e-11
6.83741e-12
2.45317e-11
3.3495e-10
-1.14879e-07
1.63071e-10
-4.03436e-11
-5.17782e-11
9.98337e-12
1.43916e-13
-6.05604e-11
-3.52547e-11
2.82299e-11
1.42053e-10
1.14644e-07
9.00889e-10
-1.15816e-07
-1.38235e-11
1.26617e-10
-4.40191e-13
1.15193e-10
-2.40242e-12
-5.9224e-11
-3.61451e-12
-3.32118e-11
-2.70825e-08
5.14619e-11
-1.88469e-10
6.5172e-12
9.76131e-12
4.91502e-11
4.8872e-11
2.7075e-08
1.53098e-11
1.23407e-11
2.71722e-08
-2.70692e-08
-6.59972e-11
-6.46949e-11
-1.93202e-10
1.16024e-07
4.26557e-11
4.45954e-11
2.03825e-12
2.85731e-11
5.38567e-11
3.61963e-12
-1.30927e-11
-6.78384e-12
-4.01153e-10
-1.89948e-10
1.16061e-07
4.30861e-11
4.43647e-11
1.30758e-12
2.82985e-11
5.33679e-11
3.26883e-12
-1.34197e-11
1.15428e-07
6.16846e-10
-1.16122e-07
2.80566e-10
-3.89717e-11
-5.9531e-11
-1.46564e-12
-2.41116e-11
-6.57031e-11
1.8205e-11
-1.62959e-11
-1.5037e-11
1.15469e-07
6.13242e-10
-1.16158e-07
2.7668e-10
-3.88389e-11
-6.00408e-11
-6.34522e-13
-2.3846e-11
-6.49623e-11
1.84987e-11
-1.57779e-11
4.89698e-11
4.91928e-11
2.70763e-08
1.1378e-11
2.71746e-08
-2.70706e-08
-6.54988e-11
-6.49042e-11
-1.91664e-10
1.13741e-07
5.94554e-11
4.84659e-11
-1.60789e-11
-5.011e-11
8.69215e-11
9.02643e-11
-4.43405e-11
-2.36819e-14
-4.22103e-10
-1.86522e-10
1.14791e-07
5.66373e-11
3.81568e-11
-1.25615e-11
-2.96793e-11
8.54742e-11
6.91748e-11
-4.39844e-11
1.13138e-07
6.36986e-10
-1.13841e-07
2.77461e-10
-4.32112e-11
-7.67129e-11
1.78532e-11
5.55543e-11
-9.94904e-11
4.91077e-11
-1.01813e-10
-2.28647e-11
1.1419e-07
6.40725e-10
-1.14894e-07
2.73086e-10
-3.27618e-11
-7.39157e-11
1.84685e-11
3.47874e-11
-9.83293e-11
4.58325e-11
-8.14355e-11
-4.73561e-10
-1.59291e-10
1.14768e-07
5.47853e-11
3.58199e-11
-1.29673e-11
-3.08102e-11
8.41164e-11
-4.53812e-11
6.90366e-11
6.42458e-10
-1.1383e-07
2.73606e-10
-4.32315e-11
-7.61315e-11
1.81113e-11
5.58424e-11
-9.95841e-11
-1.01569e-10
4.95325e-11
1.55118e-12
1.14109e-07
6.9725e-10
-1.1487e-07
2.54752e-10
-3.19922e-11
-7.38333e-11
1.22177e-11
3.45023e-11
-9.8776e-11
4.80861e-11
-8.27542e-11
5.65628e-11
4.13034e-11
2.70805e-08
5.11359e-12
2.71779e-08
-2.70751e-08
-7.38378e-11
-5.69375e-11
-3.22714e-10
-2.27898e-10
1.1501e-07
4.76821e-11
5.45523e-11
-1.25839e-12
7.33766e-12
5.58454e-11
-1.46902e-11
2.98046e-11
5.9953e-10
-1.15044e-07
2.75511e-10
-4.73501e-11
-6.30293e-11
-5.98106e-13
-2.6343e-12
-6.5975e-11
-4.06937e-11
2.3535e-11
-2.54497e-11
1.14486e-07
5.27146e-10
-1.15105e-07
3.09411e-10
-4.92496e-11
-6.15665e-11
4.90445e-12
-2.30925e-12
-6.5877e-11
2.16561e-11
-3.94012e-11
-2.70816e-08
-8.89832e-11
-4.09916e-11
-4.16055e-13
2.84947e-12
4.57221e-11
4.5745e-11
2.70783e-08
2.41375e-11
2.36626e-11
2.71587e-08
-2.7077e-08
-6.55529e-11
-6.40178e-11
-3.25725e-10
1.16261e-07
5.08927e-11
5.77577e-11
1.3314e-11
3.46237e-11
5.38082e-11
3.89243e-12
-4.35396e-12
-5.07302e-14
-7.14296e-10
-3.20908e-10
1.16298e-07
5.02572e-11
5.74725e-11
9.19811e-12
3.40167e-11
5.31457e-11
3.34464e-12
-1.71146e-12
1.15097e-07
1.09575e-09
-1.16457e-07
4.42117e-10
-4.19829e-11
-6.04727e-11
-6.11453e-12
-1.72617e-11
-5.08955e-11
2.73039e-11
-4.6076e-12
-2.29405e-11
1.15137e-07
1.09009e-09
-1.16488e-07
4.34488e-10
-4.19779e-11
-6.05266e-11
-5.6476e-12
-1.67593e-11
-5.02153e-11
2.78093e-11
-3.44293e-12
4.56082e-11
4.61796e-11
2.70794e-08
2.13308e-11
2.71623e-08
-2.70785e-08
-6.43437e-11
-6.37422e-11
-3.24507e-10
1.1398e-07
6.71204e-11
6.26721e-11
1.8855e-12
-4.15433e-11
8.76984e-11
9.04615e-11
-3.47515e-11
7.2506e-12
-7.51044e-10
-3.21152e-10
1.15033e-07
6.4766e-11
5.24027e-11
4.1788e-12
-2.10959e-11
8.62711e-11
6.96526e-11
-3.44074e-11
1.12806e-07
1.13014e-09
-1.14178e-07
4.40937e-10
-4.82462e-11
-7.88455e-11
8.80783e-12
6.09723e-11
-8.51901e-11
5.5684e-11
-8.92837e-11
-3.36542e-11
1.13856e-07
1.13565e-09
-1.15236e-07
4.41644e-10
-3.70479e-11
-7.56878e-11
9.82073e-12
4.15765e-11
-8.4586e-11
5.26738e-11
-7.00492e-11
-2.74376e-10
-4.60511e-10
1.142e-07
1.13463e-10
2.15818e-10
8.94864e-11
-2.34953e-11
8.62984e-11
-6.23055e-11
7.07034e-11
1.1398e-09
-1.14168e-07
4.29727e-10
-4.76446e-11
-7.75938e-11
9.75914e-12
6.22073e-11
-8.46887e-11
-8.86373e-11
5.71439e-11
-1.82858e-10
1.13767e-07
6.66353e-10
-1.14394e-07
5.8635e-10
-2.0098e-10
-1.2392e-10
-7.95247e-11
4.25885e-11
-8.66629e-11
7.79895e-11
-7.25983e-11
5.33834e-11
3.81712e-11
2.70838e-08
1.474e-11
2.71648e-08
-2.70836e-08
-7.32989e-11
-5.62824e-11
-1.27611e-09
-1.50679e-10
1.16123e-07
8.3266e-12
-9.69348e-11
-9.30133e-11
1.57581e-11
5.49101e-11
2.11787e-11
2.90707e-11
1.06876e-09
-1.15374e-07
4.34913e-10
-5.12331e-11
-6.45773e-11
-6.12427e-12
9.12564e-12
-5.15095e-11
-2.80482e-11
3.24711e-11
1.22877e-10
1.14177e-07
1.63808e-09
-1.16323e-07
2.47494e-10
1.15855e-10
-1.70225e-11
1.01838e-10
6.79564e-12
-4.86744e-11
3.45543e-12
-2.51302e-11
-2.70916e-08
4.84238e-11
-1.89852e-10
-7.60757e-13
-1.51269e-12
3.98696e-11
4.05138e-11
2.70806e-08
-6.89959e-11
-5.98179e-11
2.7176e-08
-2.70995e-08
2.67086e-11
2.56453e-11
-4.81886e-10
1.16725e-07
4.38482e-11
6.88884e-11
2.33096e-11
2.77945e-11
2.39738e-11
-2.37232e-11
-1.57023e-11
-7.96868e-13
-1.29069e-09
-4.69753e-10
1.16757e-07
4.31755e-11
6.83348e-11
2.21772e-11
2.64126e-11
2.34459e-11
-2.44443e-11
-1.72665e-11
1.14306e-07
1.77286e-09
-1.17062e-07
3.98813e-10
8.20435e-12
2.73142e-11
4.93685e-11
8.67886e-11
8.0213e-11
1.36032e-10
1.27168e-10
7.24131e-11
1.1435e-07
1.76673e-09
-1.17089e-07
3.77504e-10
8.5227e-12
3.01736e-11
5.00389e-11
8.72316e-11
8.15629e-11
1.36369e-10
1.28819e-10
3.98084e-11
4.07435e-11
2.70814e-08
-6.42446e-11
2.71813e-08
-2.71016e-08
2.82069e-11
2.86619e-11
-4.89508e-10
1.14451e-07
6.29527e-11
7.76759e-11
1.29661e-11
-4.40444e-11
5.8871e-11
5.90449e-11
-3.93074e-11
1.02179e-11
-1.35173e-09
-4.91621e-10
1.15512e-07
5.88639e-11
6.68472e-11
1.63366e-11
-2.48118e-11
5.76174e-11
3.98715e-11
-3.81354e-11
1.12017e-07
1.80553e-09
-1.14789e-07
4.41421e-10
-8.26381e-12
1.40016e-12
5.65524e-11
1.61844e-10
4.40948e-11
1.63892e-10
4.5857e-11
5.47178e-11
1.13047e-07
1.82376e-09
-1.15861e-07
4.49525e-10
8.46996e-12
8.21538e-12
6.09478e-11
1.42106e-10
4.41071e-11
1.60022e-10
6.1769e-11
-1.40183e-09
-4.58537e-10
1.1548e-07
5.62896e-11
6.38465e-11
1.4781e-11
-2.63912e-11
5.56039e-11
-4.03309e-11
3.89494e-11
1.82877e-09
-1.1478e-07
4.17077e-10
-6.46147e-12
5.1546e-12
5.78333e-11
1.64277e-10
4.86874e-11
5.00825e-11
1.67056e-10
7.58418e-11
1.12975e-07
1.88452e-09
-1.1583e-07
4.23539e-10
7.7776e-12
6.47783e-12
5.31174e-11
1.40367e-10
4.31691e-11
1.60323e-10
5.97408e-11
4.78438e-11
3.25852e-11
2.7086e-08
-7.19684e-11
2.71817e-08
-2.71065e-08
1.90199e-11
3.2394e-11
-1.20109e-09
-5.15097e-10
1.15713e-07
5.08241e-11
8.14777e-11
2.17502e-11
1.6888e-12
2.66998e-11
-1.66079e-11
2.1869e-12
1.72431e-09
-1.1597e-07
3.94665e-10
-6.46839e-12
1.88637e-11
4.45214e-11
1.10551e-10
8.03471e-11
1.06399e-10
1.41204e-10
5.30888e-11
1.13415e-07
1.65026e-09
-1.1604e-07
4.15479e-10
-7.62092e-12
2.03108e-11
5.11204e-11
1.11946e-10
8.14287e-11
1.39685e-10
1.09039e-10
-2.71085e-08
6.85558e-12
5.13455e-11
7.98565e-12
3.72122e-12
5.70894e-11
5.77327e-11
2.70494e-08
-3.09845e-10
5.03354e-10
2.69704e-08
-2.6526e-08
-1.21916e-10
-5.16001e-10
2.32212e-10
1.17045e-07