/*--------------------------------*- C++ -*----------------------------------*\
| =========                 |                                                 |
| \\      /  F ield         | OpenFOAM: The Open Source CFD Toolbox           |
|  \\    /   O peration     | Version:  2206                                  |
|   \\  /    A nd           | Website:  www.openfoam.com                      |
|    \\/     M anipulation  |                                                 |
\*---------------------------------------------------------------------------*/
FoamFile
{
    version     2.0;
    format      ascii;
    arch        "LSB;label=32;scalar=64";
    class       volVectorField;
    location    "1";
    object      U;
}
// * * * * * * * * * * * * * * * * * * * * * * * * * * * * * * * * * * * * * //

dimensions      [0 1 -1 0 0 0 0];

internalField   nonuniform List<vector> 
66940
(
(-1.43408e-05 -1.41985e-05 0.143762)
(1.12488e-05 -9.9645e-06 0.13332)
(-6.0601e-06 8.2255e-06 0.133693)
(-0.000107625 -0.000108221 0.127803)
(-2.23526e-05 -2.16344e-05 0.143826)
(1.70454e-05 -1.418e-05 0.133352)
(-1.18243e-05 1.3101e-05 0.133728)
(-0.00010979 -0.000107967 0.127794)
(-3.67302e-05 -3.58644e-05 0.143913)
(2.66085e-05 -2.27709e-05 0.133396)
(-1.98681e-05 2.14866e-05 0.133773)
(-0.000108349 -0.00010897 0.127793)
(-6.12813e-05 -6.03325e-05 0.144029)
(4.17192e-05 -3.59984e-05 0.133458)
(-3.29222e-05 3.5291e-05 0.133835)
(-0.000112988 -0.000110701 0.127781)
(-0.000104811 -0.00010362 0.144187)
(6.63698e-05 -5.89927e-05 0.13354)
(-5.48761e-05 5.76913e-05 0.133917)
(-0.000113931 -0.000113664 0.127777)
(-0.00018478 -0.000182523 0.144399)
(0.000106612 -9.76435e-05 0.133646)
(-9.30787e-05 9.42127e-05 0.134023)
(-0.000121331 -0.000118837 0.12776)
(-0.000336838 -0.000332591 0.144681)
(0.000169372 -0.000164764 0.133768)
(-0.000158727 0.000151561 0.134146)
(-0.000125749 -0.000126084 0.127748)
(-0.000639752 -0.000631862 0.145047)
(0.000253751 -0.00027421 0.133874)
(-0.000266194 0.000228241 0.134257)
(-0.000141101 -0.000140476 0.127714)
(-0.00128196 -0.00126861 0.145509)
(0.00030662 -0.000425379 0.133875)
(-0.000412095 0.000269777 0.134278)
(-0.000156209 -0.000158904 0.127666)
(-0.00279123 -0.00277489 0.146069)
(6.69146e-05 -0.000490825 0.133549)
(-0.000463022 1.09186e-05 0.134011)
(-0.000174065 -0.000173558 0.127536)
(-0.00698308 -0.00696771 0.146241)
(-0.00125839 0.000122081 0.132202)
(0.000148292 -0.00137346 0.132831)
(8.98024e-07 -7.56587e-06 0.126953)
(-0.0209828 -0.0209728 0.134791)
(0.000562896 0.00151907 0.121587)
(0.00137554 0.000429958 0.122482)
(0.00152257 0.00145482 0.118877)
(-0.000107142 -0.000109056 0.127659)
(8.46862e-06 1.02144e-05 0.133549)
(-8.62784e-06 1.04579e-05 0.13356)
(0.000106917 -0.000109044 0.127664)
(8.35885e-06 7.19942e-06 0.133162)
(9.09221e-06 -6.57196e-06 0.133161)
(-8.37022e-06 7.4917e-06 0.133161)
(-1.06332e-05 -3.79101e-06 0.13315)
(-0.000106666 0.000108137 0.127653)
(8.69198e-06 -8.61117e-06 0.133536)
(-1.07871e-05 -7.26664e-06 0.133535)
(0.000106474 0.000109387 0.12764)
(0.000108462 0.00010841 0.127807)
(-0.000108049 -0.000109047 0.127654)
(-6.54093e-06 -9.13122e-06 0.133707)
(6.61093e-06 -8.79906e-06 0.133718)
(1.29021e-05 1.58602e-05 0.133518)
(-1.30983e-05 1.60697e-05 0.133529)
(-0.000108146 0.000108445 0.127811)
(0.000107455 -0.000109288 0.127659)
(-1.08891e-05 -9.42655e-06 0.133322)
(-1.02081e-05 8.68033e-06 0.133319)
(1.34053e-05 1.2208e-05 0.133127)
(1.41226e-05 -1.11905e-05 0.133126)
(1.23702e-05 5.01693e-06 0.133316)
(-1.33281e-05 1.23199e-05 0.133127)
(-1.47205e-05 -9.31988e-06 0.133112)
(0.000108624 -0.000108896 0.127801)
(-0.000107555 0.000108571 0.127648)
(7.4198e-06 6.12975e-06 0.133697)
(1.30964e-05 -1.33599e-05 0.133507)
(-1.3968e-05 -1.23182e-05 0.133516)
(0.000107001 0.000110088 0.127646)
(0.000107901 0.000108908 0.127803)
(-0.000107541 -0.000108382 0.127647)
(-1.20401e-05 -1.44056e-05 0.133742)
(1.19109e-05 -1.40884e-05 0.133752)
(1.93976e-05 2.39383e-05 0.133474)
(-1.97191e-05 2.3997e-05 0.133486)
(-0.00010801 0.000109286 0.127807)
(0.000107188 -0.000108429 0.127652)
(-1.6725e-05 -1.39999e-05 0.133354)
(-1.60394e-05 1.30698e-05 0.13335)
(2.12253e-05 1.92533e-05 0.133079)
(2.20157e-05 -1.77885e-05 0.133078)
(1.62702e-05 1.12665e-05 0.133343)
(-2.13517e-05 1.94334e-05 0.133079)
(-2.4115e-05 -1.50553e-05 0.133065)
(0.000108077 -0.000109012 0.127796)
(-0.000107004 0.000107904 0.127641)
(1.37201e-05 1.30235e-05 0.133735)
(1.97719e-05 -2.07257e-05 0.133464)
(-2.17998e-05 -1.86264e-05 0.13347)
(0.000106424 0.000109523 0.127628)
(0.000108722 0.000109946 0.127797)
(-0.000105838 -0.000107072 0.127638)
(-1.9809e-05 -2.36664e-05 0.133787)
(1.97248e-05 -2.32947e-05 0.133797)
(3.07376e-05 3.69825e-05 0.133415)
(-3.0826e-05 3.69571e-05 0.133427)
(-0.000108456 0.000109906 0.127801)
(0.000105245 -0.000107482 0.127643)
(-2.62707e-05 -2.2254e-05 0.133399)
(-2.54813e-05 2.06508e-05 0.133394)
(3.46162e-05 3.09918e-05 0.133016)
(3.53311e-05 -2.88339e-05 0.133015)
(2.7205e-05 1.68852e-05 0.133388)
(-3.46384e-05 3.08996e-05 0.133017)
(-3.65918e-05 -2.77523e-05 0.132998)
(0.000108913 -0.000110034 0.127791)
(-0.000105376 0.000106715 0.127632)
(2.13124e-05 2.00641e-05 0.133785)
(3.13372e-05 -3.28018e-05 0.133404)
(-3.18766e-05 -3.10889e-05 0.133421)
(0.000104607 0.000108222 0.12763)
(0.000110745 0.000111853 0.12779)
(-0.000102864 -0.000104514 0.127628)
(-3.23186e-05 -3.87469e-05 0.133849)
(3.22011e-05 -3.82783e-05 0.133857)
(4.98869e-05 5.83249e-05 0.133337)
(-5.00236e-05 5.79646e-05 0.13335)
(-0.000110872 0.000112004 0.127794)
(0.00010251 -0.000104674 0.127633)
(-4.13353e-05 -3.58195e-05 0.133461)
(-4.04571e-05 3.32515e-05 0.133456)
(5.67149e-05 5.08214e-05 0.132934)
(5.73775e-05 -4.75228e-05 0.132934)
(4.00352e-05 3.1007e-05 0.133446)
(-5.68996e-05 5.06537e-05 0.132936)
(-5.97046e-05 -4.52749e-05 0.132919)
(0.000111017 -0.000111774 0.127783)
(-0.000102445 0.000104334 0.127621)
(3.55062e-05 3.57213e-05 0.13385)
(5.0859e-05 -5.25873e-05 0.133326)
(-5.28352e-05 -4.98305e-05 0.133339)
(0.00010164 0.000105831 0.127609)
(0.000113963 0.000114936 0.12778)
(-9.8098e-05 -9.97444e-05 0.127617)
(-5.36642e-05 -6.28874e-05 0.133931)
(5.34189e-05 -6.21652e-05 0.133938)
(8.19348e-05 9.24722e-05 0.13324)
(-8.18812e-05 9.16163e-05 0.133256)
(-0.000113673 0.000114715 0.127784)
(9.74707e-05 -0.000100372 0.127622)
(-6.59357e-05 -5.86429e-05 0.133546)
(-6.47173e-05 5.45848e-05 0.13354)
(9.23196e-05 8.46842e-05 0.132831)
(9.28301e-05 -7.96732e-05 0.132833)
(6.61244e-05 5.09061e-05 0.133531)
(-9.24068e-05 8.41917e-05 0.132837)
(-9.53345e-05 -8.01239e-05 0.13281)
(0.000114316 -0.000114735 0.127774)
(-9.74409e-05 9.98235e-05 0.127611)
(5.69512e-05 5.64844e-05 0.133935)
(8.39328e-05 -8.48895e-05 0.13323)
(-8.36378e-05 -8.23437e-05 0.133255)
(9.66345e-05 0.000101165 0.12761)
(0.000118739 0.000120156 0.127767)
(-9.01098e-05 -9.15151e-05 0.127609)
(-9.11038e-05 -0.000101436 0.134036)
(9.05426e-05 -0.00010019 0.134041)
(0.000135941 0.000145134 0.133132)
(-0.00013568 0.000143355 0.13315)
(-0.000118909 0.000120046 0.127772)
(8.97161e-05 -9.18984e-05 0.127615)
(-0.000106344 -9.78319e-05 0.133656)
(-0.000104519 9.15826e-05 0.13365)
(0.000148035 0.000142375 0.132714)
(0.000148352 -0.00013508 0.132718)
(0.000102966 8.87417e-05 0.133635)
(-0.000147965 0.000141406 0.132727)
(-0.000151324 -0.00013398 0.132698)
(0.000119363 -0.000119704 0.127761)
(-8.90365e-05 9.16048e-05 0.127603)
(9.73332e-05 9.61101e-05 0.134045)
(0.000139776 -0.000135963 0.133121)
(-0.000141572 -0.000133341 0.13314)
(8.91202e-05 9.35826e-05 0.127593)
(0.000125998 0.000128059 0.127749)
(-7.66905e-05 -7.75427e-05 0.127612)
(-0.000154717 -0.000160365 0.134159)
(0.000153595 -0.000158097 0.13416)
(0.000224766 0.000217303 0.133039)
(-0.00022376 0.000214326 0.13306)
(-0.000125795 0.000127645 0.127753)
(7.61619e-05 -7.8485e-05 0.127618)
(-0.000169399 -0.000165248 0.133787)
(-0.000166828 0.000155502 0.133779)
(0.000226545 0.000237474 0.132609)
(0.000225998 -0.000224993 0.132615)
(0.000168522 0.000153564 0.133766)
(-0.000225717 0.00023516 0.132635)
(-0.00023212 -0.000231397 0.132586)
(0.000126891 -0.000127427 0.127743)
(-7.57932e-05 7.87621e-05 0.127605)
(0.00016442 0.000153373 0.134168)
(0.000230381 -0.000206417 0.133026)
(-0.000228208 -0.000200645 0.133063)
(7.47671e-05 7.76985e-05 0.127607)
(0.000137309 0.000140585 0.12772)
(-5.59416e-05 -5.66309e-05 0.127649)
(-0.000258063 -0.000238031 0.134268)
(0.000256166 -0.00023452 0.134265)
(0.000347464 0.000279001 0.133032)
(-0.000345371 0.000273888 0.133058)
(-0.000137521 0.00013978 0.127725)
(5.6293e-05 -5.77322e-05 0.127658)
(-0.000254537 -0.000276062 0.133909)
(-0.000251495 0.00026282 0.133901)
(0.000299758 0.000374488 0.132589)
(0.0002985 -0.000356443 0.132598)
(0.000247572 0.000256265 0.133878)
(-0.000296558 0.000369034 0.132641)
(-0.000304617 -0.000360411 0.132571)
(0.000138593 -0.000139101 0.127713)
(-5.62761e-05 5.96632e-05 0.127644)
(0.000274058 0.00023243 0.13429)
(0.000358958 -0.000266191 0.133018)
(-0.000359849 -0.000261067 0.133045)
(5.69662e-05 6.09839e-05 0.127641)
(0.000155182 0.000160331 0.127664)
(-4.09736e-05 -4.04413e-05 0.127797)
(-0.000398066 -0.000280859 0.134284)
(0.000393931 -0.000274528 0.134276)
(0.000431189 0.000147696 0.133269)
(-0.000425282 0.000138681 0.133298)
(-0.000155259 0.000158724 0.127669)
(4.27942e-05 -4.32275e-05 0.127815)
(-0.000311016 -0.000431106 0.133944)
(-0.000308647 0.000411952 0.133936)
(0.000186016 0.000482888 0.132811)
(0.000185232 -0.000457727 0.132825)
(0.000310455 0.000414525 0.133911)
(-0.000172686 0.000467223 0.13292)
(-0.000201729 -0.000475523 0.132788)
(0.000156076 -0.000157263 0.127659)
(-4.07913e-05 4.41569e-05 0.127794)
(0.000425318 0.000272984 0.134306)
(0.000452317 -0.00013485 0.133251)
(-0.000437121 -0.000118432 0.133299)
(3.79202e-05 4.17599e-05 0.127794)
(0.000169785 0.000176183 0.127536)
(-0.00028871 -0.00027362 0.128274)
(-0.000438541 -2.20044e-05 0.134009)
(0.000428605 -1.05875e-05 0.133995)
(-0.000142185 -0.00111931 0.133905)
(0.000163451 -0.00113485 0.133936)
(-0.000169939 0.000172741 0.12754)
(0.000299237 -0.000281696 0.128326)
(-8.34812e-05 -0.000509296 0.13369)
(-8.41442e-05 0.000482266 0.133681)
(-0.00105379 -4.20161e-05 0.133454)
(-0.00104854 6.93765e-05 0.133474)
(7.60586e-05 0.000462155 0.133643)
(0.00109671 -8.02978e-05 0.133676)
(0.00103305 6.15041e-05 0.133443)
(0.000171469 -0.000172616 0.127532)
(-0.000287028 0.000277408 0.128273)
(0.00048155 1.98755e-05 0.134057)
(-0.000105114 0.00113213 0.133882)
(0.000115298 0.00114629 0.133918)
(0.000287485 0.000273614 0.128251)
(-6.60675e-06 1.30349e-05 0.126964)
(-0.00573794 -0.0057073 0.125603)
(0.000175298 0.00135685 0.13281)
(-0.000209546 0.00137741 0.132793)
(-0.0053682 -0.00987918 0.130841)
(0.00545207 -0.00993566 0.130849)
(1.24433e-06 9.70909e-06 0.126934)
(0.00582439 -0.00574159 0.125717)
(0.00120699 7.61866e-05 0.132501)
(0.00119752 -0.000103692 0.132487)
(-0.00992392 -0.00531179 0.130866)
(-0.0098601 0.00528021 0.130826)
(-0.00119526 -0.000133662 0.132455)
(0.0101058 -0.00542776 0.131369)
(0.00983993 0.00521992 0.130774)
(-1.36018e-07 -2.98631e-06 0.126962)
(-0.00573153 0.0056863 0.125599)
(-0.000145876 -0.0013776 0.132878)
(-0.00536781 0.0098958 0.130869)
(0.00541651 0.00993391 0.130929)
(0.00576049 0.0056699 0.125599)
(-0.00150204 -0.00147316 0.118865)
(0.00137847 -0.00045949 0.122463)
(-0.00142994 -0.000510557 0.122347)
(0.00145501 -0.00148255 0.118283)
(-0.000474535 0.00140985 0.122492)
(-0.00051025 -0.00140279 0.122471)
(0.0214381 -0.0212113 0.134739)
(-0.0209379 0.0209681 0.134784)
(0.0209516 0.0209575 0.134784)
(0.000487108 -0.00143889 0.122422)
(-0.0015164 0.00146416 0.118862)
(-0.00135702 0.000456124 0.122546)
(1.11401e-06 1.13543e-07 0.0606919)
(1.06577e-05 1.16681e-05 0.143456)
(-1.06833e-05 1.20078e-05 0.143461)
(1.13564e-05 -1.0674e-05 0.143452)
(-1.24078e-05 -9.07415e-06 0.143441)
(3.19952e-05 7.02819e-07 0.113725)
(-8.97173e-06 5.63842e-06 0.13318)
(2.5855e-05 -6.7844e-06 0.0975385)
(-9.63604e-06 1.33687e-06 0.138369)
(0.000106957 0.000111333 0.127638)
(5.77051e-06 7.80528e-06 0.0832777)
(6.41774e-06 3.26115e-06 0.0834432)
(2.87421e-07 -1.68402e-05 0.0966509)
(5.95906e-06 1.07201e-05 0.0712745)
(-4.27245e-08 1.34578e-05 0.0968519)
(-2.96948e-08 -1.09038e-05 0.0711549)
(-4.96304e-06 3.71799e-06 0.0608871)
(3.01564e-06 -3.45073e-06 0.0607824)
(-1.24776e-05 7.32888e-07 0.0956017)
(9.01296e-06 8.7605e-07 0.0709232)
(1.19353e-05 -5.15617e-07 0.0961389)
(-9.67789e-06 -1.11914e-06 0.0706615)
(1.45653e-05 -1.41913e-05 0.143766)
(-1.41123e-05 1.23681e-05 0.143755)
(1.46018e-05 1.20509e-05 0.143759)
(1.88985e-05 2.00008e-05 0.143401)
(-1.90205e-05 2.02686e-05 0.143406)
(1.96475e-05 -1.862e-05 0.143396)
(-2.04187e-05 -1.75795e-05 0.143391)
(3.11208e-05 8.9904e-07 0.113728)
(-2.67119e-05 4.93059e-06 0.0980008)
(1.47443e-05 -5.11086e-06 0.138573)
(-1.05102e-05 9.15427e-06 0.133146)
(-3.23948e-05 -1.30373e-06 0.114313)
(2.61412e-05 -6.31827e-06 0.0975407)
(-1.20713e-05 3.18687e-06 0.138323)
(2.76074e-06 -1.98657e-06 0.0607234)
(-2.4824e-06 2.17626e-06 0.0605409)
(8.30062e-07 3.16326e-05 0.114853)
(-3.32311e-06 9.38206e-06 0.139194)
(8.10347e-06 -2.63052e-05 0.0984626)
(1.10777e-05 -1.04879e-05 0.133523)
(-3.14443e-07 -3.73484e-05 0.115044)
(2.90737e-06 -1.32022e-05 0.138955)
(-7.71083e-06 2.61338e-05 0.0982283)
(-5.64176e-06 -6.40957e-06 0.0836432)
(-1.00886e-05 -5.05954e-06 0.083893)
(0.000106842 0.000111349 0.127643)
(5.87973e-06 6.49504e-06 0.0832817)
(9.46226e-06 6.6693e-06 0.083655)
(6.78172e-08 -1.613e-05 0.0966474)
(2.65652e-06 1.16492e-05 0.0712769)
(-2.3873e-07 1.81841e-05 0.0968467)
(-2.59612e-06 -1.06726e-05 0.0711586)
(-3.5246e-06 3.47609e-06 0.0608891)
(3.66792e-06 -2.87611e-06 0.0607877)
(-1.25129e-05 7.28909e-07 0.0956048)
(8.94148e-06 1.12243e-06 0.0709263)
(1.19628e-05 -3.79547e-07 0.0961415)
(-9.77122e-06 -9.4042e-07 0.0706648)
(2.26364e-05 -2.15763e-05 0.14383)
(-2.23388e-05 1.93903e-05 0.143818)
(2.32935e-05 1.83182e-05 0.143819)
(3.11376e-05 3.24189e-05 0.143323)
(-3.14876e-05 3.26036e-05 0.143328)
(3.21779e-05 -3.01354e-05 0.143318)
(-3.33484e-05 -2.85294e-05 0.143311)
(3.10571e-05 9.29807e-07 0.113729)
(-2.66723e-05 4.74189e-06 0.0980025)
(2.17949e-05 -5.96998e-06 0.13862)
(-1.67575e-05 1.54873e-05 0.133104)
(-3.2719e-05 -1.10701e-06 0.114313)
(2.58059e-05 -6.46538e-06 0.097543)
(-2.00833e-05 5.92292e-06 0.138266)
(2.53775e-06 -2.13975e-06 0.0607267)
(-2.69169e-06 1.98353e-06 0.0605447)
(5.76848e-07 3.21829e-05 0.114851)
(-5.74454e-06 1.49382e-05 0.13924)
(8.67121e-06 -2.70405e-05 0.0984564)
(1.55632e-05 -1.63262e-05 0.133487)
(-2.98426e-07 -3.73917e-05 0.115036)
(4.74597e-06 -2.05951e-05 0.138901)
(-7.89957e-06 2.55468e-05 0.0982244)
(-6.21343e-06 -5.61663e-06 0.0836463)
(-1.05151e-05 -4.44653e-06 0.0838986)
(0.000106833 0.000109632 0.127637)
(6.07518e-06 7.54342e-06 0.0832827)
(9.23893e-06 6.48113e-06 0.0836607)
(1.43031e-07 -1.62049e-05 0.0966466)
(2.08307e-06 1.18537e-05 0.0712798)
(-2.13468e-07 1.82933e-05 0.0968448)
(-2.48971e-06 -1.06836e-05 0.0711612)
(-3.34937e-06 4.06537e-06 0.0608908)
(3.33416e-06 -3.3618e-06 0.0607866)
(-1.2486e-05 6.09267e-07 0.0956084)
(8.88311e-06 1.1196e-06 0.0709299)
(1.18498e-05 -5.01661e-07 0.0961443)
(-9.79765e-06 -9.34056e-07 0.070669)
(3.71313e-05 -3.59509e-05 0.143916)
(-3.69564e-05 3.29789e-05 0.143904)
(3.73196e-05 3.24669e-05 0.143911)
(5.26215e-05 5.36676e-05 0.143216)
(-5.31989e-05 5.37691e-05 0.143222)
(5.38765e-05 -5.02562e-05 0.143212)
(-5.48247e-05 -4.94095e-05 0.143209)
(3.07098e-05 7.72303e-07 0.113731)
(-2.67009e-05 4.80317e-06 0.0980044)
(3.42267e-05 -9.52056e-06 0.138687)
(-2.71549e-05 2.3922e-05 0.13305)
(-3.26818e-05 -1.36203e-06 0.114313)
(2.57415e-05 -6.50152e-06 0.0975463)
(-3.36609e-05 9.01806e-06 0.138188)
(2.47424e-06 -2.21737e-06 0.0607307)
(-2.726e-06 1.99925e-06 0.0605492)
(5.31887e-07 3.22413e-05 0.114852)
(-8.66831e-06 2.52624e-05 0.139306)
(8.65556e-06 -2.74433e-05 0.0984544)
(2.44576e-05 -2.57553e-05 0.133436)
(-4.36255e-07 -3.7018e-05 0.115035)
(8.8524e-06 -3.25656e-05 0.138826)
(-7.70675e-06 2.51668e-05 0.0982244)
(-5.40812e-06 -6.4012e-06 0.0836468)
(-9.8872e-06 -5.5159e-06 0.0839016)
(0.000105729 0.000110165 0.127629)
(5.80604e-06 6.38069e-06 0.0832869)
(9.40927e-06 6.33539e-06 0.0836622)
(1.24928e-07 -1.63436e-05 0.0966474)
(2.53181e-06 1.18544e-05 0.0712807)
(-1.70252e-07 1.81245e-05 0.0968447)
(-1.96119e-06 -1.08024e-05 0.0711627)
(-4.26817e-06 3.31229e-06 0.0608918)
(2.59826e-06 -3.43172e-06 0.0607914)
(-1.20663e-05 6.76367e-07 0.0956114)
(9.17562e-06 1.1022e-06 0.0709328)
(1.21668e-05 -5.01973e-07 0.0961463)
(-9.51616e-06 -8.69252e-07 0.0706726)
(6.19266e-05 -6.03655e-05 0.144032)
(-6.18858e-05 5.64294e-05 0.144021)
(6.2551e-05 5.51473e-05 0.144023)
(9.041e-05 9.08324e-05 0.14307)
(-9.12921e-05 9.07118e-05 0.143078)
(9.19072e-05 -8.58986e-05 0.143067)
(-9.29248e-05 -8.40715e-05 0.143061)
(2.96272e-05 8.41002e-07 0.113732)
(-2.73509e-05 4.59624e-06 0.0980057)
(5.49113e-05 -1.40512e-05 0.138782)
(-4.43498e-05 3.94797e-05 0.132979)
(-3.34529e-05 -1.32057e-06 0.114312)
(2.44067e-05 -6.28011e-06 0.0975494)
(-5.75608e-05 1.50463e-05 0.138078)
(2.76282e-06 -2.21937e-06 0.0607334)
(-2.57168e-06 1.91689e-06 0.0605524)
(5.90047e-07 3.15053e-05 0.114854)
(-1.43642e-05 4.36899e-05 0.1394)
(9.0689e-06 -2.7731e-05 0.0984541)
(3.95124e-05 -4.12001e-05 0.133367)
(-3.99663e-07 -3.72366e-05 0.115035)
(1.5352e-05 -5.34401e-05 0.138722)
(-7.13302e-06 2.46623e-05 0.0982264)
(-6.92067e-06 -5.6855e-06 0.0836483)
(-1.13263e-05 -4.57932e-06 0.0839022)
(0.000103634 0.000106942 0.12762)
(5.2494e-06 7.34722e-06 0.0832871)
(8.17296e-06 6.50834e-06 0.083667)
(1.54837e-07 -1.57698e-05 0.0966492)
(2.61114e-06 1.21292e-05 0.0712807)
(-2.07917e-07 1.82703e-05 0.0968454)
(-1.58219e-06 -1.07498e-05 0.0711642)
(-4.16416e-06 4.06594e-06 0.0608907)
(2.30841e-06 -3.62744e-06 0.0607899)
(-1.1203e-05 6.93428e-07 0.0956151)
(9.75713e-06 1.06425e-06 0.0709332)
(1.30902e-05 -4.33385e-07 0.0961471)
(-9.13061e-06 -7.00285e-07 0.0706751)
(0.000105863 -0.000103669 0.144188)
(-0.000105798 9.80814e-05 0.144178)
(0.000105873 9.78653e-05 0.144185)
(0.000158153 0.000157728 0.142875)
(-0.000159832 0.000157481 0.142886)
(0.000159961 -0.000150573 0.142874)
(-0.000160625 -0.000149676 0.142872)
(2.74733e-05 1.08849e-06 0.113736)
(-2.82777e-05 5.2731e-06 0.0980048)
(9.17521e-05 -2.34561e-05 0.138919)
(-7.25395e-05 6.47512e-05 0.132889)
(-3.46357e-05 -1.20948e-06 0.114311)
(2.32608e-05 -5.39819e-06 0.0975533)
(-0.000100342 2.46686e-05 0.137926)
(3.2706e-06 -2.21987e-06 0.0607326)
(-2.40496e-06 1.72063e-06 0.0605541)
(8.18248e-07 2.95174e-05 0.114857)
(-2.37753e-05 7.71336e-05 0.139534)
(9.47265e-06 -2.8436e-05 0.0984535)
(6.50198e-05 -6.65108e-05 0.13328)
(-3.37546e-07 -3.8085e-05 0.115035)
(2.70756e-05 -9.22911e-05 0.138577)
(-6.40556e-06 2.33694e-05 0.0982297)
(-6.95858e-06 -6.69273e-06 0.0836443)
(-1.07714e-05 -6.04469e-06 0.0839019)
(9.91938e-05 0.000104635 0.127609)
(4.64739e-06 5.45916e-06 0.0832898)
(8.16021e-06 6.53242e-06 0.0836698)
(2.48673e-07 -1.47373e-05 0.0966506)
(2.10313e-06 1.29674e-05 0.0712788)
(-1.44264e-07 1.91339e-05 0.096845)
(-8.58748e-07 -1.06785e-05 0.0711655)
(-3.98176e-06 4.32113e-06 0.0608866)
(1.62486e-06 -3.70821e-06 0.0607961)
(-1.01979e-05 7.32241e-07 0.0956197)
(1.06898e-05 5.99301e-07 0.0709305)
(1.4455e-05 -3.96381e-07 0.0961454)
(-8.93996e-06 -2.47497e-07 0.0706774)
(0.000186421 -0.000182255 0.144398)
(-0.00018601 0.000174682 0.144391)
(0.000186216 0.000173052 0.144392)
(0.000284961 0.000283151 0.142618)
(-0.000287882 0.000282263 0.142632)
(0.000286826 -0.000272707 0.142618)
(-0.000287597 -0.000270709 0.142612)
(2.36826e-05 1.33069e-06 0.113743)
(-2.99898e-05 5.15863e-06 0.0980013)
(0.000160457 -3.85331e-05 0.139113)
(-0.000117243 0.000109143 0.132782)
(-3.71609e-05 -8.60494e-07 0.114309)
(2.09331e-05 -4.35112e-06 0.0975598)
(-0.000179826 4.32888e-05 0.137711)
(4.12593e-06 -1.81294e-06 0.0607274)
(-2.5092e-06 1.24582e-06 0.0605571)
(1.07396e-06 2.42267e-05 0.114863)
(-4.22662e-05 0.00014176 0.139727)
(9.55466e-06 -2.98798e-05 0.0984504)
(0.000107938 -0.000107327 0.133176)
(-2.64087e-07 -3.99129e-05 0.115035)
(4.7774e-05 -0.000166808 0.138374)
(-5.07398e-06 2.13545e-05 0.0982346)
(-8.73086e-06 -6.07408e-06 0.0836355)
(-1.15029e-05 -6.19953e-06 0.083895)
(9.38119e-05 9.73371e-05 0.1276)
(4.10177e-06 5.28577e-06 0.083294)
(6.458e-06 5.85409e-06 0.0836788)
(2.58494e-07 -1.31737e-05 0.0966516)
(7.01632e-07 1.46887e-05 0.0712754)
(2.17686e-08 2.0941e-05 0.0968417)
(1.34117e-06 -1.12167e-05 0.0711659)
(-2.19062e-06 6.53265e-06 0.0608774)
(-6.85746e-07 -5.3057e-06 0.0608026)
(-8.76448e-06 8.31232e-07 0.0956253)
(1.23268e-05 -5.35985e-07 0.0709247)
(1.71216e-05 -5.40446e-08 0.0961391)
(-9.54094e-06 1.8435e-06 0.0706795)
(0.000339938 -0.00033196 0.144676)
(-0.000338349 0.00032114 0.144673)
(0.000337283 0.000320134 0.144679)
(0.000532567 0.000528774 0.142288)
(-0.000538677 0.000527141 0.142307)
(0.000534513 -0.000513214 0.142289)
(-0.000534672 -0.000513505 0.142287)
(1.61868e-05 1.73124e-06 0.113754)
(-3.29457e-05 4.94898e-06 0.0979923)
(0.000295434 -6.91397e-05 0.139392)
(-0.000184556 0.000182712 0.132676)
(-4.16023e-05 -6.33723e-07 0.114303)
(1.93184e-05 -1.39723e-06 0.097571)
(-0.000334882 7.75693e-05 0.137413)
(5.74508e-06 -5.28603e-07 0.0607161)
(-3.73151e-06 -8.62847e-07 0.0605665)
(1.25598e-06 1.57805e-05 0.114871)
(-7.7022e-05 0.0002706 0.140003)
(8.94091e-06 -3.25631e-05 0.0984432)
(0.000179994 -0.000169007 0.133069)
(-3.18529e-08 -4.20485e-05 0.115033)
(8.77341e-05 -0.00031459 0.138093)
(-2.23368e-06 1.91089e-05 0.0982431)
(-1.08109e-05 -5.63532e-06 0.0836141)
(-9.32831e-06 -9.7097e-06 0.0838795)
(8.33263e-05 8.80344e-05 0.127598)
(4.92245e-06 1.16978e-06 0.0833131)
(4.19264e-06 7.05591e-06 0.0836981)
(-3.79178e-07 -9.21145e-06 0.0966485)
(-2.93085e-06 1.84256e-05 0.0712759)
(7.97564e-07 2.64749e-05 0.0968357)
(8.14742e-06 -1.38596e-05 0.0711532)
(1.96669e-06 9.79929e-06 0.0608592)
(-8.28156e-06 -9.0869e-06 0.0608259)
(-5.07622e-06 1.60412e-07 0.0956301)
(1.59889e-05 -3.81723e-06 0.0709214)
(2.35558e-05 1.01336e-06 0.0961272)
(-1.20954e-05 8.33198e-06 0.0706705)
(0.000646759 -0.000630852 0.145037)
(-0.000640324 0.000615104 0.14504)
(0.000641027 0.000612756 0.145039)
(0.00104372 0.00103856 0.141888)
(-0.0010581 0.00103597 0.141913)
(0.00104481 -0.00101516 0.14189)
(-0.00104515 -0.00101251 0.141885)
(9.34447e-07 2.45484e-06 0.113766)
(-3.89219e-05 2.88877e-06 0.0979776)
(0.000574512 -0.000129334 0.139786)
(-0.000267011 0.000297702 0.132617)
(-5.19456e-05 7.19622e-07 0.114289)
(1.9604e-05 6.07647e-06 0.0975839)
(-0.000653694 0.000147873 0.137015)
(9.68292e-06 3.82697e-06 0.0606943)
(-7.91486e-06 -8.0737e-06 0.0605889)
(1.69248e-06 -4.90238e-07 0.114877)
(-0.000146137 0.000537574 0.140392)
(6.8861e-06 -3.75994e-05 0.0984334)
(0.00029136 -0.000242584 0.133004)
(5.89173e-07 -4.7972e-05 0.115028)
(0.000166364 -0.000618984 0.137714)
(5.35722e-06 1.94075e-05 0.0982502)
(-1.69411e-05 -1.32292e-06 0.083566)
(-5.57056e-06 -1.33743e-05 0.0838387)
(6.6465e-05 6.95101e-05 0.127614)
(1.01849e-05 -7.10179e-06 0.0833656)
(-4.8316e-06 1.21834e-05 0.0837547)
(-6.05863e-06 -5.0961e-06 0.096639)
(-1.48196e-05 2.70524e-05 0.0713151)
(4.73237e-06 4.06538e-05 0.0968268)
(2.6542e-05 -2.23348e-05 0.0710634)
(1.72077e-05 2.06361e-05 0.0608235)
(-3.14471e-05 -2.31935e-05 0.0608571)
(-3.37307e-07 -5.9045e-06 0.0956366)
(2.48818e-05 -1.47636e-05 0.0709535)
(3.79356e-05 5.23747e-06 0.0961049)
(-2.07737e-05 2.72412e-05 0.0705866)
(0.00129938 -0.00126732 0.145492)
(-0.00128065 0.001244 0.145502)
(0.00127834 0.00124076 0.145506)
(0.00217643 0.00216916 0.141441)
(-0.00220931 0.00216575 0.141477)
(0.00217419 -0.00213397 0.141444)
(-0.00217727 -0.0021363 0.141441)
(-3.88731e-05 1.14072e-06 0.113775)
(-5.23282e-05 -3.86964e-06 0.0979736)
(0.00117986 -0.000262118 0.140335)
(-0.000286241 0.000438651 0.132732)
(-6.943e-05 3.77969e-06 0.114262)
(3.28595e-05 2.47881e-05 0.0975602)
(-0.00134385 0.000301135 0.136532)
(2.05551e-05 1.8425e-05 0.0606533)
(-2.14815e-05 -3.17291e-05 0.0606279)
(1.5101e-07 -3.97593e-05 0.114871)
(-0.000286893 0.00111869 0.140928)
(-4.35167e-08 -4.99304e-05 0.0984423)
(0.000423207 -0.000250206 0.133091)
(4.02701e-06 -6.08269e-05 0.11502)
(0.00033142 -0.00128032 0.13725)
(2.36954e-05 3.17224e-05 0.0982095)
(-3.46754e-05 1.18028e-05 0.0834519)
(9.80639e-06 -3.19713e-05 0.0837406)
(4.3331e-05 4.90678e-05 0.127696)
(3.16706e-05 -3.29477e-05 0.0835092)
(-2.77114e-05 3.458e-05 0.0838888)
(-4.28643e-05 -5.95135e-05 0.0966913)
(-5.30695e-05 4.43121e-05 0.0715564)
(2.30457e-05 7.10863e-05 0.0968002)
(6.26886e-05 -8.67224e-05 0.0706598)
(6.61732e-05 4.3867e-05 0.0607855)
(-8.76067e-05 -7.96186e-05 0.0609259)
(-5.10261e-05 -4.15076e-05 0.0957218)
(4.2412e-05 -5.00844e-05 0.0711887)
(6.61628e-05 2.50604e-05 0.0960507)
(-8.7938e-05 6.80585e-05 0.0701818)
(0.00283425 -0.00277622 0.146042)
(-0.00278515 0.00273884 0.146062)
(0.00278888 0.00273124 0.146058)
(0.00469995 0.00472536 0.14087)
(-0.0047814 0.00472695 0.140919)
(0.00469996 -0.00466645 0.140873)
(-0.00470706 -0.00466355 0.14087)
(-0.000104198 -1.26451e-05 0.113812)
(-7.63952e-05 -2.87216e-05 0.0981044)
(0.00262038 -0.000560183 0.141018)
(0.000178173 0.000372368 0.13324)
(-8.63102e-05 1.5594e-05 0.114206)
(0.000108872 4.82245e-05 0.0972882)
(-0.00288341 0.00065146 0.136061)
(4.43221e-05 6.64367e-05 0.0606044)
(-8.19156e-05 -9.18776e-05 0.0607057)
(-1.794e-05 -8.97868e-05 0.11483)
(-0.000593154 0.0025005 0.141592)
(-2.5725e-05 -7.16962e-05 0.0986011)
(0.000353001 0.000219559 0.133519)
(1.43683e-05 -6.95954e-05 0.115017)
(0.000681917 -0.00276766 0.136794)
(4.54217e-05 0.000108691 0.0978962)
(-8.03042e-05 5.13883e-05 0.0831679)
(5.16769e-05 -7.45268e-05 0.0835013)
(7.69963e-05 7.47145e-05 0.127966)
(0.000136575 -6.37499e-05 0.0839074)
(-5.68019e-05 0.000135448 0.0842656)
(-0.00018353 -0.00101059 0.0961581)
(-0.000185332 4.76303e-05 0.0729561)
(8.36951e-05 -0.000142913 0.0963787)
(-7.25469e-05 -0.000985366 0.0686081)
(0.000212122 7.49806e-05 0.0611986)
(-9.49812e-05 -0.000881049 0.0613621)
(-0.000977576 -0.000179565 0.0960757)
(4.80183e-05 -0.000164121 0.0726742)
(-9.85108e-05 9.27039e-05 0.0959895)
(-0.00100395 -4.77345e-05 0.0685137)
(0.00709829 -0.00698334 0.146211)
(-0.00695991 0.0069119 0.146235)
(0.00697289 0.00690275 0.146236)
(0.00830595 0.00831624 0.135244)
(-0.00851176 0.00833923 0.135248)
(0.00827914 -0.00831237 0.135248)
(-0.00828036 -0.00832047 0.13525)
(0.000864714 -9.0131e-05 0.113329)
(0.000205433 -0.000219412 0.0992275)
(0.00675939 -0.00132029 0.141265)
(0.00351728 -0.00152938 0.134065)
(0.000210086 3.21727e-05 0.113943)
(0.000870281 -0.00023298 0.0954052)
(-0.00562271 0.00123337 0.135448)
(7.85158e-05 0.000197082 0.0610316)
(-0.000878878 -0.000106384 0.0613028)
(-0.000111429 0.000905466 0.11339)
(-0.00133159 0.0064982 0.141707)
(-0.000244408 0.000210182 0.0997517)
(-0.00152433 0.00343208 0.133734)
(1.63026e-05 0.000241011 0.114518)
(0.00121966 -0.00561115 0.135331)
(-0.000238841 0.000839404 0.0953839)
(-4.22769e-05 0.000186222 0.0828189)
(0.000205462 -3.24781e-05 0.0832494)
(0.00127867 0.00122288 0.128214)
(0.000834521 0.000230714 0.084871)
(0.000237924 0.00083676 0.0849356)
(-0.00134072 -0.0247103 0.0989661)
(-0.00106403 -0.00429591 0.048274)
(-0.000583659 -0.00609649 0.0887831)
(-0.00823383 -0.0162134 0.0871576)
(0.000404807 -0.00250514 0.035293)
(0.00830547 -0.0151413 0.0848569)
(-0.0246926 -0.00133828 0.0989367)
(-0.00429992 -0.00103414 0.0482225)
(-0.00611354 -0.000579345 0.0887513)
(-0.0162357 -0.00820349 0.0871425)
(-0.00538171 -0.00529223 0.119925)
(-0.00455612 -0.0188226 0.137374)
(-0.0189135 -0.00463695 0.13725)
(-0.0235382 -0.0235424 0.125308)
(-0.00551625 -0.00544025 0.139888)
(-0.0047238 -0.0216294 0.122784)
(-0.0216913 -0.00475643 0.122718)
(0.0255256 -0.0021592 0.106606)
(0.00654326 -0.00310611 0.0869523)
(0.0244548 -0.00389195 0.130262)
(0.0293687 -0.0213879 0.118215)
(0.00599251 -0.000482644 0.107805)
(0.0205389 -0.0103036 0.0992402)
(0.0291833 -0.00434403 0.117763)
(-0.00251388 0.00037784 0.0352584)
(-0.0151702 0.00824322 0.084829)
(-0.00230549 0.0253396 0.106812)
(-0.00399335 0.024522 0.130293)
(-0.00314532 0.00650251 0.0870514)
(-0.0206882 0.0290215 0.118224)
(-0.000437922 0.00605332 0.10778)
(-0.00432837 0.0292191 0.11777)
(-0.0103854 0.0205223 0.099304)
(0.00406518 0.00216343 0.076678)
(0.00222119 0.00405166 0.0768312)
(0.0239498 0.0237359 0.114332)
(0.017886 0.00967972 0.0930775)
(0.00977388 0.0178491 0.0931316)
(-1.07113e-06 -2.73205e-06 0.0607987)
(6.51016e-06 7.08868e-06 0.0608004)
(-2.85401e-06 -2.25827e-06 0.0605446)
(1.72965e-06 1.8369e-06 0.0607278)
(0.000110575 0.00010754 0.127803)
(-8.43035e-06 -6.91665e-06 0.0836957)
(-6.05234e-06 -7.09738e-06 0.0832344)
(9.48782e-06 7.64659e-06 0.0837936)
(5.55498e-06 6.12733e-06 0.0835973)
(2.92408e-06 -7.32913e-06 0.0709141)
(-6.78741e-06 1.08001e-05 0.133212)
(4.77209e-06 -2.63855e-05 0.0978279)
(5.91366e-07 1.33887e-05 0.0962646)
(1.23652e-06 -1.16016e-05 0.0711535)
(3.41981e-06 1.11891e-05 0.0710462)
(5.90936e-07 -2.34716e-05 0.0966479)
(-6.07987e-07 1.34069e-05 0.0962636)
(-1.45651e-06 -1.16257e-05 0.0711401)
(-3.38348e-06 1.12729e-05 0.0710317)
(-5.94789e-07 -2.3493e-05 0.096646)
(-2.52031e-07 3.37643e-05 0.114428)
(-4.7508e-06 -5.13208e-06 0.133686)
(-9.08555e-06 -2.72766e-05 0.0982267)
(2.08656e-06 1.27272e-05 0.139034)
(6.96302e-06 2.87826e-05 0.0981051)
(-1.90567e-06 -6.67435e-06 0.13916)
(4.41946e-07 -3.47471e-05 0.114849)
(1.84782e-07 3.38235e-05 0.114427)
(4.75445e-06 -4.72814e-06 0.133697)
(8.65275e-06 -2.72157e-05 0.0982082)
(-2.09286e-06 1.28911e-05 0.139039)
(-7.11148e-06 2.89077e-05 0.0980862)
(1.75537e-06 -6.40354e-06 0.139165)
(-5.41242e-07 -3.4709e-05 0.114849)
(0.00010721 -0.000110932 0.127656)
(5.65752e-06 -3.27444e-06 0.083438)
(6.15613e-06 -7.87917e-06 0.0832736)
(3.8005e-06 -2.74313e-06 0.0605478)
(6.19097e-07 -2.88634e-06 0.0607848)
(-6.69071e-06 7.12732e-06 0.0607853)
(-0.000110356 0.000107864 0.127807)
(7.66239e-06 -7.1138e-06 0.0836454)
(5.94473e-06 -7.63311e-06 0.0832756)