/*--------------------------------*- C++ -*----------------------------------*\
| =========                 |                                                 |
| \\      /  F ield         | OpenFOAM: The Open Source CFD Toolbox           |
|  \\    /   O peration     | Version:  2206                                  |
|   \\  /    A nd           | Website:  www.openfoam.com                      |
|    \\/     M anipulation  |                                                 |
\*---------------------------------------------------------------------------*/
FoamFile
{
    version     2.0;
    format      ascii;
    arch        "LSB;label=32;scalar=64";
    class       volScalarField;
    location    "90";
    object      k;
}
// * * * * * * * * * * * * * * * * * * * * * * * * * * * * * * * * * * * * * //

dimensions      [0 2 -2 0 0 0 0];

internalField   nonuniform List<scalar> 
66621
(
1.67031e-05
4.68187e-05
1.65357e-05
5.85643e-05
4.83297e-05
4.21901e-05
1.08618e-05
5.72444e-05
5.02316e-05
4.13165e-05
4.76863e-05
5.2372e-05
2.74418e-05
2.76004e-05
1.0646e-05
1.05094e-05
5.12472e-05
2.77467e-05
2.72777e-05
5.14797e-05
4.76108e-05
2.76582e-05
1.08517e-05
5.73456e-05
5.09225e-05
4.6376e-05
4.17196e-05
4.71624e-05
1.72637e-05
5.78847e-05
5.1514e-05
4.20185e-05
4.84222e-05
4.72638e-05
1.71098e-05
5.83854e-05
5.13475e-05
4.19811e-05
4.73761e-05
4.77641e-05
1.6696e-05
5.13592e-05
2.80386e-05
2.76467e-05
1.06693e-05
5.73461e-05
5.05684e-05
4.10792e-05
4.80286e-05
4.69063e-05
1.67137e-05
4.76859e-05
1.69765e-05
1.05716e-05
1.06922e-05
2.58855e-05
9.8074e-06
1.31735e-05
4.22771e-05
1.44558e-05
4.70354e-05
4.22486e-05
1.44246e-05
1.32379e-05
9.9397e-06
2.60627e-05
1.6593e-05
2.62505e-05
1.00027e-05
1.07802e-05
2.10686e-05
9.59003e-06
9.5754e-06
9.58289e-06
9.60817e-06
2.10298e-05
4.55659e-05
1.67933e-05
2.76682e-05
5.57326e-05
5.57814e-05
1.67133e-05
4.54719e-05
4.50811e-05
1.65786e-05
2.7749e-05
5.46203e-05
5.48265e-05
1.65705e-05
4.5049e-05
1.05112e-05
2.07739e-05
9.53368e-06
9.43684e-06
9.54999e-06
9.39597e-06
2.07508e-05
4.54609e-05
1.65505e-05
5.57992e-05
1.67481e-05
4.52948e-05
4.39367e-05
1.63174e-05
2.73809e-05
5.4356e-05
1.61751e-05
4.39537e-05
5.52231e-05
9.66082e-06
2.09668e-05
1.69336e-05
5.60776e-05
4.54227e-05
1.3429e-05
1.46921e-05
4.32427e-05
4.72767e-05
1.45907e-05
4.32739e-05
1.34475e-05
1.02709e-05
2.6742e-05
1.72543e-05
2.68025e-05
1.02282e-05
4.19337e-05
1.4753e-05
1.3164e-05
2.63001e-05
1.01331e-05
1.46583e-05
4.25815e-05
1.31976e-05
2.61538e-05
9.97332e-06
2.1144e-05
9.61858e-06
9.68776e-06
9.67008e-06
9.67104e-06
2.1145e-05
4.54027e-05
1.67908e-05
2.80489e-05
5.5361e-05
1.68316e-05
5.61727e-05
4.53786e-05
4.54729e-05
1.69104e-05
2.76906e-05
5.5568e-05
5.55048e-05
1.68043e-05
4.49466e-05
1.0672e-05
1.32483e-05
4.27715e-05
1.46756e-05
4.73737e-05
4.28048e-05
1.46837e-05
1.33609e-05
9.98908e-06
2.62168e-05
1.68504e-05
2.64967e-05
1.00007e-05
1.34051e-05
4.2313e-05
1.46921e-05
4.77314e-05
4.30371e-05
1.4685e-05
1.33899e-05
1.00808e-05
2.64234e-05
1.70522e-05
2.65204e-05
1.00757e-05
1.06784e-05
3.27231e-05
2.43273e-05
2.50912e-05
1.66276e-05
3.39143e-05
2.45081e-05
2.55127e-05
1.66351e-05
3.34106e-05
2.52897e-05
2.42802e-05
1.66416e-05
3.31551e-05
2.52912e-05
2.42516e-05
1.66437e-05
5.35469e-05
5.82623e-05
5.16392e-05
5.8458e-05
5.82768e-05
5.16102e-05
5.37141e-05
5.49593e-05
5.78942e-05
5.50839e-05
5.12056e-05
5.02984e-05
5.68377e-05
5.70976e-05
4.95525e-05
5.68534e-05
5.19331e-05
5.47203e-05
5.42987e-05
4.76345e-05
5.77787e-05
5.77004e-05
5.48112e-05
5.47637e-05
5.70315e-05
5.2146e-05
5.84262e-05
5.75319e-05
5.77687e-05
5.73777e-05
5.69188e-05
5.63662e-05
5.21354e-05
5.68751e-05
5.70764e-05
5.65813e-05
5.7399e-05
5.71287e-05
5.43947e-05
5.7863e-05
5.44732e-05
5.26603e-05
5.64321e-05
5.14106e-05
5.74369e-05
5.66907e-05
5.05506e-05
5.29446e-05
5.51761e-05
5.39881e-05
4.70489e-05
5.73057e-05
5.43183e-05
5.73565e-05
5.52635e-05
5.34345e-05
5.15284e-05
5.81424e-05
5.81354e-05
5.13612e-05
5.83956e-05
5.35025e-05
5.63514e-05
5.58687e-05
4.85168e-05
5.87536e-05
5.50395e-05
5.53606e-05
5.87358e-05
5.27418e-05
5.18802e-05
5.70158e-05
5.73886e-05
5.1127e-05
5.68123e-05
5.35276e-05
5.53665e-05
5.39598e-05
4.75841e-05
5.79364e-05
5.76923e-05
5.4508e-05
5.55583e-05
5.63922e-05
5.14471e-05
5.83294e-05
5.7621e-05
5.696e-05
5.73355e-05
5.74402e-05
5.12603e-05
5.0166e-05
5.74282e-05
5.64016e-05
4.93771e-05
5.66561e-05
5.21094e-05
5.50895e-05
5.49036e-05
4.72736e-05
5.7721e-05
5.76502e-05
5.40568e-05
5.42829e-05
3.04387e-06
7.0729e-07
1.27955e-07
4.60952e-08
2.62037e-07
3.02897e-06
7.0323e-07
1.27095e-07
4.59174e-08
2.61356e-07
3.10074e-06
7.37678e-07
1.3613e-07
5.11709e-08
2.95562e-07
3.03431e-06
7.21726e-07
1.33386e-07
5.09414e-08
2.95807e-07
3.00126e-06
7.13194e-07
1.31807e-07
5.06883e-08
2.95137e-07
3.10554e-06
7.38526e-07
1.36175e-07
5.12023e-08
2.95837e-07
3.16657e-06
7.34573e-07
1.32478e-07
4.64826e-08
2.61757e-07
3.12684e-06
7.25172e-07
1.30894e-07
4.63515e-08
2.61883e-07
3.05589e-06
7.0909e-07
1.28169e-07
4.6056e-08
2.61609e-07
3.02666e-06
7.1964e-07
1.32973e-07
5.08554e-08
2.95513e-07
3.04243e-06
7.06658e-07
1.27818e-07
4.60234e-08
2.61596e-07
3.07433e-06
7.13178e-07
1.28849e-07
4.61086e-08
2.61556e-07
3.03522e-06
7.21755e-07
1.33262e-07
5.08548e-08
2.95349e-07
3.02866e-06
7.19691e-07
1.32938e-07
5.08214e-08
2.95338e-07
2.94248e-06
6.89917e-07
1.25862e-07
4.6768e-08
2.68995e-07
3.04962e-06
7.18805e-07
1.31565e-07
4.8223e-08
2.76067e-07
3.04801e-06
7.1823e-07
1.31436e-07
4.82269e-08
2.76218e-07
2.95019e-06
6.91442e-07
1.26053e-07
4.67758e-08
2.68928e-07
3.0295e-06
7.02638e-07
1.27008e-07
4.58853e-08
2.61173e-07
3.08921e-06
7.35427e-07
1.35812e-07
5.11401e-08
2.95539e-07
3.14797e-06
7.28188e-07
1.31347e-07
4.66349e-08
2.63854e-07
3.13368e-06
7.26257e-07
1.311e-07
4.65856e-08
2.63621e-07
3.10599e-06
7.20228e-07
1.30114e-07
4.65117e-08
2.63771e-07
3.09937e-06
7.18638e-07
1.29848e-07
4.64257e-08
2.6328e-07
3.00071e-06
7.13073e-07
1.31783e-07
5.06813e-08
2.95109e-07
2.87266e-06
6.81157e-07
1.2585e-07
4.9464e-08
2.8998e-07
3.17617e-06
7.36508e-07
1.32796e-07
4.68321e-08
2.6427e-07
3.00052e-06
7.04084e-07
1.28392e-07
4.7056e-08
2.69266e-07
3.0894e-06
7.27569e-07
1.33086e-07
4.83862e-08
2.76156e-07
3.079e-06
7.25511e-07
1.32733e-07
4.83718e-08
2.76331e-07
3.01087e-06
7.06205e-07
1.28723e-07
4.70785e-08
2.6921e-07
3.1592e-06
7.3302e-07
1.32217e-07
4.64344e-08
2.61558e-07
3.10355e-06
7.30217e-07
1.33345e-07
4.83921e-08
2.76214e-07
2.95848e-06
6.95019e-07
1.26819e-07
4.68747e-08
2.69128e-07
3.08865e-06
7.26967e-07
1.32861e-07
4.83447e-08
2.76142e-07
2.95865e-06
6.93776e-07
1.2657e-07
4.68407e-08
2.6902e-07
2.87011e-06
6.80023e-07
1.25656e-07
4.94368e-08
2.89901e-07
3.1463e-06
7.29073e-07
1.31625e-07
4.67062e-08
2.6409e-07
3.1386e-06
7.27631e-07
1.31378e-07
4.66096e-08
2.63508e-07
3.02693e-06
7.19628e-07
1.32953e-07
5.07874e-08
2.94992e-07
2.91862e-06
6.84376e-07
1.24951e-07
4.66022e-08
2.68364e-07
3.03505e-06
7.13924e-07
1.30611e-07
4.81021e-08
2.75911e-07
3.03077e-06
7.13041e-07
1.3047e-07
4.80411e-08
2.7553e-07
2.92785e-06
6.86037e-07
1.25231e-07
4.67011e-08
2.68941e-07
3.04937e-06
7.07128e-07
1.27795e-07
4.59187e-08
2.60822e-07
2.93953e-06
6.88375e-07
1.25553e-07
4.66511e-08
2.6836e-07
3.03577e-06
7.13911e-07
1.30614e-07
4.81023e-08
2.75921e-07
3.03215e-06
7.12987e-07
1.30429e-07
4.80327e-08
2.75527e-07
2.93914e-06
6.88491e-07
1.256e-07
4.67266e-08
2.68921e-07
3.07311e-06
7.12354e-07
1.28668e-07
4.59958e-08
2.60806e-07
3.02356e-06
7.18609e-07
1.32754e-07
5.07376e-08
2.94804e-07
2.85161e-06
6.75959e-07
1.24954e-07
4.93314e-08
2.89659e-07
2.84182e-06
6.73506e-07
1.24516e-07
4.92936e-08
2.8971e-07
3.04474e-06
7.24411e-07
1.3374e-07
5.0938e-08
2.95642e-07
3.08201e-06
7.32065e-07
1.35031e-07
5.09595e-08
2.94773e-07
3.09188e-06
7.33815e-07
1.35284e-07
5.09958e-08
2.94891e-07
2.86617e-06
6.79958e-07
1.2568e-07
4.94158e-08
2.8974e-07
3.16612e-06
7.343e-07
1.32464e-07
4.67455e-08
2.63863e-07
3.15759e-06
7.31848e-07
1.32097e-07
4.66999e-08
2.63738e-07
2.84969e-06
6.75581e-07
1.24894e-07
4.93104e-08
2.89542e-07
2.8407e-06
6.72818e-07
1.24379e-07
4.92467e-08
2.89446e-07
2.82976e-06
6.7108e-07
1.24148e-07
4.92322e-08
2.89503e-07
3.11813e-06
7.24431e-07
1.30938e-07
4.66246e-08
2.63965e-07
3.13187e-06
7.26509e-07
1.31195e-07
4.65907e-08
2.6354e-07
2.80519e-06
6.65073e-07
1.23095e-07
4.91247e-08
2.89479e-07
3.06542e-06
7.10216e-07
1.28313e-07
4.63068e-08
2.63556e-07
3.04811e-06
7.07601e-07
1.28019e-07
4.62646e-08
2.6338e-07
2.83165e-06
6.71413e-07
1.24188e-07
4.92214e-08
2.89398e-07
2.80167e-06
6.65078e-07
1.23124e-07
4.9129e-08
2.89476e-07
3.18402e-06
7.56089e-07
1.39193e-07
5.14058e-08
2.95139e-07
3.18122e-06
7.56195e-07
1.39261e-07
5.14267e-08
2.95231e-07
3.14908e-06
7.47536e-07
1.37687e-07
5.12774e-08
2.95274e-07
3.09277e-06
7.35446e-07
1.35596e-07
5.10458e-08
2.95029e-07
2.8693e-06
6.79794e-07
1.25607e-07
4.94022e-08
2.89696e-07
2.86571e-06
6.79034e-07
1.25484e-07
4.93802e-08
2.89583e-07
3.06054e-06
7.26867e-07
1.3413e-07
5.08002e-08
2.94193e-07
3.06507e-06
7.28193e-07
1.34399e-07
5.09393e-08
2.95087e-07
3.08922e-06
7.33282e-07
1.35178e-07
5.08941e-08
2.94192e-07
3.09016e-06
7.33801e-07
1.35308e-07
5.10187e-08
2.9508e-07
1.06096e-05
1.0493e-05
5.17718e-05
2.74862e-05
2.70865e-05
4.64952e-05
1.64376e-05
5.69883e-05
5.044e-05
4.70049e-05
4.12548e-05
4.7511e-05
1.72859e-05
5.7287e-05
5.17995e-05
4.16569e-05
4.89126e-05
5.12967e-05
4.74651e-05
1.65819e-05
1.07983e-05
5.18595e-05
2.78731e-05
2.73867e-05
1.06532e-05
5.74288e-05
5.08007e-05
4.07617e-05
4.76012e-05
5.71403e-05
5.08696e-05
4.05166e-05
4.81857e-05
4.77211e-05
1.68909e-05
4.77112e-05
1.69349e-05
5.23627e-05
2.76035e-05
2.76055e-05
1.05772e-05
1.06861e-05
9.53052e-06
9.40968e-06
2.08734e-05
1.65885e-05
5.57931e-05
4.51633e-05
1.62725e-05
5.50423e-05
4.38197e-05
1.3407e-05
4.2161e-05
1.44612e-05
4.73859e-05
1.31391e-05
4.27106e-05
1.47377e-05
1.00847e-05
2.61746e-05
1.68141e-05
9.99685e-06
2.65566e-05
1.36029e-05
1.47178e-05
4.33598e-05
4.72887e-05
1.34673e-05
1.48703e-05
4.33222e-05
1.03976e-05
2.69327e-05
1.74797e-05
1.02921e-05
2.7425e-05
1.01218e-05
2.59264e-05
1.69655e-05
9.91331e-06
2.66598e-05
1.10003e-05
2.12034e-05
9.70439e-06
9.65899e-06
2.11616e-05
9.70623e-06
9.74756e-06
4.57184e-05
1.68213e-05
5.63185e-05
2.8412e-05
5.6145e-05
4.4961e-05
1.68398e-05
4.57471e-05
1.68721e-05
5.58582e-05
2.8063e-05
4.57318e-05
1.70734e-05
5.56941e-05
1.07421e-05
1.33553e-05
4.2476e-05
1.46362e-05
4.77189e-05
1.32787e-05
4.30401e-05
1.46646e-05
1.01009e-05
2.65148e-05
1.70709e-05
9.99701e-06
2.68487e-05
1.34166e-05
4.2765e-05
1.46499e-05
4.76713e-05
1.3382e-05
4.30042e-05
1.46696e-05
1.00809e-05
2.68605e-05
1.72513e-05
1.00717e-05
2.69482e-05
2.10141e-05
9.57745e-06
9.55826e-06
2.11273e-05
9.67297e-06
9.6705e-06
4.59359e-05
1.66671e-05
5.61279e-05
2.79449e-05
4.58223e-05
5.62629e-05
1.69453e-05
4.46744e-05
1.66203e-05
5.56961e-05
2.80404e-05
4.51325e-05
5.54845e-05
1.6829e-05
1.07256e-05
1.07544e-05
3.3092e-05
2.50999e-05
2.39498e-05
1.67194e-05
3.39673e-05
2.51413e-05
2.44787e-05
1.67449e-05
3.2881e-05
2.42444e-05
2.39524e-05
1.63423e-05
3.20372e-05
2.40855e-05
2.37124e-05
1.62539e-05
5.69628e-05
5.63581e-05
5.66745e-05
5.24648e-05
5.74872e-05
5.09727e-05
5.79335e-05
5.25002e-05
5.69446e-05
5.10203e-05
5.50938e-05
5.50793e-05
5.65887e-05
4.74641e-05
5.75494e-05
5.53936e-05
5.42222e-05
5.32487e-05
5.13409e-05
5.72956e-05
5.80659e-05
5.32848e-05
5.06474e-05
5.8109e-05
5.51858e-05
5.59222e-05
5.89586e-05
4.83763e-05
5.47e-05
5.6055e-05
5.86819e-05
5.53376e-05
5.49743e-05
5.78944e-05
4.75854e-05
5.51699e-05
5.43909e-05
5.7235e-05
5.75815e-05
5.15884e-05
5.82453e-05
5.78697e-05
5.75108e-05
5.75263e-05
5.70891e-05
5.1704e-05
5.01395e-05
5.68563e-05
5.7429e-05
5.19895e-05
4.96277e-05
5.66596e-05
5.45096e-05
5.40513e-05
5.79642e-05
4.79785e-05
5.48592e-05
5.7756e-05
5.50729e-05
5.14128e-05
5.01422e-05
5.64618e-05
5.6624e-05
5.19987e-05
4.95728e-05
5.71059e-05
5.43156e-05
5.5058e-05
5.78831e-05
4.77841e-05
5.48429e-05
5.50218e-05
5.78963e-05
5.681e-05
5.15789e-05
5.8706e-05
5.76162e-05
5.71714e-05
5.78843e-05
5.75746e-05
3.34939e-05
5.07039e-05
3.35188e-05
5.18899e-05
5.15274e-05
5.11174e-05
5.15596e-05
5.2138e-05
5.07993e-05
5.12412e-05
5.09451e-05
5.13972e-05
5.23396e-05
5.2487e-05
5.14528e-05
5.156e-05
5.06749e-05
5.13119e-05
5.08283e-05
5.17783e-05
5.16275e-05
5.1498e-05
5.08766e-05
5.10216e-05
5.16143e-05
5.16194e-05
5.22933e-05
5.18661e-05
5.27042e-05
5.12144e-05
4.79561e-05
1.71396e-05
1.71048e-05
4.80504e-05
1.09109e-05
1.087e-05
4.72262e-05
1.66791e-05
1.67612e-05
4.67409e-05
3.35423e-05
3.33814e-05
3.3521e-05
3.34187e-05
3.35981e-05
3.36134e-05
3.30079e-05
5.82759e-05
4.79761e-05
4.25841e-05
5.14111e-05
4.80672e-05
4.23667e-05
5.7886e-05
4.74343e-05
1.71894e-05
4.7227e-05
1.70341e-05
1.08611e-05
1.08776e-05
4.70982e-05
1.66823e-05
4.69509e-05
1.66763e-05
3.35434e-05
3.32897e-05
3.35208e-05
5.83935e-05
4.83268e-05
4.22494e-05
5.12924e-05
5.82483e-05
4.79225e-05
4.22125e-05
1.09196e-05
1.08857e-05
5.72191e-05
4.15103e-05
4.81526e-05
5.06e-05
4.1592e-05
4.80629e-05
5.74258e-05
2.75286e-05
2.75306e-05
5.12971e-05
2.75174e-05
2.74884e-05
1.07424e-05
1.07733e-05
1.05971e-05
1.06067e-05
2.76348e-05
2.74562e-05
5.19092e-05
2.77483e-05
2.75519e-05
1.08398e-05
1.07247e-05
1.06056e-05
1.06055e-05
5.19471e-05
2.80502e-05
2.7441e-05
2.79173e-05
2.75883e-05
4.81339e-05
1.73049e-05
1.72232e-05
4.80945e-05
5.79233e-05
4.79356e-05
4.13167e-05
5.00367e-05
4.80009e-05
4.13491e-05
5.70304e-05
5.74309e-05
4.81883e-05
4.09469e-05
5.09076e-05
4.78327e-05
4.15499e-05
5.78738e-05
4.84208e-05
1.72037e-05
1.71654e-05
4.78264e-05
4.8184e-05
1.73221e-05
1.71553e-05
4.78192e-05
5.69437e-05
5.07036e-05
4.817e-05
4.09656e-05
4.81921e-05
4.12773e-05
5.75988e-05
5.77987e-05
5.08298e-05
4.85037e-05
4.16394e-05
4.83158e-05
4.15974e-05
5.81502e-05
2.82473e-05
2.78907e-05
5.22671e-05
2.79973e-05
2.80384e-05
1.08136e-05
1.08368e-05
1.08544e-05
1.08687e-05
5.21599e-05
2.76529e-05
2.78723e-05
2.81262e-05
2.81957e-05
1.08841e-05
1.08928e-05
5.81887e-05
4.67046e-05
4.13046e-05
5.12787e-05
4.73135e-05
4.17895e-05
5.76677e-05
4.75225e-05
1.7285e-05
4.76155e-05
1.70671e-05
5.71882e-05
4.20225e-05
4.86335e-05
5.20516e-05
4.26321e-05
5.77945e-05
4.83421e-05
4.76015e-05
1.66591e-05
1.67838e-05
4.67375e-05
5.82914e-05
5.08995e-05
4.64849e-05
4.20622e-05
4.67658e-05
4.19749e-05
5.79974e-05
4.75289e-05
1.71858e-05
4.73789e-05
1.70662e-05
5.79003e-05
5.15772e-05
4.27583e-05
4.81971e-05
4.2701e-05
5.78236e-05
4.84808e-05
4.7386e-05
1.70818e-05
1.70721e-05
4.72042e-05
5.80523e-05
4.23542e-05
4.75505e-05
5.17328e-05
4.24591e-05
5.70367e-05
4.75226e-05
4.7331e-05
1.69004e-05
4.69154e-05
1.67833e-05
5.81263e-05
5.17229e-05
4.78129e-05
4.24277e-05
4.82353e-05
4.23526e-05
5.83779e-05
4.75185e-05
1.71707e-05
1.71457e-05
4.71696e-05
5.76549e-05
5.16929e-05
4.25812e-05
4.72845e-05
4.25319e-05
5.79949e-05
4.74252e-05
4.69746e-05
1.68052e-05
4.66875e-05
1.68492e-05
1.07481e-05
1.08055e-05
1.06166e-05
1.06333e-05
2.80264e-05
2.74065e-05
5.12198e-05
2.78167e-05
2.7448e-05
4.76284e-05
1.73196e-05
4.85128e-05
1.72221e-05
5.75678e-05
4.81725e-05
4.15081e-05
5.09751e-05
5.79233e-05
4.79902e-05
4.10476e-05
5.80956e-05
4.85865e-05
4.16629e-05
5.12867e-05
5.79709e-05
4.80136e-05
4.16961e-05
2.81353e-05
2.81586e-05
5.24114e-05
2.80875e-05
2.80108e-05
1.08923e-05
1.08907e-05
5.78619e-05
4.64311e-05
4.185e-05
5.15945e-05
5.80616e-05
4.6946e-05
4.1593e-05
4.73202e-05
1.71202e-05
4.76178e-05
1.70498e-05
5.7921e-05
4.27586e-05
4.79665e-05
5.22871e-05
5.82705e-05
4.26801e-05
4.82339e-05
4.73712e-05
1.70352e-05
4.7456e-05
1.71571e-05
5.82774e-05
4.23547e-05
4.72398e-05
5.19233e-05
5.82246e-05
4.23495e-05
4.76601e-05
4.71199e-05
1.69255e-05
4.7495e-05
1.68986e-05
2.82193e-05
2.8064e-05
5.22834e-05
2.81622e-05
2.79964e-05
1.08832e-05
1.08793e-05
2.81398e-05
1.08252e-05
5.75054e-05
4.15946e-05
4.79267e-05
5.11066e-05
4.1222e-05
4.75575e-05
5.74808e-05
4.79026e-05
1.72176e-05
1.72321e-05
4.79262e-05
4.79829e-05
1.70684e-05
1.69814e-05
4.79343e-05
5.73887e-05
4.83568e-05
5.74203e-05
4.7764e-05
4.7172e-05
1.72202e-05
4.76012e-05
1.68776e-05
1.06914e-05
1.06565e-05
1.06541e-05
1.06259e-05
2.72676e-05
1.06178e-05
1.34911e-05
1.48814e-05
4.31009e-05
4.77113e-05
1.48242e-05
4.31753e-05
1.35156e-05
1.02299e-05
1.71367e-05
2.68333e-05
2.69966e-05
1.01286e-05
1.0216e-05
2.70271e-05
1.70937e-05
2.68144e-05
1.02336e-05
1.33963e-05
4.77822e-05
1.48948e-05
4.26799e-05
1.47998e-05
4.32251e-05
1.34995e-05
1.09116e-05
1.08289e-05
1.32877e-05
4.23965e-05
1.47119e-05
4.74425e-05
4.24531e-05
1.47707e-05
1.32702e-05
1.00366e-05
1.67201e-05
2.63899e-05
2.61287e-05
1.00388e-05
1.0072e-05
2.60988e-05
1.67847e-05
2.64842e-05
9.98813e-06
1.32995e-05
4.72497e-05
4.22268e-05
1.47427e-05
4.1822e-05
1.45689e-05
1.32637e-05
1.33343e-05
4.7883e-05
1.4705e-05
4.28561e-05
1.4813e-05
4.31326e-05
1.34407e-05
1.02258e-05
2.66848e-05
1.72141e-05
1.01247e-05
2.70874e-05
1.34111e-05
4.69686e-05
1.47594e-05
4.25555e-05
1.33865e-05
1.47648e-05
4.30143e-05
1.02113e-05
2.70527e-05
1.71574e-05
2.70756e-05
1.02188e-05
1.08082e-05
1.0916e-05
1.3245e-05
4.70985e-05
4.22317e-05
1.45935e-05
4.23319e-05
1.45828e-05
1.31618e-05
1.00367e-05
2.63377e-05
1.65564e-05
1.00179e-05
2.60529e-05
1.31008e-05
4.64603e-05
4.22067e-05
1.47001e-05
1.32586e-05
4.16171e-05
1.46551e-05
9.99855e-06
2.6256e-05
1.67474e-05
2.64046e-05
1.00359e-05
1.09311e-05
1.08498e-05
2.08512e-05
9.60237e-06
9.49957e-06
9.56299e-06
9.54934e-06
2.08167e-05
4.53125e-05
5.57523e-05
2.7711e-05
1.67867e-05
5.58618e-05
1.68126e-05
4.53569e-05
4.44837e-05
5.44956e-05
2.72855e-05
1.65391e-05
5.45306e-05
1.65516e-05
4.4028e-05
4.514e-05
1.67079e-05
2.75532e-05
5.51064e-05
5.57238e-05
1.66728e-05
4.51136e-05
4.46152e-05
1.65641e-05
2.76039e-05
5.45078e-05
5.44268e-05
1.65797e-05
4.41486e-05
2.08957e-05
9.62235e-06
9.56282e-06
9.62183e-06
9.56707e-06
2.09267e-05
1.06926e-05
1.07692e-05
1.06208e-05
1.06525e-05
2.05369e-05
9.54783e-06
9.50472e-06
9.55948e-06
9.51763e-06
2.06598e-05
4.50385e-05
5.54758e-05
2.77347e-05
1.67895e-05
1.67912e-05
5.55263e-05
4.51413e-05
4.43622e-05
5.49532e-05
2.74867e-05
1.65791e-05
1.64181e-05
5.42353e-05
4.44291e-05
4.53315e-05
1.68307e-05
2.79047e-05
5.52348e-05
1.67072e-05
4.51197e-05
5.4696e-05
4.43976e-05
1.63321e-05
2.75964e-05
5.42859e-05
1.64378e-05
4.44473e-05
5.47959e-05
2.07094e-05
9.54665e-06
9.52003e-06
9.50157e-06
9.46203e-06
2.07314e-05
1.07548e-05
1.07643e-05
1.05789e-05
1.06514e-05
2.07721e-05
9.51373e-06
9.45349e-06
2.07862e-05
9.5701e-06
9.51184e-06
4.51518e-05
5.57017e-05
2.80784e-05
1.67356e-05
1.66678e-05
5.52135e-05
4.46415e-05
4.39117e-05
5.50906e-05
2.75196e-05
1.63344e-05
1.65025e-05
5.53681e-05
4.43468e-05
4.52174e-05
1.6803e-05
5.48821e-05
2.76923e-05
4.46062e-05
1.68133e-05
5.58394e-05
4.44946e-05
1.65322e-05
5.52391e-05
2.757e-05
4.45093e-05
1.65395e-05
5.53047e-05
2.06078e-05
9.49713e-06
9.50297e-06
9.5182e-06
9.52254e-06
2.07103e-05
1.35659e-05
1.47626e-05
4.30281e-05
4.82122e-05
1.48028e-05
4.35256e-05
1.35489e-05
1.0315e-05
1.73174e-05
2.69513e-05
2.73148e-05
1.02815e-05
1.03074e-05
2.73112e-05
1.71685e-05
2.7349e-05
1.03095e-05
1.36172e-05
4.82639e-05
1.48242e-05
4.29661e-05
1.48711e-05
4.36188e-05
1.36126e-05
1.35473e-05
1.48284e-05
4.27894e-05
4.82464e-05
1.35129e-05
1.49781e-05
4.33619e-05
1.02274e-05
1.70634e-05
2.69343e-05
1.01918e-05
2.70489e-05
1.02347e-05
2.69136e-05
1.70886e-05
1.01786e-05
2.69516e-05
1.3455e-05
4.81579e-05
1.49097e-05
4.31495e-05
1.35361e-05
1.49298e-05
4.3285e-05
1.33733e-05
1.49412e-05
4.32067e-05
4.83852e-05
1.34796e-05
1.49648e-05
4.29763e-05
1.02839e-05
1.73139e-05
2.7337e-05
2.73634e-05
1.03211e-05
1.02947e-05
2.70692e-05
1.73613e-05
1.0274e-05
2.73107e-05
1.35266e-05
4.83432e-05
1.49574e-05
4.36379e-05
1.49717e-05
4.36532e-05
1.35776e-05
2.10944e-05
9.64271e-06
9.7162e-06
9.68424e-06
9.73587e-06
2.08541e-05
4.44108e-05
5.59764e-05
2.82458e-05
1.67895e-05
1.67703e-05
5.50547e-05
4.52731e-05
4.53644e-05
5.60444e-05
2.80476e-05
1.69152e-05
5.5646e-05
1.69504e-05
4.52984e-05
4.50122e-05
1.68012e-05
2.7925e-05
5.58213e-05
1.68194e-05
5.57658e-05
4.45171e-05
4.5688e-05
1.70019e-05
2.81231e-05
5.52597e-05
5.56245e-05
1.70531e-05
4.57758e-05
2.11003e-05
9.62947e-06
9.71179e-06
9.65595e-06
9.661e-06
2.0968e-05
1.08427e-05
1.07889e-05
1.0857e-05
1.08645e-05
2.11122e-05
9.6731e-06
9.74438e-06
2.12027e-05
9.61149e-06
9.7329e-06
4.49554e-05
5.53834e-05
2.78161e-05
1.67955e-05
5.5802e-05
1.67709e-05
4.51266e-05
4.51982e-05
5.61823e-05
2.82647e-05
1.71184e-05
1.71359e-05
5.55415e-05
4.58927e-05
4.48651e-05
1.68485e-05
5.56812e-05
2.79966e-05
5.58536e-05
4.52569e-05
1.66756e-05
4.57337e-05
1.71301e-05
5.62322e-05
2.82301e-05
4.59128e-05
1.71099e-05
5.63194e-05
2.11595e-05
9.67746e-06
9.71947e-06
9.675e-06
9.75027e-06
2.10078e-05
1.09271e-05
1.08996e-05
1.34316e-05
1.48136e-05
4.71925e-05
4.2383e-05
1.48351e-05
4.28943e-05
1.34707e-05
1.02634e-05
2.69627e-05
1.72719e-05
2.69581e-05
1.02263e-05
1.35225e-05
4.77029e-05
1.48255e-05
4.30355e-05
1.46665e-05
4.30495e-05
1.34548e-05
1.02451e-05
2.6787e-05
1.71623e-05
2.6899e-05
1.01903e-05
1.33102e-05
4.25681e-05
1.47773e-05
4.75381e-05
1.33341e-05
4.24583e-05
1.47062e-05
1.00511e-05
1.66198e-05
2.64121e-05
1.00512e-05
2.62243e-05
1.00763e-05
2.64293e-05
1.67781e-05
1.00577e-05
2.64876e-05
1.3328e-05
4.7619e-05
4.2358e-05
1.46992e-05
1.33154e-05
4.19676e-05
1.48123e-05
1.3314e-05
1.47676e-05
4.70249e-05
4.30505e-05
1.34506e-05
1.47773e-05
4.29303e-05
1.02667e-05
2.65268e-05
1.72346e-05
2.69221e-05
1.02198e-05
1.34902e-05
4.75826e-05
1.47927e-05
4.26987e-05
1.48113e-05
4.29624e-05
1.34663e-05
1.02495e-05
2.6965e-05
1.71984e-05
1.02625e-05
2.69755e-05
1.34309e-05
4.23161e-05
1.47952e-05
4.75656e-05
4.27116e-05
1.48646e-05
1.33879e-05
1.01618e-05
1.68924e-05
2.66067e-05
2.66032e-05
1.01562e-05
1.02036e-05
2.6726e-05
1.71122e-05
2.67402e-05
1.01606e-05
1.33361e-05
4.76864e-05
4.2395e-05
1.48127e-05
4.19218e-05
1.4662e-05
1.33413e-05
1.34449e-05
1.47799e-05
4.74231e-05
4.2661e-05
1.48128e-05
4.26957e-05
1.33956e-05
1.00766e-05
2.63845e-05
1.68162e-05
2.61389e-05
1.00945e-05
1.33769e-05
4.72778e-05
1.47554e-05
4.23579e-05
1.46057e-05
4.24311e-05
1.33313e-05
1.00383e-05
2.64025e-05
1.68523e-05
2.6486e-05
1.00774e-05
1.34489e-05
4.23944e-05
1.48061e-05
4.74168e-05
1.34477e-05
4.23757e-05
1.47952e-05
1.02522e-05
1.72027e-05
2.67212e-05
2.68774e-05
1.01974e-05
1.021e-05
2.68617e-05
1.71377e-05
1.0183e-05
2.67569e-05
1.3408e-05
4.76428e-05
4.27659e-05
1.46375e-05
4.23762e-05
1.47873e-05
1.33851e-05
1.34255e-05
1.46522e-05
4.75849e-05
4.28636e-05
1.34713e-05
1.47034e-05
4.28056e-05
1.00797e-05
2.61855e-05
1.68912e-05
2.64764e-05
1.00236e-05
1.34869e-05
4.721e-05
1.46847e-05
4.2314e-05
1.47715e-05
4.2972e-05
1.33949e-05
1.01087e-05
2.64216e-05
1.67885e-05
1.00802e-05
2.64986e-05
1.07707e-05
1.07446e-05
1.0591e-05
1.06287e-05
2.06758e-05
9.53581e-06
9.48412e-06
9.5045e-06
9.49234e-06
2.04456e-05
4.52881e-05
5.57591e-05
1.66972e-05
2.76832e-05
4.53683e-05
1.68595e-05
5.58443e-05
4.38969e-05
5.55368e-05
1.6543e-05
2.72858e-05
4.44493e-05
1.64964e-05
5.55591e-05
2.07351e-05
9.55684e-06
9.51154e-06
2.075e-05
9.56068e-06
9.50795e-06
4.46601e-05
1.67874e-05
2.80051e-05
5.53668e-05
1.67244e-05
4.47672e-05
5.51932e-05
4.45961e-05
1.63733e-05
2.75366e-05
5.49843e-05
1.65065e-05
4.43885e-05
5.54403e-05
1.3602e-05
4.84811e-05
1.48127e-05
4.35373e-05
1.49806e-05
4.38341e-05
1.35444e-05
1.03037e-05
2.72626e-05
1.73858e-05
1.02984e-05
2.73434e-05
1.35591e-05
4.84598e-05
1.49206e-05
4.37115e-05
1.4822e-05
1.35041e-05
4.36719e-05
1.03148e-05
2.73886e-05
1.73857e-05
2.73966e-05
1.0329e-05
2.10049e-05
9.56871e-06
9.7017e-06
9.62238e-06
9.71098e-06
2.0738e-05
4.48935e-05
5.5527e-05
1.67035e-05
2.81376e-05
1.68524e-05
4.50548e-05
5.60403e-05
4.57549e-05
5.62402e-05
1.69863e-05
2.81923e-05
5.63046e-05
4.5378e-05
1.70931e-05
2.10955e-05
9.62638e-06
9.72089e-06
9.67406e-06
2.09509e-05
9.72318e-06
4.51272e-05
1.67523e-05
2.82295e-05
5.52911e-05
1.67476e-05
5.59665e-05
4.50077e-05
4.56304e-05
1.7066e-05
2.79576e-05
5.61432e-05
5.62233e-05
1.70556e-05
4.55267e-05
1.08922e-05
1.08283e-05
1.34338e-05
4.76982e-05
1.46912e-05
4.22142e-05
1.47928e-05
4.29066e-05
1.33096e-05
1.02378e-05
2.68866e-05
1.71113e-05
1.01807e-05
2.68557e-05
1.34512e-05
4.76056e-05
1.47643e-05
4.28484e-05
1.46038e-05
1.34468e-05
4.30307e-05
1.01777e-05
2.67519e-05
1.71999e-05
2.68988e-05
1.02103e-05
1.34375e-05
4.76751e-05
4.26527e-05
1.47763e-05
4.23243e-05
1.48298e-05
1.34271e-05
1.02004e-05
2.67451e-05
1.70927e-05
2.66448e-05
1.02068e-05
1.34797e-05
4.69024e-05
4.28359e-05
1.48186e-05
4.28112e-05
1.33944e-05
1.478e-05
1.02088e-05
2.67022e-05
1.71674e-05
2.67809e-05
1.01993e-05
1.33185e-05
4.69494e-05
1.46715e-05
4.2551e-05
1.47124e-05
4.26829e-05
1.32113e-05
1.01169e-05
2.66156e-05
1.69115e-05
1.01247e-05
2.63236e-05
1.3415e-05
4.75358e-05
1.46423e-05
4.2745e-05
1.33153e-05
1.47603e-05
4.2886e-05
1.01173e-05
2.64913e-05
1.696e-05
2.66844e-05
1.01213e-05
2.11959e-05
9.78496e-06
9.78584e-06
9.7848e-06
9.7583e-06
2.12409e-05
4.53515e-05
5.58367e-05
2.82719e-05
1.68324e-05
1.69895e-05
5.66939e-05
4.52938e-05
4.5865e-05
5.61555e-05
2.81733e-05
1.71405e-05
5.62562e-05
1.71426e-05
4.53249e-05
4.53495e-05
1.69507e-05
2.79794e-05
5.61742e-05
1.69487e-05
5.67362e-05
4.53432e-05
4.5509e-05
1.71217e-05
2.82904e-05
5.61491e-05
5.6193e-05
1.70249e-05
4.58251e-05
2.13705e-05
9.78679e-06
9.76993e-06
9.80674e-06
9.82768e-06
2.14081e-05
1.08177e-05
1.09032e-05
9.74004e-06
1.70967e-05
1.35321e-05
4.29651e-05
1.48226e-05
4.79066e-05
4.32277e-05
1.48072e-05
1.35246e-05
1.02909e-05
1.72926e-05
2.71759e-05
2.72087e-05
1.02614e-05
1.02678e-05
2.71936e-05
1.71738e-05
2.69848e-05
1.02834e-05
1.35564e-05
4.80215e-05
4.36227e-05
1.47786e-05
4.37007e-05
1.48037e-05
1.34293e-05
1.35022e-05
4.30869e-05
1.46805e-05
4.80409e-05
4.32875e-05
1.48274e-05
1.33548e-05
1.01506e-05
1.70686e-05
2.66814e-05
2.68024e-05
1.01587e-05
1.01439e-05
2.67818e-05
1.70072e-05
2.6881e-05
1.01458e-05
1.33821e-05
4.75034e-05
4.29188e-05
1.4753e-05
4.32423e-05
1.47766e-05
1.34977e-05
4.2689e-05
1.46744e-05
1.33208e-05
2.69528e-05
1.01864e-05
4.26721e-05
1.46426e-05
1.3331e-05
2.67847e-05
1.00726e-05
1.06959e-05
1.06327e-05
1.0585e-05
1.06793e-05
9.55048e-06
1.65685e-05
2.44089e-05
2.49625e-05
3.35497e-05
2.44491e-05
2.51965e-05
1.66712e-05
1.65805e-05
2.42969e-05
2.49885e-05
3.33483e-05
2.42213e-05
2.50694e-05
1.66658e-05
1.66604e-05
5.64895e-05
5.82933e-05
5.72157e-05
5.20201e-05
5.84228e-05
5.73079e-05
5.66289e-05
5.66983e-05
5.75725e-05
5.72567e-05
5.18363e-05
5.75207e-05
5.72261e-05
5.66141e-05
5.71595e-05
5.21143e-05
5.77368e-05
5.7863e-05
5.75407e-05
5.78018e-05
5.71697e-05
5.72218e-05
5.75147e-05
5.76653e-05
5.21326e-05
5.69277e-05
5.83009e-05
5.66553e-05
5.73016e-05
5.16898e-05
5.81942e-05
5.80618e-05
5.79235e-05
5.79467e-05
5.76156e-05
5.60429e-05
5.79311e-05
5.79733e-05
5.23018e-05
5.69367e-05
5.7818e-05
5.75e-05
5.64601e-05
5.73463e-05
5.81093e-05
5.22871e-05
5.82629e-05
5.74953e-05
5.81451e-05
5.72565e-05
5.88627e-05
5.768e-05
5.26907e-05
5.74116e-05
5.78115e-05
5.69791e-05
2.44548e-05
2.53598e-05
3.35024e-05
2.44866e-05
2.50796e-05
1.67283e-05
1.67293e-05
2.53191e-05
2.46169e-05
3.37008e-05
2.53653e-05
2.46602e-05
1.67028e-05
1.66562e-05
2.48408e-05
2.4377e-05
3.31823e-05
2.50852e-05
2.46723e-05
1.6659e-05
1.66726e-05
3.33384e-05
2.4371e-05
2.47659e-05
2.41547e-05
2.50504e-05
1.65934e-05
1.66059e-05
3.34614e-05
2.43816e-05
2.53758e-05
2.41453e-05
2.53412e-05
1.66227e-05
1.65562e-05
3.36964e-05
2.51605e-05
2.46609e-05
2.53229e-05
2.46897e-05
1.66771e-05
1.66958e-05
3.3159e-05
2.52215e-05
2.46345e-05
2.51597e-05
2.47029e-05
1.66853e-05
1.66872e-05
5.34621e-05
5.70494e-05
5.16333e-05
5.81097e-05
5.79935e-05
5.15888e-05
5.35949e-05
5.60937e-05
5.74224e-05
4.80364e-05
5.48893e-05
5.8182e-05
5.52586e-05
5.53971e-05
5.61558e-05
5.5407e-05
4.82559e-05
5.84125e-05
5.83911e-05
5.47099e-05
5.57606e-05
5.36394e-05
5.81821e-05
5.78941e-05
5.08723e-05
5.79224e-05
5.18017e-05
5.33528e-05
2.44522e-05
2.53905e-05
3.35998e-05
2.44987e-05
2.53692e-05
1.66358e-05
1.66047e-05
2.51436e-05
2.45494e-05
3.37663e-05
2.5338e-05
2.44633e-05
1.67506e-05
1.66225e-05
2.52627e-05
2.46343e-05
3.35562e-05
2.52412e-05
2.45754e-05
1.65421e-05
1.66942e-05
5.36904e-05
5.83257e-05
5.81673e-05
5.09408e-05
5.82435e-05
5.07868e-05
5.35684e-05
5.57215e-05
5.81754e-05
5.48188e-05
4.84724e-05
5.61824e-05
5.82116e-05
5.5317e-05
5.37823e-05
5.84826e-05
5.81818e-05
5.1034e-05
5.38073e-05
5.83581e-05
5.07562e-05
5.53747e-05
5.49861e-05
4.83786e-05
5.86423e-05
5.85294e-05
5.53552e-05
5.62098e-05
5.25847e-05
5.0413e-05
5.7247e-05
5.74626e-05
5.03016e-05
5.76511e-05
5.26565e-05
5.50969e-05
5.76651e-05
4.83272e-05
5.47749e-05
5.67771e-05
5.44542e-05
5.42124e-05
5.49165e-05
5.52727e-05
4.81542e-05
5.79152e-05
5.76269e-05
5.52511e-05
5.5017e-05
5.25942e-05
5.66161e-05
5.04491e-05
5.73443e-05
5.04462e-05
5.7599e-05
5.25491e-05
5.61811e-05
5.18133e-05
5.82609e-05
5.61993e-05
5.7544e-05
5.70015e-05
5.63734e-05
5.66106e-05
5.17058e-05
5.77694e-05
5.71082e-05
5.6296e-05
5.68371e-05
5.68595e-05
5.72178e-05
5.19075e-05
5.78711e-05
5.71024e-05
5.71009e-05
5.7992e-05
5.67995e-05
5.19632e-05
5.74968e-05
4.97306e-05
5.78978e-05
5.6694e-05
5.01643e-05
5.13119e-05
5.51898e-05
5.76729e-05
4.73021e-05
5.52718e-05
5.5452e-05
5.75581e-05
5.50465e-05
5.45407e-05
5.44396e-05
4.80777e-05
5.78431e-05
5.51852e-05
5.77469e-05
5.4841e-05
5.21177e-05
5.78524e-05
5.7612e-05
4.95131e-05
5.74447e-05
5.0294e-05
5.18926e-05
5.19198e-05
5.79991e-05
5.0349e-05
5.78637e-05
5.7828e-05
5.03796e-05
5.23089e-05
5.46535e-05
5.72247e-05
4.78543e-05
5.55428e-05
5.5864e-05
5.70679e-05
5.51511e-05
5.55731e-05
5.54782e-05
4.84916e-05
5.78096e-05
5.58036e-05
5.55915e-05
5.81039e-05
5.24187e-05
5.79438e-05
5.80544e-05
5.05028e-05
5.72488e-05
5.01176e-05
5.15602e-05
5.22028e-05
5.71985e-05
4.97789e-05
5.76396e-05
5.19448e-05
5.74576e-05
4.96964e-05
5.53002e-05
5.74463e-05
4.8278e-05
5.45424e-05
5.79506e-05
5.45474e-05
5.5164e-05
5.52283e-05
5.52709e-05