/*--------------------------------*- C++ -*----------------------------------*\
| =========                 |                                                 |
| \\      /  F ield         | OpenFOAM: The Open Source CFD Toolbox           |
|  \\    /   O peration     | Version:  2206                                  |
|   \\  /    A nd           | Website:  www.openfoam.com                      |
|    \\/     M anipulation  |                                                 |
\*---------------------------------------------------------------------------*/
FoamFile
{
    version     2.0;
    format      ascii;
    arch        "LSB;label=32;scalar=64";
    class       volScalarField;
    location    "90";
    object      nut;
}
// * * * * * * * * * * * * * * * * * * * * * * * * * * * * * * * * * * * * * //

dimensions      [0 2 -1 0 0 0 0];

internalField   nonuniform List<scalar> 
66621
(
5.6279e-08
2.48349e-07
5.53654e-08
5.29416e-07
2.68135e-07
1.14928e-06
2.66482e-08
5.37167e-07
9.88046e-07
1.15116e-06
2.67952e-07
9.7173e-07
1.4209e-07
1.43608e-07
2.6145e-08
2.56851e-08
9.399e-07
1.44442e-07
1.40981e-07
9.9418e-07
2.66224e-07
1.43225e-07
2.65719e-08
5.17902e-07
9.81385e-07
2.568e-07
1.13803e-06
2.50306e-07
5.78673e-08
5.22896e-07
9.9502e-07
1.14812e-06
2.68673e-07
2.50885e-07
5.74814e-08
5.27783e-07
9.92506e-07
1.14715e-06
2.6267e-07
2.535e-07
5.60333e-08
9.53395e-07
1.45087e-07
1.44046e-07
2.62594e-08
5.38068e-07
9.93895e-07
1.14435e-06
2.69723e-07
2.53909e-07
5.64247e-08
2.58147e-07
5.73769e-08
2.58151e-08
2.62546e-08
1.27527e-07
2.30696e-08
3.96118e-08
2.08733e-07
4.65473e-08
2.49034e-07
2.08269e-07
4.64609e-08
3.99021e-08
2.32814e-08
1.27809e-07
5.5587e-08
1.28602e-07
2.35154e-08
2.64101e-08
8.95131e-08
2.33597e-08
2.33186e-08
2.32619e-08
2.33289e-08
8.87341e-08
2.28021e-07
5.45317e-08
1.43097e-07
3.83128e-07
3.84116e-07
5.43303e-08
2.27562e-07
2.29115e-07
5.39472e-08
1.44318e-07
3.79432e-07
3.81465e-07
5.39551e-08
2.28917e-07
2.56823e-08
8.79596e-08
2.32535e-08
2.29726e-08
2.32114e-08
2.27869e-08
8.82062e-08
2.27891e-07
5.38932e-08
3.86792e-07
5.46671e-08
2.27659e-07
2.22242e-07
5.28528e-08
1.41312e-07
3.73812e-07
5.24392e-08
2.22729e-07
3.80082e-07
2.34807e-08
8.93178e-08
5.50581e-08
3.86778e-07
2.28645e-07
4.04103e-08
4.73556e-08
2.13752e-07
2.50445e-07
4.70616e-08
2.1357e-07
4.0507e-08
2.40532e-08
1.3128e-07
5.79166e-08
1.31446e-07
2.3992e-08
2.07175e-07
4.76022e-08
3.95519e-08
1.29065e-07
2.38016e-08
4.72181e-08
2.10294e-07
3.96493e-08
1.28275e-07
2.33325e-08
8.97843e-08
2.3337e-08
2.36655e-08
2.34621e-08
2.35647e-08
8.91623e-08
2.30253e-07
5.44295e-08
1.44989e-07
3.80533e-07
5.46568e-08
3.86793e-07
2.2963e-07
2.28234e-07
5.51469e-08
1.44203e-07
3.86322e-07
3.86533e-07
5.4824e-08
2.26036e-07
2.61799e-08
4.02449e-08
2.14863e-07
4.78128e-08
2.55832e-07
2.14727e-07
4.7795e-08
4.06582e-08
2.35186e-08
1.29953e-07
5.69181e-08
1.31388e-07
2.36248e-08
4.07288e-08
2.12568e-07
4.78833e-08
2.57787e-07
2.1592e-07
4.78826e-08
4.07493e-08
2.37413e-08
1.30984e-07
5.76365e-08
1.31506e-07
2.37475e-08
2.61945e-08
1.43261e-06
1.46168e-06
1.50732e-06
1.03993e-06
1.48188e-06
1.4774e-06
1.53737e-06
1.04642e-06
1.46254e-06
1.52526e-06
1.46588e-06
1.04292e-06
1.45227e-06
1.52797e-06
1.46746e-06
1.05493e-06
7.46012e-07
4.8337e-07
7.98752e-07
5.29965e-07
4.84945e-07
8.02819e-07
7.46071e-07
3.79134e-07
5.25124e-07
6.83234e-07
7.31825e-07
8.02626e-07
4.87224e-07
5.36532e-07
7.93534e-07
4.8792e-07
7.43322e-07
6.97337e-07
3.82919e-07
2.67667e-07
5.33472e-07
5.32279e-07
3.86698e-07
7.003e-07
4.39089e-07
9.64239e-07
6.0415e-07
6.03283e-07
5.99872e-07
6.03188e-07
4.36989e-07
4.33743e-07
9.62423e-07
5.87748e-07
5.92763e-07
4.34221e-07
5.98993e-07
5.9689e-07
3.79391e-07
5.2948e-07
6.80764e-07
7.33557e-07
4.67581e-07
7.95128e-07
5.20146e-07
4.7105e-07
7.86129e-07
7.35116e-07
6.852e-07
3.71891e-07
2.60324e-07
5.18461e-07
3.74537e-07
5.19612e-07
6.84747e-07
7.44664e-07
7.97525e-07
4.82239e-07
5.26669e-07
7.99342e-07
4.85745e-07
7.43089e-07
7.023e-07
3.85504e-07
2.69002e-07
5.34769e-07
3.80112e-07
6.88383e-07
5.35077e-07
7.35687e-07
8.03255e-07
4.72804e-07
5.20253e-07
7.95953e-07
4.72502e-07
7.44134e-07
6.90208e-07
3.71941e-07
2.63682e-07
5.2778e-07
5.26043e-07
3.76129e-07
6.91294e-07
4.34483e-07
9.5148e-07
6.01712e-07
6.06017e-07
6.00811e-07
5.93747e-07
4.41312e-07
7.324e-07
8.00208e-07
4.92256e-07
5.29875e-07
7.90446e-07
4.8629e-07
7.4567e-07
7.01872e-07
3.87114e-07
2.6548e-07
5.32109e-07
5.3086e-07
3.81332e-07
6.93915e-07
4.0859e-09
4.38573e-10
2.89518e-11
2.79753e-12
2.24382e-12
4.07281e-09
4.36088e-10
2.87558e-11
2.78641e-12
2.23759e-12
4.28336e-09
4.63096e-10
3.10295e-11
3.11555e-12
2.52852e-12
4.18839e-09
4.53084e-10
3.04049e-11
3.10189e-12
2.53125e-12
4.14507e-09
4.47707e-10
3.00418e-11
3.08574e-12
2.52445e-12
4.28457e-09
4.63574e-10
3.10413e-11
3.11773e-12
2.53128e-12
4.25765e-09
4.5553e-10
2.99741e-11
2.8207e-12
2.2408e-12
4.20303e-09
4.4968e-10
2.96188e-11
2.81321e-12
2.2425e-12
4.10296e-09
4.39684e-10
2.90016e-11
2.79535e-12
2.24033e-12
4.17906e-09
4.51771e-10
3.03109e-11
3.09646e-12
2.52833e-12
4.0882e-09
4.38213e-10
2.89209e-11
2.79302e-12
2.23978e-12
4.13182e-09
4.42256e-10
2.91542e-11
2.79819e-12
2.2393e-12
4.1872e-09
4.53094e-10
3.03756e-11
3.0963e-12
2.52668e-12
4.18057e-09
4.51771e-10
3.02997e-11
3.09393e-12
2.52617e-12
4.01504e-09
4.30249e-10
2.85772e-11
2.84357e-12
2.30398e-12
4.17423e-09
4.49959e-10
2.9948e-11
2.93599e-12
2.36508e-12
4.1658e-09
4.49417e-10
2.99161e-11
2.93617e-12
2.36637e-12
4.03062e-09
4.31399e-10
2.86233e-11
2.8441e-12
2.30342e-12
4.06787e-09
4.35536e-10
2.87336e-11
2.7844e-12
2.23602e-12
4.26203e-09
4.61512e-10
3.09544e-11
3.11363e-12
2.52832e-12
4.23759e-09
4.51841e-10
2.97322e-11
2.8307e-12
2.25912e-12
4.21264e-09
4.50447e-10
2.96732e-11
2.82764e-12
2.25712e-12
4.18117e-09
4.46906e-10
2.94529e-11
2.82322e-12
2.25841e-12
4.16628e-09
4.45728e-10
2.93896e-11
2.81794e-12
2.2542e-12
4.13879e-09
4.47464e-10
3.00339e-11
3.08527e-12
2.52421e-12
3.96984e-09
4.26627e-10
2.86364e-11
3.00871e-12
2.4805e-12
4.26954e-09
4.56961e-10
3.00609e-11
2.84294e-12
2.26302e-12
4.09408e-09
4.39078e-10
2.91518e-11
2.8612e-12
2.30639e-12
4.22837e-09
4.55443e-10
3.02944e-11
2.94596e-12
2.36587e-12
4.2076e-09
4.53976e-10
3.02118e-11
2.94503e-12
2.36737e-12
4.11335e-09
4.40607e-10
2.92297e-11
2.86262e-12
2.30591e-12
4.24192e-09
4.54376e-10
2.99122e-11
2.81772e-12
2.2391e-12
4.24209e-09
4.5707e-10
3.03515e-11
2.94622e-12
2.36589e-12
4.03779e-09
4.33528e-10
2.8795e-11
2.84989e-12
2.30469e-12
4.22125e-09
4.55037e-10
3.02412e-11
2.94321e-12
2.3653e-12
4.03892e-09
4.32801e-10
2.87384e-11
2.8478e-12
2.30386e-12
3.97295e-09
4.25986e-10
2.85914e-11
3.00696e-12
2.47982e-12
4.23499e-09
4.52406e-10
2.97971e-11
2.8355e-12
2.26185e-12
4.21803e-09
4.51305e-10
2.9738e-11
2.82956e-12
2.25686e-12
4.17396e-09
4.51601e-10
3.03039e-11
3.09227e-12
2.52387e-12
3.97997e-09
4.26761e-10
2.83684e-11
2.83325e-12
2.29824e-12
4.15057e-09
4.46853e-10
2.97286e-11
2.92829e-12
2.36332e-12
4.13768e-09
4.46136e-10
2.96945e-11
2.92454e-12
2.36005e-12
3.99543e-09
4.27988e-10
2.84344e-11
2.83931e-12
2.30319e-12
4.09183e-09
4.38333e-10
2.8913e-11
2.78661e-12
2.23315e-12
4.00828e-09
4.29251e-10
2.85052e-11
2.83626e-12
2.29811e-12
4.15187e-09
4.46839e-10
2.97293e-11
2.92842e-12
2.36338e-12
4.14178e-09
4.46116e-10
2.96855e-11
2.92414e-12
2.36e-12
4.01099e-09
4.29521e-10
2.85187e-11
2.8409e-12
2.30291e-12
4.12487e-09
4.41563e-10
2.91104e-11
2.79129e-12
2.23288e-12
4.16646e-09
4.50916e-10
3.02554e-11
3.08878e-12
2.5216e-12
3.94638e-09
4.23439e-10
2.84319e-11
3.00053e-12
2.47746e-12
3.93191e-09
4.21895e-10
2.83327e-11
2.99818e-12
2.47784e-12
4.22026e-09
4.55077e-10
3.04937e-11
3.10247e-12
2.53042e-12
4.26726e-09
4.59624e-10
3.07843e-11
3.10358e-12
2.52287e-12
4.28606e-09
4.60983e-10
3.08455e-11
3.10585e-12
2.52389e-12
3.96668e-09
4.25929e-10
2.85959e-11
3.00554e-12
2.47815e-12
4.26223e-09
4.5563e-10
2.99859e-11
2.83769e-12
2.25954e-12
4.24517e-09
4.53932e-10
2.99001e-11
2.83487e-12
2.25847e-12
3.93613e-09
4.23017e-10
2.84156e-11
2.99919e-12
2.47646e-12
3.92307e-09
4.21281e-10
2.82987e-11
2.99527e-12
2.47558e-12
3.91639e-09
4.20367e-10
2.82477e-11
2.99433e-12
2.47581e-12
4.19671e-09
4.49513e-10
2.96406e-11
2.83035e-12
2.26044e-12
4.20886e-09
4.50615e-10
2.9696e-11
2.82824e-12
2.2568e-12
3.88249e-09
4.16611e-10
2.80092e-11
2.988e-12
2.47586e-12
4.12637e-09
4.40679e-10
2.90454e-11
2.81086e-12
2.25656e-12
4.09692e-09
4.38879e-10
2.89762e-11
2.80825e-12
2.25506e-12
3.91241e-09
4.20409e-10
2.82545e-11
2.99363e-12
2.47491e-12
3.87077e-09
4.16445e-10
2.80137e-11
2.98821e-12
2.47584e-12
4.40867e-09
4.74707e-10
3.17328e-11
3.13073e-12
2.52575e-12
4.40955e-09
4.75033e-10
3.17518e-11
3.13207e-12
2.52654e-12
4.36563e-09
4.69609e-10
3.13941e-11
3.12316e-12
2.52717e-12
4.28884e-09
4.61991e-10
3.0917e-11
3.1091e-12
2.52527e-12
3.96478e-09
4.25651e-10
2.85768e-11
3.00466e-12
2.47778e-12
3.95992e-09
4.25177e-10
2.85494e-11
3.00346e-12
2.47709e-12
4.23519e-09
4.56357e-10
3.05794e-11
3.09403e-12
2.51802e-12
4.24644e-09
4.5744e-10
3.06441e-11
3.10257e-12
2.52567e-12
4.27536e-09
4.60397e-10
3.08193e-11
3.09976e-12
2.51791e-12
4.28102e-09
4.60968e-10
3.08522e-11
3.10741e-12
2.52551e-12
2.59754e-08
2.56607e-08
9.44197e-07
1.4249e-07
1.39933e-07
2.46366e-07
5.53335e-08
5.16768e-07
9.54851e-07
2.60355e-07
1.09393e-06
2.51914e-07
5.82995e-08
5.19536e-07
9.71976e-07
1.102e-06
2.71577e-07
9.63242e-07
2.63291e-07
5.56891e-08
2.64611e-08
9.28095e-07
1.44331e-07
1.42613e-07
2.6195e-08
5.3956e-07
9.81403e-07
1.12582e-06
2.67625e-07
5.36721e-07
9.82022e-07
1.11754e-06
2.70804e-07
2.57639e-07
5.72061e-08
2.57577e-07
5.77027e-08
9.37067e-07
1.42902e-07
1.43673e-07
2.59699e-08
2.63427e-08
2.3211e-08
2.28821e-08
8.87629e-08
5.41074e-08
3.86028e-07
2.26255e-07
5.28358e-08
3.79234e-07
2.2177e-07
4.0454e-08
2.07992e-07
4.67323e-08
2.52011e-07
3.95825e-08
2.11366e-07
4.76359e-08
2.37955e-08
1.28372e-07
5.68093e-08
2.34693e-08
1.30425e-07
4.10308e-08
4.75399e-08
2.14171e-07
2.51635e-07
4.05522e-08
4.80452e-08
2.1464e-07
2.45721e-08
1.32239e-07
5.89325e-08
2.41712e-08
1.34843e-07
2.38774e-08
1.27174e-07
5.70415e-08
2.32855e-08
1.30953e-07
2.70779e-08
8.89484e-08
2.36908e-08
2.35424e-08
8.90209e-08
2.36959e-08
2.38448e-08
2.31128e-07
5.47374e-08
3.88088e-07
1.47321e-07
3.8634e-07
2.27119e-07
5.48795e-08
2.31117e-07
5.51976e-08
3.89521e-07
1.46305e-07
2.30707e-07
5.59301e-08
3.87951e-07
2.65169e-08
4.06526e-08
2.13023e-07
4.78441e-08
2.58375e-07
4.04203e-08
2.16307e-07
4.78466e-08
2.39511e-08
1.31541e-07
5.80141e-08
2.36319e-08
1.33218e-07
4.08585e-08
2.1447e-07
4.78428e-08
2.58115e-07
4.07199e-08
2.16117e-07
4.7819e-08
2.39122e-08
1.33263e-07
5.88161e-08
2.37665e-08
1.33707e-07
8.81991e-08
2.33117e-08
2.32227e-08
8.90369e-08
2.36254e-08
2.36294e-08
2.30314e-07
5.43408e-08
3.86999e-07
1.44906e-07
2.29469e-07
3.87473e-07
5.52877e-08
2.27416e-07
5.42536e-08
3.87832e-07
1.46057e-07
2.29504e-07
3.85981e-07
5.49497e-08
2.63893e-08
2.65241e-08
1.45919e-06
1.49215e-06
1.44496e-06
1.05319e-06
1.49663e-06
1.50617e-06
1.48344e-06
1.05979e-06
1.46648e-06
1.46244e-06
1.44604e-06
1.03416e-06
1.42838e-06
1.46201e-06
1.43965e-06
1.02964e-06
5.92992e-07
5.83894e-07
4.36383e-07
7.18927e-07
4.78278e-07
7.75444e-07
5.24599e-07
7.18072e-07
4.73016e-07
7.7694e-07
6.77736e-07
3.80146e-07
5.08514e-07
2.63293e-07
5.18248e-07
6.79131e-07
3.74379e-07
7.29457e-07
7.81111e-07
4.77061e-07
5.25946e-07
7.2855e-07
7.71543e-07
4.83128e-07
6.79814e-07
3.86596e-07
5.32081e-07
2.68985e-07
6.71558e-07
3.87682e-07
5.30816e-07
6.82181e-07
3.79734e-07
5.22929e-07
2.64334e-07
6.7781e-07
3.75876e-07
5.18175e-07
4.43062e-07
9.37199e-07
5.98103e-07
6.06527e-07
5.89636e-07
4.43413e-07
5.97911e-07
7.38101e-07
7.99754e-07
4.87849e-07
5.38719e-07
7.39907e-07
7.87313e-07
4.85795e-07
6.92707e-07
3.81564e-07
5.31132e-07
2.69856e-07
6.91719e-07
5.30932e-07
3.88984e-07
7.33848e-07
7.99687e-07
4.84505e-07
5.30975e-07
7.40079e-07
7.86241e-07
4.89462e-07
6.89813e-07
3.88602e-07
5.29535e-07
2.68648e-07
6.9124e-07
3.88485e-07
5.31358e-07
4.37023e-07
9.36589e-07
6.04018e-07
6.02175e-07
4.40467e-07
5.94683e-07
6.01319e-07
1.48359e-06
9.6095e-07
1.48875e-06
9.81206e-07
1.00055e-06
9.36285e-07
9.48783e-07
9.47394e-07
9.83135e-07
9.91427e-07
9.89893e-07
9.98345e-07
9.63777e-07
9.53879e-07
9.74624e-07
9.73386e-07
9.72613e-07
9.81669e-07
9.60247e-07
9.9404e-07
9.88755e-07
9.43281e-07
9.84118e-07
9.86563e-07
9.45839e-07
9.75779e-07
9.84999e-07
9.77571e-07
9.65322e-07
9.94438e-07
2.59958e-07
5.76789e-08
5.76e-08
2.59662e-07
2.68144e-08
2.67855e-08
2.51319e-07
5.56476e-08
5.59779e-08
2.46895e-07
1.48397e-06
1.47281e-06
1.48203e-06
1.46295e-06
1.47027e-06
1.46759e-06
1.44436e-06
5.27639e-07
2.6538e-07
1.12994e-06
9.8569e-07
2.6743e-07
1.14349e-06
5.24322e-07
2.57112e-07
5.78584e-08
2.55138e-07
5.73815e-08
2.67171e-08
2.68171e-08
2.50225e-07
5.57154e-08
2.48159e-07
5.57445e-08
1.48743e-06
1.47167e-06
1.48549e-06
5.28434e-07
2.67499e-07
1.1167e-06
9.86275e-07
5.27653e-07
2.66246e-07
1.14463e-06
2.6723e-08
2.67308e-08
5.37581e-07
1.15559e-06
2.7052e-07
9.87309e-07
1.15011e-06
2.7057e-07
5.39828e-07
1.42068e-07
1.4288e-07
9.35692e-07
1.42741e-07
1.4322e-07
2.63962e-08
2.65751e-08
2.59339e-08
2.60554e-08
1.43659e-07
1.41329e-07
9.40791e-07
1.4498e-07
1.42852e-07
2.67426e-08
2.63279e-08
2.60636e-08
2.59943e-08
9.53977e-07
1.46538e-07
1.42204e-07
1.45152e-07
1.42027e-07
2.60926e-07
5.82036e-08
5.80209e-08
2.59928e-07
5.44517e-07
2.69181e-07
1.15095e-06
9.71856e-07
2.70334e-07
1.14688e-06
5.3675e-07
5.39904e-07
2.70599e-07
1.14062e-06
9.88432e-07
2.69389e-07
1.1525e-06
5.44721e-07
2.6167e-07
5.79926e-08
5.7971e-08
2.59236e-07
2.60393e-07
5.84123e-08
5.80361e-08
2.59238e-07
5.35785e-07
9.80848e-07
2.71253e-07
1.13539e-06
2.70664e-07
1.15014e-06
5.41496e-07
5.43945e-07
9.83121e-07
2.73128e-07
1.15411e-06
2.71319e-07
1.15906e-06
5.46814e-07
1.46695e-07
1.43865e-07
9.47819e-07
1.46126e-07
1.45692e-07
2.6554e-08
2.66405e-08
2.67611e-08
2.6733e-08
9.58687e-07
1.44293e-07
1.44776e-07
1.46101e-07
1.45472e-07
2.67674e-08
2.67216e-08
5.26576e-07
2.57853e-07
1.0962e-06
9.82808e-07
2.62734e-07
1.12825e-06
5.22106e-07
2.52966e-07
5.77606e-08
2.5157e-07
5.708e-08
5.1762e-07
1.11573e-06
2.69057e-07
9.94392e-07
1.15157e-06
5.23427e-07
2.68969e-07
2.51488e-07
5.57482e-08
5.62417e-08
2.4856e-07
5.27745e-07
9.6302e-07
2.57971e-07
1.13798e-06
2.58225e-07
1.11218e-06
5.24705e-07
2.51173e-07
5.75229e-08
2.52032e-07
5.72848e-08
5.24282e-07
9.725e-07
1.15739e-06
2.68016e-07
1.13185e-06
5.23373e-07
2.68257e-07
2.52297e-07
5.7043e-08
5.70811e-08
2.49429e-07
5.25514e-07
1.12522e-06
2.62841e-07
9.89339e-07
1.14718e-06
5.16493e-07
2.64135e-07
2.51963e-07
5.64458e-08
2.47849e-07
5.61208e-08
5.26458e-07
9.79152e-07
2.65915e-07
1.14721e-06
2.66863e-07
1.1216e-06
5.28598e-07
2.51199e-07
5.74741e-08
5.75446e-08
2.51036e-07
5.22142e-07
9.75346e-07
1.15268e-06
2.62771e-07
1.12778e-06
5.25063e-07
2.62117e-07
2.48236e-07
5.62479e-08
2.48392e-07
5.64203e-08
2.64441e-08
2.66325e-08
2.60375e-08
2.61159e-08
1.45777e-07
1.41162e-07
9.33769e-07
1.45245e-07
1.42111e-07
2.58214e-07
5.86307e-08
2.62153e-07
5.80793e-08
5.41295e-07
2.70625e-07
1.15788e-06
9.90966e-07
5.4502e-07
2.70129e-07
1.13733e-06
5.4628e-07
2.72944e-07
1.16181e-06
9.96701e-07
5.45478e-07
2.70282e-07
1.15507e-06
1.46221e-07
1.45332e-07
9.56305e-07
1.46584e-07
1.45259e-07
2.67018e-08
2.67772e-08
5.23291e-07
2.56501e-07
1.10712e-06
9.91828e-07
5.25656e-07
2.60348e-07
1.12871e-06
2.51479e-07
5.75565e-08
2.51773e-07
5.71003e-08
5.23933e-07
1.1313e-06
2.65507e-07
1.00189e-06
5.27766e-07
1.15831e-06
2.68013e-07
2.51809e-07
5.71838e-08
2.51002e-07
5.74784e-08
5.27338e-07
1.12099e-06
2.61303e-07
9.96323e-07
5.27425e-07
1.14942e-06
2.64655e-07
2.5042e-07
5.67527e-08
2.51135e-07
5.65882e-08
1.45588e-07
1.4597e-07
9.5392e-07
1.46013e-07
1.46201e-07
2.68137e-08
2.68055e-08
1.46321e-07
2.66201e-08
5.40266e-07
1.15795e-06
2.68887e-07
9.97063e-07
1.14012e-06
2.67306e-07
5.40388e-07
2.59651e-07
5.79816e-08
5.80928e-08
2.58864e-07
2.60069e-07
5.74291e-08
5.7188e-08
2.58912e-07
5.39765e-07
2.71734e-07
5.40051e-07
2.68031e-07
2.54626e-07
5.81556e-08
2.56923e-07
5.68873e-08
2.62689e-08
2.61571e-08
2.62201e-08
2.62061e-08
1.41586e-07
2.6084e-08
4.10059e-08
4.84756e-08
2.16814e-07
2.57833e-07
4.83091e-08
2.16587e-07
4.11075e-08
2.42188e-08
5.79119e-08
1.32906e-07
1.34119e-07
2.3948e-08
2.41119e-08
1.34254e-07
5.77408e-08
1.32844e-07
2.42001e-08
4.07538e-08
2.59007e-07
4.84364e-08
2.14104e-07
4.82948e-08
2.17454e-07
4.10482e-08
2.69104e-08
2.66733e-08
3.99776e-08
2.09981e-07
4.73379e-08
2.50616e-07
2.08733e-07
4.75682e-08
3.99352e-08
2.36391e-08
5.60829e-08
1.28902e-07
1.28591e-07
2.36191e-08
2.36406e-08
1.28416e-07
5.61028e-08
1.29383e-07
2.34932e-08
4.0065e-08
2.51516e-07
2.076e-07
4.73687e-08
2.0719e-07
4.68761e-08
3.99007e-08
4.05255e-08
2.58641e-07
4.78538e-08
2.15466e-07
4.82592e-08
2.16401e-07
4.08299e-08
2.42155e-08
1.32259e-07
5.82004e-08
2.39627e-08
1.34466e-07
4.07642e-08
2.546e-07
4.79669e-08
2.13502e-07
4.06817e-08
4.80396e-08
2.16295e-07
2.40976e-08
1.34241e-07
5.79613e-08
1.34257e-07
2.41607e-08
2.65913e-08
2.69207e-08
3.98456e-08
2.49057e-07
2.08817e-07
4.69591e-08
2.08376e-07
4.69255e-08
3.95624e-08
2.36551e-08
1.28752e-07
5.56116e-08
2.35825e-08
1.28071e-07
3.94325e-08
2.46993e-07
2.07657e-07
4.72576e-08
3.99093e-08
2.05902e-07
4.71684e-08
2.34773e-08
1.28996e-07
5.60431e-08
1.2915e-07
2.3601e-08
2.68778e-08
2.66469e-08
8.67656e-08
2.34493e-08
2.31994e-08
2.3344e-08
2.32629e-08
8.7273e-08
2.2721e-07
3.83287e-07
1.43829e-07
5.44627e-08
3.84457e-07
5.46934e-08
2.26473e-07
2.26417e-07
3.78853e-07
1.42191e-07
5.36561e-08
3.79247e-07
5.38063e-08
2.23235e-07
2.25471e-07
5.42121e-08
1.42277e-07
3.79265e-07
3.83093e-07
5.41265e-08
2.26114e-07
2.26281e-07
5.37744e-08
1.43304e-07
3.78938e-07
3.7832e-07
5.38741e-08
2.24665e-07
8.70458e-08
2.34228e-08
2.32686e-08
2.34796e-08
2.33375e-08
8.78179e-08
2.63601e-08
2.64792e-08
2.60759e-08
2.61162e-08
8.55074e-08
2.33481e-08
2.31838e-08
2.33554e-08
2.31941e-08
8.69417e-08
2.26591e-07
3.85302e-07
1.44917e-07
5.4597e-08
5.47204e-08
3.85979e-07
2.26037e-07
2.25291e-07
3.77911e-07
1.4254e-07
5.36215e-08
5.318e-08
3.73602e-07
2.24386e-07
2.27009e-07
5.47067e-08
1.45076e-07
3.83943e-07
5.43287e-08
2.26991e-07
3.79853e-07
2.24224e-07
5.28612e-08
1.42057e-07
3.73964e-07
5.32905e-08
2.25693e-07
3.76682e-07
8.62297e-08
2.32496e-08
2.31306e-08
2.32013e-08
2.30528e-08
8.64356e-08
2.65403e-08
2.65492e-08
2.59063e-08
2.60881e-08
8.65987e-08
2.31921e-08
2.29264e-08
8.76923e-08
2.33616e-08
2.32032e-08
2.26143e-07
3.87172e-07
1.46019e-07
5.45056e-08
5.4329e-08
3.83546e-07
2.2453e-07
2.21823e-07
3.79448e-07
1.41704e-07
5.29602e-08
5.35259e-08
3.80669e-07
2.2507e-07
2.27475e-07
5.47784e-08
3.81224e-07
1.44684e-07
2.23388e-07
5.48162e-08
3.88196e-07
2.25907e-07
5.3556e-08
3.79854e-07
1.42922e-07
2.24818e-07
5.36954e-08
3.80865e-07
8.63689e-08
2.32052e-08
2.31822e-08
2.32213e-08
2.32086e-08
8.65792e-08
4.12452e-08
4.80687e-08
2.16483e-07
2.60557e-07
4.8215e-08
2.18403e-07
4.11726e-08
2.44213e-08
5.86251e-08
1.33533e-07
1.35739e-07
2.43129e-08
2.43479e-08
1.35703e-07
5.79332e-08
1.35524e-07
2.43686e-08
4.13772e-08
2.6164e-07
4.81594e-08
2.15583e-07
4.8399e-08
2.19488e-07
4.13801e-08
4.11804e-08
4.83783e-08
2.14664e-07
2.61559e-07
4.10508e-08
4.87589e-08
2.18129e-07
2.41378e-08
5.76958e-08
1.33744e-07
2.40405e-08
1.34038e-07
2.42102e-08
1.33346e-07
5.77323e-08
2.40582e-08
1.33858e-07
4.09084e-08
2.60225e-07
4.85037e-08
2.17021e-07
4.1126e-08
4.86018e-08
2.17182e-07
4.06524e-08
4.8697e-08
2.16812e-07
2.62309e-07
4.09377e-08
4.8717e-08
2.16216e-07
2.42638e-08
5.84788e-08
1.35785e-07
1.35635e-07
2.44334e-08
2.43573e-08
1.34151e-07
5.87927e-08
2.42823e-08
1.35682e-07
4.11361e-08
2.61264e-07
4.86629e-08
2.19526e-07
4.87104e-08
2.19073e-07
4.12904e-08
8.79447e-08
2.35484e-08
2.3725e-08
2.36313e-08
2.37514e-08
8.76911e-08
2.26499e-07
3.88826e-07
1.47448e-07
5.4453e-08
5.44837e-08
3.82697e-07
2.2984e-07
2.277e-07
3.86145e-07
1.45762e-07
5.48472e-08
3.84076e-07
5.50427e-08
2.2613e-07
2.2852e-07
5.4552e-08
1.4504e-07
3.8797e-07
5.46363e-08
3.87263e-07
2.27013e-07
2.28069e-07
5.52171e-08
1.4508e-07
3.81509e-07
3.83202e-07
5.53808e-08
2.29755e-07
8.85664e-08
2.34371e-08
2.36514e-08
2.35602e-08
2.35096e-08
8.80357e-08
2.65763e-08
2.63934e-08
2.67508e-08
2.67629e-08
8.80439e-08
2.35628e-08
2.37341e-08
8.94496e-08
2.34378e-08
2.37288e-08
2.28295e-07
3.84897e-07
1.44511e-07
5.46108e-08
3.8752e-07
5.45511e-08
2.30029e-07
2.25654e-07
3.87847e-07
1.45859e-07
5.56539e-08
5.57347e-08
3.82684e-07
2.30282e-07
2.28772e-07
5.48371e-08
3.86681e-07
1.46111e-07
3.88175e-07
2.29798e-07
5.42326e-08
2.29538e-07
5.57369e-08
3.87478e-07
1.46675e-07
2.29218e-07
5.56855e-08
3.88754e-07
8.89445e-08
2.36212e-08
2.37186e-08
2.35871e-08
2.37722e-08
8.83886e-08
2.68487e-08
2.67545e-08
4.0408e-08
4.76917e-08
2.49371e-07
2.1007e-07
4.77576e-08
2.11052e-07
4.05503e-08
2.40827e-08
1.31792e-07
5.7988e-08
1.32767e-07
2.4035e-08
4.07189e-08
2.54014e-07
4.76382e-08
2.11716e-07
4.71787e-08
2.13434e-07
4.05e-08
2.41006e-08
1.31887e-07
5.74946e-08
1.31505e-07
2.39743e-08
4.00882e-08
2.09331e-07
4.75758e-08
2.52937e-07
4.00691e-08
2.10251e-07
4.73063e-08
2.36331e-08
5.56468e-08
1.29889e-07
2.35586e-08
1.28162e-07
2.37144e-08
1.29123e-07
5.62135e-08
2.36411e-08
1.30305e-07
4.00957e-08
2.51653e-07
2.09669e-07
4.7291e-08
4.0104e-08
2.06424e-07
4.76417e-08
4.01134e-08
4.75652e-08
2.50248e-07
2.11866e-07
4.04325e-08
4.75588e-08
2.12738e-07
2.41435e-08
1.30544e-07
5.77832e-08
1.31664e-07
2.40157e-08
4.05984e-08
2.5151e-07
4.75909e-08
2.11519e-07
4.76319e-08
2.11487e-07
4.05692e-08
2.41186e-08
1.31836e-07
5.77873e-08
2.41271e-08
1.32806e-07
4.04285e-08
2.09743e-07
4.76141e-08
2.51403e-07
2.10147e-07
4.78605e-08
4.026e-08
2.39361e-08
5.66667e-08
1.30036e-07
1.30992e-07
2.38328e-08
2.39701e-08
1.31575e-07
5.72866e-08
1.30712e-07
2.38936e-08
4.01691e-08
2.53961e-07
2.08536e-07
4.75946e-08
2.078e-07
4.71676e-08
4.01213e-08
4.0447e-08
4.75848e-08
2.50575e-07
2.11379e-07
4.76801e-08
2.10011e-07
4.02744e-08
2.37242e-08
1.28892e-07
5.63699e-08
1.28659e-07
2.37379e-08
4.02626e-08
2.51716e-07
4.73986e-08
2.08322e-07
4.69682e-08
2.10279e-07
4.01297e-08
2.35599e-08
1.29929e-07
5.64431e-08
1.29414e-07
2.36945e-08
4.04768e-08
2.08635e-07
4.77004e-08
2.52435e-07
4.04166e-08
2.10029e-07
4.76319e-08
2.41111e-08
5.76365e-08
1.31499e-07
1.31448e-07
2.38921e-08
2.40259e-08
1.31325e-07
5.74391e-08
2.39378e-08
1.31712e-07
4.03711e-08
2.51933e-07
2.11893e-07
4.71116e-08
2.08632e-07
4.76396e-08
4.02967e-08
4.03681e-08
4.72282e-08
2.53274e-07
2.10879e-07
4.05102e-08
4.73498e-08
2.12062e-07
2.36615e-08
1.28794e-07
5.6638e-08
1.29418e-07
2.35166e-08
4.06065e-08
2.49568e-07
4.72694e-08
2.09552e-07
4.75659e-08
2.11495e-07
4.03351e-08
2.37968e-08
1.29107e-07
5.62818e-08
2.36893e-08
1.30383e-07
2.65384e-08
2.6468e-08
2.60063e-08
2.60191e-08
8.601e-08
2.32976e-08
2.31155e-08
2.32002e-08
2.31216e-08
8.5907e-08
2.27741e-07
3.87335e-07
5.4488e-08
1.44586e-07
2.27267e-07
5.49204e-08
3.88079e-07
2.22741e-07
3.81994e-07
5.36495e-08
1.41353e-07
2.24578e-07
5.34953e-08
3.82539e-07
8.70741e-08
2.32816e-08
2.31322e-08
8.66085e-08
2.33375e-08
2.31561e-08
2.23776e-07
5.46564e-08
1.45705e-07
3.84688e-07
5.45168e-08
2.25039e-07
3.8344e-07
2.25403e-07
5.3014e-08
1.41915e-07
3.78592e-07
5.35023e-08
2.25129e-07
3.813e-07
4.1351e-08
2.6194e-07
4.82192e-08
2.18959e-07
4.87823e-08
2.20017e-07
4.11718e-08
2.43084e-08
1.35163e-07
5.87903e-08
2.43001e-08
1.35773e-07
4.12209e-08
2.62735e-07
4.85763e-08
2.19373e-07
4.82466e-08
4.10329e-08
2.19672e-07
2.44104e-08
1.35941e-07
5.8729e-08
1.35885e-07
2.44353e-08
8.74067e-08
2.33781e-08
2.36954e-08
2.3523e-08
2.36751e-08
8.70072e-08
2.28336e-07
3.8572e-07
5.43886e-08
1.46813e-07
5.4859e-08
2.28827e-07
3.89429e-07
2.29948e-07
3.87609e-07
5.52511e-08
1.46357e-07
3.88513e-07
2.26633e-07
5.55709e-08
8.79697e-08
2.34391e-08
2.36695e-08
2.35312e-08
8.81083e-08
2.36912e-08
2.2816e-07
5.44816e-08
1.46855e-07
3.83909e-07
5.44741e-08
3.88574e-07
2.28188e-07
2.28961e-07
5.54048e-08
1.44273e-07
3.87555e-07
3.87728e-07
5.5391e-08
2.2933e-07
2.67362e-08
2.65128e-08
4.04114e-08
2.52328e-07
4.72738e-08
2.08913e-07
4.76372e-08
2.1139e-07
4.00422e-08
2.40902e-08
1.31525e-07
5.74427e-08
2.39248e-08
1.32111e-07
4.04663e-08
2.53164e-07
4.75211e-08
2.10971e-07
4.69896e-08
4.04805e-08
2.13102e-07
2.39041e-08
1.3152e-07
5.77321e-08
1.31659e-07
2.40194e-08
4.04006e-08
2.52267e-07
2.11096e-07
4.75755e-08
2.08537e-07
4.77901e-08
4.0391e-08
2.40212e-08
1.30832e-07
5.73211e-08
1.31067e-07
2.40137e-08
4.05485e-08
2.49492e-07
2.10948e-07
4.77063e-08
2.12026e-07
4.0287e-08
4.76345e-08
2.39716e-08
1.31273e-07
5.75829e-08
1.31081e-07
2.398e-08
4.00543e-08
2.4838e-07
4.72165e-08
2.10479e-07
4.73578e-08
2.10212e-07
3.97237e-08
2.38176e-08
1.30137e-07
5.67853e-08
2.3829e-08
1.29436e-07
4.03355e-08
2.52823e-07
4.71659e-08
2.10401e-07
4.00434e-08
4.74916e-08
2.12296e-07
2.37421e-08
1.30187e-07
5.68613e-08
1.30551e-07
2.38107e-08
8.82735e-08
2.38761e-08
2.39215e-08
2.38361e-08
2.3804e-08
8.90724e-08
2.30588e-07
3.84281e-07
1.46653e-07
5.44953e-08
5.51324e-08
3.90508e-07
2.29445e-07
2.30878e-07
3.91124e-07
1.47171e-07
5.57143e-08
3.92082e-07
5.57791e-08
2.27179e-07
2.29782e-07
5.48678e-08
1.44434e-07
3.86928e-07
5.48666e-08
3.9043e-07
2.29985e-07
2.282e-07
5.56653e-08
1.47174e-07
3.91262e-07
3.91421e-07
5.54179e-08
2.31053e-07
8.91557e-08
2.37891e-08
2.37974e-08
2.38978e-08
2.39913e-08
9.02046e-08
2.66389e-08
2.68551e-08
2.37735e-08
5.57181e-08
4.1114e-08
2.16055e-07
4.82496e-08
2.5874e-07
2.16925e-07
4.82235e-08
4.11179e-08
2.43676e-08
5.85498e-08
1.34714e-07
1.35078e-07
2.42675e-08
2.42576e-08
1.34947e-07
5.79665e-08
1.33814e-07
2.43039e-08
4.12157e-08
2.60287e-07
2.1888e-07
4.80523e-08
2.19805e-07
4.82588e-08
4.08089e-08
4.10047e-08
2.16621e-07
4.77561e-08
2.5946e-07
2.17174e-07
4.83011e-08
4.05967e-08
2.39527e-08
5.75718e-08
1.32225e-07
1.33008e-07
2.40093e-08
2.39046e-08
1.32855e-07
5.74429e-08
1.3326e-07
2.4024e-08
4.06304e-08
2.57445e-07
2.15309e-07
4.79717e-08
2.17434e-07
4.81128e-08
4.10138e-08
2.14108e-07
4.77743e-08
4.04465e-08
1.33694e-07
2.4052e-08
2.13965e-07
4.75897e-08
4.04696e-08
1.32809e-07
2.3792e-08
2.62317e-08
2.60234e-08
2.59785e-08
2.63246e-08
2.33131e-08
5.38518e-08
1.48203e-06
1.50697e-06
1.47174e-06
1.48317e-06
1.51781e-06
1.05984e-06
1.04832e-06
1.47485e-06
1.50557e-06
1.45858e-06
1.46631e-06
1.50665e-06
1.057e-06
1.05419e-06
4.33861e-07
6.02731e-07
6.02173e-07
9.36387e-07
5.9738e-07
5.97297e-07
4.35692e-07
4.35646e-07
6.02e-07
5.97568e-07
9.3191e-07
5.94442e-07
5.88497e-07
4.35602e-07
4.3974e-07
9.66122e-07
5.97468e-07
5.98619e-07
6.01331e-07
6.05153e-07
4.39298e-07
4.40178e-07
5.99836e-07
6.04024e-07
9.37601e-07
5.87476e-07
6.0103e-07
4.36504e-07
4.41353e-07
9.58341e-07
6.00691e-07
6.02832e-07
6.03616e-07
6.08783e-07
4.43336e-07
4.30469e-07
6.05118e-07
6.03441e-07
9.41712e-07
4.38085e-07
5.98046e-07
5.91818e-07
4.34222e-07
5.97347e-07
6.06978e-07
9.41785e-07
6.01811e-07
4.42963e-07
6.00049e-07
4.40821e-07
6.07376e-07
6.0913e-07
9.48674e-07
6.00494e-07
5.90078e-07
4.3942e-07
1.48145e-06
1.53098e-06
1.46812e-06
1.47993e-06
1.51227e-06
1.06325e-06
1.05498e-06
1.53126e-06
1.49438e-06
1.4737e-06
1.52821e-06
1.4944e-06
1.06171e-06
1.05416e-06
1.50183e-06
1.47834e-06
1.45382e-06
1.51329e-06
1.49448e-06
1.05919e-06
1.05756e-06
1.47805e-06
1.47853e-06
1.4908e-06
1.46546e-06
1.50927e-06
1.04867e-06
1.05096e-06
1.48166e-06
1.4798e-06
1.53333e-06
1.46365e-06
1.52783e-06
1.05146e-06
1.04984e-06
1.48781e-06
1.51951e-06
1.49924e-06
1.52819e-06
1.49988e-06
1.0523e-06
1.05656e-06
1.46754e-06
1.52551e-06
1.49314e-06
1.52117e-06
1.49514e-06
1.05195e-06
1.05633e-06
7.46166e-07
4.74081e-07
7.87988e-07
5.26218e-07
4.81923e-07
8.04285e-07
7.35976e-07
6.85503e-07
5.19984e-07
2.67265e-07
3.78579e-07
5.22519e-07
3.81956e-07
6.86213e-07
6.99618e-07
3.83023e-07
2.66925e-07
5.2724e-07
5.30927e-07
3.77254e-07
6.86069e-07
7.27851e-07
5.26577e-07
4.8122e-07
7.83245e-07
4.81242e-07
7.79919e-07
7.36633e-07
1.48184e-06
1.53299e-06
1.46773e-06
1.48602e-06
1.53154e-06
1.05755e-06
1.05295e-06
1.51561e-06
1.48937e-06
1.47211e-06
1.52789e-06
1.48515e-06
1.06396e-06
1.05269e-06
1.5257e-06
1.492e-06
1.46599e-06
1.52548e-06
1.49009e-06
1.05193e-06
1.05815e-06
7.48601e-07
5.28281e-07
4.83043e-07
7.8331e-07
4.84158e-07
7.9082e-07
7.40225e-07
6.8139e-07
5.25448e-07
3.78194e-07
2.69458e-07
6.93186e-07
5.22909e-07
3.8214e-07
7.29821e-07
5.29204e-07
4.83684e-07
7.80321e-07
7.38576e-07
4.84646e-07
7.64332e-07
6.89098e-07
3.79758e-07
2.67845e-07
5.30846e-07
5.31937e-07
3.81944e-07
6.94757e-07
7.52993e-07
8.0494e-07
4.90678e-07
5.39988e-07
8.06123e-07
4.95616e-07
7.53126e-07
6.99234e-07
5.31373e-07
2.72135e-07
3.86885e-07
5.21661e-07
3.84241e-07
6.89429e-07
6.98375e-07
3.89839e-07
2.7058e-07
5.32626e-07
5.30924e-07
3.90396e-07
6.992e-07
7.48374e-07
5.3177e-07
8.04597e-07
4.9281e-07
8.00998e-07
4.938e-07
7.4945e-07
4.32187e-07
9.59633e-07
6.00167e-07
5.85902e-07
5.9824e-07
5.99386e-07
4.32984e-07
4.35448e-07
9.58856e-07
5.97603e-07
5.89951e-07
4.32596e-07
5.94187e-07
5.95412e-07
4.39651e-07
9.33276e-07
6.04792e-07
5.95233e-07
4.39363e-07
5.99547e-07
5.84283e-07
7.45651e-07
4.93511e-07
7.93518e-07
5.4481e-07
4.87351e-07
8.04737e-07
7.33328e-07
7.01028e-07
5.33997e-07
2.66405e-07
3.90316e-07
3.91661e-07
5.30207e-07
7.02932e-07
6.96658e-07
3.84457e-07
2.69984e-07
5.33244e-07
3.89699e-07
5.34757e-07
6.97334e-07
7.42808e-07
5.43775e-07
4.9536e-07
7.9219e-07
4.93024e-07
8.00117e-07
7.42886e-07
7.45023e-07
4.97988e-07
8.03498e-07
5.44516e-07
4.97317e-07
8.08276e-07
7.47583e-07
6.94151e-07
5.29332e-07
2.69529e-07
3.92381e-07
3.94713e-07
5.25243e-07
7.04207e-07
7.099e-07
3.91954e-07
2.72298e-07
5.32389e-07
3.94216e-07
7.06817e-07
5.37581e-07
7.47143e-07
5.44688e-07
4.99292e-07
8.0829e-07
4.9151e-07
7.9746e-07
7.38221e-07
7.44027e-07
4.91785e-07
7.95801e-07
5.41803e-07
7.42807e-07
4.93036e-07
7.90469e-07
7.05981e-07
5.29844e-07
2.71177e-07
3.85034e-07
5.36385e-07
3.8526e-07
7.01928e-07
7.01867e-07
3.90371e-07