/*--------------------------------*- C++ -*----------------------------------*\
| =========                 |                                                 |
| \\      /  F ield         | OpenFOAM: The Open Source CFD Toolbox           |
|  \\    /   O peration     | Version:  2206                                  |
|   \\  /    A nd           | Website:  www.openfoam.com                      |
|    \\/     M anipulation  |                                                 |
\*---------------------------------------------------------------------------*/
FoamFile
{
    version     2.0;
    format      ascii;
    arch        "LSB;label=32;scalar=64";
    class       volScalarField;
    location    "90";
    object      omega;
}
// * * * * * * * * * * * * * * * * * * * * * * * * * * * * * * * * * * * * * //

dimensions      [0 0 -1 0 0 0 0];

internalField   nonuniform List<scalar> 
66621
(
296.791
129.125
298.666
49.5237
107.706
19.985
407.599
47.3539
22.8458
19.9348
115.395
25.9785
187.449
184.781
407.189
409.161
26.1188
181.455
187.794
23.624
112.332
183.098
408.39
49.2139
23.7926
117.688
20.0385
128.84
298.333
49.4901
23.279
20.1021
117.664
120.915
297.658
49.4707
23.2587
20.245
117.505
119.182
297.966
25.9857
187.258
185.477
406.306
47.1548
22.7198
19.99
114.058
123.454
296.213
123.94
295.878
409.512
407.251
192.635
425.123
332.564
147.082
310.562
120.546
144.825
310.468
331.758
426.938
198.004
298.504
196.449
425.367
408.187
235.369
410.537
410.634
411.956
411.856
236.998
135.73
307.955
184.965
76.1068
69.4578
307.623
134.115
129.444
307.312
183.058
75.1742
73.3026
307.116
137.916
409.278
236.175
409.988
410.787
411.435
412.342
235.254
128.684
307.099
69.0903
306.365
137.716
129.906
308.733
186.413
76.5548
308.454
138.97
69.8957
411.437
234.744
307.56
70.0934
133.96
332.316
310.251
146.887
120.221
310.034
138.149
331.979
427.008
198.6
297.916
197.675
426.316
143.37
309.923
332.828
194.769
425.734
310.439
138.578
332.86
195.677
427.444
235.498
412.16
409.362
412.157
410.404
237.152
130.403
308.487
184.283
76.5197
307.95
74.8887
138.616
134.186
306.642
184.635
75.7311
74.3384
306.514
136.987
407.64
329.191
142.445
306.939
120.813
140.842
307.222
328.615
424.731
194.684
296.046
193.436
423.315
329.131
142.262
306.832
115.721
139.751
306.688
328.592
424.611
193.861
295.857
192.049
424.283
407.659
17.8056
16.6434
16.6463
15.9892
17.7193
16.5887
16.595
15.8971
17.733
16.5806
16.5636
15.9567
17.6745
16.5522
16.5262
15.777
29.119
56.1167
27.5191
48.614
54.8983
26.4058
28.7411
72.5891
47.8475
34.4675
28.2693
26.6526
54.5091
46.2349
26.3911
53.8026
27.9052
33.1411
73.1472
113.643
49.0027
48.4056
67.2855
32.6338
62.745
25.7249
39.3639
38.922
38.6113
38.1489
64.8823
60.7499
25.612
39.2503
39.661
66.6977
38.4181
36.6736
71.3658
46.9348
33.5068
29.0805
56.4576
27.4483
47.9325
55.1749
27.1658
29.4891
33.2993
75.0277
115.898
49.8118
69.4167
48.8775
35.4305
29.0498
27.4739
56.5954
45.2849
27.0941
51.515
29.5126
33.0991
76.2296
109.493
49.6729
74.9229
35.1236
48.7571
28.3861
27.6446
56.7651
48.4007
27.396
55.4073
29.9126
33.0066
75.0144
109.069
49.3976
45.2178
72.8772
35.1427
63.6462
25.7027
39.2615
38.6979
36.2794
38.5331
62.9392
28.1736
26.5909
53.9422
43.2915
26.3101
52.6973
27.8193
32.0761
72.6679
111.718
48.1462
47.2114
67.1366
33.9779
744.969
1612.71
4419.61
16477.1
116782
743.705
1612.59
4419.78
16479.1
116802
723.904
1592.93
4387.13
16424.3
116892
724.458
1592.92
4387
16422.7
116862
724.056
1592.99
4387.45
16426.6
116912
724.819
1593.11
4386.91
16423
116872
743.736
1612.57
4419.74
16479.1
116814
743.948
1612.64
4419.3
16476.4
116781
744.801
1612.73
4419.4
16476
116772
724.243
1592.93
4386.98
16423.7
116881
744.197
1612.59
4419.58
16478
116795
744.061
1612.59
4419.56
16478
116802
724.88
1592.95
4387.14
16424.4
116892
724.461
1593.04
4387.43
16426.2
116912
732.864
1603.53
4404.28
16446.9
116752
730.581
1597.49
4393.12
16424.8
116727
731.673
1598.14
4393.49
16425.1
116727
731.943
1602.79
4403.85
16446.6
116752
744.738
1613.27
4420.21
16479.4
116802
724.823
1593.52
4387.47
16424.6
116892
742.87
1611.6
4417.68
16474.7
116795
743.877
1612.3
4418.12
16475.1
116795
742.851
1611.59
4417.71
16474.7
116795
743.917
1612.28
4418.16
16475.1
116795
725.022
1593.59
4387.8
16426.9
116912
723.621
1596.61
4394.77
16440.3
116904
743.914
1611.75
4417.58
16473.1
116777
732.891
1603.55
4404.26
16446.2
116747
730.636
1597.5
4393.09
16424.6
116725
731.772
1598.13
4393.42
16424.9
116725
731.976
1602.8
4403.83
16445.9
116747
744.757
1613.25
4420.16
16479.5
116814
731.611
1597.61
4393.37
16425.2
116749
732.699
1603.17
4404.21
16447.9
116774
731.69
1597.6
4393.39
16425.8
116747
732.534
1602.99
4404.21
16448
116769
722.412
1596.35
4394.91
16440.8
116904
742.929
1611.55
4417.37
16472
116759
744.092
1612.28
4417.85
16472.4
116759
725.195
1593.5
4387.31
16424
116881
733.326
1603.65
4404.59
16448.3
116769
731.237
1597.67
4393.44
16426.7
116747
732.48
1598.26
4393.75
16426.9
116747
732.799
1602.94
4404.19
16448
116769
745.234
1613.22
4419.99
16478.4
116795
733.365
1603.66
4404.56
16448.1
116774
731.181
1597.69
4393.44
16426
116749
732.087
1598.21
4393.69
16426.2
116749
732.771
1602.93
4404.14
16447.8
116774
745.02
1613.26
4419.99
16478.3
116802
725.69
1593.66
4387.78
16426.4
116912
722.589
1596.36
4394.86
16440.9
116918
722.76
1596.38
4394.8
16441.2
116921
721.457
1591.84
4385.84
16418.5
116835
722.245
1592.75
4386.37
16419.6
116840
721.381
1591.85
4385.86
16419.3
116840
722.563
1596.41
4395.03
16441.6
116918
742.832
1611.61
4417.55
16473.1
116777
743.808
1612.24
4417.93
16473.4
116777
723.982
1597.05
4395.26
16441.2
116918
724.102
1597.08
4395.21
16441.5
116921
722.543
1596.42
4395
16441.8
116933
742.995
1611.59
4417.53
16473.1
116776
744.113
1612.26
4417.92
16473.4
116776
722.523
1596.39
4394.79
16440.6
116921
742.885
1611.64
4417.68
16474.2
116795
744
1612.29
4418.08
16474.6
116795
723.76
1597.05
4395.32
16442
116933
723.802
1597.04
4395.14
16440.9
116921
722.217
1592.75
4386.42
16419.7
116852
721.438
1591.88
4385.93
16419.4
116852
721.336
1591.83
4385.74
16418.4
116840
721.12
1591.9
4385.81
16418.2
116831
723.697
1597.07
4395.41
16441.9
116918
723.68
1597.06
4395.34
16441.1
116904
722.644
1592.76
4386.31
16418.8
116835
721.798
1591.89
4385.8
16418.4
116835
722.563
1592.71
4386.15
16418.7
116840
721.828
1591.87
4385.67
16418.4
116840
408.447
408.911
25.2466
184.363
179.401
122.217
297.065
46.8301
23.2659
113.626
20.2288
122.097
296.501
46.5684
23.6301
19.6555
111.141
24.0777
116.949
297.758
408.083
25.0695
181.01
181.73
406.689
43.5267
23.7233
20.038
111.132
46.3899
23.6154
20.0656
108.814
118.222
295.264
122.237
293.486
25.417
181.238
178.448
407.287
405.657
410.603
411.225
235.159
306.585
76.4609
139.917
307.983
70.6796
139.156
331.413
142.476
309.448
128.268
331.942
140.464
309.382
423.806
193.769
295.975
425.954
196.592
331.529
309.588
140.195
128.73
332.099
309.507
146.64
423.144
192.659
296.605
425.801
190.937
423.909
195.031
297.423
425.729
194.248
406.246
238.378
409.627
410.28
237.716
409.616
408.793
139.769
307.308
69.8969
186.179
75.761
133.779
306.851
139.16
305.666
68.5613
180.165
137.564
305.263
74.2395
405.106
328.523
133.133
305.914
121.953
328.515
141.355
306.493
421.731
191.442
294.254
423.031
188.351
328.369
138.001
306.21
124.042
328.636
137.787
306.774
421.578
190.836
293.309
423.777
190.313
238.258
410.844
411.592
237.287
409.431
409.257
140.641
306.715
71.4248
185.92
134.916
76.5553
306.493
139.232
306.344
71.0623
184.157
137.957
71.3552
306.262
406.438
405.459
17.8002
16.8213
16.5748
15.8751
17.7196
16.6922
16.5013
15.8002
17.6933
16.5781
16.5641
15.8025
17.6599
16.4742
16.471
15.7859
37.2725
37.172
63.5589
29.8742
53.3501
26.3245
47.8486
29.0944
52.3722
26.0882
35.7801
70.5473
47.7743
111.508
48.6528
34.3046
75.5354
29.8261
26.4611
55.5893
49.6856
29.6669
27.4316
55.9779
35.5694
72.1896
45.711
117.162
35.4563
69.5592
49.1294
35.9558
72.101
46.4644
113.134
34.5829
70.8059
49.5831
67.2395
25.9906
36.781
36.9319
39.261
63.3527
39.1904
29.1664
26.0897
49.2841
47.2418
28.034
26.4509
53.69
34.8399
72.3384
47.0436
108.454
34.7807
45.2428
70.1759
28.9849
25.4699
51.8795
47.0712
28.1252
26.6038
51.665
34.6725
67.273
46.293
111.904
33.3298
72.4962
45.9481
66.7721
25.659
36.5547
36.4136
66.0179
38.808
38.7726
17.9109
24.5959
17.912
24.5892
24.1152
26.8738
26.8146
26.7573
24.4301
24.3717
24.4564
24.4382
26.7977
26.557
24.8158
24.7145
24.8215
24.7936
24.9285
23.7481
24.7942
26.271
23.7533
23.693
25.9748
24.5106
24.0274
24.1184
26.7066
24.4463
127.487
297.155
296.958
128.637
406.905
405.816
133.12
299.727
299.425
134.037
17.878
17.8694
17.868
17.7956
17.8349
17.7274
17.8172
52.0328
122.997
20.6727
23.9874
122.248
20.1663
52.4906
128.025
297.095
129.458
296.857
406.521
405.622
129.596
299.419
135.085
299.157
17.8085
17.7988
17.6914
51.666
122.52
20.7232
24.2211
52.3985
121.685
20.3551
408.622
407.235
49.3791
20.2647
119.036
23.2372
19.919
118.673
49.9873
190.608
188.866
26.7964
189.65
187.952
406.969
405.389
408.62
407.081
188.563
191.236
26.7966
187.881
190.435
405.337
407.351
406.913
407.994
26.3967
187.146
190.047
185.365
187.561
127.315
297.317
296.845
129.533
48.8199
119.787
20.3404
23.2335
119.067
20.1805
49.7347
48.8251
119.952
20.3615
23.2856
118.578
20.2112
49.6002
118.833
296.653
296.103
128.598
121.218
296.55
295.597
127.252
44.4304
24.2771
118.834
20.3283
109.78
20.0049
47.7421
44.7338
24.2879
117.745
20.3327
112.208
20.0205
49.3475
188.364
190.958
26.6741
187.864
190.136
407.231
406.779
405.604
406.565
25.7906
187.055
188.825
182.829
184.738
406.619
407.639
51.8137
122.593
20.6877
24.1812
122.387
20.4579
52.5972
132.832
299.253
133.815
299.003
51.9889
20.7581
122.282
23.5811
20.4128
52.891
121.652
124.897
298.828
298.422
134.557
48.3081
23.9077
121.271
20.7057
116.029
20.3421
51.9809
125.762
298.765
132.817
297.919
48.3046
24.6447
20.5709
121.522
20.5431
51.8056
112.057
133.501
299.455
299.085
133.826
51.8352
20.67
123.013
23.4972
20.4779
52.2808
121.889
132.734
299.409
133.976
299.057
48.0651
23.7898
117.111
20.3478
118.827
20.6312
49.6728
130.021
298.756
297.955
132.215
48.1556
24.5981
20.6496
121.062
20.3139
51.7822
115.493
125.581
298.77
132.356
298.637
406.444
405.727
407.743
407.158
184.526
185.466
26.6592
186.641
190.01
127.131
295.402
122.122
296.527
49.1868
115.492
20.1901
24.0149
44.1004
117.436
20.2302
49.0462
113.536
20.1812
23.9562
44.826
118.083
20.2262
182.867
184.224
26.6406
187.218
188.565
407.925
406.715
51.4723
115.673
20.5904
24.5819
48.6041
120.882
20.6316
132.754
297.45
127.595
298.594
51.4009
20.186
112.602
24.2932
48.3932
20.6627
120.346
132.167
297.903
129.011
298.496
51.1764
20.5327
114.689
24.3829
47.7339
20.5844
120.901
131.57
298.232
125.654
298.623
190.644
188.392
26.5804
189.604
187.452
405.882
405.86
185.205
406.655
49.3033
20.3954
119.44
23.3807
20.0939
118.881
49.8839
127.801
296.95
296.63
128.984
128.147
297.209
296.94
128.851
46.5756
110.544
46.7748
112.355
120.818
296.106
123.785
296.686
406.997
407.405
406.334
405.473
182.324
407.064
329.005
306.988
145.344
125.758
306.862
143.407
328.787
422.394
295.91
197.708
191.485
422.941
423.692
197.337
296.042
196.451
422.875
328.714
120.614
307.513
146.985
306.448
137.561
328.871
405.477
405.982
332.379
150.712
310.785
126.284
148.587
310.516
332.294
424.577
298.132
202.332
195.544
425.027
426.046
201.187
299.178
200.217
425.15
331.948
128.249
151.347
311.233
143.182
310.797
332.419
329.035
121.702
307.29
145.77
306.946
139.517
329.187
422.284
197.621
295.773
422.519
191.569
328.993
123.805
307.7
148.273
329.055
307.347
142.167
423.748
196.999
296.015
196.188
422.953
406.454
405.488
332.41
131.702
150.959
310.769
145.02
310.765
332.685
424.295
201.842
297.715
424.803
194.872
332.233
130.242
152.563
311.063
332.219
148.466
310.698
425.882
200.862
298.831
199.851
425.231
406.696
407.17
240.316
409.495
409.475
409.654
410.496
238.523
142.695
80.5502
183.347
308.223
75.9184
307.397
140.514
142.377
80.0317
182.211
308.242
76.7527
307.615
140.806
138.299
308.195
188.616
80.3586
75.1992
308.034
140.58
137.262
308.03
186.91
79.1428
74.4771
307.748
139.319
240.054
410.811
410.976
409.795
409.944
238.297
405.636
406.703
407.303
407.887
240.177
408.934
409.973
409.305
410.347
237.628
143.236
79.3378
185.317
307.517
306.854
75.0412
136.703
143.579
81.2445
187.913
309.188
308.728
72.8605
137.738
133.601
307.654
183.424
79.1912
307.52
141.416
73.7416
133.79
308.963
186.098
80.0468
308.456
140.821
78.6478
240.166
410.616
411.577
409.526
410.45
239.848
405.225
405.445
408.352
408.285
239.866
410.214
412.341
237.036
409.652
409.936
144.27
78.7497
182.288
307.045
306.794
73.3803
140.188
143.719
79.2271
188.673
308.428
308.308
77.7387
134.691
138.394
306.744
76.9625
183.382
139.892
306.722
74.7231
142.175
308.691
74.4473
188.532
141.967
308.024
73.5808
238.602
409.268
409.926
409.89
410.302
239.207
328.909
307.115
145.939
125.442
307.017
139.35
329.076
422.379
295.392
197.324
192.939
422.883
423.336
196.997
296.351
192.618
423.065
329.099
120.116
307.816
146.004
307.261
140.256
328.965
328.975
306.509
136.776
126.292
329.176
307.186
144.557
423.708
295.748
196.592
423.942
192.933
422.743
192.841
295.998
423.085
194.918
328.905
127.379
307.392
147.89
329.138
307.187
142.426
328.967
306.82
136.958
124.198
329.272
307.179
144.141
423.838
296.071
197.309
193.412
422.419
422.654
190.925
295.297
423.106
195.713
328.826
124.895
307.367
146.66
307.361
140.838
328.833
239.86
409.484
409.533
409.805
409.907
237.813
141.294
78.9587
182.207
308.331
307.803
74.1568
139.448
143.408
80.293
184.823
308.405
72.0025
307.951
142.059
135.16
307.986
186.985
78.934
307.844
73.5074
138.261
135.39
307.91
189.372
79.3795
78.1051
307.925
132.929
238.242
410.864
410.623
409.841
410.939
238.176
407.985
408.772
405.857
405.956
239.791
410.525
410.565
237.035
410.085
410.172
142.528
78.2469
185.501
307.55
72.9683
307.434
133.52
145.038
78.9676
187.545
307.586
307.455
77.2525
135.673
141.072
307.247
76.9371
184.886
74.694
135.602
307.483
139.547
307.339
74.3317
183.757
141.734
307.259
76.4786
237.896
409.694
409.782
410.183
410.154
237.675
406.987
407.392
332.4
310.612
131.105
150.771
310.634
149.176
332.198
426.172
201.875
297.853
198.03
425.474
332.093
126.563
311.209
151.71
310.871
144.636
332.217
425.096
201.047
298.503
197.128
425.052
332.024
144.38
310.605
131.676
332.777
141.376
310.871
425.297
298.667
201.328
426.647
200.929
424.903
196.656
298.47
425.433
196.517
332.404
128.905
147.38
310.824
332.023
149.775
310.91
331.909
310.471
122.401
143.619
332.667
310.716
140.473
425.236
201.275
298.263
197.42
425.548
332.285
131.214
310.83
150.435
310.953
148.965
331.933
424.962
194.867
297.615
425.351
199.592
332.214
151.033
310.732
127.089
144.266
310.581
332.536
424.539
298.101
202.083
198.073
426.143
425.681
201.487
298.713
197.502
425.241
331.999
129.982
151.267
311.226
145.547
310.849
332.524
332.407
310.601
131.139
151.211
310.67
144.789
332.608
424.739
202.635
298.318
196.073
425.248
332.242
126.9
311.305
151.584
310.971
146.171
332.206
426.074
201.463
298.571
200.411
425.308
332.262
141.722
310.398
126.552
332.726
148.918
310.615
425.209
298.469
201.375
197.475
426.811
424.956
195.004
298.363
425.395
199.842
332.119
127.021
151.559
310.7
145.47
310.398
332.165
332.576
310.243
122.351
141.739
332.542
310.527
148.794
425.995
200.742
298.231
199.5
426.234
332.137
130.852
310.659
151.29
310.548
145.496
332.091
424.793
196.941
298.294
425.517
196.072
405.852
405.945
407.249
408.498
240.388
409.304
410.292
409.674
410.54
237.997
143.67
76.5538
306.439
185.708
137.343
306.981
74.0369
143.393
71.3367
308.353
183.199
141.807
308.371
77.4633
238.131
410.489
411.182
239.584
409.67
410.603
140.87
307.144
185.618
78.2395
306.775
141.439
74.8749
138.462
308.848
189.02
80.3961
308.519
140.482
75.4516
328.939
125.591
307.196
145.196
307.092
138.725
328.973
423.876
194.815
295.725
423.802
192.526
328.937
124.77
307.159
143.55
307.214
329.105
140.695
422.557
196.113
296.032
192.416
422.708
240.312
409.302
409.433
409.062
410.177
238.348
142.552
76.3792
307.113
180.226
307.194
141.012
73.8584
144.1
74.7168
307.438
186.43
76.6972
142.738
307.591
239.804
410.697
410.693
411.117
237.786
410.413
137.623
307.486
186.382
78.1787
307.442
73.3861
139.653
138.525
308.023
187.087
79.0753
77.2635
307.913
140.745
407.394
408.418
332.425
127.049
310.768
149.748
310.53
147.823
332.389
424.976
197.953
297.885
425.53
199.039
332.406
127.42
310.689
142.902
310.787
332.18
142.316
425.773
200.085
297.926
198.925
425.086
332.606
125.442
150.958
310.586
149.694
310.312
332.427
424.64
198.806
298.191
196.813
425.041
332.435
126.99
148.761
310.622
149.482
332.474
310.278
425.869
200.199
298.134
196.066
425.325
332.512
129.43
310.729
149.738
310.665
147.888
332.58
424.767
196.514
297.815
424.889
198.694
332.585
128.618
310.443
143.985
332.521
310.798
142.125
426.134
199.951
298.27
198.616
425.075
240.116
409.823
409.082
410.503
409.944
238.468
142.316
80.3633
183.509
308.877
308.159
73.4677
140.348
142.917
79.6803
184.653
307.65
72.6965
307.331
136.282
137.982
308.937
188.65
79.9627
308.908
78.978
139.823
140.384
307.583
183.119
78.9298
78.0839
307.21
140.872
239.698
411.397
410.546
410.362
409.635
237.328
406.085
406.001
409.702
306.843
329.136
146.154
307.207
126.022
144.631
307.054
328.924
422.319
295.349
198.098
195.09
422.846
423.28
197.215
296.271
193.214
423.116
328.914
120.792
147.59
307.552
139.986
306.757
329.078
329.283
146.259
307.406
121.76
144.683
306.977
328.963
423.776
296.474
198.465
195.02
423.116
424.349
197.308
296.071
193.307
422.32
329.363
123.67
147.857
307.536
140.241
307.124
329.102
140.667
307.162
329.343
195.454
423.515
140.06
307.684
329.408
194.994
423.363
407.748
408.583
407.452
405.677
409.661
307.669
16.4699
16.5647
17.8201
16.4844
16.6006
15.73
15.8162
16.4742
16.5974
17.8196
16.5186
16.6392
15.767
15.8041
68.9302
41.6451
41.4538
25.5723
38.5777
38.2684
67.802
69.3026
41.078
41.3645
25.9581
37.5772
39.3862
68.2962
70.4614
25.7687
40.5358
41.0829
39.802
38.681
67.7731
64.7408
40.9451
41.3229
25.4971
38.2648
39.0765
68.0927
69.6618
26.2364
40.8384
40.5603
38.7115
39.9414
62.8552
69.95
38.9486
37.8426
25.8783
65.7003
38.5654
40.6795
69.3745
39.7263
39.069
25.8146
38.9138
68.3728
38.6677
68.4878
41.3729
41.058
25.3376
37.9078
37.6199
67.2616
16.5074
16.5644
17.7367
16.5458
16.5841
15.7331
15.8575
16.5348
16.473
17.775
16.598
16.5018
15.732
15.8004
16.5404
16.4895
17.7131
16.5766
16.509
15.728
15.7651
17.8046
16.4832
16.6126
16.4827
16.5977
15.8233
15.8007
17.7337
16.4763
16.5495
16.4967
16.5864
15.8092
15.7702
17.8063
16.5583
16.449
16.5705
16.4611
15.8483
15.8021
17.7094
16.5332
16.4985
16.5397
16.5221
15.8612
15.7974
30.6915
59.1932
28.2311
50.9274
54.9955
27.9431
29.56
36.1479
52.0703
118.888
79.4396
47.1843
74.9018
35.687
34.4474
79.3936
116.01
51.6799
50.8853
74.0796
35.25
30.5127
48.8292
59.3189
28.4593
56.4277
27.1982
30.4135
16.5013
16.5628
17.8354
16.4862
16.5644
15.7306
15.7697
16.5897
16.4831
17.8237
16.5836
16.4719
15.7437
15.7905
16.5582
16.5109
17.8414
16.5464
16.4926
15.7254
15.7767
30.7023
50.6847
58.7779
28.0779
57.7778
27.8359
29.3789
36.2739
51.9582
79.5117
113.993
35.8452
49.5117
74.8413
29.5765
48.4445
59.3704
28.3574
29.8301
54.8056
27.0371
33.6821
78.8965
120.493
51.6212
48.5897
74.0745
36.091
29.6273
27.2509
56.136
48.5022
27.1169
55.2725
28.2125
34.9266
50.026
109.969
77.1882
47.5456
70.6899
33.2149
34.3366
76.6267
117.155
50.1636
47.2085
75.9592
34.4212
29.3566
46.2712
27.5534
56.4862
26.4685
52.2106
28.3672
66.1505
26.5875
41.4758
41.092
41.0577
40.7152
67.6205
64.2198
25.8216
40.7574
41.1781
62.5526
40.2025
38.8283
66.6639
26.0116
38.6768
40.463
68.7147
39.5633
39.4499
29.4718
55.5687
27.0955
48.1755
54.6104
26.2741
27.7233
33.468
51.207
116.108
76.8001
70.3888
49.5323
35.0164
34.3268
76.4828
113.224
51.038
75.6826
47.9847
33.1735
29.2363
46.0713
57.103
27.241
51.5465
26.6735
29.2665
29.7033
55.9797
27.1446
45.9103
54.8875
26.9246
28.6948
34.8635
50.5089
109.489
76.1362
69.2444
47.7269
34.4535
32.6733
76.0952
116.945
50.6201
75.0397
34.6243
47.3609
29.4154
47.0414
56.126
27.3816
51.918
26.359
28.6426
29.3711
52.0133
25.8918
48.2428
29.1017
50.4357
26.9472
35.5164
50.7818
113.044
76.2664
50.2313
73.548
33.9398
35.2017
72.6395
49.7745
116.71
50.1903
33.4349
74.4097
27.8472
48.8414
56.0504
27.3713
55.2836
26.512
29.1321
29.7153
51.0889
25.7675
48.2791
28.4328
55.5557
26.9334
35.4907
50.3212
115.591
75.2148
73.9285
49.6476
32.6106
35.2499
70.7784
49.1785
114.787
34.9919
69.9944
49.8041
29.1203
46.681
53.9105
27.3575
56.2064
26.5057
28.1919
67.0667
26.4082
40.8633
41.2252
40.8396
38.4371
65.3996
69.0838
26.1244
37.6259
38.3188
40.3667
64.9092
38.1392
30.6024
59.1246
28.2754
50.7283
55.139
28.1072
30.0299
36.498
52.1969
114.357
80.1754
77.341
50.1427
34.6017
33.8406
79.6611
121.033
50.7781
74.9169
49.3466
36.1398
29.5037
48.3156
59.3453
28.471
56.207
27.3285
29.841
30.9016
28.3777
51.2928
58.7743
27.4846
57.7065
28.8104
36.2206
52.2539
79.2402
118.271
71.4648
35.8173
50.366
30.829
49.1965
28.6653
60.0306
28.1868
54.6177
29.6903
34.1336
78.5242
115.479
51.9432
77.2356
33.3024
48.6157
30.8929
53.8994
27.3795
46.945
29.5054
58.2084
27.858
36.919
51.9999
119.382
75.6455
51.3679
79.5322
34.261
35.1773
76.7982
51.3459
118.721
51.6285
35.5813
75.0984
29.353
51.0891
59.444
28.26
56.0959
27.9553
28.6422
30.6747
27.851
46.8938
55.2931
30.2875
27.51
57.0374
36.5854
51.7328
78.1432
115.588
76.437
33.9901
48.6167
29.3884
51.1695
28.1898
58.5497
27.3622
57.3967
29.8619
35.1059
73.7155
47.0934
119.259
35.7149
76.0435
50.8976
31.0089
28.2291
50.7668
59.4228
27.2065
58.5429
29.85
36.3237
52.1693
80.8087
112.969
76.1684
49.1952
35.7716
30.8637
48.1959
28.5032
60.4348
27.6277
56.3121
30.5357
34.572
79.5718
120.116
52.098
74.7014
34.5643
48.6635
30.7702
57.7601
27.3082
46.5794
29.3068
58.0999
27.3123
36.8142
51.4536
119.044
78.4944
34.5468
48.3447
78.5244
35.2069
72.465
48.5665
119.007
35.5423
48.9224
78.2747
29.2835
50.954
58.6592
28.2063
28.845
58.5811
27.2551
30.8451
27.805
46.588
55.4499
29.3901
27.399
57.1517
36.7665
52.2506
79.1697
118.837
74.2721
35.1786
49.2145
30.2219
50.9179
28.1679
58.7361
27.1393
57.4603
29.5675
36.5928
77.9505
47.5242
118.183
34.6389
75.942
51.4298
68.1966
25.686
40.7356
41.5888
68.8545
38.2815
39.3292
29.7015
46.3117
55.3331
27.1094
54.3134
26.9085
28.1445
35.2161
47.2368
72.9177
112.394
74.2145
33.5082
45.7323
29.5372
48.1453
51.8449
26.7798
51.4191
29.377
26.9557
34.3499
75.6211
112.679
50.4442
74.4453
49.8783
34.5753
29.8243
46.3575
56.3693
27.2239
52.8738
26.4332
28.3935
35.0085
47.4702
70.5225
111.669
34.6296
68.2473
48.8208
29.6487
48.3519
56.1524
26.0454
29.6819
54.4176
27.1017
33.8205
75.5736
115.22
50.1459
74.694
34.1519
49.2512
66.3602
25.714
40.7166
41.1349
38.7531
38.2439
68.1189
30.8625
50.429
58.7279
28.3174
54.6201
28.0612
29.8913
36.6868
48.7846
78.4947
118.206
73.665
36.3462
50.2979
29.8405
50.0712
57.7119
27.6336
56.2411
30.2935
27.9812
35.1191
79.5281
118.908
51.6502
78.8443
50.6812
35.4906
30.4571
50.3344
28.3678
58.5367
28.1868
57.4271
29.7805
36.429
50.0483
73.9523
119.836
35.99
76.1853
48.5692
30.5178
49.9794
27.9206
55.4071
30.0403
28.2285
57.0895
34.8307
78.1021
117.854
51.0167
76.6712
35.3492
47.8526
30.8225
50.1066
27.694
58.4514
28.1352
57.3933
29.8345
36.7207
50.5208
72.091
111.301
51.1793
34.6997
77.7332
30.489
47.4864
27.7047
54.9073
28.0021
29.4368
54.3575
35.7789
79.3397
119.619
51.8492
51.2376
75.1021
35.9589
65.7528
26.3619
40.9616
40.7813
40.4693
40.4517
67.268
29.7536
27.2067
55.9784
45.9968
26.9986
54.9437
28.2916
35.0297
50.9163
113.984
76.6682
48.1397
72.1987
34.5704
33.7833
76.5604
112.628
50.7631
47.6203
71.5646
34.3245
29.5234
46.762
27.5066
57.0547
26.3237
52.046
29.5727
53.1689
70.7118
53.3024
73.0602
17.9553
24.2169
24.1289
26.3631
17.9404
24.5173
24.1102
26.6772
17.9528
24.5956
24.0872
26.8176
17.9592
24.557
24.1647
26.8312
17.8303
24.5803
24.3563
26.8548
17.8821
24.5602
24.338
27.0059
17.9019
24.5482
24.2072
26.9353
17.9199
24.7312
24.1881
26.9844
17.8997
24.6782
24.2795
26.9767
17.9355
24.5982
24.1215
26.7926
17.9206
24.5944
24.1106
26.9044
17.8951
24.6387
24.288
26.8717
17.9085
24.5993
24.21
26.937
17.9
24.6623
24.2759
26.8543
17.9183
24.672
24.2821
27.01
24.1732
26.9124
26.4625
23.6733
22.8038
26.4086
24.6749
23.2627
23.9176
24.3019
26.4111
23.2585
23.6917
26.1358
25.7523
26.645
23.9598
23.6244
24.2463
24.1104
25.0533
26.4586
23.7406
24.4038
24.9573
24.7173
24.2909
23.5497
24.8385
25.5011
26.4586
23.8677
23.9002
24.2507
26.4618
25.295
26.585
22.9981
23.8546
24.3123
24.2138
25.9606
26.5399
24.4371
23.583
24.5766
24.7183
24.0614
23.6605
24.6292
25.9827
26.3842
23.4795
23.8664
24.1287
25.9923
25.8903
26.7411
23.2767
23.7033
24.3246
24.1949
25.2657
26.528
23.4712
24.2354
24.8375
24.6281
23.4344
24.3211
24.6413
25.4522
26.3963
23.5767
23.8985
24.0683
26.5617
26.2872
26.7337
23.5025
23.7991
24.3913
24.2806
25.3968
26.5618
24.4108
24.0297
24.6325
24.5621
24.0294
24.3091
24.6646
25.8071
26.405
23.7575
23.5506
24.2375
26.67
25.5199
26.7107
23.5474
23.5478
24.2929
24.3101
25.7516
26.483
23.3764
24.112
24.8375
24.5774
24.0606
24.3277
24.9532
25.7025
26.454
22.9853
23.5701
24.3792
26.9386
26.1622
26.7898
23.0624
23.4694
24.4709
24.2372
25.6896
26.549
24.4248
24.2114
24.7052
24.6266
23.4978
24.3189
25.0176
25.8007
26.603
23.8417
23.6954
24.2535
26.7312
26.2541
26.6324
23.2967
23.6854
24.5669
24.1981
25.8538
26.7081
23.6182
23.9532
24.7265
24.5918
24.472
23.8497
24.7906
25.2715
26.4559
23.3603
24.0052
24.2725
26.2138
25.8071
26.6865
23.6611
23.7745
24.3895
24.2913
26.2672
26.6587
24.0499
23.8628
24.8617
24.577
23.4963
24.4586
24.8809
26.091
26.4668
22.8939
23.4564
24.3705
26.8642
26.0034
26.6899
22.9802
23.5618
24.4515
24.234
25.3201
26.8028
24.0748
23.267
24.7284
24.7879
23.9798
24.3308
24.785
26.0165
26.6651
23.9083
23.9068
24.3044
26.5923
26.0684
26.763
24.0721
23.5538
24.3133
24.2606
26.2196
26.6989
23.5981
24.3428
24.9716
24.6809
23.4995
23.9213
24.8773
25.4345
26.5712
23.1497
23.8762
24.3738
26.0913
26.0818
26.7722
23.7552
23.0118
24.2877
24.4149
26.2383
26.5973
24.0545
24.2119
24.8478
24.6498
24.4384
23.6796
24.7378
25.4695
26.4367
23.8063
23.458
24.2324
26.7296
26.3493
26.6027
23.7572
23.2106
24.2225
24.5183
25.7293
26.5197
23.3783
23.9622
24.8651
24.8311
24.0338
23.6727
24.6395
25.2978
26.5118
23.5029
24.0075
24.2009
26.0953
25.8783
26.658
23.8846
24.0684
24.2646
24.2722
25.5729
26.523
23.6415
23.9665
24.9319
24.5799
24.0363
23.7269
24.8143
26.0512
26.499
23.6907
23.4479
24.2576
26.6379
25.8811
26.8781
23.8131
23.7816
24.3347
24.1954
25.6571
26.5171
23.7002
23.9369
24.8602
24.6895
23.3657
24.4587
24.8484
26.0804
26.5745
22.9628
23.4812
24.3796
26.1472
26.2494
26.5683
23.1305
23.8629
24.2299
23.4692
25.6048
26.5119
24.2794
24.1132
24.3675
23.8276
24.4502
24.3568
24.7781
26.09
26.5788
24.0059
23.9699
24.1968
26.7794
25.204
26.4635
23.7478
23.8676
24.2833
26.6217
17.9566
17.8061
17.8553
17.819
126.609
296.907
129.745
296.437
407.823
405.391
132.061
298.972
132.776
298.647
17.8142
17.7878
17.7315
17.9543
17.8434
17.8065
17.8508
50.8538
121.827
20.5303
23.7069
50.4769
121.404
20.3864
407.328
406.785
48.2316
20.2033
117.849
23.3602
48.5492
19.8728
118.313
187.376
186.631
26.4495
189.263
187.15
127.253
296.942
127.508
296.966
405.221
405.5
132.101
299.234
132.746
299.08
17.7503
17.8491
17.7894
17.9428
17.8054
17.7495
17.8278
51.992
122.553
20.5648
24.2395
52.2741
121.684
20.2792
407.914
406.806
48.4186
20.244
119.91
23.2168
48.8459
19.9177
119.049
190.146
188.17
26.6864
190.007
188.013
127.923
297.073
128.026
296.796
405.218
405.412
133.299
299.382
132.72
298.952
17.7755
17.8147
17.6479
17.9677
17.7629
17.8315
17.8175
51.6872
121.962
20.5661
23.7897
51.8636
121.105
20.2812
407.596
407.022
48.8243
20.2611
118.987
23.3696
48.6712
19.9816
118.528
191.053
188.408
26.7591
189.959
188.014
128.188
297.445
129.2
296.876
405.315
405.718
132.857
299.788
133.918
299.356
17.8197
17.7343
17.7638
17.9383
17.7872
17.8164
17.8415
52.1757
122.794
20.6372
23.7768
51.9777
121.285
20.2916
406.613
406.993
49.3279
20.2662
120.139
22.9495
50.0365
20.066
119.691
190.581
188.588
26.7565
189.709
188.313
128.009
297.368
128.209
297.041
405.301
405.64
132.654
299.566
133.645
299.257
17.8249
17.7492
17.7654
17.8786
17.8053
17.8181
17.8473
52.0821
121.782
20.6609
23.6741
52.1142
121.697
20.2748
408.139
407.003
49.0944
19.9799
120.814
23.1089
49.5408
20.1831
119.809
190.447
188.809
26.7899
190.249
188.527
127.693
297.213
128.401
296.858
406.558
405.465
132.525
299.18
133.497
298.975
17.7881
17.6679
17.7732
17.8979
17.8012
17.7536
17.8675
52.3203
122.604
20.6611
23.5913
51.9728
122.057
20.2598
406.701
406.774
48.5222
20.2061
119.539
23.1829
48.9318
20.1014
119.033
190.56
188.724
26.8144
190.267
188.319
128.479
297.049
128.935
296.74
406.52
405.525
133.139
299.643
134.293
299.242
17.708
17.7776
17.7748
17.8216
17.8242
17.8228
17.8627
51.7249
122.5
20.6373
23.1895
52.5247
121.883
20.2521
408.017
406.98
48.9501
20.2499
119.132
23.6017
49.1421
19.858
118.326
191.226
188.799
26.8099
190.451
188.018
126.964
297.01
128.842
296.727
405.533
405.73
133.321
299.626
133.664
299.342
17.7412
17.7432
17.7652
17.8934
17.8358
17.8184
17.803
51.3524
122.527
20.6341
24.1815
52.0822
121.894
20.3369
406.825
406.923
48.949
20.3268
119.751
22.8447
49.5505
20.1646
119.17
191.307
189.515
26.8208
190.532
187.89
128.354
297.002
128.294
296.814
406.628
405.579
133.043
299.634
133.767
299.179
17.7174
17.805
17.8088
17.8319
17.8022
17.7887
17.8431
51.967
122.08
20.653
23.8451
51.7365
121.37
20.3642
407.135
406.934
48.9988
20.2624
119.272
23.3403
49.534
19.8675
118.385
191.234
188.705
26.75
190.561
187.886
127.562
297.122
128.974
296.96
404.987
405.558
133.444
299.573
133.092
299.343
17.7945
17.8257
17.8081
17.9044
17.8415
17.8484
17.8562
51.1756
122.286
20.6432
24.0037
51.5402
121.899
20.0566
406.825
406.818
48.641
20.2758
118.883
23.2287
48.8954
20.0623
118.566
190.603
188.732
26.7634
190.372
187.886
128.222
297.356
128.308
296.787
405.557
405.79
132.594
299.187
134.454
299.154
17.7916
17.6962
17.6866
17.9061
17.8253
17.8684
17.8275
51.8559
122.724
20.6802
24.2395
51.6901
121.298
20.1695
407.265