/*--------------------------------*- C++ -*----------------------------------*\
| =========                 |                                                 |
| \\      /  F ield         | OpenFOAM: The Open Source CFD Toolbox           |
|  \\    /   O peration     | Version:  2206                                  |
|   \\  /    A nd           | Website:  www.openfoam.com                      |
|    \\/     M anipulation  |                                                 |
\*---------------------------------------------------------------------------*/
FoamFile
{
    version     2.0;
    format      ascii;
    arch        "LSB;label=32;scalar=64";
    class       volScalarField;
    location    "60";
    object      k;
}
// * * * * * * * * * * * * * * * * * * * * * * * * * * * * * * * * * * * * * //

dimensions      [0 2 -2 0 0 0 0];

internalField   nonuniform List<scalar> 
66928
(
2.87295e-05
2.90716e-05
2.92562e-05
2.94564e-05
2.89955e-05
2.9314e-05
2.87807e-05
2.8902e-05
2.22597e-05
2.2129e-05
6.40901e-06
6.36326e-06
1.51749e-05
1.51282e-05
1.01895e-05
2.44607e-05
9.85318e-06
2.40598e-05
2.45432e-05
2.68002e-05
2.84484e-05
1.01086e-05
2.3903e-05
2.6809e-05
2.50095e-05
2.85691e-05
6.48387e-06
1.54205e-05
1.53258e-05
6.42641e-06
2.48185e-05
1.00962e-05
6.41191e-06
6.45704e-06
6.36962e-06
6.40594e-06
1.51724e-05
1.5019e-05
2.87255e-05
1.53572e-05
1.52208e-05
6.48153e-06
6.47154e-06
6.43705e-06
6.41172e-06
2.86705e-05
1.5274e-05
1.53593e-05
1.53454e-05
1.52912e-05
6.42042e-06
2.30244e-05
2.73036e-05
1.50915e-05
9.8728e-06
9.83925e-06
2.72409e-05
2.29286e-05
2.29548e-05
2.74364e-05
1.52339e-05
9.6937e-06
9.7668e-06
2.74585e-05
2.2901e-05
1.1362e-05
5.61219e-06
5.59446e-06
5.61813e-06
5.59266e-06
1.13265e-05
1.02046e-05
1.47351e-05
1.46991e-05
5.88208e-06
1.44398e-05
5.79013e-06
2.20661e-05
8.06205e-06
7.41343e-06
1.49342e-05
5.95836e-06
8.11389e-06
2.25067e-05
7.5593e-06
2.32016e-05
2.72831e-05
1.54249e-05
9.93472e-06
2.71304e-05
9.93302e-06
2.32089e-05
2.33744e-05
2.72227e-05
1.53457e-05
1.00872e-05
1.00907e-05
2.75374e-05
2.36757e-05
1.17535e-05
5.74563e-06
5.75244e-06
5.71229e-06
5.76097e-06
1.18212e-05
6.42797e-06
1.01225e-05
1.49258e-05
1.49568e-05
5.9473e-06
6.42928e-06
6.45656e-06
6.37284e-06
6.40965e-06
1.15416e-05
5.69171e-06
5.66467e-06
5.69352e-06
5.64717e-06
1.15174e-05
2.32999e-05
2.74868e-05
9.91671e-06
1.52089e-05
2.2969e-05
9.89527e-06
2.75718e-05
2.30006e-05
2.74515e-05
9.83542e-06
1.51472e-05
2.30197e-05
9.83615e-06
2.71728e-05
1.15633e-05
5.62226e-06
5.62051e-06
1.15686e-05
5.64698e-06
5.65825e-06
2.33602e-05
1.00197e-05
1.52065e-05
2.76579e-05
1.00237e-05
2.32393e-05
2.75843e-05
2.2997e-05
9.81256e-06
1.52508e-05
2.7554e-05
9.86617e-06
2.30927e-05
2.75615e-05
6.45901e-06
6.46954e-06
6.44633e-06
6.39896e-06
1.16554e-05
5.69124e-06
5.68956e-06
1.1677e-05
5.69317e-06
5.69362e-06
2.33922e-05
2.77858e-05
1.53105e-05
1.00858e-05
1.01083e-05
2.74083e-05
2.35572e-05
2.31751e-05
2.7553e-05
1.53781e-05
9.8935e-06
9.92829e-06
2.75535e-05
2.32414e-05
2.36437e-05
1.00167e-05
2.76502e-05
1.52569e-05
2.3647e-05
9.99918e-06
2.7458e-05
2.31772e-05
9.8576e-06
2.74362e-05
1.52434e-05
2.31508e-05
9.80648e-06
2.71136e-05
1.16796e-05
5.73921e-06
5.69639e-06
5.74113e-06
5.69479e-06
1.17442e-05
2.8062e-05
2.8828e-05
2.91201e-05
2.89189e-05
2.91904e-05
2.90318e-05
2.80199e-05
2.81138e-05
2.90079e-05
2.90646e-05
2.91255e-05
2.93981e-05
2.94682e-05
2.82154e-05
2.79576e-05
2.94748e-05
2.92526e-05
2.87848e-05
2.79605e-05
2.94369e-05
2.9279e-05
2.83551e-05
2.87169e-05
2.9646e-05
2.92011e-05
2.96584e-05
2.93251e-05
2.83884e-05
1.90905e-05
1.90307e-05
2.86882e-05
2.88132e-05
2.44445e-05
2.71269e-05
2.87293e-05
2.72581e-05
2.84644e-05
2.89643e-05
2.87123e-05
2.45103e-05
2.70827e-05
2.89923e-05
2.73682e-05
2.89956e-05
2.86267e-05
2.8713e-05
2.83484e-05
2.8404e-05
2.80894e-05
2.8453e-05
2.85925e-05
2.92655e-05
2.93324e-05
2.51166e-05
2.78147e-05
2.74459e-05
2.91543e-05
2.92115e-05
2.87366e-05
2.88079e-05
2.84723e-05
2.84041e-05
2.84735e-05
2.86612e-05
2.86884e-05
2.87116e-05
2.88017e-05
2.47998e-05
2.77187e-05
2.90797e-05
2.76839e-05
2.90058e-05
2.80269e-05
2.87723e-05
2.94751e-05
2.9303e-05
2.79783e-05
2.9484e-05
2.93031e-05
2.84206e-05
2.89172e-05
2.95732e-05
2.94066e-05
2.83737e-05
2.96204e-05
2.94604e-05
2.22214e-05
2.92415e-05
2.92803e-05
2.89413e-05
2.22546e-05
2.93162e-05
2.92672e-05
2.87582e-05
2.22354e-05
2.92407e-05
2.89444e-05
2.88677e-05
2.22566e-05
2.93828e-05
2.92688e-05
2.86128e-05
2.21674e-05
2.93528e-05
2.91887e-05
2.89181e-05
2.2215e-05
2.94502e-05
2.90464e-05
2.86231e-05
2.22191e-05
2.92693e-05
2.92349e-05
2.89847e-05
2.22129e-05
2.92571e-05
2.92362e-05
2.86173e-05
2.22329e-05
2.93489e-05
2.93481e-05
2.8899e-05
2.2143e-05
2.92787e-05
2.92297e-05
2.86552e-05
2.22232e-05
2.92844e-05
2.93249e-05
2.88706e-05
2.22007e-05
2.93018e-05
2.92762e-05
2.85976e-05
2.21848e-05
2.93931e-05
2.92856e-05
2.88638e-05
2.2086e-05
2.93397e-05
2.91915e-05
2.87619e-05
2.21002e-05
2.94684e-05
2.92984e-05
2.85899e-05
2.20753e-05
2.92903e-05
2.92241e-05
2.86416e-05
2.20839e-05
2.94362e-05
2.92414e-05
2.87308e-05
2.8908e-05
2.92607e-05
2.89993e-05
2.90253e-05
2.87762e-05
2.88018e-05
2.929e-05
2.94328e-05
2.91148e-05
2.94672e-05
2.91965e-05
2.93078e-05
2.93174e-05
2.87232e-05
2.87415e-05
2.92502e-05
2.92478e-05
2.90973e-05
2.85765e-05
2.8908e-05
2.88881e-05
2.89593e-05
2.91816e-05
2.91132e-05
2.91596e-05
2.87756e-05
2.88414e-05
2.90467e-05
2.94837e-05
2.91197e-05
2.9352e-05
2.91654e-05
2.91073e-05
2.93244e-05
2.88883e-05
2.88101e-05
2.90742e-05
2.91426e-05
2.90245e-05
2.88657e-05
2.88499e-05
2.89573e-05
2.90999e-05
2.91205e-05
2.90298e-05
2.939e-05
2.89026e-05
2.89798e-05
2.93286e-05
2.92358e-05
2.90562e-05
2.95435e-05
2.91112e-05
2.93442e-05
2.90299e-05
2.8949e-05
2.91665e-05
2.89538e-05
2.92387e-05
2.90589e-05
2.8684e-05
2.89636e-05
2.88781e-05
2.91884e-05
2.94002e-05
2.90408e-05
2.93067e-05
2.8982e-05
2.86311e-05
2.92243e-05
2.95812e-05
2.91517e-05
2.93654e-05
2.91644e-05
2.9378e-05
2.92844e-05
2.91356e-05
2.8956e-05
2.90127e-05
2.92123e-05
2.92196e-05
2.88963e-05
2.88956e-05
2.89332e-05
2.92225e-05
2.93349e-05
2.91167e-05
2.91728e-05
2.88356e-05
2.89011e-05
2.90576e-05
2.95731e-05
2.93164e-05
2.95652e-05
2.9101e-05
2.94684e-05
2.91988e-05
2.89814e-05
2.91485e-05
2.9216e-05
2.91277e-05
2.91982e-05
2.87225e-05
2.87527e-05
2.89147e-05
2.91923e-05
2.93422e-05
2.90308e-05
2.93875e-05
2.88794e-05
2.88084e-05
2.90932e-05
2.94132e-05
2.91197e-05
2.9677e-05
2.94321e-05
2.94115e-05
2.93341e-05
2.90284e-05
2.91577e-05
2.91677e-05
2.92415e-05
2.92364e-05
2.87764e-05
2.89514e-05
2.87007e-05
2.92011e-05
2.92559e-05
2.90836e-05
2.94092e-05
2.88101e-05
2.90547e-05
2.93356e-05
2.96387e-05
2.91173e-05
2.96094e-05
2.92527e-05
2.94865e-05
2.94322e-05
2.92228e-05
2.90026e-05
2.91533e-05
2.90537e-05
2.92703e-05
2.86959e-05
2.89349e-05
2.89145e-05
2.92979e-05
2.9302e-05
2.92725e-05
2.94815e-05
2.90584e-05
2.90848e-05
2.93582e-05
2.96726e-05
2.94047e-05
2.96689e-05
2.94843e-05
2.94781e-05
2.94847e-05
2.91812e-05
2.90932e-05
2.92809e-05
2.93193e-05
2.92843e-05
2.88997e-05
2.89544e-05
2.89447e-05
2.93206e-05
2.94328e-05
2.93834e-05
2.95521e-05
2.88805e-05
2.91387e-05
2.94293e-05
2.96849e-05
2.93188e-05
2.93452e-05
2.95012e-05
2.94031e-05
2.92292e-05
2.89678e-05
2.90915e-05
2.92455e-05
2.90879e-05
2.90381e-05
2.88797e-05
2.89674e-05
2.89372e-05
2.93507e-05
2.93967e-05
2.9402e-05
2.96156e-05
2.91125e-05
2.9034e-05
2.92432e-05
2.95215e-05
2.92388e-05
2.95833e-05
2.9421e-05
2.94166e-05
2.93179e-05
2.91577e-05
2.90839e-05
2.92279e-05
2.93449e-05
2.90512e-05
2.88827e-05
2.8866e-05
2.88495e-05
2.92915e-05
2.93557e-05
2.93489e-05
2.95141e-05
2.88302e-05
2.88079e-05
2.9281e-05
2.94863e-05
2.92491e-05
2.95119e-05
2.93841e-05
2.92643e-05
2.9163e-05
2.89007e-05
2.91802e-05
2.92349e-05
2.92277e-05
2.89563e-05
2.87844e-05
2.86183e-05
2.85801e-05
2.93518e-05
2.95241e-05
2.92962e-05
2.93774e-05
2.88594e-05
2.89574e-05
2.92826e-05
2.9635e-05
2.93122e-05
2.94539e-05
2.93087e-05
2.93388e-05
2.93199e-05
2.91401e-05
2.88796e-05
2.9122e-05
2.92527e-05
2.91886e-05
2.89168e-05
2.86385e-05
2.88041e-05
2.91094e-05
2.93935e-05
2.90311e-05
2.92663e-05
2.89036e-05
2.87996e-05
2.91102e-05
2.96533e-05
2.90108e-05
2.95277e-05
2.93144e-05
2.93864e-05
2.94189e-05
2.90115e-05
2.89653e-05
2.90838e-05
2.90448e-05
2.9067e-05
2.87491e-05
2.88206e-05
2.88107e-05
2.92565e-05
2.93276e-05
2.92845e-05
2.92453e-05
2.87362e-05
2.8945e-05
2.91808e-05
2.95674e-05
2.91323e-05
2.94041e-05
2.94206e-05
2.92586e-05
2.93951e-05
2.89775e-05
2.88909e-05
2.90524e-05
2.92621e-05
2.91183e-05
2.8763e-05
2.87787e-05
2.88103e-05
2.91332e-05
2.92737e-05
2.92467e-05
2.94594e-05
2.87799e-05
2.87479e-05
2.90826e-05
2.93524e-05
2.92312e-05
2.95601e-05
2.94069e-05
2.93398e-05
2.93701e-05
2.88618e-05
2.88765e-05
2.91331e-05
2.92461e-05
2.90004e-05
2.88277e-05
2.8617e-05
2.87084e-05
2.90682e-05
2.93431e-05
2.92286e-05
2.94708e-05
2.89337e-05
2.89296e-05
2.92705e-05
2.95973e-05
2.92494e-05
2.9335e-05
2.94104e-05
2.92269e-05
2.94072e-05
2.88182e-05
2.87563e-05
2.89985e-05
2.92277e-05
2.9124e-05
2.86943e-05
2.85872e-05
2.92296e-05
2.94228e-05
2.89687e-05
2.9273e-05
2.9554e-05
2.94276e-05
2.93707e-05
2.90007e-05
2.89884e-05
2.92401e-05
2.86272e-05
2.4219e-05
1.02609e-05
2.38533e-05
1.02473e-05
6.60489e-06
6.58504e-06
2.41672e-05
1.00005e-05
2.40652e-05
1.00083e-05
2.23402e-05
2.22075e-05
2.21432e-05
2.21917e-05
2.23213e-05
2.22016e-05
2.21091e-05
2.89467e-05
2.47647e-05
2.68615e-05
2.91284e-05
2.49324e-05
2.68727e-05
2.87846e-05
6.51495e-06
6.51614e-06
2.8644e-05
2.67888e-05
2.44931e-05
2.93009e-05
2.67322e-05
2.44088e-05
2.88377e-05
1.51941e-05
1.51877e-05
2.88591e-05
1.52364e-05
1.53203e-05
2.44026e-05
1.01758e-05
2.45337e-05
1.02405e-05
6.61451e-06
6.63579e-06
2.4081e-05
9.96014e-06
2.39904e-05
1.00219e-05
2.22555e-05
2.21759e-05
2.21869e-05
2.21857e-05
2.22462e-05
2.22344e-05
2.21994e-05
2.90556e-05
2.45526e-05
2.6876e-05
2.92902e-05
2.90017e-05
2.47247e-05
2.68932e-05
6.59407e-06
6.5816e-06
2.89183e-05
2.682e-05
2.48205e-05
2.90871e-05
2.89771e-05
2.68226e-05
2.50015e-05
1.52198e-05
1.53063e-05
2.86609e-05
1.52368e-05
1.53255e-05
2.44907e-05
1.02873e-05
2.43708e-05
1.02435e-05
6.63425e-06
6.66304e-06
2.40584e-05
1.00435e-05
2.41861e-05
1.00775e-05
2.23009e-05
2.22052e-05
2.21623e-05
2.22504e-05
2.22468e-05
2.22607e-05
2.21268e-05
2.90784e-05
2.48652e-05
2.68988e-05
2.9285e-05
2.90432e-05
2.45339e-05
2.68073e-05
6.6557e-06
6.63948e-06
2.8772e-05
2.66939e-05
2.49318e-05
2.91216e-05
2.87408e-05
2.66674e-05
2.47528e-05
1.52048e-05
1.52942e-05
2.88195e-05
1.50346e-05
1.53975e-05
2.45488e-05
1.02777e-05
2.43995e-05
1.03088e-05
6.65338e-06
6.67834e-06
2.40768e-05
1.01164e-05
2.3889e-05
1.01461e-05
2.23134e-05
2.22012e-05
2.21343e-05
2.22188e-05
2.22935e-05
2.22613e-05
2.21814e-05
2.92201e-05
2.46539e-05
2.69345e-05
2.94102e-05
2.92226e-05
2.48922e-05
2.68996e-05
6.67137e-06
6.67144e-06
2.84703e-05
2.67421e-05
2.48722e-05
2.91914e-05
2.84767e-05
2.66656e-05
2.50172e-05
1.51176e-05
1.53665e-05
2.85718e-05
1.51965e-05
1.53706e-05
2.46233e-05
1.02484e-05
2.45232e-05
1.02891e-05
6.67967e-06
6.69213e-06
2.4289e-05
1.01131e-05
2.4145e-05
1.00352e-05
2.23018e-05
2.22235e-05
2.21093e-05
2.22284e-05
2.22938e-05
2.22529e-05
2.21823e-05
2.89891e-05
2.49889e-05
2.69938e-05
2.9411e-05
2.92006e-05
2.50606e-05
2.70056e-05
6.65301e-06
6.63788e-06
2.8693e-05
2.67656e-05
2.50302e-05
2.92498e-05
2.84877e-05
2.67857e-05
2.49551e-05
1.52015e-05
1.52112e-05
2.86957e-05
1.52057e-05
1.53172e-05
2.48999e-05
1.0328e-05
2.48304e-05
1.03589e-05
6.69948e-06
6.65986e-06
2.43967e-05
1.01109e-05
2.41114e-05
1.01299e-05
2.23122e-05
2.22518e-05
2.21845e-05
2.2145e-05
2.23292e-05
2.2222e-05
2.21882e-05
2.94197e-05
2.51312e-05
2.70127e-05
2.92444e-05
2.94766e-05
2.46671e-05
2.70231e-05
6.68562e-06
6.63022e-06
2.85249e-05
2.6823e-05
2.51314e-05
2.92138e-05
2.88561e-05
2.67692e-05
2.51227e-05
1.53058e-05
1.53853e-05
2.87848e-05
1.50968e-05
1.53051e-05
2.52989e-05
1.03467e-05
2.51702e-05
1.03153e-05
6.63339e-06
6.64144e-06
2.42996e-05
1.00563e-05
2.45068e-05
1.01205e-05
2.23311e-05
2.2292e-05
2.22004e-05
2.22055e-05
2.22549e-05
2.22416e-05
2.22265e-05
2.92802e-05
2.49311e-05
2.70265e-05
2.928e-05
2.9516e-05
2.49106e-05
2.70105e-05
6.61051e-06
6.56773e-06
2.87377e-05
2.67984e-05
2.50819e-05
2.90656e-05
2.874e-05
2.67779e-05
2.50563e-05
1.53086e-05
1.52753e-05
2.90529e-05
1.51931e-05
1.52429e-05
2.50787e-05
1.02922e-05
2.53162e-05
1.02758e-05
6.64988e-06
6.61828e-06
2.44846e-05
1.01741e-05
2.45461e-05
1.00691e-05
2.23277e-05
2.22686e-05
2.22318e-05
2.22254e-05
2.22598e-05
2.22233e-05
2.22428e-05
2.90453e-05
2.50037e-05
2.70118e-05
2.9414e-05
2.93967e-05
2.47219e-05
2.70332e-05
6.55764e-06
6.50174e-06
2.86378e-05
2.67943e-05
2.4881e-05
2.92575e-05
2.88694e-05
2.68058e-05
2.49939e-05
1.51204e-05
1.52737e-05
2.88363e-05
1.52295e-05
1.52522e-05
2.50757e-05
1.02893e-05
2.50521e-05
1.02781e-05
6.61151e-06
6.61394e-06
2.44071e-05
1.01289e-05
2.43767e-05
1.01413e-05
2.23245e-05
2.23014e-05
2.22314e-05
2.22165e-05
2.23403e-05
2.22385e-05
2.21476e-05
2.91453e-05
2.48127e-05
2.71024e-05
2.94044e-05
2.89162e-05
2.48175e-05
2.70732e-05
6.53747e-06
6.52643e-06
2.89285e-05
2.67606e-05
2.50642e-05
2.93723e-05
2.88568e-05
2.67119e-05
2.50171e-05
1.52046e-05
1.52158e-05
2.89275e-05
1.51843e-05
1.51673e-05
2.50411e-05
1.01305e-05
2.47858e-05
1.02297e-05
6.63044e-06
6.60656e-06
2.39623e-05
1.01162e-05
2.4151e-05
1.00473e-05
2.23374e-05
2.22443e-05
2.22301e-05
2.21601e-05
2.23254e-05
2.22316e-05
2.22449e-05
2.931e-05
2.49363e-05
2.70026e-05
2.92037e-05
2.9256e-05
2.48599e-05
2.6999e-05
6.5382e-06
6.51719e-06
2.89233e-05
2.67112e-05
2.50453e-05
2.91792e-05
2.88891e-05
2.67723e-05
2.50281e-05
1.50658e-05
1.51925e-05
2.86103e-05
1.51242e-05
1.51661e-05
2.50474e-05
1.01967e-05
2.4993e-05
1.02188e-05
6.5896e-06
6.57676e-06
2.42695e-05
1.00717e-05
2.43909e-05
1.00607e-05
2.23297e-05
2.22533e-05
2.22251e-05
2.2198e-05
2.22873e-05
2.21806e-05
2.21923e-05
2.8875e-05
2.46995e-05
2.69988e-05
2.9297e-05
2.91417e-05
2.47275e-05
2.68771e-05
6.53794e-06
6.54752e-06
2.8854e-05
2.68279e-05
2.48573e-05
2.93294e-05
2.89768e-05
2.6762e-05
2.48366e-05
1.51125e-05
1.52418e-05
2.88005e-05
1.51809e-05
1.51436e-05
2.47958e-05
1.01937e-05
2.50541e-05
1.01411e-05
6.58853e-06
6.57752e-06
2.43664e-05
1.00536e-05
2.41655e-05
9.93691e-06
2.22912e-05
2.21864e-05
2.21246e-05
2.21253e-05
2.22906e-05
2.2267e-05
2.21889e-05
2.91621e-05
2.48628e-05
2.69542e-05
2.93268e-05
2.89683e-05
2.4791e-05
2.69301e-05
6.53816e-06
6.50417e-06
2.89774e-05
2.67512e-05
2.49438e-05
2.92686e-05
2.8918e-05
2.67156e-05
2.46664e-05
1.52094e-05
1.51146e-05
2.85911e-05
1.52263e-05
1.52633e-05
2.4889e-05
1.02478e-05
2.4788e-05
1.01958e-05
6.55454e-06
6.58069e-06
2.43824e-05
1.00078e-05
2.43913e-05
1.00617e-05
2.2297e-05
2.22585e-05
2.21195e-05
2.21514e-05
2.22381e-05
2.22463e-05
2.21165e-05
2.9322e-05
2.45863e-05
2.7075e-05
2.93538e-05
2.92461e-05
2.43519e-05
2.70464e-05
6.49814e-06
6.44028e-06
2.87198e-05
2.67192e-05
2.49724e-05
2.92476e-05
2.90903e-05
2.68315e-05
2.49832e-05
1.52042e-05
1.51751e-05
2.88285e-05
1.5229e-05
1.51663e-05
2.47796e-05
1.02065e-05
2.49558e-05
1.02187e-05
6.55861e-06
6.57063e-06
2.43889e-05
1.00339e-05
2.43459e-05
9.99973e-06
2.22587e-05
2.22603e-05
2.21928e-05
2.21031e-05
2.21958e-05
2.22504e-05
2.21119e-05
2.89777e-05
2.49206e-05
2.70325e-05
2.93664e-05
2.92675e-05
2.47197e-05
2.70657e-05
6.45948e-06
6.49361e-06
2.91109e-05
2.68092e-05
2.47632e-05
2.92533e-05
2.91342e-05
2.68308e-05
2.47424e-05
1.51099e-05
1.51489e-05
2.8817e-05
1.52186e-05
1.52589e-05
2.46973e-05
1.01689e-05
2.45759e-05
1.01446e-05
6.56826e-06
6.55717e-06
2.44286e-05
1.00249e-05
2.43015e-05
1.00042e-05
2.22793e-05
2.22538e-05
2.21597e-05
2.20788e-05
2.2311e-05
2.21822e-05
2.2152e-05
2.9061e-05
2.46635e-05
2.70796e-05
2.94483e-05
2.92408e-05
2.45416e-05
2.69752e-05
6.5152e-06
6.5196e-06
2.86312e-05
2.67682e-05
2.49413e-05
2.92761e-05
2.90821e-05
2.67723e-05
2.49788e-05
1.50985e-05
1.51286e-05
2.86766e-05
1.51877e-05
1.51961e-05
2.45839e-05
1.01273e-05
2.48267e-05
1.00488e-05
6.54218e-06
6.53508e-06
2.45038e-05
1.00094e-05
2.43442e-05
1.00405e-05
2.23146e-05
2.22311e-05
2.2178e-05
2.20156e-05
2.22921e-05
2.21549e-05
2.2192e-05
2.90309e-05
2.48722e-05
2.71006e-05
2.92525e-05
2.92042e-05
2.48132e-05
2.70929e-05
6.53032e-06
6.51955e-06
2.9102e-05
2.6778e-05
2.50024e-05
2.92053e-05
2.8734e-05
2.68835e-05
2.46398e-05
1.5138e-05
1.50679e-05
2.87781e-05
1.51243e-05
1.51517e-05
2.50236e-05
1.0035e-05
2.48234e-05
1.0128e-05
6.56406e-06
6.55662e-06
2.4459e-05
1.00631e-05
2.42808e-05
1.00409e-05
2.22415e-05
2.21789e-05
2.21977e-05
2.22102e-05
2.92213e-05
2.49629e-05
2.70688e-05
2.92268e-05
2.92791e-05
2.48692e-05
2.70825e-05
6.56603e-06
6.51504e-06
2.88514e-05
2.68813e-05
2.48242e-05
2.91999e-05
2.91079e-05
2.68445e-05
2.48529e-05
1.51852e-05
1.50642e-05
2.88144e-05
1.52195e-05
1.51676e-05
2.43618e-05
1.04271e-05
1.0402e-05
2.38759e-05
2.81711e-05
2.44785e-05
2.6533e-05
2.91049e-05
2.65456e-05
2.84699e-05
2.43493e-05
2.86584e-05
2.52176e-05
2.65845e-05
2.92714e-05
2.53275e-05
2.6621e-05
2.82296e-05
2.43482e-05
1.02559e-05
2.45281e-05
1.02926e-05
2.43464e-05
1.04143e-05
1.03617e-05
2.46044e-05
2.85122e-05
2.90881e-05
2.452e-05
2.65402e-05
2.65126e-05
2.81413e-05
2.47544e-05
2.85177e-05
2.92831e-05
2.52938e-05
2.66508e-05
2.52821e-05
2.66188e-05
2.83455e-05
1.571e-05
1.51877e-05
2.87125e-05
1.54803e-05
1.53588e-05
6.45671e-06
6.47382e-06
6.57747e-06
6.5731e-06
2.88145e-05
1.5612e-05
1.54398e-05
1.53978e-05
1.53439e-05
6.469e-06
6.48848e-06
2.85361e-05
2.47305e-05
2.68114e-05
2.93123e-05
2.68177e-05
2.87777e-05
2.4714e-05
2.42525e-05
1.02216e-05
1.02247e-05
2.43012e-05
2.8788e-05
2.68165e-05
2.50759e-05
2.92957e-05
2.68204e-05
2.51469e-05
2.85151e-05
2.38551e-05
9.96702e-06
2.36728e-05
1.00725e-05
2.88131e-05
2.92606e-05
2.45841e-05
2.67922e-05
2.67743e-05
2.83239e-05
2.47856e-05
2.42746e-05
1.02846e-05
1.0188e-05
2.42356e-05
2.85716e-05
2.95016e-05
2.68853e-05
2.52003e-05
2.68621e-05
2.51385e-05
2.85371e-05
2.41902e-05
1.01491e-05
1.01197e-05
2.43578e-05
2.89739e-05
2.67721e-05
2.4683e-05
2.90946e-05
2.67094e-05
2.4666e-05
2.88901e-05
2.45625e-05
1.01729e-05
1.00965e-05
2.43496e-05
2.90149e-05
2.93512e-05
2.47845e-05
2.68993e-05
2.48621e-05
2.67765e-05
2.86832e-05
2.4195e-05
1.0173e-05
1.02e-05
2.43116e-05
2.88139e-05
2.93253e-05
2.67069e-05
2.44883e-05
2.67348e-05
2.47606e-05
2.88764e-05
2.47063e-05
1.01459e-05
1.01483e-05
2.45331e-05
1.55398e-05
1.53728e-05
2.89692e-05
1.55678e-05
1.53108e-05
6.44396e-06
6.45311e-06
6.57203e-06
6.54819e-06
2.886e-05
1.56574e-05
1.5514e-05
1.56176e-05
1.53943e-05
6.52352e-06
6.44615e-06
2.87325e-05
2.6716e-05
2.48751e-05
2.89656e-05
2.66865e-05
2.50011e-05
2.87822e-05
2.48003e-05
1.02171e-05
1.0213e-05
2.45323e-05
2.4808e-05
1.02905e-05
1.03911e-05
2.48808e-05
2.85682e-05
2.92805e-05
2.68121e-05
2.48175e-05
2.66929e-05
2.49089e-05
2.89928e-05
2.87512e-05
2.9082e-05
2.68148e-05
2.5041e-05
2.67949e-05
2.48776e-05
2.861e-05
2.45526e-05
1.02074e-05
1.02576e-05
2.48439e-05
2.45609e-05
1.03979e-05
1.04397e-05
2.45701e-05
6.42432e-06
6.42407e-06
6.44457e-06
6.48634e-06
2.88086e-05
1.5261e-05
1.53423e-05
1.53177e-05
1.53124e-05
6.43993e-06
6.44072e-06
6.50657e-06
6.48414e-06
6.48746e-06
6.48921e-06
6.44782e-06
6.43775e-06
1.55017e-05
1.53938e-05
2.88813e-05
1.54003e-05
1.531e-05
6.53951e-06
6.53026e-06
6.45522e-06
6.4573e-06
2.88954e-05
1.55688e-05
1.5227e-05
1.55625e-05
1.53707e-05
2.4554e-05
1.04872e-05
2.44604e-05
1.04918e-05
2.84104e-05
2.46129e-05
2.65157e-05
2.91984e-05
2.8538e-05
2.48676e-05
2.66392e-05
2.83908e-05
2.5124e-05
2.66716e-05
2.91162e-05
2.86981e-05
2.51809e-05
2.65804e-05
2.44764e-05
1.02999e-05
1.02955e-05
2.44109e-05
2.42955e-05
1.05268e-05
1.05099e-05
2.45034e-05
2.83364e-05
2.92278e-05
2.50287e-05
2.66532e-05
2.49901e-05
2.66466e-05
2.83721e-05
2.82963e-05
2.91158e-05
2.52193e-05
2.65848e-05
2.53773e-05
2.66892e-05
2.87381e-05
1.56014e-05
1.54401e-05
2.87211e-05
1.57265e-05
1.53919e-05
6.47672e-06
6.47384e-06
6.65698e-06
6.64757e-06
2.8759e-05
1.5741e-05
1.54028e-05
1.57779e-05
1.53063e-05
6.48356e-06
6.45423e-06
2.86844e-05
2.44939e-05
2.67353e-05
2.92653e-05
2.86325e-05
2.47646e-05
2.66704e-05
2.43948e-05
1.03321e-05
2.42193e-05
1.03127e-05
2.84835e-05
2.69075e-05
2.52012e-05
2.9551e-05
2.83802e-05
2.6917e-05
2.49273e-05
2.39203e-05
1.00548e-05
1.00909e-05
2.42278e-05
2.85503e-05
2.92471e-05
2.45299e-05
2.67745e-05
2.47204e-05
2.67171e-05
2.85871e-05
2.45146e-05
1.03871e-05
1.03931e-05
2.45487e-05
2.88606e-05
2.94698e-05
2.69364e-05
2.52554e-05
2.68188e-05
2.53416e-05
2.85347e-05
2.4705e-05
1.01109e-05
2.4711e-05
1.01267e-05
2.85144e-05
2.68394e-05
2.45939e-05
2.91561e-05
2.89363e-05
2.67979e-05
2.4429e-05
2.4651e-05
1.02098e-05
2.47106e-05
1.01399e-05
2.89547e-05
2.93368e-05
2.48573e-05
2.69157e-05
2.48334e-05
2.6886e-05
2.90274e-05
2.45468e-05
1.01621e-05
1.01761e-05
2.44722e-05
2.88129e-05
2.90964e-05
2.68928e-05
2.48615e-05
2.6756e-05
2.48754e-05
2.88962e-05
2.46547e-05
1.01751e-05
1.01218e-05
2.47362e-05
1.56951e-05
1.56101e-05
2.89168e-05
1.55536e-05
1.56453e-05
6.52466e-06
6.55433e-06
6.63643e-06
6.59204e-06
2.89793e-05
1.57564e-05
1.55708e-05
1.56836e-05
1.55281e-05
6.54846e-06
6.51517e-06
2.89338e-05
2.67956e-05
2.48026e-05
2.8972e-05
2.88779e-05
2.68032e-05
2.49153e-05
2.48644e-05
1.02856e-05
2.48044e-05
1.02597e-05
2.45537e-05
1.04059e-05
2.49301e-05
1.03376e-05
2.89362e-05
2.92787e-05
2.67043e-05
2.49436e-05
2.67907e-05
2.49415e-05
2.88139e-05
2.88505e-05
2.91876e-05
2.68089e-05
2.51915e-05
2.67899e-05
2.5235e-05
2.88478e-05
2.47964e-05
1.03144e-05
1.01931e-05
2.46116e-05
2.43495e-05
1.03637e-05
1.04366e-05
2.48752e-05
6.41593e-06
6.4179e-06
6.48124e-06
6.4783e-06
2.85903e-05
1.52522e-05
1.54476e-05
1.52661e-05
1.54783e-05
6.44187e-06
6.43147e-06
6.53452e-06
6.50189e-06
6.53833e-06
6.53374e-06
6.44264e-06
6.46286e-06
1.54581e-05
1.53757e-05
2.87246e-05
1.54731e-05
1.53358e-05
6.53327e-06
6.54233e-06
6.471e-06
6.47078e-06
2.86539e-05
1.55629e-05
1.5251e-05
1.55827e-05
1.52857e-05
2.47871e-05
1.04729e-05
2.46743e-05
1.04876e-05
2.85729e-05
2.50293e-05
2.66597e-05
2.90354e-05
2.86076e-05
2.47675e-05
2.66114e-05
2.84961e-05
2.51744e-05
2.66881e-05
2.93594e-05
2.88081e-05
2.54773e-05
2.66968e-05
2.45285e-05
1.03046e-05
1.02984e-05
2.45512e-05
2.44967e-05
1.04591e-05
1.05061e-05
2.46666e-05
2.84561e-05
2.92519e-05
2.47041e-05
2.65923e-05
2.50756e-05
2.66194e-05
2.88072e-05
2.88332e-05
2.93752e-05
2.50638e-05
2.67392e-05
2.52225e-05
2.67019e-05
2.88621e-05
1.58287e-05
1.54375e-05
2.87995e-05
1.58075e-05
1.53884e-05
6.49324e-06
6.46639e-06
6.66945e-06
6.66767e-06
2.87004e-05
1.58179e-05
1.54376e-05
1.58141e-05
1.53447e-05
6.51369e-06
6.49006e-06
2.8708e-05
2.44884e-05
2.67951e-05
2.92816e-05
2.86765e-05
2.46982e-05
2.6844e-05
2.46067e-05
1.04167e-05
2.46489e-05
1.03962e-05
2.86028e-05
2.69434e-05
2.53526e-05
2.94643e-05
2.84793e-05
2.69612e-05
2.5133e-05
2.38024e-05
1.00617e-05
1.01087e-05
2.42006e-05
2.86377e-05
2.90993e-05
2.47785e-05
2.68348e-05
2.47252e-05
2.67467e-05
2.87186e-05
2.46595e-05
1.04166e-05
1.0422e-05
2.4338e-05
2.87425e-05
2.94778e-05
2.69504e-05
2.48101e-05
2.69532e-05
2.48203e-05
2.84002e-05
2.48277e-05
1.01417e-05
2.48743e-05
1.01817e-05
2.90273e-05
2.69051e-05
2.46665e-05
2.92314e-05
2.90433e-05
2.69139e-05
2.48358e-05
2.47177e-05
1.01949e-05
2.48158e-05
1.01893e-05
2.91429e-05
2.92756e-05
2.46119e-05
2.69422e-05
2.45941e-05
2.69339e-05
2.91535e-05
2.48531e-05
1.02059e-05
1.01733e-05
2.48291e-05
2.90804e-05
2.9085e-05
2.69208e-05
2.45439e-05
2.69146e-05
2.45934e-05
2.89068e-05
2.43851e-05
1.01083e-05
1.02185e-05
2.47804e-05
1.58382e-05
1.55988e-05
2.88869e-05
1.56744e-05
1.54826e-05
6.54732e-06
6.52264e-06
6.66155e-06
6.65214e-06
2.90485e-05
1.5777e-05
1.56289e-05
1.57048e-05
1.55469e-05
6.56226e-06
6.52812e-06
2.89162e-05
2.67221e-05
2.51562e-05
2.90648e-05
2.88184e-05
2.68184e-05
2.5156e-05
2.46616e-05
1.03623e-05
2.49014e-05
1.02133e-05
2.47101e-05
1.03983e-05
2.49076e-05
1.03978e-05
2.88144e-05
2.91971e-05
2.66889e-05
2.4976e-05
2.67863e-05
2.50179e-05
2.88356e-05
2.89476e-05
2.90376e-05
2.68033e-05
2.50362e-05
2.68303e-05
2.51556e-05
2.87339e-05
2.47166e-05
1.02728e-05
1.03044e-05
2.45939e-05
2.45609e-05
1.04044e-05
1.03872e-05
2.46332e-05
6.43035e-06
6.41016e-06
6.50746e-06
6.51936e-06
2.88401e-05
1.49929e-05
1.53452e-05
1.51708e-05
1.54622e-05
6.41148e-06
6.42188e-06
6.51824e-06
6.51584e-06
6.54276e-06
6.56194e-06
6.48435e-06
6.49262e-06
1.5566e-05
1.54432e-05
2.89841e-05
1.55949e-05
1.5391e-05
6.56873e-06
6.55573e-06
6.46161e-06
6.48544e-06
2.89808e-05
1.56147e-05
1.53641e-05
1.54902e-05
1.54681e-05
2.46389e-05
1.04996e-05
2.48176e-05
1.05454e-05
2.88213e-05
2.51044e-05
2.66995e-05
2.92452e-05
2.85418e-05
2.51033e-05
2.67212e-05
2.88242e-05
2.51445e-05
2.67588e-05
2.94207e-05
2.88485e-05
2.5177e-05
2.66771e-05
2.48032e-05
1.02859e-05
1.03247e-05
2.434e-05
2.50527e-05
1.05822e-05
1.05951e-05
2.49668e-05
2.88453e-05
2.92334e-05
2.47557e-05
2.67114e-05
2.50316e-05
2.67029e-05
2.87206e-05
2.85441e-05
2.93612e-05
2.52471e-05
2.67974e-05
2.52094e-05
2.67887e-05
2.88806e-05
1.58742e-05
1.55026e-05
2.88323e-05
1.58511e-05
1.5482e-05
6.54042e-06
6.5354e-06
6.70309e-06
6.70029e-06
2.86928e-05
1.58346e-05
1.54737e-05
1.58937e-05
1.53861e-05
6.52492e-06
6.53796e-06
2.8778e-05
2.4801e-05
2.68637e-05
2.92602e-05
2.87602e-05
2.4977e-05
2.67551e-05
2.39685e-05
1.04886e-05
2.42815e-05
1.03905e-05
2.85721e-05
2.69307e-05
2.51681e-05
2.96184e-05
2.86867e-05
2.69221e-05
2.51484e-05
2.4256e-05
1.00985e-05
1.0218e-05
2.44027e-05
2.88187e-05
2.92901e-05
2.49422e-05
2.68188e-05
2.49841e-05
2.68518e-05
2.8441e-05
2.44409e-05
1.04673e-05
1.04046e-05
2.44932e-05
2.89234e-05
2.95706e-05
2.68427e-05
2.5208e-05
2.6911e-05
2.50525e-05
2.88954e-05
2.48653e-05
1.02826e-05
2.4975e-05
1.02675e-05
2.92376e-05
2.69261e-05
2.49167e-05
2.92542e-05
2.89691e-05
2.68618e-05
2.49139e-05
2.47793e-05
1.02325e-05
2.49074e-05
1.02102e-05
2.91602e-05
2.93631e-05
2.50238e-05
2.69867e-05
2.47459e-05
2.68527e-05
2.91783e-05
2.48593e-05
1.02055e-05
1.02945e-05
2.46553e-05
2.92638e-05
2.92448e-05
2.69473e-05
2.47953e-05
2.68099e-05
2.4971e-05
2.93311e-05
2.49151e-05
1.01896e-05
1.02796e-05
2.48189e-05
1.57209e-05
1.56378e-05
2.91196e-05
1.58055e-05
1.56216e-05
6.54098e-06
6.56858e-06
6.6524e-06
6.68417e-06
2.89749e-05
1.57692e-05
1.55679e-05
1.58693e-05
1.55655e-05
6.54724e-06
6.56671e-06
2.8652e-05
2.67022e-05
2.51361e-05
2.92414e-05
2.85616e-05
2.68061e-05
2.50596e-05
2.43931e-05
1.0307e-05
2.4311e-05
1.02842e-05
2.47548e-05
1.04441e-05
2.44316e-05
1.03722e-05
2.85943e-05
2.92238e-05
2.66407e-05
2.50341e-05
2.6668e-05
2.47735e-05
2.8596e-05
2.8716e-05
2.92665e-05
2.6686e-05
2.50536e-05
2.67812e-05
2.48046e-05
2.89012e-05
2.48026e-05
1.02663e-05
1.02353e-05
2.47836e-05
2.47267e-05
1.02896e-05
1.03707e-05
2.46079e-05
6.41852e-06
6.42032e-06
6.53422e-06
6.51711e-06
2.8755e-05
1.53036e-05
1.53209e-05
1.5253e-05
1.54317e-05
6.4537e-06
6.43733e-06
6.49823e-06
6.49527e-06
6.54317e-06
6.56047e-06
6.49187e-06
6.47251e-06
1.56219e-05
1.53186e-05
2.87471e-05
1.55626e-05
1.53332e-05
6.59523e-06
6.55682e-06
6.46225e-06
6.4827e-06
2.87438e-05
1.57539e-05
1.51549e-05
1.5583e-05
1.53853e-05
2.49687e-05
1.06333e-05
2.46397e-05
1.05655e-05
2.86861e-05
2.48849e-05
2.66267e-05
2.91413e-05
2.84868e-05
2.49876e-05
2.66556e-05
2.8659e-05
2.53878e-05
2.67397e-05
2.93829e-05
2.88666e-05
2.53129e-05
2.6686e-05
2.46308e-05
1.02747e-05
1.02993e-05
2.48505e-05
2.50353e-05
1.05861e-05
1.05681e-05
2.50071e-05
2.85371e-05
2.89437e-05
2.48829e-05
2.66735e-05
2.47912e-05
2.65748e-05
2.87571e-05
2.88681e-05
2.93666e-05
2.54379e-05
2.68155e-05
2.53737e-05
2.68026e-05
2.88479e-05
1.5838e-05
1.5533e-05
2.8824e-05
1.58178e-05
1.53547e-05
6.53933e-06
6.49111e-06
6.68273e-06
6.69164e-06
2.88911e-05
1.57882e-05
1.545e-05
1.57333e-05
1.55005e-05
6.52514e-06
6.53082e-06
2.88578e-05
2.4947e-05
2.67831e-05
2.9247e-05
2.87952e-05
2.48897e-05
2.69132e-05
2.43877e-05
1.05054e-05
2.44601e-05
1.03961e-05
2.9021e-05
2.69762e-05
2.50315e-05
2.94117e-05
2.89037e-05
2.69856e-05
2.50662e-05
2.4158e-05
1.01184e-05
1.01278e-05
2.44174e-05
2.86052e-05
2.91048e-05
2.45923e-05
2.69309e-05
2.45307e-05
2.69234e-05
2.86737e-05
2.44656e-05
1.03891e-05
1.0465e-05
2.47178e-05
2.90871e-05
2.95129e-05
2.69913e-05
2.51317e-05
2.69972e-05
2.5401e-05
2.89566e-05
2.46973e-05
1.02822e-05
2.477e-05
1.0234e-05
2.93158e-05
2.69151e-05
2.46142e-05
2.92906e-05
2.91426e-05
2.69352e-05
2.46714e-05
2.49766e-05
1.02647e-05
2.49709e-05
1.01383e-05
2.93747e-05
2.94428e-05
2.51241e-05
2.70143e-05
2.5072e-05
2.70112e-05
2.94598e-05
2.47484e-05
1.02279e-05
1.02295e-05
2.44046e-05
2.92918e-05
2.92581e-05
2.68624e-05
2.49578e-05
2.6902e-05
2.49638e-05
2.94571e-05
2.4997e-05
1.01013e-05
1.02307e-05
2.49999e-05
1.56979e-05
1.55469e-05
2.89578e-05
1.56736e-05
1.56085e-05
6.56892e-06
6.55359e-06
6.66918e-06
6.69315e-06
2.9124e-05
1.56798e-05
1.57182e-05
1.59252e-05
1.56551e-05
6.58321e-06
6.55434e-06
2.88772e-05
2.68015e-05
2.50132e-05
2.91553e-05
2.88883e-05
2.68078e-05
2.4911e-05
2.49184e-05
1.02386e-05
2.44711e-05
1.02377e-05
2.47577e-05
1.03079e-05
2.43869e-05
1.03112e-05
2.87975e-05
2.92516e-05
2.68138e-05
2.51327e-05
2.68059e-05
2.47904e-05
2.88356e-05
2.88977e-05
2.90009e-05
2.68172e-05
2.49235e-05
2.67152e-05
2.50504e-05
2.89097e-05
2.49709e-05
1.03039e-05
1.02754e-05
2.4974e-05
2.49035e-05
1.02419e-05
1.03018e-05
2.48997e-05
6.44771e-06
6.43837e-06
6.49076e-06
6.48833e-06
2.88889e-05
1.52983e-05
1.54089e-05
1.52487e-05
1.52568e-05
6.44172e-06
6.44164e-06
6.4908e-06
6.48509e-06
6.61489e-06
6.60285e-06
6.467e-06
6.44862e-06
1.58065e-05
1.53248e-05
2.89982e-05
1.57797e-05
1.51943e-05
6.59372e-06
6.58705e-06
6.45099e-06
6.46472e-06
2.89196e-05
1.55721e-05
1.52213e-05
1.56906e-05
1.51956e-05
2.52187e-05
1.06189e-05
2.49367e-05
1.04711e-05
2.90744e-05
2.51781e-05
2.66859e-05
2.92274e-05
2.88333e-05
2.52527e-05
2.66891e-05
2.92851e-05
2.54719e-05
2.6743e-05
2.94119e-05
2.88029e-05
2.53156e-05
2.68542e-05
2.49664e-05
1.03625e-05