/*--------------------------------*- C++ -*----------------------------------*\
| =========                 |                                                 |
| \\      /  F ield         | OpenFOAM: The Open Source CFD Toolbox           |
|  \\    /   O peration     | Version:  2206                                  |
|   \\  /    A nd           | Website:  www.openfoam.com                      |
|    \\/     M anipulation  |                                                 |
\*---------------------------------------------------------------------------*/
FoamFile
{
    version     2.0;
    format      ascii;
    arch        "LSB;label=32;scalar=64";
    class       volScalarField;
    location    "60";
    object      nut;
}
// * * * * * * * * * * * * * * * * * * * * * * * * * * * * * * * * * * * * * //

dimensions      [0 2 -1 0 0 0 0];

internalField   nonuniform List<scalar> 
66928
(
7.38352e-07
7.93483e-07
7.84962e-07
7.87569e-07
7.4492e-07
8.0315e-07
7.5838e-07
7.42658e-07
1.2585e-06
1.24943e-06
1.55551e-08
1.53742e-08
8.26212e-08
8.15695e-08
3.49093e-08
1.57427e-07
3.39384e-08
1.42812e-07
1.55176e-07
9.76628e-07
3.545e-07
3.47227e-08
1.41918e-07
9.7809e-07
1.58283e-07
3.56023e-07
1.56746e-08
8.32166e-08
8.34251e-08
1.5592e-08
1.59884e-07
3.47829e-08
1.55808e-08
1.56594e-08
1.54049e-08
1.54722e-08
8.21923e-08
8.04216e-08
7.38278e-07
8.36093e-08
8.20735e-08
1.57147e-08
1.57072e-08
1.55353e-08
1.54881e-08
7.55488e-07
8.31471e-08
8.28251e-08
8.31213e-08
8.18857e-08
1.55854e-08
1.27883e-07
2.37761e-07
8.17555e-08
3.25808e-08
3.25029e-08
2.37348e-07
1.27838e-07
1.28432e-07
2.35914e-07
8.15619e-08
3.18626e-08
3.22417e-08
2.36204e-07
1.28706e-07
5.07653e-08
1.34806e-08
1.34197e-08
1.34723e-08
1.33968e-08
5.06003e-08
3.54108e-08
7.55809e-08
7.49837e-08
1.37046e-08
7.30966e-08
1.33783e-08
1.1867e-07
2.63914e-08
2.2438e-08
7.56408e-08
1.37669e-08
2.66112e-08
1.21119e-07
2.2859e-08
1.29953e-07
2.3445e-07
8.26568e-08
3.2717e-08
2.33267e-07
3.28352e-08
1.30594e-07
1.29918e-07
2.37761e-07
8.31069e-08
3.34058e-08
3.35124e-08
2.40552e-07
1.32109e-07
5.23255e-08
1.37762e-08
1.38246e-08
1.36694e-08
1.38119e-08
5.31855e-08
1.55731e-08
3.50094e-08
7.65281e-08
7.64021e-08
1.38368e-08
1.56193e-08
1.56707e-08
1.5431e-08
1.54982e-08
5.02627e-08
1.36865e-08
1.35853e-08
1.36739e-08
1.35248e-08
5.18601e-08
1.29932e-07
2.39519e-07
3.32323e-08
8.28046e-08
1.2759e-07
3.27045e-08
2.40155e-07
1.29279e-07
2.36113e-07
3.26155e-08
8.167e-08
1.28795e-07
3.23812e-08
2.33651e-07
5.05095e-08
1.34998e-08
1.34655e-08
5.157e-08
1.35677e-08
1.35639e-08
1.2977e-07
3.30053e-08
8.23684e-08
2.4091e-07
3.32272e-08
1.29596e-07
2.40419e-07
1.28672e-07
3.21017e-08
8.1659e-08
2.36908e-07
3.23919e-08
1.29798e-07
2.37093e-07
1.56699e-08
1.57013e-08
1.55603e-08
1.54645e-08
5.07647e-08
1.36617e-08
1.36252e-08
5.11511e-08
1.3669e-08
1.36446e-08
1.29966e-07
2.42083e-07
8.29269e-08
3.3158e-08
3.35164e-08
2.38897e-07
1.3138e-07
1.29678e-07
2.36899e-07
8.23505e-08
3.23308e-08
3.26742e-08
2.36986e-07
1.30645e-07
1.31861e-07
3.31828e-08
2.40976e-07
8.30569e-08
1.31373e-07
3.31744e-08
2.39193e-07
1.30279e-07
3.24249e-08
2.35962e-07
8.21989e-08
1.29538e-07
3.23199e-08
2.33111e-07
5.19543e-08
1.37843e-08
1.36546e-08
1.37847e-08
1.3639e-08
5.27898e-08
2.80265e-07
7.59565e-07
4.31244e-07
4.25976e-07
4.38504e-07
4.35607e-07
2.78669e-07
2.81066e-07
7.63702e-07
4.2415e-07
4.35803e-07
4.37014e-07
4.47275e-07
2.80936e-07
2.78055e-07
4.42725e-07
4.38885e-07
7.39838e-07
2.79298e-07
4.3592e-07
4.31304e-07
2.83227e-07
7.56496e-07
4.38976e-07
4.3012e-07
4.45426e-07
4.3996e-07
2.82325e-07
1.133e-06
1.12808e-06
5.2557e-07
3.63613e-07
1.56794e-07
2.40664e-07
3.64864e-07
2.41516e-07
5.1755e-07
5.13254e-07
3.51207e-07
1.5421e-07
2.33296e-07
3.58539e-07
2.35559e-07
5.0469e-07
5.77916e-07
3.59287e-07
3.13486e-07
6.19296e-07
3.11716e-07
6.37127e-07
5.64446e-07
5.19997e-07
3.60297e-07
1.58189e-07
2.39804e-07
2.36456e-07
3.62109e-07
5.09749e-07
5.80473e-07
3.60492e-07
6.21499e-07
3.14292e-07
6.38291e-07
3.18289e-07
5.66706e-07
5.24342e-07
3.6247e-07
1.59242e-07
2.46427e-07
3.68167e-07
2.45937e-07
5.2616e-07
2.79958e-07
7.58032e-07
4.36411e-07
4.31588e-07
2.78244e-07
4.42894e-07
4.39711e-07
2.8267e-07
7.43261e-07
4.44187e-07
4.41213e-07
2.83407e-07
4.38607e-07
4.33948e-07
1.25583e-06
7.85286e-07
8.02255e-07
7.6251e-07
1.25706e-06
7.87274e-07
8.0168e-07
7.57507e-07
1.25707e-06
7.85165e-07
7.92706e-07
7.60429e-07
1.25782e-06
7.88891e-07
8.01571e-07
7.53659e-07
1.25253e-06
7.8789e-07
7.99342e-07
7.61854e-07
1.25569e-06
7.90616e-07
7.95501e-07
7.5449e-07
1.25548e-06
7.85992e-07
8.00745e-07
7.64314e-07
1.25621e-06
7.86047e-07
8.00984e-07
7.54517e-07
1.25756e-06
7.88652e-07
8.04257e-07
7.61928e-07
1.25322e-06
7.86699e-07
8.01e-07
7.55493e-07
1.25758e-06
7.8668e-07
8.03648e-07
7.61175e-07
1.25584e-06
7.86977e-07
8.02417e-07
7.53625e-07
1.2542e-06
7.89536e-07
8.02633e-07
7.60826e-07
1.24874e-06
7.88201e-07
7.99963e-07
7.58082e-07
1.25063e-06
7.91705e-07
8.02838e-07
7.53446e-07
1.25022e-06
7.86884e-07
8.00692e-07
7.54876e-07
1.25153e-06
7.90714e-07
8.01177e-07
7.57066e-07
7.89069e-07
7.98192e-07
7.91403e-07
7.91652e-07
7.58461e-07
7.40465e-07
7.86082e-07
7.87079e-07
7.8118e-07
7.8767e-07
7.81028e-07
7.87029e-07
7.84094e-07
7.5683e-07
7.38384e-07
8.01044e-07
8.01177e-07
7.96627e-07
7.34084e-07
7.61503e-07
7.42312e-07
7.90289e-07
7.95888e-07
7.94473e-07
7.9533e-07
7.58293e-07
7.41514e-07
7.79349e-07
7.88099e-07
7.81359e-07
7.84565e-07
7.80031e-07
7.81691e-07
7.84317e-07
7.6089e-07
7.40024e-07
7.96e-07
7.98177e-07
7.94749e-07
7.41629e-07
7.59961e-07
7.44065e-07
7.94029e-07
7.94259e-07
7.9214e-07
8.01569e-07
7.61475e-07
7.44894e-07
7.86906e-07
7.81421e-07
7.7955e-07
7.89644e-07
7.78564e-07
7.87883e-07
7.76349e-07
7.62349e-07
7.49216e-07
7.92787e-07
8.00814e-07
7.95647e-07
7.36861e-07
7.62981e-07
7.41875e-07
7.96373e-07
8.01803e-07
7.92328e-07
7.99257e-07
7.63598e-07
7.35921e-07
7.83985e-07
7.90567e-07
7.81963e-07
7.84641e-07
7.79929e-07
7.88611e-07
7.83213e-07
7.67343e-07
7.43623e-07
7.94341e-07
8.00017e-07
8.00036e-07
7.42454e-07
7.61056e-07
7.43363e-07
7.97207e-07
8.00014e-07
7.94296e-07
7.95671e-07
7.5963e-07
7.43053e-07
7.79354e-07
7.90143e-07
7.86425e-07
7.89968e-07
7.7834e-07
7.91059e-07
7.81158e-07
7.63168e-07
7.4862e-07
7.99937e-07
7.97741e-07
7.99643e-07
7.38377e-07
7.5741e-07
7.43179e-07
7.96374e-07
8.0026e-07
7.92099e-07
8.0156e-07
7.61096e-07
7.4098e-07
7.80429e-07
7.85953e-07
7.81381e-07
7.93286e-07
7.87468e-07
7.8976e-07
7.85071e-07
7.64448e-07
7.49208e-07
7.98824e-07
8.00974e-07
8.00929e-07
7.4009e-07
7.62942e-07
7.37907e-07
7.96719e-07
7.9799e-07
7.93573e-07
8.02319e-07
7.5946e-07
7.47656e-07
7.87168e-07
7.92321e-07
7.81521e-07
7.91776e-07
7.82957e-07
7.92176e-07
7.87902e-07
7.69914e-07
7.45539e-07
7.98646e-07
7.95945e-07
8.0198e-07
7.37979e-07
7.62671e-07
7.43457e-07
7.99404e-07
7.99396e-07
7.98807e-07
8.04354e-07
7.66452e-07
7.48677e-07
7.87971e-07
7.93563e-07
7.89304e-07
7.9368e-07
7.89317e-07
7.92137e-07
7.89428e-07
7.69208e-07
7.48132e-07
8.02256e-07
8.03485e-07
8.0241e-07
7.43148e-07
7.63268e-07
7.44326e-07
8.00097e-07
8.03031e-07
8.01881e-07
8.06237e-07
7.61876e-07
7.49915e-07
7.899e-07
7.94106e-07
7.8696e-07
7.8518e-07
7.89853e-07
7.90082e-07
7.8253e-07
7.63743e-07
7.48238e-07
8.01321e-07
7.97205e-07
7.95622e-07
7.42618e-07
7.63602e-07
7.44047e-07
8.00907e-07
8.01954e-07
8.02396e-07
8.07969e-07
7.67964e-07
7.47076e-07
7.84843e-07
7.89842e-07
7.84782e-07
7.91587e-07
7.87604e-07
7.90326e-07
7.84743e-07
7.68816e-07
7.47978e-07
8.00835e-07
8.04236e-07
7.95973e-07
7.42666e-07
7.60762e-07
7.41785e-07
7.99274e-07
8.00885e-07
8.00943e-07
8.05142e-07
7.60298e-07
7.40908e-07
7.85786e-07
7.88954e-07
7.85061e-07
7.89716e-07
7.86468e-07
7.85976e-07
7.80383e-07
7.61995e-07
7.50507e-07
8.00962e-07
8.0109e-07
7.93201e-07
7.39854e-07
7.54224e-07
7.34829e-07
8.00943e-07
8.05404e-07
7.99504e-07
8.01408e-07
7.60947e-07
7.45039e-07
7.85858e-07
7.92955e-07
7.86816e-07
7.88135e-07
7.84235e-07
7.88029e-07
7.84621e-07
7.68435e-07
7.42772e-07
7.97706e-07
8.01788e-07
7.99553e-07
7.43376e-07
7.54762e-07
7.40575e-07
7.9434e-07
8.019e-07
7.92277e-07
7.98499e-07
7.62221e-07
7.40927e-07
7.81322e-07
7.93394e-07
7.78714e-07
7.89971e-07
7.84486e-07
7.89431e-07
7.87321e-07
7.64949e-07
7.44726e-07
7.96643e-07
7.96033e-07
7.96156e-07
7.38979e-07
7.59484e-07
7.40618e-07
7.98328e-07
8.00215e-07
7.99142e-07
7.98007e-07
7.57962e-07
7.44819e-07
7.83155e-07
7.90979e-07
7.81942e-07
7.86525e-07
7.87388e-07
7.86088e-07
7.8664e-07
7.6383e-07
7.42739e-07
7.95764e-07
8.01899e-07
7.97646e-07
7.39231e-07
7.58291e-07
7.40625e-07
7.9492e-07
7.98796e-07
7.98181e-07
8.03793e-07
7.59116e-07
7.39628e-07
7.8046e-07
7.85081e-07
7.84512e-07
7.90589e-07
7.86958e-07
7.88194e-07
7.85925e-07
7.60693e-07
7.42334e-07
7.98042e-07
8.01396e-07
7.94454e-07
7.40956e-07
7.54097e-07
7.38012e-07
7.93224e-07
8.00643e-07
7.97716e-07
8.0414e-07
7.63163e-07
7.44273e-07
7.85452e-07
7.915e-07
7.84938e-07
7.84423e-07
7.87011e-07
7.85104e-07
7.869e-07
7.59389e-07
7.39141e-07
7.94414e-07
8.00861e-07
7.97834e-07
7.37358e-07
7.53331e-07
7.97753e-07
8.02861e-07
7.63905e-07
7.85572e-07
7.90298e-07
7.87454e-07
7.8584e-07
7.63951e-07
7.94123e-07
8.00967e-07
7.35665e-07
1.47434e-07
3.58076e-08
1.44765e-07
3.49935e-08
1.60089e-08
1.5966e-08
1.43462e-07
3.42203e-08
1.41966e-07
3.39344e-08
1.26966e-06
1.2533e-06
1.25679e-06
1.25249e-06
1.26561e-06
1.25587e-06
1.25249e-06
3.60743e-07
1.55921e-07
9.79332e-07
7.82156e-07
1.57755e-07
9.79708e-07
3.60124e-07
1.57574e-08
1.57405e-08
3.75661e-07
1.00362e-06
1.57266e-07
8.02762e-07
1.00157e-06
1.57234e-07
3.78819e-07
8.15229e-08
8.20995e-08
7.41626e-07
8.23227e-08
8.32432e-08
1.48488e-07
3.46273e-08
1.48847e-07
3.49253e-08
1.60381e-08
1.60782e-08
1.42951e-07
3.36656e-08
1.4152e-07
3.39146e-08
1.25925e-06
1.25392e-06
1.25373e-06
1.25328e-06
1.25962e-06
1.25833e-06
1.25507e-06
3.62153e-07
1.54591e-07
9.79744e-07
7.8662e-07
3.62839e-07
1.56468e-07
9.80509e-07
1.593e-08
1.58909e-08
3.79164e-07
1.00495e-06
1.59362e-07
7.96715e-07
3.80522e-07
1.00532e-06
1.61063e-07
8.16694e-08
8.27513e-08
7.36418e-07
8.23275e-08
8.32807e-08
1.49033e-07
3.50051e-08
1.47832e-07
3.49352e-08
1.60751e-08
1.61446e-08
1.42855e-07
3.38599e-08
1.42709e-07
3.4073e-08
1.25961e-06
1.25539e-06
1.25139e-06
1.25676e-06
1.25799e-06
1.26127e-06
1.24929e-06
3.62539e-07
1.56595e-07
9.80375e-07
7.86261e-07
3.63441e-07
1.55272e-07
9.77033e-07
1.60735e-08
1.60282e-08
3.77238e-07
1.00046e-06
1.60096e-07
7.97557e-07
3.77323e-07
9.99571e-07
1.5948e-07
8.15892e-08
8.26982e-08
7.40412e-07
8.12382e-08
8.36804e-08
1.49466e-07
3.49661e-08
1.48066e-07
3.51186e-08
1.61316e-08
1.61837e-08
1.42984e-07
3.41662e-08
1.4098e-07
3.43082e-08
1.26053e-06
1.2575e-06
1.24821e-06
1.25484e-06
1.26075e-06
1.26283e-06
1.25123e-06
3.64333e-07
1.553e-07
9.81375e-07
7.89551e-07
3.65787e-07
1.576e-07
9.80176e-07
1.61049e-08
1.61016e-08
3.73401e-07
1.00223e-06
1.59746e-07
7.99438e-07
3.73971e-07
9.9943e-07
1.61214e-07
8.11262e-08
8.309e-08
7.34052e-07
8.21172e-08
8.35336e-08
1.50027e-07
3.48051e-08
1.4891e-07
3.50337e-08
1.61863e-08
1.62101e-08
1.44263e-07
3.40965e-08
1.42514e-07
3.39014e-08
1.26078e-06
1.26004e-06
1.24576e-06
1.25502e-06
1.26219e-06
1.26333e-06
1.25196e-06
3.61424e-07
1.57435e-07
9.83417e-07
7.89393e-07
3.65487e-07
1.58657e-07
9.83907e-07
1.60525e-08
1.60148e-08
3.76404e-07
1.00301e-06
1.60775e-07
8.01052e-07
3.74194e-07
1.0038e-06
1.60822e-07
8.15798e-08
8.22528e-08
7.37489e-07
8.21653e-08
8.32486e-08
1.51796e-07
3.51571e-08
1.50879e-07
3.53025e-08
1.62316e-08
1.61285e-08
1.44907e-07
3.4094e-08
1.42322e-07
3.42146e-08
1.26273e-06
1.26296e-06
1.25211e-06
1.25002e-06
1.26577e-06
1.26236e-06
1.25544e-06
3.66757e-07
1.58313e-07
9.84097e-07
7.85121e-07
3.68927e-07
1.56167e-07
9.84606e-07
1.61405e-08
1.59982e-08
3.74112e-07
1.00511e-06
1.61435e-07
8.00105e-07
3.79051e-07
1.00318e-06
1.61908e-07
8.21312e-08
8.31898e-08
7.40244e-07
8.15686e-08
8.31716e-08
1.54233e-07
3.51453e-08
1.52975e-07
3.51255e-08
1.60694e-08
1.60874e-08
1.44337e-07
3.39713e-08
1.44651e-07
3.42158e-08
1.26604e-06
1.26331e-06
1.25618e-06
1.25452e-06
1.26417e-06
1.25999e-06
1.26101e-06
3.64986e-07
1.5703e-07
9.84973e-07
7.86328e-07
3.69368e-07
1.57656e-07
9.84563e-07
1.59547e-08
1.58497e-08
3.76983e-07
1.00416e-06
1.6112e-07
7.96146e-07
3.77506e-07
1.00344e-06
1.61481e-07
8.21445e-08
8.25811e-08
7.47337e-07
8.2088e-08
8.28217e-08
1.52875e-07
3.49757e-08
1.53857e-07
3.50285e-08
1.61074e-08
1.60303e-08
1.45423e-07
3.43477e-08
1.44883e-07
3.40204e-08
1.26793e-06
1.25993e-06
1.26114e-06
1.25668e-06
1.26654e-06
1.25906e-06
1.26203e-06
3.62063e-07
1.57465e-07
9.84833e-07
7.90297e-07
3.67875e-07
1.56474e-07
9.85715e-07
1.58144e-08
1.56812e-08
3.75732e-07
1.00407e-06
1.59827e-07
8.01642e-07
3.79302e-07
1.00461e-06
1.61073e-07
8.11344e-08
8.25695e-08
7.41604e-07
8.22852e-08
8.28738e-08
1.52845e-07
3.49963e-08
1.52232e-07
3.50354e-08
1.60203e-08
1.60204e-08
1.44952e-07
3.41369e-08
1.4388e-07
3.42737e-08
1.26996e-06
1.26314e-06
1.25999e-06
1.25578e-06
1.27194e-06
1.26102e-06
1.2562e-06
3.63292e-07
1.56256e-07
9.88305e-07
7.90039e-07
3.61848e-07
1.57049e-07
9.87295e-07
1.5774e-08
1.57433e-08
3.79527e-07
1.00294e-06
1.60986e-07
8.04969e-07
3.79115e-07
1.00122e-06
1.61204e-07
8.15804e-08
8.22562e-08
7.43895e-07
8.20352e-08
8.24132e-08
1.52629e-07
3.44143e-08
1.50614e-07
3.48555e-08
1.60672e-08
1.59987e-08
1.42292e-07
3.40727e-08
1.42526e-07
3.3965e-08
1.26994e-06
1.25937e-06
1.25986e-06
1.25331e-06
1.26985e-06
1.26136e-06
1.26186e-06
3.65355e-07
1.57032e-07
9.84539e-07
7.84632e-07
3.66105e-07
1.57344e-07
9.8444e-07
1.57803e-08
1.57245e-08
3.7942e-07
1.0012e-06
1.60864e-07
7.99649e-07
3.795e-07
1.00357e-06
1.61277e-07
8.08327e-08
8.21312e-08
7.35732e-07
8.17124e-08
8.24021e-08
1.52661e-07
3.47337e-08
1.51862e-07
3.48165e-08
1.59602e-08
1.59286e-08
1.441e-07
3.40378e-08
1.43924e-07
3.3998e-08
1.26807e-06
1.26214e-06
1.25995e-06
1.25483e-06
1.26627e-06
1.25872e-06
1.25903e-06
3.59846e-07
1.55541e-07
9.84356e-07
7.86826e-07
3.64602e-07
1.5648e-07
9.79968e-07
1.57777e-08
1.58029e-08
3.78529e-07
1.00555e-06
1.59655e-07
8.03811e-07
3.80671e-07
1.00317e-06
1.60032e-07
8.10895e-08
8.23963e-08
7.40412e-07
8.20203e-08
8.2284e-08
1.51135e-07
3.4678e-08
1.52231e-07
3.45638e-08
1.59659e-08
1.59339e-08
1.44684e-07
3.38867e-08
1.42598e-07
3.35655e-08
1.26585e-06
1.25707e-06
1.25379e-06
1.25033e-06
1.26767e-06
1.2639e-06
1.25838e-06
3.63425e-07
1.56562e-07
9.8271e-07
7.87648e-07
3.62413e-07
1.569e-07
9.81842e-07
1.57826e-08
1.56955e-08
3.80151e-07
1.00266e-06
1.60181e-07
8.02249e-07
3.79893e-07
1.00143e-06
1.58921e-07
8.16056e-08
8.17084e-08
7.3492e-07
8.22615e-08
8.29303e-08
1.51699e-07
3.49466e-08
1.50623e-07
3.47387e-08
1.5882e-08
1.5941e-08
1.4479e-07
3.38455e-08
1.43941e-07
3.40194e-08
1.26781e-06
1.26232e-06
1.25326e-06
1.25083e-06
1.26544e-06
1.26228e-06
1.25425e-06
3.65479e-07
1.5482e-07
9.87089e-07
7.88416e-07
3.65914e-07
1.54094e-07
9.86077e-07
1.56696e-08
1.55326e-08
3.76764e-07
1.00141e-06
1.60371e-07
8.01603e-07
3.82193e-07
1.00571e-06
1.60962e-07
8.15719e-08
8.20297e-08
7.41127e-07
8.22733e-08
8.24021e-08
1.5102e-07
3.46847e-08
1.51629e-07
3.47956e-08
1.5886e-08
1.59086e-08
1.44831e-07
3.37857e-08
1.43672e-07
3.37805e-08
1.26505e-06
1.26168e-06
1.25741e-06
1.24964e-06
1.26194e-06
1.26227e-06
1.2528e-06
3.61155e-07
1.56926e-07
9.85569e-07
7.88907e-07
3.66209e-07
1.56448e-07
9.86839e-07
1.55839e-08
1.56662e-08
3.81943e-07
1.00472e-06
1.59023e-07
8.01696e-07
3.82771e-07
1.00565e-06
1.59415e-07
8.10704e-08
8.18964e-08
7.40763e-07
8.22187e-08
8.29113e-08
1.50503e-07
3.45498e-08
1.49307e-07
3.45573e-08
1.59089e-08
1.5881e-08
1.45064e-07
3.3836e-08
1.43416e-07
3.38061e-08
1.26541e-06
1.26179e-06
1.25391e-06
1.24895e-06
1.26756e-06
1.25917e-06
1.25509e-06
3.62207e-07
1.5532e-07
9.87307e-07
7.91015e-07
3.65855e-07
1.55309e-07
9.83525e-07
1.57155e-08
1.57255e-08
3.75631e-07
1.00318e-06
1.60168e-07
8.02248e-07
3.82083e-07
1.00346e-06
1.60933e-07
8.1008e-08
8.17819e-08
7.37091e-07
8.20522e-08
8.25661e-08
1.49805e-07
3.44241e-08
1.50827e-07
3.42614e-08
1.58458e-08
1.58294e-08
1.45528e-07
3.37379e-08
1.43676e-07
3.39438e-08
1.26659e-06
1.26065e-06
1.25628e-06
1.24634e-06
1.26716e-06
1.25892e-06
1.2575e-06
3.61793e-07
1.56638e-07
9.8808e-07
7.85769e-07
3.65367e-07
1.57057e-07
9.87834e-07
1.57569e-08
1.57278e-08
3.81784e-07
1.0036e-06
1.6057e-07
8.00217e-07
3.77504e-07
1.00767e-06
1.58739e-07
8.12191e-08
8.14511e-08
7.39664e-07
8.17084e-08
8.23181e-08
1.52487e-07
3.41408e-08
1.50798e-07
3.45317e-08
1.59068e-08
1.5879e-08
1.45272e-07
3.39232e-08
1.43316e-07
3.39305e-08
1.26346e-06
1.25901e-06
1.25594e-06
1.2587e-06
3.64163e-07
1.57216e-07
9.86942e-07
7.84975e-07
3.66295e-07
1.57402e-07
9.87437e-07
1.58557e-08
1.57199e-08
3.78468e-07
1.0076e-06
1.59406e-07
8.00117e-07
3.82377e-07
1.00653e-06
1.60068e-07
8.14742e-08
8.14279e-08
7.40547e-07
8.2222e-08
8.24047e-08
1.48324e-07
3.55971e-08
3.55588e-08
1.44923e-07
3.68457e-07
1.5705e-07
1.00085e-06
7.94354e-07
1.0011e-06
3.7287e-07
1.56729e-07
3.74872e-07
1.61782e-07
1.0021e-06
7.98549e-07
1.6306e-07
1.00341e-06
3.69814e-07
1.47755e-07
3.52633e-08
1.49281e-07
3.58121e-08
1.4778e-07
3.5585e-08
3.57216e-08
1.4977e-07
3.73566e-07
7.93986e-07
1.57853e-07
1.00091e-06
1.00014e-06
3.68159e-07
1.58829e-07
3.73683e-07
7.99031e-07
1.62821e-07
1.00434e-06
1.62234e-07
1.0036e-06
3.70829e-07
8.50247e-08
8.14368e-08
7.38465e-07
8.42114e-08
8.29132e-08
1.56052e-08
1.564e-08
1.59489e-08
1.59317e-08
7.59457e-07
8.48723e-08
8.34025e-08
8.33831e-08
8.22216e-08
1.56332e-08
1.56713e-08
3.55574e-07
1.55586e-07
9.77371e-07
7.86528e-07
9.77482e-07
3.60082e-07
1.56255e-07
1.44002e-07
3.52988e-08
3.46831e-08
1.43394e-07
3.58762e-07
9.78667e-07
1.57922e-07
7.83267e-07
9.78712e-07
1.59161e-07
3.56804e-07
1.40722e-07
3.37403e-08
1.40519e-07
3.47198e-08
3.60451e-07
7.8521e-07
1.55436e-07
9.76638e-07
9.76042e-07
3.52868e-07
1.55921e-07
1.43236e-07
3.48996e-08
3.50064e-08
1.43902e-07
3.5748e-07
7.88834e-07
9.80939e-07
1.59508e-07
9.80336e-07
1.58317e-07
3.55572e-07
1.43658e-07
3.44191e-08
3.42757e-08
1.43736e-07
3.61098e-07
9.77291e-07
1.55466e-07
7.78275e-07
9.74962e-07
1.56134e-07
3.61478e-07
1.45873e-07
3.44118e-08
3.41582e-08
1.43695e-07
3.63049e-07
7.88276e-07
1.56837e-07
9.80589e-07
1.56519e-07
9.76408e-07
3.57449e-07
1.42794e-07
3.46416e-08
3.47624e-08
1.4439e-07
3.60547e-07
7.84642e-07
9.74691e-07
1.5502e-07
9.76076e-07
1.55958e-07
3.59866e-07
1.45823e-07
3.43954e-08
3.47725e-08
1.45718e-07
8.32868e-08
8.32583e-08
7.44452e-07
8.40183e-08
8.33458e-08
1.56534e-08
1.56651e-08
1.58833e-08
1.58163e-08
7.6039e-07
8.4508e-08
8.44584e-08
8.37115e-08
8.33797e-08
1.58267e-08
1.56531e-08
3.76829e-07
1.00129e-06
1.5959e-07
7.93186e-07
1.00026e-06
1.60922e-07
3.78045e-07
1.51072e-07
3.55226e-08
3.50344e-08
1.48972e-07
1.51133e-07
3.53275e-08
3.55677e-08
1.51097e-07
3.75188e-07
8.02297e-07
1.00463e-06
1.59869e-07
1.00064e-06
1.59928e-07
3.80181e-07
3.77535e-07
7.96645e-07
1.00489e-06
1.61186e-07
1.00476e-06
1.59609e-07
3.75147e-07
1.49095e-07
3.4933e-08
3.5518e-08
1.51329e-07
1.49152e-07
3.55267e-08
3.63676e-08
1.4968e-07
1.55156e-08
1.55225e-08
1.56431e-08
1.57282e-08
7.59089e-07
8.24577e-08
8.33649e-08
8.21942e-08
8.27833e-08
1.55682e-08
1.55462e-08
1.57756e-08
1.57121e-08
1.57433e-08
1.57279e-08
1.55709e-08
1.554e-08
8.39616e-08
8.24343e-08
7.42221e-07
8.38401e-08
8.256e-08
1.58517e-08
1.58286e-08
1.55737e-08
1.56011e-08
7.6134e-07
8.47637e-08
8.21135e-08
8.42996e-08
8.23154e-08
1.49434e-07
3.65089e-08
1.4844e-07
3.57911e-08
3.71825e-07
1.57943e-07
9.99907e-07
7.96841e-07
3.73998e-07
1.601e-07
1.00438e-06
3.7153e-07
1.61211e-07
1.00509e-06
7.94235e-07
3.76132e-07
1.621e-07
1.00182e-06
1.48477e-07
3.53884e-08
3.57448e-08
1.4853e-07
1.47415e-07
3.5964e-08
3.61097e-08
1.49116e-07
3.71463e-07
7.97662e-07
1.61166e-07
1.00481e-06
1.60381e-07
1.00468e-06
3.71395e-07
3.70934e-07
7.94232e-07
1.62363e-07
1.00177e-06
1.62845e-07
1.00586e-06
3.76148e-07
8.43979e-08
8.28189e-08
7.38414e-07
8.54974e-08
8.31466e-08
1.56306e-08
1.56332e-08
1.61279e-08
1.61224e-08
7.57857e-07
8.55731e-08
8.32111e-08
8.53666e-08
8.20969e-08
1.56586e-08
1.55798e-08
3.57367e-07
1.54092e-07
9.74575e-07
7.85244e-07
3.58125e-07
1.56587e-07
9.72192e-07
1.44861e-07
3.545e-08
1.42915e-07
3.49736e-08
3.54968e-07
9.81722e-07
1.58726e-07
7.89995e-07
3.55044e-07
9.82188e-07
1.57785e-07
1.41115e-07
3.39567e-08
3.45555e-08
1.43841e-07
3.57109e-07
7.84782e-07
1.55114e-07
9.76019e-07
1.55521e-07
9.73964e-07
3.5616e-07
1.44673e-07
3.51459e-08
3.59302e-08
1.45788e-07
3.61105e-07
7.87826e-07
9.82831e-07
1.59871e-07
9.78629e-07
1.59615e-07
3.55561e-07
1.4675e-07
3.42712e-08
1.45854e-07
3.42889e-08
3.55383e-07
9.79528e-07
1.54917e-07
7.79905e-07
3.62032e-07
9.78167e-07
1.54651e-07
1.46431e-07
3.5118e-08
1.45859e-07
3.43401e-08
3.62288e-07
7.87898e-07
1.57324e-07
9.81154e-07
1.56371e-07
9.80133e-07
3.61802e-07
1.44906e-07
3.44431e-08
3.4871e-08
1.45388e-07
3.60548e-07
7.78294e-07
9.81401e-07
1.57403e-07
9.76556e-07
1.56703e-07
3.60155e-07
1.45548e-07
3.44258e-08
3.45745e-08
1.46956e-07
8.41296e-08
8.45518e-08
7.42801e-07
8.3952e-08
8.51795e-08
1.58199e-08
1.58877e-08
1.60143e-08
1.59389e-08
7.63277e-07
8.50557e-08
8.47713e-08
8.40763e-08
8.41133e-08
1.58809e-08
1.5794e-08
3.79422e-07
1.00418e-06
1.59135e-07
7.93402e-07
3.79193e-07
1.00475e-06
1.60385e-07
1.51454e-07
3.54747e-08
1.50616e-07
3.49756e-08
1.4958e-07
3.58247e-08
1.51393e-07
3.53483e-08
3.79957e-07
8.01967e-07
1.00089e-06
1.60701e-07
1.00407e-06
1.60145e-07
3.77743e-07
3.78806e-07
7.99299e-07
1.00487e-06
1.62171e-07
1.00418e-06
1.61917e-07
3.78229e-07
1.50568e-07
3.52321e-08
3.50844e-08
1.49913e-07
1.47864e-07
3.53711e-08
3.64075e-08
1.51533e-07
1.54941e-08
1.54915e-08
1.5702e-08
1.57078e-08
7.53149e-07
8.24121e-08
8.39512e-08
8.19199e-08
8.36894e-08
1.55563e-08
1.54892e-08
1.58433e-08
1.57523e-08
1.58403e-08
1.58375e-08
1.55476e-08
1.5586e-08
8.37357e-08
8.234e-08
7.3813e-07
8.42485e-08
8.27065e-08
1.5832e-08
1.58687e-08
1.56096e-08
1.56113e-08
7.54968e-07
8.47466e-08
8.22558e-08
8.44211e-08
8.18685e-08
1.50872e-07
3.60348e-08
1.49716e-07
3.58265e-08
3.74149e-07
1.60657e-07
1.00498e-06
7.92272e-07
3.75077e-07
1.59501e-07
1.00303e-06
3.73082e-07
1.61555e-07
1.00556e-06
8.00875e-07
3.77731e-07
1.64069e-07
1.00594e-06
1.48809e-07
3.53745e-08
3.55669e-08
1.4943e-07
1.48664e-07
3.56869e-08
3.65989e-08
1.50168e-07
3.73247e-07
7.98231e-07
1.59124e-07
1.00221e-06
1.60979e-07
1.00333e-06
3.77334e-07
3.78183e-07
8.0135e-07
1.61411e-07
1.00744e-06
1.619e-07
1.00614e-06
3.77991e-07
8.56609e-08
8.27874e-08
7.40392e-07
8.60035e-08
8.30842e-08
1.56628e-08
1.56141e-08
1.61601e-08
1.61633e-08
7.56206e-07
8.60147e-08
8.3406e-08
8.56549e-08
8.22377e-08
1.57391e-08
1.56531e-08
3.57736e-07
1.54083e-07
9.76704e-07
7.85633e-07
3.58721e-07
1.56202e-07
9.7845e-07
1.46149e-07
3.55342e-08
1.4548e-07
3.52356e-08
3.56461e-07
9.83e-07
1.59704e-07
7.87582e-07
3.5629e-07
9.83723e-07
1.59115e-07
1.40453e-07
3.40207e-08
3.43571e-08
1.4371e-07
3.58274e-07
7.80759e-07
1.56738e-07
9.78064e-07
1.55593e-07
9.74928e-07
3.57881e-07
1.45557e-07
3.52815e-08
3.56282e-08
1.4456e-07
3.59665e-07
7.87983e-07
9.83196e-07
1.57085e-07
9.83457e-07
1.56358e-07
3.53949e-07
1.47525e-07
3.46067e-08
1.46864e-07
3.44467e-08
3.61893e-07
9.81712e-07
1.55399e-07
7.8177e-07
3.63472e-07
9.82014e-07
1.57248e-07
1.46874e-07
3.46693e-08
1.46525e-07
3.44826e-08
3.64781e-07
7.86008e-07
1.55813e-07
9.81804e-07
1.54882e-07
9.81582e-07
3.63486e-07
1.46765e-07
3.45492e-08
3.46011e-08
1.47546e-07
3.64006e-07
7.77889e-07
9.82085e-07
1.55409e-07
9.81989e-07
1.54941e-07
3.60404e-07
1.44002e-07
3.41898e-08
3.47284e-08
1.47256e-07
8.49109e-08
8.4494e-08
7.42033e-07
8.4622e-08
8.42959e-08
1.58768e-08
1.58065e-08
1.60874e-08
1.60606e-08
7.65086e-07
8.51833e-08
8.51017e-08
8.4205e-08
8.42197e-08
1.59043e-08
1.5802e-08
3.79205e-07
1.00158e-06
1.61424e-07
7.95836e-07
3.78358e-07
1.00524e-06
1.61951e-07
1.50204e-07
3.59087e-08
1.51203e-07
3.48526e-08
1.50529e-07
3.57031e-08
1.51261e-07
3.55144e-08
3.78397e-07
7.99683e-07
1.00034e-06
1.60933e-07
1.00402e-06
1.60661e-07
3.78149e-07
3.80168e-07
7.95154e-07
1.00461e-06
1.61189e-07
1.00571e-06
1.61422e-07
3.76824e-07
1.50076e-07
3.50043e-08
3.54249e-08
1.49791e-07
1.49147e-07
3.55272e-08
3.56595e-08
1.50067e-07
1.54963e-08
1.54647e-08
1.5767e-08
1.5797e-08
7.59703e-07
8.10148e-08
8.3397e-08
8.14085e-08
8.36094e-08
1.54806e-08
1.5488e-08
1.57978e-08
1.57721e-08
1.58638e-08
1.5899e-08
1.56448e-08
1.56701e-08
8.43373e-08
8.27137e-08
7.44738e-07
8.49371e-08
8.30168e-08
1.59083e-08
1.58862e-08
1.55859e-08
1.56443e-08
7.63512e-07
8.50575e-08
8.28733e-08
8.3944e-08
8.28562e-08
1.50042e-07
3.60739e-08
1.50638e-07
3.60401e-08
3.77733e-07
1.61196e-07
1.00612e-06
7.97939e-07
3.74496e-07
1.61735e-07
1.0068e-06
3.77685e-07
1.61414e-07
1.00805e-06
8.02409e-07
3.78479e-07
1.62167e-07
1.00498e-06
1.50566e-07
3.52507e-08
3.54469e-08
1.4824e-07
1.52118e-07
3.61069e-08
3.68604e-08
1.52093e-07
3.78693e-07
7.97673e-07
1.59537e-07
1.00633e-06
1.60762e-07
1.0061e-06
3.76596e-07
3.7468e-07
8.00874e-07
1.62663e-07
1.00932e-06
1.61853e-07
1.00918e-06
3.78619e-07
8.58958e-08
8.31749e-08
7.41053e-07
8.62028e-08
8.36587e-08
1.58032e-08
1.57717e-08
1.62492e-08
1.62464e-08
7.55931e-07
8.61148e-08
8.36213e-08
8.60237e-08
8.255e-08
1.57538e-08
1.57773e-08
3.58673e-07
1.56093e-07
9.79045e-07
7.84937e-07
3.59837e-07
1.58014e-07
9.75012e-07
1.42374e-07
3.61655e-08
1.43332e-07
3.51448e-08
3.56174e-07
9.82337e-07
1.58577e-07
7.9158e-07
3.58952e-07
9.82055e-07
1.59251e-07
1.43158e-07
3.41722e-08
3.51253e-08
1.44937e-07
3.60595e-07
7.85748e-07
1.57809e-07
9.77357e-07
1.5727e-07
9.78565e-07
3.54403e-07
1.44287e-07
3.54231e-08
3.54267e-08
1.4551e-07
3.61982e-07
7.90281e-07
9.79056e-07
1.59654e-07
9.81667e-07
1.57865e-07
3.60162e-07
1.47772e-07
3.53033e-08
1.47495e-07
3.47857e-08
3.64593e-07
9.8218e-07
1.5699e-07
7.824e-07
3.62634e-07
9.79876e-07
1.57754e-07
1.47271e-07
3.49579e-08
1.47103e-07
3.46048e-08
3.65018e-07
7.88274e-07
1.58449e-07
9.83254e-07
1.55889e-07
9.78415e-07
3.63773e-07
1.46812e-07
3.45797e-08
3.51806e-08
1.46511e-07
3.6635e-07
7.82199e-07
9.82912e-07
1.57e-07
9.77968e-07
1.57326e-07
3.65717e-07
1.47155e-07
3.44788e-08
3.54638e-08
1.47499e-07
8.42978e-08
8.47194e-08
7.47888e-07
8.53459e-08
8.50695e-08
1.58311e-08
1.59202e-08
1.60549e-08
1.61421e-08
7.63036e-07
8.51546e-08
8.47793e-08
8.51022e-08
8.43355e-08
1.58762e-08
1.59099e-08
3.75838e-07
1.00073e-06
1.61308e-07
8.00637e-07
3.75089e-07
1.00471e-06
1.61342e-07
1.4859e-07
3.5456e-08
1.47612e-07
3.51027e-08
1.50825e-07
3.61965e-08
1.48373e-07
3.53981e-08
3.75561e-07
8.00337e-07
9.98442e-07
1.61333e-07
9.9951e-07
1.59114e-07
3.75069e-07
3.772e-07
8.01391e-07
1.0001e-06
1.61315e-07
1.00375e-06
1.59183e-07
3.79136e-07
1.50627e-07
3.5015e-08
3.5196e-08
1.50993e-07
1.50178e-07
3.50799e-08
3.56668e-08
1.49931e-07
1.54804e-08
1.54921e-08
1.58297e-08
1.57871e-08
7.5748e-07
8.26954e-08
8.32654e-08
8.18574e-08
8.34465e-08
1.55909e-08
1.55292e-08
1.57523e-08
1.57164e-08
1.58501e-08
1.58909e-08
1.56696e-08
1.56153e-08
8.46654e-08
8.20545e-08
7.3848e-07
8.47795e-08
8.27044e-08
1.59767e-08
1.58792e-08
1.55885e-08
1.56506e-08
7.57136e-07
8.58266e-08
8.17407e-08
8.44665e-08
8.24138e-08
1.5217e-07
3.69701e-08
1.49663e-07
3.5987e-08
3.76336e-07
1.59858e-07
1.00305e-06
7.94952e-07
3.74183e-07
1.61063e-07
1.00398e-06
3.75963e-07
1.63048e-07
1.00698e-06
8.0145e-07
3.7912e-07
1.6315e-07
1.00496e-06
1.49622e-07
3.50303e-08
3.52658e-08
1.51462e-07
1.52125e-07
3.60861e-08
3.62255e-08
1.52447e-07
3.75031e-07
7.89623e-07
1.60425e-07
1.00447e-06
1.59291e-07
1.00089e-06
3.77397e-07
3.79389e-07
8.01109e-07
1.6396e-07
1.00962e-06
1.63003e-07
1.00932e-06
3.78576e-07
8.5743e-08
8.33239e-08
7.41091e-07
8.60924e-08
8.29197e-08
1.57683e-08
1.56652e-08
1.61864e-08
1.62211e-08
7.61318e-07
8.58814e-08
8.3478e-08
8.52471e-08
8.30885e-08
1.576e-08
1.57429e-08
3.59617e-07
1.57039e-07
9.76007e-07
7.84444e-07
3.60249e-07
1.57469e-07
9.80661e-07
1.44892e-07
3.60582e-08
1.44408e-07
3.51911e-08
3.61722e-07
9.83877e-07
1.57752e-07
7.85872e-07
3.6169e-07
9.84275e-07
1.58764e-07
1.42594e-07
3.44485e-08
3.46548e-08
1.45034e-07
3.57867e-07
7.80733e-07
1.55578e-07
9.81289e-07
1.54416e-07
9.81048e-07
3.57308e-07
1.44447e-07
3.52158e-08
3.58162e-08
1.46849e-07
3.64006e-07
7.88642e-07
9.84439e-07
1.59174e-07
9.84743e-07
1.60084e-07
3.60851e-07
1.46765e-07
3.50987e-08
1.46284e-07
3.46226e-08
3.65543e-07
9.8167e-07
1.5508e-07
7.83493e-07
3.64805e-07
9.82486e-07
1.56211e-07
1.48439e-07
3.53318e-08
1.47489e-07
3.42551e-08
3.67692e-07
7.90292e-07
1.59075e-07
9.84185e-07
1.5793e-07
9.84094e-07
3.67269e-07
1.46144e-07
3.46323e-08
3.48681e-08
1.45011e-07
3.66681e-07
7.82733e-07
9.7991e-07
1.58025e-07
9.81332e-07
1.57281e-07
3.67267e-07
1.47635e-07
3.41527e-08
3.51692e-08
1.48559e-07
8.4186e-08
8.42345e-08
7.43702e-07
8.46437e-08
8.49999e-08
1.59217e-08
1.58868e-08
1.60997e-08
1.61631e-08
7.66912e-07
8.46752e-08
8.56038e-08
8.54111e-08
8.48235e-08
1.59629e-08
1.58961e-08
3.78856e-07
1.00438e-06
1.60533e-07
7.98333e-07
3.79498e-07
1.00471e-06
1.60393e-07
1.51841e-07
3.52442e-08
1.48636e-07
3.49308e-08
1.50853e-07
3.5763e-08
1.48122e-07
3.50941e-08
3.78309e-07
8.01141e-07
1.0048e-06
1.61975e-07
1.00453e-06
1.59233e-07
3.78245e-07
3.79639e-07
7.9423e-07
1.00497e-06
1.60464e-07
1.00121e-06
1.60764e-07
3.7925e-07
1.51693e-07
3.52171e-08
3.54283e-08
1.52179e-07
1.51273e-07
3.49771e-08
3.53763e-08
1.51724e-07
1.55446e-08
1.55287e-08
1.57086e-08
1.56979e-08
7.61282e-07
8.26601e-08
8.37435e-08
8.18281e-08
8.25009e-08
1.55604e-08
1.55386e-08
1.57319e-08
1.56928e-08
1.6033e-08
1.59935e-08
1.56039e-08
1.55598e-08
8.56793e-08
8.20816e-08
7.45246e-07
8.59706e-08
8.19511e-08
1.59701e-08
1.59652e-08
1.55682e-08
1.56082e-08
7.6212e-07
8.48353e-08
8.20942e-08
8.50525e-08
8.13907e-08
1.5376e-07
3.67238e-08
1.51566e-07
3.57189e-08
3.81674e-07
1.61806e-07
1.00481e-06
7.9736e-07
3.7902e-07
1.62821e-07
1.00476e-06
3.84457e-07
1.63646e-07
1.00676e-06
8.02221e-07
3.78655e-07
1.63178e-07
1.01094e-06
1.51734e-07
3.55191e-08
3.55944e-08
1.53697e-07