/*--------------------------------*- C++ -*----------------------------------*\
| =========                 |                                                 |
| \\      /  F ield         | OpenFOAM: The Open Source CFD Toolbox           |
|  \\    /   O peration     | Version:  2206                                  |
|   \\  /    A nd           | Website:  www.openfoam.com                      |
|    \\/     M anipulation  |                                                 |
\*---------------------------------------------------------------------------*/
FoamFile
{
    version     2.0;
    format      ascii;
    arch        "LSB;label=32;scalar=64";
    class       surfaceScalarField;
    location    "60";
    object      phi;
}
// * * * * * * * * * * * * * * * * * * * * * * * * * * * * * * * * * * * * * //

dimensions      [0 3 -1 0 0 0 0];

oriented        oriented;

internalField   nonuniform List<scalar> 
197159
(
-3.64664e-11
-3.99381e-11
2.6951e-08
-2.67998e-08
-3.77343e-11
-3.70111e-11
-4.83057e-12
-3.60165e-11
-1.45822e-11
1.31348e-11
-2.35404e-11
-2.45693e-11
2.2435e-11
2.29951e-11
1.13137e-07
2.03325e-11
6.67377e-12
-1.32018e-11
-3.90612e-11
-3.02684e-11
2.98647e-11
5.5357e-11
-5.40404e-11
5.29522e-11
-5.46329e-11
1.11128e-07
3.20412e-11
5.09066e-11
-2.3899e-12
-9.51749e-12
-2.66112e-11
3.00623e-11
3.51531e-11
-5.36355e-11
5.17003e-11
-3.57727e-11
1.12155e-07
-3.20164e-11
-2.6824e-08
-4.70385e-11
-2.14386e-11
2.69565e-08
-3.19293e-11
-1.07797e-10
-2.91317e-11
-4.24106e-11
9.88264e-13
-2.42492e-11
3.49134e-11
-2.43647e-13
1.12076e-07
-1.51878e-11
3.79878e-11
3.74014e-11
2.68001e-08
3.62831e-11
3.9173e-11
-2.68001e-08
-3.75211e-11
-3.68416e-11
-3.64912e-11
-3.95999e-11
2.69505e-08
-5.20853e-11
1.16658e-07
7.5713e-11
-8.43538e-12
1.16944e-07
-1.49722e-11
2.26104e-12
-1.00352e-13
7.42846e-09
-7.43368e-09
3.06108e-12
3.24177e-12
1.87658e-12
7.28243e-09
3.2747e-12
2.27647e-12
2.35936e-08
1.48078e-11
-2.36084e-08
3.25354e-14
7.96289e-12
2.31021e-08
2.13927e-11
-2.31252e-08
-3.03789e-12
3.61408e-12
-1.48522e-08
1.25897e-12
1.48446e-08
2.63513e-12
9.16014e-12
-2.25114e-08
5.74054e-12
2.25024e-08
1.11067e-11
4.0048e-12
1.45163e-08
2.46671e-12
4.7496e-11
4.70456e-14
-4.54048e-12
-1.32832e-11
2.09743e-08
2.6583e-11
-2.21468e-08
1.39351e-11
2.21253e-08
-3.42349e-13
7.32143e-12
9.1925e-11
-1.2361e-10
1.24209e-10
-9.23497e-11
1.1385e-07
-1.208e-13
-2.4396e-08
-1.016e-11
8.92401e-11
2.43645e-08
1.12303e-11
-1.64289e-12
3.70259e-12
1.45155e-08
2.44313e-12
4.74904e-11
-1.32706e-11
-4.40392e-12
2.09703e-08
2.92756e-12
7.49064e-11
-1.23037e-10
1.23883e-10
-7.42905e-11
1.15068e-07
-8.02561e-12
2.68086e-11
-2.21318e-08
1.37489e-11
2.21105e-08
-2.43924e-08
8.92718e-11
-1.00536e-11
2.43605e-08
3.4803e-12
7.28337e-09
3.25115e-12
2.15536e-11
-2.31785e-08
-2.76616e-12
2.31551e-08
-1.53747e-12
2.19282e-12
1.43741e-11
-2.35634e-08
-8.80456e-14
2.35485e-08
-5.46608e-13
-7.43431e-09
7.42933e-09
3.9831e-12
-3.31674e-12
8.75599e-12
-2.25223e-08
5.91545e-12
2.25132e-08
-1.48575e-08
1.3539e-12
1.4849e-08
3.23023e-12
-3.34131e-13
7.4332e-09
3.85141e-13
-4.7775e-12
2.32112e-12
7.42755e-09
-7.43268e-09
-7.01047e-13
3.50643e-12
-4.23151e-12
7.29102e-09
-1.55578e-12
-2.82479e-12
3.14401e-12
7.28266e-09
-7.29108e-09
1.77036e-12
3.50807e-12
-1.37438e-11
5.07917e-13
2.36089e-08
-2.4056e-12
-2.13363e-11
3.07112e-12
2.31242e-08
-8.08508e-12
2.69507e-08
-2.67999e-08
-3.77442e-11
-3.68889e-11
-3.65775e-11
-3.96091e-11
2.3595e-08
5.70319e-13
-2.36103e-08
1.49979e-11
1.99541e-12
2.31017e-08
-3.00599e-12
-2.31248e-08
2.13181e-11
7.86958e-12
2.32168e-12
-7.43211e-09
-4.72433e-13
7.42707e-09
3.18821e-12
-5.27158e-13
7.43239e-09
1.0054e-13
-4.40731e-12
3.71758e-12
-7.2914e-09
1.9359e-12
7.28278e-09
2.96022e-12
-4.3569e-12
7.2914e-09
-1.64341e-12
-2.74552e-12
2.68002e-08
3.80867e-11
3.76362e-11
3.59547e-11
3.87869e-11
1.47616e-11
-2.36112e-08
6.9784e-15
2.03462e-12
2.35967e-08
2.1237e-11
-2.31242e-08
-3.28842e-12
7.90726e-12
2.31021e-08
7.83951e-13
-1.37461e-11
2.36101e-08
-2.61909e-12
3.1173e-12
-2.13677e-11
2.31238e-08
-8.1097e-12
-1.14455e-12
7.65438e-13
-4.69831e-12
-7.42859e-09
5.41449e-12
-1.70412e-11
2.0944e-08
1.11074e-11
-1.61696e-11
-2.44736e-08
-1.77876e-11
2.44519e-08
3.09742e-11
2.33083e-11
2.2155e-13
-1.37252e-11
-2.3778e-12
-1.41401e-08
6.245e-12
4.17757e-13
1.4131e-08
2.46126e-12
-1.82637e-13
-2.60916e-12
-2.99898e-11
-2.17763e-11
-1.13428e-11
2.09274e-08
1.64088e-11
7.73315e-12
-2.33593e-11
1.98946e-08
1.36083e-11
-1.40036e-11
-2.34626e-08
-2.28786e-11
2.34361e-08
3.77265e-11
3.30278e-11
3.18789e-12
-2.10835e-11
-8.0561e-12
-1.37817e-08
7.61438e-12
-1.02682e-12
1.37694e-08
2.63303e-12
1.39852e-12
-2.01782e-12
-3.73237e-11
-3.30293e-11
-1.35054e-11
1.98787e-08
1.41218e-11
2.92047e-12
3.19424e-12
1.6529e-08
-6.0749e-09
3.64595e-12
6.06873e-09
2.91901e-12
-6.04501e-09
2.80247e-12
6.0382e-09
2.99135e-12
-3.30048e-12
-2.57128e-12
1.65106e-08
-7.20774e-12
-3.08611e-11
-3.30118e-12
-1.48102e-08
-2.27261e-08
1.23115e-11
7.86051e-12
2.27073e-08
-1.85977e-13
-1.34177e-10
3.4486e-11
-2.26015e-08
-3.20812e-11
6.18584e-09
4.41033e-12
-6.17628e-09
-1.67228e-12
-1.29248e-12
6.80168e-12
2.45665e-11
2.21292e-08
1.84962e-12
6.00373e-09
3.77364e-12
-1.04367e-11
3.88939e-11
2.00212e-08
-1.17868e-12
1.47339e-13
1.29249e-08
1.56149e-12
1.06343e-08
1.53704e-12
-1.55226e-12
6.5331e-12
2.47582e-11
2.21211e-08
1.54174e-12
6.00183e-09
3.80853e-12
-9.30891e-13
1.2923e-08
1.57819e-12
-1.03215e-11
3.87211e-11
2.00131e-08
1.06315e-08
1.60273e-12
-2.44496e-11
7.72638e-12
1.98933e-08
1.34142e-11
-1.37088e-11
-2.38288e-08
-2.23072e-11
3.99543e-11
3.25023e-11
2.38002e-08
-2.11742e-11
3.48313e-12
-8.42866e-12
-1.377e-08
7.81094e-12
-9.11976e-13
1.3758e-08
2.40537e-12
-3.80557e-11
-3.26888e-11
1.31242e-12
-2.05073e-12
-1.30973e-11
1.4871e-11
1.98771e-08
5.52793e-12
-1.49356e-11
2.09557e-08
1.08517e-11
-1.78933e-11
-2.40958e-08
-1.80928e-11
2.81241e-11
2.52634e-11
2.40748e-08
2.09155e-13
-1.48164e-11
1.81433e-12
-7.98719e-13
-1.41589e-08
5.62492e-12
3.63088e-13
1.41501e-08
2.69244e-12
-2.86896e-13
-2.51664e-12
-4.06518e-11
-5.47732e-12
-1.13061e-11
1.55003e-11
2.0939e-08
2.98742e-12
3.22319e-12
1.65359e-08
-6.04636e-09
2.91924e-12
6.0396e-09
2.92934e-12
-6.07719e-09
3.13795e-12
6.07122e-09
3.19392e-12
-2.65064e-12
-2.98956e-12
1.65176e-08
2.67727e-13
-3.41165e-12
-1.40952e-12
-2.91351e-12
-2.71113e-12
-2.27329e-08
3.59453e-12
7.53775e-12
2.27204e-08
2.70989e-12
-7.75892e-12
-2.18558e-12
-2.28286e-12
6.18478e-09
5.61552e-12
-6.1871e-09
3.05201e-13
7.42789e-09
3.10372e-12
-3.15508e-13
2.51022e-12
-3.34411e-13
1.20005e-13
-4.56497e-12
7.28237e-09
3.98089e-12
2.0374e-12
2.63916e-12
-4.26584e-12
-1.66938e-12
-2.78414e-12
2.93582e-12
3.27734e-12
1.65296e-08
-1.65109e-08
-1.13481e-11
-1.35678e-11
-6.07506e-09
3.53402e-12
-6.548e-13
6.06906e-09
3.12082e-12
-6.04548e-09
2.62418e-12
1.13932e-12
6.03866e-09
3.05581e-12
-6.06883e-09
1.08557e-13
-3.39454e-12
-6.03843e-09
-9.99916e-13
-2.78564e-12
1.11093e-11
1.35383e-11
1.65111e-08
-2.09442e-08
-6.01049e-12
1.77993e-11
-1.11212e-11
2.09273e-08
1.63124e-11
1.69839e-11
2.44729e-08
-3.0114e-11
-2.16251e-11
-5.4502e-12
1.41403e-08
-1.93718e-13
-3.07583e-12
-3.27602e-14
1.48151e-11
2.3595e-08
2.2072e-12
1.11406e-11
-1.64105e-11
2.31805e-13
1.41318e-08
2.16052e-12
2.44516e-08
3.07766e-11
2.31479e-11
-1.98948e-08
-7.3321e-12
2.31694e-11
-1.35512e-11
1.98785e-08
1.39849e-11
2.32066e-11
2.34624e-08
-3.74359e-11
-3.33999e-11
-7.78459e-12
1.37815e-08
1.15621e-12
-2.36455e-12
-3.53209e-12
2.12066e-11
2.31026e-08
7.93218e-12
1.35164e-11
-1.41503e-11
-1.50957e-12
1.37698e-08
2.25954e-12
2.34363e-08
3.75119e-11
3.30106e-11
-1.65295e-08
-3.4832e-12
-2.53889e-12
-2.69564e-12
6.07502e-09
-3.75017e-12
-3.02426e-12
6.04536e-09
-3.00959e-12
2.8861e-12
2.92917e-12
5.48466e-12
2.09438e-08
-1.71953e-11
-1.62298e-11
-1.41409e-08
6.18001e-12
1.4132e-08
2.60315e-12
6.36393e-13
-1.3666e-11
-2.53691e-12
-1.75844e-11
-2.44725e-08
2.44513e-08
3.08148e-11
2.30065e-11
-2.86768e-12
2.09273e-08
1.62003e-11
-2.99374e-11
-2.18216e-11
7.85519e-12
1.98946e-08
-2.32837e-11
-1.42517e-11
-1.37819e-08
7.45039e-12
1.37699e-08
2.62573e-12
2.93656e-12
-2.12983e-11
-8.10893e-12
-2.2966e-11
-2.34625e-08
2.34361e-08
3.76921e-11
3.30083e-11
-2.20987e-12
1.98786e-08
1.41011e-11
-3.75244e-11
-3.33573e-11
-7.42723e-09
-5.74999e-13
1.80412e-13
-4.48977e-12
2.71447e-12
-4.41988e-13
2.88617e-12
-7.28279e-09
-4.02597e-12
-1.62238e-12
-2.96443e-12
3.8029e-12
1.99485e-12
2.82244e-12
-1.653e-08
-3.39559e-12
-2.64748e-12
1.11276e-11
1.35537e-11
1.65114e-08
-2.88906e-12
6.07527e-09
-1.33376e-14
-3.30682e-12
-3.09079e-12
6.0457e-09
-1.12127e-12
-2.83216e-12
-1.13369e-11
-1.35716e-11
-2.83414e-13
6.06911e-09
3.04228e-12
1.40934e-12
6.03872e-09
2.92769e-12
5.66505e-12
-1.72053e-11
2.0944e-08
-2.09275e-08
1.13357e-11
-1.63159e-11
-2.44722e-08
-1.75995e-11
3.0535e-11
2.44512e-08
2.29128e-11
4.2762e-13
-1.37773e-11
-2.35958e-08
-2.59276e-12
-1.41415e-08
5.90703e-12
3.29101e-13
1.41327e-08
2.57298e-12
-1.41324e-08
-1.42772e-13
-2.83417e-12
-2.44512e-08
-2.99589e-11
-2.20251e-11
-1.11438e-11
1.60303e-11
2.09274e-08
7.87746e-12
-2.31504e-11
1.98946e-08
-1.98786e-08
1.35403e-11
-1.42318e-11
-2.34625e-08
-2.31215e-11
3.75994e-11
2.34362e-08
3.30343e-11
2.90408e-12
-2.13093e-11
-2.31018e-08
-8.08495e-12
-1.37823e-08
7.45221e-12
-1.31506e-12
1.37705e-08
2.37548e-12
-1.37702e-08
1.02191e-12
-2.35716e-12
-2.34362e-08
-3.74787e-11
-3.32999e-11
-1.35572e-11
1.41006e-11
1.98784e-08
-2.0944e-08
-6.08756e-12
1.76613e-11
1.60689e-11
-5.44902e-12
1.41411e-08
-2.85964e-12
1.72617e-11
2.44723e-08
-2.99377e-11
-2.20532e-11
3.41649e-14
1.48081e-11
2.11064e-12
-1.61998e-11
2.35401e-12
3.05489e-11
2.29404e-11
-1.98947e-08
-7.46169e-12
2.31267e-11
1.3975e-11
-7.80601e-12
1.3782e-08
-2.26164e-12
2.33011e-11
2.34624e-08
-3.75704e-11
-3.34131e-11
-3.45355e-12
2.12396e-11
7.98723e-12
-1.42183e-11
2.28678e-12
3.75577e-11
3.30713e-11
3.03624e-12
3.07478e-12
1.65302e-08
-6.07537e-09
3.30282e-12
6.06926e-09
3.14171e-12
-6.0458e-09
2.74407e-12
6.03886e-09
2.88145e-12
-3.36504e-12
-2.9904e-12
1.65115e-08
-1.52978e-11
-2.28763e-11
2.34192e-08
3.76988e-11
3.74219e-11
-2.59519e-08
-1.57133e-11
2.59462e-08
-2.47171e-08
-2.24792e-11
2.47101e-08
2.34116e-08
-3.39255e-11
-4.22656e-12
2.34104e-08
2.94064e-11
8.12584e-11
-2.58e-08
-1.82226e-11
2.57846e-08
-2.48479e-08
-2.01097e-11
2.48455e-08
2.34024e-08
-2.34191e-08
1.55966e-11
2.24703e-11
2.34114e-08
1.53444e-11
2.59517e-08
-1.29032e-11
2.28096e-11
2.47172e-08
-3.00159e-11
-3.75598e-11
-3.68497e-11
2.69503e-08
-3.62915e-11
-3.94737e-11
2.59458e-08
1.46429e-11
2.47099e-08
3.04499e-11
-1.55407e-11
-2.29796e-11
2.34195e-08
-2.34115e-08
3.81867e-11
3.76397e-11
-2.69506e-08
3.59681e-11
3.87315e-11
-2.59516e-08
-1.55943e-11
1.45515e-11
2.59456e-08
-2.47174e-08
-2.25225e-11
3.05158e-11
2.47102e-08
-2.59458e-08
-1.3099e-11
-2.47102e-08
-3.00138e-11
2.34115e-08
3.93601e-13
1.19666e-07
5.67456e-11
1.2337e-07
-3.00204e-12
2.43511e-11
9.37254e-11
2.61389e-08
-3.22866e-11
-2.5335e-08
2.53897e-11
2.53175e-08
-7.62144e-12
-1.72667e-11
-2.42012e-08
9.31037e-12
2.41979e-08
7.6224e-12
-5.01695e-11
2.61886e-08
7.97955e-12
3.73187e-11
4.59992e-11
2.58175e-08
2.54666e-11
-2.49833e-08
3.67578e-11
2.49521e-08
-2.56652e-11
-1.44467e-11
-2.37357e-08
4.53348e-11
1.36955e-11
2.37151e-08
-1.38906e-11
-2.59563e-11
2.5871e-08
6.90026e-11
-1.76785e-11
2.56196e-08
1.02175e-11
-8.90504e-11
-7.82527e-14
-2.38096e-08
6.95652e-11
2.37825e-08
-2.63797e-08
-1.7796e-11
-7.06697e-12
2.63702e-08
6.85761e-12
2.55531e-08
4.50197e-11
4.06499e-11
2.57892e-08
-2.88998e-11
-2.49873e-08
3.99041e-11
2.49531e-08
-1.45803e-11
-2.57829e-11
-2.37229e-08
4.49218e-11
1.63169e-11
2.37002e-08
-1.69128e-11
2.81031e-11
2.58102e-08
-2.09549e-11
6.84834e-11
2.56187e-08
-8.88665e-11
1.01154e-11
-2.63773e-08
-2.07019e-11
2.63571e-08
-2.37997e-08
6.83543e-11
2.37763e-08
2.56202e-08
1.95274e-11
1.02592e-11
2.61559e-08
5.26301e-11
-2.53159e-08
2.19332e-11
2.53037e-08
-8.47966e-12
-5.86541e-12
-2.41998e-08
9.90676e-12
2.41987e-08
4.73245e-12
-4.16341e-12
2.62406e-08
-5.31099e-11
2.34193e-08
-1.54909e-11
-2.2955e-11
3.81263e-11
3.7597e-11
3.5981e-11
3.87036e-11
-1.56255e-11
-2.59517e-08
2.59459e-08
1.44551e-11
-2.25288e-11
-2.47172e-08
2.47102e-08
3.03154e-11
2.34115e-08
-1.31618e-11
-3.01726e-11
-2.34194e-08
1.55329e-11
2.24722e-11
-3.75625e-11
-3.67886e-11
-3.65149e-11
-3.95278e-11
1.54729e-11
2.59518e-08
-1.31482e-11
2.29196e-11
2.47175e-08
-3.00999e-11
1.44818e-11
3.04707e-11
-2.28093e-12
1.04318e-12
3.10644e-12
-8.44442e-13
1.16657e-07
-3.95296e-11
-1.19773e-12
5.64971e-13
1.11114e-07
2.9511e-11
3.9862e-11
-2.62888e-11
-5.44515e-11
5.32664e-11
-5.64619e-11
5.55435e-11
-1.11115e-07
-4.57469e-11
4.28188e-13
-1.64678e-12
1.12081e-07
1.59601e-11
4.47031e-11
-1.86054e-11
2.65422e-13
2.4087e-11
-2.49294e-11
7.95493e-13
2.89858e-11
4.47068e-11
4.55906e-11
3.06239e-11
2.6813e-08
-2.69629e-08
-2.24083e-12
6.51776e-13
-1.16658e-07
-5.62988e-13
1.23923e-12
1.16659e-07
-1.11116e-07
-3.93922e-11
-1.91687e-12
-3.03156e-13
1.11117e-07
2.96017e-11
4.00843e-11
-2.9776e-11
-5.45219e-11
5.36159e-11
5.57061e-11
-5.38066e-11
-1.12083e-07
-4.40839e-11
3.39991e-14
4.70879e-13
1.12084e-07
1.73476e-11
4.45532e-11
-1.86583e-11
-3.83956e-14
2.40557e-11
6.95746e-13
-2.53223e-11
-2.69623e-08
2.89024e-11
4.47508e-11
4.57822e-11
3.07746e-11
2.68121e-08
-3.85553e-13
1.46311e-12
-1.16658e-07
-1.1181e-12
4.4629e-14
1.16658e-07
-1.11115e-07
-3.86416e-11
-1.77751e-12
-1.54375e-12
1.11114e-07
3.00743e-11
4.07076e-11
-2.56143e-11
-5.46181e-11
5.35989e-11
5.57092e-11
-5.63288e-11
-1.12083e-07
-4.38358e-11
3.66547e-13
-6.3808e-14
1.12083e-07
1.76439e-11
4.47248e-11
-1.84682e-11
-1.60326e-14
2.42316e-11
7.86784e-13
-2.52327e-11
-2.69617e-08
2.87146e-11
4.46575e-11
4.58243e-11
3.09941e-11
2.68115e-08
6.78077e-13
1.04407e-12
-1.16657e-07
-9.40581e-13
-7.55644e-13
1.16657e-07
-1.11112e-07
-3.8451e-11
-9.4864e-13
-2.46709e-12
1.11111e-07
3.03635e-11
4.09805e-11
-2.89446e-11
-5.48035e-11
5.34713e-11
5.55756e-11
-5.41959e-11
-1.1208e-07
-4.38911e-11
4.68169e-13
-1.39589e-13
1.1208e-07
1.75852e-11
4.46597e-11
-1.85595e-11
5.55523e-14
2.43229e-11
8.66224e-13
-2.50649e-11
-2.69608e-08
2.87551e-11
4.47658e-11
4.57659e-11
3.09005e-11
2.68106e-08
6.82082e-13
6.17981e-13
-1.16656e-07
-7.35245e-13
-7.55297e-13
1.16656e-07
-1.11108e-07
-3.83213e-11
-5.53447e-13
-2.29171e-12
1.11106e-07
3.04099e-11
4.09474e-11
-2.54464e-11
-5.47829e-11
5.3198e-11
5.54177e-11
-5.66706e-11
-1.12078e-07
-4.40229e-11
3.86796e-13
5.99588e-15
1.12078e-07
1.74798e-11
4.45258e-11
-1.86859e-11
4.26065e-14
2.43902e-11
8.39019e-13
-2.50147e-11
-2.696e-08
2.87115e-11
4.47438e-11
4.57111e-11
3.09284e-11
2.68099e-08
-5.20722e-13
8.24054e-13
-1.16655e-07
-6.60169e-13
9.41525e-14
1.16656e-07
-1.11104e-07
-3.88026e-11
-8.32794e-13
-1.2441e-12
1.11103e-07
3.00054e-11
4.04908e-11
-2.94862e-11
-5.47194e-11
5.34847e-11
5.56302e-11
-5.40287e-11
-1.12077e-07
-4.39818e-11
2.28564e-13
3.50704e-13
1.12078e-07
1.74808e-11
4.45939e-11
-1.86334e-11
-5.81793e-14
2.42588e-11
7.51157e-13
-2.5293e-11
-2.696e-08
2.86393e-11
4.45581e-11
4.59068e-11
3.09096e-11
2.681e-08
-1.41366e-12
8.19646e-13
-1.16655e-07
-4.18265e-13
7.58459e-13
1.16655e-07
-1.11102e-07
-3.92471e-11
-1.31858e-12
1.28124e-14
1.11101e-07
2.93313e-11
3.99971e-11
-2.65424e-11
-5.45162e-11
5.35909e-11
5.56867e-11
-5.6264e-11
-1.12077e-07
-4.39824e-11
3.1253e-14
5.5387e-13
1.12077e-07
1.74732e-11
4.45504e-11
-1.86721e-11
-4.94841e-14
2.4286e-11
8.21251e-13
-2.51723e-11
-2.69603e-08
2.87119e-11
4.46016e-11
4.58841e-11
3.08134e-11
2.68103e-08
-2.01277e-12
6.86836e-13
-1.16655e-07
-1.28724e-13
1.1924e-12
1.16655e-07
-1.11103e-07
-3.9469e-11
-2.42497e-12
3.0402e-13
1.11104e-07
2.93161e-11
3.98619e-11
-3.01047e-11
-5.44176e-11
5.37533e-11
5.58454e-11
-5.3662e-11
-1.12075e-07
-4.40908e-11
-2.94188e-13
8.58604e-13
1.12076e-07
1.73205e-11
4.4445e-11
-1.87894e-11
9.69065e-14
2.43175e-11
8.74544e-13
-2.50911e-11
-2.69609e-08
2.87598e-11
4.46249e-11
4.5773e-11
3.08361e-11
2.68109e-08
-2.16837e-12
6.28619e-13
-1.16655e-07
-9.64976e-14
1.36033e-12
1.16655e-07
-1.11105e-07
-3.93368e-11
-2.47364e-12
3.92636e-13
1.11105e-07
2.937e-11
3.99398e-11
-2.63917e-11
-5.45302e-11
5.35908e-11
5.57348e-11
-5.62572e-11
-1.12076e-07
-4.41249e-11
-1.62022e-13
9.10854e-13
1.12076e-07
1.73313e-11
4.44519e-11
-1.8705e-11
1.5063e-14
2.42628e-11
7.76623e-13
-2.51638e-11
-2.69614e-08
2.87688e-11
4.45824e-11
4.5864e-11
3.08045e-11
2.68114e-08
-2.16774e-12
7.00323e-13
-1.16655e-07
-3.32684e-13
1.34645e-12
1.16656e-07
-1.11109e-07
-3.92828e-11
-2.17718e-12
2.84699e-15
1.1111e-07
2.95889e-11
4.01107e-11
-2.97192e-11
-5.46857e-11
5.33823e-11
5.55775e-11
-5.407e-11
-1.12076e-07
-4.40262e-11
-4.24303e-15
6.69665e-13
1.12077e-07
1.74309e-11
4.45485e-11
-1.86324e-11
-4.80236e-14
2.40545e-11
7.58535e-13
-2.5317e-11
-2.69618e-08
2.87045e-11
4.46482e-11
4.57698e-11
3.09104e-11
2.68118e-08
-1.8316e-12
9.47113e-13
-1.16655e-07
-7.6514e-13
1.03963e-12
1.16656e-07
-1.11112e-07
-3.91056e-11
-1.69958e-12
-1.78432e-13
1.11112e-07
2.96369e-11
4.03022e-11
-2.60561e-11
-5.47572e-11
5.3242e-11
5.54124e-11
-5.65469e-11
-1.12077e-07
-4.40234e-11
-1.09776e-13
2.03526e-13
1.12078e-07
1.74771e-11
4.45952e-11
-1.8526e-11
-8.28351e-14
2.41714e-11
7.55583e-13
-2.52056e-11
-2.69621e-08
2.86872e-11
4.47718e-11
4.56557e-11
3.09666e-11
2.68121e-08
-1.82986e-12
1.28903e-12
-1.16656e-07
-1.22417e-12
1.3137e-12
1.16656e-07
-1.11113e-07
-3.91241e-11
-1.32279e-12
-2.21997e-13
1.11113e-07
3.00223e-11
4.02861e-11
-2.99355e-11
-5.46841e-11
5.33816e-11
5.55743e-11
-5.40176e-11
-1.12078e-07
-4.38817e-11
1.75112e-13
-3.05923e-13
1.12079e-07
1.75623e-11
4.47483e-11
-1.84008e-11
-2.12149e-13
2.41469e-11
6.91638e-13
-2.53e-11
-2.69618e-08
2.87194e-11
4.4778e-11
4.57321e-11
3.08558e-11
2.68117e-08
-1.67558e-12
1.64975e-12
-1.16657e-07
-1.48181e-12
1.09001e-12
1.16657e-07
-1.11111e-07
-3.89505e-11
-1.35329e-12
-5.34658e-13
1.1111e-07
2.99818e-11
4.03624e-11
-2.63492e-11
-5.47155e-11
5.34183e-11
5.55563e-11
-5.63279e-11
-1.1208e-07
-4.38964e-11
1.5322e-14
-3.07073e-13
1.12081e-07
1.7564e-11
4.47377e-11
-1.85333e-11
-1.19383e-13
2.41683e-11
7.46604e-13
-2.51124e-11
-2.69619e-08
2.87222e-11
4.46562e-11
4.58436e-11
3.08423e-11
2.68118e-08
-1.5923e-12
1.19975e-12
-1.16657e-07
-1.12244e-12
1.17013e-12
1.16657e-07
-1.1111e-07
-3.91358e-11
-1.43772e-12
-5.06744e-13
1.11111e-07
3.00309e-11
4.02622e-11
-2.98932e-11
-5.4626e-11
5.35128e-11
5.56812e-11
-5.40814e-11
-1.12081e-07
-4.39661e-11
-2.09012e-14
-2.74759e-14
1.12082e-07
1.75047e-11
4.46731e-11
-1.86038e-11
1.10823e-15
2.41355e-11
8.37425e-13
-2.51701e-11
-2.69619e-08
2.87875e-11
4.47303e-11
4.58046e-11
3.0763e-11
2.68118e-08
-1.68531e-12
8.19173e-13
-1.16657e-07
-9.12364e-13
1.17128e-12
1.16658e-07
-1.1111e-07
-3.91065e-11
-1.38472e-12
-3.19091e-13
1.11109e-07
2.99671e-11
4.0269e-11
-2.63998e-11
-5.47968e-11
5.33672e-11
5.55185e-11
-5.64269e-11
-1.12082e-07
-4.40641e-11
1.48321e-13
2.89566e-13
1.12083e-07
1.74168e-11
4.45578e-11
-1.86676e-11
4.48693e-14
2.41822e-11
8.38018e-13
-2.52032e-11
-2.6962e-08
2.88245e-11
4.47087e-11
4.57546e-11
3.08018e-11
2.68119e-08
-1.41623e-12
8.03526e-13
-1.16659e-07
-8.61572e-13
7.10997e-13
1.16659e-07
-1.11111e-07
-3.91666e-11
-1.49291e-12
-3.88983e-13
1.11111e-07
3.00375e-11
4.01869e-11
-3.00311e-11
-5.46908e-11
5.34645e-11
5.56353e-11
-5.40668e-11
-1.12083e-07
-4.40728e-11
2.60027e-13
3.77789e-13
1.12084e-07
1.735e-11
4.45258e-11
-1.87452e-11
-8.41868e-14
2.41443e-11
7.39889e-13
-2.51802e-11
-2.69622e-08
2.89032e-11
4.46806e-11
4.57459e-11
3.07151e-11
2.68122e-08
-1.37284e-13
1.37879e-12
-1.16659e-07
-8.393e-13
1.40731e-13
1.16659e-07
-1.11111e-07
-3.89725e-11
-1.45424e-12
-4.8639e-13
1.1111e-07
3.00251e-11
4.03875e-11
-2.62656e-11
-5.47335e-11
5.33041e-11
5.56239e-11
-5.65669e-11
-1.12084e-07
-4.39513e-11
-1.46683e-13
5.03951e-13
1.12083e-07
1.75123e-11
4.47575e-11
-1.47716e-11
5.74103e-14
2.41402e-11
6.84621e-13
-2.75611e-11
-2.69623e-08
2.88275e-11
4.46408e-11
4.5877e-11
3.07186e-11
2.68122e-08
2.79216e-12
1.13137e-07
2.34177e-11
2.21065e-11
-2.41282e-11
-2.44707e-11
-3.63771e-11
2.72484e-12
1.6842e-12
1.13168e-07
1.28927e-11
3.66831e-11
-1.86231e-11
2.29898e-11
2.15508e-11
-2.20024e-11
-2.43446e-11
-1.13165e-07
1.13139e-07
2.06798e-12
-1.13138e-07
1.6222e-12
-2.38908e-11
-2.46741e-11
2.28324e-11
2.22463e-11
3.69455e-11
1.13168e-07
2.94411e-12
-1.13169e-07
1.49219e-12
-3.59894e-11
-1.45989e-11
1.70723e-11
-2.42836e-11
-2.45608e-11
1.92143e-11
2.28852e-11
3.70396e-11
3.80343e-11
2.68014e-08
-2.69524e-08
-4.00587e-11
2.69527e-08
-2.68016e-08
-3.70891e-11
-3.69703e-11
1.2863e-13
1.11128e-07
-5.42958e-11
5.31146e-11
5.5717e-11
-5.38238e-11
-2.84558e-11
1.35266e-12
-8.53371e-13
1.12155e-07
2.65859e-11
2.9924e-11
-2.69952e-11
-3.53103e-11
5.18338e-11
-5.3187e-11
3.56099e-11
1.11129e-07
-1.17528e-12
-1.11128e-07
2.23101e-13
5.56143e-11
-5.40485e-11
-5.47459e-11
5.31124e-11
3.0192e-11
1.12155e-07
2.86746e-13
-1.12155e-07
-8.89275e-14
-2.8788e-11
-2.71201e-11
2.65471e-11
3.563e-11
-5.33831e-11
5.21831e-11
-3.5587e-11
1.39285e-12
-3.68809e-13
1.12164e-07
2.59385e-11
3.01846e-11
-2.69244e-11
-3.58482e-11
5.26398e-11
-5.41034e-11
3.55779e-11
-1.12163e-07
-9.24882e-13
-1.11115e-07
-2.92213e-13
-3.94889e-11
-2.97406e-11
2.59084e-11
5.58415e-11
-5.3939e-11
-5.4575e-11
5.60555e-11
3.02517e-11
1.12164e-07
3.76052e-13
-1.12163e-07
-1.86861e-13
-2.87941e-11
-2.68575e-11
2.61688e-11
3.59741e-11
-5.37861e-11
5.24985e-11
-3.57666e-11
4.49758e-11
3.19409e-11
2.68054e-08
-4.46665e-11
2.69537e-08
-2.68047e-08
-4.42434e-11
-2.98981e-11
6.45352e-13
1.07042e-12
1.12132e-07
1.70848e-11
4.46664e-11
-1.88296e-11
-1.44429e-13
2.33139e-11
-2.5139e-11
7.32004e-14
-1.1213e-07
6.6179e-13
-1.12083e-07
3.63041e-13
-4.40196e-11
-1.87112e-11
1.7491e-11
8.75121e-13
-2.52568e-11
-1.98125e-13
2.42728e-11
4.51905e-11
1.12132e-07
7.9967e-13
-1.12132e-07
2.33963e-13
-4.45908e-11
-1.85826e-11
1.75382e-11
4.45029e-13
-2.5128e-11
2.37537e-11
-9.87284e-14
-2.68124e-08
-4.51157e-11
-2.93376e-11
3.60039e-11
3.8665e-11
3.82405e-11
3.7562e-11
2.68001e-08
-3.66898e-11
-4.00156e-11
2.69505e-08
-2.68001e-08
-3.7066e-11
-3.66006e-11
1.59194e-12
1.13139e-07
1.31358e-11
3.64903e-11
-1.45338e-11
2.30496e-11
2.22631e-11
-2.38805e-11
-2.44094e-11
-3.61514e-11
2.54378e-12
1.58069e-12
1.13168e-07
1.29975e-11
3.68666e-11
-1.45866e-11
2.3287e-11
2.17754e-11
-2.41796e-11
-2.42186e-11
1.13138e-07
3.45735e-13
-1.13138e-07
9.89788e-13
-3.57416e-11
-1.43748e-11
1.33497e-11
-2.3375e-11
-2.41558e-11
2.27578e-11
2.33155e-11
3.68605e-11
1.13167e-07
9.8656e-13
-1.13167e-07
1.22835e-12
-3.61167e-11
-1.44881e-11
1.3159e-11
-2.36533e-11
-2.38599e-11
2.23965e-11
2.34636e-11
3.72662e-11
3.83967e-11
2.68015e-08
-4.07638e-11
2.69524e-08
-2.68013e-08
-3.62371e-11
-3.71973e-11
1.48471e-14
1.11129e-07
3.00572e-11
3.96813e-11
-3.04279e-11
-5.45941e-11
5.31255e-11
5.54312e-11
-5.39453e-11
-2.87962e-11
2.50382e-13
1.16053e-13
1.12155e-07
2.65331e-11
3.01615e-11
-2.71856e-11
-3.54035e-11
5.21523e-11
3.55696e-11
-5.32417e-11
1.11128e-07
-1.6863e-12
-1.11128e-07
-9.82514e-13
-3.82838e-11
-3.01278e-11
3.03853e-11
5.57413e-11
-5.38204e-11
5.33802e-11
-5.45968e-11
3.01624e-11
1.12154e-07
-6.48515e-13
-1.12154e-07
7.20821e-14
-2.87045e-11
-2.71068e-11
2.66676e-11
3.58512e-11
-5.32522e-11
5.23907e-11
-3.53704e-11
-2.19505e-13
-2.94448e-14
1.12164e-07
2.6144e-11
3.03878e-11
-2.66694e-11
-3.55206e-11
5.24747e-11
-5.36211e-11
3.58913e-11
-1.42791e-12
-1.11116e-07
-1.46863e-12
-3.86877e-11
-2.93077e-11
3.01247e-11
5.58762e-11
-5.39256e-11
-5.45919e-11
5.37116e-11
3.04282e-11
1.12162e-07
-3.84397e-13
-1.12162e-07
-1.16938e-13
-2.86783e-11
-2.65564e-11
2.63894e-11
3.594e-11
-5.36569e-11
5.26318e-11
-3.56733e-11
4.51361e-11
3.13157e-11
2.68043e-08
-4.48226e-11
2.69528e-08
-2.68038e-08
-4.41424e-11
-2.99271e-11
5.78252e-13
6.65308e-14
1.12132e-07
1.73938e-11
4.5363e-11
-1.84114e-11
2.08142e-13
2.36721e-11
-2.47252e-11
4.15304e-13
7.92024e-13
-1.12084e-07
-8.23626e-14
-4.37952e-11
-1.84704e-11
1.77133e-11
8.98313e-13
-2.5206e-11
-6.03601e-14
2.42943e-11
4.5317e-11
1.12131e-07
3.76741e-13
-1.12131e-07
1.04672e-13
-4.45858e-11
-1.84844e-11
1.75031e-11
6.8935e-13
-2.48019e-11
2.38653e-11
1.88455e-13
-2.68118e-08
-4.50174e-11
-2.9199e-11
3.57927e-11
3.82225e-11
3.87616e-11
3.77785e-11
2.67999e-08
-3.66218e-11
-4.03872e-11
2.695e-08
-2.67996e-08
-3.65796e-11
-3.67618e-11
9.22715e-13
1.13138e-07
1.33058e-11
3.66012e-11
-1.43669e-11
2.35453e-11
2.27898e-11
-2.32886e-11
-2.40058e-11
-3.62119e-11
6.13577e-13
1.39357e-12
1.13168e-07
1.30742e-11
3.67629e-11
-1.8554e-11
2.3847e-11
2.25244e-11
-2.34961e-11
-2.11405e-11
1.13137e-07
-8.67582e-13
-1.13137e-07
6.99244e-13
-3.5766e-11
-1.44649e-11
1.32751e-11
-2.28883e-11
-2.37082e-11
2.32587e-11
2.37994e-11
3.67143e-11
1.13165e-07
-4.33444e-13
-1.13166e-07
2.02303e-12
-3.61385e-11
-1.48227e-11
1.68579e-11
-2.30826e-11
-2.35315e-11
2.032e-11
2.3998e-11
3.81868e-11
3.81916e-11
2.68011e-08
-4.0994e-11
2.69515e-08
-2.68005e-08
-3.59398e-11
-3.73648e-11
-1.14423e-12
1.11128e-07
3.04368e-11
4.00577e-11
-3.00994e-11
-5.44904e-11
5.32781e-11
5.56746e-11
-5.37923e-11
-2.8774e-11
-7.17207e-13
3.43769e-13
1.12153e-07
2.66551e-11
3.01036e-11
-2.70576e-11
-3.52478e-11
5.23327e-11
3.58527e-11
-5.30515e-11
1.11126e-07
-1.41476e-12
-1.11126e-07
-1.84579e-12
-3.7887e-11
-2.98237e-11
3.07491e-11
5.56267e-11
-5.38747e-11
5.32405e-11
-5.46613e-11
3.01969e-11
1.12151e-07
-6.94004e-13
-1.12152e-07
2.7344e-13
-2.86547e-11
-2.70529e-11
2.67635e-11
3.58889e-11
-5.31659e-11
5.24885e-11
-3.54115e-11
-5.44293e-13
-6.79878e-14
1.12161e-07
2.63192e-11
3.04307e-11
-2.65858e-11
-3.54815e-11
5.26812e-11
-5.34876e-11
3.60256e-11
-4.30332e-13
-1.11112e-07
-2.47464e-12
-3.8469e-11
-2.894e-11
2.67869e-11
5.56094e-11
-5.40535e-11
-5.47678e-11
5.59893e-11
3.03508e-11
1.12158e-07
3.30527e-13
-1.12159e-07
2.53864e-13
-2.87321e-11
-2.6574e-11
2.63377e-11
3.59242e-11
-5.37097e-11
5.25508e-11
-3.57928e-11
4.53648e-11
3.13015e-11
2.68035e-08
-4.48088e-11
2.69522e-08
-2.68031e-08
-4.42004e-11
-2.9848e-11
4.0054e-13
9.10037e-14
1.1213e-07
1.74448e-11
4.5262e-11
-1.84656e-11
2.81536e-13
2.39129e-11
-2.46164e-11
5.59509e-13
1.04895e-12
-1.12081e-07
-3.46233e-13
-4.37708e-11
-1.84426e-11
1.77647e-11
9.16865e-13
-2.51291e-11
-9.78865e-15
2.44212e-11
4.51671e-11
1.12128e-07
7.74402e-13
-1.12128e-07
9.2965e-13
-4.47126e-11
-1.86661e-11
1.73764e-11
6.37747e-13
-2.47363e-11
2.39274e-11
1.95129e-13
-2.68108e-08
-4.51503e-11
-2.93054e-11
3.58514e-11
3.78697e-11
3.91709e-11
3.76784e-11
2.67994e-08
-3.64543e-11
-4.04574e-11
2.69493e-08
-2.6799e-08
-3.64595e-11
-3.69626e-11
9.1571e-13
1.13137e-07
1.31295e-11
3.65492e-11
-1.45613e-11
2.40072e-11
2.32045e-11
-2.28696e-11
-2.35129e-11
-3.6407e-11
-5.19558e-13
2.24901e-12
1.13164e-07
1.26834e-11
3.65893e-11
-1.49633e-11
2.4252e-11
2.28117e-11
-2.30524e-11
-2.32571e-11
1.13136e-07
-1.15056e-12
-1.13136e-07
1.14506e-12
-3.59562e-11
-1.47214e-11
1.2962e-11
-2.268e-11
-2.34051e-11
2.337e-11
2.39786e-11
3.6614e-11
1.13162e-07
-6.79894e-13
-1.13163e-07
2.0119e-12
-3.63486e-11
-1.49045e-11
1.27471e-11
-2.29006e-11
-2.32477e-11
2.30972e-11
2.4104e-11
3.84021e-11
3.80131e-11
2.68003e-08
-4.11282e-11
2.69508e-08
-2.67997e-08
-3.5797e-11
-3.74853e-11
-1.99173e-12
1.11125e-07
3.07737e-11
4.03853e-11
-2.97386e-11
-5.46188e-11
5.32139e-11
5.55267e-11
-5.39689e-11
-2.86899e-11
-4.97658e-13
5.39499e-13
1.1215e-07
2.66972e-11
3.02037e-11
-2.70222e-11
-3.52626e-11
5.22438e-11
3.57641e-11
-5.31386e-11
1.11123e-07
-1.09763e-12
-1.11123e-07
-2.27264e-12
-3.77884e-11
-2.96922e-11
3.08231e-11
5.55118e-11
-5.40133e-11
5.31484e-11
-5.47681e-11
3.02982e-11
1.12147e-07
-2.31141e-13
-1.12148e-07
2.74983e-13
-2.85675e-11
-2.69126e-11
2.67769e-11
3.5726e-11
-5.33334e-11
5.22114e-11
-3.54048e-11
3.31953e-13
3.9662e-13
1.12157e-07
2.63553e-11
3.03542e-11
-2.66365e-11
-3.5696e-11
5.25308e-11
-5.35983e-11
3.58514e-11
-3.79882e-14
-1.11109e-07
-2.61651e-12
-3.82284e-11
-2.88939e-11
3.0547e-11
5.54552e-11
-5.42831e-11
-5.49515e-11
5.33307e-11
3.03731e-11
1.12153e-07
8.3153e-13
-1.12154e-07
4.26524e-13
-2.87266e-11
-2.6666e-11
2.63305e-11
3.58301e-11
-5.37743e-11
5.24787e-11
-3.594e-11
4.52931e-11
3.14545e-11
2.68028e-08
-4.46915e-11
2.69513e-08
-2.68022e-08
-4.43483e-11
-2.97391e-11
5.97127e-13
7.56425e-13
1.12127e-07
1.72962e-11
4.51417e-11
-1.86712e-11
3.80038e-13
2.39323e-11
-2.46104e-11
6.61933e-13
9.97862e-13
-1.12079e-07
-2.84261e-13
-4.39066e-11
-1.85317e-11
1.7649e-11
9.48834e-13
-2.50884e-11
5.12282e-14
2.4334e-11
4.51384e-11
1.12124e-07
8.12868e-13
-1.12125e-07
9.16425e-13
-4.47477e-11
-1.86031e-11
1.73155e-11
6.75191e-13
-2.48478e-11
2.38231e-11
1.77983e-13
-2.681e-08
-4.52551e-11
-2.92873e-11
3.60279e-11
3.78596e-11
3.92861e-11
3.74433e-11
2.67987e-08
-3.66324e-11
-4.02527e-11
2.69489e-08
-2.67984e-08
-3.6846e-11
-3.6691e-11
1.2759e-12
1.13135e-07
1.28873e-11
3.63856e-11
-1.48074e-11
2.40427e-11
2.34609e-11
-2.27293e-11
-2.33854e-11
-3.63619e-11
-4.95165e-13
2.02293e-12
1.13163e-07
1.27018e-11
3.65929e-11
-1.88744e-11
2.42184e-11
2.30354e-11
-2.29164e-11
-2.06952e-11
1.13133e-07
-1.82303e-13
-1.13133e-07
1.04373e-12
-3.58134e-11
-1.45859e-11
1.30747e-11
-2.28764e-11
-2.36905e-11
2.32351e-11
2.36876e-11
3.68575e-11
1.13159e-07
8.85295e-14
-1.13161e-07
1.47629e-12
-3.60359e-11
-1.47287e-11
1.68665e-11
-2.31079e-11
-2.36232e-11
2.02649e-11
2.38693e-11
3.85917e-11
3.79828e-11
2.67995e-08
-4.07289e-11
2.69502e-08
-2.67991e-08
-3.6346e-11
-3.7149e-11
-2.1182e-12
1.11122e-07
3.07987e-11
4.0379e-11
-2.97501e-11
-5.46797e-11
5.30637e-11
5.54345e-11
-5.40472e-11
-2.86086e-11
1.50948e-14
4.92843e-13
1.12146e-07
2.67531e-11
3.02636e-11
-2.69913e-11
-3.54431e-11
5.21424e-11
3.56636e-11
-5.33493e-11
1.1112e-07
-1.04356e-12
-1.1112e-07
-1.89835e-12
-3.79704e-11
-2.98409e-11
3.06932e-11
5.55544e-11
-5.40384e-11
5.31168e-11
-5.46893e-11
3.02491e-11
1.12143e-07
2.97039e-13
-1.12144e-07
1.25215e-13
-2.86334e-11
-2.69901e-11
2.6728e-11
3.55701e-11
-5.34017e-11
5.22366e-11
-3.56053e-11
7.04045e-13
4.94598e-13
1.12152e-07
2.62948e-11