/*--------------------------------*- C++ -*----------------------------------*\
| =========                 |                                                 |
| \\      /  F ield         | OpenFOAM: The Open Source CFD Toolbox           |
|  \\    /   O peration     | Version:  2206                                  |
|   \\  /    A nd           | Website:  www.openfoam.com                      |
|    \\/     M anipulation  |                                                 |
\*---------------------------------------------------------------------------*/
FoamFile
{
    version     2.0;
    format      ascii;
    arch        "LSB;label=32;scalar=64";
    class       volVectorField;
    location    "60";
    object      U;
}
// * * * * * * * * * * * * * * * * * * * * * * * * * * * * * * * * * * * * * //

dimensions      [0 1 -1 0 0 0 0];

internalField   nonuniform List<vector> 
66928
(
(-0.000204183 -0.000205201 0.126423)
(3.43238e-06 4.48474e-06 0.130588)
(5.43402e-07 1.47518e-06 0.130465)
(2.04817e-06 -8.32827e-07 0.130463)
(-0.000203564 0.000207246 0.126414)
(2.42299e-06 -2.41609e-06 0.130564)
(0.000198427 0.000199093 0.126501)
(-0.000204777 -0.000205605 0.126423)
(-7.2633e-07 1.15969e-06 0.135224)
(-4.68949e-08 4.80985e-07 0.135217)
(-9.52984e-06 -1.12608e-05 0.067174)
(-1.53245e-05 -4.24946e-06 0.0669592)
(-2.79517e-05 -1.16591e-05 0.0923682)
(-1.5275e-05 -2.08762e-05 0.0919576)
(-6.57413e-06 -3.73179e-05 0.0784464)
(-3.54195e-05 -3.51508e-05 0.105986)
(-3.66509e-05 -2.54913e-06 0.0779957)
(-5.42151e-05 7.88185e-07 0.10291)
(-3.78513e-05 -3.03391e-05 0.10544)
(-1.8954e-06 -4.03293e-07 0.132631)
(-5.19352e-05 -5.53911e-08 0.117378)
(-3.58464e-05 3.34978e-06 0.0780137)
(-5.40228e-05 -2.6142e-07 0.102908)
(-1.92343e-06 1.67772e-06 0.13264)
(-3.78122e-05 3.07094e-05 0.105436)
(-5.2338e-05 5.91825e-07 0.117374)
(-1.45731e-05 5.61763e-06 0.0669745)
(-1.50667e-05 2.1754e-05 0.0919737)
(-2.73389e-05 1.26292e-05 0.0924043)
(-1.09035e-05 1.44868e-05 0.0671852)
(-3.62318e-05 3.54926e-05 0.105999)
(-9.33067e-06 3.9083e-05 0.0784739)
(9.31115e-06 1.82693e-05 0.0671532)
(-1.27543e-05 -1.15479e-05 0.0671653)
(1.16339e-05 6.76941e-06 0.0670373)
(-1.58555e-05 -4.73669e-06 0.06696)
(2.69049e-05 1.62807e-05 0.092481)
(1.31189e-05 2.18896e-05 0.0922056)
(-0.000204855 -0.000205078 0.126424)
(-2.89653e-05 -1.05484e-05 0.0923738)
(-1.5389e-05 -2.12671e-05 0.0919558)
(-1.08526e-05 -1.1132e-05 0.0671613)
(8.04984e-06 1.73771e-05 0.0671453)
(-1.3413e-05 -4.17387e-06 0.0669629)
(1.1224e-05 6.32092e-06 0.0670403)
(0.000197178 0.000198459 0.126501)
(-2.78724e-05 -1.11104e-05 0.0923807)
(-1.50195e-05 -2.09299e-05 0.0919569)
(2.62239e-05 1.63467e-05 0.092486)
(1.33363e-05 2.17206e-05 0.0922045)
(1.16864e-05 1.61635e-05 0.0671576)
(2.27191e-05 6.76833e-05 0.102534)
(-1.97946e-05 -6.5204e-05 0.112808)
(2.66475e-05 1.46655e-05 0.0924824)
(-1.74557e-05 -1.18002e-05 0.0774221)
(1.77094e-05 1.43742e-05 0.0774679)
(2.52082e-05 6.95025e-05 0.113068)
(-2.09057e-05 -6.57131e-05 0.102267)
(7.09382e-05 1.31091e-05 0.102383)
(-6.98803e-05 -1.67869e-05 0.112503)
(1.38359e-05 2.20982e-05 0.0922128)
(-1.57529e-05 -1.2771e-05 0.0771445)
(1.40482e-05 1.05637e-05 0.0772628)
(7.32143e-05 1.63776e-05 0.112894)
(-7.02589e-05 -1.53154e-05 0.102056)
(1.78969e-05 1.42693e-05 0.0840777)
(-1.7421e-05 -1.09699e-06 0.0656906)
(-6.36455e-06 -1.16882e-05 0.0656353)
(1.56808e-05 4.36868e-06 0.0657353)
(3.67431e-06 1.11071e-05 0.0657033)
(-1.73813e-05 -1.20525e-05 0.083852)
(1.05523e-05 3.79918e-05 0.078419)
(-1.02721e-05 -4.49022e-05 0.0907187)
(4.20174e-06 4.20222e-05 0.0907088)
(-1.02598e-06 -1.46153e-05 0.0652408)
(-4.20941e-05 -7.69741e-07 0.0900323)
(-1.38426e-05 2.73898e-06 0.0649278)
(-5.23146e-05 1.52801e-06 0.0998524)
(-1.02901e-05 1.17715e-06 0.0741042)
(-1.13956e-05 2.7219e-06 0.0714861)
(-4.11899e-05 2.14688e-06 0.0900433)
(-1.35495e-05 -7.35979e-07 0.0649461)
(-1.03991e-05 1.35899e-07 0.0741108)
(-5.28038e-05 -4.82606e-07 0.0998555)
(-1.16991e-05 -1.16774e-06 0.0715053)
(7.05221e-05 -1.33267e-05 0.102379)
(-6.90832e-05 1.73546e-05 0.112523)
(1.45933e-05 -2.13988e-05 0.0922299)
(-1.45775e-05 1.31102e-05 0.0771536)
(7.31409e-05 -1.75146e-05 0.112914)
(1.42542e-05 -9.98062e-06 0.0772699)
(-6.86488e-05 1.61877e-05 0.102052)
(2.16944e-05 -6.75917e-05 0.102546)
(-1.92809e-05 6.75612e-05 0.11278)
(2.85204e-05 -1.34808e-05 0.0925133)
(-1.79752e-05 1.36221e-05 0.0774612)
(1.65267e-05 -1.40117e-05 0.0775007)
(2.43952e-05 -6.82244e-05 0.113038)
(-2.06009e-05 6.779e-05 0.102284)
(1.83183e-05 -1.26885e-05 0.0841013)
(-5.7633e-06 1.18032e-05 0.0656544)
(-1.64496e-05 2.94552e-06 0.0657187)
(4.75712e-06 -1.05501e-05 0.0657216)
(1.56682e-05 -2.27636e-06 0.0657585)
(-1.70573e-05 1.27714e-05 0.0838773)
(1.00044e-05 -1.26795e-05 0.0671642)
(7.74732e-06 -3.92424e-05 0.0784516)
(-6.02521e-06 4.62762e-05 0.0907798)
(7.72344e-06 -4.39731e-05 0.0907968)
(-5.94399e-07 1.97683e-05 0.0652319)
(-1.12497e-05 -8.07212e-06 0.0671699)
(8.02212e-06 1.84913e-05 0.067148)
(-1.23239e-05 -3.78736e-06 0.0669589)
(1.19563e-05 6.46983e-06 0.0670371)
(1.64497e-05 1.37518e-05 0.0840817)
(-1.79941e-05 -1.58808e-06 0.0656943)
(-7.0839e-06 -1.10978e-05 0.0656409)
(1.49265e-05 4.89523e-06 0.0657359)
(3.7277e-06 1.27884e-05 0.0657075)
(-1.83656e-05 -1.23056e-05 0.083854)
(-2.13798e-05 -6.69485e-05 0.102267)
(2.59699e-05 7.07384e-05 0.113064)
(1.70782e-05 1.6459e-05 0.0774659)
(-2.78127e-05 -1.0058e-05 0.0923726)
(2.22459e-05 6.84537e-05 0.102537)
(-1.69002e-05 -1.1586e-05 0.0774266)
(-1.98878e-05 -6.61575e-05 0.112806)
(-7.14119e-05 -1.43045e-05 0.102055)
(7.29564e-05 1.64283e-05 0.112892)
(1.43067e-05 1.11525e-05 0.0772592)
(-1.49615e-05 -2.04242e-05 0.0919578)
(7.09464e-05 1.34053e-05 0.102386)
(-1.65648e-05 -1.03045e-05 0.0771467)
(-7.09324e-05 -1.59846e-05 0.112503)
(-1.89909e-05 -1.29227e-05 0.083854)
(1.54287e-05 6.14358e-06 0.0657365)
(4.91742e-06 1.24568e-05 0.0657068)
(1.77388e-05 1.46959e-05 0.0840816)
(-1.66352e-05 -1.29848e-06 0.0656931)
(-7.13955e-06 -9.7364e-06 0.0656395)
(2.18443e-05 6.77998e-05 0.102535)
(-1.95578e-05 -1.15469e-05 0.0774275)
(2.6776e-05 1.69007e-05 0.0924898)
(-2.06331e-05 -6.49728e-05 0.112804)
(1.67843e-05 1.62114e-05 0.0774712)
(-2.198e-05 -6.58521e-05 0.102267)
(2.5245e-05 6.97831e-05 0.113065)
(7.02616e-05 1.36777e-05 0.102385)
(-1.67645e-05 -1.25205e-05 0.0771469)
(1.35776e-05 2.21579e-05 0.0922115)
(-7.03609e-05 -1.6671e-05 0.112502)
(1.34873e-05 1.21792e-05 0.0772631)
(-7.04056e-05 -1.47319e-05 0.102055)
(7.211e-05 1.65327e-05 0.112894)
(8.99352e-06 1.75039e-05 0.067142)
(-1.11969e-05 -9.69654e-06 0.0671633)
(1.26996e-05 6.46085e-06 0.06704)
(-1.31408e-05 -3.95523e-06 0.0669632)
(-1.86066e-05 -1.28741e-05 0.0838562)
(1.47321e-05 5.05892e-06 0.0657397)
(4.69547e-06 1.24176e-05 0.0657114)
(1.69127e-05 1.394e-05 0.0840842)
(-1.65256e-05 -1.96463e-06 0.0656953)
(-6.60751e-06 -1.04174e-05 0.0656419)
(2.13126e-05 6.72836e-05 0.102536)
(-2.06827e-05 -6.61694e-05 0.112804)
(2.69467e-05 1.61746e-05 0.0924905)
(-1.77611e-05 -1.27243e-05 0.0774314)
(1.69096e-05 1.553e-05 0.0774739)
(2.48814e-05 6.97424e-05 0.113062)
(-2.19838e-05 -6.72063e-05 0.102268)
(7.04534e-05 1.37816e-05 0.102385)
(-7.08799e-05 -1.61611e-05 0.112503)
(1.36614e-05 2.21142e-05 0.0922064)
(-1.63426e-05 -1.10905e-05 0.077151)
(1.38175e-05 1.22624e-05 0.077264)
(7.24923e-05 1.69606e-05 0.112893)
(-7.06514e-05 -1.41474e-05 0.102054)
(-2.16212e-05 -6.65569e-05 0.102269)
(1.57659e-05 1.64639e-05 0.0774715)
(2.4321e-05 6.99146e-05 0.113062)
(-2.79307e-05 -1.05646e-05 0.0923771)
(2.15266e-05 6.81713e-05 0.102535)
(-1.74138e-05 -1.15197e-05 0.07743)
(-2.07237e-05 -6.59325e-05 0.112805)
(-7.09773e-05 -1.42782e-05 0.102056)
(1.3864e-05 1.11907e-05 0.0772626)
(7.21046e-05 1.60749e-05 0.112893)
(-1.50421e-05 -2.04876e-05 0.0919556)
(7.07284e-05 1.34591e-05 0.102385)
(-1.59668e-05 -1.0472e-05 0.0771492)
(-7.0602e-05 -1.60527e-05 0.112503)
(1.73769e-05 1.40588e-05 0.0840847)
(-1.64686e-05 -2.77872e-06 0.0656974)
(-6.34346e-06 -1.08456e-05 0.0656438)
(1.56029e-05 4.1248e-06 0.0657397)
(4.73979e-06 1.26378e-05 0.0657116)
(-1.80684e-05 -1.28984e-05 0.0838567)
(7.18927e-05 6.41089e-05 0.114899)
(0.00019826 0.000199241 0.126497)
(-0.000200287 -5.59406e-05 0.121506)
(-5.90284e-05 -0.00019927 0.121363)
(0.000204241 5.90265e-05 0.121691)
(6.14257e-05 0.000198426 0.121608)
(-7.05341e-05 -6.52857e-05 0.114646)
(6.93967e-05 -6.49084e-05 0.114897)
(0.000197034 -0.000196602 0.12649)
(-5.87455e-05 0.000201194 0.121401)
(-0.000196324 5.76837e-05 0.121446)
(6.15433e-05 -0.000201097 0.121643)
(0.000202273 -5.72708e-05 0.121637)
(-6.85393e-05 6.79701e-05 0.114642)
(-7.12127e-05 -6.54968e-05 0.114644)
(0.000204412 5.92163e-05 0.121691)
(6.1341e-05 0.000198652 0.121609)
(-0.000204377 -0.000205209 0.126423)
(7.10607e-05 6.39101e-05 0.1149)
(-0.000200552 -5.68314e-05 0.121504)
(-6.00181e-05 -0.000198772 0.121363)
(7.01423e-05 6.32059e-05 0.1149)
(0.000197189 0.000198107 0.1265)
(-0.000200347 -5.67145e-05 0.121502)
(-5.9699e-05 -0.000198014 0.121364)
(0.000203985 5.89508e-05 0.121688)
(6.07892e-05 0.000198725 0.121609)
(-7.12027e-05 -6.54922e-05 0.114645)
(2.71374e-07 1.73465e-06 0.136743)
(-9.89376e-08 -8.59239e-07 0.136763)
(6.83318e-06 0.000235936 0.122501)
(-1.03888e-05 -0.000223216 0.118934)
(3.4703e-05 3.8129e-05 0.106083)
(-1.51561e-05 -4.89815e-05 0.112936)
(1.58815e-05 0.000232882 0.119078)
(1.36253e-05 5.06433e-05 0.113025)
(-3.573e-06 -0.00023497 0.122464)
(0.00024406 3.15474e-06 0.122378)
(-0.000232412 -1.23391e-05 0.118601)
(3.88481e-05 2.83267e-05 0.105769)
(-5.03647e-05 -9.72582e-06 0.112323)
(0.00023974 1.07963e-05 0.118931)
(5.03929e-05 8.45586e-06 0.112709)
(-0.000248097 -5.19968e-06 0.122108)
(0.00024227 -1.74356e-08 0.124106)
(5.5796e-05 -6.17344e-07 0.117827)
(-5.4244e-05 -1.90292e-06 0.115918)
(-0.000233142 1.16143e-06 0.124526)
(5.71916e-05 1.92709e-06 0.116345)
(0.000232811 -7.70024e-07 0.124867)
(-0.000238063 -1.25456e-06 0.123803)
(0.000242853 -2.57178e-06 0.122353)
(-0.000230014 1.25977e-05 0.118589)
(3.92279e-05 -2.80059e-05 0.105767)
(-5.01662e-05 1.12183e-05 0.11231)
(5.11387e-05 -7.49447e-06 0.112697)
(0.000237613 -1.05598e-05 0.118917)
(-0.000243734 5.73805e-06 0.122087)
(0.000237286 6.88401e-07 0.124092)
(5.55547e-05 -2.03638e-07 0.117823)
(-0.00023197 -1.38079e-07 0.124522)
(-5.52573e-05 2.95281e-06 0.115907)
(0.000231947 1.45602e-06 0.124863)
(5.61832e-05 -1.79698e-06 0.116335)
(-0.000239548 2.0434e-06 0.123792)
(6.75685e-06 -0.000234077 0.122505)
(-1.17689e-05 0.0002268 0.118923)
(3.54072e-05 -3.88855e-05 0.106095)
(-1.28399e-05 4.94789e-05 0.112928)
(1.52826e-05 -0.00023205 0.119067)
(1.50154e-05 -5.02271e-05 0.11302)
(-3.17107e-06 0.000239944 0.122459)
(7.03958e-05 6.35359e-05 0.114899)
(0.000197972 0.000198854 0.126497)
(-0.000200572 -5.56165e-05 0.121504)
(-5.94112e-05 -0.000198729 0.121364)
(-7.11678e-05 -6.52e-05 0.114644)
(0.000204161 5.87305e-05 0.121688)
(6.04811e-05 0.000198436 0.121608)
(-7.16284e-05 -6.56815e-05 0.114645)
(-0.000205015 -0.000205377 0.126424)
(0.000203869 5.93579e-05 0.121689)
(6.08446e-05 0.000198316 0.12161)
(7.05673e-05 6.37726e-05 0.1149)
(-0.00020079 -5.66212e-05 0.121503)
(-6.00354e-05 -0.000198459 0.121364)
(-4.43933e-07 6.76542e-07 0.135219)
(1.0224e-06 1.97384e-06 0.13046)
(4.53664e-06 -8.85254e-07 0.130561)
(-0.000197878 -0.000197477 0.126501)
(-9.16377e-07 6.89947e-07 0.135222)
(1.61259e-06 1.34258e-06 0.130462)
(3.41588e-06 -1.45411e-06 0.130564)
(-0.000197431 -0.000197428 0.126498)
(-1.46065e-06 -7.18393e-07 0.135222)
(1.51765e-06 -4.24992e-07 0.13046)
(2.50502e-06 -1.29145e-06 0.130562)
(-0.00019702 -0.00019646 0.126496)
(-1.07854e-06 -1.63907e-06 0.13522)
(7.6896e-07 -1.41309e-06 0.130455)
(2.68979e-06 -1.23309e-06 0.130559)
(-0.000197425 -0.00019667 0.126491)
(-6.01927e-07 -1.39894e-06 0.135219)
(3.06754e-07 -1.32246e-06 0.130451)
(2.90155e-06 -1.02569e-06 0.130557)
(-0.000197284 -0.000196393 0.126488)
(-6.72921e-07 -2.82762e-07 0.135219)
(1.13167e-06 -4.56366e-07 0.130446)
(3.13124e-06 -1.11793e-06 0.130556)
(-0.000196483 -0.000196259 0.126488)
(-4.80459e-07 4.67739e-07 0.135219)
(1.40201e-06 1.51205e-06 0.130444)
(3.03836e-06 -9.31199e-07 0.130556)
(-0.000196651 -0.000196647 0.126489)
(-2.74192e-07 9.7019e-07 0.135218)
(2.73211e-06 1.92058e-06 0.130446)
(3.47095e-06 -6.84101e-07 0.130554)
(-0.000197091 -0.000196913 0.126492)
(-4.27441e-07 9.63307e-07 0.135218)
(2.52596e-06 2.03619e-06 0.130449)
(3.47614e-06 -7.5384e-07 0.130555)
(-0.000196798 -0.000196909 0.126495)
(-6.81974e-07 1.0281e-06 0.135219)
(1.86649e-06 1.62938e-06 0.130453)
(3.33084e-06 -1.2967e-06 0.130556)
(-0.000196986 -0.000196529 0.126496)
(-1.04545e-06 7.36214e-07 0.13522)
(1.26306e-06 1.41654e-06 0.130456)
(2.80453e-06 -1.06213e-06 0.130557)
(-0.000197453 -0.000196372 0.126498)
(-1.55201e-06 8.64943e-07 0.135221)
(1.08277e-06 1.21026e-06 0.130457)
(2.36119e-06 -1.57976e-06 0.130558)
(-0.000197427 -0.000196591 0.126496)
(-1.85228e-06 6.27384e-07 0.135221)
(1.02676e-06 8.19209e-07 0.130455)
(2.45747e-06 -1.39106e-06 0.13056)
(-0.000196829 -0.000196658 0.126497)
(-1.35894e-06 7.50246e-07 0.135222)
(1.495e-06 7.33592e-07 0.130455)
(2.76537e-06 -1.17516e-06 0.130562)
(-0.000197212 -0.000197027 0.126497)
(-1.07655e-06 7.98144e-07 0.135223)
(1.25812e-06 1.11226e-06 0.130454)
(3.04319e-06 -1.1045e-06 0.130562)
(-0.000197284 -0.000197052 0.126497)
(-1.04017e-06 4.36203e-07 0.135224)
(1.44029e-06 1.20346e-06 0.130456)
(3.35134e-06 -1.29779e-06 0.130563)
(-0.00019718 -0.000197541 0.126498)
(-1.36865e-06 -8.12361e-07 0.135224)
(1.05258e-06 1.13178e-06 0.130455)
(3.03388e-06 -1.10304e-06 0.130564)
(-0.000196983 -0.00019718 0.126499)
(5.236e-06 3.31377e-06 0.130586)
(-4.5203e-06 4.8292e-06 0.130588)
(3.92829e-06 4.18543e-06 0.130588)
(-3.75355e-06 5.11124e-06 0.13059)
(-0.000197585 0.000199674 0.126501)
(0.00020533 -0.000204955 0.126427)
(-1.43541e-06 1.78833e-06 0.130463)
(3.85597e-07 -1.19979e-06 0.130461)
(-5.12347e-07 1.48507e-06 0.130465)
(9.88889e-07 -1.60655e-06 0.130462)
(-2.02962e-06 -2.09548e-06 0.130474)
(9.99705e-07 7.57972e-07 0.130462)
(-1.01668e-06 -1.6591e-06 0.130475)
(0.00019755 -0.000196166 0.126492)
(-0.000204298 0.000207003 0.12641)
(-4.52437e-06 -3.07445e-06 0.130579)
(2.62938e-06 -1.80616e-06 0.130563)
(-2.9238e-06 -2.32054e-06 0.13058)
(0.000203939 0.000207637 0.126422)
(0.000197512 0.000197995 0.1265)
(-0.000205525 -0.000207494 0.126423)
(4.47361e-06 4.04934e-06 0.130589)
(-4.24588e-06 4.5305e-06 0.13059)
(3.10547e-06 2.11122e-06 0.130588)
(-3.36924e-06 2.92829e-06 0.130588)
(-0.000196398 0.00019882 0.126502)
(0.000204429 -0.000208194 0.126426)
(-4.46236e-07 1.69473e-06 0.130465)
(7.73018e-07 -2.1601e-06 0.130462)
(-1.14061e-06 -6.86607e-08 0.130464)
(-1.5868e-07 -1.59853e-06 0.130461)
(-3.20369e-07 -1.82948e-06 0.130475)
(1.40974e-06 -8.72356e-07 0.13046)
(-1.59721e-07 -1.08243e-06 0.130472)
(0.000196921 -0.000196434 0.126486)
(-0.000204806 0.000206671 0.126406)
(-3.20747e-06 -2.02154e-06 0.13058)
(2.08243e-06 -1.56621e-06 0.130563)
(-2.47401e-06 -1.58374e-06 0.130577)
(0.000204262 0.00020821 0.126419)
(0.000196652 0.000195811 0.126499)
(-0.000204901 -0.000209094 0.126421)
(3.50126e-06 1.66277e-06 0.130588)
(-4.00909e-06 2.18755e-06 0.130588)
(2.91206e-06 6.04724e-07 0.130587)
(-4.40729e-06 1.1336e-06 0.130586)
(-0.000196898 0.000195114 0.1265)
(0.000203729 -0.000209148 0.126422)
(-1.32691e-06 1.04592e-07 0.130464)
(-5.50081e-07 -2.03731e-06 0.13046)
(-9.37104e-07 -1.22445e-06 0.130462)
(-2.23779e-07 -1.50896e-06 0.130458)
(3.29956e-07 -1.34372e-06 0.130472)
(2.70323e-07 -1.97506e-06 0.130456)
(-7.39421e-07 -1.3452e-06 0.130468)
(0.000195825 -0.000196444 0.126482)
(-0.000204487 0.000206812 0.126403)
(-2.93097e-06 -1.31357e-06 0.130577)
(1.81117e-06 -1.74832e-06 0.13056)
(-3.25623e-06 -1.55697e-06 0.130574)
(0.000203518 0.00020774 0.126414)
(0.000196978 0.000194201 0.126497)
(-0.000204129 -0.000209201 0.126418)
(3.71408e-06 4.63583e-07 0.130587)
(-5.12255e-06 7.4388e-07 0.130586)
(3.66561e-06 1.43906e-07 0.130585)
(-4.3625e-06 6.09851e-07 0.130584)
(-0.000197632 0.000194296 0.126497)
(0.000203251 -0.000209611 0.126418)
(-8.27368e-07 -9.25227e-07 0.130461)
(-2.75853e-07 -2.11318e-06 0.130457)
(-6.628e-07 -1.7604e-06 0.130458)
(6.26849e-08 -1.23824e-06 0.130453)
(-4.111e-07 -1.64852e-06 0.130467)
(-4.85888e-08 -2.29355e-06 0.130452)
(-1.08201e-06 -1.34931e-06 0.130462)
(0.000196049 -0.000195747 0.126479)
(-0.000203722 0.000207172 0.126398)
(-3.56858e-06 -1.13007e-06 0.130573)
(2.04038e-06 -1.51418e-06 0.130557)
(-3.28972e-06 -1.5957e-06 0.13057)
(0.00020329 0.0002078 0.12641)
(0.000197728 0.000194118 0.126493)
(-0.000205081 -0.00020811 0.126415)
(4.21237e-06 1.27234e-07 0.130585)
(-4.76023e-06 4.89119e-07 0.130583)
(3.20094e-06 8.98044e-07 0.130582)
(-3.96289e-06 1.39355e-06 0.13058)
(-0.000197477 0.000193551 0.126493)
(0.000204453 -0.000207574 0.126416)
(-6.3468e-07 -1.15978e-06 0.130458)
(7.52593e-08 -1.79414e-06 0.130452)
(-7.66248e-07 -1.40762e-06 0.130455)
(6.4935e-07 -1.17553e-06 0.130449)
(-7.69965e-07 -1.68736e-06 0.130461)
(3.31627e-07 -1.67087e-06 0.130447)
(-7.32066e-07 -8.06713e-07 0.130457)
(0.000196737 -0.000195371 0.126475)
(-0.000203854 0.00020676 0.126397)
(-3.52914e-06 -1.12203e-06 0.130569)
(2.57409e-06 -1.53344e-06 0.130556)
(-2.73765e-06 -1.62723e-06 0.130567)
(0.000203985 0.000207907 0.12641)
(0.000196674 0.000195452 0.126492)
(-0.000205807 -0.00020603 0.126416)
(3.72177e-06 1.32174e-06 0.130582)
(-4.31418e-06 1.54073e-06 0.130579)
(2.72646e-06 1.83743e-06 0.130579)
(-3.20719e-06 2.60988e-06 0.130577)
(-0.000196335 0.00019606 0.126491)
(0.000205452 -0.000205471 0.126415)
(-9.82452e-07 -5.31066e-07 0.130455)
(5.19762e-07 -1.53222e-06 0.130448)
(-7.43801e-07 1.4408e-07 0.130454)
(5.71835e-07 -8.70165e-07 0.130446)
(-9.95313e-08 -1.00948e-06 0.130457)
(9.35737e-07 2.20491e-07 0.130444)
(-5.07686e-07 -6.32336e-07 0.130456)
(0.000196401 -0.000195913 0.126474)
(-0.000204007 0.000206908 0.126398)
(-2.90738e-06 -1.28226e-06 0.130567)
(2.42406e-06 -1.60635e-06 0.130555)
(-2.36202e-06 -1.39224e-06 0.130566)
(0.000204083 0.00020782 0.126412)
(0.000196084 0.000197504 0.126493)
(-0.000205433 -0.000205069 0.126417)
(3.34773e-06 2.40644e-06 0.130579)
(-3.47275e-06 2.95722e-06 0.130577)
(2.81031e-06 3.03961e-06 0.130577)
(-2.47196e-06 4.41226e-06 0.130575)
(-0.000195247 0.000197924 0.12649)
(0.000206826 -0.000204072 0.126418)
(-1.24309e-06 1.00747e-06 0.130454)
(4.02149e-08 -1.11347e-06 0.130446)
(-8.70815e-07 1.40699e-06 0.130453)
(9.14626e-07 -1.73652e-07 0.130446)
(-2.43766e-08 -1.0173e-06 0.130456)
(1.73523e-06 1.09157e-06 0.130445)
(-2.80581e-07 -7.37113e-07 0.130458)
(0.000196444 -0.000195694 0.126475)
(-0.000203475 0.000207359 0.1264)
(-2.77136e-06 -9.95408e-07 0.130567)
(2.68858e-06 -1.35032e-06 0.130554)
(-2.50825e-06 -1.43451e-06 0.130568)
(0.000203884 0.000207739 0.126415)
(0.000196288 0.000198174 0.126494)
(-0.000205304 -0.000205445 0.126418)
(3.53257e-06 3.25126e-06 0.130577)
(-2.6142e-06 4.5485e-06 0.130575)
(2.93295e-06 3.74943e-06 0.130577)
(-1.82273e-06 4.90084e-06 0.130575)
(-0.00019398 0.000198958 0.126494)
(0.000205877 -0.000205064 0.126422)
(-1.02829e-06 2.09499e-06 0.130453)
(7.15792e-07 -7.70242e-07 0.130446)
(-7.81339e-07 1.77592e-06 0.130453)
(8.13458e-07 -2.36333e-07 0.130447)
(-1.68297e-07 -1.21158e-06 0.130459)
(1.91462e-06 1.3906e-06 0.130448)
(-1.4198e-07 -7.58275e-07 0.130461)
(0.000197037 -0.000195122 0.126478)
(-0.000203521 0.000207129 0.126403)
(-2.59266e-06 -9.88772e-07 0.13057)
(3.07221e-06 -1.49047e-06 0.130554)
(-2.12234e-06 -1.37177e-06 0.130571)
(0.000204113 0.000207704 0.126417)
(0.000196972 0.000198114 0.126495)
(-0.00020447 -0.000205472 0.126419)
(3.49888e-06 3.7813e-06 0.130577)
(-2.43898e-06 4.56702e-06 0.130575)
(3.04846e-06 3.55605e-06 0.130576)
(-2.54635e-06 4.79972e-06 0.130576)
(-0.000195396 0.000198177 0.126497)
(0.000205125 -0.000205181 0.126424)
(-7.76839e-07 2.34118e-06 0.130454)
(6.66484e-07 -9.06722e-07 0.130448)
(-7.51139e-07 1.62694e-06 0.130454)
(6.65503e-07 -3.3488e-07 0.13045)
(1.34697e-07 -1.34039e-06 0.130463)
(1.51734e-06 9.55962e-07 0.130452)
(-4.61773e-07 -8.55899e-07 0.130465)
(0.000197096 -0.000195834 0.12648)
(-0.000203983 0.000206774 0.126406)
(-2.59673e-06 -1.03128e-06 0.130572)
(2.67867e-06 -1.75383e-06 0.130554)
(-2.61616e-06 -1.81105e-06 0.130573)
(0.000203941 0.000208004 0.126419)
(0.000197409 0.000197774 0.126495)
(-0.000204703 -0.000205953 0.126419)
(3.69944e-06 3.58419e-06 0.130577)
(-3.16945e-06 4.5628e-06 0.130577)
(3.45116e-06 3.48446e-06 0.130577)
(-3.38666e-06 4.15606e-06 0.130578)
(-0.000196213 0.000198132 0.1265)
(0.000204054 -0.000206485 0.126427)
(-6.48113e-07 2.11478e-06 0.130455)
(5.4169e-07 -9.3354e-07 0.130451)
(-5.52916e-07 1.47959e-06 0.130455)
(7.06138e-07 -6.9635e-07 0.130453)
(-1.94156e-07 -1.19051e-06 0.130466)
(7.12845e-07 8.06615e-07 0.130456)
(-8.56704e-07 -7.55408e-07 0.130467)
(0.000196669 -0.000196221 0.126483)
(-0.000204043 0.000206848 0.126408)
(-2.87173e-06 -1.37682e-06 0.130574)
(2.56521e-06 -1.91554e-06 0.130556)
(-2.85391e-06 -1.49024e-06 0.130575)
(0.000203267 0.000207991 0.12642)
(0.000197265 0.00019754 0.126495)
(-0.000205881 -0.0002068 0.12642)
(3.84253e-06 3.28021e-06 0.130578)
(-4.06621e-06 3.69816e-06 0.130578)
(2.7268e-06 3.10679e-06 0.130578)
(-4.19385e-06 3.62375e-06 0.130579)
(-0.000197253 0.000197001 0.126501)
(0.000204275 -0.000206273 0.126424)
(-6.95113e-07 1.87545e-06 0.130457)
(4.06499e-07 -1.06636e-06 0.130455)
(-8.62957e-07 9.04794e-07 0.130457)
(3.49894e-07 -8.18182e-07 0.130456)
(-6.75631e-07 -1.27352e-06 0.130467)
(4.16178e-07 2.94728e-07 0.130458)
(-6.31187e-07 -7.89454e-07 0.130467)
(0.000196793 -0.000196158 0.126486)
(-0.000204541 0.000206711 0.126411)
(-3.35749e-06 -1.06777e-06 0.130575)
(2.01724e-06 -1.74325e-06 0.130557)
(-3.2002e-06 -1.40017e-06 0.130576)
(0.000203696 0.000208291 0.126419)
(0.000196943 0.000197571 0.126496)
(-0.000205351 -0.000206162 0.126421)
(3.19415e-06 3.18039e-06 0.130579)
(-4.68743e-06 3.36775e-06 0.130579)
(2.68198e-06 3.09585e-06 0.130579)
(-3.60863e-06 3.25869e-06 0.130578)
(-0.000197032 0.00019721 0.1265)
(0.00020441 -0.000206842 0.126423)
(-9.40438e-07 1.69738e-06 0.130458)
(-2.9872e-07 -1.18726e-06 0.130458)
(-1.14691e-06 1.04465e-06 0.130459)
(-6.50195e-09 -7.65386e-07 0.13046)
(-2.7089e-07 -1.12678e-06 0.130467)
(4.34897e-07 -1.0487e-08 0.130456)
(-7.4384e-07 -7.01777e-07 0.130467)
(0.000196105 -0.000196021 0.126489)
(-0.000204831 0.000207109 0.126413)
(-3.57305e-06 -1.31884e-06 0.130576)
(1.74073e-06 -1.94523e-06 0.130559)
(-2.8793e-06 -1.42939e-06 0.130576)
(0.000203982 0.000207949 0.126419)
(0.000197 0.000197638 0.126497)
(-0.000205325 -0.00020629 0.126422)
(3.17374e-06 2.9282e-06 0.13058)
(-4.1855e-06 3.21401e-06 0.130578)
(2.97161e-06 2.87164e-06 0.13058)
(-4.03485e-06 3.77484e-06 0.130577)
(-0.000196346 0.000196328 0.126498)
(0.000204978 -0.000206069 0.126423)
(-1.30599e-06 1.29853e-06 0.13046)
(-6.07105e-07 -1.12008e-06 0.130461)
(-8.47999e-07 9.10601e-07 0.130461)
(1.03014e-07 -7.79502e-07 0.130462)
(-4.64461e-07 -1.2066e-06 0.130467)
(9.96146e-07 -1.22276e-07 0.130455)
(-5.28909e-07 -8.6901e-07 0.130467)
(0.000196153 -0.00019602 0.12649)
(-0.000204302 0.000207099 0.126413)
(-3.29201e-06 -1.11143e-06 0.130577)
(1.99159e-06 -1.50972e-06 0.130561)
(-2.91656e-06 -1.78024e-06 0.130576)
(0.000204199 0.000207946 0.126419)
(0.0001971 0.000197507 0.126498)
(-0.000205236 -0.000206781 0.126422)
(3.51917e-06 2.64377e-06 0.13058)
(-4.26737e-06 3.5233e-06 0.130577)
(3.13734e-06 2.93917e-06 0.130579)
(-3.43678e-06 3.62373e-06 0.130576)
(-0.000196223 0.000197562 0.126498)
(0.000204461 -0.000206204 0.126424)
(-1.03275e-06 1.44996e-06 0.130463)
(4.71827e-08 -1.3297e-06 0.130463)
(-6.37705e-07 8.95325e-07 0.130462)
(7.02246e-07 -9.52536e-07 0.130463)
(9.79434e-08 -1.09564e-06 0.130467)
(5.44006e-07 2.8964e-07 0.130455)
(-7.47662e-07 -1.14701e-06 0.130468)
(0.000196496 -0.000195963 0.12649)
(-0.000203844 0.00020711 0.126413)
(-3.28323e-06 -1.39066e-06 0.130576)
(2.31693e-06 -1.33802e-06 0.130562)
(-2.73668e-06 -1.55621e-06 0.130576)
(0.000204123 0.0002081 0.12642)
(0.000197674 0.000197442 0.126498)
(-0.000205411 -0.000207111 0.126423)
(3.72338e-06 2.86613e-06 0.13058)
(-4.04889e-06 3.54149e-06 0.130576)
(2.85069e-06 2.55623e-06 0.13058)
(-3.89455e-06 3.67418e-06 0.130576)
(-0.000196674 0.000197297 0.126499)
(0.000204847 -0.000206065 0.126423)
(-5.67415e-07 1.42959e-06 0.130464)
(2.5173e-07 -1.52239e-06 0.130464)
(-6.79532e-07 4.1304e-07 0.130464)
(6.49706e-07 -1.11319e-06 0.130464)
(-3.20391e-07 -1.46938e-06 0.130469)
(8.84259e-07 8.3915e-08 0.130455)
(-6.42258e-07 -1.17821e-06 0.13047)
(0.000196981 -0.000196048 0.12649)
(-0.000203879 0.000206474 0.126413)
(-2.93575e-06 -1.15329e-06 0.130576)
(2.62769e-06 -1.9353e-06 0.130562)
(-2.51499e-06 -1.92725e-06 0.130577)
(0.00020412 0.000207443 0.126421)
(0.000197459 0.000197303 0.126499)
(-0.000205123 -0.000207249 0.126426)
(3.80521e-06 2.68664e-06 0.130582)
(-4.3054e-06 3.47178e-06 0.130575)
(3.2132e-06 2.38108e-06 0.130582)
(-4.37618e-06 3.42824e-06 0.130576)
(-0.000196354 0.000197521 0.126499)
(0.000203834 -0.000207064 0.126423)
(-3.77821e-07 1.37679e-06 0.130465)
(4.53038e-07 -2.14637e-06 0.130465)
(-3.45919e-07 1.96792e-07 0.130466)
(9.39842e-07 -1.66281e-06 0.130465)
(-1.45945e-07 -1.71864e-06 0.13047)
(3.03602e-07 6.51729e-09 0.130455)
(-6.67478e-07 -1.56396e-06 0.130472)
(0.000196833 -0.000196525 0.12649)
(-0.000203836 0.000206242 0.126413)
(-3.07142e-06 -1.67879e-06 0.130577)
(2.64499e-06 -2.13322e-06 0.130565)
(-2.64147e-06 -1.7038e-06 0.130578)
(0.00020424 0.000207652 0.126421)
(0.000197569 0.000196615 0.126501)
(3.88605e-06 1.61276e-06 0.130584)
(-3.80201e-06 2.28386e-06 0.130576)
(-0.000197271 0.000196382 0.126497)
(-1.10257e-06 4.31911e-07 0.130467)
(-3.79938e-08 -1.94024e-06 0.130465)
(2.16079e-07 -1.62581e-06 0.130472)
(-1.10758e-06 -1.17779e-06 0.130471)
(0.000196432 -0.000196956 0.126488)
(-2.96025e-06 -1.47002e-06 0.130578)
(-2.91231e-06 -2.60807e-06 0.130578)
(0.000204062 0.000207629 0.126421)
(3.14858e-08 -5.7425e-05 0.103822)
(9.22473e-06 4.18252e-05 0.0784222)
(1.38022e-06 6.02235e-05 0.103889)
(-9.1599e-06 -3.57755e-05 0.0784438)
(-8.22422e-06 1.89258e-05 0.0671622)
(1.20318e-05 -1.14281e-05 0.0671761)
(-5.50174e-05 1.16977e-06 0.10291)
(3.56849e-05 3.03721e-06 0.0781405)
(5.48743e-05 -1.51368e-07 0.103344)
(-3.78138e-05 -2.5479e-06 0.0779957)
(9.51903e-07 1.28384e-06 0.13522)
(1.53511e-06 9.44251e-07 0.135215)
(-8.45808e-07 9.8853e-07 0.135227)
(-1.28173e-06 7.65844e-07 0.135221)
(1.0556e-06 1.37199e-06 0.135221)
(-7.82472e-08 -2.16559e-07 0.135217)
(1.45054e-07 -7.3702e-08 0.135227)
(5.358e-05 -6.01505e-07 0.117377)
(-3.82822e-05 2.93226e-05 0.105778)
(2.18605e-06 -2.89498e-08 0.132624)
(1.16401e-06 1.29895e-06 0.130461)
(3.77287e-05 -3.05166e-05 0.105446)
(2.82694e-06 -8.22003e-07 0.132625)
(-5.59418e-05 -6.56936e-07 0.117826)
(1.23348e-05 -5.36542e-06 0.0670546)
(-1.49833e-05 5.64305e-06 0.0669761)
(-1.19847e-06 5.33203e-05 0.118003)
(-3.42369e-08 -3.83665e-06 0.132785)
(3.53726e-05 -3.86965e-05 0.106092)
(2.58087e-06 -1.68e-06 0.130562)
(-1.67821e-06 -2.48285e-06 0.132786)
(-3.59564e-05 3.63786e-05 0.105996)
(9.60472e-07 -5.76443e-05 0.118097)
(-1.36166e-05 -2.1125e-05 0.0922559)
(-2.76634e-05 -1.33642e-05 0.0924698)
(0.000205419 0.000208722 0.126423)
(1.58457e-05 2.0853e-05 0.0920051)
(2.75024e-05 1.36358e-05 0.0923567)
(-9.67161e-07 -5.89892e-05 0.103833)
(6.52961e-06 4.09251e-05 0.0784205)
(2.21072e-07 6.10945e-05 0.103902)
(-9.2986e-06 -3.77752e-05 0.0784456)
(-8.40815e-06 1.6297e-05 0.067152)
(1.07288e-05 -1.42408e-05 0.067175)
(-5.53742e-05 4.28866e-07 0.102908)
(3.57171e-05 2.73327e-06 0.078138)
(5.47751e-05 -5.37745e-07 0.103339)
(-3.69582e-05 -2.44154e-06 0.0779978)
(1.31466e-06 1.14579e-06 0.135223)
(3.07286e-08 -5.03482e-08 0.135218)
(3.45197e-07 1.89343e-08 0.135227)
(-1.62721e-06 -6.08541e-07 0.135222)
(1.35873e-06 -3.99477e-07 0.13522)
(-9.49577e-07 -3.72157e-07 0.135216)
(6.45794e-07 1.42305e-07 0.135224)
(5.4224e-05 -1.04143e-06 0.117376)
(-3.8164e-05 2.80195e-05 0.105779)
(2.54853e-06 -1.06794e-06 0.132625)
(1.61529e-06 1.10718e-07 0.130463)
(-5.52925e-05 -9.29759e-07 0.117825)
(3.84334e-05 -3.15461e-05 0.105448)
(3.05699e-06 -1.81277e-06 0.132626)
(1.19192e-05 -5.83956e-06 0.0670591)
(-1.51149e-05 4.4774e-06 0.0669808)
(-1.73429e-06 5.4527e-05 0.118002)
(-1.55043e-06 -2.32886e-06 0.132783)
(3.49241e-05 -3.86212e-05 0.106089)
(2.52001e-06 -1.40979e-06 0.130565)
(8.06128e-07 -5.64758e-05 0.118096)
(-2.26831e-06 -1.70464e-06 0.132785)
(-3.6529e-05 3.66547e-05 0.105994)
(-1.37924e-05 -2.14255e-05 0.0922542)
(-2.8167e-05 -1.31203e-05 0.0924668)
(0.000205007 0.00020846 0.126421)
(1.54625e-05 2.09252e-05 0.0920036)
(2.73158e-05 1.39486e-05 0.0923574)
(-1.05095e-06 -6.14753e-05 0.10384)
(8.06298e-06 3.86299e-05 0.0784256)
(1.58666e-07 5.87885e-05 0.103909)
(-6.72246e-06 -4.02437e-05 0.0784522)
(-1.1439e-05 1.33826e-05 0.0671552)
(7.0922e-06 -1.81075e-05 0.0671798)
(-5.61871e-05 -5.93858e-07 0.10291)
(3.54698e-05 1.58961e-06 0.0781435)
(5.38315e-05 -1.89479e-06 0.10334)
(-3.71475e-05 -3.8415e-06 0.0780053)
(1.30477e-06 -6.02573e-07 0.13522)
(-8.21675e-07 -4.06314e-07 0.135216)
(5.58683e-07 -3.48371e-08 0.135224)
(-1.28175e-06 -1.5541e-06 0.13522)
(4.62575e-07 -1.35042e-06 0.135218)
(-9.20073e-07 -6.95012e-07 0.135213)
(-1.84492e-07 -5.87013e-07 0.135221)
(5.33399e-05 -1.7664e-06 0.11737)
(-3.72888e-05 2.67208e-05 0.105782)
(2.83428e-06 -2.00749e-06 0.132623)
(7.91562e-07 -1.25741e-06 0.13046)
(-5.4562e-05 -1.55275e-06 0.11782)
(3.78047e-05 -3.33472e-05 0.105452)
(2.41464e-06 -2.53775e-06 0.132623)
(1.14777e-05 -6.34816e-06 0.0670654)
(-1.49865e-05 4.66263e-06 0.0669886)
(-2.47115e-06 5.46163e-05 0.118002)
(-1.86686e-06 -1.91302e-06 0.132783)
(3.42632e-05 -3.78462e-05 0.106089)
(2.00816e-06 -1.80176e-06 0.130563)
(2.27557e-08 -5.56782e-05 0.118095)
(-2.26279e-06 -2.10011e-06 0.132783)
(-3.69688e-05 3.73148e-05 0.105995)
(-1.35963e-05 -2.1268e-05 0.0922528)
(-2.86862e-05 -1.2333e-05 0.0924686)
(0.000204121 0.000208504 0.126417)