/*--------------------------------*- C++ -*----------------------------------*\
| =========                 |                                                 |
| \\      /  F ield         | OpenFOAM: The Open Source CFD Toolbox           |
|  \\    /   O peration     | Version:  2206                                  |
|   \\  /    A nd           | Website:  www.openfoam.com                      |
|    \\/     M anipulation  |                                                 |
\*---------------------------------------------------------------------------*/
FoamFile
{
    version     2.0;
    format      ascii;
    arch        "LSB;label=32;scalar=64";
    class       volVectorField;
    location    "60";
    object      wallShearStress;
}
// * * * * * * * * * * * * * * * * * * * * * * * * * * * * * * * * * * * * * //

dimensions      [0 2 -2 0 0 0 0];

internalField   uniform (0 0 0);

boundaryField
{
    topPatch
    {
        type            calculated;
        value           nonuniform List<vector> 0();
    }
    wall
    {
        type            calculated;
        value           nonuniform List<vector> 
7746
(
(4.21252e-08 -1.57563e-08 -0.000126407)
(1.43204e-08 -8.5399e-09 -0.000126358)
(4.13237e-08 -5.63195e-09 -0.00011883)
(7.6174e-09 -4.49631e-09 -0.000118733)
(3.69514e-09 -3.63125e-09 -0.000118767)
(6.68508e-09 -2.08778e-09 -0.000126379)
(1.90863e-08 -8.7514e-10 -0.000126364)
(1.79678e-08 -3.95944e-11 -0.000118754)
(1.42373e-08 -1.66921e-08 -0.00012626)
(2.7931e-08 -7.94906e-09 -0.000126355)
(-2.04731e-09 -1.11466e-08 -0.000126306)
(7.66353e-09 -1.20375e-09 -0.000126358)
(1.17515e-08 3.36982e-10 -0.000126314)
(-7.36191e-09 -4.06177e-09 -0.000126212)
(4.12243e-09 3.41815e-09 -0.000126357)
(-3.80711e-09 -4.69947e-09 -0.000126327)
(5.7895e-09 -9.48614e-09 -0.00012628)
(-3.04182e-09 -7.84541e-09 -0.000118627)
(1.39655e-08 1.22497e-09 -0.000119336)
(-5.76871e-09 3.33336e-09 -0.000119212)
(2.2819e-08 1.12978e-08 -0.000125484)
(-2.02657e-08 -9.33431e-09 -0.00012541)
(-1.25617e-08 2.2382e-09 -0.000126212)
(-1.43381e-08 1.37898e-09 -0.000118562)
(3.80544e-08 -1.44238e-08 -0.000126373)
(4.44223e-09 -1.09315e-08 -0.000126217)
(8.55655e-09 -4.16022e-09 -0.000126348)
(-2.82529e-09 -6.57911e-09 -0.000126304)
(-1.40797e-08 -1.39128e-09 -0.000126184)
(1.77842e-08 -3.02794e-09 -0.000126334)
(-6.46884e-09 -2.00893e-10 -0.00012632)
(5.28419e-09 1.33358e-09 -0.00012636)
(1.17714e-08 -1.54981e-08 -0.000118623)
(3.24676e-08 -2.20176e-09 -0.000118766)
(-1.18775e-08 -1.47679e-08 -0.000126272)
(-2.32786e-08 -4.93399e-09 -0.000126372)
(-2.80616e-09 -1.17558e-08 -0.000118682)
(8.18376e-09 7.07264e-10 -0.000118749)
(-5.9327e-09 3.49282e-09 -0.000126336)
(6.912e-09 -9.0861e-10 -0.000126384)
(-1.56422e-08 -4.30952e-09 -0.000118512)
(1.30923e-08 4.30495e-09 -0.000118689)
(1.49454e-08 2.08382e-10 -0.00012619)
(-7.27093e-09 2.64896e-09 -0.000126321)
(-7.04802e-09 -2.87249e-09 -0.000118686)
(6.37914e-09 4.68152e-09 -0.000118745)
(-3.0635e-09 5.74174e-09 -0.000126351)
(8.84605e-09 3.62205e-09 -0.00012639)
(-2.37301e-08 6.17347e-10 -0.000118498)
(5.54062e-09 7.41192e-09 -0.000118688)
(2.7233e-08 7.40634e-09 -0.000126179)
(1.61236e-09 9.95719e-09 -0.000126325)
(-8.09213e-09 -1.97427e-10 -0.000118686)
(6.09239e-09 7.41893e-09 -0.000118747)
(-2.74496e-09 5.73505e-09 -0.000126357)
(7.17686e-09 1.48311e-09 -0.000126394)
(-2.38736e-08 -3.9254e-10 -0.000118506)
(9.57019e-09 6.94731e-09 -0.000118712)
(2.31795e-08 4.89396e-09 -0.000126188)
(-6.12414e-09 5.51453e-09 -0.000126344)
(-7.36614e-09 -1.37234e-09 -0.000118682)
(6.05086e-09 4.96576e-09 -0.000118744)
(-2.83544e-09 4.12638e-09 -0.000126354)
(5.4935e-09 -1.83489e-09 -0.000126392)
(-2.25641e-08 -6.05156e-10 -0.00011854)
(1.16503e-08 5.8811e-09 -0.000118745)
(2.18493e-08 4.47863e-09 -0.000126209)
(-6.46032e-09 5.11926e-09 -0.000126362)
(-5.73442e-09 -5.06594e-09 -0.000118681)
(8.71096e-09 5.98283e-10 -0.000118741)
(-5.51203e-09 7.3937e-10 -0.000126353)
(5.63985e-09 -9.18989e-10 -0.000126392)
(-1.72656e-08 -2.82975e-09 -0.000118569)
(1.76278e-08 3.91968e-09 -0.000118763)
(1.09361e-08 -2.24762e-09 -0.000126226)
(-2.0139e-08 -2.55428e-09 -0.000126374)
(-4.07688e-09 -7.90022e-09 -0.000118685)
(9.52852e-09 -3.0441e-09 -0.000118746)
(-3.40567e-09 4.67728e-09 -0.000126354)
(5.6292e-09 -1.6288e-09 -0.000126389)
(-1.22192e-08 -5.53394e-09 -0.00011857)
(1.97696e-08 2.62255e-09 -0.000118757)
(8.4495e-09 -3.60198e-09 -0.000126227)
(-1.91113e-08 -1.50326e-09 -0.000126365)
(-3.29424e-09 -1.16347e-08 -0.000118689)
(9.91766e-09 -3.02898e-09 -0.000118751)
(-5.07758e-09 1.99478e-09 -0.000126349)
(4.35572e-09 -4.45707e-09 -0.000126382)
(-1.43789e-08 -4.24942e-09 -0.000118554)
(1.72836e-08 3.3018e-09 -0.00011874)
(6.57781e-09 -4.45879e-09 -0.000126211)
(-1.79235e-08 -1.68296e-09 -0.000126356)
(-4.60459e-09 -7.57724e-09 -0.000118689)
(7.67794e-09 6.23542e-10 -0.000118751)
(-5.42802e-09 1.13677e-09 -0.000126336)
(6.00013e-09 -1.00344e-09 -0.000126374)
(-1.55089e-08 -4.21671e-09 -0.000118536)
(1.64001e-08 3.36347e-09 -0.000118724)
(1.53312e-08 2.97335e-10 -0.000126203)
(-1.11903e-08 2.41838e-09 -0.000126347)
(-5.86535e-09 -5.80423e-09 -0.000118687)
(7.03956e-09 2.59625e-09 -0.000118744)
(-4.35447e-09 2.80835e-09 -0.000126326)
(6.64214e-09 1.0449e-09 -0.000126361)
(-1.56416e-08 -3.65105e-09 -0.000118527)
(1.76627e-08 3.50557e-09 -0.000118716)
(1.60173e-08 6.33361e-10 -0.000126195)
(-1.21234e-08 8.00941e-10 -0.000126344)
(-6.25013e-09 -3.66924e-09 -0.000118676)
(7.46027e-09 1.86669e-09 -0.000118736)
(-3.60107e-09 4.21406e-09 -0.00012632)
(5.94449e-09 -8.4572e-10 -0.000126355)
(-1.63035e-08 -3.51992e-09 -0.000118518)
(1.84984e-08 3.50266e-09 -0.000118706)
(1.98235e-08 2.44197e-09 -0.00012619)
(-1.00958e-08 3.3167e-09 -0.000126332)
(-6.5087e-09 -3.80644e-09 -0.000118663)
(7.98326e-09 1.84019e-09 -0.000118723)
(-3.5021e-09 4.37742e-09 -0.000126307)
(6.74481e-09 1.71175e-09 -0.000126342)
(-1.65011e-08 -3.98818e-09 -0.000118514)
(1.65114e-08 4.07089e-09 -0.000118706)
(1.39508e-08 -1.09859e-09 -0.000126182)
(-1.688e-08 -8.72862e-10 -0.000126326)
(-5.38871e-09 -7.2653e-09 -0.000118655)
(7.60819e-09 2.10368e-10 -0.000118718)
(-3.54e-09 5.2137e-09 -0.000126307)
(6.81575e-09 1.05832e-09 -0.000126343)
(-1.5818e-08 -4.10405e-09 -0.000118515)
(1.61453e-08 3.96749e-09 -0.00011871)
(1.67394e-08 9.46791e-10 -0.000126178)
(-1.24859e-08 1.85474e-09 -0.000126326)
(-5.38112e-09 -7.59838e-09 -0.000118656)
(7.11958e-09 8.30665e-10 -0.000118718)
(-4.73223e-09 3.20664e-09 -0.000126308)
(4.3231e-09 -2.53878e-09 -0.000126351)
(-1.64902e-08 -3.63813e-09 -0.000118517)
(1.51355e-08 4.59179e-09 -0.000118712)
(1.09127e-08 -2.29699e-09 -0.000126189)
(-1.78914e-08 -1.67052e-09 -0.00012634)
(-6.02844e-09 -5.18556e-09 -0.00011866)
(7.34013e-09 2.93588e-09 -0.000118727)
(-4.01863e-09 3.82215e-09 -0.000126314)
(6.08269e-09 1.52742e-10 -0.000126358)
(-1.52255e-08 -3.94605e-09 -0.000118521)
(1.67233e-08 2.76246e-09 -0.000118714)
(1.48381e-08 1.16416e-10 -0.000126201)
(-1.22505e-08 1.7735e-09 -0.000126347)
(-7.14019e-09 -4.61237e-09 -0.000118674)
(7.42565e-09 3.05867e-09 -0.00011874)
(-5.30436e-09 3.39358e-09 -0.000126329)
(7.92406e-09 1.25467e-09 -0.000126373)
(-1.54557e-08 -3.91603e-09 -0.000118526)
(1.66442e-08 3.05664e-09 -0.000118718)
(1.30354e-08 -1.45578e-09 -0.000126207)
(-1.57908e-08 -6.87052e-10 -0.000126348)
(-5.74235e-09 -6.0712e-09 -0.000118682)
(6.60619e-09 3.28335e-09 -0.000118745)
(-3.68677e-09 4.80442e-09 -0.000126334)
(6.52103e-09 4.09718e-10 -0.00012638)
(-1.72061e-08 -3.59909e-09 -0.000118527)
(1.78674e-08 2.28717e-09 -0.00011872)
(1.48403e-08 -1.86955e-10 -0.000126202)
(-7.33466e-09 3.50566e-09 -0.000126341)
(-5.82183e-09 -5.11318e-09 -0.000118692)
(4.91399e-09 3.42508e-09 -0.000118747)
(-3.52362e-09 6.44573e-09 -0.000126337)
(9.33887e-09 4.02396e-09 -0.000126374)
(-1.05802e-08 -1.43089e-08 -0.000118649)
(-2.65395e-08 -1.14475e-09 -0.000118784)
(2.07674e-08 8.53555e-10 -0.000118707)
(-4.95243e-09 -9.19789e-09 -0.00011856)
(-2.03562e-08 1.28107e-09 -0.00011874)
(8.12505e-09 -7.82163e-09 -0.000118584)
(-1.43588e-09 -1.22449e-08 -0.000126324)
(-6.12864e-09 -1.00466e-09 -0.000126373)
(-1.48575e-08 -1.29746e-09 -0.000126341)
(4.32942e-09 -6.54377e-09 -0.000126223)
(-6.45549e-09 -9.31053e-10 -0.00012637)
(1.81489e-09 -7.98116e-09 -0.00012634)
(-5.17864e-09 3.70667e-09 -0.000118713)
(6.3152e-09 -3.19994e-09 -0.000118781)
(5.48689e-09 6.08989e-09 -0.000118747)
(-5.36999e-09 -6.24228e-09 -0.000118694)
(6.83404e-09 -2.47831e-09 -0.000118783)
(-6.07529e-09 4.59887e-09 -0.000118731)
(1.25973e-09 -1.51606e-08 -0.000118699)
(-6.99556e-09 2.83946e-09 -0.000118769)
(4.28336e-09 9.34938e-09 -0.000118695)
(-8.01498e-09 6.94986e-12 -0.000118763)
(-6.29076e-09 3.52066e-09 -0.000118767)
(5.42907e-09 -6.01941e-09 -0.000118709)
(-7.45406e-09 -1.04024e-09 -0.000118767)
(4.86417e-09 7.65483e-09 -0.000118708)
(-1.60204e-08 1.29969e-09 -0.00012621)
(1.68796e-08 -2.06286e-10 -0.000126358)
(7.33194e-09 1.51311e-09 -0.000126386)
(-4.86331e-09 3.61463e-09 -0.000126356)
(1.49866e-08 4.73922e-10 -0.000126351)
(-1.48726e-08 6.92656e-10 -0.000126219)
(-1.59385e-08 3.30091e-09 -0.000118563)
(1.82831e-08 -3.11532e-09 -0.000118751)
(1.55418e-08 4.76686e-09 -0.000118559)
(-1.80494e-08 -3.81771e-09 -0.000118749)
(2.04499e-08 -1.85341e-09 -0.000118744)
(-1.42505e-08 4.55365e-09 -0.000118562)
(-1.91123e-08 -2.53116e-09 -0.000118747)
(1.5933e-08 4.30124e-09 -0.000118563)
(2.97279e-09 4.36924e-09 -0.000126313)
(-7.00398e-09 1.41772e-09 -0.00012636)
(1.40146e-08 2.65035e-10 -0.000126195)
(-1.41084e-08 -6.91303e-10 -0.000126337)
(-7.91031e-09 3.33801e-09 -0.000126362)
(4.07126e-09 4.07075e-09 -0.000126327)
(-1.32175e-08 -5.9839e-10 -0.000126338)
(1.71914e-08 -1.26317e-09 -0.000126202)
(-1.74794e-08 8.83552e-10 -0.00012617)
(7.71484e-09 4.19854e-09 -0.000126305)
(-6.06068e-09 -1.31985e-10 -0.000126319)
(5.78191e-09 1.3517e-09 -0.000126355)
(6.25066e-09 5.3812e-09 -0.000126304)
(-2.23281e-08 3.49654e-09 -0.000126166)
(3.19973e-09 4.44477e-09 -0.00012635)
(-5.23449e-09 -1.24412e-09 -0.00012632)
(1.45505e-08 -5.10134e-09 -0.00011854)
(-1.24764e-08 6.47088e-09 -0.00011872)
(1.03766e-08 5.16313e-09 -0.000118683)
(-1.94857e-08 -2.13255e-09 -0.000118499)
(-7.65072e-09 7.83614e-09 -0.000118711)
(2.28187e-08 -2.55924e-09 -0.000118525)
(5.68467e-09 -7.05132e-10 -0.000126338)
(-6.06614e-09 2.64127e-09 -0.00012637)
(-5.05174e-09 4.47496e-09 -0.000126321)
(2.48405e-08 6.1312e-09 -0.000126185)
(-5.92256e-09 2.04177e-09 -0.000126367)
(7.75693e-09 2.27876e-09 -0.000126336)
(-4.74452e-09 7.91343e-09 -0.000118726)
(8.48552e-09 1.52011e-09 -0.000118785)
(5.1581e-09 8.52148e-09 -0.000118743)
(-6.84479e-09 -2.41237e-09 -0.000118685)
(7.3146e-09 -2.48434e-09 -0.000118786)
(-4.12465e-09 7.59979e-09 -0.000118732)
(5.75288e-09 -5.59293e-09 -0.000118707)
(-5.7687e-09 4.07342e-09 -0.000118765)
(4.91674e-09 8.93343e-09 -0.000118708)
(-8.76795e-09 1.04765e-09 -0.00011877)
(-4.4579e-09 8.21768e-09 -0.000118764)
(6.75626e-09 -2.78106e-09 -0.000118709)
(-8.87636e-09 4.53424e-11 -0.000118765)
(4.48832e-09 9.22358e-09 -0.000118712)
(-1.40422e-08 4.4299e-10 -0.000126209)
(1.5381e-08 2.43173e-10 -0.00012635)
(7.00928e-09 1.18372e-09 -0.00012639)
(-2.14066e-09 7.13268e-09 -0.000126359)
(1.51813e-08 -1.81639e-11 -0.00012635)
(-1.40244e-08 -2.5977e-10 -0.000126215)
(-1.47814e-08 4.91795e-09 -0.000118549)
(1.90504e-08 -3.32606e-09 -0.000118743)
(1.68824e-08 3.68242e-09 -0.000118557)
(-1.65367e-08 -4.34953e-09 -0.000118748)
(2.11613e-08 -1.98108e-09 -0.000118739)
(-1.49835e-08 3.92435e-09 -0.000118553)
(-1.53736e-08 -4.33565e-09 -0.000118746)
(1.74153e-08 3.61361e-09 -0.000118557)
(2.46128e-09 6.55268e-09 -0.000126326)
(-7.45758e-09 2.52811e-09 -0.000126362)
(1.70279e-08 -1.2528e-09 -0.000126199)
(-1.29873e-08 -1.10119e-09 -0.000126341)
(-7.47437e-09 2.89261e-09 -0.000126355)
(3.22424e-09 4.73548e-09 -0.000126328)
(-1.12695e-08 -2.12181e-09 -0.000126342)
(1.70237e-08 -1.20757e-09 -0.000126202)
(-2.31336e-08 4.10712e-09 -0.000126164)
(2.43123e-09 7.48327e-09 -0.000126312)
(-7.66245e-09 3.31395e-09 -0.000126318)
(3.51017e-09 4.78409e-09 -0.000126355)
(3.5909e-09 5.87465e-09 -0.000126311)
(-2.64057e-08 6.3586e-09 -0.000126174)
(3.94679e-09 4.63028e-09 -0.000126346)
(-6.29075e-09 9.36891e-10 -0.00012632)
(2.63509e-08 2.83521e-10 -0.000118518)
(-3.55945e-10 1.01631e-08 -0.000118712)
(9.32369e-09 7.01316e-09 -0.000118692)
(-2.62266e-08 2.32945e-11 -0.000118499)
(-7.86126e-09 7.15773e-09 -0.000118716)
(2.89495e-08 1.73638e-09 -0.000118527)
(8.9529e-09 4.3381e-09 -0.000126332)
(-3.31681e-10 1.04813e-08 -0.000126374)
(-3.77844e-09 6.13772e-09 -0.000126331)
(2.56852e-08 5.42373e-09 -0.000126186)
(-3.85493e-09 4.67815e-09 -0.000126361)
(6.3019e-09 2.29921e-09 -0.00012634)
(-4.88224e-09 7.67781e-09 -0.00011873)
(8.75511e-09 5.11941e-10 -0.000118789)
(5.43331e-09 7.7303e-09 -0.00011874)
(-7.77908e-09 -3.2478e-10 -0.000118685)
(7.83319e-09 -3.19338e-09 -0.000118784)
(-4.66705e-09 8.37616e-09 -0.000118732)
(7.40606e-09 -6.70591e-11 -0.000118708)
(-3.69767e-09 1.30487e-08 -0.000118773)
(4.38973e-09 9.50847e-09 -0.000118706)
(-8.3099e-09 -8.6626e-10 -0.000118766)
(-4.69104e-09 9.86967e-09 -0.00011876)
(8.63429e-09 1.8748e-09 -0.00011871)
(-7.22206e-09 -3.1097e-09 -0.000118756)
(4.7548e-09 6.49325e-09 -0.000118708)
(-1.33387e-08 1.07401e-09 -0.000126208)
(1.70376e-08 2.58334e-10 -0.000126351)
(6.74208e-09 5.82541e-10 -0.000126388)
(-3.20007e-09 4.7572e-09 -0.000126363)
(1.37001e-08 -2.719e-10 -0.000126344)
(-1.30161e-08 1.21914e-09 -0.00012621)
(-1.38307e-08 4.77756e-09 -0.000118548)
(1.87732e-08 -2.89797e-09 -0.000118741)
(2.03354e-08 1.43057e-09 -0.000118556)
(-1.37295e-08 -5.06212e-09 -0.000118747)
(1.82523e-08 -3.06802e-09 -0.000118731)
(-1.46074e-08 3.83631e-09 -0.00011855)
(-1.47751e-08 -4.63961e-09 -0.000118735)
(2.04658e-08 1.96947e-09 -0.000118556)
(3.57706e-09 4.11593e-09 -0.000126321)
(-6.49173e-09 -1.9615e-10 -0.000126355)
(1.99277e-08 -3.013e-09 -0.000126202)
(-1.12346e-08 -2.38387e-09 -0.000126343)
(-6.48602e-09 4.45696e-10 -0.000126343)
(4.94253e-09 1.65857e-09 -0.000126319)
(-1.04796e-08 -2.24921e-09 -0.000126329)
(1.82428e-08 -2.09887e-09 -0.000126202)
(-2.29535e-08 5.42875e-09 -0.000126176)
(5.4578e-09 4.9631e-09 -0.00012633)
(-6.40209e-09 1.14658e-09 -0.000126312)
(4.77336e-09 2.95621e-09 -0.00012635)
(7.4348e-09 3.80111e-09 -0.000126341)
(-2.25297e-08 4.95685e-09 -0.000126198)
(4.26915e-09 3.72681e-09 -0.000126344)
(-6.209e-09 7.40272e-11 -0.000126315)
(2.27121e-08 2.71056e-11 -0.000118531)
(-1.1022e-08 5.49816e-09 -0.000118734)
(1.22722e-08 5.66208e-09 -0.000118725)
(-2.31727e-08 -3.05249e-10 -0.000118527)
(-1.41162e-08 4.71101e-09 -0.000118747)
(2.14566e-08 -1.84655e-09 -0.00011855)
(6.80137e-09 2.60114e-09 -0.000126329)
(-3.70879e-09 4.38658e-09 -0.000126366)
(-1.07431e-08 2.33178e-09 -0.000126353)
(2.50313e-08 5.0517e-09 -0.000126205)
(-6.2944e-09 -3.63592e-10 -0.000126355)
(7.01413e-09 3.31969e-09 -0.000126334)
(-6.06229e-09 5.64343e-09 -0.000118723)
(7.44165e-09 -2.49377e-09 -0.000118789)
(6.71324e-09 4.42125e-09 -0.000118741)
(-6.80917e-09 -2.73234e-09 -0.000118685)
(5.74916e-09 -6.0924e-09 -0.000118781)
(-5.44183e-09 5.06357e-09 -0.000118733)
(7.70809e-09 3.29884e-10 -0.0001187)
(-6.87657e-09 5.84468e-09 -0.000118765)
(5.26038e-09 6.17748e-09 -0.000118696)
(-6.82338e-09 -3.32476e-09 -0.000118753)
(-5.89745e-09 4.53627e-09 -0.000118751)
(7.51577e-09 -2.24547e-09 -0.000118703)
(-6.19331e-09 -5.80865e-09 -0.000118744)
(6.40569e-09 3.3716e-09 -0.000118695)
(-1.4252e-08 -6.27395e-10 -0.000126204)
(1.4418e-08 -4.76038e-10 -0.00012635)
(4.96498e-09 -3.02201e-09 -0.000126388)
(-4.9276e-09 2.51676e-09 -0.000126361)
(1.25176e-08 -1.39395e-09 -0.000126346)
(-1.5926e-08 -6.12628e-10 -0.000126212)
(-1.65994e-08 3.79177e-09 -0.000118538)
(1.66243e-08 -4.68755e-09 -0.000118739)
(1.95877e-08 2.42665e-09 -0.000118542)
(-1.62816e-08 -4.76035e-09 -0.000118738)
(1.45595e-08 -4.98965e-09 -0.000118733)
(-1.78796e-08 2.86512e-09 -0.000118547)
(-1.81683e-08 -2.72647e-09 -0.000118728)
(1.68481e-08 3.31138e-09 -0.000118547)
(4.04573e-09 2.92493e-09 -0.000126306)
(-6.3799e-09 3.58222e-10 -0.00012634)
(1.91123e-08 -2.69807e-09 -0.000126189)
(-1.48068e-08 -1.6526e-10 -0.000126331)
(-5.89506e-09 -6.83971e-10 -0.000126328)
(5.01409e-09 2.26006e-09 -0.000126303)
(-1.37958e-08 -6.23251e-10 -0.000126324)
(1.43282e-08 -1.65924e-10 -0.000126193)
(-2.02624e-08 3.63736e-09 -0.000126204)
(8.66168e-09 3.61864e-09 -0.000126355)
(-5.63768e-09 -5.11188e-11 -0.000126308)
(6.50556e-09 -1.04287e-09 -0.000126344)
(1.21993e-08 1.16791e-09 -0.00012636)
(-1.92107e-08 2.24089e-09 -0.000126219)
(7.92528e-09 -2.86255e-09 -0.000126344)
(-3.60793e-09 -4.29938e-09 -0.000126311)
(2.00816e-08 -2.52128e-09 -0.000118557)
(-7.22189e-09 8.43898e-09 -0.000118765)
(1.54262e-08 3.83026e-09 -0.000118756)
(-2.04311e-08 -1.78797e-09 -0.000118559)
(-1.85134e-08 2.12821e-09 -0.000118777)
(2.1799e-08 -1.21585e-09 -0.000118583)
(6.81873e-09 3.49497e-10 -0.000126318)
(-5.87937e-09 7.52053e-10 -0.000126359)
(-1.7487e-08 -1.30438e-09 -0.000126375)
(1.53795e-08 2.72676e-10 -0.000126229)
(-9.12451e-09 -6.65599e-09 -0.00012635)
(7.88878e-10 -8.76689e-09 -0.000126325)
(-6.13469e-09 3.5915e-09 -0.000118724)
(7.09352e-09 -2.33698e-09 -0.000118785)
(7.81628e-09 8.85934e-10 -0.000118741)
(-5.62399e-09 -7.09335e-09 -0.000118681)
(6.70827e-09 -3.35705e-09 -0.000118783)
(-5.79781e-09 5.74422e-09 -0.00011873)
(5.18056e-09 -5.00046e-09 -0.000118691)
(-6.4536e-09 3.67231e-09 -0.000118753)
(6.37079e-09 3.60308e-09 -0.000118683)
(-6.80435e-09 -4.14531e-09 -0.000118744)
(-8.66672e-09 -1.08362e-09 -0.000118748)
(5.99111e-09 -7.42302e-09 -0.000118692)
(-5.96532e-09 -4.91613e-09 -0.00011874)
(6.76509e-09 3.2993e-09 -0.000118687)
(-1.67205e-08 -1.75292e-09 -0.000126206)
(1.11843e-08 -1.88212e-09 -0.00012635)
(6.27497e-09 3.18862e-10 -0.000126389)
(-4.21978e-09 3.5582e-09 -0.000126361)
(1.15081e-08 -1.92713e-09 -0.000126355)
(-1.7745e-08 -1.09938e-09 -0.000126214)
(-2.04157e-08 1.96749e-09 -0.000118539)
(1.41801e-08 -5.12495e-09 -0.000118739)
(1.62107e-08 3.77078e-09 -0.000118536)
(-1.77933e-08 -3.8375e-09 -0.000118733)
(1.70861e-08 -2.94755e-09 -0.000118742)
(-1.85545e-08 3.09023e-09 -0.000118548)
(-1.90921e-08 -2.67527e-09 -0.00011873)
(1.61113e-08 4.57479e-09 -0.000118542)
(4.79597e-09 1.56617e-09 -0.000126292)
(-6.04688e-09 -5.7336e-10 -0.000126329)
(1.60054e-08 -7.60023e-10 -0.000126182)
(-1.6037e-08 7.94565e-10 -0.000126325)
(-6.16887e-09 4.43301e-10 -0.000126327)
(4.54425e-09 3.63289e-09 -0.000126296)
(-1.54619e-08 5.56996e-10 -0.000126323)
(1.41486e-08 4.55241e-10 -0.000126187)
(-1.45143e-08 5.10754e-10 -0.000126222)
(1.72461e-08 -1.10121e-09 -0.000126364)
(-2.9339e-09 -5.81297e-09 -0.000126311)
(1.0409e-08 -6.80752e-09 -0.000126349)
(1.89289e-08 -2.37998e-09 -0.000126364)
(-1.04321e-08 -1.68085e-09 -0.000126227)
(9.72867e-09 -7.20617e-09 -0.000126349)
(-9.13061e-11 -1.02043e-08 -0.000126316)
(1.24976e-08 -4.65777e-09 -0.000118587)
(-2.20251e-08 2.30294e-09 -0.000118784)
(2.13567e-08 1.66738e-09 -0.000118761)
(-1.38799e-08 -4.26121e-09 -0.000118572)
(-2.42746e-08 7.93896e-10 -0.000118781)
(9.85742e-09 -6.19825e-09 -0.000118594)
(1.73271e-09 -8.03154e-09 -0.000126319)
(-1.16707e-08 -8.99312e-09 -0.000126357)
(-2.41368e-08 -4.94524e-09 -0.000126373)
(9.79264e-09 -2.50958e-09 -0.000126234)
(-1.29458e-08 -1.31599e-08 -0.000126354)
(-1.45075e-10 -1.03728e-08 -0.000126326)
(-5.87084e-09 5.88237e-09 -0.000118723)
(7.16583e-09 -3.0851e-09 -0.000118785)
(9.35743e-09 -3.3106e-09 -0.000118747)
(-3.47929e-09 -1.15704e-08 -0.000118687)
(6.2775e-09 -4.43155e-09 -0.00011878)
(-5.86865e-09 4.34434e-09 -0.000118728)
(2.88201e-09 -1.22339e-08 -0.000118688)
(-1.15501e-08 -6.65917e-09 -0.000118751)
(6.34748e-09 4.74035e-09 -0.000118682)
(-7.00955e-09 -4.11532e-09 -0.000118745)
(-9.75391e-09 -5.91977e-09 -0.000118749)
(2.24878e-09 -1.46096e-08 -0.000118691)
(-6.44075e-09 -4.33981e-09 -0.000118746)
(6.41928e-09 4.35473e-09 -0.000118687)
(-1.79799e-08 -2.16694e-09 -0.000126214)
(9.84158e-09 -2.94001e-09 -0.000126361)
(5.27867e-09 -1.59384e-09 -0.000126385)
(-5.02312e-09 1.89424e-09 -0.000126356)
(9.90611e-09 -2.65683e-09 -0.00012636)
(-1.84989e-08 -2.15261e-09 -0.000126223)
(-1.77431e-08 3.06679e-09 -0.000118552)
(1.51836e-08 -5.13384e-09 -0.000118751)
(1.56013e-08 3.95489e-09 -0.000118539)
(-1.8994e-08 -3.37517e-09 -0.000118731)
(1.47165e-08 -4.42547e-09 -0.00011875)
(-1.8686e-08 2.62247e-09 -0.00011856)
(-1.71363e-08 -3.69277e-09 -0.00011873)
(1.6151e-08 4.18885e-09 -0.00011854)
(4.37936e-09 3.32705e-09 -0.000126293)
(-6.09281e-09 -5.89716e-10 -0.000126332)
(1.49547e-08 -3.70214e-10 -0.000126185)
(-1.60243e-08 5.99843e-10 -0.000126323)
(-6.56227e-09 1.31011e-09 -0.000126334)
(4.79714e-09 2.06394e-09 -0.000126298)
(-1.35298e-08 -8.42433e-10 -0.000126322)
(1.5024e-08 -1.37935e-10 -0.000126183)
(-9.0013e-09 -3.08535e-09 -0.000126224)
(1.81807e-08 -1.51214e-09 -0.000126358)
(-1.02576e-09 -9.3367e-09 -0.000126316)
(1.01071e-08 -6.4634e-09 -0.000126354)
(1.8546e-08 -1.88058e-09 -0.000126347)
(-1.09773e-08 -1.72707e-09 -0.000126217)
(7.69791e-09 -2.93079e-09 -0.000126349)
(-3.41848e-10 -9.43223e-09 -0.00012632)
(8.44202e-09 -6.81783e-09 -0.000118589)
(-1.92847e-08 3.12349e-09 -0.000118776)
(2.01539e-08 2.65737e-09 -0.000118745)
(-1.28432e-08 -4.76863e-09 -0.000118563)
(-2.66985e-08 -2.20878e-10 -0.000118769)
(1.05146e-08 -5.50538e-09 -0.000118587)
(2.9938e-10 -1.10085e-08 -0.000126321)
(-8.70655e-09 -5.20661e-09 -0.000126357)
(-2.28514e-08 -4.65921e-09 -0.000126358)
(5.31801e-09 -4.86774e-09 -0.000126224)
(-1.09999e-08 -8.63107e-09 -0.000126348)
(-2.01607e-09 -1.4096e-08 -0.000126323)
(-6.37991e-09 4.62747e-09 -0.00011872)
(6.67674e-09 -4.48061e-09 -0.000118778)
(7.67494e-09 1.64403e-09 -0.000118747)
(-3.65284e-09 -1.03924e-08 -0.00011869)
(5.10397e-09 -7.48193e-09 -0.000118767)
(-6.37844e-09 3.53174e-09 -0.00011872)
(2.54594e-09 -1.4713e-08 -0.00011869)
(-8.84927e-09 -7.4661e-10 -0.000118754)
(6.33302e-09 5.04641e-09 -0.000118691)
(-7.44396e-09 -2.05899e-09 -0.000118753)
(-8.58012e-09 -1.5772e-09 -0.000118746)
(3.34777e-09 -1.14463e-08 -0.00011869)
(-6.43416e-09 -4.85099e-09 -0.00011875)
(6.0973e-09 5.11748e-09 -0.000118693)
(-1.83519e-08 -1.77279e-09 -0.000126219)
(9.54661e-09 -2.82206e-09 -0.000126359)
(4.42987e-09 -2.96708e-09 -0.000126371)
(-6.46475e-09 -5.52284e-10 -0.000126347)
(8.91896e-09 -2.96221e-09 -0.000126353)
(-2.00945e-08 -3.10044e-09 -0.000126218)
(-2.07073e-08 2.07611e-09 -0.000118558)
(1.37047e-08 -5.04085e-09 -0.000118752)
(1.71466e-08 3.72454e-09 -0.000118537)
(-1.47335e-08 -4.74952e-09 -0.000118727)
(1.32667e-08 -4.86493e-09 -0.000118746)
(-2.00023e-08 2.43737e-09 -0.000118558)
(-1.79992e-08 -3.24022e-09 -0.000118724)
(1.86166e-08 2.89676e-09 -0.000118536)
(3.98281e-09 3.57375e-09 -0.000126303)
(-6.30616e-09 6.85299e-10 -0.000126342)
(1.7526e-08 -1.13701e-09 -0.000126182)
(-1.1958e-08 -1.91801e-09 -0.00012632)
(-5.91794e-09 -1.99813e-10 -0.000126338)
(4.48595e-09 2.22613e-09 -0.000126307)
(-1.24883e-08 -1.1788e-09 -0.000126315)
(1.82647e-08 -2.02054e-09 -0.00012618)
(-1.13594e-08 -1.72031e-09 -0.000126206)
(1.57161e-08 -4.58218e-10 -0.000126341)
(-3.10693e-09 -5.70875e-09 -0.000126314)
(7.31628e-09 -1.84678e-09 -0.000126353)
(1.24191e-08 9.63858e-10 -0.00012633)
(-1.4077e-08 -5.53363e-10 -0.000126201)
(7.241e-09 -2.02563e-09 -0.000126348)
(-3.49331e-09 -5.43439e-09 -0.000126317)
(6.92206e-09 -7.31228e-09 -0.000118576)
(-2.1318e-08 1.62606e-09 -0.000118766)
(1.79767e-08 2.90208e-09 -0.000118728)
(-1.54908e-08 -4.17308e-09 -0.000118547)
(-2.09298e-08 1.88778e-09 -0.000118759)
(1.17663e-08 -5.99614e-09 -0.000118575)
(4.3437e-10 -1.05028e-08 -0.000126316)
(-9.60145e-09 -6.25228e-09 -0.000126358)
(-1.87459e-08 -2.60104e-09 -0.000126351)
(1.42359e-08 -5.91294e-10 -0.000126214)
(-8.41975e-09 -5.00966e-09 -0.000126352)
(2.51601e-09 -6.8371e-09 -0.000126325)
(-7.08642e-09 2.34784e-09 -0.000118708)
(7.19764e-09 -1.92514e-09 -0.00011877)
(7.62488e-09 2.31479e-09 -0.000118746)
(-5.77214e-09 -6.94436e-09 -0.00011869)
(6.94836e-09 -3.37673e-09 -0.00011876)
(-6.14725e-09 5.55473e-09 -0.000118711)
(3.80386e-09 -1.0783e-08 -0.000118688)
(-8.7993e-09 -1.85206e-09 -0.000118758)
(6.06915e-09 4.8028e-09 -0.000118693)
(-7.02701e-09 -2.83244e-09 -0.000118752)
(-7.26177e-09 2.22064e-09 -0.000118754)
(4.59369e-09 -9.48247e-09 -0.000118699)
(-6.81804e-09 -3.89064e-09 -0.000118747)
(5.66586e-09 5.61104e-09 -0.000118695)
(-1.91654e-08 -2.45464e-09 -0.000126212)
(1.03291e-08 -2.57138e-09 -0.000126357)
(6.12055e-09 -5.76438e-10 -0.000126361)
(-4.61522e-09 3.67342e-09 -0.000126338)
(1.12962e-08 -1.56611e-09 -0.000126353)
(-1.81743e-08 -1.84755e-09 -0.000126219)
(-2.14613e-08 1.45346e-09 -0.000118555)
(1.37894e-08 -5.0798e-09 -0.000118754)
(1.70493e-08 3.57745e-09 -0.000118534)
(-1.5382e-08 -4.57048e-09 -0.000118732)
(1.59391e-08 -3.77303e-09 -0.00011875)
(-1.91908e-08 3.15914e-09 -0.00011856)
(-1.80667e-08 -3.45034e-09 -0.000118727)
(1.88651e-08 3.5016e-09 -0.000118539)
(4.99496e-09 1.81094e-09 -0.000126304)
(-5.5877e-09 -7.60987e-10 -0.000126339)
(1.76048e-08 -1.48067e-09 -0.000126177)
(-1.19704e-08 -1.11351e-09 -0.000126321)
(-5.64121e-09 -9.58715e-10 -0.000126337)
(5.29676e-09 1.53088e-09 -0.000126306)
(-1.36217e-08 -5.50848e-10 -0.000126318)
(1.86572e-08 -2.39462e-09 -0.000126183)
(-1.61058e-08 5.47209e-10 -0.000126187)
(1.23539e-08 9.0134e-10 -0.000126325)
(-4.15517e-09 -3.63751e-09 -0.000126313)
(6.63017e-09 -6.53303e-10 -0.000126348)
(1.40111e-08 2.84676e-10 -0.000126316)
(-1.64287e-08 3.56085e-10 -0.000126186)
(4.81166e-09 1.75916e-09 -0.000126338)
(-4.07251e-09 -3.94468e-09 -0.000126312)
(1.28505e-08 -5.55625e-09 -0.000118563)
(-1.37094e-08 5.24886e-09 -0.000118758)
(1.73192e-08 3.33024e-09 -0.000118716)
(-1.55056e-08 -4.60601e-09 -0.000118532)
(-1.75345e-08 3.07698e-09 -0.000118752)
(1.73723e-08 -3.50538e-09 -0.00011857)
(4.95184e-09 -2.50525e-09 -0.000126318)
(-4.36426e-09 3.21927e-09 -0.000126362)
(-1.28216e-08 4.63918e-10 -0.000126345)
(1.27688e-08 -1.10665e-09 -0.000126208)
(-7.4984e-09 -2.08193e-09 -0.000126352)
(2.9041e-09 -6.02692e-09 -0.000126327)
(-5.7059e-09 5.60619e-09 -0.000118702)
(7.31018e-09 -2.04288e-09 -0.000118762)
(6.38427e-09 4.6299e-09 -0.000118735)
(-6.31744e-09 -4.88499e-09 -0.000118683)
(6.77375e-09 -3.76908e-09 -0.000118757)
(-5.64377e-09 6.95777e-09 -0.000118706)
(5.62495e-09 -6.43823e-09 -0.000118694)
(-5.92527e-09 5.54136e-09 -0.000118762)
(5.54468e-09 4.87364e-09 -0.000118691)
(-6.76455e-09 -3.33252e-09 -0.000118752)
(-6.30616e-09 3.60966e-09 -0.000118754)
(6.43651e-09 -4.94701e-09 -0.0001187)
(-6.238e-09 -4.37934e-09 -0.000118748)
(6.49263e-09 4.78184e-09 -0.000118695)
(-1.66413e-08 -7.23314e-10 -0.000126211)
(1.15063e-08 -2.15307e-09 -0.000126356)
(6.35889e-09 -6.03956e-12 -0.000126355)
(-2.71378e-09 6.44702e-09 -0.00012633)
(1.18351e-08 -1.11495e-09 -0.000126347)
(-1.78752e-08 -1.72617e-09 -0.000126216)
(-1.77015e-08 3.322e-09 -0.000118557)
(1.47044e-08 -4.4516e-09 -0.000118754)
(1.72698e-08 3.01071e-09 -0.000118539)
(-1.58119e-08 -4.27135e-09 -0.000118733)
(1.80754e-08 -3.08293e-09 -0.000118745)
(-1.87316e-08 2.62265e-09 -0.000118562)
(-1.46866e-08 -4.1998e-09 -0.000118728)
(1.73822e-08 3.69247e-09 -0.000118543)
(4.80327e-09 1.51889e-09 -0.000126304)
(-5.90666e-09 -6.31988e-10 -0.000126342)
(1.53445e-08 -7.79538e-10 -0.000126181)
(-1.26735e-08 -1.26009e-09 -0.000126325)
(-6.14164e-09 5.22449e-10 -0.000126338)
(4.80667e-09 2.23741e-09 -0.00012631)
(-1.15425e-08 -1.77013e-09 -0.00012632)
(1.71511e-08 -1.34272e-09 -0.000126186)
(-1.43082e-08 -6.93806e-11 -0.000126176)
(1.30225e-08 1.28002e-09 -0.000126318)
(-5.85856e-09 -5.37463e-10 -0.000126301)
(6.43838e-09 3.75778e-10 -0.000126339)
(1.43113e-08 1.9803e-10 -0.000126308)
(-1.42997e-08 -3.15441e-11 -0.000126176)
(4.93678e-09 1.52073e-09 -0.000126324)
(-3.99591e-09 -3.4881e-09 -0.000126302)
(1.46066e-08 -4.61173e-09 -0.000118555)
(-1.47405e-08 4.58403e-09 -0.000118752)
(1.77701e-08 2.97683e-09 -0.000118708)
(-1.42095e-08 -4.40304e-09 -0.000118522)
(-1.7076e-08 3.59807e-09 -0.000118743)
(1.84529e-08 -3.65909e-09 -0.000118561)
(4.22805e-09 -3.54621e-09 -0.000126316)
(-6.95891e-09 -9.47936e-10 -0.000126356)
(-1.46288e-08 5.27083e-11 -0.000126337)
(1.8082e-08 1.52572e-09 -0.000126204)
(-7.54944e-09 -2.89316e-09 -0.000126345)
(6.12215e-09 1.41925e-10 -0.000126322)
(-5.81268e-09 5.71547e-09 -0.000118696)
(7.77105e-09 -1.82676e-09 -0.000118759)
(6.66264e-09 4.20707e-09 -0.000118723)
(-6.00427e-09 -5.40819e-09 -0.000118673)
(6.65036e-09 -3.58403e-09 -0.000118745)
(-5.34163e-09 6.5406e-09 -0.0001187)
(5.59799e-09 -5.59852e-09 -0.000118692)
(-7.13747e-09 2.57527e-09 -0.000118757)
(6.50479e-09 4.61888e-09 -0.000118687)
(-6.28724e-09 -5.69852e-09 -0.000118751)
(-6.10819e-09 4.10464e-09 -0.000118745)
(5.63866e-09 -5.08801e-09 -0.000118697)
(-6.27061e-09 -4.99547e-09 -0.000118741)
(6.70532e-09 3.49314e-09 -0.000118691)
(-1.59148e-08 -7.94497e-10 -0.000126206)
(1.30974e-08 -7.87369e-10 -0.000126346)
(6.48052e-09 7.59994e-10 -0.000126343)
(-3.69214e-09 4.34797e-09 -0.000126322)
(1.39575e-08 -7.34733e-11 -0.000126335)
(-1.67326e-08 -7.8342e-10 -0.000126205)
(-1.69298e-08 3.43633e-09 -0.000118553)
(1.69486e-08 -3.64944e-09 -0.000118747)
(2.08456e-08 2.1727e-09 -0.000118535)
(-1.41069e-08 -5.02762e-09 -0.000118729)
(1.87128e-08 -3.18048e-09 -0.000118738)
(-1.67993e-08 4.19232e-09 -0.000118552)
(-1.66336e-08 -3.63358e-09 -0.000118722)
(1.77677e-08 3.0485e-09 -0.000118538)
(4.16847e-09 3.15667e-09 -0.000126302)
(-4.6796e-09 -2.1124e-09 -0.000126339)
(1.96588e-08 -2.57642e-09 -0.000126178)
(-1.28897e-08 -1.24777e-09 -0.00012632)
(-5.64664e-09 -1.02152e-09 -0.000126332)
(6.34698e-09 -5.24465e-10 -0.000126305)
(-1.1027e-08 -1.62349e-09 -0.000126311)
(1.68531e-08 -1.269e-09 -0.00012618)
(-1.41644e-08 -6.12852e-10 -0.000126169)
(1.43008e-08 9.38601e-10 -0.000126306)
(-5.20252e-09 -1.20138e-09 -0.000126288)
(6.43962e-09 -5.29129e-10 -0.000126323)
(1.34446e-08 4.1365e-10 -0.000126305)
(-1.5187e-08 7.86048e-10 -0.000126167)
(7.41215e-09 -3.04365e-09 -0.000126318)