/*--------------------------------*- C++ -*----------------------------------*\
| =========                 |                                                 |
| \\      /  F ield         | OpenFOAM: The Open Source CFD Toolbox           |
|  \\    /   O peration     | Version:  2206                                  |
|   \\  /    A nd           | Website:  www.openfoam.com                      |
|    \\/     M anipulation  |                                                 |
\*---------------------------------------------------------------------------*/
FoamFile
{
    version     2.0;
    format      ascii;
    arch        "LSB;label=32;scalar=64";
    class       volScalarField;
    location    "110";
    object      omega;
}
// * * * * * * * * * * * * * * * * * * * * * * * * * * * * * * * * * * * * * //

dimensions      [0 0 -1 0 0 0 0];

internalField   nonuniform List<scalar> 
66621
(
297.378
145.072
298.018
58.928
126.997
21.1689
401.905
57.0769
26.4473
20.7914
129.474
29.0825
195.992
194.363
400.754
401.385
29.2857
190.639
195.919
26.5544
127.418
192.389
401.996
59.6111
27.0357
131.88
21.2946
144.709
297.652
60.1568
26.998
21.6815
132.749
139.503
298.333
59.418
26.0468
21.7381
133.271
137.797
297.754
29.0462
195.629
193.637
399.618
57.2306
25.4009
20.8774
129.53
139.722
295.767
140.309
295.849
402.435
400.12
201.629
418.93
329.889
161.049
309.489
143.967
154.849
310.028
329.607
420.167
206.807
298.076
206.176
419.845
402.095
240.529
404.383
404.332
405.054
405.011
242.211
151.207
306.684
195.215
91.0596
89.8642
307.131
153.2
146.236
306.599
193.564
89.394
82.935
306.697
152.426
402.997
240.251
403.746
404.724
404.474
405.453
241.988
147.13
305.86
86.3335
306.213
153.352
147.44
307.141
195.236
91.2412
308.006
153.243
90.0376
405.153
241.492
307.012
87.9893
148.044
330.052
309.226
161.651
143.727
310.032
160.741
329.381
419.76
206.01
297.614
202.957
419.577
156.827
309.671
329.594
205.818
419.805
309.774
159.131
330.159
202.586
419.292
240.677
404.664
404.075
405.663
404.852
242.389
151.319
307.088
194.902
89.6827
307.531
87.5768
152.424
147.6
305.982
192.75
88.9203
87.3578
306.053
153.094
400.524
326.931
157.335
306.058
138.103
156.009
306.324
326.679
417.862
203.074
296.254
202.49
417.904
326.897
157.741
306.048
139.531
156.108
306.747
326.741
418.591
203.012
296.117
202.466
416.603
400.995
18.4004
16.5471
16.6918
15.6908
18.3775
16.6032
16.6741
15.6484
18.1488
16.6904
16.5563
15.5819
18.1002
16.6312
16.5314
15.5385
33.1825
67.6472
31.1271
57.2897
62.87
30.7307
32.6928
86.9982
58.1935
39.6359
32.0385
30.1287
65.0537
52.592
28.3369
63.5736
32.6328
38.8073
87.2652
128.158
58.0813
56.8985
86.511
39.3779
73.0161
28.7299
46.8559
46.8188
45.7999
42.8956
79.0215
77.2168
28.8444
47.1433
47.6072
74.9591
43.1547
46.8781
85.3585
56.1776
39.2039
33.8364
68.8629
31.1235
58.2933
67.6389
30.6573
32.785
40.5818
89.9412
130.27
59.2969
89.0405
54.7243
39.2309
32.2771
31.2951
68.4348
59.375
30.8899
67.4629
34.4001
38.032
88.9448
131.503
58.9817
82.3169
41.109
57.6652
33.7053
31.0811
68.0379
56.9909
30.4844
66.6462
33.0106
40.3678
88.5591
132.333
60.0071
59.3447
86.9296
39.1654
76.206
28.3048
46.4927
46.8741
46.1274
43.3683
78.347
32.0194
30.0959
65.1954
56.2372
28.4195
60.0523
32.7104
38.7605
87.0704
123.371
58.3178
53.624
85.9924
37.8784
739.662
1609.82
4419.18
16481.1
116782
739.27
1609.82
4419.39
16483.1
116802
718.352
1589.84
4386.45
16427.1
116892
718.501
1589.69
4386.22
16425.1
116862
718.341
1589.81
4386.67
16428.8
116912
718.541
1589.73
4386.16
16425.7
116872
739.315
1609.89
4419.58
16484.3
116814
739.37
1609.77
4419.02
16481.2
116781
739.463
1609.76
4419.04
16480.5
116772
718.533
1589.78
4386.2
16426
116881
739.696
1609.84
4419.22
16482.2
116795
739.711
1609.85
4419.23
16482.4
116802
718.531
1589.74
4386.36
16426.8
116892
718.711
1589.87
4386.64
16428.5
116911
727.579
1600.45
4403.62
16449.8
116752
726.105
1594.71
4392.64
16428.2
116727
726.715
1595.03
4392.84
16428.3
116727
727.176
1600.01
4403.32
16449.6
116752
739.862
1610.23
4419.7
16483.3
116802
718.905
1590.15
4386.66
16427.2
116892
738.318
1608.87
4417.49
16479.9
116795
738.941
1609.25
4417.76
16480.1
116795
738.427
1608.84
4417.41
16479.2
116795
738.996
1609.21
4417.68
16479.4
116795
718.91
1590.14
4386.87
16429
116912
716.941
1593.17
4393.87
16442.1
116904
738.542
1608.83
4417.38
16478.5
116777
727.579
1600.45
4403.64
16449.5
116747
726.088
1594.69
4392.61
16428.1
116725
726.727
1595.02
4392.81
16428.3
116725
727.198
1600.05
4403.38
16449.4
116747
739.879
1610.27
4419.86
16484.5
116814
726.331
1594.72
4392.93
16429
116749
727.27
1600.17
4403.71
16451.3
116774
726.479
1594.82
4392.93
16429.6
116747
727.401
1600.23
4403.71
16451.3
116769
716.735
1593.18
4394.06
16442.5
116904
738.499
1608.83
4417.15
16476.9
116759
739.055
1609.24
4417.47
16477.2
116759
719.01
1590.07
4386.42
16426.2
116881
728.116
1600.54
4403.88
16451.1
116769
726.669
1594.87
4392.94
16429.9
116747
727.043
1595.07
4393.07
16430.1
116747
727.795
1600.18
4403.64
16450.9
116769
740.188
1610.2
4419.52
16482.4
116795
728.066
1600.53
4403.84
16450.9
116774
726.664
1594.88
4392.92
16429.3
116749
727.172
1595.12
4393.08
16429.4
116749
727.767
1600.19
4403.62
16450.7
116774
740.292
1610.24
4419.54
16482.6
116802
719.253
1590.16
4386.86
16428.7
116911
716.658
1593.14
4394.01
16442.7
116918
716.799
1593.16
4393.94
16442.9
116921
715.591
1588.77
4385.07
16420.8
116835
715.988
1589.3
4385.52
16422.1
116840
715.467
1588.81
4385.21
16422
116840
716.828
1593.22
4394.18
16443.3
116918
738.25
1608.88
4417.34
16478.1
116777
738.833
1609.22
4417.58
16478.3
116777
717.279
1593.49
4394.27
16442.9
116918
717.401
1593.48
4394.17
16443.1
116921
716.662
1593.19
4394.1
16443.4
116933
738.402
1608.82
4417.27
16477.9
116776
739.063
1609.18
4417.53
16478.2
116776
716.657
1593.17
4393.89
16442.2
116921
738.205
1608.84
4417.3
16478.4
116795
738.76
1609.19
4417.58
16478.6
116795
717.257
1593.47
4394.28
16443.5
116933
717.265
1593.46
4394.08
16442.3
116921
715.918
1589.34
4385.67
16422.8
116852
715.488
1588.86
4385.35
16422.6
116852
715.612
1588.92
4385.12
16421.5
116840
715.356
1588.91
4385.15
16421
116831
717.346
1593.55
4394.4
16443.5
116918
717.369
1593.54
4394.34
16442.7
116904
716.365
1589.32
4385.44
16421.2
116835
715.916
1588.85
4385.12
16421
116835
716.249
1589.26
4385.31
16421.3
116840
715.795
1588.81
4384.99
16421
116840
400.674
402.455
27.5777
194.513
193.176
140.238
297.776
54.5325
26.2372
126.631
21.7824
139.914
297.426
54.1173
26.1125
21.7183
124.108
27.3323
128.506
297.851
402.199
28.5138
193.556
191.501
399.886
56.1385
25.7935
21.5392
124.368
51.7953
26.7918
21.62
123.839
132.554
295.582
136.135
295.286
28.0309
193.82
190.68
401.013
400.323
404.425
405.109
241.484
306.346
85.6973
152.423
307.491
86.881
153.091
329.29
159.082
309.496
136.987
329.877
159.616
308.069
417.869
203.092
296.442
419.595
205.053
328.441
309.332
157.332
137.845
329.344
307.997
155.4
417.877
204.651
296.231
419.953
204.549
418.375
205.172
296.434
419.409
205.268
399.597
242.857
404.685
404.914
242.147
404.236
403.005
153.747
307.191
85.8917
192.528
85.3016
153.11
305.341
154.728
305.829
84.9173
192.34
151.428
304.735
84.1741
399.877
325.479
154.292
306.04
138.537
326.624
152.603
305.696
415.776
200.776
294.541
417.304
201.414
325.645
153.939
305.568
134.971
326.125
155.499
305.448
415.709
200.634
294.465
417.337
201.261
242.581
404.79
404.709
241.817
403.901
403.958
154.781
306.796
86.6704
192.109
154.145
83.7813
305.198
154.694
306.537
83.9904
189.672
151.278
88.7306
305.172
399.838
398.905
18.435
16.8374
16.5818
15.6328
18.4908
16.772
16.5624
15.5924
18.3603
16.4685
16.5236
15.5999
18.3671
16.4452
16.4767
15.5025
47.2918
45.5451
80.9849
34.9773
65.2013
28.8867
58.304
34.9937
66.2803
30.4574
42.2351
81.8116
56.1258
129.088
59.5891
42.1082
87.2286
34.8178
29.3697
63.1286
56.9326
34.6941
30.8443
61.1317
41.7783
87.6023
54.7141
129.481
41.1334
85.358
58.2435
41.7032
85.0595
56.9604
126.666
40.6529
86.7556
55.5752
80.1098
27.9848
43.9139
44.9103
46.8569
79.4864
43.834
33.5444
28.8772
62.126
53.6445
33.1312
30.3792
61.0904
40.5169
82.8423
54.8279
124.774
39.802
55.1216
82.732
33.3762
29.9524
63.771
56.2242
33.0011
29.2729
61.7226
40.2344
83.3102
53.6808
128.604
38.969
81.5706
57.4876
79.6963
27.6591
43.1417
43.8633
78.8609
46.3341
46.1603
18.9338
28.204
18.8724
28.4244
27.5273
30.767
30.5017
30.3929
28.3058
28.0687
28.0059
27.8593
30.3662
29.9019
28.7822
28.6605
28.6146
28.3915
28.9184
27.0197
28.7271
28.1735
26.9263
26.8243
27.7719
28.0703
27.3113
27.4169
30.226
28.3065
142.005
295.905
295.618
143.451
400.103
399.005
147.697
298.08
298.353
147.667
18.8681
18.8873
18.7619
18.5413
18.7513
18.7732
18.7871
62.1475
136.641
22.504
25.9286
136.475
21.9564
63.1755
142.912
295.671
143.153
295.627
399.016
399.082
145.385
297.871
148.336
297.84
18.6574
18.5946
18.6857
61.9441
136.584
22.5747
27.0301
62.9649
135.401
21.7967
401.481
400.669
59.3541
21.8426
134.39
26.5948
21.4318
133.316
60.4133
197.954
195.918
30.4471
197.48
195.797
399.705
399.022
401.488
400.63
195.685
198.096
30.3399
195.527
197.876
398.747
400.702
400.499
401.588
28.2247
195.249
197.576
191.512
194.536
142.434
295.959
295.7
143.11
58.9551
133.918
22.0772
26.0594
133.489
21.4611
59.8736
59.0823
133.827
22.1094
25.8148
133.53
21.4862
59.3146
134.983
295.608
295.928
141.493
135.765
295.424
295.738
141.892
53.681
27.6523
132.479
21.9556
131.076
21.3048
56.055
57.4573
27.4726
131.955
21.9733
127.533
21.3288
59.0032
195.815
197.941
30.1964
195.304
197.492
401.597
400.276
398.967
400.473
28.589
194.85
196.867
192.578
194.728
400.197
401.947
62.7828
138.196
22.6451
27.6692
136.479
21.8783
64.0611
146.929
297.837
147.821
297.976
62.2455
22.67
136.588
26.252
21.7647
63.3281
136.071
144.97
297.779
297.76
147.174
58.3988
27.1634
135.655
22.5202
130.901
21.7885
62.1008
141.639
297.778
146.538
297.997
58.3563
28.0133
22.6048
135.079
22.5528
62.1452
133.508
147.275
297.768
297.845
147.737
62.5473
22.5693
136.906
26.9346
21.8418
63.4752
136.594
146.917
297.85
147.928
297.734
58.1928
27.6586
135.807
22.4153
134.358
21.7882
62.234
144.319
297.862
298.197
146.982
58.1521
28.4792
22.5028
135.235
21.8062
62.0533
130.726
141.698
297.867
146.474
297.898
399.341
399.012
401.049
400.765
193.752
195.43
30.3098
194.993
197.278
141.53
295.531
136.795
295.425
59.0632
129.44
21.7561
27.3761
58.4411
132.503
21.8273
58.6073
127.02
21.7781
27.2927
57.5123
131.758
21.8582
192.076
194.295
30.1813
194.696
196.794
401.072
400.541
61.8749
130.557
22.32
28.1902
58.2299
135.521
22.3857
147.137
297.578
138.69
297.549
61.6203
21.9248
132.701
27.7994
58.3177
22.1605
135.204
146.605
297.585
138.37
297.384
61.708
22.3142
129.993
27.8909
58.4247
22.3625
134.836
145.872
297.528
141.569
297.574
197.357
195.514
30.2192
197.515
195.405
399.217
399.168
193.225
399.923
59.6449
22.1116
133.443
27.3536
21.3846
133.535
60.4666
142.001
295.725
295.491
143.974
142.622
295.524
295.911
142.855
54.9136
128.934
56.0484
130.559
139.13
295.551
139.054
295.771
401.456
400.533
399.205
399.223
193.56
399.842
326.262
305.407
159.553
140.221
305.591
158.164
326.357
416.322
295.968
205.503
201.5
416.932
417.027
204.363
295.552
203.837
416.491
326.383
135.926
305.733
160.119
306.106
154.615
326.079
398.931
399.798
329.679
164.194
308.885
142.417
162.865
309.264
329.855
418.671
297.944
208.859
206.112
419.271
419.478
208.161
298.149
207.756
418.842
329.227
143.312
165.551
309.386
160.349
309.04
329.428
326.144
138.021
305.652
160.026
305.924
155.826
326.397
416.225
204.567
295.918
416.755
201.442
325.99
138.789
306.016
160.84
326.06
305.781
156.859
417.016
204.136
295.546
203.591
416.388
399.242
399.182
329.407
146.746
164.319
309.049
160.093
309.215
329.563
418.693
208.851
297.796
419.39
205.912
329.298
145.309
164.942
309.409
329.553
161.495
309.173
419.373
207.945
298.013
207.588
418.848
400.739
400.786
243.472
403.663
403.8
404.446
403.978
243.053
157.187
95.452
194.456
306.651
91.9296
306.054
155.593
156.028
93.9753
192.404
306.313
90.5445
306.319
154.473
153.718
306.32
196.878
94.6667
89.8739
306.444
155.277
152.767
306.595
194.968
93.5217
88.7828
306.282
154.257
243.103
404.552
404.648
403.958
403.91
243.211
400.154
398.897
401.732
400.552
243.579
403.052
403.969
404.115
404.991
242.707
157.298
93.146
193.202
305.766
305.334
88.364
152.896
156.916
94.8386
195.692
307.213
306.869
88.1173
152.436
154.419
305.596
192.859
93.3219
305.721
155.078
87.9168
150.105
306.918
195.342
94.6027
307.411
155.117
93.2817
242.895
403.791
404.956
403.717
404.582
242.473
399.49
398.973
401.53
401.951
243.246
403.69
404.689
242.278
403.548
404.512
157.575
93.065
192.779
305.225
305.326
88.1239
154.566
157.687
93.6123
195.479
306.71
306.776
91.6064
151.568
153.381
305.883
85.7737
194.08
154.681
305.339
90.9685
153.624
306.945
88.896
196.967
153.395
306.706
91.0915
241.897
403.353
404.272
403.703
404.627
243.15
326.414
305.442
159.412
140.931
305.993
154.89
325.957
416.317
295.792
205.018
202.761
416.891
416.796
204.089
295.787
201.825
416.524
326.062
137.264
306.106
161.232
305.789
156.792
326.336
325.919
305.974
155.938
141.154
326.626
306.155
154.703
416.915
295.728
204.005
416.785
203.96
416.507
202.576
295.356
416.711
203.358
326.44
141.051
305.636
159.775
326.024
305.82
159.861
326.023
306.089
156.986
141.26
326.122
305.692
154.921
417.106
295.461
203.88
201.691
416.308
416.348
202.82
295.124
416.64
201.967
326.534
139.288
306.181
159.018
306.073
155.072
325.972
243.169
403.477
403.814
404.397
404.29
242.136
155.938
93.9148
191.553
306.355
305.754
90.3802
154.643
156.992
94.1896
193.884
306.608
87.2383
306.075
155.486
152.13
306.396
194.519
93.1604
306.179
88.1732
153.708
151.892
306.654
196.796
94.1812
92.7493
306.327
151.935
243.015
404.512
404.206
403.987
404.38
242.458
400.751
401.446
399.014
398.967
243.28
404.153
405.095
242.09
403.98
403.966
155.858
92.6128
194.041
306.084
87.8875
305.858
149.585
158.046
92.8357
195.881
305.846
306.441
91.1125
150.601
154.512
306.246
85.4923
192.006
90.6689
154.288
305.812
157.224
306.36
88.1027
195.684
152.777
306.172
87.0424
242.339
403.806
403.635
404.118
404.555
242.792
400.775
400.53
329.519
308.895
145.27
163.817
309.048
162.37
329.84
418.76
208.508
297.769
206.974
419.113
328.984
141.867
309.411
164.538
308.999
159.234
329.109
419.497
207.992
297.77
206.125
418.884
329.081
159.187
309.594
141.638
329.196
159.539
308.963
419.079
297.958
207.286
419.178
207.003
418.735
205.474
297.495
418.992
206.488
329.736
146.919
164.339
308.981
329.493
160.153
309.217
329.087
309.268
143.986
158.955
329.128
309.115
161.1
418.967
207.614
297.541
205.305
419.077
329.707
144.504
308.875
163.381
309.476
161.535
329.235
418.659
206.617
297.289
419.036
205.812
329.947
164.459
308.856
142.135
160.064
309.233
329.312
418.743
297.877
208.639
206.95
419.114
419.385
208.106
297.648
206.013
419.016
329.297
143.449
165.3
309.391
162.525
309.036
329.462
329.98
309.341
145.405
164.577
309.099
160.409
329.336
418.757
208.969
298.207
205.95
419.406
329.321
142.192
309.5
165.708
309.071
162.867
329.561
419.511
208.208
297.916
207.634
418.907
329.178
161.89
309.462
145.747
329.378
159.731
309.478
418.869
297.587
207.643
205.468
419.146
418.73
206.834
297.489
419.159
205.983
329.638
145.8
163.552
308.925
159.881
309.151
329.249
329.374
309.077
144.111
161.896
329.608
309.205
159.625
419.184
207.739
297.935
206.837
419.054
329.922
144.527
309.448
163.618
309.462
160.513
329.357
418.769
205.744
297.943
419.053
206.717
399.859
398.84
400.73
400.821
243.664
403.236
404.077
403.548
404.888
242.405
157.763
89.4506
305.512
192.575
153.075
305.415
91.0776
157.199
90.032
307.184
196.113
155.984
306.803
88.5528
243.51
404.099
405.636
243.485
404.24
404.435
155.718
305.477
193.074
92.2824
305.847
155.839
91.0287
153.569
306.951
196.265
93.6018
307.037
154.955
90.7684
326.076
139.82
305.569
159.381
305.679
155.321
326.233
416.345
200.459
295.173
416.808
202.911
325.979
135.689
305.779
152.565
305.749
326.016
157.655
416.895
203.864
295.285
201.788
416.486
243.551
403.402
403.769
403.736
404.403
243.434
156.099
84.9594
306.046
193.409
305.75
154.681
90.1668
157.289
87.8008
306.246
192.49
85.3236
155.884
305.982
242.991
404.645
405.042
404.346
242.343
403.945
152.683
305.69
193.639
92.8153
305.892
88.0769
154.231
153.95
306.619
196.242
93.2679
91.7553
306.598
155.642
400.721
400.862
329.724
142.471
308.885
163.153
309.215
161.461
329.259
418.796
206.555
297.213
419.158
206.798
329.246
144.601
309.214
159.161
309.455
329.389
161.205
419.42
207.329
297.463
206.887
418.946
329.713
141.848
163.701
308.789
162.151
308.86
329.171
418.68
204.529
297.554
206.698
419.324
329.121
144.121
159.41
309.189
158.705
329.309
309.064
419.19
207.474
297.625
205.58
418.906
329.504
144.302
308.858
163.23
308.994
161.684
329.589
418.776
206.237
297.808
419.291
206.791
329.327
140.674
309.08
160.038
329.942
308.992
161.516
419.44
207.311
297.522
206.846
418.918
243.17
404.065
403.418
404.553
403.545
242.712
156.145
94.8346
194.691
307.143
306.599
86.3178
154.845
156.885
93.9824
193.005
305.725
85.5372
306.13
152.219
152.671
307.271
196.989
93.5942
307.35
92.001
154.104
155.046
306.064
192.995
92.5486
91.1078
305.716
155.302
242.715
405.026
404.207
404.347
403.549
242.639
399.487
399.377
404.077
305.321
326.058
159.369
305.663
140.222
157.841
305.605
326.078
416.09
295.853
204.703
202.391
416.701
416.698
204.218
295.73
201.987
416.565
325.885
136.025
160.844
306.084
154.253
305.827
326.089
326.221
159.478
305.9
137.596
157.853
305.621
326.08
416.369
295.716
204.212
202.171
417.346
417.432
204.423
295.548
202.162
416.28
325.999
138.379
160.344
306.04
154.252
305.764
326.285
155.938
306.334
326.468
202.793
416.816
155.774
306.37
326.485
203.078
416.721
400.714
400.821
399.584
399.727
404.349
306.106
16.5782
16.677
18.2962
16.5561
16.7512
15.5012
15.5248
16.5467
16.7755
18.6475
16.6037
16.7124
15.5071
15.5949
82.4035
50.6023
49.7935
28.687
45.4418
45.0207
81.3172
82.0921
49.4431
49.6935
29.3479
45.2347
46.8525
80.638
83.3651
28.9708
48.5344
49.8112
47.5054
46.8364
79.4234
80.97
49.4102
49.751
28.343
45.0391
46.505
81.2421
82.9209
29.3917
48.7536
48.8484
45.4952
47.8171
76.4082
83.2119
43.74
48.0064
29.6404
78.4423
47.7309
46.7575
82.789
44.6492
44.179
29.4602
47.8499
81.5934
48.0226
81.9724
49.793
49.3581
28.2606
44.5403
45.5441
80.5575
16.66
16.7191
18.538
16.622
16.7266
15.4907
15.5088
16.7506
16.6299
18.5226
16.6963
16.5452
15.4815
15.5222
16.6747
16.5858
18.4953
16.6576
16.6107
15.486
15.5748
18.7435
16.5942
16.7731
16.5457
16.6949
15.5755
15.5873
18.4025
16.5526
16.7274
16.5838
16.7382
15.6413
15.5405
18.3994
16.729
16.6118
16.7115
16.6077
15.6195
15.5242
18.3887
16.7309
16.5834
16.7161
16.6196
15.601
15.5074
36.1269
71.1645
32.4409
60.4822
66.4725
32.0201
34.9902
42.6291
62.5551
132.198
94.0179
57.4378
90.7623
41.7662
39.3929
93.3834
131.188
62.7241
61.6345
88.5066
42.2882
34.5758
57.6232
71.2188
32.9349
67.6745
31.0893
34.8338
16.6244
16.7062
18.7085
16.5935
16.7273
15.475
15.5584
16.6859
16.548
18.7041
16.7223
16.5451
15.5108
15.5994
16.6102
16.6115
18.7399
16.7335
16.5946
15.5078
15.5392
35.7784
60.4716
70.8142
32.1799
69.751
31.7663
34.2134
42.8415
62.6075
94.1327
128.474
41.9893
58.9845
90.8943
35.2358
57.677
72.0479
32.4705
33.7976
67.2138
30.5969
40.8278
92.9359
133.853
62.2972
58.5748
88.5588
41.6914
34.4198
30.866
67.5663
58.1185
30.4859
66.4416
32.9105
41.3774
61.5813
126.933
91.0193
59.2408
82.9988
39.0909
40.2201
89.7378
131.978
60.7674
57.4729
88.4619
40.4207
33.9758
55.4901
31.2839
68.4832
29.3607
63.5491
34.0342
78.9395
30.1484
49.7242
49.2666
48.9174
48.4923
80.5464
77.3996
28.8757
49.4366
49.7299
77.5502
48.5667
46.5024
82.522
29.7185
45.8132
45.2613
78.1318
45.3226
48.9537
34.6015
67.7095
30.8387
57.8689
66.858
29.4024
32.0384
41.4905
61.5421
129.141
90.8807
83.0764
58.243
39.3342
40.5957
89.8092
128.293
61.4843
88.4902
57.4601
40.725
32.8954
55.2659
68.3685
31.071
64.2226
29.6797
32.9188
34.4175
67.4449
30.7432
55.3104
66.3114
30.2767
32.5959
41.1493
61.9597
126.962
90.6528
84.0847
59.5076
40.4846
37.7915
89.8854
132.195
61.3594
88.9547
40.5866
57.6661
34.0209
56.0829
68.3022
31.3796
63.7963
29.2932
34.0696
34.252
63.0736
30.3168
58.061
33.8451
65.0049
29.624
41.6949
60.9787
127.844
90.0485
59.4386
87.1234
39.3387
41.091
86.3719
56.7039
128.79
60.8901
39.0879
86.1017
31.5534
58.86
67.0616
30.9879
65.5936
29.4715
33.6308
34.4526
61.4741
29.8209
55.7343
32.5061
66.4888
29.6151
41.5915
60.8757
130.16
88.869
87.1606
57.0928
38.3257
40.953
84.4006
59.6645
126.159
40.755
86.6231
58.1527
33.4587
55.1456
67.2951
30.9795
67.4192
29.7498
32.7957
75.7314
29.7432
49.5457
49.4362
48.5654
46.1575
81.2365
81.9248
28.3867
48.1547
46.2367
46.734
81.8806
47.5897
35.9651
71.2509
32.5151
61.6489
67.0884
32.1146
34.1815
43.1395
63.7038
130.042
93.8259
89.5818
61.6335
40.3492
41.7276
93.3905
135.097
59.1488
88.3766
62.3101
42.1469
35.7949
59.5433
72.2334
33.0383
69.7453
31.2282
33.7507
36.0185
32.4215
60.953
70.9751
30.9304
69.6474
33.2938
42.8167
62.8746
92.8499
131.855
86.3102
42.08
59.3804
35.6699
58.1229
32.8757
71.5472
31.5951
66.5025
35.5562
40.2167
92.8016
130.736
62.6846
91.4842
40.2066
58.379
35.8007
68.7939
30.7523
60.1088
33.7298
67.0181
30.1751
43.7734
63.8695
133.881
92.8432
60.6074
93.3597
40.0833
41.4294
90.6678
60.9448
129.939
62.1751
42.141
89.0602
34.6308
60.4509
70.653
32.5044
66.2561
32.1035
33.9479
35.8854
30.2487
60.226
66.4108
35.3475
32.0689
64.2758
43.2707
62.0053
91.7071
129.84
90.0679
39.2862
57.7627
33.6717
60.5831
32.6413
70.5871
31.2623
69.58
32.6102
42.952
87.166
60.9218
131.19
40.5013
86.2388
59.332
35.9322
32.3397
61.3164
71.0247
30.8161
69.5603
34.0651
43.311
63.9189
94.7054
130.14
89.9884
61.1779
42.5554
35.5921
58.9759
32.6357
72.3785
31.3628
66.7173
34.0546
40.5875
93.6355
135.094
63.1594
88.9459
41.7535
59.199
36.2153
69.4384
30.4679
58.3581
34.0927
70.1442
31.8511
43.8757
61.7783
131.279
89.8458
39.8618
61.772
90.2878
43.6688
86.0661
59.7199
132.271
41.3221
58.6955
91.7708
34.6244
58.6211
68.527
32.1711
33.983
69.6896
31.9935
35.9487
30.1252
59.9056
66.5919
33.9144
32.0267
64.6059
43.3854
62.0922
93.3372
133.446
88.7326
40.975
58.5168
33.1766
60.2972
32.6037
70.7013
31.1818
69.5769
35.1385
42.9327
86.434
60.9932
129.604
40.66
91.6771
59.4034
81.5151
28.8704
49.4108
49.4664
82.0566
46.5064
46.1871
34.3366
57.0013
66.9113
30.988
65.5823
29.6125
32.1096
41.8441
57.5534
83.7074
131.113
89.087
39.2174
59.2148
33.8619
56.4914
63.5403
30.5277
65.3367
33.7326
29.9583
40.7744
88.9381
131.517
60.6019
86.3231
59.567
40.7859
34.805
55.5663
68.3672
30.8843
64.8011
29.477
33.5351
41.5912
57.5877
84.4409
129.465
41.0085
86.5973
54.7549
33.1646
56.066
62.8145
30.4668
33.3154
67.42
29.9279
39.8211
88.6331
129.867
60.5175
86.9782
40.2609
59.7105
79.3566
28.7101
49.5855
49.7001
46.744
46.6055
81.1162
35.9957
60.608
71.0487
32.2527
66.9953
31.7958
34.5158
43.4388
59.7539
87.8378
127.854
90.0702
42.7939
56.6734
35.6087
57.684
64.7393
30.707
69.6676
33.9217
30.6314
41.4097
93.2183
134.324
62.409
92.1255
61.6334
41.9503
36.1219
60.3441
32.4385
70.0099
32.0959
68.6654
34.0993
42.837
56.4693
86.7434
130.622
42.1079
84.4889
60.7328
34.529
57.6467
32.0066
65.7661
35.1249
32.1838
65.3854
41.0051
91.9472
130.202
62.3457
90.7332
41.7635
58.8739
36.0038
60.26
31.5931
70.1375
32.3151
68.6143
33.8806
43.3269
58.624
90.4322
132.279
56.628
40.7078
88.2437
35.6044
59.9836
30.3965
66.1451
32.2327
35.4201
68.3246
42.3939
92.007
132.84
62.5032
61.5971
87.8685
42.5018
78.9562
29.8535
49.7435
48.8945
48.1198
49.0407
80.3889
34.9103
31.018
67.646
55.9934
30.729
66.3424
33.4898
41.6479
62.1476
128.669
90.7493
59.8222
87.6793
41.0516
39.6127
90.3206
128.285
61.6369
58.0511
85.6671
40.4384
33.226
58.1463
31.4086
67.8576
29.9058
63.2035
33.4481
62.3899
85.0068
63.1589
85.7621
18.8632
27.4238
27.3499
29.8742
18.6566
28.21
27.594
30.5955
18.8296
28.3858
27.5899
30.6374
18.8945
28.2767
27.5439
30.4003
18.8991
28.1739
27.7312
30.7077
18.8343
28.2102
27.719
30.5751
18.794
28.2405
27.784
30.914
18.8027
28.2915
27.5602
30.7181
18.8421
28.1981
27.7025
30.5307
18.8152
28.1894
27.6449
30.6437
18.7494
28.3242
27.5833
30.5892
18.7137
28.448
27.6712
30.3114
18.8392
28.4727
27.6853
30.7446
18.8062
28.492
27.6362
30.4147
18.8264
28.354
27.6563
30.6271
27.6738
30.502
30.0949
27.4381
27.0492
29.6461
28.3161
27.3024
26.8198
27.9265
29.6533
26.3655
27.2353
29.4378
29.0648
30.0103
26.8347
25.8451
27.7897
27.6038
28.7024
29.8952
28.3381
26.9891
28.7618
28.4379
28.1733
26.7611
28.7301
28.7489
29.8796
27.4499
27.1665
27.9322
29.244
29.2496
30.0041
27.3566
27.0366
28.1072
27.7805
29.0089
29.8163
26.2751
27.5232
28.5723
28.2665
26.6165
27.0134
28.7898
27.723
29.8522
26.3978
27.1298
27.7567
30.4448
27.8326
30.3814
26.8156
26.4387
27.8273
27.6274
29.0974
30.0967
27.8353
27.219
28.2384
28.2571
28.0619
27.8453
28.4042
28.497
29.8059
26.334
27.1171
27.5897
30.0416
28.1503
30.4162
27.1104
25.5552
27.8829
27.9975
29.234
30.0337
27.3623
26.9946
28.3316
28.2124
26.5163
27.7335
28.5182
27.7557
29.959
26.497
26.6695
27.6706
29.3546
29.4672
30.3484
26.5318
27.125
27.8912
27.8042
28.9697
29.8673
27.246
26.9645
28.3442
28.3533
27.5754
27.7131
28.5474
28.0262
29.8557
26.7462
26.2986
27.8252
30.1745
29.4119
30.1869
26.7474
26.4235
27.9362
27.8522
28.1097
30.0057
26.221
27.2092
28.6306
28.3076
27.5895
27.7593
28.641
27.6626
30.0045
25.8552
26.3608
28.1738
29.5736
28.4324
30.1608
27.0453
26.3979
27.7738
27.6681
28.5821
30.119
27.9437
26.4448
28.4592
28.4751
27.737
27.3279
28.6485
29.2928
30.192
27.2807
27.1251
27.8257
30.4213
28.5984
30.0901
26.9408
25.8006
27.8454
27.995
29.2492
30.1152
27.6941
26.6178
28.5413
28.4527
28.0685
27.7587
28.6214
29.2315
30.1405
26.7895
26.9248
27.8101
30.1723
27.9201
30.227
26.8933
26.2494
27.9396
27.9263
28.9241
30.0691
26.6499
27.7286
28.6526
28.4261
27.3156
27.7559
28.3797
29.3797
29.9305
25.8538
27.2225
28.0951
29.2817
28.7487
30.1531
26.847
26.1263
27.8102
27.7426
29.1392
30.2913
27.954
26.1502
28.6413
28.6184
27.4342
27.9303
28.5453
29.1403
30.1784
27.4478
27.1273
28.1039
30.3604
28.7793
30.4722
26.6064
26.8715
27.7634
27.8841
29.5739
30.0391
27.4025
27.9803
28.4386
28.4814
27.3796
27.0636
28.3943
29.2874
29.9341
25.8516
26.8294
28.0736
29.9033
29.3742
30.0621
26.594
26.9718
27.7239
27.7263
28.5924
29.9451
27.4742
27.6667
28.5143
28.5193
26.5361
27.1185
28.6679
28.9189
30.0092
26.1943
27.12
27.6773
30.5813
28.1896
30.1611
26.6067
26.9498
27.7197
27.8377
28.7331
29.9709
27.5145
26.635
28.3162
28.7226
27.7053
27.1181
28.5417
28.0233
30.1175
26.3916
26.6178
27.8167
30.0236
28.2814
30.1726
25.8775
26.5427
28.1941
27.7113
28.5765
29.8914
27.635
27.7136
28.3499
28.4387
27.476
27.2048
28.5145
28.0058
30.2079
26.6634
26.3118
28.1003
30.2953
28.1587
29.2726
27.5497
26.5781
28.132
27.7349
28.5083
29.9988
26.4756
27.0652
28.1329
28.366
27.3794
27.753
27.4334
28.0271
29.9331
26.7504
27.1693
27.6931
30.1198
29.2466
29.7935
26.4726
27.0815
26.9476
29.3497
18.5151
18.4854
18.6641
18.6768
141.434
296.743
144.599
295.177
400.685
398.982
146.722
297.289
146.241
297.437
18.5898
18.7518
18.7927
18.9283
18.7995
18.9274
18.918
60.9685
135.917
22.2974
25.5115
60.7729
135.122
21.4296
400.429
400.254
58.4459
21.7364
132.114
26.5435
58.863
21.3814
132.109
195.86
194.948
29.964
196.465
195.022
142.096
295.417
142.189
295.475
398.919
398.944
146.739
297.65
146.828
298.01
18.6161
18.6055
18.553
18.7621
18.4855
18.7797
18.6526
62.6155
136.922
22.4254
26.1239
63.3574
135.56
21.7203
401.189
400.386
58.4349
21.8317
133.911
26.3496
58.8872
21.2696
133.64
197.703
195.9
30.312
197.5
195.676
142.544
295.608
142.743
295.517
398.924
398.99
147.363
297.735
147.512
297.938
18.6084
18.5828
18.2112
18.8606
18.8474
18.7238
18.7177
61.826
136.279
22.2888
27.4276
62.6725
136.045
21.5652
401.416
400.23
58.753
21.8363
133.944
26.2162
58.8529
21.2204
132.415
197.802
195.136
30.2924
197.748
195.466
143.098
295.887
143.46
295.671
399.011
399.054
147.609
297.979
149.046
297.822
18.555
18.3677
18.5539
18.8738
18.7545
18.7791
18.8466
62.6688
136.72
22.3158
26.7486
62.6475
136.167
21.7035
400.321
400.357
59.1007
21.8079
133.785
26.5752
60.3742
21.2629
133.202
198.316
196.377
30.4227
197.6
195.894
142.204
295.758
142.796
295.758
398.77
398.919
146.627
297.795
147.976
298.112
18.6723
18.3587
18.5741
18.5238
18.4485
18.7883
18.84
62.8219
137.16
22.3826
26.8107
62.9234
136.148
21.8153
401.159
400.489
59.2808
21.9404
134.909
27.1233
59.4781
21.0946
133.426
198.077
195.859
30.4963
197.545
195.83
142.527
295.636
142.692
295.553
399.501
398.924
146.503
297.714
147.859
297.869
18.6348
18.2221
18.4552
18.7241
18.541
18.7992
18.8833
62.8073
136.507
22.4244
26.9733
62.4286
136.299
21.8197
400.293
400.287
58.8963
21.9995
133.707
27.2179
59.9696
20.9625
132.886
198.154
196.391
30.5256
197.651
195.843
142.863
295.7
144.06
295.543
399.53
398.913
146.997
297.994
147.741
298.198
18.5818
18.6144
18.7136
18.4786
18.775
18.6728
18.8924
62.1499
137.021
22.4255
27.2766
62.7329
136.176
21.8106
400.681
400.534
59.0212
21.9644
133.406
26.4222
59.8272
21.6336
133.097
198.034
195.944
30.4986
197.723
195.888
142.657
295.696
143.239
295.594
398.96
399.004
147.67
298.045
147.943
298.23
18.3772
18.5125
18.5709
18.7638
18.7562
18.8247
18.9294
62.3866
137.039
22.41
26.8344
63.541
135.725
21.7026
400.431
400.421
59.3666
21.8551
133.584
26.5796
60.0747
21.001
132.879
198.093
196.2
30.4498
197.769
195.984
143.044
295.606
143.633
295.603
398.884
398.903
147.64
297.898
147.893
298.048
18.2888
18.5513
18.287
18.546
18.7509
18.7572
18.8928
62.3107
136.513
22.3619
26.7703
62.3369
136.019
21.6615
400.416
400.3
58.8435
21.9635
133.654
26.7466
60.3884
21.6356
133.227
198.031
195.708
30.3965
197.726
195.777
142.706
295.776
143.746
295.671
398.9
398.986
147.543
297.997
147.367
297.768
18.4222
18.6639
18.6825
18.6869
18.5106
18.5128
18.8508
61.7868
136.484
22.3671
26.8935
62.3238
136.301
21.8673
400.592
400.362
58.7252
21.85
134.45
26.3699
59.1643
21.2567
133.379
198.2
195.709
30.4555
197.712
195.778
143.09
295.65
144.01
295.703
398.72
399.022
147.38
297.815
148.259
298.012
18.6466
18.7271
18.2644
18.806
18.484
18.8138
18.6071
62.3446
137.457
22.4382
26.0697
62.465
136.409
22.025
400.456
400.347