/*--------------------------------*- C++ -*----------------------------------*\
| =========                 |                                                 |
| \\      /  F ield         | OpenFOAM: The Open Source CFD Toolbox           |
|  \\    /   O peration     | Version:  2206                                  |
|   \\  /    A nd           | Website:  www.openfoam.com                      |
|    \\/     M anipulation  |                                                 |
\*---------------------------------------------------------------------------*/
FoamFile
{
    version     2.0;
    format      ascii;
    arch        "LSB;label=32;scalar=64";
    class       volScalarField;
    location    "1";
    object      k;
}
// * * * * * * * * * * * * * * * * * * * * * * * * * * * * * * * * * * * * * //

dimensions      [0 2 -2 0 0 0 0];

internalField   nonuniform List<scalar> 
66621
(
4.22892e-05
0.000105365
4.17778e-05
0.000141087
0.000106772
0.000130722
2.66098e-05
0.000143586
0.000145313
0.000128384
0.000108473
0.000147626
6.33223e-05
6.41931e-05
2.69046e-05
2.66369e-05
0.000147609
6.39323e-05
6.32434e-05
0.000145472
0.000107721
6.3269e-05
2.66252e-05
0.000141141
0.000146302
0.000106864
0.000130791
0.000105335
4.17322e-05
0.000141085
0.000146466
0.000130872
0.000106746
0.000105336
4.17521e-05
0.00014105
0.000146455
0.000130842
0.00010676
0.000105319
4.17487e-05
0.000147542
6.32223e-05
6.41974e-05
2.70313e-05
0.000143591
0.00014547
0.000128437
0.000108536
0.000108388
4.2746e-05
0.000108387
4.27575e-05
2.66257e-05
2.70496e-05
6.26875e-05
2.50777e-05
3.46477e-05
9.61472e-05
3.80599e-05
0.000105504
9.6279e-05
3.81262e-05
3.45891e-05
2.47755e-05
6.18321e-05
4.18397e-05
6.19284e-05
2.47524e-05
2.6634e-05
4.94575e-05
2.42862e-05
2.43413e-05
2.43047e-05
2.43573e-05
4.93787e-05
0.000101618
4.19412e-05
6.34102e-05
0.000126872
0.000126986
4.19963e-05
0.000101501
0.000100914
4.18793e-05
6.42496e-05
0.000127072
0.000127146
4.19222e-05
0.000100813
2.66606e-05
4.9444e-05
2.43759e-05
2.4241e-05
2.4386e-05
2.42658e-05
4.93534e-05
0.000101961
4.22616e-05
0.000127395
4.23678e-05
0.00010185
0.000100543
4.1497e-05
6.33362e-05
0.000126346
4.1559e-05
0.000100414
0.000126471
2.42841e-05
4.92995e-05
4.19337e-05
0.00012646
0.000101314
3.46227e-05
3.80467e-05
9.60741e-05
0.000105474
3.8113e-05
9.62054e-05
3.45643e-05
2.47519e-05
6.17622e-05
4.17947e-05
6.18585e-05
2.47288e-05
9.61048e-05
3.80521e-05
3.45764e-05
6.17972e-05
2.47401e-05
3.8045e-05
9.60698e-05
3.45655e-05
6.17752e-05
2.47333e-05
4.93872e-05
2.42314e-05
2.43534e-05
2.42482e-05
2.43702e-05
4.93278e-05
0.000100582
4.15055e-05
6.33086e-05
0.000126595
4.1554e-05
0.000126716
0.000100468
0.000101841
4.22679e-05
6.42613e-05
0.000127209
0.00012728
4.2341e-05
0.000101765
2.70411e-05
3.53786e-05
9.8808e-05
3.89672e-05
0.000108447
9.887e-05
3.90025e-05
3.53489e-05
2.53818e-05
6.35675e-05
4.27715e-05
6.36072e-05
2.53769e-05
3.53816e-05
9.88185e-05
3.89676e-05
0.000108445
9.88793e-05
3.90021e-05
3.53522e-05
2.53844e-05
6.35805e-05
4.27829e-05
6.36198e-05
2.53783e-05
2.70605e-05
0.000107244
8.07399e-05
8.44875e-05
5.02552e-05
0.000107228
8.08051e-05
8.44672e-05
5.0221e-05
0.000107322
8.41777e-05
8.15399e-05
5.05918e-05
0.000107381
8.4132e-05
8.15915e-05
5.05421e-05
0.000146861
0.000137097
0.00014639
0.000141114
0.000137181
0.000146437
0.000146822
0.000126541
0.000140115
0.00014547
0.000147683
0.000147146
0.000139444
0.000143572
0.000147133
0.000139437
0.000147685
0.000146495
0.000128645
0.000108531
0.000141072
0.000141108
0.00012866
0.000146475
0.000133046
0.000147666
0.000147269
0.000146729
0.000147292
0.000146736
0.000133001
0.000133036
0.000147598
0.000147269
0.000146751
0.000132986
0.000147266
0.000146758
0.000127699
0.000140825
0.000146161
0.000146944
0.000137175
0.000146446
0.000141175
0.000137256
0.000146492
0.0001469
0.000145595
0.000126664
0.000106994
0.000140191
0.00012678
0.000140281
0.000145561
0.000146833
0.000146383
0.000137055
0.000141119
0.000146431
0.000137136
0.000146784
0.000145438
0.000126518
0.000106875
0.000140036
0.000126635
0.000145389
0.000140142
0.000146807
0.000146346
0.000137035
0.000141076
0.000146395
0.000137111
0.000146759
0.000145409
0.000126505
0.000106882
0.000140035
0.000140133
0.000126608
0.000145362
0.000132941
0.000147581
0.000147234
0.000146536
0.000146543
0.000147255
0.000132898
0.000147733
0.000147159
0.000139469
0.000143577
0.000147147
0.000139462
0.000147736
0.00014659
0.000128696
0.000108594
0.000141186
0.000141224
0.000128711
0.00014657
8.00656e-06
1.87594e-06
3.25638e-07
6.35488e-08
2.65175e-07
7.93083e-06
1.85738e-06
3.22395e-07
6.31172e-08
2.64199e-07
7.71719e-06
1.82587e-06
3.19247e-07
6.53887e-08
2.8446e-07
7.78066e-06
1.84106e-06
3.2189e-07
6.57585e-08
2.85334e-07
7.72468e-06
1.82752e-06
3.19504e-07
6.54152e-08
2.84509e-07
7.72381e-06
1.82767e-06
3.19587e-07
6.54527e-08
2.84668e-07
7.92252e-06
1.85549e-06
3.22081e-07
6.3073e-08
2.64134e-07
7.92676e-06
1.85662e-06
3.22302e-07
6.31194e-08
2.64265e-07
7.92651e-06
1.85649e-06
3.22299e-07
6.31291e-08
2.64313e-07
7.77977e-06
1.84064e-06
3.21791e-07
6.57195e-08
2.85159e-07
8.02505e-06
1.87943e-06
3.26153e-07
6.35518e-08
2.64856e-07
8.02698e-06
1.87984e-06
3.26235e-07
6.35468e-08
2.64795e-07
7.72464e-06
1.82791e-06
3.19626e-07
6.54429e-08
2.84604e-07
7.78228e-06
1.8409e-06
3.21793e-07
6.56946e-08
2.85027e-07
7.97084e-06
1.87423e-06
3.2621e-07
6.50286e-08
2.76518e-07
8.25584e-06
1.9454e-06
3.38855e-07
6.68216e-08
2.81275e-07
8.25918e-06
1.94561e-06
3.38887e-07
6.68814e-08
2.81745e-07
7.96823e-06
1.87421e-06
3.26222e-07
6.4978e-08
2.76088e-07
7.93187e-06
1.85712e-06
3.22334e-07
6.31335e-08
2.64377e-07
7.71864e-06
1.82584e-06
3.1924e-07
6.54309e-08
2.84812e-07
8.11197e-06
1.89427e-06
3.2833e-07
6.39586e-08
2.66579e-07
8.1135e-06
1.89425e-06
3.2832e-07
6.39939e-08
2.66875e-07
8.09478e-06
1.89093e-06
3.2781e-07
6.39048e-08
2.66531e-07
8.09565e-06
1.8907e-06
3.27761e-07
6.39183e-08
2.66677e-07
7.72609e-06
1.82747e-06
3.19494e-07
6.54546e-08
2.84842e-07
7.37103e-06
1.74764e-06
3.06414e-07
6.40097e-08
2.81915e-07
8.10861e-06
1.89318e-06
3.28169e-07
6.39636e-08
2.66702e-07
7.96535e-06
1.87289e-06
3.25989e-07
6.50057e-08
2.76495e-07
8.25307e-06
1.94475e-06
3.38743e-07
6.68084e-08
2.81254e-07
8.25641e-06
1.94496e-06
3.38775e-07
6.68681e-08
2.81724e-07
7.96275e-06
1.87287e-06
3.26001e-07
6.4955e-08
2.76065e-07
7.9236e-06
1.85523e-06
3.2202e-07
6.30901e-08
2.64318e-07
8.25335e-06
1.94475e-06
3.3877e-07
6.67975e-08
2.81224e-07
7.9641e-06
1.87321e-06
3.26056e-07
6.49477e-08
2.76029e-07
8.25181e-06
1.94442e-06
3.38691e-07
6.67899e-08
2.81205e-07
7.96194e-06
1.8727e-06
3.25956e-07
6.49406e-08
2.76024e-07
7.38236e-06
1.75029e-06
3.06816e-07
6.40426e-08
2.81988e-07
8.14565e-06
1.90235e-06
3.29752e-07
6.41423e-08
2.66892e-07
8.14816e-06
1.90236e-06
3.29731e-07
6.41498e-08
2.6697e-07
7.77862e-06
1.84017e-06
3.21708e-07
6.5722e-08
2.85242e-07
8.02795e-06
1.88812e-06
3.28589e-07
6.52114e-08
2.76207e-07
8.31889e-06
1.96004e-06
3.41328e-07
6.7024e-08
2.81076e-07
8.3209e-06
1.96032e-06
3.41367e-07
6.70531e-08
2.81288e-07
8.02744e-06
1.88834e-06
3.28641e-07
6.52037e-08
2.76099e-07
8.02281e-06
1.87858e-06
3.25995e-07
6.35205e-08
2.64718e-07
8.02842e-06
1.88823e-06
3.2862e-07
6.52109e-08
2.76205e-07
8.3189e-06
1.96002e-06
3.41348e-07
6.70246e-08
2.81084e-07
8.32085e-06
1.96029e-06
3.41384e-07
6.70535e-08
2.81295e-07
8.02791e-06
1.88845e-06
3.28673e-07
6.52022e-08
2.76089e-07
8.02468e-06
1.87897e-06
3.26073e-07
6.3516e-08
2.64664e-07
7.78095e-06
1.84037e-06
3.21699e-07
6.56968e-08
2.85115e-07
7.3762e-06
1.74883e-06
3.06575e-07
6.4005e-08
2.81879e-07
7.37761e-06
1.74911e-06
3.06623e-07
6.40189e-08
2.81953e-07
7.85159e-06
1.85845e-06
3.24961e-07
6.60125e-08
2.85031e-07
7.76214e-06
1.83617e-06
3.21047e-07
6.54286e-08
2.83311e-07
7.76123e-06
1.83643e-06
3.21105e-07
6.53901e-08
2.82946e-07
7.35831e-06
1.74458e-06
3.05906e-07
6.39518e-08
2.81752e-07
8.05219e-06
1.88094e-06
3.26139e-07
6.37144e-08
2.66216e-07
8.05553e-06
1.88141e-06
3.26209e-07
6.37672e-08
2.66598e-07
7.37759e-06
1.74895e-06
3.06639e-07
6.40668e-08
2.82219e-07
7.37848e-06
1.74912e-06
3.06665e-07
6.40713e-08
2.82244e-07
7.38685e-06
1.75111e-06
3.06917e-07
6.40147e-08
2.81863e-07
8.14964e-06
1.90311e-06
3.29866e-07
6.41478e-08
2.66892e-07
8.1516e-06
1.90297e-06
3.29819e-07
6.41706e-08
2.6712e-07
7.36201e-06
1.74557e-06
3.06087e-07
6.39703e-08
2.81835e-07
8.05395e-06
1.88148e-06
3.26232e-07
6.37235e-08
2.66269e-07
8.0562e-06
1.88159e-06
3.26237e-07
6.37593e-08
2.66559e-07
7.38612e-06
1.75094e-06
3.06947e-07
6.40839e-08
2.82261e-07
7.36397e-06
1.74592e-06
3.06192e-07
6.40477e-08
2.82245e-07
7.75484e-06
1.83443e-06
3.20758e-07
6.53879e-08
2.8325e-07
7.75391e-06
1.83468e-06
3.20816e-07
6.53491e-08
2.82883e-07
7.75705e-06
1.83549e-06
3.20959e-07
6.53735e-08
2.82946e-07
7.75531e-06
1.83505e-06
3.20886e-07
6.53745e-08
2.82971e-07
7.35992e-06
1.74484e-06
3.06003e-07
6.40262e-08
2.82143e-07
7.3835e-06
1.75036e-06
3.06855e-07
6.40848e-08
2.8222e-07
7.8721e-06
1.862e-06
3.25493e-07
6.60225e-08
2.84717e-07
7.87454e-06
1.86285e-06
3.25654e-07
6.60466e-08
2.84791e-07
7.87266e-06
1.86219e-06
3.25522e-07
6.60182e-08
2.84685e-07
7.87494e-06
1.86301e-06
3.25678e-07
6.60396e-08
2.8474e-07
2.68304e-05
2.6616e-05
0.000147582
6.36525e-05
6.32193e-05
0.000105303
4.17551e-05
0.000141059
0.000145879
0.000106784
0.000129181
0.000105272
4.17101e-05
0.000141003
0.000145855
0.000129274
0.000106664
0.000145844
0.000106684
4.17287e-05
2.65875e-05
0.000147558
6.32096e-05
6.4166e-05
2.70157e-05
0.000143569
0.000144882
0.000128054
0.000108415
0.000143574
0.000145051
0.000128119
0.000108477
0.000108383
4.27253e-05
0.000108382
4.2738e-05
0.000147641
6.32991e-05
6.41733e-05
2.66067e-05
2.7033e-05
2.43506e-05
2.42313e-05
4.9371e-05
4.21207e-05
0.000127009
0.000101688
4.14811e-05
0.000126272
0.000100394
3.4767e-05
9.60908e-05
3.8054e-05
0.000105831
3.45833e-05
9.66077e-05
3.82603e-05
2.48377e-05
6.18053e-05
4.19905e-05
2.47348e-05
6.21856e-05
3.47425e-05
3.80407e-05
9.6018e-05
0.000105801
3.45583e-05
3.82476e-05
9.65355e-05
2.48142e-05
6.17355e-05
4.19453e-05
2.47112e-05
6.21161e-05
2.48195e-05
6.17526e-05
4.19654e-05
2.47161e-05
6.21355e-05
2.66854e-05
4.9608e-05
2.42373e-05
2.43214e-05
4.93178e-05
2.42893e-05
2.44414e-05
0.000101015
4.15988e-05
0.000126514
6.35485e-05
0.000127053
0.000100349
4.16979e-05
0.000102092
4.21464e-05
0.000127144
6.4446e-05
0.000101809
4.2437e-05
0.000127515
2.70917e-05
3.53904e-05
9.87913e-05
3.89719e-05
0.000108364
3.53493e-05
9.89244e-05
3.89653e-05
2.54177e-05
6.35453e-05
4.28811e-05
2.53632e-05
6.37676e-05
3.53916e-05
9.88044e-05
3.89719e-05
0.000108365
3.53535e-05
9.8932e-05
3.89659e-05
2.54174e-05
6.3561e-05
4.28934e-05
2.53665e-05
6.3776e-05
4.96561e-05
2.42676e-05
2.43238e-05
4.93581e-05
2.43511e-05
2.44024e-05
0.000101937
4.19199e-05
0.000126793
6.36539e-05
0.000101439
0.000127298
4.21224e-05
0.000101204
4.18602e-05
0.000127007
6.44404e-05
0.000100759
0.000127407
4.20327e-05
2.67098e-05
2.71068e-05
0.000107289
8.34967e-05
8.09681e-05
5.07203e-05
0.000107253
8.35142e-05
8.11914e-05
5.0663e-05
0.000105516
8.03641e-05
8.06925e-05
4.93723e-05
0.00010558
8.04101e-05
8.08392e-05
4.93922e-05
0.000147158
0.000146726
0.000132964
0.000146889
0.000137085
0.000146458
0.000141382
0.000146912
0.000137486
0.000146396
0.00014572
0.000126568
0.000140141
0.000107338
0.000140475
0.000145532
0.000127106
0.000146781
0.000146397
0.000136966
0.000141328
0.000146802
0.000146344
0.000137368
0.000145555
0.000126423
0.000139984
0.000107218
0.000145363
0.000126961
0.000140325
0.000145533
0.000126413
0.000139988
0.000107239
0.000145338
0.000126956
0.000140323
0.000133286
0.00014757
0.000147178
0.000146489
0.000147361
0.000132849
0.000146661
0.000147701
0.000147161
0.000139416
0.00014358
0.000147706
0.000147177
0.000139534
0.000146595
0.000128588
0.000141047
0.000108782
0.000146491
0.00014126
0.000128908
0.000147754
0.000147176
0.000139442
0.000143589
0.000147757
0.000147194
0.000139557
0.00014669
0.000128642
0.000141154
0.000108848
0.000146586
0.000128956
0.000141377
0.00013339
0.000147651
0.000147226
0.000146693
0.000132947
0.000147415
0.00014686
0.000107004
0.00014624
0.000106978
0.000146237
0.000145416
0.000147766
0.000147737
0.000147706
0.000145598
0.000145616
0.000145541
0.000145561
0.000147635
0.000147615
0.000146402
0.000146592
0.000146309
0.000146504
0.000146536
0.000146151
0.000146449
0.000147682
0.000145564
0.000145584
0.000147593
0.000146372
0.000146569
0.000146512
0.000147771
0.000145542
0.000108153
4.2718e-05
4.26684e-05
0.000108225
2.70142e-05
2.69883e-05
0.000105372
4.18606e-05
4.1776e-05
0.00010554
0.000106961
0.000107088
0.000107124
0.000106983
0.000106941
0.000107066
0.000107101
0.000141151
0.000106941
0.000130506
0.00014616
0.000106767
0.000130431
0.00014126
0.000108182
4.27169e-05
0.000108228
4.26796e-05
2.7015e-05
2.69874e-05
0.000105369
4.18545e-05
0.000105537
4.17741e-05
0.000106903
0.00010703
0.000107063
0.000141171
0.000106928
0.000130498
0.000146203
0.000141235
0.000106774
0.000130472
2.66582e-05
2.66188e-05
0.000143681
0.0001285
0.000108564
0.000145393
0.000128472
0.000108464
0.0001437
6.34391e-05
6.42386e-05
0.000147767
6.33026e-05
6.41724e-05
2.70343e-05
2.70057e-05
2.66821e-05
2.66359e-05
6.42897e-05
6.33597e-05
0.000147723
6.41991e-05
6.32335e-05
2.70064e-05
2.70313e-05
2.66364e-05
2.66781e-05
0.000147687
6.41975e-05
6.32315e-05
6.42847e-05
6.3354e-05
0.00010814
4.26918e-05
4.26423e-05
0.000108213
0.00014333
0.000108402
0.000128123
0.000145545
0.000108299
0.000128095
0.000143365
0.000143319
0.000108383
0.000128111
0.000145563
0.000108282
0.000128083
0.000143355
0.000108222
4.26697e-05
4.27157e-05
0.000108152
0.000108211
4.26438e-05
4.26894e-05
0.000108139
0.000143358
0.000145578
0.000108302
0.000128119
0.000108395
0.00012811
0.000143329
0.000143348
0.000145597
0.000108286
0.000128105
0.000108378
0.000128096
0.00014332
6.41869e-05
6.33735e-05
0.000147628
6.41066e-05
6.32393e-05
2.6662e-05
2.66134e-05
2.69914e-05
2.70144e-05
0.000147596
6.41122e-05
6.32386e-05
6.41953e-05
6.33591e-05
2.66135e-05
2.66551e-05
0.000141177
0.000107014
0.000130574
0.00014632
0.000106846
0.000130497
0.000141288
0.000105343
4.18233e-05
0.000105512
4.1739e-05
0.000141123
0.000130653
0.000106919
0.000146508
0.000130577
0.000141234
0.000106751
0.000105534
4.17748e-05
4.18568e-05
0.000105378
0.000141265
0.000146383
0.000106846
0.000130491
0.000107005
0.000130551
0.000141177
0.000105505
4.17391e-05
0.000105349
4.18201e-05
0.000141212
0.000146576
0.000130571
0.000106754
0.000130632
0.000141126
0.000106911
0.00010535
4.18369e-05
4.17508e-05
0.000105526
0.000141112
0.000130621
0.000106909
0.000146452
0.000130545
0.000141221
0.000106736
0.000105331
4.18307e-05
0.000105506
4.17448e-05
0.000141236
0.000146224
0.000106766
0.000130427
0.000106925
0.000130486
0.000141137
0.00010551
4.17499e-05
4.18315e-05
0.000105354
0.000141197
0.000146522
0.000130539
0.000106744
0.0001306
0.000141097
0.000106895
0.000105491
4.17468e-05
0.000105336
4.18263e-05
2.70289e-05
2.70096e-05
2.66737e-05
2.66378e-05
6.42823e-05
6.33492e-05
0.000147702
6.42016e-05
6.32314e-05
0.000108168
4.26896e-05
0.000108212
4.26547e-05
0.000143358
0.000108399
0.000128111
0.000145549
0.000143359
0.000108345
0.00012811
0.00014335
0.000108383
0.000128097
0.000145569
0.00014335
0.000108332
0.000128097
6.41954e-05
6.33599e-05
0.000147611
6.4113e-05
6.32471e-05
2.66518e-05
2.66238e-05
0.000141203
0.000107003
0.000130535
0.000146363
0.000141272
0.000106849
0.000130516
0.000105342
4.18178e-05
0.000105505
4.17398e-05
0.000141151
0.000130616
0.000106912
0.000146562
0.000141221
0.000130597
0.000106762
0.000105356
4.18284e-05
0.000105513
4.17509e-05
0.000141134
0.000130584
0.000106903
0.000146499
0.00014119
0.000130559
0.000106753
0.000105337
4.18257e-05
0.000105495
4.17466e-05
6.33479e-05
6.43178e-05
0.000147775
6.32208e-05
6.4238e-05
2.70655e-05
2.70449e-05
6.43025e-05
2.70643e-05
0.000143679
0.000128536
0.00010859
0.000145514
0.00012851
0.000108486
0.0001437
0.000108403
4.27906e-05
4.27434e-05
0.000108459
0.000108398
4.27858e-05
4.27372e-05
0.000108455
0.000143736
0.000108526
0.000143735
0.000108551
0.000108478
4.27775e-05
0.000108473
4.27719e-05
2.66694e-05
2.66278e-05
2.70568e-05
2.7039e-05
6.42598e-05
2.70583e-05
3.53069e-05
3.88809e-05
9.86093e-05
0.000108224
3.89174e-05
9.86848e-05
3.52721e-05
2.53209e-05
4.26682e-05
6.35088e-05
6.34422e-05
2.53376e-05
2.53372e-05
6.34417e-05
4.27166e-05
6.35066e-05
2.53203e-05
3.5272e-05
0.000108151
3.89176e-05
9.86864e-05
3.88804e-05
9.86089e-05
3.53056e-05
2.69856e-05
2.70141e-05
3.46653e-05
9.61423e-05
3.80659e-05
0.000105533
9.63032e-05
3.81454e-05
3.45914e-05
2.47499e-05
4.1776e-05
6.19534e-05
6.18233e-05
2.47945e-05
2.47933e-05
6.18234e-05
4.18584e-05
6.19508e-05
2.47493e-05
3.45913e-05
0.000105371
9.63071e-05
3.81467e-05
9.61404e-05
3.80653e-05
3.46644e-05
3.53078e-05
0.00010823
3.89247e-05
9.86291e-05
3.8916e-05
9.8688e-05
3.52849e-05
2.53221e-05
6.35069e-05
4.26696e-05
2.53364e-05
6.3443e-05
3.52741e-05
0.000108154
3.89191e-05
9.86885e-05
3.53068e-05
3.88833e-05
9.8612e-05
2.53364e-05
6.3453e-05
4.27153e-05
6.35049e-05
2.53251e-05
2.69898e-05
2.70087e-05
3.46577e-05
0.000105524
9.61388e-05
3.80628e-05
9.62921e-05
3.81374e-05
3.45889e-05
2.47509e-05
6.19466e-05
4.17731e-05
2.4788e-05
6.18194e-05
3.45888e-05
0.000105371
9.63027e-05
3.8141e-05
3.4659e-05
9.61375e-05
3.80626e-05
2.47848e-05
6.18208e-05
4.18506e-05
6.19405e-05
2.4751e-05
2.66188e-05
2.66539e-05
4.94391e-05
2.42678e-05
2.43563e-05
2.43044e-05
2.43847e-05
4.93386e-05
0.00010129
0.000126967
6.33111e-05
4.19823e-05
0.000126818
4.18987e-05
0.000101413
0.000101041
0.000127188
6.41583e-05
4.20145e-05
0.000127062
4.1957e-05
0.000101242
0.00010147
4.18948e-05
6.34224e-05
0.000126844
0.000126972
4.19656e-05
0.000101355
0.000101139
4.19561e-05
6.42504e-05
0.000127074
0.000127169
4.20161e-05
0.000100962
4.93291e-05
2.43296e-05
2.43733e-05
2.42778e-05
2.43469e-05
4.94337e-05
2.70049e-05
2.70328e-05
2.66351e-05
2.66801e-05
4.94627e-05
2.43639e-05
2.42452e-05
2.4398e-05
2.42835e-05
4.93547e-05
0.000101822
0.000127616
6.41998e-05
4.23486e-05
4.22861e-05
0.000127498
0.000101963
0.0001004
0.000126483
6.32342e-05
4.15804e-05
4.15032e-05
0.000126326
0.000100558
0.000101959
4.22859e-05
6.4287e-05
0.000127496
4.23467e-05
0.000101818
0.000127609
0.000100553
4.15035e-05
6.33562e-05
0.000126324
4.15778e-05
0.000100396
0.000126476
4.93562e-05
2.43994e-05
2.42851e-05
2.4363e-05
2.42442e-05
4.94627e-05
2.70312e-05
2.7005e-05
2.6677e-05
2.66352e-05
4.93541e-05
2.43966e-05
2.42819e-05
4.94603e-05
2.43625e-05
2.42438e-05
0.00010196
0.000127496
6.42839e-05
4.22844e-05
4.23441e-05
0.000127606
0.000101817
0.000100554
0.00012632
6.33523e-05
4.15016e-05
4.15746e-05
0.00012647
0.000100395
0.000101821
4.23452e-05
0.000127603
6.41966e-05
0.000101959
4.22842e-05
0.000127492
0.000100399
4.15762e-05
0.000126467
6.3231e-05
0.000100554
4.15018e-05
0.000126317
4.94574e-05
2.43627e-05
2.42441e-05
2.43957e-05
2.42808e-05
4.93508e-05
3.52988e-05
3.88765e-05
9.85857e-05
0.000108212
3.89138e-05
9.86617e-05
3.52632e-05
2.53081e-05
4.26422e-05
6.34815e-05
6.34144e-05
2.5325e-05
2.53246e-05
6.34142e-05
4.26902e-05
6.34794e-05
2.53076e-05
3.52631e-05
0.000108139
3.8914e-05
9.86637e-05
3.8876e-05
9.85852e-05
3.52975e-05
3.5273e-05
3.89172e-05
9.86832e-05
0.000108148
3.53065e-05
3.88808e-05
9.86074e-05
2.53378e-05
4.2716e-05
6.34432e-05
2.5321e-05
6.35058e-05
2.53218e-05
6.35051e-05
4.2668e-05
2.53377e-05
6.3441e-05
3.53066e-05
0.000108222
3.88823e-05
9.86111e-05
3.52728e-05
3.89179e-05
9.86846e-05
3.5264e-05
3.89135e-05
9.86603e-05
0.000108137
3.52984e-05
3.88764e-05
9.8584e-05
2.53253e-05
4.26898e-05
6.34159e-05
6.34791e-05
2.53084e-05
2.53092e-05
6.34782e-05
4.2642e-05
2.53251e-05
6.34138e-05
3.52982e-05
0.000108211
3.88777e-05
9.85869e-05
3.89142e-05
9.86618e-05
3.52636e-05
4.94048e-05
2.43175e-05
2.42572e-05
2.43512e-05
2.42982e-05
4.93005e-05
0.000100914
0.000127383
6.41003e-05
4.19259e-05
4.18633e-05
0.000127257
0.000101099
0.000101271
0.000126606
6.32446e-05
4.19959e-05
0.000126458
4.19086e-05
0.000101401
0.000101019
4.1857e-05
6.41917e-05
0.000127246
4.19228e-05
0.000127365
0.000100851
0.00010145
4.19071e-05
6.3364e-05
0.000126464
0.000126611
4.1983e-05
0.000101311
4.92947e-05
2.4346e-05
2.43144e-05
2.4313e-05
2.42646e-05
4.94005e-05
2.66143e-05
2.66584e-05
2.70155e-05
2.69891e-05
4.93085e-05
2.43513e-05
2.42926e-05
4.94106e-05
2.43161e-05
2.42551e-05
0.00010093
0.000127233
6.41978e-05
4.18324e-05
0.000127349
4.18989e-05
0.000100773
0.000101511
0.000126466
6.3358e-05
4.19119e-05
4.19824e-05
0.000126613
0.000101359
0.000100808
4.19122e-05
0.000127352
6.41091e-05
0.000127235
0.000100967
4.1843e-05
0.000101343
4.19809e-05
0.000126608
6.32359e-05
0.000101486
4.19067e-05
0.00012646
4.94165e-05
2.43146e-05
2.42582e-05
2.43497e-05
2.42925e-05
4.93121e-05
2.66536e-05
2.66126e-05
3.46418e-05
3.80533e-05
0.000105504
9.60739e-05
3.81328e-05
9.62348e-05
3.45679e-05
2.47289e-05
6.18914e-05
4.17388e-05
6.17614e-05
2.47734e-05
3.45678e-05
0.000105343
3.81341e-05
9.62387e-05
3.80528e-05
9.6072e-05
3.46408e-05
2.47723e-05
6.17616e-05
4.18212e-05
6.18889e-05
2.47283e-05
3.45917e-05
9.63041e-05
3.8145e-05
0.000105373
3.4664e-05
9.61426e-05
3.80657e-05
2.47912e-05
4.18553e-05
6.18217e-05
2.4749e-05
6.19477e-05
2.47504e-05
6.19495e-05
4.17744e-05
2.47929e-05
6.18218e-05
3.46618e-05
0.000105536
9.61439e-05
3.80646e-05
3.45891e-05
9.63046e-05
3.81437e-05
3.45683e-05
3.81323e-05
0.000105345
9.62356e-05
3.46405e-05
3.80532e-05
9.60742e-05
2.47705e-05
6.17609e-05
4.18192e-05
6.18864e-05
2.47285e-05
3.46384e-05
0.000105508
3.80521e-05
9.60757e-05
3.81312e-05
9.62364e-05
3.45659e-05
2.47296e-05
6.18878e-05
4.17379e-05
2.47719e-05
6.17602e-05
3.46512e-05
9.61052e-05
3.80564e-05
0.000105514
9.62673e-05
3.81361e-05
3.45779e-05
2.47382e-05
4.17519e-05
6.1921e-05
6.17911e-05
2.47823e-05
2.47807e-05
6.17897e-05
4.18338e-05
6.19166e-05
2.47372e-05
3.45786e-05
0.000105355
9.62761e-05
3.81388e-05
9.61082e-05
3.80567e-05
3.46515e-05
3.46384e-05
3.80486e-05
0.000105495
9.60646e-05
3.81276e-05
9.62263e-05
3.45653e-05
2.47296e-05
6.18933e-05
4.17457e-05
6.17623e-05
2.47742e-05
3.45656e-05
0.000105336
3.81302e-05
9.6234e-05
3.80489e-05
9.60662e-05
3.46384e-05
2.47728e-05
6.17613e-05
4.18278e-05
6.18894e-05
2.47288e-05
3.45787e-05
9.62644e-05
3.81355e-05
0.000105348
3.46498e-05
9.61038e-05
3.80567e-05
2.47788e-05
4.18303e-05
6.1789e-05
6.19131e-05
2.47374e-05
2.47385e-05
6.19144e-05
4.17493e-05
2.47801e-05
6.17878e-05
3.46485e-05
0.000105512
9.61081e-05
3.80566e-05
9.62658e-05
3.81351e-05
3.45771e-05
3.45663e-05
3.81271e-05
0.000105331
9.62249e-05
3.46374e-05
3.8049e-05
9.60643e-05
2.47715e-05
6.1763e-05
4.18269e-05
6.18874e-05
2.47296e-05
3.46362e-05
0.000105494
3.80488e-05
9.60684e-05
3.81268e-05
9.62265e-05
3.45645e-05
2.47305e-05
6.18879e-05
4.17449e-05
2.47726e-05
6.17606e-05
2.70062e-05
2.70277e-05
2.6636e-05
2.66714e-05
4.94544e-05
2.43622e-05
2.42442e-05
2.43933e-05
2.42774e-05
4.93487e-05
0.000101815
0.000127603
4.23426e-05
6.41957e-05
0.000101955
4.2283e-05
0.00012749
0.000100392
0.000126463
4.15721e-05
6.32279e-05
0.000100548
4.14996e-05
0.000126312
4.93499e-05
2.4394e-05
2.42787e-05
4.94558e-05
2.43618e-05
2.42433e-05
0.000101949
4.2285e-05
6.42817e-05
0.000127518
4.23417e-05
0.00010182
0.000127605
0.000100541
4.15006e-05
6.33453e-05
0.000126333
4.157e-05
0.000100396
0.000126465
3.52996e-05
0.000108218
3.89203e-05
9.86066e-05
3.89125e-05
9.86646e-05
3.52752e-05
2.53097e-05
6.34787e-05
4.26434e-05
2.53241e-05
6.34157e-05
3.52651e-05
0.00010814
3.89144e-05
9.86621e-05
3.88787e-05
3.52985e-05
9.85869e-05
2.53241e-05
6.34272e-05
4.26893e-05
6.34789e-05
2.53125e-05
4.94442e-05
2.43038e-05
2.42916e-05
2.43615e-05
2.42932e-05
4.93286e-05
0.000100731
0.000127333
4.18799e-05
6.41049e-05
4.18343e-05
0.000100891
0.00012719
0.00010142
0.000126618
4.19908e-05
6.32474e-05
0.000126495
0.000101525
4.18979e-05
4.93258e-05
2.43452e-05
2.42935e-05
2.43125e-05
4.9418e-05
2.42625e-05
0.000100904
4.18416e-05
6.42062e-05
0.00012729
4.20042e-05
0.000127335
0.000100922
0.000101641
4.1918e-05
6.33506e-05
0.000126466
0.000126625
4.18875e-05
0.00010132
2.66168e-05
2.66557e-05
3.46351e-05
0.000105496
3.80508e-05
9.60735e-05
3.81252e-05
9.62256e-05
3.45665e-05
2.47307e-05
6.18841e-05
4.17376e-05
2.47679e-05
6.17589e-05
3.45661e-05
0.000105341
3.81277e-05
9.6232e-05
3.80501e-05
3.46361e-05
9.60694e-05
2.47647e-05
6.17625e-05
4.18159e-05
6.18812e-05
2.47311e-05
3.46449e-05
0.000105509
9.611e-05
3.80546e-05
9.62615e-05
3.81296e-05
3.45764e-05
2.47394e-05
6.19115e-05
4.17485e-05
6.17875e-05
2.4776e-05
3.45772e-05
0.000105352
9.62654e-05
3.81324e-05
9.61058e-05
3.46466e-05
3.80548e-05
2.47725e-05
6.179e-05
4.18267e-05
6.19083e-05
2.47392e-05
3.46331e-05
0.00010549
3.80469e-05
9.60694e-05
3.8122e-05
9.62217e-05
3.45639e-05
2.47315e-05
6.18859e-05
4.17456e-05
2.47688e-05
6.17612e-05
3.45646e-05
0.000105334
3.81247e-05
9.62258e-05
3.46348e-05
3.80472e-05
9.6065e-05
2.47653e-05
6.17641e-05
4.18235e-05
6.18832e-05
2.47313e-05
4.94612e-05
2.42357e-05
2.43836e-05
2.42668e-05
2.44112e-05
4.93689e-05
0.0001004
0.000126767
6.32261e-05
4.1529e-05
4.1456e-05
0.000126611
0.000100554
0.000101839
0.000127346
6.42301e-05
4.24048e-05
0.000127231
4.23439e-05
0.000101979
0.000100543
4.14714e-05
6.33413e-05
0.000126619
4.15229e-05
0.000126756
0.000100391
0.00010198
4.23334e-05
6.43169e-05
0.000127256
0.000127352
4.24086e-05
0.00010188
4.93584e-05
2.42697e-05
2.44128e-05
2.42328e-05
2.43797e-05
4.94644e-05
2.70423e-05
2.70635e-05
2.4404e-05
4.22964e-05
3.53851e-05
9.88269e-05
3.90004e-05
0.000108456
9.88821e-05
3.90088e-05
3.53599e-05
2.53754e-05
4.27435e-05
6.36269e-05
6.35622e-05
2.53899e-05
2.53894e-05
6.35695e-05
4.27884e-05
6.36238e-05
2.53779e-05
3.53516e-05
0.000108383
9.88846e-05
3.9011e-05
9.88068e-05
3.89744e-05
3.53849e-05
3.53848e-05
9.88267e-05
3.89984e-05
0.000108452
9.88828e-05
3.90074e-05
3.53585e-05
2.53712e-05
4.27376e-05
6.36253e-05
6.35597e-05
2.53865e-05
2.53859e-05
6.3567e-05
4.27829e-05
6.36218e-05
2.53738e-05
3.53499e-05
0.000108378
9.88867e-05
3.90096e-05
9.88066e-05
3.89722e-05
3.53846e-05
9.89388e-05
3.89607e-05
3.53734e-05
6.36882e-05
2.54053e-05
9.89397e-05
3.89586e-05
3.53719e-05
6.36866e-05
2.54011e-05
2.66292e-05
2.66634e-05
2.70347e-05
2.70582e-05
2.43829e-05
4.20078e-05
8.09769e-05
8.37107e-05
0.000106975
8.09519e-05
8.37099e-05
5.04534e-05
5.04541e-05
8.09595e-05
8.36881e-05
0.000106975
8.09529e-05
8.36882e-05
5.04263e-05
5.04288e-05
0.000132999
0.000147374
0.00014678
0.00014781
0.000147396
0.000146781
0.000133115
0.000133023
0.00014737
0.000146863
0.000147752
0.00014737
0.000146872
0.000133143
0.000133138
0.000147693
0.000147353
0.000146812
0.000147348
0.000146853
0.000133014
0.00013295
0.00014733
0.000146694
0.000147655
0.000146712
0.000147348
0.000133067
0.00013306
0.000147604
0.000147344
0.000146644
0.000147338
0.000146689
0.000132935
0.000133012
0.00014733
0.00014685
0.000147738
0.00013313
0.000147348
0.000146881
0.000132937
0.000147322
0.000146685
0.000147652
0.000146717
0.000133049
0.000147346
0.000133017
0.000147465
0.000146719
0.000147818
0.00014672
0.000147481
0.000133135
8.09788e-05
8.36691e-05
0.000106934
8.09544e-05
8.36684e-05
5.04315e-05
5.04293e-05
8.34174e-05
8.1506e-05
0.000107059
8.34157e-05
8.14789e-05
5.04925e-05
5.04908e-05
8.34043e-05
8.15209e-05
0.000107096
8.34047e-05
8.14967e-05
5.04846e-05
5.04836e-05
0.000106976
8.09623e-05
8.371e-05
8.09516e-05
8.36946e-05
5.0427e-05
5.04295e-05
0.000106934
8.09613e-05
8.36703e-05
8.0954e-05
8.36544e-05
5.04023e-05
5.04047e-05
0.000107059
8.34141e-05
8.14847e-05
8.34004e-05
8.14787e-05
5.04619e-05
5.04634e-05
0.000107096
8.34028e-05
8.15017e-05
8.33888e-05
8.1496e-05
5.04549e-05
5.04572e-05
0.000146967
0.000137079
0.000146541
0.000141255
0.000137203
0.000146527
0.000146937
0.000145612
0.000140265
0.00010677
0.000126709
0.000140189
0.00012655
0.000145582
0.000145569
0.000126545
0.000106933
0.000140167
0.000140265
0.000126701
0.000145533
0.000147025
0.00014116
0.000137209
0.00014653
0.000137087
0.000146604
0.000146947
8.09255e-05
8.36186e-05
0.000106904
8.09263e-05
8.36315e-05
5.0407e-05
5.04092e-05
8.33637e-05
8.14469e-05
0.000107033
8.33783e-05
8.14528e-05
5.04733e-05
5.04722e-05
8.33532e-05
8.14659e-05
0.000107073
8.3372e-05
8.14862e-05
5.04689e-05
5.04684e-05
0.000146965
0.000141245
0.000137108
0.000146565
0.000137197
0.000146546
0.000146963
0.000145613
0.000140255
0.000126698
0.000106763
0.00014558
0.000140186
0.000126544
0.000147042
0.000141141
0.000137191
0.000146526
0.000146938
0.000137075
0.000146633
0.000145579
0.000126564
0.000106927
0.000140154
0.000140269
0.000126699
0.000145522
0.00014783
0.000147287
0.000139524
0.000143702
0.00014729
0.000139561
0.00014782
0.000146627
0.000141239
0.000108463
0.000128767
0.000141188
0.000128689
0.00014661
0.000146594
0.000128689
0.000108561
0.000141191
0.00014124
0.000128763
0.000146587
0.00014785
0.000143663
0.000147285
0.000139561
0.000147311
0.000139514
0.000147813
0.000133116
0.000147774
0.00014735
0.0001468
0.000147394
0.000146808
0.000133033
0.000133135
0.000147702
0.000147364
0.000146845
0.000133016
0.000147355
0.000146844
0.00013302
0.000147741
0.000147337
0.000146829
0.000133135
0.000147363
0.000146866
0.000147506
0.000139218
0.000146918
0.000143367
0.000139267
0.000146909
0.000147495
0.000146356
0.000141038
0.000108299
0.000128534
0.000128454
0.000141006
0.000146339
0.000146317
0.000128452
0.000108398
0.000141001
0.000128529
0.00014105
0.000146319
0.000147519
0.000143331
0.000139269
0.000146909
0.00013922
0.000146926
0.000147497
0.000147498
0.0001392
0.00014691
0.000143357
0.000139249
0.000146902
0.000147487
0.000146369
0.000141047
0.000108281
0.000128522
0.000128442
0.000141014
0.000146352
0.00014633
0.00012844
0.00010838
0.000141011
0.000128517
0.000146331
0.000141062
0.000147512
0.000143321
0.000139251
0.000146903
0.000139202
0.000146919
0.000147491
0.000147529
0.000139262
0.000146896
0.000143323
0.000147504
0.000139215
0.000146926
0.000146358
0.00014101
0.000108399
0.000128454
0.000141068
0.000128528
0.000146333
0.000146361