/*--------------------------------*- C++ -*----------------------------------*\
| =========                 |                                                 |
| \\      /  F ield         | OpenFOAM: The Open Source CFD Toolbox           |
|  \\    /   O peration     | Version:  2206                                  |
|   \\  /    A nd           | Website:  www.openfoam.com                      |
|    \\/     M anipulation  |                                                 |
\*---------------------------------------------------------------------------*/
FoamFile
{
    version     2.0;
    format      ascii;
    arch        "LSB;label=32;scalar=64";
    class       volScalarField;
    location    "1";
    object      nut;
}
// * * * * * * * * * * * * * * * * * * * * * * * * * * * * * * * * * * * * * //

dimensions      [0 2 -1 0 0 0 0];

internalField   nonuniform List<scalar> 
66621
(
1.43362e-07
5.9656e-07
1.41185e-07
1.26104e-06
6.20621e-07
2.68586e-06
6.64006e-08
1.31868e-06
2.34441e-06
2.687e-06
6.38244e-07
2.44999e-06
3.15758e-07
3.22743e-07
6.72504e-08
6.64637e-08
2.41867e-06
3.20616e-07
3.15091e-07
2.30195e-06
6.31185e-07
3.15361e-07
6.64382e-08
1.26152e-06
2.31672e-06
6.20905e-07
2.68861e-06
5.96393e-07
1.41027e-07
1.26164e-06
2.33124e-06
2.6956e-06
6.20406e-07
5.96391e-07
1.41102e-07
1.26141e-06
2.3328e-06
2.69461e-06
6.20917e-07
5.96323e-07
1.41095e-07
2.44861e-06
3.15028e-07
3.2291e-07
6.76848e-08
1.31866e-06
2.34539e-06
2.68753e-06
6.38327e-07
6.23872e-07
1.45445e-07
6.2387e-07
1.45483e-07
6.64478e-08
6.77232e-08
2.97933e-07
5.92732e-08
1.05665e-07
5.06594e-07
1.23974e-07
5.97638e-07
5.07483e-07
1.24216e-07
1.05464e-07
5.84234e-08
2.91591e-07
1.4145e-07
2.9222e-07
5.83682e-08
6.64677e-08
2.02312e-07
5.96492e-08
5.9864e-08
5.96987e-08
5.99082e-08
2.01886e-07
5.38773e-07
1.39333e-07
3.16346e-07
8.90608e-07
8.94143e-07
1.39563e-07
5.37548e-07
5.43196e-07
1.39027e-07
3.23127e-07
8.99838e-07
9.03027e-07
1.39209e-07
5.42e-07
6.65302e-08
2.02215e-07
5.99865e-08
5.95362e-08
5.99818e-08
5.95925e-08
2.01806e-07
5.41577e-07
1.40724e-07
9.00419e-07
1.41053e-07
5.41771e-07
5.39179e-07
1.37495e-07
3.15705e-07
8.87973e-07
1.37728e-07
5.38718e-07
8.90694e-07
5.96968e-08
2.01308e-07
1.39233e-07
8.90122e-07
5.3933e-07
1.05588e-07
1.2393e-07
5.06232e-07
5.97466e-07
1.24173e-07
5.07104e-07
1.05388e-07
5.83704e-08
2.9126e-07
1.41294e-07
2.91887e-07
5.83154e-08
5.06367e-07
1.23949e-07
1.05426e-07
2.91512e-07
5.8342e-08
1.23925e-07
5.06236e-07
1.05391e-07
2.91437e-07
5.83276e-08
2.01969e-07
5.95254e-08
5.98929e-08
5.95592e-08
5.99443e-08
2.01635e-07
5.40141e-07
1.37564e-07
3.15606e-07
8.87576e-07
1.37742e-07
8.91327e-07
5.37768e-07
5.41196e-07
1.40682e-07
3.23317e-07
9.0125e-07
9.04329e-07
1.4097e-07
5.41252e-07
6.77164e-08
1.08833e-07
5.28497e-07
1.28195e-07
6.23638e-07
5.28648e-07
1.28299e-07
1.08746e-07
6.02412e-08
3.04847e-07
1.45563e-07
3.05101e-07
6.02324e-08
1.08845e-07
5.28557e-07
1.28197e-07
6.23617e-07
5.28691e-07
1.28299e-07
1.0876e-07
6.02471e-08
3.04899e-07
1.45602e-07
3.05152e-07
6.02358e-08
6.77574e-08
2.94992e-06
3.15744e-06
3.12643e-06
2.80553e-06
2.94777e-06
3.15653e-06
3.12477e-06
2.80379e-06
2.97241e-06
3.13724e-06
3.26237e-06
2.82211e-06
2.97261e-06
3.1326e-06
3.26157e-06
2.82001e-06
1.80767e-06
1.14118e-06
2.00239e-06
1.26683e-06
1.14709e-06
2.00866e-06
1.80362e-06
8.92134e-07
1.22516e-06
1.68389e-06
1.84755e-06
2.04993e-06
1.19111e-06
1.32289e-06
2.05824e-06
1.19465e-06
1.84692e-06
1.73611e-06
9.25364e-07
6.39413e-07
1.24982e-06
1.25139e-06
9.27268e-07
1.73696e-06
1.03144e-06
2.44657e-06
1.41875e-06
1.42953e-06
1.4237e-06
1.43316e-06
1.02704e-06
1.0312e-06
2.43539e-06
1.41366e-06
1.4195e-06
1.02708e-06
1.42668e-06
1.42684e-06
9.09508e-07
1.23751e-06
1.6969e-06
1.80878e-06
1.14177e-06
2.00332e-06
1.26738e-06
1.14775e-06
2.00958e-06
1.80458e-06
1.68917e-06
8.92888e-07
6.22249e-07
1.22404e-06
8.96349e-07
1.22808e-06
1.68428e-06
1.81198e-06
2.00805e-06
1.14154e-06
1.2675e-06
2.01444e-06
1.14745e-06
1.80756e-06
1.69453e-06
8.92329e-07
6.2176e-07
1.22958e-06
8.95677e-07
1.68949e-06
1.23316e-06
1.81197e-06
2.00778e-06
1.14155e-06
1.2672e-06
2.01418e-06
1.14743e-06
1.80762e-06
1.69545e-06
8.92509e-07
6.22232e-07
1.23185e-06
1.23548e-06
8.95784e-07
1.69048e-06
1.03077e-06
2.44421e-06
1.41352e-06
1.43169e-06
1.43556e-06
1.41801e-06
1.02616e-06
1.848e-06
2.04974e-06
1.19124e-06
1.32288e-06
2.05819e-06
1.19485e-06
1.84705e-06
1.73642e-06
9.25581e-07
6.3948e-07
1.24887e-06
1.25039e-06
9.27516e-07
1.73711e-06
1.07851e-08
1.15285e-09
7.20865e-11
3.7025e-12
2.2707e-12
1.06868e-08
1.14148e-09
7.13659e-11
3.67692e-12
2.26193e-12
1.06288e-08
1.12656e-09
7.07449e-11
3.80918e-12
2.43353e-12
1.07088e-08
1.1356e-09
7.13264e-11
3.8311e-12
2.44162e-12
1.06384e-08
1.1275e-09
7.07959e-11
3.81019e-12
2.43354e-12
1.06384e-08
1.12777e-09
7.08251e-11
3.81322e-12
2.43572e-12
1.06757e-08
1.14033e-09
7.12969e-11
3.6743e-12
2.26115e-12
1.06815e-08
1.14109e-09
7.13536e-11
3.67765e-12
2.26291e-12
1.06812e-08
1.14098e-09
7.13514e-11
3.67828e-12
2.26349e-12
1.0704e-08
1.13524e-09
7.13037e-11
3.82859e-12
2.43975e-12
1.08055e-08
1.15498e-09
7.22007e-11
3.70249e-12
2.26769e-12
1.08082e-08
1.15522e-09
7.22192e-11
3.70216e-12
2.26704e-12
1.06393e-08
1.12784e-09
7.0829e-11
3.81233e-12
2.43476e-12
1.07068e-08
1.13533e-09
7.12965e-11
3.82658e-12
2.43797e-12
1.08686e-08
1.15402e-09
7.22839e-11
3.7909e-12
2.36842e-12
1.12348e-08
1.19837e-09
7.51219e-11
3.89666e-12
2.40969e-12
1.12378e-08
1.19841e-09
7.51271e-11
3.90013e-12
2.41372e-12
1.08665e-08
1.1541e-09
7.22881e-11
3.78796e-12
2.36474e-12
1.06865e-08
1.14121e-09
7.13501e-11
3.67785e-12
2.26345e-12
1.06306e-08
1.12655e-09
7.07439e-11
3.81162e-12
2.43655e-12
1.09476e-08
1.16436e-09
7.269e-11
3.72627e-12
2.28245e-12
1.09483e-08
1.16427e-09
7.2686e-11
3.72831e-12
2.28499e-12
1.09218e-08
1.16228e-09
7.25741e-11
3.72314e-12
2.28204e-12
1.09218e-08
1.16207e-09
7.25615e-11
3.72391e-12
2.28329e-12
1.06402e-08
1.12747e-09
7.0794e-11
3.81247e-12
2.43639e-12
1.02174e-08
1.08224e-09
6.80958e-11
3.73843e-12
2.41152e-12
1.09436e-08
1.1637e-09
7.26574e-11
3.72695e-12
2.28385e-12
1.08615e-08
1.1532e-09
7.22352e-11
3.78972e-12
2.36832e-12
1.12311e-08
1.19798e-09
7.5098e-11
3.89595e-12
2.40955e-12
1.12342e-08
1.19802e-09
7.51034e-11
3.89941e-12
2.41357e-12
1.08593e-08
1.15328e-09
7.22396e-11
3.78678e-12
2.36464e-12
1.06754e-08
1.14006e-09
7.12812e-11
3.67528e-12
2.26273e-12
1.12313e-08
1.19793e-09
7.50991e-11
3.89517e-12
2.4088e-12
1.08607e-08
1.15342e-09
7.22467e-11
3.78591e-12
2.36379e-12
1.12292e-08
1.19774e-09
7.50814e-11
3.89457e-12
2.40867e-12
1.08578e-08
1.15311e-09
7.22241e-11
3.78546e-12
2.36384e-12
1.02288e-08
1.08346e-09
6.81578e-11
3.73898e-12
2.41213e-12
1.09896e-08
1.16934e-09
7.30102e-11
3.73759e-12
2.28584e-12
1.09916e-08
1.16924e-09
7.30029e-11
3.73801e-12
2.28651e-12
1.07023e-08
1.13492e-09
7.12846e-11
3.82872e-12
2.44046e-12
1.09358e-08
1.16245e-09
7.28059e-11
3.80124e-12
2.36541e-12
1.13098e-08
1.20726e-09
7.5665e-11
3.90802e-12
2.40756e-12
1.13112e-08
1.20738e-09
7.56727e-11
3.90971e-12
2.40937e-12
1.09362e-08
1.16264e-09
7.28187e-11
3.8008e-12
2.36448e-12
1.08012e-08
1.15437e-09
7.21636e-11
3.70064e-12
2.26651e-12
1.09364e-08
1.16251e-09
7.28134e-11
3.80124e-12
2.36529e-12
1.13098e-08
1.20723e-09
7.56692e-11
3.90821e-12
2.40759e-12
1.13112e-08
1.20734e-09
7.56765e-11
3.90988e-12
2.40941e-12
1.09369e-08
1.16271e-09
7.28261e-11
3.80074e-12
2.3643e-12
1.08037e-08
1.15459e-09
7.21812e-11
3.70034e-12
2.26591e-12
1.07049e-08
1.13498e-09
7.12749e-11
3.82669e-12
2.43873e-12
1.02221e-08
1.08271e-09
6.81129e-11
3.73719e-12
2.41092e-12
1.0223e-08
1.08286e-09
6.81253e-11
3.73806e-12
2.41149e-12
1.08345e-08
1.14687e-09
7.20419e-11
3.8475e-12
2.43959e-12
1.07161e-08
1.13327e-09
7.11733e-11
3.81327e-12
2.42478e-12
1.07159e-08
1.13349e-09
7.11877e-11
3.81105e-12
2.42165e-12
1.01993e-08
1.08034e-09
6.79868e-11
3.73576e-12
2.40983e-12
1.08686e-08
1.15621e-09
7.22083e-11
3.71243e-12
2.27969e-12
1.08717e-08
1.15641e-09
7.22217e-11
3.71549e-12
2.28296e-12
1.02242e-08
1.08297e-09
6.81451e-11
3.74193e-12
2.41383e-12
1.02245e-08
1.08305e-09
6.81516e-11
3.74213e-12
2.41398e-12
1.02353e-08
1.08387e-09
6.81709e-11
3.73646e-12
2.41047e-12
1.09962e-08
1.1698e-09
7.30327e-11
3.73766e-12
2.28551e-12
1.09963e-08
1.16961e-09
7.30202e-11
3.73897e-12
2.28746e-12
1.02042e-08
1.08093e-09
6.80268e-11
3.73675e-12
2.41048e-12
1.08708e-08
1.15651e-09
7.22263e-11
3.71267e-12
2.2798e-12
1.08723e-08
1.15648e-09
7.22251e-11
3.71473e-12
2.28228e-12
1.02341e-08
1.08399e-09
6.81991e-11
3.74187e-12
2.41387e-12
1.02069e-08
1.08135e-09
6.80709e-11
3.74262e-12
2.41399e-12
1.07066e-08
1.13223e-09
7.11091e-11
3.81088e-12
2.424e-12
1.07063e-08
1.13245e-09
7.11233e-11
3.80864e-12
2.42086e-12
1.07109e-08
1.13299e-09
7.11587e-11
3.81028e-12
2.42166e-12
1.07089e-08
1.13273e-09
7.11417e-11
3.8104e-12
2.42206e-12
1.02016e-08
1.0807e-09
6.80289e-11
3.74145e-12
2.41318e-12
1.02306e-08
1.0836e-09
6.81788e-11
3.74222e-12
2.41412e-12
1.08559e-08
1.14884e-09
7.21567e-11
3.84806e-12
2.43691e-12
1.08601e-08
1.14943e-09
7.21938e-11
3.84949e-12
2.43754e-12
1.08567e-08
1.14898e-09
7.21653e-11
3.84784e-12
2.43655e-12
1.08607e-08
1.14955e-09
7.22014e-11
3.8491e-12
2.43701e-12
6.69557e-08
6.63968e-08
2.40295e-06
3.18137e-07
3.14799e-07
5.97151e-07
1.41041e-07
1.269e-06
2.26461e-06
6.21947e-07
2.55771e-06
5.96977e-07
1.40885e-07
1.26908e-06
2.2425e-06
2.54905e-06
6.21508e-07
2.24374e-06
6.21986e-07
1.4096e-07
6.6331e-08
2.35502e-06
3.14681e-07
3.22688e-07
6.76359e-08
1.32253e-06
2.28522e-06
2.64727e-06
6.39245e-07
1.32252e-06
2.28672e-06
2.64614e-06
6.39385e-07
6.23062e-07
1.45329e-07
6.23051e-07
1.45372e-07
2.35706e-06
3.15474e-07
3.22518e-07
6.63845e-08
6.76731e-08
5.98414e-08
5.94856e-08
2.01827e-07
1.39956e-07
8.97814e-07
5.39914e-07
1.37374e-07
8.90536e-07
5.38735e-07
1.06178e-07
5.07049e-07
1.23902e-07
6.00364e-07
1.05408e-07
5.09948e-07
1.24827e-07
5.8649e-08
2.9127e-07
1.42189e-07
5.83122e-08
2.94126e-07
1.06103e-07
1.23858e-07
5.0667e-07
6.0021e-07
1.05331e-07
1.24785e-07
5.09591e-07
5.85962e-08
2.90938e-07
1.42033e-07
5.82594e-08
2.93795e-07
5.86098e-08
2.91114e-07
1.42112e-07
5.82722e-08
2.93962e-07
6.66884e-08
2.03125e-07
5.96078e-08
5.97814e-08
2.01429e-07
5.97471e-08
6.0249e-08
5.39891e-07
1.37845e-07
8.90827e-07
3.17631e-07
8.911e-07
5.36866e-07
1.38596e-07
5.45314e-07
1.40255e-07
9.04999e-07
3.24627e-07
5.43897e-07
1.41367e-07
9.04461e-07
6.78946e-08
1.08917e-07
5.2815e-07
1.28184e-07
6.23901e-07
1.08726e-07
5.29304e-07
1.28198e-07
6.03754e-08
3.04623e-07
1.46096e-07
6.01877e-08
3.06322e-07
1.08921e-07
5.28215e-07
1.28185e-07
6.23904e-07
1.08743e-07
5.29346e-07
1.28201e-07
6.03719e-08
3.04696e-07
1.46137e-07
6.01962e-08
3.06333e-07
2.03488e-07
5.95911e-08
5.98115e-08
2.0171e-07
5.98811e-08
6.00809e-08
5.40652e-07
1.39214e-07
8.94212e-07
3.18308e-07
5.38276e-07
8.9415e-07
1.40176e-07
5.4486e-07
1.38923e-07
9.03069e-07
3.24663e-07
5.42744e-07
9.02752e-07
1.39742e-07
6.67486e-08
6.79324e-08
2.96213e-06
3.2048e-06
3.15657e-06
2.82584e-06
2.96094e-06
3.20147e-06
3.17253e-06
2.82311e-06
2.9204e-06
3.09747e-06
3.1719e-06
2.76306e-06
2.91866e-06
3.09235e-06
3.16791e-06
2.76412e-06
1.42365e-06
1.4125e-06
1.03175e-06
1.77105e-06
1.14862e-06
1.95259e-06
1.26447e-06
1.76582e-06
1.14528e-06
1.96015e-06
1.6706e-06
8.96065e-07
1.21495e-06
6.24302e-07
1.21843e-06
1.66394e-06
8.97209e-07
1.77265e-06
1.95558e-06
1.14826e-06
1.26463e-06
1.76747e-06
1.96324e-06
1.14492e-06
1.67147e-06
8.95392e-07
1.21753e-06
6.23894e-07
1.66471e-06
8.96604e-07
1.22143e-06
1.67248e-06
8.95627e-07
1.21979e-06
6.24366e-07
1.66562e-06
8.96859e-07
1.22364e-06
1.02981e-06
2.39023e-06
1.40317e-06
1.42402e-06
1.40266e-06
1.03083e-06
1.42338e-06
1.84e-06
2.04692e-06
1.19439e-06
1.31751e-06
1.83736e-06
2.03591e-06
1.19138e-06
1.72493e-06
9.27269e-07
1.24055e-06
6.40395e-07
1.71461e-06
1.24393e-06
9.27991e-07
1.84012e-06
2.04698e-06
1.19461e-06
1.31752e-06
1.83792e-06
2.03587e-06
1.19148e-06
1.72524e-06
9.27537e-07
1.23976e-06
6.40549e-07
1.71524e-06
9.28148e-07
1.24329e-06
1.03077e-06
2.39252e-06
1.40759e-06
1.42305e-06
1.03187e-06
1.40704e-06
1.42223e-06
2.94775e-06
2.27013e-06
2.94711e-06
2.26094e-06
2.30129e-06
2.41345e-06
2.42352e-06
2.40047e-06
2.29955e-06
2.29811e-06
2.32219e-06
2.3208e-06
2.42133e-06
2.39842e-06
2.27133e-06
2.26933e-06
2.31141e-06
2.30996e-06
2.27017e-06
2.31029e-06
2.3109e-06
2.41082e-06
2.2948e-06
2.29336e-06
2.40842e-06
2.26173e-06
2.25972e-06
2.26042e-06
2.41273e-06
2.30175e-06
6.22827e-07
1.45356e-07
1.45201e-07
6.22043e-07
6.76372e-08
6.75874e-08
5.98715e-07
1.41473e-07
1.41212e-07
5.95944e-07
2.94724e-06
2.9445e-06
2.94519e-06
2.9585e-06
2.95827e-06
2.95682e-06
2.9576e-06
1.26404e-06
6.20678e-07
2.59254e-06
2.30546e-06
6.22507e-07
2.65205e-06
1.26678e-06
6.23229e-07
1.45362e-07
6.21947e-07
1.45203e-07
6.76401e-08
6.75843e-08
5.97773e-07
1.41459e-07
5.96393e-07
1.4116e-07
2.94569e-06
2.94252e-06
2.9433e-06
1.26427e-06
6.20927e-07
2.57485e-06
2.31709e-06
1.26615e-06
6.21811e-07
2.6756e-06
6.65173e-08
6.64308e-08
1.32054e-06
2.66909e-06
6.38888e-07
2.33167e-06
2.6742e-06
6.39054e-07
1.32341e-06
3.16318e-07
3.22966e-07
2.4129e-06
3.15378e-07
3.22418e-07
6.76917e-08
6.76355e-08
6.65684e-08
6.64756e-08
3.23416e-07
3.15694e-07
2.39488e-06
3.22798e-07
3.14835e-07
6.76353e-08
6.76866e-08
6.64746e-08
6.65616e-08
2.41801e-06
3.2278e-07
3.14809e-07
3.23436e-07
3.15717e-07
6.22726e-07
1.45264e-07
1.4511e-07
6.21971e-07
1.31667e-06
6.37983e-07
2.65608e-06
2.31982e-06
6.38556e-07
2.6645e-06
1.32081e-06
1.31643e-06
6.37442e-07
2.65597e-06
2.3184e-06
6.38023e-07
2.66441e-06
1.32063e-06
6.22004e-07
1.45201e-07
1.45353e-07
6.22884e-07
6.2193e-07
1.4511e-07
1.4526e-07
6.22782e-07
1.32061e-06
2.29725e-06
6.38491e-07
2.66434e-06
6.3798e-07
2.65625e-06
1.31697e-06
1.32043e-06
2.29581e-06
6.3796e-07
2.66422e-06
6.37435e-07
2.65611e-06
1.31675e-06
3.22685e-07
3.15862e-07
2.39263e-06
3.2213e-07
3.15028e-07
6.65242e-08
6.64271e-08
6.75935e-08
6.7639e-08
2.41575e-06
3.22173e-07
3.15049e-07
3.22782e-07
3.15907e-07
6.64254e-08
6.65121e-08
1.2642e-06
6.20809e-07
2.59389e-06
2.30665e-06
6.22639e-07
2.6532e-06
1.26696e-06
5.98555e-07
1.41341e-07
5.9579e-07
1.41082e-07
1.26434e-06
2.59268e-06
6.20459e-07
2.30499e-06
2.65189e-06
1.26712e-06
6.22282e-07
5.96048e-07
1.41203e-07
1.41466e-07
5.98453e-07
1.26648e-06
2.26693e-06
6.22461e-07
2.66264e-06
6.20841e-07
2.58579e-06
1.26453e-06
5.95891e-07
1.41078e-07
5.98295e-07
1.41337e-07
1.26664e-06
2.26492e-06
2.66127e-06
6.22119e-07
2.58467e-06
1.2647e-06
6.20498e-07
5.98592e-07
1.41397e-07
1.41132e-07
5.95858e-07
1.26436e-06
2.59201e-06
6.20824e-07
2.30542e-06
2.65127e-06
1.26713e-06
6.22452e-07
5.98516e-07
1.41373e-07
5.95771e-07
1.41106e-07
1.26627e-06
2.26574e-06
6.2232e-07
2.66156e-06
6.20678e-07
2.5845e-06
1.26423e-06
5.95905e-07
1.41123e-07
1.41384e-07
5.98318e-07
1.26662e-06
2.26505e-06
2.66071e-06
6.22469e-07
2.58397e-06
1.26455e-06
6.20668e-07
5.95827e-07
1.41108e-07
5.98241e-07
1.4136e-07
6.76818e-08
6.76396e-08
6.65526e-08
6.64748e-08
3.23427e-07
3.15693e-07
2.40987e-06
3.22779e-07
3.14783e-07
6.23121e-07
1.45267e-07
6.21845e-07
1.45117e-07
1.31779e-06
6.3811e-07
2.65741e-06
2.32544e-06
1.32037e-06
6.3854e-07
2.66295e-06
1.31757e-06
6.37571e-07
2.65729e-06
2.32423e-06
1.3202e-06
6.38095e-07
2.66283e-06
3.22764e-07
3.15895e-07
2.40692e-06
3.22183e-07
3.14811e-07
6.65068e-08
6.64425e-08
1.26448e-06
6.21071e-07
2.57565e-06
2.3186e-06
1.26644e-06
6.21988e-07
2.67623e-06
5.97624e-07
1.41333e-07
5.96215e-07
1.41039e-07
1.26465e-06
2.57463e-06
6.20755e-07
2.31731e-06
1.26662e-06
2.67474e-06
6.21699e-07
5.97697e-07
1.41379e-07
5.96249e-07
1.41088e-07
1.26462e-06
2.574e-06
6.21101e-07
2.31814e-06
1.26645e-06
2.67394e-06
6.22067e-07
5.97614e-07
1.41364e-07
5.96181e-07
1.41069e-07
3.15747e-07
3.2349e-07
2.4135e-06
3.14681e-07
3.22974e-07
6.77631e-08
6.77202e-08
3.23335e-07
6.77632e-08
1.32046e-06
2.66997e-06
6.38714e-07
2.33223e-06
2.67526e-06
6.38839e-07
1.32334e-06
6.24505e-07
1.45605e-07
1.45427e-07
6.23294e-07
6.24474e-07
1.4559e-07
1.45403e-07
6.23271e-07
1.32425e-06
6.38805e-07
1.32416e-06
6.38666e-07
6.22861e-07
1.45572e-07
6.2282e-07
1.45552e-07
6.65469e-08
6.64582e-08
6.77387e-08
6.76997e-08
3.23033e-07
6.77457e-08
1.08611e-07
1.27914e-07
5.27911e-07
6.22044e-07
1.28021e-07
5.27264e-07
1.08518e-07
6.01071e-08
1.45203e-07
3.0452e-07
3.04129e-07
6.01326e-08
6.01319e-08
3.04104e-07
1.45354e-07
3.04522e-07
6.01061e-08
1.08518e-07
6.22832e-07
1.28021e-07
5.27253e-07
1.27913e-07
5.27939e-07
1.08608e-07
6.75821e-08
6.76378e-08
1.05692e-07
5.08351e-07
1.24018e-07
5.95997e-07
5.06083e-07
1.24248e-07
1.05494e-07
5.83743e-08
1.41215e-07
2.92219e-07
2.91443e-07
5.84561e-08
5.84544e-08
2.91425e-07
1.41469e-07
2.92231e-07
5.83731e-08
1.05494e-07
5.98868e-07
5.06026e-07
1.24251e-07
5.0846e-07
1.24017e-07
1.0569e-07
1.08616e-07
6.21859e-07
1.28092e-07
5.27914e-07
1.2802e-07
5.27354e-07
1.08573e-07
6.01074e-08
3.04545e-07
1.45187e-07
6.0131e-08
3.04098e-07
1.08521e-07
6.23016e-07
1.28027e-07
5.27334e-07
1.08613e-07
1.27919e-07
5.27884e-07
6.01321e-08
3.04155e-07
1.45371e-07
3.04535e-07
6.01196e-08
6.75891e-08
6.76293e-08
1.05676e-07
5.9668e-07
5.0755e-07
1.23989e-07
5.06659e-07
1.24231e-07
1.05473e-07
5.83729e-08
2.92245e-07
1.41189e-07
5.84449e-08
2.91372e-07
1.05479e-07
5.98286e-07
5.06416e-07
1.24239e-07
1.05679e-07
5.07941e-07
1.24e-07
5.84385e-08
2.91354e-07
1.41469e-07
2.92222e-07
5.83721e-08
6.64349e-08
6.65089e-08
2.0215e-07
5.9614e-08
5.99071e-08
5.96914e-08
5.99638e-08
2.016e-07
5.37832e-07
8.92196e-07
3.15432e-07
1.39454e-07
8.9141e-07
1.39209e-07
5.36576e-07
5.44487e-07
9.02697e-07
3.22357e-07
1.39543e-07
9.01359e-07
1.39328e-07
5.43894e-07
5.37057e-07
1.39195e-07
3.16288e-07
8.91849e-07
8.92363e-07
1.39428e-07
5.37898e-07
5.43511e-07
1.393e-07
3.23026e-07
9.01173e-07
9.02553e-07
1.39498e-07
5.439e-07
2.01553e-07
5.9757e-08
5.99358e-08
5.9643e-08
5.98859e-08
2.0201e-07
6.76344e-08
6.76897e-08
6.64747e-08
6.65656e-08
2.02237e-07
5.99404e-08
5.95535e-08
6.0006e-08
5.96283e-08
2.01808e-07
5.42232e-07
9.04404e-07
3.22829e-07
1.40966e-07
1.40783e-07
9.03206e-07
5.40884e-07
5.39867e-07
8.89744e-07
3.14865e-07
1.37767e-07
1.37539e-07
8.89028e-07
5.38208e-07
5.40897e-07
1.40781e-07
3.23426e-07
9.03218e-07
1.40961e-07
5.42149e-07
9.04301e-07
5.38226e-07
1.37538e-07
3.15701e-07
8.89281e-07
1.3776e-07
5.39766e-07
8.89543e-07
2.0181e-07
6.00086e-08
5.96313e-08
5.99395e-08
5.95525e-08
2.02241e-07
6.76862e-08
6.76338e-08
6.65591e-08
6.64739e-08
2.01787e-07
6.00034e-08
5.96257e-08
2.02238e-07
5.99376e-08
5.95509e-08
5.41003e-07
9.03172e-07
3.23414e-07
1.40774e-07
1.40955e-07
9.04285e-07
5.4202e-07
5.3836e-07
8.8928e-07
3.15697e-07
1.37528e-07
1.37752e-07
8.89462e-07
5.39595e-07
5.42143e-07
1.40957e-07
9.04281e-07
3.22779e-07
5.40925e-07
1.40775e-07
9.03171e-07
5.39759e-07
1.37756e-07
8.8958e-07
3.14816e-07
5.38266e-07
1.37532e-07
8.88971e-07
2.02233e-07
5.99364e-08
5.95498e-08
6.00015e-08
5.96234e-08
2.01761e-07
1.0859e-07
1.279e-07
5.27744e-07
6.21968e-07
1.2801e-07
5.27113e-07
1.08494e-07
6.00787e-08
1.45112e-07
3.04366e-07
3.03971e-07
6.01043e-08
6.01036e-08
3.03946e-07
1.45261e-07
3.04375e-07
6.00776e-08
1.08494e-07
6.22734e-07
1.2801e-07
5.27104e-07
1.279e-07
5.27773e-07
1.08587e-07
1.08519e-07
1.2802e-07
5.27264e-07
6.22856e-07
1.0861e-07
1.27912e-07
5.27902e-07
6.01335e-08
1.45355e-07
3.04088e-07
6.01062e-08
3.0453e-07
6.01086e-08
3.04532e-07
1.452e-07
6.01335e-08
3.04096e-07
1.08611e-07
6.21984e-07
1.27917e-07
5.27878e-07
1.08519e-07
1.28022e-07
5.27302e-07
1.08495e-07
1.28009e-07
5.27114e-07
6.22761e-07
1.08589e-07
1.27899e-07
5.27737e-07
6.01057e-08
1.45262e-07
3.03942e-07
3.04388e-07
6.00783e-08
6.00804e-08
3.04391e-07
1.45109e-07
6.01055e-08
3.03938e-07
1.0859e-07
6.21913e-07
1.27902e-07
5.27708e-07
1.28011e-07
5.27152e-07
1.08494e-07
2.01969e-07
5.98256e-08
5.95886e-08
5.989e-08
5.96707e-08
2.01564e-07
5.4438e-07
9.02012e-07
3.22118e-07
1.39251e-07
1.39044e-07
9.00726e-07
5.43302e-07
5.37705e-07
8.91032e-07
3.15046e-07
1.39491e-07
8.90436e-07
1.39241e-07
5.35893e-07
5.42938e-07
1.39001e-07
3.2274e-07
9.00606e-07
1.39206e-07
9.01765e-07
5.43974e-07
5.36167e-07
1.39241e-07
3.15883e-07
8.90842e-07
8.91017e-07
1.39466e-07
5.37844e-07
2.01485e-07
5.98776e-08
5.97147e-08
5.98157e-08
5.961e-08
2.0189e-07
6.64296e-08
6.65189e-08
6.76417e-08
6.75898e-08
2.01604e-07
5.98918e-08
5.96569e-08
2.02029e-07
5.98235e-08
5.95833e-08
5.42607e-07
9.00379e-07
3.22769e-07
1.38911e-07
9.01584e-07
1.39117e-07
5.43357e-07
5.36543e-07
8.90978e-07
3.15886e-07
1.39252e-07
1.39468e-07
8.91055e-07
5.37989e-07
5.43701e-07
1.39162e-07
9.01652e-07
3.22142e-07
9.00453e-07
5.42706e-07
1.38949e-07
5.38005e-07
1.39463e-07
8.91139e-07
3.15024e-07
5.36363e-07
1.3924e-07
8.90619e-07
2.02079e-07
5.98188e-08
5.95897e-08
5.98887e-08
5.96576e-08
2.01616e-07
6.6509e-08
6.64253e-08
1.05619e-07
1.23976e-07
5.95842e-07
5.08015e-07
1.24207e-07
5.05743e-07
1.05421e-07
5.8327e-08
2.91924e-07
1.41084e-07
2.91148e-07
5.84085e-08
1.05421e-07
5.9871e-07
1.2421e-07
5.05686e-07
1.23976e-07
5.08125e-07
1.05617e-07
5.84066e-08
2.91128e-07
1.41338e-07
2.91936e-07
5.83255e-08
1.05492e-07
5.0614e-07
1.24248e-07
5.98704e-07
1.0569e-07
5.08313e-07
1.24015e-07
5.84504e-08
1.41461e-07
2.91381e-07
5.83704e-08
2.92236e-07
5.83743e-08
2.92248e-07
1.41207e-07
5.84544e-08
2.91406e-07
1.05685e-07
5.96244e-07
5.08104e-07
1.2401e-07
1.05484e-07
5.06291e-07
1.24245e-07
1.05419e-07
1.24207e-07
5.98546e-07
5.05799e-07
1.05617e-07
1.23974e-07
5.07978e-07
5.84037e-08
2.91098e-07
1.41334e-07
2.91947e-07
5.83242e-08
1.05613e-07
5.9609e-07
1.23968e-07
5.07771e-07
1.24204e-07
5.05951e-07
1.05411e-07
5.83273e-08
2.91955e-07
1.41079e-07
5.84071e-08
2.91109e-07
1.05649e-07
5.08154e-07
1.23987e-07
5.95883e-07
5.05881e-07
1.24218e-07
1.05453e-07
5.83477e-08
1.41137e-07
2.92059e-07
2.91292e-07
5.84284e-08
5.84252e-08
2.91265e-07
1.4139e-07
2.92063e-07
5.83454e-08
1.05455e-07
5.98779e-07
5.05852e-07
1.24225e-07
5.0829e-07
1.23989e-07
1.0565e-07
1.05609e-07
1.23961e-07
5.958e-07
5.07998e-07
1.2419e-07
5.05725e-07
1.05413e-07
5.83291e-08
2.91944e-07
1.41113e-07
2.91161e-07
5.84109e-08
1.05414e-07
5.98703e-07
1.24197e-07
5.05687e-07
1.23963e-07
5.08126e-07
1.05609e-07
5.84085e-08
2.91134e-07
1.41365e-07
2.91948e-07
5.83276e-08
1.05453e-07
5.0592e-07
1.24218e-07
5.98564e-07
1.05647e-07
5.08106e-07
1.23986e-07
5.8422e-08
1.41381e-07
2.91234e-07
2.9207e-07
5.83441e-08
5.83471e-08
2.92078e-07
1.41125e-07
5.84252e-08
2.91244e-07
1.05645e-07
5.96101e-07
5.07913e-07
1.23983e-07
5.06077e-07
1.24217e-07
1.05447e-07
1.05414e-07
1.2419e-07
5.98491e-07
5.05772e-07
1.05608e-07
1.23961e-07
5.07956e-07
5.84069e-08
2.91119e-07
1.41364e-07
2.91961e-07
5.83275e-08
1.05606e-07
5.96027e-07
1.23958e-07
5.07757e-07
1.2419e-07
5.05929e-07
1.05407e-07
5.83303e-08
2.91966e-07
1.41104e-07
5.84096e-08
2.91121e-07
6.76345e-08
6.76805e-08
6.64733e-08
6.65491e-08
2.02262e-07
5.99333e-08
5.95472e-08
5.99966e-08
5.96166e-08
2.01677e-07
5.41946e-07
9.04343e-07
1.40952e-07
3.22782e-07
5.41042e-07
1.40768e-07
9.03057e-07
5.39491e-07
8.89613e-07
1.37747e-07
3.14799e-07
5.38424e-07
1.37519e-07
8.88755e-07
2.01726e-07
5.99981e-08
5.96192e-08
2.02235e-07
5.99344e-08
5.95479e-08
5.41148e-07
1.40766e-07
3.23425e-07
9.03088e-07
1.40951e-07
5.41791e-07
9.04436e-07
5.38575e-07
1.37507e-07
3.15676e-07
8.89083e-07
1.37745e-07
5.39243e-07
8.89614e-07
1.08595e-07
6.21779e-07
1.28079e-07
5.27754e-07
1.28009e-07
5.27197e-07
1.08548e-07
6.008e-08
3.04401e-07
1.45096e-07
6.01039e-08
3.03948e-07
1.08497e-07
6.22906e-07
1.28013e-07
5.27163e-07
1.27904e-07
1.08591e-07
5.27709e-07
6.01044e-08
3.04016e-07
1.4528e-07
3.04393e-07
6.00913e-08
2.02072e-07
5.98179e-08
5.97195e-08
5.99971e-08
5.96521e-08
2.01416e-07
5.4199e-07
9.01579e-07
1.39057e-07
3.22182e-07
1.38926e-07
5.42361e-07
8.99931e-07
5.3927e-07
8.91241e-07
1.39497e-07
3.15156e-07
8.90749e-07
5.36776e-07
1.39181e-07
2.01644e-07
5.9881e-08
5.96602e-08
5.98269e-08
2.02101e-07
5.95958e-08
5.39993e-07
1.39118e-07
3.2273e-07
9.00248e-07
1.39542e-07
9.01145e-07
5.41193e-07
5.40062e-07
1.39178e-07
3.15939e-07
8.91292e-07
8.91928e-07
1.39172e-07
5.39984e-07
6.64338e-08
6.65164e-08
1.05606e-07
5.96525e-07
1.2395e-07
5.07233e-07
1.24191e-07
5.06327e-07
1.05403e-07
5.83277e-08
2.91955e-07
1.41065e-07
5.83997e-08
2.91089e-07
1.05409e-07
5.98124e-07
1.24196e-07
5.06062e-07
1.23959e-07
1.05608e-07
5.07608e-07
5.83931e-08
2.91079e-07
1.41347e-07
2.91943e-07
5.83272e-08
1.05638e-07
5.96593e-07
5.07397e-07
1.23963e-07
5.06488e-07
1.24206e-07
1.05435e-07
5.83471e-08
2.92082e-07
1.41111e-07
2.91225e-07
5.84177e-08
1.05444e-07
5.9818e-07
5.0621e-07
1.24212e-07
5.07771e-07
1.05641e-07
1.23975e-07
5.84103e-08
2.91211e-07
1.41392e-07
2.92068e-07
5.83454e-08
1.056e-07
5.96523e-07
1.23937e-07
5.07239e-07
1.24181e-07
5.0634e-07
1.05395e-07
5.83302e-08
2.91974e-07
1.41095e-07
5.84026e-08
2.9111e-07
1.05405e-07
5.98102e-07
1.24186e-07
5.06063e-07
1.05604e-07
1.2395e-07
5.07612e-07
5.8395e-08
2.91097e-07
1.41377e-07
2.91963e-07
5.83283e-08
2.023e-07
5.95434e-08
5.99729e-08
5.95979e-08
6.00314e-08
2.01802e-07
5.39818e-07
8.90146e-07
3.14856e-07
1.37621e-07
1.37392e-07
8.89187e-07
5.38926e-07
5.41904e-07
9.04185e-07
3.22909e-07
1.41135e-07
9.03042e-07
1.40948e-07
5.40817e-07
5.38965e-07
1.37432e-07
3.1571e-07
8.89366e-07
1.37607e-07
8.90133e-07
5.38444e-07
5.41031e-07
1.40894e-07
3.23475e-07
9.03079e-07
9.0423e-07
1.4115e-07
5.43008e-07
2.01772e-07
5.96014e-08
6.00353e-08
5.95276e-08
5.99695e-08
2.02286e-07
6.77154e-08
6.77608e-08
6.00084e-08
1.40793e-07
1.08847e-07
5.28955e-07
1.28353e-07
6.23177e-07
5.28397e-07
1.28318e-07
1.0881e-07
6.02297e-08
1.45437e-07
3.05085e-07
3.04656e-07
6.02537e-08
6.02532e-08
3.04722e-07
1.45607e-07
3.05056e-07
6.02418e-08
1.08752e-07
6.2434e-07
5.28386e-07
1.28322e-07
5.28917e-07
1.28211e-07
1.08846e-07
1.0885e-07
5.28955e-07
1.28347e-07
6.23145e-07
5.28392e-07
1.28314e-07
1.08809e-07
6.022e-08
1.45415e-07
3.0507e-07
3.04632e-07
6.0246e-08
6.02454e-08
3.04695e-07
1.45589e-07
3.05037e-07
6.02325e-08
1.0875e-07
6.24306e-07
5.28399e-07
1.28318e-07
5.28909e-07
1.28204e-07
1.08849e-07
5.28422e-07
1.28058e-07
1.08759e-07
3.05304e-07
6.02805e-08
5.28406e-07
1.28051e-07
1.08757e-07
3.05289e-07
6.02707e-08
6.64632e-08
6.65368e-08
6.7692e-08
6.77422e-08
5.99621e-08
1.3947e-07
3.20635e-06
3.17654e-06
2.95871e-06
3.19851e-06
3.13295e-06
2.81795e-06
2.81811e-06
3.21689e-06
3.19297e-06
2.95699e-06
3.18196e-06
3.11219e-06
2.81649e-06
2.81668e-06
1.02802e-06
1.41634e-06
1.43224e-06
2.37096e-06
1.40083e-06
1.41802e-06
1.03107e-06
1.02819e-06
1.42921e-06
1.42469e-06
2.37077e-06
1.41245e-06
1.40477e-06
1.0315e-06
1.03121e-06
2.44808e-06
1.41657e-06
1.41367e-06
1.43016e-06
1.42997e-06
1.0284e-06
1.02776e-06
1.4237e-06
1.4272e-06
2.36854e-06
1.40734e-06
1.40713e-06
1.03103e-06
1.03078e-06
2.4457e-06
1.41124e-06
1.41642e-06
1.42475e-06
1.43276e-06
1.02798e-06
1.02813e-06
1.42712e-06
1.42037e-06
2.36912e-06
1.03126e-06
1.41311e-06
1.40498e-06
1.02753e-06
1.4218e-06
1.42303e-06
2.36757e-06
1.40735e-06
1.03074e-06
1.40821e-06
1.02868e-06
1.41247e-06
1.4361e-06
2.37121e-06
1.42206e-06
1.39712e-06
1.03172e-06
3.20743e-06
3.17514e-06
2.95846e-06
3.19987e-06
3.13192e-06
2.8167e-06
2.8167e-06
3.15664e-06
3.23478e-06
2.95685e-06
3.11335e-06
3.22798e-06
2.81993e-06
2.81996e-06
3.1553e-06
3.23522e-06
2.95762e-06
3.11249e-06
3.22862e-06
2.8195e-06
2.81958e-06
2.94685e-06
3.19263e-06
3.12418e-06
3.20973e-06
3.18343e-06
2.81648e-06
2.81647e-06
2.94637e-06
3.19391e-06
3.12324e-06
3.21079e-06
3.18201e-06
2.81509e-06
2.81508e-06
2.94339e-06
3.10446e-06
3.22189e-06
3.16341e-06
3.23807e-06
2.81824e-06
2.81818e-06
2.94418e-06
3.1037e-06
3.22243e-06
3.16205e-06
3.23865e-06
2.81785e-06
2.81784e-06
1.80844e-06
1.14348e-06
1.97486e-06
1.26631e-06
1.14529e-06
2.01037e-06
1.78292e-06
1.65872e-06
1.22397e-06
6.22486e-07
8.94473e-07
1.21239e-06
8.93901e-07
1.6804e-06
1.69129e-06
8.94096e-07
6.20636e-07
1.21897e-06
1.22997e-06
8.94309e-07
1.67032e-06
1.75887e-06
1.26303e-06
1.14565e-06
1.98024e-06
1.14281e-06
1.94399e-06
1.78454e-06
3.21644e-06
3.19038e-06
2.95595e-06
3.18226e-06
3.11064e-06
2.81539e-06
2.81557e-06
3.17174e-06
3.24382e-06
2.95492e-06
3.09182e-06
3.21029e-06
2.81888e-06
2.81892e-06
3.17027e-06
3.24453e-06
2.95598e-06
3.09158e-06
3.21125e-06
2.81865e-06
2.81872e-06
1.81152e-06
1.26607e-06
1.14348e-06
1.99375e-06
1.14538e-06
2.0143e-06
1.79753e-06
1.65825e-06
1.22035e-06
8.94521e-07
6.21982e-07
1.67338e-06
1.21183e-06
8.93517e-07
1.75602e-06
1.26282e-06
1.14536e-06
1.96573e-06
1.77316e-06
1.1425e-06
1.94075e-06
1.69164e-06
8.9372e-07
6.21056e-07
1.22313e-06
1.23031e-06
8.94623e-07
1.67909e-06
1.85425e-06
2.05237e-06
1.19126e-06
1.32299e-06
2.06483e-06
1.19595e-06
1.8471e-06
1.72089e-06
1.24839e-06
6.39185e-07
9.28004e-07
1.24192e-06
9.25684e-07
1.72928e-06
1.73381e-06
9.25342e-07
6.38949e-07
1.24542e-06
1.2509e-06
9.28207e-07
1.72729e-06
1.83317e-06
1.31962e-06
2.0477e-06
1.19584e-06
2.035e-06
1.19118e-06
1.84116e-06
1.0311e-06
2.45171e-06
1.41336e-06
1.4226e-06
1.42599e-06
1.43435e-06
1.02836e-06
1.03129e-06
2.44711e-06
1.41567e-06
1.41175e-06
1.02833e-06
1.43078e-06
1.43001e-06
1.02824e-06
2.36945e-06
1.42817e-06
1.4227e-06
1.03133e-06
1.4127e-06
1.40464e-06
1.85022e-06
1.18951e-06
2.04368e-06
1.32067e-06
1.19339e-06
2.0574e-06
1.83948e-06
1.72105e-06
1.25342e-06
6.38554e-07
9.26331e-07
9.24594e-07
1.24478e-06
1.73365e-06
1.73737e-06
9.24659e-07
6.37959e-07
1.24733e-06
9.26252e-07
1.25564e-06
1.72544e-06
1.83185e-06
1.31631e-06
1.19347e-06
2.04796e-06
1.18931e-06
2.03384e-06
1.84285e-06
1.84978e-06
1.18912e-06
2.04328e-06
1.32048e-06
1.19304e-06
2.057e-06
1.83901e-06
1.71989e-06
1.25122e-06
6.38023e-07
9.25931e-07
9.24184e-07
1.24257e-06
1.73252e-06
1.73623e-06
9.24246e-07
6.37413e-07
1.24508e-06
9.25845e-07
1.72425e-06
1.25339e-06
1.83139e-06
1.31608e-06
1.19314e-06
2.04759e-06
1.18892e-06
2.03347e-06
1.84244e-06
1.83147e-06
1.19341e-06
2.04605e-06
1.31637e-06
1.84132e-06
1.18924e-06
2.03279e-06
1.73719e-06
1.24821e-06
6.38027e-07
9.24564e-07
1.25544e-06
9.26314e-07
1.72713e-06