/*--------------------------------*- C++ -*----------------------------------*\
| =========                 |                                                 |
| \\      /  F ield         | OpenFOAM: The Open Source CFD Toolbox           |
|  \\    /   O peration     | Version:  2206                                  |
|   \\  /    A nd           | Website:  www.openfoam.com                      |
|    \\/     M anipulation  |                                                 |
\*---------------------------------------------------------------------------*/
FoamFile
{
    version     2.0;
    format      ascii;
    arch        "LSB;label=32;scalar=64";
    class       volScalarField;
    location    "1";
    object      omega;
}
// * * * * * * * * * * * * * * * * * * * * * * * * * * * * * * * * * * * * * //

dimensions      [0 0 -1 0 0 0 0];

internalField   nonuniform List<scalar> 
66621
(
294.982
159.788
295.908
86.4994
150.572
28.8587
400.746
83.3859
36.3417
27.7131
148.139
46.143
200.541
198.899
400.066
400.773
46.0833
199.405
200.715
36.5111
149.547
200.624
400.752
86.51
37.1596
150.697
28.8694
159.783
295.916
86.4878
37.3075
28.8987
150.672
159.688
295.9
86.4709
37.3047
28.8959
150.598
159.679
295.89
46.1419
200.688
198.809
399.37
83.3978
36.3542
27.7234
148.176
156.287
293.897
156.291
293.9
400.702
399.414
210.408
423.087
327.902
173.764
307
159.627
173.612
306.935
327.97
424.068
212.05
295.792
211.924
424.073
400.705
244.462
407.151
406.609
407.123
406.577
244.588
168.816
301.013
200.445
116.37
116.227
300.912
168.952
167.293
301.231
198.837
115.002
114.891
301.147
167.414
400.729
244.512
406.357
407.165
406.557
407.195
244.559
168.227
300.315
115.686
300.367
168.35
167.914
301.807
200.618
116.262
301.747
168.036
116.122
406.79
244.896
301.176
116.242
168.646
327.904
307.002
173.764
159.624
306.936
173.612
327.972
424.049
212.052
295.799
211.926
424.052
173.676
306.999
327.969
211.989
424.053
306.999
173.664
327.973
211.968
424.041
244.529
407.076
406.615
407.127
406.548
244.639
167.992
301.718
200.594
116.364
301.679
116.208
168.12
168.107
300.45
198.756
115.083
114.982
300.355
168.226
399.328
325.073
170.183
303.969
156.239
170.131
303.996
325.058
421.337
208.522
293.834
208.479
421.316
325.064
170.188
303.965
156.245
170.134
303.993
325.048
421.338
208.53
293.835
208.485
421.316
399.373
23.4223
19.6937
20.0283
17.9129
23.5179
19.7039
20.0294
17.9118
23.552
20.0335
19.6697
17.9269
23.5542
20.0273
19.6625
17.9227
55.1777
95.3019
50.03
86.3284
95.1429
49.9296
55.269
115.033
86.8153
64.7322
53.1588
47.9748
92.1442
83.3207
47.9535
92.0836
53.1688
62.7538
112.161
148.076
85.2169
85.1541
112.105
62.7585
106.661
46.1147
73.2918
72.6639
73.1811
72.5751
106.777
106.668
46.0478
72.7835
73.2366
106.783
72.6507
73.1156
114.042
86.2341
64.0488
55.1939
95.3189
50.0389
86.3349
95.1528
49.9384
55.2865
64.7939
115.143
150.57
86.9078
114.988
86.7676
64.864
55.1587
50.0137
95.2908
86.3154
49.9163
95.125
55.2496
64.7414
115.115
150.544
86.7822
114.962
64.8088
86.6485
55.1455
50.0031
95.2685
86.3003
49.9055
95.1043
55.236
64.7146
115.077
150.47
86.7215
86.5886
114.926
64.7815
106.692
46.1118
73.3688
72.6354
72.5449
73.2543
106.803
53.1746
47.983
92.162
83.3351
47.9644
92.1002
53.1853
62.7751
112.185
148.109
85.2511
85.1839
112.124
62.7812
742.375
1627.22
4517.32
17163.7
116782
742.114
1627.17
4517.49
17165.8
116802
726.062
1620.74
4512.65
17166.1
116892
726.564
1621.22
4512.91
17164.4
116862
726.109
1620.86
4513.04
17168.5
116912
726.028
1620.61
4512.33
17164.7
116872
742.11
1627.14
4517.46
17166
116814
742.104
1627.06
4516.98
17163
116781
742.096
1627.1
4517.06
17162.7
116772
726.812
1621.38
4512.97
17165.5
116881
742.678
1627.23
4517.32
17164.6
116795
742.678
1627.25
4517.29
17164.8
116802
726.049
1620.72
4512.64
17166.1
116892
726.851
1621.47
4513.45
17168
116912
733.38
1624.09
4512.91
17153.9
116752
734.849
1623.38
4510.74
17148.4
116727
734.947
1623.49
4510.84
17148.5
116727
733.285
1623.97
4512.8
17153.8
116752
742.232
1627.33
4517.63
17165.9
116802
726.076
1620.73
4512.62
17166.2
116892
740.978
1626.88
4516.86
17164.2
116795
741.072
1626.99
4516.96
17164.3
116795
741.156
1626.91
4516.9
17164.2
116795
741.24
1627.02
4517
17164.3
116795
726.123
1620.86
4513.01
17168.6
116912
721.419
1614.83
4499.75
17122.1
116904
740.948
1626.86
4516.67
17162.5
116777
733.358
1624.07
4512.88
17153.2
116747
734.839
1623.36
4510.68
17148.2
116725
734.936
1623.47
4510.79
17148.3
116725
733.263
1623.95
4512.77
17153.1
116747
742.23
1627.3
4517.61
17166.1
116814
734.85
1623.43
4510.98
17148.8
116749
733.298
1624.05
4513.09
17155.1
116774
734.854
1623.41
4510.99
17149.5
116747
733.292
1624.03
4513.12
17155.3
116769
721.723
1615.47
4501.55
17128.3
116904
741.211
1626.86
4516.52
17161.4
116759
741.308
1627
4516.68
17161.5
116759
726.821
1621.41
4513.01
17165.5
116881
734.101
1624.26
4513.22
17155.3
116769
735.549
1623.55
4511.05
17150.4
116747
735.635
1623.62
4511.1
17150.4
116747
734.024
1624.18
4513.15
17155.3
116769
742.771
1627.36
4517.45
17164.7
116795
734.099
1624.27
4513.19
17155.2
116774
735.545
1623.57
4511.05
17149.7
116749
735.632
1623.64
4511.1
17149.7
116749
734.022
1624.19
4513.11
17155.1
116774
742.772
1627.39
4517.42
17164.9
116802
726.86
1621.5
4513.5
17168.1
116912
721.597
1615.23
4500.99
17126.5
116918
721.665
1615.26
4500.86
17126.2
116921
724.681
1620.46
4510.72
17157.2
116835
724.343
1620.24
4510.79
17158.1
116840
724.274
1620.15
4510.69
17158
116840
721.454
1614.84
4499.5
17118.8
116918
740.866
1626.82
4516.64
17162.5
116777
740.961
1626.94
4516.77
17162.5
116777
721.58
1614.95
4499.79
17121.4
116918
721.647
1615
4499.76
17121.6
116921
721.704
1615.61
4502.17
17132.4
116933
741.129
1626.87
4516.69
17162.6
116776
741.305
1627.01
4516.82
17162.7
116776
721.466
1614.87
4499.5
17119.3
116921
740.876
1626.86
4516.81
17163.8
116795
740.982
1626.99
4516.95
17163.9
116795
721.72
1615.27
4500.74
17126.2
116933
721.472
1614.57
4498.13
17113.1
116921
724.307
1620.2
4510.8
17158.2
116852
724.239
1620.11
4510.7
17158.1
116852
724.217
1620.04
4510.46
17157.2
116840
724.196
1620.03
4510.52
17156.9
116831
721.448
1614.55
4498.13
17112.7
116918
721.711
1615.32
4500.73
17124.8
116904
725.143
1620.76
4510.93
17157.3
116835
725.088
1620.67
4510.82
17157.3
116835
725.144
1620.73
4510.78
17157.2
116840
725.088
1620.64
4510.68
17157.1
116840
400.719
400.863
46.1043
200.079
200.824
159.887
296.049
86.5797
36.5004
150.8
28.218
159.883
296.057
86.5593
36.5065
28.2567
150.774
36.503
150.698
296.032
400.83
46.2358
200.869
198.848
399.428
83.3319
35.8455
27.611
148.2
83.3465
35.8651
27.6263
148.241
156.286
293.991
156.291
293.991
46.2328
200.648
198.976
400.797
399.465
406.918
407.347
244.62
300.958
116.132
168.734
301.959
116.31
168.073
327.441
173.87
307.131
158.922
328.091
172.914
306.507
423.497
212.192
295.316
424.179
211.425
327.443
307.132
173.87
158.917
328.094
306.507
172.912
423.478
212.195
295.321
424.159
211.427
423.47
212.125
295.298
424.149
211.372
400.15
244.225
406.613
406.84
244.84
406.536
405.673
167.332
301.779
116.475
200.07
115.581
168.223
300.859
167.5
300.497
115.078
198.523
168.311
300.19
114.527
399.026
324.932
170.205
304.031
156.297
325.122
169.982
303.947
420.994
208.603
293.514
421.402
208.172
324.928
170.206
304.029
156.302
325.11
169.993
303.944
421.013
208.604
293.514
421.397
208.192
244.025
407.235
406.674
244.699
406.658
406.16
168.164
301.119
116.42
199.976
169.049
115.607
300.497
166.715
301.319
115.038
198.484
167.504
114.397
300.787
400.155
399.026
23.4436
20.0208
19.6961
17.9487
23.5409
20.0342
19.7004
17.9458
23.151
19.6624
19.5787
17.8687
23.1514
19.6651
19.5805
17.869
73.068
73.2498
106.804
54.5673
95.3954
50.1302
85.5943
55.443
94.4171
49.361
64.2143
115.222
86.9793
149.866
86.0099
65.0231
114.252
54.5312
50.1083
95.3659
85.5751
55.3996
49.3431
94.3877
64.1704
115.194
86.8596
149.838
64.9701
114.223
85.8964
64.1453
115.155
86.7983
149.765
64.9433
114.182
85.8387
106.092
45.6708
73.4594
72.7011
72.5823
106.91
71.9333
53.0131
47.949
92.1509
83.3563
53.2623
47.9432
91.9135
62.4058
112.204
85.2715
147.59
62.8876
84.6041
111.633
53.0367
47.9574
92.1658
83.3724
53.2763
47.9538
91.9406
62.4357
112.228
85.3059
147.629
62.9083
111.675
84.634
106.074
45.6693
73.3695
72.7291
106.881
72.4987
71.9652
23.4638
37.1443
23.4621
37.148
36.4091
46.3657
46.3071
46.398
36.4845
36.4858
36.4599
36.4627
46.3033
46.4
37.1574
37.1811
37.1138
37.1374
37.1811
37.104
37.1355
46.2898
36.4601
36.4633
46.2941
37.1279
37.1508
37.1488
46.3575
36.4155
156.535
293.885
293.858
156.399
399.398
399.309
160.046
295.892
295.839
159.764
23.4641
23.4971
23.4959
23.4661
23.464
23.4892
23.4892
86.9224
150.696
28.7068
37.0963
150.942
28.6733
86.6124
156.481
293.866
156.402
293.93
399.394
399.315
160.069
295.877
159.764
295.934
23.452
23.4808
23.4832
86.9419
150.695
28.7109
37.1268
86.6196
150.975
28.6948
400.771
400.7
83.7631
27.8482
148.257
36.3927
27.8324
148.42
83.6825
200.555
198.902
46.4638
200.72
199.035
399.375
399.283
400.823
400.686
198.783
200.699
46.4006
198.883
200.847
399.295
399.36
400.701
400.803
46.2913
198.889
200.856
198.755
200.667
156.548
293.891
293.863
156.418
83.7762
148.226
27.836
36.4503
148.389
27.8243
83.6506
83.7889
148.288
27.836
36.4515
148.451
27.8245
83.6663
156.402
293.867
293.876
156.535
156.412
293.873
293.883
156.545
83.6345
36.4694
148.393
27.8254
148.214
27.8259
83.7725
83.6473
36.4712
148.456
27.8254
148.277
27.8261
83.785
198.915
200.636
46.3908
199.008
200.742
400.786
400.641
399.319
399.39
46.2844
198.999
200.726
198.881
200.563
400.652
400.755
86.924
150.726
28.7231
37.1089
150.989
28.6875
86.6214
160.04
295.902
159.761
295.849
86.9004
28.7395
150.693
37.1308
28.704
86.6017
150.956
159.759
295.849
295.88
160.049
86.6051
37.1392
150.991
28.6892
150.713
28.7104
86.9184
159.753
295.859
160.039
295.89
86.5815
37.1625
28.7054
150.959
28.7271
86.8972
150.678
160.042
295.883
295.828
159.762
86.8918
28.7349
150.628
37.1305
28.6999
86.5867
150.904
160.032
295.888
159.755
295.84
86.5979
37.1277
150.961
28.6787
150.66
28.6982
86.911
159.753
295.839
295.871
160.04
86.5707
37.1615
28.7018
150.906
28.7233
86.8816
150.632
159.745
295.851
160.033
295.885
399.353
399.317
400.791
400.721
198.754
200.667
46.4025
198.903
200.873
156.489
293.871
156.408
293.933
83.7286
148.216
27.811
36.4545
83.6316
148.408
27.8109
83.7424
148.28
27.8116
36.4588
83.6465
148.464
27.8117
198.893
200.573
46.4141
198.996
200.905
400.738
400.704
86.9337
150.713
28.7003
37.1167
86.6002
151.016
28.6903
160.062
295.881
159.747
295.944
86.913
28.7168
150.679
37.1379
86.5809
28.707
150.984
160.066
295.861
159.75
295.921
86.903
28.7136
150.626
37.1442
86.5655
28.6995
150.925
160.057
295.873
159.743
295.93
200.629
198.825
46.4592
200.905
198.895
399.414
399.362
198.872
399.396
83.7742
27.8499
148.304
36.3932
27.8383
148.47
83.691
156.392
293.881
293.916
156.433
156.397
293.879
293.921
156.439
83.8273
148.24
83.8312
148.298
156.742
293.858
156.746
293.859
400.761
400.67
399.429
399.396
198.926
399.41
325.077
303.962
170.385
156.401
303.993
170.251
325.036
421.262
293.853
208.553
208.603
421.363
421.36
208.619
293.88
208.545
421.261
325.035
156.525
303.994
170.251
303.959
170.381
325.074
399.301
399.393
327.983
173.989
306.94
159.764
173.716
307.01
327.901
423.987
295.833
212.01
212.128
424.156
424.148
212.142
295.885
211.993
423.984
327.899
160.042
173.715
307.013
173.988
306.936
327.983
325.069
156.448
303.88
170.333
303.985
170.281
324.986
421.281
208.531
293.894
421.353
208.627
325.045
156.519
303.991
170.253
325.07
303.969
170.381
421.346
208.62
293.836
208.531
421.246
399.322
399.364
327.961
159.762
174.015
306.985
173.712
306.988
327.942
424.013
211.968
295.867
424.127
212.166
327.92
160.045
173.713
306.996
327.964
173.991
306.955
424.118
212.185
295.829
211.964
424.021
400.675
400.756
244.567
407.082
406.567
407.167
406.658
244.735
168.988
116.481
200.713
301.049
116.715
300.977
168.668
167.873
115.215
199.029
301.085
115.398
301.138
167.704
168.763
300.978
200.521
116.738
116.473
300.985
169.076
167.577
301.192
198.902
115.415
115.212
301.194
167.788
244.745
407.142
406.657
407.052
406.555
244.71
399.278
399.363
400.68
400.808
244.578
406.469
407.115
406.593
407.248
244.563
168.588
115.334
198.866
300.417
300.363
115.514
168.36
168.285
116.393
200.829
301.817
301.755
116.629
168.034
168.353
300.367
198.769
115.525
300.415
168.587
115.327
168.018
301.76
200.684
116.634
301.814
168.277
116.383
244.568
406.598
407.253
406.46
407.106
244.573
399.36
399.282
400.801
400.686
244.585
406.586
407.239
244.564
406.464
407.111
168.375
115.528
198.767
300.372
300.409
115.332
168.595
168.046
116.641
200.675
301.768
301.807
116.389
168.297
168.608
300.412
115.319
198.887
168.369
300.367
115.517
168.303
301.81
116.372
200.851
168.033
301.762
116.629
244.557
406.475
407.123
406.584
407.236
244.6
325.065
303.959
170.412
156.418
303.991
170.279
325.024
421.249
293.857
208.57
208.62
421.351
421.349
208.636
293.886
208.557
421.249
325.024
156.547
303.992
170.28
303.957
170.413
325.063
325.04
303.993
170.25
156.53
325.075
303.964
170.384
421.359
293.875
208.634
421.271
208.537
421.268
208.533
293.857
421.357
208.622
325.072
156.406
303.966
170.39
325.039
303.993
170.257
325.029
303.99
170.272
156.541
325.063
303.962
170.405
421.346
293.882
208.645
208.547
421.257
421.255
208.542
293.863
421.344
208.641
325.06
156.416
303.965
170.409
303.991
170.275
325.028
244.616
406.473
407.079
406.599
407.205
244.589
167.825
115.286
198.997
301.081
301.079
115.477
167.643
169.014
116.432
200.747
301.065
116.666
300.978
168.715
167.547
301.128
198.896
115.494
301.156
115.295
167.738
168.781
300.968
200.593
116.677
116.421
301.027
169.072
244.657
406.596
407.176
406.465
407.056
244.691
400.64
400.763
399.391
399.307
244.581
406.589
407.205
244.572
406.464
407.078
167.464
115.489
198.897
301.146
115.294
301.178
167.678
168.886
116.696
200.573
300.978
301.018
116.439
169.151
167.707
301.176
115.286
199.009
115.482
167.49
301.139
169.132
301.017
116.416
200.734
168.845
300.968
116.677
244.54
406.471
407.087
406.583
407.198
244.584
400.751
400.64
327.988
306.941
159.76
173.987
307.011
173.714
327.905
423.971
212.012
295.843
212.13
424.14
327.903
160.039
307.014
173.714
306.937
173.987
327.987
424.135
212.146
295.895
211.995
423.97
327.907
173.71
307.006
160.038
327.977
173.984
306.944
424.141
295.878
212.168
423.999
211.978
423.995
211.976
295.839
424.14
212.15
327.972
159.762
173.992
306.949
327.909
173.713
307.003
327.912
307.007
160.033
173.707
327.982
306.946
173.981
424.126
212.165
295.888
211.978
423.983
327.976
159.756
306.951
173.985
307.005
173.709
327.914
423.979
211.977
295.849
424.125
212.155
327.983
173.99
306.939
159.763
173.721
307.01
327.9
423.979
295.825
212.015
212.127
424.149
424.144
212.142
295.875
211.997
423.978
327.898
160.042
173.722
307.013
173.992
306.936
327.983
327.988
306.94
159.754
173.978
307.011
173.707
327.904
423.966
212.004
295.831
212.124
424.136
327.903
160.033
307.015
173.708
306.936
173.979
327.987
424.13
212.14
295.884
211.987
423.964
327.907
173.712
307.006
160.034
327.977
173.983
306.944
424.135
295.869
212.163
211.98
423.992
423.988
211.979
295.831
424.134
212.152
327.971
159.757
173.989
306.949
173.714
307.003
327.909
327.911
307.007
160.026
173.7
327.981
306.944
173.972
424.119
212.157
295.881
211.971
423.978
327.976
159.75
306.95
173.977
307.005
173.702
327.913
423.973
211.97
295.844
424.118
212.148
399.296
399.343
400.702
400.777
244.507
406.489
407.142
406.578
407.225
244.692
168.592
115.319
300.404
198.882
168.36
300.374
115.508
168.29
116.376
301.801
200.852
168.033
301.773
116.623
244.637
406.579
407.229
244.547
406.474
407.122
168.352
300.392
198.753
115.533
300.4
168.607
115.326
168.017
301.808
200.666
116.648
301.791
168.301
116.383
325.057
156.458
303.877
170.354
303.982
170.308
324.975
421.267
208.536
293.898
421.339
208.64
325.034
156.54
303.987
170.269
303.968
325.059
170.41
421.335
208.631
293.842
208.543
421.234
244.686
406.296
406.762
406.045
407.247
244.909
167.709
115.285
301.17
198.971
301.127
167.488
115.479
169.072
116.43
301.016
200.686
116.653
168.942
301.032
244.618
406.56
407.198
406.381
244.521
407.118
167.463
300.763
198.947
115.465
301.014
115.356
167.745
168.826
301.184
200.515
116.745
116.381
300.976
169.163
400.651
400.738
327.965
159.754
306.986
174.011
306.989
173.708
327.946
423.996
211.964
295.876
424.11
212.165
327.924
160.035
306.996
173.702
306.957
327.969
173.985
424.104
212.185
295.838
211.963
424.006
327.96
159.759
174.017
306.984
173.717
306.987
327.94
424.004
211.966
295.856
212.164
424.118
327.919
160.039
173.71
306.995
173.991
327.964
306.956
424.112
212.183
295.82
211.965
424.013
327.964
159.751
306.985
174.003
306.988
173.7
327.945
423.992
211.957
295.868
424.104
212.158
327.923
160.032
306.996
173.694
327.968
306.956
173.977
424.1
212.177
295.829
211.956
424.002
244.494
407.025
406.576
407.175
406.641
244.641
168.282
116.457
200.81
301.764
301.736
116.695
168.02
168.56
115.261
198.911
300.455
115.441
300.422
168.332
168.051
301.759
200.631
116.756
301.751
116.455
168.434
168.339
300.464
198.831
115.415
115.248
300.451
168.449
244.625
407.2
406.64
407.086
406.536
244.527
399.352
399.398
406.677
300.416
325.089
170.31
303.853
156.469
170.321
304.001
324.97
421.31
293.897
208.555
208.636
421.384
421.379
208.615
293.862
208.565
421.268
325.065
156.555
170.285
304.009
170.414
303.987
325.091
325.078
170.318
303.85
156.474
170.326
303.999
324.96
421.308
293.9
208.56
208.644
421.38
421.374
208.625
293.861
208.571
421.265
325.055
156.563
170.289
304.006
170.422
303.985
325.079
170.454
304.244
325.246
208.606
421.452
170.461
304.244
325.239
208.611
421.451
400.661
400.731
399.377
399.429
406.639
301.197
19.6694
19.9303
23.4467
19.6676
19.9303
17.9043
17.9036
19.6683
19.9272
23.4568
19.6676
19.9278
17.904
17.9037
107.183
73.4981
72.8895
46.4592
73.7334
73.0772
106.935
107.176
72.9647
73.421
46.3995
73.1542
73.652
106.935
106.948
46.3031
73.1628
73.6497
72.965
73.4184
107.178
107.157
73.0044
73.3621
46.3911
73.5913
73.1923
106.905
106.968
46.303
73.2358
73.6109
73.0347
73.3781
107.196
107.183
72.9496
73.4034
46.3907
106.938
73.1517
73.6511
107.198
73.0226
73.3677
46.3984
73.6194
106.961
73.2258
107.161
73.544
72.8366
46.4534
73.0261
73.7812
106.92
19.6698
19.9272
23.4468
19.6681
19.9268
17.9044
17.9037
19.9307
19.674
23.487
19.9304
19.6709
17.9056
17.9048
19.9302
19.6734
23.4857
19.93
19.6719
17.9055
17.9047
23.4575
19.6706
19.9321
19.6686
19.9275
17.9043
17.9052
23.4567
19.6701
19.9295
19.6687
19.9247
17.9043
17.9053
23.489
19.9317
19.674
19.9277
19.6718
17.9055
17.9064
23.4894
19.9314
19.6739
19.9273
19.672
17.9054
17.9063
55.4693
95.7211
50.383
86.6196
95.431
50.1791
55.6421
65.2579
87.0407
150.957
115.227
87.3133
115.498
65.0535
65.0385
115.496
150.683
87.3011
87.0341
115.221
65.2165
55.6671
86.9167
95.429
50.1753
95.7222
50.3913
55.441
19.6637
19.9204
23.4508
19.6653
19.9272
17.9041
17.9037
19.9219
19.6681
23.4815
19.9284
19.6698
17.9054
17.9048
19.9218
19.6679
23.4856
19.9284
19.672
17.9053
17.9047
55.478
86.6287
95.7428
50.3965
95.4397
50.1901
55.6554
65.2668
87.0465
115.231
150.958
65.0565
87.3275
115.505
55.6744
86.9232
95.4333
50.1791
55.4425
95.7282
50.4002
65.0503
115.521
150.682
87.3388
87.0566
115.23
65.2363
53.4931
48.3216
92.5308
83.6779
48.2638
92.4295
53.5352
63.1691
85.4905
148.423
112.389
85.653
112.536
63.0805
63.0794
112.539
148.257
85.6466
85.4815
112.398
63.1559
53.539
83.7998
48.2611
92.4235
48.3247
92.5528
53.4689
106.927
46.3655
73.7351
73.0887
73.4987
72.8864
107.184
106.913
46.3043
73.1629
73.6492
107.153
72.9613
73.4156
107.186
46.3983
72.9501
73.3997
106.925
73.1586
73.6518
53.4922
92.5178
48.3002
83.6498
92.3898
48.2425
53.4422
63.155
85.3586
148.387
112.365
112.499
85.5238
63.0678
63.0456
112.502
148.222
85.5309
112.359
85.3585
63.0772
53.5292
83.771
92.3942
48.2441
92.5199
48.3058
53.4559
53.5058
92.5458
48.3048
83.6647
92.4172
48.2489
53.4562
63.1775
85.3936
148.448
112.402
112.537
85.5623
63.0892
63.0711
112.54
148.285
85.5761
112.397
63.1031
85.4
53.5428
83.7872
92.4198
48.2532
92.5466
48.3141
53.4691
53.509
92.3712
48.2254
83.7554
53.437
92.4991
48.2868
63.0888
85.5263
148.224
112.504
85.356
112.358
63.0595
63.1322
112.345
85.344
148.388
85.5236
63.029
112.495
53.434
83.6432
92.5158
48.2961
92.3813
48.2337
53.4572
53.5217
92.3986
48.2306
83.7686
53.4496
92.5257
48.2936
63.111
85.5783
148.288
112.541
112.395
85.4062
63.0824
63.155
112.383
85.3909
148.451
63.0522
112.533
85.5726
53.4462
83.6562
92.5395
48.3021
92.406
48.2406
53.4693
106.911
46.2939
73.214
73.5975
73.3575
73.0037
107.168
107.21
46.395
73.0082
73.3531
73.2239
106.949
73.6098
55.4832
95.7255
50.3892
86.621
95.4321
50.1886
55.6533
65.2806
87.079
150.989
115.237
115.506
87.3509
65.0798
65.0594
115.51
150.723
87.3434
115.23
87.0741
65.2375
55.6859
86.9203
95.4369
50.1925
95.7261
50.4055
55.4643
55.4445
50.3636
86.5992
95.6945
50.1647
95.4012
55.6186
65.2292
86.9545
115.206
150.956
115.476
65.0232
87.2251
55.6515
86.9006
50.17
95.4057
50.3829
95.6964
55.4248
65.0036
115.479
150.689
87.2158
115.199
65.1861
86.9469
55.696
95.4175
50.1687
86.9078
55.4686
95.7136
50.3921
65.0928
87.3411
150.723
115.512
87.0766
115.232
65.2564
65.2835
115.219
87.0578
150.989
87.3514
65.066
115.507
55.4652
86.6152
95.7233
50.3854
95.4298
50.1851
55.6401
55.6585
50.1437
86.8854
95.3844
55.4283
50.368
95.6806
65.0341
87.2132
115.48
150.689
115.199
65.2032
86.9469
55.4233
86.5936
50.3618
95.6911
50.1621
95.3958
55.6029
65.2301
115.187
86.9286
150.955
65.0087
115.474
87.2206
55.4337
50.3552
86.5889
95.6812
50.1543
95.3873
55.609
65.2054
86.8998
115.176
150.89
115.447
87.1685
64.9991
55.6387
86.8884
50.1566
95.3896
50.37
95.6809
55.4119
64.9818
115.454
150.627
87.1845
115.172
65.1668
86.9028
55.6783
95.4091
50.1628
86.8944
55.4555
95.6989
50.3834
65.0646
87.3048
150.679
115.504
65.239
87.0293
115.215
65.2565
115.202
87.011
150.936
65.0417
87.3029
115.486
55.4447
86.6003
95.7177
50.3774
55.6251
95.417
50.1743
55.6492
50.1363
86.872
95.3716
55.4198
50.3596
95.6669
65.0143
87.1726
115.451
150.639
115.172
65.1819
86.9147
55.4132
86.5782
50.3496
95.6755
50.1521
95.3814
55.5918
65.2118
115.161
86.9061
150.91
64.9909
115.449
87.1986
106.922
46.3024
73.1716
73.6593
107.174
72.9672
73.4235
53.469
83.6615
92.4949
48.3008
92.3884
48.2419
53.5131
63.1177
85.3422
112.347
148.385
112.489
63.0206
85.5181
53.5259
83.7599
92.3731
48.2265
92.5099
53.4545
48.2973
63.0246
112.502
148.222
85.5394
112.351
85.3621
63.1079
53.4818
83.6777
92.5221
48.3072
92.4147
48.2497
53.526
63.1411
85.3955
112.383
148.448
63.0433
112.525
85.5753
53.5389
83.7771
92.3968
48.2343
53.4668
92.5351
48.3064
63.0483
112.539
148.286
85.5815
112.387
63.1308
85.4159
106.94
46.314
73.2568
73.6262
73.3927
73.0555
107.187
55.4902
86.618
95.7408
50.395
95.4328
50.1892
55.6648
65.2841
87.0585
115.218
150.986
115.499
65.0761
87.3494
55.6916
86.9097
95.4155
50.1696
95.7183
55.4616
50.3984
65.0661
115.525
150.721
87.3542
115.228
87.0808
65.2504
55.4509
86.5988
50.3719
95.7105
50.1674
95.4021
55.631
65.2319
86.93
115.187
150.952
65.0188
115.468
87.2207
55.6563
86.8919
50.1474
95.3837
55.421
50.3774
95.6884
65.0094
115.494
150.686
87.2303
115.197
65.1993
86.9529
55.4395
86.5873
50.3635
95.6965
50.1572
95.388
55.62
65.2094
86.8851
115.159
150.898
87.1736
64.9969
115.439
55.644
86.8779
50.1341
95.3691
50.3648
55.4092
95.6733
64.9877
115.466
150.631
87.1782
86.9045
115.169
65.1775
106.902
46.3612
73.7748
73.0418
72.8379
73.545
107.144
53.5081
48.3271
92.55
83.6913
48.2704
92.448
53.55
63.1945
85.5233
148.467
112.427
85.6882
112.561
63.1071
63.1045
112.566
148.299
85.6995
85.5247
112.419
63.1812
53.5539
83.8125
48.269
92.4454
48.333
92.573
53.4836
92.5476
112.347
92.5667
112.391
23.4837
37.0066
36.1858
46.0787
23.4723
37.0108
36.259
46.1301
23.4814
37.0985
36.382
46.2293
23.4872
37.1679
36.4188
46.3655
23.4825
37.1788
36.427
46.3753
23.4756
37.1767
36.4266
46.3858
23.4716
37.1699
36.4231
46.3808
23.4696
37.1666
36.4203
46.376
23.4685
37.1624
36.4187
46.3733
23.4676
37.1633
36.418
46.371
23.467
37.1651
36.4185
46.3699
23.4663
37.1627
36.4197
46.3688
23.4655
37.1627
36.4214
46.3685
23.4648
37.1552
36.4197
46.3675
23.4637
37.1506
36.4152
46.3653
36.4119
46.3651
46.1245
36.9325
37.1305
46.2145
36.9108
36.9111
37.002
36.9085
46.1651
36.1672
36.1815
46.1661
46.0018
46.1475
36.3396
36.4874
36.3307
36.4376
46.0901
46.1971
36.9254
36.9409
36.9827
37.0098
36.9395
37.0017
37.0051
46.0591
46.2226
36.1998
36.2387
36.2528
46.2232
46.0398
46.2414
36.3335
36.4169
36.4201
36.4124
46.085
46.2331
36.9941
37.0206
37.0787
37.114
37.0156
37.0544
37.1078
46.1138
46.305
36.2611
36.3479
36.3525
46.3062
46.1432
46.3791
36.441
36.4084
36.4913
36.4874
46.1299
46.3704
37.1041
37.1352
37.1595
37.19
37.1309
37.1567
37.1875
46.2075
46.4411
36.3667
36.4103
36.4152
46.4539
46.2734
46.4085
36.482
36.4798
36.5039
36.5057
46.267
46.4146
37.1502
37.1786
37.173
37.1989
37.1761
37.1697
37.1974
46.335
46.4571
36.4051
36.4222
36.4297
46.4715
46.2957
46.4198
36.49
36.4928
36.4986
36.5007
46.3029
46.4245
37.1616
37.1856
37.1744
37.2007
37.185
37.1759
37.2011
46.3433
46.4714
36.4166
36.4251
36.4317
46.4883
46.3037
46.4051
36.4844
36.4828
36.4959
36.4989
46.3063
46.4108
37.1575
37.1834
37.1665
37.1922
37.1842
37.1642
37.1929
46.3551
46.457
36.416
36.4209
36.4269
46.4793
46.2921
46.4043
36.4818
36.4847
36.4927
36.4932
46.2996
46.4086
37.1529
37.1767
37.1616
37.1872
37.1774
37.1652
37.1876
46.3435
46.4554
36.4115
36.4168
36.4225
46.4742
46.2893
46.4033
36.4794
36.4795
36.4902
36.4934
46.2902
46.4086
37.1487
37.1721
37.1584
37.1833
37.1726
37.1563
37.1836
46.3407
46.4534
36.4077
36.4152
36.4195
46.4714
46.2887
46.4006
36.4769
36.4799
36.4875
36.4883
46.2959
46.4045
37.146
37.169
37.1551
37.1805
37.1694
37.1591
37.1805
46.339
46.4509
36.4052
36.4146
36.4168
46.4696
46.2863
46.3989
36.4749
36.4754
36.4854
36.4882
46.2869
46.4058
37.1434
37.1669
37.153
37.1782
37.1669
37.1581
37.178
46.3368
46.4502
36.4028
36.4153
36.4144
46.4681
46.2849
46.3974
36.4733
36.4759
36.4826
36.4826
46.2937
46.4017
37.143
37.1657
37.15
37.1755
37.1657
37.1541
37.1745
46.3364
46.4495
36.4012
36.4152
36.4129
46.4671
46.2836
46.3964
36.4699
36.4693
36.4792
36.482
46.2842
46.4039
37.1381
37.1632
37.1456
37.1713
37.1609
37.1501
37.1706
46.336
46.4481
36.4008
36.4141
36.4114
46.4665
46.2828
46.3947
36.4663
36.4683
36.4744
36.4749
46.2923
46.3999
37.1323
37.1579
37.1402
37.1663
37.1582
37.1407
37.1649
46.335
46.4475
36.3983
36.4098
36.4075
46.4652
46.2817
46.3915
36.4603
36.4605
36.4689
36.4706
46.283
46.3982
37.1392
37.1667
37.1357
37.161
37.1638
37.1288
37.1599
46.3349
46.4445
36.3936
36.4022
36.4019
46.4624
46.2792
46.4005
36.4635
36.4623
36.4655
36.4667
46.2879
46.4026
37.1373
37.1618
37.129
37.1541
37.1606
37.1154
37.153
46.3326
46.4429
36.3906
36.3947
36.3954
46.4608
46.333
46.4502
36.3935
36.3858
36.3934
46.459
23.5127
23.5832
23.4045
23.4051
156.09
295.282
158.675
293.788
400.297
399.185
159.785
295.779
159.502
295.735
23.5336
23.4182
23.4212
23.4773
23.5062
23.4575
23.4607
86.5452
150.403
28.6686
36.993
86.1933
150.672
28.6455
400.709
400.598
83.4174
27.7124
147.973
36.1952
83.2666
27.7174
148.14
200.398
198.804
46.1967
200.491
198.862
156.231
293.835
156.02
293.8
399.393
399.292
159.806
295.83
159.511
295.769
23.4841
23.4626
23.4654
23.4836
23.4801
23.4991
23.5007
86.6048
150.437
28.6456
37.0162
86.2806
150.71
28.643
400.786
400.627
83.4931
27.7538
148.002
36.2713
83.3397
27.7616
148.196
200.401
198.809
46.2472
200.518
198.894
156.442
293.86
156.245
293.825
399.433
399.296
159.96
295.868
159.621
295.804
23.467
23.4974
23.4988
23.4912
23.489
23.5098
23.5125
86.7838
150.533
28.6981
37.1166
86.3838
150.86
28.7071
400.816
400.654
83.6523
27.8297
148.127
36.379
83.4454
27.8275
148.321
200.474
198.874
46.3944
200.588
198.96
156.519
293.874
156.374
293.833
399.43
399.318
160
295.887
159.72
295.815
23.4761
23.5018
23.5047
23.4875
23.4865
23.5047
23.5086
86.8957
150.643
28.7391
37.1553
86.5946
150.897
28.7285
400.828
400.659
83.7529
27.8547
148.196
36.4055
83.6043
27.8468
148.368
200.515
198.917
46.4737
200.614
198.987
156.533
293.876
156.394
293.833
399.438
399.292
160.018
295.892
159.737
295.818
23.4718
23.4946
23.5
23.4806
23.4825
23.5003
23.5051
86.9285
150.662
28.7367
37.1654
86.5867
150.923
28.728
400.827
400.656
83.784
27.8585
148.223
36.4123
83.6529
27.8489
148.391
200.529
198.929
46.4855
200.624
198.995
156.535
293.875
156.405
293.833
399.418
399.304
160.008
295.892
159.729
295.818
23.4675
23.4926
23.4968
23.4762
23.4789
23.4982
23.5029
86.901
150.67
28.7334
37.1542
86.6195
150.913
28.719
400.822
400.651
83.7839
27.8611
148.232
36.4102
83.6725
27.8509
148.392
200.53
198.932
46.4724
200.624
198.998
156.537
293.876
156.399
293.834
399.424
399.278
160.015
295.893
159.737
295.819
23.4647
23.4911
23.4952
23.4739
23.4774
23.4973
23.5014
86.9192
150.671
28.7279
37.1542
86.6087
150.92
28.7172
400.819
400.649
83.7833
27.8584
148.235
36.4068
83.6682
27.8477
148.396
200.533
198.934
46.4702
200.627
199.001
156.54
293.877
156.404
293.836
399.406
399.293
160.02
295.894
159.74
295.82
23.4633
23.4905
23.4937
23.4727
23.4761
23.4965
23.5001
86.9145
150.675
28.7265
37.1494
86.6011
150.922
28.7153
400.817
400.647
83.7792
27.8539
148.239
36.404
83.6647
27.8432
148.4
200.536
198.938
46.4663
200.63
199.005
156.54
293.879
156.406
293.837
399.415
399.271
160.024
295.896
159.744
295.822
23.4622
23.4896
23.493
23.4718
23.4754
23.4959
23.4989
86.9132
150.676
28.7248
37.146
86.6033
150.927
28.7135
400.814
400.644
83.785
27.8543
148.242
36.402
83.6661
27.8439
148.403
200.539
198.94
46.4637
200.633
199.006
156.537
293.881
156.403
293.839
399.401
399.29
160.028
295.897
159.749
295.823
23.4616
23.4886
23.4919
23.471
23.4751
23.4957
23.4981
86.9131
150.683
28.7242
37.1454
86.6042
150.93
28.7118
400.812
400.643
83.7865
27.8544
148.246
36.4008
83.668
27.8432
148.407
200.541
198.942
46.4605
200.636
199.009
156.535
293.883
156.401
293.841
399.413
399.27
160.031
295.898
159.752
295.824
23.4616
23.4889
23.4907
23.4702
23.4741
23.4952
23.4969
86.9141
150.684
28.7155
37.1457
86.605
150.934
28.6964
400.811
400.641
83.7862