/*--------------------------------*- C++ -*----------------------------------*\
| =========                 |                                                 |
| \\      /  F ield         | OpenFOAM: The Open Source CFD Toolbox           |
|  \\    /   O peration     | Version:  2206                                  |
|   \\  /    A nd           | Website:  www.openfoam.com                      |
|    \\/     M anipulation  |                                                 |
\*---------------------------------------------------------------------------*/
FoamFile
{
    version     2.0;
    format      ascii;
    arch        "LSB;label=32;scalar=64";
    class       surfaceScalarField;
    location    "1";
    object      phi;
}
// * * * * * * * * * * * * * * * * * * * * * * * * * * * * * * * * * * * * * //

dimensions      [0 3 -1 0 0 0 0];

oriented        oriented;

internalField   nonuniform List<scalar> 
196294
(
-1.07476e-11
8.19879e-11
9.78211e-12
1.87024e-12
1.32601e-08
5.32974e-11
7.91164e-14
-4.4223e-12
-1.65772e-11
-1.95292e-08
1.94968e-08
-2.30168e-12
1.44004e-11
3.16697e-12
-1.31784e-08
1.02874e-12
1.31621e-08
-5.32674e-11
-9.52684e-14
-1.05083e-11
1.04089e-10
-2.36602e-08
2.362e-08
-1.54556e-11
-1.46653e-11
1.7123e-11
3.32479e-11
2.0492e-08
7.33067e-12
-5.94002e-12
1.14945e-10
-1.49686e-10
1.49661e-10
-1.15377e-10
1.1884e-07
2.14369e-12
5.56966e-12
-6.59761e-09
1.32938e-12
6.58856e-09
-1.7708e-13
-2.11855e-11
3.24257e-11
-4.69157e-12
-2.43074e-08
2.4301e-08
1.18303e-12
2.74595e-11
-3.17102e-12
1.62726e-11
-4.26733e-11
4.04952e-11
-1.5268e-11
-2.89006e-11
-2.58918e-11
2.99732e-11
1.14706e-07
-3.90667e-11
1.32378e-12
1.50282e-11
-1.18348e-11
1.17376e-11
-1.57901e-11
1.1866e-07
-7.48564e-12
-7.41233e-12
9.72772e-12
-2.08893e-08
1.64315e-11
2.0878e-08
-1.33851e-11
-2.79053e-11
-2.70818e-08
-6.21298e-11
-4.4339e-11
2.72295e-08
1.18819e-11
-5.45645e-12
-4.40939e-12
-2.11156e-08
2.41491e-11
2.10895e-08
7.5704e-12
-3.4145e-12
-3.08145e-12
-2.12467e-08
1.65829e-11
2.1229e-08
2.91821e-11
2.51868e-12
6.63838e-09
5.03143e-12
-6.59901e-09
1.41814e-12
6.59025e-09
-2.46754e-11
-1.88301e-11
-2.7071e-08
-5.27363e-11
-5.33192e-11
2.72206e-08
5.68021e-11
-2.02985e-11
1.18749e-10
2.12284e-08
1.19433e-11
-4.91189e-12
-2.09512e-08
2.40333e-11
2.09252e-08
1.04407e-09
-2.08176e-11
-1.12443e-10
2.53566e-11
-3.56925e-10
-4.58762e-10
1.15586e-07
7.04457e-11
2.05527e-10
2.06215e-08
-5.45393e-12
-4.3505e-11
-2.11272e-12
2.10298e-08
2.30074e-12
1.28092e-12
6.59155e-09
-2.61609e-14
-1.05312e-11
1.04107e-10
-2.3659e-08
2.36187e-08
1.62331e-10
-9.10236e-11
-2.26246e-11
-4.30429e-11
4.40058e-11
7.53363e-11
-7.14444e-11
7.09175e-11
-7.37588e-11
1.13407e-07
1.68395e-11
-2.05049e-08
3.52832e-11
2.04792e-08
3.51948e-11
-9.40118e-11
1.14952e-10
-1.50017e-10
1.49616e-10
-1.13884e-10
1.19079e-07
5.33055e-11
-1.65743e-11
-4.25004e-12
-1.95257e-08
1.94933e-08
1.47021e-11
2.88731e-12
-1.31737e-08
1.02628e-12
1.31572e-08
1.04144e-10
-1.02757e-11
-2.36557e-08
2.36151e-08
-1.87678e-12
1.31486e-11
-2.14271e-12
5.46427e-11
-6.78149e-11
-5.44733e-11
6.99312e-11
-1.28815e-11
-4.33966e-11
4.02908e-11
1.14542e-07
-9.63762e-12
9.69703e-11
-1.4936e-10
1.49118e-10
-9.67357e-11
1.20121e-07
-1.17481e-11
1.66605e-11
-2.04908e-08
3.53408e-11
2.04653e-08
6.8113e-14
-4.44015e-12
-1.65705e-11
1.94979e-08
3.13517e-12
1.01458e-12
1.31637e-08
-5.32634e-11
1.04098e-10
-1.02967e-11
-2.36571e-08
2.36164e-08
-5.40674e-13
-2.30893e-12
-1.31384e-11
-3.93939e-11
4.02435e-11
5.46753e-11
-7.0508e-11
7.0218e-11
-5.44583e-11
1.1453e-07
-7.71772e-12
9.70663e-11
-1.49298e-10
1.49234e-10
-9.66736e-11
1.20092e-07
-1.46947e-11
1.6565e-11
-2.05042e-08
3.53746e-11
2.04788e-08
-1.65629e-11
-4.24131e-12
1.94943e-08
-2.09627e-12
2.86664e-12
1.02901e-12
1.31601e-08
-2.70775e-08
-5.58029e-11
-5.06282e-11
2.72246e-08
-1.18069e-11
-2.09962e-08
1.95382e-11
2.09823e-08
-3.2011e-12
4.34282e-12
-2.13638e-08
2.20331e-11
2.13332e-08
1.08804e-12
-6.73638e-09
1.39996e-12
6.73069e-09
-2.1432e-11
3.24301e-11
-4.68674e-12
-2.43103e-08
2.43038e-08
1.33193e-12
-2.81002e-12
-2.91944e-11
-3.0447e-11
3.01176e-11
1.59807e-11
-3.98585e-11
4.00233e-11
-1.49166e-11
1.14746e-07
2.5508e-13
1.50084e-11
-1.18702e-11
1.20626e-11
-1.55019e-11
1.18595e-07
-7.53067e-12
9.84439e-12
-2.08812e-08
1.59761e-11
2.08705e-08
-2.48021e-14
-2.02543e-12
-6.70377e-12
-2.01616e-08
2.01492e-08
1.64004e-12
-1.34895e-08
1.04663e-12
1.34805e-08
-2.05054e-12
-6.51453e-12
-2.01651e-08
2.01522e-08
-1.10868e-12
1.65159e-12
-1.3491e-08
1.06958e-12
1.34818e-08
1.41633e-12
6.59053e-09
-6.73619e-09
1.39407e-12
6.73027e-09
-2.62183e-11
1.45562e-10
2.02416e-08
3.08552e-12
5.46009e-09
-1.26845e-11
-7.58899e-13
9.82868e-09
1.3885e-12
-8.614e-13
-1.85315e-08
-1.35385e-11
-6.55716e-12
4.44379e-11
1.85027e-08
-1.19532e-08
-9.8629e-13
6.93976e-14
6.22607e-13
1.1937e-08
4.21125e-12
1.5647e-11
8.13562e-14
-5.24093e-11
6.18074e-12
-4.34341e-11
6.67382e-14
-8.43457e-13
-1.67375e-12
6.46461e-13
9.81519e-09
-4.01588e-12
5.42293e-09
-1.89256e-12
-2.01041e-08
-4.31359e-12
2.85604e-11
2.00765e-08
-2.71762e-12
1.86268e-12
-1.40275e-11
-1.14915e-12
-2.80785e-11
1.55785e-12
5.41538e-09
-2.03696e-12
-4.79558e-12
-1.80577e-12
3.05098e-12
3.14183e-12
1.50076e-08
-1.36786e-11
-1.3151e-11
-5.46321e-09
3.37377e-12
2.65377e-12
1.29953e-12
5.45588e-09
-5.49856e-09
3.0473e-12
2.35352e-12
1.30568e-12
5.49185e-09
-2.71283e-12
-1.42719e-12
-2.01521e-12
-1.43799e-12
1.36356e-11
1.36055e-11
1.49868e-08
-2.14893e-11
1.21167e-11
1.92816e-08
-2.7451e-11
-1.27051e-08
1.25511e-11
7.00761e-13
1.26901e-08
-2.36068e-11
4.47158e-12
-1.21133e-11
-2.28915e-08
-2.13375e-11
4.86457e-11
3.1836e-11
2.28565e-08
-4.88e-11
-3.25829e-11
-7.51841e-13
2.76571e-11
1.92588e-08
-1.75962e-11
9.90636e-12
1.8468e-08
-2.21309e-11
-1.26182e-08
9.91171e-12
7.159e-13
1.26069e-08
-1.64054e-11
2.43067e-12
3.44996e-12
-7.16061e-12
-2.23403e-08
-1.81035e-11
3.40548e-11
2.36109e-11
2.23173e-08
-3.4416e-11
-2.34847e-11
-7.52345e-13
2.17642e-11
1.84517e-08
-4.99686e-12
-1.64312e-12
3.20809e-12
3.65709e-12
1.50081e-08
-1.27442e-11
-1.39961e-11
-5.49509e-09
3.67587e-12
1.72421e-12
1.2926e-12
5.48839e-09
-5.46643e-09
3.5498e-12
2.97452e-12
1.00783e-12
5.45889e-09
-2.49691e-12
-1.04886e-12
-2.64177e-12
-1.09182e-12
1.30625e-11
1.42779e-11
1.4988e-08
9.89571e-12
1.93714e-08
-2.5286e-11
-1.28311e-08
4.28091e-11
9.6789e-13
1.27687e-08
-4.68702e-11
1.51309e-10
1.39801e-10
2.30092e-08
-4.68401e-13
2.56436e-11
1.93547e-08
1.24115e-11
1.83826e-08
-2.16994e-11
-2.39655e-11
-1.24949e-08
1.24716e-11
6.87491e-13
1.24798e-08
4.37904e-12
-2.37733e-11
-1.17027e-11
-2.15943e-11
-2.21304e-08
4.527e-11
3.23357e-11
2.20984e-08
-6.89689e-13
2.44841e-11
1.83633e-08
-4.55055e-11
-3.25154e-11
-4.77597e-11
5.55077e-11
6.80242e-13
5.45774e-09
2.35037e-10
1.49981e-08
-5.80147e-11
5.83189e-13
1.26635e-08
-1.49877e-10
5.40315e-11
2.24423e-08
1.90887e-08
-8.90454e-13
-1.27283e-11
9.82287e-09
1.53154e-12
-8.332e-13
-1.195e-08
-8.50532e-13
6.28771e-13
1.19337e-08
-1.85226e-08
-1.35079e-11
-6.34531e-12
4.43583e-11
1.84938e-08
1.56675e-11
4.35493e-12
-5.24245e-11
-8.34879e-13
6.42411e-12
-4.35386e-11
-1.52772e-12
6.72584e-13
9.80937e-09
-3.87154e-12
5.41938e-09
-1.88333e-12
-2.00929e-08
-4.4299e-12
2.86138e-11
2.00653e-08
-2.95664e-12
-1.4105e-11
-1.16552e-12
-2.7948e-11
1.58668e-12
5.41184e-09
-1.33314e-11
-6.49478e-12
4.41599e-11
1.85037e-08
-9.99201e-13
7.87771e-14
6.25266e-13
1.19371e-08
-1.63623e-12
6.57297e-13
9.81542e-09
-4.13483e-12
2.83458e-11
2.00778e-08
1.56794e-12
5.41567e-09
-8.40295e-13
6.31935e-13
1.19343e-08
-1.34914e-11
-6.3132e-12
4.4305e-11
1.84952e-08
-1.5135e-12
6.78613e-13
9.81003e-09
-4.43982e-12
2.86207e-11
2.00682e-08
1.58324e-12
5.41237e-09
4.87459e-12
1.39956e-12
1.50116e-08
-1.17851e-12
-2.67347e-11
-5.46525e-09
-1.62061e-11
2.1909e-11
1.20203e-12
5.45834e-09
-5.49512e-09
2.20816e-11
-1.77438e-11
1.54735e-12
5.48923e-09
-9.9277e-13
-1.31726e-12
-3.75004e-12
-1.45514e-12
1.09908e-10
-8.93073e-11
1.49969e-08
1.36018e-11
-1.91686e-11
1.84084e-08
-4.08381e-11
-1.24848e-08
-1.11051e-11
4.04081e-13
1.25056e-08
4.55762e-12
-2.33318e-11
-1.21446e-11
-2.24834e-08
-6.16986e-11
3.47978e-11
1.64258e-11
2.25134e-08
-7.69308e-13
-3.24601e-11
-4.95576e-11
-9.62384e-11
1.85417e-08
-2.01543e-11
8.78376e-12
1.9352e-08
-9.51405e-12
-1.28386e-08
3.38117e-11
1.05487e-12
1.27903e-08
-1.70618e-11
2.51678e-12
3.44851e-12
-7.08435e-12
-2.27542e-08
2.26977e-11
1.97474e-11
6.84007e-11
2.26654e-08
-2.35291e-11
-3.34127e-11
-7.72011e-13
1.4125e-10
1.91779e-08
-6.86761e-13
-1.49451e-12
-5.34619e-12
-4.38857e-13
1.01371e-08
6.99678e-13
-6.38928e-13
-1.91011e-08
-5.51613e-12
-3.40406e-12
1.84776e-11
1.90895e-08
-1.2338e-08
-5.02328e-13
1.88147e-15
5.64635e-13
1.23312e-08
2.08981e-12
6.57866e-12
-7.03664e-15
-2.09445e-11
3.19771e-12
-1.79271e-11
4.83088e-15
-5.21287e-13
-8.16072e-13
6.35287e-13
1.01312e-08
-1.05968e-12
5.60112e-09
-1.7044e-12
-2.06638e-08
-1.09806e-12
1.2847e-11
2.06503e-08
-1.3079e-12
-7.19651e-12
-1.15295e-12
-1.27037e-11
1.61866e-12
5.59759e-09
-5.36411e-12
-4.53548e-13
1.01421e-08
7.35615e-13
-6.27679e-13
-1.91087e-08
-5.50945e-12
-3.41454e-12
1.87e-11
1.90969e-08
-1.23406e-08
-4.97079e-13
5.69124e-13
1.2334e-08
2.09583e-12
6.3926e-12
-2.12041e-11
3.20918e-12
-1.82007e-11
-5.20878e-13
-8.26972e-13
6.37477e-13
1.01363e-08
-1.26794e-12
5.60413e-09
-1.6576e-12
-2.06715e-08
-1.26633e-12
1.27701e-11
2.06582e-08
-1.3707e-12
7.70387e-13
-7.39889e-12
-1.13283e-12
-1.27481e-11
1.62372e-12
5.60042e-09
-1.56934e-12
-1.81731e-10
4.48422e-10
1.24595e-07
3.16739e-10
-4.43306e-10
1.35957e-07
-3.83023e-10
3.93263e-11
1.30239e-07
-3.88205e-10
1.61067e-12
1.44357e-07
4.12192e-10
-1.11409e-11
1.24444e-07
-1.14946e-12
1.35967e-07
8.06187e-12
6.67902e-12
1.29411e-07
-7.97054e-13
1.43612e-07
-7.74435e-12
-2.83641e-13
1.24206e-07
-6.25632e-12
1.33509e-07
2.64505e-11
-4.24083e-10
1.27846e-07
-3.96839e-10
1.44629e-07
-1.6943e-11
7.04608e-12
1.24227e-07
1.9084e-12
1.3347e-07
-1.98216e-11
1.26989e-07
1.43725e-07
8.40698e-11
-1.81185e-11
2.56583e-08
-2.2873e-08
8.27542e-11
-1.45177e-11
2.28384e-08
-2.66445e-08
-1.85691e-11
-7.05547e-12
2.66245e-08
1.03969e-11
-1.06019e-10
7.31921e-14
6.92539e-12
2.49124e-11
2.55822e-08
5.77916e-11
2.24062e-08
3.87699e-11
2.41271e-08
2.55088e-08
-6.03152e-12
2.7358e-11
2.61042e-08
-5.28657e-11
-2.72156e-08
-6.17044e-12
-4.60582e-13
2.72428e-08
-2.34273e-08
2.64763e-11
-6.26925e-12
2.34209e-08
-3.38565e-11
5.07376e-12
-3.0249e-14
8.7272e-14
6.23858e-12
5.24876e-11
2.60562e-08
2.17082e-11
2.23555e-11
2.5884e-08
-2.29353e-08
2.07754e-11
2.29309e-08
-1.68245e-11
-9.81202e-12
-2.45028e-08
2.18422e-11
2.44745e-08
2.59639e-08
-3.15392e-11
-3.29581e-11
2.23088e-08
6.33594e-11
4.66955e-11
-2.53958e-08
-2.97005e-11
2.53726e-08
-2.43726e-08
-3.22079e-11
2.43641e-08
2.22963e-08
2.22993e-08
-2.80456e-11
-3.57864e-11
5.5658e-11
5.29165e-11
-2.89903e-11
-2.55067e-08
2.55218e-08
-3.40909e-11
-2.42615e-08
2.42445e-08
2.22863e-08
3.09909e-10
2.25696e-08
1.618e-10
2.43161e-08
2.567e-08
8.43814e-11
-1.78817e-11
2.56568e-08
-2.5096e-11
-2.2871e-08
8.27876e-11
-1.45731e-11
2.28367e-08
-2.66433e-08
-1.87488e-11
-6.82145e-12
2.6623e-08
1.02786e-11
-1.0632e-10
1.42249e-13
1.44615e-11
7.12711e-12
2.12339e-11
2.55857e-08
5.90193e-11
3.6679e-11
2.54593e-08
-2.24293e-08
5.75497e-11
2.24026e-08
-1.69784e-11
-3.57295e-11
-2.41187e-08
3.70126e-11
2.40778e-08
2.55013e-08
-2.14905e-11
8.39954e-11
2.5653e-08
2.90241e-11
-2.66383e-08
-2.13529e-11
2.66076e-08
-2.28621e-08
8.19958e-11
-1.70472e-11
2.28312e-08
-1.06318e-10
1.0524e-11
1.75106e-11
-2.86405e-11
2.56456e-08
5.8424e-11
2.54295e-08
3.9792e-11
-2.24185e-08
5.69333e-11
2.23897e-08
-1.71397e-11
-3.5791e-11
3.97123e-11
-2.41226e-08
2.40852e-08
2.5443e-08
-2.13959e-11
8.37507e-11
2.5654e-08
2.90507e-11
-2.66391e-08
-2.14221e-11
2.66082e-08
-2.28637e-08
8.16511e-11
-1.70492e-11
2.28332e-08
-1.06354e-10
1.05164e-11
1.74972e-11
-2.86934e-11
2.56463e-08
3.98225e-11
5.81795e-11
2.54339e-08
-2.24218e-08
5.6649e-11
2.23933e-08
-3.58855e-11
-1.71439e-11
-2.4177e-08
3.95634e-11
2.41341e-08
2.54469e-08
-3.40539e-11
-3.02805e-11
2.22911e-08
4.74495e-11
6.23101e-11
-2.53335e-08
-7.46535e-11
2.53254e-08
-2.44121e-08
1.19687e-11
2.4392e-08
2.22734e-08
-6.01914e-12
2.73533e-11
2.61086e-08
-5.2971e-11
-2.7219e-08
-6.06334e-12
2.72451e-08
-2.34327e-08
2.64606e-11
-6.33146e-12
2.34266e-08
-3.38495e-11
5.04429e-12
6.17409e-12
5.24632e-11
2.6061e-08
2.13801e-11
2.24158e-11
2.58859e-08
-2.29397e-08
2.06477e-11
2.29354e-08
-1.65969e-11
-9.81053e-12
-2.44515e-08
2.18527e-11
2.44294e-08
2.5966e-08
8.90938e-13
3.11639e-13
-2.44114e-13
2.31924e-09
3.96803e-13
2.08946e-13
-1.72824e-13
1.25102e-09
1.41654e-13
1.1831e-13
-9.86664e-14
6.16051e-10
2.90156e-14
5.28611e-14
-4.57733e-14
2.5528e-10
1.29126e-14
-1.27959e-14
6.07164e-11
5.72804e-13
-1.16909e-13
-2.31629e-09
1.75649e-13
2.31668e-09
2.67449e-13
-6.49274e-14
-1.24946e-09
1.00046e-13
1.24973e-09
1.00156e-13
-3.19599e-14
-6.15256e-10
5.10558e-14
6.15404e-10
2.22673e-14
-1.27511e-14
-2.54909e-10
2.19065e-14
2.54977e-10
-2.7223e-15
-6.06143e-11
5.54084e-15
6.06337e-11
7.35403e-13
3.66514e-14
-4.30819e-09
-1.35353e-14
4.30876e-09
3.34114e-13
1.44586e-14
-2.31069e-09
-6.43769e-15
2.31108e-09
1.20662e-13
4.53382e-15
-1.13311e-09
5.705e-17
1.13332e-09
2.52133e-14
6.88008e-16
-4.68081e-10
9.31236e-16
4.68174e-10
-4.74051e-16
-1.11101e-10
3.28213e-16
1.11126e-10
1.21893e-12
3.30375e-13
4.31401e-09
5.40241e-13
2.11146e-13
2.31378e-09
1.95777e-13
1.16178e-13
1.13456e-09
4.21287e-14
5.18255e-14
4.68674e-10
1.32606e-14
1.11284e-10
7.75753e-13
-4.30924e-09
-1.16764e-13
4.30988e-09
3.51865e-13
-2.31123e-09
-7.55865e-14
2.31166e-09
1.27658e-13
-1.13337e-09
-3.96015e-14
1.1336e-09
2.70012e-14
-4.68142e-10
-1.67204e-14
4.68247e-10
-1.11108e-10
-4.08518e-15
1.11137e-10
6.82933e-13
1.00722e-13
-9.2494e-14
4.31025e-09
3.01198e-13
4.99318e-14
-6.13796e-14
2.31195e-09
1.06799e-13
1.99338e-14
-2.74869e-14
1.13376e-09
2.21451e-14
5.78628e-15
-9.12706e-15
4.6833e-10
5.70883e-16
-1.62537e-15
1.11182e-10
5.72399e-13
-2.31553e-09
9.88499e-14
2.31592e-09
2.68128e-13
-1.24913e-09
5.17011e-14
1.2494e-09
1.00801e-13
-6.15062e-10
2.53308e-14
6.15209e-10
2.26142e-14
-2.54853e-10
1.08359e-14
2.54921e-10
-6.05901e-11
2.87017e-15
6.06093e-11
5.64724e-13
1.65044e-13
2.31671e-09
2.63788e-13
8.84453e-14
1.24981e-09
9.8895e-14
4.20215e-14
6.15455e-10
2.20296e-14
1.69287e-14
2.55022e-10
4.1134e-15
6.06466e-11
5.74243e-13
-3.2995e-14
9.91013e-14
2.31645e-09
2.68477e-13
-1.28583e-14
5.26283e-14
1.24958e-09
1.00583e-13
-4.21322e-15
2.60268e-14
6.15309e-10
2.24393e-14
-7.77412e-16
1.11462e-14
2.54966e-10
3.37888e-16
2.93472e-15
6.06407e-11
7.23246e-13
-2.66593e-14
4.4733e-14
-4.31219e-09
4.31285e-09
3.21709e-13
-3.15539e-14
2.89157e-14
-2.3128e-09
2.3132e-09
1.17286e-13
-2.05723e-14
1.30612e-14
-1.13418e-09
1.13439e-09
2.564e-14
-1.02176e-14
4.35379e-15
-4.68493e-10
4.6859e-10
-3.00255e-15
6.73057e-16
-1.11212e-10
1.1124e-10
5.46837e-13
-2.31772e-09
3.83037e-14
2.31816e-09
2.52891e-13
-1.25034e-09
7.41351e-15
1.25059e-09
9.61386e-14
-6.15673e-10
1.85627e-16
6.15809e-10
2.21871e-14
-2.55089e-10
-3.67604e-16
2.55153e-10
-6.06558e-11
-7.56842e-17
6.06751e-11
5.6036e-13
3.90436e-14
-2.31806e-09
2.74395e-14
2.3185e-09
2.60883e-13
4.14528e-14
-1.2505e-09
-1.06041e-15
1.25076e-09
9.94028e-14
2.68175e-14
-6.15757e-10
-3.2822e-15
6.15895e-10
2.29421e-14
1.32761e-14
-2.55141e-10
-1.75375e-15
2.55206e-10
3.82064e-15
-6.06618e-11
-3.57871e-16
6.06813e-11
7.75284e-13
4.92919e-15
4.30997e-09
3.50366e-13
1.816e-15
2.31167e-09
1.26214e-13
1.04617e-15
1.13361e-09
2.63018e-14
5.05209e-16
4.68291e-10
2.2601e-17
1.11153e-10
7.27149e-13
6.00261e-14
-4.31206e-09
4.3127e-09
3.2593e-13
4.30485e-14
-2.31286e-09
2.31326e-09
1.1968e-13
2.49572e-14
-1.13411e-09
1.13432e-09
2.63234e-14
1.14422e-14
-4.6848e-10
4.68575e-10
2.89842e-15
-1.11181e-10
1.11208e-10
-5.09756e-13
-2.95522e-14
2.69415e-09
6.6177e-14
-2.45804e-13
-1.54641e-14
1.44983e-09
2.91901e-14
-9.49719e-14
-8.35434e-15
7.12637e-10
1.45568e-14
-2.19962e-14
-4.06979e-15
2.94861e-10
6.6729e-15
-1.1908e-15
7.00607e-11
1.80633e-15
3.97941e-13
-2.94538e-09
-9.35546e-14
2.0866e-14
2.94568e-09
1.89208e-13
-1.58287e-09
-5.4493e-14
1.18126e-14
1.58312e-09
6.96606e-14
-7.77328e-10
-2.83955e-14
5.81315e-15
7.77471e-10
1.47587e-14
-3.2141e-10
-1.24211e-14
2.36455e-15
3.21475e-10
-7.63479e-11
-3.15076e-15
5.51316e-16
7.63652e-11
-5.00567e-13
2.13844e-14
-2.41533e-13
1.27532e-14
-9.2966e-14
6.61884e-15
-2.1378e-14
2.822e-15
6.85697e-16
4.09132e-13
-1.58379e-13
2.69445e-09
1.95088e-13
-8.75328e-14
1.45008e-09
7.25418e-14
-4.55207e-14
7.12777e-10
1.56641e-14
-1.9958e-14
2.94926e-10
-5.02504e-15
7.00783e-11
-6.2922e-13
-2.93921e-14
-4.65744e-14
-2.9963e-13
-3.61222e-14
-1.13376e-14
-1.16244e-13
-2.56701e-14
-9.65333e-16
-2.72898e-14
-1.34791e-14
3.33867e-16
-4.01116e-15
-2.41229e-17
-9.95647e-13
-4.48642e-14
7.13187e-15
-4.63214e-13
-1.2437e-14
-6.50628e-15
-1.74432e-13
-1.63585e-15
-8.19632e-15
-3.92242e-14
1.42829e-15
-5.35916e-15
9.92909e-16
-1.74173e-15
4.057e-13
-2.30182e-09
-8.69979e-15
2.30213e-09
1.90606e-13
-1.24146e-09
-3.09189e-15
1.24168e-09
7.11231e-14
-6.11242e-10
-7.28722e-16
6.11363e-10
1.56713e-14
-2.53195e-10
1.60081e-16
2.53251e-10
-6.01987e-11
2.57083e-16
6.02141e-11
-4.23877e-13
3.61368e-14
-2.03323e-13
1.16879e-14
-7.90223e-14
2.96124e-15
-1.8659e-14
2.74455e-16
-2.33111e-16
3.99846e-13
-2.30123e-09
4.37874e-14
2.30156e-09
1.86988e-13
-1.24117e-09
3.67452e-14
1.24139e-09
7.02473e-14
-6.11089e-10
2.21905e-14
6.11208e-10
1.57542e-14
-2.53138e-10
1.04692e-14
2.53194e-10
-6.01855e-11
2.84965e-15
6.02013e-11
-4.12092e-13
1.35087e-13
-1.15374e-13
-1.96384e-13
7.78627e-14
-6.97239e-14
-7.65373e-14
4.00343e-14
-3.60495e-14
-1.82315e-14
1.71002e-14
-1.54398e-14
4.12814e-15
-3.85339e-15
-9.00609e-13
-3.75267e-14
-4.16957e-13
-3.34425e-14
-1.57309e-13
-2.34676e-14
-3.56386e-14
-1.2241e-14
-3.38851e-15
1.9353e-13
8.79784e-14
4.119e-09
3.89162e-14
5.85e-14
2.21062e-09
1.90107e-15
3.14851e-14
1.0847e-09
-1.70039e-15
1.31229e-14
4.48223e-10
2.84025e-15
1.06438e-10
2.82992e-13
2.30231e-09
1.14057e-13
1.24169e-09
3.77734e-14
6.11353e-10
7.77718e-15
2.53264e-10
6.02237e-11
-4.95801e-13
-7.56714e-14
2.69282e-09
1.26341e-13
-2.39484e-13
-4.36e-14
1.44912e-09
6.57232e-14
-9.27426e-14
-2.30735e-14
7.1225e-10
3.40372e-14
-2.15101e-14
-1.03489e-14
2.94723e-10
1.51815e-14
-2.70096e-15
7.00277e-11
3.91927e-15
4.01736e-13
-2.94462e-09
-4.89595e-14
2.94492e-09
1.90976e-13
-1.58247e-09
-2.8543e-14
1.58272e-09
7.02373e-14
-7.77134e-10
-1.62598e-14
7.77277e-10
1.488e-14
-3.21331e-10
-7.47659e-15
3.21396e-10
-7.63291e-11
-1.94142e-15
7.63465e-11
-4.96094e-13
-2.39614e-13
-9.22766e-14
-2.12608e-14
4.23108e-13
-9.96753e-14
2.69312e-09
2.01647e-13
-5.33404e-14
1.44936e-09
7.43657e-14
-2.8092e-14
7.1239e-10
1.61384e-14
-1.26495e-14
2.94787e-10
-3.27221e-15
7.00452e-11
-6.39924e-13
-1.18088e-13
-3.04905e-13
-5.83232e-14
-1.18152e-13
-2.73881e-14
-2.76188e-14
-1.13016e-14
-2.86569e-15
4.00366e-13
-9.5159e-14
2.32143e-14
2.94582e-09
1.90562e-13
-5.40121e-14
1.25746e-14
1.58319e-09
7.01568e-14
-2.75546e-14
5.95107e-15
7.77386e-10
1.48441e-14
-1.18726e-14
2.34622e-15
3.21523e-10
-2.9794e-15
5.33525e-16
7.63508e-11
4.14991e-13
-1.54308e-13
2.69445e-09
1.97962e-13
-8.343e-14
1.45002e-09
7.36039e-14
-4.2375e-14
7.12711e-10
1.58717e-14
-1.82188e-14
2.94931e-10
-4.51466e-15
7.00635e-11
4.03859e-13
-4.63196e-14
2.94495e-09
1.92017e-13
-2.7375e-14
1.58279e-09
7.06035e-14
-1.49484e-14
7.77229e-10
1.49109e-14
-6.93079e-15
3.21413e-10
-1.87862e-15
7.63327e-11
4.26613e-13
-9.52736e-14
2.69311e-09
2.0331e-13
-5.10984e-14
1.44935e-09
7.5503e-14
-2.68586e-14
7.12379e-10
1.6255e-14
-1.2058e-14
2.94774e-10
-3.10986e-15
7.00333e-11
9.05502e-13
-2.96954e-14
4.24182e-14
-4.11877e-09
4.1194e-09
4.29261e-13
-1.70832e-14
2.56874e-14
-2.21057e-09
2.21104e-09
1.60436e-13
-9.43416e-15
1.70574e-14
-1.08457e-09
1.08483e-09
3.49134e-14
-4.03505e-15
9.38396e-15
-4.48162e-10
4.48282e-10
-9.58611e-16
3.04379e-15
-1.06424e-10
1.06457e-10
5.71445e-13
-2.30239e-09
2.30289e-09
2.66625e-13
-1.2417e-09
1.24201e-09
9.91751e-14
-6.11348e-10
6.11519e-10
2.15967e-14
-2.53247e-10
2.53325e-10
-6.02295e-11
6.02508e-11
-4.48192e-13
1.59972e-13
-1.19753e-13
-2.18804e-13
9.25364e-14
-7.29578e-14
-8.63761e-14
4.84077e-14
-3.89534e-14
-2.07653e-14
2.091e-14
-1.74548e-14
5.04325e-15
-4.62252e-15
-7.83303e-13
1.30629e-13
-3.56988e-13
8.77048e-14
-1.35095e-13
4.83166e-14
-3.12246e-14
2.18435e-14
5.83495e-15
-3.29319e-13
-4.82225e-14
2.692e-09
6.41516e-14
-1.51904e-13
-3.23265e-14
1.44872e-09
3.66592e-14
-5.91979e-14
-2.10493e-14
7.12069e-10
2.37611e-14
-1.44764e-14
-1.10907e-14
2.94644e-10
1.27926e-14
-3.28742e-15
7.0001e-11
3.84029e-15
2.61716e-13
-2.94267e-09
-4.77363e-14
-1.54361e-16
2.94302e-09
1.12326e-13
-1.58155e-09
-2.54158e-14
-6.92674e-16
1.58172e-09
4.15027e-14
-7.76698e-10
-1.46599e-14
-6.77578e-16
7.76784e-10
9.74786e-15
-3.21148e-10
-7.39313e-15
-4.15955e-16
3.21188e-10
-7.62768e-11
-2.15058e-15
-1.33854e-16
7.62889e-11
-2.45552e-13
1.55402e-15
-1.07101e-13
5.7333e-16
-4.0828e-14
5.0186e-17
-1.01116e-14
-8.69273e-17
-4.81923e-17
3.26533e-13
-8.38243e-14
2.69234e-09
1.4904e-13
-3.95918e-14
1.44891e-09
5.67964e-14
-2.14378e-14
7.12168e-10
1.33861e-14
-1.05104e-14
2.94691e-10
-3.006e-15
7.00152e-11
-6.00558e-13
2.22475e-14
-2.82672e-13
2.09933e-14
-1.09938e-13
1.10898e-14
-2.61919e-14
4.16201e-15
6.94095e-16
-3.21769e-13
-5.15988e-14
2.6933e-09
7.10309e-14
-1.47985e-13
-3.40371e-14
1.44937e-09
4.14352e-14
-5.76699e-14
-2.15293e-14
7.12393e-10
2.6241e-14
-1.41341e-14
-1.1095e-14
2.94799e-10
1.37694e-14
-3.23156e-15
7.00303e-11
4.04363e-15
2.63877e-13
-2.94347e-09
-4.52212e-14
2.94382e-09
1.1334e-13
-1.5819e-09
-2.48736e-14
1.58208e-09
4.19262e-14
-7.76839e-10
-1.4846e-14
7.76924e-10
9.85664e-15
-3.21252e-10
-7.65559e-15
3.21291e-10
-7.62936e-11
-2.25359e-15
7.63055e-11
-2.44888e-13
-1.06883e-13
-4.07985e-14
-1.01118e-14
3.27095e-13
-7.96398e-14
2.69365e-09
1.49128e-13
-3.75799e-14
1.44956e-09
5.67711e-14
-2.07983e-14
7.12491e-10
1.3359e-14
-1.04206e-14
2.94845e-10
-3.02978e-15
7.00444e-11
-5.91236e-13
-9.65403e-14
2.22647e-15
-2.78722e-13
-6.49633e-14
5.95945e-15
-1.08608e-13
-3.54556e-14
2.24394e-15
-2.6e-14
-1.59753e-14
1.22216e-16
-4.30601e-15
-4.55974e-16
-8.29967e-13
-3.80358e-13
-1.44113e-13
-3.32048e-14
7.00616e-13
-2.06552e-14
-4.11828e-09
4.11889e-09
3.14479e-13
-1.61396e-14
-2.21053e-09
2.21093e-09
1.13035e-13
-9.44149e-15
-1.08452e-09
1.08473e-09
2.36841e-14
-4.33007e-15
-4.48181e-10
4.48275e-10
-1.12851e-15
-1.06407e-10
1.06432e-10
6.96428e-13
-4.11894e-09
4.11957e-09
3.12266e-13
-2.21079e-09
2.2112e-09
1.12938e-13
-1.08472e-09
1.08493e-09
2.403e-14
-4.48238e-10
4.48333e-10
-1.06418e-10
1.06443e-10
1.80729e-12
4.30596e-09
8.83505e-13
2.30898e-09
3.38441e-13
1.13198e-09
7.53892e-14
4.67556e-10
1.10985e-10
-1.05722e-12
4.2941e-09
-4.95615e-13
2.30237e-09
-1.87956e-13
1.12874e-09
-4.25559e-14
4.66165e-10
1.10648e-10
8.66831e-13
4.29481e-09
3.98791e-13
2.30285e-09
1.46304e-13
1.12899e-09
3.12431e-14
4.66282e-10
1.1068e-10
5.70863e-13
2.00595e-14
-4.11771e-09
4.11836e-09
2.34955e-13
5.28932e-15
-2.21001e-09
2.21037e-09
7.86547e-14
8.96952e-16
-1.0843e-09
1.08447e-09
1.53205e-14
-1.08103e-15
-4.48071e-10
4.48144e-10
-8.80083e-16
-1.0639e-10
1.06409e-10
2.50471e-13
-2.30025e-09
2.30041e-09
1.20349e-13
-1.24058e-09
1.24071e-09
4.7112e-14
-6.10811e-10
6.10885e-10
1.1159e-14
-2.53037e-10
2.53073e-10
-6.01681e-11
6.01788e-11
-3.99968e-13
2.60294e-14
-1.84534e-13
1.43049e-15
-6.99799e-14
-3.48298e-15
-1.61552e-14
-2.67983e-15
-8.62669e-16
-7.87529e-13
7.84926e-14
-3.6473e-13
4.20541e-14
-1.37899e-13
2.02962e-14
-3.14107e-14
8.26269e-15
1.9472e-15
-7.85976e-13
-3.63321e-13
-1.37579e-13
-3.14834e-14
5.69206e-13
-2.36012e-13
1.63143e-13
-4.11875e-09
4.11954e-09
2.33382e-13
-1.53878e-13
9.66689e-14
-2.2106e-09
2.21099e-09
8.08504e-14
-8.66655e-14
5.0832e-14
-1.0846e-09
1.08479e-09
1.70076e-14
-3.90715e-14
2.16129e-14
-4.48233e-10
4.48314e-10
-9.90978e-15
5.18186e-15
-1.06402e-10
1.06424e-10
4.67024e-13
-2.30289e-09
2.30349e-09
2.07386e-13
-1.24195e-09
1.24227e-09
7.55194e-14
-6.11455e-10
6.11616e-10
1.63618e-14
-2.533e-10
2.53372e-10
-6.02333e-11
6.0253e-11
-2.91629e-13
1.55117e-14
-1.47215e-13
2.37037e-14
-6.02147e-14
2.2242e-14
-1.52446e-14
1.31277e-14
3.71884e-15
5.65495e-13
1.3641e-13
-4.11864e-09
4.11911e-09
2.59574e-13
8.4622e-14
-2.21041e-09
2.21073e-09
9.59711e-14
4.34505e-14
-1.08456e-09
1.08473e-09
2.10035e-14
1.79615e-14
-4.48219e-10
4.48298e-10
4.14818e-15
-1.06406e-10
1.06428e-10
4.01896e-13
-2.30058e-09
2.30089e-09
1.89806e-13
-1.24069e-09
1.24091e-09
7.11347e-14
-6.10866e-10
6.10988e-10
1.57531e-14
-2.53066e-10
2.53122e-10
-6.01659e-11
6.01817e-11
-3.94777e-13
-1.22588e-14
-1.90849e-13
-2.42883e-14
-7.47247e-14
-2.03437e-14
-1.7768e-14
-1.14563e-14
-3.43838e-15
-5.87496e-13
-5.2172e-15
-2.73163e-13
1.21055e-14
-1.03562e-13
1.3697e-14
-2.35856e-14
8.43129e-15
2.63239e-15
-5.99983e-13
-2.78064e-13
-1.06299e-13
-2.4784e-14
-1.0506e-12
4.29154e-09
-4.92363e-13
2.30109e-09
-1.87041e-13
1.12804e-09
-4.24478e-14
4.65931e-10
1.10571e-10
8.83734e-13
4.29225e-09
4.06854e-13
2.30157e-09
1.49224e-13
1.1283e-09
3.17939e-14
4.66046e-10
1.10602e-10
8.73268e-13
4.29478e-09
4.0212e-13
2.30285e-09
1.47457e-13
1.12901e-09
3.14148e-14
4.66321e-10
1.10679e-10
8.81374e-13
4.29273e-09
4.05353e-13
2.3017e-09
1.48457e-13
1.12839e-09
3.15861e-14
4.66056e-10
1.1063e-10
-7.04578e-13
3.24158e-14
-3.20534e-13
1.16946e-14
-1.19943e-13
4.63176e-15
-2.72166e-14
1.79162e-15
3.65338e-16
-7.98841e-13
-3.68892e-13
-1.39711e-13
-3.20953e-14
-8.9841e-13
4.30452e-09
-4.16562e-13
2.30789e-09
-1.60735e-13
1.13133e-09
-3.78786e-14
4.67255e-10
1.10902e-10
8.51645e-13
4.30524e-09
3.91418e-13
2.30832e-09
1.48365e-13
1.13155e-09
3.40374e-14
4.67358e-10
1.10933e-10
-8.70866e-13
4.30653e-09
-4.03073e-13
2.30898e-09
-1.55536e-13
1.13194e-09
-3.66396e-14
4.67505e-10
1.10951e-10
8.52989e-13
4.30725e-09
3.9083e-13
2.30941e-09
1.47988e-13
1.13216e-09
3.3887e-14
4.67606e-10
1.10982e-10
2.12495e-11
8.11578e-12
6.60876e-09
2.47756e-13
-5.71997e-12
-1.97854e-12
6.5992e-09
-1.25007e-12
1.91336e-11
-1.31945e-10
5.36802e-11
1.7134e-10
2.71084e-08
-1.61421e-11
8.86915e-11
4.11973e-11
2.11359e-08
-1.19308e-11
5.0414e-12
-2.46899e-11
2.09511e-08
-5.38388e-11
9.98254e-14
4.37614e-12
1.7124e-11
1.9529e-08
-1.48053e-11
-2.87302e-12
1.31789e-08
-1.15472e-12
2.95073e-13
1.04927e-11
-1.0344e-10
2.36575e-08
-2.96178e-10
-1.65243e-09
4.36153e-11
4.56885e-10
7.03173e-11
2.87377e-10
7.416e-11
1.14104e-07
1.37432e-10
2.00521e-10
-1.72534e-11
-3.48058e-11
2.05045e-08
2.11634e-10
-4.08474e-09
5.90476e-10
1.4946e-10
1.13787e-10
6.87626e-10
1.21114e-07
-5.38384e-11
1.71305e-11
4.52734e-12
1.95256e-08
-1.49097e-11
2.16149e-12
-3.1412e-12
1.31743e-08
-1.14761e-12
-1.0341e-10
1.07351e-11
2.36542e-08
-7.9082e-10
-1.627e-11
-1.9167e-09
4.60811e-10
8.19485e-11
5.4888e-11
2.75442e-10
4.11416e-10
1.31847e-11
2.36282e-10
1.15732e-07
-3.92952e-09
5.97177e-10
1.48841e-10
9.62278e-11
6.87736e-10
1.21941e-07
9.07071e-12
-1.76587e-11
-3.70571e-11
2.0496e-08
-1.33453e-11
-1.9185e-09
4.61993e-10
6.96238e-11
5.40641e-11
2.88853e-10
4.07101e-10
3.85498e-11
2.13245e-10
1.15714e-07
-7.85855e-10
1.49654e-11
1.23365e-11
-1.74165e-11
-3.48224e-11
2.05038e-08
2.16448e-12
-3.15323e-12
1.31772e-08
-1.15228e-12
-5.55754e-12
6.59757e-09
-1.28489e-12
2.38319e-11
2.70825e-08
9.34788e-11
8.44694e-12
-3.40517e-11
-5.13585e-11
2.10712e-08
3.96774e-12
-1.01758e-11
4.31939e-11
9.64547e-12
2.12865e-08
-7.47205e-13
6.73676e-09
-1.35962e-12
9.59344e-14
-7.47377e-12
2.44401e-11
4.80337e-13
2.42835e-08
-5.15029e-10
-1.23621e-09
4.11582e-10
5.38368e-11
1.54757e-10
2.85109e-10
2.51551e-11
1.48318e-11
2.22394e-10
1.15314e-07
-1.99691e-10
-7.86841e-10
1.9209e-10
-8.12401e-11
-2.8618e-11
8.29596e-11
1.18967e-07
7.51849e-12
-9.66156e-12
-1.33215e-11
2.08833e-08
-7.20539e-12
2.44421e-11
2.89381e-13
2.42864e-08
-4.77966e-10
-2.75852e-11
-1.22248e-09
2.79487e-10
3.94537e-11
1.53416e-11
2.08978e-10
4.15544e-10
2.95359e-11
1.78019e-10
1.15308e-07
-7.74802e-10
1.87019e-10
-8.14948e-11
-2.90888e-11
8.30971e-11
1.18533e-07
7.81096e-12
7.1301e-12
-9.67768e-12
-1.60542e-11
2.08813e-08
2.22763e-15
-7.17307e-14
-2.42442e-12
2.01442e-08
-1.31254e-12
1.34898e-08
-1.21442e-12
-7.22936e-14
-2.60933e-12
2.01477e-08
8.2352e-13
-1.33341e-12
1.34913e-08
-1.16282e-12
2.70823e-08
6.18125e-11
4.44277e-11
5.7885e-12
5.03253e-12
-2.51474e-11
2.11161e-08
4.05471e-12
2.76748e-12
-1.76838e-11
2.1247e-08
6.59973e-09
-1.24447e-12
6.7364e-09
-1.2518e-12
1.33078e-11
9.81292e-12
5.46537e-09
-1.01061e-13
-3.95624e-12
-2.9604e-12
5.46671e-09
-9.02569e-13
5.5025e-12
-1.45579e-11
1.50064e-08
4.69659e-11
1.27156e-08
-1.1412e-13
-7.44523e-11
1.74126e-10
2.28921e-08
1.06113e-10
4.96645e-11
1.92831e-08
-1.26294e-11
1.24952e-08
-7.40542e-13
2.23937e-11
-4.47719e-11
-3.3307e-11
2.21294e-08
-2.42888e-11
1.83828e-08
-9.82938e-09
-4.50656e-11
-1.9332e-12
4.31692e-12
9.87214e-09
-7.73915e-14
1.3988e-11
1.85315e-08
6.39237e-12
-4.47572e-11
9.00549e-13
1.19539e-08
6.7724e-14
-7.78034e-13
1.13807e-11
5.40042e-11
6.30737e-14
-1.74857e-10
1.96384e-08
1.48573e-12
-7.91726e-13
1.72795e-11
-1.51166e-10
1.86317e-08
5.63974e-14
1.2006e-08
-1.03602e-13
-5.42309e-09
-2.00972e-11
5.44768e-09
-1.74411e-13
4.8211e-12
2.01043e-08
-2.90717e-11
-6.22143e-12
-6.13416e-11
8.41006e-12
1.32378e-08
3.29492e-13
-1.39928e-12
-1.07589e-10
2.02028e-08
-9.82357e-09
-2.05819e-12
-4.52613e-11
4.44337e-12
9.8665e-09
-5.79932e-14
1.0338e-12
1.19507e-08
-7.73992e-13
1.4025e-11
1.85226e-08
6.60408e-12
-4.48604e-11
5.41857e-11
1.15563e-11
-1.74834e-10
1.96348e-08
1.62136e-12
-7.64858e-13
1.20029e-08
-9.94051e-14
1.74894e-11
-1.51208e-10
1.86226e-08
-5.41955e-09
-1.99996e-11
5.44413e-09
-1.41426e-13
4.71662e-12
2.00931e-08
-2.90794e-11
-6.46008e-12
8.60412e-12
-6.12625e-11
1.3233e-08
3.38114e-13
-1.36742e-12
-1.07789e-10
2.01919e-08
-5.42008e-09
-1.9964e-11
-4.47265e-12
5.44466e-09
-1.40019e-13
4.69788e-12
2.0096e-08
-2.90661e-11
-6.63058e-12
-6.52988e-12
8.50152e-12