/*--------------------------------*- C++ -*----------------------------------*\
| =========                 |                                                 |
| \\      /  F ield         | OpenFOAM: The Open Source CFD Toolbox           |
|  \\    /   O peration     | Version:  2206                                  |
|   \\  /    A nd           | Website:  www.openfoam.com                      |
|    \\/     M anipulation  |                                                 |
\*---------------------------------------------------------------------------*/
FoamFile
{
    version     2.0;
    format      ascii;
    arch        "LSB;label=32;scalar=64";
    class       volVectorField;
    location    "1";
    object      U;
}
// * * * * * * * * * * * * * * * * * * * * * * * * * * * * * * * * * * * * * //

dimensions      [0 1 -1 0 0 0 0];

internalField   nonuniform List<vector> 
66621
(
(-1.02757e-05 -1.03077e-05 0.0710345)
(-1.35188e-05 7.58489e-07 0.0958301)
(-1.13345e-05 -1.20354e-06 0.070783)
(3.50927e-05 9.92952e-07 0.114021)
(2.85477e-05 -5.85956e-06 0.0977764)
(2.98573e-06 -2.74546e-06 0.137977)
(-4.76373e-06 3.22064e-06 0.060612)
(2.2709e-07 3.51965e-05 0.114911)
(4.30623e-06 2.16982e-07 0.133392)
(-7.67016e-07 -1.74414e-06 0.138978)
(-7.93597e-06 2.78107e-05 0.098383)
(0.000107055 0.000110244 0.127778)
(7.35277e-06 7.36889e-06 0.0834428)
(8.33869e-06 7.41846e-06 0.0837807)
(-9.01403e-06 -5.58605e-06 0.0607684)
(-5.67473e-06 -2.39574e-06 0.0606203)
(-0.00010749 -0.000111352 0.127739)
(-9.58913e-06 -3.13537e-06 0.0836552)
(-8.18452e-06 -6.15253e-06 0.0833927)
(1.15558e-06 2.06743e-06 0.133606)
(-7.29422e-06 -2.17119e-05 0.0980441)
(8.23303e-06 -5.86113e-06 0.083436)
(5.25588e-06 -2.29802e-06 0.0606295)
(-3.50369e-05 1.03772e-06 0.114019)
(1.86333e-06 -1.89442e-07 0.132942)
(-2.86191e-05 -5.75833e-06 0.0977617)
(-3.28936e-06 -1.48836e-06 0.137976)
(-1.351e-05 -1.51015e-07 0.0958294)
(-1.09222e-05 2.24796e-06 0.0707764)
(-3.49924e-05 -4.67595e-07 0.114016)
(2.0971e-07 -1.06015e-06 0.132889)
(-2.4877e-06 1.74192e-06 0.137939)
(-2.84158e-05 6.72466e-06 0.0977571)
(1.36065e-05 7.92771e-07 0.095831)
(1.13296e-05 -1.4208e-06 0.0707883)
(3.50916e-05 -4.49762e-07 0.114018)
(9.40861e-08 -1.09409e-06 0.132881)
(2.5877e-06 1.41116e-06 0.137938)
(2.83836e-05 6.81464e-06 0.0977759)
(1.36344e-05 -1.05103e-07 0.095831)
(1.09977e-05 2.23838e-06 0.0707895)
(-0.000105951 0.000110832 0.127782)
(-7.38803e-06 6.65949e-06 0.0833928)
(-8.74597e-06 6.98786e-06 0.0838178)
(-4.02578e-06 4.9803e-06 0.060864)
(-5.3252e-07 3.51895e-05 0.114911)
(-4.03036e-06 5.63384e-08 0.133397)
(9.853e-08 -2.09187e-06 0.138981)
(7.95402e-06 2.84311e-05 0.0983697)
(5.53988e-08 1.75107e-05 0.0967036)
(-2.5417e-06 1.18533e-05 0.0712518)
(-1.34848e-07 1.75232e-05 0.0967029)
(2.6824e-06 1.2087e-05 0.0712445)
(5.09467e-06 3.52552e-06 0.0606269)
(3.90577e-06 4.8926e-06 0.0608585)
(2.85875e-07 -9.41304e-06 0.0821423)
(2.43487e-06 -9.75494e-06 0.0588223)
(7.06921e-06 -1.72941e-08 0.0661053)
(-1.42381e-05 1.47578e-06 0.0924415)
(-4.42011e-06 7.24232e-07 0.068505)
(1.51861e-05 -1.77852e-07 0.0959438)
(1.59176e-05 -4.35622e-07 0.0925386)
(6.41435e-06 7.67134e-08 0.0685802)
(-5.12007e-06 1.30287e-06 0.0660386)
(7.48497e-06 -1.32347e-07 0.0586267)
(-1.2957e-05 1.27568e-06 0.0817877)
(1.20578e-05 3.19863e-06 0.0708128)
(1.36767e-05 2.68216e-07 0.0818481)
(-6.4182e-06 1.64401e-06 0.0585866)
(6.88327e-06 -3.62342e-06 0.0606485)
(-8.25284e-06 -6.16918e-06 0.0762679)
(4.17169e-06 3.50366e-06 0.0593687)
(3.69972e-06 4.0424e-06 0.0594224)
(-5.25581e-06 -3.16152e-06 0.0594027)
(-5.08517e-06 -3.60691e-06 0.0594481)
(6.38644e-06 6.4855e-06 0.0762186)
(-2.10112e-05 -8.93188e-06 0.0946015)
(5.87924e-06 4.08232e-06 0.0700832)
(-8.5977e-06 -7.09767e-06 0.0835081)
(3.21623e-05 1.91789e-05 0.106377)
(-3.25551e-05 -1.67748e-05 0.106413)
(-7.14284e-06 -3.94384e-06 0.0701314)
(1.96172e-05 1.02004e-05 0.0945509)
(-1.06532e-05 -1.9223e-05 0.0946101)
(4.25419e-06 5.94872e-06 0.0701461)
(-1.06389e-05 -7.17805e-06 0.0837978)
(1.76363e-05 3.31372e-05 0.106589)
(-1.89358e-05 -3.15946e-05 0.106588)
(-6.1412e-06 -5.609e-06 0.0701677)
(8.97976e-06 2.02878e-05 0.0945775)
(5.76935e-06 4.46352e-06 0.0606555)
(6.67102e-06 5.85596e-06 0.0763198)
(-5.77354e-06 -1.33069e-06 0.0594064)
(-4.1519e-06 -1.82527e-06 0.0593434)
(3.30043e-06 2.80953e-06 0.0594722)
(3.33436e-06 3.11701e-06 0.0594149)
(-6.49721e-06 -4.35407e-06 0.0761524)
(1.13118e-05 1.96125e-05 0.0948066)
(-7.78816e-06 -2.56757e-06 0.0702118)
(-1.51948e-05 -2.59373e-05 0.106534)
(2.81195e-06 6.18345e-06 0.0703261)
(-9.03706e-06 -1.74871e-05 0.0946088)
(2.04285e-05 8.78951e-06 0.0945295)
(-6.52505e-06 -2.65111e-06 0.0699583)
(7.92703e-06 7.84593e-06 0.0834592)
(-3.24476e-05 -1.71171e-05 0.106266)
(6.03795e-06 4.07013e-06 0.0700212)
(-1.97426e-05 -8.20297e-06 0.0943692)
(3.23558e-05 1.72371e-05 0.106328)
(3.07146e-06 -2.06877e-06 0.059357)
(6.05537e-06 -5.40794e-06 0.0761608)
(6.59166e-06 -3.73043e-06 0.0700703)
(3.1636e-05 -1.75947e-05 0.106331)
(2.0595e-05 -1.17929e-05 0.0944968)
(6.96787e-06 8.10079e-07 0.0661013)
(-4.42511e-06 -8.7252e-08 0.0685028)
(-1.44747e-05 -7.01756e-07 0.0924373)
(1.51205e-05 7.15958e-07 0.0959429)
(6.39701e-06 5.4463e-07 0.0685776)
(1.56014e-05 1.18816e-06 0.0925343)
(-5.20265e-06 -5.01884e-07 0.0660349)
(7.66179e-06 1.06005e-06 0.0586238)
(-1.2777e-05 -2.63759e-07 0.0817815)
(1.247e-05 -2.30823e-06 0.0708075)
(1.39441e-05 6.996e-07 0.0818419)
(-6.27604e-06 -6.93282e-07 0.0585837)
(1.4361e-05 1.48086e-06 0.0924439)
(4.45004e-06 7.94742e-07 0.0685049)
(5.19354e-06 1.32895e-06 0.0660389)
(1.29241e-05 1.18815e-06 0.0817914)
(6.47298e-06 1.599e-06 0.0585875)
(4.45494e-06 -3.51746e-08 0.068504)
(1.46194e-05 -6.36517e-07 0.0924406)
(5.23885e-06 -4.32392e-07 0.066037)
(1.27274e-05 -2.17564e-07 0.0817891)
(6.26113e-06 -6.19641e-07 0.0585876)
(8.48414e-06 -6.3315e-06 0.0762616)
(-5.4654e-06 2.76909e-06 0.0593452)
(-4.15752e-06 3.95788e-06 0.059432)
(4.62931e-06 -3.21992e-06 0.0593948)
(5.03679e-06 -3.85433e-06 0.0594408)
(-7.47297e-06 5.0351e-06 0.0762184)
(2.17482e-05 -8.1698e-06 0.0944742)
(-5.59624e-06 2.95016e-06 0.0699386)
(9.05341e-06 -7.29711e-06 0.083462)
(-3.32544e-05 1.83192e-05 0.106313)
(6.99748e-06 -3.93081e-06 0.0700199)
(3.4271e-05 -1.69341e-05 0.106346)
(-2.01547e-05 8.87683e-06 0.0944284)
(1.1859e-05 -1.86114e-05 0.0947266)
(-4.72992e-06 6.09262e-06 0.0702758)
(1.09698e-05 -7.06879e-06 0.0838331)
(-1.81792e-05 3.20368e-05 0.106652)
(1.92305e-05 -3.06805e-05 0.106649)
(6.5132e-06 -5.94642e-06 0.0702656)
(-8.93298e-06 1.79061e-05 0.0946986)
(6.04533e-06 -4.36914e-06 0.0608649)
(-4.49641e-07 -6.0659e-06 0.0664951)
(2.1044e-07 1.78274e-05 0.0933029)
(3.84527e-07 4.96069e-06 0.0689375)
(-3.65403e-07 -1.69147e-05 0.0968318)
(4.49908e-08 -1.77868e-05 0.0933622)
(-3.277e-07 -5.08891e-06 0.0690006)
(9.77882e-07 5.54477e-06 0.0664634)
(2.00293e-07 -6.41588e-06 0.0590068)
(-6.78633e-07 1.42592e-05 0.0825337)
(4.4106e-06 -1.24501e-05 0.0712244)
(1.65037e-06 -1.44719e-05 0.0825156)
(4.74551e-07 6.15109e-06 0.0590141)
(4.81359e-07 -5.99916e-06 0.0664964)
(-2.5817e-07 1.79513e-05 0.0933)
(-3.50241e-07 4.97765e-06 0.068938)
(2.97839e-07 -1.68991e-05 0.0968312)
(-9.72764e-08 -1.77075e-05 0.093364)
(3.64332e-07 -5.08424e-06 0.0690006)
(-9.06488e-07 5.56905e-06 0.0664622)
(-9.37257e-08 -6.33152e-06 0.0590056)
(6.95362e-07 1.45264e-05 0.0825275)
(-4.07831e-06 -1.24042e-05 0.0712197)
(-1.54763e-06 -1.438e-05 0.0825152)
(-4.2101e-07 6.18993e-06 0.0590091)
(-5.64176e-06 -4.92257e-06 0.0608599)
(5.67232e-06 -9.71995e-07 0.14351)
(5.24922e-06 8.07008e-06 0.14857)
(-7.6539e-06 -4.33238e-06 0.147464)
(-3.47995e-06 -1.95056e-06 0.152868)
(-5.50565e-06 -1.08754e-06 0.143512)
(-6.8357e-06 7.22035e-06 0.14857)
(8.29558e-06 -5.12539e-06 0.147471)
(3.25474e-06 -2.40656e-06 0.15287)
(-3.32998e-06 4.39198e-06 0.143249)
(-9.61537e-06 1.84706e-06 0.147422)
(-1.60366e-06 -4.22627e-07 0.148114)
(-5.81358e-06 -2.47942e-06 0.152587)
(3.20906e-06 3.92901e-06 0.143247)
(9.39e-06 9.06145e-07 0.147426)
(4.48691e-07 -4.79224e-07 0.148115)
(5.17115e-06 -1.53004e-06 0.152591)
(-0.000138646 8.59836e-07 0.124106)
(3.60721e-05 1.76948e-06 0.111539)
(0.000134417 4.39967e-07 0.125953)
(-3.51632e-05 -8.76682e-07 0.114067)
(-3.66215e-05 -1.67056e-06 0.111565)
(-0.000131149 2.02011e-08 0.125934)
(0.000140147 -4.54987e-07 0.124167)
(3.52536e-05 2.01163e-07 0.10632)
(0.000141997 -7.91754e-06 0.114671)
(0.000146051 -1.80817e-06 0.120584)
(-2.93537e-06 -0.000136762 0.124893)
(6.51519e-07 0.000132074 0.1268)
(8.08619e-08 3.62293e-05 0.112415)
(-1.15453e-06 -3.3472e-05 0.115009)
(-1.29405e-06 -0.000130015 0.12682)
(-1.05519e-06 -3.44227e-05 0.112427)
(1.73096e-06 0.000137365 0.124966)
(-9.17717e-07 -0.000137754 0.121149)
(-2.00257e-06 3.59181e-05 0.107102)
(8.99452e-06 -2.8169e-05 0.0983344)
(-7.26735e-06 0.000140882 0.115183)
(7.32366e-06 -0.00013894 0.115123)
(1.49633e-06 -3.36929e-05 0.107036)
(2.53462e-07 0.000143882 0.121266)
(-3.01311e-05 -2.82174e-05 0.109275)
(-0.000103452 -0.000101161 0.127694)
(3.21065e-05 0.000125161 0.119364)
(0.000120938 3.32908e-05 0.11943)
(-3.21423e-05 -0.00011814 0.119318)
(-0.000118072 -3.00945e-05 0.119367)
(3.05123e-05 3.18545e-05 0.109292)
(2.96114e-05 2.87372e-05 0.109363)
(0.000107282 0.000101881 0.127747)
(-0.000120922 -3.04408e-05 0.119448)
(-2.88444e-05 -0.000122536 0.119199)
(-2.72458e-05 -2.94116e-05 0.109187)
(0.000123871 3.0061e-05 0.119549)
(3.04087e-05 0.000118256 0.119273)
(1.53372e-06 -3.07585e-05 0.106616)
(-8.25666e-06 -0.000136524 0.114902)
(-2.47166e-06 -0.000141101 0.120882)
(0.0001386 1.18077e-06 0.124102)
(-3.59051e-05 1.84082e-06 0.111535)
(-0.000133968 5.70093e-07 0.125951)
(3.52191e-05 -7.80347e-07 0.114065)
(3.65725e-05 -1.54517e-06 0.111563)
(0.000131193 1.82376e-07 0.125932)
(-0.000139781 -2.61786e-07 0.124164)
(0.000141399 1.66775e-06 0.120513)
(-3.52623e-05 3.33126e-07 0.106313)
(2.92021e-05 5.74737e-06 0.0977869)
(-0.000142383 -7.74798e-06 0.114653)
(3.51221e-05 -6.23294e-07 0.10633)
(0.000141687 7.60888e-06 0.114652)
(-0.0001463 -1.55312e-06 0.120578)
(0.000136664 -8.01141e-07 0.12408)
(-0.000133467 6.54072e-08 0.125934)
(-3.63155e-05 -1.1797e-06 0.111527)
(3.51606e-05 1.16932e-06 0.114062)
(0.000130875 4.22348e-07 0.125915)
(3.61894e-05 2.15164e-06 0.111556)
(-0.000140495 5.86657e-07 0.124139)
(0.000140493 -1.55672e-06 0.120487)
(-3.54945e-05 6.27993e-07 0.106305)
(2.95625e-05 -4.95766e-06 0.0977831)
(-0.000141237 8.83813e-06 0.114642)
(3.55031e-05 1.468e-06 0.106322)
(-0.000144739 2.09866e-06 0.120546)
(0.000140739 -7.34467e-06 0.114641)
(-0.000136301 -6.41043e-07 0.124081)
(0.000134013 3.97821e-08 0.125935)
(3.65007e-05 -1.03776e-06 0.11153)
(-3.50265e-05 1.19866e-06 0.114064)
(-0.000130558 4.11532e-07 0.125916)
(-3.61087e-05 2.24289e-06 0.111558)
(0.000141032 7.66788e-07 0.124141)
(-0.00014036 -1.43253e-06 0.120489)
(3.54879e-05 7.67441e-07 0.106313)
(-2.93872e-05 -5.05932e-06 0.0978016)
(0.000141211 9.4675e-06 0.11466)
(-0.000140463 -7.42895e-06 0.114658)
(-3.5433e-05 1.46891e-06 0.106329)
(0.000144715 2.4153e-06 0.12055)
(3.09058e-05 -2.82445e-05 0.109274)
(0.000103393 -0.000101111 0.127697)
(-3.16162e-05 0.000125577 0.119357)
(-0.000121786 3.31489e-05 0.119445)
(0.000118641 -2.9457e-05 0.11938)
(3.2908e-05 -0.000118327 0.119305)
(-3.04667e-05 3.17403e-05 0.109296)
(2.4931e-06 -0.000136818 0.124894)
(-1.04689e-06 0.000132119 0.1268)
(-4.24074e-07 3.63237e-05 0.112411)
(8.94232e-07 -3.34634e-05 0.115009)
(9.23831e-07 -0.00013004 0.126821)
(7.98395e-07 -3.43696e-05 0.112429)
(-2.37747e-06 0.000137415 0.124964)
(5.21896e-07 -0.0001376 0.121147)
(1.75152e-06 3.63287e-05 0.107096)
(-8.7712e-06 -2.79022e-05 0.0983221)
(6.61936e-06 0.000141214 0.115167)
(-7.26164e-06 -0.000138849 0.115108)
(-1.58542e-06 -3.34632e-05 0.107034)
(-1.01168e-06 0.000144246 0.121262)
(-6.90997e-06 -4.90046e-06 0.0417162)
(-4.99025e-06 -1.43073e-06 0.0282609)
(-3.31191e-06 4.56676e-08 0.0176312)
(-1.85407e-06 3.77585e-07 0.00931498)
(-6.01905e-07 2.00473e-07 0.00283797)
(-4.48333e-06 3.40969e-07 0.0416537)
(-2.25799e-06 6.00158e-07 0.0282173)
(-1.05958e-06 5.36925e-07 0.0176027)
(-3.97946e-07 3.53717e-07 0.00929901)
(-8.11003e-08 1.24626e-07 0.0028328)
(-2.32163e-06 1.52714e-06 0.0428293)
(-1.12945e-06 7.24134e-07 0.0291117)
(-4.53455e-07 3.49026e-07 0.0182056)
(-1.07952e-07 1.51806e-07 0.00963577)
(2.12255e-09 4.26276e-08 0.00294087)
(-6.51633e-06 -2.41372e-06 0.0428831)
(-4.28188e-06 -3.72991e-07 0.0291494)
(-2.56295e-06 3.84844e-07 0.0182299)
(-1.29824e-06 4.21086e-07 0.00964927)
(-3.81124e-07 1.75318e-07 0.00294535)
(-3.01278e-06 -7.29214e-07 0.0428357)
(-1.58556e-06 -2.34014e-08 0.0291159)
(-7.58304e-07 1.66816e-07 0.0182081)
(-2.82416e-07 1.54524e-07 0.00963675)
(-5.47275e-08 6.01006e-08 0.00294112)
(2.62452e-06 -6.27204e-07 0.0428416)
(1.32448e-06 -6.33854e-08 0.0291202)
(5.71879e-07 1.48788e-08 0.0182111)
(1.65368e-07 -1.01516e-09 0.00963882)
(1.25673e-08 -1.10395e-08 0.00294195)
(-4.07465e-06 6.40274e-07 0.0416506)
(-1.93488e-06 2.2003e-07 0.0282156)
(-8.35737e-07 4.26723e-08 0.0176017)
(-2.70466e-07 -2.31514e-08 0.0092982)
(-3.94501e-08 -1.79958e-08 0.00283245)
(4.30558e-06 1.49075e-07 0.0416557)
(2.11928e-06 3.49961e-07 0.0282192)
(9.49086e-07 2.87266e-07 0.0176042)
(3.23862e-07 1.74178e-07 0.00930003)
(5.33286e-08 5.5862e-08 0.00283316)
(4.11263e-06 5.93936e-07 0.0416576)
(1.96126e-06 1.60579e-07 0.02822)
(8.54749e-07 -8.12006e-09 0.0176048)
(2.8186e-07 -5.50735e-08 0.00930047)
(4.33979e-08 -2.92452e-08 0.00283342)
(-2.3923e-06 2.05358e-06 0.0428786)
(-1.43754e-06 7.05324e-07 0.0291454)
(-8.1118e-07 1.6627e-07 0.0182268)
(-3.87009e-07 -2.54891e-08 0.00964699)
(-1.11146e-07 -3.38101e-08 0.00294444)
(-1.30259e-06 3.69375e-06 0.0417047)
(-8.39044e-07 1.58338e-06 0.0282521)
(-5.04278e-07 6.03241e-07 0.0176242)
(-2.54804e-07 1.50347e-07 0.00931047)
(-7.89785e-08 6.45498e-09 0.00283622)
(1.51048e-06 3.70737e-06 0.0417011)
(1.02083e-06 1.56641e-06 0.0282497)
(6.29038e-07 5.81556e-07 0.017623)
(3.20737e-07 1.33274e-07 0.00930953)
(9.81729e-08 -1.53479e-10 0.00283589)
(2.42186e-06 1.84656e-06 0.0428401)
(1.09072e-06 9.40499e-07 0.0291191)
(4.10044e-07 4.7162e-07 0.0182104)
(8.52821e-08 2.05548e-07 0.00963828)
(-8.27343e-09 5.493e-08 0.00294161)
(2.47339e-06 1.94555e-06 0.0428749)
(1.56096e-06 6.50968e-07 0.0291427)
(9.46394e-07 1.07739e-07 0.0182246)
(4.91751e-07 -7.71081e-08 0.00964555)
(1.53369e-07 -5.6348e-08 0.00294375)
(3.14889e-06 -1.06044e-07 0.0424737)
(1.53317e-06 -1.413e-07 0.0288092)
(6.79693e-07 -1.49205e-07 0.0179876)
(2.26344e-07 -1.19937e-07 0.00950875)
(3.9177e-08 -5.00231e-08 0.00289874)
(-2.23564e-06 6.16002e-07 0.0427575)
(-1.10142e-06 5.00982e-07 0.0290195)
(-4.80463e-07 3.57557e-07 0.0181278)
(-1.49626e-07 2.10895e-07 0.00958641)
(-1.78651e-08 7.10518e-08 0.00292351)
(2.8475e-06 2.27052e-08 0.0427923)
(1.36441e-06 -2.09709e-08 0.0290422)
(5.93749e-07 -4.29881e-08 0.0181421)
(1.89423e-07 -4.17676e-08 0.00959416)
(2.91891e-08 -1.92002e-08 0.00292598)
(-2.64138e-06 1.22209e-06 0.0424419)
(-1.36148e-06 9.9987e-07 0.0287885)
(-6.29044e-07 7.16993e-07 0.0179745)
(-2.21744e-07 4.26407e-07 0.00950163)
(-3.90201e-08 1.4447e-07 0.00289646)
(4.18903e-06 1.46314e-06 0.0416616)
(1.87864e-06 9.31714e-07 0.0282231)
(7.39235e-07 5.64945e-07 0.017607)
(1.92935e-07 2.847e-07 0.00930171)
(1.28273e-08 8.59399e-08 0.00283376)
(3.27382e-06 -2.11661e-06 0.0428513)
(1.43296e-06 -1.23639e-06 0.0291269)
(4.96261e-07 -7.17424e-07 0.0182157)
(7.49403e-08 -3.65668e-07 0.0096414)
(-2.35537e-08 -1.15303e-07 0.00294272)
(2.42925e-06 1.50295e-06 0.0418452)
(1.17094e-06 6.91134e-07 0.0283469)
(5.02731e-07 2.79572e-07 0.017683)
(1.58113e-07 7.69416e-08 0.00934098)
(2.12111e-08 5.53484e-09 0.00284549)
(-2.67458e-06 -1.39672e-06 0.041865)
(-1.2582e-06 -6.83218e-07 0.0283602)
(-5.2977e-07 -3.16791e-07 0.0176917)
(-1.60343e-07 -1.14182e-07 0.00934586)
(-2.20086e-08 -2.42395e-08 0.0028471)
(2.08783e-06 1.9999e-06 0.0418406)
(1.25687e-06 7.58417e-07 0.0283439)
(7.01977e-07 1.98024e-07 0.0176812)
(3.27715e-07 -1.76767e-08 0.0093401)
(9.11817e-08 -3.5149e-08 0.00284525)
(-2.9093e-06 -1.56026e-06 0.0418468)
(-1.72867e-06 -4.85578e-07 0.0283487)
(-9.63382e-07 -5.52847e-08 0.0176848)
(-4.52686e-07 8.20078e-08 0.00934233)
(-1.27297e-07 4.87792e-08 0.00284604)
(2.48297e-06 2.79473e-06 0.0428567)
(9.19048e-07 1.7914e-06 0.0291305)
(1.95323e-07 1.1174e-06 0.0182176)
(-7.35428e-08 5.97173e-07 0.00964208)
(-6.53884e-08 1.904e-07 0.00294286)
(1.32097e-06 5.3246e-08 0.0426891)
(8.77778e-07 6.37026e-07 0.029003)
(6.63511e-07 7.16063e-07 0.0181322)
(4.42173e-07 5.17143e-07 0.00959463)
(1.71238e-07 1.93593e-07 0.00292781)
(2.41793e-06 7.66212e-08 0.0418504)
(1.28669e-06 4.86348e-07 0.0283504)
(6.311e-07 3.7645e-07 0.0176858)
(2.39466e-07 1.96633e-07 0.00934286)
(4.88976e-08 5.00175e-08 0.00284617)
(3.16144e-06 7.71904e-07 0.0424718)
(1.57218e-06 6.65295e-07 0.0288077)
(7.18071e-07 5.0844e-07 0.0179867)
(2.52237e-07 3.21365e-07 0.00950842)
(4.84326e-08 1.14126e-07 0.00289862)
(-2.23178e-06 -1.01324e-07 0.0427562)
(-1.09329e-06 -1.19655e-07 0.0290186)
(-4.72826e-07 -1.13305e-07 0.0181272)
(-1.44545e-07 -8.23452e-08 0.00958607)
(-1.59825e-08 -3.2575e-08 0.0029234)
(2.84873e-06 5.05319e-07 0.0427909)
(1.37313e-06 4.32572e-07 0.0290412)
(6.03294e-07 3.21392e-07 0.0181414)
(1.96018e-07 1.9586e-07 0.0095938)
(3.16408e-08 6.75804e-08 0.00292587)
(-2.63238e-06 -5.74103e-07 0.0424402)
(-1.3305e-06 -5.10913e-07 0.0287871)
(-5.98008e-07 -3.9742e-07 0.0179737)
(-2.00728e-07 -2.54982e-07 0.0095013)
(-3.15755e-08 -9.21301e-08 0.00289634)
(4.61025e-06 -6.37082e-07 0.041659)
(2.20235e-06 -2.24438e-07 0.0282217)
(9.60406e-07 -4.71821e-08 0.0176062)
(3.1804e-07 2.08449e-08 0.00930101)
(5.30982e-08 1.58032e-08 0.00283345)
(2.24738e-06 6.49421e-07 0.0427576)
(1.10957e-06 5.14194e-07 0.0290192)
(4.8397e-07 3.59947e-07 0.0181278)
(1.50416e-07 2.09589e-07 0.00958644)
(1.78275e-08 6.99515e-08 0.00292324)
(2.67646e-06 1.20311e-06 0.0424413)
(1.37375e-06 9.5912e-07 0.0287876)
(6.29669e-07 6.72736e-07 0.0179741)
(2.18814e-07 3.94071e-07 0.00950124)
(3.72703e-08 1.32096e-07 0.00289615)
(2.24005e-06 -7.32351e-08 0.0427566)
(1.09873e-06 -1.06965e-07 0.0290186)
(4.74688e-07 -1.0921e-07 0.0181271)
(1.44733e-07 -8.15075e-08 0.00958588)
(1.59365e-08 -3.24639e-08 0.00292315)
(2.64815e-06 -5.31539e-07 0.0424405)
(1.33731e-06 -4.84161e-07 0.028787)
(5.99965e-07 -3.79682e-07 0.0179734)
(2.00368e-07 -2.44183e-07 0.00950089)
(3.09794e-08 -8.82381e-08 0.00289612)
(-2.80287e-06 2.5678e-06 0.0427051)
(-1.52871e-06 1.0496e-06 0.0290104)
(-8.1985e-07 2.81822e-07 0.0181354)
(-3.79931e-07 -3.13518e-08 0.00959616)
(-1.05227e-07 -6.02394e-08 0.00292818)
(-2.72625e-06 3.30884e-06 0.0418672)
(-1.39492e-06 1.54699e-06 0.0283602)
(-5.65584e-07 6.03698e-07 0.0176912)
(-1.57952e-07 1.81149e-07 0.00934562)
(-1.13399e-08 2.45274e-08 0.00284714)
(3.21579e-06 -1.53811e-06 0.0418608)
(1.98376e-06 -4.42127e-07 0.0283591)
(1.15607e-06 -4.25741e-09 0.0176919)
(5.66653e-07 1.29813e-07 0.00934651)
(1.65484e-07 7.00979e-08 0.00284756)
(3.9348e-06 -1.39123e-06 0.0428789)
(2.5313e-06 -2.55278e-07 0.0291467)
(1.53982e-06 1.45672e-07 0.0182283)
(7.98792e-07 2.14334e-07 0.00964809)
(2.46086e-07 9.61213e-08 0.00294488)
(-4.70081e-07 -2.14892e-06 0.0424496)
(-5.13794e-07 -1.00954e-06 0.0287931)
(-4.93383e-07 -4.75139e-07 0.0179776)
(-3.60814e-07 -1.85612e-07 0.00950343)
(-1.4187e-07 -4.73407e-08 0.00289701)
(1.85311e-07 1.58368e-06 0.0427341)
(1.48959e-07 6.70053e-07 0.029007)
(1.30126e-07 2.72705e-07 0.0181208)
(9.33834e-08 8.76769e-08 0.00958279)
(3.66349e-08 1.8019e-08 0.00292239)
(-3.05063e-07 -1.46229e-06 0.0427568)
(-3.15351e-07 -6.13975e-07 0.0290192)
(-2.82686e-07 -2.67991e-07 0.0181278)
(-1.96788e-07 -9.40802e-08 0.00958641)
(-7.50867e-08 -2.31085e-08 0.00292351)
(5.91772e-07 2.17038e-06 0.0424388)
(4.69714e-07 1.01413e-06 0.0287874)
(3.92074e-07 4.53292e-07 0.0179743)
(2.73258e-07 1.65656e-07 0.00950166)
(1.05183e-07 3.76377e-08 0.00289643)
(2.38093e-06 -3.68052e-06 0.0416849)
(1.56553e-06 -1.51286e-06 0.0282404)
(9.39899e-07 -5.342e-07 0.017618)
(4.7128e-07 -1.03148e-07 0.00930761)
(1.40799e-07 7.7945e-09 0.00283548)
(5.26525e-07 -2.10901e-06 0.0424501)
(5.5634e-07 -9.90528e-07 0.0287935)
(5.14871e-07 -4.67443e-07 0.0179781)
(3.6747e-07 -1.83207e-07 0.00950365)
(1.42032e-07 -4.69692e-08 0.00289699)
(-1.83674e-07 1.59598e-06 0.0427345)
(-1.66374e-07 6.77102e-07 0.0290072)
(-1.54826e-07 2.76285e-07 0.0181212)
(-1.13616e-07 8.94196e-08 0.00958318)
(-4.50283e-08 1.85435e-08 0.00292243)
(3.41765e-07 -1.46027e-06 0.0427571)
(3.33276e-07 -6.13486e-07 0.0290194)
(2.84239e-07 -2.67634e-07 0.0181282)
(1.91548e-07 -9.37462e-08 0.00958678)
(7.14151e-08 -2.29304e-08 0.00292355)
(-5.45089e-07 2.1639e-06 0.0424383)
(-4.43248e-07 1.01027e-06 0.0287872)
(-3.81978e-07 4.51681e-07 0.0179745)
(-2.71865e-07 1.65228e-07 0.00950174)
(-1.06043e-07 3.7642e-08 0.00289637)
(-2.01262e-06 -3.7456e-06 0.0416823)
(-1.23325e-06 -1.60885e-06 0.0282385)
(-6.88942e-07 -6.21082e-07 0.017617)
(-3.2011e-07 -1.60011e-07 0.00930681)
(-8.94883e-08 -1.22831e-08 0.00283519)
(-3.58751e-06 -1.78632e-06 0.0428755)
(-2.24462e-06 -5.15034e-07 0.0291442)
(-1.33373e-06 -8.16718e-09 0.0182262)
(-6.80349e-07 1.38006e-07 0.00964674)
(-2.07983e-07 7.46141e-08 0.00294421)
(2.15639e-06 1.78905e-06 0.0426959)
(1.00722e-06 8.63096e-07 0.0290057)
(4.004e-07 3.7138e-07 0.0181328)
(1.05649e-07 1.21592e-07 0.00959466)
(5.49803e-09 1.95632e-08 0.00292762)
(2.1693e-06 1.81298e-06 0.0427037)
(1.25475e-06 6.5792e-07 0.0290107)
(6.72369e-07 1.35846e-07 0.0181359)
(3.02785e-07 -5.0676e-08 0.00959613)
(8.17581e-08 -4.66469e-08 0.00292801)
(-1.73671e-07 -7.3415e-06 0.0427886)
(2.81778e-08 -3.77986e-06 0.0291043)
(3.69725e-07 -1.61213e-06 0.0182096)
(4.06212e-07 -5.48684e-07 0.00964134)
(1.90448e-07 -9.10439e-08 0.00294364)
(4.22956e-06 -1.22193e-07 0.0426693)
(2.10684e-06 -1.80074e-07 0.0290191)
(9.29081e-07 -2.17272e-07 0.0181554)
(3.17837e-07 -1.81778e-07 0.00961238)
(5.90476e-08 -7.63912e-08 0.0029348)
(-3.81864e-06 1.66265e-06 0.0426462)
(-2.05307e-06 1.42399e-06 0.0290031)
(-9.93203e-07 1.0734e-06 0.0181449)
(-3.88104e-07 6.60678e-07 0.00960651)
(-8.49769e-08 2.2949e-07 0.00293288)
(-1.99334e-06 1.1206e-06 0.0426834)
(-9.08939e-07 5.22996e-07 0.0289977)
(-3.94002e-07 1.57892e-07 0.0181281)
(-1.44162e-07 1.92132e-09 0.00959223)
(-3.24668e-08 -1.84518e-08 0.00292697)
(-1.33017e-06 5.71924e-07 0.0418081)
(-7.07089e-07 3.41748e-07 0.0283238)
(-3.05349e-07 2.07061e-07 0.0176697)
(-7.37076e-08 1.04018e-07 0.00933443)
(1.79702e-09 3.34044e-08 0.00284361)
(2.61936e-06 -1.4057e-06 0.0418421)
(1.15972e-06 -7.11375e-07 0.0283441)
(4.32323e-07 -3.5381e-07 0.0176819)
(1.03743e-07 -1.51809e-07 0.00934096)
(4.2269e-09 -4.1858e-08 0.00284567)
(-2.79807e-06 -1.56387e-06 0.0427173)
(-1.35894e-06 -7.45004e-07 0.0290207)
(-5.80292e-07 -3.07053e-07 0.0181426)
(-1.85265e-07 -8.87808e-08 0.00960012)
(-2.87538e-08 -1.22311e-08 0.0029294)
(-3.06269e-06 -1.51071e-06 0.0427205)
(-1.7871e-06 -4.54784e-07 0.0290229)
(-9.60409e-07 -1.15333e-08 0.0181441)
(-4.34844e-07 1.1495e-07 0.00960074)
(-1.18521e-07 6.2617e-08 0.00292952)
(-3.38758e-06 -3.95738e-07 0.0426915)
(-2.08236e-06 3.25867e-07 0.0290041)
(-1.20135e-06 5.1031e-07 0.0181326)
(-6.02753e-07 3.77246e-07 0.00959467)
(-1.79525e-07 1.37101e-07 0.00292753)
(-5.08665e-06 -9.81143e-07 0.0418582)
(-3.53258e-06 4.12648e-07 0.0283571)
(-2.26506e-06 8.08131e-07 0.0176904)
(-1.23245e-06 6.35518e-07 0.00934551)
(-3.90712e-07 2.43645e-07 0.00284714)
(4.77668e-07 1.90277e-06 0.0418845)
(-2.28786e-07 1.27237e-06 0.0283713)
(-5.18548e-07 8.99271e-07 0.0176984)
(-4.80831e-07 5.17265e-07 0.00934955)
(-2.05259e-07 1.7648e-07 0.00284837)
(-2.81073e-06 -1.44285e-07 0.0426876)
(-1.73781e-06 3.80619e-07 0.0290019)
(-9.6458e-07 4.2201e-07 0.0181315)
(-4.36318e-07 2.93437e-07 0.00959414)
(-1.13165e-07 1.04094e-07 0.00292739)
(-3.33877e-06 -1.53645e-07 0.0418175)
(-1.92044e-06 4.14215e-07 0.028329)
(-1.0195e-06 4.70697e-07 0.0176727)
(-4.44264e-07 3.35232e-07 0.00933568)
(-1.11468e-07 1.22705e-07 0.00284389)
(2.18375e-06 1.66157e-06 0.0418397)
(9.04797e-07 1.01947e-06 0.028343)
(2.72164e-07 6.27014e-07 0.0176815)
(2.44484e-09 3.24698e-07 0.00934052)
(-3.25975e-08 1.01373e-07 0.00284545)
(1.78607e-06 1.41139e-06 0.0427278)
(8.48032e-07 7.39557e-07 0.0290258)
(3.1025e-07 3.69002e-07 0.0181455)
(6.12839e-08 1.47314e-07 0.00960139)
(-4.38189e-09 3.4697e-08 0.00292961)
(1.6177e-06 1.72282e-06 0.0427248)
(5.47646e-07 1.10969e-06 0.0290239)
(3.11362e-08 7.09441e-07 0.0181446)
(-1.30886e-07 3.85653e-07 0.00960103)
(-7.65029e-08 1.26553e-07 0.00292954)
(4.43206e-06 9.7245e-07 0.0426674)
(2.2802e-06 8.61894e-07 0.0290177)
(1.05338e-06 6.91832e-07 0.0181547)
(3.89995e-07 4.50906e-07 0.00961199)
(8.25526e-08 1.62914e-07 0.00293449)
(-3.65427e-06 -8.18164e-07 0.0426442)
(-1.91363e-06 -7.7613e-07 0.0290017)
(-8.91471e-07 -6.42898e-07 0.0181442)
(-3.28615e-07 -4.2614e-07 0.00960609)
(-6.54852e-08 -1.56825e-07 0.00293256)
(3.84967e-06 1.58032e-06 0.0426465)
(2.04354e-06 1.3275e-06 0.0290035)
(9.73002e-07 9.79794e-07 0.0181453)
(3.71275e-07 5.94319e-07 0.00960677)
(7.8059e-08 2.04578e-07 0.00293289)
(3.63124e-06 -7.49478e-07 0.0426472)
(1.89313e-06 -7.24113e-07 0.0290038)
(8.77234e-07 -6.04162e-07 0.0181454)
(3.20551e-07 -4.01749e-07 0.00960694)
(6.28775e-08 -1.48111e-07 0.00293302)
(2.22621e-06 -1.74485e-06 0.0427134)
(9.15547e-07 -9.78569e-07 0.0290168)
(3.00368e-07 -5.01238e-07 0.01814)
(4.54174e-08 -2.07496e-07 0.00959865)
(-1.0758e-08 -5.13574e-08 0.00292902)
(2.71966e-06 -1.84391e-06 0.0427134)
(1.48163e-06 -7.41802e-07 0.0290183)
(7.65407e-07 -1.95676e-07 0.0181414)
(3.38915e-07 2.47638e-08 0.00959973)
(9.32004e-08 3.80102e-08 0.0029294)
(1.83749e-07 -3.54718e-06 0.0427793)
(-5.55655e-08 -1.75686e-06 0.029093)
(-2.24973e-07 -7.95273e-07 0.018201)
(-2.31024e-07 -2.93928e-07 0.00963631)
(-1.04577e-07 -6.6742e-08 0.002942)
(2.49043e-07 3.49839e-06 0.0427899)
(2.2406e-07 1.70614e-06 0.0290996)
(2.4368e-07 7.52604e-07 0.0182045)
(1.9862e-07 2.65513e-07 0.00963785)
(8.20843e-08 5.38296e-08 0.00294238)
(-8.25538e-09 -3.48257e-06 0.0427779)
(2.15047e-07 -1.73954e-06 0.0290923)
(3.38733e-07 -8.01726e-07 0.0182007)
(2.9516e-07 -3.04032e-07 0.00963603)
(1.24787e-07 -7.1502e-08 0.00294183)
(-1.97493e-07 3.48205e-06 0.0427863)
(-1.86384e-07 1.69341e-06 0.0290977)
(-2.26891e-07 7.46464e-07 0.0182035)
(-1.95715e-07 2.63962e-07 0.00963723)
(-8.35475e-08 5.39823e-08 0.00294211)
(-2.88518e-07 4.21076e-07 0.0607546)
(3.86935e-06 3.96612e-06 0.0606486)
(0.000100855 0.000113448 0.127696)
(7.42077e-06 7.81438e-06 0.0836382)
(5.58304e-06 6.19005e-06 0.0834198)
(1.20189e-05 -3.54722e-07 0.0958844)
(9.52791e-06 2.20119e-06 0.070784)
(3.20618e-05 -1.00688e-06 0.113984)
(1.70951e-06 5.56083e-06 0.13357)
(2.6797e-05 4.21318e-06 0.0977258)
(6.03449e-06 3.22429e-06 0.138974)
(1.20106e-05 9.26392e-07 0.0958834)
(9.92896e-06 -1.2759e-06 0.0707785)
(3.20956e-05 1.52298e-06 0.113981)
(5.03415e-07 -2.21237e-06 0.133633)
(3.28224e-06 -1.62761e-06 0.138954)
(2.69498e-05 -2.92835e-06 0.0977224)
(6.76685e-07 -1.8808e-06 0.133625)
(-2.67436e-05 -3.43746e-06 0.0977413)
(-9.80644e-06 -1.2769e-06 0.0707916)
(4.80903e-06 -2.9306e-06 0.0606399)
(0.000106428 -0.000106634 0.127593)
(7.09071e-06 -3.22551e-06 0.0834212)
(1.32698e-05 -5.03137e-06 0.0838071)
(5.96261e-06 -3.22405e-06 0.060862)
(-1.54714e-06 -2.95264e-05 0.115002)
(-5.29622e-06 -7.53643e-07 0.133889)
(-1.91934e-06 1.91475e-06 0.139184)
(9.22321e-06 -2.71245e-05 0.0982957)
(1.26845e-06 -2.95065e-05 0.115002)
(4.05426e-06 -5.06618e-07 0.133888)
(1.15262e-06 3.05528e-06 0.139181)
(-8.69159e-06 -2.61506e-05 0.0982832)
(-2.2935e-07 -1.64813e-05 0.0968255)
(3.84025e-06 -1.11703e-05 0.0712055)
(1.42355e-07 -1.64569e-05 0.0968246)
(-3.64542e-06 -1.09115e-05 0.0712009)
(-0.000106004 -0.000109384 0.127591)
(-6.02787e-06 -5.47996e-06 0.0834702)
(-9.9048e-06 -5.01241e-06 0.0837694)
(-4.21948e-06 -3.10794e-06 0.0606561)
(-5.40719e-06 -3.31614e-06 0.0608558)
(-3.42213e-07 2.08277e-06 0.0594641)
(2.50291e-06 2.40727e-06 0.0594088)
(5.03476e-06 4.9982e-06 0.0763071)
(-6.2109e-07 5.63719e-06 0.0702322)
(2.002e-05 3.12292e-05 0.106518)
(9.57128e-06 1.9505e-05 0.0947222)
(4.87239e-06 2.54942e-06 0.0699951)
(3.08097e-05 1.51579e-05 0.106258)
(1.9647e-05 6.35186e-06 0.0944903)
(7.49025e-08 2.30772e-06 0.0660653)
(1.29443e-05 -1.09967e-06 0.0924806)
(4.15944e-06 -5.50607e-08 0.0685543)
(-6.56376e-06 1.00264e-06 0.0958966)
(4.86727e-06 -2.21306e-07 0.0660818)
(-7.47707e-06 2.65228e-06 0.0925067)
(6.70792e-07 9.67781e-07 0.0685327)
(-4.91242e-07 1.99889e-06 0.0585888)
(1.07171e-05 -5.20969e-07 0.0818059)
(-4.89057e-06 2.13361e-06 0.0708143)
(5.65594e-06 -3.97006e-07 0.0586199)
(-5.99568e-06 1.50442e-06 0.0818339)
(-3.54885e-08 -1.60889e-06 0.0660617)
(4.15584e-06 6.55949e-07 0.0685516)
(1.27338e-05 1.84772e-06 0.0924762)
(-6.53869e-06 -4.48548e-07 0.0958959)
(4.79677e-06 9.8311e-07 0.0660777)
(6.5876e-07 -4.15011e-07 0.0685306)
(-7.59101e-06 -1.94128e-06 0.0925025)
(-4.30822e-07 -1.16189e-06 0.058586)
(1.09284e-05 1.46481e-06 0.0817996)
(-4.55153e-06 -1.23414e-06 0.070808)
(5.77513e-06 1.29447e-06 0.0586169)
(-5.73271e-06 -5.58549e-07 0.0818279)
(3.81695e-07 -9.81083e-07 0.05859)
(-1.09699e-05 1.57027e-06 0.0818074)
(4.31672e-06 -1.02146e-06 0.0708212)
(-5.80183e-06 1.40201e-06 0.0586209)
(5.61231e-06 -3.49672e-07 0.0818354)
(2.28773e-07 7.49971e-07 0.0606123)
(-2.30856e-06 3.92922e-06 0.0762646)
(3.21683e-06 -3.53726e-06 0.0594058)
(2.21693e-06 -2.93596e-06 0.0594264)
(7.72721e-06 -2.28351e-06 0.076233)
(3.39788e-07 1.04542e-06 0.0593486)
(-3.95061e-08 -6.86929e-07 0.0594249)
(-1.24498e-05 3.40767e-06 0.094498)
(4.57011e-06 -3.66128e-06 0.0700297)
(3.30124e-05 -1.36825e-05 0.106279)
(-2.89414e-06 4.23916e-06 0.0834368)
(-2.39446e-05 1.49942e-05 0.106375)
(2.09413e-05 -1.01912e-05 0.0944238)
(-1.91611e-06 -1.0799e-06 0.0699989)
(-7.57457e-06 1.65186e-05 0.0947517)
(4.40184e-06 -3.69798e-06 0.0702129)
(2.19212e-05 -3.17937e-05 0.106598)
(-5.01691e-06 2.96792e-06 0.0838479)