/*--------------------------------*- C++ -*----------------------------------*\
| =========                 |                                                 |
| \\      /  F ield         | OpenFOAM: The Open Source CFD Toolbox           |
|  \\    /   O peration     | Version:  2206                                  |
|   \\  /    A nd           | Website:  www.openfoam.com                      |
|    \\/     M anipulation  |                                                 |
\*---------------------------------------------------------------------------*/
FoamFile
{
    version     2.0;
    format      ascii;
    arch        "LSB;label=32;scalar=64";
    class       volScalarField;
    location    "40";
    object      nut;
}
// * * * * * * * * * * * * * * * * * * * * * * * * * * * * * * * * * * * * * //

dimensions      [0 2 -1 0 0 0 0];

internalField   nonuniform List<scalar> 
66701
(
1.32634e-08
1.1338e-08
2.89411e-08
6.29334e-08
1.82446e-08
1.27664e-07
1.04174e-07
2.14553e-08
1.15791e-08
2.95847e-08
6.41785e-08
1.86219e-08
1.27912e-07
2.15687e-08
1.06144e-07
1.34615e-08
2.21462e-09
2.48554e-10
1.90377e-11
4.21492e-12
4.04111e-12
2.1648e-09
2.41916e-10
1.86213e-11
4.21955e-12
4.05754e-12
2.12802e-09
2.35883e-10
1.76759e-11
3.74689e-12
3.57172e-12
2.17848e-09
2.41321e-10
1.80218e-11
3.75672e-12
3.57261e-12
2.25077e-09
2.52698e-10
1.93129e-11
4.22556e-12
4.04477e-12
2.21105e-09
2.47095e-10
1.89503e-11
4.22934e-12
4.05908e-12
1.90239e-09
2.11781e-10
1.63855e-11
3.88842e-12
3.76018e-12
1.94447e-09
2.17693e-10
1.68869e-11
4.01234e-12
3.88176e-12
1.9398e-09
2.159e-10
1.66471e-11
3.89696e-12
3.76206e-12
1.95627e-09
2.19189e-10
1.69885e-11
4.01557e-12
3.88245e-12
1.34032e-08
1.32156e-08
9.42168e-07
6.85492e-08
6.80931e-08
2.94431e-08
9.54975e-07
1.47612e-07
1.27649e-07
2.87915e-08
4.41975e-07
9.45555e-07
1.45512e-07
1.17535e-06
1.28038e-07
2.93454e-08
4.46121e-07
9.46631e-07
1.17724e-06
1.48145e-07
1.34442e-08
9.43774e-07
6.85062e-08
1.32133e-08
3.7673e-08
1.12954e-08
1.11956e-08
3.79184e-08
1.13057e-08
1.12119e-08
1.15355e-07
2.71177e-08
2.58961e-07
7.05864e-08
1.15282e-07
2.73935e-08
2.59299e-07
1.153e-07
2.65909e-08
2.5341e-07
6.98443e-08
1.15046e-07
2.68433e-08
2.53618e-07
1.83178e-08
1.03747e-07
2.13336e-08
1.28535e-07
1.84518e-08
1.04359e-07
2.13914e-08
1.1354e-08
6.23831e-08
2.90534e-08
1.1388e-08
6.29773e-08
1.86279e-08
2.15762e-08
1.06503e-07
1.29229e-07
1.87504e-08
2.16893e-08
1.06827e-07
1.15979e-08
6.36811e-08
2.95983e-08
1.16426e-08
6.44669e-08
1.34822e-08
3.87189e-08
1.15789e-08
1.16386e-08
1.17543e-07
2.57285e-07
7.06368e-08
2.57532e-07
2.73596e-08
1.19276e-07
6.95712e-08
2.76782e-08
2.60502e-07
1.3417e-08
1.25433e-06
1.22648e-06
1.21635e-06
1.1037e-06
1.26226e-06
1.23307e-06
1.22383e-06
1.12349e-06
1.21628e-06
1.12416e-06
1.22189e-06
1.12776e-06
3.16193e-07
9.26033e-07
5.54148e-07
5.51649e-07
3.18948e-07
5.48909e-07
5.42457e-07
6.70774e-07
2.58981e-07
4.36004e-07
1.50815e-07
4.40501e-07
6.6058e-07
2.64246e-07
7.22043e-07
3.7354e-07
8.03741e-07
4.41771e-07
7.3407e-07
3.72182e-07
7.8888e-07
6.4249e-07
2.53152e-07
4.28462e-07
1.45376e-07
4.23676e-07
6.5177e-07
2.52018e-07
7.27532e-07
8.05679e-07
3.79122e-07
4.44628e-07
7.39227e-07
7.91486e-07
3.7766e-07
6.51289e-07
2.58196e-07
4.34814e-07
1.49262e-07
6.60601e-07
2.58303e-07
4.31743e-07
3.21913e-07
9.27179e-07
5.52992e-07
5.45292e-07
5.5608e-07
2.23853e-09
2.5149e-10
1.9231e-11
4.22173e-12
4.04298e-12
2.21736e-09
2.48924e-10
1.90666e-11
4.21519e-12
4.0404e-12
2.15973e-09
2.39427e-10
1.79012e-11
3.75229e-12
3.57091e-12
2.13035e-09
2.36312e-10
1.77065e-11
3.74668e-12
3.57058e-12
2.18053e-09
2.41914e-10
1.80629e-11
3.75742e-12
3.57217e-12
2.25484e-09
2.5342e-10
1.93612e-11
4.2268e-12
4.04468e-12
2.21268e-09
2.48741e-10
1.90648e-11
4.22517e-12
4.05173e-12
1.90517e-09
2.11995e-10
1.64046e-11
3.89545e-12
3.76717e-12
1.9443e-09
2.17678e-10
1.68896e-11
4.01199e-12
3.88129e-12
1.90221e-09
2.11722e-10
1.63818e-11
3.88769e-12
3.75954e-12
1.94008e-09
2.17599e-10
1.68942e-11
4.01884e-12
3.88863e-12
2.13112e-09
2.36374e-10
1.77142e-11
3.75675e-12
3.58133e-12
1.94408e-09
2.16555e-10
1.6694e-11
3.90492e-12
3.76941e-12
1.96299e-09
2.20102e-10
1.7049e-11
4.01689e-12
3.88209e-12
1.94773e-09
2.16868e-10
1.67089e-11
3.89842e-12
3.76188e-12
1.96192e-09
2.19939e-10
1.70381e-11
4.02328e-12
3.88943e-12
2.17614e-09
2.41674e-10
1.80538e-11
3.76708e-12
3.58305e-12
2.2535e-09
2.53176e-10
1.93505e-11
4.23541e-12
4.0546e-12
2.16026e-09
2.39613e-10
1.79638e-11
3.80196e-12
3.62355e-12
2.2217e-09
2.4968e-10
1.91224e-11
4.22379e-12
4.04851e-12
1.9953e-09
2.23234e-10
1.74215e-11
4.17485e-12
4.0422e-12
2.13409e-09
2.36666e-10
1.77721e-11
3.78858e-12
3.61386e-12
2.13175e-09
2.36648e-10
1.77821e-11
3.8015e-12
3.62821e-12
1.9837e-09
2.21873e-10
1.73309e-11
4.16894e-12
4.0382e-12
2.11067e-09
2.341e-10
1.76078e-11
3.78247e-12
3.6123e-12
2.11359e-09
2.34253e-10
1.7624e-11
3.79159e-12
3.62162e-12
1.99332e-09
2.23221e-10
1.74276e-11
4.18438e-12
4.0523e-12
1.98316e-09
2.22044e-10
1.73513e-11
4.1803e-12
4.05041e-12
2.16792e-09
2.42382e-10
1.86566e-11
4.23152e-12
4.06988e-12
2.167e-09
2.42175e-10
1.86373e-11
4.21956e-12
4.05714e-12
2.21502e-09
2.47827e-10
1.90041e-11
4.24183e-12
4.07127e-12
2.21848e-09
2.4805e-10
1.90112e-11
4.23072e-12
4.05882e-12
2.1618e-09
2.39721e-10
1.79736e-11
3.80387e-12
3.62508e-12
2.05182e-09
2.2952e-10
1.78287e-11
4.19419e-12
4.05175e-12
2.05514e-09
2.30002e-10
1.78608e-11
4.19562e-12
4.05226e-12
1.00279e-06
9.54867e-07
1.3238e-06
9.73208e-07
9.85574e-07
9.50074e-07
1.30891e-06
9.65351e-07
9.7916e-07
9.46967e-07
1.29641e-06
9.58695e-07
9.75772e-07
9.44344e-07
1.28292e-06
9.55701e-07
9.7312e-07
9.44753e-07
1.27211e-06
9.54386e-07
9.71179e-07
9.41985e-07
1.26772e-06
9.53215e-07
9.69236e-07
9.41414e-07
1.26303e-06
9.52473e-07
9.69081e-07
9.39942e-07
1.25908e-06
9.51957e-07
9.68279e-07
9.39254e-07
1.25857e-06
9.51487e-07
9.67524e-07
9.40269e-07
1.2585e-06
9.5175e-07
9.66683e-07
9.42332e-07
1.25897e-06
9.51062e-07
9.66009e-07
9.41023e-07
1.25959e-06
9.50901e-07
9.65815e-07
9.41578e-07
1.25699e-06
9.50488e-07
9.65006e-07
9.42283e-07
1.25563e-06
9.51507e-07
9.66827e-07
9.43322e-07
1.25183e-06
9.51686e-07
9.66637e-07
9.42438e-07
1.25568e-06
9.59092e-07
9.72438e-07
9.51637e-07
9.54406e-07
9.38995e-07
9.94694e-07
9.91547e-07
9.89837e-07
9.34335e-07
9.53033e-07
9.3518e-07
9.86224e-07
9.85243e-07
9.81343e-07
9.79654e-07
9.53154e-07
9.32579e-07
9.65236e-07
9.62622e-07
9.61737e-07
9.60274e-07
9.66213e-07
9.67204e-07
9.60267e-07
9.55361e-07
9.38463e-07
9.88034e-07
9.80608e-07
9.82238e-07
9.30632e-07
9.51764e-07
9.34635e-07
9.79766e-07
9.7755e-07
9.75968e-07
9.71647e-07
9.48436e-07
9.2981e-07
9.60987e-07
9.59881e-07
9.59841e-07
9.57994e-07
9.59062e-07
9.60548e-07
9.55667e-07
9.55246e-07
9.36088e-07
9.80425e-07
9.77205e-07
9.75769e-07
9.28472e-07
9.5119e-07
9.32287e-07
9.75021e-07
9.7059e-07
9.7185e-07
9.67701e-07
9.46376e-07
9.31156e-07
9.58983e-07
9.57641e-07
9.57002e-07
9.55422e-07
9.54902e-07
9.56564e-07
9.53112e-07
9.52789e-07
9.33937e-07
9.74128e-07
9.73696e-07
9.7125e-07
9.27959e-07
9.48539e-07
9.30548e-07
9.71263e-07
9.67388e-07
9.69315e-07
9.65794e-07
9.47655e-07
9.31913e-07
9.56677e-07
9.54734e-07
9.54613e-07
9.53366e-07
9.5273e-07
9.55175e-07
9.51116e-07
9.50308e-07
9.32789e-07
9.70285e-07
9.71615e-07
9.68861e-07
9.25646e-07
9.47278e-07
9.30593e-07
9.68694e-07
9.65521e-07
9.68128e-07
9.64724e-07
9.48489e-07
9.31537e-07
9.54518e-07
9.53376e-07
9.5367e-07
9.52824e-07
9.50862e-07
9.53388e-07
9.48835e-07
9.4982e-07
9.33517e-07
9.69115e-07
9.70103e-07
9.66976e-07
9.25295e-07
9.46446e-07
9.28381e-07
9.67791e-07
9.65241e-07
9.66567e-07
9.65067e-07
9.47913e-07
9.30928e-07
9.53387e-07
9.5203e-07
9.51889e-07
9.51553e-07
9.4842e-07
9.52795e-07
9.46878e-07
9.50488e-07
9.32788e-07
9.67101e-07
9.69157e-07
9.64861e-07
9.2376e-07
9.44538e-07
9.28858e-07
9.66287e-07
9.65257e-07
9.65489e-07
9.64246e-07
9.47045e-07
9.29616e-07
9.52116e-07
9.51476e-07
9.51121e-07
9.50929e-07
9.4674e-07
9.5189e-07
9.4581e-07
9.49398e-07
9.30181e-07
9.64894e-07
9.69118e-07
9.63837e-07
9.22708e-07
9.45075e-07
9.30471e-07
9.65971e-07
9.64209e-07
9.64778e-07
9.63921e-07
9.4678e-07
9.28677e-07
9.5067e-07
9.50694e-07
9.49965e-07
9.5026e-07
9.45791e-07
9.51287e-07
9.45476e-07
9.4676e-07
9.30286e-07
9.64909e-07
9.68456e-07
9.65093e-07
9.24125e-07
9.47293e-07
9.28223e-07
9.65291e-07
9.63288e-07
9.64967e-07
9.62653e-07
9.44788e-07
9.27624e-07
9.494e-07
9.50954e-07
9.48985e-07
9.50975e-07
9.46531e-07
9.51726e-07
9.4601e-07
9.46761e-07
9.30841e-07
9.64553e-07
9.66649e-07
9.63973e-07
9.26052e-07
9.45288e-07
9.25373e-07
9.64573e-07
9.62945e-07
9.63825e-07
9.62458e-07
9.44176e-07
9.26791e-07
9.49493e-07
9.51194e-07
9.47707e-07
9.49951e-07
9.46473e-07
9.51522e-07
9.466e-07
9.47548e-07
9.30284e-07
9.6438e-07
9.66211e-07
9.63868e-07
9.2431e-07
9.41797e-07
9.25261e-07
9.64144e-07
9.62347e-07
9.6345e-07
9.61751e-07
9.43122e-07
9.26389e-07
9.4826e-07
9.50361e-07
9.47313e-07
9.49095e-07
9.47148e-07
9.50133e-07
9.46714e-07
9.47076e-07
9.29717e-07
9.64222e-07
9.65602e-07
9.64e-07
9.25026e-07
9.42309e-07
9.2565e-07
9.64309e-07
9.62944e-07
9.6293e-07
9.62236e-07
9.43737e-07
9.25199e-07
9.47472e-07
9.50003e-07
9.46783e-07
9.49666e-07
9.47717e-07
9.50107e-07
9.4682e-07
9.46328e-07
9.28522e-07
9.64513e-07
9.6467e-07
9.64257e-07
9.25555e-07
9.43135e-07
9.26331e-07
9.63828e-07
9.63486e-07
9.63214e-07
9.62888e-07
9.42189e-07
9.28146e-07
9.47515e-07
9.51133e-07
9.46593e-07
9.49969e-07
9.47945e-07
9.50369e-07
9.46906e-07
9.45469e-07
9.29944e-07
9.65523e-07
9.6561e-07
9.65785e-07
9.26262e-07
9.43099e-07
9.27856e-07
9.64518e-07
9.64966e-07
9.62905e-07
9.64425e-07
9.44215e-07
9.30277e-07
9.4806e-07
9.5101e-07
9.46426e-07
9.48767e-07
9.48191e-07
9.50314e-07
9.4566e-07
9.47236e-07
9.3087e-07
9.66096e-07
9.66472e-07
9.65e-07
9.26e-07
9.40852e-07
9.34473e-07
9.65379e-07
9.67619e-07
9.52758e-07
9.5418e-07
9.43723e-07
9.35355e-07
9.48402e-07
9.50777e-07
9.50545e-07
9.5266e-07
9.47921e-07
9.54259e-07
9.49308e-07
9.47027e-07
9.36256e-07
9.65699e-07
9.68169e-07
9.67204e-07
9.32495e-07
9.48025e-07
9.41558e-07
9.55379e-07
9.56696e-07
9.54271e-07
9.54745e-07
9.70723e-07
1.36635e-08
1.378e-08
4.83152e-07
1.26538e-06
1.51213e-07
1.00446e-06
1.54027e-07
4.80121e-07
1.26757e-06
6.84497e-08
6.89489e-08
9.36786e-07
6.88924e-08
6.86328e-08
1.39194e-07
3.01424e-08
3.04021e-08
1.37642e-07
1.3516e-08
1.35421e-08
1.30288e-07
2.94946e-08
2.97101e-08
1.29466e-07
1.32121e-06
1.31543e-06
1.32483e-06
1.31128e-06
1.30717e-06
1.3048e-06
1.30986e-06
4.52307e-07
1.4897e-07
1.22278e-06
9.70892e-07
1.49832e-07
1.22022e-06
4.55307e-07
1.37148e-08
1.37893e-08
4.85178e-07
1.24597e-06
1.54108e-07
9.83804e-07
4.86049e-07
1.24046e-06
1.5527e-07
6.79744e-08
6.96508e-08
9.31597e-07
6.82778e-08
6.96536e-08
1.39881e-07
3.04445e-08
1.39909e-07
3.06376e-08
1.35917e-08
1.36326e-08
1.33573e-07
2.98682e-08
1.32592e-07
3.0083e-08
1.29922e-06
1.29729e-06
1.30299e-06
1.29565e-06
1.2874e-06
1.29072e-06
1.29064e-06
4.51341e-07
1.48096e-07
1.21075e-06
9.63346e-07
4.54509e-07
1.5026e-07
1.20847e-06
1.38823e-08
1.38015e-08
4.81918e-07
1.23346e-06
1.54742e-07
9.7845e-07
4.84055e-07
1.23138e-06
1.54154e-07
6.81369e-08
6.95133e-08
9.29779e-07
6.82167e-08
6.98727e-08
1.3908e-07
3.02724e-08
1.39237e-07
3.03525e-08
1.37395e-08
1.3761e-08
1.32104e-07
3.01071e-08
1.33505e-07
2.97635e-08
1.2821e-06
1.28431e-06
1.28358e-06
1.283e-06
1.27676e-06
1.27612e-06
1.27864e-06
4.49989e-07
1.50057e-07
1.20184e-06
9.57965e-07
4.51998e-07
1.49218e-07
1.19999e-06
1.37634e-08
1.37152e-08
4.78076e-07
1.22531e-06
1.52976e-07
9.75077e-07
4.80227e-07
1.22417e-06
1.52866e-07
6.72968e-08
6.96217e-08
9.28277e-07
6.77385e-08
6.95814e-08
1.3792e-07
3.05359e-08
1.36472e-07
3.05975e-08
1.38121e-08
1.38117e-08
1.3111e-07
2.93299e-08
1.31514e-07
2.94208e-08
1.26991e-06
1.27343e-06
1.2711e-06
1.27141e-06
1.26908e-06
1.27323e-06
1.27218e-06
4.47534e-07
1.48728e-07
1.19467e-06
9.55488e-07
4.49955e-07
1.48267e-07
1.19354e-06
1.35843e-08
1.35775e-08
4.74511e-07
1.21752e-06
1.53158e-07
9.72579e-07
4.75982e-07
1.21651e-06
1.53369e-07
6.76236e-08
6.98064e-08
9.27174e-07
6.77417e-08
6.93427e-08
1.37936e-07
3.03211e-08
1.38015e-07
3.02967e-08
1.38381e-08
1.38037e-08
1.30718e-07
2.89744e-08
1.30474e-07
2.9115e-08
1.26648e-06
1.27253e-06
1.26647e-06
1.26526e-06
1.26429e-06
1.2676e-06
1.26275e-06
4.46095e-07
1.48872e-07
1.18942e-06
9.54289e-07
4.48121e-07
1.47507e-07
1.18895e-06
1.35364e-08
1.35437e-08
4.74733e-07
1.21199e-06
1.51737e-07
9.70531e-07
4.73965e-07
1.21103e-06
1.52347e-07
6.69969e-08
6.87675e-08
9.24912e-07
6.72781e-08
6.88902e-08
1.38253e-07
3.02173e-08
1.37078e-07
3.0425e-08
1.3756e-08
1.37028e-08
1.30025e-07
2.90742e-08
1.29007e-07
2.90712e-08
1.26072e-06
1.2657e-06
1.26074e-06
1.26108e-06
1.2622e-06
1.26171e-06
1.26074e-06
4.45074e-07
1.47861e-07
1.18612e-06
9.52777e-07
4.46397e-07
1.48465e-07
1.18497e-06
1.35132e-08
1.35442e-08
4.74448e-07
1.20874e-06
1.52088e-07
9.69652e-07
4.73911e-07
1.20986e-06
1.52303e-07
6.66618e-08
6.81816e-08
9.25103e-07
6.74658e-08
6.85655e-08
1.3858e-07
3.03164e-08
1.38153e-07
3.02722e-08
1.36232e-08
1.35446e-08
1.30778e-07
2.89313e-08
1.30011e-07
2.89731e-08
1.25989e-06
1.25945e-06
1.25394e-06
1.25704e-06
1.26024e-06
1.26672e-06
1.25878e-06
4.46963e-07
1.4831e-07
1.18594e-06
9.52172e-07
4.47536e-07
1.48798e-07
1.18432e-06
1.35953e-08
1.36138e-08
4.73761e-07
1.20739e-06
1.50786e-07
9.68373e-07
4.75443e-07
1.2068e-06
1.51747e-07
6.71097e-08
6.78162e-08
9.22827e-07
6.73615e-08
6.8038e-08
1.37993e-07
2.99848e-08
1.37655e-07
3.00781e-08
1.34806e-08
1.3384e-08
1.30913e-07
2.8976e-08
1.30185e-07
2.90155e-08
1.26019e-06
1.26073e-06
1.25527e-06
1.255e-06
1.25819e-06
1.26186e-06
1.2547e-06
4.47831e-07
1.47396e-07
1.1827e-06
9.5167e-07
4.48627e-07
1.48031e-07
1.1829e-06
1.36381e-08
1.3618e-08
4.73154e-07
1.2048e-06
1.50671e-07
9.68194e-07
4.73227e-07
1.20446e-06
1.5113e-07
6.75595e-08
6.8086e-08
9.23737e-07
6.7578e-08
6.8425e-08
1.36929e-07
3.00232e-08
1.36952e-07
2.99558e-08
1.33524e-08
1.33472e-08
1.30945e-07
2.89297e-08
1.29854e-07
2.89289e-08
1.25816e-06
1.25943e-06
1.25406e-06
1.25542e-06
1.25855e-06
1.26209e-06
1.26149e-06
4.4714e-07
1.4778e-07
1.18407e-06
9.52289e-07
4.49998e-07
1.48168e-07
1.18371e-06
1.35847e-08
1.35738e-08
4.73694e-07
1.20407e-06
1.5082e-07
9.67351e-07
4.73518e-07
1.20438e-06
1.51579e-07
6.66279e-08
6.86737e-08
9.24716e-07
6.71452e-08
6.82276e-08
1.3747e-07
2.98279e-08
1.37165e-07
2.98734e-08
1.33339e-08
1.34104e-08
1.30925e-07
2.88872e-08
1.30716e-07
2.90817e-08
1.25504e-06
1.25972e-06
1.25767e-06
1.25534e-06
1.26268e-06
1.26275e-06
1.26293e-06
4.47759e-07
1.46615e-07
1.18576e-06
9.51476e-07
4.48561e-07
1.46708e-07
1.1835e-06
1.35361e-08
1.35221e-08
4.73315e-07
1.20324e-06
1.51328e-07
9.66649e-07
4.73021e-07
1.20499e-06
1.51483e-07
6.81156e-08
6.83507e-08
9.25683e-07
6.69443e-08
6.85675e-08
1.36873e-07
2.98808e-08
1.36184e-07
2.99452e-08
1.34826e-08
1.35687e-08
1.30108e-07
2.88781e-08
1.29513e-07
2.8966e-08
1.26017e-06
1.26042e-06
1.26091e-06
1.25659e-06
1.26198e-06
1.26163e-06
1.25591e-06
4.45198e-07
1.46803e-07
1.18618e-06
9.50614e-07
4.48323e-07
1.47088e-07
1.18439e-06
1.35198e-08
1.34887e-08
4.75155e-07
1.20585e-06
1.50347e-07
9.65729e-07
4.74156e-07
1.20485e-06
1.51619e-07
6.77252e-08
6.85803e-08
9.24539e-07
6.77234e-08
6.84375e-08
1.37608e-07
3.00015e-08
1.367e-07
3.00547e-08
1.37384e-08
1.382e-08
1.30332e-07
2.90065e-08
1.29453e-07
2.89487e-08
1.2563e-06
1.25384e-06
1.25302e-06
1.25351e-06
1.25908e-06
1.26378e-06
1.25837e-06
4.46295e-07
1.47023e-07
1.18611e-06
9.49684e-07
4.47575e-07
1.48046e-07
1.18351e-06
1.34831e-08
1.34732e-08
4.76109e-07
1.20613e-06
1.50322e-07
9.64931e-07
4.76125e-07
1.20501e-06
1.51611e-07
6.69478e-08
6.7374e-08
9.24836e-07
6.74843e-08
6.80971e-08
1.3697e-07
3.02696e-08
1.37522e-07
3.01409e-08
1.39459e-08
1.39832e-08
1.2999e-07
2.90179e-08
1.29669e-07
2.91141e-08
1.25906e-06
1.25255e-06
1.25613e-06
1.25431e-06
1.26079e-06
1.25929e-06
1.25822e-06
4.46141e-07
1.47374e-07
1.18424e-06
9.49868e-07
4.47505e-07
1.47774e-07
1.18574e-06
1.35198e-08
1.35124e-08
4.76529e-07
1.20557e-06
1.51503e-07
9.64723e-07
4.76879e-07
1.20642e-06
1.52288e-07
6.69026e-08
6.8075e-08
9.2638e-07
6.73457e-08
6.83543e-08
1.37448e-07
2.98836e-08
1.3641e-07
3.00497e-08
1.40128e-08
1.39192e-08
1.29839e-07
2.89716e-08
1.29055e-07
2.90448e-08
1.25886e-06
1.25445e-06
1.2529e-06
1.24968e-06
1.26503e-06
1.25466e-06
1.25309e-06
4.46164e-07
1.47421e-07
1.18911e-06
9.49687e-07
4.46275e-07
1.46762e-07
1.18716e-06
1.35489e-08
1.35694e-08
4.74059e-07
1.20627e-06
1.52087e-07
9.65655e-07
4.75397e-07
1.20622e-06
1.52159e-07
6.67648e-08
6.80214e-08
9.26694e-07
6.73315e-08
6.84177e-08
1.3462e-07
2.99738e-08
1.36619e-07
2.98727e-08
1.3919e-08
1.39363e-08
1.29187e-07
2.90364e-08
1.28661e-07
2.90477e-08
1.26019e-06
1.25413e-06
1.24869e-06
1.25373e-06
1.26341e-06
1.25272e-06
1.2515e-06
4.45018e-07
1.47112e-07
1.18696e-06
9.50235e-07
4.4671e-07
1.46748e-07
1.18488e-06
1.35529e-08
1.35695e-08
4.73647e-07
1.20835e-06
1.5089e-07
9.65534e-07
4.72408e-07
1.20679e-06
1.52292e-07
6.74089e-08
6.83759e-08
9.25537e-07
6.74125e-08
6.84397e-08
1.37938e-08
2.91651e-08
1.29306e-07
1.25806e-06
1.24684e-06
1.25239e-06
1.47268e-07
1.20237e-06
4.56687e-07
1.36506e-08
1.20472e-06
1.52227e-07
4.7288e-07
6.78713e-08
6.90187e-08
7.01123e-08
7.17624e-08
9.69306e-07
7.22834e-08
7.07482e-08
1.37535e-08
1.38388e-08
1.37059e-08
1.37309e-08
9.71726e-07
6.98924e-08
7.16415e-08
7.3546e-08
7.12472e-08
1.38273e-08
1.3879e-08
4.82503e-07
1.26923e-06
1.50499e-07
9.93308e-07
1.51134e-07
4.79824e-07
1.2678e-06
1.36692e-07
3.05182e-08
3.06966e-08
1.35586e-07
1.37077e-07
3.00229e-08
3.00355e-08
1.36683e-07
4.83657e-07
9.97719e-07
1.25298e-06
1.54855e-07
1.54933e-07
4.85631e-07
1.25761e-06
4.83313e-07
9.91871e-07
1.25817e-06
1.51747e-07
1.51748e-07
4.84838e-07
1.26321e-06
1.36688e-07
3.07489e-08
3.09271e-08
1.39828e-07
1.37515e-07
2.99859e-08
3.05677e-08
1.39212e-07
1.34054e-08
1.34532e-08
1.33617e-08
1.33953e-08
9.53114e-07
7.0133e-08
7.12452e-08
7.07583e-08
7.06999e-08
1.3484e-08
1.35317e-08
1.3501e-08
1.3435e-08
1.35886e-08
1.37252e-08
1.33879e-08
1.34573e-08
7.00835e-08
6.75944e-08
9.3579e-07
7.05495e-08
6.78518e-08
1.37594e-08
1.38199e-08
1.362e-08
1.35659e-08
9.52382e-07
7.14294e-08
6.91341e-08
7.22079e-08
6.99628e-08
1.39204e-07
3.01235e-08
3.01802e-08
1.37279e-07
4.81954e-07
1.52266e-07
1.25276e-06
9.84404e-07
1.53392e-07
1.2493e-06
4.83186e-07
4.81368e-07
1.5214e-07
1.25148e-06
9.83387e-07
1.52258e-07
1.24819e-06
4.81608e-07
1.3912e-07
3.05432e-08
3.09654e-08
1.40538e-07
1.39451e-07
3.03665e-08
3.04319e-08
1.38982e-07
4.83992e-07
9.82867e-07
1.54491e-07
1.24363e-06
1.53622e-07
1.24698e-06
4.82776e-07
4.83429e-07
9.81382e-07
1.52428e-07
1.24314e-06
1.52005e-07
1.24604e-06
4.81756e-07
6.98531e-08
7.00167e-08
9.34751e-07
6.98399e-08
6.99213e-08
1.36763e-08
1.36518e-08
1.35996e-08
1.36173e-08
9.51171e-07
7.01962e-08
6.99017e-08
7.15535e-08
7.19129e-08
1.3693e-08
1.37418e-08
4.528e-07
1.47672e-07
1.2075e-06
9.63517e-07
1.48726e-07
1.20517e-06
4.53902e-07
1.31722e-07
3.02788e-08
3.03879e-08
1.30088e-07
4.54224e-07
1.2082e-06
1.49794e-07
9.61353e-07
1.20831e-06
1.501e-07
4.54753e-07
1.30389e-07
3.02538e-08
3.00028e-08
1.32129e-07
4.56702e-07
9.62945e-07
1.495e-07
1.20149e-06
1.48091e-07
1.20367e-06
4.56036e-07
1.31436e-07
3.06253e-08
3.12162e-08
1.32533e-07
4.5779e-07
9.60946e-07
1.20491e-06
1.52025e-07
1.20694e-06
1.49986e-07
4.56735e-07
1.34212e-07
2.97463e-08
2.98656e-08
1.33898e-07
4.50732e-07
1.21972e-06
1.48828e-07
9.63982e-07
1.21877e-06
1.49496e-07
4.54473e-07
1.32705e-07
2.97957e-08
2.994e-08
1.32857e-07
4.54324e-07
9.69259e-07
1.49395e-07
1.2143e-06
1.49188e-07
1.21737e-06
4.53152e-07
1.33461e-07
2.99254e-08
3.06313e-08
1.33949e-07
4.52814e-07
9.62118e-07
1.21406e-06
1.4967e-07
1.21646e-06
1.48851e-07
4.51502e-07
1.33012e-07
3.00798e-08
3.05383e-08
1.33489e-07
7.14879e-08
7.2392e-08
9.38309e-07
7.04277e-08
7.18363e-08
1.38681e-08
1.38495e-08
1.38682e-08
1.38427e-08
9.55396e-07
7.11231e-08
7.19927e-08
7.17525e-08
7.31581e-08
1.39196e-08
1.39226e-08
4.85464e-07
1.25178e-06
1.51377e-07
9.8636e-07
4.85946e-07
1.24609e-06
1.52783e-07
1.41084e-07
3.111e-08
1.39927e-07
3.07288e-08
1.39988e-07
3.03838e-08
1.39225e-07
3.01163e-08
4.86202e-07
9.81927e-07
1.23562e-06
1.55649e-07
1.23767e-06
1.54632e-07
4.84609e-07
4.84486e-07
9.84086e-07
1.23854e-06
1.5375e-07
1.24161e-06
1.52366e-07
4.81394e-07
1.40544e-07
3.0895e-08
3.1596e-08
1.40759e-07
1.40598e-07
3.02404e-08
3.0958e-08
1.40112e-07
1.35292e-08
1.34765e-08
1.35865e-08
1.35654e-08
9.47994e-07
7.02543e-08
7.17661e-08
7.03437e-08
7.10738e-08
1.35243e-08
1.35621e-08
1.36175e-08
1.35393e-08
1.38072e-08
1.37877e-08
1.37163e-08
1.36424e-08
7.31728e-08
7.1119e-08
9.35218e-07
7.10327e-08
6.9163e-08
1.38135e-08
1.38566e-08
1.36009e-08
1.36586e-08
9.5212e-07
7.22e-08
6.86301e-08
7.28917e-08
7.11808e-08
1.37629e-07
3.0619e-08
1.37887e-07
3.044e-08
4.81201e-07
1.54364e-07
1.24147e-06
9.78274e-07
4.82603e-07
1.55126e-07
1.23855e-06
4.79453e-07
1.52291e-07
1.23981e-06
9.75622e-07
4.8162e-07
1.52437e-07
1.23668e-06
1.38717e-07
3.03614e-08
3.14042e-08
1.398e-07
1.38029e-07
3.05451e-08
3.08785e-08
1.37465e-07
4.83384e-07
9.77132e-07
1.54844e-07
1.23325e-06
1.54967e-07
1.23587e-06
4.82463e-07
4.8085e-07
9.74199e-07
1.53494e-07
1.23141e-06
1.53006e-07
1.23448e-06
4.79812e-07
7.11867e-08
7.23549e-08
9.30353e-07
7.0752e-08
7.04456e-08
1.37583e-08
1.36697e-08
1.37453e-08
1.36701e-08
9.46853e-07
7.12055e-08
7.05838e-08
7.20179e-08
7.23045e-08
1.37013e-08
1.37198e-08
4.57117e-07
1.49895e-07
1.19927e-06
9.6048e-07
4.57933e-07
1.51537e-07
1.19794e-06
1.33612e-07
3.09749e-08
1.32658e-07
3.07366e-08
4.57714e-07
1.20332e-06
1.51643e-07
9.59271e-07
4.58609e-07
1.20172e-06
1.52918e-07
1.33006e-07
3.0285e-08
3.08509e-08
1.34249e-07
4.57428e-07
9.60354e-07
1.50441e-07
1.19583e-06
1.51224e-07
1.19693e-06
4.56054e-07
1.33453e-07
3.04858e-08
3.1495e-08
1.33477e-07
4.57964e-07
9.59195e-07
1.19898e-06
1.5115e-07
1.20079e-06
1.52093e-07
4.52729e-07
1.33242e-07
3.03192e-08
1.33197e-07
2.98337e-08
4.50035e-07
1.21158e-06
1.49105e-07
9.57738e-07
4.52141e-07
1.21004e-06
1.49127e-07
1.33031e-07
3.07451e-08
1.3293e-07
3.00787e-08
4.53088e-07
9.6159e-07
1.508e-07
1.20365e-06
1.4995e-07
1.20631e-06
4.50906e-07
1.32492e-07
2.98242e-08
2.99032e-08
1.32173e-07
4.53257e-07
9.57416e-07
1.20658e-06
1.49583e-07
1.20853e-06
1.49646e-07
4.47287e-07
1.32522e-07
2.99652e-08
3.04204e-08
1.32778e-07
7.2705e-08
7.28926e-08
9.37875e-07
7.04536e-08
7.14423e-08
1.39622e-08
1.37916e-08
1.37657e-08
1.38114e-08
9.54306e-07
7.04308e-08
7.14746e-08
7.18312e-08
7.29986e-08
1.37493e-08
1.381e-08
4.81363e-07
1.23525e-06
1.53479e-07
9.78976e-07
4.8255e-07
1.23231e-06
1.52338e-07
1.39319e-07
3.11293e-08
1.39935e-07
3.04826e-08
1.38748e-07
3.05455e-08
1.40042e-07
3.01153e-08
4.81952e-07
9.77794e-07
1.22747e-06
1.53748e-07
1.22944e-06
1.53877e-07
4.79965e-07
4.79505e-07
9.77551e-07
1.22734e-06
1.53149e-07
1.22948e-06
1.52637e-07
4.77835e-07
1.3843e-07
3.05848e-08
3.08578e-08
1.38258e-07
1.38851e-07
3.02513e-08
3.05658e-08
1.38904e-07
1.35657e-08
1.34917e-08
1.3568e-08
1.35772e-08
9.46044e-07
6.97974e-08
6.99216e-08
6.98915e-08
7.15563e-08
1.34921e-08
1.35546e-08
1.35697e-08
1.36396e-08
1.38565e-08
1.37798e-08
1.36052e-08
1.35006e-08
7.3266e-08
7.12928e-08
9.33646e-07
7.14048e-08
6.87178e-08
1.37837e-08
1.38169e-08
1.33798e-08
1.3532e-08
9.50001e-07
7.10325e-08
6.80021e-08
7.25415e-08
6.93499e-08
1.37949e-07
3.09531e-08
1.37845e-07
3.04578e-08
4.80257e-07
1.5445e-07
1.23148e-06
9.73636e-07
4.81158e-07
1.54582e-07
1.2294e-06
4.76662e-07
1.52835e-07
1.22831e-06
9.6933e-07
4.79751e-07
1.54098e-07
1.22465e-06
1.38579e-07
3.10559e-08
3.06689e-08
1.38039e-07
1.37828e-07
3.05888e-08
3.0726e-08
1.38433e-07
4.79835e-07
9.73321e-07
1.54289e-07
1.22566e-06
1.53676e-07
1.22741e-06
4.7976e-07
4.78645e-07
9.68579e-07
1.54167e-07
1.22085e-06
1.52855e-07
1.22326e-06
4.77803e-07
7.19521e-08
7.23131e-08
9.30252e-07
7.11075e-08
7.03267e-08
1.37867e-08
1.36313e-08
1.38178e-08
1.38446e-08
9.46748e-07
7.14106e-08
7.00786e-08
7.22477e-08
7.21127e-08
1.35621e-08
1.36545e-08
4.54288e-07
1.50897e-07
1.19521e-06
9.58115e-07
4.56057e-07
1.50245e-07
1.19377e-06
1.32523e-07
3.08962e-08
1.33213e-07
3.03797e-08
4.54002e-07
1.19788e-06
1.51463e-07
9.56977e-07
4.55881e-07
1.19666e-06
1.50687e-07
1.32475e-07
2.94525e-08
2.99519e-08
1.32534e-07
4.54255e-07
9.58075e-07
1.49347e-07
1.19175e-06
1.48962e-07
1.19296e-06
4.52471e-07
1.31712e-07
3.01728e-08
3.08434e-08
1.32931e-07
4.54975e-07
9.56881e-07
1.19464e-06
1.49925e-07
1.1956e-06
1.51116e-07
4.50826e-07
1.32393e-07
3.02447e-08
1.32803e-07
2.96391e-08
4.49452e-07
1.20514e-06
1.48782e-07
9.54224e-07
4.50907e-07
1.20341e-06
1.49238e-07
1.31873e-07
3.07186e-08
1.32325e-07
2.98418e-08
4.51236e-07
9.57065e-07
1.48561e-07
1.19681e-06
1.48547e-07
1.19814e-06
4.48817e-07
1.32002e-07
2.95116e-08
2.98972e-08
1.31979e-07
4.49846e-07
9.54053e-07
1.20007e-06
1.48216e-07
1.20222e-06
1.48714e-07
4.48179e-07
1.30764e-07
2.98854e-08
3.04474e-08
1.31413e-07
7.22533e-08
7.28632e-08
9.3467e-07
7.03602e-08
7.10683e-08
1.38059e-08
1.37423e-08
1.36145e-08
1.37847e-08
9.51276e-07
6.98553e-08
7.07341e-08
7.22175e-08
7.25065e-08
1.372e-08
1.37926e-08
4.79381e-07
1.22461e-06
1.52268e-07
9.73403e-07
4.79955e-07
1.22296e-06
1.53337e-07
1.38737e-07
3.10986e-08
1.38703e-07
3.04985e-08
1.39386e-07
3.07883e-08
1.3815e-07
3.02413e-08
4.76742e-07
9.74281e-07
1.22071e-06
1.53807e-07
1.22229e-06
1.52265e-07
4.77561e-07
4.79202e-07
9.72244e-07
1.21994e-06
1.52293e-07
1.22123e-06
1.52536e-07
4.7665e-07
1.37638e-07
3.05399e-08
3.10036e-08
1.37364e-07
1.38882e-07
3.02445e-08
3.07161e-08
1.38022e-07
1.3485e-08
1.341e-08
1.35564e-08
1.35268e-08
9.44802e-07
6.96311e-08
7.04242e-08
7.02992e-08
7.17955e-08
1.34619e-08
1.34842e-08
1.35447e-08
1.35619e-08
1.38322e-08
1.37049e-08
1.3365e-08
1.33159e-08
7.2991e-08
6.98504e-08
9.31719e-07
6.98361e-08
6.75277e-08
1.36814e-08
1.37283e-08
1.33203e-08
1.33973e-08
9.48353e-07
7.08508e-08
6.80339e-08
7.21163e-08
6.97491e-08
1.38715e-07
3.08579e-08
1.38299e-07
3.05704e-08
4.79496e-07
1.5468e-07
1.22327e-06
9.7065e-07
4.79864e-07
1.54091e-07
1.22135e-06
4.77779e-07
1.53577e-07
1.22011e-06
9.66948e-07
4.78358e-07
1.5409e-07
1.219e-06
1.37994e-07
3.08474e-08
3.10911e-08
1.38662e-07
1.37498e-07
3.06469e-08
3.09603e-08
1.37452e-07
4.79381e-07
9.69971e-07
1.54361e-07
1.2167e-06
1.52843e-07
1.21977e-06
4.78641e-07
4.78576e-07
9.66776e-07
1.54132e-07
1.21527e-06
1.54528e-07
1.21602e-06
4.77133e-07
7.3234e-08
7.14843e-08
9.3188e-07
7.13571e-08
7.06352e-08
1.35956e-08
1.35767e-08
1.38269e-08
1.38976e-08
9.48541e-07
7.13866e-08
7.00844e-08
7.3401e-08
7.20934e-08
1.36025e-08
1.36256e-08
4.51056e-07
1.48063e-07
1.19055e-06
9.55983e-07
4.52542e-07
1.48806e-07
1.18971e-06
1.31909e-07
3.05274e-08
1.32522e-07
2.97681e-08
4.50177e-07
1.19244e-06
1.50161e-07
9.54359e-07
4.50902e-07
1.19233e-06
1.50757e-07
1.30422e-07
2.92245e-08
3.02212e-08
1.31427e-07
4.50966e-07
9.55724e-07
1.47961e-07
1.1901e-06
1.47687e-07
1.18978e-06
4.48683e-07
1.30535e-07
2.98814e-08
3.00603e-08
1.31036e-07
4.51312e-07
9.53774e-07
1.19014e-06
1.4985e-07
1.19044e-06
1.49542e-07
4.48727e-07
1.31538e-07
3.02533e-08
1.31706e-07
2.94531e-08
4.47728e-07
1.19877e-06
1.47684e-07
9.52318e-07
4.50021e-07
1.19688e-06
1.48279e-07
1.30707e-07
3.03503e-08
1.31171e-07
2.96744e-08
4.49401e-07
9.55572e-07
1.49506e-07
1.19072e-06
1.4868e-07
1.19251e-06
4.47125e-07
1.31295e-07
2.9504e-08
3.02371e-08
1.30919e-07
4.47592e-07
9.51974e-07
1.19399e-06
1.48154e-07
1.19545e-06
1.47573e-07
4.46476e-07
1.30065e-07
2.94488e-08
3.00978e-08
1.3079e-07
7.13349e-08
7.25397e-08
9.33086e-07
7.00465e-08
7.133e-08
1.37774e-08
1.36717e-08
1.35232e-08
1.36526e-08
9.4976e-07
6.9362e-08
7.11944e-08
7.15661e-08
7.26353e-08
1.36206e-08
1.37505e-08
4.75469e-07
1.21883e-06
1.51109e-07
9.70112e-07
4.7592e-07
1.21736e-06
1.52596e-07
1.37253e-07
3.10593e-08
1.37746e-07
3.02064e-08
1.36988e-07
3.06276e-08
1.37053e-07
2.99514e-08
4.74214e-07
9.72321e-07
1.21269e-06
1.52538e-07
1.21468e-06
1.52519e-07
4.75381e-07
4.74501e-07
9.69259e-07
1.21454e-06
1.51629e-07
1.21606e-06
1.52221e-07
4.74509e-07
1.36962e-07
2.99356e-08
3.08439e-08
1.37278e-07
1.35767e-07
3.00641e-08
3.03474e-08
1.3702e-07
1.34984e-08
1.33418e-08
1.36059e-08
1.34655e-08
9.43507e-07
6.76295e-08
7.05575e-08
6.99046e-08
7.07444e-08
1.32536e-08
1.33258e-08
1.3505e-08
1.35074e-08
1.37478e-08
1.3679e-08
1.3388e-08
1.33071e-08
7.26047e-08
7.03106e-08
9.30875e-07
7.1434e-08
6.84785e-08
1.36547e-08
1.3724e-08
1.33171e-08
1.33572e-08
9.47229e-07
7.13139e-08
6.88473e-08
7.28399e-08
7.03635e-08
1.38396e-07
3.1177e-08
1.38145e-07
3.06584e-08
4.78567e-07
1.53239e-07
1.21615e-06
9.68581e-07
4.79383e-07
1.53773e-07
1.21587e-06
4.77828e-07
1.53366e-07
1.21477e-06
9.65103e-07
4.76805e-07
1.54083e-07
1.2142e-06
1.38147e-07
3.06948e-08
3.07386e-08
1.38408e-07
1.38056e-07
3.04816e-08
3.11209e-08
1.37641e-07
4.7879e-07
9.68139e-07
1.53465e-07
1.21471e-06
1.52936e-07
1.21561e-06
4.78391e-07
4.76536e-07
9.65566e-07
1.53791e-07
1.21123e-06
1.53141e-07
1.21228e-06
4.76611e-07
7.31028e-08
7.18251e-08
9.31402e-07
7.15536e-08
7.02994e-08
1.3627e-08
1.35623e-08
1.3777e-08
1.38542e-08
9.47923e-07
7.11984e-08
7.04101e-08
7.33545e-08
7.2029e-08
1.35977e-08
1.36291e-08
4.47405e-07
1.47095e-07
1.18943e-06
9.54371e-07
4.48741e-07
1.47208e-07
1.18904e-06
1.30729e-07
3.01633e-08
1.30516e-07
2.99115e-08
4.46999e-07
1.18952e-06
1.49276e-07
9.53383e-07
4.48772e-07
1.18988e-06
1.49074e-07
1.29742e-07
2.92312e-08
2.9442e-08
1.30283e-07
4.47095e-07
9.54206e-07
1.47387e-07
1.1888e-06
1.46535e-07
1.18911e-06
4.43775e-07
1.29927e-07
2.99158e-08
3.01919e-08
1.29675e-07
4.47069e-07
9.53324e-07
1.19085e-06
1.49838e-07
1.19058e-06
1.49587e-07
4.45232e-07
1.29719e-07
3.02528e-08
1.30555e-07
2.93669e-08
4.46055e-07
1.19311e-06
1.47124e-07
9.50146e-07
4.46712e-07
1.19151e-06
1.47969e-07
1.29906e-07
3.02055e-08
1.29521e-07
2.93112e-08
4.46992e-07
9.54348e-07
1.48646e-07
1.1874e-06
1.4809e-07
1.18748e-06
4.45052e-07
1.29558e-07
2.93668e-08
3.01631e-08