/*--------------------------------*- C++ -*----------------------------------*\
| =========                 |                                                 |
| \\      /  F ield         | OpenFOAM: The Open Source CFD Toolbox           |
|  \\    /   O peration     | Version:  2206                                  |
|   \\  /    A nd           | Website:  www.openfoam.com                      |
|    \\/     M anipulation  |                                                 |
\*---------------------------------------------------------------------------*/
FoamFile
{
    version     2.0;
    format      ascii;
    arch        "LSB;label=32;scalar=64";
    class       volScalarField;
    location    "40";
    object      omega;
}
// * * * * * * * * * * * * * * * * * * * * * * * * * * * * * * * * * * * * * //

dimensions      [0 0 -1 0 0 0 0];

internalField   nonuniform List<scalar> 
66701
(
414.795
434.469
289.561
178.196
330.351
105.841
122.065
304.565
434.4
289.665
177.977
330.349
106.522
304.171
121.893
414.835
737.749
1603.56
4392.67
16427.8
116912
734.471
1602.83
4391.25
16420.5
116840
755.81
1622.23
4424.58
16480.2
116802
755.579
1622.53
4424.62
16480.2
116814
737.692
1603.66
4392.31
16425.6
116892
734.53
1602.81
4391.29
16420.7
116852
744.388
1613.17
4409
16447.8
116752
743.979
1608.17
4398.43
16426
116727
744.673
1613.51
4409.03
16447.1
116747
743.992
1608.46
4398.34
16425.8
116725
414.935
416.029
24.1916
167.836
168.228
290.066
21.7238
92.6944
106.755
291.16
41.4531
22.0349
97.1049
19.5574
107.612
291.975
41.4194
21.852
19.5716
96.7071
415.778
24.0742
168.788
415.088
222.774
418.754
419.672
221.742
418.13
418.903
114.229
301.41
60.6166
163.947
113.167
298.364
57.2679
114.784
302.57
61.9316
162.261
109.701
299.313
58.752
329.75
123.671
305.912
104.995
327.41
121.19
304.398
433.957
180.104
288.462
433.404
176.574
330.042
305.186
123.32
106.222
329.774
303.282
120.756
433.887
179.826
289.065
433.973
176.306
414.006
222.884
418.932
418.218
115.506
61.722
163.168
58.299
300.618
113.699
165.479
299.559
60.1708
413.478
17.6795
16.7926
16.8383
16.3599
17.6024
16.7656
16.787
16.1587
16.8631
16.1984
16.761
16.1218
53.1898
23.7447
33.3719
33.6933
52.7857
32.1991
32.4871
29.6123
55.7394
40.3885
89.7657
38.4403
29.7294
54.6744
26.6546
46.5365
25.241
39.7446
26.1858
44.0989
24.8418
30.32
61.4669
41.1477
94.962
39.3891
30.1117
58.4162
26.487
25.2356
46.4345
39.7269
25.9505
24.6986
44.5065
30.1711
60.5056
40.5815
91.3561
29.4045
58.5347
39.4626
53.389
23.716
33.5144
32.4731
33.2593
737.417
1603.24
4392.55
16427.4
116912
737.573
1603.74
4392.69
16427.8
116912
755.931
1622.44
4424.7
16480.9
116814
756.346
1622.72
4424.69
16480.3
116802
756.265
1622.77
4424.68
16480.3
116814
738.061
1603.69
4392.35
16425.6
116892
737.972
1603.54
4392.3
16427.6
116912
744.41
1613.38
4408.84
16447.6
116752
743.945
1608.56
4398.47
16426
116727
745.113
1613.79
4409.1
16447.8
116752
744.588
1608.42
4398.14
16425.8
116727
755.844
1622.28
4424.31
16479.9
116802
744.563
1613.23
4408.79
16446.9
116747
744.522
1608.59
4398.42
16425.9
116725
745.28
1613.77
4409.1
16447.2
116747
744.084
1608.2
4398.11
16425.6
116725
756.537
1622.32
4424.25
16479.9
116814
737.454
1603.36
4392.01
16425.3
116892
755.174
1621.51
4421.98
16472.8
116759
737.932
1603.49
4391.92
16424.8
116881
737.218
1607.75
4400.17
16440.6
116901
755.428
1621.86
4422.56
16473.6
116776
755.719
1621.67
4422.23
16473.3
116776
737.231
1607.83
4400.31
16442
116921
755.557
1621.85
4422.62
16475.4
116795
754.514
1621.55
4422.28
16475.1
116795
737.675
1607.61
4399.87
16440.4
116901
737.577
1607.61
4399.89
16441.7
116921
734.427
1602.42
4390.89
16420.2
116840
734.722
1603
4391.31
16420.6
116840
734.663
1602.52
4391
16420.4
116852
735.161
1603.05
4391.35
16420.8
116852
755.002
1621.55
4422.15
16473.9
116778
737.072
1607.6
4400.2
16442.6
116918
737.35
1607.64
4400.14
16441.9
116904
21.4321
24.036
17.7225
21.9405
21.6133
23.9504
17.7038
21.936
21.6973
24.13
17.7052
21.9921
21.6949
24.1802
17.6839
22.0072
21.7486
24.1443
17.6497
21.9495
21.708
24.2051
17.6173
21.9251
21.7205
24.172
17.6327
21.9468
21.7664
24.1971
17.6043
21.975
21.755
24.1899
17.6148
21.9671
21.7366
24.1721
17.6183
21.9623
21.7263
24.1381
17.6251
21.9753
21.677
24.1211
17.6313
21.9868
21.7275
24.116
17.6176
21.9958
21.6908
24.1761
17.6534
22.009
21.6874
24.1792
17.6639
21.9704
21.7007
24.1909
17.6746
21.4593
21.5111
23.9079
23.6528
23.8321
21.648
21.6021
21.6975
23.8304
23.9895
23.9155
21.7381
21.7669
21.7841
21.7656
23.9271
23.9939
21.8031
21.6996
21.8993
21.8196
21.9352
21.8003
21.981
23.5478
23.8681
21.4924
21.5534
21.766
24.0145
23.5999
23.9786
21.6621
21.541
21.7699
21.7434
23.8044
23.9422
21.7121
21.7139
21.9757
21.982
21.8779
21.6944
22.0117
23.6221
23.8503
21.575
21.4244
21.7376
23.8419
23.6288
24.0889
21.3284
21.5308
21.7519
21.7055
23.4792
23.9396
21.6554
21.6251
22.0757
22.0077
21.6682
21.9292
22.0614
23.5515
23.9368
21.6467
21.6859
21.7658
24.0317
23.7497
23.9993
21.4428
21.3931
21.7471
21.786
23.5226
23.9551
21.7158
21.8498
22.1201
21.9807
21.8811
21.8631
22.0385
23.3691
24.0189
21.6759
21.6258
21.816
23.8654
23.6179
23.9795
21.5228
21.6473
21.6998
21.7714
23.7118
23.9822
21.9034
21.7704
21.9998
21.958
21.8336
21.8473
22.0316
23.7786
23.9659
21.5513
21.6271
21.7421
24.0661
23.5526
24.1011
21.5159
21.5471
21.698
21.7689
23.736
23.9686
21.7465
21.8441
22.0025
21.9335
21.8325
21.716
21.9904
23.7869
23.8458
21.4245
21.7106
21.8215
24.1421
23.8534
24.1327
21.3564
21.461
21.7746
21.8724
23.5565
24.0518
21.7944
21.7904
21.9731
21.8887
21.6153
21.893
22.0691
23.5509
23.8525
21.4746
21.5042
21.8134
23.8598
23.6663
24.1042
21.6666
21.7359
21.7829
21.8232
23.7888
24.0921
21.6215
21.7616
22.0472
21.9058
21.9278
21.7624
21.9987
23.3614
23.9396
21.6366
21.4725
21.7494
24.1174
23.7922
24.0223
21.6075
21.6556
21.7629
21.793
23.8625
24.0339
21.7703
21.5755
22.0156
21.9239
21.6477
21.6769
21.9841
23.4392
23.8676
21.5344
21.6642
21.7213
24.0711
23.693
24.0678
21.5535
21.599
21.7542
21.7726
23.5364
24.0285
21.7522
21.5608
21.9875
21.9748
21.639
21.8526
22.0419
23.6906
23.8359
21.5385
21.6035
21.6915
23.7972
23.7617
24.0452
21.5476
21.4001
21.7386
21.7005
23.8433
24.0584
21.7532
21.5881
21.966
21.9523
21.6637
21.7284
22.0281
23.4791
23.8833
21.5558
21.4861
21.7555
24.0103
23.6802
24.0307
21.5525
21.5659
21.7311
21.7239
23.6181
24.0111
21.7737
21.8082
21.984
21.9479
21.6692
21.7389
22.0856
23.5576
23.8463
21.5115
21.6162
21.6768
23.8469
23.6752
24.0279
21.3545
21.5113
21.7818
21.6825
23.6649
24.0221
21.8016
21.7735
21.98
21.9516
21.7915
21.7438
22.0472
23.5809
23.8607
21.5349
21.602
21.6912
24.1038
23.5519
24.0637
21.5409
21.5188
21.7784
21.7079
23.6821
23.9657
21.7861
21.6119
21.9951
21.938
21.7697
21.6876
22.0126
23.4091
23.8839
21.4965
21.6235
21.6783
23.8766
23.8188
24.0737
21.4093
21.25
21.9202
21.8803
23.5778
23.9958
21.8325
21.7264
21.7986
21.6681
21.8365
21.4864
21.5944
23.5619
23.6199
21.5098
21.2878
21.5504
23.8962
21.7376
23.7723
21.4872
21.5916
21.3984
23.6652
21.5067
413.627
413.049
38.4946
19.3128
92.1876
21.3047
92.251
38.44
19.3133
166.548
164.76
23.9455
165.122
167.261
101.492
288.985
288.436
101.73
414.099
413.937
105.962
291.192
290.92
106.672
17.7254
17.7416
17.6716
17.7176
17.7196
17.7421
17.6714
40.6219
96.2627
19.5739
21.5703
96.466
19.4773
40.3623
415.317
415.521
38.8433
19.3705
94.4375
21.4018
39.0449
19.3299
93.9623
169.274
165.889
23.9694
168.453
165.917
102.539
288.765
101.783
287.92
413.725
413.676
106.498
292.104
106.701
291.084
17.7513
17.7862
17.6971
17.7452
17.7226
17.7211
17.681
41.1284
96.7191
19.5872
21.7631
41.0506
96.197
19.5376
415.191
415.456
38.9915
19.3979
94.1997
21.5755
39.1339
19.3267
94.2239
169.169
167.138
24.1167
168.713
166.295
101.613
289.236
102.205
288.225
413.423
413.609
106.304
290.785
106.248
291.3
17.7527
17.7616
17.7182
17.7255
17.6799
17.6918
17.6721
40.8322
97.1239
19.5225
21.8536
41.0525
97.0805
19.5287
415.075
415.194
38.9699
19.4138
95.0915
21.3965
39.2805
19.3695
94.5716
169.72
166.718
24.1613
168.88
165.994
101.423
288.236
101.8
287.678
413.423
413.724
106.536
291.446
107.035
290.699
17.7294
17.7138
17.7111
17.6971
17.6381
17.6589
17.6576
40.9084
96.836
19.5733
21.7409
40.891
96.6816
19.4982
415.221
415.341
39.1674
19.396
94.59
21.4425
39.3413
19.3242
94.4436
169.568
166.525
24.1472
168.761
166.4
101.519
288.96
101.686
288.464
413.571
413.731
106.707
291.987
107.115
290.894
17.6482
17.6655
17.6932
17.6645
17.6056
17.6464
17.6264
40.9327
97.3289
19.5692
21.6655
41.2439
96.8613
19.4493
415.338
415.261
39.199
19.3241
94.7239
21.4777
39.2456
19.2837
94.4998
169.162
167.712
24.1568
168.085
166.8
102.159
288.765
103.005
287.8
413.752
413.798
106.3
290.983
106.559
291.182
17.6509
17.6725
17.6486
17.6573
17.6096
17.65
17.6284
40.7268
96.5725
19.5757
21.7266
41.0885
96.6777
19.536
415.541
415.363
38.9852
19.3873
94.6205
21.417
39.1579
19.3216
94.5399
169.537
167.788
24.1545
168.236
166.815
101.993
288.919
102.626
288.627
413.903
413.976
106.7
291.685
106.963
291.285
17.6359
17.6808
17.6631
17.6408
17.6005
17.6303
17.6233
40.4121
97.0111
19.5525
21.8006
40.7985
96.7215
19.5258
415.078
415.306
39.4401
19.3831
94.4773
21.3386
39.6638
19.3538
94.3417
168.702
167.98
24.1485
168.267
166.88
102.594
289.031
102.587
288.398
413.747
414.04
106.291
291.23
107.091
290.98
17.6525
17.6574
17.6713
17.6452
17.6215
17.6115
17.6164
40.8516
97.0908
19.5735
21.7739
41.0659
97.1206
19.5413
415.363
415.383
38.6701
19.3944
94.5104
21.6159
39.2066
19.2777
94.5573
168.924
167.743
24.147
168.501
166.698
102.269
288.37
101.921
288.49
414.102
413.839
106.81
291.921
107.469
291.273
17.6671
17.6504
17.6346
17.6661
17.5934
17.6089
17.5907
41.0144
96.837
19.5741
21.8435
41.0431
96.6329
19.4947
415.537
415.522
38.8663
19.3822
94.7742
21.6061
39.4472
19.3483
94.5708
169.662
166.599
24.0646
168.721
166.606
101.571
288.864
102.236
288.509
413.884
413.658
106.93
291.465
107.724
290.893
17.6405
17.6174
17.6215
17.6443
17.589
17.584
17.5907
40.9362
97.373
19.5358
21.6341
40.9078
96.6384
19.4643
415.265
415.499
38.9186
19.3646
94.104
21.4317
39.088
19.3108
94.3582
167.847
166.783
24.0946
168.889
166.346
101.961
288.235
102.016
288.377
413.602
413.693
106.688
291.294
106.754
290.771
17.6204
17.6119
17.6285
17.6528
17.5846
17.5829
17.608
40.7545
96.7576
19.5438
21.5399
40.7027
96.7829
19.4387
415.209
415.352
38.9397
19.3449
94.1608
21.3308
39.194
19.2589
94.1733
168.219
166.886
24.0783
168.24
166.616
102.221
288.976
102.243
288.716
413.512
413.635
106.107
290.788
107.219
290.896
17.6164
17.6456
17.6555
17.6616
17.5736
17.5933
17.6278
40.8567
97.3807
19.5371
21.5748
40.9616
96.5415
19.4854
415.117
415.514
38.7068
19.357
94.4773
21.5489
38.7451
19.3106
94.1727
169.2
167.973
24.111
168.498
166.868
102.275
288.563
102.932
288.783
413.133
413.547
106.768
291.415
106.735
290.935
17.5931
17.6902
17.6855
17.6751
17.5744
17.6483
17.6338
41.0182
97.0048
19.5377
21.5823
41.2894
97.0589
19.4997
414.879
415.409
39.1753
19.3405
94.2676
21.4569
39.01
19.261
94.0517
168.977
167.509
24.1176
168.551
166.586
102.419
289.041
103.443
288.601
413.331
413.665
106.554
291.556
107.665
290.981
17.6114
17.6806
17.6583
17.6825
17.5668
17.6564
17.6379
40.9681
96.6005
19.5593
21.8614
41.2819
96.9287
19.506
415.188
415.296
39.5014
19.3524
94.3858
21.444
39.6335
19.2656
94.2448
169.232
167.685
24.1017
168.57
166.877
102.829
289.291
102.423
288.974
413.253
413.412
106.72
291.531
107.915
291.323
17.5995
17.6703
17.7091
17.7097
17.6103
17.5823
17.5583
40.4946
96.8329
19.5327
21.6713
40.9771
96.8972
19.4529
415.204
415.284
39.2653
19.364
95.1428
21.3975
39.5185
19.3031
94.2789
168.903
166.942
24.1173
168.55
166.409
414.697
290.407
106.324
17.6759
17.6714
17.5932
95.8428
19.3013
39.9064
414.251
19.2262
94.5762
39.6568
168.417
166.458
166.373
164.176
23.4741
163.803
165.672
412.354
412.068
414.625
412.982
23.4658
167.288
164.931
159.195
164.386
413.36
411.656
38.5198
19.3082
92.2746
21.3388
93.0818
38.5593
19.3531
101.42
285.752
286.579
100.449
100.605
287.069
287.917
100.917
36.8386
21.3088
19.358
93.954
86.2787
38.7998
19.3128
36.8491
21.6334
19.2966
93.6424
87.2882
38.7522
19.3217
99.1637
287.649
285.108
101.419
96.1695
288.477
283.722
101.605
414.098
414.813
412.811
413.084
23.755
164.387
160.556
159.581
161.73
414.82
413.98
412.995
412.822
413.943
413.512
415.518
415.386
165.123
168.648
23.9566
165.641
168.208
413.838
412.377
415.335
413.634
23.5028
164.761
168.081
163.149
160.048
101.485
288.831
288.435
102.995
38.9588
94.5146
19.2864
21.6191
93.7119
19.2715
38.8458
38.9483
94.1672
19.3886
21.4138
93.9886
19.3596
39.0119
95.7009
288.343
284.594
97.5546
97.2745
288.062
286.441
102.584
38.1881
21.5198
92.9417
19.3723
89.1214
19.3393
39.0248
38.4238
21.7034
93.2114
19.3749
91.903
19.3719
39.1098
166.025
168.398
23.938
165.904
167.636
415.38
415.345
413.517
412.761
23.7806
165.827
167.785
157.966
159.551
414.689
413.407
40.4326
95.6616
19.572
21.7425
95.8782
19.534
40.1147
105.667
290.684
290.966
106.612
40.6276
19.5569
95.0324
21.6587
19.5377
96.5175
39.9511
99.4041
288.754
288.886
102.421
40.0003
21.7717
95.1623
19.6493
90.6779
19.6456
40.5976
100.784
290.985
284.136
105.728
39.3957
21.6593
19.6561
95.7097
19.647
94.4113
40.661
105.791
291.746
290.758
106.16
40.2414
19.5401
96.5524
21.7924
19.4271
95.8021
40.6828
105.74
290.685
290.461
106.265
39.7754
21.8916
96.2579
19.5871
94.0934
19.5792
39.8779
100.717
290.936
284.202
105.963
38.5268
21.6873
19.5539
95.5094
19.5357
93.9527
40.7488
103.716
289.918
285.845
105.71
164.276
162.367
23.8158
167.379
164.582
413.014
413.573
415.081
414.7
23.4545
166.927
164.703
160.612
158.749
413.161
411.938
38.8975
19.3726
87.0785
21.4244
37.4043
19.3768
94.1707
102.153
285.264
93.9989
287.988
101.895
285.541
95.4081
288.562
37.6243
21.5209
19.3251
93.1719
19.3312
91.9863
38.5226
37.7603
21.7159
19.3764
93.9878
19.3991
87.4995
38.9295
97.3144
287.766
281.503
102.282
98.2681
288.549
281.128
101.559
414.02
414.82
412.278
412.869
23.6899
164.338
161.999
161.113
162.779
414.517
413.66
412.568
413.784
412.782
413.51
413.883
415.232
156.818
159.617
23.9077
165.575
168.789
413.661
411.761
414.778
414.856
23.5793
164.406
168.707
162.466
160.153
103.285
285.985
100.703
287.826
39.2905
89.1335
19.2858
21.4656
37.6324
92.6782
19.3718
39.1605
91.4932
19.2886
21.6332
38.5094
93.1588
19.3843
100.438
288.976
281.476
101.152
99.7579
287.479
284.436
101.913
37.2381
21.7326
93.1876
19.3341
85.8965
19.3756
39.1191
37.1115
21.6815
92.6599
19.2888
91.4586
19.3349
39.2074
162.753
158.969
24.0058
164.72
167.972
413.924
415.58
412.809
413.004
23.7957
164.906
167.766
161.977
159.168
414.933
414.797
40.5816
91.1877
19.5897
21.8266
39.545
96.2193
19.6185
105.072
288.303
100.016
290.217
40.4652
19.5402
93.4
21.6803
39.2338
19.6452
95.1843
99.1387
289.611
284.566
105.203
39.6389
21.865
96.3005
19.6306
88.9157
19.5628
40.9018
98.9058
290.97
283.758
105.777
39.063
21.8252
19.5726
96.7594
19.6504
95.4904
40.7011
106.177
287.92
101.958
290.872
40.9223
19.4998
90.0409
21.7492
39.8952
19.5313
95.6855
105.875
284.354
103.88
290.134
40.0662
21.7192
93.0946
19.4834
91.3245
19.5195
40.0426
99.5989
290.959
290.361
106.862
40.1488
21.7097
19.56
95.6781
19.4854
91.9565
41.1693
99.5395
290.383
287.461
106.881
162.1
161.004
23.8653
167.713
165.38
412.133
413.261
414.872
414.808
23.5106
167.37
165.275
162.724
161.467
413.581
413.206
39.152
19.3999
91.7333
21.4988
38.0031
19.4091
93.6288
101.526
285.787
96.7631
288.562
101.468
286.577
97.6996
288.47
37.9715
21.4765
19.354
91.3099
19.4046
89.9543
39.0708
38.4483
21.4701
19.4144
93.3877
19.3626
91.1857
39.0481
98.0317
287.873
285.599
101.878
98.2817
287.581
284.16
101.62
413.626
415.127
413.894
413.684
23.7038
164.934
165.949
165.334
162.923
414.813
413.543
412.525
412.532
412.421
413.769
415.11
415.546
156.773
160.861
24.0352
165.952
168.481
413.588
413.119
414.481
414.556
23.6776
165.14
168.436
163.175
166.112
101.783
284.287
99.2459
288.288
38.7117
86.8524
19.2423
21.646
38.3532
93.8467
19.3365
38.8229
87.2191
19.3465
21.6061
38.6074
93.2187
19.3538
99.7305
283.857
285.835
97.1505
97.6544
287.827
286.157
100.967
37.9533
21.4834
92.7379
19.347
91.8303
19.2881
38.5729
37.3374
21.6211
93.3173
19.2804
86.356
19.3127
38.7715
163.084
164.182
24.0058
165.524
167.325
413.161
414.755
413.126
412.193
23.8092
164.78
167.459
163.251
157.598
415.199
413.785
40.886
89.9545
19.5974
21.9948
38.6884
96.6152
19.5447
105.604
287.562
102.386
290.198
40.4965
19.6128
92.2162
21.9614
39.001
19.5593
95.8437
104.137
290.9
289.6
106.132
40.2014
21.7835
97.6905
19.6299
91.4697
19.6367
40.8597
100.646
290.202
285.595
106.079
39.5753
21.7252
19.5898
95.266
19.6584
91.6885
40.8578
106.728
287.481
99.219
290.919
40.7719
19.4684
92.5811
21.9844
38.9921
19.5842
96.0921
106.388
283.898
99.157
291.12
39.6658
21.9011
96.2712
19.5532
94.8736
19.5509
40.6042
103.916
290.783
288.796
105.886
39.18
21.7855
19.4393
96.2933
19.5085
94.2012
40.7459
103.715
290.493
286.03
105.863
161.755
159.982
23.8965
166.956
165.816
412.021
413.527
414.573
414.011
23.6456
167.374
165.236
162.391
161.218
413.192
412.309
38.9033
19.3628
88.6022
21.5317
38.1479
19.3396
93.5439
101.616
283.644
98.612
287.582
101.392
283.211
98.8917
287.578
38.0651
21.692
19.3284
90.7778
19.3486
92.1799
39.0298
37.5661
21.4996
19.4313
93.3328
19.428
90.0299
39.1362
99.423
287.45
283.275
102.019
99.5268
287.66
283.338
101.721
414.81
415.2
413.32
413.646
23.6241
164.889
165.203
162.595
158.316
414.655
414.446
413.186
413.087
412.668
413.57
415.172
415.287
160.461
164.447
24.0645
166.217
167.992
413.618
412.592
415.316
413.688
23.7079
165.183
168.044
159.879
158.368
100.776
285.61
96.7138
288.19
38.3777
89.2221
19.3132
21.739
37.2035
93.4902
19.2536
38.4599
86.8542
19.3395
21.7009
37.2992
93.9599
19.278
95.1467
285.288
283.277
100.602
97.9027
287.865
285.294
101.186
37.1065
21.6836
92.7986
19.3133
88.6382
19.3361
38.6521
37.2872
21.5361
93.6692
19.2826
87.2387
19.3567
38.8036
156.971
164.394
23.9695
165.773
166.928
414.872
415.281
413.405
412.437
23.7173
165.532
167.927
156.961
158.978
415.025
414.625
40.7175
95.3376
19.5002
22.0277
39.4749
96.5855
19.6172
106.224
286.952
101.285
290.718
40.9621
19.4669
91.0113
21.8944
40.0667
19.5917
92.3505
102.805
291.061
284.198
105.888
39.2951
21.8619
95.8547
19.5982
91.4615
19.532
40.9485
103.442
290.625
288.817
107.583
40.2265
21.9214
19.5711
96.0839
19.5909
94.888
41.5459
106.115
284.37
103.068
291.148
40.7396
19.5275
93.8828
21.9451
39.0317
19.4757
96.4526
106.167
285.83
103.542
290.727
39.4767
21.8205
93.5888
19.5512
94.0803
19.528
41.1471
101.654
290.914
284.121
106.021
39.7736
21.9523
19.5755
95.7963
19.5838
91.6747
41.0882
101.311
290.494
287.015
107.996
159.284
162.18
23.9475
166.869
164.819
412.136
413.507
415.371
413.425
23.7675
167.197
164.936
162.357
162.037
413.613
411.295
39.1258
19.3323
91.0906
21.4939
37.8885
19.292
93.4188
102.059
283.234
98.5143
288.08
102.974
284.343
96.5547
288.416
38.192
21.3878
19.3623
90.8152
19.3024
88.9172
38.9904
38.2465
21.7863
19.3925
93.9644
19.4008
87.561
39.3733
99.9579
288.925
283.048
101.978
100.751
287.859
285.425
102.269
413.925
414.925
412.439
413.711
23.9722
168.623
163.027
160.453
163.463
414.995
414.976
413.046
412.394
411.774
413.538
414.036
415.19
160.042
160.463
23.8716
164.52
167.501
413.727
412.726
415.315
414.038
23.6694
164.802
167.497
160.397
161.83
101.694
283.505
94.7745
287.607
38.5099
88.5846
19.214
21.597
37.2726
93.2682
19.3047
38.9659
87.224
19.3198
21.4737
37.959
94.1553
19.2683
95.4042
284.9
284.509
102.333
99.4623
287.675
283.664
102.046
37.3404
21.643
92.7182
19.3145
89.6554
19.3011
38.8928
38.5187
21.7025
93.3766
19.3301
91.9216
19.3582
39.0902
162.587
164.781
23.969
165.03
166.955
414.757
415.317
413.495
412.786
23.6669
166.038
167.159
157.622
160.043
414.707
414.279
40.9056
92.8289
19.4796
21.9336
39.749
94.7948
19.5956
106.367
288.307
103.001
290.498
41.5619
19.5411
89.6497
21.6743
39.7564
19.561
95.6187
102.968
289.899
287.448
105.556
39.9313
21.9194
96.8939
19.5849
90.1776
19.5751
40.9821
102.914
290.446
288.259
106.541
40.5503
21.7414
19.5795
95.6291
19.5667
92.0649
41.17
106.316
284.387
102.092
291.339
40.8598
19.5126
91.64
21.9158
39.4451
19.4581
95.6749
106.36
283.904
105.255
291.235
39.7924
21.5888
95.6297
19.5002
89.8157
19.5518
40.9628
103.096
290.95
284.184
106.191
39.7822
21.9592
19.5625
95.5541
19.5719
90.7173
41.0692
104.119
290.918
284.267
105.891
162.339
162.769
23.9639
167.262
164.837
413.18
413.688
414.8
413.353
23.6678
168.179
165.338
163.924
157.789
413.293
412.052
39.1018
19.2929
91.6326
21.637
38.6833
19.3895
93.7787
102.276
283.142
94.4339
288.691
102.524
283.316
95.4587
288.069
38.2981
21.5679
19.314
90.8072
19.3259
88.8741
38.9713
37.2615
21.6558
19.3935
93.3434
19.3899
92.1678
39.4398
95.2646
288.013
285.86
102.547
95.7899
288.15
283.663
102.835
414.947
415.265
411.748
413.39
23.9063
169.069
163.18
160.522
163.508
414.864
413.846
413.436
413.395
411.768
412.83
413.786
415.272
162.005
162.393
24.0442
164.963
167.918
413.672
413.588
414.916
413.437
23.8704
164.891
167.742
161.491
164.225
101.495
284.73
99.3635
288.126
38.6591
86.6869
19.2357
21.4375
37.7144
93.6488
19.2082
39.065
91.7701
19.3132
21.6512
37.3259
93.7612
19.2787
100.201
284.899
283.655
101.796
95.7935
288.434
280.936
101.798
37.0978
21.4145
92.7112
19.3126
88.8807
19.299
38.7
38.1475
21.6703
93.5974
19.3495
92.0582
19.3337
38.8509
162.559
162.139
24.0028
165.334
166.782
413.182
414.67
413.044
412.65
23.6546
165.269
168.073
161.213
157.803
415.298
413.909
40.8307
92.3206
19.5028
21.8608
38.7362
96.6653
19.4838
105.777
284.749
99.7944
290.678
40.8964
19.5206
90.9432
21.7171
40.0402
19.538
95.7328
103.812
287.914
287.542
102.813
39.9333
21.9162
96.1141
19.5634
92.1468
19.4783
40.4582
101.01
290.148
287.214
104.685
39.6037
21.7352
19.5498
95.1137
19.5362
91.0123
40.3189
104.808
288.886
100.055
290.708
40.7209
19.4462
91.0512
21.7195
39.8838
19.5612
96.3033
105.428
283.999
103.737
291.084
38.3651
21.6916
96.5025
19.4659
94.2806
19.4939
40.7836
99.6979
291.071
289.144
105.298
39.6781
21.8148
19.5615
95.7412
19.5509
91.1647
40.6404
98.7456
290.387
288.659
106.228
164.633
157.781
23.9005
167.511
165.688
411.956
413.592
414.926
413.711
23.3344
166.907
165.08
162.803
161.973
413.396
412.594
39.0187
19.3267
87.3088
21.7401
38.6134
19.3101
94.5672
102.571
283.584
95.5103
288.368
102.547
281.41
95.7995
285.784
37.8364
21.7213
19.3475
93.6394
19.3805
88.2267
38.4766
38.0731
21.5695
19.3754
93.6582
19.3031
92.3891
39.1133
99.6267
288.125
283.603
102.123
100.123
289.095
281.698
101.858
415.007
414.877
412.129
413.166
23.6439
167.624
163.431
160.495
163.557
415
414.041
413.79
414.16
411.941
413.776
413.909
415.715
159.846
159.959
24.0219
164.627
168.624
413.742
412.142
415.828
413.457
23.5761
165.28
168.154
160.858
159.56
102.386
286.008
94.9136
288.388
38.9238
89.9224
19.2324
21.6496
36.6882
93.3525
19.2123
39.0002
87.8384
19.2549
21.7635
37.9461
94.5937
19.3437
95.5901
288.559
282.655
97.801
100.031
287.957
285.381
101.728
38.3006
21.5
94.0839
19.3323
87.5691
19.317
38.8564
38.4678
21.6131
93.9614
19.3594
87.892
19.352
39.2109
158.73
164.878
24.0269
166.243
167.647
413.812
415.009
413.315
413.08
23.8706
165.922
167.387
162.754
162.324
414.998
414.215
40.907
93.281
19.5273
21.8786
38.5553
96.2143
19.4808
105.955
285.343
97.0355
290.328
40.6487
19.4847
88.353
21.655
38.3466
19.4937
96.0837
103.632
290.349
284.832
102.717
40.2129
21.8851
95.6372
19.5532
93.5952
19.4636
41.0925
102.998
289.877
285.326
105.769
39.9196
21.6224
19.5381
95.3672
19.5264
93.0235
40.622
105.084
285.451
100.292
287.875
40.5545
19.4604
91.5649
21.9363
39.9011
19.4214
95.7901
105.09
284
103.672
291.056
39.0784
21.8599
96.1803
19.4832
93.2497
19.5267
40.0327
100.458
291.676
290.577
105.956
38.4318
21.7864
19.5471
95.7127
19.5404
91.4034
40.9923
100.589
290.446
288.847
106.562
161.395
160.574
23.7261
167.483
164.573
412.268
413.587
415.163
413.076
23.4962
166.751
164.853
161.057
160.843
413.52
412.921
39.2136
19.3511
88.5018
21.7573
38.3096
19.3189
94.3889
101.982
281.282
98.7991
288.766
102.599
283.049
100.328
288.655
38.5925
21.622
19.3834
93.5918
19.3283
88.164
39.0891
37.7044
21.5718
19.3741
93.2992
19.3046
90.0257
39.1154
99.3311
288.517
281.83
101.838
98.2857
288.467
281.333
101.715
414.193
415.144
412.438
413.771
23.946
167.739
167.308
163.589
159.479
414.901
413.188
413.528
413.194
412.189
413.567
414.8
415.398
157.788
159.561
24.1466
166.361
168.565
413.806
412.635
415.424
413.646
23.6843
165.918
168.712
157.702
159.893
102.289
284.667
99.6517
288.668
39.15
88.3533
19.2697
21.5083
38.4831
93.5569
19.3031
39.4406
87.6604
19.2584
21.5929
38.5852
94.8589
19.3513
100.351
287.261
284.937
98.2794
99.6857
288.901
283.306
101.903
38.6102
21.6834
93.0562
19.3358
89.353
19.2767
38.9209
38.5812
21.6466
94.0032
19.3538
92.8863
19.3557
39.3113
162.051
162.393
24.0154
165.927
167.364
414.178
415.297
413.011
412.935
23.7617
166.337
166.96
156.914
161.728
414.969
414.857
40.8574
89.7827
19.5036
21.9452
40.1578
96.7735
19.4724
105.388
286.977
102.105
290.125
40.5461
19.4833
91.9418
21.6368
40.1499
19.5122
95.4227
100.829
288.167
285.769
103.398
39.7961
21.779
96.2687
19.5512
94.0403
19.4939
40.8589
99.075
290.702
283.869
106.558
39.825
21.6057
19.545
95.8001
19.5279
93.6086
41.0834
106.323
284.754
97.8491
290.966
40.5694
19.4685
92.2385
21.774
39.7498
19.4505
95.9583
105.659
284.882
102.414
290.962
39.3598
21.7203
96.212
19.5601
92.2455
19.553
40.7574
103.694
291.012
283.705
105.673
39.4006
21.7559
19.5376
96.6219
19.4525
90.5436
40.8196
99.1579
290.167
286.454
106.662
162.59
160.847
23.9164
167.776
165.364
413.081
413.569
414.667
414.69
23.7109
167.515
165.706
162.606
162.044
413.648
413.258
39.2033
19.3503
86.5071
21.693
36.8939
19.3597
94.315
101.687
282.521
99.8504
288.09
102.142
281.524
98.8309
288.689
36.9911
21.5056
19.3188
90.9222
19.3602
89.1606
39.3873
38.307
21.6863
19.3656
94.0467
19.3633
87.7506
39.1099
100.091
287.822
284.09
102.19
100.27
288.516
281.459
101.974
414.408
415.398
411.734
413.822
23.8354
169.192
164.895
161.268
164.304
414.731
414.521
413.375
413.394
412.656
413.461
414.545
415.484
163.083
161.21
24.0334
165.358
168.193
413.651
411.809
414.856
414.567
23.6674
164.701
167.963
161.765
165.373
102.139
285.246
94.2653
288.099
38.7793
89.319
19.3071
21.6687
38.3054
93.0092
19.3208
39.1053
91.1187
19.3157
21.7314
37.1829
93.9196
19.3341
99.5065
287.815
284.764
101.272
99.1013
287.609
284.161
101.748
38.2739
21.6988
93.4382
19.3325
86.478
19.3258
38.761
38.5144
21.7156
92.8106
19.3487
89.2641
19.3439
38.9617
162.99
161.053
24.0106
163.037
167.343
414.61
415.071
412.908
412.276
23.4587
165.7
166.803
164.327
161.396
414.743
413.924
40.7235
94.2694
19.4961
21.5722
39.5323
97.0459
19.4552
106.318
286.104
99.0499
290.594
41.0152
19.4779
88.3429
21.8832
40.438
19.4604
96.4061
103.625
287.706
288.523
103.548
39.8045
21.9436
96.0603
19.5013
92.4973
19.5655
40.986
99.3898
290.133
285.14
105.824
40.1633
21.6416
19.5336
95.8183
19.4503
93.5329
40.6646
106.209
288.643
103.023
290.62
41.0134
19.5022
92.1061
21.9634
39.9894
19.5263
96.1948
105.771
285.517
101.146
290.774
39.7402
21.7327
97.0596
19.5147
90.7421
19.5115
40.5228
100.063
290.404
287.894
106.849
40.1986
21.7574
19.5535
95.6322
19.5396
91.5057
41.1324
100.88
290.401
285.498
107.692
163.479
162.55
23.9805
167.884
165.152
413.113
413.501
415.37
413.771
23.7645
168.285
164.877
165.494
159.771
413.232
412.614
38.8286
19.3135
87.38
21.6146
37.6151
19.2944
94.3129
101.44
283.639
96.7522
287.754
101.566
286.073
98.7933
287.925
37.8046
21.6522
19.3568
93.0726
19.3514
86.7436
38.8909
37.5547
21.6572
19.3514
93.9737
19.2874
87.6582
38.8658
95.3704
287.791
284.104
101.352
97.327
288.346
281.461
101.296
414.948
415.271
413.178
414.157
23.6995
162.48
166.095
166.298
164.529
414.755
413.663
413.062
413.324
412.433
413.527
414.648
415.521
159.412
165.348
23.983
164.341
167.902
413.583
412.694
415.547
414.63
23.7445
164.753
168.473
160.502
160.038
101.445
283.035
97.698
287.774
38.6461
87.7297
19.2203
21.6424
38.2363
92.9487
19.3149
38.9985
88.6324
19.2901
21.5165
38.5417
92.5093
19.3116
98.2395
287.08
285.034
100.792
98.3689
287.666
283.743
102.068
38.0125
21.6635
92.83
19.3232
89.8525
19.3014
38.7606
37.5713
21.6587
92.331
19.3242
88.6669
19.305
38.9706
163.158
162.012
24.1172
164.91
168.479
413.675
415.351
413.38
412.373
23.8803
165.475
169.072
156.539
162.234
415.147
413.457
40.8761
91.7082
19.5068
21.8672
40.3809
96.3265
19.527
106.4
285.513
102.587
290.711
40.9645
19.5063
91.0942
21.8842
38.7664
19.5204
95.9485
103.778
290.728
286.024
105.455
39.4255
21.8941
95.6546
19.5581
91.654
19.5441
40.699
104.288
290.499
285.195
105.785
38.7916
21.6958
19.5361
95.2693
19.5261
90.6336
41.0329
106.217
286.439
103.367
290.369
41.2715
19.4282
88.9251
21.9635
39.0475
19.5441
96.7128
107.027
286.042
105.403
291.047
40.0211
21.9441
95.9957
19.4584
90.6461
19.4821
40.3632
103.938
290.171
285.966
105.676
40.0796
21.7681
19.5508
96.7776
19.5545
90.1932
40.9205
100.284
291.417
287.614
106.85
160.302
159.974
23.8355
168.509
164.768
412.466
413.556
415.209
414.208
23.5506
164.706
165.01
160.285
160.045
413.39
412.688
38.848
19.319
87.1382
21.4348
37.7141
19.2779
94.1764
101.374
282.085
96.4272
287.865
101.307
282.155
96.6585
288.478
38.1002
21.3625
19.2821
93.1916
19.2916
87.8566
38.0201
37.5575
21.5224
19.3063
93.4931
19.3612
91.3454
39.1169
97.3074
289.278
286.69
101.559
97.3829
288.074
285.563
101.643
414.546
415.247
412.414
413.948
23.8851
167.095
165.715
165.591
164.026
414.775
415.299
413.257
412.134
412.475
413.392
413.646
415.315
162.18
159.979
24.0271
165.293
168.818
413.518
412.655
415.177
413.964
23.7653
164.562
167.799
162.893
165.954
100.829
285.274
97.4352
287.608
38.9502
88.4766
19.2778
21.6442
37.0318
93.196
19.2731
38.8334
87.8795
19.2907
21.6792
38.049
92.6653
19.3037
99.8766
284.974
284.829
97.6607
96.615
287.61
281.21
101.091
36.9733
21.6745
93.048
19.3398
88.891
19.2708
38.8488
37.7208
21.4474
93.3104
19.3071
86.6438
19.2485
38.678
162.036
159.988
23.9705
165.085
168.652
414.344
415.043
413.304
412.571
23.7779
164.938
167.503
156.775
164.759
414.893
414.789
40.8682
92.895
19.4184
21.8576
39.7574
96.4008
19.5342