/*--------------------------------*- C++ -*----------------------------------*\
| =========                 |                                                 |
| \\      /  F ield         | OpenFOAM: The Open Source CFD Toolbox           |
|  \\    /   O peration     | Version:  2206                                  |
|   \\  /    A nd           | Website:  www.openfoam.com                      |
|    \\/     M anipulation  |                                                 |
\*---------------------------------------------------------------------------*/
FoamFile
{
    version     2.0;
    format      ascii;
    arch        "LSB;label=32;scalar=64";
    class       surfaceScalarField;
    location    "40";
    object      phi;
}
// * * * * * * * * * * * * * * * * * * * * * * * * * * * * * * * * * * * * * //

dimensions      [0 3 -1 0 0 0 0];

oriented        oriented;

internalField   nonuniform List<scalar> 
196491
(
-1.03291e-12
-3.88605e-12
-8.07538e-09
-1.49392e-12
-1.46549e-12
-4.68796e-12
-6.67674e-09
-3.40965e-12
-2.88688e-12
-1.60142e-08
-6.47924e-12
-2.39807e-08
-1.02551e-11
-1.05869e-12
-2.17007e-12
-1.18471e-08
4.41825e-12
1.31866e-11
-3.73666e-14
-2.18881e-08
-2.10926e-08
-1.21975e-13
-2.26725e-12
-1.44265e-08
-1.24534e-12
-1.62458e-12
-4.65095e-12
-6.67454e-09
-3.69493e-12
1.38443e-12
-2.98486e-12
-1.60129e-08
-6.60422e-12
-2.3972e-08
-9.9964e-13
-1.03836e-11
-2.14004e-12
-1.18437e-08
1.32317e-11
4.33067e-12
-2.18842e-08
-2.24853e-12
-1.44242e-08
-2.10841e-08
-3.81015e-12
-8.07617e-09
-2.2586e-12
2.6413e-13
-5.36606e-09
-1.17166e-12
2.334e-13
-2.90442e-09
-4.85195e-13
1.25543e-13
-1.4316e-09
-7.33834e-14
4.03326e-14
-5.93308e-10
2.33902e-14
-1.4122e-10
-2.75689e-12
-3.09597e-14
-2.04069e-13
-5.377e-09
-1.39842e-12
-1.13472e-13
-1.10241e-13
-2.90867e-09
-5.57289e-13
-1.0631e-13
-7.35704e-14
-1.43294e-09
-9.50846e-14
-7.11937e-14
-4.99224e-14
-5.93609e-10
-1.0157e-14
-5.68444e-15
-1.41263e-10
-1.54557e-12
-2.86838e-09
-7.31634e-13
-1.55545e-09
-2.9523e-13
-7.66304e-10
-1.01228e-13
-3.16971e-10
-7.51833e-11
-1.614e-12
-2.1914e-14
-2.13897e-13
-2.86855e-09
-7.69829e-13
-7.06097e-14
-1.01256e-13
-1.55564e-09
-2.92149e-13
-5.78518e-14
-5.23292e-14
-7.66377e-10
-5.92323e-14
-3.57782e-14
-2.82818e-14
-3.17051e-10
-8.73721e-15
-4.32435e-15
-7.51791e-11
-2.17894e-12
-5.36682e-09
-1.11015e-12
-2.90485e-09
-4.75871e-13
-1.43179e-09
-1.22226e-13
-5.93402e-10
-1.41262e-10
-2.69408e-12
-3.02468e-13
-5.37572e-09
-1.36706e-12
-1.71154e-13
-2.90808e-09
-5.85147e-13
-8.70342e-14
-1.4325e-09
-1.65872e-13
-3.4071e-14
-5.93456e-10
-1.24332e-14
-1.41211e-10
-1.19694e-12
-9.56774e-14
-3.31231e-09
-5.86342e-13
-2.482e-14
-1.79599e-09
-2.53913e-13
7.57022e-15
-8.85167e-10
-9.58551e-14
1.7863e-14
-3.66427e-10
-1.37486e-15
-8.70454e-11
-1.26746e-12
-2.03731e-14
-3.62761e-09
-6.38517e-13
-1.47159e-14
-1.9658e-09
-2.61612e-13
-1.96381e-14
-9.69159e-10
-5.14555e-14
-2.12362e-14
-4.01509e-10
1.02304e-15
-9.55028e-11
-1.18521e-12
-1.59889e-13
-3.31179e-09
-5.83062e-13
-1.12859e-13
-1.79572e-09
-2.33142e-13
-7.70374e-14
-8.85005e-10
-4.90944e-14
-4.6441e-14
-3.66404e-10
-7.47269e-15
-8.70319e-11
-1.23806e-12
-3.62717e-09
-6.16877e-13
-1.96556e-09
-2.60032e-13
-9.69024e-10
-8.23871e-14
-4.01435e-10
-9.54922e-11
-3.13004e-11
-1.29722e-11
-5.03698e-12
-8.12584e-09
-3.59681e-12
-1.41669e-12
8.08425e-09
-4.04667e-12
-8.07519e-09
4.09209e-11
3.4182e-11
2.59557e-08
3.5635e-11
3.63405e-11
-2.61028e-08
-5.84324e-11
2.20928e-11
-1.26052e-10
2.53623e-08
-2.52311e-08
-8.07201e-12
2.7496e-12
-2.16447e-11
2.49296e-08
-2.49062e-08
-8.65745e-11
-4.48652e-12
-1.61127e-08
-9.6542e-10
3.6587e-11
9.19747e-11
-1.27581e-11
5.03358e-10
3.27771e-10
1.15509e-10
4.20128e-10
-1.09056e-07
-7.26774e-11
-1.991e-10
2.31516e-08
-2.30249e-08
-4.72303e-11
-1.62774e-13
4.5759e-12
1.3208e-11
2.19177e-08
-2.1888e-08
-1.06351e-11
-3.83374e-12
1.60305e-08
-2.98522e-12
-1.60145e-08
-1.0436e-13
1.06207e-11
-8.696e-11
2.419e-08
-2.41608e-08
-1.67785e-10
9.09652e-11
3.91259e-11
2.80433e-11
-2.85993e-11
-5.23504e-11
5.0259e-11
-5.09829e-11
5.16855e-11
-1.07163e-07
-1.50557e-11
-2.47696e-11
2.29251e-08
-2.29039e-08
-3.41862e-11
8.38853e-11
-8.8532e-11
1.1946e-10
8.73879e-11
-1.18816e-10
-1.09614e-07
-4.73207e-11
1.32824e-11
4.29848e-12
2.19137e-08
-2.18841e-08
-1.09786e-11
1.56048e-12
-3.86722e-12
1.60295e-08
-2.96861e-12
-1.60133e-08
-8.71702e-11
1.01023e-11
2.41866e-08
-2.4157e-08
3.07693e-12
-8.39321e-11
-3.32957e-11
5.09326e-11
3.40708e-11
-5.13061e-11
8.46849e-11
7.25873e-12
-7.82071e-12
-1.08293e-07
-1.83658e-11
-1.89543e-12
-7.09436e-11
1.19027e-10
7.21039e-11
-1.18424e-10
-1.10587e-07
8.35023e-12
-1.47259e-11
-2.50971e-11
2.29107e-08
-2.28902e-08
-3.77209e-12
8.08532e-09
-3.87447e-12
-8.07612e-09
2.61378e-08
8.55745e-11
-2.61944e-08
-1.25033e-10
1.21126e-11
-2.2122e-11
2.49885e-08
-2.49642e-08
2.32749e-12
2.99348e-12
1.57895e-12
4.31587e-12
-1.80959e-08
-3.67228e-12
-2.16301e-12
1.17122e-11
1.39071e-11
-2.50901e-12
6.78263e-09
2.66864e-13
-4.63664e-12
-6.77575e-09
-2.89693e-12
6.74901e-09
-6.37691e-13
-4.26508e-12
-6.74121e-09
-1.19276e-11
-1.38287e-11
-1.80756e-08
1.04612e-13
3.1111e-12
1.00469e-12
4.48997e-12
-2.18695e-08
-5.60365e-12
1.79669e-11
1.58466e-11
-4.22436e-11
1.56018e-08
-3.81764e-12
-1.55333e-08
4.9056e-11
2.47486e-08
-1.45366e-10
-1.43868e-10
-2.46345e-08
3.02929e-14
-4.11328e-11
-5.28954e-11
-1.60881e-11
-2.18585e-08
2.88638e-12
2.98289e-11
-1.29352e-11
-2.0785e-08
-7.47604e-12
2.30057e-11
1.41049e-11
-8.06419e-12
1.52134e-08
-2.77955e-12
-1.52004e-08
2.30279e-11
2.37293e-08
-3.73433e-11
-3.29099e-11
-2.37038e-08
-3.24902e-12
2.12221e-11
7.8008e-12
-1.48905e-11
-2.0769e-08
2.9814e-12
3.67527e-11
3.23593e-11
-1.18591e-08
1.03895e-11
1.06031e-12
-1.70676e-12
2.26201e-12
1.02438e-11
2.11185e-08
6.67579e-12
-3.836e-11
-2.10925e-08
1.1761e-12
1.4441e-08
-1.07963e-13
-2.36411e-12
-1.44265e-08
-4.34104e-12
-1.32244e-11
-4.76988e-14
4.71698e-11
1.57009e-12
-2.34203e-12
-1.18469e-08
-6.69326e-12
3.86578e-11
-4.33434e-14
2.4206e-12
-6.68407e-09
6.47068e-13
4.98448e-12
1.29444e-12
2.40074e-08
-2.4789e-11
-2.39811e-08
3.92079e-12
1.08997e-11
3.11791e-12
-4.91813e-12
-6.6763e-09
2.45375e-11
-1.18559e-08
1.08956e-12
1.02763e-11
-1.52171e-12
2.35271e-12
1.05779e-12
1.44389e-08
-2.30483e-12
-1.44244e-08
1.05192e-11
2.11102e-08
6.63925e-12
-3.90182e-11
-2.10841e-08
-1.32149e-11
-4.42065e-12
4.70846e-11
1.65776e-12
-2.27141e-12
-1.18437e-08
2.42125e-12
-6.62286e-12
3.86147e-11
-6.68196e-09
9.23559e-13
4.95849e-12
1.40489e-12
2.39989e-08
-2.50907e-11
-2.39724e-08
3.69043e-12
-1.44378e-12
1.12646e-11
3.08378e-12
-4.71445e-12
-6.67417e-09
2.49283e-11
3.57866e-12
4.10066e-12
-2.42211e-12
-2.59633e-12
1.26736e-11
1.24777e-11
-1.81031e-08
6.93229e-13
4.35075e-12
-6.75004e-09
-6.96935e-13
4.4643e-12
-6.78433e-09
1.61476e-11
-7.95374e-12
2.08109e-11
-2.07836e-08
2.41107e-08
-3.08562e-11
-4.51012e-11
-2.40728e-08
1.59514e-11
2.19604e-11
-2.4468e-12
8.06308e-12
3.04693e-11
4.47824e-11
3.01844e-12
-1.52002e-08
-4.72925e-12
3.20787e-11
4.85443e-12
-2.18821e-08
-1.99062e-12
9.70013e-12
-8.65231e-13
-2.53798e-08
9.81167e-12
3.40277e-12
-1.56233e-08
-4.83603e-12
-2.43535e-08
6.75449e-11
4.50426e-12
-8.23987e-09
9.80711e-14
2.31673e-10
-4.5442e-10
-1.1247e-07
-3.196e-10
4.15119e-10
-1.19807e-07
3.70195e-10
-3.96423e-11
-1.15161e-07
3.55046e-10
-7.78268e-12
-1.24428e-07
-3.64412e-10
8.57162e-12
-1.12315e-07
1.03649e-12
-1.19881e-07
-1.47906e-11
-8.89938e-12
-1.14329e-07
-3.66105e-12
-1.23753e-07
-3.34847e-13
-1.17927e-07
-1.47529e-11
3.57009e-10
-1.24675e-07
1.22929e-11
-1.01251e-11
-1.17891e-07
-1.62118e-11
-1.23865e-07
-2.29533e-11
-2.35055e-08
1.4603e-11
2.13919e-11
-3.57076e-11
-3.5037e-11
1.5093e-11
2.54768e-08
-2.55097e-08
2.15865e-11
2.42769e-08
-2.42714e-08
-2.34998e-08
1.10295e-10
-2.55191e-08
4.16638e-10
-2.96774e-10
2.42518e-08
-2.41108e-08
2.50797e-08
-1.62728e-10
-2.49322e-08
-2.19589e-10
-9.14512e-11
-2.54249e-08
-2.49211e-08
-6.76957e-11
1.64608e-11
2.56796e-11
-6.71813e-11
2.37494e-08
1.42989e-11
-2.37243e-08
1.80063e-11
2.55864e-08
6.48773e-12
-2.55784e-08
-9.70202e-12
8.68374e-11
-8.8037e-14
-2.06101e-11
-2.48622e-08
-1.34546e-11
-6.82903e-12
-3.62624e-11
-2.52692e-08
-4.39898e-11
-4.46694e-11
2.39998e-08
-2.39807e-08
2.47652e-08
-3.76069e-11
-2.4735e-08
2.50872e-11
1.38707e-11
-2.53204e-08
-2.49209e-08
1.9955e-11
-6.64024e-11
-2.75369e-11
2.03188e-11
2.55844e-08
-2.55664e-08
-6.72965e-11
2.37405e-08
1.69444e-11
-2.3719e-08
8.65036e-11
-9.88796e-12
2.79984e-11
-2.49238e-08
-1.63618e-11
-2.52433e-08
-4.37584e-11
-3.94664e-11
-4.42313e-11
2.39889e-08
-2.39675e-08
-4.01152e-11
2.47726e-08
-2.47375e-08
1.38892e-11
2.56163e-11
-2.52656e-08
-1.70518e-11
5.61409e-11
-2.35044e-08
-8.24016e-11
-1.10908e-11
1.15509e-10
2.54117e-08
-2.53468e-08
-1.71543e-11
1.83249e-10
-2.45474e-08
-2.07362e-12
-3.29239e-13
2.59659e-13
-5.36716e-09
-6.67519e-13
-2.59616e-13
2.67714e-13
-2.90526e-09
-9.98385e-14
-1.82945e-13
1.84741e-13
-1.43199e-09
4.13312e-14
-1.07331e-13
8.95813e-14
-5.93521e-10
-1.94913e-14
2.93363e-14
-1.41259e-10
-2.47701e-12
8.82285e-14
5.3641e-09
-1.6786e-13
-5.36559e-09
-1.3012e-12
1.33211e-13
2.90307e-09
-1.8354e-13
-2.90423e-09
-5.33903e-13
8.24208e-14
1.43078e-09
-1.39838e-13
-1.43153e-09
-8.95527e-14
2.75751e-14
5.92858e-10
-8.23531e-14
-5.93301e-10
1.88791e-14
1.41076e-10
-1.59831e-14
-1.41206e-10
-2.18583e-12
-2.86899e-09
-1.06664e-12
-1.55584e-09
-4.56469e-13
-7.66478e-10
-1.16548e-13
-3.17061e-10
-7.51857e-11
-1.68474e-12
2.86704e-09
-9.3513e-14
-2.86814e-09
-8.26479e-13
1.55464e-09
3.19426e-14
-1.55537e-09
-3.475e-13
7.65876e-10
5.79695e-14
-7.66294e-10
-1.23942e-13
3.16789e-10
4.41705e-14
-3.16987e-10
7.50905e-11
8.04362e-15
-7.5177e-11
-1.70726e-12
2.58092e-14
2.86723e-09
-2.22173e-13
-2.8683e-09
-8.41473e-13
-3.38665e-14
1.55484e-09
-9.75191e-14
-1.55559e-09
-3.34021e-13
-3.09368e-14
7.65923e-10
-4.21713e-14
-7.66381e-10
-8.15674e-14
-1.79266e-14
3.16828e-10
-1.79097e-14
-3.1707e-10
-7.34426e-15
7.50896e-11
-3.44139e-15
-7.51779e-11
-2.33155e-12
5.365e-09
-5.36657e-09
6.11126e-14
-1.20936e-12
2.90367e-09
-2.90485e-09
4.0917e-14
-5.20569e-13
1.43114e-09
-1.43185e-09
2.34288e-14
-1.43353e-13
5.93094e-10
-5.93467e-10
1.04564e-14
1.4113e-10
-1.41263e-10
4.25601e-15
2.4722e-12
2.81229e-13
-3.52314e-13
1.25602e-12
2.0106e-13
-2.72718e-13
5.23007e-13
1.37062e-13
-1.54292e-13
1.13972e-13
7.81975e-14
-5.7143e-14
1.29533e-14
-2.73614e-14
1.22233e-12
-3.31106e-09
2.28334e-13
-4.55593e-13
5.85995e-13
-1.79523e-09
1.50883e-13
-3.13363e-13
2.48625e-13
-8.84765e-10
7.84205e-14
-1.97175e-13
1.02615e-13
-3.66256e-10
2.685e-14
-1.05382e-13
-8.6958e-11
1.27367e-14
-2.29525e-14
-1.43066e-12
1.25399e-13
3.62626e-09
-8.08996e-15
-3.62732e-09
-7.46049e-13
4.46905e-14
1.96496e-09
-1.38058e-15
-1.96571e-09
-3.03321e-13
5.8443e-15
9.68677e-10
-5.2895e-15
-9.69153e-10
-5.85344e-14
-9.2861e-15
4.01264e-10
-9.16654e-15
-4.01526e-10
1.81897e-15
9.5411e-11
1.25579e-15
-9.55016e-11
-1.39268e-12
2.57953e-13
-3.31213e-09
-7.11784e-13
1.33094e-13
-1.79597e-09
-3.04711e-13
7.22342e-14
-8.85198e-10
-9.97213e-14
3.82054e-14
-3.66466e-10
6.42474e-15
-8.70461e-11
1.3131e-12
2.11269e-14
6.41721e-13
3.13498e-14
2.64225e-13
2.92302e-14
7.30435e-14
2.05708e-14
2.62902e-15
1.64545e-12
3.83014e-13
7.56134e-13
2.26088e-13
2.95304e-13
1.10112e-13
1.06509e-13
3.56498e-14
1.67211e-14
1.29644e-12
-3.31061e-09
2.00258e-13
-3.05347e-13
6.23893e-13
-1.79497e-09
1.27442e-13
-1.72931e-13
2.41738e-13
-8.84572e-10
7.76772e-14
-8.90157e-14
6.10111e-14
-3.66187e-10
4.26462e-14
-3.67806e-14
-8.6946e-11
7.64247e-15
-1.18973e-14
-1.38188e-12
1.50129e-13
3.62586e-09
-3.62693e-09
-7.22048e-13
9.58642e-14
1.96477e-09
-1.96551e-09
-3.18082e-13
5.72203e-14
9.686e-10
-9.6904e-10
-1.00677e-13
2.8873e-14
4.01246e-10
-4.01468e-10
6.86612e-15
9.54018e-11
-9.54915e-11
-1.35754e-12
3.10021e-13
-3.31169e-09
-6.98896e-13
1.78751e-13
-1.79573e-09
-2.93092e-13
9.37679e-14
-8.85042e-10
-7.7598e-14
3.92082e-14
-3.66435e-10
1.29779e-14
-8.7034e-11
1.29656e-12
6.17215e-13
2.47783e-13
8.0322e-14
1.62696e-12
-6.46256e-14
2.15289e-13
7.57902e-13
6.23748e-16
1.0292e-13
2.9058e-13
1.0325e-14
4.96639e-14
7.93683e-14
8.83821e-15
2.27896e-14
2.91306e-15
4.14922e-15
2.25295e-12
-1.00458e-13
1.10032e-12
-7.74512e-14
4.5191e-13
-5.12666e-14
1.28122e-13
-2.54542e-14
-9.20681e-15
1.86307e-12
-1.67201e-13
3.52097e-13
-2.84805e-09
9.16527e-13
-9.18559e-14
2.03201e-13
-1.54446e-09
3.56276e-13
-3.47824e-14
1.22766e-13
-7.60938e-10
7.28357e-14
-2.9606e-15
6.86447e-14
-3.14755e-10
-5.18989e-15
1.15711e-14
-7.4651e-11
2.52576e-12
-5.35966e-09
-1.74758e-13
1.22499e-12
-2.90064e-09
-1.7789e-13
5.08331e-13
-1.4297e-09
-1.30893e-13
1.78156e-13
-5.92481e-10
-7.98737e-14
-1.40991e-10
-1.50479e-14
-2.31827e-12
-1.642e-13
2.64545e-13
5.16666e-09
-5.16912e-09
-9.31984e-13
-2.64602e-13
2.94464e-13
2.79637e-09
-2.79789e-09
-2.60008e-13
-1.9993e-13
2.15264e-13
1.3775e-09
-1.37831e-09
-3.55845e-14
-1.04054e-13
1.16594e-13
5.70532e-10
-5.70917e-10
-3.10723e-14
2.99478e-14
1.35649e-10
-1.35793e-10
-2.0532e-12
2.84927e-09
-2.85082e-09
-1.08855e-12
1.54542e-09
-1.54621e-09
-4.93592e-13
7.61366e-10
-7.61769e-10
-1.29927e-13
3.15016e-10
-3.15211e-10
7.46916e-11
-7.47661e-11
1.84034e-12
7.02227e-13
1.03706e-12
5.00491e-13
4.68513e-13
2.96774e-13
1.17526e-13
1.38543e-13
3.76154e-14
-2.7495e-12
3.50778e-13
5.16675e-09
-5.16832e-09
-1.49943e-12
2.59426e-13
2.79593e-09
-2.79711e-09
-6.51709e-13
1.50045e-13
1.37736e-09
-1.3781e-09
-1.40921e-13
5.7657e-14
5.70418e-10
-5.70841e-10
2.56926e-14
1.35608e-10
-1.35737e-10
-1.52793e-12
2.84901e-09
-2.85008e-09
-7.22226e-13
1.54493e-09
-1.54565e-09
-2.8448e-13
7.61197e-10
-7.6161e-10
-1.00726e-13
3.14906e-10
-3.151e-10
7.46517e-11
-7.47372e-11
1.52738e-12
-2.39682e-13
6.8447e-13
-2.65627e-13
2.52284e-13
-1.93437e-13
9.75535e-14
-1.08983e-13
-2.14776e-14
1.8724e-12
5.46023e-13
8.77929e-13
4.35009e-13
3.5134e-13
2.61612e-13
1.50427e-13
1.1623e-13
3.61818e-14
2.79118e-12
1.47716e-12
6.26333e-13
1.40026e-13
2.85288e-12
-5.37488e-09
1.41733e-12
-2.90726e-09
5.76254e-13
-1.43211e-09
1.41136e-13
-5.93171e-10
-1.41111e-10
-3.01525e-12
-5.37666e-09
-1.56281e-12
-2.9086e-09
-6.52278e-13
-1.43295e-09
-1.54381e-13
-5.93633e-10
-1.41262e-10
2.80668e-12
-5.37371e-09
1.36908e-12
-2.90676e-09
5.53294e-13
-1.43179e-09
1.61699e-13
-5.93125e-10
-1.41063e-10
-2.86104e-12
-5.37545e-09
-1.45665e-12
-2.90806e-09
-6.00178e-13
-1.43256e-09
-1.61939e-13
-5.93519e-10
-1.41213e-10
1.60546e-12
4.55544e-14
-2.84962e-09
7.62644e-13
-1.37095e-14
-1.54535e-09
3.00653e-13
-2.27552e-14
-7.61389e-10
9.62757e-14
-1.69134e-14
-3.14963e-10
-2.45861e-15
-7.46808e-11
2.57423e-12
-1.78587e-13
-5.16774e-09
1.29408e-12
-1.11014e-13
-2.79665e-09
5.29257e-13
-5.69604e-14
-1.37766e-09
1.38097e-13
-2.08038e-14
-5.70503e-10
-8.53251e-15
-1.35642e-10
2.56966e-12
-5.16724e-09
1.23987e-12
-2.79639e-09
4.95329e-13
-1.37755e-09
1.62325e-13
-5.70453e-10
-1.3564e-10
2.94106e-10
2.41533e-10
1.07436e-07
1.89512e-10
2.54973e-10
1.3349e-10
3.04613e-11
2.23479e-10
7.08466e-11
8.60979e-11
-1.0821e-07
-7.50815e-10
-1.82505e-11
5.86819e-11
1.20104e-11
2.59742e-08
-2.6127e-08
1.00296e-10
8.18724e-13
-4.9881e-12
3.99626e-11
-3.51493e-11
1.11794e-07
-1.11795e-07
-3.83186e-11
5.22442e-12
-1.09049e-11
1.07236e-07
2.81238e-11
3.99835e-11
-2.81813e-11
-5.28881e-11
5.06964e-11
-5.19475e-11
5.28316e-11
-1.07231e-07
-1.07765e-07
8.22873e-12
4.69777e-10
-7.78909e-10
1.08038e-07
1.9967e-11
4.26346e-11
-1.6733e-11
1.70031e-12
2.05623e-11
-1.75782e-11
-2.27629e-11
-2.61254e-08
8.18695e-11
-8.14261e-13
4.47011e-11
2.73261e-11
2.59723e-08
4.36291e-13
-6.24983e-13
-1.11792e-07
3.85571e-13
-2.94569e-13
1.11792e-07
-1.07232e-07
-3.83946e-11
1.0319e-13
-1.13974e-12
1.0723e-07
2.85185e-11
4.03946e-11
-2.45426e-11
-5.23841e-11
5.04751e-11
5.29328e-11
-5.38658e-11
-1.08119e-07
-4.3859e-11
-1.24113e-12
8.59955e-13
1.08119e-07
1.58295e-11
4.40513e-11
-1.72942e-11
1.87142e-12
2.20659e-11
-1.63239e-13
-2.21672e-11
-2.61151e-08
2.85896e-11
4.44011e-11
4.39028e-11
2.98475e-11
2.59684e-08
-8.10236e-14
-1.94965e-12
-1.1179e-07
1.55877e-12
1.52257e-13
1.11791e-07
-1.07227e-07
-3.87126e-11
-9.24585e-13
-8.38887e-13
1.07227e-07
2.8278e-11
4.01878e-11
-2.82268e-11
-5.20649e-11
5.0682e-11
5.30853e-11
-5.11153e-11
-1.0812e-07
-4.40266e-11
-9.35216e-13
1.76954e-12
1.08121e-07
1.57154e-11
4.35532e-11
-1.76694e-11
1.7714e-12
2.16136e-11
-4.7471e-13
-2.23918e-11
-2.61144e-08
2.90418e-11
4.41761e-11
4.4214e-11
2.92334e-11
2.59677e-08
-7.66206e-13
-9.12557e-13
-1.11789e-07
1.12543e-12
4.34012e-13
1.11789e-07
-1.07224e-07
-3.8977e-11
-1.63869e-12
-1.8394e-13
1.07223e-07
2.80462e-11
3.99126e-11
-2.48419e-11
-5.19352e-11
5.08241e-11
5.32163e-11
-5.33172e-11
-1.08122e-07
-4.37189e-11
-5.63782e-13
1.06409e-12
1.08123e-07
1.61127e-11
4.38955e-11
-1.72261e-11
1.48478e-12
2.1388e-11
-8.53364e-13
-2.25093e-11
-2.61145e-08
2.91961e-11
4.3941e-11
4.44832e-11
2.91093e-11
2.59678e-08
-1.53566e-12
2.72541e-13
-1.11787e-07
1.58259e-13
7.85224e-13
1.11788e-07
-1.07224e-07
-3.90185e-11
-1.7534e-12
-2.50701e-14
1.07224e-07
2.8067e-11
3.99185e-11
-2.83218e-11
-5.21015e-11
5.06292e-11
5.30645e-11
-5.11856e-11
-1.08123e-07
-4.33041e-11
2.93671e-14
-1.78703e-14
1.08124e-07
1.65169e-11
4.42684e-11
-1.68548e-11
1.24602e-12
2.11892e-11
-1.10721e-12
-2.27504e-11
-2.61143e-08
2.91724e-11
4.40559e-11
4.42611e-11
2.92094e-11
2.59676e-08
-2.23949e-12
1.22232e-12
-1.11787e-07
-8.16327e-13
1.11892e-12
1.11788e-07
-1.07225e-07
-3.9069e-11
-1.15595e-12
4.0787e-13
1.07225e-07
2.79471e-11
3.98514e-11
-2.49027e-11
-5.23193e-11
5.03194e-11
5.27984e-11
-5.37492e-11
-1.08124e-07
-4.31648e-11
9.00394e-13
-8.94941e-13
1.08125e-07
1.65406e-11
4.43834e-11
-1.68712e-11
1.16576e-12
2.1092e-11
-1.22262e-12
-2.27678e-11
-2.61146e-08
2.91924e-11
4.42044e-11
4.40628e-11
2.91985e-11
2.59679e-08
-2.46692e-12
1.76715e-12
-1.11788e-07
-1.5308e-12
1.39557e-12
1.11789e-07
-1.07228e-07
-3.91045e-11
-1.02902e-12
1.90657e-13
1.07229e-07
2.76282e-11
3.99373e-11
-2.80644e-11
-5.22635e-11
5.03353e-11
5.27499e-11
-5.12813e-11
-1.08125e-07
-4.33216e-11
8.7444e-13
-1.03469e-12
1.08126e-07
1.63284e-11
4.43338e-11
-1.69716e-11
1.42323e-12
2.12399e-11
-1.11644e-12
-2.25115e-11
-2.61149e-08
2.92168e-11
4.43401e-11
4.40347e-11
2.91894e-11
2.59681e-08
-2.28592e-12
1.74716e-12
-1.11789e-07
-1.72494e-12
1.55749e-12
1.1179e-07
-1.07229e-07
-3.91215e-11
-8.21208e-13
1.92987e-13
1.07228e-07
2.75675e-11
3.99625e-11
-2.44833e-11
-5.21886e-11
5.02986e-11
5.27421e-11
-5.3546e-11
-1.08126e-07
-4.34953e-11
4.26014e-13
-6.07465e-13
1.08127e-07
1.61605e-11
4.42272e-11
-1.70737e-11
1.62658e-12
2.13765e-11
-9.83226e-13
-2.23016e-11
-2.61148e-08
2.91298e-11
4.44469e-11
4.399e-11
2.92893e-11
2.5968e-08
-1.94491e-12
1.36216e-12
-1.1179e-07
-1.58846e-12
1.32825e-12
1.11791e-07
-1.07229e-07
-3.90959e-11
-9.12989e-13
-6.72899e-14
1.0723e-07
2.76488e-11
3.9994e-11
-2.79498e-11
-5.22027e-11
5.03268e-11
5.27934e-11
-5.12169e-11
-1.08127e-07
-4.35977e-11
8.11129e-14
-1.66216e-14
1.08127e-07
1.61209e-11
4.40748e-11
-1.71854e-11
1.6559e-12
2.14774e-11
-8.96938e-13
-2.22922e-11
-2.61146e-08
2.90641e-11
4.42801e-11
4.41659e-11
2.92756e-11
2.59678e-08
-1.14866e-12
6.83722e-13
-1.11792e-07
-1.08896e-12
5.50199e-13
1.11793e-07
-1.0723e-07
-3.88563e-11
-1.01411e-12
-5.11855e-13
1.0723e-07
2.7877e-11
4.01077e-11
-2.43342e-11
-5.23392e-11
5.03349e-11
5.28117e-11
-5.3731e-11
-1.08127e-07
-4.35681e-11
2.28354e-13
3.06812e-13
1.08128e-07
1.61342e-11
4.39868e-11
-1.73232e-11
1.49474e-12
2.15062e-11
-8.7151e-13
-2.24616e-11
-2.61145e-08
2.90475e-11
4.41735e-11
4.41732e-11
2.93098e-11
2.59678e-08
-3.68092e-13
4.87585e-13
-1.11793e-07
-7.6626e-13
-1.87004e-13
1.11794e-07
-1.07231e-07
-3.87981e-11
-1.1402e-12
-8.41584e-13
1.07232e-07
2.79437e-11
4.01971e-11
-2.77947e-11
-5.22742e-11
5.0422e-11
5.28393e-11
-5.12719e-11
-1.08127e-07
-4.35716e-11
2.95026e-13
2.63047e-13
1.08128e-07
1.61555e-11
4.40169e-11
-1.72359e-11
1.4964e-12
2.1454e-11
-9.01571e-13
-2.24639e-11
-2.61143e-08
2.91767e-11
4.42357e-11
4.40698e-11
2.92584e-11
2.59676e-08
-6.24673e-13
7.941e-13
-1.11795e-07
-8.25504e-13
-4.73075e-14
1.11795e-07
-1.07232e-07
-3.88108e-11
-1.22317e-12
-3.6027e-13
1.07231e-07
2.79193e-11
4.00763e-11
-2.43862e-11
-5.22544e-11
5.0505e-11
5.29615e-11
-5.36431e-11
-1.08127e-07
-4.34784e-11
1.84283e-13
1.63787e-13
1.08127e-07
1.62692e-11
4.40614e-11
-1.72348e-11
1.43458e-12
2.15068e-11
-8.68942e-13
-2.25188e-11
-2.61141e-08
2.90728e-11
4.41216e-11
4.42023e-11
2.93083e-11
2.59674e-08
-1.15173e-12
1.04077e-12
-1.11795e-07
-1.04033e-12
5.82417e-13
1.11796e-07
-1.07231e-07
-3.88481e-11
-1.30393e-12
-1.38631e-15
1.07232e-07
2.78907e-11
3.98874e-11
-2.81857e-11
-5.22443e-11
5.0617e-11
5.30507e-11
-5.12727e-11
-1.08126e-07
-4.34421e-11
1.07164e-13
1.36367e-13
1.08127e-07
1.62751e-11
4.40105e-11
-1.72652e-11
1.49839e-12
2.16371e-11
-7.26935e-13
-2.24757e-11
-2.61141e-08
2.88501e-11
4.40069e-11
4.43093e-11
2.94698e-11
2.59674e-08
-1.45364e-12
8.46595e-13
-1.11796e-07
-8.18136e-13
1.15867e-12
1.11796e-07
-1.07231e-07
-3.87934e-11
-1.22767e-12
4.11302e-14
1.0723e-07
2.79687e-11
3.96965e-11
-2.47532e-11
-5.23797e-11
5.05492e-11
5.30081e-11
-5.37264e-11
-1.08125e-07
-4.3466e-11
4.83226e-13
1.58638e-13
1.08126e-07
1.62668e-11
4.39368e-11
-1.73215e-11
1.31457e-12
2.15264e-11
-8.3087e-13
-2.26468e-11
-2.61143e-08
2.8945e-11
4.40681e-11
4.42711e-11
2.9347e-11
2.59676e-08
-7.18758e-13
2.08486e-13
-1.11796e-07
-2.88368e-12
2.99274e-12
1.11796e-07
-1.07232e-07
-3.82852e-11
-1.4225e-12
-1.21049e-12
1.07233e-07
2.84794e-11
3.96455e-11
-2.83066e-11
-5.25554e-11
5.08086e-11
5.32752e-11
-5.15052e-11
-1.08125e-07
-4.3416e-11
-4.44898e-13
3.48661e-13
1.08126e-07
1.63197e-11
4.36876e-11
-1.75192e-11
1.44474e-12
2.17465e-11
-5.63997e-13
-2.27522e-11
-2.61144e-08
2.88574e-11
4.39389e-11
4.4363e-11
2.93305e-11
2.59679e-08
-7.68899e-13
-1.12516e-07
4.20003e-13
-2.33219e-12
1.6566e-12
1.12517e-07
-1.08025e-07
-4.33729e-11
-6.23266e-13
-3.42954e-12
9.35192e-11
4.58654e-11
-9.19295e-11
-4.4013e-10
3.28375e-10
4.41062e-10
-3.29082e-10
-1.08627e-07
2.40615e-10
6.50373e-13
1.73105e-12
1.84625e-10
-2.3917e-10
-1.84866e-10
-1.04858e-10
2.33739e-10
1.06211e-10
-2.34483e-10
1.08623e-07
-2.62649e-08
-2.61762e-10
-2.40806e-10
3.05575e-10
2.49719e-10
2.62122e-08
3.06423e-10
2.48688e-10
2.62105e-08
-2.62673e-08
-2.04255e-10
4.76437e-12
2.61164e-08
-2.59658e-08
-4.60913e-11
-2.57014e-11
-8.3516e-11
1.76074e-10
1.07684e-07
2.0122e-11
-1.08464e-11
-2.41521e-11
1.9117e-11
2.15472e-11
-1.77014e-11
-1.79824e-11
-1.07814e-07
-5.43481e-11
-1.08114e-07
1.94082e-10
-3.61095e-10
-2.10559e-11
-1.86512e-10
-3.17862e-10
-2.20034e-11
1.66036e-11
-2.33797e-10
1.28537e-09
-1.56049e-12
1.07759e-07
-1.07634e-07
-2.34256e-10
4.92958e-12
-2.15607e-11
2.20978e-11
-1.99385e-11
-2.19637e-11
1.58366e-11
1.71037e-11
1.13779e-10
-2.59736e-08
-4.65126e-11
-2.4549e-11
-8.22672e-11
3.55489e-11
3.85645e-11
3.67458e-11
3.63335e-11
2.59575e-08
-2.61047e-08
-3.63665e-11
-4.01763e-11
2.61013e-08
-2.59543e-08
-3.50595e-11
-3.54182e-11
3.49015e-12
1.09141e-07
1.21876e-11
3.57749e-11
-1.28749e-11
2.39087e-11
2.02661e-11
-2.17182e-11
-2.40638e-11
-1.09142e-07
-3.62774e-11
-1.32338e-12
5.31766e-12
1.0918e-07
1.15944e-11
3.58338e-11
-1.38659e-11
2.46894e-11
2.00316e-11
-2.12776e-11
-2.44884e-11
-1.09181e-07
1.09137e-07
-9.32887e-13
-1.09139e-07
7.40136e-13
-3.54628e-11
-1.28733e-11
1.19002e-11
-2.32326e-11
-2.09128e-11
2.09486e-11
2.48208e-11
3.64147e-11
1.09179e-07
-9.73111e-13
-1.0918e-07
2.01456e-12
-3.61525e-11
-1.36216e-11
1.19561e-11
-2.34709e-11
-2.06374e-11
2.04189e-11
2.47909e-11
3.65275e-11
3.62928e-11
2.59584e-08
-2.61058e-08
-4.06797e-11
2.61044e-08
-2.59566e-08
-3.45008e-11
-3.62317e-11
-8.35076e-12
1.07245e-07
2.84509e-11
3.90023e-11
-2.8334e-11
-5.22976e-11
5.06987e-11
-5.11482e-11
5.33539e-11
-1.07243e-07
-8.83537e-11
-3.28093e-10
6.41814e-10
1.08356e-07
2.07353e-11
3.09383e-11
-2.55533e-11
-3.43642e-11
5.05955e-11
-5.06524e-11
4.79914e-11
-1.08621e-07
1.07236e-07
1.1267e-13
-1.07239e-07
-9.41029e-13
-3.808e-11
-2.78912e-11
2.86621e-11
5.36611e-11
-5.09869e-11
5.07748e-11
-5.19883e-11
3.05911e-11
1.08232e-07
3.70025e-13
-1.08235e-07
-1.35749e-13
-2.85843e-11
-2.49529e-11
2.53647e-11
3.43191e-11
-5.0412e-11
4.97832e-11
-3.32381e-11
-3.12199e-10
6.53701e-10
1.08374e-07
2.14835e-11
3.38388e-11
-2.45716e-11
-3.52491e-11
4.997e-11
-5.17744e-11
4.76655e-11
-1.08675e-07
1.88767e-13
-1.07234e-07
-1.66612e-12
-3.82486e-11
-2.78516e-11
2.86869e-11
5.30515e-11
-5.14807e-11
-5.23768e-11
5.05371e-11
3.0917e-11
1.08251e-07
1.88823e-12
-1.08254e-07
-2.35849e-13
-2.85426e-11
-2.46136e-11
2.48003e-11
3.389e-11
-5.10053e-11
4.96507e-11
-3.38819e-11
4.67512e-11
2.63067e-11
2.59632e-08
-4.44025e-11
2.61049e-08
-2.59591e-08
-4.26786e-11
-2.80984e-11
4.60469e-10
-8.03752e-10
1.08084e-07
1.82296e-11
3.85675e-11
-1.88276e-11
1.21123e-12
1.99091e-11
-2.2636e-11
-1.84845e-11
-1.35346e-12
-1.0812e-07
3.79342e-13
-4.35888e-11
-1.69093e-11
1.61659e-11
-2.72295e-13
-2.20736e-11
1.9221e-12
2.2224e-11
4.438e-11
1.08175e-07
-1.4082e-12
-1.08175e-07
8.09759e-13
-4.44187e-11
-1.73333e-11
1.59639e-11
-4.07341e-13
-2.18033e-11
2.17038e-11
2.11556e-12
-2.59685e-08
-4.38413e-11
-2.74029e-11
3.57257e-11
3.8159e-11
3.73553e-11
3.63831e-11
2.59537e-08
-3.59078e-11
-4.00373e-11
2.61004e-08
-2.5953e-08
-3.54449e-11
-3.59413e-11
1.68353e-12
1.09137e-07
1.15799e-11
3.60279e-11
-1.32079e-11
2.4766e-11
2.0769e-11
-2.33994e-11
-2.10452e-11
-3.61699e-11
-2.04102e-14
1.9576e-12
1.09179e-07
1.19026e-11
3.6307e-11
-1.73556e-11
2.47321e-11
2.05957e-11
-2.35815e-11
-1.85565e-11
1.09135e-07
-7.98309e-13
-1.09135e-07
2.61965e-12
-3.61288e-11
-1.33112e-11
1.12141e-11
-2.35912e-11
-2.12485e-11
2.04606e-11
2.46445e-11
3.66451e-11
1.09176e-07
2.50037e-13
-1.09176e-07
1.09241e-12
-3.5988e-11
-1.33841e-11
1.20892e-11
-2.39324e-11
-2.1276e-11
2.02311e-11
2.44506e-11
3.69861e-11
3.66906e-11
2.59562e-08
-4.04568e-11
2.61034e-08
-2.59555e-08
-3.49912e-11
-3.58834e-11
-6.86828e-13
1.07233e-07
2.84677e-11
4.00168e-11
-2.81038e-11
-5.22223e-11
5.04214e-11
5.32963e-11
-5.12372e-11
-2.86346e-11
1.19663e-12
1.62406e-13
1.0823e-07
2.51995e-11
3.04306e-11
-2.52003e-11
-3.34796e-11
4.94455e-11
3.3931e-11
-5.06381e-11
1.07228e-07
1.24296e-12
-1.07229e-07
-5.69099e-13
-3.83377e-11
-2.81451e-11
2.81763e-11
5.26806e-11
-5.15825e-11
4.98453e-11
-5.26513e-11
3.04366e-11
1.08225e-07
2.25578e-12
-1.08226e-07
-2.26258e-13
-2.88398e-11
-2.5246e-11
2.48767e-11
3.32686e-11
-5.09853e-11
4.88833e-11
-3.39436e-11
1.3875e-12
4.62438e-14
1.08249e-07
2.47169e-11
3.07097e-11
-2.48287e-11
-3.3889e-11
4.95358e-11
-5.10362e-11
3.37408e-11
1.10149e-13
-1.07229e-07
-1.31132e-12
-3.85742e-11
-2.79563e-11
2.84372e-11
5.31387e-11
-5.11548e-11
-5.2108e-11
5.06796e-11
3.05638e-11
1.08245e-07
8.40856e-13
-1.08246e-07
6.68147e-15
-2.89753e-11
-2.49118e-11
2.44043e-11
3.37936e-11
-5.08161e-11
4.96315e-11
-3.3761e-11
4.35755e-11
3.03164e-11
2.59586e-08
-4.37255e-11
2.61038e-08
-2.59579e-08
-4.33002e-11
-2.83916e-11
-5.72872e-13
1.07588e-12
1.08175e-07
1.59007e-11
4.43611e-11
-1.73757e-11
2.18709e-12
2.15708e-11
-2.17634e-11
-5.36633e-13
-3.45196e-13
-1.0812e-07
1.38192e-12
-4.39181e-11
-1.75404e-11
1.57994e-11
-2.67855e-13
-2.22398e-11
1.90457e-12
2.17937e-11
4.4693e-11
1.08173e-07
-1.23404e-13
-1.08173e-07
7.09652e-14
-4.42813e-11
-1.70186e-11
1.60406e-11
-7.62837e-13
-2.19874e-11
2.1325e-11
1.95963e-12
-2.59677e-08
-4.35325e-11
-2.79116e-11
3.62085e-11
3.84609e-11
3.68385e-11
3.58779e-11
2.5953e-08
-3.61523e-11
-3.98095e-11
2.61007e-08
-2.59536e-08
-3.5466e-11
-3.56747e-11
3.03988e-12
1.09135e-07
1.1125e-11
3.58204e-11
-1.33832e-11
2.45619e-11
2.03078e-11
-2.38213e-11
-2.12963e-11
-3.59375e-11
6.9603e-13
1.09863e-12
1.09175e-07
1.2181e-11
3.67193e-11
-1.3291e-11
2.44649e-11
2.00578e-11
-2.41146e-11
-2.12718e-11
1.09134e-07
-9.74026e-14
-1.09134e-07
2.35135e-12
-3.59709e-11
-1.29643e-11
1.14754e-11
-2.40447e-11
-2.15136e-11
2.01253e-11
2.4229e-11
3.69249e-11
1.09173e-07
8.80912e-13
-1.09173e-07
1.77384e-13
-3.56917e-11
-1.29614e-11
1.25322e-11
-2.42199e-11
-2.14266e-11
2.00017e-11
2.4244e-11
3.63907e-11
3.7035e-11
2.59554e-08
-4.01702e-11
2.61036e-08
-2.59556e-08
-3.53159e-11
-3.56572e-11
-4.69014e-13
1.07228e-07
2.80533e-11
3.98863e-11
-2.8287e-11
-5.26601e-11
4.97042e-11
5.24551e-11
-5.15385e-11
-2.89151e-11
2.62046e-12
1.07637e-13
1.08225e-07
2.47808e-11
3.03804e-11
-2.53393e-11
-3.39405e-11
4.87122e-11
3.3046e-11
-5.09721e-11
1.07227e-07
7.01381e-13
-1.07226e-07
-4.0375e-13
-3.86006e-11
-2.8296e-11
2.79689e-11
5.25588e-11
-5.13876e-11
4.98906e-11
-5.25963e-11
3.03461e-11
1.08225e-07
1.80671e-12
-1.08224e-07
-3.77641e-13
-2.89689e-11
-2.52972e-11
2.47515e-11
3.31083e-11
-5.08111e-11
4.887e-11
-3.39051e-11
6.46963e-13
3.19745e-13
1.08244e-07
2.43364e-11
3.04832e-11
-2.49762e-11
-3.36129e-11
4.96457e-11
-5.0678e-11
3.37501e-11
-1.00115e-12
-1.07225e-07
-8.60662e-13
-3.88162e-11
-2.82063e-11
2.81839e-11
5.3368e-11
-5.08793e-11
-5.18623e-11
5.09354e-11
3.04126e-11
1.08242e-07
-1.03562e-13
-1.08242e-07
1.22297e-13
-2.91798e-11
-2.49322e-11
2.43334e-11
3.39252e-11
-5.05767e-11
4.98559e-11
-3.35839e-11
4.29685e-11
2.99314e-11
2.59579e-08
-4.39692e-11
2.61046e-08
-2.59587e-08
-4.30351e-11
-2.86109e-11
-1.6978e-14
3.72734e-14
1.08173e-07
1.61295e-11
4.47795e-11
-1.69344e-11
1.96659e-12
2.11435e-11
-2.1997e-11
-9.4864e-13
-1.36292e-14
-1.08122e-07
1.02041e-12
-4.37639e-11
-1.71627e-11
1.60634e-11
-6.66259e-13
-2.24373e-11
1.54733e-12
2.14928e-11
4.50031e-11
1.08173e-07
2.13916e-13
-1.08172e-07
-8.27557e-13
-4.39793e-11
-1.66519e-11
1.63922e-11
-1.11521e-12
-2.21703e-11
2.10448e-11
1.72448e-12
-2.59678e-08
-4.3216e-11
-2.81329e-11
3.59055e-11
3.86982e-11
3.62953e-11
3.62171e-11
2.59535e-08
-3.65845e-11
-3.95957e-11
2.6101e-08
-2.59539e-08
-3.56697e-11
-3.52978e-11
2.26084e-12
1.09134e-07
1.15317e-11
3.61822e-11
-1.29044e-11
2.41236e-11
1.99684e-11
-2.43045e-11
-2.15573e-11
-3.56717e-11
1.38477e-12
2.75586e-13
1.09173e-07
1.24992e-11
3.69327e-11
-1.65926e-11
2.42573e-11
1.98854e-11
-2.43814e-11
-1.89814e-11
1.09133e-07
6.70579e-13
-1.09133e-07
8.46434e-13