/*--------------------------------*- C++ -*----------------------------------*\
| =========                 |                                                 |
| \\      /  F ield         | OpenFOAM: The Open Source CFD Toolbox           |
|  \\    /   O peration     | Version:  2206                                  |
|   \\  /    A nd           | Website:  www.openfoam.com                      |
|    \\/     M anipulation  |                                                 |
\*---------------------------------------------------------------------------*/
FoamFile
{
    version     2.0;
    format      ascii;
    arch        "LSB;label=32;scalar=64";
    class       volVectorField;
    location    "40";
    object      U;
}
// * * * * * * * * * * * * * * * * * * * * * * * * * * * * * * * * * * * * * //

dimensions      [0 1 -1 0 0 0 0];

internalField   nonuniform List<vector> 
66701
(
(1.38308e-05 1.09561e-05 0.0742916)
(1.59101e-05 7.75087e-07 0.0722363)
(4.12532e-05 6.6011e-06 0.0861444)
(4.6337e-05 4.96484e-06 0.0977701)
(1.63732e-05 -1.12064e-06 0.0797608)
(6.15366e-05 -2.02876e-07 0.107736)
(6.0463e-05 1.05796e-06 0.105519)
(1.62615e-05 -8.3948e-07 0.0828538)
(1.64246e-05 8.483e-07 0.0722566)
(4.1492e-05 -5.53957e-06 0.0861625)
(4.65043e-05 -3.95544e-06 0.0977824)
(1.62905e-05 1.46518e-06 0.0797794)
(6.08642e-05 -2.32099e-07 0.107735)
(1.62291e-05 -2.61818e-07 0.0828605)
(5.90436e-05 -1.05717e-06 0.105523)
(1.47522e-05 -8.74366e-06 0.0743092)
(4.7991e-06 8.34163e-06 0.0533176)
(1.61383e-06 6.30832e-06 0.0365651)
(1.11031e-07 4.20578e-06 0.0229823)
(-6.69313e-07 2.11288e-06 0.012203)
(-1.20733e-07 7.81237e-07 0.00373489)
(1.06024e-05 2.23737e-07 0.0533717)
(5.67458e-06 1.33962e-08 0.0366136)
(2.58715e-06 -1.831e-07 0.023016)
(6.10819e-07 -3.08558e-07 0.0122215)
(3.08153e-07 -1.09824e-07 0.00374058)
(8.57514e-06 5.49624e-06 0.0515471)
(3.4432e-06 4.97624e-06 0.0350994)
(1.01495e-06 3.62833e-06 0.0219065)
(1.8052e-07 2.12774e-06 0.0115537)
(-1.16594e-07 7.5458e-07 0.00350991)
(1.02668e-05 -2.77103e-06 0.0515611)
(4.87161e-06 -2.09823e-06 0.035108)
(1.95067e-06 -1.31559e-06 0.0219113)
(3.8106e-07 -6.06491e-07 0.0115557)
(1.38511e-07 -2.68619e-07 0.00351034)
(6.32895e-06 -4.99943e-06 0.0533338)
(3.18996e-06 -3.0108e-06 0.0365776)
(1.41497e-06 -1.70082e-06 0.0229909)
(3.79292e-07 -8.02679e-07 0.0122079)
(1.16076e-07 -2.20325e-07 0.00373638)
(1.10106e-05 2.04506e-06 0.0533897)
(6.15894e-06 2.22325e-06 0.0366268)
(3.117e-06 1.93546e-06 0.0230246)
(1.3222e-06 1.30978e-06 0.012226)
(3.35925e-07 4.90783e-07 0.00374171)
(7.39293e-06 -9.54763e-07 0.0521763)
(3.78522e-06 -6.69986e-07 0.0356531)
(1.77844e-06 -5.32392e-07 0.0223197)
(8.46476e-07 -3.77741e-07 0.0118042)
(1.5682e-07 -1.1944e-07 0.00359677)
(6.99585e-06 -4.74969e-07 0.0526606)
(3.60331e-06 -2.34431e-07 0.0360317)
(1.62861e-06 -1.06855e-07 0.0225942)
(3.7071e-07 -5.7482e-08 0.0119706)
(2.20365e-07 -7.24335e-09 0.00365515)
(7.47503e-06 2.01073e-06 0.0521901)
(3.92548e-06 1.89476e-06 0.0356613)
(1.84757e-06 1.56988e-06 0.0223243)
(5.58079e-07 1.08607e-06 0.0118065)
(2.56363e-07 3.36157e-07 0.00359748)
(6.90885e-06 3.43344e-07 0.0526673)
(3.53028e-06 5.0167e-07 0.036037)
(1.64789e-06 4.50088e-07 0.0225978)
(6.57858e-07 2.73373e-07 0.0119726)
(1.58863e-07 1.34279e-07 0.0036557)
(9.94425e-06 1.92497e-05 0.0743271)
(1.59324e-05 8.42619e-06 0.0742896)
(0.000202663 0.00020297 0.122495)
(2.9807e-05 1.89368e-05 0.0994469)
(1.825e-05 2.61238e-05 0.0993386)
(5.58215e-06 4.57428e-05 0.0862165)
(4.74259e-06 4.01766e-06 0.125973)
(3.49758e-05 4.68138e-05 0.10939)
(6.13141e-05 -6.97527e-07 0.107734)
(4.28986e-05 4.8728e-06 0.0861437)
(5.66703e-05 -1.24995e-06 0.116727)
(3.30751e-07 1.89242e-06 0.125902)
(4.5433e-05 3.06747e-05 0.109405)
(-5.69876e-07 -1.36553e-06 0.127419)
(6.10137e-05 -6.3421e-07 0.107733)
(4.24182e-05 -4.69168e-06 0.0861618)
(5.62485e-05 -2.49348e-07 0.116723)
(4.82384e-07 -2.71251e-06 0.125906)
(-1.48352e-06 5.49571e-07 0.127429)
(4.51204e-05 -3.07793e-05 0.109409)
(1.59341e-05 -7.52566e-06 0.0743078)
(0.000200087 -0.000200941 0.122498)
(1.85795e-05 -2.57866e-05 0.09936)
(-1.79806e-05 -7.04567e-06 0.0742923)
(-2.20163e-05 -1.56107e-05 0.0918589)
(1.77302e-05 8.11475e-06 0.0733655)
(7.37937e-06 1.65804e-05 0.0733157)
(1.99432e-05 1.87963e-05 0.0919959)
(-1.64975e-05 -2.12809e-06 0.0733759)
(-1.10516e-05 -1.4162e-05 0.0733209)
(-2.3375e-05 -7.23269e-05 0.106854)
(1.90573e-05 1.90694e-05 0.0854339)
(2.61249e-05 7.29477e-05 0.114148)
(-3.06693e-05 -1.3562e-05 0.0995214)
(2.40596e-05 7.25462e-05 0.107003)
(-1.88369e-05 -1.62584e-05 0.0854693)
(-2.13066e-05 -6.93674e-05 0.114053)
(-7.60643e-05 -1.83132e-05 0.106703)
(1.77938e-05 1.50232e-05 0.0852401)
(7.49262e-05 1.86072e-05 0.114086)
(-1.97286e-05 -2.45048e-05 0.0992065)
(7.3851e-05 1.68477e-05 0.106893)
(-2.00292e-05 -1.40915e-05 0.0852119)
(-7.44647e-05 -1.95926e-05 0.11388)
(-1.62358e-05 1.67001e-06 0.0796969)
(6.07022e-05 4.43104e-07 0.105517)
(1.64581e-05 -1.02934e-06 0.082852)
(-6.12623e-05 -2.43674e-07 0.107498)
(1.68777e-05 -1.84607e-06 0.0797581)
(-5.93425e-05 -7.4017e-07 0.105292)
(-1.6004e-05 8.18856e-08 0.0827775)
(-1.81959e-05 1.93909e-06 0.0722533)
(4.72649e-05 3.99314e-06 0.0977699)
(-4.19215e-05 -5.07333e-06 0.0860992)
(1.64756e-05 -1.01483e-07 0.0722325)
(-4.83591e-05 -2.74328e-06 0.0976407)
(-1.67109e-05 -1.0939e-06 0.0797177)
(1.60527e-05 -1.34239e-08 0.0828591)
(5.90575e-05 -8.81197e-07 0.10552)
(-6.13637e-05 -1.57651e-07 0.107496)
(1.60422e-05 1.76829e-06 0.0797793)
(-1.6113e-05 -6.75553e-07 0.082784)
(-6.02077e-05 9.21506e-07 0.105295)
(-1.77927e-05 -3.23769e-07 0.0722729)
(4.67406e-05 -3.732e-06 0.0977816)
(-4.12666e-05 5.61235e-06 0.0861171)
(1.59252e-05 6.87684e-07 0.0722541)
(-4.75877e-05 3.73823e-06 0.0976521)
(-1.66908e-05 8.05582e-06 0.0743063)
(-2.11462e-05 1.70514e-05 0.0918814)
(-9.84565e-06 1.49736e-05 0.0733331)
(-1.91322e-05 7.03002e-06 0.0733974)
(-7.35573e-05 1.85166e-05 0.106701)
(7.34699e-05 -2.02094e-05 0.114096)
(-1.90065e-05 2.50162e-05 0.0992274)
(-7.37352e-05 2.00577e-05 0.113891)
(-1.91105e-05 1.47832e-05 0.0852204)
(-2.24591e-05 7.2887e-05 0.106855)
(-2.88052e-05 1.66428e-05 0.0995605)
(-1.99177e-05 1.80817e-05 0.0855023)
(-2.02743e-05 7.15353e-05 0.114027)
(-1.01908e-05 1.69478e-05 0.0744875)
(-1.52394e-06 2.35624e-07 0.129587)
(-1.06914e-06 -3.93182e-07 0.130752)
(-9.82046e-07 1.57338e-07 0.130681)
(-1.65681e-06 -1.06235e-07 0.131749)
(2.0296e-06 -1.73436e-07 0.129582)
(7.13288e-07 -3.71511e-07 0.130757)
(8.0902e-07 2.07608e-07 0.130674)
(1.34318e-06 -2.47347e-07 0.131755)
(-1.52278e-06 -1.64397e-06 0.130696)
(-1.57753e-06 -1.95023e-06 0.131752)
(2.02153e-06 -1.76962e-06 0.130693)
(1.14592e-06 -2.60313e-06 0.131751)
(-7.22683e-05 -6.82487e-05 0.115136)
(-0.000207835 -0.000208521 0.12246)
(0.000211822 5.7961e-05 0.119421)
(5.91575e-05 0.00020514 0.119388)
(7.10381e-05 6.55974e-05 0.115266)
(-0.000208603 -5.75015e-05 0.11933)
(-5.94156e-05 -0.000207414 0.119262)
(1.44923e-06 -0.000242452 0.11973)
(9.79861e-06 5.96886e-05 0.113805)
(1.46686e-05 0.000246193 0.117772)
(-3.41532e-05 -3.95331e-05 0.109562)
(-7.86892e-06 -0.00023739 0.117817)
(5.03171e-06 0.000243269 0.119583)
(-1.11763e-05 -5.22568e-05 0.113929)
(-0.00024127 -3.01465e-06 0.120493)
(5.92002e-05 8.5219e-07 0.11595)
(0.000235583 -1.72806e-06 0.121049)
(-5.61566e-05 -7.7261e-07 0.116501)
(0.000245458 -1.10113e-06 0.120658)
(-5.77455e-05 -3.21289e-06 0.115734)
(-0.000235496 -4.68761e-07 0.120851)
(-0.000253776 -5.01336e-06 0.119578)
(5.48413e-05 7.20608e-06 0.113871)
(0.000251676 9.91321e-06 0.117818)
(-4.43211e-05 -3.41167e-05 0.109233)
(-0.000246085 -1.26924e-05 0.117648)
(0.00024988 1.35806e-06 0.11972)
(-5.53366e-05 -1.07157e-05 0.113673)
(-0.000243112 2.81313e-06 0.120488)
(0.000234225 1.06579e-06 0.121045)
(5.7828e-05 -1.64596e-06 0.115943)
(-5.66748e-05 7.93908e-07 0.116498)
(0.000240631 4.85709e-07 0.120649)
(-0.000234825 1.44367e-07 0.120848)
(-5.90081e-05 3.52038e-06 0.115728)
(-0.000249633 4.80756e-06 0.119568)
(5.50907e-05 -7.40731e-06 0.113867)
(0.000248437 -1.03687e-05 0.117807)
(-4.39787e-05 3.36046e-05 0.109234)
(0.000247518 -1.95272e-06 0.119702)
(-5.52665e-05 1.12153e-05 0.11367)
(-0.000243465 1.28481e-05 0.117639)
(-6.94956e-05 6.99659e-05 0.115128)
(-0.000206282 0.000209629 0.122448)
(5.85192e-05 -0.000208305 0.119396)
(-5.85328e-05 0.000207529 0.119274)
(-0.000203316 5.86428e-05 0.119295)
(2.55561e-06 9.57103e-06 0.0533102)
(-1.6907e-06 4.8063e-06 0.0365696)
(-2.99798e-06 2.43365e-06 0.0229883)
(-2.53835e-06 1.11401e-06 0.0122072)
(-7.69008e-07 4.79038e-07 0.0037358)
(6.62021e-06 6.3366e-06 0.0533147)
(2.98913e-06 4.91922e-06 0.0365634)
(8.56018e-07 3.34766e-06 0.0229813)
(-3.44549e-07 1.65268e-06 0.0122028)
(-5.74609e-08 7.08648e-07 0.00373434)
(2.05488e-06 1.65762e-05 0.0515321)
(1.63244e-07 8.3773e-06 0.0350935)
(-5.89084e-07 4.00113e-06 0.0219034)
(-6.29603e-07 1.53115e-06 0.0115525)
(-2.46731e-07 4.62871e-07 0.00350908)
(9.85156e-06 3.96143e-06 0.0515424)
(4.58251e-06 3.76254e-06 0.0350961)
(1.72371e-06 2.77309e-06 0.0219044)
(5.97117e-07 1.63136e-06 0.011553)
(-6.0228e-08 6.22721e-07 0.00350923)
(1.04713e-05 -2.57059e-06 0.0515576)
(5.36794e-06 -2.09661e-06 0.0351067)
(2.28495e-06 -1.32053e-06 0.021911)
(6.09648e-07 -6.21459e-07 0.0115562)
(1.37991e-07 -2.70265e-07 0.00351004)
(7.11696e-06 -4.24281e-06 0.0533322)
(3.94311e-06 -2.4577e-06 0.0365775)
(1.86305e-06 -1.26019e-06 0.0229913)
(6.13816e-07 -5.06919e-07 0.0122086)
(1.63981e-07 -1.63031e-07 0.00373616)
(-9.49683e-06 -1.51331e-06 0.0533682)
(-6.04625e-06 1.0558e-06 0.0366116)
(-3.52317e-06 1.77899e-06 0.0230139)
(-1.52035e-06 1.47454e-06 0.01222)
(-5.57312e-07 6.07969e-07 0.00373971)
(-8.12872e-06 3.42287e-06 0.0522)
(-4.26049e-06 3.49722e-06 0.0356795)
(-2.10974e-06 2.87625e-06 0.0223375)
(-1.1426e-06 1.81743e-06 0.0118137)
(-1.65492e-07 6.67857e-07 0.00359945)
(7.50323e-06 -4.86689e-07 0.0526579)
(4.23367e-06 -1.74948e-07 0.0360308)
(1.93754e-06 -1.53509e-08 0.0225942)
(4.53966e-07 3.51102e-08 0.0119711)
(2.2485e-07 3.50692e-09 0.00365491)
(8.29288e-06 -1.38728e-06 0.0521737)
(4.59416e-06 -9.35044e-07 0.0356516)
(2.16563e-06 -6.40744e-07 0.022319)
(8.89416e-07 -3.55998e-07 0.0118042)
(1.87795e-07 -1.49126e-07 0.00359639)
(-7.55235e-06 1.09181e-06 0.052683)
(-3.75063e-06 1.26038e-06 0.0360591)
(-1.68926e-06 1.04238e-06 0.0226137)
(-5.96959e-07 6.18316e-07 0.0119814)
(-1.43227e-07 2.69393e-07 0.00365814)
(-1.18536e-05 -3.33426e-07 0.0515978)
(-6.0699e-06 8.33494e-07 0.0351424)
(-2.93557e-06 1.14125e-06 0.0219336)
(-1.40065e-06 7.75632e-07 0.0115679)
(-2.3732e-07 3.3805e-07 0.00351394)
(-8.28969e-06 -2.28094e-06 0.0522167)
(-4.30809e-06 -2.16742e-06 0.0356913)
(-1.97511e-06 -1.75291e-06 0.0223451)
(-6.96258e-07 -1.16326e-06 0.011818)
(-1.939e-07 -3.78023e-07 0.00360068)
(7.26681e-06 3.87173e-07 0.0526648)
(4.10134e-06 4.44489e-07 0.0360359)
(1.96258e-06 3.54483e-07 0.0225975)
(7.80753e-07 1.68835e-07 0.0119729)
(1.68555e-07 1.171e-07 0.00365542)
(8.22543e-06 1.94312e-06 0.05219)
(4.63546e-06 1.75683e-06 0.0356618)
(2.21722e-06 1.41874e-06 0.0223249)
(7.84452e-07 9.1182e-07 0.0118073)
(2.4604e-07 3.49343e-07 0.00359734)
(-7.50883e-06 -8.72603e-07 0.0526879)
(-3.66278e-06 -7.43521e-07 0.036062)
(-1.61338e-06 -5.50015e-07 0.0226152)
(-6.45673e-07 -3.44045e-07 0.011982)
(-1.19598e-07 -1.09537e-07 0.00365838)
(-1.09205e-05 2.40775e-06 0.0516164)
(-5.09529e-06 1.47807e-06 0.0351565)
(-2.12493e-06 7.98241e-07 0.0219427)
(-6.95712e-07 3.65008e-07 0.0115725)
(-8.96906e-08 1.26167e-07 0.00351509)
(-7.49551e-06 3.98493e-06 0.0533791)
(-3.92413e-06 1.78242e-06 0.0366189)
(-1.91145e-06 6.36182e-07 0.0230184)
(-7.39039e-07 1.35069e-07 0.0122227)
(-2.0533e-07 -3.46387e-08 0.00374063)
(-9.91564e-06 9.47106e-06 0.0518344)
(-5.5059e-06 4.45459e-06 0.0353138)
(-2.75007e-06 1.59472e-06 0.0220468)
(-1.06128e-06 1.49339e-07 0.0116307)
(-3.1217e-07 5.09188e-08 0.00353421)
(-6.91599e-06 7.15354e-06 0.0533395)
(-4.48089e-06 3.19069e-06 0.0365888)
(-2.72867e-06 1.07801e-06 0.022999)
(-1.55375e-06 3.14274e-07 0.0122125)
(-4.01536e-07 -7.81962e-08 0.00373768)
(7.02627e-06 7.2246e-06 0.053563)
(9.21482e-07 5.04614e-06 0.0366917)
(-1.55464e-06 3.21862e-06 0.0230322)
(-1.68036e-06 1.83185e-06 0.0122145)
(-6.58747e-07 6.38782e-07 0.00373279)
(5.73943e-06 1.47698e-05 0.0517758)
(2.14466e-07 9.41831e-06 0.0352672)
(-1.75541e-06 5.68395e-06 0.0220167)
(-1.77462e-06 2.73824e-06 0.0116155)
(-7.69656e-07 1.00067e-06 0.00352933)
(-1.3349e-05 -4.95942e-06 0.051854)
(-1.06955e-05 -1.2283e-06 0.0353341)
(-7.46665e-06 7.55437e-07 0.0220614)
(-4.19944e-06 1.35375e-06 0.011639)
(-1.27106e-06 5.29051e-07 0.00353667)
(3.12182e-06 1.21688e-05 0.0535543)
(2.88061e-08 9.06435e-06 0.0366798)
(-1.3838e-06 6.00324e-06 0.0230231)
(-1.58495e-06 2.99849e-06 0.012209)
(-6.02739e-07 1.18886e-06 0.00373089)
(7.29882e-06 8.22658e-06 0.0517847)
(2.73022e-06 5.6229e-06 0.0352724)
(3.4918e-07 3.46175e-06 0.0220203)
(-1.79875e-07 1.89204e-06 0.0116166)
(-2.61654e-07 6.14448e-07 0.00352937)
(-1.18498e-05 -2.91852e-06 0.0518322)
(-7.11485e-06 9.01173e-07 0.0353099)
(-3.95111e-06 2.05254e-06 0.0220435)
(-2.14365e-06 1.46937e-06 0.0116284)
(-5.71438e-07 7.26657e-07 0.00353326)
(-1.28817e-05 1.85413e-06 0.0536049)
(-9.92862e-06 3.58555e-06 0.0367273)
(-6.67221e-06 3.66285e-06 0.0230554)
(-3.83782e-06 2.27787e-06 0.0122268)
(-1.25628e-06 1.02001e-06 0.00373682)
(-9.37306e-06 -5.31462e-06 0.0536089)
(-7.12181e-06 -9.11561e-07 0.0367306)
(-4.58579e-06 9.71799e-07 0.0230578)
(-2.28168e-06 1.32661e-06 0.0122273)
(-7.26875e-07 4.70895e-07 0.00373667)
(-1.21339e-05 3.7974e-06 0.053434)
(-6.91976e-06 4.08379e-06 0.0366677)
(-3.52879e-06 3.47768e-06 0.0230519)
(-1.41343e-06 2.27966e-06 0.0122408)
(-4.19755e-07 8.52977e-07 0.0037461)
(1.16869e-05 -5.88896e-07 0.0533698)
(6.48923e-06 -5.50978e-07 0.0366129)
(3.02295e-06 -4.65507e-07 0.0230161)
(9.88094e-07 -3.35713e-07 0.0122221)
(2.58041e-07 -1.41463e-07 0.00374037)
(-1.1438e-05 -1.42293e-06 0.0534499)
(-6.12987e-06 -1.63448e-06 0.0366779)
(-2.92497e-06 -1.47618e-06 0.0230579)
(-1.1983e-06 -9.94861e-07 0.0122437)
(-2.6176e-07 -3.92481e-07 0.00374682)
(1.14507e-05 1.86224e-06 0.0533884)
(6.55869e-06 2.05425e-06 0.0366261)
(3.21622e-06 1.81135e-06 0.0230246)
(1.26753e-06 1.21524e-06 0.0122266)
(3.24718e-07 4.76381e-07 0.00374145)
(-1.01779e-05 5.90581e-06 0.0518485)
(-5.38208e-06 2.29547e-06 0.0353234)
(-2.57041e-06 4.54747e-07 0.0220524)
(-1.19235e-06 -1.06114e-07 0.0116333)
(-2.43965e-07 -1.61869e-07 0.00353479)
(-6.38595e-06 8.05433e-06 0.0536176)
(-3.58096e-06 4.03779e-06 0.0367357)
(-1.67426e-06 1.75712e-06 0.0230601)
(-5.31552e-07 5.63468e-07 0.0122285)
(-1.50984e-07 1.29705e-07 0.00373715)
(-1.15644e-05 3.53076e-06 0.0536158)
(-6.88723e-06 9.89745e-07 0.036733)
(-3.89098e-06 -3.43556e-07 0.0230578)
(-2.06174e-06 -5.74763e-07 0.0122275)
(-5.33277e-07 -2.85592e-07 0.00373699)
(3.55943e-06 -3.55124e-06 0.12608)
(-0.00020283 -0.000202011 0.122513)
(-2.45836e-06 -1.54817e-06 0.129582)
(-2.13883e-06 1.24747e-06 0.125907)
(2.55941e-06 -2.88391e-06 0.125949)
(-0.000201419 -0.000201015 0.12251)
(3.49067e-08 -1.285e-06 0.129582)
(-6.08816e-07 2.8062e-07 0.125901)
(3.6051e-06 9.90724e-08 0.125946)
(-0.000201981 -0.000199561 0.122501)
(1.60763e-06 -1.01619e-06 0.12958)
(6.74201e-07 1.34159e-07 0.125895)
(4.80902e-06 -2.27338e-07 0.125946)
(-0.000201101 -0.00020206 0.122497)
(8.50279e-07 -5.38247e-07 0.129578)
(1.69171e-06 1.16414e-06 0.125892)
(3.62837e-06 -6.69018e-07 0.125949)
(-0.000199875 -0.000202634 0.122498)
(-3.2838e-07 -1.57643e-10 0.129577)
(1.46728e-06 1.51277e-06 0.125891)
(2.1607e-06 -1.73122e-06 0.12595)
(-0.000200496 -0.000202485 0.122497)
(-1.44169e-06 7.21236e-07 0.129576)
(4.53432e-07 1.99407e-06 0.125894)
(1.30584e-06 -2.70716e-06 0.125951)
(-0.000201174 -0.000202468 0.122498)
(-2.20389e-06 1.15782e-06 0.129577)
(2.69684e-07 1.75181e-06 0.125896)
(1.42356e-06 -2.45263e-06 0.125953)
(-0.000201534 -0.000202393 0.122499)
(-2.25161e-06 1.31901e-06 0.129578)
(2.26006e-07 1.70586e-06 0.125897)
(1.99173e-06 -1.66258e-06 0.125954)
(-0.00020174 -0.00020188 0.122499)
(-1.92939e-06 9.6395e-07 0.129579)
(3.82008e-07 1.47238e-06 0.125897)
(2.64146e-06 -1.21287e-06 0.125954)
(-0.000201024 -0.000201781 0.122498)
(-1.30619e-06 -8.37146e-08 0.12958)
(3.08183e-07 1.12426e-06 0.125898)
(3.07869e-06 -1.40408e-06 0.125954)
(-0.000200801 -0.000201761 0.122498)
(-9.19888e-07 -9.91306e-07 0.129582)
(5.21047e-07 5.77841e-07 0.125898)
(2.91511e-06 -1.47335e-06 0.125954)
(-0.000201066 -0.000202105 0.122497)
(-1.00336e-06 -6.68273e-07 0.129583)
(7.25027e-07 1.10744e-06 0.125898)
(2.75075e-06 -1.38319e-06 0.125953)
(-0.000200561 -0.000201673 0.122496)
(-1.23669e-06 1.55953e-07 0.129584)
(8.98898e-07 1.4774e-06 0.125896)
(2.69946e-06 -1.26739e-06 0.125951)
(-0.000200107 -0.000200891 0.122496)
(-7.58404e-07 9.4688e-07 0.129584)
(1.04056e-06 1.71253e-06 0.125893)
(2.78402e-06 -1.47362e-06 0.125948)
(-0.000200336 -0.000201402 0.122496)
(8.28882e-07 8.72825e-07 0.129585)
(1.92608e-06 7.25554e-08 0.125891)
(2.71659e-06 -5.15138e-07 0.125945)
(-0.00019987 -0.000201365 0.122491)
(2.80235e-07 -3.08362e-06 0.129584)
(1.56516e-06 -3.31795e-06 0.126042)
(1.9389e-06 7.683e-07 0.126069)
(-0.000201111 -0.000201883 0.122612)
(0.000198596 -0.000197312 0.12252)
(-0.000205844 0.000205612 0.122466)
(-2.69352e-06 -4.63058e-06 0.12598)
(9.43545e-07 -3.41133e-06 0.125956)
(-3.62293e-06 -2.11421e-06 0.125979)
(0.000206452 0.000210938 0.122476)
(0.000200178 0.000202774 0.122505)
(-0.000207833 -0.000212309 0.122454)
(2.66842e-06 3.61269e-06 0.125975)
(-5.779e-06 3.93331e-06 0.125989)
(2.38267e-06 2.14408e-07 0.125971)
(-4.1993e-06 6.78841e-07 0.125986)
(-0.000201559 0.000200603 0.122508)
(0.000206792 -0.000213292 0.122466)
(2.35151e-06 2.45525e-06 0.125906)
(3.9147e-06 -3.96755e-06 0.12591)
(1.46187e-07 -1.93177e-07 0.125896)
(1.24065e-06 -7.66176e-07 0.1259)
(-3.77877e-06 -1.90273e-06 0.12593)
(-4.56115e-07 -1.24863e-06 0.125902)
(-1.84904e-06 -1.27506e-07 0.125924)
(0.000200204 -0.000203057 0.122497)
(-0.000207166 0.00021212 0.122445)
(-4.71676e-06 -2.59641e-06 0.125975)
(1.9036e-06 3.23913e-07 0.125946)
(-3.66426e-06 4.24442e-07 0.125971)
(0.000205872 0.000214021 0.122466)
(0.000200625 0.000199231 0.122487)
(-0.000206005 -0.000211368 0.122449)
(4.16047e-06 8.23484e-07 0.12597)
(-4.80588e-06 1.1722e-06 0.125985)
(4.70475e-06 3.40343e-07 0.125968)
(-3.53229e-06 1.40262e-06 0.125983)
(-0.00020095 0.000199231 0.122499)
(0.000207806 -0.000211832 0.122461)
(1.27931e-06 8.32103e-07 0.125893)
(2.16658e-06 -1.70245e-06 0.125896)
(1.66288e-06 -6.75789e-08 0.125887)
(3.0969e-06 -9.3722e-07 0.125892)
(-2.20749e-06 -9.30742e-07 0.125921)
(3.84181e-08 -1.12959e-06 0.125896)
(-1.39512e-06 -8.69832e-07 0.125917)
(0.000200466 -0.000199196 0.122479)
(-0.000205307 0.00021133 0.12244)
(-4.08928e-06 -1.66255e-07 0.125971)
(3.70362e-06 -2.89206e-07 0.125946)
(-2.65493e-06 -5.16458e-07 0.125969)
(0.000207147 0.000212149 0.122462)
(0.000202722 0.00020107 0.122483)
(-0.000207159 -0.0002101 0.122452)
(5.69456e-06 1.22798e-06 0.125968)
(-3.75018e-06 1.92142e-06 0.125982)
(4.0967e-06 1.14953e-06 0.125967)
(-1.95373e-06 1.90853e-06 0.125979)
(-0.000200027 0.000201227 0.122495)
(0.00020882 -0.00021035 0.122462)
(2.1951e-06 7.44025e-07 0.125886)
(3.44769e-06 -1.71353e-06 0.125891)
(8.61742e-07 1.23239e-07 0.125884)
(2.24896e-06 -7.29141e-07 0.12589)
(-1.18433e-06 -1.40807e-06 0.125915)
(1.57773e-06 -5.6823e-07 0.125893)
(3.84869e-08 -1.04351e-06 0.125913)
(0.000202731 -0.000200805 0.122475)
(-0.000206414 0.00021064 0.122444)
(-2.76881e-06 -8.24707e-07 0.125969)
(2.99769e-06 -6.38656e-07 0.125949)
(-1.44745e-06 -9.91361e-07 0.125969)
(0.000208501 0.000211322 0.122463)
(0.000201201 0.000202139 0.122486)
(-0.000208747 -0.000209037 0.122453)
(4.49082e-06 2.13977e-06 0.125966)
(-2.21922e-06 2.56033e-06 0.125978)
(2.21535e-06 2.32225e-06 0.125965)
(-1.8093e-06 2.88735e-06 0.125976)
(-0.000198945 0.000202156 0.122496)
(0.000208379 -0.000210187 0.122462)
(1.00146e-06 1.08882e-06 0.125885)
(2.20649e-06 -1.63742e-06 0.12589)
(-5.25265e-07 1.00528e-06 0.125885)
(8.16141e-07 -1.06647e-06 0.125891)
(1.27436e-07 -1.48275e-06 0.125912)
(1.57038e-06 1.55696e-07 0.125892)
(3.00097e-07 -1.04889e-06 0.125911)
(0.00020122 -0.000201398 0.122479)
(-0.00020807 0.000209587 0.122448)
(-1.73673e-06 -1.40349e-06 0.125969)
(1.27362e-06 -1.4104e-06 0.12595)
(-1.3253e-06 -1.48904e-06 0.125969)
(0.000208103 0.000211478 0.122462)
(0.00019973 0.000203146 0.122487)
(-0.000209552 -0.000208744 0.122457)
(2.78831e-06 3.2926e-06 0.125965)
(-2.73455e-06 3.58489e-06 0.125975)
(9.70987e-07 3.24985e-06 0.125965)
(-2.98597e-06 3.34784e-06 0.125975)
(-0.000199383 0.000202186 0.122496)
(0.000206919 -0.000210075 0.122464)
(-2.02861e-07 2.1433e-06 0.125885)
(8.95685e-07 -2.10995e-06 0.125891)
(-1.29713e-06 1.78146e-06 0.125888)
(-6.30258e-08 -1.6769e-06 0.125894)
(-2.76641e-08 -1.63054e-06 0.125911)
(6.29305e-07 4.63853e-07 0.125894)
(-4.90786e-07 -1.38116e-06 0.125912)
(0.000199258 -0.00020206 0.122483)
(-0.000208652 0.000208969 0.122453)
(-1.99343e-06 -1.82079e-06 0.125969)
(3.59236e-07 -2.54693e-06 0.125952)
(-1.9772e-06 -1.78282e-06 0.12597)
(0.000207086 0.000211367 0.122463)
(0.000199127 0.000203369 0.122491)
(-0.00020933 -0.000209147 0.122458)
(1.81942e-06 4.06211e-06 0.125965)
(-3.63468e-06 3.72712e-06 0.125973)
(8.74057e-07 3.36841e-06 0.125965)
(-3.38248e-06 3.14452e-06 0.125974)
(-0.000200859 0.000202292 0.122497)
(0.000206876 -0.000210105 0.122464)
(-9.58627e-07 2.74135e-06 0.125889)
(5.97715e-08 -2.71536e-06 0.125894)
(-1.79437e-06 2.04282e-06 0.125893)
(-6.3327e-07 -2.09836e-06 0.125897)
(-8.2833e-07 -1.92177e-06 0.125913)
(1.4245e-07 6.04384e-07 0.125896)
(-7.51724e-07 -1.29798e-06 0.125916)
(0.000198775 -0.000202468 0.122488)
(-0.000208501 0.00020945 0.122455)
(-2.60694e-06 -2.09446e-06 0.125969)
(1.67382e-07 -2.6892e-06 0.125953)
(-2.373e-06 -1.79765e-06 0.12597)
(0.000207023 0.000211521 0.122464)
(0.000199432 0.000202978 0.122492)
(-0.000208602 -0.000209367 0.122459)
(1.93817e-06 4.04048e-06 0.125965)
(-4.14361e-06 3.69751e-06 0.125973)
(1.21565e-06 2.77005e-06 0.125964)
(-3.2464e-06 2.87391e-06 0.125975)
(-0.000200852 0.000202318 0.122498)
(0.000206918 -0.000210291 0.122464)
(-1.28614e-06 2.90294e-06 0.125894)
(-2.97701e-07 -2.96151e-06 0.125898)
(-2.00079e-06 1.62798e-06 0.125897)
(-6.51095e-07 -1.63987e-06 0.125901)
(-8.94228e-07 -1.78489e-06 0.125916)
(2.09389e-07 1.54525e-07 0.125898)
(-7.86576e-07 -9.06575e-07 0.125918)
(0.000199414 -0.000202258 0.12249)
(-0.000207765 0.000210263 0.122455)
(-3.07305e-06 -2.03423e-06 0.125969)
(8.45768e-07 -1.88935e-06 0.125954)
(-2.95073e-06 -1.40854e-06 0.125969)
(0.000206512 0.000211855 0.122464)
(0.000200123 0.000202643 0.122493)
(-0.000208114 -0.000210194 0.122461)
(2.28512e-06 3.42644e-06 0.125963)
(-3.78682e-06 3.3873e-06 0.125973)
(1.79727e-06 2.45619e-06 0.125964)
(-3.05949e-06 2.92341e-06 0.125975)
(-0.000200971 0.000202252 0.122497)
(0.000207578 -0.000210377 0.122464)
(-1.34208e-06 2.32726e-06 0.125897)
(-2.50627e-07 -2.27208e-06 0.125901)
(-1.62393e-06 9.17506e-07 0.1259)
(-3.32306e-07 -7.59039e-07 0.125904)
(-9.52384e-07 -1.32316e-06 0.125917)
(2.9719e-07 1.84792e-07 0.125898)
(-5.55912e-07 -4.24833e-07 0.125918)
(0.000200088 -0.000201387 0.12249)
(-0.000207357 0.000210888 0.122455)
(-3.5342e-06 -1.63311e-06 0.125968)
(1.38032e-06 -1.22506e-06 0.125955)
(-2.778e-06 -1.09259e-06 0.125968)
(0.000206973 0.000211755 0.122463)
(0.000200842 0.000201959 0.122495)
(-0.000207264 -0.000210861 0.122463)
(3.11007e-06 3.12637e-06 0.125963)
(-3.80969e-06 3.41661e-06 0.125974)
(2.8179e-06 2.0754e-06 0.125966)
(-3.01936e-06 2.68452e-06 0.125977)
(-0.000200443 0.000202373 0.122498)
(0.000207125 -0.000211083 0.122466)
(-8.0193e-07 1.72098e-06 0.1259)
(1.91504e-07 -1.59781e-06 0.125903)
(-6.45089e-07 2.0556e-07 0.125904)
(2.30734e-07 -6.184e-07 0.125906)
(-7.43515e-07 -1.06651e-06 0.125916)
(3.6249e-07 -4.1597e-07 0.1259)
(-4.40008e-07 -7.51924e-07 0.125917)
(0.000200538 -0.000200865 0.12249)
(-0.000207124 0.000210868 0.122456)
(-3.20783e-06 -1.44893e-06 0.125967)
(1.92028e-06 -1.28434e-06 0.125956)
(-2.40564e-06 -1.44318e-06 0.125968)
(0.0002071 0.000211624 0.122463)
(0.000201669 0.000201468 0.122497)
(-0.000207449 -0.000211132 0.122464)
(4.2607e-06 2.71328e-06 0.125965)
(-3.88837e-06 2.9943e-06 0.125974)
(3.27822e-06 1.49881e-06 0.125969)
(-3.39424e-06 2.00903e-06 0.125978)
(-0.000200967 0.000201421 0.1225)
(0.000207278 -0.000211515 0.122466)
(8.34231e-08 9.83501e-07 0.125903)
(6.93514e-07 -1.60494e-06 0.125903)
(-4.73052e-07 -4.53533e-07 0.125907)
(2.77737e-07 -8.18657e-07 0.125907)
(-6.95345e-07 -1.62161e-06 0.125914)
(4.63605e-07 -8.376e-07 0.125902)
(-4.83256e-07 -1.18152e-06 0.125917)
(0.000200501 -0.000200782 0.122491)
(-0.000207172 0.000210414 0.122456)
(-2.98401e-06 -1.86303e-06 0.125966)
(1.88937e-06 -1.33747e-06 0.125956)
(-2.2864e-06 -1.4747e-06 0.125968)
(0.000206805 0.000211261 0.122462)
(0.000201205 0.000201116 0.122498)
(-0.000208201 -0.000210506 0.122465)
(4.52167e-06 2.05943e-06 0.125966)
(-4.56134e-06 2.42182e-06 0.125974)
(2.30257e-06 1.28822e-06 0.125972)
(-2.73261e-06 1.84001e-06 0.125978)
(-0.000200543 0.000201168 0.122499)
(0.000208018 -0.000211353 0.122465)
(1.29732e-07 5.48546e-07 0.125905)
(6.90027e-07 -1.99515e-06 0.125903)
(-9.05295e-07 -1.77814e-07 0.125909)
(1.84942e-07 -9.36325e-07 0.125908)
(-7.765e-07 -2.10409e-06 0.125912)
(6.34939e-07 -7.66551e-07 0.125903)
(-2.85543e-07 -1.05926e-06 0.125917)
(0.000200408 -0.000201241 0.12249)
(-0.000207384 0.000210319 0.122456)
(-2.87192e-06 -1.83553e-06 0.125965)
(1.67011e-06 -1.43291e-06 0.125956)
(-2.22747e-06 -1.28001e-06 0.125967)
(0.000207107 0.000211476 0.122461)
(0.000200247 0.00020141 0.122498)
(-0.00020831 -0.00021023 0.122463)
(3.80915e-06 2.1894e-06 0.125966)
(-3.9101e-06 2.57198e-06 0.125971)
(1.91404e-06 1.63022e-06 0.125973)
(-2.21813e-06 2.48265e-06 0.125977)
(-0.000199876 0.000201128 0.122498)
(0.000207963 -0.000210578 0.122464)
(-4.91273e-07 1.03857e-06 0.125905)
(5.51315e-07 -2.10639e-06 0.125903)
(-1.13307e-06 3.92042e-07 0.125911)
(1.73495e-07 -4.89967e-07 0.125911)
(-4.78307e-07 -2.00902e-06 0.125911)
(7.20167e-07 -1.96891e-07 0.125903)
(-2.86145e-07 -3.1816e-07 0.125919)
(0.000200114 -0.000201119 0.122491)
(-0.000207428 0.000210751 0.122456)
(-2.82282e-06 -1.62859e-06 0.125963)
(1.71832e-06 -1.28856e-06 0.125957)
(-2.10489e-06 -9.77986e-07 0.125967)
(0.000207211 0.00021183 0.122461)
(0.000199996 0.000201162 0.122495)
(-0.000207759 -0.000209885 0.122464)
(3.79105e-06 2.53328e-06 0.125964)
(-3.974e-06 3.17943e-06 0.125966)
(1.92367e-06 1.96307e-06 0.125973)
(-2.11457e-06 2.62959e-06 0.125976)
(-0.000199553 0.000201426 0.122497)
(0.000207261 -0.000209791 0.122467)
(-7.00249e-07 1.74163e-06 0.125904)
(4.17188e-07 -1.86256e-06 0.125902)
(-8.16292e-07 4.7785e-07 0.125912)
(4.58675e-07 -6.55375e-07 0.125913)
(-4.03632e-07 -1.27853e-06 0.125909)
(3.62567e-07 -1.44438e-07 0.125905)
(-5.39448e-07 -3.3138e-07 0.125922)
(0.000200022 -0.000200606 0.12249)
(-0.000207292 0.000210505 0.122457)
(-2.63998e-06 -1.38149e-06 0.125961)
(1.90299e-06 -1.66137e-06 0.125957)
(-2.07806e-06 -1.42577e-06 0.125966)
(0.000207069 0.000211471 0.122463)
(0.000200146 0.000200538 0.122493)
(-0.000206176 -0.000209511 0.122475)
(3.73199e-06 2.38538e-06 0.125961)
(-4.0214e-06 3.00365e-06 0.125961)
(3.29558e-06 2.17589e-06 0.125976)
(-2.85252e-06 2.9299e-06 0.125978)
(-0.00019968 0.000200957 0.122494)
(0.000206829 -0.000209302 0.122477)
(-8.29377e-07 1.61326e-06 0.125901)
(6.05629e-08 -1.66901e-06 0.1259)
(4.37147e-07 3.0786e-07 0.125915)
(1.58751e-06 -1.30523e-06 0.125918)
(-3.17155e-07 -1.20194e-06 0.125906)
(-4.42682e-07 -4.45264e-08 0.125909)
(-1.60822e-06 -1.76988e-06 0.125926)
(0.0002 -0.000200784 0.122489)
(-0.000206542 0.000209957 0.122461)
(-2.7048e-06 -1.52091e-06 0.125958)
(2.39849e-06 -2.46246e-06 0.125959)
(-2.44404e-06 -2.46752e-06 0.125969)
(0.000206678 0.000210602 0.122469)
(0.000200751 0.00019904 0.122481)
(-0.000203191 -0.000210619 0.122478)
(3.98249e-06 1.22492e-06 0.125958)
(-3.66149e-06 1.6557e-06 0.125957)
(8.38508e-06 5.71022e-07 0.125815)
(-7.91737e-06 1.83075e-06 0.125814)
(-0.000199441 0.000199172 0.122484)
(0.000203566 -0.000211039 0.12248)
(-1.02657e-06 3.40441e-07 0.125897)
(-1.10191e-06 -1.03035e-06 0.125896)
(4.62437e-06 1.01235e-06 0.125921)
(5.78562e-06 -4.96845e-06 0.125925)
(1.20075e-06 -7.05997e-07 0.125903)
(-4.43774e-06 -1.41418e-07 0.125916)
(-5.72296e-06 -4.81293e-06 0.125932)
(0.000199998 -0.000200602 0.122485)
(-0.000206527 0.000209332 0.122472)
(-2.44165e-06 -8.18546e-07 0.125956)
(4.29515e-06 -6.05062e-06 0.125964)
(-3.99176e-06 -5.98634e-06 0.125974)
(0.000205957 0.00021071 0.122483)
(-4.07046e-06 -1.17226e-06 0.125805)
(-0.0002046 0.000198142 0.122474)
(-4.76936e-07 -2.60181e-06 0.126055)
(-1.78024e-06 -9.52899e-08 0.12608)
(2.24045e-06 1.80248e-06 0.126082)
(0.000201191 -0.000202584 0.12261)
(-2.40519e-06 4.66149e-07 0.12608)
(1.81077e-05 -1.08371e-05 0.0743584)
(-1.51435e-05 7.48524e-06 0.0745151)
(4.12002e-08 5.51233e-05 0.116834)
(1.47751e-06 -6.34078e-06 0.127561)
(3.22659e-05 -4.53809e-05 0.109714)
(3.89193e-06 -3.64684e-06 0.126079)
(-3.74587e-05 4.17384e-05 0.10978)
(1.26714e-08 -6.03649e-05 0.116853)
(7.57051e-07 -6.16874e-06 0.127534)
(-1.81686e-05 -2.69105e-05 0.0993689)
(-2.69432e-05 -1.99061e-05 0.099538)
(0.000208628 0.000209975 0.12248)
(3.3768e-05 1.67003e-05 0.0994997)
(1.96656e-05 2.26573e-05 0.0992353)
(-1.10184e-06 -6.65271e-05 0.108121)
(7.67989e-06 4.16572e-05 0.0864495)
(-9.47209e-06 -4.68228e-05 0.0865251)
(-4.28829e-07 6.03973e-05 0.108145)
(-1.37868e-05 1.50168e-05 0.0744066)
(7.18229e-06 -2.04212e-05 0.0744803)
(-6.66277e-05 -1.01789e-06 0.107514)
(3.86373e-05 2.37521e-06 0.0861704)
(-4.74587e-05 -7.94122e-06 0.0861315)
(5.66004e-05 -1.51783e-06 0.107754)
(-1.12274e-06 2.85509e-07 0.129583)
(-1.42899e-06 7.84093e-07 0.12958)
(-1.57909e-06 -6.0089e-08 0.129586)
(-9.35169e-07 -1.57248e-06 0.129582)
(-2.32738e-07 -9.73553e-07 0.129583)
(-5.1655e-07 1.49206e-06 0.129576)