/*--------------------------------*- C++ -*----------------------------------*\
| =========                 |                                                 |
| \\      /  F ield         | OpenFOAM: The Open Source CFD Toolbox           |
|  \\    /   O peration     | Version:  2206                                  |
|   \\  /    A nd           | Website:  www.openfoam.com                      |
|    \\/     M anipulation  |                                                 |
\*---------------------------------------------------------------------------*/
FoamFile
{
    version     2.0;
    format      ascii;
    arch        "LSB;label=32;scalar=64";
    class       volScalarField;
    location    "0.5";
    object      k;
}
// * * * * * * * * * * * * * * * * * * * * * * * * * * * * * * * * * * * * * //

dimensions      [0 2 -2 0 0 0 0];

internalField   nonuniform List<scalar> 
66621
(
1.63485e-05
3.72137e-05
1.60285e-05
4.17716e-05
3.60217e-05
2.56446e-05
1.02121e-05
4.21876e-05
3.05636e-05
2.50327e-05
3.6595e-05
3.40637e-05
2.24741e-05
2.28427e-05
1.03959e-05
1.02303e-05
3.40559e-05
2.27636e-05
2.24426e-05
3.05808e-05
3.64552e-05
2.24562e-05
1.02282e-05
4.17786e-05
3.09203e-05
3.60437e-05
2.56599e-05
3.72062e-05
1.60086e-05
4.17663e-05
3.09027e-05
2.56506e-05
3.59896e-05
3.72009e-05
1.60189e-05
4.17637e-05
3.09156e-05
2.56491e-05
3.60182e-05
3.71994e-05
1.602e-05
3.40038e-05
2.24093e-05
2.28313e-05
1.04332e-05
4.21906e-05
3.06025e-05
2.50327e-05
3.6632e-05
3.82938e-05
1.64797e-05
3.82949e-05
1.649e-05
1.02279e-05
1.04447e-05
2.31316e-05
9.73319e-06
1.32041e-05
3.44073e-05
1.44922e-05
3.72351e-05
3.44399e-05
1.45152e-05
1.31833e-05
9.54673e-06
2.26627e-05
1.60455e-05
2.26903e-05
9.54034e-06
1.02185e-05
1.72973e-05
9.1055e-06
9.13427e-06
9.11043e-06
9.13841e-06
1.72716e-05
3.39804e-05
1.57855e-05
2.25008e-05
3.89467e-05
3.89538e-05
1.58012e-05
3.39444e-05
3.37325e-05
1.58065e-05
2.28591e-05
3.89998e-05
3.90031e-05
1.5818e-05
3.37008e-05
1.02363e-05
1.7284e-05
9.15442e-06
9.07599e-06
9.15515e-06
9.08263e-06
1.72575e-05
3.40891e-05
1.59577e-05
3.91082e-05
1.59837e-05
3.40672e-05
3.35612e-05
1.56077e-05
2.24687e-05
3.87754e-05
1.56238e-05
3.35299e-05
3.87838e-05
9.12036e-06
1.73225e-05
1.57894e-05
3.88094e-05
3.38517e-05
1.31974e-05
1.44889e-05
3.43889e-05
3.72255e-05
1.45116e-05
3.44174e-05
1.31774e-05
9.53938e-06
2.26402e-05
1.60258e-05
2.26674e-05
9.53313e-06
3.43903e-05
1.44874e-05
1.31771e-05
2.26482e-05
9.53447e-06
1.44871e-05
3.43871e-05
1.31767e-05
2.26457e-05
9.53436e-06
1.72944e-05
9.07914e-06
9.15482e-06
9.08673e-06
9.16028e-06
1.72724e-05
3.35342e-05
1.55952e-05
2.24343e-05
3.87761e-05
1.561e-05
3.87863e-05
3.34989e-05
3.39756e-05
1.59537e-05
2.28489e-05
3.89789e-05
3.8977e-05
1.59749e-05
3.39685e-05
1.04332e-05
1.35142e-05
3.53961e-05
1.48669e-05
3.8301e-05
3.54061e-05
1.4876e-05
1.35065e-05
9.81476e-06
2.33575e-05
1.64809e-05
2.33663e-05
9.81653e-06
1.35167e-05
3.54019e-05
1.48676e-05
3.83032e-05
3.5414e-05
1.48764e-05
1.35087e-05
9.81718e-06
2.33667e-05
1.64918e-05
2.3376e-05
9.81862e-06
1.04452e-05
2.10965e-05
1.79386e-05
1.82697e-05
1.62558e-05
2.10972e-05
1.79439e-05
1.82628e-05
1.62538e-05
2.11386e-05
1.82411e-05
1.79769e-05
1.62684e-05
2.11479e-05
1.82363e-05
1.79642e-05
1.62641e-05
3.68539e-05
4.16594e-05
3.5764e-05
4.17559e-05
4.16571e-05
3.57172e-05
3.6887e-05
4.01649e-05
3.96459e-05
3.84502e-05
3.66501e-05
3.54343e-05
4.21478e-05
4.21841e-05
3.54319e-05
4.21461e-05
3.66484e-05
3.84234e-05
4.07309e-05
3.66014e-05
3.97811e-05
3.97842e-05
4.07332e-05
3.84169e-05
3.95194e-05
3.40728e-05
3.8764e-05
3.86208e-05
3.87604e-05
3.86201e-05
3.95189e-05
3.94933e-05
3.40542e-05
3.87144e-05
3.86333e-05
3.9495e-05
3.87018e-05
3.86249e-05
4.05859e-05
3.97803e-05
3.85107e-05
3.68707e-05
4.1679e-05
3.57704e-05
4.17619e-05
4.1675e-05
3.57254e-05
3.69018e-05
3.84683e-05
4.01933e-05
3.60674e-05
3.96752e-05
4.0201e-05
3.96762e-05
3.84782e-05
3.68371e-05
3.57591e-05
4.16486e-05
4.17494e-05
3.57142e-05
4.16447e-05
3.68676e-05
3.84222e-05
4.015e-05
3.60138e-05
3.96e-05
4.01593e-05
3.84307e-05
3.96011e-05
3.68393e-05
3.57566e-05
4.1648e-05
4.17484e-05
3.57119e-05
4.16451e-05
3.68675e-05
3.84296e-05
4.01564e-05
3.60402e-05
3.96402e-05
3.96427e-05
4.01643e-05
3.84364e-05
3.93458e-05
3.40124e-05
3.86802e-05
3.85123e-05
3.85056e-05
3.86679e-05
3.9344e-05
3.66636e-05
3.54371e-05
4.21579e-05
4.21867e-05
3.54346e-05
4.21564e-05
3.66618e-05
3.84565e-05
4.07548e-05
3.66371e-05
3.98424e-05
3.98455e-05
4.07565e-05
3.84501e-05
3.18388e-06
7.64495e-07
1.41849e-07
5.39093e-08
3.11871e-07
3.13233e-06
7.52009e-07
1.3964e-07
5.35852e-08
3.1105e-07
3.03854e-06
7.37229e-07
1.38483e-07
5.67531e-08
3.36815e-07
3.08382e-06
7.48298e-07
1.40448e-07
5.70462e-08
3.37536e-07
3.0438e-06
7.38445e-07
1.38684e-07
5.67748e-08
3.3685e-07
3.04435e-06
7.38707e-07
1.38753e-07
5.68085e-08
3.37002e-07
3.12862e-06
7.51133e-07
1.3949e-07
5.35592e-08
3.11001e-07
3.13051e-06
7.51629e-07
1.39588e-07
5.35908e-08
3.11122e-07
3.13082e-06
7.51665e-07
1.39602e-07
5.35998e-08
3.11156e-07
3.08162e-06
7.47772e-07
1.40345e-07
5.70007e-08
3.37304e-07
3.18435e-06
7.64436e-07
1.41807e-07
5.3846e-08
3.11437e-07
3.1862e-06
7.6486e-07
1.41884e-07
5.38441e-08
3.11391e-07
3.04436e-06
7.38708e-07
1.38749e-07
5.67912e-08
3.36907e-07
3.08382e-06
7.4816e-07
1.40394e-07
5.69807e-08
3.37167e-07
3.11819e-06
7.51018e-07
1.40017e-07
5.5175e-08
3.23233e-07
3.22007e-06
7.76719e-07
1.44766e-07
5.62992e-08
3.28452e-07
3.22102e-06
7.76744e-07
1.4477e-07
5.63433e-08
3.288e-07
3.11739e-06
7.51039e-07
1.40023e-07
5.514e-08
3.22948e-07
3.13187e-06
7.51698e-07
1.39576e-07
5.35668e-08
3.1095e-07
3.03828e-06
7.37031e-07
1.38446e-07
5.67651e-08
3.36936e-07
3.14712e-06
7.53637e-07
1.39867e-07
5.39702e-08
3.13932e-07
3.14713e-06
7.53466e-07
1.39832e-07
5.3979e-08
3.14028e-07
3.15074e-06
7.54806e-07
1.40086e-07
5.39912e-08
3.13925e-07
3.15028e-06
7.54553e-07
1.40034e-07
5.39777e-08
3.13856e-07
3.04346e-06
7.38229e-07
1.38643e-07
5.67837e-08
3.36951e-07
2.84164e-06
6.89495e-07
1.30066e-07
5.56949e-08
3.34868e-07
3.14791e-06
7.53736e-07
1.39897e-07
5.39977e-08
3.141e-07
3.11681e-06
7.50671e-07
1.3996e-07
5.51712e-08
3.23245e-07
3.21937e-06
7.76546e-07
1.44735e-07
5.62954e-08
3.28446e-07
3.22027e-06
7.76564e-07
1.44738e-07
5.63387e-08
3.28789e-07
3.11606e-06
7.50696e-07
1.39966e-07
5.51357e-08
3.22957e-07
3.12815e-06
7.50819e-07
1.39424e-07
5.35416e-08
3.10907e-07
3.21898e-06
7.76405e-07
1.44716e-07
5.62778e-08
3.28391e-07
3.11566e-06
7.50586e-07
1.39943e-07
5.51175e-08
3.22881e-07
3.21889e-06
7.76391e-07
1.44704e-07
5.62771e-08
3.28376e-07
3.11575e-06
7.50603e-07
1.39941e-07
5.51211e-08
3.22891e-07
2.84907e-06
6.91469e-07
1.30421e-07
5.57344e-08
3.34892e-07
3.17052e-06
7.5935e-07
1.40886e-07
5.41107e-08
3.14189e-07
3.1705e-06
7.5918e-07
1.40846e-07
5.4092e-08
3.14068e-07
3.08049e-06
7.47429e-07
1.40278e-07
5.697e-08
3.3711e-07
3.14762e-06
7.58238e-07
1.41254e-07
5.5189e-08
3.22419e-07
3.25001e-06
7.8379e-07
1.45963e-07
5.63254e-08
3.27783e-07
3.25007e-06
7.83693e-07
1.45942e-07
5.63259e-08
3.27805e-07
3.14797e-06
7.5843e-07
1.41294e-07
5.52058e-08
3.22522e-07
3.18252e-06
7.63895e-07
1.41699e-07
5.37791e-08
3.10983e-07
3.14811e-06
7.58358e-07
1.41279e-07
5.51899e-08
3.22428e-07
3.25013e-06
7.83805e-07
1.45975e-07
5.63262e-08
3.27799e-07
3.25015e-06
7.83703e-07
1.45953e-07
5.63264e-08
3.27819e-07
3.14842e-06
7.58542e-07
1.41318e-07
5.52052e-08
3.2252e-07
3.18443e-06
7.64328e-07
1.41777e-07
5.37786e-08
3.10947e-07
3.0827e-06
7.47811e-07
1.40325e-07
5.69515e-08
3.36984e-07
2.83882e-06
6.88888e-07
1.29958e-07
5.56638e-08
3.34742e-07
2.84127e-06
6.89499e-07
1.30067e-07
5.56821e-08
3.34809e-07
3.11987e-06
7.56629e-07
1.41842e-07
5.68834e-08
3.35228e-07
3.06361e-06
7.427e-07
1.39336e-07
5.64031e-08
3.33382e-07
3.06396e-06
7.42945e-07
1.39382e-07
5.63917e-08
3.33256e-07
2.83037e-06
6.86807e-07
1.2959e-07
5.56173e-08
3.34644e-07
3.11979e-06
7.47447e-07
1.38822e-07
5.38438e-08
3.13707e-07
3.12067e-06
7.47492e-07
1.38827e-07
5.38685e-08
3.139e-07
2.83849e-06
6.8869e-07
1.29923e-07
5.56803e-08
3.34899e-07
2.84077e-06
6.8927e-07
1.30025e-07
5.56902e-08
3.34904e-07
2.84781e-06
6.91035e-07
1.30333e-07
5.56976e-08
3.34753e-07
3.1726e-06
7.59719e-07
1.40938e-07
5.41105e-08
3.1418e-07
3.17149e-06
7.59265e-07
1.40852e-07
5.41031e-08
3.1419e-07
2.82892e-06
6.86468e-07
1.29539e-07
5.56196e-08
3.34734e-07
3.12268e-06
7.48106e-07
1.38933e-07
5.38592e-08
3.13778e-07
3.1228e-06
7.47962e-07
1.38903e-07
5.38685e-08
3.13874e-07
2.84637e-06
6.90626e-07
1.30263e-07
5.57128e-08
3.34929e-07
2.82906e-06
6.86365e-07
1.2952e-07
5.56429e-08
3.34936e-07
3.06118e-06
7.42094e-07
1.39231e-07
5.63841e-08
3.33354e-07
3.06155e-06
7.42342e-07
1.39278e-07
5.63729e-08
3.3323e-07
3.06191e-06
7.42453e-07
1.39299e-07
5.63811e-08
3.33255e-07
3.062e-06
7.42465e-07
1.39303e-07
5.63907e-08
3.33298e-07
2.83079e-06
6.86789e-07
1.29588e-07
5.56434e-08
3.34853e-07
2.84909e-06
6.91376e-07
1.30401e-07
5.57359e-08
3.34918e-07
3.11912e-06
7.56111e-07
1.41713e-07
5.67747e-08
3.34473e-07
3.12074e-06
7.56582e-07
1.41809e-07
5.68335e-08
3.34871e-07
3.11989e-06
7.56324e-07
1.41748e-07
5.67731e-08
3.34453e-07
3.12143e-06
7.5678e-07
1.41841e-07
5.68288e-08
3.34828e-07
1.0365e-05
1.0221e-05
3.40809e-05
2.26792e-05
2.24343e-05
3.71856e-05
1.60185e-05
4.17731e-05
3.06777e-05
3.60163e-05
2.52474e-05
3.71787e-05
1.59989e-05
4.1761e-05
3.06078e-05
2.5239e-05
3.59614e-05
3.06199e-05
3.59915e-05
1.60102e-05
1.02022e-05
3.40395e-05
2.2404e-05
2.28218e-05
1.04259e-05
4.21817e-05
3.03674e-05
2.49593e-05
3.65764e-05
4.21844e-05
3.04094e-05
2.49659e-05
3.66126e-05
3.82924e-05
1.64698e-05
3.82927e-05
1.64803e-05
3.40989e-05
2.24658e-05
2.28345e-05
1.02187e-05
1.04368e-05
9.14364e-06
9.07144e-06
1.72634e-05
1.59081e-05
3.90431e-05
3.40249e-05
1.55999e-05
3.87552e-05
3.35229e-05
1.32542e-05
3.43822e-05
1.44904e-05
3.72885e-05
1.31807e-05
3.45061e-05
1.45764e-05
9.56879e-06
2.26517e-05
1.61142e-05
9.53199e-06
2.27791e-05
1.32484e-05
1.4487e-05
3.43648e-05
3.72822e-05
1.31747e-05
1.45733e-05
3.44893e-05
9.56151e-06
2.26291e-05
1.60946e-05
9.52473e-06
2.27562e-05
9.56264e-06
2.26347e-05
1.61054e-05
9.52598e-06
2.27615e-05
1.02359e-05
1.73952e-05
9.0754e-06
9.14703e-06
1.72841e-05
9.1013e-06
9.18365e-06
3.36438e-05
1.56199e-05
3.87416e-05
2.25099e-05
3.88115e-05
3.34375e-05
1.56589e-05
3.40347e-05
1.59174e-05
3.89679e-05
2.29158e-05
3.39904e-05
1.6018e-05
3.8992e-05
1.04537e-05
1.3524e-05
3.53902e-05
1.48655e-05
3.82858e-05
1.35046e-05
3.54211e-05
1.48641e-05
9.82989e-06
2.33472e-05
1.65367e-05
9.80943e-06
2.34238e-05
1.35254e-05
3.53963e-05
1.48657e-05
3.82861e-05
1.35072e-05
3.54264e-05
1.48646e-05
9.83123e-06
2.33571e-05
1.6547e-05
9.81221e-06
2.34312e-05
1.7366e-05
9.09767e-06
9.1268e-06
1.72643e-05
9.12674e-06
9.15412e-06
3.40504e-05
1.57756e-05
3.89249e-05
2.25771e-05
3.3922e-05
3.89842e-05
1.58439e-05
3.37959e-05
1.5797e-05
3.8982e-05
2.29189e-05
3.36804e-05
3.90288e-05
1.58551e-05
1.02539e-05
1.04629e-05
2.11031e-05
1.82247e-05
1.79749e-05
1.62864e-05
2.11031e-05
1.8231e-05
1.79744e-05
1.6283e-05
2.08428e-05
1.79155e-05
1.78983e-05
1.6204e-05
2.08515e-05
1.79176e-05
1.78962e-05
1.62034e-05
3.87433e-05
3.86377e-05
3.94851e-05
3.67306e-05
4.1672e-05
3.57947e-05
4.17462e-05
3.69297e-05
4.1661e-05
3.55694e-05
3.84008e-05
4.01679e-05
3.9674e-05
3.61259e-05
3.96514e-05
3.84952e-05
4.02264e-05
3.66979e-05
3.57839e-05
4.1642e-05
4.17341e-05
3.68961e-05
3.55597e-05
4.1631e-05
3.8353e-05
4.01247e-05
3.95959e-05
3.6072e-05
3.84477e-05
4.01829e-05
3.95751e-05
3.83588e-05
4.01315e-05
3.96398e-05
3.6101e-05
3.84535e-05
4.01904e-05
3.96183e-05
3.93389e-05
3.38991e-05
3.86915e-05
3.85213e-05
3.86192e-05
3.93197e-05
3.84544e-05
3.66088e-05
3.54528e-05
4.21456e-05
4.21823e-05
3.66717e-05
3.54383e-05
4.21407e-05
3.83665e-05
4.07157e-05
3.97848e-05
3.66463e-05
3.84342e-05
3.97612e-05
4.07455e-05
3.66237e-05
3.54556e-05
4.21557e-05
4.21848e-05
3.66847e-05
3.54414e-05
4.2151e-05
3.84008e-05
4.07401e-05
3.98434e-05
3.66844e-05
3.84671e-05
4.07694e-05
3.98228e-05
3.95337e-05
3.39577e-05
3.87722e-05
3.8629e-05
3.95062e-05
3.86973e-05
3.85617e-05
2.10579e-05
3.08385e-05
2.10574e-05
3.08392e-05
3.0545e-05
3.40602e-05
3.40528e-05
3.40699e-05
3.05435e-05
3.054e-05
3.05415e-05
3.05375e-05
3.40213e-05
3.40307e-05
3.08703e-05
3.08643e-05
3.08651e-05
3.08591e-05
3.08555e-05
3.08331e-05
3.08501e-05
3.40535e-05
3.05435e-05
3.05399e-05
3.40148e-05
3.08709e-05
3.08647e-05
3.0856e-05
3.40558e-05
3.05629e-05
3.82952e-05
1.6487e-05
1.64726e-05
3.83101e-05
1.04245e-05
1.04175e-05
3.72039e-05
1.6049e-05
1.60219e-05
3.72272e-05
2.10513e-05
2.10607e-05
2.10621e-05
2.10598e-05
2.10531e-05
2.10623e-05
2.10637e-05
4.17725e-05
3.60385e-05
2.55517e-05
3.0834e-05
3.60048e-05
2.55467e-05
4.1756e-05
3.83005e-05
1.64874e-05
3.83106e-05
1.64744e-05
1.04245e-05
1.04168e-05
3.72009e-05
1.60477e-05
3.72266e-05
1.6023e-05
2.10508e-05
2.10601e-05
2.10615e-05
4.17751e-05
3.60384e-05
2.55529e-05
3.08323e-05
4.1761e-05
3.60087e-05
2.55447e-05
1.02268e-05
1.02158e-05
4.21853e-05
2.50199e-05
3.66291e-05
3.05434e-05
2.50189e-05
3.66082e-05
4.21836e-05
2.25071e-05
2.28483e-05
3.40746e-05
2.24664e-05
2.28292e-05
1.0436e-05
1.04286e-05
1.02398e-05
1.02259e-05
2.28635e-05
2.24711e-05
3.40694e-05
2.28385e-05
2.24345e-05
1.0429e-05
1.04359e-05
1.02267e-05
1.02392e-05
3.40496e-05
2.28395e-05
2.24356e-05
2.28637e-05
2.24701e-05
3.82857e-05
1.64725e-05
1.64582e-05
3.8298e-05
4.21756e-05
3.66e-05
2.49527e-05
3.0542e-05
3.65774e-05
2.49531e-05
4.21682e-05
4.21677e-05
3.65752e-05
2.49494e-05
3.05381e-05
3.65561e-05
2.49496e-05
4.216e-05
3.83077e-05
1.64741e-05
1.64868e-05
3.82928e-05
3.82991e-05
1.64589e-05
1.64721e-05
3.82818e-05
4.21699e-05
3.05437e-05
3.65766e-05
2.49533e-05
3.65971e-05
2.49531e-05
4.21759e-05
4.21621e-05
3.05396e-05
3.65603e-05
2.49497e-05
3.65776e-05
2.49496e-05
4.21674e-05
2.28149e-05
2.24754e-05
3.40325e-05
2.27918e-05
2.24389e-05
1.02328e-05
1.02185e-05
1.04181e-05
1.04246e-05
3.40124e-05
2.27936e-05
2.24407e-05
2.28172e-05
2.24743e-05
1.02193e-05
1.02316e-05
4.17793e-05
3.60669e-05
2.55614e-05
3.08661e-05
3.60309e-05
2.55563e-05
4.17656e-05
3.71954e-05
1.60325e-05
3.72197e-05
1.60055e-05
4.1768e-05
2.55588e-05
3.60313e-05
3.08599e-05
2.55538e-05
4.17541e-05
3.5995e-05
3.72391e-05
1.60227e-05
1.60477e-05
3.71923e-05
4.1772e-05
3.08707e-05
3.60288e-05
2.55558e-05
3.60651e-05
2.5562e-05
4.179e-05
3.72317e-05
1.6006e-05
3.71855e-05
1.60311e-05
4.17609e-05
3.08647e-05
2.55532e-05
3.59921e-05
2.55594e-05
4.17782e-05
3.60289e-05
3.71923e-05
1.60383e-05
1.60115e-05
3.72223e-05
4.17656e-05
2.55548e-05
3.60395e-05
3.08512e-05
2.555e-05
4.17496e-05
3.60038e-05
3.719e-05
1.60391e-05
3.72193e-05
1.60116e-05
4.17642e-05
3.08385e-05
3.60013e-05
2.55461e-05
3.60381e-05
2.55524e-05
4.17749e-05
3.72289e-05
1.60125e-05
1.60371e-05
3.71884e-05
4.17578e-05
3.0856e-05
2.55495e-05
3.60014e-05
2.55556e-05
4.17704e-05
3.60376e-05
3.72262e-05
1.6013e-05
3.71858e-05
1.60374e-05
1.04356e-05
1.04292e-05
1.02383e-05
1.02277e-05
2.28635e-05
2.24702e-05
3.40644e-05
2.28393e-05
2.24354e-05
3.8292e-05
1.64722e-05
3.82992e-05
1.64603e-05
4.21715e-05
3.6597e-05
2.49531e-05
3.05419e-05
4.21701e-05
3.65802e-05
2.49522e-05
4.21643e-05
3.65801e-05
2.49496e-05
3.05389e-05
4.21616e-05
3.65572e-05
2.49487e-05
2.28171e-05
2.24766e-05
3.40336e-05
2.2797e-05
2.244e-05
1.0231e-05
1.02225e-05
4.17781e-05
3.60631e-05
2.55624e-05
3.08638e-05
4.17762e-05
3.60307e-05
2.55539e-05
3.71928e-05
1.6031e-05
3.72186e-05
1.60066e-05
4.17662e-05
2.55597e-05
3.60267e-05
3.08574e-05
4.17641e-05
2.55513e-05
3.59937e-05
3.71907e-05
1.60376e-05
3.72216e-05
1.60122e-05
4.17672e-05
2.55559e-05
3.60363e-05
3.0848e-05
4.1756e-05
2.55479e-05
3.60041e-05
3.71887e-05
1.60382e-05
3.72192e-05
1.60138e-05
2.24557e-05
2.28826e-05
3.40656e-05
2.24194e-05
2.28604e-05
1.04466e-05
1.04408e-05
2.28804e-05
1.0447e-05
4.2186e-05
2.50226e-05
3.66387e-05
3.05599e-05
2.50211e-05
3.66141e-05
4.2184e-05
3.82958e-05
1.64929e-05
1.64807e-05
3.82982e-05
3.82932e-05
1.6494e-05
1.64834e-05
3.82974e-05
4.21749e-05
3.66218e-05
4.2175e-05
3.66291e-05
3.82806e-05
1.64888e-05
3.8278e-05
1.64921e-05
1.02379e-05
1.02259e-05
1.04432e-05
1.04387e-05
2.28545e-05
1.04444e-05
1.35227e-05
1.48711e-05
3.54002e-05
3.8312e-05
1.48836e-05
3.54208e-05
1.35111e-05
9.81639e-06
1.64725e-05
2.33714e-05
2.33535e-05
9.82114e-06
9.82106e-06
2.33533e-05
1.64865e-05
2.33713e-05
9.81648e-06
1.35114e-05
3.8297e-05
1.48839e-05
3.54233e-05
1.48714e-05
3.54046e-05
1.35233e-05
1.0417e-05
1.04245e-05
1.32062e-05
3.43991e-05
1.44883e-05
3.72361e-05
3.44403e-05
1.45177e-05
1.31798e-05
9.53626e-06
1.60224e-05
2.26932e-05
2.26552e-05
9.55041e-06
9.54992e-06
2.26541e-05
1.60482e-05
2.26924e-05
9.53624e-06
1.31798e-05
3.71956e-05
3.44342e-05
1.45178e-05
3.43968e-05
1.44879e-05
1.32064e-05
1.35224e-05
3.83077e-05
1.48856e-05
3.54033e-05
1.48817e-05
3.54201e-05
1.35152e-05
9.81691e-06
2.33721e-05
1.64739e-05
9.82118e-06
2.33551e-05
1.35116e-05
3.82965e-05
1.48837e-05
3.54229e-05
1.35232e-05
1.48715e-05
3.54042e-05
9.82057e-06
2.33572e-05
1.64866e-05
2.33718e-05
9.81872e-06
1.04179e-05
1.04232e-05
1.32046e-05
3.72327e-05
3.43967e-05
1.44888e-05
3.44369e-05
1.45154e-05
1.31799e-05
9.53739e-06
2.26914e-05
1.60229e-05
9.54858e-06
2.26546e-05
1.31803e-05
3.71948e-05
3.44323e-05
1.45154e-05
1.32048e-05
3.43956e-05
1.44885e-05
9.54769e-06
2.26541e-05
1.60471e-05
2.26902e-05
9.53769e-06
1.02158e-05
1.02259e-05
1.73451e-05
9.11509e-06
9.15421e-06
9.13009e-06
9.16505e-06
1.73027e-05
3.38547e-05
3.89287e-05
2.24704e-05
1.58073e-05
3.89098e-05
1.57782e-05
3.38856e-05
3.37678e-05
3.8998e-05
2.28256e-05
1.58516e-05
3.89824e-05
1.58342e-05
3.38235e-05
3.39e-05
1.5773e-05
2.25022e-05
3.89118e-05
3.89315e-05
1.57975e-05
3.38673e-05
3.37915e-05
1.58329e-05
2.28512e-05
3.89827e-05
3.89962e-05
1.58519e-05
3.37437e-05
1.73178e-05
9.14054e-06
9.16456e-06
9.12332e-06
9.15532e-06
1.73657e-05
1.04283e-05
1.04358e-05
1.02257e-05
1.02394e-05
1.72853e-05
9.1454e-06
9.07339e-06
9.15566e-06
9.08519e-06
1.72521e-05
3.40571e-05
3.91385e-05
2.28383e-05
1.59744e-05
1.59552e-05
3.91223e-05
3.40967e-05
3.35228e-05
3.87905e-05
2.24349e-05
1.56269e-05
1.56032e-05
3.87666e-05
3.35676e-05
3.40882e-05
1.59559e-05
2.2863e-05
3.91198e-05
1.59741e-05
3.40522e-05
3.91351e-05
3.35588e-05
1.56032e-05
2.24701e-05
3.87625e-05
1.56264e-05
3.35179e-05
3.87858e-05
1.72505e-05
9.15554e-06
9.08516e-06
9.14484e-06
9.07289e-06
1.72854e-05
1.04359e-05
1.04289e-05
1.02388e-05
1.02263e-05
1.72545e-05
9.15603e-06
9.08546e-06
1.72877e-05
9.14583e-06
9.07387e-06
3.40989e-05
3.91235e-05
2.28641e-05
1.59569e-05
1.59757e-05
3.91376e-05
3.40662e-05
3.35691e-05
3.87677e-05
2.24706e-05
1.56045e-05
1.56272e-05
3.87882e-05
3.35317e-05
3.40595e-05
1.59752e-05
3.91346e-05
2.28394e-05
3.40895e-05
1.59572e-05
3.91216e-05
3.3525e-05
1.56266e-05
3.87842e-05
2.24352e-05
3.356e-05
1.56041e-05
3.87644e-05
1.72886e-05
9.14568e-06
9.07389e-06
9.15588e-06
9.08531e-06
1.7254e-05
1.35161e-05
1.48674e-05
3.53824e-05
3.83014e-05
1.48802e-05
3.54012e-05
1.35041e-05
9.80891e-06
1.64583e-05
2.33553e-05
2.33376e-05
9.81367e-06
9.81349e-06
2.3337e-05
1.64722e-05
2.33554e-05
9.8087e-06
1.35043e-05
3.82851e-05
1.48802e-05
3.53996e-05
1.48676e-05
3.53824e-05
1.35161e-05
1.35116e-05
1.48834e-05
3.54169e-05
3.82908e-05
1.35228e-05
1.48713e-05
3.53991e-05
9.82127e-06
1.64875e-05
2.33544e-05
9.81694e-06
2.33715e-05
9.81674e-06
2.33711e-05
1.64734e-05
9.82114e-06
2.33536e-05
1.35234e-05
3.83061e-05
1.48717e-05
3.54033e-05
1.3512e-05
1.48837e-05
3.54191e-05
1.35042e-05
1.48799e-05
3.53998e-05
3.82819e-05
1.35159e-05
1.48674e-05
3.53807e-05
9.81303e-06
1.64722e-05
2.33359e-05
2.33533e-05
9.8087e-06
9.80857e-06
2.33542e-05
1.64586e-05
9.81316e-06
2.33359e-05
1.3516e-05
3.82964e-05
1.48677e-05
3.53812e-05
1.488e-05
3.53989e-05
1.35044e-05
1.73072e-05
9.13067e-06
9.10136e-06
9.14321e-06
9.11642e-06
1.72657e-05
3.36779e-05
3.89937e-05
2.27904e-05
1.58093e-05
1.57899e-05
3.89795e-05
3.37278e-05
3.38074e-05
3.88056e-05
2.24394e-05
1.57994e-05
3.87854e-05
1.57704e-05
3.38395e-05
3.37044e-05
1.57849e-05
2.28158e-05
3.89827e-05
1.58073e-05
3.89963e-05
3.36608e-05
3.38537e-05
1.57669e-05
2.24747e-05
3.87875e-05
3.88073e-05
1.57929e-05
3.38203e-05
1.7278e-05
9.14439e-06
9.12401e-06
9.13316e-06
9.1077e-06
1.73238e-05
1.02186e-05
1.02321e-05
1.04247e-05
1.04178e-05
1.72567e-05
9.1395e-06
9.11064e-06
1.72956e-05
9.12672e-06
9.09699e-06
3.36775e-05
3.89918e-05
2.28179e-05
1.57729e-05
3.90045e-05
1.57948e-05
3.3638e-05
3.38749e-05
3.87959e-05
2.24749e-05
1.57655e-05
1.57884e-05
3.88147e-05
3.38395e-05
3.36477e-05
1.58014e-05
3.90003e-05
2.27931e-05
3.89873e-05
3.36889e-05
1.57786e-05
3.38309e-05
1.57897e-05
3.88101e-05
2.24393e-05
3.38653e-05
1.57656e-05
3.87915e-05
1.7287e-05
9.12255e-06
9.09421e-06
9.13511e-06
9.10654e-06
1.72491e-05
1.02312e-05
1.02188e-05
1.31993e-05
1.44845e-05
3.72271e-05
3.43786e-05
1.4514e-05
3.44185e-05
1.31731e-05
9.52904e-06
2.26712e-05
1.6006e-05
2.26334e-05
9.54315e-06
1.31729e-05
3.71871e-05
1.4514e-05
3.44144e-05
1.44841e-05
3.43753e-05
1.31996e-05
9.54274e-06
2.2633e-05
1.60318e-05
2.2671e-05
9.52909e-06
1.31794e-05
3.44371e-05
1.45169e-05
3.72005e-05
1.32054e-05
3.43925e-05
1.44881e-05
9.54904e-06
1.60477e-05
2.26544e-05
9.53692e-06
2.26911e-05
9.53648e-06
2.26912e-05
1.60222e-05
9.54944e-06
2.26537e-05
1.32046e-05
3.72308e-05
3.43898e-05
1.4488e-05
1.31794e-05
3.44302e-05
1.45157e-05
1.31729e-05
1.45133e-05
3.7194e-05
3.44187e-05
1.31988e-05
1.44844e-05
3.43756e-05
9.54173e-06
2.2632e-05
1.6031e-05
2.26691e-05
9.5296e-06
1.3198e-05
3.72245e-05
1.44843e-05
3.43716e-05
1.45121e-05
3.44135e-05
1.31726e-05
9.52923e-06
2.26701e-05
1.60055e-05
9.54224e-06
2.26322e-05
1.31994e-05
3.43817e-05
1.44837e-05
3.72256e-05
3.44216e-05
1.45131e-05
1.31735e-05
9.53027e-06
1.6012e-05
2.26775e-05
2.264e-05
9.54413e-06
9.54373e-06
2.26398e-05
1.60378e-05
2.26773e-05
9.53037e-06
1.31733e-05
3.71877e-05
3.44197e-05
1.45133e-05
3.43797e-05
1.44833e-05
1.31997e-05
1.31984e-05
1.44829e-05
3.7223e-05
3.43768e-05
1.45121e-05
3.44168e-05
1.31725e-05
9.52973e-06
2.26741e-05
1.60125e-05
2.26361e-05
9.54382e-06
1.31723e-05
3.71852e-05
1.45124e-05
3.44144e-05
1.44826e-05
3.43747e-05
1.31988e-05
9.54341e-06
2.26357e-05
1.60381e-05
2.26737e-05
9.52981e-06
1.31734e-05
3.44222e-05
1.45126e-05
3.71929e-05
1.3199e-05
3.43808e-05
1.44839e-05
9.54285e-06
1.60372e-05
2.26398e-05
2.26763e-05
9.53096e-06
9.53059e-06
2.26767e-05
1.60116e-05
9.54331e-06
2.26395e-05
1.31984e-05
3.72258e-05
3.43785e-05
1.44838e-05
3.44195e-05
1.45116e-05
1.31733e-05
1.31725e-05
1.45116e-05
3.71903e-05
3.4417e-05
1.3198e-05
1.44831e-05
3.43752e-05
9.54263e-06
2.26358e-05
1.60378e-05
2.26725e-05
9.53052e-06
1.31975e-05
3.72229e-05
1.4483e-05
3.43732e-05
1.45105e-05
3.4414e-05
1.31724e-05
9.5301e-06
2.2673e-05
1.60119e-05
9.54301e-06
2.26354e-05
1.04289e-05
1.04352e-05
1.02272e-05
1.02375e-05
1.72856e-05
9.14575e-06
9.07426e-06
9.15499e-06
9.08418e-06
1.72526e-05
3.40605e-05
3.91372e-05
1.59745e-05
2.28389e-05
3.40992e-05
1.59559e-05
3.91209e-05
3.35267e-05
3.87885e-05
1.56265e-05
2.24353e-05
3.35697e-05
1.56038e-05
3.87653e-05
1.72523e-05
9.15532e-06
9.08472e-06
1.72868e-05
9.14551e-06
9.07386e-06
3.40905e-05
1.59563e-05
2.28628e-05
3.91223e-05
1.59737e-05
3.40543e-05
3.91323e-05
3.35618e-05
1.56039e-05
2.24691e-05
3.8762e-05
1.56254e-05
3.35212e-05
3.87846e-05
1.35159e-05
3.82988e-05
1.48819e-05
3.53852e-05
1.48785e-05
3.54006e-05
1.35083e-05
9.80895e-06
2.33536e-05
1.6459e-05
9.81307e-06
2.33367e-05
1.35045e-05
3.82852e-05
1.48801e-05
3.54005e-05
1.48679e-05
1.35161e-05
3.53826e-05
9.81292e-06
2.33396e-05
1.64719e-05
2.33539e-05
9.8111e-06
1.73167e-05
9.12396e-06
9.10501e-06
9.13496e-06
9.10729e-06
1.72928e-05
3.36354e-05
3.90056e-05
1.57872e-05
2.27915e-05
1.57731e-05
3.3668e-05
3.89956e-05
3.3865e-05
3.88153e-05
1.57896e-05
2.24445e-05
3.8808e-05
3.3883e-05
1.57599e-05
1.72537e-05
9.1307e-06
9.10377e-06
9.11951e-06
1.72795e-05
9.09453e-06
3.36506e-05
1.57835e-05
2.28202e-05
3.89832e-05
1.58241e-05
3.89888e-05
3.36875e-05
3.39471e-05
1.57677e-05
2.24742e-05
3.87939e-05
3.88313e-05
1.57579e-05
3.38326e-05
1.02206e-05
1.0232e-05
1.31979e-05
3.72236e-05
1.44852e-05
3.43777e-05
1.45117e-05
3.44159e-05
1.31736e-05
9.53025e-06
2.26691e-05
1.60064e-05
9.54133e-06
2.26328e-05
1.31733e-05
3.71858e-05
1.45116e-05
3.4412e-05
1.44847e-05
1.31979e-05
3.43741e-05
9.54063e-06
2.26334e-05
1.60307e-05
2.26691e-05
9.53069e-06
1.31978e-05
3.72229e-05
3.43812e-05
1.44842e-05
3.44195e-05
1.45107e-05
1.31738e-05
9.53148e-06
2.26764e-05
1.60128e-05
2.26403e-05
9.54237e-06
1.31736e-05
3.71873e-05
3.44181e-05
1.4511e-05
3.43792e-05
1.3198e-05
1.4484e-05
9.54155e-06
2.26402e-05
1.60366e-05
2.26758e-05
9.53185e-06
1.31972e-05
3.7221e-05
1.44834e-05
3.43766e-05
1.451e-05
3.44156e-05
1.31728e-05
9.53101e-06
2.26725e-05
1.60136e-05
9.54217e-06
2.26362e-05
1.31728e-05
3.71851e-05
1.45103e-05
3.44136e-05
1.31975e-05
1.44832e-05
3.43749e-05
9.54134e-06
2.26366e-05
1.60379e-05
2.26723e-05
9.53137e-06
1.72919e-05
9.07092e-06
9.15775e-06
9.08001e-06
9.16506e-06
1.72703e-05
3.3524e-05
3.88597e-05
2.24209e-05
1.56036e-05
1.55811e-05
3.8836e-05
3.35673e-05
3.40839e-05
3.90789e-05
2.28578e-05
1.6005e-05
3.90634e-05
1.59861e-05
3.41233e-05
3.35574e-05
1.55858e-05
2.24542e-05
3.88365e-05
1.56016e-05
3.88531e-05
3.35204e-05
3.41123e-05
1.5984e-05
2.28821e-05
3.90701e-05
3.90716e-05
1.60059e-05
3.40956e-05
1.72588e-05
9.08062e-06
9.1652e-06
9.06975e-06
9.15562e-06
1.72935e-05
1.04402e-05
1.04463e-05
9.17203e-06
1.5974e-05
1.35147e-05
3.53965e-05
1.4878e-05
3.82959e-05
3.5407e-05
1.48741e-05
1.35077e-05
9.81405e-06
1.64799e-05
2.33695e-05
2.33533e-05
9.8179e-06
9.81795e-06
2.33575e-05
1.64928e-05
2.33713e-05
9.81634e-06
1.35033e-05
3.82819e-05
3.54057e-05
1.48748e-05
3.53877e-05
1.48631e-05
1.35142e-05
1.35154e-05
3.53942e-05
1.48779e-05
3.8294e-05
3.54065e-05
1.4874e-05
1.35084e-05
9.81382e-06
1.64811e-05
2.33712e-05
2.3355e-05
9.81772e-06
9.81851e-06
2.336e-05
1.64947e-05
2.33735e-05
9.81694e-06
1.35034e-05
3.82808e-05
3.54072e-05
1.48746e-05
3.5388e-05
1.48626e-05
1.35148e-05
3.54036e-05
1.48549e-05
1.35084e-05
2.33814e-05
9.81733e-06
3.54017e-05
1.48546e-05
1.35092e-05
2.33858e-05
9.81816e-06
1.02264e-05
1.02364e-05
1.04372e-05
1.04441e-05
9.16207e-06
1.58487e-05
1.79281e-05
1.81537e-05
2.10592e-05
1.79288e-05
1.8155e-05
1.6252e-05
1.62519e-05
1.79281e-05
1.81532e-05
2.106e-05
1.79293e-05
1.81555e-05
1.62521e-05
1.62518e-05
3.94333e-05
3.87506e-05
3.85979e-05
3.40848e-05
3.87722e-05
3.86155e-05
3.94298e-05
3.94934e-05
3.8711e-05
3.86269e-05
3.40759e-05
3.87284e-05
3.8648e-05
3.9495e-05
3.94963e-05
3.40525e-05
3.87275e-05
3.86452e-05
3.87074e-05
3.86242e-05
3.9495e-05
3.93585e-05
3.86619e-05
3.85624e-05
3.4042e-05
3.85807e-05
3.8677e-05
3.93564e-05
3.93967e-05
3.40137e-05
3.86786e-05
3.85739e-05
3.86583e-05
3.85531e-05
3.93956e-05
3.94933e-05
3.87106e-05
3.86264e-05
3.40757e-05
3.94949e-05
3.87266e-05
3.86464e-05
3.93987e-05
3.86635e-05
3.85563e-05
3.40395e-05
3.85799e-05
3.94073e-05
3.86821e-05
3.9499e-05
3.87584e-05
3.85896e-05
3.40781e-05
3.8605e-05
3.87783e-05
3.95076e-05
1.79267e-05
1.81508e-05
2.10525e-05
1.79274e-05
1.81522e-05
1.62516e-05
1.62514e-05
1.81319e-05
1.79536e-05
2.1062e-05
1.81333e-05
1.79542e-05
1.62524e-05
1.62522e-05
1.81315e-05
1.79539e-05
2.10634e-05
1.81328e-05
1.79545e-05
1.62523e-05
1.62522e-05
2.10577e-05
1.79291e-05
1.81553e-05
1.79281e-05
1.81535e-05
1.62518e-05
1.62521e-05
2.1051e-05
1.79277e-05
1.81525e-05
1.79266e-05
1.81506e-05
1.62514e-05
1.62516e-05
2.10604e-05
1.81335e-05
1.79543e-05
1.81316e-05
1.79534e-05
1.62522e-05
1.62524e-05
2.10618e-05
1.8133e-05
1.79547e-05
1.81312e-05
1.79537e-05
1.62521e-05
1.62523e-05
3.68517e-05
4.16605e-05
3.5772e-05
4.17565e-05
4.16595e-05
3.57138e-05
3.68966e-05
3.84608e-05
3.96351e-05
3.60044e-05
4.0178e-05
3.96451e-05
4.01562e-05
3.84413e-05
3.84392e-05
4.01557e-05
3.60404e-05
3.96391e-05
3.96313e-05
4.01772e-05
3.84557e-05
3.68992e-05
4.17668e-05
4.16584e-05
3.572e-05
4.166e-05
3.57749e-05
3.68539e-05
1.79266e-05
1.81504e-05
2.10533e-05
1.79278e-05
1.81527e-05
1.62517e-05
1.62514e-05
1.81314e-05
1.79533e-05
2.10626e-05
1.81337e-05
1.79546e-05
1.62525e-05
1.62522e-05
1.8131e-05
1.79537e-05
2.10643e-05
1.81336e-05
1.79565e-05
1.62525e-05
1.62521e-05
3.68597e-05
4.17626e-05
4.16592e-05
3.578e-05
4.16593e-05
3.57251e-05
3.69017e-05
3.84638e-05
3.96339e-05
4.01774e-05
3.60074e-05
3.84413e-05
3.96473e-05
4.01574e-05
3.69047e-05
4.1773e-05
4.166e-05
3.5726e-05
3.68566e-05
4.16611e-05
3.5784e-05
3.84451e-05
4.01568e-05
3.60448e-05
3.96415e-05
3.96386e-05
4.01786e-05
3.84587e-05
3.6654e-05
3.54432e-05
4.21512e-05
4.21829e-05
3.54293e-05
4.21487e-05
3.66548e-05
3.84378e-05
3.98235e-05
3.66089e-05
4.07427e-05
3.98283e-05
4.07389e-05
3.84353e-05
3.8436e-05
4.07397e-05
3.66283e-05
3.98235e-05
3.98185e-05
4.07417e-05
3.84353e-05
3.66611e-05
4.21898e-05
3.54256e-05
4.21493e-05
3.54427e-05
4.21516e-05
3.66514e-05
3.94458e-05
3.40629e-05
3.87602e-05
3.86087e-05
3.8748e-05
3.8596e-05
3.94469e-05
3.94932e-05
3.40533e-05
3.87224e-05
3.86404e-05
3.94924e-05
3.87075e-05
3.86237e-05
3.94942e-05
3.40726e-05
3.87031e-05
3.86191e-05
3.94939e-05
3.87225e-05
3.86425e-05
3.66249e-05
4.21408e-05
3.54178e-05
4.2169e-05
4.21389e-05
3.54033e-05
3.66319e-05
3.84085e-05
3.97811e-05
3.65788e-05
4.07292e-05
4.07186e-05
3.97875e-05
3.84028e-05
3.84017e-05
4.07177e-05
3.65985e-05
3.97852e-05
4.07283e-05
3.97782e-05
3.84062e-05
3.66335e-05
4.21746e-05
4.21386e-05
3.5404e-05
4.21409e-05
3.54186e-05
3.66236e-05
3.66129e-05
4.2122e-05
3.54132e-05
4.21609e-05
4.21199e-05
3.53988e-05
3.662e-05
3.83945e-05
3.97487e-05
3.65548e-05
4.07074e-05
4.0697e-05
3.97551e-05
3.83899e-05
3.83873e-05
4.06979e-05
3.65755e-05
3.97545e-05
4.07075e-05
3.83921e-05
3.97467e-05
3.6622e-05
4.21664e-05
4.21193e-05
3.53995e-05
4.21218e-05
3.5414e-05
3.66123e-05
3.66339e-05
4.21387e-05
3.54042e-05
4.2176e-05
3.66247e-05
4.21407e-05
3.54203e-05
3.84029e-05
3.97869e-05
3.65967e-05
4.07163e-05
3.97812e-05
4.07269e-05
3.84061e-05
3.84072e-05
4.07276e-05