/*--------------------------------*- C++ -*----------------------------------*\
| =========                 |                                                 |
| \\      /  F ield         | OpenFOAM: The Open Source CFD Toolbox           |
|  \\    /   O peration     | Version:  2206                                  |
|   \\  /    A nd           | Website:  www.openfoam.com                      |
|    \\/     M anipulation  |                                                 |
\*---------------------------------------------------------------------------*/
FoamFile
{
    version     2.0;
    format      ascii;
    arch        "LSB;label=32;scalar=64";
    class       surfaceScalarField;
    location    "0.5";
    object      phi;
}
// * * * * * * * * * * * * * * * * * * * * * * * * * * * * * * * * * * * * * //

dimensions      [0 3 -1 0 0 0 0];

oriented        oriented;

internalField   nonuniform List<scalar> 
196294
(
-1.10539e-11
8.284e-11
1.04752e-11
2.61416e-12
1.4082e-08
5.08911e-11
3.89306e-14
-4.5815e-12
-1.59866e-11
-2.0562e-08
2.05316e-08
-2.19118e-12
1.26525e-11
3.41921e-12
-1.39962e-08
1.49873e-12
1.39809e-08
-5.08619e-11
-1.35023e-13
-1.06735e-11
9.24237e-11
-2.45926e-08
2.45618e-08
-1.4767e-11
-1.29e-11
1.69623e-11
2.17218e-11
2.15811e-08
8.28575e-12
-5.26e-12
9.89004e-11
-1.32568e-10
1.33859e-10
-9.89998e-11
1.1586e-07
2.0369e-12
5.20654e-12
-7.03585e-09
1.85613e-12
7.02675e-09
-1.75118e-13
-1.68254e-11
1.6745e-11
-4.61768e-12
-2.52351e-08
2.52399e-08
1.03979e-12
4.36606e-11
-1.67467e-12
-3.22045e-12
-2.75909e-11
2.50519e-11
4.58509e-12
-4.29999e-11
-9.43307e-12
1.39981e-11
1.13938e-07
-3.8004e-11
2.15341e-12
-4.39937e-12
6.98616e-12
-7.00199e-12
3.45299e-12
1.15391e-07
-6.37278e-12
-5.48844e-12
9.20544e-12
-2.19811e-08
2.52487e-12
2.19812e-08
-3.00598e-11
-4.41468e-11
-2.73769e-08
-4.83993e-11
-3.0693e-11
2.75302e-08
1.11115e-11
-5.06066e-12
-4.26461e-12
-2.24077e-08
2.27464e-11
2.23832e-08
6.4749e-12
-2.99443e-12
-2.62296e-12
-2.25445e-08
1.46324e-11
2.2529e-08
2.98388e-11
3.34176e-12
7.07723e-09
4.60257e-12
-7.03715e-09
2.00448e-12
7.02836e-09
-4.15884e-11
-3.47658e-11
-2.73646e-08
-3.84389e-11
-3.95114e-11
2.75189e-08
5.8075e-11
-2.101e-11
1.21125e-10
2.253e-08
1.10962e-11
-4.65742e-12
-2.22354e-08
2.23503e-11
2.22112e-08
1.01159e-09
-3.54009e-11
-9.93143e-11
8.84015e-12
-3.51774e-10
-4.51257e-10
1.14876e-07
7.28152e-11
2.03381e-10
2.17142e-08
-4.96331e-12
-4.57033e-11
-5.26032e-12
2.23211e-08
2.20006e-12
1.90719e-12
7.02952e-09
-9.12909e-14
-1.06879e-11
9.2513e-11
-2.45914e-08
2.45606e-08
1.6138e-10
-9.06867e-11
-3.76966e-11
-2.83098e-11
2.90598e-11
5.90394e-11
-5.7747e-11
5.70359e-11
-5.613e-11
1.12802e-07
1.66605e-11
-2.15852e-08
2.39402e-11
2.15683e-08
3.51743e-11
-8.8328e-11
9.8842e-11
-1.32996e-10
1.33786e-10
-9.75561e-11
1.16095e-07
5.08786e-11
-1.59638e-11
-4.49124e-12
-2.05587e-08
2.05284e-08
1.29747e-11
3.14054e-12
-1.39919e-08
1.49673e-12
1.39763e-08
9.26024e-11
-1.06042e-11
-2.45886e-08
2.45574e-08
-1.58323e-12
2.97344e-11
-1.40102e-12
3.72603e-11
-5.41989e-11
-3.64086e-11
5.5906e-11
-2.7693e-11
-2.79712e-11
2.45237e-11
1.13931e-07
-7.09085e-12
8.07703e-11
-1.32438e-10
1.33192e-10
-7.95897e-11
1.17125e-07
-1.09483e-11
1.65545e-11
-2.15706e-08
2.41503e-11
2.15538e-08
2.85477e-14
-4.57624e-12
-1.59905e-11
2.05328e-08
3.40749e-12
1.48865e-12
1.39823e-08
-5.08551e-11
9.25215e-11
-1.05709e-11
-2.45899e-08
2.45587e-08
-1.35935e-12
-2.43591e-12
-2.80047e-11
-2.39169e-11
2.47135e-11
3.73335e-11
-5.69005e-11
5.62403e-11
-3.63888e-11
1.13922e-07
-5.97225e-12
8.0886e-11
-1.32326e-10
1.33317e-10
-7.94889e-11
1.17096e-07
-1.29591e-11
1.64437e-11
-2.15833e-08
2.41945e-11
2.15667e-08
-1.59618e-11
-4.4712e-12
2.05291e-08
-2.02348e-12
3.16199e-12
1.49691e-12
1.39781e-08
-2.73729e-08
-4.17611e-11
-3.737e-11
2.75254e-08
-1.22143e-11
-2.22833e-08
1.79728e-11
2.22718e-08
-2.72244e-12
5.28293e-12
-2.2668e-08
2.03358e-11
2.26387e-08
9.18567e-13
-7.18051e-09
2.00003e-12
7.17487e-09
-1.70643e-11
1.67321e-11
-4.60845e-12
-2.52381e-08
2.52428e-08
1.02792e-12
-1.70812e-12
-4.3303e-11
-1.4786e-11
1.4321e-11
-3.42999e-12
-2.46789e-11
2.45803e-11
4.82328e-12
1.13978e-07
1.1159e-12
-4.42693e-12
6.96025e-12
-6.78531e-12
3.64805e-12
1.15328e-07
-5.59746e-12
9.3405e-12
-2.1973e-08
1.92032e-12
2.19738e-08
-2.53957e-14
-2.05971e-12
-5.20058e-12
-2.12156e-08
2.12061e-08
1.78769e-12
-1.43208e-08
1.51861e-12
1.43129e-08
-2.0874e-12
-4.99036e-12
-2.12194e-08
2.12094e-08
-9.16244e-13
1.77627e-12
-1.43228e-08
1.55273e-12
1.43148e-08
1.96573e-12
7.0281e-09
-7.18049e-09
1.96766e-12
7.17462e-09
-2.60342e-11
1.47615e-10
2.1443e-08
4.23154e-12
5.80539e-09
-1.19603e-11
-8.3308e-13
1.04146e-08
1.42561e-12
-1.23468e-12
-1.95323e-08
-1.29053e-11
-6.79263e-12
4.19909e-11
1.95055e-08
-1.26547e-08
-1.12623e-12
4.67746e-14
9.01716e-13
1.26389e-08
4.31121e-12
1.49239e-11
4.53441e-14
-4.97757e-11
6.23002e-12
-4.07683e-11
4.67781e-14
-1.2255e-12
-1.82823e-12
9.2898e-13
1.04015e-08
-3.15235e-12
5.76799e-09
-2.67839e-12
-2.12956e-08
-3.42078e-12
2.60792e-11
2.12695e-08
-2.81348e-12
1.55681e-12
-1.20967e-11
-1.70662e-12
-2.56465e-11
2.26549e-12
5.76047e-09
-1.72425e-12
-4.46674e-12
-2.4928e-12
2.8288e-12
2.72764e-12
1.59298e-08
-1.29426e-11
-1.26773e-11
-5.83601e-09
3.05631e-12
2.51086e-12
1.8252e-12
5.82861e-09
-5.8736e-09
2.75565e-12
2.14229e-12
1.8337e-12
5.86687e-09
-2.38189e-12
-2.02807e-12
-1.84174e-12
-2.02695e-12
1.29735e-11
1.3179e-11
1.59094e-08
-2.0443e-11
1.0893e-11
2.02918e-08
-2.34461e-11
-1.35011e-08
1.12161e-11
1.04893e-12
1.34871e-08
-2.222e-11
3.9554e-12
-1.10181e-11
-2.39375e-08
-2.01779e-11
4.40898e-11
3.11507e-11
2.39052e-08
-4.39207e-11
-3.19069e-11
-1.12588e-12
2.38053e-11
2.0272e-08
-1.66724e-11
8.44254e-12
1.94423e-08
-1.81733e-11
-1.34098e-08
8.48763e-12
1.0604e-12
1.33997e-08
-1.45651e-11
1.99165e-12
2.91561e-12
-5.89421e-12
-2.33608e-08
-1.72655e-11
2.94624e-11
2.32888e-11
2.33399e-08
-2.99875e-11
-2.26356e-11
-1.13529e-12
1.78996e-11
1.94288e-08
-4.68696e-12
-2.28476e-12
2.79694e-12
3.26201e-12
1.59308e-08
-1.18943e-11
-1.34351e-11
-5.86991e-09
3.03961e-12
1.51749e-12
2.07056e-12
5.86328e-09
-5.83978e-09
3.04995e-12
2.75782e-12
1.76555e-12
5.83221e-09
-2.21169e-12
-1.72455e-12
-2.42131e-12
-1.76882e-12
1.20863e-11
1.34243e-11
1.59114e-08
8.30746e-12
2.03851e-08
-2.11968e-11
-1.36335e-08
4.2878e-11
1.42028e-12
1.35697e-08
-4.69558e-11
1.49344e-10
1.43807e-10
2.40614e-08
-8.59435e-13
2.09381e-11
2.03721e-08
1.09313e-11
1.93542e-08
-2.09287e-11
-1.97848e-11
-1.32807e-08
1.09194e-11
1.0801e-12
1.32668e-08
4.02857e-12
-2.22819e-11
-1.06611e-11
-2.0709e-11
-2.31472e-08
4.0511e-11
3.18202e-11
2.31179e-08
-1.09558e-12
2.00242e-11
1.93378e-08
-4.06019e-11
-3.21065e-11
-5.17619e-11
5.87112e-11
1.51007e-12
5.83108e-09
2.45513e-10
1.59232e-08
-6.35929e-11
1.00493e-12
1.34596e-08
-1.54132e-10
5.40742e-11
2.34743e-08
2.00955e-08
-9.36667e-13
-1.20633e-11
1.04091e-08
1.57201e-12
-1.17616e-12
-1.26517e-08
-1.03249e-12
9.1594e-13
1.26359e-08
-1.95242e-08
-1.27891e-11
-6.55765e-12
4.17001e-11
1.94973e-08
1.49411e-11
4.39274e-12
-4.98034e-11
-1.22213e-12
6.50222e-12
-4.10439e-11
-1.67638e-12
9.82399e-13
1.0396e-08
-3.02586e-12
5.76464e-09
-2.65538e-12
-2.12849e-08
-3.52364e-12
2.61322e-11
2.12589e-08
-3.07039e-12
-1.21645e-11
-1.72225e-12
-2.55367e-11
2.31456e-12
5.75713e-09
-1.27062e-11
-6.71446e-12
4.17134e-11
1.95065e-08
-1.13102e-12
4.30164e-14
9.03808e-13
1.2639e-08
-1.7961e-12
9.34595e-13
1.04017e-08
-3.22941e-12
2.58702e-11
2.12708e-08
2.27197e-12
5.76078e-09
-1.03754e-12
9.16614e-13
1.26362e-08
-1.27962e-11
-6.5437e-12
4.17159e-11
1.94982e-08
-1.69062e-12
9.77211e-13
1.03963e-08
-3.52063e-12
2.61486e-11
2.12609e-08
2.30081e-12
5.7574e-09
4.85486e-12
7.95568e-13
1.59345e-08
5.34617e-14
-2.70117e-11
-5.83862e-09
-1.79352e-11
2.31926e-11
1.68059e-12
5.83168e-09
-5.87017e-09
2.31021e-11
-1.93187e-11
2.15865e-12
5.86423e-09
-4.37213e-13
-1.95479e-12
-3.82004e-12
-2.00309e-12
1.14901e-10
-9.58882e-11
1.59207e-08
1.2399e-11
-1.82204e-11
1.9381e-08
-3.73862e-11
-1.32699e-08
-1.33978e-11
6.52792e-13
1.32936e-08
3.98139e-12
-2.18744e-11
-1.10283e-11
-2.35162e-08
-6.326e-11
3.44868e-11
1.15707e-11
2.35514e-08
-1.21508e-12
-3.17122e-11
-4.56458e-11
-1.05668e-10
1.95249e-08
-1.9266e-11
7.35759e-12
2.03656e-08
-4.96702e-12
-1.36419e-08
3.38599e-11
1.3968e-12
1.35926e-08
-1.5282e-11
2.17932e-12
2.89981e-12
-5.84893e-12
-2.37905e-08
2.57048e-11
1.93828e-11
6.41094e-11
2.37017e-08
-2.25645e-11
-2.8811e-11
-1.08321e-12
1.42422e-10
2.01869e-08
-5.14878e-13
-2.10487e-12
-4.07171e-12
-5.49059e-13
1.07339e-08
7.81781e-13
-9.99547e-13
-2.01227e-08
-4.21517e-12
-3.26467e-12
1.45823e-11
2.01136e-08
-1.30532e-08
-5.88573e-13
-5.73967e-15
9.62784e-13
1.30477e-08
2.0488e-12
5.15767e-12
-7.55246e-15
-1.68076e-11
3.1001e-12
-1.40065e-11
-1.16929e-15
-9.20623e-13
-8.86066e-13
9.75094e-13
1.0729e-08
2.00864e-13
5.95273e-09
-2.51478e-12
-2.18795e-08
1.80416e-13
9.83264e-12
2.1868e-08
-1.5917e-12
-4.9628e-12
-1.71099e-12
-9.7549e-12
2.46179e-12
5.94956e-09
-4.09778e-12
-5.55639e-13
1.07394e-08
8.2098e-13
-9.82847e-13
-2.01309e-08
-4.19213e-12
-3.25408e-12
1.47651e-11
2.01215e-08
-1.30561e-08
-5.94902e-13
9.70371e-13
1.30508e-08
2.06098e-12
4.96447e-12
-1.70854e-11
3.1167e-12
-1.43047e-11
-9.16119e-13
-9.10955e-13
9.85863e-13
1.07345e-08
1.46752e-14
5.95605e-09
-2.47657e-12
-2.18881e-08
5.35907e-14
9.74018e-12
2.18769e-08
-1.63503e-12
5.93861e-13
-5.20316e-12
-1.68275e-12
-9.79477e-12
2.49271e-12
5.95271e-09
-2.17993e-12
-1.72961e-10
4.20655e-10
1.18697e-07
2.87352e-10
-4.10006e-10
1.26546e-07
-3.45864e-10
3.68524e-11
1.21437e-07
-3.51477e-10
6.37488e-13
1.31013e-07
3.8675e-10
-8.14958e-12
1.18549e-07
-3.10347e-12
1.26559e-07
1.12844e-11
7.59729e-12
1.20668e-07
-8.24258e-13
1.30338e-07
-7.21473e-12
1.58708e-13
1.1831e-07
8.01198e-13
1.24447e-07
2.29112e-11
-3.9399e-10
1.1899e-07
-3.59345e-10
1.3126e-07
-1.70966e-11
6.74041e-12
1.18331e-07
6.46595e-12
1.2441e-07
-2.03005e-11
1.18194e-07
1.30439e-07
7.03255e-11
-1.84187e-11
2.61616e-08
-2.38401e-08
7.10304e-11
-1.49738e-11
2.38151e-08
-2.70627e-08
-1.84302e-11
-7.15099e-12
2.70481e-08
1.08154e-11
-9.25867e-11
3.73185e-14
7.04832e-12
2.57421e-11
2.60895e-08
4.41441e-11
2.34597e-08
3.91638e-11
2.49823e-08
2.62117e-08
-6.10858e-12
1.07827e-11
2.65685e-08
-5.35429e-11
-2.75837e-08
-5.94805e-12
-4.79113e-13
2.76138e-08
-2.43938e-08
1.10379e-11
-6.29869e-12
2.4399e-08
-1.76691e-11
5.16938e-12
-3.04269e-14
5.8673e-14
6.11641e-12
5.38575e-11
2.65232e-08
2.21902e-11
5.53302e-12
2.65619e-08
-2.39856e-08
3.59545e-12
2.39948e-08
-2.1859e-12
-9.60911e-12
-2.53517e-08
2.23968e-11
2.53236e-08
2.66463e-08
-1.775e-11
-1.99197e-11
2.32416e-08
4.95765e-11
3.31742e-11
-2.60751e-08
-1.63391e-11
2.60633e-08
-2.50213e-08
-1.93849e-11
2.50246e-08
2.32476e-08
2.32322e-08
-1.45486e-11
-2.27032e-11
4.11137e-11
4.02883e-11
-1.53208e-11
-2.61806e-08
2.62075e-08
-2.13763e-11
-2.49156e-08
2.49097e-08
2.32364e-08
3.08197e-10
2.36263e-08
1.65689e-10
2.51723e-08
2.63674e-08
7.06276e-11
-1.8195e-11
2.61604e-08
-2.5566e-11
-2.38382e-08
7.1103e-11
-1.50373e-11
2.38134e-08
-2.70618e-08
-1.85767e-11
-6.96351e-12
2.70469e-08
1.07175e-11
-9.28921e-11
8.66988e-14
1.47703e-11
7.21635e-12
2.19719e-11
2.60934e-08
4.51183e-11
3.7537e-11
2.61574e-08
-2.34725e-08
4.38523e-11
2.34563e-08
-1.7073e-11
-2.34343e-11
-2.49718e-08
3.73748e-11
2.49324e-08
2.62044e-08
-2.18572e-11
7.06528e-11
2.61603e-08
2.97247e-11
-2.70588e-08
-2.13175e-11
2.70334e-08
-2.38308e-08
6.99108e-11
-1.75993e-11
2.38096e-08
-9.28934e-11
1.08324e-11
1.80726e-11
-2.90283e-11
2.61583e-08
4.43296e-11
2.61303e-08
4.05688e-11
-2.34625e-08
4.34633e-11
2.34441e-08
-1.71989e-11
-2.34544e-11
4.03556e-11
-2.49781e-08
2.49422e-08
2.61487e-08
-2.18105e-11
7.03767e-11
2.61611e-08
2.98713e-11
-2.70595e-08
-2.13476e-11
2.70339e-08
-2.38322e-08
6.95595e-11
-1.74908e-11
2.38112e-08
-9.29257e-11
1.08487e-11
1.80878e-11
-2.906e-11
2.61588e-08
4.06718e-11
4.40444e-11
2.61345e-08
-2.34652e-08
4.32449e-11
2.34471e-08
-2.35522e-11
-1.72207e-11
-2.50329e-08
4.00012e-11
2.49913e-08
2.61523e-08
-2.1438e-11
-1.60311e-11
2.32251e-08
3.39795e-11
4.86665e-11
-2.6012e-08
-6.36474e-11
2.60175e-08
-2.50619e-08
2.41816e-11
2.5055e-08
2.32223e-08
-5.96459e-12
1.08165e-11
2.65729e-08
-5.38998e-11
-2.7587e-08
-5.83821e-12
2.7616e-08
-2.43995e-08
1.09961e-11
-6.35333e-12
2.4405e-08
-1.76737e-11
5.14463e-12
6.06168e-12
5.38432e-11
2.65279e-08
2.18642e-11
5.56672e-12
2.65636e-08
-2.39903e-08
3.47371e-12
2.39996e-08
-1.8911e-12
-9.60063e-12
-2.52989e-08
2.25865e-11
2.52769e-08
2.66483e-08
1.21159e-12
2.49016e-13
-1.4154e-13
2.48824e-09
5.32182e-13
1.70606e-13
-1.148e-13
1.35071e-09
1.9132e-13
9.84905e-14
-6.93983e-14
6.67447e-10
4.04979e-14
4.46318e-14
-3.35807e-14
2.77007e-10
1.09264e-14
-9.90935e-15
6.5918e-11
7.68815e-13
-1.4157e-13
-2.48598e-09
2.29959e-13
2.48662e-09
3.50019e-13
-7.1412e-14
-1.34961e-09
1.26053e-13
1.34997e-09
1.31083e-13
-3.28693e-14
-6.66889e-10
6.27339e-14
6.6708e-10
2.95968e-14
-1.22627e-14
-2.76728e-10
2.63126e-14
2.76817e-10
-2.39187e-15
-6.5834e-11
6.39709e-15
6.58608e-11
9.5345e-13
5.76467e-14
-4.63682e-09
-3.24747e-14
4.6377e-09
4.23295e-13
1.85045e-14
-2.50292e-09
-1.59926e-14
2.50345e-09
1.55738e-13
4.64651e-15
-1.23164e-09
-4.01194e-15
1.23191e-09
3.4575e-14
-1.2342e-16
-5.09556e-10
8.50282e-17
5.09679e-10
-7.6357e-16
-1.20999e-10
2.26615e-16
1.21035e-10
1.56616e-12
2.5722e-13
4.64128e-09
6.81393e-13
1.658e-13
2.5052e-09
2.4885e-13
9.0129e-14
1.23267e-09
5.60043e-14
3.95047e-14
5.09981e-10
1.00007e-14
1.21151e-10
1.02875e-12
-4.63779e-09
-1.25068e-13
4.63875e-09
4.58553e-13
-2.50343e-09
-7.50238e-14
2.504e-09
1.7026e-13
-1.23188e-09
-3.7826e-14
1.23217e-09
3.88766e-14
-5.09606e-10
-1.53511e-14
5.09739e-10
-1.21003e-10
-3.45216e-15
1.21042e-10
9.57564e-13
1.37385e-13
-1.13533e-13
4.63897e-09
4.17603e-13
6.60171e-14
-7.08828e-14
2.50421e-09
1.52477e-13
2.69148e-14
-3.19747e-14
1.23229e-09
3.43929e-14
8.26668e-15
-1.08614e-14
5.0981e-10
1.03359e-15
-1.89954e-15
1.21087e-10
7.70166e-13
-2.48528e-09
1.52451e-13
2.48592e-09
3.52155e-13
-1.34931e-09
7.65272e-14
1.34968e-09
1.33119e-13
-6.66709e-10
3.64878e-14
6.66898e-10
3.07163e-14
-2.76679e-10
1.54055e-14
2.76768e-10
-6.58105e-11
4.08432e-15
6.58373e-11
7.63598e-13
2.28118e-13
2.48663e-09
3.48567e-13
1.21567e-13
1.35005e-09
1.31537e-13
5.81462e-14
6.67129e-10
3.03503e-14
2.35054e-14
2.76863e-10
5.57508e-15
6.58739e-11
7.69065e-13
-6.93399e-14
1.65634e-13
2.48626e-09
3.50645e-13
-2.65098e-14
8.58098e-14
1.34975e-09
1.31507e-13
-8.96105e-15
4.16726e-14
6.66944e-10
2.98704e-14
-2.14611e-15
1.76439e-14
2.76791e-10
1.11387e-16
4.63423e-15
6.58652e-11
9.96317e-13
-9.78566e-15
5.61898e-14
-4.63893e-09
4.63989e-09
4.39859e-13
-3.21865e-14
4.11572e-14
-2.50398e-09
2.50453e-09
1.63499e-13
-2.38725e-14
2.12039e-14
-1.23219e-09
1.23247e-09
3.75689e-14
-1.25686e-14
8.45063e-15
-5.09752e-10
5.09883e-10
-3.81081e-15
1.90452e-15
-1.21061e-10
1.21101e-10
7.57389e-13
-2.48614e-09
7.30051e-14
2.48682e-09
3.4604e-13
-1.34976e-09
2.1547e-14
1.35012e-09
1.32405e-13
-6.66945e-10
5.18298e-15
6.67131e-10
3.13048e-14
-2.76759e-10
9.21581e-16
2.76848e-10
-6.58407e-11
3.48104e-17
6.58685e-11
7.75764e-13
2.96669e-14
-2.48661e-09
6.24604e-14
2.48729e-09
3.54949e-13
4.6749e-14
-1.35e-09
1.34105e-14
1.35036e-09
1.35851e-13
3.31153e-14
-6.67065e-10
2.22749e-16
6.67252e-10
3.19347e-14
1.72232e-14
-2.76828e-10
-1.19071e-15
2.76917e-10
5.16805e-15
-6.58499e-11
-4.98068e-16
6.58778e-11
1.00858e-12
-2.24043e-14
4.63847e-09
4.47475e-13
-9.36519e-15
2.5038e-09
1.64349e-13
-2.8349e-15
1.23208e-09
3.64057e-14
-5.63419e-16
5.09745e-10
-1.60699e-16
1.2105e-10
9.84374e-13
6.88563e-14
-4.63893e-09
4.63987e-09
4.3694e-13
5.24167e-14
-2.50413e-09
2.50467e-09
1.63687e-13
3.14894e-14
-1.23215e-09
1.23243e-09
3.81352e-14
1.48938e-14
-5.09754e-10
5.09881e-10
3.94195e-15
-1.21031e-10
1.2107e-10
-6.859e-13
-6.19836e-14
2.88192e-09
1.19356e-13
-3.26678e-13
-3.29922e-14
1.56081e-09
5.67385e-14
-1.28064e-13
-1.75213e-14
7.699e-10
2.90306e-14
-3.10676e-14
-8.39717e-15
3.19062e-10
1.33066e-14
-2.57779e-15
7.58508e-11
3.6137e-15
4.92094e-13
-3.14811e-09
-1.39723e-13
1.41314e-14
3.14865e-09
2.21775e-13
-1.70269e-09
-8.09178e-14
7.6921e-15
1.70304e-09
8.09251e-14
-8.39119e-10
-4.22503e-14
3.33403e-15
8.39302e-10
1.74345e-14
-3.47514e-10
-1.84293e-14
9.77724e-16
3.47597e-10
-8.25928e-11
-4.59329e-15
-2.55652e-17
8.26166e-11
-6.72397e-13
1.43861e-14
-3.16785e-13
8.84741e-15
-1.21493e-13
4.73707e-15
-2.80689e-14
2.15518e-15
5.68169e-16
5.18026e-13
-2.49075e-13
2.88244e-09
2.3862e-13
-1.38308e-13
1.56115e-09
8.97445e-14
-7.18791e-14
7.7008e-10
2.05748e-14
-3.15212e-14
3.19144e-10
-7.8994e-15
7.5875e-11
-8.86481e-13
-3.82614e-14
-7.75556e-14
-4.15499e-13
-4.78397e-14
-2.39284e-14
-1.60648e-13
-3.33052e-14
-6.78186e-15
-3.7885e-14
-1.71595e-14
-1.99793e-15
-4.90666e-15
-7.85546e-16
-1.31444e-12
-3.71495e-14
-2.74035e-14
-6.01402e-13
-5.51934e-15
-2.70144e-14
-2.27192e-13
5.23965e-15
-1.86991e-14
-5.19783e-14
5.37724e-15
-9.72457e-15
2.34495e-15
-2.72184e-15
5.43141e-13
-2.47095e-09
-3.70256e-14
2.47148e-09
2.47823e-13
-1.34123e-09
-1.46345e-14
1.34153e-09
9.34225e-14
-6.62676e-10
-5.25008e-15
6.62833e-10
2.17896e-14
-2.74926e-10
-1.46032e-15
2.74999e-10
-6.53966e-11
-8.21538e-17
6.54182e-11
-5.91977e-13
8.4231e-15
-2.79629e-13
-7.30896e-15
-1.09378e-13
-7.78249e-15
-2.64348e-14
-4.5281e-15
-1.42188e-15
5.3637e-13
-2.4706e-09
4.66455e-14
2.47115e-09
2.44479e-13
-1.34105e-09
4.19239e-14
1.34135e-09
9.25032e-14
-6.6257e-10
2.63261e-14
6.62728e-10
2.15411e-14
-2.74888e-10
1.27648e-14
2.74963e-10
-6.53878e-11
3.57543e-15
6.54104e-11
-5.79242e-13
1.08167e-13
-8.72287e-14
-2.70869e-13
6.51418e-14
-5.65726e-14
-1.0545e-13
3.42093e-14
-3.05653e-14
-2.53595e-14
1.4641e-14
-1.35339e-14
3.40115e-15
-3.52127e-15
-1.19687e-12
-4.97242e-14
-5.48723e-13
-4.04799e-14
-2.09852e-13
-2.61265e-14
-4.92817e-14
-1.28076e-14
-3.34371e-15
5.80488e-13
1.07987e-13
4.44047e-09
2.11105e-13
6.30799e-14
2.39854e-09
6.90341e-14
3.21274e-14
1.18099e-09
1.53435e-14
1.2915e-14
4.88752e-10
2.82487e-15
1.16115e-10
4.74461e-13
2.47185e-09
1.99861e-13
1.34165e-09
7.11085e-14
6.62875e-10
1.59777e-14
2.75035e-10
6.54337e-11
-6.48599e-13
-9.90273e-14
2.88068e-09
1.74955e-13
-3.04533e-13
-5.61362e-14
1.56013e-09
9.09898e-14
-1.16419e-13
-2.93838e-14
7.69527e-10
4.74097e-14
-2.65256e-14
-1.28977e-14
3.18931e-10
2.13365e-14
-3.05317e-15
7.58195e-11
5.61734e-15
5.0532e-13
-3.14739e-09
-1.117e-13
3.14793e-09
2.31733e-13
-1.70231e-09
-6.49207e-14
1.70265e-09
8.71653e-14
-8.38931e-10
-3.58197e-14
8.39115e-10
2.02745e-14
-3.47436e-10
-1.6334e-14
3.4752e-10
-8.25744e-11
-4.25643e-15
8.25986e-11
-6.74766e-13
-3.21655e-13
-1.25713e-13
-2.97675e-14
5.44482e-13
-1.92828e-13
2.8812e-09
2.49326e-13
-1.04705e-13
1.56047e-09
9.21363e-14
-5.49868e-14
7.69707e-10
2.09831e-14
-2.48406e-14
3.19013e-10
-6.65615e-15
7.58435e-11
-8.92629e-13
-1.51888e-13
-4.19666e-13
-7.28405e-14
-1.62073e-13
-3.38223e-14
-3.77276e-14
-1.37285e-14
-3.19802e-15
4.94924e-13
-1.4126e-13
1.3768e-14
3.14879e-09
2.2421e-13
-8.14871e-14
7.6287e-15
1.7031e-09
8.2568e-14
-4.24095e-14
3.66676e-15
8.39207e-10
1.82306e-14
-1.84829e-14
1.35053e-15
3.47648e-10
-4.60597e-15
2.02656e-16
8.26003e-11
5.21282e-13
-2.50036e-13
2.88245e-09
2.40319e-13
-1.37723e-13
1.56109e-09
9.03528e-14
-7.08282e-14
7.7001e-10
2.05786e-14
-3.07715e-14
3.19151e-10
-7.6515e-15
7.58588e-11
5.05597e-13
-1.13795e-13
3.1479e-09
2.31583e-13
-6.62072e-14
1.70269e-09
8.69795e-14
-3.55383e-14
8.39046e-10
2.00997e-14
-1.62596e-14
3.47532e-10
-4.40115e-15
8.25814e-11
5.41976e-13
-1.99019e-13
2.8811e-09
2.48416e-13
-1.0853e-13
1.56042e-09
9.25562e-14
-5.67349e-14
7.69672e-10
2.08388e-14
-2.54109e-14
3.1899e-10
-6.63873e-15
7.58281e-11
1.17442e-12
-4.83117e-14
9.41912e-14
-4.43962e-09
4.44056e-09
5.42419e-13
-3.21585e-14
5.63099e-14
-2.39818e-09
2.39879e-09
2.04489e-13
-1.8342e-14
3.28864e-14
-1.1807e-09
1.18102e-09
4.65059e-14
-8.02731e-15
1.6231e-14
-4.88619e-10
4.88769e-10
-1.92755e-15
4.78367e-15
-1.16081e-10
1.16125e-10
7.00762e-13
-2.47127e-09
2.47197e-09
3.18626e-13
-1.34131e-09
1.3417e-09
1.1896e-13
-6.62698e-10
6.62902e-10
2.67893e-14
-2.74944e-10
2.75038e-10
-6.54216e-11
6.54486e-11
-5.75232e-13
1.30059e-13
-6.22178e-14
-2.73409e-13
8.04004e-14
-4.28657e-14
-1.07483e-13
4.40547e-14
-2.43609e-14
-2.60235e-14
1.96784e-14
-1.12932e-14
4.87275e-15
-2.95256e-15
-1.064e-12
8.98529e-14
-4.79926e-13
7.65861e-14
-1.83003e-13
4.67806e-14
-4.32808e-14
2.25783e-14
6.33793e-15
-4.96244e-13
-9.16338e-14
2.87765e-09
1.39921e-13
-2.28466e-13
-5.47443e-14
1.55854e-09
7.54429e-14
-9.03569e-14
-3.20612e-14
7.68756e-10
4.30047e-14
-2.28014e-14
-1.5802e-14
3.18609e-10
2.09902e-14
-4.52887e-15
7.5735e-11
5.84995e-15
4.34488e-13
-3.14308e-09
-8.16274e-14
-3.83742e-15
3.14369e-09
1.88363e-13
-1.70009e-09
-4.29859e-14
-3.30165e-15
1.70039e-09
7.14676e-14
-8.37865e-10
-2.34976e-14
-2.20788e-15
8.38009e-10
1.73764e-14
-3.46995e-10
-1.12371e-14
-1.15832e-15
3.47063e-10
-8.24607e-11
-3.09139e-15
-4.17517e-16
8.24821e-11
-4.28715e-13
-1.06254e-15
-1.91095e-13
-9.48616e-16
-7.45718e-14
-5.44817e-16
-1.8589e-14
-9.35156e-17
1.39376e-16
4.75935e-13
-1.58941e-13
2.87823e-09
2.15119e-13
-7.82961e-14
1.55884e-09
8.3165e-14
-4.08865e-14
7.68908e-10
2.05634e-14
-1.90725e-14
3.18681e-10
-5.2041e-15
7.57581e-11
-8.59033e-13
-5.11629e-14
-4.00369e-13
-1.01812e-14
-1.56377e-13
-1.64078e-15
-3.77258e-14
-8.00541e-16
-6.33154e-16
-4.85453e-13
-8.89592e-14
2.87909e-09
1.4436e-13
-2.22752e-13
-5.19736e-14
1.55927e-09
7.87258e-14
-8.80784e-14
-2.97802e-14
7.69119e-10
4.50946e-14
-2.23071e-14
-1.43766e-14
3.18782e-10
2.22203e-14
-3.90302e-15
7.57681e-11
6.41779e-15
4.38247e-13
-3.14395e-09
-8.61425e-14
3.14457e-09
1.90074e-13
-1.70049e-09
-4.70441e-14
1.70079e-09
7.21057e-14
-8.38024e-10
-2.60146e-14
8.38169e-10
1.76329e-14
-3.4711e-10
-1.23198e-14
3.47178e-10
-8.2479e-11
-3.28395e-15
8.25011e-11
-4.25286e-13
-1.89622e-13
-7.44746e-14
-1.91241e-14
4.8107e-13
-1.61023e-13
2.87967e-09
2.17118e-13
-8.03543e-14
1.55956e-09
8.35086e-14
-4.25558e-14
7.69269e-10
2.0124e-14
-2.00581e-14
3.18853e-10
-5.55995e-15
7.57908e-11
-8.4416e-13
-5.65328e-14
-6.89309e-14
-3.93078e-13
-5.3101e-14
-2.45575e-14
-1.53219e-13
-3.28961e-14
-1.07481e-14
-3.68492e-14
-1.60184e-14
-4.94302e-15
-4.56759e-15
-1.5787e-15
-1.10934e-12
-5.01611e-13
-1.90735e-13
-4.45337e-14
9.18428e-13
-3.6008e-14
-4.43896e-09
4.43986e-09
4.02812e-13
-2.45156e-14
-2.39806e-09
2.39858e-09
1.47117e-13
-1.35737e-14
-1.18061e-09
1.18087e-09
3.26393e-14
-6.03612e-15
-4.88626e-10
4.88747e-10
-1.49319e-15
-1.16059e-10
1.16094e-10
9.20375e-13
-4.43954e-09
4.44046e-09
4.05752e-13
-2.39826e-09
2.39879e-09
1.50112e-13
-1.18079e-09
1.18105e-09
3.41564e-14
-4.88672e-10
4.88792e-10
-1.16067e-10
1.16102e-10
2.30088e-12
4.61903e-09
1.08767e-12
2.49268e-09
4.1336e-13
1.22631e-09
9.30677e-14
5.07308e-10
1.20483e-10
-1.42779e-12
4.60872e-09
-6.61461e-13
2.48704e-09
-2.53161e-13
1.22356e-09
-5.86564e-14
5.06113e-10
1.20188e-10
1.17805e-12
4.60978e-09
5.31407e-13
2.48768e-09
1.98416e-13
1.22388e-09
4.48646e-14
5.06262e-10
1.20232e-10
7.78563e-13
6.87138e-14
-4.43866e-09
4.4396e-09
3.23665e-13
2.98356e-14
-2.39767e-09
2.39816e-09
1.14498e-13
1.30601e-14
-1.18046e-09
1.18069e-09
2.49529e-14
4.63498e-15
-4.88541e-10
4.88643e-10
7.48904e-16
-1.16049e-10
1.16079e-10
3.44324e-13
-2.47007e-09
2.47042e-09
1.582e-13
-1.34072e-09
1.34092e-09
6.17019e-14
-6.62419e-10
6.62525e-10
1.55223e-14
-2.74841e-10
2.74892e-10
-6.53837e-11
6.54003e-11
-6.10512e-13
-2.66668e-14
-2.82841e-13
-3.07611e-14
-1.09322e-13
-2.14397e-14
-2.60284e-14
-1.09605e-14
-3.18938e-15
-1.06043e-12
4.7682e-14
-4.83251e-13
2.46602e-14
-1.83721e-13
1.1484e-14
-4.28779e-14
4.44328e-15
9.30268e-16
-1.0537e-12
-4.80419e-13
-1.83025e-13
-4.25572e-14
9.26772e-13
-1.74092e-13
1.40751e-13
-4.43943e-09
4.4406e-09
3.90264e-13
-1.15377e-13
8.20965e-14
-2.39812e-09
2.39869e-09
1.42391e-13
-6.4899e-14
4.23042e-14
-1.18069e-09
1.18096e-09
3.28926e-14
-2.88869e-14
1.7509e-14
-4.88681e-10
4.888e-10
-7.20922e-15
4.05282e-15
-1.16054e-10
1.16088e-10
6.55505e-13
-2.47163e-09
2.47248e-09
2.88064e-13
-1.34149e-09
1.34191e-09
1.06424e-13
-6.62772e-10
6.6298e-10
2.40262e-14
-2.74985e-10
2.75079e-10
-6.54212e-11
6.54483e-11
-4.5764e-13
2.74383e-14
-2.19051e-13
2.37599e-14
-8.75153e-14
1.95157e-14
-2.17676e-14
1.11972e-14
3.21127e-15
9.09989e-13
1.47826e-13
-4.43953e-09
4.44038e-09
4.08674e-13
8.46623e-14
-2.39802e-09
2.39852e-09
1.53722e-13
4.18204e-14
-1.18069e-09
1.18094e-09
3.57787e-14
1.67993e-14
-4.88684e-10
4.88801e-10
3.77214e-15
-1.16062e-10
1.16097e-10
5.61198e-13
-2.47047e-09
2.47101e-09
2.56842e-13
-1.34086e-09
1.34118e-09
9.65375e-14
-6.62492e-10
6.62657e-10
2.20864e-14
-2.74877e-10
2.74954e-10
-6.53825e-11
6.54051e-11
-5.76848e-13
-9.94535e-15
-2.73091e-13
-2.38424e-14
-1.0686e-13
-1.94403e-14
-2.57162e-14
-1.0535e-14
-2.91532e-15
-8.98883e-13
-2.23883e-15
-4.10438e-13
1.09245e-14
-1.57701e-13
1.16102e-14
-3.73305e-14
6.99112e-15
2.1477e-15
-9.199e-13
-4.21246e-13
-1.63036e-13
-3.93695e-14
-1.41388e-12
4.60631e-09
-6.56858e-13
2.48584e-09
-2.52998e-13
1.22289e-09
-5.9417e-14
5.05894e-10
1.20112e-10
1.20779e-12
4.60738e-09
5.46858e-13
2.48648e-09
2.04718e-13
1.22322e-09
4.62883e-14
5.06042e-10
1.20156e-10
1.18022e-12
4.60975e-09
5.31736e-13
2.48767e-09
1.98028e-13
1.22389e-09
4.45902e-14
5.06302e-10
1.2023e-10
1.19988e-12
4.60764e-09
5.42557e-13
2.48648e-09
2.02802e-13
1.22324e-09
4.5735e-14
5.06025e-10
1.20179e-10
-9.99301e-13
-3.47675e-14
-4.48077e-13
-2.94074e-14
-1.68105e-13
-1.74978e-14
-3.86392e-14
-7.96234e-15
-2.04724e-15
-1.04515e-12
-4.77476e-13
-1.83116e-13
-4.33807e-14
-1.28506e-12
4.61614e-09
-5.9085e-13
2.49092e-09
-2.28536e-13
1.22534e-09
-5.42965e-14
5.06874e-10
1.20364e-10
1.24675e-12
4.61727e-09
5.68221e-13
2.49155e-09
2.18003e-13
1.22565e-09
5.17159e-14
5.07023e-10
1.20411e-10
-1.26051e-12
4.61841e-09
-5.7892e-13
2.49216e-09
-2.24715e-13
1.22604e-09
-5.40528e-14
5.07157e-10
1.20421e-10
1.26146e-12
4.61955e-09
5.75461e-13
2.49279e-09
2.20812e-13
1.22635e-09
5.25308e-14
5.07306e-10
1.20467e-10
2.34787e-11
8.99287e-12
7.04525e-09
-4.83957e-13
-5.23321e-12
-1.68388e-12
7.0373e-09
-2.02921e-12
3.33773e-11
-1.46361e-10
3.98907e-11
1.87655e-10
2.74044e-08
-1.78062e-11
9.64981e-11
4.51638e-11
2.24297e-08
-1.06729e-11
4.50559e-12
-2.27134e-11
2.22349e-08
-5.0039e-11
6.87414e-14
4.42599e-12
1.58617e-11
2.05613e-08
-1.24288e-11
-3.03467e-12
1.39964e-08
-1.78524e-12
2.56719e-13
1.08953e-11
-9.2121e-11
2.45915e-08
-2.93232e-10
-1.59894e-09
2.92002e-11
4.77614e-10
5.63763e-11
3.0504e-10
5.76452e-11
1.13433e-07
1.53221e-10
2.15679e-10
-1.72163e-11
-2.3249e-11
2.15857e-08
2.03982e-10
-3.8722e-09
6.04636e-10
1.32723e-10
9.71656e-11
7.00396e-10
1.17935e-07
-5.00541e-11
1.58783e-11
4.51624e-12
2.05581e-08
-1.25446e-11
1.86234e-12
-3.29239e-12
1.3992e-08
-1.78032e-12
-9.21033e-11
1.10056e-11
2.45887e-08
-7.7789e-10
-3.16556e-11
-1.85544e-09
4.81745e-10
6.83668e-11
3.74082e-11
2.93267e-10
4.26617e-10
-3.19912e-12
2.52405e-10
1.15039e-07
-3.72527e-09
6.11861e-10
1.32091e-10
7.96565e-11
7.00627e-10
1.18753e-07
7.62844e-12
-1.76043e-11
-2.57855e-11
2.15771e-08
-2.85517e-11
-1.85663e-09
4.82798e-10
5.55584e-11
3.65577e-11
3.06817e-10
4.22351e-10
2.3587e-11
2.2903e-10
1.15023e-07
-7.7182e-10
1.25542e-11
1.10371e-11
-1.73825e-11
-2.32818e-11
2.15838e-08
1.82894e-12
-3.26783e-12
1.39939e-08
-1.79508e-12
-5.01588e-12
7.03576e-09
-2.12595e-12
3.92774e-11
2.73772e-08
8.23678e-11
-5.09658e-12
-3.69628e-11
-5.04843e-11
2.23619e-08
3.13093e-12
-8.96062e-12
4.55725e-11
1.33922e-11
2.25856e-08
-5.99051e-13
7.18074e-09
-2.13916e-12
1.00337e-13
-1.31774e-11
3.9638e-11
4.63826e-13
2.52129e-08
-5.04618e-10
-1.19886e-09
4.24961e-10
3.98926e-11
1.69447e-10
3.0431e-10
8.48012e-12
-4.08188e-12
2.39499e-10
1.14499e-07
-1.93754e-10
-7.44673e-10
2.06376e-10
-9.74133e-11
-4.47898e-11
9.83737e-11
1.15663e-07
4.91674e-12
-9.50089e-12
9.87323e-13
2.19758e-08
-1.28941e-11
3.96457e-11
2.68263e-13
2.52159e-08
-4.68587e-10
-4.30616e-11
-1.18439e-09
2.98488e-10
2.4114e-11
-3.75779e-12
2.25678e-10
4.29078e-10
1.40787e-11
1.92641e-10
1.14494e-07
-7.34231e-10
2.01296e-10
-9.76577e-11
-4.52747e-11
9.84877e-11
1.15243e-07
5.28137e-12
5.74708e-12
-9.5132e-12
-1.90455e-12
2.19742e-08
3.38758e-16
-2.77216e-13
-4.54174e-12
2.11977e-08
-1.83101e-12
1.43208e-08
-1.7447e-12
-2.72693e-13
-4.73352e-12
2.12015e-08
6.69793e-13
-1.77872e-12
1.43229e-08
-1.68375e-12
2.73767e-08
4.92633e-11
3.26146e-11
5.28087e-12
4.36431e-12
-2.29681e-11
2.24075e-08
3.25313e-12
2.24302e-12
-1.51349e-11
2.25444e-08
7.03729e-09
-2.07452e-12
7.18057e-09
-2.02388e-12
1.4821e-11
1.0971e-11
5.83831e-09
-8.20071e-13
-3.50428e-12
-2.6774e-12
5.84005e-09
-1.66375e-12
7.5062e-12
-1.38402e-11
1.5929e-08
5.169e-11
1.35117e-08
-4.74193e-13
-7.9684e-11
1.86033e-10
2.39399e-08
1.11674e-10
5.78727e-11
2.02938e-08
-1.11082e-11
1.32809e-08
-1.19354e-12
2.09673e-11
-4.00046e-11
-3.26477e-11
2.31469e-08
-2.03305e-11
1.93541e-08
-1.0415e-08
-4.95354e-11
-1.98527e-12
4.47858e-12
1.04616e-08
4.20167e-13
1.28048e-11
1.95318e-08
6.32237e-12
-4.10121e-11
9.72873e-13
1.2655e-08
4.51631e-14
-1.30474e-12
1.20983e-11
5.9097e-11
3.0874e-14
-1.88264e-10
2.06783e-08
1.54011e-12
-1.2981e-12
1.84521e-11
-1.63609e-10
1.96395e-08
3.39173e-14
1.27117e-08
4.17597e-13
-5.76808e-09
-2.28936e-11
5.79457e-09
8.72251e-13
3.7173e-12
2.1295e-08
-2.58858e-11
-6.68704e-12
-6.80454e-11
9.35539e-12
1.40608e-08
1.02908e-12
-2.3476e-12
-1.17882e-10
2.14017e-08
-1.04095e-08
-2.07506e-12
-4.98284e-11
4.62394e-12
1.04563e-08
4.71474e-13
1.07802e-12
1.2652e-08
-1.3017e-12
1.29225e-11
1.95236e-08
6.5427e-12
-4.12665e-11
5.92932e-11
1.21924e-11
-1.88226e-10
2.06749e-08
1.68841e-12
-1.23888e-12
1.27089e-08
4.25006e-13
1.86803e-11
-1.63821e-10
1.96311e-08
-5.76473e-09
-2.27955e-11
5.79123e-09
9.19917e-13
3.60694e-12
2.12844e-08
-2.58319e-11
-6.92126e-12
9.54258e-12
-6.80257e-11
1.40564e-08
1.04604e-12
-2.30522e-12
-1.18097e-10
2.13915e-08
-5.765e-09
-2.27503e-11
-4.64146e-12
5.79149e-09
8.99766e-13
3.5967e-12
2.12864e-08
-2.57987e-11
-6.54713e-12