/*--------------------------------*- C++ -*----------------------------------*\
| =========                 |                                                 |
| \\      /  F ield         | OpenFOAM: The Open Source CFD Toolbox           |
|  \\    /   O peration     | Version:  2206                                  |
|   \\  /    A nd           | Website:  www.openfoam.com                      |
|    \\/     M anipulation  |                                                 |
\*---------------------------------------------------------------------------*/
FoamFile
{
    version     2.0;
    format      ascii;
    arch        "LSB;label=32;scalar=64";
    class       volScalarField;
    location    "90";
    object      k;
}
// * * * * * * * * * * * * * * * * * * * * * * * * * * * * * * * * * * * * * //

dimensions      [0 2 -2 0 0 0 0];

internalField   nonuniform List<scalar> 
66928
(
5.1745e-05
5.08484e-05
5.12062e-05
5.20848e-05
5.228e-05
5.04817e-05
5.25127e-05
5.2409e-05
3.39063e-05
3.33795e-05
1.07072e-05
1.05829e-05
2.79943e-05
2.76087e-05
1.69944e-05
4.77416e-05
1.67275e-05
4.57338e-05
4.75757e-05
4.22249e-05
5.74467e-05
1.69863e-05
4.62894e-05
4.24308e-05
4.76963e-05
5.60779e-05
1.07259e-05
2.77594e-05
2.76036e-05
1.07038e-05
4.76001e-05
1.67925e-05
1.07475e-05
1.07101e-05
1.06134e-05
1.05907e-05
2.81181e-05
2.75803e-05
5.18945e-05
2.78005e-05
2.73279e-05
1.08008e-05
1.0813e-05
1.07657e-05
1.07347e-05
5.13123e-05
2.77517e-05
2.78682e-05
2.82083e-05
2.78969e-05
1.07272e-05
4.54184e-05
5.60107e-05
2.79667e-05
1.69103e-05
1.68613e-05
5.51243e-05
4.5603e-05
4.41996e-05
5.45818e-05
2.76357e-05
1.65618e-05
1.65901e-05
5.49656e-05
4.40611e-05
2.07175e-05
9.61574e-06
9.4825e-06
9.52911e-06
9.52041e-06
2.0929e-05
1.69981e-05
2.63283e-05
2.64172e-05
9.90445e-06
2.60993e-05
9.9103e-06
4.1114e-05
1.43463e-05
1.30637e-05
2.63285e-05
1.00495e-05
1.43867e-05
4.20908e-05
1.30547e-05
4.52485e-05
5.62267e-05
2.80861e-05
1.66669e-05
5.6449e-05
1.68077e-05
4.54796e-05
4.60998e-05
5.59683e-05
2.79317e-05
1.69214e-05
1.6829e-05
5.59245e-05
4.61629e-05
2.1278e-05
9.70017e-06
9.7198e-06
9.73e-06
9.74102e-06
2.10941e-05
1.07186e-05
1.68645e-05
2.66151e-05
2.66296e-05
9.99389e-06
1.07354e-05
1.07316e-05
1.06215e-05
1.06413e-05
2.07724e-05
9.61157e-06
9.58219e-06
9.5706e-06
9.60902e-06
2.0924e-05
4.49771e-05
5.60246e-05
1.69183e-05
2.81509e-05
4.50804e-05
1.67786e-05
5.53315e-05
4.43312e-05
5.53532e-05
1.66523e-05
2.73289e-05
4.47758e-05
1.66217e-05
5.52638e-05
2.09522e-05
9.60727e-06
9.59278e-06
2.09834e-05
9.61062e-06
9.54233e-06
4.49737e-05
1.69401e-05
2.81748e-05
5.62018e-05
1.69723e-05
4.50361e-05
5.6374e-05
4.49064e-05
1.66589e-05
2.74952e-05
5.56318e-05
1.66851e-05
4.46925e-05
5.55564e-05
1.07842e-05
1.07626e-05
1.07832e-05
1.07298e-05
2.08994e-05
9.61985e-06
9.61896e-06
2.10051e-05
9.6092e-06
9.60504e-06
4.56022e-05
5.64726e-05
2.80011e-05
1.6842e-05
1.70697e-05
5.659e-05
4.57733e-05
4.4833e-05
5.57682e-05
2.80221e-05
1.66778e-05
1.65943e-05
5.5844e-05
4.50012e-05
4.55517e-05
1.69304e-05
5.63895e-05
2.8209e-05
4.4951e-05
1.6835e-05
5.63152e-05
4.48471e-05
1.67253e-05
5.55706e-05
2.76307e-05
4.48929e-05
1.67063e-05
5.49082e-05
2.08349e-05
9.69434e-06
9.5996e-06
9.60734e-06
9.60681e-06
2.11235e-05
5.69903e-05
5.2533e-05
5.74714e-05
5.68855e-05
5.83323e-05
5.78199e-05
5.63053e-05
5.82089e-05
5.16101e-05
5.88636e-05
5.85209e-05
5.89847e-05
5.84172e-05
5.78684e-05
5.62873e-05
5.83228e-05
5.78092e-05
5.25305e-05
5.65141e-05
5.83828e-05
5.76177e-05
5.66193e-05
5.24363e-05
5.83894e-05
5.80943e-05
5.83408e-05
5.8051e-05
5.76681e-05
2.50066e-05
2.45623e-05
5.51864e-05
5.662e-05
4.77038e-05
5.47033e-05
5.707e-05
5.4965e-05
5.51421e-05
5.54484e-05
5.79172e-05
4.70847e-05
5.4475e-05
5.80963e-05
5.45739e-05
5.54263e-05
5.30188e-05
5.75382e-05
5.72452e-05
5.05804e-05
5.62105e-05
5.08752e-05
5.31801e-05
5.56687e-05
5.79417e-05
4.82191e-05
5.5691e-05
5.5806e-05
5.89777e-05
5.49341e-05
5.26577e-05
5.63649e-05
5.12733e-05
5.6702e-05
5.11785e-05
5.73588e-05
5.24434e-05
5.44932e-05
5.7644e-05
4.7074e-05
5.44342e-05
5.74394e-05
5.43457e-05
5.36601e-05
5.73024e-05
5.25436e-05
5.85008e-05
5.75438e-05
5.65557e-05
5.85144e-05
5.77451e-05
5.71385e-05
5.21987e-05
5.84955e-05
5.76929e-05
5.71283e-05
5.82426e-05
5.77273e-05
3.38175e-05
5.2374e-05
5.13656e-05
5.14791e-05
3.37279e-05
5.21846e-05
5.12897e-05
5.21079e-05
3.38444e-05
5.22945e-05
5.10598e-05
5.17041e-05
3.35503e-05
5.22635e-05
5.19512e-05
5.19344e-05
3.28334e-05
5.21445e-05
5.15682e-05
5.2072e-05
3.34024e-05
5.10476e-05
5.0857e-05
5.0707e-05
3.35144e-05
5.10297e-05
5.03982e-05
5.17931e-05
3.3535e-05
5.18652e-05
5.07944e-05
5.19126e-05
3.30311e-05
5.16026e-05
5.05108e-05
5.18697e-05
3.34324e-05
5.19253e-05
5.05946e-05
5.18209e-05
3.327e-05
5.16928e-05
5.01131e-05
5.18921e-05
3.29233e-05
5.1738e-05
5.01399e-05
5.21977e-05
3.315e-05
5.06443e-05
5.08544e-05
5.19695e-05
3.32383e-05
5.16795e-05
5.11674e-05
5.05254e-05
3.27873e-05
5.20347e-05
5.04707e-05
5.20558e-05
3.34049e-05
5.20996e-05
5.14579e-05
5.17884e-05
3.34852e-05
5.20812e-05
5.17826e-05
5.12317e-05
5.10979e-05
5.05494e-05
5.13507e-05
5.09233e-05
5.26072e-05
5.16373e-05
5.20585e-05
5.22958e-05
5.20423e-05
5.23755e-05
5.07674e-05
5.21838e-05
5.18152e-05
5.25144e-05
5.26909e-05
5.09576e-05
5.12354e-05
5.05614e-05
5.12878e-05
5.24819e-05
5.14175e-05
5.14802e-05
5.17449e-05
5.14763e-05
5.11449e-05
5.12522e-05
5.22775e-05
5.18355e-05
5.13959e-05
5.13563e-05
5.10539e-05
5.17203e-05
5.22477e-05
5.18538e-05
5.25633e-05
5.2788e-05
5.05561e-05
5.10534e-05
5.10767e-05
5.21831e-05
5.12576e-05
5.16933e-05
5.08097e-05
5.07416e-05
5.12123e-05
5.12211e-05
5.24349e-05
5.22077e-05
5.13964e-05
5.20215e-05
5.08654e-05
5.21823e-05
5.13091e-05
5.14516e-05
5.20005e-05
5.28024e-05
5.30034e-05
5.11823e-05
5.1926e-05
5.03565e-05
5.20918e-05
5.16372e-05
5.22541e-05
5.05741e-05
5.09395e-05
5.12954e-05
5.05804e-05
5.13344e-05
5.15194e-05
5.14171e-05
5.1491e-05
5.16202e-05
5.25106e-05
5.21348e-05
5.22525e-05
5.19756e-05
5.30591e-05
5.15804e-05
5.11129e-05
5.0884e-05
5.10377e-05
5.20877e-05
5.15165e-05
5.20119e-05
5.1319e-05
5.09702e-05
5.10278e-05
5.09662e-05
5.21168e-05
5.1718e-05
5.18229e-05
5.21019e-05
5.16924e-05
5.20954e-05
5.19211e-05
5.11783e-05
5.17863e-05
5.21592e-05
5.24525e-05
5.02764e-05
5.14716e-05
4.94417e-05
5.11169e-05
5.21208e-05
5.17301e-05
5.0425e-05
5.12417e-05
5.04526e-05
5.13321e-05
5.22456e-05
5.12744e-05
5.17395e-05
5.21526e-05
5.13021e-05
5.17791e-05
5.18579e-05
5.13257e-05
5.1892e-05
5.23532e-05
5.23908e-05
4.96412e-05
5.13434e-05
5.0677e-05
5.15415e-05
5.19495e-05
5.23223e-05
5.12285e-05
5.11249e-05
5.1272e-05
5.08735e-05
5.18067e-05
5.22198e-05
5.17645e-05
5.11981e-05
5.19444e-05
5.14927e-05
5.18384e-05
5.18025e-05
5.15861e-05
5.23494e-05
5.14295e-05
5.01407e-05
5.10929e-05
5.06461e-05
5.21541e-05
5.23653e-05
5.18592e-05
5.07771e-05
5.1061e-05
5.07868e-05
5.07423e-05
5.21911e-05
5.22613e-05
5.14636e-05
5.11849e-05
5.18112e-05
5.22325e-05
5.11855e-05
5.16708e-05
5.18784e-05
5.19441e-05
5.20897e-05
5.08682e-05
5.11918e-05
5.07563e-05
5.1879e-05
5.11749e-05
5.17708e-05
5.00997e-05
5.15237e-05
5.10588e-05
5.1407e-05
5.23436e-05
5.24676e-05
5.1755e-05
5.20161e-05
5.16641e-05
5.19931e-05
5.19671e-05
5.16678e-05
5.16982e-05
5.21204e-05
5.20749e-05
5.02117e-05
4.99004e-05
5.07163e-05
5.15757e-05
5.18497e-05
5.22996e-05
5.04365e-05
5.14639e-05
5.10996e-05
5.15989e-05
5.24028e-05
5.17684e-05
5.15206e-05
5.20789e-05
5.15725e-05
5.09988e-05
5.19129e-05
5.16177e-05
5.15097e-05
5.24255e-05
5.24728e-05
5.09828e-05
5.08423e-05
5.06829e-05
5.16695e-05
5.22801e-05
5.23047e-05
5.03545e-05
5.11929e-05
5.02434e-05
5.15669e-05
5.24779e-05
5.2268e-05
5.15905e-05
5.11521e-05
5.13622e-05
5.11406e-05
5.17842e-05
5.19337e-05
5.18027e-05
5.23487e-05
5.24194e-05
5.06525e-05
5.10386e-05
5.00612e-05
5.21162e-05
5.22721e-05
5.20113e-05
5.0912e-05
5.07954e-05
5.08833e-05
5.08386e-05
5.23467e-05
5.1919e-05
5.16261e-05
5.12381e-05
5.15529e-05
5.1549e-05
5.19108e-05
5.07689e-05
5.17267e-05
5.21128e-05
5.19042e-05
5.04617e-05
4.99227e-05
5.00086e-05
5.186e-05
5.21299e-05
5.1922e-05
5.05237e-05
5.15637e-05
5.07064e-05
5.14994e-05
5.15577e-05
5.16075e-05
5.06531e-05
5.17951e-05
5.04876e-05
5.20984e-05
5.16884e-05
5.16053e-05
5.18716e-05
5.27147e-05
5.22363e-05
4.97821e-05
5.10635e-05
5.041e-05
5.13211e-05
5.1594e-05
5.21206e-05
5.08458e-05
5.14354e-05
5.09932e-05
5.04626e-05
5.23625e-05
5.20848e-05
5.11535e-05
5.22115e-05
5.1315e-05
5.22357e-05
5.12263e-05
5.11115e-05
5.19e-05
5.24686e-05
5.27841e-05
4.9969e-05
5.10781e-05
5.04366e-05
5.20375e-05
5.17795e-05
5.20961e-05
5.07802e-05
5.12333e-05
5.08801e-05
5.15056e-05
5.22955e-05
5.10814e-05
5.07932e-05
5.14552e-05
5.06799e-05
5.22407e-05
5.17561e-05
5.20767e-05
5.13057e-05
5.28337e-05
5.19748e-05
5.06795e-05
5.06313e-05
5.00441e-05
5.10271e-05
5.17615e-05
5.18671e-05
5.09154e-05
5.0765e-05
5.11165e-05
5.07529e-05
5.20102e-05
5.22811e-05
5.15004e-05
5.23142e-05
5.04603e-05
5.21747e-05
5.11e-05
5.19904e-05
5.18585e-05
5.16193e-05
5.19061e-05
5.07328e-05
5.17197e-05
5.03375e-05
5.20639e-05
5.14346e-05
5.10387e-05
5.16187e-05
5.22053e-05
5.14434e-05
5.22402e-05
5.20725e-05
5.22447e-05
5.26516e-05
5.11288e-05
5.05338e-05
5.22309e-05
4.67737e-05
1.70497e-05
4.60764e-05
1.70644e-05
1.07964e-05
1.0866e-05
4.65202e-05
1.67214e-05
4.60049e-05
1.66408e-05
3.38488e-05
3.37992e-05
3.32937e-05
3.32493e-05
3.37441e-05
3.36903e-05
3.33831e-05
5.72583e-05
4.76865e-05
4.17298e-05
5.2235e-05
4.74146e-05
4.1751e-05
5.75382e-05
1.08029e-05
1.08472e-05
5.66081e-05
4.1589e-05
4.77423e-05
5.13925e-05
4.15976e-05
4.81075e-05
5.6077e-05
2.75199e-05
2.73575e-05
5.118e-05
2.76034e-05
2.75989e-05
4.67289e-05
1.68934e-05
4.67295e-05
1.70588e-05
1.08999e-05
1.08854e-05
4.64175e-05
1.68782e-05
4.60237e-05
1.69282e-05
3.33574e-05
3.33222e-05
3.33738e-05
3.38248e-05
3.3388e-05
3.36461e-05
3.35044e-05
5.7225e-05
4.80588e-05
4.24086e-05
5.20313e-05
5.80135e-05
4.74281e-05
4.2348e-05
1.1002e-05
1.10031e-05
5.71929e-05
4.14756e-05
4.8012e-05
5.05597e-05
5.65708e-05
4.14343e-05
4.78616e-05
2.77164e-05
2.74885e-05
5.13674e-05
2.7736e-05
2.75479e-05
4.68373e-05
1.68368e-05
4.63709e-05
1.68288e-05
1.08933e-05
1.09135e-05
4.57138e-05
1.69227e-05
4.61857e-05
1.69597e-05
3.31285e-05
3.36849e-05
3.35796e-05
3.3207e-05
3.34534e-05
3.33088e-05
3.34294e-05
5.72744e-05
4.82708e-05
4.23591e-05
5.23096e-05
5.66547e-05
4.83422e-05
4.19607e-05
1.10633e-05
1.10781e-05
5.65228e-05
4.1083e-05
4.83238e-05
5.12459e-05
5.69064e-05
4.06395e-05
4.82593e-05
2.76359e-05
2.77401e-05
5.16125e-05
2.76897e-05
2.79042e-05
4.72771e-05
1.68504e-05
4.67264e-05
1.6923e-05
1.09355e-05
1.09519e-05
4.67041e-05
1.69741e-05
4.65178e-05
1.68275e-05
3.32487e-05
3.37907e-05
3.35152e-05
3.29958e-05
3.31403e-05
3.37939e-05
3.31374e-05
5.77292e-05
4.79451e-05
4.23928e-05
5.21264e-05
5.8396e-05
4.81726e-05
4.22051e-05
1.11466e-05
1.10773e-05
5.77443e-05
4.07607e-05
4.84271e-05
5.20017e-05
5.67905e-05
4.13221e-05
4.80643e-05
2.76928e-05
2.75638e-05
5.15858e-05
2.74411e-05
2.76482e-05
4.71986e-05
1.69483e-05
4.73119e-05
1.6916e-05
1.09461e-05
1.09299e-05
4.67114e-05
1.69893e-05
4.67292e-05
1.68895e-05
3.35023e-05
3.36459e-05
3.35005e-05
3.33989e-05
3.36112e-05
3.38077e-05
3.34753e-05
5.77503e-05
4.83699e-05
4.21019e-05
5.10447e-05
5.70733e-05
4.77572e-05
4.21255e-05
1.10487e-05
1.09954e-05
5.73816e-05
4.08735e-05
4.76997e-05
5.16033e-05
5.71852e-05
4.07629e-05
4.79399e-05
2.72954e-05
2.79012e-05
5.1349e-05
2.76148e-05
2.78955e-05
4.72533e-05
1.6929e-05
4.73144e-05
1.67881e-05
1.08184e-05
1.08951e-05
4.65372e-05
1.68668e-05
4.62732e-05
1.69689e-05
3.33257e-05
3.33991e-05
3.33349e-05
3.34793e-05
3.36821e-05
3.33806e-05
3.33902e-05
5.79447e-05
4.72633e-05
4.16653e-05
5.16214e-05
5.77983e-05
4.73265e-05
4.22716e-05
1.10044e-05
1.09666e-05
5.66062e-05
4.07105e-05
4.83757e-05
5.07622e-05
5.67508e-05
4.11066e-05
4.78557e-05
2.74861e-05
2.77552e-05
5.18139e-05
2.73632e-05
2.7352e-05
4.65308e-05
1.6917e-05
4.61851e-05
1.69041e-05
1.08809e-05
1.08696e-05
4.66498e-05
1.69511e-05
4.66904e-05
1.70047e-05
3.32672e-05
3.32108e-05
3.31202e-05
3.34441e-05
3.35861e-05
3.36161e-05
3.34738e-05
5.81548e-05
4.78692e-05
4.16751e-05
5.1507e-05
5.80823e-05
4.71415e-05
4.23124e-05
1.10053e-05
1.09127e-05
5.72585e-05
4.03526e-05
4.80114e-05
5.10534e-05
5.64917e-05
4.08694e-05
4.77429e-05
2.74494e-05
2.73982e-05
5.22671e-05
2.77232e-05
2.76599e-05
4.75931e-05
1.69036e-05
4.72441e-05
1.68589e-05
1.09325e-05
1.09387e-05
4.67255e-05
1.68303e-05
4.61268e-05
1.68941e-05
3.36072e-05
3.35384e-05
3.32436e-05
3.35599e-05
3.29819e-05
3.37804e-05
3.3203e-05
5.79964e-05
4.76346e-05
4.16832e-05
5.11898e-05
5.70604e-05
4.78282e-05
4.1691e-05
1.0933e-05
1.09293e-05
5.62269e-05
4.0885e-05
4.75265e-05
5.04999e-05
5.72887e-05
4.08229e-05
4.76626e-05
2.74318e-05
2.75849e-05
5.18921e-05
2.76898e-05
2.77294e-05
4.72182e-05
1.68703e-05
4.71203e-05
1.66894e-05
1.09649e-05
1.09308e-05
4.6743e-05
1.69284e-05
4.59368e-05
1.69111e-05
3.34293e-05
3.35156e-05
3.30225e-05
3.33462e-05
3.33311e-05
3.37618e-05
3.33129e-05
5.82582e-05
4.74571e-05
4.22312e-05
5.17022e-05
5.7986e-05
4.71449e-05
4.22694e-05
1.08583e-05
1.09385e-05
5.75049e-05
4.13192e-05
4.72785e-05
5.12733e-05
5.69218e-05
4.13475e-05
4.73476e-05
2.76586e-05
2.75429e-05
5.19408e-05
2.73773e-05
2.72727e-05
4.7341e-05
1.67768e-05
4.71787e-05
1.68704e-05
1.10158e-05
1.10175e-05
4.69815e-05
1.68918e-05
4.684e-05
1.68576e-05
3.32176e-05
3.37873e-05
3.33967e-05
3.33761e-05
3.34657e-05
3.3025e-05
3.31097e-05
5.77951e-05
4.76216e-05
4.15561e-05
5.18893e-05
5.80843e-05
4.755e-05
4.2192e-05
1.08561e-05
1.0893e-05
5.74508e-05
4.05415e-05
4.69933e-05
5.05114e-05
5.62357e-05
4.09543e-05
4.72442e-05
2.77029e-05
2.73112e-05
5.17966e-05
2.7755e-05
2.75329e-05
4.71861e-05
1.68924e-05
4.70956e-05
1.67331e-05
1.0916e-05
1.09136e-05
4.70046e-05
1.6839e-05
4.72304e-05
1.68496e-05
3.35017e-05
3.34537e-05
3.31419e-05
3.33154e-05
3.34822e-05
3.32783e-05
3.30362e-05
5.82522e-05
4.77959e-05
4.16125e-05
5.18352e-05
5.78458e-05
4.73912e-05
4.22639e-05
1.09755e-05
1.09519e-05
5.60999e-05
4.12369e-05
4.78589e-05
5.09636e-05
5.63067e-05
4.09489e-05
4.75953e-05
2.79771e-05
2.74911e-05
5.20296e-05
2.78032e-05
2.76087e-05
4.7951e-05
1.69626e-05
4.77113e-05
1.69268e-05
1.08529e-05
1.08269e-05
4.73156e-05
1.68702e-05
4.69125e-05
1.69774e-05
3.34698e-05
3.28637e-05
3.2887e-05
3.35005e-05
3.34129e-05
3.3018e-05
3.33917e-05
5.80753e-05
4.8134e-05
4.23201e-05
5.13055e-05
5.77997e-05
4.81498e-05
4.23444e-05
1.08826e-05
1.08683e-05
5.73785e-05
4.09713e-05
4.75519e-05
5.0584e-05
5.73868e-05
4.06774e-05
4.76188e-05
2.75437e-05
2.76084e-05
5.18141e-05
2.7756e-05
2.76506e-05
4.70488e-05
1.70131e-05
4.77777e-05
1.70435e-05
1.08857e-05
1.08847e-05
4.63984e-05
1.69414e-05
4.695e-05
1.69588e-05
3.30982e-05
3.35256e-05
3.33435e-05
3.30078e-05
3.31511e-05
3.353e-05
3.32938e-05
5.84889e-05
4.821e-05
4.17773e-05
5.11854e-05
5.74547e-05
4.75322e-05
4.23181e-05
1.08556e-05
1.08268e-05
5.74553e-05
4.07556e-05
4.74497e-05
5.08786e-05
5.64078e-05
4.07067e-05
4.78843e-05
2.75503e-05
2.76641e-05
5.20395e-05
2.75224e-05
2.75133e-05
4.7764e-05
1.69544e-05
4.72058e-05
1.69732e-05
1.08833e-05
1.0877e-05
4.64899e-05
1.68694e-05
4.67874e-05
1.68559e-05
3.31791e-05
3.31662e-05
3.31972e-05
3.32571e-05
3.3657e-05
3.37249e-05
3.33166e-05
5.75273e-05
4.74048e-05
4.18207e-05
5.15992e-05
5.84559e-05
4.73301e-05
4.24938e-05
1.08874e-05
1.0884e-05
5.77471e-05
4.06586e-05
4.75362e-05
5.11284e-05
5.65367e-05
4.1288e-05
4.74883e-05
2.78052e-05
2.74829e-05
5.09214e-05
2.75453e-05
2.76952e-05
4.77586e-05
1.69484e-05
4.78571e-05
1.70094e-05
1.09382e-05
1.08916e-05
4.67058e-05
1.68527e-05
4.64135e-05
1.68906e-05
3.36814e-05
3.34089e-05
3.33039e-05
3.3339e-05
3.31741e-05
3.33573e-05
3.33777e-05
5.7858e-05
4.81526e-05
4.27034e-05
5.17182e-05
5.79502e-05
4.77946e-05
4.26694e-05
1.09084e-05
1.08765e-05
5.65036e-05
4.0956e-05
4.84214e-05
5.05342e-05
5.60199e-05
4.07108e-05
4.82909e-05
2.75365e-05
2.77505e-05
5.1956e-05
2.72142e-05
2.78165e-05
4.76136e-05
1.69677e-05
4.71428e-05
1.69365e-05
1.08381e-05
1.08688e-05
4.66289e-05
1.68759e-05
4.70637e-05
1.69266e-05
3.3648e-05
3.3188e-05
3.35327e-05
3.33536e-05
3.35172e-05
3.3672e-05
3.33129e-05
5.71049e-05
4.80472e-05
4.26477e-05
5.14808e-05
5.81811e-05
4.7413e-05
4.23168e-05
1.09344e-05
1.09281e-05
5.70868e-05
4.11247e-05
4.78059e-05
5.14075e-05
5.61608e-05
4.08176e-05
4.78775e-05
2.74051e-05
2.7538e-05
5.19667e-05
2.74704e-05
2.73699e-05
4.75475e-05
1.68788e-05
4.74687e-05
1.68473e-05
1.08312e-05
1.0801e-05
4.65243e-05
1.67993e-05
4.67508e-05
1.68832e-05
3.34858e-05
3.36641e-05
3.36217e-05
3.32979e-05
5.7306e-05
4.80081e-05
4.23398e-05
5.19986e-05
5.69697e-05
4.77111e-05
4.24787e-05
1.08432e-05
1.0863e-05
5.73576e-05
4.05457e-05
4.80045e-05
5.10905e-05
5.74239e-05
4.10526e-05
4.80742e-05
2.72208e-05
2.74978e-05
5.21517e-05
2.72774e-05
2.74366e-05
4.67427e-05
1.71498e-05
1.71213e-05
4.61845e-05
5.6642e-05
4.80545e-05
4.03369e-05
5.05327e-05
4.02337e-05
5.56293e-05
4.72016e-05
5.59021e-05
4.79521e-05
4.05283e-05
5.1508e-05
4.76301e-05
4.00409e-05
5.67296e-05
4.65682e-05
1.69878e-05
4.65911e-05
1.70699e-05
4.66468e-05
1.71782e-05
1.70534e-05
4.66979e-05
5.63637e-05
5.13097e-05
4.81727e-05
4.02501e-05
4.04614e-05
5.62778e-05
4.78138e-05
5.68604e-05
5.14289e-05
4.83969e-05
4.07432e-05
4.81642e-05
4.05394e-05
5.56526e-05
2.81767e-05
2.76173e-05
5.18175e-05
2.80342e-05
2.7829e-05
1.06826e-05
1.07541e-05
1.08801e-05
1.08788e-05
5.24999e-05
2.83268e-05
2.78411e-05
2.83821e-05
2.78639e-05
1.07557e-05
1.0799e-05
5.77351e-05
4.73959e-05
4.15541e-05
5.21367e-05
4.20065e-05
5.7495e-05
4.68116e-05
4.675e-05
1.70924e-05
1.70839e-05
4.61942e-05
5.74586e-05
4.24076e-05
4.80616e-05
5.2396e-05
4.22728e-05
4.80114e-05
5.71077e-05
4.64262e-05
1.67942e-05
4.64898e-05
1.67822e-05
5.75431e-05
5.19599e-05
4.75751e-05
4.15953e-05
4.18298e-05
5.75036e-05
4.75779e-05
4.70617e-05
1.72332e-05
1.7181e-05
4.71537e-05
5.76006e-05
5.22583e-05
4.22851e-05
4.82758e-05
4.2382e-05
4.81948e-05
5.73321e-05
4.65918e-05
1.69253e-05
1.69852e-05
4.67911e-05
5.71621e-05
4.17367e-05
4.75812e-05
5.16624e-05
4.15023e-05
4.72898e-05
5.68088e-05
4.68021e-05
1.68944e-05
1.68702e-05
4.71921e-05
5.70465e-05
5.23793e-05
4.80906e-05
4.17576e-05
4.80475e-05
4.18812e-05
5.80054e-05
4.67243e-05
1.70973e-05
1.70732e-05
4.70451e-05
5.72061e-05
5.17624e-05
4.1892e-05
4.73416e-05
4.16616e-05
4.72643e-05
5.79656e-05
4.74772e-05
1.68656e-05
1.67528e-05
4.74921e-05
2.80056e-05
2.79489e-05
5.26981e-05
2.80407e-05
2.80936e-05
1.06647e-05
1.07756e-05
1.09123e-05
1.08404e-05
5.26357e-05
2.81719e-05
2.82438e-05
2.82226e-05
2.80551e-05
1.07847e-05
1.07428e-05
5.60328e-05
4.16535e-05
4.76923e-05
5.08001e-05
4.12357e-05
4.78653e-05
5.64076e-05
4.74754e-05
1.70421e-05
1.69811e-05
4.69684e-05
4.75089e-05
1.69417e-05
1.69611e-05
4.75122e-05
5.69544e-05
5.14248e-05
4.1343e-05
4.84694e-05
4.09524e-05
4.82427e-05
5.72739e-05
5.70359e-05
5.03837e-05
4.07726e-05
4.79939e-05
4.10588e-05
4.7858e-05
5.72368e-05
4.6941e-05
1.71436e-05
1.69281e-05
4.7418e-05
4.74643e-05
1.70865e-05
1.70337e-05
4.76568e-05
1.06809e-05
1.06255e-05
1.06019e-05
1.0674e-05
5.19914e-05
2.77604e-05
2.77438e-05
2.76664e-05
2.76242e-05
1.07349e-05
1.06926e-05
1.07143e-05
1.06502e-05
1.07706e-05
1.0791e-05
1.07627e-05
1.07255e-05
2.82244e-05
2.76957e-05
5.13026e-05
2.80337e-05
2.78969e-05
1.07386e-05
1.08199e-05
1.08121e-05
1.08006e-05
5.20729e-05
2.81153e-05
2.79573e-05
2.82348e-05
2.79367e-05
4.63627e-05
1.72242e-05
4.70877e-05
1.71604e-05
5.55515e-05
4.83261e-05
4.08644e-05
5.15481e-05
5.54104e-05
4.81613e-05
4.0476e-05
5.66549e-05
4.82551e-05
4.04454e-05
5.09938e-05
5.66151e-05
4.83868e-05
4.05855e-05
4.6763e-05
1.68688e-05
1.70584e-05
4.68017e-05
4.70333e-05
1.71207e-05
1.70795e-05
4.73948e-05
5.63308e-05
5.16366e-05
4.76984e-05
4.05424e-05
4.82179e-05
4.00333e-05
5.54162e-05
5.5961e-05
5.16515e-05
4.83998e-05
4.00383e-05
4.83145e-05
4.028e-05
5.6107e-05
2.81121e-05
2.79577e-05
5.22585e-05
2.83297e-05
2.79162e-05
1.0752e-05
1.08034e-05
1.0896e-05
1.08885e-05
5.17751e-05
2.82658e-05
2.80599e-05
2.82851e-05
2.8094e-05
1.08604e-05
1.08215e-05
5.73062e-05
4.75106e-05
4.22356e-05
5.18439e-05
5.66548e-05
4.79644e-05
4.22573e-05
4.67451e-05
1.73056e-05
4.73914e-05
1.73312e-05
5.77624e-05
4.22951e-05
4.78471e-05
5.18239e-05
5.77692e-05
4.21195e-05
4.84266e-05
4.59769e-05
1.6995e-05
1.6909e-05
4.63909e-05
5.73607e-05
5.07173e-05
4.72427e-05
4.2079e-05
4.79624e-05
4.22662e-05
5.70618e-05
4.61568e-05
1.73997e-05
1.73817e-05
4.70216e-05
5.78724e-05
5.13001e-05
4.20659e-05
4.8756e-05
4.21521e-05
4.8439e-05
5.77083e-05
4.64134e-05
1.71516e-05
4.67462e-05
1.68975e-05
5.7133e-05
4.13342e-05
4.77601e-05
5.12328e-05
5.74676e-05
4.17413e-05
4.718e-05
4.74089e-05
1.70721e-05
4.76576e-05
1.70042e-05
5.75648e-05
5.22014e-05
4.83246e-05
4.24201e-05
4.79462e-05
4.23154e-05
5.72527e-05
4.70667e-05
1.71395e-05
1.71339e-05
4.71274e-05
5.81452e-05
5.2087e-05
4.19376e-05
4.78569e-05
4.18798e-05
4.68416e-05
5.79236e-05
4.7327e-05
1.7112e-05
1.70861e-05
4.74246e-05
2.84668e-05
2.82519e-05
5.2524e-05
2.85087e-05
2.82643e-05
1.08882e-05
1.08728e-05
1.10354e-05
1.10296e-05
5.19364e-05
2.83114e-05
2.84684e-05
2.84876e-05
2.8422e-05
1.09812e-05
1.09151e-05
5.7102e-05
4.12937e-05
4.79317e-05
5.03928e-05
5.65848e-05
4.13335e-05
4.80428e-05
4.71885e-05
1.72208e-05
4.69229e-05
1.70613e-05
4.76659e-05
1.70044e-05
4.78783e-05
1.70666e-05
5.63493e-05
5.12111e-05
4.08331e-05
4.85508e-05
4.14416e-05
4.82873e-05
5.65469e-05
5.62861e-05
5.02183e-05
4.09217e-05
4.80088e-05
4.13411e-05
4.82169e-05
5.75666e-05
4.77472e-05
1.72951e-05
1.70987e-05
4.78767e-05
4.75452e-05
1.71025e-05
1.69855e-05
4.74338e-05
1.0731e-05
1.07423e-05
1.0705e-05
1.07338e-05
5.22035e-05
2.76883e-05
2.8045e-05
2.77872e-05
2.78315e-05
1.07381e-05
1.07643e-05
1.08065e-05
1.06783e-05
1.08218e-05
1.07387e-05
1.0782e-05
1.07986e-05
2.81716e-05
2.80391e-05
5.10921e-05
2.77273e-05
2.79629e-05
1.07358e-05
1.07152e-05
1.07958e-05
1.08364e-05
5.11457e-05
2.77731e-05
2.79305e-05
2.79878e-05
2.80849e-05
4.67203e-05
1.73349e-05
4.73857e-05
1.73481e-05
5.65736e-05
4.78612e-05
4.0736e-05
5.07073e-05
5.61982e-05
4.77201e-05
4.06862e-05
5.70307e-05
4.87315e-05
4.04807e-05
5.15753e-05
5.66714e-05
4.88858e-05
4.07013e-05
4.64938e-05
1.6938e-05
1.70374e-05
4.67188e-05
4.63749e-05
1.72234e-05
1.72257e-05
4.66024e-05
5.57603e-05
5.04125e-05
4.77009e-05
4.06881e-05
4.7852e-05
4.07624e-05
5.66649e-05
5.68975e-05
5.10093e-05
4.83001e-05
4.05989e-05
4.90304e-05
4.04384e-05
5.60156e-05
2.80759e-05
2.82776e-05
5.16167e-05
2.82623e-05
2.81206e-05
1.09142e-05
1.09268e-05
1.09419e-05
1.09369e-05
5.18341e-05
2.82965e-05
2.80394e-05
2.82506e-05
2.81672e-05
1.08958e-05
1.09042e-05
5.71227e-05
4.73458e-05
4.16831e-05
5.13879e-05
5.71293e-05
4.78751e-05
4.14706e-05
4.71683e-05
1.7257e-05
4.69611e-05
1.74004e-05
5.68321e-05
4.22145e-05
4.82536e-05
5.19274e-05
5.78013e-05
4.22691e-05
4.897e-05
4.62471e-05
1.69896e-05
1.70493e-05
4.66255e-05
5.70846e-05
5.16622e-05
4.7065e-05
4.14882e-05
4.80577e-05
4.2114e-05
5.71613e-05
4.72054e-05
1.74759e-05
1.74625e-05
4.65226e-05
5.64943e-05
5.21403e-05
4.19032e-05
4.89901e-05
4.21438e-05
4.88265e-05
5.73397e-05
4.71047e-05
1.72309e-05
4.66138e-05
1.723e-05
5.72982e-05
4.15228e-05
4.79592e-05
5.12981e-05
5.79928e-05
4.18016e-05
4.78507e-05
4.69688e-05
1.7176e-05
4.76795e-05
1.71848e-05
5.8227e-05
5.18604e-05
4.8223e-05
4.17352e-05
4.76532e-05
4.19259e-05
5.83818e-05
4.76511e-05
1.7141e-05
1.72785e-05
4.74206e-05
5.81763e-05
5.11307e-05
4.21249e-05
4.72888e-05
4.20449e-05
4.81815e-05
5.76843e-05
4.76103e-05
1.71868e-05
1.72325e-05
4.75923e-05
2.85552e-05
2.85925e-05
5.28333e-05
2.86102e-05
2.82606e-05
1.09146e-05
1.09655e-05
1.11172e-05
1.10955e-05
5.23701e-05
2.87426e-05
2.82122e-05
2.87531e-05
2.86125e-05
1.09486e-05
1.09645e-05
5.61508e-05
4.06359e-05
4.80871e-05
5.12666e-05
5.75e-05
4.09421e-05
4.76423e-05
4.79486e-05
1.71984e-05
4.78383e-05
1.72548e-05
4.76017e-05
1.71668e-05
4.75401e-05
1.71708e-05
5.70482e-05
5.10547e-05
4.12719e-05
4.84981e-05
4.12488e-05
4.80345e-05
5.71823e-05
5.67893e-05
5.10856e-05
4.10614e-05
4.76465e-05
4.10432e-05
4.80264e-05
5.72167e-05
4.80395e-05
1.71984e-05
1.72807e-05
4.74088e-05
4.77337e-05
1.70453e-05
1.71642e-05
4.76954e-05
1.07702e-05
1.07793e-05
1.07747e-05
1.08105e-05
5.19973e-05
2.7773e-05
2.79351e-05
2.75544e-05
2.79506e-05
1.07825e-05
1.079e-05
1.08183e-05
1.07715e-05
1.07783e-05
1.07687e-05
1.07373e-05
1.08144e-05
2.81412e-05
2.79997e-05
5.11243e-05
2.806e-05
2.79666e-05
1.07856e-05
1.07833e-05
1.08334e-05
1.08372e-05
5.09982e-05
2.80842e-05
2.79038e-05
2.80832e-05
2.79187e-05
4.70715e-05
1.73345e-05
4.68365e-05
1.71636e-05
5.67874e-05
4.76973e-05
4.04716e-05
5.12177e-05
5.61872e-05
4.77346e-05
4.04706e-05
5.63151e-05
4.88837e-05
4.02475e-05
5.05999e-05
5.69262e-05
4.85703e-05
4.08402e-05
4.73422e-05
1.6929e-05
1.69818e-05
4.73842e-05
4.66197e-05
1.71619e-05
1.73335e-05
4.63739e-05
5.68788e-05
5.05643e-05
4.71503e-05
4.06926e-05
4.77234e-05
4.04197e-05
5.60852e-05
5.66862e-05
5.14731e-05
4.83631e-05
4.0984e-05
4.80899e-05
4.09265e-05
5.69827e-05
2.81343e-05
2.82152e-05
5.23834e-05
2.83555e-05
2.78506e-05
1.0926e-05
1.0907e-05
1.09479e-05
1.09146e-05
5.23041e-05
2.83484e-05
2.77195e-05
2.83861e-05
2.81688e-05
1.08919e-05
1.09063e-05
5.72184e-05
4.77707e-05
4.1948e-05
5.07753e-05
5.72024e-05
4.75496e-05
4.17906e-05
4.60853e-05
1.7531e-05
4.71369e-05
1.74922e-05
5.75587e-05
4.18569e-05
4.92859e-05
5.24112e-05
5.75955e-05
4.19949e-05
4.89921e-05
4.6714e-05
1.70027e-05
1.70229e-05
4.68047e-05
5.68903e-05
5.16891e-05
4.78141e-05
4.22655e-05
4.73139e-05
4.16179e-05
5.74668e-05
4.6741e-05
1.74032e-05
1.75036e-05
4.70247e-05
5.67528e-05
5.23256e-05
4.2491e-05
4.8703e-05
4.18367e-05
4.83237e-05
5.7609e-05
4.75692e-05
1.72148e-05
4.7531e-05
1.72233e-05
5.76352e-05
4.22076e-05
4.80358e-05
5.12363e-05
5.73081e-05
4.18886e-05
4.74318e-05
4.71815e-05
1.71707e-05
4.76361e-05
1.70367e-05
5.79238e-05
5.144e-05
4.83847e-05
4.20115e-05
4.84947e-05
4.21678e-05
5.81089e-05
4.69021e-05
1.73201e-05
1.73114e-05
4.64478e-05
5.76802e-05
5.17925e-05
4.1853e-05
4.8042e-05
4.13634e-05
4.75692e-05
5.81629e-05
4.73558e-05
1.6956e-05
1.70919e-05
4.72899e-05
2.88375e-05
2.86033e-05
5.2978e-05
2.84245e-05
2.80358e-05
1.09036e-05
1.08331e-05
1.10328e-05
1.10679e-05
5.28436e-05
2.84027e-05
2.79127e-05
2.83109e-05
2.83029e-05
1.08374e-05
1.08709e-05
5.65775e-05
4.10561e-05
4.79579e-05
5.1114e-05
5.69225e-05
4.12341e-05
4.80449e-05
4.80511e-05
1.72651e-05
4.78744e-05
1.7242e-05
4.77568e-05
1.71139e-05
4.72468e-05
1.71118e-05
5.75489e-05
5.17945e-05
4.08433e-05
4.83467e-05
4.12103e-05
4.85772e-05
5.72755e-05
5.61056e-05
5.03555e-05
4.09793e-05
4.74893e-05
4.07259e-05
4.79627e-05
5.71479e-05
4.7626e-05
1.72054e-05
1.7281e-05
4.77945e-05
4.75466e-05
1.70462e-05
1.70952e-05
4.80014e-05
1.07837e-05
1.0671e-05
1.07205e-05
1.07484e-05
5.17749e-05
2.76775e-05
2.79e-05
2.78361e-05
2.7541e-05
1.07332e-05
1.07715e-05
1.07691e-05
1.06902e-05
1.07939e-05
1.08382e-05
1.0833e-05
1.08379e-05
2.82055e-05
2.7844e-05
5.12446e-05
2.82416e-05
2.80092e-05
1.08334e-05
1.08107e-05
1.08524e-05
1.08397e-05
5.20755e-05
2.81602e-05
2.80684e-05
2.80087e-05
2.7945e-05
4.75892e-05
1.73602e-05
4.72415e-05
1.72503e-05
5.68471e-05
4.77092e-05
4.09504e-05
5.13571e-05
5.69201e-05
4.76204e-05
4.09108e-05
5.6669e-05
4.86794e-05
4.06186e-05
5.10531e-05
5.59781e-05
4.85072e-05
4.07655e-05
4.73621e-05
1.69906e-05
1.69679e-05
4.73043e-05
4.7878e-05
1.72776e-05
1.71563e-05
4.74625e-05
5.67131e-05
5.1203e-05
4.78865e-05
4.03333e-05
4.77202e-05
4.08314e-05
5.59953e-05
5.67114e-05
5.02959e-05
4.86281e-05
4.09301e-05
4.84435e-05
4.08704e-05
5.64425e-05
2.82821e-05
2.81775e-05
5.24759e-05
2.82812e-05
2.81412e-05
1.09133e-05
1.09132e-05
1.08898e-05
1.09178e-05
5.19474e-05
2.79146e-05
2.79753e-05
2.83118e-05
2.81935e-05
1.08939e-05
1.09294e-05
5.68603e-05
4.74335e-05
4.20119e-05
5.12974e-05
5.75603e-05
4.75443e-05
4.13728e-05
4.67453e-05
1.72971e-05
4.70782e-05
1.7349e-05
5.71552e-05
4.18997e-05
4.86309e-05
5.22781e-05
5.77211e-05
4.22141e-05
4.85755e-05
4.68022e-05
1.70244e-05
1.7097e-05
4.67425e-05
5.62606e-05
5.15286e-05
4.76927e-05
4.17319e-05
4.83119e-05
4.18588e-05
5.67528e-05
4.6659e-05
1.73829e-05
1.7405e-05
4.70555e-05
5.71049e-05
5.24496e-05
4.16931e-05
4.84926e-05
4.1868e-05
4.87747e-05
5.66908e-05
4.74809e-05
1.73036e-05
4.73504e-05
1.70593e-05
5.80372e-05
4.1539e-05
4.81236e-05
5.18558e-05
5.81575e-05
4.13741e-05
4.7951e-05
4.73833e-05
1.71236e-05
4.6685e-05
1.70781e-05
5.75891e-05
5.16886e-05
4.79085e-05
4.21612e-05
4.75724e-05
4.21779e-05
5.7549e-05
4.74423e-05
1.72039e-05
1.72719e-05
4.73115e-05
5.79026e-05
5.20178e-05
4.14606e-05
4.71677e-05
4.20559e-05
4.79278e-05
5.79247e-05
4.72755e-05
1.6962e-05
1.7087e-05
4.76834e-05
2.8448e-05
2.78385e-05
5.18343e-05
2.83176e-05
2.81181e-05
1.08172e-05
1.07605e-05
1.09836e-05
1.09726e-05
5.27149e-05
2.83748e-05
2.81601e-05
2.81745e-05
2.81445e-05
1.08715e-05
1.08504e-05
5.71364e-05
4.09743e-05
4.83657e-05
4.94269e-05
5.72939e-05
4.02842e-05
4.79019e-05
4.77035e-05
1.71002e-05
4.75195e-05
1.70995e-05
4.77084e-05
1.71251e-05
4.80872e-05
1.70661e-05
5.71688e-05
5.16449e-05
4.13643e-05
4.83947e-05
4.14247e-05
4.77397e-05
5.7271e-05
5.66051e-05
4.99089e-05
4.04336e-05
4.78399e-05
4.07346e-05
4.7405e-05
5.69562e-05
4.78422e-05
1.71384e-05
1.70785e-05
4.71531e-05
4.75954e-05
1.70703e-05
1.69796e-05
4.7609e-05
1.06605e-05
1.07161e-05
1.07764e-05
1.07705e-05
5.20567e-05
2.7711e-05
2.77728e-05
2.77296e-05
2.79359e-05
1.07299e-05
1.07445e-05
1.07363e-05
1.07439e-05
1.08189e-05
1.07477e-05
1.0789e-05
1.08416e-05
2.82557e-05
2.81243e-05
5.19789e-05
2.7669e-05
2.79146e-05
1.0743e-05
1.07399e-05
1.07924e-05
1.08377e-05
5.20491e-05
2.78616e-05
2.80228e-05
2.80151e-05
2.77944e-05
4.78231e-05
1.71153e-05
4.77651e-05
1.72863e-05
5.71369e-05
4.78214e-05
4.01501e-05
5.12117e-05
5.68597e-05
4.71192e-05
4.0328e-05
5.70335e-05
4.87095e-05
4.09909e-05
5.11198e-05
5.74251e-05
4.81634e-05
4.09891e-05
4.75257e-05
1.69619e-05
1.69242e-05
4.70139e-05