/*--------------------------------*- C++ -*----------------------------------*\
| =========                 |                                                 |
| \\      /  F ield         | OpenFOAM: The Open Source CFD Toolbox           |
|  \\    /   O peration     | Version:  2206                                  |
|   \\  /    A nd           | Website:  www.openfoam.com                      |
|    \\/     M anipulation  |                                                 |
\*---------------------------------------------------------------------------*/
FoamFile
{
    version     2.0;
    format      ascii;
    arch        "LSB;label=32;scalar=64";
    class       volScalarField;
    location    "90";
    object      p;
}
// * * * * * * * * * * * * * * * * * * * * * * * * * * * * * * * * * * * * * //

dimensions      [0 2 -2 0 0 0 0];

internalField   nonuniform List<scalar> 
66928
(
-0.00692169
-0.00691036
-0.00691011
-0.00691002
-0.00692159
-0.00691
-0.00694502
-0.00710692
-0.00691009
-0.00690981
-0.00692145
-0.00692169
-0.00692152
-0.0069217
-0.00692137
-0.00692108
-0.00692174
-0.00692197
-0.00692136
-0.00690996
-0.00692118
-0.00692177
-0.006922
-0.00690995
-0.00692134
-0.00692122
-0.0069217
-0.00692169
-0.00692151
-0.00692156
-0.00692104
-0.0069216
-0.0069451
-0.00701419
-0.00694501
-0.00701437
-0.00694509
-0.00694497
-0.00701434
-0.00701419
-0.00701436
-0.0071068
-0.00703779
-0.0071069
-0.00703767
-0.0070376
-0.00710678
-0.0071069
-0.00703775
-0.0070376
-0.00689881
-0.00689878
-0.00692192
-0.00689896
-0.00692142
-0.006899
-0.00689859
-0.00692162
-0.00689869
-0.00692211
-0.00689881
-0.00692151
-0.00689895
-0.0068983
-0.00692169
-0.00689866
-0.00692153
-0.00692158
-0.00689887
-0.00689881
-0.00692174
-0.00689873
-0.00692139
-0.00689863
-0.0069212
-0.00692185
-0.00692165
-0.00692197
-0.00692177
-0.00692173
-0.00692184
-0.00692164
-0.00692176
-0.00692198
-0.00692174
-0.0068987
-0.00692205
-0.00689883
-0.00692154
-0.00689833
-0.00689897
-0.00692164
-0.00689879
-0.00692186
-0.00689898
-0.00692143
-0.00689904
-0.00689853
-0.00692156
-0.00689866
-0.00692161
-0.00692156
-0.00689884
-0.00689888
-0.00692175
-0.00689892
-0.00689898
-0.00692155
-0.00689899
-0.00692137
-0.00696782
-0.00699153
-0.00696803
-0.00699144
-0.00699129
-0.00701421
-0.00701425
-0.00699151
-0.00699148
-0.00701439
-0.006968
-0.00694475
-0.00694523
-0.00696777
-0.00694507
-0.00696771
-0.00696818
-0.00696808
-0.00694456
-0.00694517
-0.00696796
-0.00694499
-0.00696783
-0.00696835
-0.0069681
-0.00694515
-0.00694511
-0.00694493
-0.00696787
-0.00696792
-0.00699143
-0.00701409
-0.00699162
-0.00701453
-0.00699167
-0.00701423
-0.00699122
-0.00699136
-0.00701417
-0.00699151
-0.00701473
-0.0069916
-0.00701431
-0.00699102
-0.00708415
-0.0070605
-0.007084
-0.00706063
-0.00706074
-0.00703781
-0.00703778
-0.0070376
-0.00706051
-0.00706054
-0.00708405
-0.00710711
-0.00708419
-0.00710668
-0.00708427
-0.00708375
-0.00710684
-0.00708396
-0.00710728
-0.00708403
-0.00710673
-0.00708418
-0.00708356
-0.0071069
-0.00706063
-0.00703792
-0.00703732
-0.00706044
-0.00703768
-0.00706037
-0.00706076
-0.0070607
-0.00703784
-0.00703714
-0.00706058
-0.00703758
-0.00706045
-0.00706097
-0.00708389
-0.00710679
-0.00710682
-0.00708414
-0.00708409
-0.00710698
-0.00689976
-0.00689865
-0.00692124
-0.0069214
-0.00689901
-0.00689885
-0.00692045
-0.0068998
-0.00689848
-0.00692138
-0.00692122
-0.00689883
-0.00689893
-0.00692043
-0.00696689
-0.00694532
-0.00694522
-0.00696804
-0.00694615
-0.00696755
-0.00696771
-0.0070851
-0.00708385
-0.00710645
-0.00710659
-0.00708422
-0.0070841
-0.00710569
-0.00690989
-0.00690983
-0.00689882
-0.00692226
-0.0068995
-0.00692096
-0.00689852
-0.00689947
-0.00692212
-0.00689802
-0.00692251
-0.00689921
-0.00692125
-0.00689796
-0.00689929
-0.0069223
-0.00689786
-0.00689921
-0.00692122
-0.0069224
-0.00689925
-0.00689775
-0.00692233
-0.00689801
-0.00692248
-0.00689922
-0.0069213
-0.00689928
-0.00689791
-0.0069223
-0.00689791
-0.00689922
-0.00692238
-0.00692122
-0.00689776
-0.00689926
-0.00692232
-0.00689855
-0.00692213
-0.00689955
-0.00692078
-0.00689831
-0.00689974
-0.00692179
-0.0069925
-0.00699132
-0.00701393
-0.00701407
-0.00701315
-0.00699168
-0.00699156
-0.0070595
-0.0070606
-0.00703794
-0.00703782
-0.00703877
-0.00706016
-0.00706029
-0.00695659
-0.00695659
-0.00695645
-0.00694495
-0.00714174
-0.00714176
-0.0071418
-0.00713022
-0.00732693
-0.007327
-0.00732693
-0.00731539
-0.00751235
-0.00751237
-0.00751236
-0.00750088
-0.00769776
-0.00769784
-0.00769783
-0.00768629
-0.00788314
-0.00788323
-0.00788325
-0.00787178
-0.00806849
-0.00806859
-0.00806857
-0.00805711
-0.00825369
-0.00825379
-0.00825384
-0.0082424
-0.00843885
-0.00843887
-0.00843897
-0.00842741
-0.00862395
-0.00862408
-0.00862412
-0.00861265
-0.00880906
-0.00880918
-0.00880918
-0.00879767
-0.0089941
-0.00899421
-0.00899418
-0.00898267
-0.00917909
-0.00917917
-0.00917916
-0.0091677
-0.0093641
-0.00936421
-0.00936418
-0.00935266
-0.00954911
-0.00954917
-0.00954919
-0.00953769
-0.00973416
-0.00973427
-0.00973426
-0.00972279
-0.00991942
-0.00991943
-0.00991951
-0.00990787
-0.00695663
-0.00695672
-0.00709539
-0.00709537
-0.00694505
-0.00710686
-0.00695657
-0.00695653
-0.00709538
-0.00709533
-0.00695659
-0.0070953
-0.00709532
-0.00694496
-0.00710686
-0.00695639
-0.00709531
-0.00709533
-0.00710689
-0.00713026
-0.00729215
-0.00714186
-0.00714182
-0.00728062
-0.00728057
-0.00713023
-0.00729209
-0.0071418
-0.00714182
-0.00728057
-0.00728053
-0.00714182
-0.00728057
-0.00728053
-0.00713026
-0.00729208
-0.00714188
-0.00728052
-0.00728052
-0.00729206
-0.00731549
-0.00747748
-0.00732705
-0.00732706
-0.00746597
-0.00746599
-0.00731547
-0.00747749
-0.00732703
-0.00732702
-0.00746593
-0.00746595
-0.00732699
-0.00746594
-0.00746593
-0.00731543
-0.00747749
-0.00732701
-0.00746594
-0.00746596
-0.00747747
-0.00750083
-0.00766295
-0.00751246
-0.00751248
-0.00765142
-0.00765143
-0.00750086
-0.00766293
-0.00751244
-0.00751239
-0.00765138
-0.00765141
-0.00751244
-0.00765142
-0.00765138
-0.00750084
-0.00766294
-0.00751245
-0.00765143
-0.00765137
-0.00766291
-0.0076863
-0.0078483
-0.00769792
-0.00769789
-0.00783677
-0.00783681
-0.00768629
-0.00784833
-0.00769789
-0.00769787
-0.00783677
-0.00783681
-0.00769789
-0.00783679
-0.00783683
-0.00768628
-0.00784834
-0.0076979
-0.00783683
-0.00783685
-0.0078484
-0.00787171
-0.00803377
-0.00788325
-0.00788327
-0.00802218
-0.0080222
-0.00787172
-0.00803369
-0.00788325
-0.00788328
-0.00802218
-0.00802217
-0.00788328
-0.00802222
-0.00802216
-0.00787171
-0.00803369
-0.00788331
-0.0080222
-0.00802222
-0.00803372
-0.00805708
-0.00821893
-0.00806861
-0.00806862
-0.00820741
-0.00820746
-0.00805703
-0.00821893
-0.0080686
-0.00806861
-0.00820741
-0.00820741
-0.00806866
-0.00820742
-0.00820744
-0.00805705
-0.00821898
-0.00806867
-0.00820744
-0.00820746
-0.00821904
-0.00824227
-0.00840404
-0.00825384
-0.00825382
-0.00839253
-0.00839251
-0.00824224
-0.00840405
-0.00825382
-0.00825382
-0.00839254
-0.00839257
-0.00825386
-0.00839253
-0.00839257
-0.00824236
-0.00840405
-0.00825388
-0.00839259
-0.00839259
-0.00840405
-0.00842737
-0.00858918
-0.00843891
-0.00843893
-0.00857767
-0.0085777
-0.00842735
-0.00858918
-0.00843894
-0.00843898
-0.00857767
-0.00857769
-0.008439
-0.00857769
-0.0085777
-0.00842741
-0.00858922
-0.00843902
-0.00857772
-0.00857773
-0.00858928
-0.00861253
-0.00877425
-0.00862407
-0.00862412
-0.00876276
-0.0087628
-0.00861252
-0.00877432
-0.00862406
-0.00862413
-0.00876279
-0.00876281
-0.00862415
-0.00876281
-0.00876279
-0.00861258
-0.00877431
-0.00862418
-0.00876283
-0.00876285
-0.00877434
-0.00879759
-0.00895938
-0.00880916
-0.00880919
-0.00894789
-0.00894788
-0.00879766
-0.00895933
-0.00880918
-0.00880923
-0.00894786
-0.00894786
-0.00880918
-0.00894787
-0.00894787
-0.00879768
-0.00895941
-0.00880924
-0.00894789
-0.00894787
-0.00895936
-0.00898268
-0.00914435
-0.00899425
-0.00899429
-0.00913282
-0.00913283
-0.00898267
-0.00914434
-0.00899424
-0.00899421
-0.00913283
-0.00913285
-0.00899424
-0.00913281
-0.00913283
-0.00898265
-0.00914439
-0.00899428
-0.00913285
-0.00913287
-0.0091444
-0.00916767
-0.00932933
-0.0091792
-0.00917923
-0.00931783
-0.0093179
-0.00916767
-0.0093294
-0.00917923
-0.0091792
-0.00931784
-0.00931778
-0.0091792
-0.00931785
-0.00931783
-0.00916765
-0.00932929
-0.00917922
-0.0093178
-0.00931786
-0.00932935
-0.0093526
-0.00951439
-0.00936419
-0.00936424
-0.00950285
-0.00950285
-0.00935271
-0.00951433
-0.00936417
-0.00936419
-0.00950285
-0.00950285
-0.00936423
-0.00950286
-0.00950288
-0.00935261
-0.00951434
-0.00936423
-0.00950284
-0.00950287
-0.00951441
-0.00953767
-0.00969943
-0.00954921
-0.00954923
-0.00968789
-0.00968792
-0.00953764
-0.00969944
-0.00954922
-0.00954928
-0.00968791
-0.0096879
-0.00954925
-0.00968792
-0.00968791
-0.00953768
-0.00969944
-0.00954927
-0.00968794
-0.00968795
-0.0096995
-0.00972271
-0.00988456
-0.00973429
-0.0097343
-0.00987304
-0.00987303
-0.00972276
-0.00988452
-0.0097343
-0.00973429
-0.00987302
-0.00987299
-0.00973428
-0.00987298
-0.00987302
-0.00972271
-0.00988453
-0.00973431
-0.00987306
-0.00987302
-0.00988451
-0.00990793
-0.00991951
-0.00991952
-0.0099079
-0.0099195
-0.00991952
-0.00991942
-0.0100581
-0.00990794
-0.00991943
-0.0100581
-0.0100697
-0.00701406
-0.00694507
-0.0069453
-0.00701417
-0.00694512
-0.00701412
-0.00701459
-0.00694499
-0.00694474
-0.00701443
-0.0069566
-0.00695639
-0.00695636
-0.00709524
-0.00709525
-0.00709528
-0.00709525
-0.00701384
-0.00694541
-0.0069566
-0.00700293
-0.00701401
-0.00700289
-0.00694549
-0.00694501
-0.00701435
-0.00701325
-0.0069563
-0.00694562
-0.00700303
-0.00700307
-0.00701368
-0.00694591
-0.00694505
-0.00694511
-0.00701437
-0.00701433
-0.00701416
-0.00719937
-0.00713042
-0.00713043
-0.00719934
-0.00713038
-0.00719938
-0.00719972
-0.00713023
-0.00713001
-0.00719956
-0.00714192
-0.00714189
-0.00714195
-0.00728056
-0.0072805
-0.00728044
-0.0072805
-0.00719901
-0.00713061
-0.00714177
-0.00718811
-0.0071306
-0.00719909
-0.0071881
-0.00713026
-0.00719948
-0.00719841
-0.00714179
-0.00713096
-0.00718813
-0.0071312
-0.0071881
-0.00719882
-0.00713022
-0.00713037
-0.00719952
-0.00719942
-0.0071993
-0.00738467
-0.00731562
-0.00731568
-0.0073847
-0.00731565
-0.00738463
-0.00738507
-0.00731541
-0.00731518
-0.00738486
-0.00732704
-0.00732701
-0.00732702
-0.00746593
-0.0074659
-0.00746588
-0.00746587
-0.00738425
-0.00731584
-0.00732691
-0.00737341
-0.00731584
-0.00738445
-0.00737334
-0.00731543
-0.00738478
-0.00738373
-0.00732691
-0.00731617
-0.00737338
-0.00731643
-0.00737332
-0.00738408
-0.00731547
-0.00731559
-0.00738472
-0.00738477
-0.00738458
-0.00757005
-0.00750107
-0.00750109
-0.00757009
-0.00750102
-0.00757009
-0.00757046
-0.00750085
-0.00750059
-0.00757027
-0.00751242
-0.00751242
-0.00751243
-0.00765134
-0.00765135
-0.00765132
-0.00765133
-0.00756973
-0.00750124
-0.00751236
-0.0075588
-0.00750124
-0.00756982
-0.00755879
-0.00750082
-0.00757014
-0.00756917
-0.00751236
-0.00750154
-0.0075588
-0.00750178
-0.00755878
-0.00756949
-0.00750081
-0.00750097
-0.00757019
-0.00757015
-0.00756999
-0.00775549
-0.00768644
-0.00768646
-0.00775551
-0.00768643
-0.00775546
-0.00775586
-0.00768626
-0.007686
-0.00775569
-0.00769792
-0.00769789
-0.00769793
-0.00783673
-0.00783674
-0.00783677
-0.00783677
-0.00775519
-0.0076867
-0.00769781
-0.00774429
-0.00768673
-0.00775533
-0.00774424
-0.00768626
-0.00775561
-0.00775461
-0.00769779
-0.00768698
-0.00774428
-0.00768723
-0.00774423
-0.00775492
-0.00768627
-0.00768641
-0.00775568
-0.00775564
-0.00775544
-0.0079409
-0.00787186
-0.0078719
-0.00794093
-0.00787187
-0.00794094
-0.00794132
-0.00787167
-0.00787147
-0.00794108
-0.00788326
-0.0078833
-0.00788328
-0.00802208
-0.00802213
-0.00802211
-0.00802211
-0.00794058
-0.00787213
-0.00788318
-0.00792967
-0.00787211
-0.00794066
-0.0079296
-0.0078717
-0.00794104
-0.00794005
-0.00788326
-0.00787241
-0.00792968
-0.00787271
-0.00792964
-0.0079404
-0.00787174
-0.00787191
-0.00794106
-0.0079411
-0.00794091
-0.00812618
-0.00805722
-0.0080572
-0.00812622
-0.00805723
-0.0081262
-0.00812658
-0.00805703
-0.00805681
-0.00812637
-0.00806866
-0.0080686
-0.00806864
-0.00820735
-0.00820735
-0.00820733
-0.00820738
-0.00812592
-0.00805746
-0.00806856
-0.00811498
-0.00805749
-0.00812602
-0.00811493
-0.00805707
-0.00812632
-0.00812534
-0.00806856
-0.00805777
-0.00811494
-0.00805808
-0.00811492
-0.00812574
-0.00805714
-0.00805726
-0.00812641
-0.00812633
-0.00812621
-0.00831133
-0.00824241
-0.00824245
-0.00831134
-0.00824243
-0.00831137
-0.00831179
-0.00824224
-0.00824204
-0.00831155
-0.00825382
-0.00825382
-0.00825384
-0.0083925
-0.00839247
-0.00839253
-0.00839252
-0.00831106
-0.00824263
-0.00825375
-0.00830013
-0.00824269
-0.00831115
-0.00830011
-0.00824228
-0.00831152
-0.00831052
-0.00825379
-0.00824296
-0.0083002
-0.00824328
-0.00830011
-0.0083109
-0.00824229
-0.00824247
-0.00831154
-0.00831154
-0.00831137
-0.00849643
-0.00842754
-0.00842755
-0.00849651
-0.00842752
-0.00849643
-0.00849691
-0.00842738
-0.00842718
-0.0084967
-0.00843896
-0.008439
-0.00843901
-0.00857764
-0.00857762
-0.00857767
-0.00857765
-0.00849626
-0.00842783
-0.00843889
-0.00848525
-0.00842782
-0.00849637
-0.00848524
-0.00842745
-0.00849668
-0.0084956
-0.00843893
-0.0084281
-0.00848531
-0.00842842
-0.00848529
-0.00849602
-0.00842746
-0.0084276
-0.0084967
-0.00849668
-0.00849653
-0.00868159
-0.0086127
-0.00861266
-0.00868161
-0.00861266
-0.00868162
-0.00868208
-0.00861255
-0.00861234
-0.00868187
-0.00862409
-0.00862415
-0.00862415
-0.00876274
-0.00876277
-0.00876277
-0.00876277
-0.00868133
-0.00861298
-0.00862404
-0.00867042
-0.00861297
-0.00868141
-0.00867036
-0.00861257
-0.00868182
-0.00868081
-0.0086241
-0.00861326
-0.00867044
-0.00861353
-0.00867041
-0.00868122
-0.00861261
-0.00861278
-0.00868183
-0.00868182
-0.00868165
-0.00886667
-0.00879779
-0.00879783
-0.00886673
-0.00879778
-0.0088667
-0.00886714
-0.00879759
-0.00879737
-0.00886693
-0.00880919
-0.00880922
-0.00880921
-0.0089478
-0.00894782
-0.00894779
-0.00894783
-0.00886645
-0.00879804
-0.00880913
-0.00885551
-0.00879806
-0.00886657
-0.00885544
-0.00879769
-0.00886687
-0.00886586
-0.00880913
-0.00879838
-0.0088555
-0.00879869
-0.00885547
-0.00886625
-0.00879771
-0.00879787
-0.00886693
-0.00886685
-0.00886672
-0.00905173
-0.00898287
-0.00898292
-0.00905178
-0.00898286
-0.00905178
-0.00905212
-0.00898268
-0.00898248
-0.00905195
-0.00899427
-0.00899423
-0.00899428
-0.00913279
-0.00913279
-0.00913275
-0.00913277
-0.00905142
-0.00898312
-0.00899418
-0.00904051
-0.00898315
-0.0090515
-0.00904047
-0.00898275
-0.00905192
-0.00905087
-0.00899418
-0.0089834
-0.00904052
-0.00898368
-0.00904049
-0.00905128
-0.00898274
-0.00898289
-0.00905191
-0.00905192
-0.0090517
-0.00923669
-0.00916788
-0.00916788
-0.00923672
-0.00916786
-0.00923668
-0.00923716
-0.00916764
-0.0091674
-0.00923689
-0.00917923
-0.00917919
-0.00917922
-0.00931781
-0.00931778
-0.00931775
-0.00931776
-0.00923641
-0.00916808
-0.00917911
-0.00922552
-0.00916806
-0.00923654
-0.00922544
-0.00916766
-0.00923685
-0.00923581
-0.00917914
-0.00916838
-0.00922549
-0.00916865
-0.00922545
-0.00923622
-0.00916772
-0.00916788
-0.00923687
-0.00923687
-0.00923672
-0.00942164
-0.00935283
-0.00935282
-0.00942172
-0.00935283
-0.00942173
-0.00942214
-0.00935265
-0.00935239
-0.00942192
-0.00936422
-0.0093642
-0.0093642
-0.0095028
-0.00950277
-0.00950278
-0.0095028
-0.00942139
-0.00935307
-0.00936418
-0.00941048
-0.00935305
-0.0094215
-0.00941046
-0.00935271
-0.00942186
-0.00942086
-0.00936413
-0.00935337
-0.00941052
-0.00935369
-0.00941046
-0.00942121
-0.00935269
-0.00935284
-0.00942189
-0.00942182
-0.00942166
-0.00960667
-0.00953783
-0.00953785
-0.00960674
-0.00953782
-0.00960665
-0.00960711
-0.00953765
-0.00953741
-0.0096069
-0.00954923
-0.00954923
-0.00954925
-0.00968782
-0.0096878
-0.00968783
-0.00968781
-0.00960645
-0.0095381
-0.00954916
-0.00959553
-0.00953807
-0.00960655
-0.00959547
-0.00953766
-0.00960687
-0.00960584
-0.00954917
-0.00953835
-0.00959552
-0.00953866
-0.00959551
-0.00960621
-0.00953768
-0.00953786
-0.00960694
-0.00960688
-0.0096067
-0.00979182
-0.0097229
-0.0097229
-0.00979183
-0.00972284
-0.00979182
-0.00979226
-0.0097227
-0.00972248
-0.00979202
-0.0097343
-0.00973431
-0.00973427
-0.00987306
-0.00987295
-0.00987299
-0.00987299
-0.00979149
-0.00972309
-0.00973424
-0.00978056
-0.00972314
-0.00979159
-0.00978055
-0.00972275
-0.00979194
-0.00979098
-0.00973422
-0.00972344
-0.0097806
-0.00972373
-0.00978056
-0.00979132
-0.00972278
-0.00972291
-0.00979197
-0.00979196
-0.00979181
-0.00997694
-0.00990802
-0.00990807
-0.00997699
-0.00990802
-0.00997694
-0.0099774
-0.00990785
-0.00990761
-0.0099772
-0.00991952
-0.00991953
-0.00991946
-0.0100579
-0.00997667
-0.00990833
-0.00991937
-0.00996582
-0.00990829
-0.00997677
-0.00996578
-0.00990785
-0.00997707
-0.00997607
-0.0099194
-0.00990855
-0.00996581
-0.00990889
-0.00996575
-0.00997652
-0.00990788
-0.00990805
-0.00997713
-0.00997715
-0.00997695
-0.00701408
-0.00694508
-0.00701411
-0.00694527
-0.00701327
-0.0069456
-0.00695683
-0.0070029
-0.00700294
-0.00694618
-0.00701369
-0.00701328
-0.00694572
-0.00695685
-0.00700293
-0.0070136
-0.00700292
-0.00694617
-0.00703777
-0.00710679
-0.00710676
-0.00703778
-0.00703779
-0.00710677
-0.00703776
-0.00710678
-0.00703862
-0.00704908
-0.00710627
-0.00709531
-0.007049
-0.00710589
-0.00703822
-0.00703862
-0.00704906
-0.00710624
-0.00709531
-0.00703826
-0.00704896
-0.00710587
-0.00694519
-0.00694502
-0.0070144
-0.00701403
-0.00701443
-0.00694506
-0.00701437
-0.00710679
-0.00703777
-0.00703764
-0.00710679
-0.0071068
-0.00703775
-0.00703763
-0.00710683
-0.00703764
-0.00701382
-0.00694538
-0.00695657
-0.00700295
-0.00700297
-0.00694537
-0.00701395
-0.00701461
-0.00694498
-0.00701442
-0.00694477
-0.0070138
-0.00695658
-0.00694533
-0.00700294
-0.00700299
-0.00701401
-0.00694537
-0.00703739
-0.00710698
-0.00710723
-0.0070376
-0.00703804
-0.00704912
-0.00710652
-0.00709532
-0.00704907
-0.00710655
-0.00703792
-0.00703738
-0.00710697
-0.00703761
-0.00710723
-0.00703802
-0.00704906
-0.00709532
-0.00710657
-0.00704906
-0.00703792
-0.00710649
-0.00701463
-0.00694503
-0.00701443
-0.00694482
-0.00701385
-0.00695665
-0.00694545
-0.00700294
-0.00700293
-0.00701397
-0.00694548
-0.00701463
-0.00694501
-0.0070144
-0.00694479
-0.00703807
-0.00704909
-0.00710646
-0.00709531
-0.00703797
-0.00704905
-0.00710643
-0.00703744
-0.00710691
-0.00703758
-0.00710717
-0.00703809
-0.00704903
-0.00709531
-0.00710647
-0.00704898
-0.00703802
-0.00710644
-0.00703747
-0.00710693
-0.00703764
-0.00710717
-0.00694495
-0.00694516
-0.00701438
-0.00701434
-0.00701418
-0.00694517
-0.0070142
-0.00710693
-0.00703767
-0.0070376
-0.00710692
-0.00710674
-0.0070376
-0.00703772
-0.00710678
-0.00703777
-0.00701328
-0.00695633
-0.00694559
-0.00700303
-0.00700309
-0.00701367
-0.00694587
-0.00701415
-0.00694516
-0.00701422
-0.00694508
-0.00701413
-0.00694515
-0.00701419
-0.00694509
-0.00703861
-0.00704911
-0.00709525
-0.00710627
-0.00704904
-0.00703824
-0.00710587
-0.00703858
-0.00704905
-0.00709525
-0.00710621
-0.00704897
-0.00703825
-0.00710587
-0.00703782
-0.0071068
-0.00703779
-0.00710675
-0.0070378
-0.00710674
-0.00703778
-0.00710675
-0.00694504
-0.00701433
-0.00694515
-0.00701417
-0.00703758
-0.00710688
-0.0071067
-0.00703767
-0.00703777
-0.00710689
-0.00703768
-0.00710675
-0.00703777
-0.0071304
-0.00719934
-0.00713025
-0.00719949
-0.00713042
-0.00713024
-0.00719953
-0.00719933
-0.00719951
-0.00729196
-0.00722294
-0.00729208
-0.0072228
-0.0072228
-0.00729191
-0.00729207
-0.00722292
-0.00722278
-0.00719938
-0.00713038
-0.0071304
-0.00719938
-0.0071985
-0.00713091
-0.00714185
-0.00718818
-0.00713122
-0.00719882
-0.00718815
-0.00719846
-0.0071309
-0.00714188
-0.0071881
-0.0071312
-0.00719889
-0.00718816
-0.00722307
-0.00729195
-0.00722295
-0.00729197
-0.00722302
-0.00729203
-0.00722297
-0.007292
-0.00722383
-0.00723434
-0.00729143
-0.00728058
-0.00722342
-0.00723425
-0.00729112
-0.0072238
-0.00723425
-0.00729149
-0.00728054
-0.00722344
-0.00723423
-0.00729114
-0.00713043
-0.00713021
-0.00719951
-0.00719936
-0.00719946
-0.0071302
-0.00719946
-0.00729202
-0.00722297
-0.00722278
-0.00729199
-0.00729206
-0.00722296
-0.00722276
-0.0072921
-0.0072228
-0.00719905
-0.00713065
-0.00714183
-0.00718814
-0.00713069
-0.00719917
-0.00718813
-0.00719975
-0.00713021
-0.00712995
-0.00719954
-0.00719907
-0.00714187
-0.00713062
-0.00718812
-0.00713065
-0.00718814
-0.00719913
-0.00722255
-0.00729213
-0.00722275
-0.00729235
-0.00722326
-0.00723431
-0.0072917
-0.00728051
-0.00722315
-0.00723423
-0.00729169
-0.00722257
-0.00729214
-0.00722276
-0.0072924
-0.00722325
-0.0072342
-0.00728053
-0.0072917
-0.0072342
-0.00722312
-0.00729165
-0.00719975
-0.00713016
-0.00712987
-0.00719952
-0.00719901
-0.00714184
-0.00713056
-0.00718811
-0.00713058
-0.0071881
-0.00719912
-0.00719975
-0.00713016
-0.00712987
-0.00719949
-0.0072232
-0.00723429
-0.00729167
-0.0072805
-0.00722313
-0.00723424
-0.00729162
-0.00722256
-0.00729216
-0.00722275
-0.00729239
-0.0072232
-0.00723419
-0.0072805
-0.0072917
-0.0072342
-0.00722313
-0.00729163
-0.00722253
-0.00729213
-0.00722272
-0.0072924
-0.00713025
-0.00713039
-0.00719951
-0.00719949
-0.00719936
-0.00713037
-0.00719936
-0.00729208
-0.00722281
-0.00722273
-0.00729207
-0.00729189
-0.0072228
-0.00722293
-0.00729192
-0.00722295
-0.00719842
-0.00714191
-0.00713088
-0.00718811
-0.00713118
-0.00718813
-0.00719882
-0.00719928
-0.00713039
-0.00713032
-0.00719936
-0.00719928
-0.00713035
-0.00713032
-0.00719931
-0.00722372
-0.00723428
-0.00728048
-0.00729141
-0.00723424
-0.00722343
-0.00729105
-0.00722375
-0.00723418
-0.00728047
-0.00729139
-0.00723414
-0.00722338
-0.00729103
-0.00722294
-0.00729191
-0.00722295
-0.00729189
-0.00722295
-0.00729193
-0.0072229
-0.00729191
-0.0071302
-0.00719943
-0.00713033
-0.0071993
-0.0072227
-0.00729209
-0.00729191
-0.00722273
-0.00722291
-0.00729208
-0.00722277
-0.00729192
-0.0072229
-0.00731561
-0.0073847
-0.00731544
-0.00738481
-0.00731562
-0.00731546
-0.00738486
-0.0073847
-0.0073848
-0.00747739
-0.0074083
-0.00747747
-0.00740817
-0.00740814
-0.00747736
-0.00747747
-0.00740829
-0.00740814
-0.00738467
-0.00731568
-0.00731567
-0.00738466
-0.00738381
-0.00731615
-0.00732708
-0.00737344
-0.00731648
-0.00738423
-0.00737344
-0.00738383
-0.00731615
-0.00732707
-0.00737341
-0.00731648
-0.00738412
-0.00737343
-0.00740839
-0.0074774
-0.00740832
-0.00747738
-0.00740834
-0.00747736
-0.00740829
-0.00747741
-0.00740918
-0.00741966
-0.00747687
-0.00746593
-0.00740879
-0.00741961
-0.00747652
-0.00740918
-0.00741962
-0.00747687
-0.00746593
-0.00740877
-0.00741959
-0.0074765
-0.00731567
-0.00731541
-0.00738482
-0.00738454
-0.0073849
-0.00731546
-0.00738481
-0.00747737
-0.00740829
-0.00740811
-0.00747737
-0.00747738
-0.00740828
-0.00740808
-0.00747742
-0.00740811
-0.00738431
-0.00731583
-0.007327
-0.00737341
-0.00731586
-0.00738444
-0.00737335
-0.00738506
-0.00731538
-0.00731514
-0.00738484
-0.00738432
-0.00732704
-0.00731579
-0.00737336
-0.00731586
-0.00737337
-0.00738439
-0.00740791
-0.00747754
-0.00740811
-0.00747776
-0.00740859
-0.00741961
-0.00747711
-0.0074659
-0.00740851
-0.00741954
-0.00747706
-0.00740791
-0.0074775
-0.00740807
-0.00747779
-0.00740856
-0.00741956
-0.0074659
-0.00747707
-0.00741951
-0.00740843
-0.00747706
-0.00738505
-0.00731541
-0.00731515
-0.00738484
-0.00738431
-0.00732699
-0.00731581
-0.00737334
-0.00731581
-0.00737332
-0.00738443
-0.00738504
-0.0073154
-0.00731512
-0.00738482
-0.00740852
-0.00741964
-0.00747708
-0.00746589
-0.00740846
-0.00741959
-0.00747704
-0.00740787
-0.0074775
-0.00740804
-0.00747775
-0.00740854
-0.00741957
-0.00746591
-0.00747704
-0.00741953
-0.00740841
-0.00747699
-0.00740785
-0.00747744
-0.00740806
-0.00747772
-0.00731542
-0.00731557
-0.00738479
-0.00738479
-0.00738461
-0.00731554
-0.00738461
-0.00747744
-0.00740813
-0.00740808
-0.00747742
-0.00747726
-0.00740809
-0.00740822
-0.0074773
-0.00740823
-0.00738371
-0.007327
-0.00731609
-0.00737335
-0.00731639
-0.00737336
-0.0073841
-0.00738456
-0.00731554
-0.00731551
-0.00738462
-0.00738453
-0.00731555
-0.00731553
-0.00738461
-0.00740912
-0.00741963
-0.00746589
-0.00747677
-0.00741959
-0.00740874
-0.00747641
-0.00740907
-0.00741955
-0.00746586
-0.00747675
-0.00741955
-0.00740873
-0.00747643
-0.00740827
-0.00747732
-0.00740826
-0.00747732
-0.00740823
-0.00747726
-0.00740822
-0.0074773
-0.00731544
-0.00738475
-0.00731553
-0.0073846
-0.007408
-0.0074774
-0.00747726
-0.00740809
-0.00740825
-0.00747739
-0.00740811
-0.00747728
-0.00740822
-0.00750104
-0.00757008
-0.00750086
-0.0075702
-0.00750103
-0.00750085
-0.00757027
-0.0075701
-0.00757021
-0.00766278
-0.00759371
-0.00766291
-0.00759356
-0.00759354
-0.00766273
-0.00766292
-0.0075937
-0.00759355
-0.00757008
-0.00750104
-0.00750103
-0.0075701
-0.00756921
-0.00750153
-0.00751246
-0.00755886
-0.00750187
-0.00756961
-0.00755887
-0.00756919
-0.00750158
-0.0075125
-0.00755885
-0.00750184
-0.00756962
-0.00755888
-0.00759378
-0.00766277
-0.00759373
-0.00766277
-0.00759379
-0.00766277
-0.00759371
-0.00766278
-0.0075946
-0.00760504
-0.00766226
-0.00765137
-0.00759422
-0.00760502
-0.00766192
-0.0075946
-0.00760504
-0.00766226
-0.00765138
-0.00759418
-0.007605
-0.00766193
-0.00750104
-0.0075008
-0.00757026
-0.00757008
-0.0075702
-0.00750082
-0.00757017
-0.00766276
-0.0075937
-0.00759356
-0.00766275
-0.00766287
-0.00759369
-0.00759352
-0.00766288
-0.00759354
-0.00756974
-0.00750125
-0.00751241
-0.00755881
-0.00750127
-0.00756988
-0.0075588
-0.00757044
-0.00750078
-0.00750056
-0.00757021
-0.00756976
-0.00751243
-0.00750122
-0.00755879
-0.00750125
-0.00755883
-0.00756984
-0.00759331
-0.00766296
-0.00759354
-0.00766317
-0.00759395
-0.00760501
-0.00766255
-0.00765136
-0.00759393
-0.00760499
-0.00766248
-0.00759329
-0.00766293
-0.00759344
-0.00766319
-0.00759395
-0.007605
-0.00765134
-0.00766253
-0.00760498
-0.00759385
-0.00766249
-0.00757039
-0.00750076
-0.00750048
-0.00757024
-0.00756973
-0.00751243
-0.00750119
-0.00755878
-0.00750121
-0.00755881
-0.00756982
-0.0075704
-0.00750074
-0.00750048
-0.0075702
-0.00759402
-0.00760512
-0.00766256
-0.00765135
-0.00759385
-0.00760504
-0.00766243
-0.00759327
-0.00766296
-0.0075935
-0.00766321
-0.00759399
-0.00760498
-0.00765135
-0.00766251
-0.00760496
-0.00759385
-0.00766247
-0.00759327
-0.00766293
-0.00759347
-0.00766322
-0.00750081
-0.00750094
-0.00757018
-0.00757019
-0.00757001
-0.00750093
-0.00756999
-0.00766287
-0.00759349
-0.00759346
-0.00766287
-0.0076627
-0.00759347
-0.00759362
-0.00766271
-0.00759361
-0.00756918
-0.0075124
-0.00750149
-0.0075588
-0.00750177
-0.00755877
-0.00756954
-0.00756998
-0.00750095
-0.00750095
-0.00757001
-0.00756997
-0.00750094
-0.00750093
-0.00757003
-0.00759454
-0.00760511
-0.00765136
-0.00766222
-0.00760504
-0.00759412
-0.00766187
-0.00759453
-0.00760501
-0.00765134
-0.00766222
-0.00760495
-0.00759415
-0.00766184
-0.00759366
-0.00766272
-0.00759362
-0.00766273
-0.00759368
-0.00766274
-0.00759366
-0.00766272
-0.00750078
-0.00757014
-0.00750092
-0.00757001
-0.00759347
-0.00766286
-0.00766273
-0.00759348
-0.00759366
-0.00766288
-0.00759351
-0.00766275
-0.00759366
-0.00768643
-0.0077555
-0.0076863
-0.00775564
-0.00768642
-0.00768631
-0.00775568
-0.00775549
-0.00775566
-0.00784821
-0.00777912
-0.00784832
-0.007779
-0.00777891
-0.00784819
-0.00784831
-0.0077791
-0.00777898
-0.0077555
-0.00768644
-0.00768639
-0.00775549
-0.00775465
-0.00768691
-0.0076979
-0.00774427
-0.00768728
-0.007755
-0.00774423
-0.00775466
-0.00768694
-0.00769793
-0.00774425
-0.00768724
-0.00775501
-0.00774424
-0.00777923
-0.00784822
-0.00777912
-0.00784822
-0.00777921
-0.00784822
-0.00777914
-0.00784823
-0.00778002
-0.00779046
-0.00784771
-0.00783678
-0.0077796
-0.00779043
-0.0078473
-0.00777999
-0.00779047
-0.00784773
-0.00783676
-0.00777963
-0.0077904
-0.00784731
-0.00768646
-0.00768627
-0.00775566
-0.00775538
-0.00775576
-0.00768628
-0.00775569
-0.00784823
-0.00777911
-0.00777897
-0.00784823
-0.00784827
-0.00777906
-0.00777901
-0.0078483
-0.00777903
-0.0077551
-0.00768666
-0.00769789
-0.00774426
-0.00768668
-0.0077553
-0.00774427
-0.00775588
-0.00768621
-0.00768596
-0.00775566
-0.00775515
-0.00769791
-0.00768662
-0.00774422
-0.00768669
-0.00774423
-0.00775529
-0.00777876
-0.00784838
-0.00777895
-0.00784862
-0.00777936
-0.00779047
-0.00784796
-0.00783672
-0.00777931
-0.00779042
-0.00784791
-0.00777875
-0.0078484
-0.00777892
-0.00784868
-0.00777938
-0.00779047
-0.00783677
-0.00784796
-0.00779038
-0.00777929
-0.00784785
-0.00775593
-0.00768624
-0.00768594
-0.00775571
-0.00775521
-0.00769789
-0.00768665
-0.00774424
-0.00768672
-0.00774426
-0.00775532
-0.00775592
-0.00768623
-0.00768597
-0.0077557
-0.00777943
-0.0077905
-0.00784799
-0.00783676
-0.00777936
-0.00779049
-0.0078479
-0.00777874
-0.00784837
-0.00777897
-0.00784866
-0.00777938
-0.00779045
-0.00783679
-0.00784793
-0.00779043
-0.00777935
-0.00784791
-0.00777873
-0.00784835
-0.00777894
-0.00784866
-0.00768626
-0.00768639
-0.00775565
-0.00775562
-0.00775545
-0.00768637
-0.00775547
-0.00784833
-0.00777896
-0.00777898
-0.00784832
-0.00784815
-0.00777893
-0.00777911
-0.0078482
-0.00777911
-0.00775461
-0.00769787
-0.00768689
-0.00774427
-0.00768722
-0.00774425
-0.00775497
-0.00775545
-0.00768638
-0.00768637
-0.00775547
-0.00775545
-0.00768639
-0.00768638
-0.00775543
-0.00777999
-0.00779054
-0.00783679
-0.00784767
-0.00779048
-0.0077796
-0.00784733
-0.00777999
-0.0077905
-0.00783675
-0.0078477
-0.00779043
-0.00777958
-0.00784736
-0.00777914
-0.0078482
-0.00777912
-0.00784823
-0.00777913
-0.00784823
-0.00777908
-0.00784824
-0.00768626
-0.00775563
-0.00768638
-0.00775544
-0.00777896
-0.00784832
-0.00784817
-0.007779
-0.0077791
-0.00784832
-0.007779
-0.0078482
-0.00777908
-0.00787184
-0.00794091
-0.0078717
-0.00794102
-0.00787188
-0.00787171
-0.00794107
-0.00794091
-0.00794102
-0.00803356
-0.00796454
-0.00803368
-0.00796439
-0.00796436
-0.00803353
-0.00803367
-0.00796452
-0.00796436
-0.00794091
-0.00787188
-0.00787187
-0.00794094
-0.00794002
-0.00787241
-0.00788327
-0.00792968
-0.00787269
-0.00794042
-0.00792966
-0.00794005
-0.00787239
-0.0078833
-0.00792965
-0.00787265
-0.00794045
-0.00792965
-0.00796461
-0.00803358
-0.00796455