/*--------------------------------*- C++ -*----------------------------------*\
| =========                 |                                                 |
| \\      /  F ield         | OpenFOAM: The Open Source CFD Toolbox           |
|  \\    /   O peration     | Version:  2206                                  |
|   \\  /    A nd           | Website:  www.openfoam.com                      |
|    \\/     M anipulation  |                                                 |
\*---------------------------------------------------------------------------*/
FoamFile
{
    version     2.0;
    format      ascii;
    arch        "LSB;label=32;scalar=64";
    class       surfaceScalarField;
    location    "90";
    object      phi;
}
// * * * * * * * * * * * * * * * * * * * * * * * * * * * * * * * * * * * * * //

dimensions      [0 3 -1 0 0 0 0];

oriented        oriented;

internalField   nonuniform List<scalar> 
197159
(
-3.30115e-11
-3.65775e-11
2.75734e-08
-2.74211e-08
-4.20289e-11
-4.07467e-11
-5.87559e-12
-3.24788e-11
-1.82795e-11
1.73011e-11
-1.8251e-11
-2.92819e-11
2.84066e-11
1.89567e-11
1.16557e-07
1.90875e-11
5.8112e-12
-1.45762e-11
-3.57209e-11
-3.41815e-11
3.42827e-11
6.09702e-11
-5.85793e-11
5.85337e-11
-6.01334e-11
1.14398e-07
2.84778e-11
5.2433e-11
-2.50536e-12
-5.38821e-12
-3.03922e-11
3.44421e-11
4.05244e-11
-5.83273e-11
5.68707e-11
-4.1091e-11
1.15449e-07
-2.86177e-11
-2.74434e-08
-5.09706e-11
-2.52079e-11
2.75767e-08
-3.3165e-11
-1.06906e-10
-3.29723e-11
-3.967e-11
5.94014e-12
-2.90287e-11
4.02096e-11
-4.64861e-12
1.15478e-07
-1.4691e-11
4.27314e-11
4.14373e-11
2.74208e-08
3.27731e-11
3.57402e-11
-2.74202e-08
-4.19106e-11
-4.05301e-11
-3.33354e-11
-3.65752e-11
2.75726e-08
-5.44417e-11
1.21799e-07
7.83574e-11
-9.1291e-12
1.22107e-07
-1.56959e-11
3.4746e-12
3.70288e-13
6.79382e-09
-6.79914e-09
1.46906e-12
5.13076e-12
2.41236e-12
6.65871e-09
1.19125e-12
3.23123e-12
2.18565e-08
1.56751e-11
-2.18706e-08
-1.36455e-12
9.24304e-12
2.13876e-08
2.22016e-11
-2.14098e-08
-4.10539e-12
5.17826e-12
-1.36248e-08
1.34847e-12
1.36165e-08
2.13561e-12
1.23991e-11
-2.14471e-08
5.78212e-12
2.14373e-08
1.31505e-11
4.20611e-12
1.331e-08
1.14344e-12
4.91755e-11
5.61503e-14
-4.55208e-12
-1.5036e-11
1.98421e-08
2.98032e-11
-2.1075e-08
1.45366e-11
2.10531e-08
-8.67727e-13
7.37955e-12
9.85145e-11
-1.31076e-10
1.31477e-10
-9.88433e-11
1.18303e-07
-1.74462e-14
-2.41655e-08
-1.0134e-11
9.32904e-11
2.41316e-08
1.34525e-11
-2.37256e-12
3.69049e-12
1.33128e-08
1.05982e-12
4.91414e-11
-1.50546e-11
-4.51569e-12
1.98386e-08
2.83586e-12
8.10447e-11
-1.30557e-10
1.31244e-10
-8.02915e-11
1.19568e-07
-9.54716e-12
3.03425e-11
-2.10627e-08
1.46527e-11
2.10407e-08
-2.41618e-08
9.33632e-11
-1.00579e-11
2.41276e-08
5.44485e-12
6.66134e-09
8.29837e-13
2.23226e-11
-2.14645e-08
-4.01157e-12
2.14421e-08
-2.7301e-12
3.63534e-12
1.51787e-11
-2.18286e-08
-1.15056e-12
2.18137e-08
4.62111e-13
-6.80094e-09
6.79582e-09
1.92018e-12
-5.06119e-12
1.22206e-11
-2.14562e-08
6.29125e-12
2.14464e-08
-1.36273e-08
1.36243e-12
1.36195e-08
1.75772e-12
-2.41306e-12
6.79878e-09
3.95676e-13
-2.93927e-12
3.75184e-12
6.79333e-09
-6.79858e-09
1.4052e-14
1.49051e-12
-5.0102e-12
6.6672e-09
-2.16029e-12
-1.30318e-12
5.14627e-12
6.65883e-09
-6.66735e-09
2.67439e-12
7.01236e-13
-1.53965e-11
3.97709e-13
2.18722e-08
-3.15061e-12
-2.21033e-11
4.28654e-12
2.14099e-08
-9.45644e-12
2.75727e-08
-2.74208e-08
-4.18951e-11
-4.08639e-11
-3.29291e-11
-3.62495e-11
2.18579e-08
-9.05872e-13
-2.18723e-08
1.58207e-11
3.20361e-12
2.13879e-08
-4.69567e-12
-2.14095e-08
2.2137e-11
9.27898e-12
3.29636e-12
-6.79854e-09
-6.27785e-13
6.79355e-09
2.31336e-12
-2.16787e-12
6.79837e-09
-1.79141e-13
-2.69105e-12
4.35736e-12
-6.66815e-09
2.50848e-12
6.65977e-09
1.51538e-12
-5.30374e-12
6.66762e-09
-2.29171e-12
-1.20119e-12
2.74203e-08
4.28856e-11
4.15177e-11
3.2689e-11
3.5379e-11
1.56489e-11
-2.18736e-08
8.72565e-15
2.57768e-12
2.18587e-08
2.15401e-11
-2.14108e-08
-4.37587e-12
9.17017e-12
2.13888e-08
9.42405e-13
-1.51824e-11
2.18733e-08
-3.35448e-12
4.01208e-12
-2.23448e-11
2.14105e-08
-9.58165e-12
-2.89443e-12
8.44349e-13
-3.34287e-12
-6.79375e-09
7.28426e-12
-1.71554e-11
1.98498e-08
1.12917e-11
-1.91221e-11
-2.37741e-08
-1.82131e-11
2.37522e-08
3.27482e-11
2.30948e-11
2.32169e-13
-1.53231e-11
-3.20564e-12
-1.29715e-08
7.39369e-12
-1.17232e-12
1.29627e-08
1.22902e-12
4.70578e-14
-2.04281e-12
-3.25949e-11
-2.17898e-11
-1.20526e-11
1.98324e-08
1.86353e-11
8.88131e-12
-2.41098e-11
1.88454e-08
1.44682e-11
-1.62464e-11
-2.27704e-08
-2.33313e-11
2.27436e-08
3.91794e-11
3.32114e-11
4.61524e-12
-2.21377e-11
-9.55898e-12
-1.26383e-08
8.96538e-12
-2.10229e-12
1.26262e-08
1.08186e-12
2.34156e-12
-1.22944e-12
-3.93699e-11
-3.38011e-11
-1.39011e-11
1.88286e-08
1.63546e-11
4.05984e-12
2.9017e-12
1.52358e-08
-5.54311e-09
3.92954e-12
5.53697e-09
1.03648e-12
-5.51582e-09
3.62116e-12
5.50889e-09
1.19771e-12
-2.14988e-12
-1.67067e-12
1.52174e-08
-5.85751e-12
-3.13532e-11
-2.18949e-12
-1.35845e-08
-2.10078e-08
1.09706e-11
9.0054e-12
2.0989e-08
8.42481e-14
-1.30326e-10
3.3615e-11
-2.0887e-08
-2.99128e-11
5.65231e-09
3.48778e-12
-5.64339e-09
-1.43875e-12
-3.55556e-12
7.02407e-12
2.63886e-11
2.04382e-08
2.15784e-12
5.48672e-09
1.40668e-12
-1.24055e-11
4.07632e-11
1.88292e-08
-1.28146e-12
-4.36751e-14
1.18213e-08
2.57094e-14
9.73911e-09
7.96857e-14
-3.75351e-12
6.84498e-12
2.65099e-11
2.0435e-08
1.95112e-12
5.48608e-09
1.41772e-12
-1.14005e-12
1.182e-08
3.79831e-14
-1.22862e-11
4.05897e-11
1.88235e-08
9.7372e-09
2.21862e-13
-2.51884e-11
8.61424e-12
1.88476e-08
1.40095e-11
-1.55539e-11
-2.31283e-08
-2.30034e-11
4.13591e-11
3.26973e-11
2.30996e-08
-2.20822e-11
4.89927e-12
-9.90904e-12
-1.26311e-08
9.09729e-12
-2.00284e-12
1.26189e-08
1.05518e-12
-4.00973e-11
-3.371e-11
2.32586e-12
-1.42897e-12
-1.36081e-11
1.70216e-11
1.88303e-08
7.02534e-12
-1.48678e-11
1.98643e-08
1.07445e-11
-2.0557e-11
-2.34059e-08
-1.84087e-11
3.00084e-11
2.51928e-11
2.33842e-08
3.49438e-13
-1.60581e-11
2.55052e-12
-1.55946e-12
-1.29903e-08
6.91687e-12
-7.68562e-13
1.29814e-08
1.6054e-12
-1.15782e-14
-1.97321e-12
-4.29531e-11
-5.69067e-12
-1.18696e-11
1.78907e-11
1.98468e-08
2.77786e-12
3.81995e-12
1.52448e-08
-5.51822e-09
3.66823e-12
5.51147e-09
1.08638e-12
-5.54629e-09
3.68925e-12
5.54036e-09
1.47094e-12
-1.68495e-12
-2.03676e-12
1.52267e-08
2.11332e-13
-2.75228e-12
-1.11093e-12
-4.40273e-12
-2.38945e-12
-2.1007e-08
1.05998e-12
8.84154e-12
2.09957e-08
2.74321e-12
-9.31377e-12
-1.25295e-12
-2.19673e-12
5.65309e-09
3.22431e-12
-5.65591e-09
6.54185e-13
6.79364e-09
2.86543e-12
7.4054e-14
2.19724e-12
-2.11872e-12
1.65172e-13
-2.99366e-12
6.65875e-09
4.56188e-12
2.37628e-12
1.49931e-12
-4.98599e-12
-2.23803e-12
-1.36565e-12
3.74061e-12
3.35463e-12
1.52359e-08
-1.52173e-08
-1.14849e-11
-1.4219e-11
-5.54298e-09
4.09337e-12
5.81201e-13
5.53683e-09
1.47694e-12
-5.51572e-09
3.14429e-12
2.46415e-12
5.50883e-09
1.28298e-12
-5.53693e-09
-4.24759e-13
-1.88968e-12
-5.50884e-09
-2.04502e-12
-1.48902e-12
1.16802e-11
1.4077e-11
1.52174e-08
-1.98501e-08
-7.54634e-12
1.7698e-11
-1.17803e-11
1.98331e-08
1.86605e-11
1.7147e-11
2.37745e-08
-3.29845e-11
-2.18418e-11
-7.27065e-12
1.29722e-08
1.26391e-13
-1.89355e-12
-6.34764e-13
1.57772e-11
2.18568e-08
3.15773e-12
1.11576e-11
-1.90591e-11
-4.0233e-13
1.29627e-08
1.70819e-12
2.3752e-08
3.28958e-11
2.29896e-11
-1.88457e-08
-9.06048e-12
2.31532e-11
-1.40534e-11
1.88292e-08
1.64108e-11
2.40047e-11
2.27709e-08
-3.93775e-11
-3.40959e-11
-8.82732e-12
1.26383e-08
2.18343e-12
-1.17988e-12
-3.99783e-12
2.23227e-11
2.13869e-08
9.17186e-12
1.42487e-11
-1.6103e-11
-2.05113e-12
1.26259e-08
1.41677e-12
2.27434e-08
3.95976e-11
3.34449e-11
-1.52357e-08
-4.02036e-12
-3.35916e-12
-3.94371e-12
5.54304e-09
-2.00328e-12
-3.09551e-12
5.51575e-09
-1.5637e-12
1.69655e-12
1.47817e-12
7.16231e-12
1.98505e-08
-1.71649e-11
-1.88768e-11
-1.29721e-08
7.42209e-12
1.2963e-08
1.36012e-12
6.84948e-13
-1.51514e-11
-3.151e-12
-1.8107e-11
-2.3774e-08
2.37523e-08
3.26445e-11
2.30296e-11
-1.97318e-12
1.9833e-08
1.84887e-11
-3.24973e-11
-2.18095e-11
8.91085e-12
1.88462e-08
-2.38636e-11
-1.63052e-11
-1.26382e-08
8.60548e-12
1.26262e-08
1.18392e-12
4.08697e-12
-2.20954e-11
-9.5398e-12
-2.35565e-11
-2.27706e-08
2.27436e-08
3.93922e-11
3.3321e-11
-1.38134e-12
1.88293e-08
1.61023e-11
-3.91801e-11
-3.40364e-11
-6.7934e-09
-2.1195e-12
-4.5903e-13
-2.56338e-12
3.1688e-12
-5.232e-13
2.32502e-12
-6.65938e-09
-5.4012e-12
-2.29652e-12
-1.07567e-12
4.27444e-12
2.25165e-12
1.71729e-12
-1.52359e-08
-4.08621e-12
-2.9519e-12
1.11997e-11
1.39925e-11
1.52178e-08
-3.7932e-12
5.54296e-09
-5.4912e-13
-1.79262e-12
-3.71703e-12
5.51581e-09
-1.90746e-12
-1.3518e-12
-1.18172e-11
-1.42744e-11
1.18854e-13
5.53695e-09
1.80754e-12
2.21483e-12
5.50903e-09
1.61034e-12
7.21412e-12
-1.77875e-11
1.98507e-08
-1.9833e-08
1.18192e-11
-1.89043e-11
-2.37734e-08
-1.73566e-11
3.25508e-11
2.37512e-08
2.26369e-11
1.31922e-12
-1.52451e-11
-2.1858e-08
-3.78463e-12
-1.29726e-08
7.3693e-12
2.50111e-14
1.29636e-08
1.69637e-12
-1.29632e-08
8.62396e-13
-1.77667e-12
-2.37517e-08
-3.25399e-11
-2.22033e-11
-1.11458e-11
1.83466e-11
1.98335e-08
9.29782e-12
-2.39609e-11
1.88464e-08
-1.88292e-08
1.40828e-11
-1.66318e-11
-2.27706e-08
-2.33144e-11
3.88797e-11
2.27432e-08
3.34005e-11
4.02758e-12
-2.25793e-11
-2.1388e-08
-9.64891e-12
-1.26393e-08
8.3077e-12
-2.21909e-12
1.26273e-08
1.48502e-12
-1.26268e-08
2.03731e-12
-1.22381e-12
-2.27434e-08
-3.95918e-11
-3.41452e-11
-1.39734e-11
1.57043e-11
1.88297e-08
-1.985e-08
-7.48605e-12
1.72926e-11
1.83892e-11
-7.32044e-12
1.29724e-08
-1.7665e-12
1.7302e-11
2.37741e-08
-3.24327e-11
-2.18409e-11
-1.45604e-13
1.58547e-11
2.79288e-12
-1.88775e-11
1.72902e-12
3.27193e-11
2.28269e-11
-1.88459e-08
-8.59191e-12
2.32338e-11
1.60007e-11
-9.29168e-12
1.26388e-08
-1.19136e-12
2.37521e-11
2.27709e-08
-3.93864e-11
-3.40452e-11
-4.14441e-12
2.19667e-11
9.01513e-12
-1.64314e-11
1.49393e-12
3.93253e-11
3.34008e-11
3.64136e-12
3.70092e-12
1.52364e-08
-5.54321e-09
4.07093e-12
5.53725e-09
1.9137e-12
-5.51613e-09
2.77447e-12
5.50944e-09
1.69033e-12
-1.76226e-12
-1.36255e-12
1.52181e-08
-1.91215e-11
-2.69106e-11
2.29089e-08
4.23162e-11
4.16547e-11
-2.60332e-08
-1.93098e-11
2.6025e-08
-2.47775e-08
-2.62423e-11
2.4768e-08
2.28984e-08
-3.7949e-11
-7.56564e-12
2.29002e-08
3.34121e-11
8.62095e-11
-2.58645e-08
-2.20993e-11
2.58466e-08
-2.49173e-08
-2.34961e-11
2.49126e-08
2.28896e-08
-2.29088e-08
1.91928e-11
2.60739e-11
2.28986e-08
1.8888e-11
2.60329e-08
-1.70464e-11
2.66723e-11
2.47777e-08
-3.43692e-11
-4.20279e-11
-4.1022e-11
2.75732e-08
-3.30162e-11
-3.63858e-11
2.60246e-08
1.83607e-11
2.4768e-08
3.44013e-11
-1.93521e-11
-2.67904e-11
2.29091e-08
-2.28985e-08
4.28194e-11
4.15737e-11
-2.75725e-08
3.25727e-11
3.53314e-11
-2.60323e-08
-1.88691e-11
1.81198e-11
2.60237e-08
-2.47768e-08
-2.60302e-11
3.41773e-11
2.4767e-08
-2.60242e-08
-1.71359e-11
-2.47675e-08
-3.41965e-11
2.28982e-08
6.89925e-13
1.25592e-07
5.94322e-11
1.29487e-07
-3.73418e-12
2.41985e-11
9.76022e-11
2.63601e-08
-3.29009e-11
-2.51293e-08
2.4933e-11
2.51106e-08
-1.21964e-11
-1.72284e-11
-2.35322e-08
1.26542e-11
2.35273e-08
7.10144e-12
-4.93168e-11
2.64092e-08
7.43461e-12
3.80483e-11
4.96419e-11
2.5995e-08
2.51929e-11
-2.47493e-08
3.67455e-11
2.4717e-08
-2.93028e-11
-1.51377e-11
-2.30378e-08
4.92383e-11
1.3742e-11
2.30157e-08
-1.42224e-11
-2.61867e-11
2.60471e-08
7.30747e-11
-1.84888e-11
2.60351e-08
1.03176e-11
-9.34292e-11
-4.6415e-14
-2.34257e-08
7.36294e-11
2.33965e-08
-2.69362e-08
-1.81258e-11
-7.28279e-12
2.69238e-08
6.94292e-12
2.59656e-08
4.88394e-11
4.12744e-11
2.59629e-08
-2.95073e-11
-2.47509e-08
4.02251e-11
2.47154e-08
-1.52766e-11
-2.91767e-11
-2.30249e-08
4.87211e-11
1.63426e-11
2.3001e-08
-1.70374e-11
2.87099e-11
2.59821e-08
-2.16834e-11
7.27477e-11
2.60324e-08
-9.33901e-11
1.02855e-11
-2.69332e-08
-2.1176e-11
2.69099e-08
-2.34157e-08
7.23138e-11
2.33902e-08
2.6032e-08
1.92384e-11
1.41816e-11
2.63822e-08
5.35346e-11
-2.51104e-08
2.1525e-11
2.50973e-08
-1.21698e-11
-6.03967e-12
-2.35291e-08
1.32407e-11
2.35266e-08
4.40274e-12
-4.08122e-12
2.64668e-08
-5.44773e-11
2.29093e-08
-1.90569e-11
-2.68977e-11
4.28256e-11
4.13806e-11
3.28219e-11
3.53937e-11
-1.9121e-11
-2.60328e-08
2.60244e-08
1.82815e-11
-2.61941e-11
-2.47776e-08
2.47678e-08
3.44728e-11
2.28986e-08
-1.6943e-11
-3.42672e-11
-2.29092e-08
1.89075e-11
2.61828e-11
-4.19904e-11
-4.08989e-11
-3.30657e-11
-3.63119e-11
1.91654e-11
2.60327e-08
-1.704e-11
2.67297e-11
2.47774e-08
-3.4139e-11
1.81276e-11
3.45071e-11
-1.93477e-12
6.88794e-13
2.35691e-12
-1.52339e-12
1.21799e-07
-3.5775e-11
-2.09103e-12
-1.14304e-12
1.14384e-07
3.41369e-11
3.71463e-11
-2.97967e-11
-6.04758e-11
5.89489e-11
-6.16133e-11
6.14747e-11
-1.14385e-07
-4.24715e-11
7.80376e-13
-4.57564e-12
1.15483e-07
2.0181e-11
4.24238e-11
-2.19213e-11
-4.93916e-12
2.97847e-11
-3.02776e-11
6.19065e-12
2.48549e-11
4.11579e-11
5.03741e-11
3.52489e-11
2.74359e-08
-2.75875e-08
-1.10908e-12
2.07232e-12
-1.218e-07
-9.34481e-13
1.06824e-12
1.21799e-07
-1.14384e-07
-3.58658e-11
-1.76466e-12
-8.01678e-13
1.14383e-07
3.41246e-11
3.70421e-11
-3.35681e-11
-6.01496e-11
5.94066e-11
6.18379e-11
-5.89539e-11
-1.15482e-07
-4.06347e-11
8.93278e-13
-6.45826e-13
1.15479e-07
2.17681e-11
4.19739e-11
-2.18985e-11
-4.88835e-12
2.99501e-11
6.30444e-12
-3.02903e-11
-2.75863e-08
2.48281e-11
4.14119e-11
5.05129e-11
3.54076e-11
2.74342e-08
-6.99544e-13
1.05422e-12
-1.21801e-07
-9.92154e-13
4.86475e-13
1.21802e-07
-1.14381e-07
-3.58555e-11
-1.01088e-12
-1.04321e-12
1.1438e-07
3.39614e-11
3.71324e-11
-3.01453e-11
-6.03126e-11
5.91306e-11
6.13679e-11
-6.16248e-11
-1.15475e-07
-4.08162e-11
1.85185e-12
-5.70909e-13
1.15474e-07
2.16222e-11
4.1877e-11
-2.2003e-11
-5.45501e-12
2.94754e-11
5.79044e-12
-3.04711e-11
-2.7586e-08
2.52595e-11
4.16636e-11
5.02405e-11
3.49137e-11
2.74339e-08
-9.12034e-13
1.45622e-12
-1.21806e-07
-1.15079e-12
1.74429e-13
1.21807e-07
-1.14382e-07
-3.56398e-11
-3.11583e-13
-1.39344e-12
1.14381e-07
3.39154e-11
3.73103e-11
-3.35076e-11
-6.06329e-11
5.88338e-11
6.11295e-11
-5.92375e-11
-1.15473e-07
-4.1009e-11
1.61721e-12
-1.4485e-13
1.15472e-07
2.14892e-11
4.19273e-11
-2.2178e-11
-5.24311e-12
2.94088e-11
5.56885e-12
-3.05913e-11
-2.75851e-08
2.50869e-11
4.17232e-11
5.0133e-11
3.50234e-11
2.74331e-08
-1.30684e-14
6.85381e-13
-1.2181e-07
-4.07084e-13
6.49552e-13
1.21809e-07
-1.1438e-07
-3.56932e-11
-5.67948e-13
-1.58818e-12
1.14378e-07
3.3997e-11
3.72608e-11
-2.96694e-11
-6.03773e-11
5.87906e-11
6.12199e-11
-6.17853e-11
-1.15475e-07
-4.10502e-11
1.80772e-12
-4.55528e-13
1.15475e-07
2.13687e-11
4.16998e-11
-2.2201e-11
-5.37387e-12
2.93471e-11
5.36574e-12
-3.05757e-11
-2.75844e-08
2.53763e-11
4.16218e-11
5.03901e-11
3.46898e-11
2.74324e-08
-2.89753e-13
1.1327e-12
-1.21811e-07
-6.76676e-13
2.1712e-13
1.2181e-07
-1.14378e-07
-3.54003e-11
-7.9489e-13
-2.00091e-12
1.14377e-07
3.42812e-11
3.74927e-11
-3.32267e-11
-6.0403e-11
5.88447e-11
6.14634e-11
-5.92295e-11
-1.15477e-07
-4.11774e-11
1.87612e-12
-3.17289e-13
1.15477e-07
2.14811e-11
4.16968e-11
-2.20136e-11
-5.33742e-12
2.93513e-11
5.816e-12
-3.07757e-11
-2.75848e-08
2.51235e-11
4.17785e-11
5.00483e-11
3.50219e-11
2.74328e-08
4.27661e-13
1.44549e-12
-1.21811e-07
-5.6882e-13
-2.85936e-13
1.2181e-07
-1.14379e-07
-3.54773e-11
-9.44624e-13
-2.45256e-12
1.14377e-07
3.43001e-11
3.7536e-11
-2.94195e-11
-6.06974e-11
5.88618e-11
6.11053e-11
-6.16141e-11
-1.15477e-07
-4.11042e-11
6.04762e-13
-2.95599e-13
1.15476e-07
2.12958e-11
4.174e-11
-2.22031e-11
-5.13892e-12
2.98086e-11
5.86297e-12
-3.00029e-11
-2.75839e-08
2.52249e-11
4.18622e-11
5.01538e-11
3.49766e-11
2.74317e-08
1.05302e-12
1.11159e-12
-1.2181e-07
-7.3221e-13
-2.12998e-13
1.21808e-07
-1.14379e-07
-3.5234e-11
-1.19653e-12
-2.83464e-12
1.14377e-07
3.45563e-11
3.78118e-11
-3.27785e-11
-6.04049e-11
5.90673e-11
6.12345e-11
-5.89548e-11
-1.15474e-07
-4.10678e-11
1.00524e-12
2.1974e-13
1.15473e-07
2.13002e-11
4.16743e-11
-2.20119e-11
-5.18303e-12
2.96054e-11
5.79374e-12
-3.05462e-11
-2.75836e-08
2.48226e-11
4.1436e-11
5.03979e-11
3.49722e-11
2.74319e-08
2.83501e-13
1.73175e-12
-1.2181e-07
-1.53574e-12
-4.89592e-13
1.2181e-07
-1.14375e-07
-3.53415e-11
-5.05814e-13
-1.52153e-12
1.14372e-07
3.42238e-11
3.75607e-11
-2.96955e-11
-6.02445e-11
5.86774e-11
6.13664e-11
-6.16157e-11
-1.15475e-07
-4.10979e-11
4.73702e-13
-2.65654e-13
1.15474e-07
2.13263e-11
4.15888e-11
-2.22755e-11
-5.02333e-12
2.9908e-11
6.02501e-12
-3.0126e-11
-2.75838e-08
2.49774e-11
4.17401e-11
5.03307e-11
3.51029e-11
2.74316e-08
-6.94709e-13
1.65997e-12
-1.21811e-07
-5.21934e-13
6.13838e-13
1.2181e-07
-1.1437e-07
-3.60212e-11
-1.53089e-12
-1.07329e-12
1.1437e-07
3.35322e-11
3.71603e-11
-3.38832e-11
-6.00706e-11
5.93951e-11
6.17343e-11
-5.86595e-11
-1.15474e-07
-4.08899e-11
3.19754e-13
3.39749e-13
1.15473e-07
2.12947e-11
4.1729e-11
-2.22071e-11
-5.09383e-12
2.96291e-11
6.01578e-12
-3.01512e-11
-2.7583e-08
2.4923e-11
4.1731e-11
5.00626e-11
3.52174e-11
2.74311e-08
-1.52628e-12
1.93705e-12
-1.21811e-07
-7.41865e-13
1.092e-12
1.2181e-07
-1.14372e-07
-3.58938e-11
-3.04251e-12
-1.09241e-12
1.14371e-07
3.38052e-11
3.7038e-11
-2.97612e-11
-6.01341e-11
5.93501e-11
6.16518e-11
-6.10062e-11
-1.15471e-07
-4.08877e-11
-2.56544e-13
-2.30539e-13
1.1547e-07
2.14006e-11
4.18827e-11
-2.19629e-11
-5.00277e-12
2.996e-11
5.98978e-12
-3.02724e-11
-2.7583e-08
2.47525e-11
4.16212e-11
5.01822e-11
3.54232e-11
2.74311e-08
-1.55363e-12
1.44218e-12
-1.2181e-07
-6.5755e-13
1.58745e-12
1.21809e-07
-1.14374e-07
-3.60822e-11
-2.21154e-12
-1.76581e-14
1.14374e-07
3.39025e-11
3.70686e-11
-3.39492e-11
-6.0221e-11
5.93901e-11
6.16163e-11
-5.893e-11
-1.15471e-07
-4.1039e-11
-7.29219e-13
4.59579e-14
1.15471e-07
2.12588e-11
4.16161e-11
-2.23109e-11
-4.92993e-12
3.00741e-11
6.06858e-12
-3.0221e-11
-2.7584e-08
2.50169e-11
4.16111e-11
5.0362e-11
3.50189e-11
2.7432e-08
-2.1421e-12
1.77974e-12
-1.2181e-07
-5.09336e-13
1.73842e-12
1.21809e-07
-1.14371e-07
-3.59503e-11
-1.52252e-12
-1.224e-13
1.14369e-07
3.41794e-11
3.70288e-11
-3.0136e-11
-6.0291e-11
5.8786e-11
6.16049e-11
-6.15938e-11
-1.15471e-07
-4.09844e-11
1.27367e-13
4.28666e-13
1.1547e-07
2.13741e-11
4.17744e-11
-2.20316e-11
-5.03557e-12
2.98843e-11
5.93109e-12
-3.04835e-11
-2.75841e-08
2.48718e-11
4.16008e-11
5.02729e-11
3.50646e-11
2.74323e-08
-1.07907e-12
1.28699e-12
-1.2181e-07
-9.84585e-13
8.95989e-13
1.2181e-07
-1.14372e-07
-3.58159e-11
-2.02949e-12
-6.63969e-13
1.14373e-07
3.42581e-11
3.71783e-11
-3.38691e-11
-6.03306e-11
5.88728e-11
6.13777e-11
-5.93653e-11
-1.1547e-07
-4.10427e-11
4.77285e-13
-1.75422e-15
1.15469e-07
2.1318e-11
4.16382e-11
-2.21556e-11
-5.19087e-12
2.97867e-11
5.92337e-12
-3.04081e-11
-2.75849e-08
2.49593e-11
4.16415e-11
5.01874e-11
3.50429e-11
2.74331e-08
-1.50855e-12
1.58386e-12
-1.21811e-07
-9.03296e-13
1.06938e-12
1.21811e-07
-1.14374e-07
-3.60999e-11
-1.22414e-12
-1.76058e-13
1.14372e-07
3.40118e-11
3.71363e-11
-3.03228e-11
-6.05612e-11
5.88951e-11
6.12802e-11
-6.14353e-11
-1.1547e-07
-4.10897e-11
7.72194e-13
-7.77829e-14
1.1547e-07
2.13903e-11
4.18155e-11
-2.22032e-11
-5.26395e-12
2.97667e-11
5.89652e-12
-3.06192e-11
-2.75854e-08
2.50276e-11
4.1815e-11
5.01025e-11
3.48891e-11
2.74336e-08
-1.25173e-12
1.41737e-12
-1.21812e-07
-6.27875e-13
1.03438e-12
1.21811e-07
-1.14377e-07
-3.60933e-11
-1.66828e-12
-7.50023e-13
1.14377e-07
3.41212e-11
3.70402e-11
-3.38417e-11
-6.04783e-11
5.89864e-11
6.13927e-11
-5.92787e-11
-1.15471e-07
-4.08904e-11
6.58292e-13
-5.69872e-13
1.15471e-07
2.14221e-11
4.17746e-11
-2.21726e-11
-5.45846e-12
2.96915e-11
5.8057e-12
-3.04643e-11
-2.75861e-08
2.50611e-11
4.16563e-11
5.02446e-11
3.49737e-11
2.74342e-08
-1.85529e-12
-2.71275e-13
-1.21811e-07
-4.96523e-13
1.71223e-12
1.21812e-07
-1.14379e-07
-3.57587e-11
-7.63066e-13
-8.11016e-13
1.14377e-07
3.42229e-11
3.70826e-11
-3.0105e-11
-6.0541e-11
5.8785e-11
6.1326e-11
-6.1767e-11
-1.15472e-07
-4.09399e-11
1.37687e-12
-1.56423e-12
1.15472e-07
2.14819e-11
4.19239e-11
-1.84878e-11
-5.52558e-12
2.93793e-11
5.59318e-12
-3.33856e-11
-2.75857e-08
2.51785e-11
4.17932e-11
5.0167e-11
3.48552e-11
2.74337e-08
1.98115e-12
1.16556e-07
1.88177e-11
2.78136e-11
-1.90832e-11
-2.97916e-11
-3.27243e-11
1.30085e-12
8.2877e-13
1.16596e-07
1.72125e-11
3.34633e-11
-2.21925e-11
1.86196e-11
2.7156e-11
-2.73079e-11
-1.92797e-11
-1.16593e-07
1.16554e-07
1.45048e-12
-1.16555e-07
1.04154e-12
-1.87684e-11
-2.95425e-11
1.87933e-11
2.77814e-11
3.38104e-11
1.16595e-07
4.23141e-13
-1.16597e-07
9.47597e-13
-3.24493e-11
-1.78603e-11
2.12579e-11
-1.91892e-11
-2.88844e-11
2.48884e-11
1.90721e-11
4.20943e-11
4.23693e-11
2.74227e-08
-2.75757e-08
-3.70979e-11
2.75759e-08
-2.74229e-08
-4.11551e-11
-4.08565e-11
-5.9798e-13
1.14399e-07
-6.06982e-11
5.84117e-11
6.11955e-11
-5.91273e-11
-2.46492e-11
-6.79676e-13
-6.58114e-13
1.15449e-07
3.11626e-11
2.64898e-11
-3.0595e-11
-4.09399e-11
5.73109e-11
-5.8454e-11
4.10743e-11
1.14398e-07
-1.83625e-12
-1.14399e-07
-6.40559e-13
6.15591e-11
-5.86497e-11
-5.98849e-11
5.87908e-11
2.67929e-11
1.15446e-07
-1.42118e-12
-1.15447e-07
-2.00836e-13
-2.50427e-11
-3.07219e-11
3.10161e-11
4.13295e-11
-5.81867e-11
5.78189e-11
-4.0372e-11
-2.11851e-12
1.35396e-13
1.1547e-07
3.08844e-11
2.69136e-11
-3.06295e-11
-4.09607e-11
5.83573e-11
-5.91936e-11
4.16635e-11
-1.1547e-07
-3.01431e-12
-1.14383e-07
-7.84803e-13
-3.59568e-11
-3.34862e-11
3.02012e-11
6.16761e-11
-5.85442e-11
-5.98683e-11
6.1489e-11
2.69978e-11
1.15465e-07
-2.29622e-12
-1.15466e-07
-2.73244e-13
-2.49034e-11
-3.03716e-11
3.08704e-11
4.17595e-11
-5.81621e-11
5.82255e-11
-4.0475e-11
4.95459e-11
3.61014e-11
2.74239e-08
-4.20857e-11
2.7574e-08
-2.74231e-08
-4.82619e-11
-3.3804e-11
-8.64546e-13
-8.7355e-13
1.15549e-07
2.1504e-11
4.25925e-11
-2.14033e-11
-4.55946e-12
2.94338e-11
-2.96963e-11
5.61005e-12
-1.15549e-07
-4.58438e-13
-1.15483e-07
-4.85059e-13
-4.09815e-11
-2.20499e-11
2.13954e-11
6.09791e-12
-2.99147e-11
-4.65747e-12
3.00617e-11
4.27546e-11
1.15545e-07
-1.12248e-12
-1.15547e-07
-4.96773e-13
-4.14238e-11
-2.1512e-11
2.15251e-11
6.0769e-12
-2.93134e-11
2.96108e-11
-4.01744e-12
-2.74345e-08
-4.91165e-11
-3.29537e-11
3.25173e-11
3.51764e-11
4.28008e-11
4.18541e-11
2.74202e-08
-3.33559e-11
-3.64238e-11
2.75727e-08
-2.74203e-08
-4.19615e-11
-4.07067e-11
8.23481e-13
1.16555e-07
1.70168e-11
3.33953e-11
-1.80324e-11
1.8305e-11
2.79191e-11
-1.89252e-11
-2.96097e-11
-3.26422e-11
2.08781e-12
1.19573e-12
1.16594e-07
1.71481e-11
3.36103e-11
-1.8259e-11
1.86661e-11
2.76592e-11
-1.92505e-11
-2.93341e-11
1.16559e-07
9.30018e-13
-1.16558e-07
-1.12084e-13
-3.26262e-11
-1.78486e-11
1.71743e-11
-1.90929e-11
-2.91557e-11
2.78746e-11
1.85042e-11
3.364e-11
1.16592e-07
2.0522e-12
-1.16593e-07
1.83596e-12
-3.28064e-11
-1.81823e-11
1.69609e-11
-1.92598e-11
-2.92629e-11
2.74178e-11
1.85898e-11
4.19683e-11
4.26317e-11
2.74228e-08
-3.70849e-11
2.75748e-08
-2.74218e-08
-4.11644e-11
-4.11171e-11
-3.14256e-13
1.14399e-07
3.44747e-11
3.6744e-11
-3.43153e-11
-6.04196e-11
5.87164e-11
6.13238e-11
-5.91042e-11
-2.46414e-11
-1.61437e-12
-7.75408e-13
1.15446e-07
3.12526e-11
2.66518e-11
-3.0772e-11
-4.06818e-11
5.77559e-11
4.141e-11
-5.82538e-11
1.14398e-07
-4.00264e-13
-1.14399e-07
-1.03896e-13
-3.55315e-11
-3.42715e-11
3.41383e-11
6.13786e-11
-5.90241e-11
5.84545e-11
-6.00388e-11
2.64822e-11
1.15445e-07
-6.83945e-13
-1.15445e-07
5.09238e-13
-2.5035e-11
-3.09516e-11
3.08793e-11
4.11365e-11
-5.80931e-11
5.74323e-11
-4.07386e-11
-7.54201e-13
-3.84599e-13
1.15463e-07
3.06721e-11
2.69389e-11
-3.0472e-11
-4.10714e-11
5.8304e-11
-5.85589e-11
4.16014e-11
-1.44667e-12
-1.14381e-07
-3.80571e-13
-3.60432e-11
-3.36258e-11
3.37728e-11
6.14265e-11
-5.89123e-11
-6.03616e-11
5.87247e-11
2.66637e-11
1.15461e-07
-1.21988e-12
-1.15462e-07
-3.03776e-13
-2.51561e-11
-3.05378e-11
3.05919e-11
4.15603e-11
-5.85167e-11
5.79415e-11
-4.06616e-11
4.98041e-11
3.59323e-11
2.7423e-08
-4.18654e-11
2.75738e-08
-2.74228e-08
-4.84979e-11
-3.41762e-11
-3.76161e-14
-4.15368e-13
1.15544e-07
2.15016e-11
4.26889e-11
-2.18591e-11
-4.72103e-12
2.97469e-11
-2.99072e-11
6.08221e-12
9.62846e-13
-1.15477e-07
-5.86245e-14
-4.09404e-11
-2.21545e-11
2.15005e-11
5.89514e-12
-3.04497e-11
-5.08711e-12
2.96792e-11
4.25077e-11
1.1554e-07
8.16908e-13
-1.15542e-07
4.4231e-13
-4.1626e-11
-2.18664e-11
2.13525e-11
5.45571e-12
-2.98428e-11
2.9202e-11
-4.94526e-12
-2.7434e-08
-4.9297e-11
-3.35587e-11
3.24732e-11
3.54138e-11
4.2719e-11
4.17871e-11
2.74203e-08
-3.32602e-11
-3.67519e-11
2.75726e-08
-2.74202e-08
-4.16573e-11
-4.0699e-11
2.27873e-13
1.1656e-07
1.70853e-11
3.33796e-11
-1.82615e-11
1.85555e-11
2.78004e-11
-1.89261e-11
-2.98451e-11
-3.2885e-11
2.38138e-12
1.79776e-12
1.16593e-07
1.68412e-11
3.34706e-11
-2.25228e-11
1.85369e-11
2.75463e-11
-1.94872e-11
-2.70069e-11
1.16562e-07
1.49345e-12
-1.16562e-07
1.00922e-12
-3.28111e-11
-1.8285e-11
1.70234e-11
-1.88244e-11
-2.93919e-11
2.77977e-11
1.88514e-11
3.36328e-11
1.16592e-07
1.14778e-12
-1.16594e-07
1.98394e-12
-3.27105e-11
-1.83328e-11
2.07563e-11
-1.92457e-11
-2.91006e-11
2.4851e-11
1.89612e-11
4.20043e-11
4.23434e-11
2.74218e-08
-3.72016e-11
2.75744e-08
-2.74214e-08
-4.10203e-11
-4.11448e-11
-3.91312e-13
1.14398e-07
3.44065e-11
3.64298e-11
-3.44107e-11
-6.03052e-11
5.84641e-11
6.12698e-11
-5.93397e-11
-2.51165e-11
-9.13601e-13
2.0887e-13
1.15445e-07
3.08741e-11
2.6292e-11
-3.1178e-11
-4.08514e-11
5.76731e-11
4.13294e-11
-5.8509e-11
1.14397e-07
-1.01443e-12
-1.14398e-07
-9.10356e-13
-3.52824e-11
-3.40513e-11
3.43171e-11
6.12411e-11
-5.87827e-11
5.87179e-11
-6.04194e-11
2.64524e-11
1.15445e-07
-5.21132e-13
-1.15445e-07
4.51383e-13
-2.52338e-11
-3.09202e-11
3.08788e-11
4.11289e-11
-5.81942e-11
5.72958e-11
-4.0815e-11
-1.51661e-14
6.65513e-14
1.15461e-07
3.0424e-11
2.64973e-11
-3.08771e-11
-4.10961e-11
5.81559e-11
-5.87917e-11
4.12532e-11
-9.14338e-13
-1.1438e-07
-9.7407e-13
-3.6001e-11
-3.35819e-11
3.01298e-11
6.12338e-11
-5.92986e-11
-6.03166e-11
6.09883e-11
2.65808e-11
1.15461e-07
-5.84693e-13
-1.15461e-07
3.03004e-13
-2.54599e-11
-3.07032e-11
3.02666e-11
4.12265e-11
-5.83833e-11
5.79753e-11
-4.11174e-11
4.95239e-11
3.54887e-11
2.74228e-08
-4.17634e-11
2.7574e-08
-2.7423e-08
-4.86436e-11
-3.42276e-11
1.42734e-12
-5.11975e-14
1.1554e-07
2.1332e-11
4.23699e-11
-2.20394e-11
-5.11758e-12
2.91775e-11
-3.01141e-11
5.43764e-12
1.13849e-12
-1.15473e-07
5.56887e-14
-4.11235e-11
-2.22005e-11
2.11828e-11
5.60553e-12
-3.03852e-11
-5.33303e-12
2.94906e-11
4.2321e-11
1.15537e-07
1.26308e-12
-1.15538e-07
6.03628e-13
-4.19924e-11
-2.23175e-11
2.11333e-11
5.47934e-12
-2.98195e-11
2.90226e-11
-4.65434e-12
-2.7433e-08
-4.94892e-11
-3.36659e-11
3.25905e-11
3.50435e-11
4.31108e-11
4.17502e-11
2.74201e-08
-3.31315e-11
-3.69478e-11
2.75723e-08
-2.74199e-08
-4.13331e-11
-4.10029e-11
9.45512e-13
1.16563e-07
1.67539e-11
3.32066e-11
-1.85716e-11
1.84549e-11
2.81264e-11
-1.88985e-11
-2.9263e-11
-3.28776e-11
2.08497e-12
1.93629e-12
1.16592e-07
1.68833e-11
3.33114e-11
-1.83709e-11
1.85784e-11
2.71989e-11
-1.92975e-11
-2.93798e-11
1.16563e-07
8.74159e-13
-1.16563e-07
1.17628e-12
-3.27571e-11
-1.80794e-11
1.69362e-11
-1.88101e-11
-2.88808e-11
2.8107e-11
1.87812e-11
3.36079e-11
1.16592e-07
1.82648e-13
-1.16592e-07
1.3822e-12
-3.28468e-11
-1.82464e-11
1.6549e-11
-1.87593e-11
-2.86556e-11
2.78235e-11
1.92912e-11
4.2349e-11
4.21615e-11
2.74214e-08
-3.72154e-11
2.75743e-08
-2.74213e-08
-4.09982e-11
-4.12398e-11
-1.61013e-12
1.14398e-07
3.46821e-11
3.67497e-11
-3.40294e-11
-6.04454e-11
5.84806e-11
6.11357e-11
-5.90218e-11
-2.51515e-11
4.88463e-13
5.36417e-13
1.15444e-07
3.09555e-11
2.65357e-11
-3.10372e-11
-4.10686e-11
5.72931e-11
4.08126e-11
-5.87984e-11
1.14396e-07
-6.15838e-13
-1.14397e-07
-1.14143e-12
-3.49735e-11
-3.39168e-11
3.46494e-11
6.1098e-11
-5.92062e-11
5.83637e-11
-6.01934e-11
2.65224e-11
1.15444e-07
-5.30375e-14
-1.15444e-07
3.0466e-13
-2.52086e-11
-3.11124e-11
3.05052e-11
4.09618e-11
-5.84133e-11
5.72979e-11
-4.07414e-11
6.54438e-16
6.25184e-14
1.15462e-07
3.04741e-11
2.68128e-11
-3.09139e-11
-4.14436e-11
5.75701e-11
-5.92363e-11
4.10893e-11
-7.19787e-13
-1.1438e-07
-1.2399e-12
-3.57993e-11
-3.3419e-11
3.42849e-11
6.12572e-11
-5.927e-11
-6.05794e-11
5.87105e-11
2.65348e-11
1.15461e-07
7.10469e-14
-1.15462e-07
7.10471e-13
-2.5571e-11
-3.07689e-11
3.03157e-11
4.12191e-11
-5.83704e-11
5.79704e-11
-4.11094e-11
4.94386e-11
3.54535e-11
2.7423e-08
-4.18061e-11
2.7574e-08
-2.74228e-08
-4.85875e-11
-3.421e-11
2.01879e-12
4.20399e-13
1.15537e-07
2.11198e-11
4.24273e-11
-2.21062e-11
-5.48726e-12
2.8876e-11
-3.05955e-11
5.27243e-12
3.07988e-13
-1.15474e-07
-3.89183e-13
-4.11326e-11
-2.22477e-11
2.12606e-11
5.78688e-12
-3.06094e-11
-5.36744e-12
2.91824e-11
4.2579e-11
1.15535e-07
9.01843e-13
-1.15536e-07
8.28318e-13
-4.18671e-11
-2.1905e-11
2.10647e-11
5.40123e-12
-3.0096e-11
2.90799e-11
-4.81777e-12
-2.74324e-08
-4.92579e-11
-3.3689e-11
3.27192e-11
3.49209e-11
4.33836e-11
4.13519e-11
2.74199e-08
-3.34527e-11
-3.67914e-11
2.75717e-08
-2.74193e-08
-4.144e-11
-4.0709e-11
6.94443e-13
1.16564e-07
1.67826e-11
3.31453e-11
-1.85271e-11
1.89536e-11
2.83426e-11
-1.85351e-11
-2.91489e-11
-3.288e-11
1.14848e-12
1.3834e-12
1.16593e-07
1.68935e-11
3.34207e-11
-2.24148e-11
1.87639e-11
2.7939e-11
-1.89375e-11
-2.66941e-11
1.16563e-07
1.85208e-13
-1.16564e-07
9.56161e-13
-3.26021e-11
-1.80356e-11
1.68677e-11
-1.86324e-11
-2.89888e-11
2.82366e-11
1.91715e-11
3.3705e-11
1.16588e-07
5.84964e-13
-1.16591e-07
1.97344e-12
-3.27323e-11
-1.81351e-11
2.09248e-11
-1.87531e-11
-2.88947e-11
2.51844e-11
1.92567e-11
4.23546e-11
4.21889e-11
2.74212e-08
-3.7604e-11
2.75734e-08
-2.74203e-08
-4.05481e-11
-4.1204e-11
-1.01549e-12
1.14396e-07
3.43962e-11
3.6889e-11
-3.41263e-11
-6.05199e-11
5.82972e-11
6.12649e-11
-5.94144e-11
-2.51015e-11
-5.76906e-13
4.44982e-14
1.15444e-07
3.0732e-11
2.63351e-11
-3.12474e-11
-4.07995e-11
5.75631e-11
4.11566e-11
-5.84243e-11
1.14393e-07
-1.75244e-13
-1.14395e-07
-4.1463e-13
-3.52081e-11
-3.41884e-11
3.45757e-11
6.10968e-11
-5.88098e-11
5.84206e-11
-6.03125e-11
2.645e-11
1.15444e-07
-1.09156e-12
-1.15444e-07
2.1932e-13
-2.52789e-11
-3.11961e-11
3.05911e-11
4.11795e-11
-5.80375e-11
5.77239e-11
-4.07698e-11
-3.05356e-14
3.35523e-13
1.1546e-07