/*--------------------------------*- C++ -*----------------------------------*\
| =========                 |                                                 |
| \\      /  F ield         | OpenFOAM: The Open Source CFD Toolbox           |
|  \\    /   O peration     | Version:  2206                                  |
|   \\  /    A nd           | Website:  www.openfoam.com                      |
|    \\/     M anipulation  |                                                 |
\*---------------------------------------------------------------------------*/
FoamFile
{
    version     2.0;
    format      ascii;
    arch        "LSB;label=32;scalar=64";
    class       volVectorField;
    location    "90";
    object      U;
}
// * * * * * * * * * * * * * * * * * * * * * * * * * * * * * * * * * * * * * //

dimensions      [0 1 -1 0 0 0 0];

internalField   nonuniform List<vector> 
66928
(
(-0.000178785 -0.000178862 0.129317)
(1.89874e-06 1.66489e-06 0.134535)
(-1.77438e-06 9.12331e-07 0.134303)
(1.46531e-07 -7.72104e-07 0.134294)
(-0.000179292 0.000181542 0.129296)
(4.96172e-06 -2.44582e-06 0.134528)
(0.000173778 0.000172632 0.129456)
(-0.000180366 -0.000180186 0.129314)
(-1.22717e-06 2.02538e-06 0.141181)
(1.07145e-06 7.92394e-07 0.141189)
(-6.6808e-06 -5.33217e-06 0.0614089)
(-6.46015e-06 -1.91285e-06 0.0611881)
(-2.10777e-05 -6.15298e-06 0.0855294)
(-6.80871e-06 -1.31164e-05 0.0850771)
(-4.55215e-06 -2.79777e-05 0.0719274)
(-3.00782e-05 -2.80899e-05 0.100932)
(-2.29797e-05 8.13382e-07 0.0714671)
(-3.63232e-05 1.11117e-06 0.0972639)
(-2.63851e-05 -2.15061e-05 0.100251)
(-1.8705e-06 -1.2372e-06 0.137818)
(-4.33446e-05 2.92328e-07 0.11614)
(-2.1755e-05 7.54498e-08 0.0715004)
(-3.68738e-05 -7.6293e-07 0.0972633)
(-1.78788e-06 1.60878e-06 0.137826)
(-2.46319e-05 2.03256e-05 0.100258)
(-4.31376e-05 8.67836e-07 0.116135)
(-5.20118e-06 2.05118e-06 0.0612169)
(-5.88343e-06 1.31708e-05 0.0851126)
(-2.01457e-05 7.43341e-06 0.0855578)
(-5.87181e-06 7.70675e-06 0.0614306)
(-2.85006e-05 2.72187e-05 0.100939)
(-5.57334e-06 2.74566e-05 0.0719482)
(9.53823e-06 1.02382e-05 0.0614471)
(-8.82766e-06 -4.3538e-06 0.0614058)
(7.05866e-06 2.96483e-06 0.0613391)
(-5.62503e-06 -1.52966e-07 0.0611866)
(2.24882e-05 7.81964e-06 0.0857178)
(7.4218e-06 1.36516e-05 0.0854287)
(-0.000178768 -0.000179013 0.129316)
(-2.13311e-05 -5.06216e-06 0.085535)
(-7.29827e-06 -1.22852e-05 0.085076)
(-1.11946e-05 -6.7017e-06 0.0614062)
(6.97295e-06 1.04339e-05 0.0614417)
(-8.42606e-06 -8.83989e-07 0.0611952)
(6.08785e-06 2.99114e-06 0.0613424)
(0.000172941 0.000172067 0.129454)
(-2.40332e-05 -5.99583e-06 0.0855374)
(-1.05557e-05 -1.35194e-05 0.0850782)
(2.19597e-05 9.01868e-06 0.0857235)
(6.6394e-06 1.38216e-05 0.0854322)
(1.23297e-05 8.74628e-06 0.0614523)
(1.79764e-05 5.08575e-05 0.0972316)
(-1.66632e-05 -5.3683e-05 0.10952)
(2.21942e-05 5.89981e-06 0.0857087)
(-9.44679e-06 -7.43219e-06 0.0709875)
(1.55147e-05 6.95304e-06 0.0710963)
(2.21494e-05 5.54844e-05 0.109895)
(-1.42793e-05 -5.19042e-05 0.0968626)
(5.72433e-05 5.03786e-06 0.0970471)
(-5.81643e-05 -1.16276e-05 0.109096)
(7.46454e-06 1.29729e-05 0.0854254)
(-8.65508e-06 -5.73939e-06 0.0706971)
(9.33861e-06 3.53083e-06 0.0708938)
(6.0016e-05 9.3485e-06 0.109643)
(-5.55398e-05 -8.1547e-06 0.0966039)
(1.50059e-05 5.98801e-06 0.0775396)
(-8.87546e-06 1.08881e-06 0.0599063)
(-1.72863e-06 -6.10655e-06 0.0598516)
(1.40313e-05 -9.62263e-07 0.060011)
(4.35304e-06 5.45087e-06 0.0599836)
(-1.09292e-05 -7.28985e-06 0.0772461)
(1.12445e-05 2.58678e-05 0.0719694)
(-8.43951e-06 -3.65678e-05 0.0838263)
(4.33219e-06 3.01308e-05 0.0838791)
(-1.96444e-07 -1.26245e-05 0.0595894)
(-2.75953e-05 2.63384e-06 0.0830902)
(-5.30844e-06 3.51939e-06 0.059296)
(-3.51161e-05 3.43155e-06 0.0938258)
(-1.08022e-06 9.03262e-07 0.0677276)
(-1.56869e-06 3.58309e-06 0.0654232)
(-2.63025e-05 -8.00094e-07 0.0831191)
(-5.17345e-06 -2.07159e-06 0.059324)
(-8.48018e-07 -1.0717e-06 0.0677359)
(-3.52419e-05 -3.04791e-06 0.0938373)
(-2.42768e-06 -2.48157e-06 0.0654463)
(5.77767e-05 -5.81283e-06 0.0970605)
(-5.83301e-05 1.25856e-05 0.109127)
(8.72257e-06 -1.21081e-05 0.085464)
(-8.35332e-06 5.98665e-06 0.0707226)
(5.97748e-05 -9.36186e-06 0.109674)
(1.07603e-05 -3.04337e-06 0.0709217)
(-5.33847e-05 8.17866e-06 0.0966172)
(1.83531e-05 -5.18983e-05 0.0972602)
(-1.6238e-05 5.6141e-05 0.109485)
(2.39006e-05 -7.75261e-06 0.0857408)
(-1.17418e-05 8.52915e-06 0.0710283)
(1.42481e-05 -8.53568e-06 0.0711381)
(2.17032e-05 -5.42543e-05 0.109861)
(-1.43502e-05 5.28712e-05 0.0968955)
(1.59793e-05 -6.69336e-06 0.0775741)
(-1.49702e-06 5.80689e-06 0.0598805)
(-1.01368e-05 -2.00103e-07 0.0599413)
(4.70838e-06 -5.1433e-06 0.0600147)
(1.37834e-05 7.24262e-07 0.0600449)
(-1.08479e-05 7.07481e-06 0.0772833)
(9.55351e-06 -9.13782e-06 0.0614696)
(6.91141e-06 -2.97336e-05 0.0719804)
(-4.87397e-06 3.49964e-05 0.0838606)
(6.89529e-06 -3.38969e-05 0.0839281)
(-3.02544e-07 1.08009e-05 0.0596035)
(-8.45198e-06 -7.83947e-06 0.061407)
(8.28177e-06 1.05572e-05 0.0614451)
(-8.41808e-06 -1.57371e-06 0.0611854)
(6.60172e-06 2.91446e-06 0.0613415)
(1.31692e-05 7.37453e-06 0.0775401)
(-1.17669e-05 1.4924e-06 0.0599041)
(-3.8536e-06 -4.36223e-06 0.0598493)
(1.16966e-05 5.12161e-07 0.0600097)
(2.51409e-06 6.99404e-06 0.0599836)
(-1.27626e-05 -5.86848e-06 0.0772463)
(-1.63011e-05 -5.16813e-05 0.0968651)
(2.21302e-05 5.43227e-05 0.109897)
(1.50859e-05 8.19632e-06 0.0711026)
(-2.21755e-05 -6.2424e-06 0.0855313)
(1.86706e-05 5.07493e-05 0.0972318)
(-1.30721e-05 -6.54385e-06 0.0709872)
(-1.80336e-05 -5.34007e-05 0.109519)
(-5.50301e-05 -8.44309e-06 0.0966054)
(5.90519e-05 9.71974e-06 0.109649)
(9.71505e-06 5.0389e-06 0.0708961)
(-7.43017e-06 -1.32549e-05 0.0850732)
(5.61804e-05 5.93161e-06 0.0970467)
(-8.90903e-06 -6.29532e-06 0.070694)
(-5.67073e-05 -1.1293e-05 0.109095)
(-1.20351e-05 -6.4154e-06 0.0772446)
(1.31916e-05 -5.32353e-07 0.0600097)
(3.4282e-06 6.06697e-06 0.0599832)
(1.44352e-05 6.66842e-06 0.0775395)
(-1.24565e-05 1.1123e-06 0.0599053)
(-2.97837e-06 -6.22437e-06 0.0598498)
(1.74501e-05 5.18571e-05 0.0972367)
(-1.18783e-05 -6.70758e-06 0.0709887)
(2.25392e-05 8.85562e-06 0.0857157)
(-1.68333e-05 -5.32707e-05 0.10952)
(1.35271e-05 9.44552e-06 0.0711008)
(-1.54884e-05 -5.10604e-05 0.096867)
(2.20866e-05 5.59383e-05 0.109895)
(5.65e-05 5.72147e-06 0.097051)
(-1.05137e-05 -3.60994e-06 0.0706956)
(7.25945e-06 1.35519e-05 0.0854242)
(-5.79182e-05 -1.07092e-05 0.109096)
(9.46561e-06 5.59873e-06 0.0708944)
(-5.6626e-05 -7.64543e-06 0.0966081)
(6.02039e-05 1.03069e-05 0.109645)
(5.89371e-06 1.02321e-05 0.0614438)
(-1.09097e-05 -7.15867e-06 0.0614045)
(5.57489e-06 2.91124e-06 0.061348)
(-9.3349e-06 -1.68995e-06 0.0611904)
(-1.46594e-05 -6.93126e-06 0.0772475)
(1.10892e-05 2.18104e-07 0.060009)
(1.09518e-06 7.3786e-06 0.0599841)
(1.10284e-05 6.55419e-06 0.0775389)
(-1.38168e-05 1.82146e-06 0.0599044)
(-4.28102e-06 -5.35912e-06 0.0598508)
(1.49956e-05 5.13459e-05 0.0972368)
(-1.94119e-05 -5.38992e-05 0.109514)
(2.03318e-05 8.51965e-06 0.0857233)
(-1.55052e-05 -6.63516e-06 0.0709909)
(1.12531e-05 9.63432e-06 0.0711049)
(2.04982e-05 5.57564e-05 0.109895)
(-1.83372e-05 -5.15189e-05 0.096869)
(5.44465e-05 5.91195e-06 0.0970521)
(-5.99702e-05 -1.13731e-05 0.109093)
(5.29635e-06 1.30086e-05 0.085432)
(-1.17844e-05 -5.14058e-06 0.0707019)
(7.68827e-06 5.81467e-06 0.0709)
(5.76183e-05 9.64147e-06 0.109648)
(-5.83606e-05 -8.39398e-06 0.096609)
(-1.85111e-05 -5.18603e-05 0.0968644)
(1.27131e-05 8.38569e-06 0.0711037)
(2.25749e-05 5.579e-05 0.109898)
(-2.33719e-05 -5.45114e-06 0.085534)
(1.68991e-05 5.15032e-05 0.0972337)
(-1.47852e-05 -6.06587e-06 0.0709892)
(-1.87174e-05 -5.28385e-05 0.109516)
(-5.70113e-05 -8.10843e-06 0.0966048)
(7.20462e-06 6.25281e-06 0.0708971)
(5.82019e-05 1.02899e-05 0.109649)
(-8.95505e-06 -1.37012e-05 0.0850745)
(5.5437e-05 6.86487e-06 0.0970492)
(-1.11125e-05 -5.70574e-06 0.0706984)
(-5.82665e-05 -1.14539e-05 0.109094)
(1.19775e-05 8.28822e-06 0.0775423)
(-1.40658e-05 1.42241e-06 0.0599082)
(-5.09818e-06 -5.22389e-06 0.0598557)
(1.00795e-05 9.03304e-07 0.0600109)
(1.14227e-06 7.32828e-06 0.0599863)
(-1.48363e-05 -6.10639e-06 0.0772486)
(6.03289e-05 5.05436e-05 0.112461)
(0.000172406 0.000172739 0.129459)
(-0.0001743 -5.03048e-05 0.12182)
(-5.44201e-05 -0.000172191 0.121582)
(0.000175602 5.09408e-05 0.122127)
(5.40929e-05 0.000169236 0.12197)
(-5.8737e-05 -5.305e-05 0.112068)
(5.94173e-05 -5.16719e-05 0.112459)
(0.000173095 -0.000170632 0.12944)
(-5.44937e-05 0.000174497 0.121626)
(-0.000170613 5.14575e-05 0.12172)
(5.55248e-05 -0.000172172 0.122013)
(0.000176176 -4.92497e-05 0.12203)
(-5.78773e-05 5.61477e-05 0.112064)
(-5.93182e-05 -5.34973e-05 0.112067)
(0.000176986 5.02668e-05 0.122125)
(5.46469e-05 0.000170176 0.121972)
(-0.00017835 -0.000179431 0.129317)
(6.18603e-05 5.23356e-05 0.11246)
(-0.00017366 -4.95809e-05 0.121819)
(-5.27942e-05 -0.000171606 0.121582)
(5.88734e-05 5.09896e-05 0.112462)
(0.000172392 0.000171933 0.129454)
(-0.000174903 -4.97682e-05 0.121813)
(-5.52991e-05 -0.000172193 0.121577)
(0.000176072 5.04532e-05 0.122122)
(5.46637e-05 0.000170954 0.121969)
(-6.18203e-05 -5.40064e-05 0.112067)
(1.14283e-07 1.69036e-06 0.143511)
(-2.41188e-07 -1.35185e-07 0.143541)
(7.11641e-06 0.000203214 0.123557)
(-1.08563e-05 -0.000190195 0.117918)
(2.81119e-05 2.47722e-05 0.101102)
(-1.61191e-05 -4.3743e-05 0.109777)
(1.53162e-05 0.000196138 0.118157)
(1.22897e-05 3.752e-05 0.109929)
(-6.45352e-06 -0.000205208 0.123475)
(0.000214284 1.00087e-06 0.123289)
(-0.0001995 -1.05793e-05 0.117399)
(2.85099e-05 1.91621e-05 0.100726)
(-3.80241e-05 -6.63633e-06 0.108921)
(0.000204196 6.21057e-06 0.1179)
(4.06892e-05 4.87767e-06 0.109482)
(-0.000216118 -5.41792e-06 0.122868)
(0.000214528 -2.34508e-06 0.126198)
(4.74029e-05 -5.93767e-07 0.116829)
(-4.25355e-05 -1.18532e-06 0.113932)
(-0.000208694 8.21462e-07 0.127053)
(4.79364e-05 1.33297e-07 0.114573)
(0.000208994 -1.33417e-06 0.127592)
(-0.000210766 -1.27675e-06 0.125721)
(0.000212335 -1.1855e-06 0.123252)
(-0.000196542 1.00059e-05 0.117374)
(2.95269e-05 -1.87827e-05 0.100732)
(-3.89824e-05 7.65101e-06 0.108906)
(4.10944e-05 -4.46631e-06 0.109467)
(0.00020411 -6.00071e-06 0.117875)
(-0.000211337 4.15434e-06 0.122826)
(0.000210151 1.57598e-06 0.126178)
(4.66258e-05 1.27003e-07 0.116824)
(-0.000207501 -2.06571e-07 0.127046)
(-4.35831e-05 1.81216e-06 0.113921)
(0.000207514 1.6364e-06 0.127585)
(4.4982e-05 -1.29733e-07 0.114561)
(-0.000212937 1.63624e-06 0.1257)
(8.2096e-06 -0.000204129 0.123581)
(-1.14188e-05 0.000193942 0.117907)
(2.9834e-05 -3.05136e-05 0.101108)
(-1.28545e-05 4.36873e-05 0.109762)
(1.49993e-05 -0.000198026 0.118145)
(1.44636e-05 -4.15965e-05 0.109915)
(-5.94289e-06 0.000210879 0.123497)
(5.98327e-05 5.06187e-05 0.112463)
(0.000173089 0.000171639 0.129457)
(-0.000173824 -5.0262e-05 0.121817)
(-5.34978e-05 -0.000170569 0.121581)
(-6.06878e-05 -5.40559e-05 0.112068)
(0.000177054 5.08113e-05 0.122123)
(5.55494e-05 0.000170186 0.121971)
(-6.07207e-05 -5.35276e-05 0.112067)
(-0.00017902 -0.00017883 0.129314)
(0.000176892 5.01547e-05 0.122123)
(5.4807e-05 0.000171289 0.121971)
(5.92076e-05 5.08468e-05 0.112462)
(-0.000175043 -5.00081e-05 0.121816)
(-5.33974e-05 -0.000170591 0.121579)
(-1.52154e-06 4.83613e-07 0.14118)
(1.65123e-06 -4.40527e-07 0.134299)
(1.32809e-06 -1.4936e-06 0.134523)
(-0.000172628 -0.000169959 0.129468)
(-1.2549e-06 1.2576e-07 0.14118)
(2.77998e-06 -4.49791e-07 0.134297)
(1.65643e-06 -1.57404e-06 0.13452)
(-0.000170574 -0.00016938 0.129461)
(-8.40503e-07 3.95722e-07 0.141182)
(1.18214e-06 5.3292e-07 0.134293)
(1.09912e-06 -2.10062e-06 0.134513)
(-0.000172024 -0.000171731 0.12946)
(-9.5835e-07 5.22417e-08 0.141188)
(1.07904e-06 -6.87583e-07 0.134294)
(1.53868e-06 -1.84522e-06 0.134511)
(-0.000172246 -0.000170907 0.129456)
(-2.3836e-07 9.33772e-08 0.141193)
(1.13297e-06 -6.95295e-07 0.134291)
(1.91576e-06 -3.04004e-06 0.134514)
(-0.000171687 -0.000172195 0.129453)
(-7.2604e-07 -3.03555e-07 0.141193)
(6.83536e-07 -1.22863e-06 0.134289)
(2.08542e-06 -2.74757e-06 0.134517)
(-0.000172956 -0.000171254 0.129454)
(-1.04916e-06 -1.16245e-06 0.141193)
(8.46079e-07 -1.57542e-06 0.134291)
(1.70935e-06 -4.25164e-07 0.134516)
(-0.000172814 -0.00017131 0.12945)
(-6.86719e-07 -8.54437e-07 0.141192)
(1.16601e-06 -2.48063e-06 0.13429)
(3.07826e-06 -2.10782e-06 0.134512)
(-0.000171234 -0.000170695 0.129449)
(-1.69914e-06 -9.59813e-07 0.141192)
(1.22573e-06 -1.50798e-06 0.134286)
(2.01359e-06 -8.55732e-07 0.134514)
(-0.000172016 -0.000170181 0.129449)
(-5.4979e-07 3.51443e-07 0.141194)
(2.10982e-06 3.42545e-07 0.13428)
(2.54131e-06 -1.2515e-06 0.134512)
(-0.000172734 -0.0001705 0.129446)
(-1.02648e-06 9.40032e-07 0.141194)
(3.87715e-06 -4.04317e-07 0.134283)
(1.6025e-06 -5.72843e-07 0.134508)
(-0.000172079 -0.000169509 0.129446)
(-1.17697e-06 1.23387e-06 0.141193)
(3.26203e-06 9.72544e-07 0.134286)
(2.01628e-06 6.40952e-07 0.13451)
(-0.000171913 -0.000170882 0.129451)
(-9.24931e-07 1.66231e-06 0.141193)
(1.68538e-06 9.21577e-07 0.134282)
(2.40787e-06 -5.19166e-07 0.134509)
(-0.000171961 -0.000170604 0.129452)
(-1.41916e-06 6.66747e-07 0.141195)
(2.03016e-06 2.51299e-07 0.134284)
(2.3783e-06 -1.00521e-06 0.134507)
(-0.000171981 -0.000170492 0.129456)
(-1.46955e-06 5.55745e-07 0.141196)
(9.8778e-07 9.01964e-07 0.134285)
(1.91492e-06 -1.78482e-06 0.134508)
(-0.000172563 -0.000170909 0.129458)
(-1.21364e-06 4.62267e-07 0.141195)
(1.1883e-06 4.8025e-07 0.134289)
(1.57196e-06 -1.49213e-06 0.13451)
(-0.000172337 -0.000171579 0.129461)
(-9.91243e-08 1.60711e-06 0.141197)
(1.07679e-06 3.53061e-07 0.134291)
(1.11901e-06 -2.88378e-06 0.134512)
(-0.000172814 -0.000171578 0.129458)
(3.32019e-06 3.05951e-06 0.134534)
(-2.93172e-06 4.08086e-06 0.134543)
(3.43843e-06 2.72492e-06 0.134531)
(-2.86909e-06 1.99189e-06 0.134544)
(-0.000171385 0.000171475 0.129461)
(0.000180686 -0.000179709 0.129323)
(5.61977e-07 1.06752e-06 0.134303)
(4.82825e-08 -2.93001e-07 0.134292)
(-2.12347e-06 4.73035e-07 0.134303)
(-1.46141e-06 -7.7129e-07 0.134291)
(3.6562e-09 -8.85425e-07 0.134319)
(3.67796e-06 -3.47354e-07 0.134298)
(2.71756e-06 -2.35622e-07 0.134315)
(0.000172434 -0.000170725 0.129436)
(-0.000180672 0.000181933 0.129291)
(-1.0112e-07 -2.16261e-07 0.134553)
(1.64307e-06 5.35065e-07 0.134523)
(-1.27428e-06 1.00691e-06 0.134554)
(0.000180679 0.00018303 0.129321)
(0.000171986 0.000171339 0.129454)
(-0.0001795 -0.000179085 0.129314)
(3.55988e-06 3.57708e-06 0.13453)
(-2.87964e-06 3.88095e-06 0.134543)
(1.68509e-06 1.34746e-06 0.134535)
(-3.34894e-06 2.96982e-06 0.134541)
(-0.000171167 0.000172171 0.129462)
(0.000179787 -0.000180258 0.129318)
(-1.91668e-06 1.52494e-07 0.134303)
(-1.63611e-06 3.82543e-07 0.134288)
(-8.88075e-07 8.64815e-07 0.134302)
(-6.35567e-07 -1.64563e-06 0.134289)
(6.7323e-07 -3.57759e-07 0.134312)
(1.67275e-06 1.12791e-06 0.134295)
(2.19726e-06 -4.96719e-07 0.13431)
(0.000170138 -0.000169027 0.129433)
(-0.000179463 0.00018025 0.12929)
(-1.34848e-06 -6.34763e-07 0.134551)
(2.16037e-06 -1.42832e-06 0.134516)
(-2.43561e-06 -8.51615e-07 0.134548)
(0.000179484 0.000180861 0.129318)
(0.000172495 0.000172363 0.129456)
(-0.00018005 -0.00018098 0.129313)
(2.02966e-06 2.13315e-06 0.134536)
(-3.48817e-06 4.35312e-06 0.134539)
(3.72354e-06 2.72359e-06 0.13454)
(-3.96086e-06 2.13716e-06 0.134542)
(-0.00017224 0.000171667 0.129457)
(0.000180065 -0.000180783 0.129316)
(-2.39729e-07 7.70654e-07 0.134301)
(-3.90272e-07 -9.71033e-07 0.134286)
(-1.70507e-06 1.61022e-07 0.134302)
(-4.56923e-07 -1.66849e-06 0.134289)
(-8.24683e-08 -1.03373e-06 0.13431)
(1.35879e-06 2.1111e-07 0.134295)
(7.82331e-07 -1.6814e-06 0.134309)
(0.000171508 -0.000170935 0.129432)
(-0.000178665 0.000179905 0.129291)
(-1.90732e-06 -2.1144e-06 0.134546)
(2.31459e-06 -1.26666e-06 0.134513)
(-3.04914e-06 -1.82281e-06 0.134544)
(0.000178971 0.000181089 0.129313)
(0.000172189 0.000170416 0.129454)
(-0.000178666 -0.000181652 0.129312)
(3.39752e-06 2.89199e-06 0.134539)
(-3.96825e-06 4.11162e-06 0.13454)
(3.51719e-06 1.81625e-06 0.13454)
(-3.12734e-06 7.39398e-07 0.134541)
(-0.00017191 0.000170757 0.129455)
(0.000179374 -0.000180433 0.129317)
(-8.72292e-07 -7.09542e-07 0.134301)
(1.29643e-06 -1.18323e-06 0.134287)
(-1.20533e-06 -7.04661e-07 0.1343)
(4.25036e-07 -2.20166e-06 0.134287)
(-5.41141e-07 -1.18808e-06 0.134309)
(5.20633e-07 3.43503e-07 0.134294)
(1.05168e-07 -2.09017e-06 0.13431)
(0.000172324 -0.000171129 0.129433)
(-0.000178984 0.000180582 0.12929)
(-3.04767e-06 -3.34232e-06 0.134543)
(2.48561e-06 -9.03048e-07 0.134515)
(-2.62142e-06 -1.04107e-06 0.134542)
(0.000180112 0.000180758 0.12931)
(0.000173291 0.000169524 0.129453)
(-0.000180577 -0.000181461 0.129309)
(3.38505e-06 1.74692e-06 0.13454)
(-2.92912e-06 2.46024e-06 0.134539)
(2.87143e-06 2.10044e-07 0.134542)
(-3.79113e-06 1.83032e-06 0.134537)
(-0.000172064 0.000170839 0.129454)
(0.000179968 -0.000182353 0.129311)
(4.46932e-07 -1.67488e-08 0.134299)
(1.89231e-07 -9.9603e-07 0.134287)
(-4.70889e-07 6.70238e-07 0.134297)
(-1.423e-06 -1.36117e-06 0.134288)
(-4.43717e-07 -1.44161e-06 0.134308)
(2.26544e-06 -8.56363e-07 0.134292)
(1.78589e-06 -8.96486e-07 0.134309)
(0.000172246 -0.000170669 0.129433)
(-0.000179079 0.000180012 0.129289)
(-1.88152e-06 -2.12054e-06 0.13454)
(2.07114e-06 -9.72101e-07 0.134517)
(-2.06324e-06 -1.93219e-06 0.134542)
(0.000178944 0.000181826 0.129312)
(0.0001723 0.0001704 0.12945)
(-0.000179743 -0.000182126 0.129311)
(3.22349e-06 1.88021e-06 0.13454)
(-2.74489e-06 2.19617e-06 0.134535)
(3.20665e-06 1.60302e-06 0.134542)
(-3.74784e-06 5.09634e-07 0.134536)
(-0.000171679 0.000169482 0.12945)
(0.000179365 -0.000182092 0.129311)
(-4.63726e-07 -2.22756e-07 0.134296)
(-3.97999e-07 -8.59594e-07 0.134287)
(-9.38272e-07 -1.02605e-06 0.134296)
(-1.86337e-06 -1.47885e-06 0.134289)
(-3.56596e-07 -1.11037e-06 0.134308)
(1.4964e-06 -9.17202e-07 0.134292)
(4.0877e-07 -1.56236e-06 0.134306)
(0.000173173 -0.000171964 0.129431)
(-0.000178898 0.000180884 0.129284)
(-2.48132e-06 -3.28544e-06 0.134539)
(3.05461e-06 -9.17061e-07 0.134516)
(-3.7659e-06 -5.21771e-07 0.13454)
(0.000178565 0.000181357 0.129309)
(0.000173016 0.000170084 0.129452)
(-0.000179715 -0.00018304 0.129313)
(3.18946e-06 1.46404e-06 0.134541)
(-3.51301e-06 1.43851e-06 0.134534)
(3.11418e-06 -5.7884e-07 0.134541)
(-3.9157e-06 -2.64457e-07 0.134536)
(-0.000172925 0.000170048 0.12945)
(0.000179628 -0.000182803 0.129309)
(-4.26182e-07 -1.79683e-06 0.134295)
(1.40914e-06 -2.09129e-06 0.134288)
(-1.04729e-06 -1.7775e-06 0.134297)
(-5.83162e-07 -1.96439e-06 0.134286)
(-5.26216e-07 -1.19518e-06 0.134304)
(1.16183e-06 -1.4991e-06 0.134292)
(1.12826e-06 -5.29236e-07 0.134305)
(0.000172814 -0.000171106 0.129425)
(-0.000179729 0.000181765 0.129278)
(-3.07932e-06 -1.63664e-06 0.134538)
(3.66723e-06 -8.06838e-07 0.134514)
(-2.57127e-06 -4.94088e-07 0.134537)
(0.000179922 0.000181571 0.129305)
(0.00017371 0.000169519 0.129454)
(-0.000180302 -0.000181966 0.129311)
(3.27035e-06 4.09434e-07 0.134541)
(-3.50287e-06 1.56211e-06 0.134534)
(3.38049e-06 8.59149e-08 0.134544)
(-4.08146e-06 8.73563e-07 0.134532)
(-0.000172111 0.000168814 0.129447)
(0.000178623 -0.000181037 0.129309)
(-9.0489e-08 -1.75428e-06 0.134296)
(9.04415e-07 -7.83935e-07 0.134285)
(-1.12612e-06 -8.7148e-07 0.134297)
(-9.28791e-07 -7.07157e-07 0.134284)
(-6.31122e-07 3.63385e-07 0.134303)
(2.00712e-06 -1.17988e-06 0.134288)
(1.17448e-06 -8.07194e-07 0.134303)
(0.000172393 -0.000170405 0.129421)
(-0.00017889 0.000181376 0.129279)
(-2.21122e-06 -2.14934e-06 0.134536)
(2.1212e-06 3.97415e-07 0.134513)
(-1.96453e-06 6.06948e-07 0.134536)
(0.000180212 0.000183097 0.129308)
(0.000171917 0.000169691 0.129452)
(-0.000181298 -0.000180961 0.129309)
(3.27674e-06 1.17748e-06 0.134542)
(-3.03447e-06 1.322e-06 0.13453)
(2.36608e-06 8.03746e-07 0.134541)
(-2.95066e-06 5.46478e-07 0.134529)
(-0.000171136 0.0001693 0.129446)
(0.000181251 -0.000179027 0.129306)
(-6.8902e-07 -1.07089e-06 0.134296)
(1.16356e-07 -2.29735e-07 0.134284)
(-2.63538e-06 -1.07905e-06 0.134297)
(-1.19128e-06 -2.81065e-08 0.134279)
(2.64645e-07 -3.19436e-07 0.134302)
(2.1012e-06 2.91125e-07 0.134282)
(5.26173e-07 -8.53464e-07 0.134302)
(0.00017238 -0.000169619 0.12942)
(-0.000179316 0.00018198 0.129275)
(-2.89304e-06 -1.64133e-06 0.134535)
(2.77775e-06 1.20998e-07 0.134513)
(-3.16913e-06 -8.75106e-08 0.134534)
(0.000179315 0.000182484 0.129304)
(0.000170972 0.000171145 0.12945)
(-0.000182224 -0.000179794 0.129305)
(2.21848e-06 2.3662e-06 0.13454)
(-2.56841e-06 2.97129e-06 0.134528)
(1.93504e-06 1.34383e-06 0.134536)
(-1.79809e-06 2.93074e-06 0.134529)
(-0.000170054 0.000172458 0.129444)
(0.000181238 -0.000178863 0.129306)
(-1.74435e-06 -1.0595e-06 0.134297)
(-2.65753e-07 1.10891e-06 0.134278)
(-1.29454e-06 1.64374e-06 0.134293)
(-2.09988e-06 1.20485e-06 0.134277)
(-6.33021e-07 -7.34343e-08 0.134298)
(4.63349e-06 -4.83205e-08 0.134283)
(9.98248e-07 -1.63141e-07 0.134298)
(0.000171156 -0.000168595 0.129416)
(-0.000179245 0.000182086 0.129278)
(-2.2308e-06 -1.26286e-06 0.13453)
(2.69678e-06 5.31262e-08 0.13451)
(-1.7746e-06 1.44447e-06 0.134533)
(0.000179794 0.000183184 0.129304)
(0.000170413 0.000171842 0.129445)
(-0.000181736 -0.000180423 0.129307)
(1.7596e-06 3.22703e-06 0.134534)
(-1.13999e-06 4.73251e-06 0.134525)
(1.28268e-06 2.39984e-06 0.134533)
(-1.49874e-06 1.90989e-06 0.134526)
(-0.000169054 0.000172424 0.129444)
(0.0001819 -0.000178907 0.129309)
(-1.66741e-06 9.4948e-07 0.134293)
(4.59085e-07 1.41386e-06 0.134277)
(-1.79266e-06 1.21426e-06 0.134294)
(-5.27496e-07 5.67145e-07 0.134281)
(-4.15046e-07 6.72265e-07 0.134294)
(3.40647e-06 1.58253e-06 0.134287)
(1.53163e-06 7.60945e-07 0.134293)
(0.000171691 -0.000168706 0.12942)
(-0.00017767 0.000181355 0.129283)
(-1.28414e-06 -1.84392e-07 0.134531)
(2.74539e-06 3.98159e-07 0.13451)
(-9.81995e-07 1.35635e-06 0.13453)
(0.000179758 0.000181691 0.129308)
(0.000171543 0.000171886 0.129448)
(-0.000180427 -0.000179709 0.129305)
(1.61705e-06 3.35181e-06 0.134533)
(-1.67195e-06 3.85905e-06 0.134525)
(2.03491e-06 2.25059e-06 0.134533)
(-1.93556e-06 2.06146e-06 0.134525)
(-0.000170041 0.000172532 0.129447)
(0.000180583 -0.000179768 0.129306)
(-5.50263e-07 1.34581e-06 0.134293)
(1.30189e-06 5.36847e-07 0.134279)
(-1.18984e-06 2.00818e-06 0.134294)
(-1.21683e-06 1.80474e-07 0.13428)
(-5.5904e-07 1.86503e-08 0.134292)
(2.59704e-06 1.91372e-06 0.134284)
(1.80883e-06 2.40268e-07 0.134293)
(0.000172395 -0.0001688 0.129425)
(-0.000178169 0.000181032 0.129282)
(-1.10826e-06 1.45318e-07 0.134531)
(3.84894e-06 -1.61926e-07 0.134511)
(-2.73301e-06 -4.26598e-07 0.134534)
(0.000179795 0.000182608 0.129308)
(0.000172519 0.000171945 0.129445)
(-0.000179524 -0.000179146 0.129308)
(2.79525e-06 3.60181e-06 0.134531)
(-9.76835e-07 3.12782e-06 0.134523)
(2.2198e-06 1.88349e-06 0.13453)
(-2.18495e-06 2.27939e-06 0.134523)
(-0.000171739 0.000172162 0.129444)
(0.000180111 -0.000179519 0.129311)
(-1.27986e-06 1.3128e-06 0.134293)
(1.39875e-07 5.87273e-07 0.134279)
(-9.54814e-07 1.68332e-06 0.134294)
(-8.03901e-07 -4.07171e-07 0.134277)
(3.00525e-07 3.57589e-07 0.134292)
(2.2633e-06 7.23333e-07 0.134285)
(1.6914e-06 3.89308e-08 0.134297)
(0.000171977 -0.000169346 0.129424)
(-0.00017985 0.000181946 0.129282)
(-2.21107e-06 -1.32769e-06 0.134533)
(3.0547e-06 1.0627e-07 0.134508)
(-1.55677e-06 3.54424e-07 0.134536)
(0.000180129 0.000182929 0.129312)
(0.00017343 0.00017312 0.129447)
(-0.000179337 -0.000179458 0.129309)
(2.28878e-06 2.53996e-06 0.134532)
(-2.48852e-06 4.53514e-06 0.134522)
(2.42294e-06 2.95364e-06 0.134533)
(-3.22416e-06 2.41538e-06 0.134523)
(-0.000171205 0.000171611 0.129452)
(0.000179956 -0.000179875 0.129315)
(-5.88159e-07 7.57723e-07 0.134295)
(-4.55672e-07 5.8113e-08 0.134276)
(-1.58958e-06 4.16666e-07 0.134297)
(-4.88704e-07 -8.75626e-07 0.134279)
(-5.43932e-07 -3.22762e-07 0.134297)
(1.74577e-06 1.30263e-06 0.134288)
(2.07786e-06 -1.44167e-07 0.134301)
(0.000172059 -0.000169878 0.129424)
(-0.000178791 0.000180251 0.129285)
(-2.34997e-06 -2.11762e-06 0.134535)
(2.35556e-06 -1.87095e-07 0.134509)
(-2.94389e-06 -7.88563e-07 0.134536)
(0.000178987 0.000181763 0.129314)
(0.000172289 0.000171647 0.12945)
(-0.000180841 -0.000179983 0.129312)
(2.19254e-06 3.71165e-06 0.134535)
(-3.00204e-06 4.16591e-06 0.134522)
(2.87694e-06 2.2421e-06 0.134535)
(-3.51937e-06 2.46802e-06 0.134525)
(-0.000173114 0.000172765 0.129452)
(0.000179444 -0.000178688 0.129314)
(-7.16268e-07 7.84787e-07 0.134296)
(8.95541e-07 -1.36381e-06 0.134278)
(-1.12807e-06 1.09085e-06 0.134298)
(-2.09162e-06 4.56804e-07 0.134282)
(6.05085e-09 -5.51258e-07 0.134303)
(1.6018e-06 5.6085e-07 0.13429)
(1.04661e-06 -4.39244e-07 0.134307)
(0.000172948 -0.000171228 0.129426)
(-0.000179307 0.000181277 0.12929)
(-3.33525e-06 -2.42099e-06 0.134536)
(2.92656e-06 -1.47892e-06 0.134509)
(-2.44538e-06 -4.25373e-07 0.13454)
(0.00017962 0.000181563 0.129318)
(0.000171512 0.000171353 0.129452)
(-0.000180893 -0.000180507 0.129313)
(2.96434e-06 3.44086e-06 0.134536)
(-2.64162e-06 3.48117e-06 0.134526)
(3.21732e-06 2.36231e-06 0.134535)
(-4.32357e-06 2.69066e-06 0.134528)
(-0.000172317 0.00017317 0.129454)
(0.000179997 -0.000181391 0.129314)
(-3.46723e-07 1.11119e-06 0.134299)
(-9.8562e-08 1.13376e-07 0.134284)
(-1.60307e-06 1.03011e-06 0.134299)
(-3.08973e-06 3.45988e-07 0.134288)
(-8.0674e-08 1.76904e-07 0.134308)
(2.57491e-06 5.5229e-07 0.134293)
(7.63727e-07 -1.46049e-06 0.134309)
(0.000171398 -0.000169568 0.129432)
(-0.000179628 0.00018073 0.129297)
(-1.86984e-06 -1.51466e-06 0.134541)
(2.25275e-06 -3.91365e-07 0.134509)
(-2.67357e-06 -1.981e-07 0.134541)
(0.000178742 0.000181653 0.129317)
(0.000172354 0.000171999 0.129452)
(2.62883e-06 3.37404e-06 0.134535)
(-2.92664e-06 3.11332e-06 0.134528)
(-0.000172076 0.000171053 0.129453)
(1.65805e-06 2.20243e-06 0.134298)
(3.27873e-07 -5.30816e-07 0.134289)
(-1.05398e-06 -1.23946e-06 0.134309)
(-4.18167e-07 -1.72403e-06 0.134307)
(0.00017194 -0.000171135 0.129436)
(-2.63109e-06 -1.72368e-06 0.13454)
(-3.0585e-06 -3.09902e-07 0.134539)
(0.000179497 0.000182002 0.129316)
(-5.84131e-07 -4.80613e-05 0.0983527)
(9.4841e-06 3.00603e-05 0.0719675)
(1.9969e-06 4.47541e-05 0.0984858)
(-6.51113e-06 -2.48826e-05 0.0719297)
(-9.3171e-06 1.1364e-05 0.0614452)
(9.20854e-06 -7.16159e-06 0.0614067)
(-3.82858e-05 5.58937e-07 0.0972652)
(2.54455e-05 2.93361e-07 0.0717024)
(3.99092e-05 -1.22295e-06 0.0978659)
(-2.3998e-05 1.10205e-06 0.0714666)
(1.76938e-06 1.02219e-07 0.141186)
(-1.79149e-06 1.7639e-07 0.14118)
(2.47496e-06 1.20933e-06 0.141203)
(-9.89116e-07 1.07605e-06 0.141183)
(2.50373e-06 -4.89183e-07 0.141186)
(-1.80264e-06 5.4169e-07 0.141182)
(1.75758e-06 1.03747e-06 0.141203)
(4.24319e-05 -6.17494e-07 0.116136)
(-2.72433e-05 1.90849e-05 0.100751)
(3.43289e-06 -1.42598e-06 0.137816)
(9.96747e-07 2.91318e-07 0.1343)
(2.57989e-05 -2.1448e-05 0.100275)
(1.9766e-06 -1.53007e-06 0.137817)
(-4.42243e-05 -1.36655e-06 0.116832)
(6.95135e-06 -1.99401e-06 0.0613723)
(-5.23763e-06 7.62063e-07 0.0612158)
(-2.01401e-06 4.75472e-05 0.117154)
(-2.0883e-06 -6.58973e-07 0.138151)
(2.98432e-05 -2.82962e-05 0.101113)
(2.75385e-06 -1.00546e-06 0.134525)
(-1.61182e-06 -2.43736e-06 0.138155)
(-2.86818e-05 2.84444e-05 0.10094)
(1.05083e-06 -4.91352e-05 0.117316)
(-7.77413e-06 -1.25034e-05 0.085482)
(-2.2585e-05 -7.00967e-06 0.0856813)
(0.000179124 0.000181737 0.129324)
(7.61484e-06 1.39936e-05 0.0851306)
(2.11733e-05 8.51167e-06 0.0854974)
(-1.80665e-07 -4.83579e-05 0.0983501)
(4.31928e-06 2.99789e-05 0.0719678)
(1.60902e-06 4.79926e-05 0.0984848)
(-8.86122e-06 -2.67869e-05 0.0719289)
(-6.62063e-06 1.00805e-05 0.0614517)
(9.27075e-06 -5.79586e-06 0.0614157)
(-3.91207e-05 9.55193e-07 0.0972642)
(2.43257e-05 6.02984e-07 0.0717116)
(3.69137e-05 -1.43948e-06 0.0978646)
(-2.42621e-05 1.06905e-06 0.0714839)
(1.33686e-06 2.92855e-07 0.141184)
(-1.31726e-06 -1.02048e-07 0.14118)
(8.98124e-07 3.00797e-07 0.141201)
(-2.9903e-07 7.89982e-07 0.141184)
(6.66558e-07 1.43899e-06 0.141188)
(-4.18805e-07 -1.09667e-06 0.14118)
(1.4228e-07 -9.10736e-07 0.141202)
(4.17498e-05 1.40289e-07 0.116131)
(-2.55533e-05 1.78054e-05 0.100753)
(3.23318e-06 -5.77386e-07 0.137815)
(1.47132e-06 9.59608e-07 0.134296)
(-4.42567e-05 -6.71303e-07 0.116824)
(2.71586e-05 -2.14218e-05 0.100276)
(3.17746e-06 -6.30022e-07 0.137814)
(5.7348e-06 -2.33105e-06 0.0613787)
(-6.41597e-06 9.10109e-07 0.0612277)
(-1.97985e-06 4.73467e-05 0.117147)
(-2.04385e-06 -1.46488e-06 0.138147)
(2.79495e-05 -2.63451e-05 0.101118)
(1.99307e-06 -1.75768e-06 0.134518)
(8.0394e-07 -4.64724e-05 0.117312)
(-1.10027e-06 -2.25983e-06 0.138144)
(-3.03911e-05 2.83734e-05 0.100944)
(-7.0327e-06 -1.08211e-05 0.0854874)
(-2.23079e-05 -5.13695e-06 0.0856849)
(0.000179769 0.000181163 0.129319)
(8.06868e-06 1.2481e-05 0.0851348)
(2.10224e-05 7.9181e-06 0.0855037)
(2.87717e-08 -4.79291e-05 0.0983476)
(6.94784e-06 3.02701e-05 0.0719591)
(1.51791e-06 4.81855e-05 0.0984836)
(-6.16899e-06 -2.63724e-05 0.0719201)
(-8.87512e-06 8.72147e-06 0.061456)
(6.5548e-06 -8.5841e-06 0.0614179)
(-3.74298e-05 5.42303e-07 0.097258)
(2.40525e-05 -6.5618e-07 0.0717224)
(3.86909e-05 -9.27766e-07 0.097862)
(-2.32988e-05 1.04519e-06 0.071484)
(7.76571e-07 1.02209e-06 0.141186)
(-9.73865e-07 -1.14671e-06 0.141178)
(4.57196e-08 -1.3033e-06 0.141199)
(-4.99824e-07 4.05017e-07 0.14119)
(1.51015e-07 6.86587e-07 0.14119)
(-3.26895e-07 -1.57077e-06 0.14118)
(1.45038e-07 -1.3982e-06 0.141203)
(4.12059e-05 6.90766e-08 0.116129)
(-2.55962e-05 1.95444e-05 0.100751)
(2.86187e-06 -1.47447e-06 0.137815)
(1.14891e-06 5.23753e-07 0.134294)
(-4.53874e-05 -1.21715e-06 0.116822)
(2.68782e-05 -2.308e-05 0.100273)
(1.92269e-06 -1.59753e-06 0.137815)
(5.69682e-06 -2.66481e-06 0.0613884)
(-5.82333e-06 3.69031e-07 0.061234)
(-1.67197e-06 4.62566e-05 0.11714)
(-1.70418e-06 -2.55832e-06 0.138142)
(2.96003e-05 -2.80854e-05 0.101116)
(1.73862e-06 -1.93118e-06 0.134513)
(3.50614e-07 -4.81127e-05 0.117305)
(-1.40975e-06 -3.85828e-06 0.13814)
(-2.87734e-05 2.74008e-05 0.10094)
(-6.30283e-06 -1.27354e-05 0.0854864)
(-2.25233e-05 -6.30856e-06 0.0856887)
(0.000179465 0.00018128 0.129316)