/*--------------------------------*- C++ -*----------------------------------*\
| =========                 |                                                 |
| \\      /  F ield         | OpenFOAM: The Open Source CFD Toolbox           |
|  \\    /   O peration     | Version:  2206                                  |
|   \\  /    A nd           | Website:  www.openfoam.com                      |
|    \\/     M anipulation  |                                                 |
\*---------------------------------------------------------------------------*/
FoamFile
{
    version     2.0;
    format      ascii;
    arch        "LSB;label=32;scalar=64";
    class       volVectorField;
    location    "90";
    object      wallShearStress;
}
// * * * * * * * * * * * * * * * * * * * * * * * * * * * * * * * * * * * * * //

dimensions      [0 2 -2 0 0 0 0];

internalField   uniform (0 0 0);

boundaryField
{
    topPatch
    {
        type            calculated;
        value           nonuniform List<vector> 0();
    }
    wall
    {
        type            calculated;
        value           nonuniform List<vector> 
7746
(
(3.14765e-08 -1.2577e-08 -0.000114277)
(7.98353e-09 -4.75102e-09 -0.000114234)
(2.66547e-08 -2.27172e-09 -0.000107448)
(4.64059e-09 -6.0231e-09 -0.00010738)
(1.19362e-09 -9.53148e-10 -0.000107433)
(4.42703e-09 2.09792e-09 -0.000114281)
(1.05225e-08 2.57003e-09 -0.000114287)
(1.76732e-08 5.51948e-10 -0.000107436)
(-1.29379e-09 -4.04129e-09 -0.000114228)
(2.75713e-08 -1.14537e-08 -0.000114242)
(-7.34491e-10 -4.07491e-09 -0.000114307)
(6.77874e-09 -8.38167e-09 -0.000114213)
(2.48233e-08 -8.65599e-09 -0.000114232)
(-3.22092e-09 -3.63135e-09 -0.000114192)
(7.47752e-09 -7.35247e-09 -0.000114224)
(-1.14734e-09 -4.33467e-09 -0.000114293)
(-1.13481e-08 1.97101e-09 -0.000114247)
(-2.01329e-08 4.41004e-09 -0.000107343)
(9.46958e-09 -7.50146e-10 -0.000107938)
(-1.5327e-08 -2.23808e-09 -0.000107923)
(1.42759e-08 1.01854e-08 -0.000113202)
(-2.25122e-08 -1.59252e-08 -0.000113254)
(-1.831e-08 -4.82508e-09 -0.000114268)
(-1.45138e-08 2.89352e-09 -0.000107362)
(2.90835e-08 -1.04677e-08 -0.000114264)
(-3.6266e-09 -3.69587e-09 -0.000114221)
(7.68259e-09 -7.1941e-09 -0.000114225)
(-1.13378e-09 -4.1816e-09 -0.000114314)
(-5.30365e-09 -1.4616e-09 -0.000114195)
(2.71438e-08 -1.03057e-08 -0.000114235)
(-1.29139e-09 -2.93957e-09 -0.000114309)
(6.53686e-09 -5.96387e-09 -0.000114217)
(-1.60479e-09 -6.16613e-09 -0.00010735)
(3.38633e-08 -8.46281e-09 -0.000107409)
(2.98411e-09 -3.53171e-09 -0.000114224)
(-2.43243e-08 -8.36858e-09 -0.000114244)
(1.08633e-09 -8.19379e-09 -0.000107453)
(3.75203e-09 -1.20306e-09 -0.000107366)
(-2.06266e-09 1.54012e-09 -0.00011436)
(5.57294e-09 6.08379e-09 -0.000114268)
(-9.84283e-09 -3.13315e-09 -0.000107297)
(1.74382e-08 -2.9997e-10 -0.000107388)
(1.24578e-08 2.20035e-09 -0.000114208)
(-1.61144e-08 -4.10942e-09 -0.000114248)
(-2.17001e-09 -3.86194e-09 -0.000107447)
(2.74525e-09 1.83442e-09 -0.000107385)
(-1.2579e-09 1.09779e-09 -0.00011436)
(5.89868e-09 5.59416e-09 -0.000114281)
(-2.05098e-08 1.79037e-09 -0.000107295)
(1.56242e-08 3.8434e-10 -0.000107379)
(2.38943e-08 7.82989e-09 -0.000114217)
(-7.7582e-09 1.44703e-09 -0.000114252)
(-3.40911e-09 2.38557e-10 -0.000107477)
(3.27934e-09 8.57703e-10 -0.000107399)
(-2.55575e-10 1.68933e-09 -0.000114388)
(5.26393e-09 6.67302e-09 -0.000114299)
(-2.20611e-08 1.90406e-09 -0.000107283)
(1.48762e-08 1.19858e-09 -0.000107378)
(2.46003e-08 8.72116e-09 -0.000114221)
(-1.07644e-08 -1.82484e-09 -0.000114254)
(-3.93838e-09 -2.0202e-09 -0.000107467)
(3.27126e-09 3.28159e-09 -0.000107399)
(4.09409e-10 5.18797e-09 -0.000114386)
(6.91018e-09 6.89705e-09 -0.000114298)
(-2.04049e-08 1.63826e-09 -0.000107288)
(1.56688e-08 -5.31343e-11 -0.00010738)
(2.13381e-08 6.9774e-09 -0.000114229)
(-7.92293e-09 4.28441e-10 -0.000114253)
(-6.6173e-09 7.25234e-09 -0.000107473)
(8.19313e-10 6.95159e-09 -0.0001074)
(-2.09076e-09 -1.92127e-10 -0.000114385)
(5.35943e-09 5.00433e-09 -0.000114294)
(-2.15081e-08 1.78129e-09 -0.000107288)
(1.13538e-08 1.61926e-09 -0.000107384)
(2.55865e-08 8.46898e-09 -0.000114226)
(-8.43998e-09 -4.60115e-10 -0.000114258)
(-2.53898e-09 -3.17794e-09 -0.000107471)
(4.23603e-09 -1.50667e-09 -0.000107399)
(-1.32265e-09 2.20229e-09 -0.000114381)
(1.69605e-09 -4.79561e-10 -0.000114285)
(-1.83693e-08 9.31753e-11 -0.000107299)
(1.45686e-08 1.08001e-09 -0.000107397)
(2.19805e-08 6.65026e-09 -0.000114227)
(-8.98132e-09 4.13298e-10 -0.000114266)
(-2.2134e-09 -5.72396e-09 -0.000107471)
(2.21517e-09 3.82708e-09 -0.000107396)
(-5.08531e-09 -3.6233e-09 -0.000114382)
(1.13628e-09 -1.70203e-09 -0.000114286)
(-2.09658e-08 1.57271e-09 -0.000107314)
(1.45403e-08 1.49143e-09 -0.000107407)
(2.20515e-08 6.71237e-09 -0.000114241)
(-9.69825e-09 -3.24803e-10 -0.000114284)
(-3.49958e-09 -2.00814e-09 -0.000107464)
(5.10513e-09 -1.92884e-09 -0.000107389)
(-1.03999e-09 4.02752e-09 -0.000114379)
(7.5993e-09 9.47221e-09 -0.00011428)
(-1.41064e-08 -1.19271e-09 -0.00010732)
(2.03316e-08 -1.86913e-09 -0.000107415)
(1.66914e-08 4.20283e-09 -0.000114251)
(-1.45046e-08 -3.03647e-09 -0.000114284)
(-1.50133e-09 -8.14021e-09 -0.000107455)
(6.73391e-09 -5.99029e-09 -0.000107391)
(-3.28607e-09 -1.63367e-09 -0.000114369)
(2.41416e-09 7.00511e-10 -0.000114271)
(-1.20089e-08 -2.25746e-09 -0.000107325)
(1.88541e-08 -9.60359e-10 -0.000107416)
(7.43095e-09 -1.18495e-09 -0.000114254)
(-2.19257e-08 -8.17959e-09 -0.000114289)
(-2.15344e-09 -5.00679e-09 -0.00010746)
(6.67517e-09 -9.07742e-09 -0.000107391)
(-2.77232e-09 -9.12553e-10 -0.000114367)
(1.18293e-09 2.23651e-10 -0.000114269)
(-1.95955e-08 8.06882e-10 -0.000107332)
(1.61292e-08 1.86595e-10 -0.00010742)
(1.59727e-08 3.39048e-09 -0.000114259)
(-1.52295e-08 -4.22507e-09 -0.000114283)
(-1.24874e-09 -6.92325e-09 -0.00010747)
(5.10952e-09 -4.1668e-09 -0.000107401)
(-2.64773e-09 1.26062e-09 -0.000114363)
(4.26928e-09 3.97309e-09 -0.000114277)
(-1.81497e-08 8.33207e-11 -0.00010732)
(1.54975e-08 -4.91503e-10 -0.00010741)
(1.27924e-08 1.353e-09 -0.000114245)
(-1.38365e-08 -3.14523e-09 -0.000114274)
(-2.28441e-09 -5.01152e-09 -0.000107476)
(3.08236e-09 1.59722e-09 -0.000107403)
(-4.2999e-09 -2.26866e-09 -0.000114371)
(8.7431e-10 -1.2679e-09 -0.000114276)
(-2.00534e-08 -8.74605e-11 -0.000107315)
(1.49075e-08 1.48248e-09 -0.000107417)
(2.34034e-08 7.38202e-09 -0.000114239)
(-3.66298e-09 3.32368e-09 -0.000114273)
(-3.65678e-09 5.17891e-10 -0.000107471)
(4.65921e-09 -1.25003e-10 -0.000107399)
(-3.24312e-09 -1.00784e-09 -0.000114378)
(5.54167e-09 5.24064e-09 -0.000114283)
(-1.54581e-08 -7.28887e-10 -0.000107321)
(2.13114e-08 -2.07429e-09 -0.000107409)
(2.1573e-08 6.52261e-09 -0.000114236)
(-1.46785e-08 -3.50865e-09 -0.00011428)
(-2.494e-09 -5.18728e-09 -0.000107467)
(2.4544e-09 2.88036e-09 -0.000107389)
(-2.11252e-09 2.12376e-09 -0.000114359)
(5.13477e-09 4.37738e-09 -0.000114267)
(-1.50073e-08 -1.91379e-09 -0.000107312)
(1.9756e-08 -1.23892e-09 -0.000107406)
(1.48002e-08 2.36813e-09 -0.000114234)
(-1.57865e-08 -3.22117e-09 -0.00011427)
(-4.10566e-09 -1.00693e-09 -0.000107458)
(4.46603e-09 6.99758e-10 -0.000107396)
(-3.42522e-09 -1.92618e-09 -0.000114361)
(3.85759e-09 3.37912e-09 -0.000114268)
(-1.60032e-08 -9.85706e-10 -0.000107314)
(2.38521e-08 -3.81439e-09 -0.000107399)
(1.47458e-08 2.49759e-09 -0.000114235)
(-1.83875e-08 -5.3931e-09 -0.000114263)
(-3.98737e-09 9.20201e-11 -0.000107467)
(3.55577e-09 -1.73126e-10 -0.000107392)
(-2.67364e-10 4.43288e-09 -0.000114359)
(3.66589e-09 2.68744e-09 -0.000114261)
(-1.56822e-08 -4.01779e-10 -0.000107304)
(1.75219e-08 5.88348e-10 -0.000107399)
(1.85838e-08 4.57707e-09 -0.000114214)
(-1.06823e-08 6.63849e-10 -0.000114246)
(-4.24962e-09 -2.59816e-10 -0.000107465)
(3.18519e-09 4.53558e-09 -0.000107398)
(-3.21778e-10 6.24875e-09 -0.000114363)
(9.97635e-09 1.09404e-08 -0.000114266)
(-2.41546e-10 -7.61643e-09 -0.000107352)
(-3.13669e-08 -5.42809e-09 -0.000107422)
(2.71321e-08 -3.97091e-09 -0.000107391)
(-1.81342e-09 -7.08443e-09 -0.000107307)
(-2.47767e-08 -3.77453e-09 -0.000107409)
(4.80429e-09 -5.49979e-09 -0.000107326)
(-1.22429e-09 -8.42059e-09 -0.000114329)
(-5.7783e-09 -8.63899e-09 -0.000114248)
(-1.94529e-08 -5.98908e-09 -0.000114249)
(3.67482e-09 -3.7002e-09 -0.000114202)
(-6.86167e-09 -5.41139e-09 -0.000114257)
(-2.13952e-09 -7.43218e-09 -0.000114336)
(-8.76196e-10 4.96646e-09 -0.000107506)
(2.79812e-09 6.58033e-10 -0.000107421)
(5.2038e-09 -2.06475e-09 -0.000107375)
(-2.71514e-09 -3.58509e-09 -0.000107433)
(4.28266e-09 3.29085e-10 -0.000107422)
(-2.66509e-09 2.00797e-09 -0.000107492)
(1.63339e-09 -7.23943e-09 -0.000107472)
(-3.69833e-09 -7.15752e-10 -0.000107405)
(1.77993e-09 4.09748e-09 -0.000107478)
(-4.24928e-09 3.18493e-10 -0.000107405)
(-6.17265e-09 -2.45528e-09 -0.000107414)
(1.2828e-09 -5.73063e-09 -0.000107473)
(-3.65757e-09 -1.25296e-09 -0.0001074)
(5.1316e-09 3.59909e-10 -0.000107469)
(-1.89655e-08 -4.87075e-09 -0.000114245)
(9.5859e-09 6.90138e-10 -0.00011428)
(5.06413e-09 4.5604e-09 -0.000114266)
(-1.31049e-09 1.89663e-09 -0.000114351)
(1.28426e-08 1.72422e-09 -0.000114279)
(-2.17533e-08 -7.54978e-09 -0.000114236)
(-1.86491e-08 2.19951e-10 -0.000107337)
(1.24043e-08 -2.30812e-09 -0.00010743)
(1.49536e-08 6.71298e-11 -0.000107309)
(-1.61642e-08 3.63897e-10 -0.000107402)
(1.66286e-08 -1.1854e-10 -0.000107427)
(-2.30554e-08 -2.5782e-09 -0.000107331)
(-1.73332e-08 3.22592e-10 -0.000107406)
(1.93879e-08 -4.87971e-10 -0.000107311)
(3.96112e-09 -3.31288e-09 -0.000114331)
(-3.87831e-09 2.84176e-09 -0.000114245)
(1.56692e-08 -3.59369e-09 -0.000114191)
(-1.02743e-08 5.46442e-10 -0.000114231)
(-4.89572e-09 3.324e-09 -0.000114238)
(4.39803e-09 -9.60353e-10 -0.000114323)
(-1.41461e-08 2.32733e-09 -0.000114233)
(1.86024e-08 -4.70359e-09 -0.000114187)
(-8.88258e-09 -6.80416e-12 -0.000114193)
(1.53133e-08 -3.51401e-09 -0.000114235)
(9.53009e-10 -5.06263e-09 -0.000114315)
(4.47473e-09 -5.21858e-09 -0.000114232)
(1.34507e-08 -2.23376e-09 -0.000114242)
(-1.78286e-08 5.68026e-09 -0.000114196)
(3.58101e-09 -5.26027e-10 -0.000114246)
(-1.13748e-09 -1.59862e-09 -0.000114322)
(8.50244e-09 -2.47792e-09 -0.000107318)
(-2.116e-08 -1.90681e-09 -0.000107407)
(1.23277e-08 2.16615e-09 -0.00010739)
(-2.12302e-08 1.73798e-09 -0.000107293)
(-1.57139e-08 -2.931e-10 -0.000107411)
(1.64017e-08 -4.17175e-10 -0.000107313)
(1.08677e-09 -6.80296e-10 -0.000114349)
(-4.89441e-09 -4.76883e-09 -0.00011427)
(-1.29648e-08 -2.45919e-09 -0.000114257)
(1.95254e-08 6.19756e-09 -0.000114208)
(-8.08572e-09 -1.00668e-08 -0.000114275)
(2.70898e-09 1.7134e-09 -0.000114357)
(-2.29011e-09 1.90942e-09 -0.000107498)
(3.02791e-09 -3.55234e-09 -0.000107436)
(4.46224e-09 1.03645e-09 -0.000107404)
(-3.10454e-09 -3.41094e-09 -0.000107457)
(5.0789e-09 1.87634e-09 -0.000107447)
(-5.44883e-09 -1.02136e-09 -0.000107509)
(1.65822e-09 -4.67096e-09 -0.000107486)
(-4.895e-09 -7.62704e-10 -0.000107424)
(2.99449e-09 1.02572e-09 -0.000107481)
(-5.55322e-09 3.79592e-09 -0.000107418)
(-4.40485e-09 -2.20957e-09 -0.000107428)
(2.64789e-09 -2.17204e-09 -0.000107495)
(-5.77786e-09 3.55454e-09 -0.000107425)
(1.8251e-09 7.49705e-09 -0.000107489)
(-1.62314e-08 -4.10156e-09 -0.00011424)
(1.38458e-08 3.90622e-09 -0.000114289)
(6.00904e-09 5.81354e-09 -0.000114292)
(-1.57997e-09 3.07313e-09 -0.000114372)
(1.47119e-08 3.0763e-09 -0.000114305)
(-1.85699e-08 -4.79735e-09 -0.000114247)
(-1.57699e-08 6.74258e-10 -0.000107335)
(2.38772e-08 2.86449e-09 -0.000107439)
(1.67928e-08 -1.2961e-09 -0.000107319)
(-2.0395e-08 1.46429e-09 -0.00010742)
(1.9235e-08 2.34826e-10 -0.000107453)
(-1.14379e-08 3.04323e-09 -0.000107342)
(-1.63384e-08 -6.10437e-10 -0.000107429)
(1.64092e-08 3.16136e-10 -0.000107329)
(3.1258e-09 -2.48739e-09 -0.000114332)
(-6.91076e-09 7.58402e-09 -0.000114254)
(1.8514e-08 -6.00923e-09 -0.000114197)
(-1.4265e-08 2.87828e-09 -0.000114253)
(-6.68956e-09 7.85854e-09 -0.000114261)
(-4.67744e-10 5.10166e-09 -0.000114342)
(-1.5322e-08 2.93303e-09 -0.000114263)
(1.66208e-08 -4.48748e-09 -0.000114212)
(-1.99328e-08 5.93447e-09 -0.000114203)
(1.06086e-08 -1.41111e-09 -0.000114234)
(-3.12558e-09 2.00126e-09 -0.000114339)
(3.57292e-09 -2.90073e-09 -0.000114246)
(1.04366e-08 -9.38911e-10 -0.000114237)
(-2.1229e-08 7.06891e-09 -0.000114194)
(3.8553e-09 -1.84027e-09 -0.000114247)
(-3.18868e-09 6.0795e-10 -0.000114329)
(1.84833e-08 6.5171e-11 -0.000107317)
(-1.16525e-08 2.93507e-09 -0.000107405)
(1.24685e-08 1.90554e-09 -0.000107381)
(-2.12422e-08 1.74127e-09 -0.000107284)
(-1.30478e-08 2.36398e-09 -0.000107416)
(2.06093e-08 1.44565e-09 -0.000107314)
(2.73282e-09 6.22938e-10 -0.000114362)
(-1.51607e-09 1.33034e-09 -0.000114284)
(-7.84867e-09 6.82815e-10 -0.000114263)
(1.67046e-08 4.18693e-09 -0.000114211)
(-2.85307e-09 1.3801e-10 -0.000114285)
(1.93031e-09 2.18506e-10 -0.00011437)
(-7.54725e-10 4.92438e-09 -0.000107525)
(4.79104e-09 2.91704e-09 -0.000107452)
(4.27828e-09 4.69987e-10 -0.0001074)
(-4.19736e-09 -2.26244e-09 -0.000107462)
(6.19449e-09 4.64567e-09 -0.00010745)
(-2.32976e-09 6.13797e-09 -0.000107519)
(1.67873e-09 -4.46726e-09 -0.000107499)
(-1.23097e-09 7.80979e-09 -0.000107436)
(1.86272e-09 4.51715e-09 -0.000107498)
(-3.82956e-09 1.06467e-09 -0.000107423)
(-3.01433e-09 3.76314e-09 -0.00010744)
(4.21269e-09 1.69545e-09 -0.000107504)
(-5.5196e-09 9.58354e-10 -0.000107427)
(4.00053e-09 2.50924e-09 -0.000107488)
(-1.56481e-08 -4.54477e-09 -0.000114266)
(1.0211e-08 1.03963e-09 -0.000114303)
(5.97444e-09 6.07435e-09 -0.000114296)
(-9.06854e-10 3.06053e-09 -0.000114385)
(1.11981e-08 1.52257e-09 -0.000114294)
(-2.03782e-08 -6.87663e-09 -0.000114259)
(-1.77143e-08 -1.12298e-09 -0.000107358)
(1.32804e-08 -2.05287e-09 -0.000107447)
(1.66155e-08 -8.57117e-10 -0.000107336)
(-1.82487e-08 1.01584e-09 -0.000107422)
(1.43734e-08 -7.11255e-10 -0.000107441)
(-2.1782e-08 -1.13297e-09 -0.000107348)
(-1.52391e-08 -2.07004e-09 -0.000107427)
(1.79346e-08 -2.35877e-10 -0.000107329)
(2.18222e-09 -9.01675e-11 -0.000114349)
(-3.74655e-09 4.16762e-09 -0.000114255)
(1.52406e-08 -4.12267e-09 -0.000114221)
(-1.50419e-08 3.41517e-09 -0.00011426)
(-4.59546e-09 2.36351e-09 -0.000114258)
(2.97566e-09 -1.17246e-09 -0.000114339)
(-1.33617e-08 1.89114e-09 -0.000114259)
(1.61354e-08 -4.21556e-09 -0.000114217)
(-2.21223e-08 6.88613e-09 -0.000114195)
(1.17708e-08 -7.93767e-10 -0.000114237)
(-2.16516e-09 -7.14265e-10 -0.000114335)
(4.0847e-09 -3.16665e-09 -0.000114246)
(1.34511e-08 -1.95288e-09 -0.00011424)
(-1.98963e-08 5.61217e-09 -0.000114195)
(5.25905e-10 3.85197e-09 -0.000114247)
(-2.42799e-09 1.29737e-09 -0.000114332)
(2.20663e-08 1.32502e-09 -0.00010732)
(-1.55305e-08 2.03051e-10 -0.000107409)
(1.28887e-08 1.89173e-09 -0.000107381)
(-1.90217e-08 4.42382e-10 -0.000107283)
(-1.30658e-08 2.59383e-09 -0.000107425)
(1.89612e-08 2.71134e-10 -0.000107317)
(4.8962e-09 4.25119e-09 -0.000114371)
(-2.73949e-09 -2.18262e-09 -0.000114282)
(-1.68941e-08 -3.33466e-09 -0.000114269)
(2.23363e-08 7.30396e-09 -0.000114215)
(-7.0641e-09 -7.31093e-09 -0.000114283)
(5.64191e-09 5.703e-09 -0.000114362)
(-9.88129e-10 7.45444e-09 -0.000107521)
(6.93884e-09 5.8531e-09 -0.000107451)
(2.04186e-10 8.54129e-09 -0.000107402)
(-4.99934e-09 2.79117e-09 -0.000107464)
(4.22772e-09 6.56698e-10 -0.000107449)
(-6.53662e-11 7.46321e-09 -0.000107521)
(5.37677e-09 2.34594e-09 -0.000107508)
(-2.25159e-09 4.00092e-09 -0.000107437)
(2.78066e-09 2.90768e-09 -0.0001075)
(-4.90443e-09 2.34068e-09 -0.000107422)
(-4.11518e-09 -1.49184e-09 -0.000107439)
(4.59803e-09 5.72353e-10 -0.000107503)
(-6.19531e-09 4.87154e-09 -0.000107412)
(2.20515e-09 5.61363e-09 -0.000107489)
(-1.96476e-08 -5.89219e-09 -0.000114249)
(1.19482e-08 1.90067e-09 -0.000114292)
(5.05307e-09 4.37915e-09 -0.000114293)
(-2.40073e-11 3.891e-09 -0.000114384)
(1.89604e-08 4.57618e-09 -0.000114288)
(-1.66893e-08 -4.55886e-09 -0.000114248)
(-2.03563e-08 -1.32308e-09 -0.000107345)
(1.56621e-08 -9.98424e-11 -0.00010744)
(2.24304e-08 -2.0613e-09 -0.000107334)
(-1.45678e-08 -1.04381e-09 -0.000107423)
(1.86616e-08 3.93553e-10 -0.000107441)
(-1.9293e-08 -1.1154e-09 -0.000107344)
(-1.79299e-08 3.52945e-10 -0.000107421)
(1.99136e-08 -7.44535e-10 -0.000107328)
(2.67761e-09 -1.18874e-09 -0.000114349)
(-5.34364e-09 6.28798e-09 -0.000114256)
(2.20383e-08 -7.2604e-09 -0.000114218)
(-1.00315e-08 8.13659e-10 -0.000114259)
(-7.46236e-09 9.2504e-09 -0.000114244)
(9.49121e-10 3.04831e-09 -0.000114339)
(-1.45812e-08 3.54874e-09 -0.000114251)
(1.90873e-08 -5.92211e-09 -0.000114214)
(-1.75282e-08 4.70627e-09 -0.000114203)
(1.26354e-08 -1.90296e-09 -0.00011424)
(-7.3461e-09 8.92431e-09 -0.000114336)
(4.82472e-10 3.18595e-09 -0.000114247)
(1.00806e-08 -1.22134e-09 -0.000114243)
(-1.98013e-08 5.66854e-09 -0.000114198)
(3.93773e-09 -1.25154e-09 -0.000114252)
(-5.23544e-09 3.97936e-09 -0.00011433)
(2.14918e-08 2.30922e-09 -0.000107331)
(-8.52774e-09 3.3632e-09 -0.00010741)
(1.24533e-08 1.40053e-09 -0.00010738)
(-2.07024e-08 1.20974e-09 -0.000107285)
(-1.00725e-08 2.44129e-09 -0.00010742)
(2.47708e-08 2.68366e-09 -0.000107317)
(5.70594e-09 5.75376e-09 -0.000114368)
(-1.42278e-10 3.26999e-09 -0.000114277)
(-6.56969e-09 8.69686e-10 -0.000114269)
(1.69729e-08 4.42769e-09 -0.000114211)
(-3.78908e-09 -7.17684e-10 -0.000114271)
(2.67825e-09 -4.47057e-10 -0.000114357)
(-3.19511e-09 1.92883e-09 -0.000107523)
(5.2214e-09 1.7205e-09 -0.000107453)
(5.21228e-09 -1.30262e-09 -0.000107401)
(-4.73327e-09 1.94599e-09 -0.000107466)
(6.31944e-09 7.65975e-09 -0.00010745)
(-1.06859e-09 8.98922e-09 -0.00010752)
(3.82642e-09 -8.87523e-10 -0.000107509)
(-1.14313e-09 7.99002e-09 -0.000107436)
(1.12851e-09 6.17337e-09 -0.000107486)
(-3.83343e-09 1.64999e-09 -0.000107404)
(-4.5243e-09 4.77576e-11 -0.000107427)
(4.10281e-09 4.11718e-10 -0.000107498)
(-6.08554e-09 9.83338e-10 -0.000107411)
(3.97934e-09 2.40024e-09 -0.000107472)
(-1.35397e-08 -1.8015e-09 -0.000114242)
(1.63856e-08 4.67695e-09 -0.000114277)
(6.095e-09 7.76338e-09 -0.000114293)
(-6.68503e-10 4.0777e-09 -0.000114378)
(1.11796e-08 1.18157e-09 -0.000114276)
(-1.56969e-08 -3.22158e-09 -0.000114231)
(-1.77365e-08 -4.65403e-10 -0.000107344)
(2.1545e-08 1.96481e-09 -0.000107429)
(1.60064e-08 1.85596e-11 -0.000107328)
(-1.77306e-08 4.05034e-11 -0.000107419)
(1.5443e-08 1.03129e-10 -0.000107424)
(-1.49613e-08 1.59584e-10 -0.000107333)
(-8.86219e-09 -1.96877e-09 -0.000107415)
(1.95916e-08 -1.29695e-09 -0.000107326)
(7.72087e-10 2.62095e-09 -0.000114332)
(-6.80353e-09 9.3537e-09 -0.000114237)
(1.6152e-08 -4.54063e-09 -0.000114211)
(-1.37624e-08 2.44445e-09 -0.000114252)
(-4.74008e-09 2.43174e-09 -0.000114241)
(2.81961e-09 8.67383e-10 -0.000114318)
(-7.30904e-09 -7.68343e-10 -0.000114252)
(1.76828e-08 -4.91325e-09 -0.000114208)
(-2.04614e-08 6.23442e-09 -0.000114203)
(7.17746e-09 6.98464e-10 -0.000114243)
(-2.62557e-09 1.17548e-09 -0.000114343)
(4.14792e-09 -3.92394e-09 -0.000114251)
(7.78089e-09 -1.36831e-10 -0.000114242)
(-2.67099e-08 9.44416e-09 -0.000114198)
(5.54676e-09 -4.4146e-09 -0.000114252)
(-2.53781e-09 -2.8138e-10 -0.000114336)
(2.33743e-08 1.86357e-09 -0.000107328)
(-1.40438e-08 7.86227e-10 -0.000107419)
(1.58345e-08 -4.57428e-10 -0.000107389)
(-2.39088e-08 2.19344e-09 -0.000107286)
(-1.60318e-08 7.9321e-10 -0.000107434)
(2.18751e-08 9.52589e-10 -0.000107324)
(4.95862e-09 5.56043e-09 -0.000114362)
(-3.17583e-09 -1.11379e-09 -0.000114278)
(-1.45251e-08 -2.70063e-09 -0.000114271)
(2.41907e-08 7.16663e-09 -0.000114214)
(-6.99917e-09 -7.84843e-09 -0.000114276)
(5.37683e-09 4.33759e-09 -0.000114357)
(-1.53062e-09 6.05203e-09 -0.000107519)
(2.30396e-09 -2.70964e-09 -0.000107443)
(6.02303e-09 -4.83816e-09 -0.000107401)
(-3.28302e-09 -4.11622e-09 -0.000107465)
(3.45561e-09 -7.41232e-10 -0.000107447)
(-2.87563e-09 1.2684e-09 -0.000107516)
(2.94901e-09 -1.34402e-09 -0.000107502)
(-3.19968e-09 1.28346e-09 -0.000107429)
(2.66983e-09 2.47685e-09 -0.000107481)
(-2.47082e-09 -1.10652e-09 -0.000107401)
(-5.73651e-09 -4.85793e-09 -0.000107425)
(3.53891e-09 -1.51552e-09 -0.000107493)
(-2.13781e-09 -2.73619e-09 -0.000107402)
(4.4842e-09 1.80477e-10 -0.00010747)
(-1.80585e-08 -4.6676e-09 -0.000114234)
(1.72827e-08 4.82845e-09 -0.000114273)
(1.90147e-09 -1.28708e-09 -0.000114295)
(-3.90971e-09 -2.93908e-09 -0.000114374)
(1.1617e-08 1.82069e-09 -0.000114276)
(-1.64992e-08 -3.76546e-09 -0.00011423)
(-1.68016e-08 6.517e-11 -0.00010733)
(2.0033e-08 7.53026e-10 -0.000107421)
(2.40485e-08 -1.94118e-09 -0.000107318)
(-1.83745e-08 8.56897e-10 -0.000107407)
(1.46966e-08 5.89836e-11 -0.00010742)
(-1.78701e-08 -2.11791e-10 -0.000107325)
(-1.76808e-08 -4.24627e-10 -0.000107408)
(1.66391e-08 2.84977e-10 -0.000107312)
(2.41901e-09 1.85435e-10 -0.00011433)
(-4.50202e-09 3.932e-09 -0.000114237)
(2.33333e-08 -7.50852e-09 -0.000114206)
(-1.46499e-08 3.18536e-09 -0.000114239)
(-2.71241e-09 2.83382e-09 -0.000114232)
(3.93587e-09 -1.69792e-09 -0.000114321)
(-1.735e-08 4.11525e-09 -0.000114236)
(1.63789e-08 -3.73056e-09 -0.000114194)
(-2.06122e-08 6.15957e-09 -0.000114206)
(1.04427e-08 -1.81489e-09 -0.000114246)
(-2.47452e-09 -1.18874e-10 -0.000114342)
(1.60762e-09 3.87252e-10 -0.000114244)
(1.11309e-08 -9.98755e-10 -0.000114251)
(-2.22625e-08 6.91682e-09 -0.000114202)
(3.71914e-09 -9.69038e-10 -0.000114244)
(-4.90622e-09 3.47023e-09 -0.000114324)
(1.47965e-08 -7.86349e-10 -0.00010734)
(-1.3177e-08 1.13292e-09 -0.000107432)
(1.55367e-08 1.4901e-09 -0.000107405)
(-2.29183e-08 1.2981e-09 -0.000107297)
(-1.72819e-08 9.76972e-11 -0.000107445)
(1.84254e-08 4.08858e-10 -0.000107342)
(5.29579e-09 4.97449e-09 -0.000114363)
(-1.49131e-09 8.63233e-10 -0.000114271)
(-1.01002e-08 -1.02305e-10 -0.000114283)
(1.53613e-08 3.55698e-09 -0.000114227)
(-5.6288e-09 -4.38702e-09 -0.000114259)
(1.51915e-09 -2.04474e-09 -0.000114347)
(-3.93513e-09 4.76954e-10 -0.000107517)
(2.81982e-09 -2.4236e-09 -0.000107437)
(4.60822e-09 -1.68875e-09 -0.000107396)
(-4.19575e-09 3.51055e-10 -0.000107461)
(5.58501e-09 2.80536e-09 -0.000107442)
(-3.71473e-09 3.5433e-10 -0.00010751)
(1.13369e-09 -6.95019e-09 -0.000107498)
(-1.59449e-09 4.22272e-09 -0.00010742)
(4.84938e-09 -2.06797e-10 -0.000107474)
(-3.00471e-09 -1.77492e-09 -0.000107402)
(-4.68034e-09 -1.59601e-09 -0.000107415)
(3.87982e-09 7.98861e-10 -0.000107484)
(-4.94902e-09 1.53102e-09 -0.000107405)
(4.24935e-09 7.82095e-10 -0.000107471)
(-1.7598e-08 -4.48674e-09 -0.000114234)
(1.53476e-08 3.84464e-09 -0.000114274)
(4.22236e-09 3.34108e-09 -0.000114291)
(-5.49467e-09 -6.26738e-09 -0.000114376)
(1.36151e-08 2.2861e-09 -0.000114272)
(-1.6782e-08 -5.25923e-09 -0.000114232)
(-1.91697e-08 -3.16657e-10 -0.000107327)
(1.44936e-08 -1.79455e-09 -0.000107421)
(1.76406e-08 -6.42671e-10 -0.000107316)
(-2.02674e-08 2.57755e-09 -0.000107402)
(1.45193e-08 -1.61622e-09 -0.000107417)
(-2.03182e-08 -1.04582e-09 -0.000107321)
(-1.96801e-08 9.92163e-10 -0.000107407)
(1.65773e-08 8.31934e-10 -0.000107308)
(4.32764e-09 -2.46265e-09 -0.000114319)
(-3.38393e-09 3.01475e-09 -0.000114232)
(1.66724e-08 -4.46998e-09 -0.000114194)
(-1.36813e-08 3.70043e-09 -0.000114232)
(-7.09067e-09 7.05811e-09 -0.000114235)
(3.99186e-09 -1.90986e-09 -0.000114317)
(-1.50116e-08 3.8568e-09 -0.000114234)
(1.65272e-08 -4.10818e-09 -0.000114189)
(-1.86953e-08 5.30544e-09 -0.000114215)
(1.35966e-08 -2.14973e-09 -0.000114256)
(-3.3057e-09 1.60709e-09 -0.000114329)
(4.6834e-09 -4.27859e-09 -0.000114236)
(1.85945e-08 -4.58384e-09 -0.000114262)
(-1.64282e-08 5.158e-09 -0.000114216)
(6.60017e-09 -7.22034e-09 -0.000114235)
(-2.1242e-09 -1.49265e-10 -0.000114322)
(1.55975e-08 -2.39737e-10 -0.000107357)
(-1.50427e-08 8.67255e-10 -0.000107452)
(1.8993e-08 7.56961e-10 -0.000107414)
(-1.96824e-08 1.53299e-09 -0.000107312)
(-1.94757e-08 1.76084e-10 -0.000107466)
(2.06298e-08 1.01194e-09 -0.000107359)
(2.3692e-09 -4.66089e-10 -0.000114345)
(-5.98625e-09 -4.92646e-09 -0.000114266)
(-1.83608e-08 -4.61251e-09 -0.000114292)
(2.41578e-08 8.43311e-09 -0.000114243)
(-9.86437e-09 -1.30897e-08 -0.000114263)
(3.94784e-09 4.1737e-09 -0.000114348)
(-2.07418e-09 5.93679e-09 -0.000107511)
(3.86557e-09 3.03547e-09 -0.00010743)
(6.34507e-09 -5.63285e-09 -0.000107387)
(-2.08441e-09 -4.53459e-09 -0.000107456)
(5.09344e-09 1.29842e-09 -0.000107437)
(-2.27225e-09 4.59544e-09 -0.000107501)
(1.69703e-09 -4.33754e-09 -0.000107484)
(-5.90499e-09 -5.15482e-09 -0.000107415)
(2.30994e-09 4.69306e-09 -0.000107478)
(-3.18825e-09 1.46847e-09 -0.000107401)
(-5.56118e-09 -4.1778e-09 -0.000107415)
(-3.34778e-10 -7.18169e-09 -0.000107487)
(-6.34517e-09 5.60663e-09 -0.000107406)
(3.31736e-09 1.82961e-09 -0.000107471)
(-1.76417e-08 -5.37248e-09 -0.000114233)
(9.30593e-09 5.58347e-10 -0.000114272)
(4.12535e-09 1.70263e-09 -0.000114279)
(-8.08704e-10 3.25692e-09 -0.000114364)
(1.38582e-08 2.35518e-09 -0.000114272)
(-1.9873e-08 -6.21681e-09 -0.000114228)
(-2.03168e-08 -2.1446e-09 -0.000107324)
(1.23888e-08 -8.76756e-10 -0.000107414)
(1.55702e-08 8.97919e-11 -0.000107315)
(-1.67637e-08 -2.92347e-10 -0.000107407)
(1.78238e-08 -1.12908e-10 -0.000107418)
(-2.23587e-08 -2.34348e-09 -0.000107319)
(-2.04747e-08 6.89558e-10 -0.000107407)
(1.75896e-08 -6.88636e-11 -0.000107311)
(6.97501e-10 2.86915e-09 -0.000114324)
(-5.76777e-09 7.1061e-09 -0.000114232)
(1.74574e-08 -4.82448e-09 -0.000114194)
(-1.1453e-08 2.12285e-09 -0.000114236)
(-4.39192e-09 2.21813e-09 -0.000114237)
(3.11865e-09 -7.44455e-10 -0.000114316)
(-1.70197e-08 4.00633e-09 -0.000114237)
(1.90428e-08 -5.4729e-09 -0.000114192)
(-1.49449e-08 3.28512e-09 -0.000114224)
(1.45196e-08 -3.17138e-09 -0.000114265)
(2.22485e-10 -4.92576e-09 -0.000114324)
(6.97383e-09 -7.90255e-09 -0.00011424)
(1.90623e-08 -5.63733e-09 -0.000114267)
(-1.51074e-08 2.80055e-09 -0.000114218)
(5.87657e-09 -7.05873e-09 -0.00011424)
(-3.73614e-10 -3.66505e-09 -0.000114327)
(1.49732e-08 -8.64608e-10 -0.000107373)
(-1.61298e-08 7.58421e-11 -0.000107461)
(2.15791e-08 -1.51699e-09 -0.000107419)
(-1.27354e-08 -2.58438e-09 -0.000107317)
(-2.48223e-08 -2.86645e-09 -0.000107475)
(1.48499e-08 -7.25055e-10 -0.000107371)
(-5.41641e-10 -5.43165e-09 -0.000114349)
(-5.52699e-09 -8.45179e-09 -0.00011426)
(-2.32277e-08 -7.64523e-09 -0.000114299)
(7.52444e-09 -2.97888e-10 -0.000114244)
(-7.75713e-09 -8.14379e-09 -0.000114253)
(-2.06533e-09 -9.49339e-09 -0.000114341)
(-3.37018e-09 1.41678e-09 -0.000107508)
(1.75732e-09 -4.26578e-09 -0.000107429)
(4.71716e-09 -1.42569e-09 -0.000107391)
(-3.57749e-10 -9.82837e-09 -0.000107457)
(4.40113e-09 8.61053e-10 -0.000107433)
(-3.61551e-09 1.46091e-09 -0.000107502)
(1.41782e-09 -7.06378e-09 -0.000107482)
(-2.76579e-09 5.74835e-10 -0.000107408)
(5.69282e-10 6.4309e-09 -0.00010748)
(-4.28967e-09 -5.15913e-11 -0.000107406)
(-7.11437e-09 -7.90431e-09 -0.000107409)
(2.72938e-09 -5.73229e-09 -0.000107474)
(-1.30253e-09 -4.02614e-09 -0.000107412)
(2.46089e-09 2.08212e-09 -0.000107478)
(-1.74146e-08 -3.526e-09 -0.000114228)
(1.29069e-08 2.11759e-09 -0.00011427)
(3.55311e-09 1.66715e-09 -0.000114275)
(-3.22843e-09 -1.86139e-09 -0.000114361)
(9.899e-09 1.37711e-09 -0.000114274)
(-1.91557e-08 -5.87322e-09 -0.000114225)
(-1.66146e-08 5.12231e-10 -0.000107323)
(1.6249e-08 6.6054e-12 -0.000107419)
(1.45417e-08 7.71837e-10 -0.000107313)
(-2.04513e-08 1.14025e-09 -0.000107406)
(1.56623e-08 -4.90176e-10 -0.000107426)
(-1.87091e-08 -4.01471e-10 -0.000107322)
(-1.68973e-08 -2.47321e-10 -0.000107404)
(1.61615e-08 1.08948e-09 -0.000107306)
(3.2156e-09 -2.82535e-09 -0.000114327)
(-4.14641e-09 3.23521e-09 -0.00011424)
(1.40491e-08 -2.81001e-09 -0.000114194)
(-1.90914e-08 6.02866e-09 -0.000114237)
(-3.08885e-09 1.97516e-09 -0.000114245)
(2.96843e-09 -2.186e-09 -0.000114328)
(-1.53354e-08 3.11233e-09 -0.000114236)
(1.44993e-08 -2.51209e-09 -0.000114191)
(-1.15379e-08 9.50169e-10 -0.000114226)
(1.56633e-08 -3.78095e-09 -0.000114263)
(-6.3565e-10 -4.28265e-09 -0.000114331)
(8.51429e-09 -1.30307e-08 -0.000114243)
(1.6788e-08 -4.21252e-09 -0.000114271)
(-1.69618e-08 4.55103e-09 -0.000114223)
(9.24956e-09 -1.24228e-08 -0.00011425)
(2.50651e-09 -1.04309e-08 -0.000114328)
(7.94357e-09 -3.23635e-09 -0.000107382)
(-2.42036e-08 -3.70217e-09 -0.000107467)
(1.54188e-08 8.08617e-10 -0.000107426)
(-1.73801e-08 5.93017e-10 -0.000107325)
(-1.90834e-08 2.00858e-10 -0.000107477)
(1.42687e-08 -1.80873e-09 -0.000107374)
(-4.2245e-10 -5.42542e-09 -0.000114341)
(-1.02296e-08 -1.49288e-08 -0.000114256)
(-2.39308e-08 -6.82888e-09 -0.000114302)
(1.09087e-08 5.09175e-10 -0.00011425)
(-1.18604e-08 -1.67321e-08 -0.000114256)
(-1.22777e-09 -6.86132e-09 -0.000114339)
(-3.27805e-09 1.61569e-09 -0.000107505)
(1.42274e-09 -3.23265e-09 -0.000107427)
(7.46351e-09 -7.93728e-09 -0.0001074)
(3.1551e-10 -1.34031e-08 -0.000107458)
(4.66839e-09 4.73397e-10 -0.000107433)
(-3.52756e-09 1.97074e-09 -0.0001075)
(-9.12905e-10 -1.16449e-08 -0.000107479)
(-8.0199e-09 -1.1397e-08 -0.000107407)
(5.93918e-09 -2.99426e-09 -0.000107484)
(-2.24432e-09 -5.87085e-09 -0.000107418)
(-6.66836e-09 -7.5254e-09 -0.000107408)
(-1.0613e-09 -1.28649e-08 -0.000107475)
(-2.2077e-09 -3.77448e-09 -0.00010742)
(6.23907e-09 -3.9412e-09 -0.00010749)
(-2.05071e-08 -5.8574e-09 -0.000114232)
(7.56217e-09 -6.27733e-10 -0.000114278)
(4.04409e-09 2.33129e-09 -0.000114278)
(-4.18877e-09 -2.59319e-09 -0.000114357)
(7.10778e-09 -7.10645e-10 -0.000114282)
(-2.49167e-08 -8.55388e-09 -0.000114237)
(-1.90456e-08 -4.6533e-10 -0.00010733)
(1.14834e-08 -1.42091e-09 -0.000107426)
(1.80999e-08 -1.79546e-10 -0.000107311)
(-1.41003e-08 -5.45953e-10 -0.000107399)
(1.19162e-08 -2.30385e-09 -0.000107433)
(-2.60196e-08 -3.34422e-09 -0.000107334)
(-1.51797e-08 -5.77888e-10 -0.000107408)
(2.25563e-08 -2.70303e-09 -0.000107308)
(4.02356e-09 -2.10544e-09 -0.000114332)
(-3.48923e-09 1.00225e-09 -0.00011425)
(1.91079e-08 -4.95359e-09 -0.000114194)
(-8.89861e-09 3.94989e-10 -0.000114228)
(-4.0175e-09 2.75066e-09 -0.000114251)
(5.53877e-09 -3.98467e-09 -0.000114337)
(-1.07994e-08 1.74913e-09 -0.000114233)
(2.01148e-08 -7.0023e-09 -0.00011419)
(-1.47333e-08 2.95288e-09 -0.00011423)
(1.30064e-08 -2.56764e-09 -0.000114262)
(7.16654e-10 -6.31326e-09 -0.000114337)
(7.70844e-09 -1.02074e-08 -0.000114246)
(1.1544e-08 -2.01548e-09 -0.000114258)
(-1.80791e-08 6.23524e-09 -0.000114219)
(8.07215e-09 -9.42081e-09 -0.000114249)