/*--------------------------------*- C++ -*----------------------------------*\
| =========                 |                                                 |
| \\      /  F ield         | OpenFOAM: The Open Source CFD Toolbox           |
|  \\    /   O peration     | Version:  2206                                  |
|   \\  /    A nd           | Website:  www.openfoam.com                      |
|    \\/     M anipulation  |                                                 |
\*---------------------------------------------------------------------------*/
FoamFile
{
    version     2.0;
    format      ascii;
    arch        "LSB;label=32;scalar=64";
    class       volScalarField;
    location    "30";
    object      k;
}
// * * * * * * * * * * * * * * * * * * * * * * * * * * * * * * * * * * * * * //

dimensions      [0 2 -2 0 0 0 0];

internalField   nonuniform List<scalar> 
66621
(
8.58664e-06
1.57435e-05
8.24472e-06
2.15954e-05
1.67495e-05
2.6916e-05
5.6233e-06
2.17897e-05
2.70874e-05
2.69403e-05
1.64925e-05
2.65226e-05
1.05031e-05
1.06617e-05
5.68104e-06
5.47157e-06
2.64013e-05
1.0739e-05
1.03791e-05
2.70333e-05
1.68692e-05
1.07523e-05
5.64676e-06
2.16188e-05
2.70641e-05
1.64247e-05
2.68426e-05
1.58348e-05
8.48155e-06
2.1659e-05
2.71766e-05
2.70397e-05
1.6793e-05
1.57063e-05
8.44153e-06
2.1469e-05
2.70859e-05
2.68372e-05
1.64932e-05
1.55187e-05
8.22687e-06
2.65166e-05
1.06572e-05
1.05324e-05
5.49243e-06
2.18297e-05
2.71099e-05
2.69665e-05
1.67397e-05
1.59603e-05
8.24096e-06
1.59826e-05
8.40822e-06
5.51439e-06
5.60956e-06
1.08722e-05
5.15438e-06
6.10162e-06
1.47888e-05
6.65306e-06
1.57526e-05
1.47847e-05
6.64475e-06
6.15112e-06
4.98618e-06
1.04815e-05
8.23998e-06
1.04771e-05
5.01545e-06
5.61819e-06
7.85628e-06
4.89091e-06
4.86499e-06
4.88671e-06
4.85772e-06
7.89201e-06
1.5101e-05
8.08377e-06
1.05046e-05
1.90049e-05
1.9026e-05
8.05141e-06
1.50861e-05
1.49147e-05
8.02759e-06
1.0662e-05
1.89991e-05
1.90008e-05
8.02405e-06
1.49196e-05
5.48184e-06
7.69135e-06
4.79778e-06
4.72727e-06
4.80582e-06
4.731e-06
7.69803e-06
1.49337e-05
8.01699e-06
1.91071e-05
8.03651e-06
1.49399e-05
1.46212e-05
7.76593e-06
1.0391e-05
1.8754e-05
7.76709e-06
1.46355e-05
1.87696e-05
4.85986e-06
7.77374e-06
8.08445e-06
1.92369e-05
1.5061e-05
6.18819e-06
6.6618e-06
1.49927e-05
1.58646e-05
6.67639e-06
1.49759e-05
6.19385e-06
5.08636e-06
1.0786e-05
8.48428e-06
1.07831e-05
5.11951e-06
1.50273e-05
6.55815e-06
6.17194e-06
1.07354e-05
5.07783e-06
6.48673e-06
1.45794e-05
5.98223e-06
1.03983e-05
4.92353e-06
7.88451e-06
4.88944e-06
4.87691e-06
4.89714e-06
4.8698e-06
7.9253e-06
1.50772e-05
8.09082e-06
1.06598e-05
1.91123e-05
8.08776e-06
1.91256e-05
1.50837e-05
1.50561e-05
8.06485e-06
1.05311e-05
1.8955e-05
1.89634e-05
8.05774e-06
1.50702e-05
5.49915e-06
6.15024e-06
1.49595e-05
6.72224e-06
1.59726e-05
1.49629e-05
6.72992e-06
6.18887e-06
4.99967e-06
1.05898e-05
8.24146e-06
1.05944e-05
5.00331e-06
6.13792e-06
1.48731e-05
6.74779e-06
1.5987e-05
1.48617e-05
6.75435e-06
6.17942e-06
5.02178e-06
1.06772e-05
8.40956e-06
1.06677e-05
5.05968e-06
5.60483e-06
2.35405e-05
2.23096e-05
2.21387e-05
2.02316e-05
2.36071e-05
2.24005e-05
2.21731e-05
2.02741e-05
2.35513e-05
2.23646e-05
2.21076e-05
2.02849e-05
2.35983e-05
2.21243e-05
2.22796e-05
2.04407e-05
2.5611e-05
2.10137e-05
2.59866e-05
2.16251e-05
2.10293e-05
2.61138e-05
2.55721e-05
1.92852e-05
2.25333e-05
2.44713e-05
2.56906e-05
2.62763e-05
2.10141e-05
2.1803e-05
2.62349e-05
2.10088e-05
2.57545e-05
2.43128e-05
1.90795e-05
1.65026e-05
2.21954e-05
2.2206e-05
1.90705e-05
2.43061e-05
2.00072e-05
2.65095e-05
2.39251e-05
2.38509e-05
2.40205e-05
2.38708e-05
2.00102e-05
1.97174e-05
2.6471e-05
2.38882e-05
2.36373e-05
1.97799e-05
2.38872e-05
2.37081e-05
1.92671e-05
2.2463e-05
2.4483e-05
2.55464e-05
2.08142e-05
2.60824e-05
2.16834e-05
2.08342e-05
2.60859e-05
2.54289e-05
2.4155e-05
1.90006e-05
1.64302e-05
2.2115e-05
1.9006e-05
2.21736e-05
2.41343e-05
2.5584e-05
2.60858e-05
2.09149e-05
2.16855e-05
2.60772e-05
2.09299e-05
2.55484e-05
2.4398e-05
1.92982e-05
1.67873e-05
2.24124e-05
1.9304e-05
2.43802e-05
2.24275e-05
2.5395e-05
2.59136e-05
2.06557e-05
2.15048e-05
2.59473e-05
2.06841e-05
2.53677e-05
2.42135e-05
1.89667e-05
1.65102e-05
2.22637e-05
2.22582e-05
1.89854e-05
2.41914e-05
1.99537e-05
2.66644e-05
2.39461e-05
2.37989e-05
2.38078e-05
2.39705e-05
1.99791e-05
2.55927e-05
2.62174e-05
2.09235e-05
2.17275e-05
2.61722e-05
2.08448e-05
2.56048e-05
2.44325e-05
1.91696e-05
1.67362e-05
2.24493e-05
2.23787e-05
1.91722e-05
2.44204e-05
1.6875e-06
4.07241e-07
8.61873e-08
7.62346e-08
5.19755e-07
1.63255e-06
3.94792e-07
8.4153e-08
7.62025e-08
5.20936e-07
1.71992e-06
4.2625e-07
9.29347e-08
8.63486e-08
5.94167e-07
1.7237e-06
4.26549e-07
9.29008e-08
8.62659e-08
5.93499e-07
1.67411e-06
4.14953e-07
9.09269e-08
8.60968e-08
5.93797e-07
1.72419e-06
4.2723e-07
9.30969e-08
8.63855e-08
5.94274e-07
1.67831e-06
4.05087e-07
8.58764e-08
7.63569e-08
5.20946e-07
1.66777e-06
4.02719e-07
8.55063e-08
7.63558e-08
5.21131e-07
1.61993e-06
3.90854e-07
8.33938e-08
7.61222e-08
5.20926e-07
1.66741e-06
4.13164e-07
9.05679e-08
8.59601e-08
5.92971e-07
1.60895e-06
3.88477e-07
8.29513e-08
7.58791e-08
5.19412e-07
1.64262e-06
3.96522e-07
8.4346e-08
7.6022e-08
5.19507e-07
1.68421e-06
4.1743e-07
9.13669e-08
8.61767e-08
5.94019e-07
1.69925e-06
4.20946e-07
9.19043e-08
8.60971e-08
5.93096e-07
1.48046e-06
3.63437e-07
8.01995e-08
7.98623e-08
5.52525e-07
1.53072e-06
3.77149e-07
8.32739e-08
8.22328e-08
5.69333e-07
1.52362e-06
3.75535e-07
8.29421e-08
8.1928e-08
5.67161e-07
1.49215e-06
3.65832e-07
8.0659e-08
8.01894e-08
5.5474e-07
1.626e-06
3.93076e-07
8.37927e-08
7.58201e-08
5.18223e-07
1.71069e-06
4.24449e-07
9.25526e-08
8.5975e-08
5.91531e-07
1.64298e-06
3.97232e-07
8.48131e-08
7.70423e-08
5.27001e-07
1.63116e-06
3.94646e-07
8.43064e-08
7.67058e-08
5.24704e-07
1.63118e-06
3.9425e-07
8.42282e-08
7.69191e-08
5.26538e-07
1.62318e-06
3.92503e-07
8.38934e-08
7.65509e-08
5.2389e-07
1.6683e-06
4.13223e-07
9.05536e-08
8.57606e-08
5.91364e-07
1.5637e-06
3.87823e-07
8.61869e-08
8.60808e-08
5.96726e-07
1.64612e-06
3.97927e-07
8.49033e-08
7.70676e-08
5.27139e-07
1.49673e-06
3.66615e-07
8.06862e-08
7.99239e-08
5.52654e-07
1.53063e-06
3.76862e-07
8.31936e-08
8.22187e-08
5.69311e-07
1.52378e-06
3.75306e-07
8.28613e-08
8.19059e-08
5.67099e-07
1.50218e-06
3.68258e-07
8.10199e-08
8.0213e-08
5.54711e-07
1.67309e-06
4.03716e-07
8.55666e-08
7.60223e-08
5.18508e-07
1.50538e-06
3.70657e-07
8.20809e-08
8.2065e-08
5.69101e-07
1.49537e-06
3.66781e-07
8.07816e-08
8.01862e-08
5.54736e-07
1.48781e-06
3.66265e-07
8.12881e-08
8.19734e-08
5.68944e-07
1.45174e-06
3.5603e-07
7.89047e-08
7.99749e-08
5.54494e-07
1.57093e-06
3.89957e-07
8.66182e-08
8.60993e-08
5.96518e-07
1.63252e-06
3.94494e-07
8.4297e-08
7.6948e-08
5.26596e-07
1.62357e-06
3.92185e-07
8.3847e-08
7.65634e-08
5.23909e-07
1.66181e-06
4.11661e-07
9.02276e-08
8.5604e-08
5.90371e-07
1.46862e-06
3.60209e-07
7.95397e-08
7.95691e-08
5.50843e-07
1.52152e-06
3.74678e-07
8.27265e-08
8.19124e-08
5.6739e-07
1.51675e-06
3.73662e-07
8.25105e-08
8.16014e-08
5.65077e-07
1.47818e-06
3.62293e-07
7.99313e-08
7.9904e-08
5.53202e-07
1.60325e-06
3.87042e-07
8.26286e-08
7.54842e-08
5.16538e-07
1.46595e-06
3.59273e-07
7.93722e-08
7.95545e-08
5.50867e-07
1.52289e-06
3.7459e-07
8.26762e-08
8.19039e-08
5.67411e-07
1.51895e-06
3.73627e-07
8.24674e-08
8.15903e-08
5.65074e-07
1.47693e-06
3.61901e-07
7.98957e-08
7.98963e-08
5.53184e-07
1.63662e-06
3.95087e-07
8.40342e-08
7.56416e-08
5.16738e-07
1.69561e-06
4.19927e-07
9.16739e-08
8.57438e-08
5.90431e-07
1.57207e-06
3.90223e-07
8.66663e-08
8.61306e-08
5.96753e-07
1.56305e-06
3.87973e-07
8.62598e-08
8.60201e-08
5.96265e-07
1.70289e-06
4.22022e-07
9.22591e-08
8.66515e-08
5.969e-07
1.64703e-06
4.08327e-07
8.98904e-08
8.61499e-08
5.94647e-07
1.66081e-06
4.11614e-07
9.0496e-08
8.65623e-08
5.975e-07
1.5762e-06
3.91084e-07
8.68146e-08
8.61334e-08
5.96646e-07
1.65372e-06
4.00008e-07
8.52579e-08
7.71084e-08
5.27194e-07
1.64843e-06
3.98647e-07
8.49675e-08
7.67934e-08
5.24891e-07
1.57085e-06
3.89418e-07
8.6472e-08
8.57636e-08
5.94019e-07
1.55407e-06
3.86351e-07
8.59158e-08
8.56777e-08
5.93796e-07
1.54027e-06
3.82404e-07
8.52239e-08
8.59191e-08
5.96298e-07
1.62859e-06
3.93778e-07
8.41122e-08
7.68857e-08
5.26387e-07
1.62595e-06
3.92825e-07
8.38789e-08
7.65899e-08
5.2416e-07
1.52042e-06
3.77552e-07
8.43889e-08
8.58255e-08
5.96214e-07
1.58789e-06
3.84203e-07
8.25363e-08
7.68225e-08
5.27041e-07
1.58132e-06
3.82869e-07
8.22571e-08
7.6463e-08
5.24444e-07
1.53848e-06
3.81705e-07
8.50574e-08
8.55549e-08
5.93579e-07
1.51787e-06
3.76941e-07
8.42426e-08
8.55273e-08
5.93921e-07
1.68161e-06
4.16577e-07
9.12513e-08
8.62665e-08
5.94659e-07
1.69194e-06
4.19232e-07
9.17672e-08
8.66844e-08
5.97586e-07
1.68127e-06
4.16912e-07
9.14312e-08
8.66889e-08
5.97807e-07
1.62729e-06
4.03532e-07
8.89935e-08
8.64104e-08
5.97518e-07
1.57287e-06
3.90064e-07
8.65183e-08
8.57677e-08
5.94015e-07
1.56368e-06
3.88472e-07
8.62988e-08
8.57559e-08
5.94012e-07
1.63405e-06
4.04641e-07
8.90989e-08
8.58617e-08
5.9309e-07
1.63831e-06
4.05874e-07
8.93814e-08
8.6281e-08
5.96237e-07
1.64045e-06
4.06716e-07
8.95138e-08
8.59176e-08
5.93214e-07
1.65586e-06
4.10093e-07
9.0132e-08
8.63682e-08
5.9634e-07
5.67867e-06
5.50834e-06
2.64539e-05
1.07515e-05
1.03966e-05
1.57766e-05
8.2663e-06
2.17218e-05
2.69915e-05
1.64409e-05
2.6746e-05
1.58516e-05
8.54118e-06
2.17568e-05
2.71121e-05
2.68303e-05
1.68053e-05
2.7111e-05
1.6508e-05
8.23752e-06
5.65553e-06
2.65796e-05
1.06857e-05
1.05494e-05
5.53214e-06
2.18576e-05
2.69916e-05
2.69287e-05
1.65073e-05
2.18424e-05
2.71374e-05
2.68662e-05
1.67613e-05
1.60137e-05
8.28521e-06
1.60211e-05
8.4371e-06
2.65566e-05
1.0598e-05
1.07061e-05
5.54529e-06
5.66532e-06
4.81184e-06
4.75904e-06
7.70379e-06
8.02545e-06
1.90409e-05
1.48899e-05
7.79292e-06
1.8786e-05
1.46554e-05
6.19588e-06
1.48158e-05
6.71216e-06
1.59322e-05
6.16977e-06
1.49645e-05
6.78188e-06
5.05722e-06
1.05179e-05
8.42285e-06
5.0268e-06
1.07006e-05
6.22622e-06
6.71076e-06
1.49802e-05
1.5978e-05
6.2047e-06
6.77285e-06
1.51056e-05
5.12495e-06
1.083e-05
8.61299e-06
5.11635e-06
1.09432e-05
4.97639e-06
1.04458e-05
8.33131e-06
4.92021e-06
1.05668e-05
5.70453e-06
7.99222e-06
4.92516e-06
4.91608e-06
7.96544e-06
4.94781e-06
4.94096e-06
1.51656e-05
8.13495e-06
1.9165e-05
1.08251e-05
1.9307e-05
1.50616e-05
8.1897e-06
1.52014e-05
8.102e-06
1.91008e-05
1.06466e-05
1.50998e-05
8.16877e-06
1.92058e-05
5.57656e-06
6.18875e-06
1.49861e-05
6.77682e-06
1.60581e-05
6.20787e-06
1.50332e-05
6.78945e-06
5.02212e-06
1.06011e-05
8.34904e-06
5.0099e-06
1.07098e-05
6.19008e-06
1.49214e-05
6.77201e-06
1.608e-05
6.19057e-06
1.50019e-05
6.77377e-06
5.11154e-06
1.07244e-05
8.57398e-06
5.08268e-06
1.08533e-05
7.93688e-06
4.93241e-06
4.90025e-06
7.90528e-06
4.95672e-06
4.92007e-06
1.52142e-05
8.1805e-06
1.90879e-05
1.07024e-05
1.50671e-05
1.92465e-05
8.22744e-06
1.50432e-05
8.06531e-06
1.9052e-05
1.07757e-05
1.49156e-05
1.91819e-05
8.09337e-06
5.60005e-06
5.67667e-06
2.3701e-05
2.25755e-05
2.21499e-05
2.05056e-05
2.37283e-05
2.2817e-05
2.22054e-05
2.05343e-05
2.36338e-05
2.21517e-05
2.21179e-05
2.03279e-05
2.36488e-05
2.214e-05
2.22943e-05
2.04414e-05
2.38215e-05
2.37754e-05
1.97442e-05
2.56876e-05
2.08813e-05
2.62002e-05
2.18831e-05
2.5493e-05
2.10525e-05
2.61567e-05
2.44479e-05
1.90317e-05
2.22192e-05
1.65916e-05
2.23516e-05
2.42468e-05
1.92302e-05
2.5706e-05
2.60977e-05
2.09829e-05
2.18841e-05
2.56727e-05
2.62125e-05
2.11992e-05
2.46418e-05
1.93208e-05
2.24832e-05
1.69463e-05
2.44905e-05
1.94839e-05
2.26555e-05
2.44144e-05
1.89738e-05
2.24132e-05
1.66807e-05
2.43284e-05
1.91671e-05
2.25693e-05
2.01243e-05
2.65792e-05
2.40704e-05
2.39502e-05
2.42344e-05
2.00291e-05
2.40299e-05
2.58434e-05
2.63041e-05
2.11176e-05
2.19208e-05
2.5759e-05
2.63928e-05
2.11467e-05
2.44923e-05
1.92134e-05
2.23252e-05
1.66285e-05
2.44365e-05
2.24267e-05
1.9323e-05
2.56553e-05
2.62322e-05
2.10123e-05
2.19522e-05
2.56049e-05
2.6269e-05
2.10871e-05
2.45473e-05
1.92374e-05
2.25476e-05
1.69291e-05
2.45035e-05
1.93849e-05
2.26414e-05
2.01623e-05
2.66117e-05
2.40544e-05
2.39582e-05
2.00706e-05
2.41495e-05
2.40815e-05
2.36123e-05
2.71046e-05
2.35456e-05
2.70974e-05
2.72848e-05
2.65467e-05
2.63577e-05
2.64283e-05
2.71492e-05
2.7312e-05
2.71379e-05
2.71901e-05
2.65105e-05
2.64989e-05
2.71085e-05
2.72288e-05
2.71153e-05
2.72324e-05
2.71063e-05
2.70866e-05
2.71534e-05
2.65306e-05
2.71564e-05
2.71894e-05
2.65725e-05
2.70466e-05
2.72419e-05
2.71782e-05
2.67223e-05
2.70799e-05
1.62269e-05
8.57069e-06
8.56598e-06
1.62216e-05
5.64724e-06
5.65662e-06
1.55047e-05
8.15609e-06
8.19728e-06
1.55816e-05
2.36983e-05
2.37368e-05
2.35459e-05
2.35638e-05
2.36393e-05
2.37146e-05
2.36211e-05
2.1553e-05
1.67339e-05
2.68985e-05
2.71584e-05
1.67347e-05
2.69623e-05
2.15956e-05
1.62066e-05
8.53289e-06
1.61863e-05
8.53517e-06
5.58742e-06
5.58116e-06
1.55601e-05
8.20658e-06
1.55758e-05
8.21291e-06
2.36363e-05
2.36946e-05
2.36105e-05
2.14799e-05
1.66749e-05
2.68788e-05
2.71916e-05
2.1531e-05
1.66912e-05
2.68391e-05
5.65257e-06
5.65222e-06
2.16792e-05
2.69417e-05
1.68757e-05
2.7164e-05
2.69953e-05
1.68763e-05
2.17208e-05
1.03878e-05
1.05365e-05
2.64639e-05
1.03706e-05
1.05395e-05
5.6454e-06
5.63548e-06
5.48984e-06
5.50178e-06
1.06522e-05
1.0511e-05
2.64526e-05
1.06185e-05
1.0491e-05
5.64664e-06
5.64312e-06
5.49905e-06
5.51836e-06
2.63748e-05
1.06521e-05
1.04641e-05
1.06408e-05
1.05166e-05
1.61898e-05
8.59337e-06
8.58898e-06
1.62455e-05
2.20375e-05
1.68801e-05
2.69181e-05
2.72192e-05
1.68711e-05
2.69983e-05
2.19598e-05
2.20238e-05
1.69781e-05
2.70077e-05
2.72152e-05
1.69219e-05
2.6919e-05
2.20289e-05
1.62315e-05
8.59494e-06
8.61762e-06
1.62139e-05
1.62171e-05
8.54096e-06
8.56127e-06
1.61271e-05
2.20314e-05
2.7261e-05
1.68767e-05
2.69203e-05
1.68824e-05
2.69256e-05
2.19948e-05
2.20368e-05
2.71867e-05
1.68172e-05
2.6906e-05
1.69195e-05
2.69146e-05
2.19923e-05
1.06967e-05
1.07005e-05
2.65825e-05
1.06982e-05
1.07019e-05
5.60967e-06
5.59778e-06
5.61413e-06
5.63316e-06
2.65785e-05
1.05976e-05
1.0716e-05
1.06988e-05
1.07041e-05
5.5988e-06
5.61623e-06
2.15302e-05
1.64669e-05
2.68976e-05
2.69855e-05
1.64683e-05
2.68745e-05
2.15106e-05
1.56575e-05
8.45851e-06
1.56189e-05
8.49603e-06
2.15937e-05
2.68906e-05
1.69126e-05
2.7339e-05
2.69592e-05
2.15618e-05
1.69111e-05
1.55968e-05
8.23193e-06
8.21409e-06
1.56106e-05
2.16218e-05
2.7004e-05
1.64879e-05
2.68856e-05
1.65013e-05
2.69051e-05
2.15566e-05
1.56293e-05
8.53379e-06
1.56738e-05
8.50492e-06
2.1604e-05
2.72725e-05
2.69357e-05
1.69326e-05
2.70387e-05
2.15738e-05
1.69345e-05
1.55717e-05
8.31776e-06
8.33525e-06
1.56394e-05
2.15458e-05
2.68237e-05
1.63418e-05
2.71015e-05
2.68456e-05
2.15095e-05
1.62812e-05
1.56128e-05
8.0391e-06
1.56086e-05
7.98757e-06
2.16072e-05
2.71588e-05
1.66936e-05
2.68622e-05
1.67301e-05
2.68769e-05
2.15265e-05
1.5574e-05
8.3145e-06
8.36908e-06
1.55372e-05
2.15731e-05
2.72489e-05
2.68553e-05
1.62965e-05
2.68494e-05
2.15472e-05
1.62908e-05
1.56487e-05
8.03233e-06
1.56429e-05
8.02853e-06
5.67145e-06
5.64611e-06
5.48983e-06
5.48372e-06
1.06739e-05
1.04779e-05
2.65425e-05
1.07041e-05
1.04591e-05
1.61928e-05
8.54658e-06
1.61946e-05
8.52284e-06
2.1968e-05
1.69006e-05
2.69247e-05
2.71271e-05
2.1981e-05
1.68993e-05
2.69204e-05
2.19426e-05
1.68075e-05
2.694e-05
2.73201e-05
2.20179e-05
1.67946e-05
2.6938e-05
1.06168e-05
1.07532e-05
2.6534e-05
1.0561e-05
1.07436e-05
5.61108e-06
5.60063e-06
2.1491e-05
1.64965e-05
2.69082e-05
2.70834e-05
2.15792e-05
1.65032e-05
2.68729e-05
1.56151e-05
8.59007e-06
1.5659e-05
8.56332e-06
2.15688e-05
2.69684e-05
1.69426e-05
2.73636e-05
2.16309e-05
2.68482e-05
1.69616e-05
1.55701e-05
8.33822e-06
1.55754e-05
8.33852e-06
2.15264e-05
2.69131e-05
1.6324e-05
2.71996e-05
2.16041e-05
2.68492e-05
1.63784e-05
1.55975e-05
8.07732e-06
1.5627e-05
8.07955e-06
1.07518e-05
1.07364e-05
2.66901e-05
1.07349e-05
1.07206e-05
5.62056e-06
5.61779e-06
1.07298e-05
5.62431e-06
2.18886e-05
2.70177e-05
1.67015e-05
2.70723e-05
2.69285e-05
1.66536e-05
2.18452e-05
1.58054e-05
8.4858e-06
8.49036e-06
1.58785e-05
1.59218e-05
8.36255e-06
8.32601e-06
1.59364e-05
2.17411e-05
1.6884e-05
2.19647e-05
1.66597e-05
1.5788e-05
8.47395e-06
1.58927e-05
8.35233e-06
5.40887e-06
5.41059e-06
5.52174e-06
5.51774e-06
1.05466e-05
5.51917e-06
6.25642e-06
6.83562e-06
1.52943e-05
1.6249e-05
6.8766e-06
1.53077e-05
6.29357e-06
5.12282e-06
8.61403e-06
1.08791e-05
1.08888e-05
5.14255e-06
5.1412e-06
1.0918e-05
8.61887e-06
1.09513e-05
5.13516e-06
6.2722e-06
1.6212e-05
6.80549e-06
1.52835e-05
6.84009e-06
1.52887e-05
6.29844e-06
5.66721e-06
5.67303e-06
5.99866e-06
1.46853e-05
6.48317e-06
1.55695e-05
1.47085e-05
6.51346e-06
5.9884e-06
4.91552e-06
8.18336e-06
1.0431e-05
1.04234e-05
4.93192e-06
4.91671e-06
1.04016e-05
8.23025e-06
1.04584e-05
4.91815e-06
6.01268e-06
1.55959e-05
1.4663e-05
6.49889e-06
1.46263e-05
6.52775e-06
6.03578e-06
6.31203e-06
1.61928e-05
6.83699e-06
1.53717e-05
6.87519e-06
1.53747e-05
6.31451e-06
5.16364e-06
1.09363e-05
8.57688e-06
5.14501e-06
1.09406e-05
6.32739e-06
1.61897e-05
6.83412e-06
1.5329e-05
6.34495e-06
6.86152e-06
1.53338e-05
5.17372e-06
1.09695e-05
8.57446e-06
1.10001e-05
5.15909e-06
5.61597e-06
5.6159e-06
5.9874e-06
1.5543e-05
1.46881e-05
6.48689e-06
1.47209e-05
6.5063e-06
5.98412e-06
4.9022e-06
1.03717e-05
8.21718e-06
4.90826e-06
1.03796e-05
6.00101e-06
1.5541e-05
1.46976e-05
6.47603e-06
5.98714e-06
1.46999e-05
6.48668e-06
4.91952e-06
1.04293e-05
8.24863e-06
1.04611e-05
4.9096e-06
5.6758e-06
5.68623e-06
7.77646e-06
4.79281e-06
4.77429e-06
4.83136e-06
4.79102e-06
7.75577e-06
1.49127e-05
1.8873e-05
1.03782e-05
7.95561e-06
1.88788e-05
7.9805e-06
1.49619e-05
1.4853e-05
1.88757e-05
1.05343e-05
7.8626e-06
1.88934e-05
7.89509e-06
1.48875e-05
1.48932e-05
7.9138e-06
1.04033e-05
1.88469e-05
1.88986e-05
7.97399e-06
1.49012e-05
1.48384e-05
7.89395e-06
1.05844e-05
1.88626e-05
1.8912e-05
7.92617e-06
1.4847e-05
7.79007e-06
4.81054e-06
4.77249e-06
4.82511e-06
4.79451e-06
7.78058e-06
5.66433e-06
5.66794e-06
5.51034e-06
5.52734e-06
7.60531e-06
4.72836e-06
4.72131e-06
4.75721e-06
4.73738e-06
7.60481e-06
1.47398e-05
1.8964e-05
1.06783e-05
7.9832e-06
7.95463e-06
1.89422e-05
1.47498e-05
1.46196e-05
1.88862e-05
1.05391e-05
7.86448e-06
7.87793e-06
1.88451e-05
1.46353e-05
1.4719e-05
7.93623e-06
1.06698e-05
1.88824e-05
7.96766e-06
1.47292e-05
1.89253e-05
1.46561e-05
7.8735e-06
1.05435e-05
1.88649e-05
7.8957e-06
1.46162e-05
1.88692e-05
7.62116e-06
4.74236e-06
4.72302e-06
4.74959e-06
4.7477e-06
7.627e-06
5.66503e-06
5.6522e-06
5.52514e-06
5.51715e-06
7.58462e-06
4.7584e-06
4.73058e-06
7.61303e-06
4.75635e-06
4.72167e-06
1.47482e-05
1.89508e-05
1.06711e-05
8.00445e-06
8.02489e-06
1.89432e-05
1.4742e-05
1.46044e-05
1.88234e-05
1.05305e-05
7.84445e-06
7.8816e-06
1.88835e-05
1.46267e-05
1.4741e-05
7.98409e-06
1.89369e-05
1.06401e-05
1.47493e-05
8.00082e-06
1.8952e-05
1.46503e-05
7.85346e-06
1.88886e-05
1.05379e-05
1.46652e-05
7.86721e-06
1.8865e-05
7.62341e-06
4.75819e-06
4.71283e-06
4.77952e-06
4.72865e-06
7.59994e-06
6.2196e-06
6.80105e-06
1.51662e-05
1.62518e-05
6.82688e-06
1.52092e-05
6.22544e-06
5.12806e-06
8.60932e-06
1.09295e-05
1.09648e-05
5.14057e-06
5.12278e-06
1.08926e-05
8.63279e-06
1.0943e-05
5.10542e-06
6.26374e-06
1.62419e-05
6.83173e-06
1.52144e-05
6.85015e-06
1.52092e-05
6.27999e-06
6.28717e-06
6.84367e-06
1.53014e-05
1.6231e-05
6.30904e-06
6.83086e-06
1.53158e-05
5.13526e-06
8.61795e-06
1.09744e-05
5.14709e-06
1.10046e-05
5.13147e-06
1.09259e-05
8.60387e-06
5.12687e-06
1.09438e-05
6.31554e-06
1.62484e-05
6.85376e-06
1.53285e-05
6.33371e-06
6.84906e-06
1.53109e-05
6.24039e-06
6.82932e-06
1.52351e-05
1.61745e-05
6.2382e-06
6.85037e-06
1.52691e-05
5.10221e-06
8.589e-06
1.08806e-05
1.0916e-05
5.11172e-06
5.11917e-06
1.09144e-05
8.56506e-06
5.10521e-06
1.09394e-05
6.2487e-06
1.61716e-05
6.81891e-06
1.52357e-05
6.85145e-06
1.52334e-05
6.2595e-06
7.74467e-06
4.78487e-06
4.81692e-06
4.81245e-06
4.83966e-06
7.76312e-06
1.48499e-05
1.90797e-05
1.07029e-05
7.94836e-06
7.96016e-06
1.90952e-05
1.49037e-05
1.4954e-05
1.91394e-05
1.06892e-05
8.02506e-06
1.91077e-05
8.05514e-06
1.49671e-05
1.48227e-05
7.95281e-06
1.07546e-05
1.9058e-05
7.98328e-06
1.91128e-05
1.48515e-05
1.49371e-05
8.04769e-06
1.07432e-05
1.90916e-05
1.9144e-05
8.05285e-06
1.49202e-05
7.74163e-06
4.78834e-06
4.81707e-06
4.80152e-06
4.83092e-06
7.75305e-06
5.62725e-06
5.61756e-06
5.64183e-06
5.62917e-06
7.7375e-06
4.80666e-06
4.82505e-06
7.77301e-06
4.80441e-06
4.83389e-06
1.47768e-05
1.90614e-05
1.06391e-05
7.93029e-06
1.90761e-05
7.96283e-06
1.48011e-05
1.48765e-05
1.90705e-05
1.07581e-05
8.06605e-06
8.13214e-06
1.91214e-05
1.49047e-05
1.48439e-05
7.9771e-06
1.90859e-05
1.06452e-05
1.90751e-05
1.48797e-05
7.95682e-06
1.49169e-05
8.09811e-06
1.9121e-05
1.06966e-05
1.49084e-05
8.12766e-06
1.90932e-05
7.74886e-06
4.79275e-06
4.80738e-06
4.80676e-06
4.84497e-06
7.73036e-06
5.62335e-06
5.634e-06
6.04263e-06
6.49205e-06
1.56747e-05
1.48774e-05
6.49133e-06
1.48865e-05
6.04782e-06
5.02051e-06
1.06758e-05
8.48878e-06
1.07049e-05
5.03816e-06
6.06087e-06
1.56409e-05
6.48706e-06
1.48244e-05
6.49822e-06
1.48329e-05
6.05668e-06
5.02488e-06
1.06664e-05
8.53363e-06
1.0699e-05
5.04027e-06
5.9775e-06
1.47206e-05
6.49262e-06
1.55851e-05
6.00143e-06
1.47019e-05
6.49368e-06
4.8905e-06
8.22473e-06
1.03697e-05
4.91493e-06
1.04124e-05
4.8967e-06
1.0418e-05
8.22082e-06
4.8977e-06
1.04139e-05
5.99931e-06
1.56104e-05
1.4725e-05
6.49358e-06
5.98945e-06
1.46885e-05
6.49275e-06
6.04092e-06
6.51377e-06
1.56437e-05
1.48892e-05
6.06242e-06
6.53858e-06
1.48523e-05
5.03418e-06
1.07767e-05
8.56767e-06
1.08022e-05
5.05888e-06
6.06335e-06
1.56889e-05
6.49559e-06
1.48645e-05
6.54332e-06
1.49381e-05
6.04769e-06
5.03438e-06
1.07577e-05
8.52317e-06
5.03397e-06
1.07524e-05
6.03209e-06
1.48397e-05
6.46547e-06
1.56195e-05
1.48611e-05
6.49766e-06
6.02361e-06
4.98651e-06
8.33075e-06
1.0612e-05
1.06298e-05
5.0055e-06
4.98873e-06
1.05515e-05
8.37086e-06
1.06074e-05
4.97645e-06
6.05315e-06
1.56055e-05
1.49101e-05
6.50967e-06
1.49044e-05
6.4871e-06
6.07977e-06
5.92743e-06
6.47809e-06
1.56751e-05
1.45564e-05
6.5046e-06
1.45918e-05
5.94833e-06
4.82913e-06
1.01923e-05
8.05238e-06
1.01861e-05
4.83808e-06
5.94846e-06
1.56354e-05
6.4843e-06
1.45553e-05
6.50168e-06
1.45374e-05
5.95512e-06
4.84954e-06
1.0229e-05
8.04016e-06
1.02615e-05
4.83561e-06
6.00849e-06
1.48566e-05
6.46589e-06
1.56003e-05
6.03489e-06
1.48612e-05
6.47509e-06
4.94733e-06
8.34261e-06
1.05547e-05
1.05973e-05
4.96412e-06
4.96643e-06
1.05747e-05
8.34118e-06
4.97656e-06
1.05846e-05
6.00841e-06
1.55793e-05
1.47294e-05
6.45296e-06
1.48164e-05
6.49274e-06
6.01457e-06
5.92468e-06
6.50856e-06
1.55984e-05
1.46207e-05
5.95844e-06
6.49119e-06
1.45871e-05
4.83544e-06
1.02847e-05
8.05275e-06
1.03115e-05
4.85162e-06
5.95056e-06
1.56728e-05
6.46425e-06
1.45935e-05
6.49251e-06
1.46379e-05
5.93633e-06
4.84156e-06
1.02377e-05
8.03464e-06
4.84829e-06
1.02261e-05
5.6621e-06
5.66632e-06
5.4989e-06
5.50519e-06
7.6205e-06
4.78468e-06
4.69513e-06
4.8077e-06
4.72111e-06
7.60829e-06
1.479e-05
1.8953e-05
8.03666e-06
1.07013e-05
1.47999e-05
8.07857e-06
1.89473e-05
1.46029e-05
1.88398e-05
7.84578e-06
1.048e-05
1.4655e-05
7.84011e-06
1.88344e-05
7.62688e-06
4.80464e-06
4.71274e-06
7.62098e-06
4.79943e-06
4.71554e-06
1.4819e-05
8.07698e-06
1.07369e-05
1.89458e-05
8.1109e-06
1.47963e-05
1.89701e-05
1.45776e-05
7.79951e-06
1.04985e-05
1.8786e-05
7.84558e-06
1.45868e-05
1.88362e-05
6.2261e-06
1.62046e-05
6.79412e-06
1.5214e-05
6.82426e-06
1.52102e-05
6.23128e-06
5.09913e-06
1.09065e-05
8.59953e-06
5.11506e-06
1.0884e-05
6.24942e-06
1.61638e-05
6.81456e-06
1.52551e-05
6.81588e-06
6.26952e-06
1.52511e-05
5.09414e-06
1.08572e-05
8.58406e-06
1.0888e-05
5.09078e-06
7.69193e-06
4.76257e-06
4.79766e-06
4.78853e-06
4.82708e-06
7.6794e-06
1.47733e-05
1.90882e-05
7.95866e-06
1.05924e-05
7.94544e-06
1.48298e-05
1.90304e-05
1.49197e-05
1.90925e-05
8.07959e-06
1.07231e-05
1.90562e-05
1.49347e-05
8.10851e-06
7.70241e-06
4.77696e-06
4.81726e-06
4.78275e-06
7.72094e-06
4.81591e-06
1.47446e-05
7.92575e-06
1.0595e-05
1.8987e-05
7.96308e-06
1.90254e-05
1.47779e-05
1.49081e-05
8.05012e-06
1.07807e-05
1.90232e-05
1.90673e-05
8.0954e-06
1.48775e-05
5.6081e-06
5.61646e-06
6.02807e-06
1.56534e-05
6.48998e-06
1.49001e-05
6.52498e-06
1.49303e-05
6.03583e-06
5.04499e-06
1.08372e-05
8.58436e-06
5.05498e-06
1.08202e-05
6.03844e-06
1.56238e-05
6.52173e-06
1.49034e-05
6.50936e-06
6.04623e-06
1.4852e-05
5.05188e-06
1.08115e-05
8.60369e-06
1.08517e-05
5.04894e-06
5.98002e-06
1.55972e-05
1.47659e-05
6.45472e-06
1.47911e-05
6.48311e-06
5.97931e-06
4.94824e-06
1.05835e-05
8.39e-06
1.05627e-05
4.96941e-06
6.0034e-06
1.55707e-05
1.47842e-05
6.4604e-06
1.47327e-05
6.02875e-06
6.46099e-06
4.95373e-06
1.05523e-05
8.38947e-06
1.05841e-05
4.95188e-06
5.90655e-06
1.56236e-05
6.43182e-06
1.46232e-05
6.47544e-06
1.46431e-05
5.91199e-06
4.85532e-06
1.02999e-05
8.08664e-06
4.85782e-06
1.03882e-05
5.9247e-06
1.56213e-05
6.49345e-06
1.45914e-05
5.93633e-06
6.46148e-06
1.46133e-05
4.86056e-06
1.03352e-05
8.1014e-06
1.03785e-05
4.85817e-06
8.01088e-06
4.90712e-06
4.93341e-06
4.93876e-06
4.95286e-06
8.01266e-06
1.51499e-05
1.92544e-05
1.07227e-05
8.07767e-06
8.04079e-06
1.92271e-05
1.51749e-05
1.52774e-05
1.92333e-05
1.07532e-05
8.10446e-06
1.92272e-05
8.14629e-06
1.529e-05
1.51309e-05
8.02857e-06
1.07753e-05
1.92366e-05
8.05767e-06
1.92744e-05
1.51307e-05
1.52685e-05
8.11442e-06
1.07595e-05
1.921e-05
1.92585e-05
8.15972e-06
1.52492e-05
8.03483e-06
4.92991e-06
4.95322e-06
4.93038e-06
4.97235e-06
8.07577e-06
5.63205e-06
5.6502e-06
4.9607e-06
8.12308e-06
6.09565e-06
1.49064e-05
6.653e-06
1.58652e-05
1.49853e-05
6.65892e-06
6.09678e-06
5.05247e-06
8.495e-06
1.08185e-05
1.08435e-05
5.07775e-06
5.06036e-06
1.07404e-05
8.52698e-06
1.0822e-05
5.05611e-06
6.12293e-06
1.58094e-05
1.50023e-05
6.6448e-06
1.49962e-05
6.65303e-06
6.14579e-06
6.14013e-06
1.4994e-05
6.68024e-06
1.59625e-05
1.50236e-05
6.68081e-06
6.13722e-06
5.01566e-06
8.39456e-06
1.0686e-05
1.07032e-05
5.01242e-06
5.01886e-06
1.06246e-05
8.37799e-06
1.06736e-05
5.02702e-06
6.16244e-06
1.59594e-05
1.49624e-05
6.67302e-06
1.4996e-05
6.68885e-06
6.15559e-06
1.48898e-05
6.64121e-06
6.07493e-06
1.07616e-05
5.01833e-06
1.49832e-05
6.66889e-06
6.10863e-06
1.06428e-05
5.00315e-06
5.42528e-06
5.42685e-06
5.54527e-06
5.54803e-06
4.79405e-06
7.90173e-06
2.22194e-05
2.22673e-05
2.36181e-05
2.20847e-05
2.22543e-05
2.03208e-05
2.03019e-05
2.22805e-05
2.2229e-05
2.35274e-05
2.23259e-05
2.22089e-05
2.04099e-05
2.03904e-05
1.98726e-05
2.38843e-05
2.37514e-05
2.64383e-05
2.39133e-05
2.37625e-05
1.98736e-05
1.96005e-05
2.37158e-05
2.36541e-05
2.63823e-05
2.37732e-05
2.36767e-05
1.96043e-05
1.95561e-05
2.64147e-05
2.38223e-05
2.36609e-05
2.37759e-05
2.36467e-05
1.95732e-05
1.98671e-05
2.40587e-05
2.39039e-05
2.65961e-05
2.38835e-05
2.39688e-05
1.98755e-05
1.98556e-05
2.66267e-05
2.39787e-05
2.38438e-05
2.40108e-05
2.38579e-05
1.9809e-05
1.95839e-05
2.37664e-05
2.36722e-05
2.64262e-05
1.96193e-05
2.37823e-05
2.37248e-05
1.97497e-05
2.39407e-05
2.38701e-05
2.65839e-05
2.38363e-05
1.98087e-05
2.39338e-05
2.01027e-05
2.41973e-05
2.40223e-05
2.6606e-05
2.40103e-05
2.40978e-05
2.01526e-05
2.20684e-05
2.21338e-05
2.35843e-05
2.21837e-05
2.21128e-05
2.04502e-05
2.03808e-05
2.21879e-05
2.22583e-05
2.38458e-05
2.21823e-05
2.22291e-05
2.04011e-05
2.03671e-05
2.20825e-05
2.21019e-05
2.35391e-05
2.2074e-05
2.21324e-05
2.0468e-05
2.03627e-05
2.36004e-05
2.22725e-05
2.22811e-05
2.21438e-05
2.2405e-05
2.05008e-05
2.03267e-05
2.36598e-05
2.20511e-05
2.22901e-05
2.20562e-05
2.21195e-05
2.04157e-05
2.03627e-05
2.37083e-05
2.23242e-05
2.23462e-05
2.226e-05
2.22064e-05
2.03684e-05
2.0467e-05
2.36195e-05
2.21354e-05
2.21347e-05
2.21258e-05
2.21319e-05
2.06807e-05
2.05054e-05
2.55816e-05
2.09146e-05
2.60552e-05
2.15975e-05
2.1003e-05
2.60522e-05
2.55446e-05
2.43838e-05
2.24394e-05
1.67265e-05
1.92249e-05
2.24555e-05
1.92383e-05
2.43923e-05
2.44529e-05
1.91837e-05
1.67575e-05
2.24519e-05
2.24929e-05
1.9242e-05
2.4356e-05
2.5565e-05
2.15731e-05
2.10255e-05
2.60276e-05
2.09611e-05
2.60603e-05
2.56868e-05
2.20694e-05
2.21841e-05
2.36389e-05
2.21056e-05
2.21517e-05
2.03704e-05
2.04481e-05
2.21632e-05
2.22197e-05
2.37839e-05
2.21609e-05
2.21763e-05
2.04369e-05
2.06092e-05
2.21956e-05
2.21754e-05
2.3719e-05
2.21779e-05
2.23229e-05
2.04128e-05
2.04455e-05
2.54791e-05
2.14921e-05
2.08119e-05
2.60099e-05
2.0843e-05
2.59518e-05
2.54926e-05
2.43232e-05
2.24068e-05
1.91195e-05
1.66533e-05
2.44338e-05
2.24041e-05
1.91358e-05
2.56034e-05
2.14879e-05
2.08749e-05
2.6038e-05
2.55917e-05
2.08049e-05
2.60669e-05
2.43227e-05
1.91473e-05
1.67123e-05
2.23574e-05
2.23551e-05
1.91645e-05
2.43796e-05
2.565e-05
2.61836e-05
2.09527e-05
2.17717e-05
2.62933e-05
2.1013e-05
2.56597e-05
2.44297e-05
2.251e-05
1.68443e-05
1.92558e-05
2.251e-05
1.9245e-05
2.4442e-05
2.44163e-05
1.92418e-05
1.68939e-05
2.24717e-05
2.25481e-05
1.92389e-05
2.44266e-05
2.56832e-05
2.17186e-05
2.62131e-05
2.09903e-05
2.62055e-05
2.0978e-05
2.56881e-05
1.99098e-05
2.64241e-05
2.38537e-05
2.37442e-05
2.3966e-05
2.38438e-05
1.9839e-05
1.96336e-05
2.63579e-05
2.37392e-05
2.36562e-05
1.9616e-05
2.37475e-05
2.37555e-05
1.95919e-05
2.63661e-05
2.38106e-05
2.37325e-05
1.96211e-05
2.38066e-05
2.36437e-05
2.57892e-05
2.12124e-05
2.63878e-05
2.19687e-05
2.12337e-05
2.64141e-05
2.58537e-05
2.45338e-05
2.25343e-05
1.69157e-05
1.94185e-05
1.94261e-05
2.24938e-05
2.46234e-05
2.45322e-05
1.94196e-05
1.68917e-05
2.24333e-05
1.94423e-05
2.25165e-05
2.45226e-05
2.58097e-05
2.19691e-05
2.12689e-05
2.63679e-05
2.12108e-05
2.64965e-05
2.59121e-05
2.58735e-05
2.12114e-05
2.63735e-05
2.20473e-05
2.12808e-05
2.63494e-05
2.59078e-05
2.45729e-05
2.24849e-05
1.69457e-05
1.95296e-05
1.95222e-05
2.25073e-05
2.45886e-05
2.46792e-05
1.95018e-05
1.69747e-05
2.24782e-05
1.95432e-05
2.46239e-05
2.2562e-05
2.58641e-05
2.20227e-05
2.12164e-05
2.63458e-05
2.12234e-05
2.635e-05
2.58702e-05
2.58226e-05
2.1187e-05
2.6469e-05
2.20774e-05
2.58432e-05
2.12038e-05
2.6365e-05
2.4572e-05
2.24065e-05
1.68839e-05
1.94046e-05
2.24117e-05
1.94214e-05
2.44909e-05
2.4542e-05
1.94198e-05
2.24883e-05