/*--------------------------------*- C++ -*----------------------------------*\
| =========                 |                                                 |
| \\      /  F ield         | OpenFOAM: The Open Source CFD Toolbox           |
|  \\    /   O peration     | Version:  2206                                  |
|   \\  /    A nd           | Website:  www.openfoam.com                      |
|    \\/     M anipulation  |                                                 |
\*---------------------------------------------------------------------------*/
FoamFile
{
    version     2.0;
    format      ascii;
    arch        "LSB;label=32;scalar=64";
    class       volScalarField;
    location    "30";
    object      nut;
}
// * * * * * * * * * * * * * * * * * * * * * * * * * * * * * * * * * * * * * //

dimensions      [0 2 -1 0 0 0 0];

internalField   nonuniform List<scalar> 
66621
(
3.18298e-08
1.55971e-07
3.01925e-08
5.92212e-07
1.82619e-07
1.39321e-06
1.38665e-08
6.21567e-07
1.16921e-06
1.40525e-06
1.8464e-07
1.15622e-06
7.05197e-08
7.24737e-08
1.42734e-08
1.34937e-08
1.14346e-06
7.4592e-08
6.97722e-08
1.14705e-06
1.872e-07
7.5468e-08
1.40422e-08
5.9799e-07
1.15386e-06
1.78883e-07
1.38753e-06
1.56887e-07
3.12067e-08
6.01094e-07
1.15933e-06
1.39858e-06
1.83077e-07
1.55574e-07
3.12226e-08
5.83962e-07
1.1558e-06
1.38829e-06
1.79826e-07
1.53656e-07
3.04208e-08
1.15275e-06
7.18518e-08
7.16148e-08
1.36056e-08
6.23915e-07
1.17033e-06
1.40858e-06
1.87385e-07
1.6489e-07
3.04956e-08
1.65125e-07
3.11075e-08
1.37094e-08
1.39345e-08
7.09433e-08
1.22127e-08
1.95046e-08
1.23413e-07
2.30593e-08
1.5545e-07
1.2285e-07
2.3186e-08
1.97551e-08
1.1824e-08
6.5259e-08
3.03439e-08
6.5706e-08
1.17725e-08
1.39177e-08
3.92447e-08
1.18845e-08
1.18213e-08
1.19199e-08
1.1842e-08
3.97541e-08
1.38979e-07
2.84391e-08
7.14189e-08
3.50774e-07
3.50074e-07
2.83006e-08
1.394e-07
1.39342e-07
2.82358e-08
7.32775e-08
3.56839e-07
3.55755e-07
2.82015e-08
1.39963e-07
1.35705e-08
3.83881e-08
1.16457e-08
1.14494e-08
1.18069e-08
1.16018e-08
3.806e-08
1.38286e-07
2.82735e-08
3.58197e-07
2.83042e-08
1.38939e-07
1.35603e-07
2.72528e-08
7.06905e-08
3.45269e-07
2.72222e-08
1.36357e-07
3.4443e-07
1.18801e-08
3.87705e-08
2.84179e-08
3.5528e-07
1.39786e-07
2.00368e-08
2.31113e-08
1.25136e-07
1.56588e-07
2.34719e-08
1.2449e-07
1.96441e-08
1.20024e-08
6.79882e-08
3.13576e-08
6.87584e-08
1.21058e-08
1.25433e-07
2.29168e-08
1.99291e-08
6.94782e-08
1.1943e-08
2.27762e-08
1.21586e-07
1.93308e-08
6.66328e-08
1.16893e-08
3.95007e-08
1.18759e-08
1.18527e-08
1.19319e-08
1.18701e-08
3.99879e-08
1.39968e-07
2.83956e-08
7.27251e-08
3.52305e-07
2.83635e-08
3.50985e-07
1.40396e-07
1.3951e-07
2.84388e-08
7.43841e-08
3.56465e-07
3.5583e-07
2.83911e-08
1.40429e-07
1.36673e-08
1.99221e-08
1.29452e-07
2.36014e-08
1.64345e-07
1.28884e-07
2.37814e-08
2.01182e-08
1.18766e-08
6.75384e-08
3.06601e-08
6.80499e-08
1.18417e-08
1.98806e-08
1.28696e-07
2.36891e-08
1.64487e-07
1.2801e-07
2.42793e-08
2.00838e-08
1.19318e-08
6.82885e-08
3.12638e-08
6.8627e-08
1.19784e-08
1.39767e-08
1.31476e-06
1.2933e-06
1.27891e-06
1.19486e-06
1.32584e-06
1.30616e-06
1.29667e-06
1.20867e-06
1.32273e-06
1.30583e-06
1.28811e-06
1.20239e-06
1.33207e-06
1.28973e-06
1.30272e-06
1.20777e-06
9.58867e-07
5.27163e-07
1.02692e-06
5.98684e-07
5.31973e-07
1.02948e-06
9.6083e-07
3.53743e-07
5.95706e-07
8.88497e-07
9.7592e-07
1.0498e-06
5.38983e-07
6.2744e-07
1.04785e-06
5.57955e-07
9.81766e-07
8.89658e-07
3.65905e-07
1.83893e-07
6.01214e-07
5.96867e-07
3.63629e-07
8.84669e-07
4.48898e-07
1.16314e-06
7.42939e-07
7.52916e-07
7.45081e-07
7.52376e-07
4.32203e-07
4.26011e-07
1.15064e-06
7.40317e-07
7.38479e-07
4.34877e-07
7.44186e-07
7.41186e-07
3.62873e-07
6.00186e-07
8.88371e-07
9.56418e-07
5.17806e-07
1.03033e-06
6.04679e-07
5.29881e-07
1.02801e-06
9.55139e-07
8.70602e-07
3.48298e-07
1.78123e-07
5.83468e-07
3.46834e-07
5.81248e-07
8.55404e-07
9.58281e-07
1.03141e-06
5.22606e-07
6.08947e-07
1.02848e-06
5.27698e-07
9.60265e-07
8.78658e-07
3.53971e-07
1.82158e-07
5.94736e-07
3.52572e-07
8.83945e-07
5.90906e-07
9.51576e-07
1.02492e-06
5.07261e-07
5.89668e-07
1.02389e-06
5.11408e-07
9.53864e-07
8.64908e-07
3.47806e-07
1.79213e-07
5.90932e-07
5.86913e-07
3.46804e-07
8.65857e-07
4.38575e-07
1.16968e-06
7.42558e-07
7.52112e-07
7.51578e-07
7.41909e-07
4.42505e-07
9.72332e-07
1.04728e-06
5.36625e-07
6.30871e-07
1.0453e-06
5.37129e-07
9.75946e-07
9.00887e-07
3.67639e-07
1.86477e-07
6.07874e-07
6.01122e-07
3.65663e-07
8.98289e-07
2.21447e-09
2.4979e-10
1.9463e-11
4.6261e-12
4.45066e-12
2.14444e-09
2.42224e-10
1.9003e-11
4.62368e-12
4.45997e-12
2.3149e-09
2.64484e-10
2.11378e-11
5.25667e-12
5.08306e-12
2.31654e-09
2.64587e-10
2.11297e-11
5.2521e-12
5.07862e-12
2.25297e-09
2.57464e-10
2.06797e-11
5.24058e-12
5.07903e-12
2.31787e-09
2.6506e-10
2.11754e-11
5.25936e-12
5.08482e-12
2.20558e-09
2.48548e-10
1.93925e-11
4.63306e-12
4.45962e-12
2.18927e-09
2.47066e-10
1.93106e-11
4.63376e-12
4.46245e-12
2.12667e-09
2.3976e-10
1.88333e-11
4.6197e-12
4.46103e-12
2.2437e-09
2.56372e-10
2.06004e-11
5.23321e-12
5.07331e-12
2.11237e-09
2.38366e-10
1.87327e-11
4.60435e-12
4.4472e-12
2.15705e-09
2.43303e-10
1.90478e-11
4.61304e-12
4.44774e-12
2.2636e-09
2.58925e-10
2.07806e-11
5.24618e-12
5.08176e-12
2.28633e-09
2.61185e-10
2.09022e-11
5.24079e-12
5.07303e-12
1.96577e-09
2.23919e-10
1.81693e-11
4.85504e-12
4.73247e-12
2.04015e-09
2.33285e-10
1.89143e-11
5.00599e-12
4.87749e-12
2.02663e-09
2.32134e-10
1.88363e-11
4.98729e-12
4.85889e-12
1.98447e-09
2.25516e-10
1.82758e-11
4.87511e-12
4.75144e-12
2.13321e-09
2.41021e-10
1.8919e-11
4.60028e-12
4.43675e-12
2.29943e-09
2.63207e-10
2.10483e-11
5.23378e-12
5.0605e-12
2.16196e-09
2.43853e-10
1.91609e-11
4.67587e-12
4.51218e-12
2.14219e-09
2.42093e-10
1.90432e-11
4.65531e-12
4.49251e-12
2.14431e-09
2.42007e-10
1.90283e-11
4.66838e-12
4.50822e-12
2.13256e-09
2.40806e-10
1.89504e-11
4.64588e-12
4.48554e-12
2.24203e-09
2.5622e-10
2.05917e-11
5.22002e-12
5.05821e-12
2.10106e-09
2.39868e-10
1.95666e-11
5.23525e-12
5.10443e-12
2.16308e-09
2.44214e-10
1.91815e-11
4.67789e-12
4.51404e-12
1.98842e-09
2.25882e-10
1.82799e-11
4.85909e-12
4.73376e-12
2.03828e-09
2.33095e-10
1.88961e-11
5.00518e-12
4.87737e-12
2.02716e-09
2.32007e-10
1.88189e-11
4.98607e-12
4.85842e-12
1.99619e-09
2.27008e-10
1.8358e-11
4.87678e-12
4.75138e-12
2.19538e-09
2.47542e-10
1.93194e-11
4.61259e-12
4.43875e-12
2.00353e-09
2.29197e-10
1.86419e-11
4.99565e-12
4.87458e-12
1.98825e-09
2.26085e-10
1.8302e-11
4.87456e-12
4.7505e-12
1.98103e-09
2.26488e-10
1.84618e-11
4.98986e-12
4.87329e-12
1.92903e-09
2.19483e-10
1.78771e-11
4.86167e-12
4.74862e-12
2.11125e-09
2.41248e-10
1.9664e-11
5.23619e-12
5.10262e-12
2.14616e-09
2.42161e-10
1.90451e-11
4.6709e-12
4.51012e-12
2.13332e-09
2.40619e-10
1.89412e-11
4.64739e-12
4.48711e-12
2.23208e-09
2.5527e-10
2.05201e-11
5.2114e-12
5.05106e-12
1.94967e-09
2.21928e-10
1.80189e-11
4.83685e-12
4.71737e-12
2.02632e-09
2.31753e-10
1.8789e-11
4.98592e-12
4.85999e-12
2.01607e-09
2.30984e-10
1.87377e-11
4.96687e-12
4.84018e-12
1.96339e-09
2.2332e-10
1.81099e-11
4.85735e-12
4.73757e-12
2.10245e-09
2.37351e-10
1.86578e-11
4.58028e-12
4.42259e-12
1.94605e-09
2.21351e-10
1.79812e-11
4.83604e-12
4.71737e-12
2.02646e-09
2.31682e-10
1.87775e-11
4.98559e-12
4.8601e-12
2.01995e-09
2.30973e-10
1.87282e-11
4.9664e-12
4.84008e-12
1.96165e-09
2.23077e-10
1.81019e-11
4.85694e-12
4.73721e-12
2.14655e-09
2.42275e-10
1.89749e-11
4.5898e-12
4.42403e-12
2.27718e-09
2.60379e-10
2.08469e-11
5.21912e-12
5.05024e-12
2.11363e-09
2.41424e-10
1.9675e-11
5.23806e-12
5.10404e-12
2.10177e-09
2.40035e-10
1.95834e-11
5.23128e-12
5.09974e-12
2.29727e-09
2.61953e-10
2.09887e-11
5.27692e-12
5.1089e-12
2.22173e-09
2.53287e-10
2.04469e-11
5.246e-12
5.0894e-12
2.24062e-09
2.55478e-10
2.05886e-11
5.27133e-12
5.11382e-12
2.11931e-09
2.41951e-10
1.97081e-11
5.23803e-12
5.10313e-12
2.17573e-09
2.45553e-10
1.92622e-11
4.68039e-12
4.51452e-12
2.16586e-09
2.44559e-10
1.91934e-11
4.66111e-12
4.4948e-12
2.10916e-09
2.40777e-10
1.96289e-11
5.21564e-12
5.08066e-12
2.08583e-09
2.38864e-10
1.9502e-11
5.21025e-12
5.07862e-12
2.06961e-09
2.36569e-10
1.93471e-11
5.22492e-12
5.09949e-12
2.14106e-09
2.41736e-10
1.90037e-11
4.66687e-12
4.50767e-12
2.13471e-09
2.40983e-10
1.89472e-11
4.64874e-12
4.4886e-12
2.04297e-09
2.33568e-10
1.91585e-11
5.21954e-12
5.0993e-12
2.08812e-09
2.35828e-10
1.86458e-11
4.66262e-12
4.51252e-12
2.07721e-09
2.3489e-10
1.85814e-11
4.64071e-12
4.49029e-12
2.06602e-09
2.36011e-10
1.93078e-11
5.2027e-12
5.07624e-12
2.03837e-09
2.33041e-10
1.91219e-11
5.20124e-12
5.07969e-12
2.26805e-09
2.58411e-10
2.07566e-11
5.25308e-12
5.08898e-12
2.28417e-09
2.60206e-10
2.08771e-11
5.27869e-12
5.11402e-12
2.26765e-09
2.5875e-10
2.08012e-11
5.27927e-12
5.11647e-12
2.19556e-09
2.50491e-10
2.02465e-11
5.26238e-12
5.11439e-12
2.11208e-09
2.41177e-10
1.96388e-11
5.21568e-12
5.08062e-12
2.0989e-09
2.4017e-10
1.95884e-11
5.21513e-12
5.08118e-12
2.20292e-09
2.51015e-10
2.02676e-11
5.22873e-12
5.07629e-12
2.21026e-09
2.51926e-10
2.03354e-11
5.25446e-12
5.10322e-12
2.21211e-09
2.52306e-10
2.03626e-11
5.23215e-12
5.07717e-12
2.23302e-09
2.54545e-10
2.05066e-11
5.25977e-12
5.10392e-12
1.40272e-08
1.37362e-08
1.14609e-06
7.53899e-08
7.15825e-08
1.55639e-07
3.05731e-08
6.22673e-07
1.13037e-06
1.78236e-07
1.36749e-06
1.56409e-07
3.15942e-08
6.26742e-07
1.12473e-06
1.3707e-06
1.82366e-07
1.12479e-06
1.79221e-07
3.04179e-08
1.40324e-08
1.13107e-06
7.32825e-08
7.25845e-08
1.38685e-08
6.3773e-07
1.14634e-06
1.39879e-06
1.83917e-07
6.38487e-07
1.15269e-06
1.39286e-06
1.86721e-07
1.64635e-07
3.08405e-08
1.64723e-07
3.141e-08
1.13032e-06
7.41998e-08
7.46563e-08
1.3697e-08
1.42405e-08
1.17101e-08
1.16137e-08
3.79703e-08
2.82154e-08
3.5419e-07
1.3754e-07
2.7334e-08
3.44674e-07
1.35911e-07
1.95858e-08
1.23152e-07
2.35283e-08
1.58352e-07
1.97418e-08
1.25259e-07
2.39027e-08
1.18586e-08
6.72553e-08
3.11827e-08
1.18475e-08
6.88236e-08
1.96577e-08
2.3409e-08
1.24555e-07
1.58809e-07
1.98202e-08
2.35088e-08
1.26453e-07
1.20146e-08
6.99089e-08
3.18901e-08
1.2055e-08
6.97897e-08
1.16721e-08
6.7384e-08
3.07093e-08
1.1536e-08
6.72021e-08
1.4187e-08
3.91083e-08
1.20318e-08
1.20056e-08
3.98801e-08
1.20929e-08
1.20527e-08
1.41183e-07
2.85952e-08
3.5134e-07
7.4777e-08
3.56233e-07
1.39276e-07
2.87987e-08
1.42363e-07
2.8526e-08
3.58807e-07
7.27823e-08
1.40455e-07
2.87969e-08
3.62483e-07
1.38058e-08
1.97578e-08
1.29078e-07
2.41298e-08
1.65892e-07
2.01074e-08
1.30147e-07
2.39269e-08
1.18519e-08
6.92451e-08
3.09729e-08
1.18368e-08
7.06181e-08
1.97515e-08
1.28525e-07
2.3853e-08
1.66126e-07
2.0043e-08
1.29865e-07
2.37378e-08
1.20655e-08
7.04346e-08
3.19409e-08
1.20123e-08
7.05998e-08
3.88193e-08
1.20545e-08
1.20078e-08
3.925e-08
1.21183e-08
1.19516e-08
1.40962e-07
2.87796e-08
3.51163e-07
7.21241e-08
1.38654e-07
3.56125e-07
2.89707e-08
1.41467e-07
2.83677e-08
3.56574e-07
7.42679e-08
1.39336e-07
3.61075e-07
2.84872e-08
1.38236e-08
1.40799e-08
1.32516e-06
1.30835e-06
1.29378e-06
1.21504e-06
1.32783e-06
1.32132e-06
1.30205e-06
1.22626e-06
1.33254e-06
1.29127e-06
1.29167e-06
1.20047e-06
1.3393e-06
1.28963e-06
1.30567e-06
1.224e-06
7.41713e-07
7.34129e-07
4.15652e-07
9.4614e-07
5.27671e-07
1.00802e-06
6.15335e-07
9.3348e-07
5.41987e-07
1.01241e-06
8.67403e-07
3.47366e-07
5.75881e-07
1.81171e-07
5.85996e-07
8.58323e-07
3.53534e-07
9.47057e-07
1.00439e-06
5.37899e-07
6.15026e-07
9.40081e-07
1.01499e-06
5.40779e-07
8.81701e-07
3.53015e-07
5.84525e-07
1.85212e-07
8.71387e-07
3.58357e-07
5.95843e-07
8.68288e-07
3.46714e-07
5.83142e-07
1.82337e-07
8.64494e-07
3.5251e-07
5.93947e-07
4.28351e-07
1.15234e-06
7.35659e-07
7.49191e-07
7.4357e-07
4.2576e-07
7.54153e-07
9.83097e-07
1.04765e-06
5.57604e-07
6.35659e-07
9.75494e-07
1.0497e-06
5.42833e-07
8.88349e-07
3.66521e-07
5.94509e-07
1.86492e-07
8.87822e-07
6.04075e-07
3.71253e-07
9.75406e-07
1.04421e-06
5.62357e-07
6.54827e-07
9.69262e-07
1.04424e-06
5.47139e-07
8.98762e-07
3.67008e-07
6.0004e-07
1.89835e-07
8.95273e-07
3.72392e-07
6.09525e-07
4.3219e-07
1.15388e-06
7.3615e-07
7.48471e-07
4.298e-07
7.41803e-07
7.54881e-07
1.328e-06
1.13753e-06
1.32402e-06
1.13399e-06
1.16319e-06
1.14001e-06
1.12738e-06
1.13513e-06
1.15126e-06
1.15841e-06
1.15718e-06
1.15973e-06
1.13751e-06
1.13989e-06
1.13657e-06
1.13635e-06
1.15111e-06
1.1514e-06
1.13131e-06
1.15102e-06
1.14849e-06
1.15073e-06
1.1508e-06
1.15289e-06
1.15461e-06
1.13084e-06
1.13414e-06
1.13104e-06
1.15308e-06
1.15434e-06
1.67821e-07
3.13223e-08
3.13511e-08
1.66967e-07
1.38691e-08
1.39102e-08
1.53627e-07
2.94637e-08
2.96763e-08
1.53617e-07
1.33906e-06
1.34076e-06
1.33405e-06
1.32263e-06
1.33758e-06
1.34046e-06
1.33822e-06
5.74525e-07
1.81596e-07
1.37433e-06
1.15154e-06
1.82544e-07
1.39294e-06
5.7594e-07
1.67715e-07
3.10809e-08
1.66533e-07
3.12675e-08
1.37496e-08
1.3741e-08
1.54171e-07
2.96371e-08
1.53569e-07
2.97169e-08
1.33339e-06
1.33496e-06
1.33348e-06
5.75835e-07
1.80957e-07
1.36849e-06
1.15802e-06
5.73753e-07
1.82099e-07
1.38715e-06
1.38577e-08
1.38582e-08
6.04649e-07
1.40361e-06
1.88083e-07
1.16674e-06
1.40832e-06
1.89233e-07
6.04527e-07
6.76721e-08
7.03469e-08
1.13773e-06
6.79055e-08
7.00543e-08
1.38954e-08
1.38698e-08
1.34379e-08
1.34706e-08
7.09538e-08
6.8924e-08
1.13446e-06
7.07412e-08
6.87432e-08
1.38991e-08
1.39517e-08
1.34823e-08
1.35847e-08
1.14468e-06
7.14783e-08
6.88575e-08
7.34573e-08
7.12031e-08
1.67393e-07
3.14605e-08
3.14176e-08
1.67212e-07
6.21042e-07
1.88285e-07
1.40652e-06
1.15942e-06
1.89136e-07
1.41193e-06
6.16822e-07
6.21129e-07
1.89285e-07
1.41069e-06
1.15955e-06
1.89612e-07
1.40708e-06
6.13869e-07
1.67068e-07
3.14038e-08
3.20548e-08
1.67709e-07
1.669e-07
3.12865e-08
3.1577e-08
1.66754e-07
6.30292e-07
1.15588e-06
1.89263e-07
1.40655e-06
1.88294e-07
1.40693e-06
6.2005e-07
6.38428e-07
1.15296e-06
1.88458e-07
1.40522e-06
1.88608e-07
1.40555e-06
6.19407e-07
7.10137e-08
7.00929e-08
1.14225e-06
7.10517e-08
7.03069e-08
1.37235e-08
1.37189e-08
1.38135e-08
1.39276e-08
1.15802e-06
7.0496e-08
7.08345e-08
7.20813e-08
7.14249e-08
1.37397e-08
1.39146e-08
5.76765e-07
1.78521e-07
1.37446e-06
1.14307e-06
1.79459e-07
1.38923e-06
5.7017e-07
1.55168e-07
3.06265e-08
1.54012e-07
3.07947e-08
5.80486e-07
1.37609e-06
1.8358e-07
1.15323e-06
1.39545e-06
5.72732e-07
1.84505e-07
1.53784e-07
3.02877e-08
2.99939e-08
1.54695e-07
5.88472e-07
1.13098e-06
1.79689e-07
1.39015e-06
1.78888e-07
1.37258e-06
5.79253e-07
1.54128e-07
3.10358e-08
1.55296e-07
3.11449e-08
5.88218e-07
1.13715e-06
1.3938e-06
1.8477e-07
1.38157e-06
5.80205e-07
1.83811e-07
1.54295e-07
3.00708e-08
3.0193e-08
1.54204e-07
5.7616e-07
1.37347e-06
1.77278e-07
1.14338e-06
1.38941e-06
5.76699e-07
1.77456e-07
1.54722e-07
2.89646e-08
1.53896e-07
2.88729e-08
5.85012e-07
1.13837e-06
1.82107e-07
1.38835e-06
1.81558e-07
1.3709e-06
5.85804e-07
1.5358e-07
3.01743e-08
3.09039e-08
1.53927e-07
5.85146e-07
1.13554e-06
1.38931e-06
1.77684e-07
1.37247e-06
5.76869e-07
1.7669e-07
1.54323e-07
2.91724e-08
1.54984e-07
2.96332e-08
1.41292e-08
1.39132e-08
1.3501e-08
1.34254e-08
7.316e-08
6.99468e-08
1.14221e-06
7.16037e-08
6.88821e-08
1.6755e-07
3.17884e-08
1.66591e-07
3.12056e-08
6.21064e-07
1.88454e-07
1.40713e-06
1.15791e-06
6.28289e-07
1.89595e-07
1.40648e-06
6.21544e-07
1.87281e-07
1.40786e-06
1.16673e-06
6.38661e-07
1.8828e-07
1.40765e-06
7.29165e-08
7.46845e-08
1.14134e-06
7.05469e-08
7.09139e-08
1.38513e-08
1.37395e-08
5.75368e-07
1.78807e-07
1.36973e-06
1.15259e-06
5.85519e-07
1.79872e-07
1.39039e-06
1.5473e-07
3.1723e-08
1.54408e-07
3.10545e-08
5.80158e-07
1.37494e-06
1.83858e-07
1.1605e-06
6.03728e-07
1.38975e-06
1.85097e-07
1.54259e-07
3.07936e-08
1.5357e-07
3.02803e-08
5.78217e-07
1.37305e-06
1.7706e-07
1.15316e-06
5.88298e-07
1.38957e-06
1.78623e-07
1.54536e-07
2.9818e-08
1.5409e-07
2.9337e-08
7.03925e-08
7.16773e-08
1.15342e-06
7.05254e-08
7.15321e-08
1.38145e-08
1.38278e-08
7.35238e-08
1.39105e-08
6.13412e-07
1.40769e-06
1.85939e-07
1.16158e-06
1.40519e-06
1.86545e-07
6.08122e-07
1.634e-07
3.10647e-08
3.10793e-08
1.63204e-07
1.64628e-07
3.04952e-08
3.04377e-08
1.63826e-07
6.15309e-07
1.88135e-07
6.28556e-07
1.8543e-07
1.621e-07
3.12959e-08
1.63212e-07
3.10668e-08
1.32426e-08
1.32565e-08
1.35886e-08
1.35861e-08
7.21079e-08
1.36528e-08
1.9882e-08
2.37657e-08
1.32471e-07
1.67251e-07
2.43122e-08
1.32006e-07
2.02882e-08
1.20542e-08
3.21011e-08
6.81748e-08
7.04002e-08
1.21108e-08
1.21836e-08
6.85668e-08
3.16617e-08
7.10349e-08
1.2101e-08
1.99852e-08
1.67625e-07
2.3574e-08
1.3179e-07
2.4062e-08
1.32423e-07
2.00333e-08
1.40475e-08
1.40847e-08
1.87933e-08
1.22563e-07
2.22008e-08
1.53503e-07
1.22172e-07
2.23871e-08
1.89517e-08
1.14745e-08
3.01243e-08
6.37644e-08
6.50091e-08
1.15806e-08
1.15154e-08
6.35063e-08
3.03811e-08
6.58754e-08
1.15777e-08
1.90711e-08
1.54511e-07
1.21787e-07
2.22103e-08
1.22082e-07
2.27891e-08
1.90542e-08
2.00423e-08
1.66565e-07
2.37985e-08
1.33214e-07
2.3999e-08
1.32576e-07
2.02438e-08
1.2226e-08
6.84389e-08
3.1955e-08
1.21187e-08
7.06143e-08
2.02753e-08
1.67446e-07
2.37013e-08
1.32189e-07
2.03995e-08
2.43162e-08
1.32845e-07
1.21762e-08
6.90761e-08
3.15192e-08
7.14305e-08
1.21459e-08
1.40367e-08
1.38473e-08
1.87387e-08
1.53258e-07
1.22603e-07
2.22094e-08
1.223e-07
2.25981e-08
1.88966e-08
1.14546e-08
6.34221e-08
3.00515e-08
1.14805e-08
6.54066e-08
1.89972e-08
1.53968e-07
1.22096e-07
2.20799e-08
1.88649e-08
1.22693e-07
2.23567e-08
1.1595e-08
6.38429e-08
3.03972e-08
6.61371e-08
1.14489e-08
1.40969e-08
1.39654e-08
3.75607e-08
1.15783e-08
1.15254e-08
1.16839e-08
1.16469e-08
3.79303e-08
1.37731e-07
3.43023e-07
6.90706e-08
2.77867e-08
3.47729e-07
2.81186e-08
1.37632e-07
1.39363e-07
3.50088e-07
7.24815e-08
2.74919e-08
3.54942e-07
2.77858e-08
1.39127e-07
1.36988e-07
2.76377e-08
7.02577e-08
3.44265e-07
3.47402e-07
2.7899e-08
1.37663e-07
1.38663e-07
2.75779e-08
7.29018e-08
3.49466e-07
3.53406e-07
2.78278e-08
1.39311e-07
3.85632e-08
1.16236e-08
1.15317e-08
1.17666e-08
1.16538e-08
3.84896e-08
1.40649e-08
1.40668e-08
1.36019e-08
1.36531e-08
3.66543e-08
1.14352e-08
1.1392e-08
1.15143e-08
1.14456e-08
3.78158e-08
1.3701e-07
3.50642e-07
7.44038e-08
2.7858e-08
2.8083e-08
3.56023e-07
1.36585e-07
1.36172e-07
3.43265e-07
7.21931e-08
2.73083e-08
2.76546e-08
3.46408e-07
1.35798e-07
1.3631e-07
2.78112e-08
7.16055e-08
3.49902e-07
2.80486e-08
1.36914e-07
3.52952e-07
1.36001e-07
2.73588e-08
6.96396e-08
3.42858e-07
2.76483e-08
1.36151e-07
3.46819e-07
3.72829e-08
1.1442e-08
1.13862e-08
1.15654e-08
1.15618e-08
3.74809e-08
1.40731e-08
1.40351e-08
1.35244e-08
1.36354e-08
3.65791e-08
1.15869e-08
1.15142e-08
3.68583e-08
1.15495e-08
1.14154e-08
1.36576e-07
3.56389e-07
7.24168e-08
2.80671e-08
2.82559e-08
3.54855e-07
1.37042e-07
1.35504e-07
3.44945e-07
6.92904e-08
2.73089e-08
2.76045e-08
3.46868e-07
1.36243e-07
1.37045e-07
2.81106e-08
3.55443e-07
7.25025e-08
1.36589e-07
2.82246e-08
3.5647e-07
1.36493e-07
2.75046e-08
3.47057e-07
7.16282e-08
1.36079e-07
2.76427e-08
3.46993e-07
3.8229e-08
1.15258e-08
1.13598e-08
1.16033e-08
1.14695e-08
3.69393e-08
1.97109e-08
2.36539e-08
1.31308e-07
1.67265e-07
2.38144e-08
1.31124e-07
2.00354e-08
1.206e-08
3.20807e-08
6.85485e-08
7.20844e-08
1.21678e-08
1.20767e-08
6.83749e-08
3.21054e-08
6.91674e-08
1.20376e-08
1.98804e-08
1.67908e-07
2.36538e-08
1.31172e-07
2.41867e-08
1.31693e-07
2.0209e-08
1.9997e-08
2.39745e-08
1.31956e-07
1.67868e-07
2.03494e-08
2.38796e-08
1.32663e-07
1.2067e-08
3.19706e-08
6.90584e-08
1.21561e-08
7.16683e-08
1.20672e-08
6.99293e-08
3.16849e-08
1.2051e-08
7.08705e-08
2.02545e-08
1.67232e-07
2.41344e-08
1.3277e-07
2.0416e-08
2.39549e-08
1.32036e-07
1.98662e-08
2.40553e-08
1.31349e-07
1.6725e-07
2.0129e-08
2.41912e-08
1.32204e-07
1.19812e-08
3.19461e-08
6.87503e-08
6.96173e-08
1.20846e-08
1.21151e-08
7.1099e-08
3.18874e-08
1.20355e-08
7.1871e-08
2.00352e-08
1.6643e-07
2.36728e-08
1.31909e-07
2.4126e-08
1.31334e-07
2.01761e-08
3.74777e-08
1.15741e-08
1.16444e-08
1.16595e-08
1.17128e-08
3.8958e-08
1.39303e-07
3.53822e-07
7.32049e-08
2.76525e-08
2.80237e-08
3.58392e-07
1.39277e-07
1.38166e-07
3.52511e-07
7.22959e-08
2.79922e-08
3.52007e-07
2.839e-08
1.37763e-07
1.38522e-07
2.78074e-08
7.38883e-08
3.529e-07
2.80293e-08
3.57149e-07
1.39314e-07
1.37493e-07
2.81702e-08
7.30436e-08
3.50236e-07
3.5276e-07
2.82768e-08
1.37863e-07
3.76798e-08
1.1558e-08
1.16274e-08
1.17225e-08
1.17735e-08
3.77636e-08
1.39474e-08
1.37822e-08
1.39831e-08
1.38897e-08
3.74333e-08
1.1697e-08
1.17177e-08
3.78232e-08
1.17136e-08
1.17701e-08
1.3808e-07
3.56169e-07
7.13202e-08
2.76997e-08
3.57223e-07
2.79676e-08
1.38813e-07
1.36929e-07
3.5087e-07
7.367e-08
2.82696e-08
2.8556e-08
3.5221e-07
1.37721e-07
1.39258e-07
2.80143e-08
3.57573e-07
7.13071e-08
3.58201e-07
1.39057e-07
2.7946e-08
1.37852e-07
2.84374e-08
3.52325e-07
7.25132e-08
1.37235e-07
2.86401e-08
3.51943e-07
3.82276e-08
1.16033e-08
1.16107e-08
1.16201e-08
1.17714e-08
3.78276e-08
1.38269e-08
1.39691e-08
1.89129e-08
2.22314e-08
1.54571e-07
1.24213e-07
2.23036e-08
1.23705e-07
1.91123e-08
1.17354e-08
6.51336e-08
3.13652e-08
6.82079e-08
1.17835e-08
1.91976e-08
1.54988e-07
2.21663e-08
1.2318e-07
2.26545e-08
1.23849e-07
1.91262e-08
1.17875e-08
6.54586e-08
3.15076e-08
6.59189e-08
1.18757e-08
1.87459e-08
1.22279e-07
2.24987e-08
1.54442e-07
1.90761e-08
1.22706e-07
2.2375e-08
1.14096e-08
3.00761e-08
6.38091e-08
1.15905e-08
6.40203e-08
1.14363e-08
6.4495e-08
3.00598e-08
1.14204e-08
6.58102e-08
1.89831e-08
1.53934e-07
1.22887e-07
2.24409e-08
1.88977e-08
1.22014e-07
2.23331e-08
1.89523e-08
2.26912e-08
1.5502e-07
1.2373e-07
1.92495e-08
2.29703e-08
1.24001e-07
1.17594e-08
6.65368e-08
3.16389e-08
6.88711e-08
1.19499e-08
1.91962e-08
1.5475e-07
2.22277e-08
1.24089e-07
2.24435e-08
1.24138e-07
1.90762e-08
1.17724e-08
6.93476e-08
3.15174e-08
1.17511e-08
6.6859e-08
1.89039e-08
1.23884e-07
2.21045e-08
1.54025e-07
1.23476e-07
2.2558e-08
1.91232e-08
1.1649e-08
3.06471e-08
6.4754e-08
6.76912e-08
1.17667e-08
1.17483e-08
6.4485e-08
3.08938e-08
6.52043e-08
1.16444e-08
1.89944e-08
1.54619e-07
1.23878e-07
2.22192e-08
1.24441e-07
2.24361e-08
1.93123e-08
1.86073e-08
2.21969e-08
1.54576e-07
1.21462e-07
2.23658e-08
1.21186e-07
1.90692e-08
1.12831e-08
6.18458e-08
2.9815e-08
6.37997e-08
1.1318e-08
1.87331e-08
1.54922e-07
2.21896e-08
1.20869e-07
2.26507e-08
1.21309e-07
1.87569e-08
1.14364e-08
6.23996e-08
2.91495e-08
6.4569e-08
1.1302e-08
1.88702e-08
1.23438e-07
2.22787e-08
1.54577e-07
1.92076e-08
1.24063e-07
2.24953e-08
1.15432e-08
3.04941e-08
6.50426e-08
6.58704e-08
1.17243e-08
1.15982e-08
6.7127e-08
3.03144e-08
1.16181e-08
6.75964e-08
1.89855e-08
1.53648e-07
1.22944e-07
2.20843e-08
1.23104e-07
2.25746e-08
1.91565e-08
1.86077e-08
2.28126e-08
1.54573e-07
1.21443e-07
1.87574e-08
2.22869e-08
1.21731e-07
1.12764e-08
6.31298e-08
2.94293e-08
6.53017e-08
1.13702e-08
1.90437e-08
1.54588e-07
2.21258e-08
1.21774e-07
2.2211e-08
1.21598e-07
1.86806e-08
1.13594e-08
6.33355e-08
2.9451e-08
1.13701e-08
6.42035e-08
1.39658e-08
1.40186e-08
1.35274e-08
1.35847e-08
3.6589e-08
1.15872e-08
1.13261e-08
1.16254e-08
1.14072e-08
3.71479e-08
1.37506e-07
3.55652e-07
2.82975e-08
7.38594e-08
1.37069e-07
2.85167e-08
3.56328e-07
1.36036e-07
3.46018e-07
2.74787e-08
7.16544e-08
1.35968e-07
2.75393e-08
3.46598e-07
3.74014e-08
1.1742e-08
1.14078e-08
3.71081e-08
1.16314e-08
1.14006e-08
1.37252e-07
2.8389e-08
7.3185e-08
3.53078e-07
2.85613e-08
1.37594e-07
3.55878e-07
1.35238e-07
2.71401e-08
7.02437e-08
3.43635e-07
2.74796e-08
1.35902e-07
3.45866e-07
1.97546e-08
1.66676e-07
2.36612e-08
1.3179e-07
2.38327e-08
1.31114e-07
2.00568e-08
1.19799e-08
7.10194e-08
3.20349e-08
1.20972e-08
6.98247e-08
1.99841e-08
1.67171e-07
2.38852e-08
1.31509e-07
2.38113e-08
2.01264e-08
1.32071e-07
1.19982e-08
6.85507e-08
3.15071e-08
6.94421e-08
1.1998e-08
3.70771e-08
1.15183e-08
1.15912e-08
1.15958e-08
1.16441e-08
3.75869e-08
1.38361e-07
3.57323e-07
2.7957e-08
7.17519e-08
2.79448e-08
1.38549e-07
3.5751e-07
1.38098e-07
3.51748e-07
2.83674e-08
7.17471e-08
3.51196e-07
1.37484e-07
2.8556e-08
3.77453e-08
1.15844e-08
1.16626e-08
1.16326e-08
3.76612e-08
1.17125e-08
1.37214e-07
2.77331e-08
7.15091e-08
3.53907e-07
2.80146e-08
3.55651e-07
1.38079e-07
1.37761e-07
2.81319e-08
7.36172e-08
3.49844e-07
3.51561e-07
2.83395e-08
1.381e-07
1.3807e-08
1.38148e-08
1.89037e-08
1.54376e-07
2.22803e-08
1.24408e-07
2.2496e-08
1.2407e-07
1.9153e-08
1.1786e-08
6.98703e-08
3.13942e-08
1.18172e-08
6.75434e-08
1.89905e-08
1.54804e-07
2.26888e-08
1.2384e-07
2.24761e-08
1.90142e-08
1.23998e-07
1.18638e-08
6.65619e-08
3.17593e-08
6.88569e-08
1.18305e-08
1.87604e-08
1.53815e-07
1.23266e-07
2.21324e-08
1.22907e-07
2.25776e-08
1.89607e-08
1.15536e-08
6.71495e-08
3.10666e-08
6.60313e-08
1.16148e-08
1.886e-08
1.54247e-07
1.22828e-07
2.22759e-08
1.22979e-07
1.91726e-08
2.24145e-08
1.16191e-08
6.50003e-08
3.05473e-08
6.5652e-08
1.16026e-08
1.84941e-08
1.5409e-07
2.19801e-08
1.22041e-07
2.21907e-08
1.21657e-07
1.87632e-08
1.13367e-08
6.51895e-08
2.96169e-08
1.14e-08
6.70598e-08
1.85739e-08
1.54768e-07
2.26615e-08
1.21212e-07
1.8629e-08
2.21043e-08
1.21952e-07
1.13876e-08
6.32325e-08
2.95984e-08
6.3888e-08
1.13706e-08
3.88624e-08
1.18526e-08
1.19352e-08
1.19987e-08
1.19993e-08
3.97876e-08
1.41235e-07
3.53625e-07
7.15354e-08
2.79601e-08
2.81687e-08
3.5412e-07
1.40881e-07
1.4216e-07
3.60791e-07
7.52932e-08
2.83471e-08
3.61696e-07
2.87643e-08
1.41741e-07
1.40447e-07
2.79293e-08
7.29578e-08
3.53984e-07
2.82363e-08
3.53844e-07
1.40864e-07
1.41561e-07
2.84754e-08
7.24384e-08
3.60778e-07
3.61861e-07
2.87242e-08
1.42133e-07
3.92171e-08
1.18951e-08
1.1968e-08
1.1969e-08
1.21402e-08
3.94402e-08
1.3936e-08
1.40174e-08
1.20722e-08
2.85551e-08
1.93639e-08
1.29028e-07
2.3091e-08
1.63027e-07
1.29082e-07
2.34943e-08
1.95503e-08
1.18821e-08
3.16448e-08
6.78926e-08
7.12664e-08
1.20097e-08
1.2011e-08
6.74298e-08
3.17173e-08
6.8416e-08
1.19108e-08
1.95141e-08
1.63397e-07
1.29243e-07
2.30256e-08
1.29823e-07
2.33991e-08
1.95769e-08
1.94749e-08
1.29797e-07
2.32187e-08
1.64066e-07
1.29414e-07
2.32949e-08
1.95935e-08
1.17977e-08
3.12672e-08
6.67782e-08
6.9697e-08
1.17952e-08
1.1869e-08
6.64698e-08
3.07179e-08
6.7074e-08
1.19216e-08
1.98069e-08
1.64979e-07
1.28895e-07
2.31048e-08
1.29812e-07
2.36411e-08
1.97501e-08
1.28188e-07
2.33401e-08
1.93824e-08
6.92463e-08
1.17887e-08
1.29006e-07
2.34879e-08
1.94513e-08
6.86428e-08
1.17393e-08
1.33519e-08
1.33893e-08
1.38351e-08
1.36715e-08
1.16615e-08
2.77466e-08
1.30749e-06
1.30167e-06
1.32411e-06
1.29114e-06
1.28698e-06
1.22145e-06
1.20742e-06
1.30906e-06
1.29993e-06
1.31759e-06
1.29974e-06
1.28816e-06
1.22082e-06
1.21608e-06
4.14289e-07
7.35385e-07
7.47801e-07
1.1401e-06
7.31689e-07
7.44109e-07
4.28471e-07
4.08649e-07
7.40391e-07
7.37373e-07
1.13744e-06
7.36742e-07
7.30917e-07
4.20626e-07
4.06232e-07
1.14005e-06
7.40008e-07
7.35701e-07
7.42366e-07
7.40226e-07
4.22277e-07
4.18182e-07
7.5007e-07
7.47357e-07
1.14803e-06
7.39202e-07
7.41736e-07
4.18802e-07
4.12368e-07
1.15762e-06
7.43632e-07
7.43178e-07
7.48254e-07
7.48932e-07
4.17939e-07
4.05878e-07
7.41363e-07
7.3584e-07
1.1401e-06
4.09114e-07
7.38118e-07
7.32921e-07
4.09008e-07
7.45445e-07
7.43733e-07
1.14774e-06
7.37571e-07
4.23712e-07
7.41724e-07
4.2509e-07
7.44688e-07
7.58181e-07
1.1495e-06
7.53562e-07
7.37376e-07
4.40181e-07
1.30243e-06
1.298e-06
1.32526e-06
1.30176e-06
1.28427e-06
1.23219e-06
1.22523e-06
1.30199e-06
1.31412e-06
1.33857e-06
1.29087e-06
1.30109e-06
1.22787e-06
1.21601e-06
1.30412e-06
1.30258e-06
1.32492e-06
1.2879e-06
1.29705e-06
1.23075e-06
1.22088e-06
1.32461e-06
1.30638e-06
1.29973e-06
1.297e-06
1.30788e-06
1.22189e-06
1.21297e-06
1.33626e-06
1.29781e-06
1.30984e-06
1.28828e-06
1.29669e-06
1.21395e-06
1.19895e-06
1.33785e-06
1.30852e-06
1.31716e-06
1.29415e-06
1.2978e-06
1.20676e-06
1.22659e-06
1.33609e-06
1.3045e-06
1.30348e-06
1.30182e-06
1.29251e-06
1.23216e-06
1.21742e-06
9.55797e-07
5.08709e-07
1.01535e-06
5.95567e-07
5.1418e-07
1.02437e-06
9.46905e-07
8.57133e-07
5.87521e-07
1.82432e-07
3.51131e-07
5.8497e-07
3.5262e-07
8.74684e-07
8.69158e-07
3.51664e-07
1.8189e-07
5.87889e-07
5.91676e-07
3.51605e-07
8.74029e-07
9.36562e-07
5.90363e-07
5.09232e-07
1.01162e-06
5.23404e-07
1.0029e-06
9.49341e-07
1.29433e-06
1.2961e-06
1.33553e-06
1.29789e-06
1.29775e-06
1.22055e-06
1.22187e-06
1.29512e-06
1.30552e-06
1.34187e-06
1.29604e-06
1.30354e-06
1.22401e-06
1.22995e-06
1.29906e-06
1.30249e-06
1.34169e-06
1.30178e-06
1.31274e-06
1.22971e-06
1.22963e-06
9.53622e-07
5.92999e-07
5.04934e-07
1.02221e-06
5.21583e-07
1.02248e-06
9.5275e-07
8.58814e-07
5.8459e-07
3.49107e-07
1.81622e-07
8.7325e-07
5.83869e-07
3.50883e-07
9.36515e-07
5.8221e-07
5.04306e-07
1.00507e-06
9.39623e-07
5.12781e-07
1.00122e-06
8.6471e-07
3.5126e-07
1.81374e-07
5.88346e-07
5.87756e-07
3.50051e-07
8.66669e-07
9.77479e-07
1.0484e-06
5.32595e-07
6.25554e-07
1.05247e-06
5.34361e-07
9.78676e-07
8.83685e-07
6.03819e-07
1.88838e-07
3.67554e-07
6.05536e-07
3.68977e-07
8.89645e-07
8.93658e-07
3.68865e-07
1.88292e-07
6.05699e-07
6.0521e-07
3.67381e-07
8.91077e-07
9.71801e-07
6.1894e-07
1.04114e-06
5.30194e-07
1.04036e-06
5.38007e-07
9.71696e-07
4.18519e-07
1.14976e-06
7.3738e-07
7.44183e-07
7.43649e-07
7.50193e-07
4.14926e-07
4.27585e-07
1.13487e-06
7.36822e-07
7.3401e-07
4.11168e-07
7.41842e-07
7.43622e-07
4.09573e-07
1.13726e-06
7.43537e-07
7.39304e-07
4.10562e-07
7.38429e-07
7.30337e-07
9.82901e-07
5.39338e-07
1.05503e-06
6.37022e-07
5.57293e-07
1.05729e-06
9.84499e-07
8.92713e-07
6.07307e-07
1.89611e-07
3.71069e-07
3.72494e-07
6.05828e-07
8.90732e-07
8.954e-07
3.72403e-07
1.88445e-07
6.04748e-07
3.71732e-07
6.07356e-07
8.93272e-07
9.78862e-07
6.30475e-07
5.39896e-07
1.05127e-06
5.50113e-07
1.0547e-06
9.8394e-07
9.86359e-07
5.37382e-07
1.05464e-06
6.2665e-07
5.53373e-07
1.05476e-06
9.86864e-07
8.82634e-07
6.05744e-07
1.89872e-07
3.73249e-07
3.74325e-07
6.06148e-07
8.97825e-07
8.9593e-07
3.74002e-07
1.89278e-07
6.05946e-07
3.73645e-07
9.01732e-07
6.0838e-07
9.8123e-07
6.33928e-07
5.29582e-07
1.05044e-06
5.44172e-07
1.04899e-06
9.82583e-07
9.79261e-07
5.45374e-07
1.05457e-06
6.40187e-07
9.80714e-07
5.54367e-07
1.04928e-06
8.78347e-07
6.04739e-07
1.88286e-07
3.72046e-07
6.03951e-07
3.71199e-07
8.99284e-07
8.9445e-07
3.71187e-07
6.06141e-07