/*--------------------------------*- C++ -*----------------------------------*\
| =========                 |                                                 |
| \\      /  F ield         | OpenFOAM: The Open Source CFD Toolbox           |
|  \\    /   O peration     | Version:  2206                                  |
|   \\  /    A nd           | Website:  www.openfoam.com                      |
|    \\/     M anipulation  |                                                 |
\*---------------------------------------------------------------------------*/
FoamFile
{
    version     2.0;
    format      ascii;
    arch        "LSB;label=32;scalar=64";
    class       volScalarField;
    location    "30";
    object      omega;
}
// * * * * * * * * * * * * * * * * * * * * * * * * * * * * * * * * * * * * * //

dimensions      [0 0 -1 0 0 0 0];

internalField   nonuniform List<scalar> 
66621
(
266.338
90.4332
273.072
36.4657
80.3806
19.3194
405.531
35.056
20.8632
19.1712
81.118
22.9391
148.938
147.111
398.016
405.492
23.089
143.969
148.758
21.0799
79.3583
142.475
402.127
36.1524
21.0526
82.1468
19.3455
90.4218
271.786
36.0327
21.0546
19.3337
81.8025
89.4844
267.44
36.7643
21.0548
19.3312
82.2873
89.6939
262.078
23.0029
148.322
147.07
403.689
34.9882
20.8076
19.1444
80.6752
87.8221
270.235
87.4224
270.296
402.234
402.566
150.385
422.051
312.829
105.298
288.519
89.1358
104.245
286.585
311.369
421.7
160.614
271.554
159.454
426.029
403.672
200.187
411.539
411.546
409.962
410.211
198.521
93.6139
282.101
147.084
52.9614
51.5612
280.358
98.2966
96.1012
282.484
145.502
52.1854
51.7057
274.612
97.673
403.952
200.358
411.98
412.885
407.035
407.783
202.26
96.5855
282.701
51.538
280.959
96.3389
97.0838
284.138
146.993
52.9808
282.709
95.9706
52.3279
409.076
200.507
278.632
51.573
97.4344
308.841
288.249
104.625
88.8113
284.442
103.046
315.303
423.777
158.645
269.648
156.826
422.898
102.436
286.173
309.695
152.432
425.172
284.803
100.106
309.466
156.054
421.201
199.604
411.71
411.461
410.425
410.259
198.193
96.9853
283.207
146.577
52.7469
281.203
51.5247
96.8268
95.4931
281.164
141.578
52.3026
50.172
273.003
94.464
402.358
308.714
101.535
284.824
86.8542
96.718
282.991
307.625
420.967
156.797
268.614
155.686
422.516
308.739
102.23
284.848
85.4056
101.307
278.194
307.682
420.874
156.354
268.987
155.445
422.401
401.012
17.9047
17.2501
17.3106
16.9322
17.8054
17.1499
17.1001
16.7738
17.805
17.1268
17.1628
16.8705
17.7155
17.1543
17.1023
16.9243
24.4349
39.8618
23.6281
36.121
39.5308
23.3813
24.7903
51.4867
35.7274
27.242
24.3383
23.2923
38.9884
34.7491
23.2411
37.6533
24.1685
27.3282
51.2334
77.2733
36.0036
34.8184
50.8557
27.4748
44.3143
22.7913
30.3964
30.1485
29.6772
30.0052
46.298
46.2837
23.0053
30.4599
30.4735
45.484
30.2753
30.2651
51.2676
35.865
27.5594
24.8624
40.1968
23.7077
35.8594
39.3186
23.5215
24.8347
27.6447
52.6149
79.4901
36.5196
52.0722
36.2044
28.214
24.7797
23.7441
40.0203
35.6116
23.6703
39.6626
24.8622
27.7673
51.9346
80.6906
36.0633
51.3731
27.5811
35.6758
24.8723
23.8611
40.72
36.4694
23.7906
40.4455
24.753
27.9955
52.7968
78.5908
36.4912
35.2467
52.2379
27.9392
45.4967
22.7962
30.301
30.2243
30.0508
30.1207
45.1499
24.0846
23.2797
38.9908
34.4405
22.9993
38.8079
24.3879
27.1205
50.77
79.9891
35.6392
35.4827
50.5302
27.1855
762.034
1630.33
4428.27
16479.3
116782
761.296
1629.87
4428.41
16480.9
116803
742.978
1611.63
4396.61
16426.5
116892
744.084
1612.13
4396.7
16425
116862
743.07
1611.69
4396.92
16428.9
116912
743.866
1611.82
4396.46
16425.1
116872
760.938
1629.81
4428.32
16480.9
116814
761.79
1630
4427.95
16478.1
116781
761.719
1630.19
4428.01
16477.7
116772
743.154
1611.58
4396.42
16425.9
116881
761.682
1629.75
4428.16
16479.9
116795
761.511
1629.75
4428.13
16479.8
116802
744.04
1612.17
4396.75
16426.6
116892
743.222
1611.68
4396.87
16428.3
116912
753.117
1623.08
4414.02
16449.4
116752
750.301
1616.69
4402.69
16426.9
116727
751.803
1617.75
4403.3
16427.4
116727
751.916
1622.2
4413.43
16448.7
116752
762.232
1630.88
4429.02
16481.6
116803
743.963
1612.6
4397.15
16426.9
116892
759.95
1628.99
4426.37
16476.6
116795
761.447
1630.14
4427.11
16477.1
116795
760.702
1629.09
4426.48
16476.6
116795
761.138
1629.95
4427.01
16477.2
116795
744.101
1612.77
4397.58
16429.2
116912
744.245
1616.82
4404.8
16442.5
116904
761.007
1629.42
4426.31
16474.8
116778
752.721
1623.04
4413.92
16448.3
116747
750.942
1616.77
4402.68
16426.7
116725
751.684
1617.65
4403.09
16427
116725
752.522
1622.22
4413.32
16448
116747
762.097
1630.9
4429.04
16481.5
116814
751.365
1617.2
4403.03
16427.3
116749
752.103
1622.31
4413.8
16449.9
116774
751.026
1617.15
4403.05
16428
116747
752.578
1622.13
4413.73
16450.1
116769
744.076
1616.42
4404.92
16443.1
116904
760.671
1629.06
4426.18
16473.9
116759
761.053
1629.9
4426.69
16474.5
116759
744.511
1612.65
4397.03
16426.3
116881
753.267
1623.09
4414.23
16450.6
116769
750.878
1616.71
4402.93
16428.7
116747
752.33
1617.7
4403.44
16429.1
116747
752.872
1622.3
4413.69
16450.1
116769
762.564
1630.67
4428.65
16480.3
116795
753.296
1623.09
4414.18
16450.3
116774
751.504
1616.83
4402.94
16428.1
116749
751.974
1617.62
4403.39
16428.5
116749
752.903
1622.31
4413.65
16449.9
116774
762.444
1630.74
4428.7
16480.4
116802
744.608
1612.75
4397.49
16428.8
116912
743.775
1616.34
4404.88
16443.2
116918
743.685
1616.32
4404.75
16443.4
116921
741.268
1611.06
4395.65
16420.9
116835
741.327
1612.11
4396.29
16422
116840
741.228
1611.16
4395.45
16421.3
116840
743.732
1616.38
4405.02
16443.9
116918
760.076
1629.01
4426.19
16474.8
116778
761.096
1630.06
4426.91
16475.3
116778
744.777
1617.34
4405.34
16443.5
116918
745.059
1617.45
4405.48
16444.1
116921
744.232
1616.46
4404.99
16444.1
116933
760.644
1628.96
4426.09
16474.8
116776
761.669
1630.1
4426.98
16475.4
116776
744.219
1616.45
4404.77
16443.1
116921
760.44
1629.17
4426.54
16476.3
116795
761.268
1629.99
4426.84
16476.6
116795
744.659
1617.32
4405.34
16444.3
116933
744.648
1617.49
4405.55
16443.6
116921
741.435
1612.07
4396.26
16422.1
116852
740.725
1611.15
4395.59
16421.6
116852
741.415
1611.26
4395.48
16420.6
116840
741.172
1610.97
4395.49
16420.4
116831
744.706
1617.34
4405.48
16444.2
116918
744.999
1617.49
4405.61
16443.7
116904
741.767
1612.02
4396.14
16421.1
116835
741.23
1611.08
4395.37
16420.5
116835
741.576
1612
4395.99
16421.1
116840
741.535
1611.09
4395.26
16420.5
116840
404.832
401.01
22.8187
142.611
145.239
86.5077
268.966
34.8848
21.1146
78.993
19.1845
86.8898
266.798
34.7141
20.7308
19.1691
79.5533
20.8144
79.3042
270.812
403.035
22.7733
145.815
145.339
398.901
34.274
20.9112
19.1493
79.8782
34.2096
20.6849
19.1304
78.1223
84.4528
262.772
84.6432
266.195
22.5992
142.83
143.406
404.854
397.832
410.914
409.779
202.89
280.341
52.7117
97.6617
280.157
51.9682
100.528
316.345
102.394
285.28
89.1085
312.524
102.983
283.728
426.46
156.387
264.961
424.292
155.478
316.732
286.674
100.967
90.1119
313.05
288.099
102.458
426.56
154.145
269.555
424.416
156.802
426.349
154.852
271.296
426.508
157.239
402.095
204.361
409.344
409.481
199.734
409.149
409.948
98.8659
279.435
51.9225
144.765
51.9235
96.7929
278.642
98.1358
275.987
50.4125
146.28
96.4952
282.302
51.8942
403.929
313.231
100.343
280.849
82.4257
308.735
101.023
283.758
423.741
153.095
269.559
423.249
151.658
313.398
96.9462
283.906
82.3237
308.864
101.355
285.358
423.648
152.26
264.153
423.124
153.73
204.457
409.176
408.088
201.408
409.028
411.665
98.8562
275.109
50.9405
148.389
97.8568
52.3459
281.797
98.8692
281.223
50.7659
145.093
98.5284
51.1432
282.389
405.108
403.176
17.8854
17.2549
17.1204
16.8765
17.8699
17.2684
17.0541
16.7455
17.7359
17.1549
17.1234
16.9333
17.6576
17.1677
17.075
16.7005
30.1264
30.0206
47.5018
24.8509
39.5726
23.4348
35.563
24.9363
38.8431
23.267
28.1852
51.3308
35.8357
81.6048
35.8756
28.249
50.269
24.8174
23.4105
39.0091
35.5824
24.736
23.5463
39.2012
27.948
49.9082
35.0989
78.9166
27.6221
51.4985
35.8206
28.1179
51.5849
35.4723
81.6618
28.1418
50.5428
36.0286
46.9809
22.6362
29.4489
29.3334
29.8913
47.0432
29.8186
24.5527
23.1673
37.8721
34.4851
24.5538
23.2072
38.9561
27.5706
48.9234
35.8824
78.1152
27.5241
34.8275
50.5663
24.5029
23.2525
37.3647
33.5237
24.2781
23.1123
38.5407
27.3124
49.4629
34.8298
76.7827
27.2403
48.7571
34.3244
46.6514
22.7148
29.4898
29.5164
46.6977
29.7106
29.5432
17.7804
21.2739
17.7834
21.2846
21.0106
23.2863
23.3796
23.2822
21.1649
21.1457
21.157
21.139
23.3058
23.2469
21.4107
21.171
21.3756
21.2785
21.369
21.22
21.3338
23.0553
21.1021
21.0689
22.8937
21.2208
21.2037
21.2497
23.1746
21.1177
89.6638
273.629
273.227
89.5527
407.182
406.653
93.9138
276.818
276.223
94.7771
17.6977
17.7039
17.6499
17.8159
17.6732
17.6914
17.6511
37.5145
84.6754
19.3715
21.1243
84.5959
19.3564
37.4962
89.2251
274.538
89.4005
272.972
406.37
406.17
92.0658
276.902
94.7424
276.371
17.7265
17.7493
17.706
37.3022
84.4734
19.3314
21.1595
37.5266
84.4065
19.3483
407.901
407.86
35.8542
19.1415
82.2844
20.8508
19.1381
82.3063
35.9302
153.503
149.779
23.2603
152.72
150.448
406.278
406.314
408.534
408.427
150.129
152.502
23.3173
150.104
152.611
406.261
404.475
407.872
406.22
23.0413
149.025
151.967
144.857
147.699
89.6929
273.148
273.381
90.4554
35.4847
82.5891
19.1381
21.0151
82.2362
19.1216
35.6016
35.4576
82.5512
19.1451
21.0457
82.732
19.1311
35.8854
88.1283
273.691
264.831
87.7765
87.4985
272.992
271.124
89.0343
34.9543
20.9854
81.8599
19.1393
78.7359
19.1378
35.4727
34.5172
20.9811
82.5106
19.1471
78.7585
19.1489
35.5053
150.629
152.661
23.272
150.57
152.218
408.765
408.033
406.425
404.46
22.906
150.329
151.282
148.427
149.865
407.491
403.622
37.3293
85.8402
19.3811
21.1555
83.8035
19.3346
37.7266
93.6729
276.183
93.891
275.893
37.1994
19.3533
84.1318
21.1806
19.3194
37.6473
84.1556
90.3208
271.791
273.859
91.6796
36.7422
21.3388
85.1519
19.3401
80.9372
19.327
37.2145
92.0792
274.966
93.4701
273.076
36.7278
21.1173
19.3254
83.3261
19.3549
37.183
80.2369
93.893
276.606
276.066
94.2356
37.3955
19.3419
86.0865
21.2441
19.3215
37.2976
85.5841
93.5699
277.549
93.2332
276.646
36.9347
21.1916
83.899
19.3483
79.8431
19.365
36.747
90.7166
275.549
269.028
93.4396
36.8679
21.171
19.33
84.9855
19.3316
37.3519
80.4781
92.0407
275.34
93.3857
270.587
401.4
405.809
406.623
408.459
145.898
149.798
23.2378
149.491
151.841
88.869
267.403
85.2373
273.119
35.3715
77.5268
19.1345
21.107
34.9855
82.4915
19.1402
35.3034
79.7353
19.1355
21.0865
34.4752
82.1783
19.1369
145.603
143.982
23.2481
149.702
151.502
405.095
407.629
37.3517
80.4971
19.3081
21.2712
36.8549
85.0406
19.3276
93.1382
266.599
91.3993
275.751
37.1775
19.2912
80.9455
21.2053
35.8289
19.3187
83.54
92.6366
269.636
90.2877
275.378
37.2288
19.3203
83.069
21.2599
36.7231
19.3219
84.5072
93.491
270.819
88.4342
275.405
152.741
149.788
23.14
152.213
149.871
406.86
406.267
145.936
404.322
35.6833
19.1521
82.7011
20.9285
19.1393
82.9802
35.9224
90.2309
273.166
273.184
90.7023
89.8387
274.225
273.543
90.566
35.3337
79.8048
34.9448
79.6443
87.3422
270.769
86.7703
266.846
408.445
408.145
406.352
406.133
146.261
404.253
314.678
287.626
103.778
86.1498
282.846
99.9804
310.209
424.984
265.626
159.577
154.67
424.626
421.978
159.232
272.218
154.168
424.359
313.843
87.19
288.686
104.359
284.27
102.059
314.399
403.431
402.779
319.191
108.052
292.024
92.9343
103.959
290.947
315.983
428.386
271.653
163.586
160.337
425.879
426.969
163.789
270.516
158.761
424.794
315.278
90.7466
108.878
292.607
105.383
286.442
316.769
314.934
88.2616
287.286
103.244
286.478
102.252
311.922
422.349
159.796
265.444
424.552
154.935
312.074
85.3485
288.343
103.956
311.034
282.179
98.9028
424.905
158.803
272.039
153.997
424.76
400.092
405.56
319.521
93.5244
107.684
292.079
106.708
287.914
316.677
427.966
163.534
273.436
427.53
158.693
315.89
93.27
108.328
293.3
317.37
103.805
290.145
424.278
163.36
271.361
158.174
428.827
402.627
407.165
207.037
413.948
414.241
413.505
411.356
204.474
101.547
55.0197
150.254
286.31
52.1664
279.131
97.9952
100.654
53.9171
145.337
285.997
51.6158
280.965
96.8655
100.1
286.341
148.073
54.7453
54.1632
285.816
100.529
99.3693
286.242
145.188
53.9755
53.5136
280.592
99.8119
202.008
413.861
413.86
410.069
411.411
202.148
402.728
402.931
405.115
404.843
207.487
413.493
414.442
413.156
413.903
201.102
101.089
54.0835
143.518
286.567
282.906
51.8004
100.033
101.92
55.0192
145.985
287.989
284.869
53.9702
100.876
98.3831
285.361
149.008
53.9649
280.676
99.5296
53.62
96.7513
287.787
151.4
55.0225
283.003
101.236
53.195
204.414
414.468
414.8
410.673
410.636
203.49
402.543
402.72
408.532
404.618
207.348
410.672
410.849
206.549
411.822
413.622
101.089
52.1954
147.357
285.19
280.309
53.3829
95.973
102.082
54.5694
151.977
287.249
281.713
52.5901
98.947
100.322
276.686
51.8844
146.756
100.21
283.469
51.7195
101.396
285.234
53.9251
147.12
98.4691
282.845
53.2188
199.414
412.831
414.868
411.91
412.281
205.741
315.541
287.523
103.247
86.5039
286.67
102.187
310.722
425.213
268.145
159.443
152.111
422.472
424.188
159.308
267.766
158.21
424.123
315.072
88.3774
288.822
104.79
283.22
99.0274
310.753
314.406
285.457
101.6
86.2229
310.036
286.055
98.6789
425.563
269.559
158.914
423.415
153.549
425.24
156.242
271.545
425.432
154.419
311.809
86.2667
283.984
103.114
310.233
285.915
103.184
314.121
283.901
99.05
88.2152
309.911
283.177
96.9733
425.85
267.42
158.263
156.801
422.996
422.545
153.51
268.603
424.181
152.209
311.886
88.1025
288.049
103.215
283.986
102.454
310.243
206.648
413.413
413.669
412.748
413.195
199.269
101.331
53.9246
146.204
287.437
282.296
51.5659
97.8665
101.398
54.0723
147.854
286.689
52.7364
277.223
97.7734
99.3321
285.996
145.552
54.004
280.71
53.5149
97.6562
99.5139
285.682
147.079
54.5108
52.5052
284.612
96.9848
205.458
414.287
414.285
409.598
410.323
205.305
403.461
407.596
403.475
405.276
206.701
410.933
411.774
205.509
410.157
410.694
101.183
53.5178
149.174
286.295
52.9619
281.614
97.9406
101.924
54.3521
146.031
285.326
283.881
52.5988
98.4449
100.718
277.847
52.1513
149.286
52.9051
97.267
284.722
101.187
279.604
51.967
147.512
101.222
278.643
53.8579
202.704
413.05
414.049
413.659
411.589
204.358
406.696
403.32
319.498
292.022
89.9962
107.748
291.045
103.323
316.436
427.809
163.906
270.643
156.945
427.561
315.709
90.8962
292.655
107.402
286.841
104.09
316.669
426.289
162.948
270.165
162.305
424.417
318.87
102.041
288.577
91.7962
314.605
106.85
290.22
428.63
273.464
162.512
424.049
162.642
428.173
161.532
273.483
428.855
158.242
316.033
92.0386
104.75
289.363
316.94
105.748
290.723
318.744
287.062
90.4691
105.804
314.939
284.654
103.898
428.1
161.966
269.166
156.847
423.339
315.861
89.8238
292.23
107.302
291.546
102.761
317.027
427.643
154.768
270.427
428.382
160.822
319.093
107.317
292.495
92.7479
106.052
288.042
314.989
428.065
271.828
163.881
157.034
425.394
424.635
163.627
270.956
162.68
427.368
318.681
90.1526
107.865
292.974
102.55
289.136
314.813
318.553
291.847
89.8234
107.155
290.829
105.839
311.934
427.997
164.802
269.901
159.658
427.466
317.537
90.4416
292.222
108.238
287.042
102.702
317.49
424.045
163.928
275.825
158.924
427.854
318.412
103.084
290.227
91.9795
314.192
101.015
287.842
428.592
273.581
162.273
160.882
423.404
428.206
157.534
275.156
428.346
156.585
316.474
92.1192
107.326
292.196
106.448
287.612
313.97
318.399
285.305
90.4459
102.786
317.658
291.256
101.465
428.809
162.914
273.631
157.905
426.696
312.468
89.7384
292.159
107.835
292.311
106.593
317.78
426.214
161.643
272.814
426.406
159.276
405.425
404.2
406.502
405.249
208.273
412.927
414.54
413.552
413.87
204.811
101.216
52.8109
282.39
144.888
100.25
279.554
53.048
102.154
52.8148
285.26
146.258
98.3838
282.596
51.7957
203.92
409.183
413.116
205.372
412.626
413.621
98.5058
284.511
146.71
53.6589
279.25
99.7584
53.089
100.952
287.379
149.458
54.6684
282.627
101.355
54.177
315.172
87.8776
287.142
102.857
286.341
101.623
310.681
425.639
153.57
263.739
422.831
155.875
312.719
84.8859
285.304
99.1747
286.246
311.508
100.964
424.577
158.381
272.448
156.792
424.302
207.458
413.478
413.905
412.953
414.554
204.311
101.066
51.8733
277.577
147.625
284.327
97.0999
52.7832
101.548
51.4328
279.55
149.457
53.545
97.9391
276.67
204.062
412.362
413.052
411.152
205.011
411.178
99.6641
285.787
148.163
53.6497
281.642
53.1667
99.9451
100.092
286.156
146.442
54.3763
52.4875
285.658
100.44
406.177
406.552
318.883
92.1609
291.288
107.033
290.051
102.738
315.137
428.049
154.183
273.438
427.764
160.196
317.971
92.1695
287.442
105.732
289.612
317.986
104.117
425.822
162.428
270.903
157.597
426.773
318.757
91.5044
107.534
291.642
103.422
287.149
315.352
428.286
157.612
266.56
159.966
427.851
318.314
91.4651
104.081
290.017
104.089
314.445
288.251
426.343
162.343
274.639
161.214
426.79
319.374
90.3066
292.62
108.154
291.809
104.066
315.084
428.284
157.999
273.041
426.124
154.909
318.981
92.4527
286.541
105.038
318.661
292.318
104.828
426.829
163.447
273.711
162.448
427.257
206.134
414.013
413.351
411.609
412.762
201.386
101.171
53.984
149.893
288.9
285.452
52.5643
97.2275
100.127
53.3086
142.817
285.901
51.6333
276.769
99.283
99.4148
287.46
147.692
54.3432
282.976
52.2784
100.013
97.1203
284.963
148.532
53.246
51.4385
284.071
98.1468
204.881
414.45
413.872
411.928
409.577
204.76
404.138
403.086
410.919
280.999
314.794
104.164
288.121
87.0195
100.164
283.427
311.851
425.217
268.251
159.347
152.155
422.803
421.311
159.282
267.617
158.179
424.497
313.77
88.7016
104.503
288.583
101.027
284.329
313.93
315.284
103.909
287.709
88.9923
99.8098
286.793
313.228
425.141
265.888
160.022
153.568
424.954
422.854
159.842
272.74
159.131
421.672
311.126
86.6929
104.045
288.816
100.657
282.933
311.674
101.055
284.541
313.425
155.411
425.689
102.196
283.929
314.048
155.046
426.19
406.33
405.314
400.811
405.809
411.1
281.571
16.9939
17.1066
17.837
17.1048
17.2918
16.6366
16.8143
17.0202
17.1001
17.8564
17.1773
17.2407
16.7182
16.7673
47.9679
31.0447
30.9626
23.0324
30.4819
30.4033
46.3825
47.9642
30.8907
31.3912
22.9591
30.2764
30.5712
46.6074
48.1402
23.1698
30.8835
31.086
30.2588
30.8413
46.3516
47.5083
30.9195
30.9858
23.1201
30.4518
30.0549
47.4581
48.1502
23.0013
30.7456
31.0066
30.5442
30.2405
47.3969
48.2508
30.4579
30.3994
23.115
47.9555
30.6264
30.0681
48.287
30.2451
30.6993
23.162
30.8452
46.7503
30.5475
47.2904
30.8576
30.6032
23.0047
30.0459
30.5191
45.7826
16.9441
17.0523
17.796
17.0413
17.2182
16.5967
16.6343
17.0415
16.9379
17.8144
17.184
17.0851
16.615
16.7491
16.9329
16.9678
17.7664
17.1396
17.0637
16.6306
16.6786
17.8169
17.049
17.1429
17.0731
17.1308
16.7779
16.7578
17.7061
16.991
17.0174
17.1207
17.0585
16.8177
16.9838
17.7212
17.0606
16.9654
17.2005
17.1108
16.8786
16.6861
17.6781
16.9685
16.9813
16.996
17.1232
16.7841
16.8433
25.2781
41.1131
24.0924
36.2638
40.8475
23.7558
24.7027
28.4482
37.1384
80.1337
54.0953
36.6375
51.319
27.887
28.1339
53.8184
83.6106
37.1386
36.1013
53.4165
27.7175
25.2393
36.5421
41.2886
24.1168
40.0477
23.8878
24.8761
17.0509
17.1161
17.7
17.0319
17.0692
16.6895
16.7351
17.1128
17.0197
17.7244
17.099
17.0123
16.6966
16.7561
17.0859
17.0253
17.6784
17.0366
17.0049
16.5998
16.6274
25.2507
36.2431
41.2172
24.0737
39.961
23.7756
24.9071
28.3219
37.2088
53.9843
81.3848
27.7529
35.9633
51.2656
24.9602
36.9075
41.3933
24.0959
24.8914
40.5727
23.9668
28.1281
53.6274
80.9612
37.1234
36.9078
53.2166
28.1302
24.6649
23.5068
39.3408
34.8039
23.2721
39.3236
24.3007
27.6452
36.2879
79.4588
52.0569
34.7473
51.0509
27.4739
27.3218
50.3848
78.9434
36.0579
35.8123
51.623
27.4125
24.5599
35.0899
23.594
39.5899
23.3434
38.992
24.292
47.5719
22.9822
31.05
30.9737
30.2802
30.3136
47.8134
45.9175
23.2254
30.8718
31.3616
47.7079
30.1742
31.197
47.8349
23.1327
29.9249
30.5821
47.7908
30.6221
30.8378
24.5507
39.3305
23.4078
34.4865
38.1015
23.3364
24.2427
27.4823
36.5694
77.7897
52.1706
50.4798
35.215
27.644
27.398
51.9647
81.5601
36.5452
50.2309
36.3505
27.4525
24.4651
34.8454
39.3945
23.4929
38.5572
23.2095
24.456
24.7487
39.4718
23.4154
35.1828
38.4565
23.2736
24.2483
27.8405
36.6335
80.6469
52.0932
51.1635
35.2252
27.3869
27.5459
52.0761
79.5886
36.5318
50.4636
27.3073
36.2977
24.4921
34.7401
40.0625
23.5428
39.0012
23.3664
24.5937
24.5521
38.8485
23.2352
34.4859
24.2105
38.2487
23.2035
27.9753
35.9996
81.0615
51.8587
36.5158
51.8088
27.2338
27.438
51.1199
35.301
78.4408
36.2968
27.4478
50.362
24.3856
35.4822
39.2021
23.4425
38.107
23.2116
24.2921
24.6628
38.7947
23.3863
34.0842
24.5898
38.2806
23.4076
27.8922
36.2699
81.3575
51.7799
50.1088
35.9506
27.4416
27.8159
51.3416
35.1341
82.1318
27.3263
50.6607
36.3829
24.2114
35.3355
39.4274
23.4569
39.6037
23.4156
24.5274
46.9906
23.0076
30.9288
31.1451
30.385
30.7282
46.1378
46.9249
23.1334
30.2067
30.8643
30.0733
47.1859
30.5564
25.3083
41.3035
23.9824
36.325
40.8872
24.0176
24.7883
28.521
37.6883
83.639
54.2703
51.9445
36.9939
28.339
27.6071
54.2017
82.3464
36.8054
53.764
36.6225
28.2256
25.2418
36.8875
41.6641
24.2303
40.2064
24.0235
25.197
25.2722
24.0179
36.1104
40.0835
23.9399
40.7867
24.9817
28.3421
36.9292
53.5606
79.7435
52.4228
27.7533
35.5736
24.958
36.7081
24.1343
41.3245
23.8079
40.1937
24.9818
28.0824
52.3041
83.3219
36.9767
53.0018
27.6298
36.7026
25.2268
39.8874
23.5485
36.3941
25.1299
39.3881
23.9308
28.561
37.5735
82.5043
53.1105
36.5773
53.9852
28.0419
28.392
51.5306
36.4847
84.596
37.2996
28.2864
53.7282
24.8337
36.1286
41.0652
24.1167
40.7908
23.7978
24.9844
25.2553
23.8274
36.3463
40.7229
24.8259
23.879
40.8053
28.4215
36.6553
53.3678
82.2855
52.8939
27.8199
36.3222
24.6877
36.0143
23.8341
41.3451
23.9471
40.1382
25.106
28.3068
52.9109
35.7236
79.7568
28.2615
53.1569
35.5848
25.357
24.0027
36.1481
41.0329
23.8777
40.2508
24.8532
28.6501
37.7137
54.5987
83.9357
52.3713
36.109
28.1378
25.3028
36.438
24.0974
41.7368
23.7591
40.8594
25.2558
28.2745
54.368
82.3651
37.4622
53.9864
28.3346
37.1118
25.2573
40.3094
23.961
36.4851
25.1193
40.5517
23.7071
28.4692
36.4602
83.7389
53.842
27.889
36.7825
52.2938
28.363
52.0781
36.5688
83.7353
28.3488
36.8902
53.0405
24.9407
36.4244
41.2153
23.8669
24.9033
40.919
23.9806
25.3547
23.7475
36.4047
39.8165
25.2174
23.9079
41.2402
28.7228
37.1623
54.2721
81.8299
52.4541
27.9271
36.7667
24.956
36.1131
23.9691
41.6108
23.9243
40.5033
25.1251
28.289
52.8224
36.2293
83.8956
28.3617
53.368
36.1393
47.2302
23.1334
30.8656
31.1323
47.7131
30.6537
30.9543
24.6327
35.1355
39.3077
23.4624
38.2973
23.2736
24.2166
27.8886
36.3254
50.7548
81.0843
51.3874
27.77
35.889
24.5749
34.5046
38.8979
23.1336
38.557
24.2987
23.3816
27.1152
52.0373
79.766
36.6001
51.0101
35.6836
27.741
24.8044
35.0652
39.631
23.4505
39.5019
23.4273
24.3479
27.9108
35.4977
51.1468
80.8514
27.3669
50.4761
36.5237
24.7514
34.3425
38.2027
23.3022
24.4373
39.591
23.2392
27.6691
51.7279
81.2564
36.7749
50.187
27.7133
36.0226
47.8128
23.0088
30.922
30.9985
30.827
30.3128
48.0677
25.352
36.4294
40.9896
24.0898
40.5555
24.0171
24.9195
28.6437
36.0686
50.987
83.9749
53.5116
27.9932
37.2292
25.0513
37.0744
39.8399
24.0064
40.4739
25.0371
24.0539
28.3336
54.3632
82.246
37.5516
52.6474
36.6451
28.414
24.8995
36.2764
24.1057
41.1528
23.8193
39.9852
24.7398
28.3686
35.6749
50.296
80.5442
27.7404
52.5755
36.2629
25.2915
37.0536
23.9973
39.5303
24.9076
24.0562
40.9247
28.041
53.4638
80.2921
36.7509
51.6038
28.0766
36.3673
25.4241
36.024
24.0091
41.4159
24.0651
40.1069
25.0374
28.6563
36.4115
53.2171
81.6267
36.8178
28.4875
53.6103
25.1561
36.3969
23.6976
41.0499
24.0723
25.1757
40.662
28.1395
53.8697
81.0564
37.3768
36.3631
53.4496
28.2836
46.8162
22.8815
30.8986
30.6683
29.9536
30.1744
47.1138
24.7101
23.462
39.6506
35.3207
23.2767
38.534
24.3242
27.8062
36.6947
78.8098
52.7353
35.1519
50.0572
27.3476
27.5385
52.3195
82.2624
36.509
36.3221
52.0293
27.5951
24.682
34.6697
23.6008
39.8165
23.4375
39.1858
24.641
39.1119
51.4305
38.5942
50.7802
17.8459
21.1481
21.0647
22.9441
17.8369
21.2268
21.0497
23.205
17.8171
21.1773
21.0952
23.2424
17.7908
21.3139
21.1436
23.2974
17.7548
21.288
21.1238
23.3302
17.7552
21.2634
21.0774
23.3799
17.7716
21.2731
21.0246
23.2825
17.8025
21.28
21.0314
23.2662
17.8143
21.3164
21.0363
23.2779
17.7815
21.3251
21.0444
23.2295
17.7912
21.3164
21.0498
23.2548
17.7803
21.2706
21.0227
23.2764
17.7779
21.2622
21.036
23.2691
17.7717
21.2848
21.0228
23.2941
17.7816
21.3005
21.0248
23.2546
21.0524
23.2934
23.1244
20.9867
21.0218
23.0633
21.181
21.1382
20.9981
21.1942
23.0466
20.9236
20.7697
22.8581
22.9327
23.1834
21.0056
20.8224
21.1421
21.0703
22.6903
23.07
21.2086
21.0512
21.2844
21.2003
21.2009
21.0567
21.2614
22.9007
23.0549
20.9552
20.8886
21.0056
23.1298
22.9218
23.2693
21.0268
20.9108
21.1499
21.1286
22.92
23.126
21.0593
21.0796
21.283
21.1982
21.1401
21.2873
21.2919
22.8923
23.1617
20.8912
20.9326
21.0037
23.1542
22.9506
23.3121
21.0331
20.9394
21.1734
21.1455
22.8636
23.1279
21.1522
21.0059
21.3076
21.2725
21.2212
21.1717
21.3513
23.0338
23.1032
20.7831
21.0987
21.0599
23.0665
23.0525
23.2845
21.0884
21.0539
21.1829
21.1066
22.829
23.2231
21.1855
21.0379
21.324
21.258
21.2583
21.1405
21.3313
22.8539
23.1461
20.838
21.0801
21.0801
23.274
22.9374
23.2516
21.0662
20.9928
21.1457
21.0971
23.0651
23.167
21.0842
21.0286
21.3269
21.2329
21.1065
21.0896
21.3579
22.9819
23.1231
21.0074
20.9945
21.0735
23.1375
22.9956
23.2708
20.9243
21.0191
21.1975
21.148
22.8622
23.2326
21.2236
21.0238
21.35
21.2498
21.2641
21.2193
21.3342
22.7959
23.064
20.9836
20.8952
21.0716
23.2421
23.1036
23.3199
21.1245
20.9891
21.1543
21.1085
22.9775
23.2103
21.2242
21.161
21.3612
21.2851
21.2042
21.1244
21.32
22.7915
23.0467
20.9392
20.9864
21.0766
23.1831
22.9786
23.3588
21.0199
21.0131
21.1713
21.1457
23.0436
23.2434
21.1217
21.1399
21.3989
21.2686
21.2176
21.1578
21.3267
22.8227
23.1326
20.8844
20.9533
21.1199
23.0289
22.9925
23.3563
20.9597
21.0299
21.1705
21.1219
23.0315
23.2527
21.3119
21.0104
21.3867
21.2707
21.1655
21.1555
21.3464
22.9273
23.0972
21.0492
20.8864
21.0961
23.1678
23.2154
23.3292
20.9293
21.0512
21.1601
21.1096
23.0079
23.1994
21.2747
21.0686
21.3904
21.2563
21.1603
21.2791
21.2833
22.895
23.0569
20.9945
20.8935
21.0913
23.1701
23.164
23.306
20.9501
21.0223
21.1731
21.113
22.9548
23.238
21.2775
21.1171
21.3999
21.2319
21.0529
21.219
21.3334
22.865
23.0798
21.0028
20.9119
21.084
23.0358
23.1109
23.3064
20.9806
21.0422
21.1763
21.1299
22.8621
23.223
21.1364
21.1047
21.373
21.243
21.2168
21.2031
21.3098
22.9698
23.0974
20.9328
20.9964
21.0971
23.1872
23.1881
23.3563
20.9584
20.935
21.1684
21.1416
23.0736
23.2414
21.2541
21.1339
21.3458
21.2445
21.1609
21.1487
21.3282
22.9044
23.0659
20.9757
20.8948
21.0874
23.0533
23.1688
23.2769
21.0273
20.9208
21.1803
21.1017
23.064
23.2164
21.1942
21.0227
21.3315
21.2987
21.0986
21.1366
21.3336
22.838
23.0903
20.8824
20.862
21.1162
23.1713
23.0308
23.3279
21.0586
21.0216
21.1271
21.0001
23.0191
23.057
21.2291
21.1874
21.2375
21.263
21.129
21.2124
21.2647
22.8378
23.0441
20.903
20.9157
21.1159
23.052
22.7249
22.9181
20.8945
20.96
21.0927
23.2354
17.8794
17.7569
17.8505
17.7446
88.1362
272.599
88.2883
272.597
405.175
405.65
91.2605
275.548
92.2345
275.625
17.724
17.7541
17.6539
17.9354
17.6864
17.6789
17.6528
36.9148
83.3977
19.282
21.0598
36.6894
83.7133
19.2972
407.42
407.763
35.0172
19.1721
82.0742
20.9934
34.883
19.1783
82.25
151.754
148.724
23.0533
151.661
149.235
89.0205
272.97
89.3269
272.255
406.301
406.51
93.8093
275.699
94.0794
275.78
17.7666
17.8016
17.7374
17.8502
17.7078
17.6844
17.6666
37.1416
84.0285
19.3511
21.1574
36.9995
84.4819
19.3696
408.053
407.793
35.2164
19.169
82.7215
20.9961
35.2144
19.1615
82.5333
153.11
150.971
23.1761
152.172
150.07
89.2246
274.314
89.9176
273.271
406.276
406.205
93.1907
276.613
93.7943
276.14
17.8461
17.7891
17.7257
17.8347
17.6955
17.685
17.6712
37.5406
84.7483
19.4164
21.2773
37.4761
84.298
19.3964
407.857
407.755
35.7069
19.1615
83.144
21.0396
35.5155
19.1543
83.3571
152.713
150.664
23.2452
152.476
150.848
89.1776
273.327
89.9062
272.832
406.243
406.037
92.9428
275.833
93.284
275.968
17.7348
17.7218
17.7995
17.7905
17.6876
17.6555
17.6645
37.3258
84.7374
19.406
21.0585
37.5363
84.3039
19.3731
408.48
408.411
35.9338
19.1844
83.4286
20.9765
36.1776
19.178
83.5632
153.217
152.091
23.2594
152.744
151.036
89.2319
272.753
88.9572
273.205
406.82
406.351
92.9421
275.936
92.8893
275.951
17.8145
17.7676
17.7332
17.8461
17.6676
17.6505
17.6726
37.4505
84.5579
19.3474
21.189
37.4589
84.4534
19.3794
407.79
408.063
35.2876
19.151
83.3858
21.0037
35.356
19.1401
83.0131
153.734
151.455
23.3055
152.421
151.048
89.4907
273.13
89.7549
273.289
406.878
406.248
93.2875
276.614
92.773
276.332
17.7
17.6997
17.761
17.801
17.6673
17.6798
17.6882
37.1876
84.4643
19.3707
21.173
37.6229
84.625
19.3603
407.869
408.303
35.1894
19.1403
82.4119
20.9804
35.1136
19.1293
82.469
153.719
152.054
23.2948
152.888
151.077
89.4308
273.072
90.3342
273.122
406.568
406.487
94.0245
275.937
93.7399
276.043
17.7708
17.7665
17.8133
17.825
17.676
17.7035
17.6808
37.0216
84.3849
19.33
21.1473
37.1542
84.4828
19.3485
408.709
408.315
35.3741
19.13
82.5804
20.8896
35.4368
19.1351
82.7004
153.199
152.004
23.2033
152.922
151.03
89.4916
273.923
89.6662
273.324
406.002
406.426
94.2425
276.78
94.9171
276.494
17.7463
17.7846
17.7218
17.8958
17.7057
17.7248
17.6911
37.2452
84.4223
19.3538
21.0609
37.0741
84.7607
19.342
407.726
408.182
35.3819
19.1438
82.4987
20.9241
35.5623
19.1377
82.4397
153.286
151.516
23.2554
152.907
151.055
89.151
274.098
89.5657
273.146
406.349
406.164
93.9242
275.99
94.5478
276.38
17.7735
17.7677
17.7834
17.8771
17.6864
17.7218
17.7156
37.0747
85.3574
19.3501
21.0516
37.3121
85.0216
19.3169
407.877
408.078
35.4341
19.1526
82.5326
20.9325
35.4389
19.1444
82.3594
153.137
151.702
23.2364
152.774
150.856
89.304
273.88
89.7622
273.373
406.295
406.214
94.0016
275.953
94.2971
276.019
17.7602
17.7964
17.8053
17.8336
17.7249
17.7371
17.68
37.0977
85.2952
19.3337
21.2167
37.0715
84.9673
19.3165
408.099
408.192
35.4736
19.1637
82.1815
20.9897
35.4138
19.1658
82.034
153.566
151.758
23.2099
152.889
150.663
88.7623
272.879
89.193
273.268
406.596
406.426
94.0455
276.816
94.2482
276.265
17.8233
17.7964
17.7895
17.8757
17.7535
17.7332
17.6894
36.8962
84.8484
19.3231
21.1558
37.1593
84.5783
19.335
407.868
407.768
35.412
19.1738