/*--------------------------------*- C++ -*----------------------------------*\
| =========                 |                                                 |
| \\      /  F ield         | OpenFOAM: The Open Source CFD Toolbox           |
|  \\    /   O peration     | Version:  2206                                  |
|   \\  /    A nd           | Website:  www.openfoam.com                      |
|    \\/     M anipulation  |                                                 |
\*---------------------------------------------------------------------------*/
FoamFile
{
    version     2.0;
    format      ascii;
    arch        "LSB;label=32;scalar=64";
    class       volVectorField;
    location    "30";
    object      U;
}
// * * * * * * * * * * * * * * * * * * * * * * * * * * * * * * * * * * * * * //

dimensions      [0 1 -1 0 0 0 0];

internalField   nonuniform List<vector> 
66621
(
(-1.38817e-05 -5.03346e-05 0.0921906)
(-6.50158e-05 -5.98081e-07 0.109321)
(-5.23373e-05 -1.17425e-05 0.091997)
(5.93549e-05 -1.45207e-06 0.115156)
(4.84952e-05 -3.76593e-05 0.110575)
(3.46343e-06 -1.02133e-06 0.123993)
(-2.67486e-05 1.37579e-05 0.0801725)
(-1.55274e-07 5.77995e-05 0.115238)
(1.7667e-06 -1.60785e-06 0.122864)
(-2.5972e-06 -8.86064e-07 0.1242)
(-3.63256e-05 4.64613e-05 0.110773)
(0.000212083 0.000216682 0.119704)
(2.41764e-05 2.93028e-05 0.103385)
(3.00137e-05 2.21443e-05 0.10358)
(-1.59917e-05 -2.5019e-05 0.0802433)
(-2.70008e-05 -1.49257e-05 0.08016)
(-0.000212477 -0.000219507 0.119679)
(-2.81309e-05 -2.01219e-05 0.103507)
(-2.26794e-05 -3.13101e-05 0.103355)
(4.26943e-06 4.88754e-07 0.12295)
(-3.38504e-05 -4.47889e-05 0.110611)
(2.26161e-05 -3.10959e-05 0.103377)
(2.4616e-05 -1.49189e-05 0.0801766)
(-5.80042e-05 -6.13698e-07 0.115154)
(4.81543e-07 8.41533e-07 0.122808)
(-4.76959e-05 -3.69606e-05 0.110571)
(-3.19312e-06 -1.42486e-06 0.123998)
(-6.50187e-05 2.05069e-07 0.109318)
(-5.14571e-05 1.05014e-05 0.0920063)
(-5.81345e-05 -2.73486e-08 0.115152)
(1.57758e-06 -2.66247e-06 0.122788)
(-2.89152e-06 8.73026e-07 0.124009)
(-4.79287e-05 3.5335e-05 0.110568)
(6.56951e-05 -1.26143e-06 0.109325)
(5.08157e-05 -1.13568e-05 0.0920118)
(5.96646e-05 -1.12472e-06 0.115156)
(-7.24786e-07 -3.38854e-06 0.122793)
(3.26301e-06 5.05778e-07 0.124012)
(4.86056e-05 3.52235e-05 0.110572)
(6.5707e-05 -9.53803e-07 0.109324)
(5.16287e-05 9.93861e-06 0.0919992)
(-0.000212405 0.000217142 0.119702)
(-2.36577e-05 2.93358e-05 0.103375)
(-3.18383e-05 2.29273e-05 0.103588)
(-1.49276e-05 2.62825e-05 0.0803145)
(-5.77175e-07 5.77299e-05 0.115237)
(-1.73717e-06 -2.30084e-06 0.122861)
(2.08574e-06 -9.26037e-07 0.124201)
(3.48986e-05 4.6042e-05 0.110772)
(-5.98991e-07 6.46806e-05 0.109641)
(-1.15782e-05 5.14425e-05 0.0923267)
(2.58509e-09 6.45084e-05 0.109642)
(1.07913e-05 5.14131e-05 0.0923364)
(2.72277e-05 1.26023e-05 0.0801609)
(1.40049e-05 2.66577e-05 0.0803283)
(-3.55098e-06 -5.40801e-05 0.102365)
(-3.37591e-06 -3.35716e-05 0.0782369)
(2.72597e-05 -1.53034e-06 0.0861219)
(-6.57887e-05 -2.83954e-06 0.107831)
(-2.71535e-05 -1.75629e-06 0.0893499)
(6.75269e-05 -8.12156e-07 0.109262)
(6.71e-05 1.69218e-06 0.107751)
(2.66938e-05 -1.63568e-06 0.0892155)
(-2.73083e-05 -1.38115e-06 0.0862848)
(2.51679e-05 5.48321e-07 0.0779684)
(-5.73666e-05 -6.5186e-06 0.102159)
(5.17669e-05 9.55452e-06 0.0918247)
(5.49958e-05 6.27344e-06 0.102036)
(-2.95791e-05 -7.51523e-07 0.078158)
(2.3566e-05 -1.19366e-05 0.080007)
(-2.57403e-05 -2.52121e-05 0.0971913)
(1.42302e-05 2.36892e-05 0.079505)
(2.46647e-05 1.25949e-05 0.079535)
(-1.26589e-05 -2.18892e-05 0.0793372)
(-2.20691e-05 -1.14666e-05 0.0793683)
(2.5103e-05 2.41002e-05 0.0973111)
(-7.84849e-05 -2.45537e-05 0.108686)
(2.61757e-05 2.29294e-05 0.0912116)
(-2.41424e-05 -3.15512e-05 0.10328)
(7.5063e-05 2.27604e-05 0.113682)
(-7.78406e-05 -2.35883e-05 0.113629)
(-2.59412e-05 -2.19524e-05 0.0910379)
(7.81728e-05 2.52028e-05 0.108788)
(-2.16052e-05 -7.86571e-05 0.108711)
(2.41168e-05 2.49344e-05 0.0912383)
(-3.19501e-05 -2.25653e-05 0.103466)
(1.89438e-05 7.596e-05 0.11373)
(-2.2726e-05 -7.71156e-05 0.113669)
(-2.22995e-05 -2.50402e-05 0.0910568)
(2.05066e-05 7.7876e-05 0.108814)
(2.30829e-05 1.21464e-05 0.079997)
(2.52849e-05 2.27658e-05 0.0972192)
(-2.27557e-05 -1.14899e-05 0.0795393)
(-1.09844e-05 -2.46828e-05 0.0794646)
(2.21508e-05 8.76869e-06 0.0793858)
(1.19654e-05 2.03009e-05 0.0793217)
(-2.21782e-05 -2.45479e-05 0.0972659)
(2.7308e-05 7.69793e-05 0.108777)
(-2.1971e-05 -2.34024e-05 0.091306)
(-1.80733e-05 -7.33648e-05 0.113686)
(2.3045e-05 2.2275e-05 0.0911817)
(-2.27973e-05 -7.75425e-05 0.108795)
(7.97779e-05 2.12026e-05 0.108684)
(-2.36954e-05 -2.42542e-05 0.0910973)
(2.41281e-05 2.97987e-05 0.103252)
(-7.30057e-05 -2.36961e-05 0.113664)
(2.51377e-05 2.02973e-05 0.0909288)
(-7.52077e-05 -2.38679e-05 0.108727)
(7.91743e-05 2.19407e-05 0.113623)
(1.10481e-05 -2.40436e-05 0.0794932)
(2.12473e-05 -2.59207e-05 0.0972751)
(2.49259e-05 -2.40227e-05 0.0912029)
(7.4091e-05 -2.40768e-05 0.113672)
(7.84739e-05 -2.87012e-05 0.108771)
(2.66878e-05 -2.82302e-07 0.0861293)
(-2.67274e-05 2.02634e-07 0.0893496)
(-6.63162e-05 2.17942e-06 0.10783)
(6.72433e-05 -7.85095e-07 0.109255)
(2.69698e-05 -1.15013e-06 0.0892173)
(6.55875e-05 -3.27298e-06 0.107748)
(-2.756e-05 7.60645e-07 0.0862876)
(2.52676e-05 -1.13998e-06 0.0779791)
(-5.60849e-05 6.16741e-06 0.102162)
(5.1489e-05 -9.72913e-06 0.0918353)
(5.5368e-05 -7.10877e-06 0.102038)
(-2.878e-05 1.03703e-06 0.0781659)
(6.43879e-05 -2.48457e-06 0.107836)
(2.55386e-05 -6.48123e-07 0.0893461)
(2.60796e-05 -8.49988e-07 0.0862905)
(5.51328e-05 -6.13795e-06 0.102168)
(2.86913e-05 -1.75164e-06 0.0781715)
(2.52483e-05 -1.11942e-06 0.0893363)
(6.59396e-05 1.27705e-06 0.107831)
(2.68694e-05 -7.26639e-07 0.0862681)
(5.55065e-05 6.00581e-06 0.10216)
(2.86035e-05 1.10489e-06 0.0781484)
(2.57422e-05 -2.51783e-05 0.0971945)
(-1.45176e-05 2.27459e-05 0.0794838)
(-2.55621e-05 1.26236e-05 0.0795573)
(1.25708e-05 -2.13151e-05 0.0793309)
(2.20261e-05 -1.19728e-05 0.0793778)
(-2.63025e-05 2.3092e-05 0.097317)
(7.9478e-05 -2.28514e-05 0.10865)
(-2.5866e-05 2.2984e-05 0.0911132)
(2.50881e-05 -3.0821e-05 0.103255)
(-7.51696e-05 2.13835e-05 0.113679)
(2.65535e-05 -2.18386e-05 0.0909413)
(7.91311e-05 -2.29783e-05 0.11362)
(-7.80422e-05 2.24042e-05 0.108769)
(2.26518e-05 -7.75784e-05 0.10874)
(-2.42544e-05 2.49927e-05 0.0913373)
(3.20804e-05 -2.24438e-05 0.103487)
(-2.10721e-05 7.64501e-05 0.113728)
(2.2627e-05 -7.64054e-05 0.113673)
(2.17496e-05 -2.52212e-05 0.0911533)
(-2.4101e-05 7.86216e-05 0.108833)
(1.34943e-05 -2.12363e-05 0.0801442)
(-1.02181e-06 -2.54764e-05 0.0865719)
(-1.70581e-06 6.49384e-05 0.108209)
(-1.08925e-06 2.58243e-05 0.089836)
(-1.2522e-06 -6.60324e-05 0.109613)
(1.29897e-06 -6.57979e-05 0.108138)
(-9.35609e-07 -2.4387e-05 0.0897265)
(-5.27902e-07 2.60673e-05 0.0867281)
(1.05366e-06 -2.37348e-05 0.0781574)
(-6.44331e-06 5.68874e-05 0.102592)
(1.0375e-05 -5.08798e-05 0.0921351)
(6.35095e-06 -5.35194e-05 0.102446)
(-6.16175e-07 2.83754e-05 0.0783642)
(4.31938e-07 -2.49068e-05 0.086573)
(1.08113e-06 6.48775e-05 0.108206)
(1.02495e-06 2.60653e-05 0.0898363)
(7.14067e-08 -6.63118e-05 0.109614)
(-2.07092e-06 -6.5735e-05 0.108139)
(5.0071e-07 -2.4539e-05 0.0897265)
(6.48509e-08 2.59436e-05 0.0867266)
(-1.63424e-06 -2.32408e-05 0.0781673)
(5.4718e-06 5.66758e-05 0.102594)
(-1.05547e-05 -5.06777e-05 0.092151)
(-7.08931e-06 -5.33351e-05 0.102455)
(4.38964e-08 2.83238e-05 0.0783683)
(-1.31765e-05 -2.15917e-05 0.0801557)
(-2.86702e-06 -7.96853e-08 0.126062)
(-8.46502e-07 -9.24803e-07 0.127041)
(-5.99054e-06 1.00136e-06 0.126858)
(-4.29829e-06 2.33735e-06 0.12776)
(3.2711e-06 2.7372e-07 0.126054)
(3.87106e-07 -1.4696e-06 0.127041)
(7.11937e-06 1.06595e-06 0.126855)
(3.99518e-06 2.93381e-06 0.127765)
(-3.38881e-06 1.26123e-06 0.125989)
(-4.76365e-06 -5.54146e-07 0.126846)
(-1.90958e-06 -1.26391e-06 0.126958)
(-2.42568e-06 2.4001e-07 0.127692)
(4.04986e-06 6.19225e-07 0.125988)
(5.30636e-06 -5.94665e-07 0.126844)
(2.20887e-06 -1.89626e-06 0.126955)
(2.91933e-06 8.04697e-07 0.127686)
(-0.000244121 6.15407e-07 0.118009)
(6.14186e-05 -2.48039e-06 0.114713)
(0.00023767 -3.99873e-07 0.118305)
(-6.10264e-05 -9.0322e-07 0.115118)
(-6.38409e-05 1.73727e-06 0.114664)
(-0.000234577 -1.08341e-06 0.118248)
(0.000242783 -3.72448e-06 0.118071)
(5.85353e-05 -1.05068e-05 0.113459)
(0.000249699 -1.46104e-05 0.116227)
(0.000256159 -7.81519e-06 0.117461)
(-3.01584e-06 -0.000243874 0.118054)
(2.27652e-06 0.000236448 0.118327)
(6.69548e-08 6.05323e-05 0.114829)
(-1.05016e-06 -5.99169e-05 0.115227)
(-1.90118e-06 -0.00023426 0.1183)
(1.41401e-06 -6.27475e-05 0.114788)
(4.36716e-06 0.000241434 0.118109)
(2.91305e-07 -0.000250244 0.117438)
(-8.65365e-06 5.83686e-05 0.113615)
(3.53944e-05 -4.83709e-05 0.110654)
(-8.62963e-06 0.000251021 0.116286)
(9.8561e-06 -0.000253781 0.116214)
(8.62639e-06 -5.71977e-05 0.113531)
(7.72203e-08 0.000257583 0.117509)
(-6.96108e-05 -7.16128e-05 0.114352)
(-0.000203052 -0.00020435 0.119604)
(5.91806e-05 0.000213929 0.117309)
(0.000207059 6.13359e-05 0.117311)
(-5.9462e-05 -0.000211902 0.117236)
(-0.000206874 -5.90156e-05 0.117236)
(7.0763e-05 7.41982e-05 0.114436)
(7.42847e-05 6.93685e-05 0.114389)
(0.000209039 0.000203962 0.11963)
(-0.000210678 -6.03974e-05 0.117291)
(-5.53727e-05 -0.000213993 0.117281)
(-7.05049e-05 -7.33052e-05 0.114401)
(0.000216663 5.7121e-05 0.117271)
(5.99868e-05 0.000208948 0.117249)
(-8.12791e-06 -5.68568e-05 0.113445)
(-7.64263e-06 -0.00024747 0.116192)
(-9.66457e-07 -0.00025464 0.117392)
(0.000245539 4.22568e-07 0.118008)
(-6.16513e-05 -2.28574e-06 0.114712)
(-0.000236587 -1.35881e-07 0.118303)
(6.16713e-05 -1.11736e-06 0.115117)
(6.4846e-05 1.295e-06 0.114665)
(0.000234864 -1.09752e-06 0.118246)
(-0.000243116 -3.41279e-06 0.118072)
(0.000254329 2.15202e-06 0.117397)
(-5.93575e-05 -1.07109e-05 0.113455)
(5.08043e-05 3.31532e-05 0.110466)
(-0.000249548 -1.48211e-05 0.116228)
(6.10383e-05 7.85883e-06 0.113389)
(0.000255505 9.91185e-06 0.116168)
(-0.000258644 -7.72823e-06 0.11746)
(0.000240291 -1.16727e-06 0.118003)
(-0.000236009 -7.79645e-07 0.118301)
(-6.21776e-05 1.92524e-06 0.11471)
(6.19944e-05 -6.20327e-07 0.115113)
(0.000233799 2.72209e-07 0.118243)
(6.2788e-05 -2.24895e-06 0.114661)
(-0.000244872 2.37417e-06 0.11807)
(0.00025117 -3.28434e-06 0.117382)
(-5.90055e-05 1.04385e-05 0.113451)
(5.06618e-05 -3.37168e-05 0.110461)
(-0.000247071 1.28763e-05 0.11622)
(6.10581e-05 -8.23368e-06 0.113381)
(-0.000253352 6.12423e-06 0.117452)
(0.00025282 -1.10755e-05 0.116157)
(-0.000241434 -2.03817e-06 0.118005)
(0.000237491 -1.57862e-06 0.118303)
(6.3096e-05 8.58951e-07 0.114716)
(-6.10259e-05 -8.7479e-07 0.115119)
(-0.000234362 -5.58268e-08 0.118246)
(-6.27541e-05 -2.91392e-06 0.114666)
(0.000246151 1.60941e-06 0.118073)
(-0.000252345 -3.95182e-06 0.117385)
(6.04415e-05 9.8769e-06 0.113457)
(-5.0236e-05 -3.51782e-05 0.110468)
(0.000248274 1.33176e-05 0.116222)
(-0.000253417 -1.18751e-05 0.11616)
(-6.05558e-05 -9.01312e-06 0.113387)
(0.000255801 6.05228e-06 0.117455)
(7.02023e-05 -7.13807e-05 0.114353)
(0.00020404 -0.000203931 0.119604)
(-5.89934e-05 0.000212353 0.117312)
(-0.000208964 6.2074e-05 0.117305)
(0.000208048 -5.84917e-05 0.117234)
(5.99914e-05 -0.000210689 0.117238)
(-7.11435e-05 7.38491e-05 0.114436)
(2.7946e-06 -0.000243759 0.118055)
(-2.79565e-06 0.000236261 0.118326)
(-4.0302e-07 5.93306e-05 0.114829)
(4.96812e-07 -6.02402e-05 0.115228)
(1.75351e-06 -0.000234372 0.118299)
(-1.88323e-06 -6.19513e-05 0.11479)
(-4.55787e-06 0.000241122 0.11811)
(-3.64496e-07 -0.000249321 0.11744)
(8.18705e-06 5.80828e-05 0.113613)
(-3.49952e-05 -4.81955e-05 0.110651)
(7.42434e-06 0.000248878 0.116287)
(-9.52948e-06 -0.000252331 0.116216)
(-9.0951e-06 -5.76774e-05 0.113532)
(-5.45495e-07 0.000256102 0.11751)
(-5.40245e-06 -2.15616e-05 0.0563046)
(-1.97123e-06 -1.05394e-05 0.0386058)
(-4.49846e-07 -4.82685e-06 0.0241642)
(4.89172e-08 -2.06207e-06 0.0127568)
(-1.23896e-07 -6.18755e-07 0.00388104)
(-1.86551e-05 -6.50395e-06 0.0563533)
(-8.62675e-06 -4.00047e-06 0.0386425)
(-3.31446e-06 -2.33587e-06 0.0241851)
(-9.57028e-07 -1.22492e-06 0.0127661)
(6.42363e-08 -3.44113e-07 0.00388367)
(-1.35721e-05 8.46523e-06 0.0584809)
(-6.19371e-06 4.36078e-06 0.0403859)
(-2.28401e-06 2.05643e-06 0.0254539)
(-4.49703e-07 7.80406e-07 0.013527)
(4.0518e-09 1.86314e-07 0.00414558)
(-7.44437e-06 -1.45247e-05 0.0584437)
(-2.00222e-06 -7.05312e-06 0.0403569)
(2.16921e-07 -3.00104e-06 0.0254345)
(6.2264e-07 -1.09372e-06 0.0135171)
(3.94044e-07 -1.69196e-07 0.00414295)
(-1.38898e-05 -9.27682e-06 0.0584712)
(-6.62165e-06 -5.13855e-06 0.0403801)
(-2.81288e-06 -2.67226e-06 0.0254512)
(-9.72679e-07 -1.13087e-06 0.013526)
(-2.66983e-07 -4.61833e-07 0.00414514)
(1.22656e-05 -9.51327e-06 0.0584832)
(5.51487e-06 -5.56962e-06 0.0403879)
(2.03852e-06 -3.18307e-06 0.0254555)
(6.46809e-07 -1.71535e-06 0.0135282)
(-5.49111e-08 -4.20672e-07 0.00414621)
(-1.84164e-05 5.69791e-06 0.0563614)
(-8.86916e-06 3.35361e-06 0.038649)
(-3.80084e-06 1.78955e-06 0.0241905)
(-1.4187e-06 8.27551e-07 0.0127695)
(-2.12517e-07 3.05768e-07 0.00388449)
(1.77087e-05 -6.42118e-06 0.0563641)
(8.18112e-06 -3.92255e-06 0.0386507)
(3.16299e-06 -2.16274e-06 0.0241913)
(7.20753e-07 -9.63394e-07 0.0127701)
(1.47619e-07 -3.73868e-07 0.00388503)
(1.80721e-05 5.53787e-06 0.0563513)
(8.87946e-06 3.37331e-06 0.0386414)
(3.93762e-06 1.86943e-06 0.0241862)
(1.60166e-06 9.56156e-07 0.0127681)
(2.61692e-07 2.98205e-07 0.00388457)
(-9.2463e-06 1.3552e-05 0.0584173)
(-5.08297e-06 6.41592e-06 0.0403433)
(-2.54584e-06 2.6294e-06 0.0254288)
(-9.98732e-07 7.81621e-07 0.0135147)
(-4.13184e-07 2.68678e-07 0.0041421)
(-6.88215e-06 1.80437e-05 0.0562577)
(-4.32275e-06 8.42736e-06 0.0385807)
(-2.48651e-06 3.34724e-06 0.0241484)
(-1.25725e-06 1.06651e-06 0.0127477)
(-3.752e-07 3.98343e-08 0.00387833)
(6.16092e-06 1.81663e-05 0.0562669)
(3.75907e-06 8.65436e-06 0.0385871)
(2.13411e-06 3.65333e-06 0.0241527)
(1.14789e-06 1.51893e-06 0.0127497)
(2.82e-07 8.77729e-09 0.00387879)
(1.40034e-05 7.36391e-06 0.0584711)
(6.82979e-06 3.50218e-06 0.0403788)
(2.88164e-06 1.35781e-06 0.0254497)
(9.97516e-07 3.5113e-07 0.013525)
(1.13598e-07 2.0575e-08 0.00414503)
(8.80474e-06 1.353e-05 0.0584297)
(4.74821e-06 6.2795e-06 0.0403522)
(2.31425e-06 2.42243e-06 0.0254341)
(8.47008e-07 4.82827e-07 0.013517)
(3.4105e-07 2.35358e-07 0.00414257)
(1.42688e-05 -2.83123e-06 0.057376)
(7.64455e-06 -2.84715e-06 0.0394494)
(3.57863e-06 -2.39289e-06 0.0247572)
(1.48389e-06 -1.57013e-06 0.0131031)
(2.57755e-07 -5.7536e-07 0.00399787)
(-1.62988e-05 -9.39492e-07 0.0578923)
(-7.80931e-06 -4.14006e-07 0.039861)
(-3.26261e-06 -1.32506e-07 0.0250582)
(-1.05733e-06 -9.89159e-09 0.013286)
(-2.6764e-07 1.86284e-08 0.00406183)
(1.2009e-05 -1.94935e-06 0.0577701)
(5.80882e-06 -1.71885e-06 0.0397739)
(2.6002e-06 -1.3162e-06 0.0250045)
(9.56099e-07 -8.02609e-07 0.0132584)
(2.97389e-07 -2.97889e-07 0.00405372)
(-1.46814e-05 5.50877e-07 0.0575081)
(-7.20072e-06 1.20321e-06 0.0395372)
(-3.23027e-06 1.21552e-06 0.0248087)
(-1.25429e-06 8.48299e-07 0.0131288)
(-2.39764e-07 3.6483e-07 0.00400529)
(1.48383e-05 5.106e-06 0.0561987)
(6.81911e-06 3.41795e-06 0.0385358)
(2.67716e-06 2.17238e-06 0.0241224)
(7.81219e-07 1.26979e-06 0.0127353)
(-2.26114e-08 2.94956e-07 0.00387462)
(1.10089e-05 -6.84201e-06 0.0583393)
(5.26328e-06 -3.59171e-06 0.040289)
(2.11079e-06 -1.71943e-06 0.0253964)
(6.01187e-07 -7.11533e-07 0.0134982)
(6.85212e-08 -1.48208e-07 0.0041372)
(1.61023e-05 1.07475e-05 0.0566257)
(7.98348e-06 4.8117e-06 0.0388457)
(3.50618e-06 1.83221e-06 0.0243207)
(1.29676e-06 5.76771e-07 0.0128415)
(3.90725e-07 9.55769e-08 0.0039076)
(-1.21708e-05 -9.45836e-06 0.0564787)
(-6.01203e-06 -4.5697e-06 0.038742)
(-2.73686e-06 -1.97264e-06 0.0242566)
(-9.1295e-07 -5.99887e-07 0.0128084)
(-3.90605e-07 -1.95057e-07 0.00389787)
(1.22549e-05 1.504e-05 0.0565911)
(6.08011e-06 7.0281e-06 0.038822)
(2.74476e-06 2.80712e-06 0.0243048)
(1.22498e-06 1.06748e-06 0.0128325)
(9.40848e-08 2.83511e-08 0.00390492)
(-9.92245e-06 -1.21786e-05 0.0564386)
(-4.78248e-06 -5.93343e-06 0.0387173)
(-2.06772e-06 -2.66478e-06 0.0242433)
(-8.69099e-07 -1.19473e-06 0.0128021)
(-6.96383e-09 -1.23934e-07 0.00389605)
(1.08582e-05 6.85057e-06 0.0583296)
(5.63516e-06 3.62994e-06 0.0402805)
(2.75145e-06 1.67503e-06 0.0253891)
(1.07014e-06 5.10937e-07 0.0134935)
(3.49855e-07 2.18111e-07 0.0041356)
(6.22629e-06 -1.36436e-05 0.058961)
(2.33498e-06 -7.32902e-06 0.0406531)
(4.45674e-07 -3.70259e-06 0.0255827)
(-3.59901e-08 -1.74153e-06 0.0135761)
(-1.9626e-07 -3.94252e-07 0.00415454)
(1.3499e-05 -1.15515e-05 0.0566338)
(6.10585e-06 -5.79706e-06 0.0388485)
(2.33666e-06 -2.70696e-06 0.0243214)
(6.7262e-07 -1.07341e-06 0.0128417)
(8.1e-08 -2.8735e-07 0.00390773)
(1.37694e-05 1.26084e-06 0.0573823)
(7.45462e-06 1.7141e-06 0.0394521)
(3.58702e-06 1.72139e-06 0.0247579)
(1.39515e-06 1.27712e-06 0.0131033)
(4.15868e-07 4.76582e-07 0.00399786)
(-1.61543e-05 -3.17898e-07 0.0578911)
(-7.72351e-06 -3.77828e-07 0.0398593)
(-3.19441e-06 -2.36711e-07 0.0250564)
(-1.1306e-06 -9.08498e-08 0.0132847)
(-1.58632e-07 -3.76227e-08 0.00406143)
(1.20415e-05 -3.28265e-07 0.0577718)
(5.80275e-06 -1.59785e-08 0.0397754)
(2.58912e-06 1.65427e-07 0.0250058)
(9.83462e-07 1.94976e-07 0.0132592)
(2.38713e-07 8.68238e-08 0.00405396)
(-1.48799e-05 -1.03748e-06 0.0575101)
(-7.38954e-06 -1.42147e-06 0.0395388)
(-3.35172e-06 -1.26886e-06 0.0248102)
(-1.31502e-06 -8.87905e-07 0.01313)
(-2.83543e-07 -3.05284e-07 0.00400564)
(1.47543e-05 -5.20008e-06 0.0562116)
(7.1181e-06 -3.46171e-06 0.0385436)
(3.08625e-06 -2.04572e-06 0.0241259)
(1.02677e-06 -9.90463e-07 0.0127364)
(2.137e-07 -3.64673e-07 0.00387484)
(1.43137e-05 -1.37429e-08 0.0578887)
(7.1165e-06 3.69218e-07 0.039857)
(3.34191e-06 4.55314e-07 0.0250551)
(1.59648e-06 3.28375e-07 0.0132842)
(2.6266e-07 1.51883e-07 0.00406093)
(1.48599e-05 9.05714e-07 0.0575119)
(7.17597e-06 1.68168e-06 0.0395409)
(3.03357e-06 1.74066e-06 0.0248117)
(9.32399e-07 1.31649e-06 0.0131303)
(3.05069e-07 4.47721e-07 0.0040056)
(1.37529e-05 -1.03054e-06 0.057881)
(6.35445e-06 -1.03292e-06 0.0398514)
(2.5022e-06 -8.12963e-07 0.025051)
(6.0233e-07 -4.9894e-07 0.0132817)
(2.16337e-07 -1.91085e-07 0.0040603)
(1.58308e-05 -1.93407e-06 0.0574971)
(7.99763e-06 -2.28351e-06 0.0395313)
(3.74732e-06 -1.94193e-06 0.0248058)
(1.60452e-06 -1.2116e-06 0.0131274)
(3.52647e-07 -4.87776e-07 0.00400485)
(-1.57298e-05 8.45883e-06 0.0589601)
(-8.73767e-06 3.5306e-06 0.0406502)
(-4.63623e-06 9.79275e-07 0.0255808)
(-2.14946e-06 -2.77063e-09 0.0135757)
(-7.13814e-07 2.83168e-10 0.00415439)
(-1.28635e-05 1.56447e-05 0.0565833)
(-6.33782e-06 7.17888e-06 0.0388164)
(-2.71758e-06 2.67665e-06 0.0243018)
(-9.81055e-07 7.50189e-07 0.0128317)
(-1.59351e-07 8.43263e-08 0.00390507)
(1.0084e-05 -1.23098e-05 0.0564301)
(4.8598e-06 -5.70499e-06 0.0387118)
(2.09849e-06 -2.31096e-06 0.0242404)
(7.80321e-07 -7.17271e-07 0.0128014)
(2.2746e-08 -7.85517e-08 0.00389615)
(8.29862e-06 -9.47119e-06 0.058271)
(4.76147e-06 -4.5393e-06 0.0402403)
(2.47271e-06 -1.96942e-06 0.0253649)
(1.01096e-06 -5.7381e-07 0.0134814)
(3.25377e-07 -2.11171e-07 0.00413226)
(-2.06304e-06 -1.29542e-05 0.0573035)
(-2.26183e-06 -6.94253e-06 0.0393945)
(-2.04835e-06 -3.27666e-06 0.0247215)
(-1.40888e-06 -1.30125e-06 0.0130839)
(-5.68312e-07 -2.66938e-07 0.0039919)
(-5.27843e-07 1.48195e-05 0.0577996)
(-2.03743e-07 7.1724e-06 0.0397964)
(-5.33014e-08 3.00028e-06 0.0250176)
(5.91433e-09 1.06149e-06 0.0132644)
(-1.90606e-09 2.43526e-07 0.00405527)
(-1.19089e-06 -1.03493e-05 0.0576822)
(-1.13888e-06 -4.9819e-06 0.0397092)
(-9.60918e-07 -2.28354e-06 0.0249631)
(-6.20835e-07 -9.05915e-07 0.0132362)
(-2.6276e-07 -2.28379e-07 0.00404684)
(9.38295e-07 1.35064e-05 0.0574364)
(1.40267e-06 6.71347e-06 0.0394864)
(1.36354e-06 3.04718e-06 0.0247769)
(9.98962e-07 1.20021e-06 0.0131121)
(3.64432e-07 2.73399e-07 0.00400024)
(5.93581e-06 -1.42504e-05 0.0560941)
(4.07539e-06 -6.66143e-06 0.0384667)
(2.56692e-06 -2.73509e-06 0.0240801)
(1.40984e-06 -8.38607e-07 0.0127133)
(3.89191e-07 -7.51128e-08 0.00386807)
(1.58888e-06 -1.2674e-05 0.0573044)
(1.84302e-06 -6.83598e-06 0.0393954)
(1.72953e-06 -3.30407e-06 0.0247224)
(1.22208e-06 -1.4601e-06 0.0130844)
(4.86686e-07 -2.535e-07 0.00399194)
(4.37483e-07 1.47897e-05 0.0578001)
(1.58261e-07 7.21558e-06 0.0397966)
(5.14511e-08 2.99641e-06 0.0250182)
(2.85957e-08 9.60188e-07 0.0132648)
(-5.70297e-09 2.63756e-07 0.00405533)
(9.0457e-07 -1.03627e-05 0.0576829)
(8.86954e-07 -4.98824e-06 0.0397091)
(7.60455e-07 -2.26384e-06 0.0249634)
(5.04605e-07 -8.69794e-07 0.0132366)
(2.01655e-07 -2.35784e-07 0.00404687)
(-1.26566e-06 1.33922e-05 0.0574362)
(-1.633e-06 6.68899e-06 0.0394866)
(-1.48241e-06 3.06833e-06 0.0247775)
(-1.01154e-06 1.26726e-06 0.0131125)
(-3.85029e-07 2.63569e-07 0.00400026)
(-6.23904e-06 -1.3668e-05 0.0561062)
(-4.37383e-06 -6.34314e-06 0.0384752)
(-2.7788e-06 -2.66663e-06 0.0240858)
(-1.55364e-06 -1.06659e-06 0.0127162)
(-4.31448e-07 1.2937e-08 0.00386887)
(-7.80378e-06 -9.16201e-06 0.0582817)
(-4.38906e-06 -4.2509e-06 0.0402474)
(-2.25825e-06 -1.79641e-06 0.0253691)
(-9.25897e-07 -5.20718e-07 0.0134834)
(-2.97128e-07 -1.79999e-07 0.00413262)
(9.31227e-06 1.35532e-05 0.0589683)
(4.2735e-06 7.00027e-06 0.0406568)
(1.49948e-06 3.34311e-06 0.0255841)
(4.41701e-07 1.43143e-06 0.0135764)
(-1.79728e-07 2.89137e-07 0.00415437)
(1.4611e-05 7.78651e-06 0.0589509)
(8.00743e-06 3.16342e-06 0.0406456)
(4.10197e-06 7.47497e-07 0.0255784)
(1.71502e-06 -2.00016e-07 0.0135738)
(6.0963e-07 -6.31578e-08 0.0041536)
(-1.38763e-07 -2.1557e-05 0.0585763)
(1.66706e-06 -9.98269e-06 0.040466)
(1.72123e-06 -4.05419e-06 0.0255076)
(1.07895e-06 -1.45678e-06 0.0135561)
(3.64026e-07 -2.09373e-07 0.00415433)
(1.70646e-05 -4.48201e-07 0.0584426)
(9.35679e-06 -1.12451e-06 0.0403781)
(4.43309e-06 -1.27601e-06 0.0254555)
(1.65601e-06 -9.8777e-07 0.0135297)
(4.24637e-07 -3.22992e-07 0.00414668)
(-1.91817e-05 7.88922e-07 0.0586067)
(-9.99953e-06 1.72951e-06 0.0404907)
(-4.6784e-06 1.87588e-06 0.0255243)
(-1.80495e-06 1.40524e-06 0.013565)
(-4.31081e-07 4.96236e-07 0.00415711)
(-8.64186e-06 1.24391e-05 0.0589582)
(-3.89161e-06 6.35637e-06 0.0406502)
(-1.21787e-06 2.93866e-06 0.0255802)
(-1.34672e-07 1.10347e-06 0.0135744)
(1.61861e-07 2.67603e-07 0.00415392)
(-1.48158e-05 1.06301e-05 0.0566314)
(-7.29941e-06 5.06078e-06 0.0388492)
(-3.19162e-06 2.20204e-06 0.0243228)
(-1.22492e-06 8.56185e-07 0.0128428)
(-2.44721e-07 1.88542e-07 0.00390802)
(1.26026e-05 -9.20056e-06 0.0564877)
(6.40847e-06 -4.46384e-06 0.0387474)
(3.02014e-06 -1.90349e-06 0.0242601)
(1.21574e-06 -6.24167e-07 0.0128105)
(3.68041e-07 -1.64591e-07 0.00389865)
(-7.38466e-06 -1.28761e-05 0.0588238)
(-3.46533e-06 -7.00329e-06 0.0405576)
(-1.33351e-06 -3.3996e-06 0.0255253)
(-4.7883e-07 -1.40628e-06 0.013547)
(5.96039e-08 -3.27803e-07 0.00414587)
(-1.29613e-05 -6.66741e-06 0.058807)
(-7.10272e-06 -3.10063e-06 0.0405453)
(-3.55255e-06 -1.13269e-06 0.0255167)
(-1.40146e-06 -1.946e-07 0.0135422)
(-4.49226e-07 -4.23834e-08 0.00414437)
(-1.24043e-05 -8.12702e-06 0.0589475)
(-5.57558e-06 -3.59473e-06 0.0406419)
(-1.90797e-06 -1.13111e-06 0.0255741)
(-2.18799e-07 -1.57396e-07 0.0135704)
(6.05122e-08 2.16861e-07 0.0041523)
(-1.01617e-05 -1.59289e-05 0.0565846)
(-4.12473e-06 -8.34537e-06 0.0388202)
(-1.2214e-06 -4.08702e-06 0.0243065)
(-2.31518e-07 -1.93385e-06 0.0128349)
(4.12912e-08 -5.47619e-07 0.00390573)
(1.12362e-05 9.76329e-06 0.0564415)
(6.66727e-06 4.4737e-06 0.0387149)
(3.76165e-06 1.92188e-06 0.0242392)
(1.74204e-06 6.20546e-07 0.0127995)
(5.98025e-07 2.45002e-07 0.00389541)
(-7.53813e-06 -1.45449e-05 0.0589462)
(-3.29739e-06 -8.25757e-06 0.0406438)
(-9.93645e-07 -4.60607e-06 0.0255785)
(-6.49074e-08 -2.28548e-06 0.0135745)
(-4.07268e-08 -7.87656e-07 0.00415362)
(-1.44846e-05 -1.20562e-05 0.0566186)
(-6.37894e-06 -5.92422e-06 0.0388395)
(-2.1397e-06 -2.71891e-06 0.0243151)
(-4.12619e-07 -1.14135e-06 0.0128377)
(6.06719e-08 -2.02224e-07 0.0039064)
(1.25999e-05 8.23835e-06 0.056473)
(6.00204e-06 3.40566e-06 0.0387409)
(2.5038e-06 1.14072e-06 0.0242584)
(8.15851e-07 2.76996e-07 0.0128101)
(1.43297e-07 -1.04319e-07 0.0038983)
(1.37784e-05 4.40235e-06 0.0588121)
(7.90491e-06 1.15063e-06 0.0405482)
(4.08987e-06 -2.25069e-07 0.0255196)
(1.86357e-06 -3.29103e-07 0.0135438)
(4.68395e-07 -3.41568e-07 0.00414459)
(7.71385e-06 1.0949e-05 0.0588122)
(4.18389e-06 5.57225e-06 0.0405475)
(1.95255e-06 2.62341e-06 0.0255178)
(5.89741e-07 9.40104e-07 0.0135427)
(2.02663e-07 2.90922e-07 0.00414445)
(1.71758e-05 -6.26715e-08 0.0584516)
(9.23776e-06 6.70702e-07 0.0403847)
(4.18463e-06 8.7679e-07 0.0254604)
(1.52069e-06 6.12473e-07 0.0135324)
(3.32794e-07 3.16738e-07 0.00414733)
(-1.84746e-05 -6.31992e-07 0.0586127)
(-9.49516e-06 -1.47802e-06 0.040494)
(-4.33825e-06 -1.5085e-06 0.0255259)
(-1.62364e-06 -1.04819e-06 0.0135657)
(-3.5402e-07 -4.16522e-07 0.00415709)
(1.89967e-05 1.08682e-07 0.0586153)
(9.89915e-06 1.22998e-06 0.0404979)
(4.58986e-06 1.48534e-06 0.0255293)
(1.8341e-06 1.11897e-06 0.0135677)
(3.78375e-07 4.35052e-07 0.00415794)
(1.87975e-05 -5.95428e-07 0.0585978)
(9.61282e-06 -1.62722e-06 0.0404853)
(4.29227e-06 -1.73298e-06 0.0255212)
(1.53376e-06 -1.24898e-06 0.0135636)
(3.5865e-07 -4.71614e-07 0.00415688)
(7.1796e-06 -1.23909e-05 0.0588238)
(3.30208e-06 -6.60384e-06 0.0405566)
(1.20893e-06 -3.12224e-06 0.0255245)
(3.71661e-07 -1.23251e-06 0.0135467)
(-4.92884e-08 -2.84351e-07 0.00414583)
(1.29726e-05 -7.23475e-06 0.0588103)
(7.14942e-06 -3.42268e-06 0.0405472)
(3.66874e-06 -1.23155e-06 0.0255177)
(1.55807e-06 -1.41273e-07 0.0135432)
(4.53671e-07 -3.92812e-08 0.00414496)
(2.71354e-07 -1.60391e-05 0.0583595)
(-4.99194e-07 -8.69242e-06 0.040321)
(-8.30769e-07 -4.06149e-06 0.0254202)
(-7.07692e-07 -1.5167e-06 0.0135114)
(-2.71595e-07 -3.75282e-07 0.00414121)
(5.24436e-07 1.83558e-05 0.0585359)
(1.44666e-06 9.59553e-06 0.0404425)
(1.69138e-06 4.48828e-06 0.0254947)
(1.31402e-06 1.72092e-06 0.0135498)
(4.68324e-07 4.35595e-07 0.00415262)
(-8.4022e-07 -1.56342e-05 0.0583673)
(3.77951e-09 -8.43539e-06 0.0403268)
(4.68271e-07 -3.88927e-06 0.0254241)
(4.89869e-07 -1.38931e-06 0.0135133)
(2.06324e-07 -3.55745e-07 0.00414169)
(-1.03216e-06 1.82877e-05 0.0585407)
(-1.81178e-06 9.56509e-06 0.0404469)
(-1.88411e-06 4.47154e-06 0.0254977)
(-1.36062e-06 1.67695e-06 0.0135512)
(-5.01869e-07 4.37539e-07 0.004153)
(1.25794e-05 1.80428e-05 0.0800356)
(2.47459e-05 1.14509e-05 0.0799857)
(0.00020978 0.000208251 0.11962)
(3.66321e-05 2.20514e-05 0.103349)
(2.39977e-05 2.97768e-05 0.10322)
(6.68114e-05 -3.3686e-07 0.10923)
(5.13957e-05 8.44089e-06 0.0917942)
(6.11795e-05 -1.03342e-06 0.1151)
(1.50425e-06 -2.76183e-06 0.123031)
(5.05325e-05 3.2327e-05 0.110435)
(1.28811e-06 -1.69383e-06 0.124339)
(6.65163e-05 -5.46022e-07 0.109225)
(5.06196e-05 -9.36259e-06 0.0918061)
(6.12155e-05 -5.53555e-07 0.115096)
(5.22623e-07 -7.63096e-07 0.123051)
(8.73208e-07 5.19487e-07 0.124352)
(5.02002e-05 -3.31035e-05 0.110431)
(-3.23725e-07 -1.57464e-07 0.123057)
(-4.93449e-05 -3.43465e-05 0.110436)
(-5.00062e-05 -1.0259e-05 0.0918053)
(2.46912e-05 -1.20028e-05 0.0799957)
(0.000207333 -0.000209087 0.119572)
(2.40828e-05 -2.86394e-05 0.10322)
(3.41296e-05 -2.06079e-05 0.103471)
(1.33356e-05 -2.16048e-05 0.0801368)
(-9.79009e-07 -5.96073e-05 0.11523)
(2.69635e-06 4.56499e-08 0.123042)
(-2.31654e-07 -8.62698e-07 0.124258)
(3.54981e-05 -4.78177e-05 0.110634)
(3.3295e-07 -5.98706e-05 0.115229)
(-2.20247e-06 -1.06041e-06 0.123039)
(8.30151e-07 -1.53265e-06 0.12426)
(-3.48692e-05 -4.83835e-05 0.110632)
(-8.54332e-07 -6.59443e-05 0.109607)
(1.03755e-05 -5.00141e-05 0.0921122)
(4.77819e-08 -6.59452e-05 0.109607)
(-1.03667e-05 -5.06657e-05 0.0921274)
(-0.000206845 -0.000210146 0.119574)
(-2.32151e-05 -3.13964e-05 0.10325)
(-3.28689e-05 -2.20578e-05 0.103441)
(-2.33638e-05 -1.35102e-05 0.0799891)
(-1.3377e-05 -2.32629e-05 0.0801484)
(2.12915e-05 1.05441e-05 0.0793721)
(1.42232e-05 1.97973e-05 0.0793112)
(2.62666e-05 2.26963e-05 0.0972122)
(2.2094e-05 2.27449e-05 0.091102)
(2.84153e-05 7.55799e-05 0.113619)
(2.70869e-05 7.69269e-05 0.10873)
(2.50426e-05 1.92228e-05 0.0908996)
(7.9083e-05 2.07767e-05 0.1136)
(7.99449e-05 1.91574e-05 0.108663)
(-2.15926e-05 1.80969e-06 0.0863103)
(6.54919e-05 1.63404e-06 0.107716)
(2.52372e-05 -2.26863e-06 0.0891867)
(-6.58382e-05 -3.37018e-07 0.109352)
(2.59413e-05 -1.56752e-06 0.0861121)
(-6.42683e-05 -2.25635e-06 0.107866)
(-2.10992e-05 -1.60803e-08 0.0893726)
(-2.12522e-05 3.17008e-07 0.0781733)
(5.47977e-05 6.44163e-06 0.102005)
(-4.69011e-05 -7.36502e-06 0.0920217)
(2.7112e-05 1.63274e-06 0.077967)
(-5.31923e-05 -6.78873e-06 0.102185)
(-2.16451e-05 -2.58966e-06 0.0863119)
(2.53327e-05 1.54253e-07 0.0891882)
(6.40957e-05 -3.14109e-06 0.107715)
(-6.58912e-05 1.27161e-07 0.109351)
(2.55135e-05 5.00191e-07 0.086116)
(-2.06902e-05 -1.44716e-06 0.0893708)
(-6.48924e-05 1.4632e-06 0.107866)
(-2.08332e-05 -4.35042e-07 0.0781809)
(5.4591e-05 -7.2521e-06 0.102009)
(-4.66403e-05 6.42204e-06 0.0920303)
(2.68157e-05 -1.88706e-06 0.0779781)
(-5.28691e-05 6.7178e-06 0.102187)
(2.21982e-05 -1.00128e-06 0.0781636)
(-5.41372e-05 -7.31352e-06 0.102012)
(4.71116e-05 6.70096e-06 0.0920252)
(-2.7098e-05 -1.97278e-06 0.0779586)
(5.35027e-05 6.18963e-06 0.102188)
(-1.87833e-05 8.04363e-06 0.0801867)
(-2.55497e-05 2.1947e-05 0.097349)
(1.42026e-05 -2.29475e-05 0.0793407)
(1.93272e-05 -1.36543e-05 0.0793588)
(2.49329e-05 -2.34719e-05 0.0971791)
(-1.13498e-05 1.68019e-05 0.0794982)
(-1.96048e-05 8.98737e-06 0.0795621)
(-7.57193e-05 1.91197e-05 0.108781)
(2.50799e-05 -2.18448e-05 0.0909257)
(7.79379e-05 -2.09669e-05 0.113594)
(-2.20253e-05 2.8749e-05 0.103387)
(-7.45866e-05 2.10238e-05 0.113693)
(7.77943e-05 -2.21634e-05 0.108606)
(-2.22407e-05 1.57734e-05 0.0911435)
(-2.56942e-05 8.04368e-05 0.108883)
(1.94475e-05 -2.38763e-05 0.0911219)
(2.40383e-05 -7.643e-05 0.113661)
(-3.07995e-05 2.09017e-05 0.103617)
(1.99427e-05 -7.7685e-05 0.108738)
(-2.10435e-05 2.42228e-05 0.0913548)
(-2.18961e-05 7.69745e-05 0.113753)
(-1.01789e-05 1.85565e-05 0.0803328)