/*--------------------------------*- C++ -*----------------------------------*\
| =========                 |                                                 |
| \\      /  F ield         | OpenFOAM: The Open Source CFD Toolbox           |
|  \\    /   O peration     | Version:  2206                                  |
|   \\  /    A nd           | Website:  www.openfoam.com                      |
|    \\/     M anipulation  |                                                 |
\*---------------------------------------------------------------------------*/
FoamFile
{
    version     2.0;
    format      ascii;
    arch        "LSB;label=32;scalar=64";
    class       volVectorField;
    location    "30";
    object      wallShearStress;
}
// * * * * * * * * * * * * * * * * * * * * * * * * * * * * * * * * * * * * * //

dimensions      [0 2 -2 0 0 0 0];

internalField   uniform (0 0 0);

boundaryField
{
    topPatch
    {
        type            calculated;
        value           nonuniform List<vector> 0();
    }
    wall
    {
        type            calculated;
        value           nonuniform List<vector> 
7709
(
(7.80329e-09 3.13336e-08 -0.000148282)
(-4.96341e-10 1.373e-08 -0.000148396)
(1.35976e-09 -7.9634e-09 -0.000158465)
(-1.51919e-08 5.96289e-09 -0.000158344)
(1.60084e-08 2.08435e-08 -0.000158461)
(-5.5617e-11 1.73382e-08 -0.000158475)
(1.2841e-08 -1.36476e-08 -0.000148435)
(-9.94064e-09 1.60614e-08 -0.000148435)
(-1.51805e-08 -1.34767e-08 -0.000148411)
(1.87539e-08 -1.56516e-08 -0.000158324)
(1.54076e-08 -4.65216e-09 -0.000148188)
(-1.15476e-08 -2.59168e-09 -0.00014821)
(-6.19077e-09 -1.76228e-09 -0.000158444)
(-1.55664e-08 -1.35599e-08 -0.000158363)
(-1.23127e-08 2.17004e-08 -0.000152727)
(1.42567e-08 -5.6449e-10 -0.000155153)
(-1.45549e-08 1.11985e-08 -0.000154844)
(1.16614e-08 -1.36259e-08 -0.000153011)
(-6.0632e-10 -1.17261e-08 -0.000148051)
(-4.22675e-09 6.48788e-09 -0.000158144)
(-1.96204e-08 -7.00933e-09 -0.000149306)
(1.94792e-08 1.06966e-08 -0.000148934)
(-4.55752e-09 -2.33578e-09 -0.000149204)
(1.06926e-09 5.85956e-09 -0.000148865)
(-1.78734e-08 -1.08038e-08 -0.000158097)
(6.44942e-09 1.58925e-08 -0.000158815)
(-5.79463e-09 1.29972e-08 -0.0001493)
(-2.04764e-08 -1.75932e-08 -0.000152724)
(8.61521e-09 1.30969e-09 -0.000155137)
(-1.1625e-08 -3.27323e-09 -0.000154852)
(1.41694e-08 1.12971e-08 -0.000153021)
(-1.24996e-08 1.57115e-08 -0.000148066)
(-1.32699e-08 -5.69425e-09 -0.000155134)
(-1.49642e-08 -1.66729e-08 -0.000153037)
(-1.08844e-08 7.22763e-09 -0.000155109)
(-1.73616e-08 1.81567e-08 -0.000153005)
(3.15914e-08 -4.99324e-09 -0.00015881)
(7.69937e-09 -5.47863e-09 -0.000149186)
(-1.54544e-09 3.87827e-09 -0.000148845)
(-1.44656e-08 1.15206e-08 -0.000157948)
(2.15071e-08 1.23859e-08 -0.00015251)
(2.47902e-10 -1.25472e-08 -0.000154917)
(9.94314e-09 1.04271e-08 -0.000154595)
(-1.36446e-08 -1.29642e-08 -0.000152829)
(-1.58728e-08 5.57763e-09 -0.000147796)
(-1.83752e-08 1.17952e-08 -0.000152515)
(3.92266e-11 -1.35672e-08 -0.00015492)
(-7.59808e-09 1.08153e-08 -0.000154597)
(1.44325e-08 -1.24192e-08 -0.000152833)
(1.71709e-08 1.2987e-09 -0.000147831)
(1.29522e-08 9.69015e-09 -0.000157983)
(6.05952e-09 -1.17732e-08 -0.000158818)
(-2.64556e-08 -1.32304e-09 -0.000158791)
(-1.38049e-08 9.90233e-09 -0.000158761)
(-2.12123e-08 1.09402e-08 -0.000158472)
(2.13413e-08 -1.75363e-08 -0.00015887)
(-5.46912e-09 -1.06958e-08 -0.000158801)
(1.31989e-08 -9.96991e-09 -0.000149311)
(-1.83307e-08 9.27629e-09 -0.000148953)
(-4.56953e-10 1.42247e-08 -0.000158493)
(1.98589e-08 4.91146e-09 -0.000158438)
(-4.16504e-09 -1.03433e-08 -0.000158749)
(1.92081e-09 2.57462e-08 -0.000149222)
(-2.67336e-08 -1.4574e-08 -0.000148828)
(6.91662e-09 3.48952e-08 -0.000158792)
(-1.21606e-09 8.48014e-09 -0.00014926)
(-6.20618e-09 3.40039e-09 -0.000148951)
(-1.86982e-08 1.25456e-08 -0.000158455)
(-1.10486e-08 -1.38153e-08 -0.000158441)
(-1.66633e-08 -1.10577e-08 -0.000158505)
(1.74223e-08 1.49431e-08 -0.000158878)
(-1.87024e-08 -1.5528e-08 -0.000158901)
(-1.76254e-08 1.70651e-08 -0.000158855)
(2.90803e-10 1.23256e-08 -0.000158492)
(-2.00422e-08 4.81456e-09 -0.000158449)
(9.28814e-09 1.85488e-08 -0.000158259)
(-1.66108e-08 -2.12513e-08 -0.000158695)
(-6.74159e-09 1.77192e-08 -0.00015828)
(1.78979e-08 -2.11744e-08 -0.000158713)
(-3.59561e-08 1.43982e-08 -0.000157982)
(-1.36862e-08 -8.89157e-09 -0.000158152)
(-9.56931e-09 -8.92574e-09 -0.000148088)
(-1.25827e-08 1.23751e-08 -0.000148112)
(1.07087e-08 1.64995e-08 -0.00014807)
(-5.69337e-09 9.92686e-09 -0.000158188)
(-1.6722e-08 6.25693e-09 -0.000157994)
(-1.80472e-08 5.56541e-09 -0.00014783)
(1.6414e-08 5.61505e-09 -0.000147858)
(5.24085e-09 1.08254e-08 -0.000158153)
(1.88276e-08 5.72303e-09 -0.00015802)
(8.76869e-09 -1.39914e-08 -0.000152976)
(-1.27379e-08 5.83759e-09 -0.000154899)
(-1.17865e-08 1.48746e-08 -0.000152758)
(8.68787e-09 -5.60954e-09 -0.000155098)
(1.67564e-08 -1.62543e-08 -0.000158828)
(5.0727e-09 1.03572e-08 -0.000148349)
(1.16334e-08 1.26042e-08 -0.000152979)
(-1.09298e-08 -3.73223e-09 -0.000154899)
(-1.34692e-08 -1.38403e-08 -0.000152761)
(7.88772e-09 4.81085e-09 -0.000155086)
(8.06828e-09 -1.29038e-08 -0.00014838)
(-1.36957e-08 1.84294e-08 -0.000158795)
(-9.3353e-09 -1.12566e-08 -0.000148349)
(7.03864e-09 -2.14526e-09 -0.000158416)
(-2.22673e-08 -1.41761e-09 -0.000158494)
(-1.17723e-08 5.65324e-09 -0.000148875)
(5.80983e-09 -6.4125e-09 -0.000149154)
(1.43318e-08 -5.07099e-09 -0.000158272)
(-1.16798e-08 -1.28388e-08 -0.000152823)
(5.38517e-09 1.0344e-08 -0.000154619)
(1.10751e-08 1.09979e-08 -0.000152516)
(-6.0422e-09 -1.12346e-08 -0.000154895)
(2.02421e-08 -5.43613e-09 -0.000148149)
(9.97555e-09 -1.16615e-08 -0.000152823)
(-4.95437e-09 1.09216e-08 -0.000154622)
(-1.18023e-08 1.15115e-08 -0.000152522)
(4.48529e-09 -1.11877e-08 -0.000154897)
(5.94942e-09 -1.56323e-08 -0.000158687)
(-1.71826e-08 -3.86128e-09 -0.000148165)
(3.78902e-09 -1.24903e-08 -0.000158773)
(-2.30624e-08 2.49193e-09 -0.000158742)
(1.40143e-08 7.98087e-09 -0.000148979)
(-1.56448e-08 1.1761e-09 -0.000149245)
(1.11485e-08 6.11825e-09 -0.000148886)
(-1.34618e-09 -9.84555e-09 -0.000149162)
(-7.60686e-09 -3.12891e-09 -0.000158387)
(-7.4749e-09 -6.6118e-09 -0.000158298)
(8.09796e-11 1.477e-08 -0.000158513)
(-4.79828e-10 1.6641e-08 -0.000158521)
(2.20447e-08 -3.61682e-09 -0.00015847)
(-3.16589e-08 2.143e-08 -0.000158443)
(-2.80957e-08 3.99896e-10 -0.000148842)
(-1.06397e-08 -1.10704e-08 -0.000158461)
(-1.4943e-08 1.14125e-09 -0.000148966)
(-1.8125e-08 1.66503e-08 -0.00015853)
(1.3441e-08 1.5019e-08 -0.000158841)
(-1.77729e-08 -1.6422e-08 -0.000158546)
(1.63317e-08 -1.40945e-08 -0.0001585)
(-1.51257e-08 1.34444e-09 -0.000148996)
(1.64048e-08 9.64088e-10 -0.000149253)
(-3.56373e-09 -1.81845e-08 -0.000158767)
(1.84293e-08 3.0241e-09 -0.000158764)
(-7.62544e-09 -1.60972e-08 -0.000158673)
(8.35114e-09 1.53101e-08 -0.000158291)
(-8.98911e-09 1.62738e-08 -0.000158311)
(-1.68942e-08 -9.15084e-09 -0.000147786)
(1.59011e-08 7.31085e-09 -0.000148183)
(7.05887e-09 -1.00905e-08 -0.00015794)
(-1.77056e-08 4.1126e-09 -0.000158294)
(-9.42451e-09 -1.54593e-08 -0.000148019)
(9.89213e-09 1.01956e-08 -0.00014837)
(-1.2653e-08 -6.58518e-09 -0.000147765)
(5.48318e-09 9.76848e-09 -0.000148176)
(1.71297e-08 -5.38442e-09 -0.000157921)
(-1.08576e-08 1.72922e-08 -0.000158301)
(-8.23338e-09 -1.55508e-08 -0.000147984)
(1.25247e-08 1.58053e-08 -0.000148371)
(-1.30915e-08 1.84579e-08 -0.000158114)
(3.04238e-08 -2.9998e-08 -0.000158478)
(-1.38973e-08 -5.54537e-09 -0.000157946)
(1.23074e-08 6.01421e-09 -0.000158297)
(-5.80733e-09 -9.71308e-09 -0.000158108)
(6.86489e-09 8.34744e-09 -0.000158424)
(1.3412e-08 9.10237e-09 -0.0001583)
(-1.45336e-08 -6.08009e-09 -0.000157961)
(9.7447e-09 7.75351e-09 -0.000158425)
(-4.63632e-09 -1.38196e-08 -0.000158115)
(1.09582e-08 -1.07362e-08 -0.000147775)
(-1.69802e-08 7.82458e-09 -0.000148169)
(1.3749e-08 1.00843e-08 -0.000148185)
(-1.4738e-08 -9.45579e-09 -0.000147799)
(-1.16357e-08 1.12295e-08 -0.000148174)
(1.55502e-08 -6.8206e-09 -0.00014779)
(3.75376e-09 -1.41739e-08 -0.000158118)
(-6.4422e-09 8.09285e-09 -0.000158425)
(-1.16967e-08 9.6923e-09 -0.000158307)
(1.20855e-08 -4.95703e-09 -0.000157957)
(-9.38969e-09 6.86255e-09 -0.000158429)
(4.11699e-09 -1.27559e-08 -0.00015813)
(-9.82249e-09 1.12884e-08 -0.000148053)
(8.77655e-09 -8.29508e-09 -0.000148406)
(1.13874e-08 1.01053e-08 -0.00014837)
(-7.98157e-09 -1.43569e-08 -0.000148024)
(6.4266e-09 -9.01517e-09 -0.000148413)
(-5.85167e-09 1.46286e-08 -0.000148062)
(8.67569e-09 -1.47693e-08 -0.000148027)
(-1.10197e-08 8.49633e-09 -0.000148378)
(9.41857e-09 1.27611e-08 -0.000147997)
(-7.91726e-09 -1.40613e-08 -0.00014835)
(-1.11757e-08 1.34278e-08 -0.000148385)
(7.31237e-09 -1.58959e-08 -0.000148037)
(-1.11966e-08 -9.42372e-09 -0.000148355)
(1.00996e-08 1.01954e-08 -0.000148003)
(-1.2718e-08 -6.00657e-09 -0.000157925)
(7.99307e-09 1.46645e-08 -0.000158302)
(-4.89641e-09 -1.14068e-08 -0.000158069)
(6.01499e-09 1.25233e-08 -0.000158413)
(1.67397e-08 -7.44074e-09 -0.000147755)
(-5.23433e-09 9.00049e-09 -0.000148162)
(4.96975e-09 -1.10373e-08 -0.000158084)
(-4.44823e-09 1.7868e-08 -0.000158425)
(-1.50557e-09 1.90358e-08 -0.000148018)
(-6.91102e-09 -1.34721e-08 -0.000148382)
(9.47898e-09 -1.45976e-08 -0.000147995)
(-9.05563e-09 1.76892e-08 -0.000148387)
(4.90442e-09 2.04899e-08 -0.000147975)
(-8.11357e-09 -1.00548e-08 -0.000148358)
(-1.34957e-08 -4.54678e-09 -0.000157929)
(-2.45137e-09 1.17482e-08 -0.000158289)
(-1.89808e-08 -1.37301e-08 -0.000157933)
(-1.58868e-08 1.18216e-08 -0.000147772)
(8.77177e-09 -2.50374e-08 -0.000148193)
(1.52694e-08 7.22874e-09 -0.000147755)
(-3.60024e-09 -9.42736e-09 -0.000148165)
(-2.29141e-08 1.18683e-08 -0.000147731)
(2.38378e-08 3.83786e-09 -0.00014774)
(9.7378e-10 1.96513e-08 -0.000158056)
(-9.42175e-09 -1.39132e-08 -0.0001584)
(1.0451e-08 6.57209e-09 -0.000157911)
(-5.78746e-09 -1.24743e-08 -0.00015829)
(2.86324e-08 -3.79815e-10 -0.000157892)
(1.38275e-08 -1.52366e-08 -0.000152488)
(-2.78212e-09 1.06191e-08 -0.000154895)
(2.10382e-09 -1.24043e-08 -0.000154561)
(-1.33273e-08 1.38553e-08 -0.000152837)
(1.51422e-08 7.41519e-09 -0.000148165)
(-1.91176e-08 -7.59123e-09 -0.00014778)
(-1.66403e-08 2.70306e-09 -0.000158274)
(1.07181e-08 -6.75207e-09 -0.000157935)
(-1.35889e-08 1.26695e-08 -0.000152671)
(9.13662e-09 -7.02607e-09 -0.00015507)
(-1.00026e-08 4.84208e-10 -0.000154795)
(1.35593e-08 -1.84702e-08 -0.000152957)
(1.47125e-08 -1.51797e-08 -0.000158805)
(8.57765e-09 1.18855e-08 -0.000148353)
(-1.6569e-08 1.48041e-08 -0.000158445)
(-8.40275e-09 -1.4224e-08 -0.000148007)
(7.34431e-09 -1.12475e-08 -0.000152465)
(-7.51354e-09 1.25618e-08 -0.000154896)
(2.59721e-09 -1.17127e-08 -0.000154538)
(-2.2088e-08 1.35912e-08 -0.000152836)
(-1.49065e-08 2.05614e-08 -0.000158708)
(1.06458e-08 1.0146e-08 -0.000148192)
(5.80082e-09 -1.85336e-08 -0.00015825)
(-1.72279e-08 -7.22264e-09 -0.000147732)
(-1.33306e-08 9.49418e-09 -0.0001583)
(2.07727e-08 -4.61291e-09 -0.000157886)
(-1.73417e-08 1.04747e-08 -0.000152609)
(6.50432e-09 -3.79166e-09 -0.00015507)
(-8.43825e-09 5.09598e-09 -0.000154741)
(1.61607e-08 -1.60238e-08 -0.000152966)
(1.65618e-08 -1.43619e-08 -0.000158837)
(1.03046e-08 1.64223e-08 -0.000148374)
(-1.22639e-08 -1.36381e-08 -0.000147943)
(2.08912e-08 -1.59184e-08 -0.000158456)
(-2.11886e-08 1.40493e-08 -0.000158062)
(1.1357e-08 1.59022e-09 -0.000148916)
(-9.08808e-09 -8.78931e-09 -0.000149268)
(9.53448e-09 7.03462e-09 -0.000148763)
(-4.27476e-09 -1.26394e-08 -0.000149138)
(-8.72527e-09 -1.22194e-08 -0.000149238)
(1.27689e-08 5.90431e-09 -0.000148858)
(-8.80314e-11 -1.48052e-08 -0.000149142)
(1.10889e-08 7.69795e-09 -0.000148765)
(1.06896e-08 2.92011e-09 -0.00015844)
(3.03441e-08 -1.00581e-08 -0.000158367)
(8.46782e-09 7.56296e-09 -0.000158278)
(-1.62906e-08 -2.51915e-09 -0.000157945)
(8.30591e-09 5.08096e-09 -0.000158406)
(-3.64832e-09 -1.34514e-08 -0.000158101)
(-1.41887e-08 -5.51003e-09 -0.000157939)
(1.25762e-08 6.86032e-09 -0.000158295)
(-2.33467e-09 -1.60514e-08 -0.00015809)
(8.40245e-09 7.60309e-09 -0.000158423)
(-1.22023e-08 -1.49543e-08 -0.000152475)
(-9.90395e-11 1.08565e-08 -0.000154889)
(3.41408e-10 -1.07665e-08 -0.000154561)
(1.12937e-08 1.32318e-08 -0.000152819)
(-2.41915e-08 4.49114e-09 -0.000148153)
(-1.75298e-08 -1.84767e-08 -0.000158268)
(1.13554e-08 -9.54832e-09 -0.000147769)
(-9.11652e-09 1.37279e-08 -0.000152845)
(2.38658e-09 -1.0318e-08 -0.000154572)
(1.31271e-08 -1.27772e-08 -0.000152496)
(-3.88675e-09 1.21254e-08 -0.000154904)
(-1.54147e-08 -7.38562e-09 -0.000147777)
(1.57645e-08 8.81113e-09 -0.000148186)
(1.08721e-08 1.36815e-08 -0.000152819)
(-4.96018e-09 -1.12522e-08 -0.000154563)
(-1.36729e-08 -1.29626e-08 -0.000152483)
(2.27074e-09 1.20259e-08 -0.000154897)
(-1.11851e-08 -1.66772e-08 -0.000158263)
(1.64138e-08 -6.40954e-09 -0.00014777)
(-1.3265e-08 9.96688e-09 -0.00014817)
(1.21611e-08 -2.64402e-09 -0.000148931)
(-1.35726e-08 2.00433e-09 -0.000149239)
(-1.0895e-08 5.65108e-09 -0.000149247)
(1.14197e-08 -6.19387e-09 -0.000148919)
(5.8726e-09 -8.35885e-09 -0.000158443)
(-9.34481e-09 2.5421e-09 -0.000158413)
(2.78593e-09 -1.45122e-08 -0.000158113)
(2.00407e-08 -2.31439e-09 -0.000157936)
(-1.11651e-08 8.06054e-09 -0.0001583)
(3.52248e-09 -1.27279e-08 -0.000158457)
(-1.46298e-08 4.95485e-09 -0.000149249)
(8.5127e-09 -6.24711e-09 -0.000148908)
(1.18425e-08 -2.68404e-09 -0.000148927)
(-1.30899e-08 4.04146e-09 -0.00014924)
(-2.48831e-09 -1.57254e-08 -0.000158436)
(3.00195e-09 -1.40712e-08 -0.000158103)
(-8.97621e-09 6.50388e-09 -0.000158426)
(-1.27495e-08 -1.25907e-08 -0.000152682)
(9.98414e-09 8.86213e-10 -0.000155065)
(-9.84993e-09 -3.09926e-09 -0.000154795)
(1.20103e-08 1.44563e-08 -0.000152969)
(6.40889e-09 -1.15398e-08 -0.000148383)
(-1.70536e-08 -1.56409e-08 -0.000158475)
(-7.36606e-09 1.40689e-08 -0.000148046)
(1.45037e-08 -1.52312e-08 -0.000152967)
(-9.15281e-09 3.2736e-09 -0.000154796)
(-1.14629e-08 1.01257e-08 -0.000152673)
(1.07882e-08 -6.47089e-09 -0.000155083)
(-6.08368e-09 -1.84188e-08 -0.000148)
(1.04704e-08 1.16181e-08 -0.000148373)
(1.23426e-08 1.56224e-08 -0.000152978)
(-9.85586e-09 -2.47977e-09 -0.000154798)
(-1.10948e-08 -1.37972e-08 -0.000152686)
(1.13246e-08 4.22329e-09 -0.000155074)
(-2.07958e-09 1.62583e-08 -0.000148038)
(9.70029e-09 -9.65545e-09 -0.000148411)
(1.26432e-08 1.08707e-08 -0.000152678)
(-1.01448e-08 -4.58926e-09 -0.000155063)
(1.00899e-08 -2.16783e-09 -0.000154798)
(-1.3913e-08 -1.66641e-08 -0.000152959)
(-8.59349e-09 1.16235e-08 -0.000148361)
(1.5344e-08 1.43377e-08 -0.00015846)
(7.46795e-09 -1.29344e-08 -0.000148021)
(1.38838e-08 -1.41193e-08 -0.00015266)
(-9.52228e-09 -8.37804e-10 -0.00015506)
(9.93945e-09 -5.18216e-09 -0.000154794)
(-1.28146e-08 1.3695e-08 -0.000152949)
(-8.20822e-09 -1.23172e-08 -0.000148332)
(1.71155e-08 -1.73101e-08 -0.000158432)
(8.29637e-09 1.2083e-08 -0.000147991)
(-1.3974e-08 -1.48232e-08 -0.000152967)
(8.71772e-09 1.96877e-09 -0.000154799)
(1.11232e-08 1.18717e-08 -0.000152676)
(-1.16786e-08 -4.55329e-09 -0.000155072)
(6.45041e-09 -1.59833e-08 -0.000148016)
(-1.02742e-08 1.1765e-08 -0.00014838)
(-1.27696e-08 1.22953e-08 -0.000152956)
(9.18358e-09 -6.32509e-09 -0.000154795)
(1.2051e-08 -1.79851e-08 -0.000152665)
(-1.15785e-08 3.51975e-09 -0.000155072)
(6.3646e-09 1.43239e-08 -0.000147982)
(-9.19363e-09 -1.28368e-08 -0.000148346)
(1.33803e-08 8.49883e-09 -0.000158301)
(-1.80933e-08 -5.07415e-09 -0.000157895)
(5.73338e-09 1.0523e-08 -0.000158417)
(-6.03833e-09 -1.11612e-08 -0.000158027)
(-5.86843e-09 -8.73398e-09 -0.000152453)
(1.04024e-08 1.48238e-08 -0.000154896)
(2.22159e-10 -1.14081e-08 -0.000154525)
(2.43197e-08 1.40085e-08 -0.000152811)
(-1.28377e-08 8.8566e-09 -0.00014817)
(-5.29015e-09 -2.0019e-08 -0.000158225)
(1.91465e-08 -9.38403e-09 -0.000147724)
(2.85017e-09 1.47828e-08 -0.00015876)
(1.26971e-08 -4.61381e-09 -0.000148884)
(-1.32331e-08 8.8482e-09 -0.000149247)
(-8.77059e-09 1.29486e-08 -0.000149256)
(1.07209e-08 -8.58929e-09 -0.000148857)
(-7.52724e-09 1.09525e-08 -0.000158425)
(8.38624e-09 -8.65255e-09 -0.000158048)
(-8.47058e-10 -9.42646e-09 -0.000152624)
(2.11584e-08 8.76615e-09 -0.000155085)
(-1.40732e-08 -2.90667e-09 -0.000154729)
(8.74965e-09 1.89064e-08 -0.000152958)
(1.04757e-09 -1.55844e-08 -0.000148409)
(-3.06506e-08 -7.91002e-09 -0.000158398)
(-7.55308e-09 1.63636e-08 -0.000147983)
(1.4029e-08 1.16165e-08 -0.000152613)
(-1.18704e-08 -2.69784e-09 -0.000155072)
(1.13429e-08 6.27529e-09 -0.00015474)
(-1.4741e-08 -1.67074e-08 -0.000152966)
(-8.47699e-09 1.69161e-08 -0.000148386)
(1.70069e-08 1.00869e-08 -0.000158398)
(1.01932e-08 -1.14966e-08 -0.000147962)
(1.09427e-08 -9.49885e-09 -0.00015261)
(-1.53403e-08 1.15768e-08 -0.000155071)
(1.16897e-08 1.43023e-09 -0.000154732)
(-1.53701e-08 2.22131e-08 -0.000152956)
(-1.02425e-08 -9.12247e-09 -0.000148362)
(1.8196e-08 -9.50704e-09 -0.000158376)
(8.80784e-09 1.71006e-08 -0.000147942)
(-1.00171e-08 1.46711e-08 -0.000148814)
(7.21958e-09 -2.54815e-08 -0.000149163)
(1.08131e-08 -3.76036e-08 -0.000149179)
(-1.6848e-08 1.97633e-08 -0.000148786)
(-1.58516e-08 -9.62398e-09 -0.000158411)
(7.57561e-09 -1.61123e-09 -0.000158322)
(-1.80469e-08 -2.43738e-09 -0.000157896)
(-6.86779e-09 -2.25347e-08 -0.000158438)
(-1.7189e-08 7.20865e-09 -0.000148763)
(5.74481e-09 1.92983e-08 -0.000152436)
(-8.67953e-09 -5.4233e-09 -0.000154862)
(-2.14091e-09 1.02398e-08 -0.000154511)
(-2.38564e-08 -1.99039e-08 -0.000152804)
(1.50208e-08 -1.40033e-08 -0.000148189)
(9.90722e-09 9.22429e-09 -0.000158229)
(-1.3345e-08 1.27063e-08 -0.00014775)
(-7.44187e-09 1.08557e-08 -0.000152446)
(6.3251e-09 -1.47601e-08 -0.000154879)
(-5.86624e-10 1.2737e-08 -0.000154521)
(2.28923e-08 -1.11115e-08 -0.000152804)
(-1.33462e-08 -9.96965e-09 -0.000148176)
(-4.30468e-09 1.74537e-08 -0.000158224)
(1.85023e-08 8.45313e-09 -0.000147735)
(-9.4834e-10 6.62181e-09 -0.00015452)
(-1.21895e-10 1.7103e-08 -0.000152418)
(-1.76237e-09 1.55176e-08 -0.000154516)
(-2.15953e-09 1.02339e-08 -0.000152438)
(-9.91787e-09 -5.12378e-09 -0.000158414)
(4.86427e-09 1.45406e-08 -0.000158017)
(-1.17176e-08 -6.50499e-09 -0.000158296)
(1.70762e-08 4.76057e-09 -0.000157892)
(1.42297e-08 4.24414e-09 -0.000148774)
(9.74322e-09 -1.79309e-08 -0.000148011)
(5.63688e-08 -6.82542e-09 -0.000148392)
(-1.7577e-08 -2.21435e-08 -0.000158097)
(-5.58849e-08 -1.79468e-08 -0.000158442)
(-5.54355e-09 -1.86894e-08 -0.000148072)
(1.23376e-08 4.79148e-10 -0.000148383)
(-7.23743e-09 1.05189e-08 -0.00015818)
(8.12226e-09 -6.6509e-09 -0.000158443)
(-2.38948e-08 -6.94303e-09 -0.00014787)
(-2.47314e-09 1.21125e-08 -0.000148172)
(1.91676e-08 -4.04691e-09 -0.000158014)
(3.50208e-09 1.35128e-08 -0.000158294)
(-1.132e-08 -6.72004e-09 -0.000148111)
(4.44312e-09 1.88017e-08 -0.000148408)
(-5.50956e-09 1.23858e-08 -0.000158208)
(6.41572e-09 -8.67232e-09 -0.000158483)
(-2.85321e-08 -2.88978e-09 -0.000147819)
(9.85909e-09 1.01122e-08 -0.000148182)
(2.61082e-08 1.98971e-09 -0.000157988)
(-5.73136e-09 1.02381e-08 -0.000158309)
(-1.26507e-08 -5.75226e-10 -0.000148102)
(8.73595e-09 1.13376e-08 -0.000148406)
(-4.67142e-09 1.01361e-08 -0.000158225)
(6.81465e-09 -9.07259e-09 -0.000158484)
(-1.08379e-08 -8.47072e-09 -0.00014785)
(2.53294e-08 5.16711e-09 -0.000148205)
(7.41919e-09 -8.45129e-09 -0.000158019)
(-2.08471e-08 3.16469e-09 -0.000158328)
(-4.09786e-09 -1.87396e-08 -0.0001481)
(1.22439e-08 7.65685e-10 -0.000148393)
(-5.67253e-09 9.09938e-09 -0.000158216)
(7.21786e-09 -9.20221e-09 -0.000158461)
(-5.21007e-09 -1.19888e-08 -0.000147851)
(2.11637e-08 6.83632e-09 -0.000148188)
(4.88356e-09 -8.85326e-09 -0.000158011)
(-1.77077e-08 5.65882e-09 -0.000158306)
(-5.69294e-09 -1.45467e-08 -0.000148085)
(1.07911e-08 8.1013e-09 -0.000148373)
(-6.85102e-09 6.19771e-09 -0.000158191)
(6.79146e-09 -1.22914e-08 -0.000158447)
(-1.58055e-08 -5.52531e-09 -0.000147828)
(1.38562e-08 1.07266e-08 -0.000148164)
(6.76485e-09 -7.61406e-09 -0.000157985)
(-1.63238e-08 7.21145e-09 -0.000158288)
(-5.59996e-09 -1.33551e-08 -0.000148067)
(1.15716e-08 9.72765e-09 -0.000148361)
(-5.18443e-09 7.80903e-09 -0.000158175)
(7.61809e-09 -1.1438e-08 -0.000158433)
(-1.5501e-08 -6.99913e-09 -0.000147809)
(1.37258e-08 8.85594e-09 -0.000148156)
(1.37266e-08 -4.17252e-09 -0.000157968)
(-8.70285e-09 9.3685e-09 -0.000158268)
(-9.75352e-09 -3.15946e-09 -0.000148052)
(7.50255e-09 1.54952e-08 -0.000148349)
(-4.89551e-09 8.27968e-09 -0.000158169)
(7.24713e-09 -9.34333e-09 -0.000158424)
(-1.99696e-08 -4.24766e-09 -0.000147803)
(1.09087e-08 1.12481e-08 -0.000148158)
(1.06096e-08 -6.83529e-09 -0.000157957)
(-1.24249e-08 7.00397e-09 -0.000158277)
(-6.06244e-09 -1.05058e-08 -0.000148044)
(1.21234e-08 6.09678e-09 -0.000148346)
(-5.37987e-09 1.20195e-08 -0.000158163)
(7.63995e-09 -9.21033e-09 -0.000158428)
(-1.15304e-08 -1.07776e-08 -0.000147798)
(1.8264e-08 4.94936e-09 -0.000148141)
(1.53681e-08 -3.13492e-09 -0.00015797)
(-1.17971e-08 6.85364e-09 -0.000158276)
(-1.18487e-08 -5.25748e-09 -0.00014803)
(7.52805e-09 8.86897e-09 -0.000148328)
(-5.77138e-09 8.16294e-09 -0.000158166)
(6.77743e-09 -9.46664e-09 -0.000158422)
(-1.49114e-08 -7.2725e-09 -0.000147795)
(1.84899e-08 7.12603e-09 -0.000148146)
(1.08589e-08 -5.38103e-09 -0.000157956)
(-1.8106e-08 3.42218e-09 -0.000158266)
(-6.69482e-09 -1.36961e-08 -0.000148024)
(9.80755e-09 9.02786e-09 -0.000148328)
(-4.64682e-09 1.0062e-08 -0.000158155)
(5.5269e-09 -1.29798e-08 -0.000158415)
(-1.25028e-08 -1.02835e-08 -0.000147792)
(1.6205e-08 7.95424e-09 -0.000148144)
(1.68936e-08 -2.3562e-09 -0.000157955)
(-1.4042e-08 5.46974e-09 -0.000158256)
(-9.78063e-09 -9.25456e-09 -0.000148023)
(8.93943e-09 9.60148e-09 -0.000148327)
(-1.76673e-09 1.39233e-08 -0.000158157)
(8.0595e-09 -8.70253e-09 -0.000158413)
(-1.68894e-08 -5.72112e-09 -0.000147799)
(1.40963e-08 7.58393e-09 -0.000148139)
(1.22125e-08 -6.40596e-09 -0.000157942)
(-1.40736e-08 4.33599e-09 -0.000158257)
(-7.45248e-09 -1.25992e-08 -0.000148034)
(8.35189e-09 8.82544e-09 -0.000148326)
(-5.24266e-09 1.28785e-08 -0.000158151)
(5.91962e-09 -8.40622e-09 -0.00015841)
(-1.65128e-08 -6.42672e-09 -0.000147789)
(1.25315e-08 6.96996e-09 -0.000148137)
(1.63121e-08 -3.92712e-09 -0.000157962)
(-8.7092e-09 8.64493e-09 -0.000158283)
(-6.5743e-09 -1.20942e-08 -0.000148036)
(8.87063e-09 3.3952e-09 -0.000148332)
(-6.45636e-09 1.07187e-08 -0.000158151)
(6.49987e-09 -8.79987e-09 -0.000158416)
(-1.61386e-08 -9.86714e-09 -0.00014779)
(1.73673e-08 4.87361e-09 -0.000148147)
(1.03179e-08 -6.80351e-09 -0.000157962)
(-1.64728e-08 3.71898e-09 -0.000158282)
(-8.00006e-09 -1.56122e-08 -0.000148029)
(8.26596e-09 8.82397e-09 -0.000148335)
(-5.53443e-09 1.19028e-08 -0.000158147)
(5.95031e-09 -1.22588e-08 -0.000158416)
(-1.36133e-08 -9.03316e-09 -0.000147786)
(1.74629e-08 7.77821e-09 -0.00014814)
(1.26916e-08 -5.60815e-09 -0.000157961)
(-1.42014e-08 5.53387e-09 -0.000158268)
(-9.56956e-09 -9.59415e-09 -0.000148022)
(8.89191e-09 1.19288e-08 -0.000148329)
(-7.81475e-09 8.26428e-09 -0.000158146)
(6.26938e-09 -1.14143e-08 -0.000158414)
(-8.48971e-09 1.10787e-08 -0.000158129)
(9.0717e-09 -8.91267e-09 -0.000158459)
(3.2687e-08 -6.89933e-09 -0.000158381)
(1.41249e-08 -4.70605e-09 -0.000158417)
(3.67922e-08 4.88947e-09 -0.000148327)
(-2.8741e-08 -1.07508e-08 -0.000147835)
(-3.43138e-08 8.87264e-10 -0.000148309)
(2.40915e-08 -1.23158e-10 -0.000147873)
(-3.59785e-08 -4.04099e-09 -0.000158385)
(3.904e-08 1.04995e-09 -0.000157994)
(-1.09285e-08 -4.54069e-09 -0.000158431)
(7.54662e-09 -6.97657e-09 -0.000158175)
(8.09584e-09 4.87042e-09 -0.000148371)
(7.81706e-09 -1.14156e-08 -0.000148412)
(-9.12019e-09 4.64973e-09 -0.000148394)
(9.76661e-09 -1.18661e-08 -0.000148093)
(-7.02306e-09 -1.20259e-08 -0.00014838)
(4.803e-09 -6.19259e-09 -0.000158446)
(8.29543e-09 -7.84371e-09 -0.000158293)
(1.73812e-08 -5.06845e-09 -0.000148168)
(-1.56255e-08 -6.04322e-09 -0.000148191)
(-4.94552e-09 -4.86184e-09 -0.000158416)
(-1.36912e-08 -4.29967e-09 -0.000158317)
(2.20301e-08 -2.14727e-08 -0.000158109)
(5.98704e-08 -2.11737e-08 -0.000158439)
(-1.81719e-09 -2.10179e-08 -0.000158145)
(1.51409e-08 -6.1387e-09 -0.000158425)
(1.1605e-08 2.74745e-09 -0.000158335)
(2.37547e-08 -2.63592e-08 -0.000158122)
(6.0026e-09 6.54226e-09 -0.000158446)
(-1.24906e-09 -2.07892e-08 -0.000158179)
(-7.71902e-09 -1.49891e-08 -0.000148001)
(-5.04581e-08 -6.07626e-09 -0.000148383)
(1.949e-08 3.93401e-09 -0.000148232)
(1.76915e-08 -2.31579e-08 -0.00014801)
(-1.76854e-08 4.01662e-09 -0.000148229)
(-1.26086e-08 -2.15798e-08 -0.000148011)
(8.16396e-10 -2.18787e-08 -0.000158169)
(-1.25393e-08 -3.49517e-09 -0.000158445)
(-1.62273e-08 1.17776e-09 -0.000158336)
(-2.06691e-08 -2.4441e-08 -0.000158128)
(-1.00661e-08 -4.09677e-10 -0.000158458)
(5.19265e-10 -1.9756e-08 -0.000158206)
(-1.07844e-08 1.2263e-08 -0.000148105)
(9.08619e-09 -1.07581e-08 -0.000148406)
(6.54785e-09 1.34103e-08 -0.000148398)
(-6.77239e-09 -1.73538e-08 -0.000148092)
(6.17668e-09 -1.28854e-08 -0.000148418)
(-1.05282e-08 8.04156e-09 -0.000148126)
(6.15586e-09 -2.02356e-08 -0.00014809)
(-1.15681e-08 3.2427e-09 -0.000148411)
(1.06178e-08 1.14368e-08 -0.000148076)
(-7.60383e-09 -1.11961e-08 -0.000148382)
(-7.00981e-09 1.08517e-08 -0.000148418)
(5.98093e-09 -1.86468e-08 -0.000148128)
(-7.77987e-09 -9.95259e-09 -0.000148392)
(9.95971e-09 1.10242e-08 -0.000148097)
(-1.40181e-08 6.36364e-09 -0.000157988)
(1.1897e-08 -6.2952e-09 -0.000158296)
(7.4529e-09 -5.12996e-09 -0.00015846)
(-6.09896e-09 1.02362e-08 -0.000158199)
(6.66582e-09 -7.77723e-09 -0.000158299)
(-1.57417e-08 3.90577e-09 -0.000158004)
(-1.5953e-08 8.20824e-09 -0.000147821)
(1.47585e-08 -8.21433e-09 -0.000148175)
(2.03236e-08 6.86906e-09 -0.000147847)
(-1.15408e-08 -8.67568e-09 -0.000148201)
(1.50933e-08 -6.53434e-09 -0.000148176)
(-1.7343e-08 7.27507e-09 -0.000147833)
(-1.08083e-08 -8.13235e-09 -0.000148201)
(2.13158e-08 7.09826e-09 -0.000147859)
(5.56744e-09 1.12241e-08 -0.000158152)
(-6.7917e-09 -6.28713e-09 -0.000158413)
(1.63492e-08 4.31839e-09 -0.000158017)
(-7.80054e-09 -7.18771e-09 -0.000158323)
(-7.32347e-09 -5.42766e-09 -0.00015842)
(7.16144e-09 8.22752e-09 -0.000158166)
(-3.72533e-09 -8.61254e-09 -0.000158326)
(1.90816e-08 2.59874e-09 -0.000158028)
(-1.85587e-08 -3.76473e-09 -0.00015802)
(-4.79882e-09 1.42264e-08 -0.000158295)
(-9.47324e-09 -4.19306e-09 -0.000158195)
(9.69961e-10 1.96531e-08 -0.000158457)
(-3.01722e-09 1.33731e-08 -0.000158284)
(-3.45201e-08 4.73522e-09 -0.000157996)
(2.27704e-09 1.59692e-08 -0.000158448)
(-1.16313e-08 -1.81971e-10 -0.000158204)
(2.4596e-08 -7.07053e-09 -0.000147856)
(1.91327e-09 1.23546e-08 -0.000148166)
(1.74896e-09 1.35171e-08 -0.000148159)
(-3.7473e-08 -1.68496e-11 -0.000147821)
(-3.72127e-09 1.19864e-08 -0.000148153)
(3.58041e-08 -6.8595e-10 -0.000147822)
(6.50543e-09 -9.84814e-09 -0.000158208)
(5.43331e-10 2.12709e-08 -0.000158466)
(2.81732e-09 1.37828e-08 -0.000158288)
(3.37466e-08 5.19843e-09 -0.000157992)
(-1.89745e-09 1.6307e-08 -0.000158442)
(1.36081e-08 1.19647e-09 -0.000158221)
(-9.78167e-09 1.1371e-08 -0.000148136)
(8.28879e-09 -1.03442e-08 -0.000148446)
(4.13609e-09 2.11483e-08 -0.000148396)
(-1.12653e-08 -3.05241e-09 -0.000148114)
(8.43932e-09 -1.04902e-08 -0.000148443)
(-8.58484e-09 1.30301e-08 -0.000148161)
(1.01018e-08 -1.25778e-08 -0.000148134)
(-4.28323e-09 1.89344e-08 -0.000148437)
(7.92098e-09 1.56142e-08 -0.000148102)
(-5.83142e-09 -1.12638e-08 -0.000148406)
(-2.85071e-09 2.2706e-08 -0.000148405)
(1.16293e-08 -4.05773e-09 -0.000148144)
(-7.50564e-09 -1.19887e-08 -0.000148391)
(8.06277e-09 1.15991e-08 -0.000148116)
(-1.9548e-08 2.39019e-09 -0.000158)
(1.20582e-08 -6.26902e-09 -0.000158319)
(8.43487e-09 -4.82701e-09 -0.000158479)
(-4.40904e-09 1.30027e-08 -0.000158235)
(1.11288e-08 -5.66845e-09 -0.000158315)
(-1.98345e-08 2.77864e-09 -0.000158027)
(-2.06708e-08 7.21657e-09 -0.000147831)
(1.49349e-08 -7.24499e-09 -0.000148202)
(2.50004e-08 6.16614e-09 -0.000147863)
(-1.58123e-08 -6.26536e-09 -0.000148218)
(1.90393e-08 -6.03787e-09 -0.000148193)
(-1.88127e-08 6.73253e-09 -0.000147857)
(-1.79751e-08 -7.25235e-09 -0.000148212)
(2.0027e-08 6.56007e-09 -0.000147881)
(4.12738e-09 1.19911e-08 -0.000158173)
(-5.85628e-09 -1.03135e-08 -0.000158431)
(2.37931e-08 -7.32185e-10 -0.00015803)
(-1.18264e-08 -5.27477e-09 -0.000158335)
(-8.24107e-09 -6.23632e-09 -0.000158423)
(6.82034e-09 1.00431e-08 -0.000158179)
(-9.99398e-09 -5.45322e-09 -0.000158328)
(1.63899e-08 3.58314e-09 -0.000158037)
(-2.33082e-08 8.73328e-10 -0.000157989)
(7.66177e-09 8.56804e-09 -0.000158305)
(-1.20881e-08 2.20324e-09 -0.000158192)
(5.63354e-09 1.1874e-08 -0.000158457)
(1.47136e-08 5.26652e-09 -0.000158305)
(-1.75437e-08 -3.4714e-09 -0.000158007)
(1.05659e-08 3.58894e-09 -0.000158444)
(-7.08621e-09 -9.4645e-09 -0.000158202)
(2.50727e-08 -3.92461e-09 -0.000147812)
(-1.20555e-08 9.7005e-09 -0.000148182)
(2.04097e-08 6.24826e-09 -0.000148186)
(-1.99032e-08 -5.99273e-09 -0.000147842)
(-2.07972e-08 5.52702e-09 -0.000148194)
(1.88979e-08 -6.28158e-09 -0.000147847)
(1.22777e-08 2.71322e-09 -0.000158194)
(-3.24081e-09 1.49401e-08 -0.000158459)
(-2.01858e-08 2.24203e-09 -0.000158319)
(1.73213e-08 -3.22679e-09 -0.000158017)
(-1.24937e-08 -3.06526e-09 -0.000158451)
(6.74903e-09 -7.39554e-09 -0.000158206)
(-8.73876e-09 1.16717e-08 -0.00014815)
(9.91034e-09 -8.69471e-09 -0.000148451)
(1.14908e-08 4.42198e-09 -0.000148392)
(-7.68346e-09 -1.42905e-08 -0.000148109)
(8.16084e-09 -1.12331e-08 -0.000148435)
(-7.36712e-09 1.44071e-08 -0.000148162)
(1.34087e-08 7.5073e-12 -0.000148116)
(-6.6064e-09 1.76428e-08 -0.000148412)
(9.05558e-09 1.03328e-08 -0.000148098)
(-7.90596e-09 -1.12007e-08 -0.000148396)
(-7.83649e-09 1.02258e-08 -0.000148396)
(1.03048e-08 -6.16567e-09 -0.000148122)
(-7.46119e-09 -1.02479e-08 -0.000148383)
(9.19239e-09 9.24933e-09 -0.000148103)
(-1.2656e-08 4.8925e-09 -0.000158018)
(1.47288e-08 -4.60762e-09 -0.000158325)
(5.66693e-09 -9.85262e-09 -0.000158471)
(-5.88829e-09 8.90966e-09 -0.00015823)
(1.74898e-08 -3.606e-09 -0.000158306)
(-1.28575e-08 5.35084e-09 -0.000158026)
(-1.52897e-08 9.09436e-09 -0.000147846)
(1.55077e-08 -7.91238e-09 -0.000148203)
(1.7605e-08 8.5369e-09 -0.000147865)
(-1.99693e-08 -6.46728e-09 -0.000148215)