/*--------------------------------*- C++ -*----------------------------------*\
| =========                 |                                                 |
| \\      /  F ield         | OpenFOAM: The Open Source CFD Toolbox           |
|  \\    /   O peration     | Version:  2206                                  |
|   \\  /    A nd           | Website:  www.openfoam.com                      |
|    \\/     M anipulation  |                                                 |
\*---------------------------------------------------------------------------*/
FoamFile
{
    version     2.0;
    format      ascii;
    arch        "LSB;label=32;scalar=64";
    class       volScalarField;
    location    "0.6";
    object      nut;
}
// * * * * * * * * * * * * * * * * * * * * * * * * * * * * * * * * * * * * * //

dimensions      [0 2 -1 0 0 0 0];

internalField   nonuniform List<scalar> 
184150
(
9.26385e-16
9.19422e-16
9.00923e-16
9.16142e-16
8.99907e-16
8.70619e-16
9.2473e-16
9.20936e-16
8.47277e-16
9.19966e-16
9.19175e-16
8.98951e-16
9.25639e-16
8.70987e-16
9.14353e-16
9.13727e-16
8.60963e-16
8.70781e-16
9.15328e-16
8.46399e-16
9.12211e-16
8.99277e-16
8.67736e-16
9.16904e-16
8.7145e-16
8.48002e-16
8.97982e-16
8.70905e-16
8.7154e-16
8.69843e-16
8.49993e-16
8.66087e-16
8.62994e-16
9.0211e-16
8.81481e-16
9.27554e-16
8.68327e-16
8.65397e-16
9.15915e-16
9.27428e-16
8.59138e-16
8.50657e-16
9.18198e-16
8.70664e-16
8.59832e-16
9.16846e-16
9.01197e-16
9.01258e-16
9.28012e-16
9.26814e-16
8.99672e-16
9.25346e-16
8.61361e-16
8.73217e-16
9.00562e-16
8.62939e-16
9.14095e-16
9.01712e-16
8.69379e-16
8.59954e-16
8.4595e-16
8.70731e-16
9.18793e-16
8.69961e-16
9.27267e-16
9.17817e-16
9.24561e-16
8.48046e-16
9.24333e-16
8.68976e-16
9.1693e-16
9.01568e-16
9.11592e-16
8.65318e-16
8.6412e-16
8.65871e-16
8.49673e-16
9.08614e-16
9.09818e-16
9.04673e-16
8.6986e-16
8.59683e-16
8.46144e-16
8.70756e-16
9.00557e-16
9.25504e-16
8.65205e-16
8.67655e-16
8.69872e-16
8.58255e-16
9.00122e-16
8.48548e-16
8.61147e-16
9.12287e-16
8.46824e-16
9.03006e-16
9.25834e-16
9.26392e-16
8.49409e-16
9.17239e-16
8.62284e-16
9.01987e-16
9.0929e-16
8.47432e-16
8.45647e-16
8.73432e-16
9.12379e-16
9.15159e-16
8.71051e-16
9.12331e-16
8.68968e-16
9.18288e-16
9.13476e-16
8.62238e-16
8.64782e-16
8.64352e-16
9.16317e-16
9.13005e-16
8.45268e-16
8.61956e-16
8.71057e-16
8.61731e-16
9.11405e-16
9.24574e-16
9.01027e-16
8.63578e-16
8.63184e-16
8.71352e-16
9.01003e-16
9.21643e-16
8.4721e-16
8.70452e-16
8.63061e-16
8.61159e-16
9.10464e-16
9.23482e-16
8.63045e-16
8.74642e-16
9.23707e-16
8.68391e-16
8.60323e-16
9.16629e-16
8.63188e-16
8.69408e-16
8.67182e-16
8.64794e-16
9.12566e-16
9.18692e-16
9.17628e-16
8.73076e-16
9.1953e-16
8.65555e-16
8.61731e-16
8.68133e-16
9.09655e-16
8.61577e-16
8.65292e-16
9.08371e-16
9.13065e-16
9.07669e-16
8.69137e-16
8.60954e-16
9.18352e-16
9.1983e-16
8.69014e-16
9.09006e-16
9.25364e-16
9.22629e-16
8.67782e-16
8.70692e-16
9.25661e-16
8.69557e-16
8.44887e-16
8.64516e-16
9.13192e-16
9.2483e-16
9.19675e-16
8.74293e-16
8.66191e-16
9.23166e-16
9.00879e-16
9.2245e-16
8.43727e-16
8.6258e-16
8.73344e-16
9.17706e-16
9.11934e-16
9.13893e-16
8.73885e-16
9.11116e-16
9.12247e-16
9.13788e-16
9.18632e-16
8.62034e-16
8.66507e-16
9.27048e-16
9.21128e-16
8.637e-16
8.73405e-16
8.74109e-16
8.7139e-16
9.07625e-16
8.64681e-16
8.69498e-16
9.14285e-16
9.27822e-16
8.61498e-16
8.70678e-16
8.63828e-16
8.6473e-16
8.475e-16
8.64543e-16
9.26773e-16
9.24879e-16
8.67701e-16
9.07338e-16
9.25406e-16
9.20002e-16
9.24611e-16
8.6996e-16
8.45783e-16
9.01284e-16
9.18617e-16
8.69964e-16
8.49456e-16
8.64111e-16
9.12299e-16
9.15068e-16
8.64782e-16
9.00454e-16
9.08966e-16
8.48352e-16
8.44848e-16
8.60335e-16
8.6962e-16
8.62128e-16
8.78996e-16
8.4698e-16
8.6843e-16
9.01067e-16
8.61179e-16
8.49521e-16
8.70699e-16
8.64332e-16
9.18804e-16
8.72235e-16
9.25719e-16
8.69654e-16
8.64549e-16
8.62183e-16
8.98394e-16
8.65618e-16
8.49365e-16
9.19132e-16
8.76675e-16
8.95853e-16
8.72074e-16
9.20165e-16
8.674e-16
9.19127e-16
8.71553e-16
8.61416e-16
9.1009e-16
8.44531e-16
8.47875e-16
8.59626e-16
9.14579e-16
8.63724e-16
9.194e-16
9.2095e-16
8.61938e-16
9.26045e-16
9.18292e-16
8.74591e-16
8.46368e-16
8.67349e-16
8.60639e-16
8.62088e-16
8.62158e-16
9.10917e-16
9.00877e-16
8.47722e-16
8.99021e-16
9.18775e-16
9.19267e-16
8.42298e-16
8.62359e-16
9.14597e-16
8.60139e-16
9.11063e-16
8.61553e-16
8.67161e-16
8.63706e-16
9.19578e-16
8.63958e-16
8.64945e-16
8.62853e-16
8.62983e-16
8.6484e-16
8.63448e-16
8.68252e-16
9.02151e-16
9.12821e-16
8.44903e-16
8.99671e-16
9.2048e-16
9.17945e-16
8.99908e-16
8.63149e-16
8.64089e-16
8.49087e-16
8.46111e-16
9.11956e-16
8.62978e-16
8.50006e-16
8.74423e-16
9.11438e-16
8.71026e-16
8.59841e-16
9.21513e-16
9.17977e-16
8.52355e-16
8.6116e-16
8.63274e-16
9.12035e-16
8.45063e-16
9.10804e-16
8.6289e-16
9.09022e-16
9.10602e-16
8.47154e-16
8.99552e-16
9.12619e-16
8.63613e-16
8.72101e-16
8.64391e-16
9.18589e-16
9.03572e-16
9.19214e-16
8.60624e-16
8.59849e-16
9.1632e-16
9.25263e-16
8.58702e-16
9.23622e-16
8.60808e-16
9.17419e-16
9.20788e-16
8.61041e-16
8.64426e-16
8.59525e-16
8.74157e-16
8.63091e-16
8.47035e-16
8.70432e-16
8.73102e-16
9.11705e-16
9.25883e-16
8.70053e-16
9.12775e-16
8.45452e-16
9.08997e-16
9.16302e-16
8.67864e-16
8.66128e-16
9.13384e-16
9.09605e-16
9.26834e-16
9.20035e-16
9.09266e-16
8.62772e-16
9.18062e-16
8.66101e-16
9.09455e-16
8.61827e-16
9.01048e-16
8.64441e-16
9.01929e-16
8.73301e-16
9.00437e-16
8.63895e-16
9.263e-16
8.62177e-16
9.21352e-16
9.13573e-16
9.26567e-16
8.70617e-16
9.00646e-16
8.72288e-16
9.10562e-16
9.11099e-16
8.64881e-16
9.26896e-16
9.2568e-16
9.32389e-16
9.24469e-16
8.71008e-16
9.20145e-16
8.65169e-16
9.19253e-16
8.99737e-16
8.6231e-16
8.64048e-16
9.25209e-16
9.25937e-16
8.65881e-16
8.62181e-16
8.63436e-16
9.26231e-16
9.13287e-16
9.15489e-16
9.27879e-16
8.66017e-16
9.11554e-16
8.99328e-16
9.13846e-16
8.61391e-16
9.0996e-16
9.11386e-16
9.10821e-16
8.63877e-16
9.24523e-16
8.63804e-16
9.26573e-16
9.18953e-16
8.61089e-16
8.64123e-16
8.61777e-16
8.99892e-16
8.4695e-16
8.97906e-16
8.47497e-16
8.46151e-16
9.17929e-16
9.229e-16
8.48527e-16
9.00395e-16
8.46827e-16
8.45005e-16
9.26977e-16
9.00778e-16
9.24917e-16
9.01573e-16
9.01218e-16
8.47222e-16
9.14877e-16
9.23208e-16
8.98253e-16
9.26765e-16
9.27663e-16
9.26905e-16
9.21916e-16
8.4387e-16
9.211e-16
8.97096e-16
9.12882e-16
8.60087e-16
8.61744e-16
8.47753e-16
8.44209e-16
8.97153e-16
8.67005e-16
8.43544e-16
9.09532e-16
8.97156e-16
8.45026e-16
8.67215e-16
8.51268e-16
8.98e-16
8.45295e-16
8.97641e-16
8.60712e-16
9.27807e-16
9.26401e-16
8.45334e-16
9.24848e-16
9.25768e-16
8.62985e-16
8.99705e-16
8.4455e-16
8.62283e-16
9.01661e-16
9.26854e-16
9.24342e-16
8.99606e-16
9.23684e-16
9.12121e-16
8.49041e-16
8.63576e-16
8.99156e-16
9.02469e-16
9.2409e-16
8.49395e-16
9.19834e-16
9.0874e-16
9.02724e-16
9.16708e-16
9.2623e-16
8.63173e-16
9.27546e-16
8.50097e-16
8.63196e-16
9.25554e-16
8.76559e-16
9.037e-16
8.60095e-16
8.47909e-16
9.02698e-16
9.11253e-16
9.20245e-16
8.49559e-16
9.0247e-16
8.59543e-16
8.60731e-16
9.24819e-16
9.25151e-16
8.61144e-16
9.21844e-16
9.01755e-16
8.50474e-16
9.01863e-16
8.47288e-16
9.0122e-16
9.03133e-16
9.24762e-16
8.49351e-16
8.60532e-16
9.2438e-16
8.61812e-16
9.01095e-16
8.63955e-16
9.26611e-16
8.44897e-16
9.00794e-16
8.46436e-16
9.00966e-16
8.71789e-16
9.19123e-16
8.73472e-16
9.16485e-16
8.70376e-16
9.16573e-16
8.74988e-16
9.15659e-16
8.68942e-16
9.13908e-16
8.69199e-16
9.14219e-16
8.69323e-16
9.16163e-16
8.73132e-16
9.1809e-16
8.71097e-16
9.20904e-16
8.75966e-16
9.19479e-16
8.73984e-16
9.18616e-16
8.74608e-16
9.19599e-16
8.6724e-16
9.16567e-16
8.71501e-16
9.12879e-16
8.71508e-16
9.15345e-16
8.72296e-16
9.18757e-16
8.69302e-16
9.19327e-16
8.73697e-16
9.17607e-16
8.73067e-16
9.16475e-16
8.7508e-16
9.17651e-16
8.73305e-16
9.17474e-16
8.69165e-16
9.1491e-16
8.71555e-16
9.16869e-16
8.686e-16
9.14223e-16
8.71072e-16
9.16014e-16
8.71428e-16
9.15257e-16
8.69491e-16
9.15519e-16
8.73366e-16
9.14799e-16
8.71706e-16
9.18329e-16
8.70928e-16
9.17082e-16
8.71639e-16
9.17697e-16
8.7572e-16
9.17279e-16
8.73512e-16
9.19752e-16
8.69174e-16
9.18585e-16
8.76232e-16
9.20946e-16
8.75615e-16
9.20588e-16
8.72995e-16
9.20739e-16
8.71405e-16
9.16183e-16
8.73179e-16
9.18565e-16
8.74509e-16
9.20502e-16
8.73885e-16
9.20083e-16
8.75227e-16
9.19366e-16
8.74232e-16
9.17556e-16
8.71182e-16
9.17848e-16
8.72046e-16
9.15016e-16
8.67283e-16
9.13502e-16
8.67648e-16
9.1407e-16
8.70298e-16
9.16163e-16
8.6803e-16
9.14142e-16
8.68758e-16
9.16163e-16
8.72082e-16
9.17748e-16
8.72195e-16
9.15796e-16
8.70419e-16
9.16488e-16
8.72561e-16
9.14903e-16
8.72428e-16
9.16199e-16
8.70754e-16
9.1586e-16
8.69908e-16
9.12926e-16
8.66434e-16
9.10266e-16
8.67161e-16
9.15083e-16
8.70293e-16
9.13691e-16
8.70975e-16
9.1715e-16
8.68836e-16
9.17648e-16
8.76403e-16
9.18047e-16
8.71911e-16
9.17605e-16
8.71633e-16
9.17174e-16
8.72965e-16
9.16648e-16
8.83672e-16
9.29073e-16
8.70046e-16
9.19474e-16
8.73382e-16
9.17155e-16
8.69646e-16
9.14222e-16
8.69941e-16
9.15299e-16
8.6763e-16
9.1301e-16
8.65262e-16
9.14869e-16
8.66692e-16
9.15277e-16
8.73037e-16
9.15876e-16
8.70171e-16
9.17888e-16
8.73596e-16
9.20475e-16
8.72274e-16
9.18891e-16
8.70885e-16
9.17398e-16
8.63337e-16
9.10285e-16
8.75887e-16
9.20132e-16
8.72614e-16
9.19129e-16
8.75577e-16
9.20597e-16
8.75141e-16
9.2245e-16
8.76442e-16
9.23135e-16
8.74168e-16
9.19816e-16
8.74914e-16
9.17379e-16
8.72786e-16
9.19684e-16
8.71332e-16
9.12962e-16
8.69015e-16
9.15068e-16
8.67401e-16
9.11434e-16
8.6692e-16
9.12745e-16
8.67698e-16
9.12695e-16
8.62123e-16
9.12756e-16
8.67161e-16
9.11117e-16
8.66888e-16
9.13141e-16
8.68523e-16
9.16175e-16
8.7015e-16
9.17741e-16
8.75277e-16
9.18675e-16
8.76047e-16
9.19228e-16
8.7336e-16
9.23448e-16
8.76479e-16
9.21702e-16
8.78976e-16
9.19749e-16
8.71378e-16
9.18498e-16
8.71836e-16
9.18864e-16
8.71865e-16
9.17697e-16
8.73212e-16
9.18537e-16
8.71257e-16
9.19832e-16
8.74081e-16
9.18899e-16
8.71276e-16
9.17567e-16
8.72057e-16
9.21369e-16
8.74506e-16
9.16493e-16
8.69868e-16
9.1741e-16
8.70151e-16
9.16106e-16
8.70604e-16
9.16586e-16
8.71735e-16
9.185e-16
8.70368e-16
9.17072e-16
8.72966e-16
9.19787e-16
8.73703e-16
9.19291e-16
8.70763e-16
9.16509e-16
8.69431e-16
9.12798e-16
8.66997e-16
9.10471e-16
8.67217e-16
9.13983e-16
8.6785e-16
9.14989e-16
8.64916e-16
9.09604e-16
8.62295e-16
9.14392e-16
8.70237e-16
9.15409e-16
8.69288e-16
9.18233e-16
8.69465e-16
9.18226e-16
8.74331e-16
9.19051e-16
8.72676e-16
9.1988e-16
8.70916e-16
9.19327e-16
8.71177e-16
9.1659e-16
8.80339e-16
9.28241e-16
8.68017e-16
9.17127e-16
8.72883e-16
9.18627e-16
8.71216e-16
9.15672e-16
8.67583e-16
9.14265e-16
8.70218e-16
9.14802e-16
8.6638e-16
9.1586e-16
8.68096e-16
9.145e-16
8.70995e-16
9.13544e-16
8.67933e-16
9.15044e-16
8.73292e-16
9.17816e-16
8.71649e-16
9.18334e-16
8.69436e-16
9.1729e-16
8.61937e-16
9.10137e-16
8.76208e-16
9.16802e-16
8.71097e-16
9.15069e-16
8.70278e-16
9.16184e-16
8.72359e-16
9.16561e-16
8.74038e-16
9.20553e-16
8.73333e-16
9.1953e-16
8.72661e-16
9.15847e-16
8.68485e-16
9.17575e-16
8.71181e-16
9.13909e-16
8.64657e-16
9.14316e-16
8.70054e-16
9.13581e-16
8.68879e-16
9.15291e-16
8.72681e-16
9.17577e-16
8.67729e-16
9.15801e-16
8.6971e-16
9.15151e-16
8.68463e-16
9.13806e-16
8.67994e-16
9.14224e-16
8.67415e-16
9.15443e-16
8.7098e-16
9.17454e-16
8.72229e-16
9.16099e-16
8.69891e-16
9.16923e-16
8.7279e-16
9.17351e-16
8.75599e-16
9.19874e-16
8.71526e-16
9.1517e-16
8.69528e-16
9.16225e-16
8.68068e-16
9.16918e-16
8.72495e-16
9.16708e-16
8.69103e-16
9.17067e-16
8.72061e-16
9.19677e-16
8.72664e-16
9.17239e-16
8.72814e-16
9.21402e-16
8.74788e-16
9.18035e-16
8.7002e-16
9.1641e-16
8.70308e-16
9.19452e-16
8.71226e-16
9.17431e-16
8.72592e-16
9.19149e-16
8.71613e-16
9.18102e-16
8.71548e-16
9.16766e-16
8.74399e-16
9.20564e-16
8.73074e-16
9.17779e-16
8.69366e-16
9.16688e-16
8.65756e-16
9.1106e-16
8.64806e-16
9.10857e-16
8.6785e-16
9.13686e-16
8.67618e-16
9.13844e-16
8.64532e-16
9.15385e-16
8.74735e-16
9.18927e-16
8.72497e-16
9.19157e-16
8.71799e-16
9.1986e-16
8.73341e-16
9.17609e-16
8.72533e-16
9.19127e-16
8.73362e-16
9.19515e-16
8.70832e-16
9.16183e-16
8.72215e-16
9.16454e-16
8.68652e-16
9.15739e-16
8.70761e-16
9.13544e-16
8.70888e-16
9.16173e-16
8.6671e-16
9.11961e-16
8.68679e-16
9.14298e-16
8.66888e-16
9.14655e-16
8.66921e-16
9.14064e-16
8.68304e-16
9.13116e-16
8.65185e-16
9.13971e-16
8.71219e-16
9.138e-16
8.6985e-16
9.15857e-16
8.70815e-16
9.12843e-16
8.60998e-16
9.11732e-16
8.71712e-16
9.17393e-16
8.72648e-16
9.14958e-16
8.65906e-16
9.14485e-16
8.68032e-16
9.12399e-16
8.68538e-16
9.14905e-16
8.70352e-16
9.13093e-16
8.68608e-16
9.13328e-16
8.6791e-16
9.14731e-16
8.73813e-16
9.17314e-16
8.64704e-16
9.14613e-16
8.70537e-16
9.16289e-16
8.67864e-16
9.15057e-16
8.68943e-16
9.15412e-16
8.68625e-16
9.14985e-16
8.6998e-16
9.1733e-16
8.72408e-16
9.16903e-16
8.70312e-16
9.15948e-16
8.69042e-16
9.16238e-16
8.7084e-16
9.16546e-16
8.70893e-16
9.16821e-16
8.65607e-16
9.15081e-16
8.68502e-16
9.11592e-16
8.68571e-16
9.17306e-16
8.72884e-16
9.17712e-16
8.70524e-16
9.16775e-16
8.68941e-16
9.18939e-16
8.73718e-16
9.20708e-16
8.73158e-16
9.18469e-16
8.721e-16
9.20763e-16
8.73938e-16
9.18643e-16
8.72534e-16
9.17965e-16
8.73196e-16
9.20411e-16
8.73059e-16
9.16611e-16
8.71558e-16
9.18435e-16
8.73618e-16
9.20022e-16
8.74146e-16
9.18989e-16
8.71561e-16
9.21393e-16
8.71041e-16
9.16409e-16
8.70633e-16
9.17992e-16
8.73343e-16
9.16134e-16
8.70091e-16
9.15699e-16
8.68448e-16
9.15133e-16
8.65698e-16
9.13561e-16
8.70682e-16
9.1411e-16
8.70364e-16
9.16596e-16
8.66769e-16
9.16741e-16
8.75028e-16
9.17351e-16
8.72274e-16
9.16512e-16
8.7048e-16
9.17582e-16
8.69901e-16
9.15559e-16
8.69657e-16
9.14662e-16
8.72226e-16
9.17798e-16
8.70619e-16
9.16745e-16
8.70635e-16
9.23635e-16
8.68642e-16
9.17298e-16
8.68874e-16
9.12993e-16
8.68931e-16
9.15229e-16
8.67386e-16
9.1366e-16
8.66561e-16
9.13375e-16
8.68941e-16
9.16058e-16
8.6849e-16
9.14426e-16
8.6846e-16
9.15734e-16
8.674e-16
9.16205e-16
8.70162e-16
9.17166e-16
8.71316e-16
9.17718e-16
8.71915e-16
9.15356e-16
8.64724e-16
9.12597e-16
8.67367e-16
9.1557e-16
8.74381e-16
9.15188e-16
8.65323e-16
9.13292e-16
8.66633e-16
9.11829e-16
8.654e-16
9.14042e-16
8.67901e-16
9.1156e-16
8.65204e-16
9.12543e-16
8.65446e-16
9.10989e-16
8.72107e-16
9.13545e-16
8.65463e-16
9.12223e-16
8.68995e-16
9.15422e-16
8.68629e-16
9.15906e-16
8.6791e-16
9.14221e-16
8.68287e-16
9.14836e-16
8.68758e-16
9.15245e-16
8.70851e-16
9.15668e-16
8.68439e-16
9.14793e-16
8.68328e-16
9.1446e-16
8.68787e-16
9.14034e-16
8.69004e-16
9.14597e-16
8.66926e-16
9.17898e-16
8.70559e-16
9.14896e-16
8.67069e-16
9.1349e-16
8.71317e-16
9.19466e-16
8.73626e-16
9.18471e-16
8.70345e-16
9.17322e-16
8.70592e-16
9.17677e-16
8.73968e-16
9.19574e-16
8.72607e-16
9.1944e-16
8.73082e-16
9.1963e-16
8.73237e-16
9.16735e-16
8.72357e-16
9.19573e-16
8.72671e-16
9.17602e-16
8.67719e-16
9.15029e-16
8.6981e-16
9.16315e-16
8.73286e-16
9.15598e-16
8.70091e-16
9.17833e-16
8.73711e-16
9.1863e-16
8.7049e-16
9.17873e-16
8.73705e-16
9.16395e-16
8.71606e-16
9.13077e-16
8.68666e-16
9.13725e-16
8.64009e-16
9.11712e-16
8.68675e-16
9.12443e-16
8.67178e-16
9.13152e-16
8.65727e-16
9.1618e-16
8.73452e-16
9.15788e-16
8.6892e-16
9.14619e-16
8.67853e-16
9.13545e-16
8.66472e-16
9.15079e-16
8.68697e-16
9.13995e-16
8.69634e-16
9.17993e-16
8.69874e-16
9.14375e-16
8.74316e-16
9.24706e-16
9.13328e-16
8.67364e-16
9.13892e-16
8.67316e-16
9.15398e-16
8.68377e-16
9.13918e-16
8.67754e-16
9.1422e-16
8.65394e-16
9.11771e-16
8.67053e-16
9.14838e-16
8.68704e-16
9.14344e-16
8.67941e-16
9.16815e-16
8.7113e-16
9.19008e-16
8.72213e-16
9.20808e-16
8.74537e-16
9.17649e-16
8.69812e-16
9.16706e-16
8.69689e-16
9.1745e-16
8.66948e-16
9.17408e-16
8.75605e-16
9.16908e-16
8.692e-16
9.16255e-16
8.69925e-16
9.14168e-16
8.69178e-16
9.14587e-16
8.71256e-16
9.12971e-16
8.66978e-16
9.15064e-16
8.66389e-16
9.15048e-16
8.69828e-16
9.1374e-16
8.67146e-16
9.11636e-16
8.65825e-16
9.12245e-16
8.69448e-16
9.1565e-16
8.68298e-16
9.13726e-16
8.6602e-16
9.1406e-16
8.65814e-16
9.1237e-16
8.67366e-16
9.14382e-16
8.66711e-16
9.15745e-16
8.6818e-16
9.15011e-16
8.68449e-16
9.17613e-16
8.71222e-16
9.17449e-16
8.69884e-16
9.18293e-16
8.74867e-16
9.22132e-16
8.71209e-16
9.16386e-16
8.69942e-16
9.18304e-16
8.76502e-16
9.19648e-16
8.71827e-16
9.20042e-16
8.70101e-16
9.16731e-16
8.72753e-16
9.19982e-16
8.74131e-16
9.18883e-16
8.70035e-16
9.17051e-16
8.72408e-16
9.14856e-16
8.69907e-16
9.14292e-16
8.72291e-16
9.16837e-16
8.6927e-16
9.14253e-16
8.66362e-16
9.13958e-16
8.70897e-16
9.15645e-16
8.68309e-16
9.13685e-16
8.72262e-16
9.17241e-16
8.69418e-16
9.16998e-16
8.69866e-16
9.15054e-16
8.68138e-16
9.11934e-16
8.65767e-16
9.12341e-16
8.63495e-16
9.10448e-16
8.66854e-16
9.10552e-16
8.64127e-16
9.11221e-16
8.62072e-16
9.13268e-16
8.69201e-16
9.13086e-16
8.65515e-16
9.13047e-16
8.6731e-16
9.14482e-16
8.66748e-16
9.16119e-16
8.71398e-16
9.16314e-16
8.70689e-16
9.18934e-16
8.73829e-16
9.20137e-16
8.72782e-16
9.19257e-16
8.66948e-16
9.13059e-16
8.66021e-16
9.09252e-16
8.64116e-16
9.1229e-16
8.67444e-16
9.13871e-16
8.68722e-16
9.15033e-16
8.67654e-16
9.14527e-16
8.68108e-16
9.14972e-16
8.69684e-16
9.15591e-16
8.6759e-16
9.16179e-16
8.69814e-16
9.1563e-16
8.70193e-16
9.19727e-16
8.76337e-16
9.19489e-16
8.70443e-16
9.16354e-16
8.72678e-16
9.17367e-16
8.67025e-16
9.18547e-16
8.76462e-16
9.17339e-16
8.70817e-16
9.17459e-16
8.68044e-16
9.15539e-16
8.69021e-16
9.14829e-16
8.67268e-16
9.12371e-16
8.6493e-16
9.12436e-16
8.67376e-16
9.14325e-16
8.68061e-16
9.15506e-16
8.68805e-16
9.15249e-16
8.65309e-16
9.15122e-16
8.685e-16
9.15773e-16
8.70286e-16
9.14722e-16
8.67522e-16
9.15139e-16
8.6777e-16
9.16835e-16
8.7141e-16
9.17558e-16
8.71103e-16
9.19748e-16
8.72749e-16
9.19067e-16
8.72352e-16
9.19517e-16
8.74691e-16
9.22539e-16
8.73467e-16
9.17233e-16
8.74338e-16
9.20121e-16
8.74214e-16
9.21871e-16
8.71288e-16
9.2046e-16
8.78643e-16
9.2115e-16
8.74414e-16
9.21496e-16
8.72888e-16
9.18296e-16
8.70423e-16
9.1817e-16
8.73976e-16
9.21174e-16
8.68892e-16
9.19535e-16
8.71874e-16
9.18861e-16
8.68565e-16
9.1192e-16
8.68493e-16
9.15701e-16
8.69947e-16
9.13698e-16
8.64583e-16
9.12373e-16
8.66975e-16
9.13653e-16
8.64962e-16
9.13069e-16
8.66929e-16
9.15867e-16
8.69234e-16
9.17117e-16
8.70951e-16
9.1724e-16
8.70637e-16
9.17871e-16
8.70326e-16
9.18167e-16
8.68435e-16
9.16505e-16
8.68566e-16
9.12221e-16
8.6742e-16
9.14265e-16
8.66204e-16
9.15015e-16
8.69207e-16
9.15339e-16
8.68384e-16
9.16057e-16
8.71004e-16
9.17843e-16
8.68899e-16
9.1732e-16
8.7264e-16
9.18907e-16
8.7252e-16
9.20093e-16
8.76205e-16
9.23743e-16
8.72405e-16
9.25223e-16
8.67472e-16
9.14789e-16
8.67601e-16
9.14722e-16
8.65428e-16
9.13235e-16
8.68534e-16
9.1445e-16
8.68257e-16
9.14172e-16
8.67655e-16
9.14254e-16
8.67442e-16
9.14525e-16
8.69733e-16
9.15348e-16
8.68379e-16
9.18187e-16
8.69741e-16
9.1592e-16
8.69124e-16
9.16864e-16
8.77209e-16
9.20141e-16
8.70736e-16
9.17052e-16
8.73827e-16
9.17886e-16
8.66561e-16
9.18008e-16
8.73083e-16
9.1748e-16
8.72634e-16
9.17378e-16
8.6916e-16
9.16373e-16
8.72049e-16
9.174e-16
8.68384e-16
9.16689e-16
8.66555e-16
9.12528e-16
8.6555e-16
9.1004e-16
8.64679e-16
9.11786e-16
8.70498e-16
9.14524e-16
8.67634e-16
9.17556e-16
8.69666e-16
9.16619e-16
8.72403e-16
9.17979e-16
8.71209e-16
9.17295e-16
8.70904e-16
9.19007e-16
8.73422e-16
9.18521e-16
8.7209e-16
9.1762e-16
8.72388e-16
9.19086e-16
8.71431e-16
9.16169e-16
8.72801e-16
9.20585e-16
8.74634e-16
9.18639e-16
8.71373e-16
9.15113e-16
8.72147e-16
9.18409e-16
8.69262e-16
9.17889e-16
8.746e-16
9.18358e-16
8.74829e-16
9.19362e-16
8.75023e-16
9.221e-16
8.72948e-16
9.19701e-16
8.76033e-16
9.2017e-16
8.71599e-16
9.20745e-16
8.72785e-16
9.21495e-16
8.70982e-16
9.15786e-16
8.68929e-16
9.17076e-16
8.71414e-16
9.13915e-16
8.6674e-16
9.15837e-16
8.70118e-16
9.14454e-16
8.67958e-16
9.1561e-16
8.67644e-16
9.17533e-16
8.70773e-16
9.16677e-16
8.71515e-16
9.17643e-16
8.72982e-16
9.172e-16
8.71809e-16
9.15233e-16
8.70463e-16
9.16508e-16
8.68854e-16
9.13123e-16
8.64138e-16
9.11195e-16
8.6596e-16
9.13666e-16
8.6675e-16
9.14006e-16
8.67251e-16
9.16472e-16
8.71113e-16
9.17571e-16
8.70391e-16
9.18387e-16
8.74007e-16
9.20943e-16
8.74013e-16
9.21399e-16
8.7859e-16
9.22373e-16
8.79229e-16
9.37909e-16
8.6978e-16
9.13461e-16
8.68605e-16
9.16454e-16
8.65884e-16
9.12881e-16
8.67841e-16
9.14314e-16
8.68271e-16
9.15053e-16
8.6782e-16
9.12637e-16
8.65161e-16
9.12865e-16
8.68666e-16
9.15463e-16
8.69371e-16
9.17622e-16
8.71106e-16
9.20446e-16
8.7018e-16
9.19321e-16
8.78416e-16
9.22283e-16
8.71513e-16
9.18827e-16
8.76465e-16
9.1973e-16
8.71225e-16
9.18214e-16
8.70324e-16
9.15805e-16
8.70425e-16
9.15721e-16
8.67842e-16
9.12424e-16
8.68651e-16
9.11494e-16
8.65977e-16
9.13982e-16
8.69656e-16
9.15218e-16
8.67027e-16
9.12997e-16
8.6513e-16
9.10393e-16
8.70088e-16
9.12958e-16
8.68382e-16
9.15735e-16
8.67716e-16
9.14814e-16
8.70484e-16
9.15548e-16
8.70796e-16
9.15283e-16
8.68621e-16
9.15776e-16
8.69694e-16
9.17037e-16
8.70844e-16
9.16412e-16
8.71069e-16
9.17828e-16
8.71569e-16
9.16402e-16
8.73065e-16
9.18125e-16
8.75484e-16
9.18743e-16
8.70208e-16
9.14065e-16
8.70787e-16
9.14568e-16
8.68296e-16
9.17078e-16
8.68898e-16
9.16602e-16
8.71569e-16
9.16499e-16
8.72258e-16
9.18103e-16
8.71668e-16
9.22411e-16
8.7586e-16
9.19166e-16
8.72405e-16
9.18662e-16
8.72773e-16
9.21778e-16
8.73215e-16
9.18854e-16
8.67953e-16
9.18781e-16
8.72589e-16
9.14442e-16
8.67467e-16
9.1731e-16
8.73144e-16
9.18307e-16
8.71988e-16
9.17226e-16
8.71101e-16
9.21182e-16
8.74717e-16
9.19989e-16
8.72452e-16
9.20257e-16
8.73546e-16
9.18957e-16
8.69749e-16
9.13215e-16
8.68183e-16
9.13406e-16
8.7002e-16
9.1274e-16
8.63977e-16
9.1015e-16
8.6619e-16
9.11894e-16
8.66799e-16
9.12051e-16
8.66648e-16
9.15012e-16
8.72479e-16
9.1861e-16
8.72053e-16
9.19229e-16
8.74016e-16
9.21012e-16
8.75164e-16
9.229e-16
8.79374e-16
9.21334e-16
8.88877e-16
8.67295e-16
9.11306e-16
8.65246e-16
9.11828e-16
8.65125e-16
9.09636e-16
8.64794e-16
9.1228e-16
8.6877e-16
9.16175e-16
8.69766e-16
9.16794e-16
8.67499e-16
9.12799e-16
8.66893e-16
9.16466e-16
8.69545e-16
9.16327e-16
8.71766e-16
9.20291e-16
8.70333e-16
9.21022e-16
8.76559e-16
9.21952e-16
8.71423e-16
9.20174e-16
8.76663e-16
9.19744e-16
8.75329e-16
9.2218e-16
8.74637e-16
9.1788e-16
8.72259e-16
9.16255e-16
8.68801e-16
9.14358e-16
8.67037e-16
9.12013e-16
8.64969e-16
9.10135e-16
8.68011e-16
9.1333e-16
8.65383e-16
9.13611e-16
8.6334e-16
9.09552e-16
8.64807e-16
9.10281e-16
8.65378e-16
9.10156e-16
8.64899e-16
9.13007e-16
8.67941e-16
9.14609e-16
8.70959e-16
9.1766e-16
8.71753e-16
9.16544e-16
8.69558e-16
9.15207e-16
8.69596e-16
9.16359e-16
8.68861e-16
9.16718e-16
8.69555e-16
9.16949e-16
8.7022e-16
9.17025e-16
8.7113e-16
9.15209e-16
8.67022e-16
9.13278e-16
8.69066e-16
9.15015e-16
8.71389e-16
9.17802e-16
8.70568e-16
9.16798e-16
8.69992e-16
9.18464e-16
8.72375e-16
9.16018e-16
8.70623e-16
9.19096e-16
8.74342e-16
9.19939e-16
8.73033e-16
9.154e-16
8.71663e-16
9.16956e-16
8.75095e-16
9.17951e-16
8.68959e-16
9.18444e-16
8.71864e-16
9.17232e-16
8.69756e-16
9.16016e-16
8.71626e-16
9.20886e-16
8.73865e-16
9.18942e-16
8.71371e-16
9.20088e-16
8.75921e-16
9.19766e-16
8.73114e-16
9.17473e-16
8.71082e-16
9.18212e-16
8.69116e-16
9.13808e-16
8.65144e-16
9.10762e-16
8.65876e-16
9.09853e-16
8.6266e-16
9.09139e-16
8.64158e-16
9.10473e-16
8.65054e-16
9.12122e-16
8.65532e-16
9.1347e-16
8.69799e-16
9.18015e-16
8.71378e-16
9.1725e-16
8.70875e-16
9.18263e-16
8.72478e-16
9.20412e-16
8.77238e-16
9.19866e-16
8.69533e-16
9.16442e-16
8.68252e-16
9.16076e-16
8.69223e-16
9.15426e-16
8.67052e-16
9.1458e-16
8.6846e-16
9.14903e-16
8.70029e-16
9.17448e-16
8.71019e-16
9.14823e-16
8.6585e-16
9.15309e-16
8.70584e-16
9.17575e-16
8.74401e-16
9.20286e-16
8.74098e-16
9.233e-16
8.78036e-16
9.23261e-16
8.74442e-16
9.22391e-16
8.75134e-16
9.18495e-16
8.72781e-16
9.19854e-16
8.73964e-16
9.17923e-16
8.70709e-16
9.13345e-16
8.67634e-16
9.12939e-16
8.65766e-16
9.15047e-16
8.6596e-16
9.12049e-16
8.6781e-16
9.1163e-16
8.6636e-16
9.13463e-16
8.67275e-16
9.1409e-16
8.66952e-16
9.14279e-16
8.66392e-16
9.14996e-16
8.67062e-16
9.15833e-16
8.68927e-16
9.1258e-16
8.67967e-16
9.17514e-16
8.73701e-16
9.19768e-16
8.71475e-16
9.1775e-16
8.71502e-16
9.16405e-16
8.70602e-16
9.17168e-16
8.70897e-16
9.1691e-16
8.71008e-16
9.1969e-16
8.72344e-16
9.17398e-16
8.67596e-16
9.13695e-16
8.67138e-16
9.1381e-16
8.70567e-16
9.16737e-16
8.72111e-16
9.1644e-16
8.68868e-16
9.17008e-16
8.73568e-16
9.18492e-16
8.70507e-16
9.1675e-16
8.72442e-16
9.20346e-16
8.72499e-16
9.17069e-16
8.68954e-16
9.15873e-16
8.73023e-16
9.13617e-16
8.6802e-16
9.14498e-16
8.68623e-16
9.16421e-16
8.69161e-16
9.13685e-16
8.68126e-16
9.15901e-16
8.72696e-16
9.19281e-16
8.70478e-16
9.17272e-16
8.7316e-16
9.20775e-16
8.74283e-16
9.19004e-16
8.70284e-16
9.15443e-16
8.6929e-16
9.1651e-16
8.66856e-16
9.14066e-16
8.64819e-16
9.10552e-16
8.62653e-16
9.10088e-16
8.64741e-16
9.12474e-16
8.67553e-16
9.17262e-16
8.70501e-16
9.18703e-16
8.7155e-16
9.19626e-16
8.74818e-16
9.20157e-16
8.71015e-16
9.19784e-16
8.73187e-16
9.22042e-16
8.76558e-16
9.22114e-16
8.7128e-16
9.16375e-16
8.70523e-16
9.143e-16
8.69537e-16
9.151e-16
8.6809e-16
9.15062e-16
8.68339e-16
9.14968e-16
8.6987e-16
9.13555e-16
8.71262e-16
9.1657e-16
8.66048e-16
9.14422e-16
8.70017e-16
9.15355e-16
8.7137e-16
9.19093e-16
8.73426e-16
9.20699e-16
8.76937e-16
9.2012e-16
8.75718e-16
9.20346e-16
8.73171e-16
9.183e-16
8.70779e-16
9.15818e-16
8.71455e-16
9.17676e-16
8.6932e-16
9.12949e-16
8.65845e-16
9.10364e-16
8.63669e-16
9.10321e-16
8.644e-16
9.13303e-16
8.67147e-16
9.12934e-16
8.66829e-16
9.12608e-16
8.67068e-16
9.12797e-16
8.68179e-16
9.11096e-16
8.6454e-16
9.12254e-16
8.66477e-16
9.16785e-16
8.71288e-16
9.16242e-16
8.6948e-16
9.17042e-16
8.72711e-16
9.17552e-16
8.70374e-16
9.17255e-16
8.70839e-16
9.14373e-16
8.68333e-16
9.16538e-16
8.71698e-16
9.1792e-16
8.72166e-16
9.18738e-16
8.75346e-16
9.18862e-16
8.69623e-16
9.17132e-16
8.67863e-16
9.15455e-16
8.68811e-16
9.15553e-16
8.70787e-16
9.16863e-16
8.68822e-16
9.16585e-16
8.72515e-16
9.18758e-16
8.71633e-16
9.18469e-16
8.70149e-16
9.18588e-16
8.73435e-16
9.17907e-16
8.69519e-16
9.17653e-16
8.73239e-16
9.16053e-16
8.67417e-16
9.12081e-16
8.65496e-16
9.12255e-16
8.68433e-16
9.15689e-16
8.66475e-16
9.12915e-16
8.68678e-16
9.17838e-16
8.72383e-16
9.18002e-16
8.73049e-16
9.18995e-16
8.75811e-16
9.2239e-16
8.72479e-16
9.1563e-16
8.69332e-16
9.13881e-16
8.67841e-16
9.15509e-16
8.67208e-16
9.13202e-16
8.66882e-16
9.1358e-16
8.67048e-16
9.14175e-16
8.6966e-16
9.16968e-16
8.72493e-16
9.20662e-16
8.72799e-16
9.18583e-16
8.75297e-16
9.20494e-16
8.73406e-16
9.20027e-16
8.73617e-16
9.22928e-16
8.77307e-16
9.21558e-16
8.68326e-16
9.1463e-16
8.69549e-16
9.12946e-16
8.67274e-16
9.11496e-16
8.67131e-16
9.15013e-16
8.67714e-16
9.15329e-16
8.67737e-16
9.11422e-16
8.68341e-16
9.14236e-16
8.67403e-16
9.16828e-16
8.70127e-16
9.14237e-16
8.68149e-16
9.18845e-16
8.73323e-16
9.2287e-16
8.76343e-16
9.20639e-16
8.75862e-16
9.2061e-16
8.72794e-16
9.19217e-16
8.71068e-16
9.15864e-16
8.70789e-16
9.16039e-16
8.71881e-16
9.1484e-16
8.65529e-16
9.14281e-16
8.65333e-16
9.10726e-16
8.65414e-16
9.12291e-16
8.66201e-16
9.13225e-16
8.67741e-16
9.12638e-16
8.66123e-16
9.12005e-16
8.66934e-16
9.12998e-16
8.6554e-16
9.11908e-16
8.65296e-16
9.11795e-16
8.69506e-16
9.15805e-16
8.68888e-16
9.15606e-16
8.68804e-16
9.14516e-16
8.69181e-16
9.15389e-16
8.70507e-16
9.1623e-16
8.68223e-16
9.15769e-16
8.71373e-16
9.19621e-16
8.7188e-16
9.17492e-16
8.74419e-16
9.16326e-16
8.68242e-16
9.15139e-16
8.68506e-16
9.14343e-16
8.66393e-16
9.13437e-16
8.69115e-16
9.15087e-16
8.68781e-16
9.18317e-16
8.71576e-16
9.16582e-16
8.71762e-16
9.18954e-16
8.70213e-16
9.18789e-16
8.75414e-16
9.18995e-16
8.70242e-16
9.15966e-16
8.72311e-16
9.18679e-16
8.68861e-16
9.159e-16
8.66418e-16
9.11364e-16
8.68581e-16
9.15061e-16
8.69647e-16
9.17348e-16
8.70187e-16
9.17494e-16
8.74651e-16
9.19723e-16
8.70792e-16
9.1535e-16
8.72086e-16
9.17596e-16
8.71473e-16
9.17661e-16
8.68884e-16
9.11874e-16
8.65974e-16
9.1156e-16
8.664e-16
9.11933e-16
8.67903e-16
9.13566e-16
8.67111e-16
9.14384e-16
8.70558e-16
9.16568e-16
8.72902e-16
9.19149e-16
8.71216e-16
9.16953e-16
8.72026e-16
9.17446e-16
8.72525e-16
9.17012e-16
8.6917e-16
9.18091e-16
8.74412e-16
9.1848e-16
8.67322e-16
9.13115e-16
8.67654e-16
9.15056e-16
8.67088e-16
9.12247e-16
8.67131e-16
9.16162e-16
8.71568e-16
9.16002e-16
8.69881e-16
9.1639e-16
8.70458e-16
9.13384e-16
8.68537e-16
9.16566e-16
8.6972e-16
9.16455e-16
8.68878e-16
9.16536e-16
8.72017e-16
9.21282e-16
8.7339e-16
9.19239e-16
8.7436e-16
9.18959e-16
8.71922e-16
9.18577e-16
8.70748e-16
9.18875e-16
8.71291e-16
9.15574e-16
8.73187e-16
9.13968e-16
8.64422e-16
9.13623e-16
8.66895e-16
9.14491e-16
8.66882e-16
9.12329e-16
8.64237e-16
9.12922e-16
8.67165e-16
9.12499e-16
8.64735e-16
9.09521e-16
8.64475e-16
9.10125e-16
8.65154e-16
9.14752e-16
8.65633e-16
9.12933e-16
8.68042e-16
9.14519e-16
8.70554e-16
9.1896e-16
8.70307e-16
9.17868e-16
8.71151e-16
9.14761e-16
8.69786e-16
9.17967e-16
8.69748e-16
9.17129e-16
8.70309e-16
9.18739e-16
8.72496e-16
9.17915e-16
8.72553e-16
9.16634e-16
8.70352e-16
9.15793e-16
8.70814e-16
9.16705e-16
8.68701e-16
9.14404e-16
8.6979e-16
9.13063e-16
8.69077e-16
9.1768e-16
8.72177e-16
9.16201e-16
8.71307e-16
9.17228e-16
8.69745e-16
9.20094e-16
8.72061e-16
9.20314e-16
8.72798e-16
9.15453e-16
8.71264e-16
9.16298e-16
8.69777e-16
9.18771e-16
8.68206e-16
9.1791e-16
8.71119e-16
9.15813e-16
8.7002e-16
9.21314e-16
8.71215e-16
9.17543e-16
8.74611e-16
9.19084e-16
8.69597e-16
9.14944e-16
8.69207e-16
9.12794e-16
8.67384e-16
9.1511e-16
8.67193e-16
9.16698e-16
8.66572e-16
9.14138e-16
8.66033e-16
9.13867e-16
8.69189e-16
9.12348e-16
8.6647e-16
9.13048e-16
8.6747e-16
9.14907e-16
8.7096e-16
9.17078e-16
8.6918e-16
9.1452e-16
8.69003e-16
9.14249e-16
8.70535e-16
9.18152e-16
8.68288e-16
9.17243e-16
8.72088e-16
9.19602e-16
8.71933e-16
9.14486e-16
8.69353e-16
9.15557e-16
8.68474e-16
9.12182e-16
8.63248e-16
9.13747e-16
8.7006e-16
9.12991e-16
8.67709e-16
9.15343e-16
8.68946e-16
9.12152e-16
8.65989e-16
9.12468e-16
8.6983e-16
9.20063e-16
8.73172e-16
9.20941e-16
8.74057e-16
9.23077e-16
8.76259e-16
9.2266e-16
8.76942e-16
9.2055e-16
8.73648e-16
9.19234e-16
8.71693e-16
9.2081e-16