/*--------------------------------*- C++ -*----------------------------------*\
| =========                 |                                                 |
| \\      /  F ield         | OpenFOAM: The Open Source CFD Toolbox           |
|  \\    /   O peration     | Version:  2206                                  |
|   \\  /    A nd           | Website:  www.openfoam.com                      |
|    \\/     M anipulation  |                                                 |
\*---------------------------------------------------------------------------*/
FoamFile
{
    version     2.0;
    format      ascii;
    arch        "LSB;label=32;scalar=64";
    class       volVectorField;
    location    "0.6";
    object      wallShearStress;
}
// * * * * * * * * * * * * * * * * * * * * * * * * * * * * * * * * * * * * * //

dimensions      [0 2 -2 0 0 0 0];

internalField   uniform (0 0 0);

boundaryField
{
    wall
    {
        type            calculated;
        value           nonuniform List<vector> 
7990
(
(1.15307e-07 9.94155e-09 -0.000214705)
(-1.16619e-08 -3.61987e-08 -0.000214643)
(-1.08734e-07 -4.04839e-08 -0.000214254)
(-1.76039e-07 -6.06384e-08 -0.000214489)
(-1.13147e-07 -4.18006e-08 -0.000214395)
(3.60974e-08 -2.18412e-10 -0.000214424)
(-1.64501e-07 -6.33892e-08 -0.000214056)
(-2.65284e-07 -8.88088e-08 -0.000214491)
(-2.94564e-07 -1.05548e-07 -0.000214666)
(-3.27375e-07 -1.11531e-07 -0.000214875)
(-3.23419e-07 -1.00824e-07 -0.000214731)
(-3.31344e-07 -9.56128e-08 -0.000215769)
(-3.67497e-07 -1.0887e-07 -0.000215088)
(-2.66011e-07 -9.6378e-08 -0.000215601)
(3.23165e-07 7.95751e-08 -0.00021497)
(2.91726e-07 6.74681e-08 -0.000214896)
(5.41398e-07 1.21607e-07 -0.000214915)
(8.16388e-07 1.90314e-07 -0.000214448)
(5.2755e-07 1.2347e-07 -0.000214517)
(1.44384e-07 2.14268e-08 -0.000214286)
(3.98636e-07 7.73295e-08 -0.000214631)
(3.16339e-07 5.80427e-08 -0.000214291)
(3.13935e-07 7.06612e-08 -0.000213963)
(1.98109e-07 3.62612e-08 -0.00021459)
(1.84883e-07 3.85997e-08 -0.000214555)
(2.78247e-08 -4.7791e-09 -0.000214513)
(-8.92608e-08 -5.76063e-08 -0.00021481)
(1.66324e-07 1.44123e-08 -0.000214782)
(1.27854e-07 2.60057e-08 -0.000214494)
(4.18942e-08 -5.69684e-09 -0.000214656)
(1.93847e-07 3.05206e-08 -0.000214882)
(1.26755e-07 1.56468e-08 -0.000214857)
(2.92802e-07 6.20765e-08 -0.000215054)
(2.96092e-07 7.05333e-08 -0.00021518)
(4.10538e-07 9.48455e-08 -0.000215507)
(3.1535e-07 6.39085e-08 -0.000214822)
(3.33944e-07 6.45257e-08 -0.000214781)
(7.06733e-07 1.8456e-07 -0.000214602)
(3.72501e-07 9.47114e-08 -0.000214671)
(2.99151e-07 6.11196e-08 -0.000214973)
(7.10324e-08 1.46582e-09 -0.000215046)
(-1.01321e-07 -4.41319e-08 -0.000215053)
(-6.42574e-08 -2.09904e-08 -0.000215589)
(1.16595e-07 8.24449e-09 -0.000215126)
(1.05349e-07 8.96365e-09 -0.000215091)
(2.1961e-07 4.22607e-08 -0.000215276)
(-1.2306e-07 -4.55951e-08 -0.000214662)
(-1.56741e-07 -4.45526e-08 -0.000215287)
(-3.53784e-07 -1.03824e-07 -0.000214558)
(-2.13775e-07 -7.85193e-08 -0.000215249)
(-2.88923e-07 -9.801e-08 -0.000214954)
(-4.63355e-07 -1.3613e-07 -0.000214841)
(-3.67213e-07 -1.04982e-07 -0.000215379)
(-4.61821e-07 -1.32051e-07 -0.000215246)
(-1.49772e-07 -6.06648e-08 -0.00021541)
(-3.69203e-08 -2.18772e-08 -0.000214851)
(3.10302e-08 -4.9417e-09 -0.00021462)
(3.30845e-07 6.31996e-08 -0.000214803)
(1.91633e-07 3.1296e-08 -0.000213992)
(3.25355e-07 7.29617e-08 -0.000214219)
(3.65962e-07 8.72014e-08 -0.000214247)
(3.19867e-08 -2.53379e-08 -0.000214214)
(-1.32328e-08 -2.69343e-08 -0.000214917)
(-2.15729e-08 -2.91088e-08 -0.000214873)
(-2.42017e-07 -9.10392e-08 -0.000215196)
(-3.16621e-07 -9.52057e-08 -0.000215428)
(9.29032e-10 -2.45396e-09 -0.000216087)
(2.51074e-07 4.85292e-08 -0.000217157)
(6.06037e-08 2.55707e-08 -0.000218188)
(1.8858e-07 5.99272e-08 -0.000218478)
(1.84746e-07 6.68737e-08 -0.000218086)
(-1.0838e-07 -1.39378e-08 -0.000218173)
(-3.21772e-07 -6.59605e-08 -0.000218252)
(-3.73182e-07 -8.27101e-08 -0.000217988)
(-5.96609e-08 -3.00724e-09 -0.000217969)
(-4.21125e-07 -1.00715e-07 -0.000218361)
(-3.07942e-07 -7.21636e-08 -0.000218627)
(-2.20973e-07 -4.36618e-08 -0.00021894)
(-1.05578e-07 -1.26459e-08 -0.000218828)
(2.53072e-07 9.27939e-08 -0.000219313)
(7.72266e-08 3.37862e-08 -0.00021892)
(9.32232e-08 3.93704e-08 -0.00021896)
(-5.05569e-08 1.17059e-08 -0.000218895)
(-2.04457e-07 -3.4844e-08 -0.000218538)
(-1.43955e-07 -3.66331e-08 -0.000218442)
(9.71339e-09 7.32152e-09 -0.000217945)
(2.16767e-07 7.91609e-08 -0.000217891)
(3.1804e-07 9.43964e-08 -0.000218169)
(1.53593e-07 4.51848e-08 -0.000218256)
(9.9869e-08 3.39544e-08 -0.000217928)
(4.25605e-07 1.24553e-07 -0.000217636)
(4.72868e-07 1.45735e-07 -0.000217988)
(4.74352e-07 1.52187e-07 -0.000218389)
(-1.60263e-07 -3.32233e-08 -0.000218316)
(-2.372e-07 -6.42416e-08 -0.000218318)
(-2.94084e-07 -7.39221e-08 -0.000218279)
(2.57287e-08 2.60369e-08 -0.000218356)
(-3.68722e-08 1.12583e-08 -0.000218524)
(-3.09763e-08 -1.13577e-09 -0.000218493)
(1.38075e-07 5.58571e-08 -0.000218679)
(2.76502e-07 9.12959e-08 -0.000218522)
(4.76129e-07 1.49199e-07 -0.00021881)
(7.05699e-07 2.04635e-07 -0.000218766)
(4.35531e-07 1.23017e-07 -0.000218153)
(2.05894e-07 6.52099e-08 -0.000218237)
(3.24284e-07 1.08679e-07 -0.000218635)
(1.52615e-07 5.81033e-08 -0.000218583)
(1.07012e-07 3.37293e-08 -0.000218523)
(3.83481e-07 1.18798e-07 -0.000218748)
(2.70997e-07 1.00892e-07 -0.000219291)
(-1.25028e-07 -9.51629e-09 -0.000218949)
(2.10676e-07 6.97361e-08 -0.000218779)
(-8.91441e-08 -9.2195e-09 -0.000219165)
(-2.44656e-07 -5.14721e-08 -0.000218966)
(-1.50992e-07 -2.43889e-08 -0.000218949)
(5.96155e-08 3.44242e-08 -0.000218443)
(3.73881e-07 1.24466e-07 -0.000218718)
(-2.03096e-08 8.34229e-09 -0.000218797)
(1.28088e-07 5.09568e-08 -0.000218605)
(-1.64999e-08 2.08322e-08 -0.000219081)
(-2.38011e-07 -4.01846e-08 -0.000219041)
(-5.45588e-08 1.01333e-08 -0.000219175)
(-9.44568e-08 -1.52484e-08 -0.000218974)
(-2.0461e-08 1.34999e-08 -0.000218209)
(2.99672e-07 9.03828e-08 -0.000218189)
(3.20715e-07 9.04182e-08 -0.000218033)
(1.00411e-07 3.79333e-08 -0.000217678)
(5.34153e-08 3.00996e-08 -0.000217824)
(-1.02476e-07 -1.0919e-08 -0.000217837)
(-1.24495e-07 -2.52961e-08 -0.000218122)
(-2.35532e-07 -6.32538e-08 -0.000218625)
(1.98262e-08 1.1122e-08 -0.000218799)
(8.14998e-08 3.12207e-08 -0.000219016)
(1.29281e-07 5.99776e-08 -0.000219368)
(-2.56437e-08 8.0096e-09 -0.000219264)
(2.97646e-08 -7.65448e-09 -0.000214386)
(1.31238e-07 1.03894e-08 -0.000214186)
(4.0815e-07 4.48983e-08 -0.000214052)
(-7.88302e-08 -2.23226e-08 -0.000214004)
(-2.27637e-07 -5.81463e-08 -0.000214482)
(-2.55436e-07 -5.55902e-08 -0.000214672)
(-5.62504e-08 -3.25456e-08 -0.00021437)
(-4.71361e-07 -9.19009e-08 -0.000214358)
(-2.69374e-07 -4.75239e-08 -0.00021471)
(3.17758e-08 -4.21509e-09 -0.000214929)
(1.37702e-07 7.04328e-09 -0.000214814)
(-6.0014e-08 -2.75504e-08 -0.000215532)
(-1.35734e-07 -2.89095e-08 -0.000214989)
(-2.61241e-07 -6.5671e-08 -0.000215755)
(-1.55729e-07 -5.08589e-08 -0.000215587)
(-3.81193e-08 -1.82744e-08 -0.000215506)
(-1.13e-07 -2.41601e-08 -0.000215282)
(2.34125e-07 2.48927e-08 -0.00021475)
(2.21744e-07 1.87955e-08 -0.00021438)
(2.1296e-07 1.47168e-08 -0.00021409)
(1.94e-07 1.56901e-08 -0.0002144)
(1.88996e-07 1.51129e-08 -0.000214062)
(4.10627e-07 5.15699e-08 -0.00021373)
(1.61011e-07 4.77378e-09 -0.000213848)
(2.7636e-07 1.6516e-08 -0.00021406)
(2.59132e-08 -1.0423e-09 -0.000214026)
(-3.2601e-07 -5.38552e-08 -0.000214452)
(-2.5657e-07 -5.94135e-08 -0.000214854)
(1.24682e-07 -1.59731e-09 -0.000214894)
(8.72418e-08 7.07947e-09 -0.000214579)
(9.58792e-08 -2.57516e-10 -0.000214708)
(1.39561e-07 1.39194e-09 -0.000214572)
(2.31201e-07 1.52301e-08 -0.00021473)
(3.63846e-07 4.04487e-08 -0.000214813)
(2.83615e-07 2.39294e-08 -0.000214844)
(2.11051e-07 2.28802e-08 -0.000214356)
(-1.69061e-08 -1.45357e-08 -0.000214509)
(4.92411e-07 6.1138e-08 -0.00021495)
(5.71476e-07 7.631e-08 -0.000214841)
(2.64192e-07 1.94602e-08 -0.000214799)
(3.84908e-07 4.13276e-08 -0.000215004)
(3.32797e-07 3.15411e-08 -0.000214851)
(9.77571e-08 2.14609e-09 -0.000215354)
(2.21567e-07 1.94315e-08 -0.000215152)
(1.02916e-07 1.62173e-09 -0.000214921)
(2.91112e-07 4.11504e-08 -0.00021544)
(2.96261e-07 3.06725e-08 -0.000214804)
(1.01489e-07 -1.71707e-08 -0.000215185)
(1.88687e-07 9.63927e-09 -0.000214773)
(-1.22248e-07 -3.34578e-08 -0.000215093)
(-7.27894e-08 -3.8577e-08 -0.000215168)
(-3.46448e-07 -8.08493e-08 -0.000214908)
(-1.7133e-07 -4.36709e-08 -0.00021557)
(-9.64064e-09 -4.17202e-09 -0.000215362)
(-2.19692e-07 -4.85198e-08 -0.000215129)
(3.81742e-08 -5.12186e-10 -0.000214751)
(1.28287e-08 -1.19684e-09 -0.000214162)
(-4.44029e-08 -1.71961e-08 -0.000214224)
(9.6401e-08 -3.72301e-10 -0.000213804)
(-8.72457e-08 -3.57802e-08 -0.000213935)
(-1.90017e-07 -4.47254e-08 -0.00021396)
(-1.42268e-07 -4.56137e-08 -0.000214011)
(-2.70963e-07 -6.82502e-08 -0.000214563)
(1.88627e-07 1.06252e-08 -0.000214755)
(1.62695e-07 2.51545e-09 -0.000214761)
(-5.35522e-10 -1.86436e-08 -0.000214962)
(-1.06673e-07 -2.79784e-08 -0.000215756)
(-2.09519e-07 -7.28604e-09 -0.000217917)
(-2.5478e-07 -2.39083e-08 -0.000217893)
(-2.75864e-07 -2.38703e-08 -0.000217547)
(-1.67282e-07 -1.18686e-08 -0.000217947)
(-1.60017e-07 -1.12259e-08 -0.000218407)
(-4.03496e-07 -5.33493e-08 -0.000218522)
(-3.51356e-07 -4.32519e-08 -0.000218002)
(-1.07053e-07 4.00679e-09 -0.00021849)
(-2.18789e-07 -1.32407e-08 -0.000218519)
(-2.15062e-07 -1.47386e-08 -0.000218947)
(-1.8574e-07 -1.4012e-08 -0.000219108)
(-5.43309e-08 2.1859e-09 -0.000219229)
(8.06865e-09 2.15838e-08 -0.000219127)
(6.24876e-08 1.39679e-08 -0.000219087)
(3.21095e-07 6.29336e-08 -0.000219422)
(1.96088e-07 5.64462e-08 -0.000218906)
(3.31921e-07 7.66369e-08 -0.000218652)
(2.74297e-07 5.37396e-08 -0.000218297)
(1.08661e-07 3.20817e-08 -0.00021796)
(1.69607e-07 4.78644e-08 -0.000217696)
(2.4189e-07 5.06406e-08 -0.000217997)
(-5.83054e-08 6.96871e-09 -0.000217957)
(-1.90049e-07 -2.27697e-08 -0.000217497)
(-8.37788e-08 -2.45586e-09 -0.00021765)
(-6.45934e-08 5.91828e-09 -0.000217572)
(5.62418e-08 4.16785e-08 -0.00021802)
(9.50623e-08 3.9624e-08 -0.000218246)
(-2.20588e-07 -2.68298e-08 -0.000218592)
(-1.06632e-07 -5.28523e-09 -0.000218444)
(-6.10807e-08 9.82304e-09 -0.000218322)
(-4.64301e-08 4.26751e-09 -0.000218502)
(-2.54522e-07 -2.46498e-08 -0.000218544)
(-1.00735e-07 -1.01636e-11 -0.000218547)
(-2.61887e-08 1.06399e-08 -0.000218644)
(1.97915e-07 4.11213e-08 -0.000218334)
(4.43855e-07 8.2381e-08 -0.000218027)
(5.20867e-07 1.07749e-07 -0.00021826)
(4.45945e-07 8.81836e-08 -0.000218663)
(1.80847e-07 4.0585e-08 -0.000218603)
(2.86857e-08 1.04591e-08 -0.000218724)
(2.19228e-08 1.00985e-08 -0.000218466)
(4.09667e-07 7.83581e-08 -0.000218827)
(-2.0399e-09 1.72273e-08 -0.000218953)
(1.37741e-07 4.19424e-08 -0.000218343)
(1.89509e-07 5.47597e-08 -0.00021849)
(1.83866e-07 5.18356e-08 -0.000218774)
(1.48802e-10 1.68744e-08 -0.000218944)
(-1.59596e-07 -3.52204e-08 -0.000218685)
(3.56861e-07 7.05491e-08 -0.000218534)
(3.0424e-07 5.70155e-08 -0.000219067)
(-5.01511e-08 -6.81519e-09 -0.000218811)
(2.42238e-07 5.48759e-08 -0.000218983)
(-1.45284e-07 -7.70109e-10 -0.000218998)
(6.22857e-09 2.71484e-08 -0.000218865)
(1.37422e-07 4.16049e-08 -0.000218863)
(-1.95015e-07 -1.25262e-08 -0.000218246)
(-6.45932e-08 1.16003e-08 -0.000217832)
(9.46954e-08 3.54896e-08 -0.000217644)
(8.68444e-08 2.94473e-08 -0.000217517)
(-1.80367e-07 -1.90078e-08 -0.000217666)
(-3.8719e-07 -4.45452e-08 -0.000217848)
(-3.21972e-07 -3.97984e-08 -0.000217986)
(-2.76478e-07 -3.34172e-08 -0.000218506)
(-3.08491e-07 -4.04296e-08 -0.000218539)
(-1.33893e-07 -7.08866e-09 -0.000218658)
(-3.68972e-09 1.78802e-08 -0.000218975)
(-6.21178e-08 8.68174e-09 -0.000219045)
(-1.40668e-07 -2.68192e-08 -0.000214719)
(-3.4011e-07 -2.63779e-08 -0.000214639)
(-1.18713e-07 -2.13736e-08 -0.000214671)
(-1.20548e-07 -1.55439e-08 -0.000214381)
(-2.50253e-07 -2.6849e-08 -0.000214553)
(-4.47305e-07 -4.34885e-08 -0.000214779)
(8.53922e-08 -1.16805e-08 -0.000214846)
(-8.26344e-08 -1.20492e-08 -0.000214213)
(-3.14462e-08 -1.6192e-08 -0.000214873)
(6.57041e-08 -1.34479e-08 -0.000215279)
(2.63446e-07 -4.77357e-09 -0.000215304)
(9.25271e-08 -2.15225e-08 -0.000215804)
(2.19868e-07 -2.97467e-09 -0.000215389)
(4.60705e-08 -9.15889e-10 -0.000215582)
(-4.87438e-08 -9.38299e-09 -0.000215275)
(2.3154e-07 -1.18873e-09 -0.000215416)
(1.5211e-07 -1.73273e-09 -0.000214995)
(2.32754e-07 -1.36191e-09 -0.000214584)
(-3.19227e-08 -2.2865e-08 -0.000214254)
(1.72857e-07 -5.11503e-09 -0.000214216)
(1.32794e-08 -1.97525e-08 -0.000214321)
(-1.20719e-07 -2.61664e-08 -0.000214191)
(7.99662e-08 -1.88418e-08 -0.000214346)
(-7.38104e-08 -9.23178e-09 -0.000214233)
(-2.9528e-07 -3.09006e-08 -0.000214254)
(8.87796e-09 -1.65417e-08 -0.000214363)
(1.33139e-07 -2.61629e-09 -0.000214506)
(-4.55408e-07 -2.99314e-08 -0.000214459)
(-2.00805e-07 -3.51088e-08 -0.000215251)
(-1.68477e-07 -2.58255e-08 -0.000214905)
(-1.45716e-07 -1.8157e-08 -0.000214977)
(-1.92947e-08 -1.53309e-08 -0.000214912)
(8.07292e-08 -1.06772e-08 -0.000214961)
(7.27168e-08 -9.89934e-09 -0.000214949)
(2.3365e-07 -1.02007e-08 -0.000214994)
(3.33469e-07 8.53845e-10 -0.000214373)
(8.99137e-08 -9.53836e-09 -0.000214232)
(1.19875e-07 -1.07837e-08 -0.000214884)
(3.20345e-07 3.21562e-09 -0.000215049)
(9.58473e-08 -6.34541e-09 -0.000214671)
(2.36538e-07 -6.24477e-09 -0.000215214)
(3.6137e-07 3.24167e-09 -0.000214799)
(-1.87918e-09 -2.55007e-08 -0.000215032)
(6.10252e-08 -1.53771e-08 -0.000215036)
(-3.10402e-08 -2.67924e-08 -0.00021456)
(1.45196e-07 -3.48578e-09 -0.000215051)
(4.58831e-07 1.89626e-08 -0.000214673)
(2.16351e-07 -1.31746e-08 -0.000214758)
(5.05776e-07 3.19195e-09 -0.000214612)
(1.03106e-07 -1.7408e-08 -0.000214497)
(7.32265e-08 -2.67136e-08 -0.000215002)
(1.62555e-07 -4.4225e-09 -0.000214755)
(-2.7459e-07 -2.60445e-08 -0.000215142)
(-1.26571e-08 -2.85107e-09 -0.000215407)
(1.47297e-08 -8.79443e-09 -0.000214999)
(-9.20613e-08 -3.12803e-08 -0.000214811)
(-4.72364e-08 -2.1758e-08 -0.000214405)
(-2.24626e-07 -2.50977e-08 -0.000214069)
(-1.29441e-07 -1.75551e-08 -0.000213773)
(-2.96764e-07 -3.1861e-08 -0.000213974)
(-4.87976e-07 -4.70153e-08 -0.000214328)
(-3.98734e-07 -4.28569e-08 -0.000214704)
(-5.45875e-07 -5.45149e-08 -0.000214922)
(-1.12578e-07 -1.56204e-08 -0.00021532)
(1.61233e-09 -9.24055e-09 -0.000214911)
(9.23705e-08 -1.55745e-08 -0.000215184)
(-3.43718e-07 -2.70648e-08 -0.000215649)
(7.04469e-08 2.48617e-08 -0.000218587)
(9.24932e-08 2.30726e-08 -0.000218567)
(-3.72711e-08 1.47443e-08 -0.00021836)
(-8.55518e-08 1.60317e-08 -0.000218312)
(-7.8279e-08 1.08979e-08 -0.00021837)
(-1.04739e-08 1.15573e-08 -0.000218623)
(-2.67323e-07 1.18587e-09 -0.000218273)
(3.04285e-08 2.20157e-08 -0.000218343)
(1.55735e-07 2.41199e-08 -0.000218664)
(-4.55595e-08 1.23888e-08 -0.000218929)
(1.92184e-07 2.96221e-08 -0.000219357)
(2.51006e-08 1.09091e-08 -0.000219373)
(2.03255e-07 2.77848e-08 -0.00021933)
(7.09552e-08 2.34106e-08 -0.000218933)
(4.01055e-07 4.52972e-08 -0.000219113)
(2.17263e-07 3.04537e-08 -0.000218815)
(2.48069e-07 3.80926e-08 -0.000218259)
(3.05281e-07 2.80619e-08 -0.000218123)
(3.4041e-07 2.55682e-08 -0.000218288)
(4.17792e-08 1.76185e-08 -0.000217895)
(7.74072e-08 2.11035e-08 -0.000217801)
(1.02823e-07 1.36696e-08 -0.000218046)
(1.33403e-07 1.70537e-08 -0.000218135)
(2.13571e-07 2.916e-08 -0.000218244)
(3.83947e-08 1.56312e-08 -0.00021827)
(-7.10922e-08 1.04098e-08 -0.000218365)
(-1.1145e-07 1.75541e-08 -0.000217985)
(-1.56954e-08 1.9805e-08 -0.000218669)
(3.53535e-08 6.68147e-09 -0.000218938)
(6.47941e-08 1.62987e-08 -0.00021869)
(1.47653e-07 2.80859e-08 -0.000218573)
(-4.80043e-08 1.97944e-08 -0.000218662)
(-7.97375e-08 8.95703e-09 -0.00021863)
(9.87207e-08 2.06879e-08 -0.000218946)
(-1.54943e-07 7.03186e-09 -0.000218582)
(-1.11003e-07 3.01119e-09 -0.000218087)
(2.64486e-07 3.43471e-08 -0.000218137)
(3.82676e-07 3.27049e-08 -0.000218568)
(3.284e-07 3.54913e-08 -0.00021857)
(8.16132e-08 2.09469e-08 -0.000218609)
(5.37829e-08 2.31594e-08 -0.000218755)
(5.36074e-08 1.92662e-08 -0.000218535)
(-2.98183e-08 5.77738e-09 -0.000218955)
(-1.31675e-07 -3.5361e-09 -0.000218591)
(-6.05276e-08 9.11483e-09 -0.000218363)
(-8.25543e-08 2.35625e-08 -0.000218186)
(2.4911e-07 4.09151e-08 -0.000218424)
(-5.72347e-08 1.09371e-08 -0.000218466)
(-1.77727e-07 -5.74832e-09 -0.000218112)
(1.25316e-07 5.20217e-09 -0.000218385)
(-2.19242e-08 -1.96666e-09 -0.000218758)
(1.42618e-07 1.64914e-08 -0.000218623)
(5.80333e-08 2.86496e-08 -0.00021909)
(-1.76233e-07 1.98567e-08 -0.000218998)
(-1.26448e-08 1.83787e-08 -0.00021857)
(-6.22611e-08 4.97298e-09 -0.000218609)
(-3.30647e-07 -2.22067e-09 -0.000218238)
(-4.64583e-07 -6.03197e-09 -0.000217752)
(-2.96409e-07 -1.86122e-09 -0.000217633)
(-2.38571e-07 2.91243e-09 -0.000217965)
(-2.85918e-07 -4.45726e-10 -0.000218568)
(-2.64932e-07 -1.03705e-09 -0.000218759)
(-1.2812e-07 8.44632e-09 -0.000218827)
(-1.11956e-07 1.5708e-08 -0.000218979)
(-3.46879e-08 1.56957e-08 -0.000219021)
(8.43413e-08 1.92475e-08 -0.000219251)
(1.5969e-07 3.625e-08 -0.000219349)
(1.01268e-07 -1.84177e-08 -0.00021491)
(2.37659e-07 -3.03318e-08 -0.000214922)
(1.35879e-08 -2.32389e-08 -0.000214752)
(7.59579e-08 -1.59456e-08 -0.000214497)
(-1.57494e-08 -6.05747e-09 -0.000214514)
(-3.23783e-08 -1.74676e-08 -0.000214737)
(-1.51418e-08 -1.80754e-08 -0.000214877)
(2.16229e-07 -1.47932e-08 -0.000214234)
(2.16922e-07 -2.44635e-08 -0.000214718)
(-8.83125e-08 -2.13737e-08 -0.000214876)
(1.89109e-07 -1.90773e-08 -0.000215183)
(2.78056e-07 -3.50497e-08 -0.000215633)
(6.14413e-07 -5.96546e-08 -0.000215468)
(3.49496e-07 -2.69706e-08 -0.000215192)
(2.59681e-07 -1.80138e-08 -0.000214939)
(1.73946e-07 -2.44194e-08 -0.000215031)
(2.55612e-07 -2.7233e-08 -0.000214741)
(2.81258e-07 -3.22112e-08 -0.000214268)
(2.24931e-07 -3.02646e-08 -0.000213912)
(8.65098e-08 -1.88402e-08 -0.000213981)
(1.54613e-08 -1.77309e-08 -0.000214205)
(-4.45667e-08 -5.81719e-09 -0.000214192)
(1.30681e-07 -2.13819e-08 -0.000214368)
(4.92775e-07 -4.53266e-08 -0.000214459)
(8.25199e-08 -1.61922e-08 -0.000213954)
(-1.32562e-07 -1.1208e-09 -0.000214347)
(1.13562e-07 -2.53627e-08 -0.00021484)
(1.99971e-08 -7.96729e-09 -0.000214618)
(-6.56131e-08 -1.7547e-09 -0.000215168)
(-2.17509e-10 -1.31715e-08 -0.000214846)
(5.16762e-08 -1.68721e-08 -0.000214874)
(-1.5989e-07 -6.08273e-10 -0.000214598)
(1.21962e-08 -1.18284e-08 -0.000215061)
(-6.93219e-08 -1.36225e-08 -0.000215063)
(1.3255e-07 -3.30731e-08 -0.000215428)
(1.64853e-07 -3.08421e-08 -0.000214702)
(2.34399e-07 -2.93266e-08 -0.000214412)
(-7.02879e-08 -4.90034e-10 -0.000214633)
(-1.32464e-10 -1.96385e-08 -0.000214888)
(4.34436e-08 -1.6234e-08 -0.000214663)
(-6.47398e-08 -1.02579e-08 -0.000215145)
(1.8223e-07 -2.79401e-08 -0.000215028)
(-1.6688e-07 -7.8452e-09 -0.000214754)
(-5.09815e-08 -1.13875e-08 -0.000215163)
(-7.362e-08 -1.19382e-08 -0.000214685)
(-1.57492e-07 -2.00851e-08 -0.000215112)
(2.98065e-08 -1.02667e-08 -0.000214562)
(-2.07877e-08 -8.03821e-09 -0.000214321)
(1.47257e-07 -2.96256e-08 -0.000214506)
(2.21067e-07 -2.23934e-08 -0.000214203)
(-1.40382e-07 -6.4619e-09 -0.000214368)
(3.92142e-07 -3.93496e-08 -0.000214941)
(2.19947e-07 -3.59451e-08 -0.000215154)
(9.43318e-11 -2.92872e-08 -0.000215575)
(9.89116e-08 -1.56476e-08 -0.000215302)
(-5.47295e-08 -8.30737e-09 -0.000214845)
(-1.57902e-07 -9.43308e-09 -0.000214626)
(-3.21759e-07 3.97815e-09 -0.000214417)
(-2.62777e-07 5.52879e-10 -0.00021436)
(-3.07435e-07 2.80565e-09 -0.00021433)
(-2.31282e-07 -9.21689e-09 -0.000214685)
(-1.93748e-07 -1.00895e-08 -0.00021499)
(-2.03284e-07 -4.23495e-09 -0.000215123)
(-1.42761e-07 -4.75729e-09 -0.000215416)
(2.0177e-07 -1.22529e-08 -0.000215254)
(2.51342e-07 -2.9422e-08 -0.000215318)
(2.05876e-07 -3.15592e-08 -0.000215733)
(2.4444e-07 3.75045e-09 -0.000218533)
(2.02933e-07 3.38873e-09 -0.000218344)
(2.14224e-07 -1.97907e-09 -0.000218291)
(2.26016e-08 1.53712e-08 -0.000218263)
(8.73292e-08 1.40226e-08 -0.000218336)
(2.36415e-08 1.02222e-08 -0.000218146)
(9.56114e-08 1.5111e-08 -0.000218446)
(-8.79583e-08 2.69894e-08 -0.000218207)
(1.44488e-07 9.61594e-09 -0.000218354)
(-4.55756e-08 1.52778e-08 -0.000218766)
(1.01646e-07 3.24282e-09 -0.00021904)
(1.00728e-07 6.616e-09 -0.000218976)
(2.5671e-07 -8.89547e-10 -0.000218957)
(8.87994e-08 1.30687e-08 -0.00021878)
(1.27132e-07 1.22808e-08 -0.000218579)
(1.40587e-07 4.60645e-09 -0.000218704)
(-1.01351e-07 2.519e-08 -0.000218125)
(-2.55143e-07 2.64731e-08 -0.000217736)
(1.8382e-08 1.21676e-08 -0.00021767)
(1.2103e-07 -1.32537e-10 -0.000218007)
(-1.14254e-07 2.25696e-08 -0.000217911)
(7.11077e-08 2.40077e-08 -0.000217942)
(1.23528e-07 5.79332e-09 -0.000217971)
(1.05453e-07 -5.59947e-10 -0.000217781)
(2.1315e-07 8.12086e-09 -0.00021792)
(3.30484e-07 -1.16947e-09 -0.000218491)
(4.1916e-08 8.31649e-09 -0.000218392)
(2.11016e-07 1.39145e-08 -0.000218591)
(1.84446e-07 8.52071e-09 -0.000218692)
(1.07455e-07 1.12359e-08 -0.00021862)
(-1.35219e-08 1.4783e-08 -0.000218284)
(2.10127e-07 1.67735e-08 -0.000218575)
(2.69114e-08 1.88622e-08 -0.000218764)
(1.39052e-07 2.11776e-09 -0.000218854)
(1.39935e-08 4.42274e-09 -0.000218797)
(-7.53209e-08 1.53119e-08 -0.000218553)
(-1.42814e-09 1.794e-08 -0.000218354)
(1.71541e-07 1.03629e-08 -0.000218464)
(1.39154e-07 8.27608e-09 -0.000218576)
(6.46704e-09 1.63688e-08 -0.000218599)
(2.42018e-07 -5.38043e-09 -0.000218853)
(1.7097e-07 5.52162e-09 -0.000218799)
(-3.523e-08 2.41633e-08 -0.000218765)
(-1.91103e-07 3.19009e-08 -0.000218725)
(-1.03028e-07 1.72733e-08 -0.000218633)
(-4.07559e-07 3.71775e-08 -0.000218497)
(-1.05946e-07 2.90494e-08 -0.000218177)
(4.7854e-09 1.38865e-08 -0.000217977)
(-1.03755e-07 1.99111e-08 -0.00021829)
(-4.23163e-07 3.46321e-08 -0.000217965)
(-8.05019e-08 1.70469e-08 -0.000218517)
(8.86767e-08 -3.15771e-09 -0.000218671)
(2.70965e-07 -8.46049e-09 -0.000218906)
(2.09154e-08 2.10007e-08 -0.000219344)
(-3.17639e-07 3.33313e-08 -0.000218578)
(1.02077e-07 1.28679e-08 -0.000218348)
(2.05945e-07 -1.42864e-09 -0.00021842)
(-1.82018e-07 2.46756e-08 -0.000218104)
(-9.37613e-08 1.65292e-08 -0.000218123)
(-1.57955e-07 2.03538e-08 -0.000218191)
(-2.38697e-07 2.34592e-08 -0.000218563)
(-5.51608e-08 2.01862e-08 -0.00021901)
(8.90993e-08 1.21478e-08 -0.000218729)
(2.31394e-07 1.25835e-08 -0.000218967)
(3.21013e-07 2.4851e-09 -0.000219072)
(3.56415e-07 -7.15998e-09 -0.000219354)
(1.47547e-07 9.28607e-09 -0.000219227)
(9.75997e-08 -3.38605e-08 -0.000214537)
(2.95762e-07 -5.95593e-08 -0.000214694)
(9.1349e-08 -3.69762e-08 -0.000214385)
(6.80367e-08 -3.56095e-08 -0.00021434)
(4.99342e-08 -1.86696e-08 -0.000214361)
(1.44947e-07 -2.29388e-08 -0.000214414)
(-3.54315e-08 -1.08852e-08 -0.000214486)
(2.52107e-07 -6.63565e-08 -0.000214425)
(3.66247e-07 -6.62586e-08 -0.000214723)
(-1.45545e-07 5.15207e-09 -0.000214408)
(-6.64121e-08 -1.05892e-08 -0.000215202)
(-8.16944e-08 3.62409e-09 -0.000215551)
(1.75515e-07 -4.87591e-08 -0.000215504)
(1.30104e-07 -3.89491e-08 -0.000215115)
(1.37359e-07 -3.39906e-08 -0.00021497)
(-5.83055e-08 -7.85879e-09 -0.000214964)
(1.21332e-07 -3.73541e-08 -0.000215096)
(-2.43596e-07 1.73964e-08 -0.000214258)
(4.74861e-08 -2.24967e-08 -0.000214159)
(6.70393e-08 -3.39666e-08 -0.000214133)
(-4.04977e-08 -9.65114e-09 -0.000214197)
(1.22095e-07 -3.38873e-08 -0.000214295)
(6.13121e-09 -8.91568e-09 -0.000214189)
(7.23991e-08 -3.64269e-08 -0.000214326)
(3.60182e-07 -7.9402e-08 -0.000214015)
(2.78416e-07 -5.47942e-08 -0.000214087)
(1.8238e-07 -4.69191e-08 -0.000214582)
(3.75768e-07 -7.03356e-08 -0.000214484)
(7.04983e-08 -1.87662e-08 -0.00021455)
(1.51224e-07 -2.95552e-08 -0.000214636)
(1.72882e-07 -4.68098e-08 -0.000214782)
(1.44056e-07 -3.19685e-08 -0.000214554)
(-1.62299e-08 -6.19931e-09 -0.000214975)
(-4.67556e-08 -6.57339e-09 -0.000215036)
(-4.44331e-08 -1.1344e-08 -0.000215347)
(-1.51744e-08 -9.81008e-09 -0.000214512)
(4.2435e-07 -8.05897e-08 -0.000214495)
(1.49059e-07 -4.05894e-08 -0.000214256)
(4.50459e-08 -2.69331e-08 -0.000214623)
(1.80684e-07 -5.18439e-08 -0.000214628)
(1.40964e-07 -3.77472e-08 -0.000214975)
(1.55549e-07 -3.83808e-08 -0.000214996)
(2.70915e-08 -1.72419e-08 -0.000214802)
(3.14279e-08 -1.58812e-08 -0.000215482)
(-9.35383e-08 1.6582e-08 -0.000214797)
(-4.23177e-07 6.50244e-08 -0.000215054)
(-2.61308e-07 3.64019e-08 -0.000214809)
(-2.24697e-07 1.88932e-08 -0.000214429)
(-3.5005e-07 3.43052e-08 -0.000214508)
(-1.82849e-08 -1.72006e-08 -0.000214677)
(-1.09496e-07 -6.76523e-09 -0.000214632)
(2.73818e-07 -6.33538e-08 -0.000215276)
(1.75397e-07 -2.8287e-08 -0.000214913)
(1.16332e-08 -1.39027e-08 -0.000215144)
(-4.73981e-08 -1.26072e-08 -0.000215188)
(1.63574e-07 -3.05984e-08 -0.000214734)
(7.47375e-08 -2.88249e-08 -0.000214255)
(-4.5706e-08 -1.04497e-08 -0.000214234)
(-4.13771e-08 -1.54959e-08 -0.000214436)
(-2.15023e-07 1.08015e-08 -0.000214297)
(-1.19794e-07 5.81445e-09 -0.000214796)
(1.2326e-07 -4.43121e-08 -0.000215057)
(1.47869e-07 -4.82633e-08 -0.000214926)
(1.04394e-07 -3.25201e-08 -0.000215014)
(4.10345e-07 -7.40212e-08 -0.000215036)
(2.87581e-07 -5.1287e-08 -0.000214683)
(4.12868e-07 -7.43888e-08 -0.000215326)
(2.56899e-07 -2.78812e-08 -0.000218234)
(1.89656e-07 -1.61282e-08 -0.000218104)
(2.35655e-07 -2.68513e-08 -0.000217899)
(1.17954e-07 -9.40438e-09 -0.000218227)
(2.43338e-07 -1.2108e-08 -0.000218264)
(-1.70427e-07 4.87359e-08 -0.000217888)
(1.53138e-07 -7.19181e-09 -0.000218209)
(2.19686e-09 9.23092e-09 -0.00021848)
(-2.92618e-08 1.38843e-08 -0.0002182)
(1.25691e-07 1.03583e-08 -0.000218777)
(5.44657e-08 2.17673e-09 -0.000219267)
(1.26208e-07 -2.21812e-09 -0.00021908)
(3.03001e-07 -4.09692e-08 -0.000219049)
(2.2721e-07 -1.75701e-08 -0.000218885)
(6.3616e-08 9.52151e-09 -0.000218599)
(2.41125e-07 -2.3484e-08 -0.000218562)
(1.98885e-07 -1.98031e-08 -0.000218423)
(-1.03146e-07 3.35058e-08 -0.000218237)
(-3.64517e-07 7.28452e-08 -0.000217782)
(1.21174e-07 -6.30279e-09 -0.000217918)
(6.37826e-08 -4.39054e-09 -0.000218005)
(1.62492e-07 -8.01418e-09 -0.000217945)
(2.31211e-07 -1.69245e-08 -0.00021787)
(8.33647e-08 -9.93915e-09 -0.000217946)
(-8.27879e-08 2.5878e-08 -0.000217801)
(9.70038e-08 2.70717e-09 -0.000217858)
(1.39115e-07 -1.03475e-08 -0.000218267)
(-4.44159e-08 2.6196e-08 -0.000218303)
(-8.60756e-08 3.27872e-08 -0.000218233)
(1.16929e-07 -1.10353e-09 -0.000218387)
(-1.1103e-07 3.25861e-08 -0.000218446)
(1.0386e-07 -8.7565e-10 -0.000218456)
(2.44452e-07 -1.40675e-08 -0.00021894)
(-4.49975e-09 2.17754e-08 -0.000218691)
(-5.35145e-08 1.89181e-08 -0.000218481)
(-1.09646e-07 3.81226e-08 -0.000218297)
(-2.63057e-07 6.22449e-08 -0.000218188)
(-1.74235e-07 4.24046e-08 -0.00021812)
(-1.16773e-07 2.61102e-08 -0.000218326)
(-1.48933e-07 3.76727e-08 -0.000218727)
(-1.79133e-07 4.41208e-08 -0.000218535)
(1.08684e-07 -1.44118e-09 -0.000218818)
(7.48991e-08 7.69691e-09 -0.000218816)
(1.64016e-07 -1.11032e-08 -0.000218853)
(1.44024e-07 -2.18936e-09 -0.000218543)
(-9.66046e-08 4.66084e-08 -0.000218855)
(-2.92165e-07 7.63418e-08 -0.000218635)
(-3.20405e-07 6.02001e-08 -0.000217953)
(9.3088e-08 -7.35403e-13 -0.000218241)
(-2.75656e-07 5.24317e-08 -0.000218558)
(-1.5023e-07 4.16597e-08 -0.00021858)
(-4.6144e-08 2.4469e-08 -0.000218862)
(2.15324e-07 -1.61479e-08 -0.000218479)
(3.01339e-07 -2.67436e-08 -0.000218825)
(-1.8859e-08 1.81884e-08 -0.00021876)
(-2.30567e-07 5.20239e-08 -0.000218016)
(1.32794e-07 -6.37251e-09 -0.000217843)
(-4.70645e-08 1.87181e-08 -0.000217875)
(5.29569e-08 7.21057e-10 -0.000218074)
(-4.58491e-08 1.51969e-08 -0.000218132)
(9.48035e-09 8.81752e-09 -0.000218497)
(2.13424e-08 6.45888e-09 -0.000218825)
(2.42098e-07 -2.78842e-08 -0.000218539)
(2.81388e-07 -2.50461e-08 -0.000218558)
(2.50411e-07 -2.00694e-08 -0.000218586)
(3.87363e-07 -3.89628e-08 -0.000218683)
(1.39315e-07 -1.01228e-08 -0.000218745)
(2.43e-07 -8.64232e-08 -0.000214434)
(1.56515e-07 -5.25826e-08 -0.000214383)
(1.18005e-07 -4.02741e-08 -0.000214351)
(-1.99103e-08 -1.97232e-08 -0.000214422)
(2.48864e-07 -9.11282e-08 -0.000214905)
(-5.27698e-08 2.54104e-09 -0.000214665)
(4.52927e-08 -1.44256e-08 -0.000214905)
(4.83318e-08 -2.93392e-08 -0.000214663)
(2.58463e-08 -2.94982e-08 -0.000214709)
(1.8485e-07 -5.22897e-08 -0.00021455)
(1.89231e-07 -5.84446e-08 -0.000214975)
(8.67619e-08 -2.99123e-08 -0.000215117)
(1.92797e-07 -6.28788e-08 -0.000215246)
(1.91985e-07 -6.96792e-08 -0.000214989)
(1.35954e-07 -5.36267e-08 -0.000214911)
(1.52658e-07 -5.63866e-08 -0.000215036)
(2.02484e-07 -6.78204e-08 -0.000215254)
(-2.27766e-07 4.35391e-08 -0.000214154)
(-2.55251e-07 5.84746e-08 -0.000214387)
(1.85636e-07 -5.9386e-08 -0.000214376)
(7.99533e-08 -4.05096e-08 -0.000213972)
(2.632e-07 -8.41827e-08 -0.000214194)
(1.17622e-07 -4.77349e-08 -0.000213896)
(-1.27707e-07 2.48845e-08 -0.000213963)
(1.23985e-08 -2.18532e-08 -0.000214042)
(1.70409e-07 -5.17284e-08 -0.000214104)
(-9.53117e-08 9.06447e-09 -0.000214368)
(1.41298e-08 -2.56921e-08 -0.000214722)
(3.14161e-09 -1.95867e-08 -0.000214797)
(1.99965e-07 -6.6998e-08 -0.000214932)
(-1.91718e-08 -1.13834e-08 -0.000214731)
(1.54509e-07 -4.73166e-08 -0.000214758)
(-3.81545e-08 -5.21018e-09 -0.000214852)
(7.83387e-08 -3.85759e-08 -0.00021513)
(-2.84968e-07 5.6123e-08 -0.000215093)
(-2.01064e-07 3.49666e-08 -0.00021482)
(-9.5107e-08 1.27797e-08 -0.000214854)
(-1.84314e-08 -5.54882e-09 -0.000214586)
(-9.96625e-08 1.24784e-08 -0.000214734)
(-7.40731e-08 5.84887e-10 -0.000214721)
(1.95964e-07 -6.64855e-08 -0.000215077)
(2.53132e-07 -8.4039e-08 -0.000214968)
(4.05446e-07 -1.11789e-07 -0.000214739)
(-1.51442e-07 1.73014e-08 -0.000214993)
(2.08901e-07 -9.08132e-08 -0.000215156)
(-1.78262e-07 3.12042e-08 -0.000214882)
(-2.87392e-07 7.55121e-08 -0.000214948)
(-3.55766e-07 7.83687e-08 -0.000214682)
(-3.40272e-07 6.88331e-08 -0.000214867)
(-5.52796e-07 1.32484e-07 -0.000214777)
(-1.47153e-07 2.83213e-08 -0.000214923)
(1.14316e-07 -5.49726e-08 -0.000215317)
(3.68107e-07 -1.16557e-07 -0.000214843)
(3.88564e-07 -1.08571e-07 -0.000214717)
(3.89659e-09 -1.08682e-08 -0.000214555)
(-2.35988e-07 4.67092e-08 -0.000214458)
(-9.98033e-08 8.142e-09 -0.000214272)
(-2.61676e-07 4.5772e-08 -0.000214164)
(8.01106e-08 -4.87203e-08 -0.000214636)