/*--------------------------------*- C++ -*----------------------------------*\
| =========                 |                                                 |
| \\      /  F ield         | OpenFOAM: The Open Source CFD Toolbox           |
|  \\    /   O peration     | Version:  2206                                  |
|   \\  /    A nd           | Website:  www.openfoam.com                      |
|    \\/     M anipulation  |                                                 |
\*---------------------------------------------------------------------------*/
FoamFile
{
    version     2.0;
    format      ascii;
    arch        "LSB;label=32;scalar=64";
    class       volScalarField;
    location    "30";
    object      nut;
}
// * * * * * * * * * * * * * * * * * * * * * * * * * * * * * * * * * * * * * //

dimensions      [0 2 -1 0 0 0 0];

internalField   nonuniform List<scalar> 
66940
(
1.31786e-06
1.14792e-06
1.15978e-06
1.13837e-06
1.31653e-06
1.14392e-06
1.1621e-06
1.13041e-06
1.32199e-06
1.14267e-06
1.16245e-06
1.13093e-06
1.32181e-06
1.14688e-06
1.16265e-06
1.12801e-06
1.32451e-06
1.14129e-06
1.16061e-06
1.13254e-06
1.32332e-06
1.14036e-06
1.16305e-06
1.13072e-06
1.3223e-06
1.14047e-06
1.1593e-06
1.13616e-06
1.33229e-06
1.14169e-06
1.15578e-06
1.12375e-06
1.32662e-06
1.13895e-06
1.15594e-06
1.12593e-06
1.32681e-06
1.13501e-06
1.15674e-06
1.10031e-06
1.32511e-06
1.25502e-06
1.26024e-06
1.13052e-06
7.20966e-07
7.86778e-07
7.35711e-07
8.49179e-07
1.14249e-06
1.15375e-06
1.15372e-06
1.14867e-06
1.14095e-06
1.14352e-06
1.1462e-06
1.13629e-06
1.153e-06
1.15936e-06
1.15605e-06
1.14175e-06
1.15013e-06
1.1446e-06
1.15454e-06
1.1581e-06
1.15683e-06
1.15363e-06
1.16053e-06
1.14993e-06
1.14401e-06
1.13932e-06
1.1374e-06
1.14665e-06
1.13332e-06
1.14339e-06
1.13766e-06
1.1632e-06
1.15842e-06
1.1567e-06
1.1619e-06
1.15886e-06
1.13693e-06
1.14524e-06
1.13682e-06
1.15745e-06
1.15718e-06
1.15863e-06
1.1572e-06
1.16296e-06
1.14879e-06
1.13717e-06
1.14343e-06
1.13695e-06
1.14478e-06
1.13339e-06
1.14302e-06
1.13866e-06
1.16849e-06
1.15133e-06
1.15989e-06
1.1625e-06
1.16533e-06
1.13323e-06
1.14958e-06
1.13903e-06
1.15614e-06
1.15745e-06
1.15816e-06
1.15624e-06
1.16145e-06
1.14429e-06
1.13984e-06
1.14007e-06
1.13554e-06
1.1402e-06
1.13195e-06
1.14504e-06
1.13472e-06
1.16944e-06
1.15258e-06
1.15983e-06
1.16466e-06
1.15771e-06
1.13212e-06
1.14483e-06
1.13654e-06
1.15289e-06
1.15412e-06
1.15812e-06
1.15443e-06
1.16499e-06
1.14382e-06
1.13487e-06
1.14009e-06
1.13804e-06
1.14623e-06
1.13045e-06
1.14434e-06
1.13363e-06
1.15597e-06
1.14589e-06
1.15794e-06
1.16246e-06
1.15724e-06
1.14018e-06
1.14015e-06
1.14031e-06
1.15793e-06
1.15317e-06
1.15976e-06
1.15803e-06
1.15506e-06
1.13982e-06
1.13829e-06
1.14178e-06
1.13739e-06
1.14192e-06
1.13027e-06
1.14313e-06
1.138e-06
1.15257e-06
1.14309e-06
1.15751e-06
1.16152e-06
1.15687e-06
1.13708e-06
1.14849e-06
1.13537e-06
1.152e-06
1.1507e-06
1.15185e-06
1.15567e-06
1.14513e-06
1.13811e-06
1.13448e-06
1.13842e-06
1.14183e-06
1.14213e-06
1.13351e-06
1.14504e-06
1.13752e-06
1.16183e-06
1.14555e-06
1.15652e-06
1.16596e-06
1.16245e-06
1.13638e-06
1.14893e-06
1.13502e-06
1.14747e-06
1.15395e-06
1.15317e-06
1.15079e-06
1.15191e-06
1.14416e-06
1.13924e-06
1.13923e-06
1.13776e-06
1.13809e-06
1.13358e-06
1.14432e-06
1.13753e-06
1.15652e-06
1.15007e-06
1.15744e-06
1.16229e-06
1.15644e-06
1.13969e-06
1.14755e-06
1.13538e-06
1.15272e-06
1.1493e-06
1.1599e-06
1.15292e-06
1.15181e-06
1.13654e-06
1.13478e-06
1.13869e-06
1.1444e-06
1.14052e-06
1.13444e-06
1.14633e-06
1.13809e-06
1.15572e-06
1.14577e-06
1.15778e-06
1.16313e-06
1.16062e-06
1.13114e-06
1.13187e-06
1.13186e-06
1.14963e-06
1.14738e-06
1.16295e-06
1.16957e-06
1.13523e-06
1.14583e-06
1.13129e-06
1.13581e-06
1.1501e-06
1.1531e-06
1.12694e-06
1.14922e-06
1.14853e-06
1.13831e-06
1.1398e-06
1.15199e-06
1.17148e-06
1.16457e-06
1.13888e-06
1.1047e-06
1.13772e-06
1.1487e-06
1.15075e-06
1.18798e-06
1.1873e-06
1.11442e-06
1.1407e-06
1.13364e-06
1.13041e-06
1.16807e-06
1.17584e-06
1.12112e-06
1.16559e-06
1.16526e-06
1.11013e-06
1.14693e-06
1.14813e-06
1.19547e-06
1.1873e-06
1.14327e-06
1.12786e-06
1.08999e-06
1.25704e-06
1.2554e-06
9.61008e-07
9.63018e-07
1.14121e-06
1.06237e-06
1.23947e-06
1.24417e-06
9.57196e-07
9.66609e-07
1.23577e-06
9.55803e-07
9.59779e-07
1.13185e-06
1.10071e-06
1.25353e-06
9.61828e-07
9.61704e-07
1.0957e-06
8.51104e-07
7.31266e-07
7.1766e-07
8.67898e-07
7.31083e-07
7.36733e-07
7.13646e-07
7.2246e-07
7.2302e-07
7.30993e-07
8.55312e-07
7.35016e-07
1.3865e-08
1.31513e-06
1.32874e-06
1.33132e-06
1.3273e-06
5.98631e-07
1.14785e-06
1.84289e-07
1.38286e-06
1.14722e-06
6.87011e-08
7.10395e-08
1.72596e-07
3.26241e-08
1.71654e-07
3.24456e-08
1.39527e-08
1.39013e-08
1.54996e-07
3.03428e-08
1.54546e-07
3.04207e-08
1.31767e-06
1.32696e-06
1.32156e-06
1.31132e-06
1.32221e-06
1.33044e-06
1.32474e-06
5.95168e-07
1.83693e-07
1.38237e-06
1.14386e-06
5.9434e-07
1.84755e-07
1.38227e-06
1.38087e-08
1.37875e-08
6.28179e-07
1.39068e-06
1.93469e-07
1.16063e-06
6.31279e-07
1.39676e-06
1.95029e-07
6.80668e-08
7.18733e-08
1.14293e-06
6.77905e-08
7.24426e-08
1.7026e-07
3.19807e-08
1.70817e-07
3.18523e-08
1.38005e-08
1.37989e-08
1.53723e-07
3.00044e-08
1.53197e-07
3.01181e-08
1.3212e-06
1.32706e-06
1.31974e-06
1.31416e-06
1.32079e-06
1.32869e-06
1.32637e-06
5.90983e-07
1.82799e-07
1.38361e-06
1.14419e-06
5.90962e-07
1.83818e-07
1.38696e-06
1.37133e-08
1.37193e-08
6.26857e-07
1.40047e-06
1.93273e-07
1.16596e-06
6.27797e-07
1.39719e-06
1.93738e-07
6.69336e-08
7.15086e-08
1.13731e-06
6.7056e-08
7.15113e-08
1.68108e-07
3.15921e-08
1.68075e-07
3.1528e-08
1.37725e-08
1.37692e-08
1.52766e-07
3.00425e-08
1.51906e-07
3.0201e-08
1.31408e-06
1.32644e-06
1.32047e-06
1.31929e-06
1.32571e-06
1.33126e-06
1.32444e-06
5.87294e-07
1.8244e-07
1.38565e-06
1.1424e-06
5.92807e-07
1.82921e-07
1.38081e-06
1.37126e-08
1.3745e-08
6.18274e-07
1.39683e-06
1.92263e-07
1.1642e-06
6.1819e-07
1.39937e-06
1.92102e-07
6.66201e-08
7.06592e-08
1.13614e-06
6.7162e-08
7.06511e-08
1.66752e-07
3.12879e-08
1.65817e-07
3.12125e-08
1.37576e-08
1.37773e-08
1.51496e-07
3.01052e-08
1.51399e-07
3.00294e-08
1.32724e-06
1.32377e-06
1.3205e-06
1.32017e-06
1.32853e-06
1.33031e-06
1.32989e-06
5.81658e-07
1.82165e-07
1.38102e-06
1.14856e-06
5.80051e-07
1.83429e-07
1.38524e-06
1.38149e-08
1.38412e-08
6.19362e-07
1.401e-06
1.89983e-07
1.16209e-06
6.14333e-07
1.40197e-06
1.9042e-07
6.67617e-08
6.99368e-08
1.13001e-06
6.73838e-08
7.01507e-08
1.66697e-07
3.09981e-08
1.65421e-07
3.08872e-08
1.36893e-08
1.36589e-08
1.50198e-07
2.98385e-08
1.4983e-07
2.99349e-08
1.32135e-06
1.32341e-06
1.32905e-06
1.32087e-06
1.33504e-06
1.33024e-06
1.33187e-06
5.78588e-07
1.81765e-07
1.37798e-06
1.14451e-06
5.7978e-07
1.8233e-07
1.38391e-06
1.38353e-08
1.38139e-08
6.16784e-07
1.40333e-06
1.87838e-07
1.16657e-06
6.12465e-07
1.40537e-06
1.88427e-07
6.69392e-08
6.96024e-08
1.14053e-06
6.73636e-08
6.97765e-08
1.67219e-07
3.07494e-08
1.65741e-07
3.07557e-08
1.36694e-08
1.36848e-08
1.48871e-07
2.95974e-08
1.48704e-07
2.96392e-08
1.32138e-06
1.32481e-06
1.33641e-06
1.32279e-06
1.3288e-06
1.3342e-06
1.33482e-06
5.7474e-07
1.80829e-07
1.37936e-06
1.14453e-06
5.76337e-07
1.81885e-07
1.38339e-06
1.37484e-08
1.37406e-08
6.13753e-07
1.40227e-06
1.86411e-07
1.16261e-06
6.11737e-07
1.40732e-06
1.87383e-07
6.76256e-08
6.93009e-08
1.13851e-06
6.80416e-08
6.9407e-08
1.66699e-07
3.09876e-08
1.66133e-07
3.10592e-08
1.37098e-08
1.37189e-08
1.49935e-07
2.93747e-08
1.49001e-07
2.95333e-08
1.32772e-06
1.33941e-06
1.33107e-06
1.32671e-06
1.34154e-06
1.33859e-06
1.33703e-06
5.8018e-07
1.81497e-07
1.38106e-06
1.1429e-06
5.77806e-07
1.8205e-07
1.38044e-06
1.37056e-08
1.37084e-08
6.09402e-07
1.40295e-06
1.87057e-07
1.16023e-06
6.06305e-07
1.39964e-06
1.87782e-07
6.74587e-08
6.84417e-08
1.12843e-06
6.76028e-08
6.85727e-08
1.67478e-07
3.08104e-08
1.66056e-07
3.09591e-08
1.37286e-08
1.37465e-08
1.50794e-07
2.92599e-08
1.49753e-07
2.949e-08
1.32795e-06
1.34088e-06
1.32821e-06
1.32208e-06
1.33578e-06
1.34063e-06
1.33975e-06
5.78985e-07
1.81669e-07
1.38843e-06
1.14518e-06
5.76021e-07
1.82042e-07
1.3698e-06
1.37083e-08
1.3755e-08
6.12271e-07
1.41502e-06
1.8636e-07
1.15993e-06
6.10354e-07
1.39493e-06
1.86922e-07
6.65816e-08
6.85225e-08
1.13173e-06
6.70394e-08
6.90973e-08
1.67608e-07
3.08792e-08
1.66576e-07
3.09416e-08
1.38426e-08
1.38437e-08
1.54122e-07
2.95323e-08
1.52066e-07
2.95521e-08
1.33287e-06
1.33952e-06
1.32716e-06
1.33371e-06
1.32753e-06
1.34253e-06
1.341e-06
5.75007e-07
1.81526e-07
1.38887e-06
1.14616e-06
5.7219e-07
1.81295e-07
1.36026e-06
1.36907e-08
1.37332e-08
6.09809e-07
1.40907e-06
1.86585e-07
1.1669e-06
6.07937e-07
1.38696e-06
1.87331e-07
6.64939e-08
6.89685e-08
1.12818e-06
6.7256e-08
6.89146e-08
1.67714e-07
3.07244e-08
1.66914e-07
3.08101e-08
1.38234e-08
1.38617e-08
1.57529e-07
2.95277e-08
1.56993e-07
2.97833e-08
1.32008e-06
1.33524e-06
1.32349e-06
1.32647e-06
1.32701e-06
1.33764e-06
1.33139e-06
5.77927e-07
1.81722e-07
1.38498e-06
1.1599e-06
5.7286e-07
1.77281e-07
1.38518e-06
1.37402e-08
1.38291e-08
6.08687e-07
1.40395e-06
1.88422e-07
1.18698e-06
6.09341e-07
1.40642e-06
1.83825e-07
6.72748e-08
6.96603e-08
1.12842e-06
6.76252e-08
6.99569e-08
1.59741e-07
3.01843e-08
1.66061e-07
3.03477e-08
1.38799e-08
1.40004e-08
1.58556e-07
2.94831e-08
1.63349e-07
2.99028e-08
1.31614e-06
1.328e-06
1.32452e-06
8.46054e-07
8.38344e-07
8.48703e-07
8.48381e-07
5.53643e-07
1.89625e-07
1.33969e-06
1.16367e-06
5.73166e-07
1.70621e-07
1.3752e-06
1.39174e-08
1.43101e-08
5.5748e-07
1.3435e-06
1.92925e-07
1.18128e-06
6.12946e-07
1.37596e-06
1.70378e-07
6.74346e-08
6.99334e-08
1.12504e-06
6.61001e-08
6.86105e-08
1.0039e-07
1.41651e-09
7.77506e-08
1.33657e-08
2.62098e-09
7.72022e-09
1.00347e-07
1.39706e-09
7.81359e-08
1.32948e-08
4.75613e-07
5.04493e-07
4.95292e-07
4.55905e-07
4.529e-07
4.23992e-07
4.16242e-07
3.82499e-07
4.05932e-08
9.06671e-07
5.64855e-07
3.86861e-07
4.05096e-08
4.97378e-07
2.63031e-09
7.75303e-09
3.87242e-07
9.11503e-07
3.99156e-08
5.54686e-07
3.9342e-07
5.09562e-07
4.01863e-08
2.26634e-08
2.27972e-08
6.28193e-07
1.82948e-08
1.85071e-08
1.41398e-08
1.39481e-08
1.35872e-08
1.35849e-08
1.14029e-06
7.24469e-08
6.9307e-08
7.15952e-08
6.8718e-08
3.12984e-08
1.14701e-06
1.84052e-07
1.62648e-07
3.32021e-08
3.18173e-08
1.72019e-07
1.61878e-07
3.15579e-08
3.1885e-08
1.69893e-07
6.29223e-07
1.14273e-06
1.92854e-07
1.39384e-06
1.85264e-07
1.39221e-06
6.56841e-07
6.29153e-07
1.14407e-06
1.911e-07
1.39377e-06
1.84696e-07
1.38661e-06
6.56167e-07
1.15298e-06
7.12509e-08
7.17608e-08
1.40258e-08
1.40576e-08
1.40692e-08
1.15819e-06
7.18279e-08
7.18021e-08
7.51779e-08
7.28786e-08
1.39874e-08
1.42468e-08
1.54561e-07
3.05228e-08
3.03046e-08
1.55628e-07
5.89388e-07
1.13662e-06
1.82325e-07
1.38281e-06
1.8144e-07
1.37628e-06
5.85815e-07
1.55971e-07
3.1164e-08
3.11008e-08
1.56532e-07
5.93653e-07
1.14185e-06
1.37801e-06
1.84957e-07
1.37739e-06
1.84495e-07
5.92721e-07
1.57396e-07
3.12229e-08
6.0144e-07
1.14073e-06
1.38513e-06
1.79918e-07
1.57165e-07
3.01478e-08
6.16374e-07
1.14411e-06
1.84801e-07
1.37698e-06
1.84093e-07
1.37792e-06
6.07121e-07
1.57178e-07
3.11916e-08
3.16742e-08
1.58743e-07
6.1718e-07
1.13274e-06
1.38711e-06
1.80449e-07
1.38026e-06
1.79503e-07
5.99891e-07
1.57438e-07
3.00858e-08
3.0703e-08
1.58183e-07
1.38791e-08
1.38452e-08
1.1583e-06
7.06075e-08
7.37589e-08
7.02606e-08
7.33031e-08
1.43135e-08
1.41789e-08
6.19247e-07
1.15091e-06
1.38947e-06
1.93895e-07
1.37908e-06
1.8648e-07
6.44449e-07
6.12585e-07
1.14946e-06
1.39943e-06
1.91023e-07
1.38686e-06
1.83866e-07
6.35591e-07
1.57887e-07
3.22794e-08
3.16259e-08
1.66006e-07
1.58809e-07
3.17194e-08
3.09122e-08
1.66887e-07
1.34831e-08
1.40333e-08
1.16285e-06
6.86996e-08
7.22636e-08
6.97414e-08
7.57025e-08
1.34688e-08
1.36916e-08
1.4045e-08
1.40404e-08
1.42547e-08
1.4146e-08
1.37227e-08
1.36172e-08
7.65114e-08
7.05014e-08
1.14386e-06
7.29646e-08
6.97557e-08
1.40987e-08
1.43707e-08
1.35625e-08
1.37055e-08
1.15265e-06
7.2541e-08
6.9741e-08
7.34469e-08
7.06655e-08
1.71546e-07
3.22695e-08
1.70334e-07
3.14884e-08
6.50015e-07
1.92489e-07
1.39627e-06
1.15667e-06
6.59921e-07
1.94257e-07
1.39979e-06
6.43761e-07
1.90901e-07
1.39405e-06
1.15413e-06
6.55522e-07
1.91571e-07
1.39473e-06
1.7206e-07
3.27676e-08
3.28028e-08
1.72485e-07
1.70988e-07
3.14473e-08
3.20723e-08
1.70817e-07
6.54742e-07
1.16076e-06
1.93684e-07
1.39621e-06
1.93208e-07
1.39627e-06
6.40124e-07
6.64976e-07
1.15447e-06
1.89836e-07
1.39428e-06
1.90778e-07
1.39509e-06
6.3531e-07
7.29016e-08
7.43071e-08
1.14975e-06
7.17138e-08
7.12589e-08
1.40379e-08
1.3883e-08
1.38667e-08
1.40853e-08
1.16409e-06
7.14637e-08
7.14924e-08
7.24623e-08
7.33407e-08
1.38886e-08
1.41076e-08
5.79679e-07
1.81518e-07
1.37909e-06
1.14038e-06
6.09128e-07
1.82712e-07
1.37878e-06
1.56369e-07
3.18181e-08
1.56166e-07
3.10143e-08
5.83254e-07
1.3789e-06
1.84081e-07
1.14331e-06
6.04843e-07
1.38453e-06
1.84059e-07
1.54029e-07
3.06844e-08
3.0737e-08
1.53926e-07
6.03721e-07
1.14232e-06
1.82443e-07
1.37689e-06
1.8201e-07
1.37894e-06
5.73701e-07
1.55218e-07
3.08745e-08
3.16202e-08
1.55387e-07
5.90528e-07
1.14318e-06
1.38479e-06
1.83744e-07
1.38081e-06
1.83243e-07
5.76871e-07
1.59776e-07
3.16825e-08
1.58845e-07
3.10009e-08
5.93794e-07
1.38249e-06
1.79842e-07
1.13489e-06
6.21593e-07
1.38623e-06
1.80646e-07
1.58828e-07
3.07557e-08
1.58331e-07
2.99981e-08
6.20499e-07
1.14765e-06
1.8406e-07
1.38415e-06
1.83769e-07
1.38854e-06
5.95192e-07
1.58848e-07
3.08549e-08
3.15177e-08
1.59699e-07
6.19616e-07
1.13318e-06
1.3824e-06
1.80539e-07
1.38205e-06
1.79866e-07
5.87069e-07
1.58635e-07
3.00462e-08
3.03354e-08
1.59097e-07
7.29516e-08
7.49903e-08
1.15365e-06
7.05868e-08
7.41342e-08
1.44392e-08
1.43131e-08
1.37718e-08
1.38877e-08
1.16167e-06
7.03532e-08
7.45991e-08
7.26813e-08
7.67761e-08
1.43272e-08
1.44793e-08
6.35554e-07
1.40063e-06
1.90979e-07
1.16017e-06
6.55175e-07
1.40372e-06
1.92719e-07
1.68001e-07
3.27599e-08
1.66774e-07
3.23229e-08
1.68294e-07
3.23122e-08
1.67576e-07
3.17541e-08
6.55274e-07
1.16131e-06
1.3985e-06
1.94716e-07
1.39415e-06
1.94211e-07
6.31785e-07
6.45938e-07
1.15962e-06
1.40165e-06
1.92375e-07
1.40051e-06
1.92041e-07
6.27326e-07
1.67292e-07
3.21546e-08
3.28231e-08
1.68664e-07
1.67991e-07
3.17841e-08
3.24097e-08
1.6893e-07
1.3502e-08
1.33512e-08
1.42786e-08
1.4044e-08
1.15264e-06
6.76836e-08
7.23107e-08
6.98343e-08
7.37853e-08
1.33588e-08
1.35802e-08
1.41074e-08
1.40928e-08
1.42142e-08
1.40691e-08
1.36798e-08
1.36062e-08
7.62204e-08
7.08354e-08
1.13948e-06
7.22525e-08
7.01932e-08
1.40914e-08
1.43517e-08
1.36456e-08
1.37432e-08
1.14714e-06
7.23612e-08
7.00612e-08
7.63812e-08
7.39043e-08
1.70069e-07
3.18122e-08
1.69766e-07
3.14095e-08
6.34985e-07
1.92416e-07
1.39844e-06
1.15849e-06
6.43553e-07
1.92996e-07
1.39619e-06
6.27308e-07
1.88529e-07
1.39568e-06
1.16329e-06
6.41764e-07
1.89303e-07
1.39521e-06
1.68875e-07
3.19364e-08
3.24429e-08
1.6977e-07
1.6926e-07
3.12379e-08
3.15686e-08
1.69283e-07
6.54759e-07
1.15417e-06
1.91675e-07
1.40079e-06
1.91991e-07
1.3959e-06
6.25462e-07
6.36674e-07
1.15937e-06
1.88894e-07
1.3969e-06
1.88015e-07
1.39559e-06
6.21217e-07
7.23953e-08
7.2831e-08
1.14944e-06
7.14706e-08
7.17865e-08
1.40697e-08
1.38775e-08
1.38421e-08
1.39547e-08
1.15771e-06
7.12889e-08
7.21572e-08
7.23117e-08
7.29337e-08
1.39491e-08
1.40333e-08
5.74459e-07
1.8171e-07
1.37718e-06
1.13954e-06
5.84279e-07
1.82822e-07
1.3827e-06
1.54235e-07
3.13325e-08
1.54271e-07
3.068e-08
5.706e-07
1.38083e-06
1.82918e-07
1.14488e-06
5.97547e-07
1.38381e-06
1.83478e-07
1.52696e-07
3.03349e-08
3.09259e-08
1.53167e-07
5.83012e-07
1.14108e-06
1.83014e-07
1.37893e-06
1.82256e-07
1.37992e-06
5.73974e-07
1.53098e-07
3.08705e-08
3.11664e-08
1.53522e-07
5.78608e-07
1.14397e-06
1.38051e-06
1.83672e-07
1.38576e-06
1.82646e-07
5.69981e-07
1.59994e-07
3.13741e-08
1.58936e-07
3.06799e-08
5.90153e-07
1.3819e-06
1.79544e-07
1.1346e-06
5.98258e-07
1.38697e-06
1.79874e-07
1.59094e-07
3.07055e-08
1.58617e-07
2.98433e-08
6.04081e-07
1.14471e-06
1.83631e-07
1.38548e-06
1.82939e-07
1.38669e-06
5.95257e-07
1.59099e-07
3.07751e-08
3.10374e-08
1.59262e-07
6.08958e-07
1.13477e-06
1.38038e-06
1.79507e-07
1.38158e-06
1.78921e-07
5.88403e-07
1.58766e-07
2.96534e-08
3.00912e-08
1.58632e-07
7.36588e-08
7.66464e-08
1.15559e-06
7.02665e-08
7.40652e-08
1.44694e-08
1.42794e-08
1.37488e-08
1.37763e-08
1.16226e-06
7.04537e-08
7.3933e-08
7.2822e-08
7.60972e-08
1.43164e-08
1.44166e-08
6.29246e-07
1.40239e-06
1.91188e-07
1.16165e-06
6.38466e-07
1.39746e-06
1.91844e-07
1.68698e-07
3.26831e-08
1.68285e-07
3.21235e-08
1.68858e-07
3.22212e-08
1.68475e-07
3.16104e-08
6.33742e-07
1.16235e-06
1.397e-06
1.93455e-07
1.40052e-06
1.92503e-07
6.26243e-07
6.3829e-07
1.16266e-06
1.3978e-06
1.90727e-07
1.39721e-06
1.90568e-07
6.24644e-07
1.677e-07
3.2065e-08
3.25739e-08
1.68905e-07
1.68283e-07
3.13775e-08
3.22209e-08
1.68202e-07
1.33531e-08
1.32142e-08
1.40626e-08
1.40462e-08
1.15584e-06
6.85401e-08
7.13564e-08
6.84135e-08
7.24698e-08
1.33312e-08
1.33901e-08
1.39972e-08
1.39216e-08
1.41238e-08
1.4009e-08
1.38708e-08
1.36638e-08
7.59736e-08
7.40178e-08
1.14065e-06
7.20509e-08
6.98665e-08
1.39494e-08
1.40433e-08
1.36382e-08
1.37914e-08
1.16062e-06
7.19284e-08
6.94895e-08
7.31466e-08
7.1346e-08
1.6822e-07
3.17718e-08
1.68504e-07
3.1188e-08
6.21284e-07
1.90771e-07
1.39664e-06
1.15578e-06
6.32994e-07
1.90239e-07
1.40026e-06
6.20492e-07
1.88083e-07
1.39824e-06
1.15694e-06
6.27316e-07
1.8875e-07
1.40072e-06
1.67377e-07
3.15673e-08
3.20758e-08
1.66965e-07
1.67285e-07
3.10046e-08
3.16043e-08
1.67347e-07
6.45492e-07
1.15648e-06
1.89172e-07
1.39942e-06
1.8931e-07
1.3991e-06
6.19178e-07
6.23753e-07
1.16049e-06
1.88601e-07
1.40074e-06
1.88036e-07
1.39989e-06
6.20882e-07
7.43464e-08
7.36663e-08
1.1482e-06
7.09321e-08
7.18331e-08
1.41738e-08
1.39416e-08
1.38183e-08
1.39639e-08
1.16269e-06
7.09358e-08
7.13682e-08
7.50809e-08
7.3124e-08
1.38824e-08
1.40098e-08
5.71745e-07
1.82149e-07
1.3824e-06
1.13594e-06
5.91438e-07
1.82621e-07
1.37905e-06
1.52711e-07
3.12527e-08
1.52581e-07
3.05391e-08
5.66743e-07
1.38006e-06
1.82827e-07
1.14497e-06
5.77678e-07
1.38034e-06
1.83209e-07
1.51951e-07
3.08658e-08
3.09035e-08
1.52749e-07
5.86064e-07
1.1362e-06
1.81901e-07
1.38071e-06
1.81611e-07
1.37921e-06
5.70617e-07
1.51752e-07
3.06857e-08
3.13193e-08
1.52285e-07
5.72013e-07
1.14184e-06
1.38e-06
1.83594e-07
1.37991e-06
1.82668e-07
5.63453e-07
1.57754e-07
3.068e-08
1.58489e-07
3.03376e-08
5.84706e-07
1.38022e-06
1.78448e-07
1.1354e-06
5.99249e-07
1.37804e-06
1.78654e-07
1.57702e-07
3.01526e-08
1.57544e-07
2.9498e-08
5.97825e-07
1.14706e-06
1.82994e-07
1.38035e-06
1.82071e-07
1.38009e-06
5.80337e-07
1.56507e-07
3.03973e-08
3.09893e-08
1.56881e-07
6.01233e-07
1.13288e-06
1.3817e-06
1.78473e-07
1.38132e-06
1.77405e-07
5.79776e-07
1.56772e-07
2.94811e-08
3.02018e-08
1.5661e-07
7.27618e-08
7.73962e-08
1.15024e-06
7.0593e-08
7.39565e-08
1.43069e-08
1.42028e-08
1.38324e-08
1.40492e-08
1.16892e-06
7.0929e-08
7.32997e-08
7.30562e-08
7.56632e-08
1.41245e-08
1.43185e-08
6.17938e-07
1.40198e-06
1.89962e-07
1.16276e-06
6.30805e-07
1.40515e-06
1.89694e-07
1.68846e-07
3.25161e-08
1.67814e-07
3.1952e-08
1.67346e-07
3.16594e-08
1.67466e-07
3.13202e-08
6.32228e-07
1.16405e-06
1.40211e-06
1.91691e-07
1.40025e-06
1.91046e-07
6.1825e-07
6.35131e-07
1.15801e-06
1.40145e-06
1.88442e-07
1.40153e-06
1.88778e-07
6.18661e-07
1.68048e-07
3.17946e-08
3.25175e-08
1.68119e-07
1.66614e-07
3.11066e-08
3.17132e-08
1.66422e-07
1.34487e-08
1.32015e-08
1.3879e-08
1.38026e-08
1.14443e-06
6.864e-08
7.06876e-08
6.86033e-08
7.26597e-08
1.32359e-08
1.32769e-08
1.37434e-08
1.38559e-08
1.40427e-08
1.39038e-08
1.37192e-08
1.35642e-08
7.29318e-08
7.14887e-08
1.13613e-06
7.18698e-08
6.94125e-08
1.39131e-08
1.40316e-08
1.352e-08
1.3658e-08
1.14606e-06
7.18163e-08
6.93553e-08
7.28089e-08
7.16436e-08
1.67661e-07
3.1633e-08
1.66501e-07
3.10643e-08
6.23404e-07
1.88252e-07
1.40055e-06
1.15853e-06
6.33314e-07
1.8896e-07
1.401e-06
6.23324e-07
1.88018e-07
1.40254e-06
1.1554e-06
6.43754e-07
1.8916e-07
1.40534e-06
1.66232e-07
3.15169e-08
3.18276e-08
1.66629e-07
1.66837e-07
3.11403e-08
3.15904e-08
1.66857e-07
6.39664e-07
1.15424e-06
1.88645e-07
1.40184e-06
1.88008e-07
1.405e-06
6.20408e-07
6.34954e-07
1.1586e-06
1.88761e-07
1.40478e-06
1.88137e-07
1.40452e-06
6.18705e-07
7.45289e-08
7.33994e-08
1.14384e-06
7.04512e-08
7.11676e-08
1.40961e-08
1.38169e-08
1.37611e-08
1.38527e-08
1.16325e-06
7.06955e-08
7.15483e-08
7.15297e-08
7.39894e-08
1.37733e-08
1.38737e-08
5.63794e-07
1.8111e-07
1.37512e-06
1.1352e-06
5.79118e-07
1.81201e-07
1.37566e-06
1.5205e-07
3.12706e-08
1.51737e-07
3.08153e-08
5.62457e-07
1.38202e-06
1.83245e-07
1.14514e-06
5.70153e-07
1.38218e-06
1.84174e-07
1.50929e-07
3.0114e-08
3.07108e-08
1.51052e-07
5.86224e-07
1.13832e-06
1.80768e-07
1.3779e-06
1.80374e-07
1.3748e-06
5.61669e-07
1.51457e-07
3.10332e-08
3.14755e-08
1.51154e-07
5.79671e-07
1.14085e-06
1.38085e-06
1.83871e-07
1.37986e-06
1.83213e-07
5.63243e-07
1.56476e-07
3.0993e-08
1.55817e-07
3.04007e-08
5.8212e-07
1.3847e-06
1.77908e-07
1.13347e-06
5.95963e-07
1.38138e-06
1.78974e-07
1.56053e-07
2.99045e-08
1.555e-07
2.94377e-08
6.07288e-07
1.14301e-06
1.83199e-07
1.38534e-06
1.82894e-07
1.38332e-06
5.83103e-07
1.55611e-07
3.03375e-08
3.08477e-08
1.55928e-07
5.95311e-07
1.1295e-06
1.38319e-06
1.78953e-07
1.38573e-06
1.78299e-07
5.80983e-07
1.55113e-07
2.94392e-08
3.00173e-08
1.55486e-07
7.31759e-08
7.41383e-08
1.14761e-06
7.08718e-08
7.25265e-08
1.41691e-08
1.40038e-08
1.39572e-08
1.39178e-08
1.15928e-06
7.08345e-08
7.18728e-08
7.31363e-08
7.39551e-08
1.39025e-08
1.40693e-08
6.21365e-07
1.40165e-06
1.87644e-07
1.15766e-06
6.36628e-07
1.40095e-06
1.8812e-07
1.67596e-07
3.2312e-08
1.67049e-07
3.16175e-08
1.66931e-07
3.16359e-08
1.66394e-07
3.10633e-08
6.32227e-07
1.16061e-06
1.40499e-06
1.88733e-07
1.40265e-06
1.89419e-07
6.29303e-07
6.37382e-07
1.15755e-06
1.40589e-06
1.87658e-07
1.40045e-06
1.87113e-07
6.15049e-07
1.67057e-07
3.13282e-08
3.20308e-08
1.6715e-07
1.66229e-07
3.07888e-08
3.14048e-08
1.66106e-07
1.33309e-08
1.32221e-08
1.38954e-08
1.36918e-08
1.14467e-06
6.88266e-08
7.00181e-08
6.88623e-08
7.14635e-08
1.32648e-08
1.33681e-08
1.36237e-08
1.38913e-08
1.41226e-08
1.38404e-08
1.36551e-08
1.3511e-08
7.31308e-08
7.2451e-08
1.13614e-06
7.16509e-08
6.92191e-08
1.38439e-08
1.39603e-08
1.34435e-08
1.37204e-08
1.14602e-06
7.18636e-08
6.93289e-08
7.62143e-08
7.04157e-08
1.6667e-07
3.16257e-08
1.66415e-07
3.11447e-08
6.1739e-07
1.87882e-07
1.40528e-06
1.15896e-06
6.33823e-07
1.88607e-07
1.4068e-06
6.17899e-07
1.8775e-07
1.40027e-06
1.15558e-06
6.25964e-07
1.87972e-07
1.398e-06
1.65828e-07
3.10821e-08
3.14933e-08
1.6623e-07
1.65737e-07
3.11751e-08
3.16652e-08
1.66821e-07
6.21457e-07
1.15703e-06
1.89184e-07
1.40095e-06
1.879e-07
1.40199e-06
6.10966e-07
6.35399e-07
1.15537e-06
1.87373e-07
1.39839e-06
1.86888e-07
1.39782e-06
6.10591e-07
7.16452e-08
7.4236e-08
1.14588e-06
6.96889e-08
7.09067e-08
1.39046e-08
1.37335e-08
1.37319e-08
1.38972e-08
1.15322e-06
7.01944e-08
7.04938e-08
7.19791e-08
7.36978e-08
1.36764e-08
1.39132e-08
5.61769e-07
1.79955e-07
1.38058e-06
1.14153e-06
5.86979e-07
1.81009e-07
1.37708e-06
1.50101e-07
3.16755e-08
1.50246e-07
3.0783e-08
5.61582e-07
1.38379e-06
1.82859e-07
1.14344e-06
5.74299e-07
1.38856e-06
1.8371e-07
1.49258e-07
2.98262e-08
3.0125e-08
1.49803e-07
5.72543e-07
1.13493e-06
1.80443e-07
1.37762e-06
1.80242e-07
1.37458e-06
5.63513e-07
1.49124e-07
3.0653e-08
3.118e-08
1.49132e-07
5.77482e-07
1.14206e-06
1.38257e-06
1.83534e-07
1.38262e-06
1.82597e-07
5.61634e-07
1.56185e-07
3.09929e-08
1.55248e-07
3.03142e-08
5.76415e-07
1.38002e-06
1.7817e-07
1.13889e-06
5.9436e-07
1.38452e-06
1.78759e-07
1.55473e-07
3.00775e-08
1.54676e-07
2.96746e-08
5.94912e-07
1.14187e-06
1.81941e-07
1.38163e-06
1.81192e-07
1.3772e-06
5.88997e-07
1.55364e-07
3.04002e-08
3.10608e-08
1.56117e-07
5.92712e-07
1.13299e-06
1.38175e-06
1.79227e-07
1.37972e-06
1.783e-07
5.74229e-07
1.55212e-07
2.97878e-08
3.03074e-08
1.55533e-07
7.23988e-08
7.40742e-08
1.15029e-06
7.06102e-08
7.12179e-08
1.4006e-08
1.38363e-08
1.37986e-08
1.40449e-08
1.15463e-06
7.01187e-08
7.1348e-08
7.44593e-08
7.40234e-08
1.37961e-08
1.39376e-08
6.10467e-07
1.40122e-06
1.8683e-07
1.15758e-06
6.2795e-07
1.40212e-06
1.86605e-07
1.6692e-07
3.18228e-08
1.66068e-07
3.11561e-08
1.65938e-07
3.13505e-08
1.6505e-07
3.06607e-08
6.29582e-07
1.16128e-06
1.40387e-06
1.87904e-07
1.40728e-06
1.87529e-07
6.25727e-07
6.25902e-07
1.15574e-06
1.40822e-06
1.86529e-07
1.40624e-06
1.85974e-07
6.10557e-07
1.66337e-07
3.11138e-08
3.17258e-08
1.65925e-07
1.64815e-07
3.08516e-08
3.11195e-08
1.6503e-07
1.34813e-08
1.33702e-08
1.37071e-08
1.3568e-08
1.1536e-06
6.80155e-08
6.99947e-08
6.8964e-08
7.07564e-08
1.33854e-08
1.35115e-08
1.3595e-08
1.36444e-08
1.39621e-08
1.38084e-08
1.35665e-08
1.33995e-08
7.31552e-08
7.04288e-08
1.13654e-06
7.20921e-08
6.90258e-08
1.38548e-08
1.40889e-08
1.33344e-08
1.34956e-08
1.15131e-06
7.21217e-08
6.82346e-08
7.32472e-08
7.18383e-08
1.667e-07
3.16408e-08
1.66307e-07
3.10991e-08
6.15906e-07
1.88509e-07
1.40607e-06
1.15396e-06
6.21274e-07
1.89096e-07
1.40136e-06
6.13538e-07
1.86789e-07
1.40317e-06
1.15414e-06
6.26112e-07
1.87729e-07
1.39993e-06
1.66915e-07
3.12339e-08
3.1351e-08
1.67593e-07
1.65615e-07
3.11753e-08
3.17081e-08
1.65889e-07
6.26865e-07
1.14952e-06
1.88622e-07
1.39814e-06
1.88162e-07
1.39806e-06
6.14092e-07
6.36156e-07
1.15437e-06
1.87828e-07
1.39889e-06
1.87076e-07
1.39808e-06
6.14531e-07
7.24743e-08
7.27968e-08
1.1382e-06
7.03913e-08
7.02757e-08
1.3859e-08
1.37675e-08
1.38491e-08
1.38441e-08
1.14924e-06
7.03973e-08
7.00645e-08
7.25464e-08
7.4528e-08
1.36954e-08
1.39522e-08
5.59903e-07
1.79481e-07
1.37407e-06
1.14196e-06
5.71524e-07
1.79834e-07
1.3776e-06
1.49957e-07
3.13594e-08
1.49334e-07
3.10579e-08
5.63935e-07
1.37955e-06
1.82841e-07
1.14037e-06
5.78379e-07
1.38556e-06
1.83565e-07
1.48548e-07
2.95886e-08
2.99853e-08
1.49249e-07
5.70566e-07
1.1361e-06
1.79327e-07
1.37556e-06
1.78841e-07
1.37934e-06
5.59766e-07
1.49849e-07
3.05802e-08
3.14005e-08
1.50582e-07
5.75803e-07
1.13718e-06
1.37915e-06
1.83679e-07
1.37848e-06
1.82719e-07
5.59396e-07
1.56062e-07
3.07472e-08
1.55692e-07
3.0515e-08
5.77427e-07
1.38228e-06
1.78679e-07
1.13692e-06
5.94438e-07
1.37994e-06
1.79162e-07
1.56044e-07
3.01674e-08
1.5508e-07
2.97658e-08
5.88521e-07
1.14147e-06
1.82369e-07
1.38331e-06
1.8121e-07
1.38109e-06
5.88851e-07
1.55027e-07
3.05218e-08
3.09471e-08
1.55586e-07
5.94824e-07
1.13246e-06
1.38385e-06
1.793e-07
1.37848e-06
1.78129e-07
5.78761e-07
1.55579e-07
2.94331e-08
2.98391e-08
1.55936e-07
7.14134e-08
7.57162e-08
1.14398e-06
7.06367e-08
7.13472e-08
1.39279e-08
1.38027e-08
1.37897e-08
1.38533e-08
1.15393e-06
7.00462e-08
7.16793e-08
7.35839e-08
7.54347e-08
1.38373e-08
1.39582e-08
6.09245e-07
1.40754e-06
1.8585e-07
1.16221e-06
6.26861e-07
1.40378e-06
1.85836e-07
1.64819e-07
3.16127e-08
1.64924e-07
3.10655e-08
1.64661e-07
3.10328e-08
1.64446e-07
3.07194e-08
6.268e-07
1.15936e-06
1.40172e-06
1.87967e-07
1.40206e-06
1.86486e-07
6.09795e-07
6.20933e-07
1.16508e-06
1.40303e-06
1.85118e-07
1.40205e-06
1.84842e-07
6.08413e-07
1.6405e-07
3.10479e-08
3.15746e-08
1.64375e-07
1.63924e-07
3.04642e-08
3.1098e-08
1.6368e-07
1.34273e-08
1.34024e-08
1.36629e-08
1.3559e-08
1.1385e-06
6.80179e-08
7.04905e-08
6.91952e-08
7.04636e-08
1.33126e-08
1.33852e-08
1.3492e-08
1.35984e-08
1.39877e-08
1.38885e-08
1.35265e-08
1.33494e-08
7.56627e-08
7.11658e-08
1.13522e-06
7.15264e-08
6.81513e-08
1.38796e-08
1.39997e-08
1.33584e-08
1.34936e-08
1.13918e-06
7.13377e-08
6.84422e-08
7.49974e-08
7.03237e-08
1.66732e-07
3.15401e-08
1.65644e-07
3.13329e-08
6.17809e-07
1.87841e-07
1.403e-06
1.15224e-06
6.20489e-07
1.88599e-07
1.3974e-06
6.1257e-07
1.87383e-07
1.40356e-06
1.15173e-06
6.31727e-07
1.88249e-07
1.39927e-06
1.65938e-07
3.1044e-08
3.15995e-08
1.67087e-07
1.66495e-07
3.12776e-08
3.15785e-08
1.67316e-07
6.2705e-07
1.14939e-06
1.88558e-07
1.39641e-06
1.87862e-07
1.39885e-06
6.26027e-07
6.20115e-07
1.14918e-06
1.88271e-07
1.4025e-06
1.8755e-07
1.40268e-06
6.13664e-07
7.19419e-08
7.27e-08
1.14201e-06
6.94978e-08
7.00278e-08
1.39445e-08
1.3744e-08
1.38811e-08
1.3792e-08
1.15736e-06
6.99001e-08
7.02626e-08
7.13139e-08
7.30764e-08
1.36764e-08
1.38604e-08
5.5999e-07
1.7887e-07
1.37616e-06
1.13785e-06
5.71328e-07
1.79294e-07
1.37985e-06
1.50325e-07
3.10004e-08
1.49946e-07
3.07147e-08
5.62837e-07
1.38133e-06
1.828e-07
1.14353e-06
5.64826e-07
1.3818e-06
1.82841e-07
1.49549e-07
2.95138e-08
2.98925e-08
1.50904e-07
5.82277e-07
1.13553e-06
1.78009e-07
1.3734e-06
1.78341e-07
1.38213e-06
5.65315e-07
1.49292e-07
3.07095e-08
3.10625e-08
1.49862e-07
5.65752e-07
1.13639e-06
1.37385e-06
1.82332e-07
1.38159e-06
1.81932e-07
5.59115e-07
1.55038e-07
3.11156e-08
1.5461e-07
3.05945e-08
5.82486e-07
1.37925e-06
1.78699e-07
1.13759e-06
5.93788e-07
1.37758e-06
1.79421e-07
1.55715e-07
3.00628e-08
1.5538e-07
2.95466e-08
6.00294e-07
1.13973e-06
1.82917e-07
1.38052e-06
1.81634e-07
1.38362e-06
5.78175e-07
1.54497e-07
3.04381e-08
3.09692e-08
1.55003e-07
5.96159e-07
1.13181e-06
1.37668e-06
1.79733e-07
1.38139e-06
1.7868e-07
5.78491e-07
1.54823e-07
2.96794e-08
3.01817e-08
1.55248e-07
7.13765e-08
7.55282e-08
1.14592e-06
6.97866e-08
7.22395e-08
1.40566e-08
1.38567e-08
1.37271e-08
1.39237e-08
1.16273e-06
6.97194e-08
7.2084e-08
7.11556e-08
7.66634e-08
1.38609e-08
1.40176e-08
6.04521e-07
1.40293e-06
1.84455e-07
1.1585e-06
6.32847e-07
1.40147e-06
1.85139e-07
1.6435e-07
3.16229e-08
1.63684e-07
3.1106e-08
1.62731e-07
3.10198e-08
1.63066e-07
3.04619e-08
6.20136e-07
1.1576e-06
1.3973e-06
1.87087e-07
1.40548e-06
1.87027e-07
6.15053e-07
6.2787e-07
1.15569e-06
1.39719e-06
1.85302e-07
1.40388e-06
1.84516e-07
6.05688e-07
1.64025e-07
3.1193e-08
3.17718e-08
1.6537e-07
1.62716e-07
3.03295e-08
3.10925e-08
1.63456e-07
1.34168e-08
1.32588e-08
1.37164e-08
1.34799e-08
1.13924e-06
6.69566e-08
7.06359e-08
7.06996e-08
7.14277e-08
1.3184e-08
1.32912e-08
1.34794e-08
1.35797e-08
1.3949e-08
1.37826e-08
1.34345e-08
1.33024e-08
7.24385e-08
7.00396e-08
1.13479e-06
7.10153e-08
6.79272e-08
1.37755e-08
1.4033e-08
1.32843e-08
1.34102e-08
1.14663e-06
7.13956e-08
6.84228e-08
7.42957e-08