/*--------------------------------*- C++ -*----------------------------------*\
| =========                 |                                                 |
| \\      /  F ield         | OpenFOAM: The Open Source CFD Toolbox           |
|  \\    /   O peration     | Version:  2206                                  |
|   \\  /    A nd           | Website:  www.openfoam.com                      |
|    \\/     M anipulation  |                                                 |
\*---------------------------------------------------------------------------*/
FoamFile
{
    version     2.0;
    format      ascii;
    arch        "LSB;label=32;scalar=64";
    class       surfaceScalarField;
    location    "30";
    object      phi;
}
// * * * * * * * * * * * * * * * * * * * * * * * * * * * * * * * * * * * * * //

dimensions      [0 3 -1 0 0 0 0];

oriented        oriented;

internalField   nonuniform List<scalar> 
199822
(
-2.16734e-12
5.78062e-13
-1.08776e-07
-6.28924e-13
8.33251e-13
1.08778e-07
-1.04675e-07
-3.95738e-11
-2.30925e-12
2.88526e-14
1.04672e-07
2.69804e-11
4.04733e-11
-2.34242e-11
-4.90628e-11
4.92937e-11
5.12277e-11
-5.10429e-11
-1.05535e-07
-4.40822e-11
1.50784e-12
-1.16765e-12
1.05537e-07
1.531e-11
4.45913e-11
-1.58266e-11
2.36188e-12
1.94579e-11
-2.97476e-12
-2.1416e-11
-2.5513e-08
-1.08662e-10
1.72617e-10
-7.3881e-11
1.53911e-10
2.5369e-08
-9.17384e-13
-5.3289e-13
-1.08775e-07
2.00117e-13
6.25778e-13
1.08776e-07
-1.04671e-07
-3.94549e-11
-1.65664e-13
-8.95571e-13
1.04671e-07
2.69478e-11
4.07494e-11
-2.67979e-11
-4.99709e-11
4.84103e-11
5.00805e-11
-4.966e-11
-1.05535e-07
-4.42413e-11
-5.70886e-13
7.26619e-13
1.05536e-07
1.51739e-11
4.40583e-11
-1.64172e-11
3.15979e-12
2.00626e-11
-2.23681e-12
-2.06369e-11
-2.55128e-08
5.10267e-11
2.59914e-11
5.42001e-11
1.35365e-11
2.53681e-08
-6.40334e-14
-8.2452e-13
-1.08774e-07
2.58871e-13
1.45575e-14
1.08775e-07
-1.0467e-07
-3.94154e-11
-2.89043e-13
3.91211e-13
1.04669e-07
2.68693e-11
4.06796e-11
-2.35909e-11
-5.00297e-11
4.82982e-11
5.0008e-11
-5.1833e-11
-1.05535e-07
-4.43854e-11
-3.29397e-13
-1.09573e-13
1.05537e-07
1.48974e-11
4.39736e-11
-1.63696e-11
3.26717e-12
2.01367e-11
-2.12826e-12
-2.0664e-11
-2.55124e-08
-1.08643e-10
1.73578e-10
-7.52465e-11
1.54338e-10
2.53684e-08
-6.51005e-13
-1.9277e-13
-1.08775e-07
-5.91441e-14
7.30802e-14
1.08776e-07
-1.0467e-07
-3.96562e-11
-4.20147e-13
-7.8817e-13
1.04671e-07
2.67434e-11
4.06115e-11
-2.69742e-11
-4.96862e-11
4.84946e-11
5.01129e-11
-4.93007e-11
-1.05538e-07
-4.41143e-11
-6.98557e-13
2.63967e-13
1.0554e-07
1.53004e-11
4.42785e-11
-1.59563e-11
3.10982e-12
1.97007e-11
-2.75281e-12
-2.07044e-11
-2.55126e-08
5.10201e-11
2.56934e-11
5.45455e-11
1.33872e-11
2.53679e-08
-1.58095e-12
5.2111e-13
-1.08776e-07
-2.48805e-13
8.33224e-13
1.08776e-07
-1.04671e-07
-3.96507e-11
-2.06625e-12
3.00825e-13
1.04671e-07
2.6657e-11
4.06038e-11
-2.34013e-11
-4.95108e-11
4.87022e-11
5.04927e-11
-5.14145e-11
-1.05542e-07
-4.38515e-11
4.84245e-13
-2.03724e-12
1.05544e-07
1.54559e-11
4.45951e-11
-1.5771e-11
3.08434e-12
1.95934e-11
-2.69211e-12
-2.07087e-11
-2.55131e-08
-1.0858e-10
1.72831e-10
-7.4573e-11
1.54185e-10
2.53692e-08
-2.54208e-12
4.4987e-13
-1.08777e-07
-3.18633e-14
1.83286e-12
1.08777e-07
-1.04673e-07
-3.96818e-11
-8.73123e-13
-1.26405e-12
1.04673e-07
2.67162e-11
4.07987e-11
-2.6721e-11
-4.95956e-11
4.86611e-11
5.0446e-11
-4.90902e-11
-1.05544e-07
-4.39293e-11
1.02314e-12
-5.31363e-13
1.05544e-07
1.53504e-11
4.45777e-11
-1.58826e-11
3.15663e-12
1.96472e-11
-2.79006e-12
-2.06083e-11
-2.55132e-08
5.10929e-11
2.56744e-11
5.4422e-11
1.33826e-11
2.53686e-08
-5.59757e-12
-2.9812e-12
-1.08776e-07
3.16166e-12
4.9828e-12
1.08777e-07
-1.04674e-07
-3.96131e-11
2.0311e-12
1.45636e-13
1.04671e-07
2.67815e-11
4.05965e-11
-2.33965e-11
-4.98609e-11
4.81723e-11
4.99816e-11
-5.17538e-11
-1.05544e-07
-4.39466e-11
5.27213e-12
-8.69259e-13
1.05541e-07
1.53249e-11
4.42778e-11
-1.61642e-11
2.94184e-12
1.93483e-11
-2.97174e-12
-2.07555e-11
-2.55135e-08
-1.08443e-10
1.73171e-10
-7.48705e-11
1.54144e-10
2.53695e-08
-1.41908e-11
-1.16855e-11
-1.08776e-07
1.29316e-11
1.47557e-11
1.08774e-07
-1.04677e-07
-3.92119e-11
1.01159e-11
-2.46117e-12
1.04671e-07
2.74397e-11
4.02667e-11
-2.75465e-11
-4.97876e-11
4.76961e-11
4.9381e-11
-4.96056e-11
-1.05544e-07
-4.35626e-11
1.37968e-11
-4.79204e-13
1.05535e-07
1.61898e-11
4.38047e-11
-1.70463e-11
2.85613e-12
1.87949e-11
-3.78688e-12
-2.10441e-11
-2.55127e-08
5.07129e-11
2.53084e-11
5.46775e-11
1.35532e-11
2.53685e-08
-2.1764e-11
-1.71816e-11
-1.08781e-07
2.66017e-11
3.09594e-11
1.08762e-07
-1.04678e-07
-3.60181e-11
1.31044e-11
-2.1731e-11
1.04678e-07
3.27689e-11
4.09022e-11
-2.49947e-11
-4.48e-11
4.56361e-11
4.53099e-11
-4.92231e-11
-1.05543e-07
-4.06581e-11
2.42477e-11
-2.25943e-11
1.05538e-07
2.10947e-11
4.42621e-11
-1.80423e-11
7.5034e-12
1.62497e-11
-8.23661e-12
-1.84977e-11
-2.55105e-08
-1.12197e-10
1.69575e-10
-7.23646e-11
1.56395e-10
2.53691e-08
3.49627e-11
4.59454e-11
-1.08779e-07
-1.58977e-11
-1.0896e-12
1.08715e-07
-1.04632e-07
-2.69893e-11
-4.89495e-11
-1.15057e-10
1.04729e-07
4.45163e-11
5.20188e-11
-1.70661e-11
-2.94662e-11
4.16549e-11
3.81416e-11
-3.53974e-11
-1.05499e-07
-3.22313e-11
-2.73354e-11
-1.15152e-10
1.05583e-07
3.23693e-11
5.47375e-11
-7.59047e-12
2.21198e-11
1.19845e-11
-1.60145e-11
-7.25588e-12
-2.55007e-08
3.85694e-11
1.35473e-11
6.16606e-11
2.06317e-11
2.53663e-08
-1.15951e-10
7.35809e-10
-1.08387e-07
-3.78222e-10
-6.37757e-10
1.08783e-07
-1.04318e-07
3.80427e-11
-7.44658e-10
-4.10909e-10
1.04788e-07
1.0586e-10
1.47251e-10
7.54594e-11
7.73432e-11
1.12928e-10
9.50212e-11
3.4163e-11
-1.05189e-07
3.17985e-11
7.53069e-11
4.02528e-10
1.0543e-07
9.32232e-11
1.48986e-10
8.24545e-12
-3.01822e-10
-4.61158e-11
-4.19559e-10
-2.33451e-10
-2.54703e-08
-1.88936e-10
9.55068e-11
-7.44817e-12
2.18593e-10
2.53526e-08
7.44808e-10
8.31909e-10
-1.21853e-07
-4.26505e-09
-4.24862e-09
2.8835e-08
2.87398e-08
2.89044e-08
2.89056e-08
1.84247e-09
2.91068e-09
1.97052e-09
1.86017e-09
2.88356e-09
1.93823e-09
-2.58623e-08
-2.42405e-09
5.74872e-11
-2.70982e-09
7.89272e-10
3.01495e-08
-2.47457e-08
-8.353e-10
-2.02258e-09
1.21414e-10
-2.27869e-09
2.97609e-08
-2.57365e-08
1.99303e-09
2.01484e-09
-2.2515e-09
-1.95114e-09
2.59312e-08
-3.73848e-11
-4.03542e-11
2.54996e-08
-2.53553e-08
-3.32778e-11
-3.32512e-11
1.06526e-07
1.25938e-12
-1.06526e-07
6.86584e-13
-3.65025e-11
-1.13068e-11
1.08873e-11
-2.53162e-11
-1.97591e-11
1.79585e-11
2.46806e-11
3.78097e-11
1.06554e-07
-4.022e-14
-1.06558e-07
1.95605e-12
-3.58736e-11
-1.17504e-11
1.21685e-11
-2.50675e-11
-1.9131e-11
1.83214e-11
2.55122e-11
-4.0909e-11
2.55012e-08
-2.5356e-08
-3.31801e-11
-3.32785e-11
1.04691e-07
-1.00395e-12
-1.04691e-07
2.11266e-13
-3.9807e-11
-2.6806e-11
2.65147e-11
5.06426e-11
-4.86055e-11
4.83023e-11
-4.93832e-11
3.08871e-11
1.05659e-07
-4.56052e-13
-1.0566e-07
1.19717e-13
-3.04247e-11
-2.40923e-11
2.686e-11
3.17664e-11
-4.78924e-11
4.49663e-11
-3.10599e-11
-3.40789e-12
-1.04676e-07
-1.30804e-12
-3.95087e-11
-2.64708e-11
2.72034e-11
5.12516e-11
-4.80848e-11
-4.88733e-11
4.91444e-11
5.33128e-11
1.05624e-07
4.58025e-11
-1.05675e-07
-2.45177e-11
-2.8452e-11
-2.26565e-11
2.32648e-11
3.25063e-11
-4.6053e-11
4.82855e-11
-3.06025e-11
-4.49576e-11
2.55051e-08
-2.53617e-08
-4.06654e-11
-2.69365e-11
1.35867e-12
-1.05534e-07
-5.47139e-13
-4.41512e-11
-1.53445e-11
1.19332e-11
-2.31195e-12
-2.11502e-11
2.30816e-12
2.20918e-11
2.65256e-11
1.05631e-07
-6.4854e-11
-1.05578e-07
3.04271e-11
-4.53735e-11
-1.49113e-11
1.5872e-11
-2.51794e-12
-2.14177e-11
1.97018e-11
3.36701e-12
-2.5368e-08
-5.39021e-11
-1.13996e-11
3.63814e-11
3.9643e-11
3.39473e-11
3.45803e-11
2.5355e-08
-3.70635e-11
-4.0583e-11
2.54999e-08
-2.53555e-08
-3.30759e-11
-3.36513e-11
9.30243e-13
1.06526e-07
1.09762e-11
3.7359e-11
-1.13706e-11
2.47501e-11
1.76672e-11
-2.60208e-11
-2.01058e-11
-3.59166e-11
8.28727e-13
7.8527e-13
1.06555e-07
1.20377e-11
3.7266e-11
-1.57905e-11
2.51526e-11
1.80229e-11
-2.56094e-11
-1.73305e-11
1.06525e-07
2.68537e-13
-1.06524e-07
1.23483e-12
-3.6553e-11
-1.17981e-11
1.06997e-11
-2.53387e-11
-1.97821e-11
1.83269e-11
2.52205e-11
3.67466e-11
1.06555e-07
1.06003e-12
-1.06554e-07
1.00835e-12
-3.64514e-11
-1.28899e-11
1.14074e-11
-2.5481e-11
-1.96429e-11
1.81147e-11
2.51496e-11
3.39502e-11
3.52107e-11
2.53564e-08
-4.08003e-11
2.55014e-08
-2.53567e-08
-3.31241e-11
-3.40639e-11
1.5339e-13
1.0469e-07
2.64604e-11
4.0268e-11
-2.69338e-11
-4.91548e-11
4.82714e-11
5.06406e-11
-4.86589e-11
-3.02931e-11
-3.90348e-13
5.11679e-13
1.05659e-07
2.329e-11
3.09013e-11
-2.41278e-11
-3.09638e-11
4.73273e-11
3.17538e-11
-4.81125e-11
1.04687e-07
-1.13915e-12
-1.04687e-07
-3.90417e-13
-3.9309e-11
-2.67153e-11
2.68306e-11
5.06832e-11
-4.89774e-11
4.83093e-11
-4.98885e-11
3.12322e-11
1.05658e-07
4.17525e-14
-1.05659e-07
-3.20132e-13
-2.96919e-11
-2.39748e-11
2.73374e-11
3.17154e-11
-4.84126e-11
4.48708e-11
-3.153e-11
4.28361e-10
-1.30168e-10
1.04919e-07
6.92934e-11
1.88642e-10
6.64665e-11
-3.30479e-11
4.80458e-11
-7.38983e-11
3.31939e-11
3.75396e-13
-1.04671e-07
-1.88763e-12
-3.94206e-11
-2.66445e-11
2.70861e-11
5.07715e-11
-4.89499e-11
-4.97793e-11
4.86413e-11
-1.06886e-10
1.0562e-07
-4.28453e-10
-1.04918e-07
1.30577e-10
-1.86963e-10
-6.96763e-11
-6.45868e-11
3.42516e-11
-4.8261e-11
7.08283e-11
-3.2398e-11
4.15498e-11
2.75139e-11
2.53616e-08
-4.43563e-11
2.55053e-08
-2.53622e-08
-4.11409e-11
-2.64537e-11
-5.17026e-10
1.61387e-10
1.06375e-07
-2.82982e-11
-1.06851e-10
-1.09016e-10
5.88319e-12
1.89534e-11
6.99605e-12
-3.92955e-12
-1.63291e-13
-1.05535e-07
1.25356e-12
-4.3835e-11
-1.59684e-11
1.21243e-11
-2.16621e-12
-2.0409e-11
3.0681e-12
2.23758e-11
1.73339e-10
1.05632e-07
5.17732e-10
-1.06374e-07
-1.6222e-10
1.07014e-10
2.84189e-11
1.06207e-10
-6.03023e-12
-2.02063e-11
-6.11621e-12
3.94532e-12
-2.53687e-08
7.44462e-11
-1.52139e-10
3.67826e-11
3.93048e-11
3.42539e-11
3.40722e-11
2.53555e-08
-3.67334e-11
-4.0783e-11
2.55e-08
-2.53557e-08
-3.28846e-11
-3.39346e-11
1.54587e-12
1.06526e-07
1.04091e-11
3.66824e-11
-1.19443e-11
2.55353e-11
1.7964e-11
-2.55956e-11
-1.96435e-11
-3.67571e-11
1.24844e-12
1.60569e-12
1.06556e-07
1.11522e-11
3.66039e-11
-1.30287e-11
2.55961e-11
1.77234e-11
-2.58036e-11
-1.94116e-11
1.06528e-07
-9.57371e-13
-1.06527e-07
1.82955e-12
-3.68829e-11
-1.20486e-11
1.03705e-11
-2.50628e-11
-1.9214e-11
1.84186e-11
2.57801e-11
3.65059e-11
1.06557e-07
-3.14547e-13
-1.06556e-07
2.06788e-12
-3.68208e-11
-1.29788e-11
1.09962e-11
-2.49606e-11
-1.90992e-11
1.83718e-11
2.58383e-11
3.41957e-11
3.44134e-11
2.53566e-08
-4.09804e-11
2.55011e-08
-2.53565e-08
-3.28139e-11
-3.43749e-11
-3.16902e-13
1.04687e-07
2.6765e-11
4.04794e-11
-2.67653e-11
-4.99861e-11
4.78492e-11
5.00095e-11
-4.93445e-11
-2.98703e-11
8.20438e-13
-2.05456e-14
1.05658e-07
2.35785e-11
3.12679e-11
-2.39563e-11
-3.14709e-11
4.68991e-11
3.11264e-11
-4.86337e-11
1.04685e-07
-4.08768e-13
-1.04686e-07
-5.87757e-13
-3.90085e-11
-2.66335e-11
2.69717e-11
5.02342e-11
-4.90258e-11
4.78425e-11
-5.00434e-11
3.13908e-11
1.05657e-07
4.95885e-13
-1.05658e-07
-3.59528e-13
-2.96183e-11
-2.39946e-11
2.72208e-11
3.12377e-11
-4.85626e-11
4.47374e-11
-3.1599e-11
-4.61044e-11
2.36367e-11
1.05668e-07
2.20138e-11
3.00858e-11
-2.36554e-11
-3.1517e-11
4.58656e-11
-4.88713e-11
3.14377e-11
1.84016e-13
-1.04671e-07
-6.8429e-13
-3.91418e-11
-2.68206e-11
2.72455e-11
5.03967e-11
-4.929e-11
-4.98658e-11
4.82421e-11
5.30547e-11
1.05621e-07
4.85016e-11
-1.05668e-07
-2.44744e-11
-2.82179e-11
-2.37611e-11
2.25646e-11
3.12065e-11
-4.75905e-11
4.70969e-11
-3.20002e-11
4.10569e-11
2.80879e-11
2.53621e-08
-4.41644e-11
2.5505e-08
-2.53619e-08
-4.12707e-11
-2.62982e-11
6.29188e-11
-2.9588e-11
1.05579e-07
1.55091e-11
4.56816e-11
-1.608e-11
3.46121e-12
2.02021e-11
-2.04862e-11
-3.36097e-12
-7.00123e-13
-1.05535e-07
6.15264e-13
-4.42558e-11
-1.61446e-11
1.16487e-11
-1.7671e-12
-2.01114e-11
3.46706e-12
2.27622e-11
2.54716e-11
1.05632e-07
-6.43886e-11
-1.05579e-07
3.06447e-11
-4.63272e-11
-1.54148e-11
1.53645e-11
-2.1929e-12
-2.05525e-11
2.00858e-11
4.20116e-12
-2.53678e-08
-5.53343e-11
-1.09063e-11
3.70405e-11
3.92237e-11
3.42748e-11
3.39007e-11
2.53555e-08
-3.70162e-11
-4.04215e-11
2.55002e-08
-2.53559e-08
-3.33113e-11
-3.35539e-11
1.99098e-12
1.06529e-07
1.01648e-11
3.66028e-11
-1.22194e-11
2.57964e-11
1.81604e-11
-2.53311e-11
-1.95851e-11
-3.69559e-11
3.62224e-13
2.45605e-12
1.06559e-07
1.09414e-11
3.64669e-11
-1.65775e-11
2.56631e-11
1.80704e-11
-2.53805e-11
-1.69466e-11
1.06531e-07
-4.37084e-13
-1.0653e-07
1.62752e-12
-3.67247e-11
-1.17829e-11
1.0522e-11
-2.54142e-11
-1.94562e-11
1.82086e-11
2.54005e-11
3.68898e-11
1.06559e-07
1.42263e-13
-1.06558e-07
1.58388e-12
-3.64933e-11
-1.26287e-11
1.13562e-11
-2.54183e-11
-1.94663e-11
1.77683e-11
2.53072e-11
3.42637e-11
3.41531e-11
2.53563e-08
-4.07214e-11
2.55013e-08
-2.53566e-08
-3.32748e-11
-3.38211e-11
-4.74525e-13
1.04685e-07
2.66766e-11
4.0594e-11
-2.68527e-11
-4.99895e-11
4.78208e-11
4.97944e-11
-4.93216e-11
-2.98799e-11
1.28188e-12
2.64494e-13
1.05658e-07
2.34531e-11
3.11916e-11
-2.42449e-11
-3.15578e-11
4.67875e-11
3.10106e-11
-4.89798e-11
1.04687e-07
-6.16066e-13
-1.04686e-07
-3.50767e-13
-3.94292e-11
-2.68734e-11
2.64646e-11
5.01732e-11
-4.88382e-11
4.79263e-11
-4.98798e-11
3.13451e-11
1.05659e-07
6.98359e-13
-1.05659e-07
2.64854e-13
-2.98677e-11
-2.41749e-11
2.69572e-11
3.12077e-11
-4.86869e-11
4.46211e-11
-3.18124e-11
4.31176e-10
-1.30103e-10
1.04919e-07
6.84614e-11
1.88813e-10
6.57872e-11
-3.40342e-11
4.66265e-11
-7.47562e-11
3.19128e-11
6.08121e-13
-1.0467e-07
-1.50842e-12
-3.94925e-11
-2.69533e-11
2.6811e-11
5.04765e-11
-4.90608e-11
-4.98279e-11
4.83982e-11
-1.06944e-10
1.05621e-07
-4.27889e-10
-1.04919e-07
1.31417e-10
-1.86966e-10
-7.02081e-11
-6.5046e-11
3.4129e-11
-4.83893e-11
7.0846e-11
-3.24679e-11
4.09075e-11
2.80137e-11
2.53618e-08
-4.44775e-11
2.55052e-08
-2.53621e-08
-4.08235e-11
-2.64374e-11
-5.18791e-10
1.61988e-10
1.06378e-07
-2.87869e-11
-1.07795e-10
-1.09419e-10
6.67463e-12
1.93398e-11
7.72526e-12
-3.47359e-12
-8.8565e-13
-1.05537e-07
1.43271e-12
-4.41456e-11
-1.58265e-11
1.19406e-11
-2.26497e-12
-2.04221e-11
3.06786e-12
2.21058e-11
1.73355e-10
1.05638e-07
5.16223e-10
-1.06379e-07
-1.62243e-10
1.0684e-10
2.87506e-11
1.06306e-10
-5.9543e-12
-1.99261e-11
-6.18049e-12
4.19743e-12
-2.53685e-08
7.45752e-11
-1.52193e-10
3.66511e-11
3.94989e-11
3.39042e-11
3.43029e-11
2.53559e-08
-3.72785e-11
-4.02883e-11
2.55006e-08
-2.53564e-08
-3.32998e-11
-3.33905e-11
1.18383e-12
1.06532e-07
1.05562e-11
3.70522e-11
-1.16667e-11
2.54684e-11
1.781e-11
-2.5721e-11
-1.95583e-11
-3.64906e-11
9.15943e-13
1.33856e-12
1.0656e-07
1.13579e-11
3.71169e-11
-1.25171e-11
2.53368e-11
1.76698e-11
-2.58112e-11
-1.97703e-11
1.06533e-07
4.15056e-13
-1.06532e-07
7.51398e-13
-3.63844e-11
-1.15737e-11
1.0872e-11
-2.57302e-11
-1.97002e-11
1.80001e-11
2.51977e-11
3.73185e-11
1.0656e-07
8.67095e-13
-1.06559e-07
3.6354e-13
-3.61796e-11
-1.23452e-11
1.16749e-11
-2.55872e-11
-1.96682e-11
1.77285e-11
2.51434e-11
3.37609e-11
3.48037e-11
2.53566e-08
-4.06769e-11
2.55015e-08
-2.53569e-08
-3.30865e-11
-3.34584e-11
-4.52039e-13
1.04687e-07
2.64301e-11
4.03324e-11
-2.69639e-11
-4.95754e-11
4.78954e-11
4.99669e-11
-4.90035e-11
-3.00175e-11
1.30609e-12
6.58954e-13
1.05659e-07
2.32142e-11
3.10976e-11
-2.43197e-11
-3.1416e-11
4.67095e-11
3.0884e-11
-4.86169e-11
1.04689e-07
-1.62475e-12
-1.04687e-07
2.43215e-13
-3.9574e-11
-2.71261e-11
2.64623e-11
5.03643e-11
-4.88052e-11
4.80897e-11
-4.96708e-11
3.11656e-11
1.05659e-07
-2.9417e-13
-1.0566e-07
5.0965e-13
-3.00162e-11
-2.42622e-11
2.68676e-11
3.14301e-11
-4.83935e-11
4.48672e-11
-3.15393e-11
-4.59255e-11
2.43413e-11
1.05668e-07
2.177e-11
2.99406e-11
-2.41118e-11
-3.13658e-11
4.58625e-11
-4.86558e-11
3.15186e-11
-1.27694e-12
-1.04672e-07
-3.19161e-15
-3.9631e-11
-2.70048e-11
2.6718e-11
5.07709e-11
-4.89081e-11
-4.96489e-11
4.85955e-11
5.27203e-11
1.05622e-07
4.78588e-11
-1.05668e-07
-2.32505e-11
-2.84498e-11
-2.42474e-11
2.21706e-11
3.15668e-11
-4.76386e-11
4.72573e-11
-3.1961e-11
4.12382e-11
2.78074e-11
2.5362e-08
-4.4697e-11
2.55054e-08
-2.53623e-08
-4.0657e-11
-2.65234e-11
6.21743e-11
-3.03675e-11
1.05586e-07
1.57923e-11
4.60216e-11
-1.53849e-11
3.40808e-12
2.00013e-11
-2.03408e-11
-3.5113e-12
1.78835e-13
-1.0554e-07
-6.38803e-13
-4.38517e-11
-1.57441e-11
1.19942e-11
-2.5335e-12
-2.03998e-11
2.9919e-12
2.1997e-11
2.59978e-11
1.05639e-07
-6.37655e-11
-1.05585e-07
2.90847e-11
-4.55869e-11
-1.46384e-11
1.60597e-11
-2.82498e-12
-2.09104e-11
1.95513e-11
3.66769e-12
-2.53683e-08
-5.47997e-11
-1.10998e-11
3.63984e-11
3.9577e-11
3.39327e-11
3.44715e-11
2.53563e-08
-3.74029e-11
-4.03546e-11
2.55007e-08
-2.53565e-08
-3.31111e-11
-3.32942e-11
2.24151e-13
1.06533e-07
1.08069e-11
3.72811e-11
-1.15646e-11
2.53819e-11
1.77352e-11
-2.59085e-11
-1.97558e-11
-3.62006e-11
1.54225e-12
1.3974e-13
1.06562e-07
1.1592e-11
3.73136e-11
-1.57889e-11
2.54547e-11
1.76023e-11
-2.59517e-11
-1.71325e-11
1.06533e-07
6.18206e-13
-1.06533e-07
4.66671e-13
-3.62435e-11
-1.1611e-11
1.0866e-11
-2.56066e-11
-1.95022e-11
1.80959e-11
2.5291e-11
3.72847e-11
1.06561e-07
1.09399e-12
-1.06561e-07
6.85386e-13
-3.62554e-11
-1.24518e-11
1.14103e-11
-2.5605e-11
-1.95254e-11
1.78641e-11
2.51622e-11
3.39769e-11
3.48889e-11
2.53568e-08
-4.07329e-11
2.55015e-08
-2.53568e-08
-3.30592e-11
-3.3539e-11
-1.41282e-13
1.04689e-07
2.63974e-11
4.03066e-11
-2.70433e-11
-4.93401e-11
4.80573e-11
5.02185e-11
-4.89176e-11
-3.00691e-11
3.18951e-13
1.48959e-13
1.0566e-07
2.32138e-11
3.11544e-11
-2.40401e-11
-3.11866e-11
4.70441e-11
3.11325e-11
-4.82623e-11
1.04691e-07
-2.62907e-12
-1.0469e-07
6.68234e-13
-3.95376e-11
-2.69449e-11
2.64439e-11
5.06021e-11
-4.87814e-11
4.82603e-11
-4.9542e-11
3.11343e-11
1.05663e-07
-1.45026e-12
-1.05662e-07
7.26587e-13
-2.9972e-11
-2.41592e-11
2.68232e-11
3.1521e-11
-4.83378e-11
4.47946e-11
-3.13845e-11
4.30375e-10
-1.29779e-10
1.04919e-07
6.83664e-11
1.88728e-10
6.58813e-11
-3.35907e-11
4.6937e-11
-7.43905e-11
3.2246e-11
-1.34224e-12
-1.04673e-07
-9.32509e-13
-3.96613e-11
-2.684e-11
2.67714e-11
5.07499e-11
-4.86869e-11
-4.97149e-11
4.86136e-11
-1.07033e-10
1.0562e-07
-4.29265e-10
-1.04918e-07
1.31872e-10
-1.87008e-10
-7.01509e-11
-6.49496e-11
3.43456e-11
-4.83358e-11
7.10416e-11
-3.2355e-11
4.14345e-11
2.78122e-11
2.53623e-08
-4.46608e-11
2.55056e-08
-2.53626e-08
-4.07655e-11
-2.65306e-11
-5.17892e-10
1.59991e-10
1.06384e-07
-2.80725e-11
-1.07112e-10
-1.08758e-10
6.77771e-12
1.89303e-11
8.00941e-12
-4.03626e-12
-5.69238e-13
-1.05543e-07
5.62566e-13
-4.37905e-11
-1.5722e-11
1.20676e-11
-2.54216e-12
-2.02878e-11
3.10685e-12
2.21355e-11
1.73561e-10
1.05641e-07
5.16413e-10
-1.06383e-07
-1.62691e-10
1.07195e-10
2.87817e-11
1.06384e-10
-6.26502e-12
-1.98889e-11
-6.17024e-12
4.26528e-12
-2.53692e-08
7.46714e-11
-1.52145e-10
3.63239e-11
3.94945e-11
3.40919e-11
3.44694e-11
2.53563e-08
-3.74189e-11
-4.05343e-11
2.55005e-08
-2.53563e-08
-3.29456e-11
-3.33661e-11
-2.98849e-13
1.06532e-07
1.08104e-11
3.73457e-11
-1.16026e-11
2.55834e-11
1.79652e-11
-2.59591e-11
-1.9626e-11
-3.63716e-11
2.49052e-12
5.11033e-13
1.0656e-07
1.13006e-11
3.72511e-11
-1.2418e-11
2.56097e-11
1.76458e-11
-2.59407e-11
-1.95616e-11
1.06532e-07
-2.16975e-12
-1.0653e-07
5.38651e-14
-3.62855e-11
-1.15498e-11
1.08506e-11
-2.54151e-11
-1.9139e-11
1.83726e-11
2.57648e-11
3.71751e-11
1.0656e-07
-1.51234e-12
-1.06558e-07
7.82362e-13
-3.63392e-11
-1.2506e-11
1.1456e-11
-2.53164e-11
-1.92331e-11
1.83785e-11
2.55653e-11
3.39332e-11
3.4767e-11
2.53567e-08
-4.08814e-11
2.55015e-08
-2.53569e-08
-3.28387e-11
-3.37275e-11
-5.87845e-13
1.04691e-07
2.64269e-11
4.04005e-11
-2.67654e-11
-4.93149e-11
4.80111e-11
5.02157e-11
-4.85093e-11
-3.00931e-11
6.18189e-13
1.06531e-13
1.05663e-07
2.31807e-11
3.12019e-11
-2.39682e-11
-3.11135e-11
4.68832e-11
3.12564e-11
-4.82046e-11
1.04694e-07
-5.46956e-12
-1.0469e-07
-2.77269e-13
-3.93665e-11
-2.68139e-11
2.6725e-11
5.0667e-11
-4.83433e-11
4.83409e-11
-4.93233e-11
3.13179e-11
1.05666e-07
-4.16762e-12
-1.05664e-07
-4.92949e-15
-2.9848e-11
-2.39261e-11
2.70649e-11
3.17394e-11
-4.7913e-11
4.51474e-11
-3.10818e-11
-4.57848e-11
2.40857e-11
1.05667e-07
2.17426e-11
3.00515e-11
-2.38992e-11
-3.11936e-11
4.60294e-11
-4.8624e-11
3.15844e-11
-3.56943e-12
-1.04673e-07
7.82827e-14
-3.94088e-11
-2.66057e-11
2.69944e-11
5.07149e-11
-4.86792e-11
-4.97192e-11
4.84864e-11
5.30275e-11
1.05623e-07
4.51993e-11
-1.05667e-07
-2.39031e-11
-2.84236e-11
-2.38626e-11
2.23322e-11
3.14633e-11
-4.74048e-11
4.71397e-11
-3.19254e-11
4.13053e-11
2.77626e-11
2.53625e-08
-4.48143e-11
2.55058e-08
-2.53627e-08
-4.05921e-11
-2.63989e-11
6.37686e-11
-3.08212e-11
1.05588e-07
1.57931e-11
4.61294e-11
-1.52938e-11
3.60139e-12
1.9834e-11
-2.02717e-11
-3.66069e-12
-2.23719e-12
-1.05541e-07
-8.21677e-13
-4.37047e-11
-1.56717e-11
1.21758e-11
-2.27759e-12
-2.00208e-11
3.4539e-12
2.22694e-11
2.61759e-11
1.05641e-07
-6.6837e-11
-1.05586e-07
2.92229e-11
-4.57552e-11
-1.46034e-11
1.59526e-11
-2.71047e-12
-2.06182e-11
1.9614e-11
4.21359e-12
-2.53688e-08
-5.4697e-11
-1.08244e-11
3.65912e-11
3.95463e-11
3.40319e-11
3.42054e-11
2.53562e-08
-3.73213e-11
-4.04048e-11
2.55002e-08
-2.53561e-08
-3.29749e-11
-3.33943e-11
7.1916e-13
1.06529e-07
1.0626e-11
3.70004e-11
-1.19002e-11
2.53951e-11
1.76424e-11
-2.60217e-11
-1.95351e-11
-3.66382e-11
5.74385e-12
1.62589e-12
1.06558e-07
1.12078e-11
3.67834e-11
-1.62904e-11
2.51788e-11
1.77456e-11
-2.58614e-11
-1.72583e-11
1.06534e-07
-9.59825e-12
-1.06526e-07
8.05766e-15
-3.62677e-11
-1.18538e-11
1.10992e-11
-2.53674e-11
-1.79176e-11
1.84295e-11
2.67414e-11
3.72058e-11
1.06559e-07
-8.93637e-12
-1.06552e-07
6.17377e-13
-3.61177e-11
-1.28765e-11
1.18227e-11
-2.5208e-11
-1.82615e-11
1.83204e-11
2.65118e-11
3.40553e-11
3.44079e-11
2.53568e-08
-4.06622e-11
2.55012e-08
-2.53567e-08
-3.29519e-11
-3.36385e-11
-2.47144e-13
1.04692e-07
2.63022e-11
4.03048e-11
-2.6915e-11
-4.96036e-11
4.75896e-11
4.99086e-11
-4.87607e-11
-3.00837e-11
3.93255e-12
4.90915e-13
1.05663e-07
2.32394e-11
3.08884e-11
-2.42552e-11
-3.13413e-11
4.67145e-11
3.10177e-11
-4.8241e-11
1.04699e-07
-1.22965e-11
-1.0469e-07
-1.65414e-13
-3.93429e-11
-2.72175e-11
2.69334e-11
5.07039e-11
-4.74646e-11
4.83815e-11
-4.83723e-11
3.13045e-11
1.0567e-07
-1.10752e-11
-1.05663e-07
-6.98332e-13
-2.97314e-11
-2.42754e-11
2.73811e-11
3.18504e-11
-4.71835e-11
4.52214e-11
-3.01267e-11
4.34457e-10
-1.29556e-10
1.04918e-07
6.83502e-11
1.88726e-10
6.57595e-11
-3.4242e-11
4.64722e-11
-7.49241e-11
3.1798e-11
-9.22605e-12
-1.04671e-07
-5.5447e-13
-3.94829e-11
-2.71427e-11
2.71277e-11
5.07013e-11
-4.79971e-11
-4.86559e-11
4.84739e-11
-1.06856e-10
1.05625e-07
-4.38302e-10
-1.04916e-07
1.30351e-10
-1.86736e-10
-7.0242e-11
-6.44338e-11
3.4497e-11
-4.73502e-11
7.1255e-11
-3.12629e-11
4.13393e-11
2.77682e-11
2.53627e-08
-4.46525e-11
2.55055e-08
-2.53626e-08
-4.06849e-11
-2.63221e-11
-5.13466e-10
1.61144e-10
1.06383e-07
-2.84516e-11
-1.07346e-10
-1.09095e-10
6.47673e-12
1.85511e-11
7.67405e-12
-4.36749e-12
-1.10435e-11
-1.05537e-07
8.01171e-13
-4.37526e-11
-1.60412e-11
1.2408e-11
-2.10103e-12
-1.91834e-11
4.55439e-12
2.23769e-11
1.73559e-10
1.05646e-07
5.04839e-10
-1.0638e-07
-1.62828e-10
1.07261e-10
2.86064e-11
1.06875e-10
-5.74558e-12
-1.83546e-11
-5.71959e-12
5.79364e-12
-2.53688e-08
7.47011e-11
-1.51941e-10
3.61949e-11
3.90159e-11
3.42823e-11
3.44799e-11
2.53563e-08
-3.45168e-11
-3.76078e-11
2.54981e-08
-2.5356e-08
-3.48717e-11
-3.50782e-11
3.39037e-13
1.06524e-07
1.14166e-11
3.65504e-11
-1.26583e-11
2.52139e-11
1.71402e-11
-2.67768e-11
-1.97946e-11
-3.61969e-11
1.46166e-11
6.13448e-13
1.0655e-07
1.20819e-11
3.64218e-11
-1.35209e-11
2.51186e-11
1.70558e-11
-2.68567e-11
-2.01336e-11
1.06531e-07
-2.05858e-11
-1.06522e-07
1.29206e-11
-3.58951e-11
-1.66558e-11
1.24911e-11
-2.75094e-11
-1.60969e-11
1.71722e-11
3.03891e-11
3.44111e-11
1.06558e-07
-2.07689e-11
-1.06548e-07
1.29909e-11
-3.57138e-11
-1.75359e-11
1.34007e-11
-2.75034e-11
-1.61844e-11
1.71177e-11
3.03489e-11
3.41688e-11
3.47382e-11
2.53569e-08
-3.76614e-11
2.54992e-08
-2.53567e-08
-3.49819e-11
-3.54891e-11
-1.13569e-12
1.0469e-07
2.73578e-11
3.99763e-11
-2.77114e-11
-4.95742e-11
4.69986e-11
4.92062e-11
-4.89179e-11
-2.95537e-11
1.27809e-11
-1.01561e-15
1.05661e-07
2.42319e-11
3.05929e-11
-2.50363e-11
-3.15129e-11
4.60338e-11
3.02115e-11
-4.86232e-11
1.04698e-07
-2.13887e-11
-1.04689e-07
1.18447e-11
-3.90484e-11
-3.18831e-11
2.83514e-11
4.85353e-11
-4.58213e-11
4.73434e-11
-4.49849e-11
2.85865e-11
1.0567e-07
-2.01014e-11
-1.05661e-07
1.02253e-11
-2.93004e-11
-2.90403e-11
2.88154e-11
2.9725e-11
-4.53259e-11
4.40768e-11
-2.67985e-11
-3.43326e-11
2.43311e-11
1.05663e-07
2.25951e-11
2.93575e-11
-2.49825e-11
-3.1559e-11
4.52862e-11
-4.90698e-11
3.06564e-11
-1.86826e-11
-1.04673e-07
1.33178e-11
-3.92867e-11
-3.2013e-11
2.83301e-11
4.85133e-11
-4.62001e-11
-4.50981e-11
4.7635e-11
5.00926e-11
1.05626e-07
2.89381e-11
-1.05663e-07
-1.34479e-11
-2.7917e-11
-2.91011e-11
2.39467e-11
2.95689e-11
-4.46673e-11
4.62834e-11
-2.72165e-11
4.16048e-11
2.81225e-11
2.53627e-08
-4.18472e-11
2.55033e-08
-2.53622e-08
-4.26571e-11
-2.7999e-11
7.69163e-11
-3.12971e-11
1.05583e-07
1.65839e-11
4.54751e-11
-1.64928e-11
3.38206e-12
1.93266e-11
-2.07837e-11
-4.6436e-12
-2.35329e-11
-1.05533e-07
1.26905e-11
-4.35295e-11
-2.06865e-11
1.36527e-11
-4.36489e-12
-1.66104e-11
8.47064e-12
2.12685e-11
2.32835e-11
1.05644e-07
-8.88204e-11
-1.0558e-07
4.23783e-11
-4.53527e-11
-1.96001e-11
1.77688e-11
-4.63932e-12
-1.71339e-11
1.88381e-11
9.45488e-12
-2.53679e-08
-5.67006e-11
-1.26426e-11
3.31489e-11
3.57647e-11
3.63457e-11
3.6505e-11
2.53563e-08
-2.83416e-11
-3.12308e-11
2.54882e-08
-2.53569e-08
-3.55484e-11
-3.62396e-11
-1.99901e-11
1.06526e-07
1.65392e-11
3.69289e-11
-1.37008e-11
3.02075e-11
1.45889e-11
-3.13413e-11
-1.72164e-11
-3.309e-11
2.33036e-11
-2.00102e-11
1.06553e-07
1.73206e-11
3.70418e-11
-1.82785e-11
2.99166e-11
1.44911e-11
-3.12438e-11
-1.50624e-11
1.06486e-07
-1.85785e-11
-1.06541e-07
6.99767e-11
-3.47734e-11
-2.6008e-11
1.4511e-11
-3.16576e-11
-6.29991e-12
1.6062e-11
4.38366e-11
2.87253e-11
1.0651e-07
-2.07406e-11
-1.06564e-07
7.03952e-11
-3.46906e-11
-2.65524e-11
1.52888e-11
-3.16269e-11
-6.31754e-12
1.61301e-11
4.4089e-11
3.61811e-11
3.68932e-11
2.5357e-08
-3.16002e-11
2.54895e-08
-2.53572e-08
-3.53286e-11
-3.65243e-11
-2.14009e-11
1.04694e-07
3.26503e-11
4.07945e-11
-2.85369e-11
-4.46492e-11
4.52063e-11
4.52411e-11
-4.6527e-11
-2.63656e-11
1.85301e-11
-1.89978e-11
1.05665e-07
2.95041e-11
3.12159e-11
-2.58763e-11
-2.69091e-11
4.41793e-11
2.65326e-11
-4.62764e-11
1.04651e-07
-1.38593e-11
-1.04708e-07
6.72177e-11
-3.83521e-11
-4.16039e-11
3.04224e-11
4.45967e-11
-3.70782e-11
4.62153e-11
-3.21203e-11
2.19472e-11
1.05623e-07
-1.26887e-11
-1.05679e-07
6.46934e-11
-2.80324e-11
-3.87367e-11
3.10075e-11
2.56227e-11
-3.65728e-11
4.30657e-11
-1.43904e-11
4.46984e-10
-1.48433e-10
1.04919e-07
7.4563e-11
1.88884e-10
6.40062e-11
-2.92638e-11
4.39988e-11
-7.25243e-11
2.70852e-11
-1.07668e-11
-1.04694e-07
6.82447e-11
-3.8606e-11
-4.15109e-11
3.05785e-11
4.49002e-11
-3.71582e-11
-3.21276e-11
4.70385e-11
-1.15849e-10
1.05577e-07
-4.39867e-10
-1.04933e-07
1.96546e-10
-1.85581e-10
-8.47054e-11
-6.08169e-11
2.85848e-11
-3.67954e-11
6.95538e-11
-1.5189e-11
4.35001e-11
3.00548e-11
2.53628e-08
-3.61348e-11
2.54938e-08
-2.53633e-08
-4.34973e-11
-2.8818e-11
-4.93156e-10
1.38668e-10
1.06382e-07
-2.23653e-11
-1.07097e-10
-1.10949e-10
1.1115e-11
1.57271e-11
9.64447e-12
-9.5169e-12
-2.777e-11
-1.0555e-07
7.18484e-11
-4.29337e-11
-2.96132e-11
1.55661e-11
-8.18458e-12
-6.90469e-12
2.25562e-11
2.05245e-11
1.65062e-10
1.05601e-07
4.87126e-10
-1.06394e-07
-9.11719e-11
1.08384e-10
1.49119e-11
1.1043e-10
-1.17626e-11
-6.27526e-12
-7.39967e-12
2.35553e-11
-2.53692e-08
7.22499e-11
-1.54497e-10
2.40839e-11
2.63251e-11
4.12141e-11
4.11252e-11
2.53554e-08
-6.26988e-11
-6.17207e-11
2.54583e-08
-2.53616e-08
1.52028e-11
1.25242e-11
-1.14952e-10
1.06575e-07
2.82815e-11
4.72833e-11
-2.68475e-12
4.55161e-11
1.00841e-11
-3.89811e-11
-4.71174e-12
-2.48242e-11
-3.15284e-11
-1.1441e-10
1.06598e-07
2.85931e-11
4.70312e-11
-3.54186e-12
4.51419e-11
1.04969e-11
-3.90479e-11
-5.79929e-12
1.06168e-07
-7.08814e-11
-1.06629e-07
9.08588e-11
6.89411e-12
7.22383e-12
5.37371e-11
3.25355e-11
6.47492e-11
8.83615e-11
1.25423e-10
6.36654e-11
1.06193e-07
-7.43037e-11
-1.0665e-07
8.75907e-11
6.70555e-12
7.88422e-12
5.42715e-11
3.22086e-11
6.49703e-11
8.77335e-11
1.26039e-10
4.08076e-11
4.13763e-11
2.53556e-08
-6.26381e-11
2.54601e-08
-2.53621e-08
1.48288e-11
1.35194e-11
-1.13768e-10
1.04743e-07
4.5067e-11
5.18414e-11
-1.78944e-11
-2.93457e-11
4.16994e-11
3.83017e-11
-3.51436e-11
-1.68073e-11
-4.49775e-11
-1.12066e-10
1.05712e-07
4.16015e-11
4.23262e-11
-1.42653e-11
-1.074e-11
4.08958e-11
1.95703e-11
-3.39193e-11
1.04341e-07
-6.70555e-11
-1.04794e-07
9.33829e-11
-2.03726e-13
-1.13015e-11
6.79036e-11
1.10983e-10
3.13099e-11
1.18979e-10
4.70708e-11
5.43905e-11
1.05309e-07
-5.96691e-11
-1.05768e-07
8.68842e-11
1.29492e-11
-6.76608e-12
7.01241e-11
9.08056e-11
3.1384e-11
1.14783e-10
6.38968e-11
-9.29006e-11
-8.7994e-11
1.05714e-07
4.01218e-11
4.13484e-11
-1.39822e-11
-1.06814e-11
4.00551e-11
-3.41491e-11
1.97162e-11
-5.99088e-11
-1.04784e-07
9.11645e-11
3.18013e-14
-9.94786e-12
6.77829e-11
1.11411e-10
3.35527e-11
4.9208e-11
1.20182e-10
7.6034e-11
1.05263e-07
-1.16242e-11
-1.05769e-07
6.50027e-11
1.40136e-11
-6.70177e-12
6.51895e-11
9.06e-11
3.21165e-11
1.17264e-10
6.38054e-11
4.83956e-11
3.48494e-11
2.53616e-08
-6.84117e-11
2.54641e-08
-2.53678e-08
6.34769e-12
2.02246e-11
3.77889e-11
-1.46344e-10
1.05629e-07
3.32358e-11
5.62794e-11
-7.09942e-12
2.25422e-11
1.25748e-11
-6.9525e-12
-1.68447e-11
-9.15489e-11
-1.05633e-07
9.72522e-11
-4.1143e-12
2.23713e-12
5.21925e-11
5.70604e-11
6.4781e-11
1.05057e-10
9.2993e-11
4.96194e-11
1.05287e-07
-1.58288e-10
-1.05677e-07
1.27358e-10
-5.6343e-12
2.15348e-12
5.73261e-11
5.72323e-11
6.40791e-11
9.03405e-11
1.06038e-10
-2.53731e-08
-6.98573e-12
3.52889e-11
-4.24659e-11
-3.91188e-11
1.01452e-10
9.86804e-11
2.53395e-08
7.03018e-11
7.95781e-10
2.57371e-08
-2.49713e-08
-6.19183e-10