/*--------------------------------*- C++ -*----------------------------------*\
| =========                 |                                                 |
| \\      /  F ield         | OpenFOAM: The Open Source CFD Toolbox           |
|  \\    /   O peration     | Version:  2206                                  |
|   \\  /    A nd           | Website:  www.openfoam.com                      |
|    \\/     M anipulation  |                                                 |
\*---------------------------------------------------------------------------*/
FoamFile
{
    version     2.0;
    format      ascii;
    arch        "LSB;label=32;scalar=64";
    class       volVectorField;
    location    "30";
    object      U;
}
// * * * * * * * * * * * * * * * * * * * * * * * * * * * * * * * * * * * * * //

dimensions      [0 1 -1 0 0 0 0];

internalField   nonuniform List<vector> 
66940
(
(-1.18347e-06 2.95234e-07 0.126087)
(2.46345e-06 7.31455e-07 0.122898)
(2.10095e-06 -3.34717e-06 0.122936)
(-0.000206897 -0.000212008 0.119659)
(-2.05419e-07 -4.25022e-07 0.126085)
(-1.18639e-06 2.49955e-07 0.122893)
(3.12321e-06 -1.19639e-06 0.122935)
(-0.000212131 -0.000210107 0.119657)
(2.98243e-07 -1.33676e-06 0.126084)
(-1.34919e-06 6.85921e-07 0.122893)
(4.05123e-06 -4.87569e-07 0.122936)
(-0.000211835 -0.000211745 0.119656)
(-1.15933e-07 -9.85814e-07 0.126086)
(-8.62964e-08 2.81527e-07 0.122894)
(2.88205e-06 -1.25773e-06 0.12294)
(-0.000210804 -0.000209991 0.119657)
(-2.37881e-07 2.25605e-07 0.12609)
(1.57751e-06 3.57773e-07 0.122899)
(1.235e-06 -1.44135e-06 0.122946)
(-0.000208788 -0.000212254 0.11966)
(1.96253e-07 1.98123e-06 0.126094)
(1.58372e-06 -1.76739e-07 0.122904)
(1.34139e-06 -1.80157e-06 0.122951)
(-0.000211111 -0.000210704 0.119659)
(4.58772e-06 6.29474e-06 0.126091)
(-1.24588e-06 -1.19881e-08 0.122909)
(2.40182e-06 -4.20632e-06 0.122954)
(-0.000210148 -0.000212781 0.119661)
(1.43193e-05 1.5685e-05 0.126069)
(-7.82244e-06 -2.98753e-06 0.122921)
(6.66314e-07 -1.16592e-05 0.122967)
(-0.000209895 -0.000209329 0.119656)
(4.9021e-06 7.6429e-06 0.126034)
(-2.06935e-05 -3.10208e-05 0.122959)
(-2.61141e-05 -2.73699e-05 0.123011)
(-0.000200136 -0.000202607 0.119636)
(-0.000206246 -0.000198065 0.126011)
(-8.54277e-05 -0.000116287 0.122973)
(-0.000109346 -9.3618e-05 0.123051)
(-0.000180533 -0.000179344 0.11956)
(-0.00166948 -0.00166435 0.125574)
(-0.000372237 -0.000163419 0.122515)
(-0.000165508 -0.000373232 0.122647)
(9.0886e-05 9.31115e-05 0.11919)
(-0.0100575 -0.0101344 0.117317)
(0.000759627 0.000487644 0.115939)
(0.000362798 0.000742585 0.116102)
(0.00144669 0.00144214 0.115018)
(-0.000217846 -0.000218443 0.11964)
(2.20282e-06 3.18756e-06 0.122957)
(-1.81034e-06 1.46556e-06 0.122958)
(0.000218643 -0.000218739 0.119643)
(-5.36257e-07 1.2719e-06 0.122907)
(4.84747e-07 -1.74846e-06 0.122905)
(3.34128e-06 -6.93553e-07 0.122898)
(1.71644e-06 7.43875e-07 0.122899)
(-0.000215598 0.000216946 0.119639)
(9.60204e-07 -2.96537e-06 0.122936)
(-1.78697e-06 7.18205e-08 0.122963)
(0.00021779 0.000222367 0.119641)
(0.000208898 0.000212752 0.119655)
(-0.000216214 -0.00022 0.119642)
(2.9019e-06 4.46615e-06 0.122957)
(-2.32842e-06 2.91884e-06 0.122955)
(2.75844e-06 1.5818e-06 0.122955)
(-3.26588e-06 2.70481e-06 0.122958)
(-0.000206082 0.000211327 0.119659)
(0.00021406 -0.000219217 0.119645)
(8.24e-08 1.77676e-06 0.122907)
(7.68283e-07 -2.30254e-06 0.122906)
(-8.87787e-07 3.958e-07 0.122903)
(6.62444e-07 -8.13492e-07 0.122905)
(2.37523e-06 -9.33763e-07 0.122943)
(2.12963e-07 -3.20896e-07 0.122895)
(-1.66743e-06 -8.26854e-07 0.122904)
(0.000207998 -0.000212056 0.119654)
(-0.000213541 0.000219053 0.119641)
(-1.46997e-06 -3.08075e-06 0.122929)
(1.40602e-06 -1.00597e-06 0.122936)
(-2.87253e-06 -1.39898e-06 0.122958)
(0.000213781 0.00022301 0.119642)
(0.000210965 0.000211062 0.119656)
(-0.000214817 -0.000220699 0.119643)
(3.91306e-06 2.72187e-06 0.122955)
(-4.38047e-06 3.85928e-06 0.122958)
(4.38266e-06 6.8359e-07 0.122958)
(-4.63378e-06 8.93427e-07 0.122961)
(-0.000210089 0.000210415 0.11966)
(0.000213245 -0.000220279 0.119644)
(1.30903e-06 9.04988e-07 0.122902)
(2.01497e-06 -1.48445e-06 0.122904)
(4.25682e-08 -2.80111e-07 0.122902)
(1.40986e-06 -6.84254e-07 0.122904)
(-2.39515e-06 -9.08226e-07 0.122931)
(-4.22788e-07 -3.58551e-07 0.122894)
(-2.65823e-06 -2.83968e-07 0.122897)
(0.000210031 -0.000209608 0.119657)
(-0.000213149 0.000220035 0.11964)
(-3.54783e-06 -2.1682e-06 0.122937)
(2.89409e-06 2.63492e-07 0.122936)
(-3.98675e-06 1.13244e-06 0.122965)
(0.000212911 0.000222968 0.119639)
(0.00021182 0.000210673 0.119657)
(-0.000216415 -0.00021908 0.119644)
(5.24585e-06 1.95568e-06 0.122959)
(-5.21303e-06 2.24628e-06 0.12296)
(3.89627e-06 1.54219e-06 0.122961)
(-4.05575e-06 2.35865e-06 0.122962)
(-0.000211081 0.000210112 0.119659)
(0.000215407 -0.00021894 0.119645)
(1.57762e-06 5.88803e-07 0.122901)
(2.57269e-06 -1.77787e-06 0.122903)
(1.77999e-07 5.6707e-07 0.122901)
(1.74176e-06 -1.40206e-06 0.122905)
(-2.22661e-06 -1.38566e-06 0.122942)
(-3.94666e-07 2.04275e-07 0.122893)
(-2.38485e-06 -1.47677e-06 0.122904)
(0.000210656 -0.000209553 0.119655)
(-0.000215212 0.000220221 0.119641)
(-3.58124e-06 -1.10235e-06 0.122931)
(2.35661e-06 -8.35104e-07 0.122939)
(-3.5458e-06 -1.93672e-07 0.122965)
(0.000214634 0.000223234 0.11964)
(0.000210146 0.000212281 0.119659)
(-0.000217564 -0.000218966 0.119646)
(3.69105e-06 2.58843e-06 0.122964)
(-3.72841e-06 3.31869e-06 0.122964)
(2.59354e-06 2.83412e-06 0.122961)
(-2.61082e-06 3.44794e-06 0.122962)
(-0.000208799 0.0002118 0.11966)
(0.000217428 -0.000219451 0.119646)
(6.75276e-07 7.90844e-07 0.122904)
(2.23742e-06 -2.01481e-06 0.122907)
(-7.52565e-07 1.73994e-06 0.122901)
(9.69036e-07 -2.12285e-06 0.122904)
(-1.91726e-06 -1.21066e-06 0.122933)
(7.66517e-07 1.14126e-06 0.122892)
(-2.20932e-06 -1.92257e-06 0.122894)
(0.000209482 -0.000210461 0.119656)
(-0.000216075 0.000219488 0.119642)
(-2.73298e-06 -1.25232e-06 0.122946)
(1.62421e-06 -1.71285e-06 0.122941)
(-1.91094e-06 -4.13004e-07 0.12297)
(0.000215284 0.000221858 0.119642)
(0.000209278 0.000212659 0.11966)
(-0.000217936 -0.000219561 0.119646)
(2.16877e-06 3.27515e-06 0.122967)
(-1.86331e-06 3.516e-06 0.122967)
(2.32858e-06 3.10866e-06 0.122959)
(-2.74653e-06 3.54876e-06 0.12296)
(-0.000208112 0.000211632 0.11966)
(0.000217053 -0.000219654 0.119646)
(-9.56665e-07 1.02733e-06 0.12291)
(7.90965e-07 -1.40391e-06 0.12291)
(-1.11572e-06 2.4288e-06 0.1229)
(4.25299e-07 -2.59273e-06 0.122904)
(-2.84336e-07 -1.44528e-06 0.122946)
(1.13566e-06 1.32706e-06 0.12289)
(-1.69821e-06 -2.5641e-06 0.122898)
(0.000208555 -0.000210957 0.119657)
(-0.000215474 0.000219198 0.119642)
(-2.44342e-07 -1.5355e-06 0.122941)
(1.21545e-06 -1.80472e-06 0.12294)
(-2.47055e-06 -8.98274e-07 0.122963)
(0.000215051 0.000223093 0.119644)
(0.000209183 0.000212145 0.11966)
(-0.0002179 -0.000220291 0.119645)
(1.5923e-06 3.21919e-06 0.12297)
(-2.25058e-06 3.34576e-06 0.12297)
(1.90624e-06 2.39449e-07 0.122953)
(-2.57745e-06 8.73431e-07 0.122954)
(-0.000208817 0.000211857 0.119661)
(0.000216275 -0.000220322 0.119646)
(-1.18149e-06 7.1302e-07 0.122915)
(4.40192e-07 -1.49935e-06 0.122917)
(-3.0428e-06 1.47154e-06 0.122897)
(-1.94318e-06 -1.69389e-06 0.122901)
(-7.80067e-07 -5.70478e-07 0.122938)
(1.84839e-06 8.73173e-07 0.122888)
(-1.02216e-06 -1.58452e-06 0.122886)
(0.000209014 -0.000211111 0.119658)
(-0.000216266 0.000220014 0.119643)
(-1.55933e-06 -1.58862e-06 0.122955)
(6.70069e-07 5.61793e-07 0.122935)
(-1.9031e-06 2.04101e-06 0.122964)
(0.000216153 0.000223371 0.119644)
(0.00021009 0.000212355 0.11966)
(-0.000217489 -0.00022004 0.119645)
(3.00884e-06 5.38163e-06 0.122972)
(-3.50416e-06 5.46373e-06 0.122972)
(2.41372e-06 -6.42042e-06 0.122941)
(-2.98926e-06 -5.46029e-06 0.12294)
(-0.000209964 0.000211511 0.119661)
(0.000216876 -0.000220228 0.119646)
(1.46339e-06 1.04509e-06 0.122924)
(3.02254e-06 -1.91995e-06 0.122925)
(-8.73576e-06 2.33022e-06 0.122887)
(-7.86654e-06 -1.99016e-06 0.122892)
(-3.80927e-06 -1.97476e-06 0.122955)
(6.67694e-06 2.58599e-06 0.12288)
(5.33174e-06 -1.74101e-06 0.122884)
(0.000208671 -0.000210881 0.119659)
(-0.000215797 0.000220157 0.119643)
(-1.84595e-06 -4.3226e-06 0.122951)
(1.72409e-06 7.24694e-06 0.122922)
(-2.4666e-06 8.78641e-06 0.122948)
(0.000215189 0.000223886 0.119642)
(0.00020891 0.000210881 0.119657)
(-0.000209496 -0.000212173 0.119651)
(1.01659e-06 1.23688e-05 0.122985)
(-1.89307e-06 1.31245e-05 0.122981)
(2.07951e-05 -1.83007e-05 0.122903)
(-2.02217e-05 -1.80487e-05 0.122904)
(-0.000208166 0.000210704 0.119658)
(0.000208158 -0.000211129 0.119652)
(8.37592e-06 -1.89843e-06 0.122942)
(1.03963e-05 4.21165e-07 0.122942)
(-1.9865e-05 2.12456e-05 0.122848)
(-1.90139e-05 -1.93654e-05 0.122854)
(-1.08061e-05 6.56108e-07 0.122958)
(1.86191e-05 2.19162e-05 0.122854)
(1.6612e-05 -1.9597e-05 0.122841)
(0.000207502 -0.000209108 0.119656)
(-0.000207312 0.000212484 0.119648)
(-4.41397e-07 -1.15713e-05 0.122975)
(2.00546e-05 2.09844e-05 0.122884)
(-2.05726e-05 2.32311e-05 0.122915)
(0.000207381 0.000214683 0.119647)
(0.00020073 0.000202849 0.119637)
(-0.000196797 -0.000200626 0.119668)
(-2.51312e-05 2.75623e-05 0.123027)
(2.43001e-05 2.81461e-05 0.123023)
(7.55193e-05 -8.51882e-05 0.122837)
(-7.36587e-05 -8.49566e-05 0.122837)
(-0.000199747 0.000202498 0.119638)
(0.000196007 -0.000199409 0.119672)
(2.12735e-05 -3.07927e-05 0.122991)
(2.36141e-05 2.73447e-05 0.12299)
(-8.28068e-05 7.91614e-05 0.122777)
(-8.08352e-05 -7.51682e-05 0.122784)
(-2.29159e-05 2.69565e-05 0.123015)
(8.55053e-05 7.91901e-05 0.122808)
(7.98047e-05 -7.60303e-05 0.122781)
(0.00020037 -0.000201114 0.119636)
(-0.000195853 0.000200652 0.119665)
(2.7303e-05 -2.82782e-05 0.123013)
(7.58327e-05 9.0135e-05 0.122816)
(-7.56187e-05 9.24604e-05 0.122839)
(0.000194708 0.000203059 0.119664)
(0.000179421 0.000181681 0.119562)
(-0.000284762 -0.000286817 0.119784)
(-0.00010716 9.12259e-05 0.123064)
(0.000103832 9.20004e-05 0.123058)
(-7.93016e-05 -0.000698435 0.122808)
(8.7379e-05 -0.000698301 0.122806)
(-0.000178711 0.000181237 0.119562)
(0.000287425 -0.000285756 0.119806)
(8.13103e-05 -0.000117747 0.123033)
(8.08316e-05 0.000112508 0.123029)
(-0.000686186 -6.96022e-05 0.12274)
(-0.000676278 7.37381e-05 0.12275)
(-8.04303e-05 0.000111989 0.123038)
(0.000703292 -7.79224e-05 0.12282)
(0.000675669 7.53399e-05 0.122745)
(0.00017899 -0.000179519 0.11956)
(-0.000284812 0.000285013 0.119783)
(0.00011022 -9.50319e-05 0.123062)
(-7.48257e-05 0.000705538 0.122779)
(7.46181e-05 0.000710068 0.122799)
(0.000286044 0.000286113 0.11978)
(-9.46105e-05 -8.73599e-05 0.119192)
(-0.00364173 -0.00365638 0.118121)
(-0.00016112 0.000366973 0.122653)
(0.000150109 0.000367446 0.122649)
(-0.00321219 -0.00619689 0.120645)
(0.00325005 -0.00621444 0.120628)
(9.39053e-05 -8.89396e-05 0.119173)
(0.00369114 -0.00362275 0.118197)
(0.000348775 -0.000175259 0.122632)
(0.000336804 0.000174465 0.122625)
(-0.00619021 -0.00324082 0.120712)
(-0.00615457 0.00322915 0.120719)
(-0.00033652 0.000172024 0.122638)
(0.0062744 -0.00328692 0.120935)
(0.00616219 0.00322515 0.120725)
(-8.97028e-05 9.57159e-05 0.119186)
(-0.00362259 0.00365962 0.118122)
(0.000167017 -0.000378709 0.122653)
(-0.00320805 0.00620395 0.120632)
(0.00321934 0.00620756 0.120638)
(0.00362744 0.00365967 0.118119)
(-0.00144161 -0.00143095 0.115016)
(0.000393893 -0.000736303 0.116112)
(-0.000359929 -0.000813894 0.116062)
(0.00149455 -0.00146792 0.114886)
(-0.000750235 0.000403527 0.116182)
(-0.000771246 -0.0004147 0.116182)
(0.0103148 -0.0102303 0.117173)
(-0.0100451 0.0101208 0.11732)
(0.0100441 0.0101218 0.117321)
(0.000766225 -0.000423884 0.116186)
(-0.00144413 0.00144284 0.115006)
(-0.000353309 0.000744062 0.116114)
(1.47261e-05 -2.49622e-05 0.0801948)
(-1.4855e-06 1.74372e-07 0.126085)
(1.80164e-06 -1.02607e-06 0.12608)
(-1.33401e-06 -6.92538e-07 0.12608)
(1.52991e-06 1.25601e-06 0.126077)
(6.07286e-05 -8.62277e-07 0.115066)
(-2.47315e-06 1.02151e-06 0.122909)
(4.91526e-05 -3.66171e-05 0.110463)
(-1.11847e-06 -1.11886e-06 0.124169)
(0.000215 0.000217553 0.119642)
(2.26027e-05 2.89418e-05 0.103293)
(2.9022e-05 1.91617e-05 0.10336)
(-1.45217e-06 -6.28058e-05 0.10963)
(9.42464e-06 5.25834e-05 0.0921595)
(-3.14834e-07 6.92347e-05 0.109632)
(-1.07129e-05 -4.42768e-05 0.092265)
(-9.86468e-06 2.62679e-05 0.0801865)
(1.46838e-05 -1.67442e-05 0.0802761)
(-6.64404e-05 -1.05097e-06 0.10922)
(4.69096e-05 6.89626e-06 0.0919063)
(6.44967e-05 -4.88023e-07 0.109353)
(-4.86447e-05 -8.97656e-06 0.0919289)
(1.33739e-06 -5.93435e-07 0.126081)
(-1.1631e-06 -2.1932e-07 0.126082)
(-1.7949e-07 1.74506e-06 0.126086)
(-9.15263e-07 -3.53068e-07 0.126086)
(4.72606e-07 -1.40103e-07 0.126082)
(-4.78029e-07 -1.11088e-08 0.126079)
(5.51599e-07 -2.53624e-07 0.126081)
(5.93401e-05 -1.03748e-06 0.115065)
(-4.68625e-05 3.34268e-05 0.110561)
(3.10604e-06 -1.92174e-06 0.124159)
(2.0399e-06 -6.16092e-08 0.122899)
(-5.7209e-05 -1.25228e-06 0.115192)
(4.86416e-05 -3.64663e-05 0.110468)
(2.25006e-06 -1.47193e-06 0.124156)
(1.82777e-05 -9.96879e-06 0.0800649)
(-2.10297e-05 1.13387e-05 0.0801171)
(-1.23246e-06 5.59142e-05 0.11525)
(-9.70269e-07 -4.31067e-06 0.124248)
(3.33934e-05 -4.98858e-05 0.110722)
(1.05377e-06 -1.88115e-06 0.122938)
(-6.61492e-07 -6.21323e-05 0.115265)
(-1.70271e-06 -3.22716e-06 0.12425)
(-3.83951e-05 4.37427e-05 0.110709)
(-1.92634e-05 -2.8739e-05 0.103344)
(-2.84474e-05 -2.36355e-05 0.10352)
(0.000216476 0.000221167 0.119644)
(2.28496e-05 2.86862e-05 0.103307)
(3.39685e-05 1.86613e-05 0.103492)
(-3.92366e-07 -6.94211e-05 0.109628)
(1.05522e-05 4.87975e-05 0.0921814)
(1.49773e-07 6.41849e-05 0.109628)
(-8.42491e-06 -4.95488e-05 0.0922801)
(-1.29568e-05 1.99435e-05 0.0801763)
(1.00661e-05 -2.34846e-05 0.0802805)
(-6.53921e-05 -9.64147e-07 0.109221)
(4.83189e-05 5.96976e-06 0.0919095)
(6.68317e-05 -6.07111e-07 0.109351)
(-4.6955e-05 -9.31416e-06 0.0919298)
(2.32944e-07 -3.27037e-07 0.126084)
(-4.94689e-08 7.32606e-07 0.12608)
(-1.2978e-06 1.28293e-06 0.126087)
(-4.3007e-07 -1.77226e-06 0.126084)
(2.00675e-07 -1.1215e-06 0.126083)
(-2.18555e-07 1.10046e-06 0.126078)
(7.89151e-07 1.03634e-06 0.126079)
(5.82947e-05 -1.11419e-06 0.115063)
(-4.9829e-05 3.27521e-05 0.110563)
(-6.72901e-08 -1.26506e-06 0.124151)
(-3.64069e-07 -3.45386e-07 0.122896)
(-6.09556e-05 -3.8748e-07 0.115191)
(4.66322e-05 -3.69481e-05 0.110467)
(4.97053e-07 -1.52991e-06 0.124151)
(2.05625e-05 -8.47023e-06 0.0800647)
(-1.97018e-05 1.25649e-05 0.0801158)
(-1.09538e-06 6.11955e-05 0.115249)
(-6.92507e-07 -2.89405e-06 0.124245)
(3.64133e-05 -4.51626e-05 0.110718)
(2.71944e-06 2.33201e-07 0.122937)
(5.57498e-08 -6.00254e-05 0.115267)
(-1.49984e-06 -1.63993e-06 0.124248)
(-3.46398e-05 4.84747e-05 0.110707)
(-2.38536e-05 -2.78437e-05 0.10335)
(-3.35547e-05 -1.6992e-05 0.103529)
(0.000213742 0.000223995 0.119642)
(1.98308e-05 3.03624e-05 0.103292)
(2.82505e-05 2.46395e-05 0.103515)
(-4.47325e-07 -6.97655e-05 0.10963)
(9.62805e-06 4.70277e-05 0.0921921)
(6.29727e-07 6.14456e-05 0.10963)
(-1.01934e-05 -4.83657e-05 0.0922877)
(-1.35191e-05 1.89631e-05 0.0801863)
(1.22367e-05 -2.21742e-05 0.0802816)
(-6.56181e-05 -1.52445e-07 0.109219)
(4.75294e-05 7.39242e-06 0.0919085)
(6.63558e-05 -2.04176e-07 0.109349)
(-4.77797e-05 -7.14891e-06 0.0919268)
(-3.11073e-07 -8.1351e-07 0.126085)
(5.07244e-07 9.68235e-07 0.126079)
(-1.61023e-06 2.19622e-06 0.12609)
(-7.3516e-07 -1.58854e-06 0.126083)
(1.80793e-07 -1.19951e-06 0.126082)
(-7.00068e-08 1.03315e-06 0.126077)
(-1.06594e-07 1.30261e-06 0.126082)
(5.81027e-05 -3.86562e-07 0.115062)
(-4.97219e-05 3.42636e-05 0.110559)
(7.68988e-08 -1.14373e-06 0.12415)
(-8.12251e-07 6.97478e-08 0.122894)
(-6.09667e-05 -3.45434e-07 0.11519)
(4.73751e-05 -3.51993e-05 0.110464)
(2.38026e-07 -1.3035e-06 0.124149)
(1.92546e-05 -1.03912e-05 0.0800624)
(-2.08109e-05 9.65513e-06 0.0801132)
(-1.20378e-06 6.14216e-05 0.115243)
(-6.02528e-07 -1.59373e-06 0.124244)
(3.71424e-05 -4.49143e-05 0.110714)
(3.3487e-06 -3.15714e-07 0.122938)
(1.67283e-07 -5.80614e-05 0.115263)
(-1.52532e-06 -1.7418e-06 0.124246)
(-3.70387e-05 4.65959e-05 0.110705)
(-2.27328e-05 -2.86961e-05 0.103333)
(-3.2998e-05 -1.87706e-05 0.103544)
(0.000213232 0.000223052 0.119642)
(2.12979e-05 2.74967e-05 0.103295)
(3.30535e-05 2.12263e-05 0.103507)
(-4.29005e-07 -6.72025e-05 0.10963)
(7.09326e-06 4.88753e-05 0.0921964)
(4.63318e-07 6.40687e-05 0.109633)
(-1.18281e-05 -4.78447e-05 0.0922885)
(-1.04626e-05 2.05265e-05 0.0801913)
(1.38421e-05 -2.12309e-05 0.0802898)
(-6.54715e-05 4.34886e-07 0.109218)
(4.77756e-05 7.93832e-06 0.0919049)
(6.72017e-05 6.40233e-07 0.109349)
(-4.75418e-05 -7.74553e-06 0.091922)
(-1.45575e-07 -7.2986e-07 0.126087)
(7.59752e-07 1.01984e-06 0.126082)
(-2.15276e-06 2.01787e-06 0.12609)
(-1.77103e-06 -9.47956e-07 0.126082)
(1.61689e-06 -8.79723e-07 0.126081)
(-1.01896e-06 9.77311e-07 0.126076)
(1.31647e-06 9.76264e-07 0.126078)
(5.87665e-05 -3.68191e-07 0.115066)
(-4.92475e-05 3.50783e-05 0.11056)
(8.9198e-07 -9.74585e-07 0.124153)
(8.05024e-07 2.4e-07 0.122894)
(-6.04313e-05 -1.02955e-07 0.115193)
(4.79606e-05 -3.49277e-05 0.110464)
(1.06776e-06 -1.07118e-06 0.124148)
(1.88038e-05 -1.12738e-05 0.0800661)
(-2.14979e-05 1.04987e-05 0.0801213)
(-1.09232e-06 5.96583e-05 0.115232)
(-1.19053e-06 -1.85215e-06 0.124245)
(3.3827e-05 -4.73647e-05 0.110716)
(2.07436e-06 -1.03586e-06 0.122941)
(1.24546e-07 -5.94391e-05 0.115254)
(-2.41297e-06 -1.94658e-06 0.124243)
(-3.83346e-05 4.46509e-05 0.110704)
(-2.13418e-05 -2.96338e-05 0.103343)
(-2.99553e-05 -2.00215e-05 0.103535)
(0.000216376 0.000222693 0.119642)
(2.2284e-05 2.82527e-05 0.103291)
(3.27537e-05 2.08806e-05 0.103518)
(-6.89684e-07 -6.68216e-05 0.109624)
(8.85102e-06 4.85208e-05 0.0921941)
(3.49658e-07 6.54663e-05 0.109627)
(-1.04787e-05 -4.84917e-05 0.0922876)
(-1.17589e-05 2.05176e-05 0.0801909)
(1.21927e-05 -2.18083e-05 0.0802832)
(-6.64325e-05 -2.55206e-07 0.10922)
(4.77773e-05 7.8346e-06 0.0919005)
(6.63069e-05 2.14274e-07 0.10935)
(-4.86551e-05 -6.98328e-06 0.0919215)
(5.48953e-07 1.84277e-08 0.12609)
(2.19115e-07 3.44112e-07 0.126085)
(-1.77291e-06 1.07587e-06 0.126095)
(-3.42906e-06 -9.70545e-07 0.12608)
(2.62505e-06 -8.76055e-07 0.126078)
(-3.03363e-06 1.3842e-06 0.126074)
(1.86251e-06 1.67e-06 0.126077)
(5.90746e-05 -4.32166e-07 0.115066)
(-4.80261e-05 3.53695e-05 0.110562)
(2.68541e-06 -1.10648e-06 0.124157)
(1.16459e-06 1.3095e-06 0.122892)
(-5.9744e-05 -1.49294e-07 0.115194)
(4.89626e-05 -3.47325e-05 0.110469)
(1.72445e-06 -9.94308e-07 0.124145)
(1.86478e-05 -1.08142e-05 0.0800712)
(-2.09016e-05 9.81198e-06 0.0801209)
(-1.37729e-06 5.89965e-05 0.115227)
(-1.86673e-06 -1.71631e-06 0.124245)
(3.55825e-05 -4.78898e-05 0.110715)
(1.31596e-06 -1.71602e-06 0.122942)
(-1.03643e-07 -6.00785e-05 0.115246)
(-2.44043e-06 -2.77054e-06 0.124237)
(-3.67905e-05 4.53594e-05 0.110703)
(-2.08101e-05 -3.00198e-05 0.103339)
(-3.11268e-05 -1.98114e-05 0.103546)
(0.000215983 0.000222619 0.119646)
(2.20023e-05 2.67652e-05 0.103302)
(3.22935e-05 2.12702e-05 0.103509)
(-4.73902e-07 -6.68151e-05 0.109623)
(9.01064e-06 4.86817e-05 0.0921942)
(4.11631e-07 6.58145e-05 0.109624)
(-9.88897e-06 -4.82279e-05 0.0922868)
(-1.18955e-05 1.99571e-05 0.0801881)
(1.22346e-05 -2.17378e-05 0.0802851)
(-6.71839e-05 5.80107e-09 0.109224)
(4.75545e-05 7.52876e-06 0.0919025)
(6.62601e-05 -1.0521e-08 0.109354)
(-4.86197e-05 -7.60055e-06 0.0919221)
(-6.75392e-07 1.95433e-06 0.126093)
(9.05935e-07 -1.60912e-06 0.126089)
(-3.24082e-06 -5.87604e-07 0.126096)
(-7.20367e-06 -3.9708e-06 0.126079)
(5.35526e-06 -3.6497e-06 0.126078)
(-6.20355e-06 3.96221e-06 0.126074)
(5.38102e-06 4.90494e-06 0.126074)
(6.00375e-05 -6.86695e-07 0.115068)
(-4.83132e-05 3.37979e-05 0.110566)
(3.20943e-06 -1.4498e-06 0.124165)
(1.50527e-06 1.20185e-06 0.12289)
(-5.9097e-05 -5.4202e-07 0.115195)
(4.80699e-05 -3.6173e-05 0.110469)
(2.15674e-06 -9.63001e-07 0.124137)
(1.94119e-05 -1.06734e-05 0.0800663)
(-2.076e-05 1.04265e-05 0.0801186)
(-1.38855e-06 5.99034e-05 0.115225)
(-1.62529e-06 -2.34789e-06 0.124247)
(3.5546e-05 -4.68982e-05 0.110715)
(1.45802e-06 -9.06724e-07 0.122939)
(-4.09491e-07 -6.02245e-05 0.115244)
(-2.46907e-06 -2.1089e-06 0.124226)
(-3.78393e-05 4.58677e-05 0.110705)
(-2.2452e-05 -2.89334e-05 0.103346)
(-3.22389e-05 -1.94529e-05 0.103534)
(0.000216844 0.000223983 0.119645)
(2.12371e-05 2.91825e-05 0.103289)
(3.09197e-05 2.16926e-05 0.103516)
(-3.55602e-07 -6.78778e-05 0.109621)
(8.64184e-06 4.89409e-05 0.0921935)
(5.1019e-07 6.53781e-05 0.109627)
(-6.8399e-06 -5.03806e-05 0.0922821)
(-1.20376e-05 2.01999e-05 0.0801904)
(9.25072e-06 -2.35301e-05 0.080284)
(-6.73051e-05 1.37947e-07 0.109219)
(4.78267e-05 7.1466e-06 0.0919023)
(6.6192e-05 1.91589e-07 0.109356)
(-4.98956e-05 -4.91852e-06 0.0919165)
(-4.9467e-06 6.61415e-06 0.126089)
(5.29497e-06 -6.62115e-06 0.126086)
(-6.6146e-06 -5.22005e-06 0.126095)
(-1.51581e-05 -1.22367e-05 0.126093)
(1.26961e-05 -1.20362e-05 0.126093)
(-1.40886e-05 1.34661e-05 0.126088)
(1.3062e-05 1.52985e-05 0.126092)
(6.03355e-05 -2.68225e-07 0.115067)
(-4.96579e-05 3.30478e-05 0.110563)
(1.24009e-06 -9.52841e-07 0.124174)
(4.13358e-06 9.2128e-07 0.122886)
(-6.06529e-05 -2.0151e-07 0.115199)
(4.99479e-05 -3.28559e-05 0.110465)
(4.61821e-06 -1.50022e-06 0.124128)
(1.9329e-05 -9.62685e-06 0.0800668)
(-2.1798e-05 8.91749e-06 0.0801181)
(-9.12529e-07 6.11699e-05 0.115221)
(-5.47479e-07 -4.51581e-06 0.12425)
(3.4585e-05 -4.80013e-05 0.110713)
(6.8671e-07 3.62172e-06 0.122931)
(-2.56675e-07 -6.10808e-05 0.115243)
(-2.73972e-06 2.11316e-06 0.124214)
(-3.40056e-05 4.85369e-05 0.1107)
(-2.19257e-05 -2.80715e-05 0.103337)
(-3.17781e-05 -1.94247e-05 0.103542)
(0.000216434 0.000224535 0.119645)
(2.32797e-05 2.50369e-05 0.103302)
(2.88185e-05 2.30945e-05 0.103508)
(-1.44502e-06 -7.44186e-05 0.109594)
(-3.8908e-06 5.53682e-05 0.0922102)
(9.67204e-07 6.81468e-05 0.10964)
(1.83653e-05 -6.42608e-05 0.092246)
(-5.32457e-07 2.43255e-05 0.0801902)
(-1.03756e-05 -3.21624e-05 0.0802967)
(-7.40483e-05 -1.20976e-06 0.109196)
(5.42482e-05 -5.13182e-06 0.0919129)
(6.81242e-05 3.86254e-07 0.109367)
(-6.52828e-05 2.14675e-05 0.0918798)
(-1.29619e-05 1.62962e-05 0.126065)
(1.50111e-05 -1.68052e-05 0.126064)
(-1.58865e-05 -1.62694e-05 0.126072)
(-1.7078e-05 -1.65231e-05 0.126125)
(1.35427e-05 -1.7622e-05 0.126128)
(-1.62213e-05 2.01977e-05 0.126121)
(1.56625e-05 2.20753e-05 0.126124)
(6.76511e-05 4.78421e-08 0.115049)
(-5.6019e-05 1.76036e-05 0.110563)
(1.48889e-06 -7.82225e-07 0.124193)
(1.14353e-05 8.12006e-06 0.122872)
(-6.37707e-05 -6.93866e-07 0.115208)
(6.46839e-05 -1.72729e-07 0.110462)
(-8.2498e-07 -8.37759e-07 0.124106)
(2.32553e-05 -8.05564e-09 0.0800654)
(-3.20861e-05 -1.2317e-05 0.0801285)
(-1.64214e-07 6.92444e-05 0.115203)
(-5.26091e-07 -5.39304e-06 0.124263)
(2.05938e-05 -5.48823e-05 0.110713)
(7.11365e-06 1.28188e-05 0.122908)
(-4.97314e-07 -6.39347e-05 0.115251)
(-1.05199e-06 -1.23433e-06 0.124186)
(-2.35494e-07 6.21553e-05 0.110696)
(-2.72342e-05 -1.47557e-05 0.103332)
(-1.739e-05 -2.37595e-05 0.103516)
(0.000214269 0.000221371 0.119645)
(3.24673e-05 -3.90807e-06 0.103336)
(-2.09522e-06 3.23605e-05 0.103561)
(-2.08957e-05 -0.000107195 0.109526)
(-6.76968e-05 9.57254e-05 0.0923118)
(9.54225e-06 8.78944e-05 0.109686)
(0.000106758 -0.000125556 0.0920398)
(5.33283e-05 4.67288e-05 0.0801598)
(-9.11666e-05 -6.27353e-05 0.0803451)
(-0.000106692 -2.00009e-05 0.10913)
(9.42833e-05 -6.78658e-05 0.0920149)
(8.64605e-05 8.85602e-06 0.109414)
(-0.000126115 0.000110024 0.0916772)
(-7.2716e-07 1.02747e-05 0.126025)
(6.2923e-06 -1.24101e-05 0.126027)
(-5.83171e-06 -1.2738e-05 0.126039)
(8.48585e-05 7.97431e-05 0.126122)
(-9.29958e-05 7.57394e-05 0.126132)
(8.3749e-05 -6.91959e-05 0.126119)
(-8.56308e-05 -6.6225e-05 0.126124)
(9.7737e-05 -5.79823e-06 0.115004)
(-9.04228e-05 -6.51735e-05 0.110569)
(5.62627e-05 -1.6367e-05 0.124263)
(3.61247e-05 4.70609e-05 0.122832)
(-8.35235e-05 6.39482e-07 0.115241)
(0.000116917 0.000113513 0.110431)
(-8.60124e-05 2.64288e-05 0.12401)
(4.52191e-05 5.33764e-05 0.0800303)
(-6.33478e-05 -9.50012e-05 0.080175)
(-6.03285e-06 9.84785e-05 0.115151)
(-1.86727e-05 4.69084e-05 0.124331)
(-6.37353e-05 -8.8758e-05 0.110718)
(4.49992e-05 3.93687e-05 0.122852)
(1.08438e-06 -8.38479e-05 0.115286)
(3.01787e-05 -8.3541e-05 0.124083)
(0.000113095 0.000114032 0.110658)
(-4.46309e-05 6.77773e-05 0.103164)
(6.64181e-05 -4.21345e-05 0.103366)
(0.000201073 0.000209197 0.119654)
(5.5896e-05 -0.000126052 0.103618)
(-0.000121905 5.47149e-05 0.103827)
(-9.088e-05 -0.000224706 0.109505)
(-0.000212073 0.00016334 0.0929689)
(5.42158e-05 0.000119914 0.109782)
(0.000267438 -0.000237811 0.0910328)
(0.000209295 8.75346e-05 0.0801367)
(-0.000279237 -0.000154733 0.0804913)
(-0.000220664 -9.12372e-05 0.109098)
(0.000163209 -0.000216136 0.0926791)
(0.000119989 5.4243e-05 0.1095)
(-0.000237902 0.000270427 0.090666)
(0.0002165 -0.000191202 0.125994)
(-0.00020155 0.000185256 0.126002)
(0.000201997 0.000183046 0.12601)
(0.000690843 0.000688383 0.125816)
(-0.00071895 0.000681307 0.125832)
(0.000686983 -0.000663536 0.125813)
(-0.00068906 -0.000658781 0.125817)
(0.000155904 -3.20911e-05 0.114943)
(-0.000145173 -0.000223419 0.110828)
(0.000423173 -0.000133184 0.124448)
(0.000237812 8.14764e-05 0.122806)
(-0.000103087 1.35201e-05 0.11529)
(0.00022586 0.000246695 0.109963)
(-0.00052814 0.000176502 0.12372)
(8.85839e-05 0.000212464 0.0800106)
(-0.000155246 -0.000283335 0.0803134)
(-3.44864e-05 0.000156991 0.115072)
(-0.000141369 0.000409844 0.124519)
(-0.000220959 -0.000142161 0.110982)
(7.97534e-05 0.000242307 0.122794)
(1.5309e-05 -9.98812e-05 0.115348)
(0.000187004 -0.000520208 0.123787)
(0.000247409 0.000224797 0.110185)
(-8.44983e-05 0.000260033 0.102668)
(0.000256417 -7.70161e-05 0.10286)
(0.000201422 0.000206415 0.1197)
(0.000171286 -0.000304233 0.104364)
(-0.00030498 0.000170895 0.104594)
(-0.000255476 -0.00123024 0.109851)
(-0.000513258 0.000205144 0.0953051)
(0.000153177 2.30375e-05 0.10949)
(0.000348293 -0.00124184 0.0886016)
(0.000557077 0.000119848 0.0803845)
(-0.000603995 -0.0010305 0.0823853)
(-0.00121378 -0.000253262 0.109828)
(0.000213241 -0.000516926 0.095096)
(1.98163e-05 0.000151592 0.109427)
(-0.00124015 0.000350085 0.0885284)
(0.0017095 -0.00165811 0.125552)
(-0.00165853 0.00164502 0.125569)
(0.00166125 0.00163934 0.125575)
(0.00263249 0.00264457 0.122348)
(-0.00273227 0.00264469 0.122307)
(0.0025969 -0.00265462 0.122345)
(-0.00259503 -0.00265198 0.122349)
(0.00094491 -0.000120655 0.115008)
(9.71622e-05 -0.000519448 0.112103)
(0.00241394 -0.000670394 0.124395)
(0.00214546 -0.000831897 0.122701)
(0.000237262 1.57197e-05 0.115091)
(0.000920389 0.000129471 0.10855)
(-0.00181944 0.000591851 0.122806)
(0.000128338 0.000561008 0.0802718)
(-0.00102122 -0.000602949 0.0823759)
(-0.000133516 0.00094158 0.114896)
(-0.000662822 0.00238681 0.124426)
(-0.000518056 0.000100224 0.112253)
(-0.000800682 0.00211869 0.122476)
(2.27687e-05 0.000246158 0.115075)
(0.000578989 -0.0018149 0.122586)
(0.000130428 0.000915819 0.108491)
(-4.85376e-05 0.000499344 0.101748)
(0.000502661 -4.28895e-05 0.101977)
(0.000831985 0.000833871 0.119655)
(0.000930098 -9.9805e-05 0.106338)
(-0.000115357 0.000930372 0.106362)
(-0.000938948 -0.0170529 0.107926)
(-0.00055356 -0.0046003 0.0611178)
(-0.000366037 -0.00521952 0.104059)
(-0.00656526 -0.0127805 0.0978775)
(-0.000620278 -0.00253014 0.0457161)
(0.00679769 -0.0121914 0.0939832)
(-0.0170597 -0.000951627 0.107912)
(-0.00459366 -0.000557392 0.0610714)
(-0.00526259 -0.000383779 0.104124)
(-0.0127873 -0.00659289 0.0978599)
(-0.00251298 -0.00251689 0.108927)
(-0.00246596 -0.0093246 0.118929)
(-0.00929823 -0.00252899 0.119015)
(-0.012341 -0.0124476 0.113)
(-0.00263384 -0.00265204 0.119707)
(-0.00264764 -0.0118929 0.111)
(-0.0118055 -0.002692 0.111043)
(0.0171509 -0.00151554 0.108974)
(0.00638156 -0.00269108 0.102637)
(0.0134293 -0.00259467 0.117131)
(0.0167763 -0.0125288 0.11155)
(0.00523221 -0.000328747 0.111352)
(0.0153225 -0.00740016 0.110176)
(0.0166957 -0.00267322 0.110816)
(-0.0025266 -0.000625658 0.0456946)
(-0.0122002 0.00680382 0.093959)
(-0.00159735 0.0168749 0.108914)
(-0.00253796 0.0134941 0.116961)
(-0.00269389 0.00636647 0.102651)
(-0.0120814 0.0167108 0.111457)
(-0.000278912 0.00530683 0.111232)
(-0.00256259 0.0167497 0.110667)
(-0.00738561 0.0153059 0.110202)
(0.00335406 0.00199426 0.0963991)
(0.0020107 0.00335514 0.0964674)
(0.0139107 0.013934 0.110085)
(0.0139398 0.00725293 0.106322)
(0.00725743 0.0139335 0.106306)
(-1.16632e-05 -1.3897e-05 0.0802867)
(1.13412e-05 1.90251e-05 0.0800865)
(-1.97337e-05 -9.73149e-06 0.0801066)
(1.7351e-05 9.2285e-06 0.0800552)
(0.000210371 0.000211857 0.119658)
(-3.25531e-05 -1.72808e-05 0.103521)
(-2.30721e-05 -2.89377e-05 0.10327)
(3.17731e-05 2.10923e-05 0.103424)
(2.03441e-05 2.74526e-05 0.103333)
(1.45875e-05 -5.16873e-05 0.0920835)
(-6.71835e-06 3.06711e-06 0.122827)
(3.36408e-05 -4.63048e-05 0.110527)
(2.12252e-06 6.71828e-05 0.109333)
(-9.59858e-06 -4.38605e-05 0.0922497)
(6.40505e-06 4.77815e-05 0.0919796)
(-7.79833e-07 -6.13052e-05 0.109628)
(-1.22595e-06 6.72729e-05 0.109333)
(9.9736e-06 -4.42155e-05 0.0922471)
(-5.92077e-06 4.85969e-05 0.0919755)
(4.74385e-07 -6.16568e-05 0.109631)
(9.00444e-07 6.36708e-05 0.11507)
(3.30391e-06 3.27625e-06 0.122953)
(-3.84909e-05 -4.34764e-05 0.110711)
(-6.2308e-07 3.25473e-06 0.12427)
(3.55761e-05 5.04791e-05 0.110537)
(5.88762e-07 4.4727e-06 0.124229)
(-8.76628e-07 -5.59686e-05 0.115237)
(1.83376e-07 6.38803e-05 0.11507)
(-3.59621e-06 4.89316e-06 0.122961)
(3.83908e-05 -4.4329e-05 0.110715)
(-6.45976e-07 2.77853e-06 0.124273)
(-3.53814e-05 5.04929e-05 0.110535)
(7.4625e-07 4.2819e-06 0.124231)
(7.27179e-07 -5.6377e-05 0.115238)
(0.000213873 -0.000218525 0.119642)
(2.89499e-05 -1.94259e-05 0.103376)
(2.19475e-05 -3.01396e-05 0.103283)
(1.92374e-05 -1.05253e-05 0.0801103)
(1.23371e-05 -1.38465e-05 0.0802882)
(-1.11635e-05 2.02886e-05 0.0800848)
(-0.00021096 0.00021287 0.119657)
(3.23614e-05 -1.71887e-05 0.103508)
(2.34418e-05 -2.96175e-05 0.103284)
(-3.32391e-05 2.17442e-05 0.103399)
(-2.06315e-05 2.84062e-05 0.103357)
(1.98392e-05 -9.75958e-06 0.0801127)