/*--------------------------------*- C++ -*----------------------------------*\
| =========                 |                                                 |
| \\      /  F ield         | OpenFOAM: The Open Source CFD Toolbox           |
|  \\    /   O peration     | Version:  2206                                  |
|   \\  /    A nd           | Website:  www.openfoam.com                      |
|    \\/     M anipulation  |                                                 |
\*---------------------------------------------------------------------------*/
FoamFile
{
    version     2.0;
    format      ascii;
    arch        "LSB;label=32;scalar=64";
    class       volVectorField;
    location    "30";
    object      wallShearStress;
}
// * * * * * * * * * * * * * * * * * * * * * * * * * * * * * * * * * * * * * //

dimensions      [0 2 -2 0 0 0 0];

internalField   uniform (0 0 0);

boundaryField
{
    topPatch
    {
        type            calculated;
        value           nonuniform List<vector> 0();
    }
    wall
    {
        type            calculated;
        value           nonuniform List<vector> 
7778
(
(-4.68126e-06 1.93696e-05 -0.000270598)
(-4.56404e-06 -6.80192e-06 -0.000159121)
(1.94252e-05 -4.68107e-06 -0.000270281)
(-6.8319e-06 -4.55539e-06 -0.000158979)
(4.63034e-06 1.94289e-05 -0.000270667)
(1.93411e-05 4.66506e-06 -0.000270256)
(-1.93383e-05 -4.70652e-06 -0.000270296)
(-1.94151e-05 4.73354e-06 -0.000270325)
(-4.67389e-06 -1.93697e-05 -0.000270563)
(-4.57267e-06 6.80661e-06 -0.000159146)
(4.66499e-06 -1.94347e-05 -0.0002706)
(1.19385e-05 5.20027e-05 -0.000208923)
(-2.50974e-05 -1.13348e-05 -0.000345063)
(-1.2523e-05 7.39444e-06 -0.00025553)
(-3.56314e-05 3.43675e-05 -0.000249504)
(5.17669e-05 1.14495e-05 -0.000208564)
(-1.12889e-05 -2.50211e-05 -0.000344788)
(7.42587e-06 -1.24542e-05 -0.000255354)
(3.43971e-05 -3.55727e-05 -0.000249264)
(2.49122e-05 -1.14075e-05 -0.000344415)
(3.54305e-05 3.46827e-05 -0.000249598)
(1.21519e-05 7.65377e-06 -0.000255656)
(-1.14192e-05 2.4858e-05 -0.000344324)
(3.46645e-05 3.54041e-05 -0.000249528)
(7.63673e-06 1.2107e-05 -0.000255687)
(-1.15268e-05 5.18232e-05 -0.00020892)
(1.13327e-05 2.50255e-05 -0.000344857)
(-7.35112e-06 1.24804e-05 -0.000255443)
(-3.43482e-05 3.56336e-05 -0.000249284)
(5.19245e-05 -1.19459e-05 -0.000208607)
(-5.17278e-05 1.15193e-05 -0.000208479)
(-5.16054e-05 -1.10452e-05 -0.0002085)
(2.49659e-05 1.13149e-05 -0.00034503)
(1.23916e-05 -7.42097e-06 -0.000255609)
(3.55615e-05 -3.44021e-05 -0.000249458)
(1.19392e-05 -5.19877e-05 -0.000208902)
(-1.14723e-05 -5.18226e-05 -0.000208865)
(1.13786e-05 -2.48757e-05 -0.000344202)
(-3.46875e-05 -3.53992e-05 -0.000249379)
(-7.65291e-06 -1.21044e-05 -0.000255528)
(-2.48489e-05 1.14295e-05 -0.000344524)
(-3.53985e-05 -3.46943e-05 -0.000249674)
(-1.20897e-05 -7.64159e-06 -0.000255833)
(-1.2628e-05 9.46291e-06 -0.000193031)
(-3.98181e-06 2.50422e-05 -0.000185305)
(9.48967e-06 -1.26248e-05 -0.000192903)
(1.26065e-05 9.44276e-06 -0.000193065)
(3.95899e-06 2.50488e-05 -0.000185323)
(9.46058e-06 1.2612e-05 -0.000192935)
(2.50365e-05 3.96966e-06 -0.000185206)
(-9.41439e-06 -1.25868e-05 -0.000192931)
(-1.58624e-05 1.08854e-05 -0.00021247)
(-9.47981e-06 1.25935e-05 -0.000192925)
(-1.26399e-05 -9.4548e-06 -0.000193007)
(1.08716e-05 -1.58845e-05 -0.000212559)
(1.26191e-05 -9.48314e-06 -0.000193009)
(4.54437e-06 -6.81459e-06 -0.000159185)
(-6.83776e-06 4.58006e-06 -0.000159089)
(1.08951e-05 1.58622e-05 -0.000212543)
(2.50252e-05 -3.98927e-06 -0.000185184)
(1.58536e-05 1.08808e-05 -0.000212386)
(1.58699e-05 -1.08986e-05 -0.000212423)
(6.85597e-06 -4.52419e-06 -0.000159091)
(-2.5026e-05 -3.97009e-06 -0.000185223)
(6.84867e-06 4.5432e-06 -0.000159063)
(-2.50318e-05 3.96823e-06 -0.000185166)
(-1.58536e-05 -1.08881e-05 -0.000212357)
(-4.00429e-06 -2.50612e-05 -0.000185275)
(4.5482e-06 6.80479e-06 -0.000159117)
(3.9897e-06 -2.50458e-05 -0.000185276)
(1.83817e-06 1.99848e-05 -0.000200069)
(2.00127e-05 1.83876e-06 -0.000199859)
(-1.87771e-06 1.9972e-05 -0.00020007)
(-1.09179e-05 1.58766e-05 -0.000212585)
(1.99856e-05 -1.82512e-06 -0.00019992)
(-1.99648e-05 1.85231e-06 -0.000199909)
(-2.00015e-05 -1.84193e-06 -0.000199934)
(1.83685e-06 -1.99865e-05 -0.00020003)
(-1.86508e-06 -2.00048e-05 -0.0002)
(-1.0878e-05 -1.58683e-05 -0.00021253)
(-3.52161e-08 -2.47267e-09 -0.000158283)
(2.06714e-08 -2.35441e-08 -0.000147923)
(1.88323e-08 5.78396e-09 -0.000148169)
(-2.38746e-08 -2.62523e-08 -0.000158021)
(-1.48528e-08 3.24305e-09 -0.000158253)
(-5.97139e-09 -1.47606e-08 -0.000147999)
(8.33276e-09 1.26924e-08 -0.000148318)
(-5.69306e-09 9.62399e-09 -0.000158089)
(4.02734e-09 -1.39275e-08 -0.00015837)
(-3.29357e-08 -4.40311e-10 -0.000147734)
(2.01189e-09 1.17102e-08 -0.000148079)
(3.25385e-08 3.95474e-09 -0.000157873)
(5.12972e-10 1.23548e-08 -0.000158197)
(-1.0037e-08 -7.7377e-09 -0.000148013)
(7.01002e-09 1.24271e-08 -0.00014831)
(-1.3294e-08 -4.82008e-10 -0.000158088)
(1.59262e-09 -1.60371e-08 -0.000158358)
(-1.57268e-08 -7.27024e-09 -0.000147744)
(2.16786e-08 4.81714e-09 -0.000148109)
(1.80243e-08 -3.72517e-09 -0.000157903)
(-1.71853e-08 2.35804e-09 -0.00015822)
(-8.21934e-09 -1.1928e-08 -0.000148011)
(8.95254e-09 9.3573e-09 -0.000148313)
(-9.87194e-09 6.75958e-09 -0.000158086)
(7.01458e-09 -8.64814e-09 -0.000158361)
(-6.09304e-09 -9.03299e-09 -0.000147774)
(2.50446e-08 7.485e-09 -0.000148116)
(9.19451e-09 -1.02216e-08 -0.000157919)
(-1.66953e-08 3.25024e-09 -0.000158236)
(-7.02502e-09 -9.06049e-09 -0.000148023)
(1.05228e-08 1.23561e-08 -0.000148311)
(-7.74189e-09 1.02178e-08 -0.000158106)
(7.54222e-09 -7.30433e-09 -0.000158378)
(-1.57287e-08 -6.97482e-09 -0.000147764)
(1.90798e-08 1.00042e-08 -0.00014811)
(1.51757e-08 -5.11568e-09 -0.00015792)
(-1.04857e-08 6.86148e-09 -0.000158229)
(-6.95328e-09 -1.07236e-08 -0.000148004)
(1.36401e-08 8.30636e-09 -0.000148302)
(-6.3579e-09 9.61124e-09 -0.00015811)
(7.45875e-09 -5.23206e-09 -0.000158378)
(-1.42899e-08 -5.39296e-09 -0.000147752)
(1.47329e-08 6.62338e-09 -0.000148089)
(1.16979e-08 -7.15626e-09 -0.000157912)
(-1.31924e-08 4.85365e-09 -0.000158219)
(-5.42485e-09 -1.11479e-08 -0.000148)
(1.03919e-08 4.96526e-09 -0.00014829)
(-8.52683e-09 8.84571e-09 -0.000158104)
(6.84586e-09 -6.35775e-09 -0.000158356)
(-1.78445e-08 -6.83803e-09 -0.000147751)
(8.99258e-09 9.58288e-09 -0.000148112)
(2.05278e-08 -2.57035e-09 -0.000157922)
(-2.05268e-10 1.32055e-08 -0.000158232)
(-5.10311e-09 -1.66766e-08 -0.000147995)
(1.1152e-08 1.92254e-09 -0.000148304)
(-9.60337e-09 7.48652e-09 -0.0001581)
(1.03025e-08 -3.77536e-09 -0.000158374)
(-1.9949e-08 -7.52564e-09 -0.000147779)
(1.72833e-08 8.10275e-09 -0.000148115)
(7.85092e-09 -9.38256e-09 -0.000157926)
(-6.07249e-09 5.20639e-09 -0.00015825)
(-6.35702e-09 -1.87836e-08 -0.000148016)
(1.23495e-08 4.96363e-09 -0.000148312)
(-8.56264e-09 6.7487e-09 -0.000158107)
(8.96591e-09 1.22708e-09 -0.000158394)
(-3.15883e-08 -7.50632e-09 -0.000147802)
(2.11662e-08 3.94523e-09 -0.000148046)
(-8.97668e-09 -1.6007e-08 -0.000157933)
(6.07711e-08 3.99555e-08 -0.000158313)
(-4.61363e-09 -3.38469e-08 -0.00014804)
(6.25254e-09 1.2462e-08 -0.000148245)
(-1.5438e-08 -1.12505e-08 -0.000158111)
(4.58418e-08 7.15126e-08 -0.000158444)
(1.01542e-07 -5.08173e-08 -0.000148555)
(-1.18079e-07 5.4592e-08 -0.000147529)
(-3.2408e-07 -1.74103e-07 -0.000158064)
(6.02911e-07 3.34759e-07 -0.000158986)
(-5.32598e-08 1.10705e-07 -0.0001488)
(5.39602e-08 -1.28598e-07 -0.000147719)
(-1.79223e-07 -3.34e-07 -0.000158235)
(3.4259e-07 6.18417e-07 -0.000159115)
(2.20464e-07 -1.24093e-07 -0.000156085)
(-1.81326e-06 7.93747e-07 -0.000129283)
(-1.0187e-06 -5.74005e-07 -0.000163832)
(1.52124e-06 -2.76534e-07 -0.000154766)
(-1.21848e-07 2.09028e-07 -0.000156269)
(7.9728e-07 -1.81412e-06 -0.000129451)
(-5.84421e-07 -1.04004e-06 -0.000163975)
(-2.86432e-07 1.49825e-06 -0.000154851)
(1.68119e-05 3.87051e-05 -0.000142439)
(9.85027e-06 -3.15646e-06 -0.000156651)
(3.86417e-05 1.68002e-05 -0.00014238)
(-3.13103e-06 9.89768e-06 -0.00015657)
(5.75754e-08 -1.99064e-08 -0.000158336)
(1.79538e-08 -1.68472e-08 -0.000158013)
(1.26662e-08 -2.10528e-09 -0.000158321)
(1.08034e-09 -1.56113e-08 -0.000158058)
(-3.77342e-08 3.76197e-09 -0.000148226)
(6.00984e-08 -9.36977e-09 -0.000148297)
(1.29501e-08 -1.55121e-08 -0.00014792)
(-5.79956e-08 -9.16812e-09 -0.000148283)
(-1.26475e-08 -1.55314e-08 -0.000147903)
(-1.13696e-08 -1.69603e-09 -0.000158334)
(-6.1664e-08 -2.1829e-08 -0.000158339)
(-1.848e-08 -1.81993e-08 -0.000158002)
(-1.27295e-08 -3.4243e-09 -0.000158337)
(-1.28618e-09 -2.06607e-08 -0.000158076)
(1.18251e-08 3.34384e-09 -0.000148284)
(-6.20651e-09 -1.72254e-08 -0.00014797)
(1.11702e-08 -3.81052e-09 -0.000148313)
(-2.80242e-09 1.87976e-08 -0.00014801)
(-1.17829e-08 3.35509e-09 -0.000148308)
(-1.45896e-08 -1.29889e-09 -0.000148278)
(-1.05557e-08 1.70787e-09 -0.000148302)
(4.46233e-09 -2.18339e-08 -0.000147991)
(-1.33877e-08 1.74329e-09 -0.000148281)
(4.97216e-09 2.04603e-08 -0.000147955)
(1.05226e-08 -2.45492e-09 -0.000158344)
(-1.22588e-09 1.555e-08 -0.000158073)
(5.03178e-08 1.66854e-08 -0.000158355)
(1.85447e-08 1.57464e-08 -0.000158044)
(5.43479e-08 1.03577e-08 -0.000148299)
(9.81414e-09 1.51823e-08 -0.000147933)
(-5.55025e-08 9.12193e-09 -0.00014829)
(-1.34417e-08 1.71043e-08 -0.000147912)
(-1.25741e-08 2.24394e-09 -0.000158296)
(-3.22655e-08 2.52002e-09 -0.000158286)
(-1.29701e-08 3.63302e-09 -0.000158302)
(-1.12453e-09 1.97696e-08 -0.00015802)
(-5.7929e-08 2.16575e-08 -0.000158343)
(-2.19119e-08 1.96507e-08 -0.000158021)
(2.41412e-08 -2.5501e-08 -0.000158024)
(1.4678e-08 3.87739e-09 -0.000158262)
(-1.95135e-09 -1.52557e-08 -0.000158075)
(7.10127e-09 1.11483e-08 -0.000158354)
(-6.52958e-09 1.5408e-08 -0.000158207)
(-1.86257e-08 -4.03695e-09 -0.000157939)
(4.4606e-09 1.30568e-08 -0.000158351)
(-9.20081e-09 -4.77979e-09 -0.000158096)
(-1.77523e-08 -2.33248e-08 -0.000147907)
(-1.68268e-08 6.90934e-09 -0.000148146)
(-9.22912e-12 1.26695e-08 -0.000148073)
(-2.74418e-08 -4.98456e-09 -0.000147788)
(2.92636e-09 1.29684e-08 -0.000148048)
(2.71405e-08 -6.5736e-09 -0.000147769)
(2.85504e-09 -1.46414e-08 -0.000158097)
(-2.82084e-09 1.44088e-08 -0.000158372)
(2.93372e-09 1.27333e-08 -0.000158191)
(1.56157e-08 -6.24535e-09 -0.000157928)
(-3.98769e-09 1.16808e-08 -0.000158372)
(1.08837e-08 -1.82249e-09 -0.00015812)
(-7.19977e-09 1.36463e-08 -0.000148027)
(7.45985e-09 -1.54791e-08 -0.000148341)
(6.47089e-09 1.67442e-08 -0.000148305)
(-8.79698e-09 -1.07006e-08 -0.000148016)
(5.13527e-09 -1.7687e-08 -0.000148321)
(-1.17875e-08 6.49092e-09 -0.000148042)
(6.32631e-09 -1.53586e-08 -0.000148018)
(-7.43985e-09 1.69162e-08 -0.000148337)
(6.02425e-09 1.7599e-08 -0.00014799)
(-7.64773e-09 -1.34444e-08 -0.000148307)
(-5.67783e-09 1.5785e-08 -0.000148315)
(1.07995e-08 -9.46252e-09 -0.000148034)
(-5.17444e-09 -1.42938e-08 -0.000148296)
(9.78629e-09 9.29684e-09 -0.00014801)
(1.47511e-08 2.19105e-08 -0.000158048)
(1.11378e-08 -3.76793e-09 -0.000158285)
(1.07498e-10 -1.88552e-08 -0.000158362)
(-1.10845e-08 2.81737e-09 -0.000158102)
(-1.29794e-08 -1.78667e-08 -0.000158229)
(-2.10388e-08 4.2588e-09 -0.000157974)
(1.4065e-08 2.17671e-08 -0.000147928)
(1.46367e-08 -6.96487e-09 -0.000148182)
(-1.42729e-08 2.14102e-08 -0.000147915)
(-1.30407e-08 -6.87853e-09 -0.000148157)
(-5.08374e-09 -1.32306e-08 -0.000148086)
(-2.88573e-08 5.57827e-09 -0.000147808)
(7.72179e-09 -1.41681e-08 -0.000148072)
(2.92312e-08 4.86641e-09 -0.000147789)
(2.64416e-10 1.75076e-08 -0.000158055)
(-4.58528e-09 -1.36937e-08 -0.000158332)
(-1.81075e-08 2.27193e-08 -0.00015803)
(-7.8032e-09 -6.55072e-09 -0.000158264)
(-3.43092e-09 -1.23473e-08 -0.000158328)
(8.91522e-09 7.21615e-09 -0.000158065)
(1.07321e-08 -1.64177e-08 -0.000158209)
(2.17268e-08 3.93456e-09 -0.000157944)
(-2.95594e-08 3.58771e-09 -0.000157896)
(4.80364e-11 1.30086e-08 -0.000158209)
(-1.0141e-08 -1.10493e-09 -0.000158087)
(4.96249e-09 1.10392e-08 -0.000158348)
(9.7526e-09 6.26709e-09 -0.000158204)
(-2.6277e-08 8.72796e-10 -0.000157921)
(6.17645e-09 6.67608e-09 -0.000158339)
(-7.88093e-09 -7.15877e-09 -0.000158097)
(3.49421e-08 3.14789e-10 -0.000147704)
(-2.16653e-09 1.37241e-08 -0.00014806)
(1.67541e-08 6.76047e-09 -0.000148088)
(-2.78424e-08 -4.05841e-09 -0.000147737)
(-1.46472e-08 6.97211e-09 -0.000148067)
(2.63229e-08 -5.50094e-09 -0.000147722)
(1.21594e-08 3.81231e-11 -0.000158114)
(-4.04198e-09 1.3386e-08 -0.000158368)
(-6.42288e-09 6.94496e-09 -0.000158199)
(2.53794e-08 2.78092e-09 -0.000157908)
(-4.65521e-09 8.39389e-09 -0.00015835)
(8.00739e-09 -5.6918e-09 -0.000158129)
(-1.07868e-08 2.92126e-09 -0.000148025)
(5.94141e-09 -1.73382e-08 -0.000148325)
(6.55446e-09 1.39526e-08 -0.000148297)
(-1.13031e-08 -8.00732e-09 -0.000148013)
(5.85536e-09 -1.49339e-08 -0.000148307)
(-1.35358e-08 5.90642e-09 -0.00014803)
(9.82723e-09 -7.9789e-09 -0.000148028)
(-8.07132e-09 1.25787e-08 -0.000148325)
(1.04966e-08 8.38834e-09 -0.000148006)
(-8.01957e-09 -1.30825e-08 -0.000148302)
(-4.19781e-09 1.60695e-08 -0.000148305)
(1.16219e-08 -7.31045e-09 -0.000148027)
(-4.59138e-09 -1.54832e-08 -0.000148281)
(1.33603e-08 3.8209e-09 -0.000148004)
(-3.73455e-08 -7.07388e-09 -0.000157928)
(-3.98924e-09 -1.41147e-08 -0.000158232)
(4.87293e-09 -9.90973e-09 -0.000158347)
(-9.19757e-09 3.28387e-09 -0.000158106)
(3.02619e-09 -9.78787e-09 -0.000158228)
(-2.57214e-08 -1.49571e-09 -0.000157953)
(-4.06995e-08 -1.97377e-09 -0.000147746)
(-3.40328e-09 -1.53494e-08 -0.000148103)
(4.18818e-08 -1.45133e-09 -0.00014773)
(5.01365e-10 -1.48624e-08 -0.000148082)
(1.44542e-08 -5.87799e-09 -0.0001481)
(-2.94617e-08 3.39617e-09 -0.000147761)
(-1.42883e-08 -5.08221e-09 -0.000148085)
(2.9193e-08 3.95925e-09 -0.000147741)
(8.73958e-09 5.60331e-09 -0.000158062)
(-2.85834e-09 -1.4517e-08 -0.00015832)
(3.72683e-08 -7.83541e-09 -0.000157909)
(3.3854e-09 -1.33527e-08 -0.000158208)
(-2.27195e-09 -1.26723e-08 -0.000158296)
(1.12757e-08 4.98527e-11 -0.000158056)
(-8.14152e-09 -6.35144e-09 -0.000158212)
(2.81862e-08 -4.14117e-09 -0.000157925)
(-1.21375e-08 -5.41069e-09 -0.000157916)
(1.89888e-08 1.25773e-09 -0.000158228)
(-6.72947e-09 -8.32382e-09 -0.000158086)
(4.60237e-09 1.0456e-08 -0.000158355)
(2.03477e-08 3.82734e-09 -0.000158242)
(-6.16554e-09 -1.00013e-08 -0.000157939)
(8.87598e-09 9.0892e-09 -0.000158361)
(-8.15139e-09 -8.72787e-09 -0.000158104)
(1.94518e-08 -6.62044e-09 -0.000147724)
(-1.90221e-08 5.49112e-09 -0.000148092)
(2.65805e-08 2.67794e-09 -0.000148113)
(-9.9146e-09 -1.29829e-08 -0.000147767)
(-2.71837e-08 -1.69172e-09 -0.000148097)
(9.35911e-09 -1.13735e-08 -0.000147762)
(9.83038e-09 -5.12064e-09 -0.000158104)
(-3.92285e-09 1.43809e-08 -0.000158372)
(-2.10985e-08 1.28121e-09 -0.000158233)
(6.13393e-09 -9.10141e-09 -0.000157928)
(-1.18886e-08 3.52228e-09 -0.000158375)
(7.05645e-09 -9.59196e-09 -0.00015812)
(-8.64062e-09 9.49626e-09 -0.000148013)
(6.64206e-09 -1.24838e-08 -0.000148317)
(6.20075e-09 1.36129e-08 -0.000148314)
(-1.13967e-08 -1.17689e-08 -0.000148022)
(3.4888e-09 -1.53697e-08 -0.000148327)
(-1.12903e-08 7.75703e-09 -0.000148036)
(9.47514e-09 -1.07242e-08 -0.000148008)
(-6.83831e-09 1.16298e-08 -0.000148315)
(9.37805e-09 1.03113e-08 -0.000147987)
(-4.8707e-09 -1.74082e-08 -0.000148288)
(-4.13083e-09 1.54008e-08 -0.000148312)
(1.05015e-08 -1.10102e-08 -0.000148028)
(-5.06551e-09 -1.41207e-08 -0.000148287)
(1.43065e-08 4.39275e-09 -0.000147998)
(-1.86866e-08 3.98111e-09 -0.000157938)
(1.90016e-08 2.53067e-10 -0.000158253)
(5.93928e-09 -1.04026e-08 -0.000158374)
(-6.33487e-09 9.40766e-09 -0.000158105)
(1.73232e-08 -5.35707e-09 -0.000158253)
(-6.9452e-09 7.54639e-09 -0.000157971)
(-2.18534e-08 5.62991e-09 -0.000147765)
(1.85869e-08 -6.48401e-09 -0.000148135)
(1.96202e-08 5.59879e-09 -0.000147754)
(-1.92959e-08 -5.22517e-09 -0.000148113)
(2.3499e-08 -2.75607e-09 -0.000148132)
(-1.37799e-08 1.10709e-08 -0.000147795)
(-2.34312e-08 -2.28034e-09 -0.000148116)
(1.02904e-08 1.28025e-08 -0.000147777)
(8.71628e-09 4.55171e-09 -0.00015804)
(-1.34739e-10 -1.87993e-08 -0.000158309)
(1.70876e-08 3.46973e-09 -0.000157923)
(-1.81532e-08 -2.2194e-09 -0.000158238)
(-1.04109e-08 -5.0181e-09 -0.000158319)
(8.87657e-09 3.85851e-09 -0.000158054)
(-2.00757e-08 -2.84721e-09 -0.000158237)
(1.13152e-09 1.15661e-08 -0.000157947)
(-4.7138e-09 -9.75296e-09 -0.000157933)
(1.87865e-08 1.63226e-09 -0.000158247)
(-7.20079e-09 -7.60198e-09 -0.000158095)
(7.10098e-09 6.56246e-09 -0.000158356)
(1.44228e-08 6.48213e-09 -0.000158236)
(-7.12379e-09 -8.51479e-09 -0.000157945)
(9.8735e-09 6.35231e-09 -0.000158342)
(-4.45918e-09 -1.20216e-08 -0.000158096)
(7.08875e-09 -9.99805e-09 -0.000147764)
(-2.13021e-08 8.59938e-09 -0.000148111)
(1.85051e-08 7.17519e-09 -0.000148103)
(-1.09863e-08 -8.57693e-09 -0.000147771)
(-1.9617e-08 4.98655e-09 -0.000148105)
(1.39448e-08 -7.86009e-09 -0.000147766)
(4.4128e-09 -1.51235e-08 -0.000158111)
(-8.91388e-09 8.29252e-10 -0.000158372)
(-1.64846e-08 5.7642e-09 -0.000158224)
(1.05337e-08 -4.23253e-09 -0.000157939)
(-1.3081e-08 8.38166e-10 -0.000158353)
(2.47048e-09 -1.46451e-08 -0.000158125)
(-1.01899e-08 5.51995e-09 -0.000148037)
(1.12408e-08 -1.06126e-08 -0.000148334)
(8.46931e-09 1.23329e-08 -0.000148291)
(-6.75851e-09 -1.1697e-08 -0.000148008)
(9.45266e-09 -7.25642e-09 -0.000148331)
(-4.89496e-09 1.48027e-08 -0.000148044)
(8.49532e-09 -1.21481e-08 -0.000148021)
(-1.33043e-08 6.01892e-09 -0.000148327)
(6.19419e-09 9.97333e-09 -0.000147996)
(-1.1681e-08 -9.69622e-09 -0.000148303)
(-7.8692e-09 6.50409e-09 -0.000148303)
(3.73072e-09 -1.79765e-08 -0.000148029)
(-7.20989e-09 -7.41114e-09 -0.000148293)
(6.5118e-09 1.28381e-08 -0.000148007)
(-9.46922e-09 7.28039e-09 -0.000157955)
(1.70618e-08 -1.27224e-09 -0.000158254)
(8.38962e-09 -7.73006e-09 -0.000158373)
(-3.87947e-09 1.17137e-08 -0.000158123)
(1.06679e-08 -9.32053e-09 -0.00015823)
(-1.02767e-08 5.98064e-09 -0.000157958)
(-1.29025e-08 8.147e-09 -0.00014779)
(1.85953e-08 -9.36668e-09 -0.000148134)
(1.04589e-08 7.54439e-09 -0.000147769)
(-2.38784e-08 -7.21433e-09 -0.000148112)
(2.08945e-08 -4.17326e-09 -0.000148108)
(-1.70288e-08 5.17098e-09 -0.00014779)
(-1.72344e-08 -5.41243e-09 -0.0001481)
(1.54112e-08 6.38442e-09 -0.000147769)
(1.84137e-09 1.39855e-08 -0.00015806)
(-7.14744e-09 -5.74097e-09 -0.00015833)
(9.56361e-09 6.24587e-09 -0.000157934)
(-1.6989e-08 -2.64304e-09 -0.000158233)
(-1.00021e-08 -5.97625e-09 -0.000158318)
(6.31456e-09 8.97959e-09 -0.000158063)
(-1.48739e-08 -5.45659e-09 -0.000158224)
(1.15553e-08 5.44829e-09 -0.000157939)
(-1.06501e-08 -6.21924e-09 -0.00015793)
(1.3483e-08 5.03834e-09 -0.000158235)
(-4.76665e-09 -1.04036e-08 -0.000158083)
(9.67971e-09 4.03131e-09 -0.000158348)
(1.29558e-08 5.3354e-09 -0.000158217)
(-1.45144e-08 -3.62934e-09 -0.000157939)
(6.61193e-09 7.65355e-09 -0.000158338)
(-2.12115e-09 -1.23365e-08 -0.000158093)
(1.93189e-08 -6.73575e-09 -0.000147756)
(-1.40183e-08 1.26067e-08 -0.00014811)
(1.75109e-08 6.42012e-09 -0.000148093)
(-1.76124e-08 -8.27535e-09 -0.000147754)
(-1.98253e-08 6.29272e-09 -0.000148096)
(1.95929e-08 -7.09601e-09 -0.000147765)
(5.53085e-09 -1.24284e-08 -0.000158093)
(-7.29247e-09 4.2793e-09 -0.000158359)
(-1.57393e-08 1.98173e-09 -0.000158212)
(1.35994e-08 -3.99068e-09 -0.000157935)
(-1.00736e-08 3.46886e-09 -0.000158352)
(1.45939e-09 -1.54466e-08 -0.000158109)
(-6.50229e-09 1.77851e-08 -0.000148033)
(1.41188e-08 -7.49318e-09 -0.000148339)
(7.37613e-09 1.17964e-08 -0.000148292)
(-7.25627e-09 -1.70865e-08 -0.000147996)
(5.57828e-09 -1.09883e-08 -0.000148324)
(-7.07551e-09 1.5381e-08 -0.000148042)
(6.45643e-09 -1.5824e-08 -0.000148015)
(-1.37108e-08 7.70379e-09 -0.000148318)
(5.9888e-09 1.53443e-08 -0.000147996)
(-1.16491e-08 -1.3119e-08 -0.0001483)
(-7.35343e-09 8.25657e-09 -0.000148309)
(7.32583e-09 -1.67735e-08 -0.000148022)
(-8.10226e-09 -1.12378e-08 -0.000148293)
(8.16623e-09 1.28251e-08 -0.000148004)
(-1.52968e-08 4.3601e-09 -0.000157931)
(1.02868e-08 -6.31469e-09 -0.000158241)
(5.71936e-09 -8.75615e-09 -0.000158365)
(-2.60878e-09 1.34683e-08 -0.00015812)
(1.16596e-08 -6.03313e-09 -0.000158223)
(-1.385e-08 3.27788e-09 -0.000157951)
(-1.60869e-08 7.77186e-09 -0.000147764)
(1.7449e-08 -9.82513e-09 -0.000148121)
(1.97359e-08 6.70885e-09 -0.000147744)
(-1.25738e-08 -1.32411e-08 -0.000148109)
(1.92763e-08 -5.06183e-09 -0.000148106)
(-1.95096e-08 7.38891e-09 -0.000147778)
(-2.10245e-08 -5.27357e-09 -0.000148086)
(2.1943e-08 5.05391e-09 -0.000147761)
(3.32586e-09 1.15851e-08 -0.000158054)
(-5.72476e-09 -9.84772e-09 -0.000158322)
(1.45217e-08 1.73891e-09 -0.000157923)
(-1.06115e-08 -7.00224e-09 -0.000158226)
(-8.67543e-09 -7.18137e-09 -0.000158321)
(3.3644e-09 1.05131e-08 -0.000158066)
(-1.28436e-08 -6.20368e-09 -0.000158204)
(1.01497e-08 5.54589e-09 -0.000157928)
(-1.21562e-08 -7.10664e-09 -0.00015792)
(1.27303e-08 6.23395e-09 -0.000158215)
(-7.67524e-09 -8.73925e-09 -0.00015808)
(7.78767e-09 7.488e-09 -0.000158334)
(7.4089e-09 6.54009e-09 -0.000158215)
(-1.34052e-08 -7.05221e-09 -0.00015792)
(8.96808e-09 3.84516e-09 -0.000158334)
(-6.18861e-09 -1.16551e-08 -0.000158077)
(1.30208e-08 -8.40416e-09 -0.000147742)
(-1.59242e-08 5.69249e-09 -0.000148094)
(1.65078e-08 8.11584e-09 -0.000148093)
(-1.58551e-08 -7.79597e-09 -0.000147742)
(-1.44031e-08 8.23848e-09 -0.000148092)
(1.48418e-08 -8.16469e-09 -0.000147748)
(7.46867e-09 -1.10504e-08 -0.0001581)
(-6.17988e-09 1.25823e-08 -0.000158349)
(-7.4135e-09 6.61589e-09 -0.000158213)
(1.75315e-08 -5.63365e-09 -0.000157917)
(-9.51125e-09 2.29584e-09 -0.000158347)
(8.81607e-09 -8.09164e-09 -0.000158102)
(-7.59284e-09 1.04743e-08 -0.000148023)
(9.06257e-09 -7.48755e-09 -0.000148321)
(1.07318e-08 7.85103e-09 -0.000148287)
(-7.26627e-09 -1.40431e-08 -0.000147985)
(8.40479e-09 -1.04802e-08 -0.000148315)
(-8.67373e-09 1.15757e-08 -0.000148021)
(6.12626e-09 -1.42954e-08 -0.000148019)
(-8.06028e-09 1.00838e-08 -0.000148315)
(4.15907e-09 1.20795e-08 -0.000147998)
(-8.74026e-09 -7.95885e-09 -0.000148294)
(-8.39406e-09 9.98039e-09 -0.000148307)
(9.43918e-09 -1.05309e-08 -0.000148021)
(-8.78591e-09 -8.69322e-09 -0.000148289)
(8.1693e-09 1.1064e-08 -0.000147999)
(-1.45206e-08 5.82383e-09 -0.000157935)
(1.90164e-08 -2.82824e-09 -0.000158223)
(4.56573e-09 -9.30711e-09 -0.000158357)
(-6.7306e-09 1.15694e-08 -0.000158103)
(7.42959e-09 -6.63619e-09 -0.000158221)
(-8.7043e-09 9.29508e-09 -0.000157938)
(-1.581e-08 6.32105e-09 -0.000147765)
(1.85901e-08 -5.52733e-09 -0.000148112)
(1.39721e-08 4.97444e-09 -0.000147741)
(-1.56014e-08 -7.11184e-09 -0.000148088)
(1.94135e-08 -5.78084e-09 -0.000148098)
(-1.35351e-08 9.08335e-09 -0.000147766)
(-1.78163e-08 -6.62967e-09 -0.000148083)
(1.56626e-08 7.30255e-09 -0.000147742)
(4.9916e-09 1.25404e-08 -0.000158062)
(-5.46341e-09 -1.05195e-08 -0.000158317)
(1.41345e-08 5.35595e-09 -0.000157912)
(-1.33265e-08 -5.30054e-09 -0.000158204)
(-7.38925e-09 -3.6605e-09 -0.000158312)
(9.89833e-09 5.06243e-09 -0.000158055)
(-6.01802e-09 -5.86836e-09 -0.000158209)
(1.66287e-08 4.17721e-09 -0.000157918)
(-1.78524e-08 -4.3905e-09 -0.000157925)
(3.1371e-09 9.89666e-09 -0.000158238)
(-6.62553e-09 -1.26137e-08 -0.000158077)
(1.02643e-08 2.34455e-09 -0.000158351)
(9.13787e-09 4.28961e-09 -0.000158235)
(-1.97584e-08 -2.51052e-09 -0.000157943)
(8.53206e-09 2.3487e-09 -0.000158349)
(-4.31494e-09 -1.40757e-08 -0.000158096)
(2.38304e-08 -5.08028e-09 -0.000147748)
(-6.5803e-09 1.26389e-08 -0.000148108)
(1.14048e-08 8.83535e-09 -0.000148105)
(-2.45408e-08 -5.77448e-09 -0.000147769)
(-1.96763e-08 4.6752e-09 -0.000148106)
(2.46669e-08 -4.08997e-09 -0.000147776)
(4.8891e-09 -1.32293e-08 -0.000158099)
(-9.66538e-09 1.96631e-09 -0.000158372)
(-1.50157e-08 2.69686e-09 -0.000158229)
(1.85425e-08 -3.3616e-09 -0.000157945)
(-8.82564e-09 1.09662e-09 -0.000158362)
(3.63528e-09 -1.83434e-08 -0.000158114)
(-7.45456e-09 1.54469e-08 -0.000148023)
(1.25837e-08 -5.80187e-09 -0.000148336)
(1.14831e-08 3.62927e-09 -0.000148301)
(-7.45519e-09 -1.57668e-08 -0.00014801)
(8.61729e-09 -1.08507e-08 -0.000148331)
(-7.97552e-09 1.62473e-08 -0.00014805)
(6.30304e-09 -1.65832e-08 -0.00014802)
(-1.12579e-08 2.3664e-09 -0.000148325)
(6.60843e-09 1.59864e-08 -0.000147994)
(-1.02541e-08 -7.01719e-09 -0.000148296)
(-7.28332e-09 9.13846e-09 -0.00014831)
(6.21404e-09 -1.95696e-08 -0.000148043)
(-7.54772e-09 -1.2381e-08 -0.000148294)
(9.36693e-09 1.42964e-08 -0.000148013)
(-1.87288e-08 2.24402e-09 -0.000157934)
(6.49856e-09 -7.53282e-09 -0.00015825)
(6.93927e-09 -5.67163e-09 -0.000158376)
(-4.24591e-09 1.2987e-08 -0.000158121)
(4.9464e-09 -8.60247e-09 -0.000158247)
(-2.17616e-08 3.5038e-09 -0.000157961)
(-2.02124e-08 7.3582e-09 -0.000147759)
(9.13238e-09 -9.94917e-09 -0.000148124)
(2.47415e-08 6.59858e-09 -0.000147735)
(-7.34396e-09 -1.1488e-08 -0.000148096)
(1.5189e-08 -5.97947e-09 -0.000148111)
(-2.39116e-08 5.48723e-09 -0.000147788)
(-1.70554e-08 -7.24113e-09 -0.000148083)
(2.38529e-08 6.48169e-09 -0.00014776)
(4.5553e-09 1.33421e-08 -0.000158055)
(-8.16338e-09 -3.38936e-09 -0.000158322)
(2.37007e-08 -1.15757e-10 -0.000157922)
(-6.04385e-10 -1.10365e-08 -0.00015823)
(-1.03774e-08 -1.9325e-09 -0.000158327)
(4.51613e-09 1.53849e-08 -0.000158063)
(-1.19242e-08 -5.40461e-09 -0.000158219)
(1.65677e-08 6.48445e-09 -0.000157935)
(-9.5233e-09 -9.71677e-09 -0.000157938)
(4.58734e-09 6.4476e-09 -0.000158246)
(-8.48457e-09 -1.06122e-08 -0.000158087)
(1.24039e-08 -4.82464e-09 -0.00015836)
(-6.07052e-09 7.56228e-09 -0.000158259)
(-1.00909e-08 -7.40879e-09 -0.000157932)
(1.47914e-08 -1.80252e-08 -0.000158371)
(-5.05891e-09 -1.18079e-08 -0.000158084)
(1.61485e-08 -7.04241e-09 -0.000147766)
(-1.85081e-08 7.1195e-09 -0.000148122)
(3.13186e-08 6.39306e-10 -0.000148112)
(-2.42092e-08 -7.80183e-09 -0.00014777)
(-3.26303e-08 1.68984e-11 -0.000148123)
(2.36354e-08 -9.9345e-09 -0.000147779)
(1.05024e-08 -6.94049e-09 -0.000158096)
(-7.98031e-09 1.4645e-09 -0.000158373)
(5.35183e-09 7.64443e-09 -0.000158272)
(8.53507e-09 -8.35394e-09 -0.000157939)
(-1.67329e-08 -2.01013e-08 -0.000158386)
(8.82075e-09 -4.75911e-09 -0.000158112)
(-8.07336e-09 1.63048e-08 -0.000148044)
(1.17507e-08 -4.26554e-09 -0.00014835)
(6.50789e-09 1.52887e-08 -0.00014831)
(-4.51562e-09 -2.82909e-08 -0.000148013)
(6.3298e-09 -1.55119e-08 -0.000148351)
(-4.64003e-09 2.53453e-08 -0.000148066)
(8.07249e-09 -1.3225e-08 -0.000148031)
(-1.08296e-08 1.1718e-08 -0.000148333)
(6.73907e-09 1.76855e-08 -0.000148012)
(-1.05463e-08 -1.07098e-08 -0.000148326)
(-5.18272e-09 2.1305e-08 -0.000148326)
(6.88015e-09 -2.28506e-08 -0.000148042)
(-4.00007e-09 -2.31474e-08 -0.000148328)
(7.69094e-09 1.90626e-08 -0.000148032)
(-1.78855e-08 4.67887e-09 -0.000157948)
(5.00163e-09 -6.62588e-09 -0.000158268)
(1.31876e-08 1.58754e-08 -0.000158414)
(-7.34138e-09 8.52268e-09 -0.000158123)
(-1.23614e-08 -1.36479e-08 -0.000158284)
(-8.78307e-09 7.58726e-09 -0.000157965)
(-2.05127e-08 6.80543e-09 -0.00014778)
(1.81986e-08 -7.7116e-09 -0.000148133)
(2.17946e-08 6.47892e-09 -0.000147746)
(-2.07311e-08 -5.30372e-09 -0.000148095)
(2.74939e-08 -3.66697e-09 -0.000148134)
(-2.682e-08 6.76493e-09 -0.000147798)
(-3.22919e-08 -1.29554e-09 -0.000148097)
(2.47965e-08 5.55636e-09 -0.000147761)
(5.44821e-09 1.21546e-08 -0.000158065)
(-7.59464e-09 -2.55181e-09 -0.000158347)
(1.4049e-08 5.04813e-09 -0.000157924)
(-7.38352e-09 -6.88041e-09 -0.000158231)
(-1.36494e-08 1.39005e-08 -0.000158361)
(9.81152e-09 4.15099e-09 -0.000158068)
(6.99197e-09 -9.80145e-09 -0.000158255)
(9.70702e-09 8.21045e-09 -0.000157926)
(1.42626e-08 -1.78122e-08 -0.000157926)
(-6.05925e-08 3.81649e-08 -0.000158298)
(-1.37393e-08 9.97361e-09 -0.000158077)
(4.19496e-08 -6.86584e-08 -0.000158412)
(-2.39148e-07 1.29118e-07 -0.000158445)
(8.5934e-08 -5.38185e-08 -0.000157961)
(1.31937e-07 -2.46208e-07 -0.000158558)
(-5.3946e-08 8.67871e-08 -0.000158112)
(2.93704e-08 -7.73828e-09 -0.000147805)
(-2.26253e-08 5.25338e-09 -0.000148057)
(-3.45621e-08 2.11983e-08 -0.0001478)
(-8.62706e-09 -1.01025e-08 -0.00014798)
(2.95505e-08 2.06391e-08 -0.000147814)
(6.11934e-09 -9.12675e-09 -0.000148)
(1.36195e-08 6.57839e-09 -0.000158086)
(-3.89746e-08 -6.28782e-08 -0.000158432)
(2.36693e-07 1.2875e-07 -0.000158455)
(-8.97284e-08 -5.43314e-08 -0.000157979)
(-1.31384e-07 -2.48395e-07 -0.000158585)
(5.68307e-08 9.43052e-08 -0.000158131)
(-6.06369e-09 3.10202e-08 -0.000148078)
(9.43961e-09 -7.96646e-09 -0.000148272)
(2.44339e-08 -4.04502e-08 -0.000147996)
(-1.1648e-08 -4.2724e-09 -0.000148222)
(2.39897e-08 4.34608e-08 -0.00014803)
(-9.36521e-09 5.6781e-09 -0.000148266)
(7.46747e-09 -3.04523e-08 -0.00014805)
(-4.96119e-09 2.03645e-08 -0.000148262)
(5.11922e-09 2.85501e-08 -0.000148054)
(-2.32855e-09 -2.20655e-08 -0.000148253)
(-2.19295e-08 -3.90034e-08 -0.000148006)
(1.4112e-08 1.36102e-09 -0.000148243)
(-2.24727e-08 4.1941e-08 -0.000147997)
(1.19997e-08 -1.38208e-10 -0.000148241)
(2.47208e-09 1.25932e-08 -0.000157949)
(-5.84904e-08 -3.80527e-08 -0.000158326)
(1.35678e-07 2.48985e-07 -0.000158591)
(-5.39066e-08 -9.14879e-08 -0.000158146)
(-2.38861e-07 -1.28168e-07 -0.00015847)
(8.46698e-08 5.28083e-08 -0.000157984)
(-3.47981e-08 5.14108e-09 -0.000147812)
(2.41661e-08 -4.00674e-09 -0.000148065)
(3.39958e-08 3.61241e-09 -0.000147776)
(-2.13674e-08 -3.48338e-09 -0.000148034)
(-3.38712e-08 -1.94231e-08 -0.000147814)
(-1.30951e-08 9.44289e-09 -0.000147995)
(2.75999e-08 -1.74983e-08 -0.000147791)
(8.34485e-09 8.22407e-09 -0.000147973)
(1.35522e-08 -8.19127e-09 -0.000158065)
(-3.59666e-08 5.58618e-08 -0.000158402)
(-2.28365e-09 1.19997e-08 -0.000157925)
(6.09495e-08 -3.93187e-08 -0.000158302)
(-1.3244e-07 2.46505e-07 -0.000158552)
(5.6787e-08 -9.48537e-08 -0.000158101)
(2.33078e-07 -1.25461e-07 -0.00015845)
(-8.63668e-08 5.30535e-08 -0.000157963)
(3.21806e-07 -1.72034e-07 -0.000158055)
(-6.11775e-07 3.36453e-07 -0.000158971)
(-1.76002e-07 3.28873e-07 -0.000158205)
(3.36341e-07 -6.13822e-07 -0.000159099)
(-1.00107e-06 6.41528e-07 -0.000159818)
(7.7202e-07 -4.08283e-07 -0.000158708)
(6.2697e-07 -9.65735e-07 -0.000159971)
(-4.14864e-07 7.87082e-07 -0.000158843)
(-1.05639e-07 -4.92537e-08 -0.000148563)
(1.1718e-07 5.58394e-08 -0.000147542)
(-8.01664e-08 1.41724e-07 -0.000147327)
(2.48964e-07 -9.34621e-08 -0.000150022)