/*--------------------------------*- C++ -*----------------------------------*\
| =========                 |                                                 |
| \\      /  F ield         | OpenFOAM: The Open Source CFD Toolbox           |
|  \\    /   O peration     | Version:  2206                                  |
|   \\  /    A nd           | Website:  www.openfoam.com                      |
|    \\/     M anipulation  |                                                 |
\*---------------------------------------------------------------------------*/
FoamFile
{
    version     2.0;
    format      ascii;
    arch        "LSB;label=32;scalar=64";
    class       volScalarField;
    location    "0.9";
    object      Co;
}
// * * * * * * * * * * * * * * * * * * * * * * * * * * * * * * * * * * * * * //

dimensions      [0 0 0 0 0 0 0];

internalField   nonuniform List<scalar> 
186046
(
0.0852429
0.0856414
0.0858359
0.0860672
0.0856531
0.0857709
0.0858796
0.0863464
0.0855678
0.0855442
0.0860218
0.0856648
0.0857613
0.086054
0.0860545
0.0856301
0.085544
0.0860182
0.0856729
0.0860253
0.0856308
0.0857106
0.0862233
0.0859341
0.0860724
0.0855937
0.0858879
0.0859625
0.0860614
0.0863503
0.0859175
0.0862713
0.0862822
0.085707
0.0858646
0.0865651
0.0863515
0.0862276
0.0864373
0.0860055
0.0862971
0.0856238
0.0865336
0.0857979
0.0857835
0.0860098
0.086371
0.0860544
0.0859111
0.0855058
0.0856159
0.0859738
0.0859823
0.0861297
0.0863486
0.0862948
0.0854511
0.0861514
0.0862103
0.0855436
0.0856039
0.0862782
0.0860117
0.0855644
0.08585
0.0861551
0.0850412
0.0857996
0.0858551
0.0860776
0.0862757
0.0868325
0.085553
0.0858215
0.0855099
0.0865917
0.0856324
0.0862496
0.0863363
0.0857042
0.0856983
0.0860115
0.0864309
0.0860257
0.0860352
0.0852609
0.0856515
0.0858926
0.0855556
0.0857925
0.0858379
0.0854189
0.0856615
0.0856853
0.0851753
0.0857875
0.0850041
0.085491
0.0853859
0.0868496
0.0854158
0.0851477
0.0854937
0.0853948
0.0854888
0.0855815
0.0856675
0.0856447
0.0856338
0.0863598
0.0862727
0.0861062
0.0858014
0.0857439
0.0853663
0.0859414
0.0851653
0.085893
0.0854351
0.0859286
0.0850691
0.0851982
0.0850546
0.0852848
0.0852
0.0850824
0.0851098
0.0850991
0.0859181
0.0856259
0.0861667
0.0856923
0.0871676
0.0860748
0.0869344
0.0851217
0.0852061
0.0865865
0.0867054
0.0868112
0.0864195
0.0867859
0.0853395
0.0863939
0.0864664
0.0866934
0.0867423
0.0868181
0.0869004
0.0857449
0.0852355
0.0854237
0.0851112
0.0849933
0.085352
0.0865228
0.0849164
0.0852495
0.0865139
0.0857099
0.0868031
0.0857726
0.0863883
0.0862416
0.086569
0.0854787
0.0856887
0.0853946
0.0861728
0.0849284
0.0857371
0.0851995
0.0854687
0.0853003
0.0861238
0.08574
0.0853627
0.0851653
0.0857818
0.0862447
0.0855804
0.0854558
0.0865339
0.0858632
0.0855086
0.0851371
0.0855099
0.0849903
0.0849191
0.0860353
0.0861833
0.0856177
0.0863066
0.0849163
0.0851436
0.085688
0.0851236
0.0863239
0.0859048
0.0858404
0.0850781
0.0856857
0.085382
0.0856591
0.0857689
0.0852222
0.0861628
0.0855731
0.0854673
0.0857557
0.0858876
0.085991
0.0856009
0.0858482
0.0859496
0.0860988
0.0859652
0.0858629
0.0861225
0.0857216
0.085472
0.0859309
0.0861403
0.086107
0.085765
0.0861609
0.0855385
0.086062
0.0860416
0.0867807
0.0861853
0.0859716
0.0869177
0.0865363
0.0863813
0.0862932
0.0860523
0.0863079
0.086371
0.086096
0.086547
0.0864532
0.0864253
0.0862168
0.0864813
0.0861412
0.0861766
0.0860877
0.0861692
0.0861206
0.0861558
0.0866563
0.086294
0.0860966
0.0859522
0.0859915
0.0859718
0.0859646
0.0857254
0.0863645
0.0859844
0.086023
0.0864285
0.0858876
0.0861194
0.0864848
0.086337
0.0856446
0.086884
0.0863393
0.0861867
0.0853794
0.086325
0.0857154
0.086317
0.0859801
0.085998
0.0856556
0.0853042
0.0854922
0.0854132
0.0851682
0.0853591
0.0854639
0.0853904
0.0859211
0.0866493
0.0866606
0.087357
0.086386
0.087086
0.086544
0.085889
0.0864271
0.0858323
0.0855368
0.0854605
0.0862846
0.0869163
0.0864602
0.0861746
0.0864673
0.0866067
0.0855082
0.0865853
0.0866036
0.0865037
0.0856861
0.0860321
0.0855145
0.0857344
0.0856729
0.0869312
0.0859393
0.0868652
0.0854894
0.0850022
0.0855105
0.0856344
0.0855037
0.0861667
0.0864728
0.0866256
0.0859335
0.0862984
0.0861074
0.0868642
0.0869996
0.0857979
0.0856071
0.0858603
0.085618
0.0857139
0.0860982
0.0854343
0.0853586
0.0858825
0.0858873
0.085504
0.0858292
0.0861515
0.0857654
0.0861544
0.0858368
0.0849601
0.0855363
0.0856925
0.085758
0.0864241
0.086106
0.0860449
0.0856949
0.085816
0.0857694
0.0855914
0.0859468
0.0859129
0.0863392
0.0854033
0.085758
0.0856811
0.0857774
0.0856602
0.0852435
0.0861364
0.0866976
0.0860409
0.086025
0.0858104
0.0863047
0.0859365
0.0856672
0.0855694
0.0854429
0.0852614
0.0866897
0.0859965
0.086636
0.0854028
0.0852703
0.086919
0.0858721
0.0868122
0.085529
0.0851904
0.0858058
0.0851537
0.0853696
0.0861299
0.0860228
0.0851106
0.085626
0.0859375
0.0859708
0.0860357
0.085444
0.0861488
0.0860964
0.0867638
0.085681
0.0863811
0.0860569
0.0863833
0.0851367
0.0855106
0.0866113
0.0868211
0.0866889
0.0866848
0.0865537
0.086359
0.0866311
0.0859756
0.086126
0.0859
0.0856706
0.0855656
0.086088
0.0848587
0.085636
0.0854289
0.0856346
0.0859233
0.085817
0.0861102
0.0858849
0.0859706
0.0858107
0.0864658
0.0859894
0.0852788
0.0852734
0.0865691
0.0866657
0.085731
0.0857392
0.0851795
0.0860729
0.0860687
0.0862752
0.0867793
0.0866227
0.0863018
0.0849981
0.0857547
0.085938
0.085938
0.0866196
0.0870073
0.0863269
0.0863391
0.0857869
0.0858083
0.0859441
0.0859064
0.0858045
0.0860076
0.0861941
0.0861447
0.0860819
0.0857448
0.0860492
0.0853125
0.086194
0.0855293
0.0860828
0.0861549
0.0861402
0.0859428
0.0856071
0.0857318
0.0863966
0.0863965
0.0864027
0.0861988
0.0864598
0.0863811
0.0863171
0.0863946
0.0864466
0.0863422
0.0862586
0.0861261
0.0859946
0.0859601
0.0863656
0.0861292
0.0860009
0.0860524
0.0859474
0.0859071
0.085907
0.0856335
0.0859408
0.0858155
0.0858779
0.0858655
0.0854218
0.0858473
0.0858935
0.085938
0.0857526
0.0858873
0.0858792
0.0862585
0.0862586
0.0858979
0.0856181
0.0855979
0.0857254
0.0859591
0.0857838
0.0857183
0.0860192
0.0860021
0.086085
0.0860291
0.0859825
0.0861864
0.0860118
0.0860216
0.0859089
0.0861043
0.0862808
0.0861783
0.0858398
0.0861811
0.0861042
0.0861917
0.0862247
0.086392
0.0863929
0.0865469
0.0861865
0.0861667
0.0863557
0.0862774
0.0859068
0.0859138
0.0861083
0.0862078
0.0863341
0.0864132
0.086284
0.0863379
0.0864343
0.0865997
0.0864397
0.0865299
0.0865299
0.086427
0.0867425
0.0865154
0.0865699
0.0865604
0.0868098
0.0866618
0.0865662
0.0866098
0.0864888
0.0867169
0.0868022
0.0866965
0.0865959
0.0865189
0.0864617
0.0863464
0.0863278
0.086286
0.0863801
0.0863867
0.0863887
0.0861876
0.0861078
0.0859594
0.0859661
0.0860369
0.0859163
0.0860479
0.0859583
0.0859072
0.0857724
0.0857503
0.0858892
0.0856449
0.0856862
0.0859144
0.0858292
0.0859434
0.0860212
0.0858504
0.0857301
0.0858102
0.085899
0.0859505
0.0860442
0.0860951
0.0860952
0.086157
0.0857884
0.0859133
0.08593
0.0858181
0.0857443
0.0860596
0.0860976
0.0859398
0.0858923
0.0857924
0.0857019
0.0856825
0.0858566
0.0857264
0.0858468
0.0857794
0.0857886
0.0858869
0.085875
0.0857096
0.0857738
0.0858002
0.0858819
0.0857675
0.0858181
0.0859483
0.0860747
0.0859212
0.0858729
0.0858535
0.0858534
0.0859583
0.0858072
0.0859869
0.0859764
0.0859292
0.085747
0.0858062
0.0859479
0.0859314
0.0860442
0.0859829
0.0858259
0.0857864
0.0858053
0.0861083
0.0860491
0.0860424
0.0859266
0.086042
0.0860076
0.0861388
0.0858797
0.0859003
0.0859894
0.0861436
0.0861602
0.0860748
0.0862949
0.0864769
0.0863832
0.086508
0.086454
0.0864579
0.086395
0.0863115
0.0861547
0.0861651
0.0862293
0.0862293
0.0865122
0.086343
0.0861908
0.0861634
0.0860021
0.0859682
0.085969
0.0860933
0.0862063
0.0861345
0.0861347
0.0862371
0.0863189
0.0863569
0.0862472
0.0865289
0.0862482
0.0862889
0.0863465
0.0863224
0.0862405
0.0864852
0.0866372
0.0865793
0.0867827
0.0869441
0.0867047
0.0865125
0.0865566
0.0863983
0.0866243
0.0867482
0.0865166
0.0863843
0.0863164
0.0864858
0.0864924
0.086368
0.0862438
0.0863101
0.0862024
0.0861778
0.0860541
0.0859582
0.0860992
0.0861125
0.0861379
0.0860739
0.0859183
0.0857875
0.0858116
0.085785
0.0857141
0.0856466
0.0859045
0.0859484
0.0860304
0.0859242
0.0858933
0.0858674
0.0858426
0.0858284
0.0859398
0.0860327
0.0861119
0.0861517
0.0857118
0.0857626
0.0857713
0.0858982
0.0857765
0.0856668
0.0856682
0.0856783
0.0857355
0.0855903
0.0855052
0.085598
0.0855901
0.0856525
0.0857387
0.0857386
0.0857358
0.0856647
0.0856694
0.0855555
0.0855852
0.0855198
0.0856591
0.0856412
0.0855692
0.086134
0.0860252
0.0860567
0.0860587
0.0860187
0.0859601
0.0859348
0.0860948
0.0860049
0.0860036
0.0858626
0.0858313
0.0858541
0.0858556
0.0859161
0.0859162
0.0860642
0.0857819
0.0859169
0.085991
0.0860001
0.08582
0.0857805
0.0858628
0.0858328
0.0858688
0.0858768
0.0858768
0.0859557
0.085823
0.0860424
0.0860776
0.0862463
0.0861684
0.0861684
0.0860993
0.0861479
0.086108
0.086116
0.0862208
0.0862608
0.0862591
0.0861519
0.0861546
0.0860954
0.0863131
0.0862429
0.0860475
0.0861455
0.0862733
0.0861864
0.0861059
0.0862997
0.0861467
0.0861597
0.086287
0.0863174
0.0862531
0.0862702
0.0863711
0.0864246
0.0864515
0.0864184
0.0864204
0.0864769
0.0862942
0.0864544
0.0864543
0.0864043
0.0864705
0.0864618
0.0865957
0.0865957
0.0864251
0.0863444
0.0864643
0.0864705
0.0863826
0.0863186
0.0863559
0.086193
0.0861862
0.0861199
0.0862274
0.0859191
0.0859546
0.0859607
0.0860099
0.0860803
0.0860292
0.0861384
0.0861383
0.0863027
0.0859936
0.0858947
0.0856885
0.0856674
0.0856303
0.0856553
0.0856696
0.0857676
0.0857252
0.0858557
0.0857405
0.0857283
0.0856293
0.0857516
0.0857539
0.0857955
0.0859898
0.085809
0.0859999
0.0861615
0.0859978
0.0858082
0.0857713
0.0858129
0.0857251
0.0857341
0.0856847
0.0855606
0.0856083
0.0857293
0.0856833
0.0857031
0.0857749
0.0856529
0.0856046
0.0856603
0.0857083
0.085701
0.0856485
0.0856832
0.0857845
0.0859843
0.0861214
0.0862962
0.0860615
0.0860388
0.0861386
0.0863286
0.0860266
0.0862506
0.0860766
0.0861869
0.086035
0.0859373
0.0859392
0.0860203
0.0859971
0.086028
0.086028
0.0858966
0.0858446
0.0859278
0.0862446
0.0859562
0.0855288
0.0856608
0.0856608
0.0858475
0.0857634
0.0859064
0.0859774
0.0859839
0.086026
0.0861172
0.0861172
0.086098
0.0862078
0.0860605
0.0860692
0.086315
0.0862002
0.0863778
0.0865179
0.0864689
0.0864185
0.0863508
0.0861633
0.0862028
0.0861893
0.0861603
0.0861116
0.0861292
0.0860834
0.0860572
0.0861638
0.0862198
0.0861629
0.0863044
0.0863968
0.0863969
0.0862423
0.0862273
0.0862705
0.0865154
0.0865155
0.0865792
0.0863609
0.0863895
0.0862497
0.0864016
0.0864016
0.0864879
0.086276
0.0862681
0.086294
0.0863391
0.0861772
0.0862139
0.0863921
0.0863142
0.0861405
0.0860788
0.0861822
0.0861421
0.086068
0.0860785
0.0859535
0.0860971
0.0859598
0.0857867
0.0858995
0.0860071
0.086007
0.086018
0.086018
0.0861165
0.0859664
0.0858951
0.0856223
0.0857088
0.0855461
0.0856152
0.0856885
0.0857518
0.0857798
0.0857399
0.0856787
0.0856309
0.0858179
0.085754
0.085754
0.085779
0.0857521
0.0857653
0.0861437
0.0857046
0.0855324
0.0856333
0.0856792
0.0857002
0.0856881
0.085687
0.085687
0.0855906
0.0855281
0.0856576
0.0857602
0.0857365
0.0857442
0.0857058
0.0857216
0.0856274
0.0858214
0.0857517
0.0857998
0.0857358
0.0857566
0.0858163
0.0861879
0.0861879
0.0859347
0.0859667
0.0860347
0.085796
0.0859501
0.0858393
0.0858852
0.0860323
0.0859174
0.0860357
0.0860753
0.0861557
0.0859944
0.0860046
0.085971
0.0858826
0.0860106
0.0859977
0.0859977
0.0859355
0.0857538
0.0857284
0.0860745
0.0860026
0.0860711
0.0860583
0.0862386
0.0861035
0.0861781
0.0861321
0.0861321
0.0861957
0.0862279
0.0860947
0.0862503
0.0863786
0.0866471
0.0866468
0.086326
0.0865978
0.0864117
0.0863499
0.0861553
0.0860884
0.0860499
0.0859847
0.086088
0.0860297
0.0860662
0.0860695
0.0862812
0.0862813
0.0863038
0.0865013
0.0863203
0.0863201
0.0861376
0.0861379
0.0862296
0.0865332
0.0863593
0.0863413
0.0862251
0.0862945
0.0861509
0.0863294
0.0864418
0.0864416
0.0863912
0.0863359
0.0862907
0.0864235
0.0861814
0.0862073
0.0862073
0.0862066
0.0861785
0.0861284
0.0861623
0.08605
0.0859477
0.0860093
0.0861735
0.0861242
0.0861242
0.0862501
0.0858445
0.0860924
0.0860925
0.0860825
0.0861829
0.0861763
0.0861763
0.0859708
0.085963
0.0858629
0.0858628
0.0857888
0.085918
0.0859154
0.0859153
0.085816
0.0857213
0.0856571
0.0858174
0.0857783
0.0859376
0.0858698
0.0858232
0.0858354
0.0858532
0.0856559
0.0855635
0.085665
0.085499
0.0856717
0.08557
0.0856228
0.0856228
0.0856804
0.085594
0.0856026
0.0857244
0.0857845
0.0858883
0.0858891
0.0857392
0.0856535
0.0855428
0.0856559
0.0856559
0.0856562
0.0855945
0.0857978
0.0858622
0.0856925
0.0859015
0.0858226
0.0858226
0.0858928
0.0858721
0.0857576
0.0858581
0.0858987
0.0858928
0.0858221
0.0859294
0.0857332
0.0857248
0.0858464
0.0858819
0.0858697
0.0858516
0.0859593
0.085915
0.0858815
0.0858394
0.0857715
0.0857889
0.0859516
0.0859516
0.0859766
0.0859368
0.0860091
0.0861769
0.0861463
0.0863216
0.0862952
0.0863498
0.0863499
0.0865701
0.0868004
0.0865036
0.0862627
0.0863857
0.0863449
0.0862567
0.0861402
0.085967
0.0859115
0.0860232
0.0858963
0.0857506
0.0859628
0.0861216
0.0861375
0.086229
0.0862176
0.0864146
0.0860413
0.0860687
0.0859239
0.0860146
0.0858757
0.0860672
0.0863121
0.0863389
0.0862663
0.0864002
0.0863676
0.0863925
0.0866194
0.0865708
0.0866524
0.0866374
0.0866048
0.0866908
0.0865752
0.0866328
0.0866957
0.0864487
0.0864379
0.0863389
0.0862609
0.0862248
0.0862499
0.0861378
0.0859919
0.0860418
0.0861232
0.0862816
0.0862543
0.086001
0.0861566
0.0861565
0.0863015
0.0861386
0.0861855
0.0861854
0.0860892
0.0860515
0.0859976
0.0859976
0.085905
0.0858474
0.0859665
0.0859741
0.0859486
0.0858695
0.0859124
0.0858958
0.0860016
0.0859661
0.0859905
0.0860126
0.085971
0.0859709
0.0856898
0.0856897
0.0856281
0.0857387
0.085738
0.085738
0.0856924
0.0857321
0.0856812
0.0856812
0.0856789
0.085722
0.0857619
0.0859146
0.0859145
0.0857033
0.0856393
0.0856081
0.0856798
0.0856168
0.0856641
0.0856642
0.0858756
0.0859309
0.0857877
0.0855717
0.0858154
0.0858153
0.0858342
0.0858409
0.0858545
0.0858658
0.0858124
0.0857849
0.0857564
0.08571
0.0857812
0.0857873
0.0859714
0.0859497
0.0860666
0.0859602
0.0859034
0.0860714
0.0859295
0.0859332
0.0859195
0.0859231
0.0859924
0.0859924
0.0860758
0.0859533
0.0860449
0.0860449
0.0861903
0.0861489
0.0862581
0.0863105
0.0863105
0.0868748
0.0868724
0.0861167
0.0859584
0.0862976
0.0859463
0.0859528
0.0859425
0.0859403
0.0860004
0.0860268
0.0860553
0.0860886
0.0860646
0.0860675
0.0861677
0.0859306
0.0859225
0.0859648
0.0860155
0.0860154
0.0859618
0.0859618
0.0859792
0.0859791
0.086075
0.0863231
0.0862939
0.0863779
0.0865426
0.0865457
0.0865348
0.0867343
0.0866834
0.086417
0.0865908
0.0866027
0.086503
0.086253
0.0864676
0.0865468
0.0864276
0.0864276
0.0864086
0.0863673
0.0862699
0.0861477
0.0861344
0.0861343
0.0862463
0.0859372
0.085963
0.0860632
0.0860427
0.0861714
0.0862149
0.0862964
0.0862439
0.0861806
0.0861204
0.0861133
0.0860718
0.086075
0.0861022
0.0860006
0.0859552
0.0859906
0.0860372
0.0861163
0.0860175
0.0859316
0.0860313
0.0860085
0.0861171
0.0859055
0.0860624
0.0860188
0.0860996
0.0860125
0.0858291
0.0856086
0.085599
0.0857648
0.0858553
0.085798
0.0857163
0.0858541
0.0858161
0.085927
0.0859736
0.0858339
0.0859455
0.0860247
0.0857376
0.0857228
0.0856336
0.0854988
0.0856703
0.0857713
0.0858006
0.0860794
0.0860327
0.0860327
0.085888
0.0859381
0.0859357
0.0859433
0.0859198
0.0859199
0.0858344
0.0859486
0.0858969
0.0857455
0.0857573
0.0857947
0.0857948
0.0857981
0.0859042
0.0859805
0.0859861
0.0859266
0.0859673
0.0857817
0.0858396
0.0860018
0.0860655
0.0862836
0.0863735
0.0859779
0.0860408
0.0861509
0.0862555
0.0862034
0.0862079
0.0861015
0.0863476
0.0862846
0.0863583
0.0866096
0.086411
0.0858938
0.0860645
0.0860303
0.086078
0.0859613
0.0859996
0.0861162
0.0859159
0.0861604
0.0862423
0.0863369
0.0862511
0.086203
0.0864881
0.0865114
0.08631
0.0859823
0.0860078
0.0860474
0.0861484
0.0862358
0.0862303
0.0861379
0.0862949
0.0862747
0.0863446
0.0865743
0.0865744
0.0865193
0.0866046
0.0864627
0.0866298
0.0866026
0.086702
0.0863448
0.0863268
0.0862436
0.0862756
0.0861193
0.0863938
0.0863703
0.0864648
0.086615
0.0864676
0.0864676
0.0865107
0.0862418
0.0862084
0.0864406
0.0862097
0.0861932
0.0860922
0.0860922
0.0861202
0.0860738
0.0861224
0.086256
0.0861837
0.0862539
0.0861093
0.0861757
0.0860832
0.0860641
0.0860286
0.085968
0.0859465
0.0859052
0.0859838
0.086048
0.0859903
0.0858758
0.0859267
0.0861144
0.0859352
0.0859066
0.0859066
0.0859113
0.0860055
0.085815
0.0856993
0.085509
0.0855596
0.0855524
0.0855952
0.085575
0.0855611
0.0856219
0.08566
0.0857732
0.085715
0.085698
0.0857734
0.0856684
0.0855038
0.0855216
0.0854704
0.0855713
0.0857096
0.0855911
0.0858166
0.0857841
0.0858862
0.0859138
0.0859508
0.0859406
0.0859653
0.0859156
0.0858699
0.0858441
0.0857132
0.0857132
0.0856808
0.0856287
0.0856307
0.0856378
0.0856503
0.0856972
0.0857355
0.0858544
0.0859977
0.0860578
0.0858608
0.0858738
0.0858421
0.0858421
0.0860119
0.0864074
0.0864157
0.0857145
0.0858714
0.0860331
0.0861129
0.0863247
0.0861856
0.0860109
0.0863185
0.0861633
0.0862684
0.0862375
0.0862664
0.0859423
0.0859731
0.0859062
0.0860356
0.0859405
0.0859525
0.0859725
0.086043
0.0858649
0.0861522
0.0860661
0.0860845
0.0862949
0.0861303
0.0860223
0.0861456
0.0861733
0.0861253
0.0860213
0.0860618
0.0861411
0.0861713
0.0862047
0.0863121
0.086211
0.0865353
0.0863805
0.0863916
0.0865724
0.0862065
0.0863425
0.0863179
0.0864012
0.0863785
0.0863785
0.0863672
0.0864041
0.0864544
0.0863977
0.086738
0.0867619
0.0867619
0.0864648
0.0867416
0.0865797
0.0864159
0.086416
0.0862129
0.0862244
0.0862722
0.0863814
0.0862001
0.0862772
0.086163
0.0861992
0.0863253
0.0861748
0.0861769
0.0861238
0.0860644
0.0860571
0.085912
0.0859383
0.0859279
0.0860271
0.0859877
0.0860824
0.0860696
0.086101
0.0859387
0.0860314
0.0860314
0.085956
0.0859561
0.0858023
0.0857305
0.0858479
0.0857994
0.0857536
0.0854528
0.0853565
0.0854432
0.0854858
0.0856227
0.0854797
0.0855851
0.0856291
0.0856901
0.085683
0.0857509
0.0858087
0.0857014
0.0855981
0.0855381
0.0854658
0.0855921
0.0857666
0.085788
0.0856126
0.0859292
0.0858382
0.0861006
0.0860842
0.0860356
0.0860356
0.0860028
0.0859619
0.0859384
0.0859296
0.0856883
0.0858701
0.0857585
0.0857871
0.0857592
0.0856889
0.0856408
0.0856351
0.0857006
0.0858186
0.0859582
0.0855802
0.0857226
0.0857226
0.0857028
0.0857028
0.086039
0.086039
0.0860841
0.0857898
0.0858834
0.0860829
0.0863297
0.0862519
0.0863632
0.0863189
0.0861561
0.0862719
0.0863211
0.0863614
0.0862111
0.0861315
0.0860439
0.0860439
0.0861245
0.08605
0.0860059
0.0858701
0.0859169
0.0859542
0.0859173
0.08578
0.0859091
0.0859195
0.0859314
0.0858957
0.0859423
0.0862778
0.0862855
0.0860951
0.0862014
0.0859706
0.0860261
0.0863127
0.0860497
0.0861033
0.0860807
0.0861064
0.0861977
0.086262
0.0863002
0.0862747
0.0864332
0.086581
0.0865936
0.0864976
0.0864766
0.0869482
0.0869108
0.0871835
0.0872648
0.0867111
0.0863344
0.0866366
0.0864295
0.0863705
0.0863557
0.0864318
0.0863463
0.0863463
0.0863493
0.0863493
0.0862655
0.0862207
0.0862072
0.0865865
0.0863606
0.0863606
0.0863297
0.0862815
0.0862024
0.0859968
0.0860012
0.0858329
0.0857874
0.0857874
0.0859276
0.0860082
0.0859029
0.0858155
0.0858527
0.086019
0.0859808
0.0860527
0.0859737
0.0857201
0.0856951
0.085741
0.0857947
0.0857947
0.0857146
0.0854787
0.0855365
0.0856532
0.0856514
0.0856515
0.0857263
0.0857436
0.0858391
0.0858085
0.0858477
0.0858858
0.0858638
0.0857278
0.0857016
0.0857223
0.085757
0.0858433
0.0858417
0.0858845
0.0858845
0.0860179
0.0860942
0.0860158
0.0863655
0.0861603
0.0861047
0.0862262
0.0861378
0.0860413
0.0858469
0.0858683
0.0858106
0.0859284
0.0858233
0.0858549
0.0859575
0.0858642
0.0857784
0.0856009
0.0855603
0.0855069
0.0857297
0.0855632
0.0857996
0.0856334
0.0859166
0.0859166
0.0858798
0.0857796
0.0860459
0.0859801
0.0860439
0.0860755
0.0862552
0.0862623
0.0861652
0.0859915
0.08625
0.0862837
0.0862008
0.0861585
0.0860125
0.0860126
0.0860484
0.0860483
0.0861202
0.085776
0.0857892
0.0856959
0.0858964
0.0858301
0.0858067
0.0857422
0.0857928
0.0857187
0.085892
0.0862623
0.0859846
0.0860296
0.0859304
0.0860235
0.0861884
0.0862927
0.0862842
0.0863602
0.0865113
0.0862144
0.0864376
0.0864162
0.086399
0.0863754
0.0864161
0.0865547
0.0865307
0.0864558
0.0864717
0.0864718
0.0866391
0.0873288
0.0873162
0.0862216
0.0862213
0.0862213
0.086298
0.0860763
0.0861466
0.086092
0.0862069
0.0861478
0.0862858
0.0861629
0.0862037
0.086077
0.0860734
0.0861913
0.0864159
0.0864221
0.086333
0.0863331
0.0860532
0.0860661
0.0860819
0.0859607
0.0859495
0.085851
0.0859386
0.0859434
0.0859371
0.0859772
0.0859312
0.0859885
0.0858222
0.0857822
0.0858058
0.0857362
0.085735
0.0857774
0.0857595
0.0857248
0.0856766
0.0855663
0.0856386
0.085481
0.0855205
0.0855956
0.0857125
0.0858368
0.0857362
0.0856241
0.0857808
0.0857184
0.0857599
0.0858211
0.0857211
0.0856463
0.0856316
0.085747
0.0859286
0.0861182
0.0861471
0.0862151
0.0861277
0.0861208
0.0863093
0.0861393
0.0865165
0.0860295
0.0861877
0.0861639
0.0859095
0.0857305
0.0859469
0.0857634
0.0859604
0.0858478
0.0859099
0.085987
0.0862197
0.0856082
0.0856934
0.0857478
0.085768
0.0858137
0.0859357
0.0858986
0.0860351
0.0859452
0.0857943
0.0860336
0.0861431
0.0862098
0.0862313
0.0862934
0.0862788
0.086284
0.0862917
0.0862687
0.0864918
0.0865424
0.0863721
0.0863451
0.0861869
0.0862389
0.0862025
0.0862879
0.0860865
0.0860923
0.0859104
0.0860642
0.0860294
0.0860294
0.0860269
0.0859451
0.0858591
0.0860255
0.0860702
0.0861317
0.0859676
0.0859318
0.0859968
0.0860086
0.0863555
0.0862523
0.0862969
0.0864392
0.0863406
0.0862821
0.0863001
0.0862518
0.0864716
0.0862687
0.0865119
0.0866645
0.086738
0.0866308
0.0867721
0.0866016
0.0867282
0.0868532
0.0867151
0.0863377
0.0863948
0.0865412
0.0862858
0.0863213
0.0861865
0.0861864
0.086208
0.0863457
0.08628
0.086243
0.086177
0.0862312
0.0862563
0.0864194
0.0863602
0.0862178
0.0863683
0.0863068
0.0860455
0.0861238
0.0860606
0.0861334
0.0860104
0.0860597
0.0860223
0.0860757
0.0860959
0.0861129
0.0859118
0.0858236
0.0858761
0.0856822
0.0856329
0.0856329
0.0856748
0.0856748
0.0856354
0.0856112
0.0855562
0.0855562
0.0855938
0.0855613
0.0856402
0.0855171
0.0857691
0.0857689
0.0858755
0.0856694
0.085602
0.0856417
0.0857203
0.0857999
0.0857296
0.0857023
0.0857185
0.0858415
0.0858801
0.086064
0.0861601
0.0857357
0.0857495
0.0862342
0.0862343
0.0864493
0.0864492
0.0859927
0.0862787
0.0859821
0.0859506
0.0859587
0.0859588
0.0858977
0.0860092
0.085816
0.0860247
0.0859139
0.0858726
0.0857938
0.0858027
0.0859221
0.0859878
0.0862806
0.0861976
0.0864796
0.0862963
0.0863201
0.0861907
0.0862018
0.0865588
0.0864123
0.08662
0.0865619
0.0866524
0.0869482
0.0868309
0.0871947
0.0874579
0.0864979
0.0868247
0.0865903
0.0864286
0.0863941
0.0863642
0.0862539
0.0861114
0.0860798
0.0859958
0.0858855
0.0858903
0.0860468
0.0860316
0.085973
0.0858766
0.0858238
0.0864067
0.0867167
0.086476
0.0859619
0.0859984
0.0858956
0.0859508
0.0862169
0.086355
0.0861491
0.0860716
0.0862846
0.0860892
0.0861793
0.0864053
0.0863589
0.0865063
0.0864678
0.0869183
0.0868969
0.0868968
0.0867923
0.0869881
0.0867006
0.0870331
0.0865971
0.0862814
0.0864
0.0862644
0.0861901
0.086138
0.0861248
0.0861398
0.086124
0.0862236
0.0864254
0.0863422
0.0863123
0.0863057
0.0863373
0.0863302
0.0864348
0.086406
0.0862672
0.0864831
0.0862468
0.0862459
0.0860825
0.0860147
0.0859801
0.0860242
0.0860644
0.0861828
0.0860733
0.0861155
0.0862023
0.0860492
0.0857581
0.0857717
0.0857717
0.0857167
0.0857167
0.085817
0.0857174
0.0856415
0.0856414
0.0856194
0.0856516
0.085683
0.0857543
0.0856608
0.0858098
0.0859046
0.0859491
0.0858338
0.0858338
0.0857091
0.0857117
0.0857457
0.0858575
0.085822
0.0858331
0.0860378
0.0857969
0.0858313
0.0861815
0.0859185
0.0854009
0.0857672
0.0857845
0.085851
0.0861881
0.0859308
0.0858069
0.0856917
0.0857124
0.0857124
0.0857641
0.0858317
0.0859043
0.0859043
0.0858848
0.0858549
0.0857971
0.0858416
0.0859495
0.0859263
0.0860186
0.0860422
0.0862319
0.0862231
0.0862231
0.086337
0.0863017
0.0862981
0.0863935
0.0862559
0.0863495
0.0861751
0.0864868
0.086334
0.0864708
0.0868757
0.0875033
0.0875033
0.086434
0.0862918
0.0861615
0.0859966
0.0861068
0.0861153
0.0860939
0.0861151
0.0859572
0.0859989
0.0858724
0.085861
0.0857977
0.0859115
0.0859116
0.0860256
0.0860104
0.0861175
0.0865007
0.0865294
0.0858172
0.0857363
0.0857362
0.0859554
0.0861826
0.0860091
0.085671
0.0858523
0.0859689
0.0862008
0.0860857
0.0862599
0.0861935
0.0863268
0.0867718
0.0868511
0.0867064
0.0861694
0.0864369
0.0865671
0.0867008
0.0867009
0.0863882
0.0863118
0.0863022
0.0862557
0.0862086
0.086174
0.086174
0.0861547
0.0860977
0.0861337
0.0862373
0.0863031
0.0863253
0.0862786
0.0862301
0.0863551
0.0861764
0.0861765
0.0862075
0.0861335
0.08611
0.0860382
0.0857587
0.0857892
0.0858281
0.0858549
0.0860348
0.0858833
0.0858401
0.0861199
0.08612
0.0861128
0.0859339
0.0859268
0.08605
0.0859358
0.0860535
0.0858896
0.0858662
0.0857534
0.0856009
0.0856587
0.0856587
0.0856717
0.0856311
0.0856288
0.0856644
0.0858249
0.0858249
0.0858378
0.0858378
0.0858448
0.0857669
0.0857681
0.0858881
0.0858144
0.0859744
0.0858687
0.0857793
0.0858544
0.0859464
0.0857729
0.0855656
0.0855885
0.0855827
0.085712
0.0855735
0.085553
0.085575
0.0855104
0.0856068
0.0856609
0.0856217
0.0855574
0.0856023
0.0857184
0.0856757
0.085971
0.0857503
0.0857355
0.0857749
0.085861
0.0857763
0.085858
0.0860052
0.0861206
0.0861968
0.0860614
0.0860543
0.0860451
0.0862654
0.0862653
0.0864121
0.0865985
0.0866018
0.0866659
0.086714
0.0870559
0.0870839
0.0864499
0.086411
0.0865056
0.0861237
0.0862448
0.0862922
0.086395
0.0863485
0.086194
0.0863223
0.0861761
0.0862374
0.0861926
0.0860298
0.0859845
0.0860809
0.0859331
0.0859331
0.0860596
0.0862488
0.0861989
0.0857657
0.0857179
0.085728
0.0859736
0.0859735
0.0861105
0.0858635
0.0859634
0.0859712
0.0861279
0.0861279
0.0860669
0.086067
0.0862161
0.0867761
0.0867628
0.0860564
0.0862107
0.0863169
0.0861515
0.0863893
0.0864153
0.0861124
0.0862914
0.0861635
0.0861001
0.0860829
0.0861523
0.0861523
0.0862036
0.0860534
0.0861887
0.0862267
0.0861006
0.0863445
0.0861227
0.0861896
0.0858694
0.0859418
0.0859464
0.0860804
0.0858759
0.0858934
0.0859125
0.0858032
0.0858298
0.086012
0.0859928
0.0860401
0.0859718
0.0859713
0.0862233
0.0861378
0.0860124
0.0859158
0.0859157
0.0859177
0.0856959
0.0856918
0.085859
0.0858449
0.0858305
0.0856334
0.0857727
0.0857727
0.0857858
0.0857623
0.0857012
0.0859423
0.0859841
0.0859907
0.0859522
0.0860737
0.086001
0.0859629
0.085969
0.0859279
0.0858762
0.0861072
0.0857924
0.0857071
0.085752
0.0857643
0.0856902
0.0856031
0.0856742
0.0856986
0.0855877
0.0855877
0.0856178
0.0856398
0.0856887
0.0857596
0.0856705
0.0856566
0.0856065
0.0856065
0.0856512
0.0859262
0.0858808
0.0858808
0.0858601
0.0858602
0.0858907
0.0858406
0.0858978
0.08609
0.0863085
0.0862468
0.0861415
0.0861415
0.0861939
0.0862014
0.0863211
0.0865144
0.0864929
0.0865777
0.0865658
0.0869885
0.0869885
0.0863469
0.0859498
0.0863035
0.0861902
0.0859556
0.0863237
0.0863611
0.086361
0.0861684
0.0862114
0.0861525
0.0861913
0.0862944
0.086199
0.086199
0.086193
0.0859651
0.0858215
0.0858219
0.0860014
0.0861262
0.086334
0.086013
0.0859561
0.0860569
0.0862496
0.0863899
0.0863542
0.0864735
0.0864961
0.0866625
0.0866322
0.0865615
0.0864771
0.0864771
0.0866685
0.08672
0.0866804
0.0864819
0.0864488
0.0867174
0.0866922
0.0866515
0.0864935
0.0866511
0.086585
0.0865113
0.0865186
0.0862094
0.08627
0.08627
0.0861941
0.0864121
0.0863638
0.0863765
0.0863621
0.0863137
0.0862168
0.0862374
0.0861721
0.0863018
0.0862973
0.0860992
0.0861332
0.0860327
0.0859485
0.0859394
0.0859903
0.0861178
0.0861908
0.0861047
0.0862217
0.0860823
0.0860822
0.0861456
0.0859917
0.0860635
0.0859509
0.0858479
0.0858214
0.0857295
0.0858513
0.0858954
0.0857941
0.08571
0.0857556
0.0858252
0.0858468
0.0858468
0.0858187
0.0857619
0.0859479
0.0858913
0.0860502
0.0859376
0.0857991
0.0858727
0.0857158
0.0857842
0.0857908
0.0857747
0.0857302
0.0855837
0.0857556
0.0855956
0.0856107
0.0856288
0.0857578
0.0856151
0.0859057
0.0858071
0.085807
0.085638
0.0857436
0.0857574
0.0857414
0.0857646
0.08569
0.0856901
0.0857003
0.0857975
0.0860086
0.0858998
0.0858829
0.0858885
0.0859087
0.0859955
0.0859676
0.0860179
0.086186
0.0862018
0.0862055
0.0862223
0.0862224
0.0862143
0.0863886
0.0863142
0.086427
0.0864747
0.0861851
0.0864969
0.0863494
0.0858783
0.0858199
0.0859998
0.0859657
0.0859265
0.086259
0.0862077
0.0862828
0.0861679
0.0862483
0.0861618
0.0861843
0.0861842
0.086223
0.0863441
0.0861472
0.0861472
0.0859672
0.0861224
0.0859931
0.0862839
0.0860613
0.0860362
0.0861152
0.0862661
0.0862499
0.0862672
0.08649
0.0863939
0.0866888
0.0868161
0.0869499
0.0865726
0.0866388
0.0864853
0.0866629
0.0866539
0.0866165
0.0866165
0.0867505
0.0868666
0.0867606
0.0865431
0.0866875
0.0868589
0.0869035
0.0868935
0.0866129
0.0866291
0.086527
0.086527
0.0863851
0.0863738
0.0865294
0.0865675
0.0865675
0.0863812
0.0863811
0.0863498
0.0861487
0.0862615
0.0862615
0.0862255
0.0862254
0.0861559
0.0862323
0.0860727
0.0861686
0.0862821
0.0864071
0.0861628
0.0861046
0.0861521
0.0861499
0.0860616
0.0860615
0.0859868
0.0858673
0.0858547
0.0858473
0.0857982
0.0858553
0.0857096
0.0858527
0.0857847
0.0858163
0.0859132
0.0859617
0.0860219
0.0859635
0.0859321
0.0861105
0.0860793
0.0859293
0.0859293
0.0858757
0.0857116
0.0856634
0.085757
0.0855405
0.0854819
0.0856227
0.0855213
0.0853449
0.0853777
0.0855255
0.08566
0.0857428
0.0857458
0.0858249
0.0857953
0.085504
0.0853693
0.0857271
0.0856223
0.0856118
0.0855578
0.0856591
0.085648
0.0858293
0.0858598
0.0858031
0.0858096
0.0858636
0.0859572
0.0860168
0.0859893
0.0859287
0.086115
0.0859735
0.0859567
0.0861056
0.0861944
0.0861944
0.0863426
0.0861641
0.0862173
0.0861712
0.086032
0.0859415
0.0859886
0.0859179
0.0858111
0.0857203
0.0857684
0.0859117
0.0859844
0.0860611
0.0862169
0.0862623
0.0860012
0.0860045
0.0859965
0.0861333
0.0861333
0.0861102
0.0861102
0.0860557
0.0860198
0.0859822
0.0859957
0.0859029
0.0859478
0.0860543
0.0859176
0.0860092
0.0862026
0.0862026
0.0862404
0.0862403
0.0863241
0.0862823
0.0865463
0.0863361
0.0863817
0.0865773
0.0863788
0.0867027
0.0867891
0.0866768
0.0867914
0.0870018
0.0867752
0.0869204
0.0866442
0.0867164
0.0867053
0.0867584
0.0866766
0.0867442
0.0866873
0.0867133
0.0865642
0.0864784
0.0865245
0.0863403