/*--------------------------------*- C++ -*----------------------------------*\
| =========                 |                                                 |
| \\      /  F ield         | OpenFOAM: The Open Source CFD Toolbox           |
|  \\    /   O peration     | Version:  2206                                  |
|   \\  /    A nd           | Website:  www.openfoam.com                      |
|    \\/     M anipulation  |                                                 |
\*---------------------------------------------------------------------------*/
FoamFile
{
    version     2.0;
    format      ascii;
    arch        "LSB;label=32;scalar=64";
    class       volVectorField;
    location    "0.9";
    object      wallShearStress;
}
// * * * * * * * * * * * * * * * * * * * * * * * * * * * * * * * * * * * * * //

dimensions      [0 2 -2 0 0 0 0];

internalField   uniform (0 0 0);

boundaryField
{
    wall
    {
        type            calculated;
        value           nonuniform List<vector> 
8060
(
(-3.01578e-07 -1.05822e-07 -0.000182275)
(-3.38629e-08 -4.27804e-10 -0.000181848)
(-1.3554e-07 -3.75673e-08 -0.000182156)
(-2.62939e-07 -8.74168e-08 -0.000181733)
(-3.5342e-07 -1.24392e-07 -0.000181698)
(-3.01135e-07 -1.02684e-07 -0.000181652)
(-1.55338e-08 1.0365e-08 -0.000181965)
(8.14896e-08 4.53222e-08 -0.000181812)
(8.66464e-08 5.23175e-08 -0.00018161)
(-1.62037e-07 -4.69142e-08 -0.000181541)
(-2.8321e-07 -9.62266e-08 -0.000181395)
(-8.03306e-08 -1.80372e-08 -0.00018144)
(-1.58939e-07 -5.42282e-08 -0.000181037)
(1.35194e-07 6.93972e-08 -0.000181152)
(9.04199e-08 4.19108e-08 -0.000180694)
(3.16134e-07 1.33077e-07 -0.000180736)
(2.8641e-07 1.27577e-07 -0.000181126)
(2.43048e-07 1.00754e-07 -0.000180473)
(9.46579e-08 4.95429e-08 -0.000180322)
(1.08847e-07 5.31115e-08 -0.000180512)
(8.82887e-08 4.53721e-08 -0.000180515)
(8.61108e-08 4.73405e-08 -0.000180547)
(8.47797e-08 4.71814e-08 -0.000180642)
(1.60256e-07 7.63965e-08 -0.000180674)
(-2.23621e-08 2.19001e-10 -0.000180149)
(5.36881e-08 3.57446e-08 -0.000180512)
(1.32247e-07 6.60868e-08 -0.000180525)
(7.04569e-08 4.51127e-08 -0.000180877)
(-2.46252e-08 2.921e-09 -0.000181146)
(-3.83556e-07 -1.34754e-07 -0.000181271)
(2.91834e-08 2.13763e-08 -0.000181442)
(-1.28029e-07 -3.14807e-08 -0.000181297)
(-1.59682e-07 -4.02986e-08 -0.000181047)
(-6.15279e-07 -2.19175e-07 -0.000180834)
(-4.42722e-07 -1.55164e-07 -0.000180834)
(-2.70372e-07 -9.04319e-08 -0.000180866)
(-1.67261e-07 -5.1468e-08 -0.000180842)
(3.27842e-08 3.47367e-08 -0.000181206)
(4.41534e-08 3.26439e-08 -0.000181252)
(8.31182e-09 1.89151e-08 -0.000181111)
(-1.97725e-08 3.32275e-09 -0.000181178)
(3.78909e-07 1.45929e-07 -0.000181321)
(7.45978e-08 4.19042e-08 -0.000180909)
(1.43825e-08 2.26859e-08 -0.000181642)
(-1.39432e-09 1.19151e-08 -0.000181511)
(2.89051e-07 1.3408e-07 -0.00018151)
(-2.66585e-07 -8.02587e-08 -0.000181971)
(-4.73726e-07 -1.72484e-07 -0.000181604)
(-2.634e-07 -9.62699e-08 -0.000181067)
(-1.91562e-07 -6.07769e-08 -0.000181408)
(2.70475e-09 1.31599e-08 -0.000181342)
(-6.02881e-08 -1.45473e-08 -0.000181215)
(1.57176e-07 8.01695e-08 -0.000181358)
(1.40189e-07 6.94672e-08 -0.000181676)
(-2.71636e-08 1.65145e-09 -0.000181416)
(-7.4302e-08 -1.47799e-08 -0.000181832)
(2.1531e-07 4.0546e-08 -0.000179943)
(1.10782e-07 1.03485e-08 -0.000179645)
(1.6105e-07 2.90216e-08 -0.000179998)
(2.8647e-07 6.57127e-08 -0.000179786)
(2.9734e-08 4.10608e-10 -0.000179837)
(2.17379e-08 -8.97102e-09 -0.0001806)
(2.80833e-07 5.72566e-08 -0.000180055)
(1.48425e-07 2.21154e-08 -0.00018011)
(-1.57736e-07 -5.94691e-08 -0.000180677)
(-6.62357e-08 -3.24857e-08 -0.000180381)
(1.45766e-07 3.13616e-08 -0.000180681)
(4.72536e-07 1.19055e-07 -0.000180039)
(4.39135e-07 1.16861e-07 -0.000180966)
(-6.01783e-08 -2.80055e-08 -0.000180412)
(-3.43747e-07 -9.7872e-08 -0.000180763)
(-1.15354e-07 -4.22748e-08 -0.000180299)
(-3.71661e-07 -1.11268e-07 -0.000180237)
(-1.89859e-07 -6.6972e-08 -0.000180339)
(-4.25332e-07 -1.22441e-07 -0.000180072)
(-4.94419e-08 -1.82358e-08 -0.000180161)
(-2.12746e-08 -1.6581e-08 -0.000179994)
(1.20549e-08 -1.03516e-08 -0.00017993)
(1.21624e-07 1.31616e-08 -0.00017974)
(-2.85957e-07 -9.29899e-08 -0.000179529)
(-2.51973e-07 -8.184e-08 -0.000179665)
(2.28809e-08 -7.57483e-09 -0.000179784)
(-6.60383e-08 -3.20475e-08 -0.000179833)
(2.47944e-07 5.78817e-08 -0.000179425)
(2.48172e-07 6.05193e-08 -0.000179307)
(2.07425e-08 -8.1901e-09 -0.000178878)
(2.27441e-07 5.69257e-08 -0.000179022)
(7.55303e-08 4.57631e-09 -0.000178866)
(-1.79198e-07 -6.1447e-08 -0.000178289)
(1.04364e-07 2.06638e-08 -0.000178661)
(-1.33367e-08 -1.67704e-08 -0.000178573)
(-4.54915e-08 -2.79316e-08 -0.000178902)
(1.15683e-07 2.11519e-08 -0.00017899)
(3.06789e-07 6.90397e-08 -0.000178919)
(2.35291e-08 -1.3534e-08 -0.000178874)
(-1.38884e-08 -1.84159e-08 -0.000178652)
(4.50996e-07 1.03632e-07 -0.0001789)
(2.15251e-07 4.38014e-08 -0.000178535)
(-4.43092e-10 -1.51702e-08 -0.000179236)
(-3.19558e-07 -9.09507e-08 -0.00017963)
(-1.73608e-07 -5.90743e-08 -0.000179801)
(-4.68501e-08 -2.7057e-08 -0.000179625)
(-1.39468e-07 -5.07329e-08 -0.00017946)
(-3.71375e-07 -1.0343e-07 -0.000179103)
(-1.4737e-07 -4.52368e-08 -0.000179302)
(9.07704e-08 1.8568e-08 -0.000179058)
(2.99331e-07 7.43002e-08 -0.000179005)
(3.44502e-07 8.68809e-08 -0.000179226)
(-1.98198e-07 -6.72357e-08 -0.000178759)
(-1.7888e-07 -6.30874e-08 -0.000179187)
(-6.63914e-07 -1.93442e-07 -0.000178963)
(-2.61217e-07 -8.7111e-08 -0.000180073)
(1.34816e-07 2.20551e-08 -0.000178868)
(-1.57081e-07 -5.26521e-08 -0.000179641)
(1.37929e-07 2.56192e-08 -0.000180449)
(3.18377e-07 7.01223e-08 -0.000179705)
(-3.98236e-07 -1.13811e-07 -0.000179889)
(-5.41843e-07 -1.64559e-07 -0.000180596)
(-3.13234e-07 -1.01566e-07 -0.000179796)
(-2.20807e-07 -7.59444e-08 -0.000179856)
(4.82013e-08 -5.14735e-09 -0.000179814)
(-9.6159e-08 -4.20547e-08 -0.00017952)
(3.21376e-07 7.01437e-08 -0.000179257)
(3.7767e-08 -6.23445e-09 -0.000179291)
(6.45545e-08 2.55846e-09 -0.00017957)
(1.06104e-07 2.21526e-08 -0.000179582)
(1.20343e-07 4.3853e-08 -0.000181599)
(-4.21928e-09 8.9694e-09 -0.000181529)
(-3.56892e-09 1.07423e-08 -0.000181585)
(3.34651e-07 1.02524e-07 -0.000181534)
(3.1369e-07 1.01343e-07 -0.000181872)
(1.427e-07 5.09879e-08 -0.00018237)
(-4.9736e-08 -5.76972e-09 -0.000181978)
(-3.76846e-09 1.05089e-08 -0.000181922)
(-1.04438e-07 -1.29835e-08 -0.000182489)
(-1.7652e-07 -2.85904e-08 -0.00018216)
(-3.67165e-07 -8.22796e-08 -0.000182428)
(-8.55315e-08 -3.50997e-09 -0.00018251)
(3.9945e-07 1.11541e-07 -0.000182213)
(3.53582e-07 1.1523e-07 -0.000182369)
(-1.32563e-07 -1.93672e-08 -0.000182722)
(-3.77774e-07 -8.93097e-08 -0.00018193)
(-1.15408e-07 -1.64095e-08 -0.00018208)
(4.54748e-08 2.71336e-08 -0.000182039)
(-1.35892e-08 1.3696e-08 -0.0001818)
(-2.98812e-07 -6.26914e-08 -0.000182022)
(-2.23502e-07 -4.76403e-08 -0.000181871)
(-1.94279e-08 5.14935e-09 -0.000181656)
(-1.55697e-07 -3.29351e-08 -0.000181193)
(-1.99235e-08 8.01352e-09 -0.000181309)
(-8.9339e-08 -1.15841e-08 -0.000181437)
(1.99858e-07 6.27235e-08 -0.000181406)
(1.88968e-07 5.8342e-08 -0.000181259)
(3.22725e-07 9.74057e-08 -0.000181213)
(2.5833e-07 8.16038e-08 -0.000181147)
(1.18749e-07 4.64593e-08 -0.000180816)
(-3.70001e-08 9.3228e-09 -0.000181)
(-1.40177e-07 -2.59252e-08 -0.000180281)
(-5.86231e-08 2.54641e-09 -0.000180282)
(-7.77998e-08 -9.81959e-09 -0.000180529)
(-1.05063e-07 -1.51864e-08 -0.00018063)
(1.45641e-07 5.17731e-08 -0.000180806)
(1.7085e-08 1.65483e-08 -0.00018088)
(9.80667e-08 3.93543e-08 -0.000180711)
(-1.6402e-08 6.85812e-09 -0.00018038)
(-6.87616e-08 -1.01899e-08 -0.000180535)
(-1.23674e-07 -2.83306e-08 -0.000180563)
(1.04284e-07 4.39849e-08 -0.000180904)
(1.39433e-07 5.06346e-08 -0.000181175)
(-1.48259e-07 -2.1695e-08 -0.000181616)
(-1.47116e-07 -2.60629e-08 -0.000181486)
(-2.21419e-07 -4.71332e-08 -0.000181506)
(-4.52242e-09 1.36508e-08 -0.000180865)
(-2.2863e-07 -3.61336e-08 -0.000180963)
(-3.28212e-07 -6.71784e-08 -0.000180926)
(-3.64865e-07 -7.86173e-08 -0.000180751)
(-2.50538e-07 -5.21735e-08 -0.000180807)
(-1.96014e-08 1.93197e-09 -0.000180757)
(-1.56112e-07 -2.9413e-08 -0.000180913)
(-2.00483e-07 -3.92061e-08 -0.000181047)
(-1.32065e-07 -1.48423e-08 -0.000181361)
(-1.08094e-07 -2.40115e-08 -0.00018138)
(-3.17628e-08 3.39252e-09 -0.000181154)
(2.09614e-07 7.38559e-08 -0.000181725)
(-1.77131e-08 3.69871e-09 -0.000181985)
(1.51497e-07 5.35967e-08 -0.000181432)
(6.41519e-08 3.74605e-08 -0.00018202)
(-3.30377e-07 -7.67491e-08 -0.000182032)
(-1.18213e-07 -2.22873e-08 -0.000181599)
(-2.81996e-07 -6.08509e-08 -0.000181675)
(-1.8618e-07 -4.07875e-08 -0.000181219)
(-1.30662e-07 -2.42841e-08 -0.000181171)
(-8.9584e-08 -1.52747e-08 -0.000181007)
(8.87124e-08 3.94212e-08 -0.00018099)
(5.95388e-08 2.43497e-08 -0.000181262)
(-1.3993e-07 -2.71568e-08 -0.000181308)
(1.51313e-07 1.64585e-08 -0.000179932)
(1.46196e-07 1.12461e-08 -0.000179594)
(-9.83313e-08 -3.01161e-08 -0.000179668)
(4.4563e-07 5.24273e-08 -0.000179775)
(3.86355e-07 4.78538e-08 -0.000179328)
(-7.2016e-09 -1.46213e-08 -0.00018001)
(2.15027e-07 1.78089e-08 -0.00018021)
(1.19791e-07 8.117e-09 -0.000180267)
(2.56248e-09 -5.14705e-09 -0.000180947)
(-8.6866e-08 -2.20721e-08 -0.000180658)
(1.02684e-07 2.14403e-08 -0.000181244)
(6.71722e-07 1.15962e-07 -0.00018069)
(5.42217e-08 -2.99421e-08 -0.000180385)
(4.52237e-07 4.92494e-08 -0.000180604)
(-1.35696e-07 -3.92226e-08 -0.000180325)
(-1.19518e-07 -3.74121e-08 -0.000180479)
(-1.3014e-07 -3.32782e-08 -0.000180447)
(-2.13605e-08 -1.75043e-08 -0.000180514)
(-1.89489e-07 -4.77308e-08 -0.000180078)
(-3.36252e-07 -5.80734e-08 -0.000180435)
(-1.72722e-07 -3.85046e-08 -0.000180383)
(-2.4721e-08 -2.10094e-08 -0.000180233)
(6.33669e-08 -6.46046e-09 -0.000179668)
(-8.95374e-08 -2.68685e-08 -0.000179283)
(-2.74759e-07 -5.65952e-08 -0.000179214)
(1.10983e-07 5.89956e-09 -0.000179609)
(-7.89871e-08 -2.47562e-08 -0.000179315)
(2.63144e-07 2.85725e-08 -0.000179411)
(4.16049e-07 5.30487e-08 -0.000179386)
(1.93235e-07 1.39174e-08 -0.000178819)
(-4.04082e-08 -1.76829e-08 -0.000179088)
(8.79824e-08 -3.34721e-09 -0.00017923)
(-3.97398e-08 -1.93939e-08 -0.000178541)
(-2.11212e-07 -4.56122e-08 -0.000178835)
(9.62733e-08 7.04435e-09 -0.000179034)
(8.30609e-08 4.28924e-10 -0.00017914)
(-1.20408e-07 -3.57095e-08 -0.000179163)
(1.28606e-07 5.50103e-09 -0.000179405)
(-8.20982e-08 -2.70341e-08 -0.00017912)
(-2.69384e-07 -5.85013e-08 -0.000178996)
(-6.76967e-08 -2.10969e-08 -0.000179343)
(4.69566e-07 6.42929e-08 -0.00017903)
(4.70689e-07 6.33095e-08 -0.000179239)
(-2.56068e-07 -4.80359e-08 -0.00017917)
(-2.2896e-07 -4.19931e-08 -0.000180033)
(-6.09302e-08 -1.23132e-08 -0.000180004)
(4.18132e-09 -1.2986e-08 -0.000179678)
(-2.35934e-07 -4.29372e-08 -0.000179134)
(-2.15171e-07 -3.68014e-08 -0.000179463)
(8.88291e-08 1.13263e-08 -0.000179329)
(1.90939e-07 3.24834e-08 -0.00017902)
(-2.58281e-07 -5.95832e-08 -0.000178613)
(1.95206e-09 -1.47877e-08 -0.000178728)
(-2.90804e-08 -2.09733e-08 -0.000178901)
(-8.08154e-08 -2.86096e-08 -0.000178874)
(-4.07511e-07 -7.94961e-08 -0.000179846)
(1.20812e-07 7.14441e-09 -0.000179147)
(1.84894e-07 1.91044e-08 -0.000179488)
(-8.63608e-08 -2.67567e-08 -0.000180131)
(3.09472e-07 3.06808e-08 -0.000179848)
(-1.84784e-07 -3.53984e-08 -0.000179579)
(-4.10852e-07 -7.03077e-08 -0.000180439)
(-3.21661e-07 -6.14343e-08 -0.000179839)
(-4.24408e-07 -8.01878e-08 -0.000179755)
(-1.46689e-07 -4.05708e-08 -0.000179849)
(-2.56385e-07 -5.56463e-08 -0.000179199)
(-8.47774e-08 -2.95567e-08 -0.000179051)
(2.18212e-07 1.9927e-08 -0.000179165)
(-6.68292e-08 -2.04475e-08 -0.000179153)
(2.13838e-08 -6.62577e-09 -0.000179097)
(5.94528e-07 1.07857e-07 -0.000181432)
(3.7413e-07 7.00478e-08 -0.000181479)
(-6.18305e-08 3.33146e-09 -0.000181586)
(-6.28892e-08 -1.75062e-09 -0.000181345)
(4.84639e-08 1.93666e-08 -0.000181336)
(1.21078e-07 3.633e-08 -0.000181875)
(-1.02603e-08 7.81197e-09 -0.000182149)
(7.21509e-08 2.27305e-08 -0.000182085)
(8.4232e-08 2.38928e-08 -0.000182505)
(1.77184e-07 3.80503e-08 -0.000182066)
(3.51443e-07 5.74448e-08 -0.000182575)
(7.08589e-07 1.28807e-07 -0.000183292)
(-3.62849e-07 -5.08546e-08 -0.000182069)
(-1.83078e-08 -6.48892e-11 -0.000181862)
(3.52389e-08 1.42668e-08 -0.00018229)
(-1.55842e-07 -1.56728e-08 -0.00018228)
(-7.9176e-08 8.27843e-10 -0.00018223)
(1.11815e-07 2.86273e-08 -0.000182113)
(7.97275e-08 2.58085e-08 -0.000181593)
(2.31324e-07 5.54893e-08 -0.000182407)
(-2.32439e-07 -2.26272e-08 -0.000182226)
(-1.04817e-07 -9.85231e-09 -0.000181606)
(-3.14446e-07 -4.06308e-08 -0.000181307)
(-8.75788e-08 4.46778e-11 -0.000181164)
(-1.94458e-07 -1.09896e-08 -0.000181352)
(-1.10269e-07 -5.20289e-09 -0.00018119)
(1.76978e-07 4.27076e-08 -0.000181074)
(2.77098e-07 5.28926e-08 -0.000181093)
(1.87239e-07 3.33416e-08 -0.000180976)
(3.10949e-08 1.46746e-08 -0.000180721)
(-2.27683e-08 1.06688e-08 -0.00018119)
(-2.89065e-07 -3.96872e-08 -0.000180543)
(1.02425e-08 1.75133e-08 -0.000180466)
(8.28199e-08 2.74393e-08 -0.000180789)
(-1.4529e-07 -1.06704e-08 -0.00018088)
(2.07848e-07 4.62624e-08 -0.000180901)
(1.26188e-07 2.96996e-08 -0.000181219)
(-1.81725e-08 4.74693e-09 -0.00018101)
(1.39346e-07 3.65176e-08 -0.00018077)
(1.90637e-07 4.21668e-08 -0.000180756)
(1.096e-07 2.80004e-08 -0.000180909)
(1.37775e-07 3.48969e-08 -0.000180958)
(2.65417e-07 5.0101e-08 -0.000181075)
(1.66306e-07 4.75071e-08 -0.000181678)
(8.67167e-08 3.25307e-08 -0.000181564)
(7.92913e-08 3.07652e-08 -0.000181758)
(1.72518e-07 3.81279e-08 -0.000181009)
(1.60352e-07 4.51138e-08 -0.000180955)
(8.79915e-08 2.808e-08 -0.000180787)
(2.6567e-08 9.29749e-09 -0.000180592)
(1.49701e-07 3.93549e-08 -0.000180997)
(-3.63997e-07 -4.29104e-08 -0.000180481)
(-5.36556e-07 -7.89135e-08 -0.000180542)
(-5.64134e-07 -7.93879e-08 -0.000180853)
(-2.33279e-07 -1.9155e-08 -0.00018107)
(-2.14542e-07 -2.12278e-08 -0.00018118)
(-2.74519e-07 -3.33425e-08 -0.000181224)
(-1.46214e-07 -1.26304e-08 -0.000181332)
(-2.0374e-07 -2.06157e-08 -0.000181915)
(-3.28487e-07 -4.14939e-08 -0.000181604)
(3.51592e-08 2.69119e-08 -0.000181878)
(-2.87335e-07 -2.49747e-08 -0.000182096)
(-2.79663e-07 -2.72749e-08 -0.00018157)
(-4.08536e-07 -4.8329e-08 -0.000181634)
(-4.65177e-07 -6.82398e-08 -0.000181148)
(-3.33841e-07 -4.0039e-08 -0.000180962)
(-2.92978e-07 -3.65746e-08 -0.00018107)
(-1.89921e-07 -1.96363e-08 -0.000180809)
(1.43421e-07 3.3186e-08 -0.000180997)
(-1.8015e-07 -1.79036e-08 -0.000180988)
(3.05204e-07 2.36607e-09 -0.000179557)
(2.7986e-07 -1.53391e-09 -0.000179294)
(-1.6142e-07 -2.01564e-08 -0.000179481)
(1.91299e-07 -6.14809e-09 -0.000180364)
(2.24978e-07 -3.23278e-09 -0.000179832)
(-1.49291e-08 -1.50178e-08 -0.000180129)
(7.28361e-08 -1.27457e-08 -0.000180489)
(1.16808e-07 -1.2414e-08 -0.000180405)
(-1.99546e-07 -2.14211e-08 -0.000180782)
(-3.71418e-07 -3.96529e-08 -0.000180334)
(-5.51632e-07 -4.19413e-08 -0.000180936)
(9.44864e-07 3.94451e-08 -0.000181516)
(1.33724e-07 -1.41165e-08 -0.000179691)
(5.51214e-08 -1.33089e-08 -0.000180316)
(4.74628e-08 -1.00573e-08 -0.00017991)
(7.71335e-09 -1.04358e-08 -0.000179969)
(2.15907e-07 -1.25744e-09 -0.000180138)
(1.01597e-07 -9.86267e-09 -0.000180009)
(1.51021e-07 -1.01671e-08 -0.00017972)
(-1.83749e-07 -1.97602e-08 -0.000180072)
(-2.84944e-07 -2.39919e-08 -0.00018033)
(-2.58766e-07 -2.41908e-08 -0.000180336)
(-1.55782e-07 -1.78075e-08 -0.000179868)
(2.48013e-08 -1.56423e-08 -0.000179519)
(-6.26475e-08 -1.27423e-08 -0.000179219)
(2.89751e-09 -8.22077e-09 -0.000179663)
(5.81398e-08 -8.64233e-09 -0.000179449)
(1.64353e-07 -6.70126e-09 -0.000179457)
(-2.0642e-08 -1.46034e-08 -0.000179278)
(2.05728e-07 -3.20812e-09 -0.000179053)
(4.73911e-08 -6.53838e-09 -0.000179194)
(-1.48748e-07 -1.96191e-08 -0.000179157)
(1.51286e-07 -6.96967e-09 -0.000178774)
(3.49659e-08 -1.30243e-08 -0.0001787)
(-7.0173e-08 -1.68546e-08 -0.00017884)
(2.13087e-07 -3.31439e-09 -0.000179177)
(-2.72937e-08 -1.38331e-08 -0.000178855)
(-8.95143e-08 -1.87745e-08 -0.000179201)
(1.36401e-07 -9.2347e-09 -0.000179193)
(4.91835e-08 -1.74733e-08 -0.000178849)
(-2.85907e-07 -3.09783e-08 -0.000179109)
(1.46787e-07 -3.9395e-09 -0.0001795)
(6.22722e-07 1.52984e-08 -0.000179537)
(5.62587e-07 1.91672e-08 -0.000179072)
(1.52332e-07 -1.49706e-09 -0.000179689)
(-1.47463e-07 -1.62078e-08 -0.000179693)
(1.89657e-07 -5.51909e-09 -0.000179791)
(2.3118e-08 -1.02159e-08 -0.000178953)
(-4.02114e-07 -3.17194e-08 -0.000179139)
(-5.4402e-07 -4.07481e-08 -0.000179354)
(1.32979e-07 -2.19212e-09 -0.000179783)
(-4.84069e-07 -3.76913e-08 -0.000178493)
(-5.19503e-07 -4.03858e-08 -0.000179158)
(-4.58249e-07 -3.45414e-08 -0.000179287)
(2.76595e-08 -1.81391e-08 -0.000179356)
(-3.20061e-07 -3.72787e-08 -0.000179638)
(-5.08701e-07 -3.94698e-08 -0.000179175)
(-9.70728e-08 -1.14625e-08 -0.000180031)
(-2.94673e-07 -2.47875e-08 -0.000180269)
(-1.22616e-09 -1.31099e-08 -0.000180304)
(1.10887e-07 -5.37837e-09 -0.000180004)
(-2.55146e-07 -2.05717e-08 -0.000180603)
(-1.66717e-07 -2.02025e-08 -0.000180317)
(-4.99753e-07 -3.34314e-08 -0.000179967)
(-6.21421e-07 -3.9448e-08 -0.000180144)
(-4.38206e-07 -2.83475e-08 -0.000179778)
(-5.14336e-07 -3.57924e-08 -0.000179416)
(-9.30322e-08 -2.42122e-08 -0.000179778)
(-2.43765e-07 -3.5204e-08 -0.00017943)
(-4.16428e-07 -3.38541e-08 -0.000179335)
(1.74163e-07 1.95836e-08 -0.000181127)
(1.72517e-07 1.72632e-08 -0.000181209)
(1.4325e-07 2.48511e-08 -0.00018162)
(1.43294e-07 1.66732e-08 -0.000181829)
(4.77788e-07 3.44391e-08 -0.000182011)
(2.14701e-07 3.01851e-08 -0.000181954)
(1.50182e-07 1.81122e-08 -0.000182371)
(-1.50561e-08 5.43646e-09 -0.000182237)
(1.50115e-07 2.08392e-08 -0.000182835)
(-2.7994e-07 7.18535e-09 -0.000182332)
(1.13654e-07 1.9724e-08 -0.000182466)
(6.7585e-07 2.56027e-08 -0.000182511)
(-1.75597e-07 8.38025e-09 -0.000181878)
(-3.44246e-07 -9.19909e-09 -0.000181701)
(-1.56002e-07 3.97537e-09 -0.000181644)
(-1.25711e-07 7.89438e-09 -0.000181754)
(-2.87323e-07 -5.00455e-09 -0.000181846)
(-1.49068e-07 -5.35338e-09 -0.000181752)
(-1.78941e-07 -1.32385e-09 -0.000181511)
(2.88726e-07 3.12855e-08 -0.00018201)
(5.08574e-08 2.26868e-08 -0.000182339)
(-5.20818e-08 1.02758e-08 -0.000181591)
(-2.11411e-07 -1.0071e-09 -0.000181602)
(-2.21911e-07 -5.05404e-09 -0.000181158)
(-8.96369e-08 1.7536e-08 -0.000181351)
(-1.36055e-07 9.48399e-09 -0.00018155)
(1.41875e-07 2.09784e-08 -0.000181195)
(2.85511e-08 1.43179e-08 -0.000181033)
(1.05402e-07 1.35912e-08 -0.000180934)
(3.71134e-08 8.24922e-09 -0.000180746)
(1.39297e-07 2.22805e-08 -0.00018097)
(-1.9599e-07 3.72015e-10 -0.000180648)
(-1.96144e-07 -1.14553e-09 -0.000180397)
(-5.06297e-09 1.1014e-08 -0.000180435)
(-1.75043e-07 2.26268e-09 -0.000180887)
(3.13718e-08 1.05881e-08 -0.000180703)
(1.84947e-07 2.30714e-08 -0.000180875)
(-1.26875e-07 2.76536e-09 -0.000181069)
(-2.40263e-07 -2.47594e-09 -0.000180772)
(-7.49589e-08 4.99695e-09 -0.000180617)
(2.36877e-07 2.38086e-08 -0.000180964)
(5.95053e-07 4.33145e-08 -0.000181231)
(2.84289e-07 1.31831e-08 -0.000180878)
(3.46678e-07 3.01559e-08 -0.000181374)
(3.84403e-07 3.95482e-08 -0.000181582)
(1.08972e-07 2.32325e-08 -0.00018176)
(5.01205e-10 8.69456e-09 -0.000181123)
(1.29405e-07 2.32936e-08 -0.000181139)
(1.43366e-07 2.71223e-08 -0.00018116)
(1.50465e-07 1.9851e-08 -0.000181135)
(1.81829e-07 7.3286e-09 -0.000181144)
(-1.82299e-07 7.93781e-09 -0.000180831)
(-4.39998e-07 -1.20577e-08 -0.000181015)
(-6.42762e-07 -1.98174e-08 -0.000181484)
(-5.6111e-07 -2.30084e-08 -0.000181393)
(-4.2e-07 -8.91702e-09 -0.000181227)
(-6.46874e-09 2.0924e-08 -0.000181847)
(2.04111e-08 1.39907e-08 -0.000181909)
(-9.41343e-08 1.36248e-08 -0.000182143)
(-4.28815e-07 -7.19042e-09 -0.000182403)
(-1.39976e-07 1.09412e-08 -0.000182263)
(3.97821e-08 1.20065e-08 -0.000182403)
(-1.38764e-07 7.19319e-09 -0.000182018)
(-1.77375e-07 1.35923e-08 -0.000181994)
(-1.62773e-07 8.97141e-09 -0.000181873)
(-7.81884e-08 1.36806e-08 -0.000181493)
(4.29807e-08 1.83506e-08 -0.000181619)
(-2.6892e-07 -5.43007e-09 -0.000181602)
(6.84221e-08 1.01172e-08 -0.000181331)
(1.71579e-07 2.41691e-08 -0.000181505)
(9.55666e-08 -2.18517e-08 -0.000179868)
(3.44195e-08 -1.54702e-08 -0.000179447)
(2.83066e-08 -9.42972e-09 -0.00017964)
(8.62125e-08 -1.55426e-08 -0.000180396)
(3.35951e-07 -3.31338e-08 -0.000179922)
(2.93742e-07 -3.18604e-08 -0.000179952)
(9.05136e-08 -1.97998e-08 -0.000180227)
(9.67341e-08 -1.67276e-08 -0.000180283)
(1.66956e-07 -1.4008e-08 -0.000180908)
(-2.16168e-08 -6.06846e-09 -0.000180417)
(-5.29369e-07 1.61671e-08 -0.00018085)
(-2.36608e-07 -9.71191e-09 -0.000181532)
(2.52068e-08 -1.04667e-08 -0.000179899)
(-2.80712e-07 8.84183e-09 -0.000180417)
(-1.85026e-07 3.52491e-09 -0.000180209)
(-2.6567e-07 -3.66513e-09 -0.000179996)
(-1.20513e-07 -9.04141e-09 -0.000180342)
(-1.63522e-07 -4.85321e-09 -0.00018012)
(1.22528e-07 -1.82314e-08 -0.000180056)
(2.20818e-07 -2.59134e-08 -0.000180211)
(-8.98409e-08 -9.67672e-09 -0.000180064)
(-9.257e-08 -9.19221e-09 -0.000180322)
(-2.83412e-07 5.46114e-09 -0.000179905)
(-2.28196e-07 -3.08945e-09 -0.000179832)
(9.76154e-08 -1.79019e-08 -0.000179699)
(4.28172e-08 -1.35083e-08 -0.000179805)
(1.81069e-07 -2.11879e-08 -0.000179644)
(8.33704e-08 -1.35356e-08 -0.000179345)
(-1.98174e-07 -4.03971e-09 -0.000178947)
(-4.04295e-08 -1.10815e-08 -0.000178966)
(-5.81755e-08 -1.17168e-08 -0.000179044)
(-2.8188e-07 4.76479e-09 -0.00017883)
(-2.22451e-07 2.47414e-09 -0.000178804)
(3.82396e-08 -1.51229e-08 -0.000178786)
(-2.49088e-07 -5.52521e-10 -0.00017858)
(5.55665e-09 -2.37284e-08 -0.000179287)
(1.16382e-07 -2.39054e-08 -0.000178777)
(-6.63935e-08 -6.70255e-09 -0.000178975)
(-1.45153e-08 -1.17151e-08 -0.000179308)
(7.76442e-08 -1.57056e-08 -0.000179009)
(1.84958e-07 -2.32749e-08 -0.000179185)
(1.67849e-07 -2.66428e-08 -0.000179403)
(-9.55664e-08 -1.47007e-08 -0.000179112)
(5.93598e-07 -4.25441e-08 -0.000179396)
(9.05705e-07 -6.28109e-08 -0.000179732)
(3.01285e-07 -2.70721e-08 -0.000179165)
(3.07878e-07 -2.77313e-08 -0.000179709)
(4.1392e-07 -3.03908e-08 -0.000179099)
(3.17084e-07 -2.65866e-08 -0.000179184)
(-1.75276e-07 -3.85624e-09 -0.000179286)
(-5.53766e-07 1.0088e-08 -0.000179715)
(-2.294e-07 -1.91861e-09 -0.000179073)
(-6.40224e-07 2.02607e-08 -0.000179329)
(-6.39292e-07 2.10689e-08 -0.000179892)
(-4.27773e-07 1.14277e-08 -0.00018017)
(-9.91249e-09 -1.28811e-08 -0.000180405)
(1.42032e-07 -2.36522e-08 -0.000179756)
(1.82523e-07 -2.49144e-08 -0.000180377)
(2.52012e-07 -1.64096e-08 -0.000180714)
(9.18702e-08 1.7474e-09 -0.000180698)
(5.18477e-07 -1.85915e-08 -0.000180866)
(-2.17879e-07 -4.35549e-09 -0.000180429)
(-8.11196e-08 -1.94816e-09 -0.00018078)
(-1.16981e-07 6.89571e-09 -0.000180217)
(-9.32526e-08 -1.39523e-09 -0.000180336)
(-7.20023e-08 -8.56071e-09 -0.00017985)
(-9.94744e-08 -7.18005e-09 -0.000179425)
(-1.71902e-07 -2.17472e-09 -0.000179716)
(7.9245e-08 -2.24106e-08 -0.000179533)
(1.29689e-08 -9.24421e-09 -0.000179262)
(-5.34245e-07 5.54279e-09 -0.000181041)
(4.84435e-08 8.82909e-09 -0.000181395)
(5.1773e-08 1.02869e-08 -0.000181573)
(1.62354e-07 9.89155e-09 -0.000181743)
(-3.82564e-08 1.77336e-08 -0.000181938)
(3.11998e-07 -7.36644e-09 -0.000181823)
(7.41918e-08 1.20235e-08 -0.000181727)
(1.20395e-07 8.99495e-09 -0.000182117)
(-5.11048e-08 2.21082e-08 -0.000182243)
(3.57344e-07 -2.5912e-09 -0.000182551)
(9.50029e-08 1.9592e-08 -0.000182939)
(-8.04129e-08 2.9401e-08 -0.000182787)
(3.31179e-08 -8.80483e-10 -0.000182288)
(2.71805e-07 1.67464e-09 -0.000182018)
(2.16426e-07 3.13506e-09 -0.000182177)
(9.3588e-08 6.65957e-09 -0.000182055)
(-9.29598e-08 1.93078e-08 -0.000181805)
(-1.0925e-07 2.0084e-08 -0.000182181)
(-3.33905e-08 1.24722e-08 -0.00018196)
(-9.71253e-08 1.48276e-08 -0.000182137)
(7.77624e-08 5.18273e-09 -0.000181996)
(6.22962e-08 1.32412e-08 -0.00018224)
(-1.29786e-07 2.2012e-08 -0.000181575)
(-6.25445e-08 1.7963e-08 -0.000181716)
(1.00423e-07 5.07505e-10 -0.000181484)
(1.57826e-07 7.61272e-09 -0.00018147)
(-5.7385e-08 1.87192e-08 -0.000181769)
(5.98267e-08 6.7174e-09 -0.000181193)
(-1.70517e-07 2.29156e-08 -0.000180998)
(-2.36891e-07 2.74177e-08 -0.000180773)
(-1.75404e-07 1.87141e-08 -0.000180873)
(2.203e-08 1.08295e-08 -0.000180821)
(-2.20209e-07 2.38632e-08 -0.000180614)
(-1.72081e-07 2.13061e-08 -0.000180648)
(-2.6865e-07 2.31971e-08 -0.000180398)
(-2.79836e-07 2.99209e-08 -0.000181013)
(-3.10899e-07 2.03456e-08 -0.000180838)
(-5.30235e-08 1.26859e-08 -0.00018053)
(-6.1003e-08 1.74678e-08 -0.000180795)
(-5.3495e-08 1.45228e-08 -0.000180895)
(5.77109e-08 9.15295e-09 -0.000180902)
(1.19254e-07 6.03206e-09 -0.000180992)
(5.83699e-07 -2.02407e-08 -0.000180976)
(2.81798e-07 -7.02964e-09 -0.000180741)
(4.64564e-07 -2.16752e-08 -0.000181164)
(5.75832e-07 -2.47775e-08 -0.00018098)
(4.07151e-07 -4.79976e-09 -0.000181153)
(1.24577e-07 1.54933e-09 -0.0001809)
(2.74468e-07 -3.97201e-09 -0.000181053)
(1.40895e-07 6.19553e-09 -0.000181208)
(3.10729e-08 1.55224e-08 -0.000181208)
(-6.30637e-08 6.75324e-09 -0.000181334)
(-2.00909e-07 1.9511e-08 -0.000181115)
(-2.31283e-07 2.6062e-08 -0.000181334)
(-2.62004e-07 3.2889e-08 -0.000181945)
(4.57623e-08 1.26524e-08 -0.000182113)
(-1.46786e-07 1.69544e-08 -0.000181799)
(2.78232e-07 -2.13888e-11 -0.000181931)
(4.06907e-07 -1.26895e-08 -0.000181875)
(5.59712e-07 -1.53247e-08 -0.000181702)
(6.74871e-07 -1.82473e-08 -0.000182449)
(9.86814e-07 -2.97137e-08 -0.000182927)
(3.39578e-07 3.6911e-09 -0.00018223)
(3.81053e-07 -5.29545e-09 -0.000182089)
(2.74164e-07 8.1359e-09 -0.000182006)
(-3.691e-08 1.91418e-08 -0.000181762)
(-1.72982e-07 2.29445e-08 -0.000181369)
(1.94118e-08 1.28145e-08 -0.000181103)
(-1.14051e-07 1.79404e-08 -0.000181599)
(-2.29813e-07 1.85307e-08 -0.000181245)
(1.34664e-07 3.9955e-09 -0.000181275)
(1.99143e-08 1.84468e-08 -0.000183027)
(1.52923e-07 -3.92234e-08 -0.000179754)
(1.37448e-07 -3.68359e-08 -0.000179442)
(3.30657e-07 -6.18374e-08 -0.000179768)
(-6.14138e-08 -3.73882e-09 -0.000180001)
(3.32998e-07 -7.09467e-08 -0.000179914)
(3.87874e-07 -7.46278e-08 -0.000179709)
(4.6389e-07 -8.39034e-08 -0.000180111)
(3.36908e-07 -6.18569e-08 -0.000180134)
(5.24644e-07 -8.71695e-08 -0.000181015)
(4.28339e-07 -6.97629e-08 -0.000180289)
(2.31547e-07 -4.32317e-08 -0.000180856)
(-4.87479e-07 5.92841e-08 -0.000181076)
(1.27538e-07 -2.85777e-08 -0.000180184)
(-1.6687e-08 -9.59133e-09 -0.000180023)
(1.62273e-08 -9.86341e-09 -0.000180081)
(-8.83957e-08 2.71373e-09 -0.000179946)
(-1.57205e-07 1.70896e-08 -0.000180441)
(4.92324e-08 -2.00915e-08 -0.000180368)
(1.56841e-07 -3.5561e-08 -0.00018023)
(4.39227e-07 -8.1746e-08 -0.000180397)
(2.10698e-07 -4.90079e-08 -0.000179937)
(2.60394e-07 -5.50565e-08 -0.000180385)
(-2.60033e-08 7.92346e-10 -0.000179761)
(-2.70949e-07 3.13157e-08 -0.000179535)
(-5.73763e-08 -1.62957e-09 -0.000179819)
(-8.04124e-08 2.22467e-09 -0.000179821)
(2.71495e-07 -6.09477e-08 -0.000180019)
(-1.86121e-07 1.40566e-08 -0.000179106)
(-1.43403e-07 5.24713e-09 -0.000179193)
(-1.79831e-08 -4.86973e-09 -0.000179159)
(-5.82403e-08 -2.86797e-09 -0.000179062)
(-1.57599e-07 9.69662e-09 -0.000178921)
(-3.28e-07 4.09372e-08 -0.000178933)
(-3.18484e-07 3.70132e-08 -0.000179135)
(-2.67795e-07 3.47723e-08 -0.000179014)
(-3.87773e-07 4.92597e-08 -0.000179563)
(-1.07334e-07 3.85785e-10 -0.000179202)
(-6.43397e-08 1.96504e-09 -0.000179146)
(-4.61774e-08 -2.13861e-09 -0.000179337)
(-1.26221e-09 -1.2411e-08 -0.000179062)
(2.19095e-07 -4.47429e-08 -0.000179103)
(5.35359e-07 -9.72312e-08 -0.000179226)
(-9.17336e-08 3.67522e-09 -0.000178236)
(1.1543e-07 -2.41675e-08 -0.000179017)
(5.86336e-07 -1.06244e-07 -0.00017928)
(5.77884e-07 -1.07611e-07 -0.000178485)
(2.70468e-07 -5.5126e-08 -0.000178986)
(2.56902e-07 -5.50989e-08 -0.000178825)
(4.36957e-07 -8.60764e-08 -0.000179187)
(3.67468e-07 -7.88735e-08 -0.0001793)
(-4.32081e-07 4.77145e-08 -0.000179359)
(-1.48548e-07 7.50796e-09 -0.000179481)
(-2.49951e-07 2.81743e-08 -0.000179589)
(-2.45809e-07 3.54009e-08 -0.000180028)
(-2.47918e-07 2.95032e-08 -0.000180169)
(1.83581e-10 -1.15175e-08 -0.000180512)
(5.34325e-07 -9.46291e-08 -0.000179831)
(4.11555e-07 -8.45707e-08 -0.000179731)
(4.53802e-07 -8.82603e-08 -0.000180093)
(2.38306e-07 -4.2871e-08 -0.000179829)
(1.25874e-06 -1.98404e-07 -0.000180958)
(7.19436e-07 -1.26506e-07 -0.000179311)
(1.46928e-07 -4.10138e-08 -0.000179747)
(1.26961e-07 -3.22081e-08 -0.000179796)
(2.68469e-08 -1.71751e-08 -0.000180008)
(-1.48319e-07 1.10286e-08 -0.000179532)
(1.12555e-07 -3.21668e-08 -0.000179332)
(-2.72822e-07 2.87192e-08 -0.000179242)
(2.01531e-08 -2.63051e-08 -0.000179582)
(3.90177e-07 -7.53216e-08 -0.000179404)
(-1.9168e-07 8.14105e-09 -0.00018061)
(1.48946e-07 -1.12246e-08 -0.00018106)
(1.22259e-07 -7.84146e-09 -0.000181301)
(4.35771e-07 -5.62165e-08 -0.000181368)
(1.64555e-07 -1.42144e-08 -0.000181645)
(1.23493e-07 -1.1538e-08 -0.000181265)
(2.40904e-07 -2.07828e-08 -0.000181497)
(2.11986e-07 -1.81363e-08 -0.000181735)
(2.41867e-07 -1.68538e-08 -0.000182337)
(6.77653e-07 -9.83951e-08 -0.000182044)
(6.96337e-07 -8.77164e-08 -0.000182558)
(3.5385e-07 -3.57639e-08 -0.000182699)
(-2.30186e-07 4.98417e-08 -0.000182269)
(9.67953e-08 2.4899e-09 -0.000181939)
(1.88776e-09 1.4673e-08 -0.000181723)
(4.52326e-08 8.29865e-09 -0.000181843)
(-4.47626e-08 2.68365e-08 -0.000181769)
(1.76298e-07 -9.08501e-09 -0.000182217)
(2.04109e-07 -1.90236e-08 -0.000181769)
(2.04629e-07 -1.60401e-08 -0.000181982)
(1.28235e-07 -1.28572e-08 -0.000181838)
(2.84675e-07 -3.55388e-08 -0.000181896)
(1.3804e-07 -1.20826e-08 -0.000181514)
(1.20742e-07 -2.30064e-09 -0.000181663)
(7.10709e-08 8.68689e-10 -0.00018139)
(3.42806e-07 -3.94701e-08 -0.000181468)
(2.40141e-08 1.22281e-08 -0.000181741)
(8.36711e-09 3.3285e-09 -0.000181156)
(-2.21405e-07 4.79418e-08 -0.000181118)
(-2.90621e-07 5.91042e-08 -0.000180939)
(-3.21756e-07 6.19766e-08 -0.000181035)
(-4.94498e-08 2.17461e-08 -0.000180858)
(-2.32668e-07 4.96358e-08 -0.000180695)
(-7.25756e-08 2.42805e-08 -0.000180812)
(-8.90961e-08 2.59217e-08 -0.000180853)
(-1.24772e-07 3.89225e-08 -0.000181318)
(-1.67517e-07 3.88833e-08 -0.000181366)
(-1.80858e-07 4.06911e-08 -0.000180894)
(1.83856e-08 1.24303e-08 -0.000180873)
(2.14194e-07 -1.78484e-08 -0.000180961)
(4.2547e-07 -4.99e-08 -0.000180947)
(1.1104e-07 -2.98689e-09 -0.000180934)