/*--------------------------------*- C++ -*----------------------------------*\
| =========                 |                                                 |
| \\      /  F ield         | OpenFOAM: The Open Source CFD Toolbox           |
|  \\    /   O peration     | Version:  2206                                  |
|   \\  /    A nd           | Website:  www.openfoam.com                      |
|    \\/     M anipulation  |                                                 |
\*---------------------------------------------------------------------------*/
FoamFile
{
    version     2.0;
    format      ascii;
    arch        "LSB;label=32;scalar=64";
    class       volScalarField;
    location    "30";
    object      k;
}
// * * * * * * * * * * * * * * * * * * * * * * * * * * * * * * * * * * * * * //

dimensions      [0 2 -2 0 0 0 0];

internalField   nonuniform List<scalar> 
66701
(
5.4936e-06
4.90835e-06
8.21414e-06
1.04425e-05
5.96453e-06
1.5506e-05
1.46606e-05
6.41126e-06
5.00042e-06
8.41107e-06
1.06297e-05
6.03348e-06
1.55375e-05
6.45627e-06
1.4751e-05
5.60965e-06
1.67807e-06
4.16511e-07
9.11655e-08
8.59062e-08
5.92306e-07
1.63054e-06
4.0499e-07
8.92638e-08
8.6159e-08
5.95507e-07
1.62253e-06
3.92154e-07
8.36156e-08
7.58903e-08
5.19127e-07
1.66405e-06
4.02328e-07
8.54088e-08
7.60843e-08
5.19316e-07
1.71484e-06
4.25532e-07
9.27912e-08
8.61127e-08
5.92605e-07
1.66302e-06
4.13047e-07
9.06915e-08
8.6308e-08
5.95633e-07
1.44979e-06
3.56001e-07
7.88622e-08
7.979e-08
5.53245e-07
1.47236e-06
3.63034e-07
8.06916e-08
8.17422e-08
5.67755e-07
1.46658e-06
3.59605e-07
7.94342e-08
7.98521e-08
5.53349e-07
1.47961e-06
3.64217e-07
8.08335e-08
8.17492e-08
5.67732e-07
5.60452e-06
5.49054e-06
2.65587e-05
1.07191e-05
1.04886e-05
8.37962e-06
2.70672e-05
1.67071e-05
1.55689e-05
8.20241e-06
2.16662e-05
2.70397e-05
1.66263e-05
2.67663e-05
1.55881e-05
8.40527e-06
2.17562e-05
2.72058e-05
2.68777e-05
1.68403e-05
5.59463e-06
2.65774e-05
1.06529e-05
5.49053e-06
7.6813e-06
4.79577e-06
4.73966e-06
7.69466e-06
4.81468e-06
4.76067e-06
1.50169e-05
8.05157e-06
1.91788e-05
1.07496e-05
1.50248e-05
8.05973e-06
1.91989e-05
1.47584e-05
7.88066e-06
1.88909e-05
1.04756e-05
1.47777e-05
7.85839e-06
1.88842e-05
5.98527e-06
1.46308e-05
6.40483e-06
1.55223e-05
6.00367e-06
1.46269e-05
6.40917e-06
4.91742e-06
1.04163e-05
8.20833e-06
4.92295e-06
1.04125e-05
6.08613e-06
6.49942e-06
1.48239e-05
1.55471e-05
6.09528e-06
6.47865e-06
1.47651e-05
5.01141e-06
1.06082e-05
8.40919e-06
5.01191e-06
1.06025e-05
5.60286e-06
8.06462e-06
4.93507e-06
4.96026e-06
1.52105e-05
1.93111e-05
1.0645e-05
1.92889e-05
8.0786e-06
1.53793e-05
1.05939e-05
8.18054e-06
1.91821e-05
5.517e-06
2.36035e-05
2.24618e-05
2.23231e-05
2.02981e-05
2.37201e-05
2.24305e-05
2.23296e-05
2.04332e-05
2.22925e-05
2.03773e-05
2.24908e-05
2.0536e-05
1.97928e-05
2.64444e-05
2.39204e-05
2.38497e-05
1.9788e-05
2.39738e-05
2.38535e-05
2.47858e-05
1.91919e-05
2.26965e-05
1.68952e-05
2.27858e-05
2.47684e-05
1.95551e-05
2.54734e-05
2.09605e-05
2.59573e-05
2.17392e-05
2.54973e-05
2.09029e-05
2.59661e-05
2.43514e-05
1.91883e-05
2.23927e-05
1.65978e-05
2.23953e-05
2.44225e-05
1.91958e-05
2.56753e-05
2.60682e-05
2.11042e-05
2.17081e-05
2.56691e-05
2.60418e-05
2.10386e-05
2.45429e-05
1.94293e-05
2.26775e-05
1.68484e-05
2.45749e-05
1.94013e-05
2.26505e-05
2.02643e-05
2.66137e-05
2.43243e-05
2.4217e-05
2.41228e-05
1.71159e-06
4.25248e-07
9.2765e-08
8.60984e-08
5.92532e-07
1.68267e-06
4.17377e-07
9.12758e-08
8.58921e-08
5.92141e-07
1.65076e-06
3.99179e-07
8.48471e-08
7.60101e-08
5.19177e-07
1.62197e-06
3.92023e-07
8.35794e-08
7.58651e-08
5.18967e-07
1.665e-06
4.0255e-07
8.54342e-08
7.60756e-08
5.19241e-07
1.71269e-06
4.25072e-07
9.26867e-08
8.60878e-08
5.92528e-07
1.67816e-06
4.16844e-07
9.12778e-08
8.61619e-08
5.94235e-07
1.45419e-06
3.56995e-07
7.90918e-08
8.0033e-08
5.54973e-07
1.47251e-06
3.63216e-07
8.07482e-08
8.17292e-08
5.67593e-07
1.45557e-06
3.56683e-07
7.89806e-08
7.97828e-08
5.53089e-07
1.47352e-06
3.63506e-07
8.08365e-08
8.19644e-08
5.69377e-07
1.62331e-06
3.92512e-07
8.37312e-08
7.61663e-08
5.21222e-07
1.47817e-06
3.61961e-07
7.98566e-08
8.01108e-08
5.55066e-07
1.49217e-06
3.67026e-07
8.12915e-08
8.17765e-08
5.67616e-07
1.47792e-06
3.61776e-07
7.97797e-08
7.9873e-08
5.53258e-07
1.48692e-06
3.66152e-07
8.12054e-08
8.19958e-08
5.69397e-07
1.66565e-06
4.02862e-07
8.55559e-08
7.63651e-08
5.21414e-07
1.71523e-06
4.2581e-07
9.28842e-08
8.63684e-08
5.94572e-07
1.65598e-06
4.00201e-07
8.52159e-08
7.70435e-08
5.26937e-07
1.67539e-06
4.15511e-07
9.09222e-08
8.60196e-08
5.93404e-07
1.5453e-06
3.84418e-07
8.56342e-08
8.57858e-08
5.95028e-07
1.63838e-06
3.96775e-07
8.47088e-08
7.68158e-08
5.25512e-07
1.6405e-06
3.97208e-07
8.48606e-08
7.71258e-08
5.27797e-07
1.52671e-06
3.79507e-07
8.47081e-08
8.56212e-08
5.94573e-07
1.61148e-06
3.89534e-07
8.33192e-08
7.6634e-08
5.25242e-07
1.60522e-06
3.88335e-07
8.31773e-08
7.68865e-08
5.27331e-07
1.55043e-06
3.85204e-07
8.58269e-08
8.60807e-08
5.97231e-07
1.52857e-06
3.79788e-07
8.47813e-08
8.59168e-08
5.96837e-07
1.63345e-06
4.05747e-07
8.94572e-08
8.64775e-08
5.9787e-07
1.63215e-06
4.05055e-07
8.92568e-08
8.61365e-08
5.95339e-07
1.66613e-06
4.13946e-07
9.09213e-08
8.66349e-08
5.98034e-07
1.66324e-06
4.13156e-07
9.07146e-08
8.62999e-08
5.95549e-07
1.65065e-06
3.99493e-07
8.51835e-08
7.71347e-08
5.2764e-07
1.59042e-06
3.94917e-07
8.74689e-08
8.62223e-08
5.9709e-07
1.59571e-06
3.96234e-07
8.76867e-08
8.62505e-08
5.97104e-07
2.71626e-05
2.63795e-05
2.40516e-05
2.70712e-05
2.71383e-05
2.65017e-05
2.38757e-05
2.71475e-05
2.71007e-05
2.65308e-05
2.37267e-05
2.72424e-05
2.72486e-05
2.65245e-05
2.37241e-05
2.71537e-05
2.72392e-05
2.64061e-05
2.36694e-05
2.71221e-05
2.73251e-05
2.64036e-05
2.37675e-05
2.71322e-05
2.71742e-05
2.64351e-05
2.36642e-05
2.72145e-05
2.71079e-05
2.65774e-05
2.36378e-05
2.71312e-05
2.71019e-05
2.64777e-05
2.36755e-05
2.72039e-05
2.71197e-05
2.65033e-05
2.36835e-05
2.72003e-05
2.70548e-05
2.65117e-05
2.36251e-05
2.7119e-05
2.70953e-05
2.64976e-05
2.36223e-05
2.71504e-05
2.71534e-05
2.6564e-05
2.37896e-05
2.71865e-05
2.71753e-05
2.64572e-05
2.36767e-05
2.70919e-05
2.71456e-05
2.65636e-05
2.3639e-05
2.7051e-05
2.70752e-05
2.64617e-05
2.37369e-05
2.71421e-05
2.71208e-05
2.67531e-05
2.67528e-05
2.66663e-05
2.71521e-05
2.72411e-05
2.71219e-05
2.64914e-05
2.66087e-05
2.67197e-05
2.72399e-05
2.70767e-05
2.72405e-05
2.71769e-05
2.64388e-05
2.64976e-05
2.70668e-05
2.71395e-05
2.7178e-05
2.71455e-05
2.71794e-05
2.70646e-05
2.71624e-05
2.66356e-05
2.65894e-05
2.71345e-05
2.71203e-05
2.71953e-05
2.64581e-05
2.66042e-05
2.66111e-05
2.722e-05
2.72196e-05
2.74047e-05
2.70974e-05
2.64927e-05
2.66567e-05
2.7256e-05
2.71395e-05
2.71801e-05
2.72096e-05
2.72738e-05
2.71977e-05
2.72388e-05
2.66074e-05
2.66387e-05
2.71569e-05
2.72595e-05
2.71751e-05
2.652e-05
2.65959e-05
2.65674e-05
2.73257e-05
2.711e-05
2.72582e-05
2.71636e-05
2.66046e-05
2.66049e-05
2.71572e-05
2.7199e-05
2.7248e-05
2.72138e-05
2.71267e-05
2.71544e-05
2.71186e-05
2.67082e-05
2.66007e-05
2.71995e-05
2.73395e-05
2.71092e-05
2.64042e-05
2.65504e-05
2.65181e-05
2.73387e-05
2.73067e-05
2.71886e-05
2.72115e-05
2.66936e-05
2.66541e-05
2.72654e-05
2.71989e-05
2.7191e-05
2.7213e-05
2.72247e-05
2.71275e-05
2.71686e-05
2.6593e-05
2.66389e-05
2.71518e-05
2.74122e-05
2.71709e-05
2.64253e-05
2.65049e-05
2.65485e-05
2.71803e-05
2.72811e-05
2.71828e-05
2.71877e-05
2.66206e-05
2.65831e-05
2.71975e-05
2.73077e-05
2.7061e-05
2.71813e-05
2.71336e-05
2.7105e-05
2.71691e-05
2.66769e-05
2.64877e-05
2.70615e-05
2.72041e-05
2.70687e-05
2.65548e-05
2.64615e-05
2.65709e-05
2.71787e-05
2.71779e-05
2.7169e-05
2.72812e-05
2.6577e-05
2.65857e-05
2.70636e-05
2.72246e-05
2.71929e-05
2.71543e-05
2.71913e-05
2.71238e-05
2.71757e-05
2.64717e-05
2.65368e-05
2.70994e-05
2.71327e-05
2.70913e-05
2.65211e-05
2.65735e-05
2.66792e-05
2.72058e-05
2.71742e-05
2.72525e-05
2.71733e-05
2.65818e-05
2.66391e-05
2.70807e-05
2.72332e-05
2.71179e-05
2.716e-05
2.70739e-05
2.71404e-05
2.71739e-05
2.65488e-05
2.65203e-05
2.71371e-05
2.72169e-05
2.70955e-05
2.65775e-05
2.65581e-05
2.64936e-05
2.72803e-05
2.72797e-05
2.72938e-05
2.71869e-05
2.65224e-05
2.66582e-05
2.71468e-05
2.71505e-05
2.70355e-05
2.72627e-05
2.72068e-05
2.71714e-05
2.71479e-05
2.65058e-05
2.66593e-05
2.71848e-05
2.7068e-05
2.71152e-05
2.65447e-05
2.64713e-05
2.6441e-05
2.72859e-05
2.71726e-05
2.71763e-05
2.72209e-05
2.66532e-05
2.648e-05
2.70746e-05
2.71806e-05
2.7043e-05
2.72758e-05
2.72125e-05
2.70853e-05
2.72019e-05
2.65721e-05
2.65454e-05
2.71346e-05
2.71448e-05
2.72068e-05
2.65447e-05
2.64219e-05
2.66898e-05
2.71655e-05
2.7212e-05
2.71466e-05
2.72223e-05
2.64712e-05
2.65636e-05
2.70447e-05
2.71813e-05
2.70371e-05
2.73456e-05
2.73061e-05
2.71164e-05
2.71624e-05
2.65298e-05
2.65928e-05
2.7105e-05
2.71215e-05
2.70969e-05
2.65153e-05
2.65722e-05
2.65961e-05
2.72038e-05
2.71586e-05
2.72647e-05
2.71751e-05
2.64607e-05
2.65612e-05
2.71456e-05
2.72426e-05
2.70558e-05
2.72185e-05
2.72009e-05
2.71528e-05
2.71779e-05
2.65621e-05
2.65578e-05
2.71678e-05
2.70769e-05
2.71801e-05
2.66397e-05
2.64974e-05
2.65188e-05
2.71594e-05
2.71962e-05
2.72386e-05
2.71892e-05
2.64693e-05
2.66802e-05
2.70767e-05
2.73034e-05
2.71543e-05
2.72287e-05
2.72759e-05
2.72935e-05
2.71761e-05
2.6549e-05
2.65464e-05
2.71742e-05
2.70733e-05
2.71875e-05
2.64785e-05
2.65113e-05
2.6562e-05
2.72939e-05
2.72019e-05
2.73119e-05
2.71526e-05
2.67057e-05
2.64334e-05
2.70516e-05
2.71207e-05
2.71215e-05
2.71508e-05
2.7163e-05
2.70852e-05
2.70927e-05
2.65489e-05
2.65168e-05
2.71368e-05
2.71499e-05
2.72078e-05
2.65182e-05
2.645e-05
2.65219e-05
2.7239e-05
2.71763e-05
2.71809e-05
2.7168e-05
2.64237e-05
2.65274e-05
2.70824e-05
2.71237e-05
2.7124e-05
2.71357e-05
2.71528e-05
2.71525e-05
2.71277e-05
2.65026e-05
2.6587e-05
2.71169e-05
2.71931e-05
2.7207e-05
2.65608e-05
2.65156e-05
2.65208e-05
2.7248e-05
2.72607e-05
2.71433e-05
2.71284e-05
2.66636e-05
2.64629e-05
2.7102e-05
2.71118e-05
2.70244e-05
2.7117e-05
2.71977e-05
2.70449e-05
2.71783e-05
2.64829e-05
2.66539e-05
2.71457e-05
2.71046e-05
2.71522e-05
2.66317e-05
2.71519e-05
2.64485e-05
2.70395e-05
2.72189e-05
2.70841e-05
2.68002e-05
2.72861e-05
5.67682e-06
5.78191e-06
2.23214e-05
2.71265e-05
1.7129e-05
2.71743e-05
1.71453e-05
2.2377e-05
2.70146e-05
1.05943e-05
1.05612e-05
2.6487e-05
1.06228e-05
1.05896e-05
1.62853e-05
8.63345e-06
8.58686e-06
1.63573e-05
5.59379e-06
5.6e-06
1.60964e-05
8.62334e-06
8.64821e-06
1.6191e-05
2.37004e-05
2.39962e-05
2.37753e-05
2.38825e-05
2.37281e-05
2.3816e-05
2.37886e-05
2.18368e-05
1.69479e-05
2.69942e-05
2.71145e-05
1.69645e-05
2.70142e-05
2.1862e-05
5.76303e-06
5.76968e-06
2.21735e-05
2.69903e-05
1.70051e-05
2.71248e-05
2.22803e-05
2.69618e-05
1.69929e-05
1.05957e-05
1.07681e-05
2.65024e-05
1.06012e-05
1.07837e-05
1.60882e-05
8.55896e-06
1.61445e-05
8.52393e-06
5.63816e-06
5.67687e-06
1.58968e-05
8.53129e-06
1.59415e-05
8.503e-06
2.3705e-05
2.38257e-05
2.38796e-05
2.37648e-05
2.35784e-05
2.38805e-05
2.37069e-05
2.16968e-05
1.69667e-05
2.69362e-05
2.72011e-05
2.18245e-05
1.68863e-05
2.69125e-05
5.70086e-06
5.69039e-06
2.18699e-05
2.69264e-05
1.68722e-05
2.71469e-05
2.20257e-05
2.6996e-05
1.68511e-05
1.05992e-05
1.06557e-05
2.65957e-05
1.06368e-05
1.06757e-05
1.60039e-05
8.52392e-06
1.59745e-05
8.56459e-06
5.71332e-06
5.70143e-06
1.58647e-05
8.44513e-06
1.58799e-05
8.43625e-06
2.36044e-05
2.37359e-05
2.36851e-05
2.37413e-05
2.36166e-05
2.37054e-05
2.37707e-05
2.15939e-05
1.67346e-05
2.69029e-05
2.72635e-05
2.16748e-05
1.67569e-05
2.69271e-05
5.62161e-06
5.62398e-06
2.17675e-05
2.69468e-05
1.67925e-05
2.72383e-05
2.17991e-05
2.69276e-05
1.68088e-05
1.05714e-05
1.06746e-05
2.64098e-05
1.05592e-05
1.06e-05
1.59952e-05
8.63105e-06
1.60339e-05
8.56612e-06
5.6917e-06
5.69562e-06
1.57222e-05
8.35055e-06
1.57221e-05
8.29645e-06
2.36483e-05
2.3693e-05
2.36337e-05
2.38023e-05
2.36105e-05
2.37345e-05
2.37608e-05
2.15781e-05
1.67003e-05
2.69757e-05
2.7161e-05
2.15812e-05
1.66982e-05
2.69562e-05
5.6077e-06
5.61165e-06
2.16847e-05
2.6978e-05
1.67883e-05
2.73896e-05
2.16847e-05
2.7004e-05
1.67354e-05
1.04379e-05
1.05494e-05
2.64813e-05
1.03941e-05
1.05973e-05
1.6022e-05
8.51033e-06
1.60578e-05
8.50956e-06
5.66584e-06
5.65578e-06
1.55497e-05
8.26121e-06
1.55399e-05
8.26709e-06
2.36234e-05
2.37252e-05
2.36562e-05
2.36568e-05
2.36192e-05
2.36616e-05
2.35584e-05
2.15443e-05
1.67202e-05
2.69888e-05
2.71289e-05
2.15567e-05
1.67202e-05
2.7003e-05
5.62714e-06
5.63158e-06
2.17621e-05
2.69082e-05
1.67067e-05
2.73808e-05
2.16956e-05
2.68929e-05
1.66674e-05
1.03868e-05
1.05939e-05
2.65405e-05
1.0364e-05
1.0609e-05
1.60221e-05
8.54155e-06
1.60361e-05
8.50791e-06
5.63161e-06
5.62389e-06
1.56104e-05
8.28526e-06
1.55679e-05
8.25077e-06
2.36254e-05
2.36401e-05
2.358e-05
2.36971e-05
2.37684e-05
2.36062e-05
2.36954e-05
2.15671e-05
1.67063e-05
2.68828e-05
2.70985e-05
2.15194e-05
1.67052e-05
2.69763e-05
5.63363e-06
5.65028e-06
2.17598e-05
2.68865e-05
1.66174e-05
2.72634e-05
2.17861e-05
2.69059e-05
1.6601e-05
1.04069e-05
1.05409e-05
2.64804e-05
1.04109e-05
1.0554e-05
1.60206e-05
8.49697e-06
1.59582e-05
8.48136e-06
5.55572e-06
5.54984e-06
1.57629e-05
8.26619e-06
1.57191e-05
8.20507e-06
2.36563e-05
2.36045e-05
2.36141e-05
2.36645e-05
2.36903e-05
2.36859e-05
2.3602e-05
2.1649e-05
1.67439e-05
2.69907e-05
2.71711e-05
2.16447e-05
1.67179e-05
2.70016e-05
5.65765e-06
5.65734e-06
2.16385e-05
2.69419e-05
1.66046e-05
2.70943e-05
2.16412e-05
2.6925e-05
1.66229e-05
1.0489e-05
1.04698e-05
2.6457e-05
1.05023e-05
1.04963e-05
1.59883e-05
8.46161e-06
1.59918e-05
8.44557e-06
5.5342e-06
5.53591e-06
1.57583e-05
8.21843e-06
1.57507e-05
8.24132e-06
2.37136e-05
2.35656e-05
2.36099e-05
2.366e-05
2.36709e-05
2.35549e-05
2.36369e-05
2.16936e-05
1.66233e-05
2.70003e-05
2.71531e-05
2.1671e-05
1.65834e-05
2.69228e-05
5.69451e-06
5.70542e-06
2.17414e-05
2.69663e-05
1.66467e-05
2.70908e-05
2.16822e-05
2.68669e-05
1.66218e-05
1.04366e-05
1.04836e-05
2.65351e-05
1.04388e-05
1.04984e-05
1.59664e-05
8.41704e-06
1.59527e-05
8.38089e-06
5.50187e-06
5.5098e-06
1.57574e-05
8.23493e-06
1.57879e-05
8.28177e-06
2.36531e-05
2.35636e-05
2.36233e-05
2.37477e-05
2.36127e-05
2.36728e-05
2.36137e-05
2.16914e-05
1.6538e-05
2.69512e-05
2.7095e-05
2.16463e-05
1.65311e-05
2.69333e-05
5.63768e-06
5.63948e-06
2.17264e-05
2.68814e-05
1.66069e-05
2.71683e-05
2.16376e-05
2.69705e-05
1.6586e-05
1.04501e-05
1.04223e-05
2.6465e-05
1.0442e-05
1.04616e-05
1.59542e-05
8.31469e-06
1.5922e-05
8.35942e-06
5.56622e-06
5.62744e-06
1.56845e-05
8.26907e-06
1.56638e-05
8.20409e-06
2.36367e-05
2.36365e-05
2.36322e-05
2.36486e-05
2.37412e-05
2.36388e-05
2.36265e-05
2.16005e-05
1.65733e-05
2.69795e-05
2.71126e-05
2.16692e-05
1.65577e-05
2.71127e-05
5.60998e-06
5.6253e-06
2.17544e-05
2.68688e-05
1.65549e-05
2.71476e-05
2.17356e-05
2.69373e-05
1.65301e-05
1.04334e-05
1.0433e-05
2.66085e-05
1.04879e-05
1.04376e-05
1.60189e-05
8.48797e-06
1.59819e-05
8.50882e-06
5.71676e-06
5.78173e-06
1.56247e-05
8.22523e-06
1.56262e-05
8.194e-06
2.37799e-05
2.37546e-05
2.36177e-05
2.36365e-05
2.36716e-05
2.36014e-05
2.36252e-05
2.15824e-05
1.66903e-05
2.70282e-05
2.7126e-05
2.16087e-05
1.67172e-05
2.70086e-05
5.61384e-06
5.6107e-06
2.18594e-05
2.6984e-05
1.66019e-05
2.71517e-05
2.17534e-05
2.70025e-05
1.66284e-05
1.04865e-05
1.04317e-05
2.64929e-05
1.04268e-05
1.04727e-05
1.60339e-05
8.53936e-06
1.59775e-05
8.52841e-06
5.7772e-06
5.78723e-06
1.55461e-05
8.25175e-06
1.55955e-05
8.28658e-06
2.36511e-05
2.37007e-05
2.36201e-05
2.37803e-05
2.36324e-05
2.36233e-05
2.37925e-05
2.16159e-05
1.67722e-05
2.70541e-05
2.71276e-05
2.15389e-05
1.67195e-05
2.69523e-05
5.59754e-06
5.60039e-06
2.17752e-05
2.69402e-05
1.67257e-05
2.71584e-05
2.17658e-05
2.69306e-05
1.67501e-05
1.03961e-05
1.04698e-05
2.66425e-05
1.04248e-05
1.04882e-05
1.59983e-05
8.47795e-06
1.59863e-05
8.50568e-06
5.78726e-06
5.77883e-06
1.55636e-05
8.28819e-06
1.55308e-05
8.27549e-06
2.36138e-05
2.37144e-05
2.36645e-05
2.36579e-05
2.36055e-05
2.37515e-05
2.36185e-05
2.16113e-05
1.65998e-05
2.69548e-05
2.72051e-05
2.16512e-05
1.65849e-05
2.69553e-05
5.59479e-06
5.60758e-06
2.1758e-05
2.69186e-05
1.67679e-05
2.71398e-05
2.1789e-05
2.70083e-05
1.6743e-05
1.04048e-05
1.0503e-05
2.64457e-05
1.04083e-05
1.05265e-05
1.59255e-05
8.44469e-06
1.5887e-05
8.4298e-06
5.77275e-06
5.77175e-06
1.55535e-05
8.29989e-06
1.55302e-05
8.26234e-06
2.36099e-05
2.3636e-05
2.36429e-05
2.36739e-05
2.38298e-05
2.36718e-05
2.3589e-05
2.15415e-05
1.66295e-05
2.69565e-05
2.70683e-05
2.15582e-05
1.66049e-05
2.69629e-05
5.61461e-06
5.63447e-06
2.16782e-05
2.69686e-05
1.67295e-05
2.71548e-05
2.16305e-05
2.69668e-05
1.67404e-05
1.03938e-05
1.04716e-05
2.653e-05
1.04252e-05
1.04936e-05
1.5929e-05
8.40813e-06
1.59676e-05
8.44693e-06
5.76447e-06
5.78622e-06
1.54614e-05
8.21398e-06
1.54888e-05
8.24141e-06
2.37104e-05
2.35837e-05
2.36713e-05
2.37631e-05
2.36763e-05
2.34629e-05
2.34336e-05
2.16255e-05
1.65629e-05
2.70263e-05
2.70661e-05
2.16169e-05
1.65328e-05
2.6997e-05
5.63919e-06
5.62802e-06
2.16779e-05
2.68865e-05
1.67394e-05
2.71122e-05
2.16247e-05
2.6873e-05
1.66939e-05
1.0451e-05
1.05172e-05
2.65786e-05
1.05065e-05
1.05298e-05
5.73862e-06
8.27188e-06
1.56322e-05
2.37767e-05
2.35867e-05
2.35785e-05
1.66763e-05
2.68747e-05
2.19717e-05
5.63805e-06
2.68492e-05
1.67172e-05
2.15811e-05
1.06304e-05
1.05096e-05
1.07885e-05
1.0915e-05
2.67501e-05
1.09635e-05
1.09315e-05
5.71165e-06
5.74822e-06
5.76907e-06
5.76993e-06
2.67411e-05
1.08555e-05
1.09114e-05
1.09905e-05
1.09404e-05
5.72187e-06
5.73502e-06
2.2401e-05
2.70406e-05
1.69211e-05
2.7153e-05
1.69623e-05
2.25396e-05
2.69971e-05
1.65138e-05
8.66058e-06
8.70023e-06
1.65687e-05
1.65187e-05
8.43954e-06
8.45878e-06
1.65643e-05
2.23312e-05
2.72178e-05
2.70667e-05
1.70543e-05
1.71509e-05
2.23002e-05
2.69873e-05
2.23814e-05
2.71541e-05
2.6953e-05
1.69694e-05
1.69517e-05
2.22173e-05
2.70403e-05
1.65242e-05
8.64998e-06
8.72445e-06
1.64237e-05
1.65227e-05
8.50503e-06
8.48346e-06
1.6412e-05
5.58824e-06
5.60646e-06
5.56262e-06
5.58839e-06
2.64053e-05
1.06102e-05
1.07869e-05
1.06573e-05
1.05976e-05
5.62693e-06
5.63002e-06
5.64189e-06
5.63101e-06
5.69099e-06
5.67349e-06
5.69635e-06
5.69091e-06
1.08428e-05
1.07931e-05
2.67769e-05
1.08122e-05
1.07763e-05
5.6765e-06
5.69094e-06
5.68482e-06
5.71176e-06
2.66938e-05
1.08151e-05
1.07855e-05
1.08525e-05
1.0788e-05
1.61273e-05
8.52409e-06
8.49505e-06
1.62494e-05
2.21618e-05
1.70476e-05
2.69764e-05
2.73243e-05
1.69955e-05
2.70145e-05
2.2226e-05
2.19981e-05
1.6893e-05
2.69082e-05
2.71743e-05
1.69108e-05
2.68975e-05
2.2058e-05
1.62839e-05
8.59563e-06
8.6284e-06
1.61881e-05
1.61682e-05
8.52793e-06
8.53361e-06
1.60312e-05
2.20839e-05
2.72291e-05
1.69465e-05
2.69331e-05
1.6973e-05
2.69671e-05
2.21092e-05
2.19945e-05
2.71102e-05
1.69148e-05
2.69314e-05
1.69105e-05
2.69106e-05
2.18905e-05
1.06519e-05
1.09654e-05
2.64735e-05
1.06507e-05
1.09264e-05
5.72024e-06
5.70789e-06
5.64591e-06
5.61227e-06
2.64611e-05
1.07581e-05
1.09068e-05
1.06553e-05
1.09206e-05
5.68862e-06
5.71601e-06
2.2143e-05
1.72318e-05
2.6792e-05
2.71537e-05
1.71762e-05
2.68048e-05
2.2204e-05
1.6048e-05
8.8962e-06
8.78084e-06
1.61774e-05
2.22827e-05
2.67711e-05
1.73887e-05
2.71386e-05
2.67851e-05
1.73692e-05
2.21939e-05
1.61569e-05
8.58952e-06
8.68267e-06
1.60235e-05
2.21596e-05
2.72666e-05
1.70502e-05
2.68684e-05
1.71887e-05
2.68632e-05
2.20704e-05
1.60603e-05
8.68144e-06
8.76243e-06
1.59711e-05
2.23019e-05
2.71968e-05
2.68067e-05
1.71771e-05
2.68076e-05
1.73672e-05
2.20603e-05
1.60414e-05
8.48389e-06
8.4982e-06
1.60918e-05
2.17716e-05
2.69954e-05
1.68676e-05
2.71633e-05
2.7037e-05
1.68669e-05
2.1876e-05
1.60009e-05
8.58094e-06
8.54962e-06
1.60061e-05
2.18418e-05
2.70941e-05
1.69744e-05
2.69595e-05
1.69718e-05
2.69144e-05
2.1814e-05
1.60456e-05
8.48992e-06
8.48377e-06
1.59959e-05
2.1803e-05
2.71651e-05
2.70181e-05
1.68693e-05
2.694e-05
1.68839e-05
2.17518e-05
1.60366e-05
8.52699e-06
8.58745e-06
1.59817e-05
1.08674e-05
1.09412e-05
2.66836e-05
1.09026e-05
1.09014e-05
5.73841e-06
5.71149e-06
5.73385e-06
5.7672e-06
2.67062e-05
1.08327e-05
1.08329e-05
1.09058e-05
1.09069e-05
5.69406e-06
5.71255e-06
2.21427e-05
2.69348e-05
1.69453e-05
2.71426e-05
2.22175e-05
2.6947e-05
1.69236e-05
1.63078e-05
8.63832e-06
1.6369e-05
8.63877e-06
1.62255e-05
8.49003e-06
1.6413e-05
8.47927e-06
2.21004e-05
2.71053e-05
2.69281e-05
1.69251e-05
2.69463e-05
1.69902e-05
2.20569e-05
2.21141e-05
2.71234e-05
2.69572e-05
1.69038e-05
2.69407e-05
1.68949e-05
2.2039e-05
1.62685e-05
8.58087e-06
8.63774e-06
1.61411e-05
1.62789e-05
8.42894e-06
8.44792e-06
1.61699e-05
5.62008e-06
5.61704e-06
5.64743e-06
5.65084e-06
2.64772e-05
1.06183e-05
1.06885e-05
1.06603e-05
1.07708e-05
5.62557e-06
5.63742e-06
5.59931e-06
5.64929e-06
5.68399e-06
5.68019e-06
5.6833e-06
5.63472e-06
1.08208e-05
1.07707e-05
2.67507e-05
1.09122e-05
1.06927e-05
5.70581e-06
5.71924e-06
5.61357e-06
5.61587e-06
2.66401e-05
1.09156e-05
1.06339e-05
1.09547e-05
1.06705e-05
1.58941e-05
8.57469e-06
1.59501e-05
8.58653e-06
2.19904e-05
1.69418e-05
2.70108e-05
2.72991e-05
2.20402e-05
1.6976e-05
2.6953e-05
2.1879e-05
1.69322e-05
2.69543e-05
2.71128e-05
2.1902e-05
1.69982e-05
2.68513e-05
1.60367e-05
8.55895e-06
8.57289e-06
1.60131e-05
1.58601e-05
8.64077e-06
8.61712e-06
1.58463e-05
2.19987e-05
2.72743e-05
1.69798e-05
2.69754e-05
1.69663e-05
2.69349e-05
2.19052e-05
2.18717e-05
2.7105e-05
1.70562e-05
2.68403e-05
1.70234e-05
2.68457e-05
2.17475e-05
1.08123e-05
1.09071e-05
2.66926e-05
1.08082e-05
1.0881e-05
5.68736e-06
5.6903e-06
5.7338e-06
5.69457e-06
2.66166e-05
1.08617e-05
1.08226e-05
1.08663e-05
1.08591e-05
5.63104e-06
5.68709e-06
2.18245e-05
1.70556e-05
2.68637e-05
2.7169e-05
2.209e-05
1.69128e-05
2.69204e-05
1.58852e-05
8.70237e-06
1.59314e-05
8.61238e-06
2.17972e-05
2.68056e-05
1.71236e-05
2.7139e-05
2.20603e-05
2.69021e-05
1.70028e-05
1.58666e-05
8.51796e-06
8.53033e-06
1.58883e-05
2.18511e-05
2.72159e-05
1.68945e-05
2.68561e-05
1.69004e-05
2.6865e-05
2.18018e-05
1.58511e-05
8.54333e-06
8.59667e-06
1.58279e-05
2.18049e-05
2.71373e-05
2.68301e-05
1.68636e-05
2.68322e-05
1.70217e-05
2.172e-05
1.5849e-05
8.49309e-06
1.59905e-05
8.46167e-06
2.16717e-05
2.69535e-05
1.68639e-05
2.71917e-05
2.17636e-05
2.69245e-05
1.684e-05
1.58704e-05
8.55346e-06
1.59947e-05
8.50804e-06
2.17063e-05
2.72329e-05
1.67515e-05
2.70015e-05
1.69005e-05
2.69302e-05
2.16741e-05
1.58095e-05
8.37265e-06
8.45803e-06
1.57688e-05
2.16802e-05
2.72112e-05
2.68993e-05
1.68581e-05
2.69119e-05
1.68616e-05
2.16229e-05
1.58312e-05
8.5121e-06
8.55361e-06
1.57961e-05
1.08544e-05
1.08535e-05
2.65878e-05
1.07658e-05
1.08355e-05
5.71144e-06
5.71947e-06
5.63793e-06
5.66412e-06
2.65768e-05
1.07089e-05
1.08265e-05
1.07629e-05
1.08536e-05
5.664e-06
5.70854e-06
2.19502e-05
2.69631e-05
1.68931e-05
2.71613e-05
2.1958e-05
2.697e-05
1.68667e-05
1.60883e-05
8.62383e-06
1.61271e-05
8.5541e-06
1.61591e-05
8.42697e-06
1.61371e-05
8.37684e-06
2.18747e-05
2.71607e-05
2.69479e-05
1.67927e-05
2.69175e-05
1.68384e-05
2.18411e-05
2.19363e-05
2.71662e-05
2.69911e-05
1.68321e-05
2.69789e-05
1.68816e-05
2.18229e-05
1.61091e-05
8.53025e-06
8.57298e-06
1.60521e-05
1.61598e-05
8.41282e-06
8.41727e-06
1.60224e-05
5.63298e-06
5.61224e-06
5.58582e-06
5.57984e-06
2.65091e-05
1.0591e-05
1.07055e-05
1.06418e-05
1.06812e-05
5.6043e-06
5.61333e-06
5.60204e-06
5.59478e-06
5.71388e-06
5.69862e-06
5.60319e-06
5.53667e-06
1.09121e-05
1.06254e-05
2.6595e-05
1.08961e-05
1.05309e-05
5.68775e-06
5.71651e-06
5.5101e-06
5.54452e-06
2.6584e-05
1.07718e-05
1.04724e-05
1.09141e-05
1.05399e-05
1.58715e-05
8.67631e-06
1.58405e-05
8.61434e-06
2.18759e-05
1.69663e-05
2.69359e-05
2.72863e-05
2.19297e-05
1.69827e-05
2.69024e-05
2.17852e-05
1.7054e-05
2.68712e-05
2.7118e-05
2.1764e-05
1.70236e-05
2.69449e-05
1.60237e-05
8.663e-06
8.57918e-06
1.6034e-05
1.59205e-05
8.619e-06
8.65397e-06
1.59416e-05
2.18555e-05
2.72877e-05
1.69468e-05
2.68614e-05
1.69915e-05
2.68804e-05
2.18552e-05
2.17347e-05
2.71487e-05
1.7013e-05
2.69129e-05
1.70137e-05
2.68474e-05
2.17927e-05
1.08739e-05
1.08221e-05
2.6646e-05
1.08336e-05
1.08154e-05
5.6447e-06
5.62468e-06
5.71635e-06
5.72664e-06
2.67094e-05
1.08719e-05
1.08368e-05
1.08942e-05
1.08196e-05
5.62302e-06
5.62278e-06
2.1815e-05
1.69087e-05
2.6954e-05
2.70908e-05
2.18261e-05
1.67841e-05
2.68992e-05
1.58398e-05
8.55116e-06
1.58151e-05
8.4922e-06
2.17407e-05
2.68579e-05
1.68684e-05
2.71811e-05
2.17292e-05
2.69493e-05
1.68438e-05
1.58423e-05
8.38845e-06
8.43511e-06
1.57667e-05
2.18465e-05
2.71767e-05
1.66944e-05
2.6918e-05
1.67727e-05
2.68862e-05
2.16498e-05
1.58335e-05
8.46969e-06
8.52151e-06
1.58042e-05
2.17919e-05
2.72208e-05
2.6886e-05
1.68416e-05
2.68629e-05
1.68407e-05
2.16915e-05
1.57464e-05
8.41254e-06
1.5742e-05
8.34884e-06
2.16111e-05
2.69081e-05
1.68743e-05
2.71855e-05
2.16215e-05
2.69059e-05
1.6793e-05
1.57914e-05
8.51348e-06
1.57626e-05
8.48318e-06
2.16321e-05
2.71511e-05
1.67349e-05
2.69244e-05
1.67492e-05
2.70144e-05
2.15906e-05
1.57739e-05
8.33459e-06
8.38515e-06
1.56974e-05
2.16477e-05
2.71475e-05
2.69019e-05
1.6663e-05
2.69221e-05
1.6794e-05
2.15833e-05
1.58237e-05
8.39036e-06
8.48437e-06
1.57188e-05
1.07344e-05
1.08297e-05
2.66988e-05
1.07073e-05
1.07174e-05
5.66393e-06
5.64212e-06
5.63851e-06
5.6338e-06
2.65985e-05
1.07241e-05
1.07031e-05
1.0729e-05
1.07583e-05
5.60459e-06
5.63902e-06
2.17568e-05
2.68885e-05
1.6839e-05
2.70798e-05
2.1814e-05
2.69167e-05
1.67811e-05
1.59984e-05
8.54789e-06
1.60604e-05
8.50594e-06
1.59728e-05
8.43252e-06
1.59979e-05
8.41705e-06
2.17456e-05
2.72398e-05
2.6955e-05
1.68006e-05
2.69754e-05
1.68099e-05
2.172e-05
2.18338e-05
2.71342e-05
2.68768e-05
1.67916e-05
2.69019e-05
1.68039e-05
2.17286e-05
1.59599e-05
8.4746e-06
8.52754e-06
1.59415e-05
1.59791e-05
8.4212e-06
8.44465e-06
1.58737e-05
5.6146e-06
5.56947e-06
5.59534e-06
5.56861e-06
2.63929e-05
1.04658e-05
1.05693e-05
1.05479e-05
1.06402e-05
5.5323e-06
5.57591e-06
5.58119e-06
5.59422e-06
5.69158e-06
5.6677e-06
5.52055e-06
5.50681e-06
1.07887e-05
1.04814e-05
2.65215e-05
1.07382e-05
1.04808e-05
5.64154e-06
5.67911e-06
5.51626e-06
5.52408e-06
2.65108e-05
1.07255e-05
1.05215e-05
1.07576e-05
1.04816e-05
1.60195e-05
8.64886e-06
1.60113e-05
8.56636e-06
2.1829e-05
1.69401e-05
2.68557e-05
2.72435e-05
2.18788e-05
1.69165e-05
2.68961e-05
2.17943e-05
1.69994e-05
2.68684e-05
2.72413e-05
2.17528e-05
1.69843e-05
2.68736e-05
1.606e-05
8.52927e-06
8.57864e-06
1.60607e-05
1.60237e-05
8.54995e-06
8.58193e-06
1.60315e-05
2.18141e-05
2.7206e-05
1.6904e-05
2.68366e-05
1.69191e-05
2.69284e-05
2.18358e-05
2.17928e-05
2.72129e-05
1.69117e-05
2.68619e-05
1.69596e-05
2.68521e-05
2.18284e-05
1.08753e-05
1.08825e-05
2.66656e-05
1.08692e-05
1.08472e-05
5.64563e-06
5.6255e-06
5.68359e-06
5.69223e-06
2.66745e-05
1.08371e-05
1.08507e-05
1.08472e-05
1.08454e-05
5.62998e-06
5.64498e-06
2.15936e-05
1.67017e-05
2.69117e-05
2.72173e-05
2.16754e-05
1.65906e-05
2.69861e-05
1.57536e-05
8.50683e-06
1.57824e-05
8.46664e-06
2.16408e-05
2.68831e-05
1.68574e-05
2.72213e-05
2.17044e-05
2.69675e-05
1.68651e-05
1.57262e-05
8.28229e-06
8.33664e-06
1.55917e-05
2.16128e-05
2.72404e-05
1.65235e-05
2.69018e-05
1.65871e-05
2.69173e-05
2.15242e-05
1.57698e-05
8.50564e-06
8.52357e-06
1.55815e-05
2.16549e-05
2.72129e-05
2.69384e-05
1.68434e-05
2.69502e-05
1.68702e-05
2.16017e-05
1.56402e-05
8.34694e-06
1.5676e-05
8.34946e-06
2.15747e-05
2.69354e-05
1.66848e-05
2.71813e-05
2.15958e-05
2.69267e-05
1.65919e-05
1.5646e-05
8.40315e-06
1.57536e-05
8.33456e-06
2.16146e-05
2.71253e-05
1.67337e-05
2.69449e-05
1.67251e-05
2.69299e-05
2.1565e-05
1.56675e-05
8.32975e-06
8.34483e-06
1.55416e-05
2.1636e-05
2.71701e-05
2.68796e-05
1.65189e-05
2.69696e-05
1.65695e-05
2.15013e-05
1.55869e-05
8.3005e-06
8.36924e-06
1.55405e-05
1.07334e-05
1.07384e-05
2.66135e-05
1.06912e-05
1.07046e-05
5.61211e-06
5.60562e-06
5.64319e-06
5.63518e-06
2.66936e-05
1.06854e-05
1.07439e-05
1.07108e-05
1.07526e-05
5.60845e-06
5.61092e-06
2.17527e-05
2.68652e-05
1.68147e-05
2.7155e-05
2.17241e-05
2.68512e-05
1.6787e-05
1.5845e-05
8.48101e-06
1.59155e-05
8.46472e-06
1.57992e-05
8.45926e-06
1.58578e-05
8.43241e-06
2.17057e-05
2.7304e-05
2.68952e-05
1.67191e-05
2.69002e-05
1.67522e-05
2.17299e-05
2.17394e-05
2.71441e-05
2.68658e-05
1.68432e-05
2.68665e-05
1.68094e-05
2.17046e-05
1.58143e-05
8.38737e-06
8.42251e-06
1.58621e-05
1.58272e-05
8.46631e-06
8.46732e-06
1.58468e-05
5.53691e-06
5.4957e-06
5.58653e-06
5.58205e-06
2.64797e-05
1.04094e-05
1.06082e-05
1.04032e-05
1.06058e-05
5.47896e-06
5.47364e-06
5.59702e-06
5.59883e-06
5.64118e-06
5.62912e-06
5.53559e-06
5.51539e-06
1.07348e-05
1.05351e-05
2.65017e-05
1.07766e-05
1.05116e-05
5.64764e-06
5.65991e-06
5.52601e-06
5.55055e-06
2.64815e-05
1.0786e-05
1.05278e-05
1.0818e-05
1.05474e-05
1.59649e-05
8.55925e-06
1.6014e-05
8.51854e-06
2.18568e-05
1.69117e-05
2.68605e-05
2.72097e-05
2.18307e-05
1.69153e-05
2.68624e-05
2.17865e-05
1.69206e-05
2.69771e-05
2.72878e-05
2.18057e-05
1.68808e-05
2.69128e-05
1.60756e-05
8.5688e-06
8.55928e-06
1.60877e-05
1.59974e-05
8.47456e-06
8.53911e-06
1.59874e-05
2.18415e-05
2.72987e-05
1.6941e-05
2.68823e-05
1.69481e-05
2.68884e-05
2.18068e-05
2.17639e-05
2.73113e-05
1.68812e-05
2.68702e-05
1.68999e-05
2.68856e-05
2.17979e-05
1.08682e-05
1.08863e-05
2.6598e-05
1.08095e-05
1.08237e-05
5.63831e-06
5.62843e-06
5.64679e-06
5.66786e-06
2.66705e-05
1.07995e-05
1.07642e-05
1.08094e-05
1.08243e-05
5.61646e-06
5.63967e-06
2.15006e-05
1.65445e-05
2.68977e-05
2.70942e-05
2.15877e-05
1.65478e-05
2.69656e-05
1.55035e-05
8.55812e-06
1.5567e-05
8.51776e-06
2.15227e-05
2.69417e-05
1.68377e-05
2.72306e-05
2.16256e-05
2.69409e-05
1.68091e-05
1.55963e-05
8.31676e-06
8.31029e-06
1.55971e-05
2.15308e-05
2.70796e-05
1.65874e-05
2.68776e-05
1.66218e-05
2.68765e-05
2.14823e-05
1.55053e-05
8.5277e-06
8.56183e-06
1.54744e-05
2.15736e-05
2.72002e-05
2.69551e-05
1.68327e-05
2.70362e-05
1.68343e-05
2.14784e-05
1.55248e-05
8.32696e-06
1.55292e-05
8.3364e-06
2.1487e-05
2.6895e-05
1.65125e-05
2.7142e-05
2.15019e-05
2.68753e-05
1.65217e-05
1.5508e-05
8.29462e-06
1.55363e-05
8.26799e-06
2.15283e-05
2.71392e-05
1.67335e-05
2.68757e-05
1.67192e-05
2.68959e-05
2.1512e-05
1.55428e-05
8.3619e-06