/*--------------------------------*- C++ -*----------------------------------*\
| =========                 |                                                 |
| \\      /  F ield         | OpenFOAM: The Open Source CFD Toolbox           |
|  \\    /   O peration     | Version:  2206                                  |
|   \\  /    A nd           | Website:  www.openfoam.com                      |
|    \\/     M anipulation  |                                                 |
\*---------------------------------------------------------------------------*/
FoamFile
{
    version     2.0;
    format      ascii;
    arch        "LSB;label=32;scalar=64";
    class       volScalarField;
    location    "30";
    object      p;
}
// * * * * * * * * * * * * * * * * * * * * * * * * * * * * * * * * * * * * * //

dimensions      [0 2 -2 0 0 0 0];

internalField   nonuniform List<scalar> 
66701
(
-0.00901807
-0.00901832
-0.0090181
-0.0090181
-0.00901822
-0.00901815
-0.00901813
-0.00901821
-0.00901837
-0.00901821
-0.00901818
-0.00901824
-0.00901817
-0.00901823
-0.0090182
-0.00901823
-0.00901814
-0.00901815
-0.00901815
-0.00901816
-0.00901817
-0.0090183
-0.00901829
-0.00901829
-0.00901831
-0.00901832
-0.00901829
-0.00901829
-0.0090183
-0.00901831
-0.00901832
-0.00901838
-0.00901838
-0.00901839
-0.0090184
-0.00901841
-0.0090183
-0.0090183
-0.00901831
-0.00901832
-0.00901833
-0.00901836
-0.00901835
-0.00901836
-0.00901837
-0.00901838
-0.00901824
-0.00901824
-0.00901825
-0.00901826
-0.00901827
-0.00901824
-0.00901824
-0.00901825
-0.00901826
-0.00901827
-0.00901826
-0.00901827
-0.00901828
-0.00901829
-0.00901829
-0.00901825
-0.00901825
-0.00901826
-0.00901827
-0.00901828
-0.00895164
-0.00895208
-0.00895189
-0.00895188
-0.00895218
-0.0089518
-0.00896765
-0.00895262
-0.00895214
-0.00895212
-0.00895317
-0.00896804
-0.0089529
-0.00896807
-0.00895217
-0.00895224
-0.00895318
-0.00896827
-0.00896819
-0.00895305
-0.00895225
-0.00895214
-0.00895236
-0.00898388
-0.00898368
-0.00895191
-0.008952
-0.00895177
-0.00898343
-0.00898357
-0.00898343
-0.00895211
-0.00895147
-0.00898326
-0.00895193
-0.00898325
-0.00898367
-0.00898358
-0.00895226
-0.00895175
-0.00898371
-0.00895206
-0.00898344
-0.00898401
-0.00898391
-0.00895212
-0.00895227
-0.00898412
-0.00895229
-0.00898407
-0.00898394
-0.00898381
-0.00895209
-0.00898392
-0.00895235
-0.00898402
-0.00898395
-0.00895229
-0.00895217
-0.00898415
-0.00895232
-0.00898397
-0.00898417
-0.0089839
-0.00895219
-0.00898408
-0.00895243
-0.00898415
-0.00898405
-0.00898405
-0.00898386
-0.00898385
-0.00898391
-0.00895201
-0.00898393
-0.00898423
-0.00898372
-0.00898383
-0.00898373
-0.0089836
-0.00898424
-0.00898388
-0.00896802
-0.00896818
-0.00896828
-0.00896869
-0.00896805
-0.00896817
-0.00896831
-0.0089687
-0.00896844
-0.0089688
-0.00896854
-0.00896886
-0.00898214
-0.00898389
-0.00895227
-0.00895242
-0.00895352
-0.00898315
-0.00898334
-0.00898351
-0.00895257
-0.00895102
-0.0089823
-0.00898392
-0.0089512
-0.00898198
-0.00898459
-0.00895314
-0.00895154
-0.00898305
-0.00895157
-0.00898302
-0.0089847
-0.00898446
-0.00895304
-0.00895137
-0.00898309
-0.00898451
-0.00895152
-0.00898297
-0.00898464
-0.00895156
-0.00895318
-0.00898308
-0.00895165
-0.00898473
-0.00898308
-0.00898456
-0.00895314
-0.00895156
-0.00898326
-0.00895168
-0.00898311
-0.00898467
-0.00898253
-0.00898428
-0.00895273
-0.00898364
-0.00898367
-0.00895153
-0.00895152
-0.00895154
-0.00895155
-0.00895156
-0.00895214
-0.00895214
-0.00895215
-0.00895216
-0.00895217
-0.00895151
-0.0089515
-0.00895152
-0.00895154
-0.00895155
-0.00895233
-0.00895233
-0.00895233
-0.00895234
-0.00895235
-0.00895244
-0.00895243
-0.00895243
-0.00895244
-0.00895245
-0.00895232
-0.00895232
-0.00895233
-0.00895235
-0.00895236
-0.00898383
-0.00898382
-0.00898382
-0.0089838
-0.00898379
-0.00898392
-0.00898393
-0.00898392
-0.00898391
-0.00898389
-0.0089523
-0.0089523
-0.0089523
-0.00895231
-0.00895232
-0.00895231
-0.0089523
-0.00895231
-0.00895232
-0.00895233
-0.00898397
-0.00898396
-0.00898396
-0.00898394
-0.00898394
-0.00898379
-0.00898379
-0.00898378
-0.00898377
-0.00898375
-0.00898396
-0.00898396
-0.00898395
-0.00898394
-0.00898393
-0.00895232
-0.00895231
-0.00895232
-0.00895233
-0.00895234
-0.00895233
-0.00895232
-0.00895233
-0.00895234
-0.00895235
-0.00898398
-0.00898398
-0.00898397
-0.00898396
-0.00898395
-0.00898393
-0.00898392
-0.00898391
-0.0089839
-0.00898389
-0.00898399
-0.00898398
-0.00898397
-0.00898396
-0.00898395
-0.00898379
-0.0089838
-0.00898378
-0.00898376
-0.00898374
-0.00898388
-0.00898389
-0.00898389
-0.00898388
-0.00898387
-0.00895184
-0.00895184
-0.00895185
-0.00895187
-0.00895188
-0.00895175
-0.00895174
-0.00895176
-0.00895178
-0.00895179
-0.00898327
-0.00898328
-0.00898328
-0.00898327
-0.00898325
-0.00895201
-0.00895201
-0.00895202
-0.00895203
-0.00895204
-0.00895216
-0.00895215
-0.00895216
-0.00895217
-0.00895219
-0.00898363
-0.00898365
-0.00898364
-0.00898362
-0.00898361
-0.00898344
-0.00898347
-0.00898346
-0.00898345
-0.00898344
-0.00898359
-0.0089836
-0.00898359
-0.00898358
-0.00898356
-0.00898383
-0.00898384
-0.00898384
-0.00898382
-0.00898381
-0.00895233
-0.00895232
-0.00895233
-0.00895234
-0.00895235
-0.00898392
-0.00898392
-0.00898391
-0.0089839
-0.00898388
-0.0089524
-0.00895239
-0.0089524
-0.00895241
-0.00895242
-0.00898389
-0.00898391
-0.0089839
-0.00898389
-0.00898388
-0.00898387
-0.00898387
-0.00898387
-0.00898385
-0.00898383
-0.00898387
-0.00898389
-0.00898388
-0.00898387
-0.00898385
-0.0045713
-0.00455551
-0.00483959
-0.00483958
-0.00483968
-0.00482348
-0.00510736
-0.00510744
-0.00510736
-0.00509126
-0.00537527
-0.00537531
-0.00537531
-0.00535913
-0.00564316
-0.00564311
-0.00564319
-0.00562691
-0.00591134
-0.00591134
-0.00591137
-0.00589514
-0.00617933
-0.00617938
-0.00617938
-0.00616323
-0.00644663
-0.00644666
-0.00644667
-0.00643051
-0.00671374
-0.00671376
-0.00671376
-0.00669761
-0.00698081
-0.00698084
-0.00698084
-0.0069647
-0.0072473
-0.00724735
-0.00724735
-0.00723124
-0.00751311
-0.00751313
-0.00751317
-0.00749709
-0.00777858
-0.00777858
-0.00777862
-0.00776252
-0.00804368
-0.00804375
-0.00804373
-0.00802767
-0.00830827
-0.00830833
-0.00830828
-0.00829224
-0.00857233
-0.00857232
-0.00857226
-0.00855618
-0.00883579
-0.00883576
-0.0088358
-0.00881966
-0.00455546
-0.00478912
-0.00457163
-0.00477329
-0.00477284
-0.00478883
-0.00482361
-0.00505638
-0.00483967
-0.00483963
-0.00504034
-0.0050404
-0.00482349
-0.00505651
-0.00483959
-0.00483956
-0.00504028
-0.00504026
-0.00483955
-0.00504041
-0.0050404
-0.00482354
-0.00505639
-0.00483959
-0.00504037
-0.00504045
-0.00505652
-0.00509112
-0.00532446
-0.00510732
-0.0051074
-0.00530837
-0.0053084
-0.00509125
-0.00532448
-0.00510728
-0.00510727
-0.00530837
-0.00530835
-0.00510739
-0.00530839
-0.00530842
-0.00509112
-0.00532447
-0.00510736
-0.00530837
-0.00530845
-0.00532449
-0.00535912
-0.00559231
-0.00537526
-0.00537522
-0.00557626
-0.00557623
-0.00535913
-0.00559226
-0.00537526
-0.00537522
-0.00557626
-0.00557626
-0.00537523
-0.00557619
-0.00557621
-0.00535914
-0.00559232
-0.00537525
-0.00557625
-0.00557624
-0.00559225
-0.00562698
-0.00586042
-0.00564313
-0.00564306
-0.00584433
-0.00584434
-0.0056269
-0.00586042
-0.00564314
-0.00564311
-0.00584434
-0.00584434
-0.00564303
-0.0058443
-0.00584431
-0.00562697
-0.00586042
-0.00564307
-0.00584434
-0.00584435
-0.00586041
-0.00589518
-0.00612857
-0.00591134
-0.00591131
-0.00611251
-0.00611254
-0.00589517
-0.00612859
-0.00591132
-0.00591128
-0.00611251
-0.00611249
-0.00591125
-0.00611249
-0.00611249
-0.00589515
-0.00612857
-0.00591127
-0.00611249
-0.00611251
-0.00612857
-0.00616323
-0.00639596
-0.00617935
-0.00617932
-0.00637994
-0.00637996
-0.00616323
-0.00639599
-0.00617935
-0.00617928
-0.00637992
-0.00637994
-0.00617928
-0.00637992
-0.00637994
-0.00616321
-0.00639599
-0.00617932
-0.00637994
-0.00637997
-0.00639599
-0.00643051
-0.00666305
-0.00644661
-0.0064466
-0.00664705
-0.00664704
-0.00643051
-0.00666306
-0.00644659
-0.00644657
-0.00664704
-0.006647
-0.00644657
-0.00664701
-0.00664702
-0.00643051
-0.00666304
-0.00644659
-0.00664702
-0.00664705
-0.00666308
-0.0066976
-0.00693024
-0.00671373
-0.00671369
-0.00691419
-0.00691417
-0.00669761
-0.00693019
-0.00671372
-0.00671366
-0.00691417
-0.00691412
-0.00671364
-0.00691412
-0.00691413
-0.0066976
-0.00693018
-0.00671369
-0.00691413
-0.00691416
-0.00693019
-0.00696473
-0.0071969
-0.00698083
-0.00698079
-0.00718088
-0.00718086
-0.00696471
-0.00719687
-0.00698082
-0.00698075
-0.00718087
-0.00718086
-0.00698075
-0.00718083
-0.00718085
-0.00696469
-0.00719688
-0.00698077
-0.00718085
-0.00718084
-0.00719687
-0.00723127
-0.00746278
-0.00724733
-0.00724728
-0.00744679
-0.00744677
-0.00723126
-0.00746279
-0.00724732
-0.00724729
-0.0074468
-0.00744681
-0.00724725
-0.00744677
-0.0074468
-0.00723126
-0.00746281
-0.00724727
-0.0074468
-0.00744682
-0.00746282
-0.00749707
-0.00772829
-0.0075131
-0.00751306
-0.00771231
-0.00771231
-0.00749705
-0.00772827
-0.00751311
-0.00751308
-0.00771231
-0.00771231
-0.00751306
-0.00771226
-0.00771231
-0.00749707
-0.00772831
-0.00751309
-0.00771231
-0.00771234
-0.0077283
-0.00776252
-0.00799351
-0.00777857
-0.00777853
-0.00797755
-0.00797753
-0.0077625
-0.0079935
-0.00777857
-0.00777854
-0.00797753
-0.00797753
-0.00777851
-0.00797751
-0.00797752
-0.00776252
-0.00799351
-0.00777853
-0.00797752
-0.00797754
-0.00799352
-0.00802766
-0.00825822
-0.00804371
-0.00804367
-0.00824228
-0.0082423
-0.00802766
-0.00825825
-0.00804367
-0.00804364
-0.00824226
-0.00824223
-0.00804363
-0.00824228
-0.00824225
-0.00802765
-0.00825819
-0.00804365
-0.00824224
-0.00824227
-0.00825821
-0.0082923
-0.00852233
-0.00830832
-0.00830829
-0.00850641
-0.00850641
-0.0082923
-0.00852232
-0.00830829
-0.0083082
-0.00850636
-0.0085063
-0.00830822
-0.00850636
-0.00850629
-0.00829221
-0.00852225
-0.00830822
-0.00850632
-0.00850633
-0.00852226
-0.00855634
-0.00878593
-0.00857238
-0.00857236
-0.00877045
-0.00877033
-0.00855633
-0.0087859
-0.00857228
-0.00857217
-0.0087701
-0.00877009
-0.00857218
-0.00876996
-0.00876994
-0.00855617
-0.00878599
-0.00857218
-0.00877005
-0.00877013
-0.00878591
-0.00883545
-0.00881976
-0.00883565
-0.00883565
-0.00883555
-0.00881972
-0.00883565
-0.00455559
-0.004655
-0.00465384
-0.00457154
-0.00455664
-0.00463876
-0.00465407
-0.00455697
-0.00463884
-0.00455564
-0.00455598
-0.00465483
-0.00465466
-0.0046547
-0.00492234
-0.00482365
-0.00492237
-0.00482367
-0.00482349
-0.00492247
-0.00492245
-0.00482364
-0.00492233
-0.00482359
-0.00483962
-0.00483959
-0.0048396
-0.00504035
-0.00504042
-0.00504034
-0.00504041
-0.00492152
-0.00482418
-0.00483953
-0.00490633
-0.00492169
-0.00490628
-0.00482437
-0.00482369
-0.00492238
-0.00492133
-0.00483958
-0.00482454
-0.00490635
-0.00482478
-0.00490628
-0.00492153
-0.00482342
-0.00482362
-0.0049225
-0.00492239
-0.00492231
-0.00519023
-0.00509115
-0.00509129
-0.00519027
-0.00509128
-0.00519038
-0.00519036
-0.00509092
-0.00509092
-0.00519027
-0.00510743
-0.00510734
-0.00510739
-0.00530833
-0.00530839
-0.00530837
-0.00530842
-0.00518952
-0.00509204
-0.0051074
-0.00517437
-0.00509224
-0.0051897
-0.00517433
-0.00509096
-0.00519032
-0.00518919
-0.00510732
-0.00509203
-0.0051743
-0.00509237
-0.00517426
-0.00518941
-0.0050913
-0.00509135
-0.00519053
-0.00519038
-0.00519025
-0.00545812
-0.00535918
-0.00535926
-0.00545818
-0.00535918
-0.00545821
-0.00545838
-0.00535911
-0.0053591
-0.00545833
-0.00537517
-0.00537517
-0.00537516
-0.00557622
-0.00557624
-0.00557627
-0.00557625
-0.00545733
-0.00535997
-0.00537523
-0.0054422
-0.00536016
-0.00545748
-0.00544217
-0.00535917
-0.00545833
-0.00545711
-0.00537522
-0.00536009
-0.00544224
-0.00536035
-0.00544218
-0.00545733
-0.00535925
-0.00535931
-0.00545838
-0.00545818
-0.0054581
-0.005726
-0.00562698
-0.00562706
-0.00572606
-0.00562692
-0.00572603
-0.00572626
-0.00562694
-0.00562694
-0.00572618
-0.00564304
-0.00564309
-0.00564302
-0.00584432
-0.00584435
-0.00584436
-0.00584435
-0.00572519
-0.0056277
-0.00564306
-0.00571007
-0.00562789
-0.00572536
-0.00571005
-0.00562697
-0.0057262
-0.005725
-0.0056431
-0.0056279
-0.00571015
-0.00562816
-0.00571009
-0.00572525
-0.00562696
-0.00562706
-0.00572626
-0.00572601
-0.00572596
-0.00599443
-0.00589528
-0.00589536
-0.00599451
-0.00589524
-0.00599453
-0.00599466
-0.0058952
-0.00589515
-0.00599461
-0.00591125
-0.00591126
-0.00591122
-0.00611245
-0.00611249
-0.00611248
-0.00611249
-0.00599357
-0.005896
-0.00591128
-0.00597838
-0.00589614
-0.00599376
-0.00597833
-0.0058952
-0.00599462
-0.00599337
-0.00591128
-0.00589613
-0.0059784
-0.00589638
-0.00597833
-0.00599359
-0.00589526
-0.00589532
-0.00599458
-0.00599446
-0.00599438
-0.00626222
-0.00616346
-0.00616354
-0.0062623
-0.00616347
-0.00626233
-0.00626245
-0.00616337
-0.00616333
-0.00626239
-0.00617925
-0.00617925
-0.00617921
-0.00637989
-0.00637994
-0.00637995
-0.00637994
-0.00626137
-0.00616416
-0.00617929
-0.00624622
-0.00616429
-0.00626159
-0.00624615
-0.0061634
-0.00626244
-0.00626116
-0.0061793
-0.0061643
-0.00624622
-0.00616452
-0.00624617
-0.00626141
-0.00616342
-0.00616353
-0.00626237
-0.00626228
-0.0062622
-0.00652925
-0.00643064
-0.00643072
-0.0065293
-0.00643062
-0.00652932
-0.00652945
-0.00643056
-0.0064305
-0.00652939
-0.00644655
-0.00644656
-0.00644652
-0.006647
-0.00664704
-0.00664703
-0.00664703
-0.00652845
-0.00643137
-0.00644659
-0.00651339
-0.00643154
-0.00652859
-0.00651334
-0.00643056
-0.00652941
-0.00652823
-0.00644661
-0.00643152
-0.00651339
-0.00643178
-0.00651334
-0.00652847
-0.00643063
-0.00643075
-0.00652952
-0.00652931
-0.00652923
-0.00679646
-0.0066977
-0.00669778
-0.00679648
-0.00669769
-0.0067965
-0.00679662
-0.00669761
-0.00669758
-0.00679656
-0.00671365
-0.00671364
-0.00671361
-0.00691412
-0.00691415
-0.00691413
-0.00691414
-0.00679558
-0.00669842
-0.00671368
-0.00678051
-0.0066986
-0.00679576
-0.00678045
-0.00669762
-0.00679656
-0.00679537
-0.00671368
-0.00669857
-0.00678049
-0.00669883
-0.00678044
-0.0067956
-0.00669771
-0.00669778
-0.00679661
-0.00679645
-0.00679636
-0.0070635
-0.00696492
-0.006965
-0.00706357
-0.00696493
-0.00706362
-0.00706369
-0.00696481
-0.00696479
-0.00706363
-0.00698073
-0.00698071
-0.00698068
-0.00718081
-0.00718084
-0.00718084
-0.00718083
-0.00706259
-0.00696561
-0.00698076
-0.0070475
-0.00696576
-0.00706279
-0.00704744
-0.00696484
-0.00706364
-0.00706238
-0.00698076
-0.00696574
-0.0070475
-0.006966
-0.00704744
-0.00706265
-0.00696487
-0.00696496
-0.00706363
-0.0070635
-0.0070634
-0.00732973
-0.00723149
-0.00723156
-0.00732981
-0.00723149
-0.00732981
-0.00732994
-0.00723141
-0.00723136
-0.00732989
-0.00724722
-0.00724722
-0.00724718
-0.00744676
-0.00744678
-0.0074468
-0.0074468
-0.00732886
-0.00723216
-0.00724726
-0.00731379
-0.00723233
-0.00732905
-0.00731374
-0.00723141
-0.0073299
-0.00732866
-0.00724726
-0.00723232
-0.00731381
-0.00723255
-0.00731375
-0.00732891
-0.00723144
-0.00723154
-0.00732991
-0.00732977
-0.00732967
-0.0075953
-0.00749727
-0.00749733
-0.0075954
-0.00749728
-0.00759543
-0.00759554
-0.00749719
-0.00749714
-0.00759549
-0.00751302
-0.00751304
-0.00751301
-0.00771227
-0.0077123
-0.00771232
-0.00771232
-0.00759448
-0.00749799
-0.00751307
-0.00757947
-0.00749815
-0.00759466
-0.00757943
-0.00749721
-0.0075955
-0.0075943
-0.00751309
-0.00749815
-0.0075795
-0.00749838
-0.00757945
-0.00759457
-0.00749728
-0.00749736
-0.00759559
-0.00759538
-0.00759532
-0.00786068
-0.0077627
-0.00776276
-0.00786075
-0.00776268
-0.00786076
-0.00786091
-0.00776263
-0.00776259
-0.00786086
-0.00777848
-0.0077785
-0.00777846
-0.0079775
-0.00797753
-0.00797753
-0.00797751
-0.00785987
-0.00776341
-0.00777852
-0.00784487
-0.00776358
-0.00786003
-0.00784481
-0.00776267
-0.00786089
-0.00785965
-0.00777854
-0.00776358
-0.00784489
-0.00776384
-0.00784483
-0.0078599
-0.0077627
-0.0077628
-0.00786093
-0.00786073
-0.00786064
-0.00812574
-0.00802791
-0.00802797
-0.00812578
-0.00802791
-0.00812584
-0.00812591
-0.00802784
-0.00802778
-0.00812586
-0.00804361
-0.00804359
-0.00804356
-0.00824221
-0.00824227
-0.00824223
-0.00824223
-0.00812487
-0.00802861
-0.00804365
-0.00810989
-0.00802876
-0.00812504
-0.00810982
-0.00802783
-0.00812585
-0.00812463
-0.00804364
-0.00802875
-0.00810987
-0.00802898
-0.0081098
-0.0081249
-0.00802787
-0.00802796
-0.00812594
-0.00812575
-0.00812565
-0.0083901
-0.00829258
-0.00829266
-0.00839013
-0.00829259
-0.00839015
-0.00839019
-0.00829242
-0.00829236
-0.00839017
-0.00830819
-0.00830816
-0.00830813
-0.00850636
-0.00850638
-0.00850631
-0.0085063
-0.00838922
-0.00829327
-0.00830824
-0.0083743
-0.0082934
-0.00838944
-0.00837422
-0.00829241
-0.00839018
-0.00838895
-0.00830821
-0.00829333
-0.00837426
-0.00829359
-0.00837422
-0.0083892
-0.00829252
-0.00829261
-0.00839032
-0.00839009
-0.00839001
-0.00865417
-0.00855668
-0.00855677
-0.00865383
-0.00855669
-0.00865397
-0.00865396
-0.00855641
-0.00855634
-0.00865393
-0.00857225
-0.00857216
-0.00857214
-0.00877004
-0.00877013
-0.00876997
-0.00876997
-0.00865295
-0.00855722
-0.00857223
-0.00863815
-0.00855734
-0.00865316
-0.00863804
-0.00855637
-0.00865393
-0.00865276
-0.00857216
-0.0085573
-0.0086381
-0.00855756
-0.00863808
-0.00865295
-0.00855646
-0.00855652
-0.0086541
-0.00865385
-0.00865376
-0.00881998
-0.00882006
-0.00881989
-0.00883563
-0.00883572
-0.00883561
-0.00882066
-0.00883577
-0.00882079
-0.00882009
-0.00883573
-0.00882092
-0.00882132
-0.00882009
-0.0088202
-0.00455583
-0.00455604
-0.0046549
-0.0046548
-0.00465501
-0.0045559
-0.00465504
-0.00478918
-0.00469003
-0.00469039
-0.00478894
-0.0047888
-0.00469019
-0.00469018
-0.00478901
-0.00469001
-0.00465382
-0.00457161
-0.0045567
-0.00463865
-0.00465399
-0.00455699
-0.00463873
-0.00465488
-0.00455598
-0.00465499
-0.00455596
-0.00465485
-0.00455594
-0.00465486
-0.00455596
-0.00469106
-0.0047061
-0.00477303
-0.00478801
-0.00469089
-0.00478772
-0.00470593
-0.00469102
-0.0047058
-0.00477292
-0.00478786
-0.00469061
-0.00478769
-0.00470589
-0.00469002
-0.0047889
-0.00469002
-0.00478866
-0.00468997
-0.0047887
-0.00468982
-0.00478864
-0.0045556
-0.00465478
-0.00455591
-0.00465486
-0.00468955
-0.00478849
-0.00478858
-0.00468975
-0.00468973
-0.0047886
-0.00468954
-0.00478871
-0.00468974
-0.00482364
-0.00492241
-0.00482366
-0.00492236
-0.00482376
-0.00482372
-0.00492241
-0.00492226
-0.00492225
-0.00505623
-0.00495723
-0.00505615
-0.00495703
-0.00495708
-0.00505613
-0.00505608
-0.00495735
-0.00495718
-0.00492235
-0.00482353
-0.00492242
-0.00482367
-0.00492131
-0.00482454
-0.00483964
-0.00490631
-0.00492154
-0.00490629
-0.00482478
-0.00492131
-0.00482443
-0.00483964
-0.00490632
-0.00492158
-0.00490627
-0.00482476
-0.00495738
-0.00505622
-0.00495729
-0.00505621
-0.00495738
-0.00505637
-0.00495737
-0.00505622
-0.00495842
-0.00497325
-0.00505542
-0.00504038
-0.00495813
-0.00497325
-0.00505524
-0.00495842
-0.00497329
-0.00505554
-0.00504039
-0.00495821
-0.00497326
-0.00505526
-0.00482363
-0.00482345
-0.00492249
-0.00492234
-0.00492238
-0.00482332
-0.00492251
-0.00505642
-0.00495734
-0.00495716
-0.0050563
-0.0050564
-0.00495748
-0.00495738
-0.00505648
-0.00495727
-0.00492145
-0.00482447
-0.0048395
-0.00490626
-0.00492158
-0.0049062
-0.00482466
-0.00492246
-0.00482366
-0.00492236
-0.00482362
-0.00492146
-0.00483948
-0.00482447
-0.00490625
-0.00490621
-0.00492163
-0.00482465
-0.004957
-0.00505615
-0.00495704
-0.00505625
-0.00495808
-0.0049732
-0.00505543
-0.00504025
-0.0049579
-0.00497316
-0.00505529
-0.00495704
-0.00505618
-0.00495708
-0.00505624
-0.00495809
-0.00497318
-0.00504027
-0.00505546
-0.00497319
-0.00495793
-0.0050553
-0.00492253
-0.00482333
-0.00492249
-0.00482326
-0.00492151
-0.00483954
-0.00482417
-0.00490629
-0.00490629
-0.00492168
-0.00482437
-0.00492254
-0.00482332
-0.00492248
-0.00482327
-0.00495822
-0.00497329
-0.00505571
-0.0050404
-0.00495808
-0.00497326
-0.00505554
-0.00495719
-0.00505648
-0.00495729
-0.00505649
-0.00495821
-0.00497328
-0.00504042
-0.00505566
-0.00497328
-0.00495805
-0.00505556
-0.0049572
-0.00505648
-0.00495728
-0.0050565
-0.00482375
-0.0048238
-0.00492247
-0.00492227
-0.00492223
-0.0048237
-0.0049224
-0.00505619
-0.00495706
-0.00495708
-0.00505613
-0.00505609
-0.00495721
-0.00495739
-0.00505624
-0.00495724
-0.00492132
-0.00483951
-0.00482442
-0.00490638
-0.00482471
-0.00490626
-0.00492159
-0.00492235
-0.0048237
-0.00482375
-0.00492235
-0.00492236
-0.00482356
-0.00482373
-0.00492239
-0.00495845
-0.00497327
-0.00504035
-0.00505537
-0.00497325
-0.00495819
-0.00505523
-0.00495844
-0.0049734
-0.00504039
-0.00505551
-0.00497332
-0.00495824
-0.00505525
-0.00495743
-0.00505622
-0.00495733
-0.00505618
-0.00495742
-0.00505634
-0.00495738
-0.00505622
-0.00482333
-0.00492252
-0.0048235
-0.00492243
-0.00495717
-0.00505633
-0.00505624
-0.00495736
-0.00495747
-0.00505646
-0.00495728
-0.00505636
-0.00495731
-0.00509112
-0.00519032
-0.00509093
-0.00519028
-0.00509125
-0.00509107
-0.00519044
-0.00519015
-0.00519015
-0.00532431
-0.00522524
-0.00532438
-0.00522512
-0.00522508
-0.0053242
-0.00532427
-0.00522537
-0.00522527
-0.00519024
-0.0050913
-0.00509135
-0.00519032
-0.00518922
-0.00509204
-0.00510735
-0.00517426
-0.00509228
-0.00518942
-0.00517427
-0.00518923
-0.00509215
-0.00510737
-0.00517432
-0.0050923
-0.00518949
-0.0051743
-0.00522531
-0.00532427
-0.00522527
-0.0053242
-0.00522533
-0.00532431
-0.00522536
-0.00532421
-0.00522635
-0.00524128
-0.00532345
-0.00530835
-0.0052261
-0.00524131
-0.00532321
-0.00522637
-0.00524136
-0.00532348
-0.00530835
-0.00522618
-0.00524134
-0.00532321
-0.00509142
-0.00509132
-0.00519054
-0.00519012
-0.00519048
-0.00509123
-0.00519051
-0.00532436
-0.00522532
-0.00522515
-0.00532423
-0.00532433
-0.00522543
-0.00522543
-0.00532444
-0.00522528
-0.00518934
-0.00509181
-0.00510723
-0.00517423
-0.00509191
-0.00518948
-0.00517419
-0.00519037
-0.00509096
-0.00509095
-0.00519029
-0.00518936
-0.00510724
-0.00509179
-0.00517423
-0.00509191
-0.00517422
-0.00518954
-0.00522504
-0.00532437
-0.00522514
-0.00532444
-0.00522607
-0.00524127
-0.00532359
-0.00530832
-0.00522594
-0.00524125
-0.00532344
-0.00522507
-0.00532442
-0.00522516
-0.00532445
-0.00522609
-0.00524128
-0.00530834
-0.00532363
-0.0052413
-0.00522597
-0.00532345
-0.00519053
-0.00509123
-0.0050912
-0.00519046
-0.00518954
-0.0051074
-0.00509203
-0.00517433
-0.0050922
-0.00517434
-0.00518969
-0.00519054
-0.00509124
-0.00509122
-0.00519047
-0.00522624
-0.00524133
-0.00532363
-0.00530834
-0.00522613
-0.00524131
-0.00532349
-0.00522524
-0.00532445
-0.00522531
-0.00532448
-0.00522624
-0.00524139
-0.00530839
-0.00532367
-0.00524139
-0.00522611
-0.00532351
-0.00522522
-0.00532446
-0.00522533
-0.0053245
-0.00509108
-0.00509123
-0.00519046
-0.00519021
-0.00519012
-0.00509111
-0.00519029
-0.00532442
-0.00522516
-0.0052251
-0.00532431
-0.0053242
-0.00522529
-0.00522538
-0.00532434
-0.00522524
-0.00518921
-0.00510728
-0.00509215
-0.00517433
-0.00509234
-0.00517425
-0.00518951
-0.00519024
-0.00509115
-0.00509131
-0.00519023
-0.00519026
-0.00509127
-0.00509134
-0.00519033
-0.00522639
-0.0052413
-0.0053083
-0.00532345
-0.00524126
-0.00522615
-0.00532323
-0.0052264
-0.00524141
-0.00530835
-0.00532348
-0.00524134
-0.00522621
-0.00532324
-0.00522536
-0.00532431
-0.0052253
-0.00532421
-0.00522536
-0.00532433
-0.00522537
-0.00532423
-0.00509123
-0.0051905
-0.00509123
-0.00519039
-0.00522519
-0.00532435
-0.00532422
-0.0052254
-0.00522546
-0.00532446
-0.0052253
-0.00532437
-0.00522532
-0.00535916
-0.00545823
-0.00535911
-0.00545833
-0.00535929
-0.00535923
-0.00545842
-0.00545809
-0.00545819
-0.00559213
-0.00549311
-0.00559223
-0.00549309
-0.00549304
-0.00559202
-0.00559214
-0.00549327
-0.00549322
-0.0054581
-0.00535921
-0.00535931
-0.00545813
-0.00545709
-0.00536005
-0.00537519
-0.00544221
-0.00536023
-0.00545736
-0.00544215
-0.00545709
-0.00536006
-0.00537515
-0.00544218
-0.00536023
-0.00545733
-0.00544215
-0.00549318
-0.00559207
-0.00549314
-0.00559199
-0.00549316
-0.00559205
-0.00549314
-0.00559199
-0.0054942
-0.00550924
-0.00559125
-0.00557622
-0.005494
-0.00550923
-0.00559102
-0.00549421
-0.00550923
-0.00559123
-0.00557621
-0.00549399
-0.00550925
-0.00559101
-0.00535932
-0.00535924
-0.00545838
-0.00545805
-0.00545816
-0.00535915
-0.00545828
-0.00559207
-0.0054931
-0.00549298
-0.00559197
-0.00559203
-0.00549324
-0.00549317
-0.00559215
-0.00549304
-0.00545736
-0.00535997
-0.00537517
-0.00544222
-0.00536006
-0.00545753
-0.00544217
-0.00545839
-0.00535916
-0.00535914
-0.00545831
-0.00545737
-0.00537516
-0.00535994
-0.00544219
-0.00536006
-0.00544218
-0.00545754
-0.00549299
-0.00559222
-0.0054931
-0.0055923
-0.00549406
-0.00550925
-0.00559146
-0.00557623
-0.00549392
-0.00550924
-0.00559131
-0.00549303
-0.00559226
-0.00549314
-0.00559228
-0.00549407
-0.00550925
-0.00557626
-0.00559147
-0.00550928
-0.00549394
-0.00559131
-0.00545838
-0.00535915
-0.00535916
-0.00545825
-0.00545734
-0.00537519
-0.00535999
-0.00544218
-0.00536012
-0.00544216
-0.00545749
-0.00545838
-0.00535918
-0.00535919
-0.00545826
-0.00549403
-0.00550917
-0.00559134
-0.00557616
-0.00549389
-0.00550916
-0.00559122
-0.00549302
-0.00559215
-0.00549308
-0.00559218
-0.00549403
-0.00550924
-0.0055762
-0.00559137
-0.00550924
-0.00549389
-0.00559125
-0.00549302
-0.00559214
-0.00549307
-0.0055922
-0.00535925
-0.0053593
-0.00545842
-0.00545821
-0.0054581
-0.00535918
-0.00545826
-0.00559224
-0.00549312
-0.00549304
-0.00559216
-0.00559204
-0.00549325
-0.00549331
-0.00559216
-0.00549316
-0.00545711
-0.00537517
-0.0053601
-0.0054422
-0.0053603
-0.00544215
-0.00545736
-0.00545813
-0.00535922
-0.00535934
-0.00545818
-0.00545813
-0.00535924
-0.00535936
-0.00545816
-0.00549428
-0.00550922
-0.00557619
-0.00559127
-0.00550918
-0.00549407
-0.00559104
-0.00549426
-0.00550926
-0.0055762
-0.00559125
-0.00550923
-0.00549402
-0.00559104
-0.00549322
-0.00559211
-0.00549321
-0.00559199
-0.00549322
-0.00559208
-0.00549316
-0.005592
-0.00535918
-0.00545829
-0.0053592
-0.00545824
-0.00549302
-0.00559203
-0.00559196
-0.00549316
-0.00549325
-0.00559213
-0.00549305
-0.0055921
-0.00549311
-0.00562696
-0.0057261
-0.00562695
-0.00572618
-0.0056271
-0.00562706
-0.00572631
-0.00572595
-0.00572606
-0.00586034
-0.00576106
-0.00586038
-0.00576101
-0.00576097
-0.00586023
-0.00586028
-0.0057612
-0.00576115
-0.00572599
-0.00562697
-0.00562708
-0.00572599
-0.00572499
-0.00562788
-0.00564306
-0.0057101
-0.00562805
-0.00572525
-0.00571007
-0.00572498
-0.00562783
-0.00564301
-0.00571006
-0.00562804
-0.0057252
-0.00571005
-0.00576112
-0.00586029
-0.0057611
-0.0058602
-0.00576113
-0.00586026
-0.00576108
-0.00586019
-0.00576216
-0.00577719
-0.00585948
-0.00584433
-0.00576195
-0.00577722
-0.0058592
-0.00576216
-0.00577722
-0.00585943
-0.00584433
-0.00576194
-0.00577725
-0.0058592
-0.00562707
-0.00562695
-0.00572626
-0.0057258
-0.00572612
-0.00562687
-0.00572614
-0.00586031
-0.00576103
-0.00576093
-0.00586019
-0.00586025
-0.00576116
-0.0057611
-0.00586036
-0.00576095
-0.00572525
-0.00562778
-0.00564308
-0.00571012
-0.0056279
-0.0057254
-0.0057101
-0.00572625
-0.00562698
-0.00562695
-0.00572618
-0.00572526
-0.00564307
-0.00562778
-0.00571013
-0.0056279
-0.00571011
-0.00572537
-0.00576095
-0.00586038
-0.00576103
-0.00586043
-0.00576199
-0.00577722
-0.00585959
-0.00584431
-0.00576185
-0.00577723
-0.00585944
-0.00576095
-0.00586039
-0.00576105
-0.00586042
-0.00576201
-0.00577726
-0.00584434
-0.00585961
-0.00577727
-0.00576184
-0.00585945
-0.0057262
-0.00562687
-0.00562689
-0.00572609
-0.0057252
-0.00564302
-0.00562772
-0.00571006
-0.00562786
-0.00571005
-0.00572534
-0.0057262
-0.00562688
-0.00562689
-0.00572609
-0.00576196
-0.00577713
-0.00585955
-0.00584426
-0.00576182
-0.00577714
-0.00585939
-0.00576095
-0.00586036
-0.005761
-0.00586038
-0.00576197
-0.00577721
-0.0058443
-0.00585958
-0.00577723
-0.00576181
-0.00585942
-0.00576093
-0.00586037
-0.005761
-0.0058604
-0.00562707
-0.00562713
-0.00572633
-0.00572605
-0.00572595
-0.00562701
-0.00572611
-0.00586039
-0.00576103
-0.00576099
-0.00586028
-0.0058602
-0.00576113
-0.00576121
-0.00586033
-0.00576106
-0.005725
-0.00564303
-0.00562786
-0.00571007
-0.0056281
-0.00571005
-0.00572524
-0.00572602
-0.00562702
-0.00562713
-0.00572603
-0.00572602
-0.00562699
-0.00562713
-0.00572604
-0.00576222
-0.0057772
-0.00584429
-0.00585943
-0.00577717
-0.005762
-0.00585919
-0.00576221
-0.00577723
-0.00584431
-0.00585942
-0.00577722
-0.00576198
-0.0058592
-0.00576117
-0.00586029
-0.00576112
-0.00586017
-0.00576116
-0.00586028
-0.00576111
-0.0058602
-0.00562687
-0.00572613
-0.00562695
-0.00572609
-0.00576097
-0.00586025
-0.00586013
-0.00576109
-0.00576119
-0.00586036
-0.00576098
-0.00586029
-0.00576105
-0.00589528
-0.00599458
-0.0058952
-0.00599463
-0.0058954
-0.0058953
-0.0059946
-0.00599439
-0.00599448
-0.00612863
-0.00602951
-0.00612867
-0.00602947
-0.00602928
-0.00612848
-0.00612856
-0.00602964
-0.00602959
-0.00599443
-0.00589527
-0.00589536
-0.00599447
-0.00599338
-0.00589613
-0.00591127
-0.00597839
-0.0058963
-0.00599366
-0.00597834
-0.00599338
-0.00589612
-0.00591124
-0.00597838
-0.00589631
-0.00599365
-0.00597834
-0.00602954
-0.00612857
-0.00602955
-0.00612849
-0.00602955
-0.00612859
-0.00602956
-0.00612847
-0.00603055
-0.00604547
-0.00612772
-0.00611248
-0.00603036
-0.00604547
-0.00612744
-0.00603056
-0.00604551
-0.00612772
-0.00611249
-0.00603038
-0.0060455
-0.00612743
-0.00589537
-0.00589527
-0.00599461
-0.00599439
-0.00599448
-0.00589517
-0.00599461
-0.00612863
-0.00602951
-0.00602928
-0.00612851
-0.00612857
-0.00602964
-0.0060296
-0.0061287
-0.00602947
-0.00599359
-0.00589604
-0.00591126
-0.00597837
-0.00589611
-0.00599377
-0.00597833
-0.00599467
-0.0058952
-0.00589517
-0.00599458
-0.00599361
-0.00591125
-0.005896
-0.00597836
-0.00589611
-0.00597834
-0.00599378
-0.00602935
-0.00612865
-0.00602947
-0.0061287
-0.00603034
-0.00604548
-0.00612782
-0.00611246
-0.00603026
-0.00604546
-0.00612764
-0.00602938
-0.00612868
-0.00602946
-0.00612869
-0.00603035
-0.00604549
-0.00611247
-0.00612787
-0.00604549
-0.00603023
-0.00612764
-0.00599465
-0.00589518
-0.00589517
-0.00599458
-0.00599358
-0.00591124
-0.005896
-0.00597834
-0.0058961
-0.00597832
-0.00599377
-0.00599466
-0.00589519
-0.00589518
-0.00599457
-0.00603035
-0.00604544
-0.00612783
-0.00611243
-0.00603027
-0.0060454
-0.00612765
-0.00602939