/*--------------------------------*- C++ -*----------------------------------*\
| =========                 |                                                 |
| \\      /  F ield         | OpenFOAM: The Open Source CFD Toolbox           |
|  \\    /   O peration     | Version:  2206                                  |
|   \\  /    A nd           | Website:  www.openfoam.com                      |
|    \\/     M anipulation  |                                                 |
\*---------------------------------------------------------------------------*/
FoamFile
{
    version     2.0;
    format      ascii;
    arch        "LSB;label=32;scalar=64";
    class       surfaceScalarField;
    location    "30";
    object      phi;
}
// * * * * * * * * * * * * * * * * * * * * * * * * * * * * * * * * * * * * * //

dimensions      [0 3 -1 0 0 0 0];

oriented        oriented;

internalField   nonuniform List<scalar> 
196491
(
-9.33602e-13
-4.37778e-12
-8.70609e-09
-9.82577e-13
-1.54453e-12
-5.45764e-12
-7.21519e-09
-3.30004e-12
-3.4775e-12
-1.70947e-08
-6.44219e-12
-2.50639e-08
-1.02571e-11
-1.10656e-12
-2.59634e-12
-1.28107e-08
4.30158e-12
1.3232e-11
-1.69485e-14
-2.22307e-08
-2.15725e-08
-6.03504e-14
-2.65815e-12
-1.55541e-08
-7.20261e-13
-1.65995e-12
-5.51123e-12
-7.21206e-09
-3.46081e-12
1.26743e-12
-3.51474e-12
-1.70916e-08
-6.3724e-12
-2.50531e-08
-1.01196e-12
-1.02949e-11
-2.57829e-12
-1.28051e-08
1.32437e-11
4.27865e-12
-2.22268e-08
-2.74942e-12
-1.55506e-08
-2.15629e-08
-4.47133e-12
-8.70652e-09
-2.42534e-12
2.67244e-13
-5.87663e-09
-1.18782e-12
2.58113e-13
-3.20286e-09
-5.05355e-13
1.74735e-13
-1.58314e-09
-1.79371e-13
9.41198e-14
-6.56473e-10
2.26414e-14
-1.56695e-10
-3.12863e-12
2.09214e-14
-2.22623e-13
-5.89355e-09
-1.55437e-12
-5.13482e-14
-1.0056e-13
-3.21083e-09
-6.54595e-13
-4.41092e-14
-4.6515e-14
-1.58635e-09
-2.08771e-13
-2.11724e-14
-1.84678e-14
-6.5755e-10
-6.6649e-15
-6.74202e-15
-1.56914e-10
-1.91191e-12
-3.13093e-09
-9.35016e-13
-1.7098e-09
-3.83079e-13
-8.44836e-10
-1.12992e-13
-3.49698e-10
-8.31781e-11
-1.94186e-12
2.33524e-14
-2.13509e-13
-3.13083e-09
-9.65727e-13
-1.14835e-15
-8.61645e-14
-1.70985e-09
-4.30578e-13
1.96588e-14
-1.84078e-14
-8.448e-10
-1.83386e-13
3.37751e-14
1.25305e-14
-3.49702e-10
-5.09123e-15
-4.6827e-15
-8.31681e-11
-2.50068e-12
-5.87731e-09
-1.21662e-12
-3.20331e-09
-4.76148e-13
-1.58343e-09
-1.04675e-13
-6.56712e-10
-1.56737e-10
-3.17408e-12
-3.68951e-13
-5.89157e-09
-1.58222e-12
-2.37372e-13
-3.20989e-09
-6.49889e-13
-1.46345e-13
-1.58578e-09
-1.75429e-13
-7.82078e-14
-6.574e-10
-1.75344e-14
-1.56838e-10
-1.42816e-12
-1.10184e-13
-3.64624e-09
-7.0981e-13
-4.85534e-14
-1.98926e-09
-2.9515e-13
-2.55781e-14
-9.82836e-10
-9.13097e-14
-1.53796e-14
-4.07041e-10
-1.98133e-15
-9.69451e-11
-1.43441e-12
2.05268e-14
-3.98328e-09
-6.97226e-13
3.2592e-14
-2.17193e-09
-2.94403e-13
2.75914e-14
-1.07348e-09
-1.03851e-13
1.71356e-14
-4.44928e-10
3.57698e-15
-1.06116e-10
-1.39896e-12
-1.62761e-13
-3.64507e-09
-6.78824e-13
-1.07606e-13
-1.9886e-09
-2.84942e-13
-5.91213e-14
-9.82455e-10
-1.015e-13
-2.29919e-14
-4.06904e-10
-8.9476e-15
-9.69135e-11
-1.50703e-12
-3.98248e-09
-7.49155e-13
-2.17151e-09
-3.18158e-13
-1.07328e-09
-9.78419e-14
-4.44849e-10
-1.06095e-10
-3.26358e-11
-1.37964e-11
-6.11987e-12
-8.75889e-09
-3.80693e-12
-1.10766e-12
8.71518e-09
-4.44682e-12
-8.70582e-09
4.08464e-11
3.44956e-11
2.53581e-08
3.34791e-11
3.46834e-11
-2.55016e-08
-5.98646e-11
2.36466e-11
-1.27373e-10
2.63789e-08
-2.62478e-08
-7.91825e-12
2.46732e-12
-2.18772e-11
2.59459e-08
-2.59224e-08
-8.89553e-11
-4.831e-12
-1.71922e-08
-9.40429e-10
3.68572e-11
9.03348e-11
-1.25896e-11
4.93598e-10
3.21338e-10
1.13856e-10
4.10162e-10
-1.0647e-07
-7.31531e-11
-1.97611e-10
2.33938e-08
-2.32719e-08
-4.68623e-11
-1.96812e-13
4.58768e-12
1.34675e-11
2.22596e-08
-2.22306e-08
-1.07303e-11
-3.63804e-12
1.71114e-08
-3.4627e-12
-1.70947e-08
-8.39829e-14
1.04298e-11
-8.48196e-11
2.38826e-08
-2.3855e-08
-1.63369e-10
8.85069e-11
3.9085e-11
2.73655e-11
-2.8194e-11
-5.04302e-11
4.9284e-11
-4.96767e-11
5.01162e-11
-1.04622e-07
-1.47521e-11
-2.41571e-11
2.3177e-08
-2.31567e-08
-3.31941e-11
8.16286e-11
-8.615e-11
1.16634e-10
8.53075e-11
-1.15698e-10
-1.06824e-07
-4.69958e-11
1.34885e-11
4.14154e-12
2.22556e-08
-2.22265e-08
-1.10269e-11
1.39086e-12
-3.62878e-12
1.71086e-08
-3.35954e-12
-1.7092e-08
-8.50506e-11
9.91299e-12
2.38797e-08
-2.38516e-08
3.11362e-12
-8.31191e-11
-3.19562e-11
4.99376e-11
3.2911e-11
-5.01955e-11
8.36631e-11
7.21566e-12
-7.8639e-12
-1.05722e-07
-1.82603e-11
-2.112e-12
-6.90121e-11
1.16216e-10
7.04204e-11
-1.15297e-10
-1.0777e-07
8.16879e-12
-1.43979e-11
-2.45077e-11
2.31623e-08
-2.31426e-08
-3.96554e-12
8.71592e-09
-4.25631e-12
-8.70631e-09
2.55366e-08
8.27496e-11
-2.55917e-08
-1.21286e-10
1.05456e-11
-2.22437e-11
2.60057e-08
-2.59813e-08
2.0949e-12
2.72863e-12
1.31273e-12
5.03648e-12
-1.91449e-08
-3.13834e-12
-2.11703e-12
1.17261e-11
1.38394e-11
-2.07161e-12
7.34695e-09
3.35345e-13
-5.75758e-12
-7.33945e-09
-2.97252e-12
7.31001e-09
-4.08438e-13
-4.75468e-12
-7.30187e-09
-1.23756e-11
-1.3816e-11
-1.91238e-08
-1.8357e-13
4.35606e-12
8.15497e-13
5.11651e-12
-2.22515e-08
-5.23087e-12
1.78833e-11
1.51188e-11
-4.34558e-11
1.66582e-08
-4.10794e-12
-1.65866e-08
4.93796e-11
2.46637e-08
-1.43046e-10
-1.4289e-10
-2.45545e-08
-1.46022e-13
-4.2265e-11
-5.41296e-11
-1.5303e-11
-2.22427e-08
3.05377e-12
2.88711e-11
-1.24882e-11
-2.11567e-08
-7.05984e-12
2.26591e-11
1.32655e-11
-8.24025e-12
1.62505e-08
-3.28726e-12
-1.62369e-08
2.26897e-11
2.36593e-08
-3.67051e-11
-3.25174e-11
-2.36346e-08
-3.067e-12
2.09303e-11
7.54321e-12
-1.47002e-11
-2.11413e-08
3.7075e-12
3.57459e-11
3.21407e-11
-1.28232e-08
9.86054e-12
9.42531e-13
-1.47682e-12
3.17253e-12
1.04326e-11
2.15979e-08
6.64848e-12
-3.81177e-11
-2.15723e-08
1.33898e-12
1.55693e-08
-2.95458e-13
-2.62051e-12
-1.55542e-08
-4.25237e-12
-1.2864e-11
-6.86422e-14
4.60126e-11
1.58e-12
-2.69989e-12
-1.28103e-08
-6.52624e-12
3.75918e-11
-1.10231e-13
3.3108e-12
-7.22279e-09
-1.44194e-13
6.25971e-12
1.19356e-12
2.50905e-08
-2.46826e-11
-2.5064e-08
3.88766e-12
1.02276e-11
3.92533e-12
-5.48354e-12
-7.21452e-09
2.37864e-11
-1.28178e-08
1.06757e-12
9.88556e-12
-1.35913e-12
3.14089e-12
9.59136e-13
1.55658e-08
-2.60353e-12
-1.5551e-08
1.07651e-11
2.15884e-08
6.42773e-12
-3.8891e-11
-2.15626e-08
-1.28543e-11
-4.3745e-12
4.59407e-11
1.63444e-12
-2.57571e-12
-1.28051e-08
3.29893e-12
-6.63176e-12
3.76492e-11
-7.21973e-09
1.74191e-13
6.15207e-12
1.29071e-12
2.50802e-08
-2.49597e-11
-2.50537e-08
3.65657e-12
-1.08827e-12
1.07092e-11
3.80055e-12
-5.32179e-12
-7.21149e-09
2.42438e-11
3.35323e-12
5.0218e-12
-2.17943e-12
-2.0756e-12
1.25483e-11
1.24781e-11
-1.91514e-08
5.40651e-13
5.31025e-12
-7.31111e-09
-1.07751e-12
5.79272e-12
-7.34855e-09
1.57459e-11
-7.68784e-12
2.0204e-11
-2.11554e-08
2.40387e-08
-3.03291e-11
-4.42836e-11
-2.40019e-08
1.55603e-11
2.17371e-11
-2.29331e-12
7.80562e-12
3.03539e-11
4.3921e-11
3.69105e-12
-1.6236e-08
-4.37489e-12
3.20176e-11
3.97183e-12
-2.22625e-08
-2.21477e-12
9.17919e-12
-2.32916e-13
-2.63924e-08
9.90671e-12
3.92529e-12
-1.66807e-08
-5.57205e-12
-2.42702e-08
6.70864e-11
5.51978e-12
-8.88037e-09
-9.01981e-14
2.25329e-10
-4.4197e-10
-1.09445e-07
-3.10457e-10
4.02999e-10
-1.16393e-07
3.59265e-10
-3.88064e-11
-1.11888e-07
3.4417e-10
-7.92129e-12
-1.20651e-07
-3.53504e-10
8.42177e-12
-1.09292e-07
7.60171e-13
-1.16465e-07
-1.41467e-11
-8.84177e-12
-1.11081e-07
-3.83636e-12
-1.19999e-07
-5.43566e-13
-1.14572e-07
-1.4418e-11
3.45989e-10
-1.20892e-07
1.18901e-11
-9.58019e-12
-1.14537e-07
-1.57249e-11
-1.20107e-07
-2.22216e-11
-2.33421e-08
1.33866e-11
2.01002e-11
-3.36408e-11
-3.30192e-11
1.43114e-11
2.5032e-08
-2.50656e-08
2.03144e-11
2.38579e-08
-2.38529e-08
-2.33375e-08
1.08253e-10
-2.50406e-08
4.12825e-10
-2.91502e-10
2.4167e-08
-2.40333e-08
2.47451e-08
-1.60463e-10
-2.46038e-08
-2.20061e-10
-9.19458e-11
-2.49514e-08
-2.43942e-08
-6.55152e-11
1.61474e-11
2.49731e-11
-6.54279e-11
2.35125e-08
1.41054e-11
-2.34889e-08
1.75532e-11
2.50168e-08
6.34595e-12
-2.50089e-08
-9.74246e-12
8.42663e-11
-1.03698e-13
-2.02198e-11
-2.43365e-08
-1.36e-11
-6.70113e-12
-3.57782e-11
-2.4799e-08
-4.20463e-11
-4.31665e-11
2.39256e-08
-2.39077e-08
2.44413e-08
-3.7036e-11
-2.44117e-08
2.3732e-11
1.36724e-11
-2.48493e-08
-2.43946e-08
1.96582e-11
-6.43817e-11
-2.71996e-11
1.98204e-11
2.5015e-08
-2.49973e-08
-6.56838e-11
2.35044e-08
1.66449e-11
-2.34844e-08
8.39275e-11
-9.9768e-12
2.73158e-11
-2.43973e-08
-1.65045e-11
-2.47744e-08
-4.19866e-11
-3.90054e-11
-4.28106e-11
2.39151e-08
-2.3895e-08
-3.93535e-11
2.44492e-08
-2.44148e-08
1.37143e-11
2.44273e-11
-2.47963e-08
-1.79188e-11
5.45574e-11
-2.33413e-08
-7.9621e-11
-9.59011e-12
1.11974e-10
2.49723e-08
-2.49088e-08
-1.77722e-11
1.7965e-10
-2.41211e-08
-2.87063e-12
-4.33813e-13
3.81398e-13
-5.87734e-09
-1.26714e-12
-3.51372e-13
3.48593e-13
-3.20355e-09
-4.53831e-13
-2.54838e-13
2.10339e-13
-1.5835e-09
-2.43572e-14
-1.59992e-13
7.40583e-14
-6.56733e-10
-2.14346e-14
4.10888e-14
-1.56724e-10
-2.59587e-12
2.20675e-13
5.87427e-09
-1.9768e-13
-5.87613e-09
-1.29619e-12
2.38667e-13
3.2013e-09
-1.75006e-13
-3.20264e-09
-5.5224e-13
1.6948e-13
1.58227e-09
-1.12011e-13
-1.58303e-09
-1.9423e-13
9.35681e-14
6.56075e-10
-5.0231e-14
-6.56428e-10
2.41597e-14
1.56521e-10
-1.56944e-14
-1.56684e-10
-2.15864e-12
-3.13084e-09
-9.26037e-13
-1.70987e-09
-3.59217e-13
-8.44836e-10
-1.3721e-13
-3.49676e-10
-8.31758e-11
-2.01033e-12
3.12926e-09
-5.8888e-14
-3.13043e-09
-1.01756e-12
1.70875e-09
4.04451e-14
-1.70956e-09
-4.19562e-13
8.44231e-10
4.67952e-14
-8.44721e-10
-1.14542e-13
3.49397e-10
2.57586e-14
-3.49648e-10
8.30633e-11
8.21179e-15
-8.31676e-11
-1.96503e-12
-8.86628e-15
3.12925e-09
-1.95968e-13
-3.13042e-09
-1.01312e-12
-3.19888e-14
1.70888e-09
-8.07639e-14
-1.70969e-09
-4.5271e-13
-1.18668e-14
8.44275e-10
-2.47397e-14
-8.44741e-10
-1.69727e-13
5.12577e-15
3.4947e-10
-1.8471e-16
-3.49685e-10
-6.04777e-15
8.30597e-11
-3.56288e-15
-8.31643e-11
-2.46992e-12
5.87492e-09
-5.87676e-09
1.00693e-14
-1.19686e-12
3.20169e-09
-3.20309e-09
4.0939e-15
-4.35014e-13
1.58244e-09
-1.58333e-09
-1.14061e-14
-6.27323e-14
6.56154e-10
-6.56644e-10
-2.03096e-14
1.56564e-10
-1.56734e-10
3.73009e-15
2.76341e-12
2.49058e-13
-3.84477e-13
1.32679e-12
1.53698e-13
-3.31377e-13
5.42999e-13
8.5243e-14
-2.30185e-13
1.76108e-13
3.47301e-14
-1.26738e-13
9.6959e-15
-3.04242e-14
1.77982e-12
-3.64464e-09
2.30992e-13
-4.33828e-13
8.71546e-13
-1.98823e-09
1.6807e-13
-2.82889e-13
3.48135e-13
-9.82246e-10
1.041e-13
-1.62614e-13
9.70118e-14
-4.06752e-10
5.18075e-14
-7.51242e-14
-9.68305e-11
1.39477e-14
-2.11853e-14
-1.56917e-12
1.89317e-13
3.98154e-09
-6.53768e-14
-3.98271e-09
-8.12613e-13
9.45116e-14
2.17085e-09
-2.47612e-14
-2.17167e-09
-3.51447e-13
4.58785e-14
1.07288e-09
-5.5729e-15
-1.07337e-09
-1.14887e-13
2.12125e-14
4.4464e-10
8.10473e-16
-4.44885e-10
4.10311e-15
1.05997e-10
7.9394e-16
-1.06107e-10
-1.62136e-12
2.48318e-13
-3.64578e-09
-8.37241e-13
1.14457e-13
-1.98904e-09
-3.5284e-13
5.01668e-14
-9.82737e-10
-1.0295e-13
1.84578e-14
-4.07e-10
5.93575e-15
-9.69359e-11
1.80828e-12
-8.22052e-15
8.72737e-13
8.34796e-15
3.54863e-13
8.49792e-15
1.10136e-13
2.76258e-15
3.07182e-15
2.14073e-12
3.82033e-13
1.03765e-12
2.37788e-13
4.16284e-13
1.36121e-13
1.16149e-13
6.65181e-14
1.47261e-14
1.76165e-12
-3.64357e-09
1.94073e-13
-3.14606e-13
8.66287e-13
-1.98765e-09
1.03866e-13
-1.8079e-13
3.58805e-13
-9.81914e-10
4.9161e-14
-1.00809e-13
1.16777e-13
-4.06648e-10
1.84054e-14
-5.05186e-14
-9.68038e-11
5.96419e-15
-1.08425e-14
-1.55627e-12
1.10399e-13
3.98081e-09
-3.98202e-09
-8.06422e-13
7.28138e-14
2.17047e-09
-2.17132e-09
-3.36976e-13
4.2703e-14
1.07268e-09
-1.0732e-09
-9.96607e-14
1.85214e-14
4.44556e-10
-4.44816e-10
6.67962e-15
1.05978e-10
-1.0609e-10
-1.5371e-12
3.08306e-13
-3.6448e-09
-7.85954e-13
1.9239e-13
-1.9885e-09
-3.30957e-13
1.13657e-13
-9.82417e-10
-1.09885e-13
5.67635e-14
-4.0689e-10
1.4768e-14
-9.69114e-11
1.81323e-12
8.93743e-13
3.69541e-13
1.076e-13
2.07578e-12
-5.09544e-14
1.57735e-13
1.01233e-12
-8.94861e-15
4.10715e-14
4.24506e-13
-1.88692e-14
-3.84545e-15
1.5017e-13
-2.65993e-14
-1.52628e-14
3.98717e-15
-6.9511e-16
2.78831e-12
-5.05919e-14
1.35132e-12
-1.72332e-14
5.35245e-13
1.35902e-14
1.09474e-13
3.3418e-14
-7.61559e-15
2.0753e-12
-8.29657e-14
3.62628e-13
-3.10834e-09
9.38598e-13
-1.17829e-14
2.36862e-13
-1.69766e-09
2.77277e-13
4.06293e-14
1.69868e-13
-8.38877e-10
-2.21388e-14
5.7902e-14
1.16709e-13
-3.47199e-10
1.79706e-15
1.32832e-14
-8.25841e-11
3.24399e-12
-5.8684e-09
-1.96453e-13
1.68965e-12
-3.19805e-09
-2.14033e-13
7.63587e-13
-1.58077e-09
-1.68128e-13
2.80445e-13
-6.55513e-10
-1.09859e-13
-1.56401e-10
-1.83202e-14
-3.22894e-12
-2.66388e-13
2.89837e-13
5.67993e-09
-5.68251e-09
-1.53702e-12
-3.62093e-13
2.93955e-13
3.09434e-09
-3.09603e-09
-5.72313e-13
-2.90277e-13
1.93763e-13
1.52823e-09
-1.5292e-09
-8.31175e-14
-1.76456e-13
8.56241e-14
6.33232e-10
-6.33746e-10
-3.56353e-14
3.17233e-14
1.50959e-10
-1.51128e-10
-2.01378e-12
3.1101e-09
-3.11201e-09
-9.12766e-13
1.69902e-09
-1.70003e-09
-3.66895e-13
8.39541e-10
-8.40033e-10
-1.5294e-13
3.47606e-10
-3.47796e-10
8.26433e-11
-8.27489e-11
1.81275e-12
7.29056e-13
9.33098e-13
5.17061e-13
3.99117e-13
2.87314e-13
1.49291e-13
1.12544e-13
4.27926e-14
-2.85976e-12
4.13717e-13
5.67934e-09
-5.68132e-09
-1.41491e-12
3.21187e-13
3.09358e-09
-3.09499e-09
-5.97092e-13
2.20325e-13
1.52806e-09
-1.52882e-09
-2.2034e-13
1.22703e-13
6.33197e-10
-6.33526e-10
2.79937e-14
1.509e-10
-1.51066e-10
-1.89626e-12
3.1104e-09
-3.1116e-09
-9.5825e-13
1.69871e-09
-1.69954e-09
-3.90149e-13
8.39414e-10
-8.39913e-10
-9.65916e-14
3.47461e-10
-3.47721e-10
8.26123e-11
-8.27132e-11
2.04586e-12
-2.33448e-13
1.02226e-12
-2.47594e-13
4.11977e-13
-1.59286e-13
9.84652e-14
-6.73255e-14
-2.54668e-14
2.80788e-12
5.30016e-13
1.50084e-12
4.61452e-13
6.44131e-13
3.13042e-13
1.62518e-13
1.67898e-13
3.66593e-14
3.03214e-12
1.49888e-12
5.99301e-13
1.83347e-13
3.56684e-12
-5.89093e-09
1.74226e-12
-3.20907e-09
7.02663e-13
-1.58536e-09
2.01848e-13
-6.57078e-10
-1.5672e-10
-3.30739e-12
-5.8929e-09
-1.66444e-12
-3.21055e-09
-6.79384e-13
-1.58622e-09
-1.99031e-13
-6.57499e-10
-1.56902e-10
3.50522e-12
-5.88903e-09
1.71293e-12
-3.20818e-09
6.94957e-13
-1.5848e-09
1.8892e-13
-6.56903e-10
-1.56652e-10
-3.22178e-12
-5.89105e-09
-1.6212e-12
-3.2097e-09
-6.63863e-13
-1.58571e-09
-1.89923e-13
-6.57364e-10
-1.56837e-10
2.08102e-12
-4.7886e-14
-3.11098e-09
1.05333e-12
-1.11503e-13
-1.69915e-09
4.72434e-13
-1.16728e-13
-8.39649e-10
1.93895e-13
-9.37749e-14
-3.47576e-10
-9.02536e-15
-8.26396e-11
3.15254e-12
-1.22943e-13
-5.68041e-09
1.52934e-12
-5.02304e-14
-3.09428e-09
5.63266e-13
5.7584e-15
-1.52823e-09
8.17276e-14
3.34679e-14
-6.33127e-10
-5.37665e-15
-1.50931e-10
3.44855e-12
-5.68018e-09
1.74696e-12
-3.09419e-09
7.36905e-13
-1.52827e-09
2.44591e-13
-6.33207e-10
-1.50937e-10
2.853e-10
2.36188e-10
1.04864e-07
1.84679e-10
2.50282e-10
1.3131e-10
3.1904e-11
2.18262e-10
7.11026e-11
8.26913e-11
-1.05624e-07
-7.32332e-10
-1.65157e-11
5.63063e-11
1.05615e-11
2.53738e-08
-2.55236e-08
9.94532e-11
3.31467e-12
-4.24502e-12
3.89224e-11
-3.51946e-11
1.0879e-07
-1.08793e-07
-3.84988e-11
3.89585e-12
-1.16805e-11
1.04685e-07
2.73199e-11
4.08714e-11
-2.68657e-11
-5.01251e-11
4.92651e-11
-4.96353e-11
5.08589e-11
-1.0468e-07
-1.05194e-07
6.63529e-12
4.55294e-10
-7.59597e-10
1.05461e-07
1.9059e-11
4.307e-11
-1.58069e-11
4.07869e-12
1.95728e-11
-1.81971e-11
-2.04509e-11
-2.5522e-08
8.12232e-11
5.6146e-13
4.24177e-11
2.56667e-11
2.53721e-08
7.62923e-13
-1.33838e-13
-1.08782e-07
4.64434e-13
-4.57167e-13
1.08782e-07
-1.04681e-07
-3.91204e-11
-9.87263e-13
-1.17338e-12
1.04679e-07
2.72708e-11
4.06388e-11
-2.37358e-11
-4.98484e-11
4.9064e-11
5.08787e-11
-5.16806e-11
-1.05541e-07
-4.4272e-11
-1.9769e-12
1.01611e-12
1.05541e-07
1.5077e-11
4.43353e-11
-1.64141e-11
3.57876e-12
2.0343e-11
-1.75202e-12
-2.07275e-11
-2.55129e-08
2.97322e-11
4.45465e-11
4.19198e-11
2.7372e-11
2.53693e-08
-9.92465e-13
-1.40201e-12
-1.08779e-07
1.39405e-12
5.01939e-13
1.08779e-07
-1.0468e-07
-3.9514e-11
-1.59152e-12
-2.3155e-13
1.04681e-07
2.69978e-11
4.0184e-11
-2.73772e-11
-4.97736e-11
4.88867e-11
5.06668e-11
-4.94202e-11
-1.05544e-07
-4.39902e-11
-2.50236e-13
9.8753e-13
1.05545e-07
1.54434e-11
4.41085e-11
-1.644e-11
2.65575e-12
1.97015e-11
-2.45443e-12
-2.12425e-11
-2.55128e-08
3.01763e-11
4.42137e-11
4.21772e-11
2.69342e-11
2.53693e-08
-1.80046e-12
1.95794e-13
-1.08778e-07
3.39921e-14
7.6783e-13
1.08779e-07
-1.04683e-07
-3.95032e-11
-1.76282e-12
1.5899e-13
1.04684e-07
2.69587e-11
4.03092e-11
-2.38753e-11
-5.01205e-11
4.87332e-11
5.0665e-11
-5.19251e-11
-1.05547e-07
-4.35123e-11
6.31953e-13
-3.71344e-13
1.05548e-07
1.57178e-11
4.44505e-11
-1.60145e-11
2.62752e-12
1.94266e-11
-2.86047e-12
-2.13195e-11
-2.5513e-08
3.00201e-11
4.42325e-11
4.2067e-11
2.71511e-11
2.53696e-08
-2.39536e-12
1.5838e-12
-1.08779e-07
-1.30299e-12
1.44153e-12
1.08779e-07
-1.04686e-07
-3.95807e-11
-1.02825e-12
3.51825e-13
1.04687e-07
2.70613e-11
4.03813e-11
-2.73307e-11
-5.01456e-11
4.85031e-11
5.05137e-11
-4.96412e-11
-1.05549e-07
-4.3321e-11
8.90733e-13
-1.53536e-12
1.05549e-07
1.58841e-11
4.47192e-11
-1.59185e-11
2.85727e-12
1.95471e-11
-2.7899e-12
-2.11419e-11
-2.55135e-08
2.99224e-11
4.44904e-11
4.18149e-11
2.72893e-11
2.537e-08
-2.01202e-12
2.40952e-12
-1.08778e-07
-2.22694e-12
1.33908e-12
1.08778e-07
-1.04687e-07
-3.94569e-11
-9.27059e-13
-5.94981e-14
1.04686e-07
2.70548e-11
4.04378e-11
-2.37415e-11
-5.00514e-11
4.89367e-11
5.05942e-11
-5.18803e-11
-1.05549e-07
-4.35211e-11
5.87647e-13
-1.31358e-12
1.0555e-07
1.5783e-11
4.44587e-11
-1.63631e-11
2.94609e-12
2.00358e-11
-2.32686e-12
-2.08902e-11
-2.55136e-08
2.98526e-11
4.45016e-11
4.19245e-11
2.72498e-11
2.53701e-08
-2.30957e-12
1.56662e-12
-1.08777e-07
-2.0069e-12
1.48802e-12
1.08779e-07
-1.04686e-07
-3.95582e-11
-4.30079e-13
7.44324e-14
1.04686e-07
2.66867e-11
4.02345e-11
-2.72102e-11
-5.00643e-11
4.86407e-11
5.05383e-11
-4.96077e-11
-1.05549e-07
-4.35898e-11
4.27702e-13
-4.03573e-13
1.05549e-07
1.56657e-11
4.42362e-11
-1.65451e-11
3.07225e-12
1.9992e-11
-2.44201e-12
-2.08345e-11
-2.55133e-08
2.97526e-11
4.45076e-11
4.19155e-11
2.73137e-11
2.53698e-08
-1.95251e-12
6.20102e-13
-1.0878e-07
-1.11589e-12
1.02678e-12
1.08781e-07
-1.04687e-07
-3.95171e-11
-6.25147e-13
-1.91977e-14
1.04687e-07
2.66442e-11
4.02252e-11
-2.3612e-11
-5.0251e-11
4.86188e-11
5.06591e-11
-5.19965e-11
-1.05549e-07
-4.37692e-11
2.36539e-13
5.99564e-14
1.0555e-07
1.55761e-11
4.40502e-11
-1.66489e-11
2.91026e-12
1.98765e-11
-2.367e-12
-2.08564e-11
-2.55133e-08
2.97899e-11
4.44427e-11
4.1938e-11
2.71793e-11
2.53699e-08
-9.80215e-13
1.53917e-13
-1.08782e-07
-5.03679e-13
1.19031e-13
1.08783e-07
-1.04689e-07
-3.92902e-11
-1.09791e-12
-7.02592e-13
1.0469e-07
2.69099e-11
4.04587e-11
-2.69251e-11
-5.00801e-11
4.87719e-11
5.05886e-11
-4.96019e-11
-1.0555e-07
-4.3772e-11
2.36282e-13
3.4529e-13
1.05551e-07
1.56739e-11
4.39976e-11
-1.67494e-11
2.85632e-12
2.00978e-11
-2.33844e-12
-2.10828e-11
-2.55131e-08
2.97845e-11
4.4309e-11
4.1987e-11
2.73283e-11
2.53697e-08
-4.10821e-13
2.20793e-13
-1.08783e-07
-4.75272e-13
-2.07288e-13
1.08784e-07
-1.04689e-07
-3.91621e-11
-9.8336e-13
-5.57617e-13
1.04688e-07
2.70598e-11
4.04175e-11
-2.34238e-11
-5.02373e-11
4.88864e-11
5.07481e-11
-5.2136e-11
-1.05549e-07
-4.36695e-11
2.15045e-13
4.80174e-13
1.05549e-07
1.57433e-11
4.40599e-11
-1.66902e-11
2.79397e-12
2.01711e-11
-2.1641e-12
-2.12111e-11
-2.55127e-08
2.97078e-11
4.42705e-11
4.19496e-11
2.73703e-11
2.53694e-08
-1.16593e-12
4.05048e-13
-1.08783e-07
-7.16095e-13
5.14896e-13
1.08784e-07
-1.04688e-07
-3.92312e-11
-7.3833e-13
-1.37928e-13
1.04688e-07
2.69312e-11
4.03305e-11
-2.7086e-11
-5.03443e-11
4.9021e-11
5.08151e-11
-4.98739e-11
-1.05548e-07
-4.36386e-11
3.98734e-13
1.02963e-13
1.05549e-07
1.58173e-11
4.40222e-11
-1.68075e-11
2.74906e-12
2.01287e-11
-2.25654e-12
-2.12855e-11
-2.55125e-08
2.97144e-11
4.42599e-11
4.19473e-11
2.72531e-11
2.53694e-08
-1.4636e-12
4.81275e-13
-1.08783e-07
-5.90016e-13
8.65987e-13
1.08784e-07
-1.04687e-07
-3.92786e-11
-6.23423e-13
3.44863e-13
1.04686e-07
2.68204e-11
4.01159e-11
-2.38741e-11
-5.04566e-11
4.90373e-11
5.08774e-11
-5.21845e-11
-1.05548e-07
-4.35436e-11
4.27038e-13
4.29886e-13
1.05548e-07
1.58383e-11
4.38884e-11
-1.68748e-11
2.68063e-12
2.03407e-11
-2.13595e-12
-2.13271e-11
-2.55125e-08
2.94699e-11
4.41284e-11
4.20568e-11
2.74281e-11
2.53694e-08
-1.58133e-12
2.71751e-13
-1.08783e-07
-5.28956e-13
8.99901e-13
1.08784e-07
-1.04687e-07
-3.92986e-11
-1.06894e-12
-1.5406e-13
1.04688e-07
2.70221e-11
3.99913e-11
-2.73555e-11
-5.0363e-11
4.90672e-11
5.07981e-11
-4.98956e-11
-1.05547e-07
-4.35542e-11
5.48508e-13
3.57563e-13
1.05547e-07
1.59041e-11
4.38529e-11
-1.69693e-11
2.63772e-12
2.01916e-11
-2.25321e-12
-2.13543e-11
-2.55126e-08
2.96165e-11
4.41889e-11
4.19639e-11
2.71956e-11
2.53696e-08
-1.10401e-12
1.00737e-13
-1.08784e-07
-2.02781e-13
5.81699e-13
1.08785e-07
-1.04689e-07
-3.89644e-11
-9.858e-13
-3.21807e-13
1.04689e-07
2.7328e-11
3.99344e-11
-2.39732e-11
-5.05421e-11
4.90154e-11
5.10482e-11
-5.23094e-11
-1.05547e-07
-4.36394e-11
6.44643e-13
7.36858e-13
1.05548e-07
1.58153e-11
4.36635e-11
-1.71453e-11
2.5187e-12
2.03989e-11
-2.19873e-12
-2.1668e-11
-2.55127e-08
2.96316e-11
4.40958e-11
4.20038e-11
2.71471e-11
2.53698e-08
-6.31477e-14
1.8255e-13
-1.08786e-07
-3.00323e-12
2.11517e-12
1.08786e-07
-1.0469e-07
-3.85084e-11
-1.29907e-12
-1.58559e-12
1.04691e-07
2.77614e-11
3.9911e-11
-2.75809e-11
-5.05839e-11
4.94654e-11
5.1429e-11
-5.01195e-11
-1.05548e-07
-4.34043e-11
-2.79517e-13
1.3775e-13
1.05549e-07
1.59809e-11
4.36374e-11
-1.70271e-11
2.58414e-12
2.03979e-11
-1.91032e-12
-2.16743e-11
-2.55124e-08
2.92782e-11
4.38869e-11
4.21009e-11
2.74074e-11
2.53698e-08
-1.17813e-12
-1.09489e-07
4.26789e-14
-2.75623e-12
2.19509e-12
1.0949e-07
-1.05455e-07
-4.33459e-11
7.18856e-13
-3.203e-12
9.16025e-11
4.60074e-11
-8.99507e-11
-4.30589e-10
3.22082e-10
4.30897e-10
-3.23337e-10
-1.06034e-07
2.33907e-10
8.26776e-13
1.38939e-12
1.80886e-10
-2.32611e-10
-1.81315e-10
-1.01404e-10
2.28785e-10
1.02584e-10
-2.29702e-10
1.06031e-07
-2.56579e-08
-2.54448e-10
-2.33864e-10
2.9775e-10
2.43269e-10
2.56052e-08
2.98466e-10
2.42301e-10
2.56018e-08
-2.56594e-08
-1.97811e-10
3.0552e-12
2.55129e-08
-2.53652e-08
-4.37121e-11
-2.32701e-11
-8.36884e-11
1.71245e-10
1.05117e-07
1.93439e-11
-8.99313e-12
-2.29483e-11
2.09478e-11
2.01006e-11
-1.57778e-11
-1.90289e-11
-1.05244e-07
-5.42093e-11
-1.0553e-07
1.89123e-10
-3.53875e-10
-2.00267e-11
-1.83361e-10
-3.11955e-10
-1.91962e-11
1.87526e-11
-2.30417e-10
1.24946e-09
1.31032e-13
1.05187e-07
-1.05065e-07
-2.28862e-10
3.48327e-12
-2.02997e-11
2.11496e-11
-2.03129e-11
-1.924e-11
1.50311e-11
1.93218e-11
1.08118e-10
-2.53731e-08
-4.40917e-11
-2.21766e-11
-8.25425e-11
3.61243e-11
3.87201e-11
3.49471e-11
3.43701e-11
2.53566e-08
-2.55007e-08
-3.7017e-11
-4.06367e-11
2.54989e-08
-2.53547e-08
-3.31232e-11
-3.34435e-11
3.46565e-12
1.06536e-07
1.1496e-11
3.63584e-11
-1.20402e-11
2.59819e-11
1.92086e-11
-1.95138e-11
-2.44074e-11
-1.06537e-07
-3.66772e-11
-3.30444e-12
4.63121e-12
1.06574e-07
1.10588e-11
3.66649e-11
-1.29265e-11
2.65596e-11
1.90639e-11
-1.91288e-11
-2.48817e-11
-1.06576e-07
1.06532e-07
-2.36106e-12
-1.06533e-07
1.02997e-12
-3.6174e-11
-1.19817e-11
1.1292e-11
-2.41164e-11
-1.92793e-11
1.93696e-11
2.60713e-11
3.74247e-11
1.06571e-07
-2.02534e-12
-1.06573e-07
1.32034e-12
-3.6374e-11
-1.23586e-11
1.1767e-11
-2.43929e-11
-1.88702e-11
1.89535e-11
2.58577e-11
3.4725e-11
3.45726e-11
2.53585e-08
-2.5503e-08
-4.11519e-11
2.55025e-08
-2.53575e-08
-3.26122e-11
-3.38219e-11
-8.8672e-12
1.04689e-07
2.76008e-11
3.98242e-11
-2.6819e-11
-4.95847e-11
4.90041e-11
-4.91285e-11
5.12755e-11
-1.04687e-07
-8.75969e-11
-3.20529e-10
6.24803e-10
1.05775e-07
2.00288e-11
3.20693e-11
-2.40552e-11
-3.19675e-11
4.87538e-11
-4.87385e-11
4.58773e-11
-1.06034e-07
1.04682e-07
-7.54617e-13
-1.04684e-07
-1.10509e-12
-3.88271e-11
-2.67976e-11
2.72714e-11
5.13619e-11
-4.89272e-11
4.86367e-11
-4.96142e-11
3.13379e-11
1.05657e-07
-2.89492e-13
-1.05658e-07
-6.16531e-13
-2.95796e-11
-2.40676e-11
2.42034e-11
3.22282e-11
-4.82661e-11
4.7954e-11
-3.12405e-11
-3.05166e-10
6.36856e-10
1.05795e-07
2.06324e-11
3.49615e-11
-2.31504e-11
-3.2954e-11
4.82605e-11
-4.95639e-11
4.57883e-11
-1.06089e-07
-1.47027e-12
-1.04682e-07
-2.01014e-12
-3.88224e-11
-2.6776e-11
2.76237e-11
5.11949e-11
-4.90406e-11
-4.96805e-11
4.9022e-11
3.17288e-11
1.05675e-07
4.54054e-13
-1.05677e-07
-4.51699e-13
-2.95929e-11
-2.36246e-11
2.3598e-11
3.24117e-11
-4.83398e-11
4.79757e-11
-3.15965e-11
4.44536e-11
2.46608e-11
2.53628e-08
-4.47441e-11
2.55029e-08
-2.53599e-08
-4.06399e-11
-2.63048e-11
4.46856e-10
-7.84168e-10
1.05503e-07
1.73703e-11
3.91879e-11
-1.77269e-11
3.63089e-12
1.87262e-11
-2.03123e-11
-1.93318e-11
-3.02424e-12
-1.05541e-07
3.51675e-13
-4.40081e-11
-1.58576e-11
1.55116e-11
-1.69349e-12
-1.99891e-11
3.74912e-12
2.04852e-11
4.50432e-11
1.05593e-07
-2.49533e-12
-1.05592e-07
4.04187e-13
-4.46939e-11
-1.61138e-11
1.53034e-11
-1.93187e-12
-2.00448e-11
2.00353e-11
3.7237e-12
-2.53692e-08
-4.11855e-11
-2.5706e-11
3.63795e-11
3.89974e-11
3.45492e-11
3.43718e-11
2.53546e-08
-3.67069e-11
-4.02335e-11
2.54992e-08
-2.53551e-08
-3.34941e-11
-3.36885e-11
2.0928e-12
1.06532e-07
1.09583e-11
3.66025e-11
-1.23245e-11
2.56071e-11
1.88148e-11
-2.46021e-11
-1.97241e-11
-3.63815e-11
-1.12857e-13
1.3194e-12
1.06572e-07
1.17041e-11
3.7195e-11
-1.6033e-11
2.55647e-11
1.8806e-11
-2.48288e-11
-1.73641e-11
1.06532e-07
-2.66362e-13
-1.06532e-07
2.34588e-12
-3.65159e-11
-1.22794e-11
1.09438e-11
-2.5118e-11
-1.99587e-11
1.83913e-11
2.50308e-11
3.73809e-11
1.06569e-07
8.53863e-13
-1.06569e-07
1.73327e-13
-3.62204e-11
-1.23953e-11
1.1859e-11
-2.52459e-11
-1.99985e-11
1.83704e-11
2.50246e-11
3.42853e-11
3.5119e-11
2.53576e-08
-4.04783e-11
2.55029e-08
-2.53581e-08
-3.3191e-11
-3.37666e-11
-5.70691e-13
1.04681e-07
2.701e-11
4.02091e-11
-2.7109e-11
-4.99808e-11
4.82955e-11
5.06355e-11
-4.92632e-11
-2.96996e-11
9.89419e-13
-6.50795e-14
1.05656e-07
2.40238e-11
3.09997e-11
-2.44196e-11
-3.16319e-11
4.74431e-11
3.16452e-11
-4.86893e-11
1.04683e-07
4.39261e-13
-1.04682e-07
-1.64128e-13
-3.92087e-11
-2.71808e-11
2.66691e-11
5.02504e-11
-4.93971e-11
4.78031e-11
-5.05466e-11
3.0965e-11
1.05657e-07
1.70808e-12
-1.05656e-07
3.4783e-14
-2.98235e-11
-2.45733e-11
2.37884e-11
3.13696e-11
-4.90512e-11
4.70816e-11
-3.23619e-11
5.10374e-13
6.54368e-14
1.05674e-07
2.33927e-11
3.11909e-11
-2.41088e-11
-3.17277e-11
4.78636e-11
-4.86562e-11
3.19806e-11
-8.39844e-13
-1.0468e-07
-5.85067e-13
-3.94546e-11
-2.72645e-11
2.6968e-11
5.10206e-11
-4.90546e-11
-4.98541e-11
4.90136e-11
3.10498e-11
1.05674e-07
-3.42113e-14
-1.05673e-07
3.23742e-13
-3.01794e-11
-2.4089e-11
2.31877e-11
3.20188e-11
-4.87653e-11
4.78045e-11
-3.19015e-11
4.11968e-11
2.79658e-11
2.53598e-08
-4.42422e-11
2.55034e-08
-2.53606e-08
-4.08701e-11
-2.67248e-11
-9.0311e-13
5.34042e-13
1.05593e-07
1.54196e-11
4.48464e-11
-1.62205e-11
3.62807e-12
1.96409e-11
-2.03774e-11
-2.33903e-12
-1.20705e-13
-1.05544e-07
8.49391e-13
-4.39395e-11
-1.6317e-11
1.54634e-11
-2.24745e-12
-2.07333e-11
2.86522e-12
1.97602e-11
4.53055e-11
1.05594e-07
1.43261e-13
-1.05593e-07
-1.0811e-12
-4.426e-11
-1.58742e-11
1.56594e-11
-2.66698e-12
-2.0547e-11
1.93029e-11
3.03667e-12
-2.53692e-08
-4.09628e-11
-2.62563e-11
3.65606e-11
3.93769e-11
3.41118e-11
3.40771e-11
2.53551e-08
-3.71487e-11
-4.0015e-11
2.54999e-08
-2.5356e-08
-3.34576e-11
-3.33558e-11
2.24803e-12
1.06533e-07
1.08733e-11
3.67036e-11
-1.2305e-11
2.49165e-11
1.83357e-11
-2.53646e-11
-2.03436e-11
-3.62154e-11
1.82031e-12
2.13626e-13
1.06569e-07
1.18677e-11
3.73122e-11
-1.25039e-11
2.51182e-11
1.81138e-11
-2.56468e-11
-2.01453e-11
1.06533e-07
4.16712e-13
-1.06532e-07
3.43789e-13
-3.59938e-11
-1.18284e-11
1.14194e-11
-2.53363e-11
-2.01221e-11
1.83283e-11
2.46895e-11
3.7332e-11
1.06569e-07
1.26944e-12
-1.06568e-07
-3.72888e-13
-3.62169e-11
-1.26469e-11
1.18232e-11
-2.52679e-11
-1.97823e-11
1.83776e-11
2.51532e-11
3.37982e-11
3.52514e-11
2.53581e-08
-4.05443e-11
2.55032e-08
-2.53584e-08
-3.29916e-11
-3.38985e-11
4.23833e-14
1.04683e-07
2.65177e-11
4.00223e-11
-2.73106e-11
-5.02935e-11
4.76304e-11
4.99885e-11
-4.93434e-11
-2.99104e-11
2.05539e-12
3.60691e-13
1.05658e-07
2.36584e-11
3.08681e-11
-2.46522e-11
-3.20581e-11
4.6965e-11
3.10441e-11
-4.90476e-11
1.04686e-07
-6.6038e-13
-1.04684e-07
2.73168e-14
-3.93006e-11
-2.75707e-11
2.6642e-11
5.04267e-11
-4.93135e-11
4.82464e-11
-5.00976e-11
3.08035e-11
1.05659e-07
4.10271e-13
-1.05658e-07
2.51429e-13
-2.98704e-11
-2.46511e-11
2.37288e-11
3.1714e-11
-4.87685e-11
4.73743e-11
-3.19171e-11
1.62747e-14
6.0521e-13
1.05674e-07
2.32731e-11
3.09796e-11
-2.41349e-11
-3.17316e-11
4.76559e-11
-4.87487e-11
3.16565e-11
-1.6562e-12
-1.04683e-07
-5.60277e-13
-3.93187e-11
-2.72289e-11
2.71553e-11
5.1094e-11
-4.91502e-11
-4.99031e-11
4.8804e-11
3.11963e-11
1.05675e-07
-1.13532e-12
-1.05674e-07
-1.28621e-13
-3.00245e-11
-2.39007e-11
2.34982e-11
3.20903e-11
-4.86507e-11
4.78692e-11
-3.17654e-11
4.10283e-11
2.76412e-11
2.53608e-08
-4.46764e-11
2.55047e-08
-2.53619e-08
-4.03502e-11
-2.69674e-11
7.08959e-13
-1.17957e-12
1.05595e-07
1.55575e-11
4.52459e-11
-1.59239e-11
3.12679e-12
1.90588e-11
-2.05169e-11
-3.02643e-12
6.22151e-13
-1.05547e-07
-4.72721e-13
-4.34575e-11
-1.59666e-11
1.5868e-11
-2.43826e-12
-2.09051e-11
2.5995e-12
1.95859e-11
4.53175e-11
1.05596e-07
4.88602e-13
-1.05595e-07
-1.5337e-12
-4.41817e-11
-1.60716e-11
1.56783e-11
-2.65861e-12
-2.05587e-11
1.96457e-11
3.1814e-12
-2.53695e-08
-4.10361e-11
-2.59791e-11
3.60267e-11
3.94856e-11
3.37742e-11
3.45214e-11
2.53561e-08
-3.74422e-11
-4.00152e-11
2.55011e-08
-2.53571e-08
-3.3399e-11
-3.31621e-11
1.88515e-13
1.06534e-07
1.1472e-11
3.71246e-11
-1.18569e-11
2.4671e-11
1.80361e-11
-2.57325e-11
-2.03229e-11
-3.642e-11
1.9636e-12
1.13499e-13
1.0657e-07
1.15941e-11
3.72055e-11
-1.62042e-11
2.51468e-11
1.81514e-11
-2.56491e-11
-1.74589e-11
1.06534e-07
1.40911e-12
-1.06534e-07
-8.30196e-13
-3.57215e-11
-1.16852e-11