/*--------------------------------*- C++ -*----------------------------------*\
| =========                 |                                                 |
| \\      /  F ield         | OpenFOAM: The Open Source CFD Toolbox           |
|  \\    /   O peration     | Version:  2206                                  |
|   \\  /    A nd           | Website:  www.openfoam.com                      |
|    \\/     M anipulation  |                                                 |
\*---------------------------------------------------------------------------*/
FoamFile
{
    version     2.0;
    format      ascii;
    arch        "LSB;label=32;scalar=64";
    class       volVectorField;
    location    "30";
    object      wallShearStress;
}
// * * * * * * * * * * * * * * * * * * * * * * * * * * * * * * * * * * * * * //

dimensions      [0 2 -2 0 0 0 0];

internalField   uniform (0 0 0);

boundaryField
{
    topPatch
    {
        type            calculated;
        value           nonuniform List<vector> 0();
    }
    wall
    {
        type            calculated;
        value           nonuniform List<vector> 
7718
(
(8.91359e-09 -3.1594e-08 -0.000158397)
(-1.23876e-08 6.36958e-09 -0.000158747)
(-2.01362e-09 -2.63552e-08 -0.000148305)
(-3.78799e-10 5.294e-09 -0.000148349)
(-8.30001e-09 1.21137e-08 -0.00015841)
(-1.98787e-08 -2.18204e-08 -0.000158766)
(-1.01828e-08 6.15348e-09 -0.000152961)
(-5.84121e-09 -2.14267e-09 -0.000155085)
(-9.17001e-09 -1.82101e-08 -0.000152979)
(-9.15574e-09 -7.06155e-09 -0.000155078)
(2.9113e-08 -3.92036e-08 -0.000158401)
(8.81322e-09 -3.10211e-08 -0.000158377)
(1.90357e-08 -1.41772e-08 -0.000148342)
(-1.72424e-09 -2.93393e-08 -0.000148279)
(-3.98125e-09 8.98791e-09 -0.000148332)
(-1.0522e-08 7.56153e-09 -0.000158407)
(2.12197e-08 -1.95118e-08 -0.000158638)
(1.51353e-08 -2.48363e-08 -0.00015319)
(-7.53366e-09 2.26113e-09 -0.000155066)
(-1.07832e-08 6.74337e-09 -0.00015294)
(1.00299e-08 -1.10978e-08 -0.000155292)
(1.69567e-08 -6.50445e-09 -0.000148596)
(1.05825e-08 1.25284e-08 -0.000153201)
(-9.19225e-09 -3.57481e-09 -0.000155068)
(-9.99297e-09 -1.47917e-08 -0.000152969)
(9.20679e-09 2.1265e-09 -0.000155297)
(5.09474e-09 -1.10032e-08 -0.000148622)
(1.0836e-08 -3.11275e-09 -0.000158676)
(1.20911e-08 -1.05224e-08 -0.000149406)
(1.64106e-08 -5.04192e-09 -0.00015851)
(1.36035e-08 -3.72311e-08 -0.000158735)
(4.8163e-08 -3.62497e-08 -0.000149228)
(4.39016e-08 -2.32313e-08 -0.000149504)
(3.19477e-08 -4.47013e-08 -0.000158711)
(3.87799e-09 -2.72193e-08 -0.000149178)
(3.82836e-08 -2.57526e-08 -0.000149477)
(6.08874e-08 -3.5215e-08 -0.000159042)
(2.97772e-08 -1.68961e-08 -0.000158986)
(1.96675e-08 -2.70826e-08 -0.000159048)
(-1.19809e-08 4.03865e-09 -0.000158725)
(1.49013e-08 9.64399e-09 -0.000159082)
(-1.61302e-08 -1.92982e-08 -0.000158761)
(1.54593e-08 8.16011e-09 -0.000149489)
(1.09115e-08 -7.41058e-09 -0.000159027)
(2.40972e-08 7.20199e-09 -0.000159009)
(-4.76259e-09 4.07572e-09 -0.000158383)
(4.25532e-09 -1.57793e-08 -0.00015863)
(-9.31576e-09 -8.91798e-09 -0.000147925)
(1.94331e-08 7.18025e-09 -0.000148324)
(2.63302e-08 3.34927e-09 -0.000158163)
(-1.28785e-08 6.49177e-09 -0.00015848)
(-4.14565e-09 -1.72452e-08 -0.000148131)
(9.33357e-09 1.39703e-08 -0.000148531)
(-3.64271e-09 1.13972e-08 -0.000158225)
(6.9324e-09 -1.33566e-08 -0.000158571)
(-1.69464e-08 -6.73812e-09 -0.00014805)
(1.58806e-08 7.38719e-09 -0.000148412)
(4.81708e-09 -9.2525e-09 -0.000158215)
(-1.83648e-08 3.02769e-09 -0.000158535)
(-1.11892e-08 -3.44812e-09 -0.000148338)
(6.69069e-09 1.55192e-08 -0.000148647)
(-1.10568e-08 -1.0896e-10 -0.000158417)
(3.75884e-09 -1.50223e-08 -0.000158688)
(-1.62123e-08 -6.9701e-09 -0.000148077)
(1.63914e-08 7.33287e-09 -0.000148425)
(9.96125e-09 -8.32583e-09 -0.000158246)
(-1.47293e-08 4.27853e-09 -0.000158565)
(-7.0494e-09 -1.21352e-08 -0.000148328)
(9.7277e-09 5.83817e-09 -0.000148618)
(-7.6249e-09 1.15862e-08 -0.000158414)
(9.4751e-09 -3.69321e-09 -0.000158676)
(-1.16932e-08 -8.63448e-09 -0.000148078)
(1.97153e-08 7.28439e-09 -0.000148425)
(1.83305e-08 -1.97706e-09 -0.000158254)
(-9.00438e-09 9.72059e-09 -0.000158558)
(-7.14704e-09 -1.18957e-08 -0.000148306)
(9.47321e-09 9.53651e-09 -0.000148609)
(-3.18068e-09 1.49894e-08 -0.000158406)
(9.8572e-09 -4.2005e-09 -0.000158672)
(-1.04872e-08 -8.4485e-09 -0.000148064)
(2.14762e-08 6.67626e-09 -0.000148406)
(1.13566e-08 -5.54042e-09 -0.000158234)
(-1.46393e-08 6.47828e-09 -0.000158537)
(-6.53457e-09 -1.09869e-08 -0.000148305)
(1.07652e-08 9.41529e-09 -0.000148595)
(-3.63547e-09 1.16101e-08 -0.000158416)
(9.55773e-09 -6.21347e-09 -0.000158672)
(-1.61689e-08 -5.17093e-09 -0.000148045)
(1.50605e-08 8.45814e-09 -0.000148389)
(1.38497e-08 -3.4771e-09 -0.000158207)
(-1.13219e-08 7.8064e-09 -0.000158499)
(-5.07986e-09 -1.4403e-08 -0.000148288)
(1.20346e-08 4.46439e-09 -0.00014858)
(-5.5494e-09 7.40364e-09 -0.0001584)
(6.72221e-09 -1.10712e-08 -0.000158653)
(-1.7363e-08 -6.58314e-09 -0.000148035)
(1.64857e-08 6.99869e-09 -0.000148376)
(1.31752e-08 -4.12567e-09 -0.000158181)
(-1.64219e-08 4.08601e-09 -0.000158495)
(-7.72077e-09 -1.4592e-08 -0.000148273)
(8.94096e-09 1.02476e-08 -0.000148567)
(-6.59974e-09 9.37952e-09 -0.000158393)
(5.90678e-09 -1.19394e-08 -0.000158661)
(-1.60409e-08 -8.34696e-09 -0.000148033)
(1.42575e-08 7.76141e-09 -0.000148377)
(1.45469e-08 -6.07036e-09 -0.00015819)
(-1.1622e-08 6.80709e-09 -0.000158499)
(-9.43493e-09 -9.89939e-09 -0.000148278)
(8.88012e-09 8.41607e-09 -0.000148583)
(-7.63716e-09 9.60484e-09 -0.000158401)
(7.83255e-09 -7.12979e-09 -0.000158665)
(-1.56985e-08 -8.79278e-09 -0.000148022)
(1.76746e-08 6.25103e-09 -0.000148376)
(1.47732e-08 -5.646e-09 -0.000158189)
(-1.22328e-08 6.1526e-09 -0.000158504)
(-9.58461e-09 -9.88117e-09 -0.000148288)
(8.80307e-09 1.09986e-08 -0.000148587)
(-4.58574e-09 1.55539e-08 -0.000158399)
(7.93045e-09 -7.30002e-09 -0.000158654)
(-1.32575e-08 -8.80307e-09 -0.000148032)
(1.79954e-08 5.78623e-09 -0.000148382)
(1.81614e-08 -3.17336e-09 -0.000158208)
(-5.33363e-09 9.40896e-09 -0.000158527)
(-9.04255e-09 -9.63074e-09 -0.000148277)
(7.78334e-09 1.04956e-08 -0.000148574)
(-6.46401e-09 9.67837e-09 -0.00015839)
(6.16808e-09 -8.43574e-09 -0.000158651)
(-1.63177e-08 -8.40297e-09 -0.000148045)
(1.60747e-08 6.16032e-09 -0.000148402)
(1.7577e-08 -4.36393e-09 -0.000158226)
(-1.04982e-08 6.47586e-09 -0.000158545)
(-9.1041e-09 -1.26094e-08 -0.000148279)
(7.88971e-09 7.65078e-09 -0.000148583)
(-7.65749e-09 8.44474e-09 -0.000158387)
(6.44683e-09 -7.96787e-09 -0.000158652)
(-1.57552e-08 -9.34388e-09 -0.000148059)
(1.74931e-08 4.93433e-09 -0.000148412)
(1.34267e-08 -6.86476e-09 -0.000158251)
(-1.06365e-08 6.64302e-09 -0.000158567)
(-9.0007e-09 -1.08782e-08 -0.000148294)
(5.9872e-09 1.0609e-08 -0.000148602)
(-7.69595e-09 1.05519e-08 -0.000158396)
(5.12789e-09 -9.00715e-09 -0.000158664)
(-1.61136e-08 -8.84031e-09 -0.000148068)
(1.26797e-08 6.8738e-09 -0.000148429)
(1.18875e-08 -8.78098e-09 -0.00015826)
(-1.27769e-08 3.20588e-09 -0.000158582)
(-1.17739e-08 -7.92949e-09 -0.000148313)
(6.62414e-09 1.07584e-08 -0.000148625)
(-6.3173e-09 1.27117e-08 -0.000158415)
(7.63397e-09 -4.83768e-09 -0.000158684)
(-1.85048e-08 -9.11775e-09 -0.000148069)
(1.35452e-08 6.98279e-09 -0.000148453)
(1.60052e-08 -6.2569e-09 -0.000158265)
(-1.03211e-08 6.65357e-09 -0.00015862)
(-1.13664e-08 -1.14061e-08 -0.000148332)
(8.17429e-09 9.77553e-09 -0.000148642)
(-6.99364e-09 1.17774e-08 -0.000158431)
(6.66371e-09 -8.36763e-09 -0.000158704)
(-1.65224e-08 -9.41162e-09 -0.000148065)
(5.52968e-11 1.4257e-08 -0.000148472)
(1.99667e-08 -4.26222e-09 -0.000158253)
(5.67751e-09 1.51867e-08 -0.000158633)
(-1.19425e-08 -5.34965e-09 -0.000148325)
(8.25777e-09 1.28379e-08 -0.000148631)
(-6.84937e-09 1.13475e-08 -0.000158428)
(6.81733e-09 -9.58564e-09 -0.000158707)
(1.51785e-08 5.88941e-11 -0.000158294)
(-7.99013e-09 -1.37448e-08 -0.000148305)
(-7.21313e-09 1.06529e-08 -0.000158428)
(-3.08084e-08 -3.3626e-09 -0.000158198)
(-5.35279e-09 -1.5273e-08 -0.000158471)
(1.07303e-08 9.79973e-10 -0.000158475)
(-6.84354e-09 1.23091e-08 -0.000158332)
(1.9162e-08 -2.53147e-10 -0.000158383)
(-2.68512e-08 -8.66085e-10 -0.000158139)
(-3.53835e-08 -1.1163e-10 -0.00014804)
(1.96024e-09 -1.32599e-08 -0.000148331)
(2.39815e-08 4.64682e-09 -0.000148035)
(5.56584e-09 -1.68377e-08 -0.000148333)
(2.72821e-08 -1.49717e-09 -0.000148263)
(-2.66367e-08 4.32939e-09 -0.000147959)
(-1.51052e-09 -1.42602e-08 -0.000148325)
(4.06796e-08 -3.04876e-09 -0.000147987)
(3.46637e-09 1.11624e-08 -0.000158368)
(-1.52096e-09 -2.0368e-08 -0.00015863)
(1.81412e-08 2.46648e-09 -0.000158196)
(8.8026e-09 -1.91273e-08 -0.000158459)
(-8.97488e-09 -5.5266e-09 -0.000158614)
(1.25114e-08 -2.99342e-09 -0.000158366)
(-4.46935e-09 -1.0669e-08 -0.000158456)
(3.88144e-08 -9.50051e-09 -0.000158163)
(-4.86922e-09 -7.74468e-09 -0.000158083)
(1.18324e-08 7.41039e-09 -0.000158439)
(-7.63046e-10 -1.50776e-08 -0.000158219)
(7.89596e-09 1.08507e-08 -0.000158569)
(7.07943e-09 8.8579e-09 -0.000158501)
(-1.84422e-08 -2.19132e-09 -0.000158161)
(4.17862e-09 1.50548e-08 -0.000158653)
(-7.90226e-09 -3.79153e-09 -0.000158338)
(3.27968e-08 2.65871e-10 -0.000147983)
(-1.71241e-08 7.52295e-09 -0.000148344)
(1.4915e-08 8.5851e-09 -0.000148379)
(-1.77197e-08 -7.2957e-09 -0.000147994)
(-2.93985e-08 2.20361e-09 -0.00014837)
(1.14548e-08 -9.51557e-09 -0.00014801)
(1.01201e-08 1.58158e-10 -0.000158384)
(-4.10602e-09 1.41199e-08 -0.000158629)
(-2.15856e-08 3.7642e-11 -0.000158503)
(1.05976e-08 -5.92518e-09 -0.000158182)
(-5.92899e-09 8.33037e-09 -0.00015863)
(8.8775e-09 -3.34513e-09 -0.000158381)
(-5.32808e-09 1.42255e-08 -0.00014815)
(8.67643e-09 -1.48165e-08 -0.000148537)
(7.48159e-09 1.62778e-08 -0.000148617)
(-8.94459e-09 -7.20577e-09 -0.000148267)
(5.89941e-09 -1.91108e-08 -0.000148625)
(-9.5721e-09 5.74839e-09 -0.000148278)
(8.28284e-09 -9.16331e-09 -0.000148298)
(-7.70592e-09 1.41287e-08 -0.000148588)
(8.90068e-09 8.53322e-09 -0.000148297)
(-7.83582e-09 -1.27452e-08 -0.000148592)
(-6.70501e-09 1.40141e-08 -0.000148588)
(9.55601e-09 -9.34581e-09 -0.000148297)
(-9.13381e-09 -1.00451e-08 -0.000148599)
(9.85247e-09 9.49935e-09 -0.000148303)
(-6.93308e-09 8.19026e-09 -0.000158082)
(1.10401e-08 -7.88293e-09 -0.000158445)
(1.76822e-09 -1.81397e-08 -0.000158653)
(-8.3369e-09 1.68605e-09 -0.000158346)
(5.1902e-09 -9.13049e-09 -0.000158509)
(-1.79089e-08 1.6288e-09 -0.00015817)
(-9.58633e-09 9.97734e-09 -0.000147921)
(1.66253e-08 -8.55258e-09 -0.000148332)
(3.21274e-08 -5.70965e-11 -0.000147982)
(-1.25913e-08 -9.00771e-09 -0.000148347)
(1.44261e-08 -7.91053e-09 -0.000148387)
(-1.81815e-08 6.3398e-09 -0.000148008)
(-2.33109e-08 -4.74131e-09 -0.000148368)
(1.83973e-08 6.77307e-09 -0.000148011)
(7.97274e-09 5.04431e-09 -0.000158361)
(-6.20237e-09 -9.03099e-09 -0.000158617)
(2.46849e-08 -1.71644e-09 -0.000158161)
(-9.40925e-09 -8.47092e-09 -0.000158481)
(-6.42709e-09 -7.07783e-09 -0.000158619)
(8.35141e-09 6.7736e-09 -0.000158359)
(-1.56469e-08 -3.27845e-09 -0.000158498)
(1.66459e-08 2.90362e-09 -0.000158187)
(-1.62866e-08 -2.03639e-09 -0.000158224)
(8.80984e-09 7.1709e-09 -0.000158537)
(-1.01073e-08 3.67529e-10 -0.000158409)
(3.69042e-09 1.47358e-08 -0.000158676)
(9.85932e-09 5.86987e-09 -0.000158545)
(-1.78814e-08 -3.5866e-09 -0.000158244)
(6.10548e-09 8.54809e-09 -0.000158654)
(-7.92973e-09 -7.729e-09 -0.000158418)
(3.88015e-09 -1.21582e-08 -0.000148037)
(-2.67804e-08 3.4118e-09 -0.000148401)
(1.63848e-08 6.75955e-09 -0.000148411)
(-1.78016e-08 -7.50907e-09 -0.000148068)
(-2.38195e-08 2.83731e-09 -0.000148407)
(8.16788e-09 -1.13841e-08 -0.000148067)
(6.99802e-09 -6.99932e-09 -0.000158383)
(-3.50223e-09 1.36404e-08 -0.000158647)
(-2.01637e-08 3.39094e-10 -0.000158544)
(7.11493e-09 -8.99575e-09 -0.000158246)
(-9.07341e-09 8.44491e-10 -0.000158649)
(6.23347e-09 -9.93589e-09 -0.000158394)
(-1.01778e-08 5.25961e-09 -0.000148344)
(7.11684e-09 -1.41693e-08 -0.000148654)
(6.71483e-09 1.22104e-08 -0.000148623)
(-9.93695e-09 -8.3658e-09 -0.000148344)
(5.61203e-09 -1.38335e-08 -0.000148636)
(-1.13637e-08 6.93534e-09 -0.00014836)
(9.46306e-09 -9.29083e-09 -0.0001483)
(-7.27803e-09 1.40082e-08 -0.000148608)
(8.37739e-09 1.22093e-08 -0.000148308)
(-8.6387e-09 -9.55339e-09 -0.000148612)
(-7.54258e-09 8.63894e-09 -0.000148598)
(9.3291e-09 -1.15675e-08 -0.000148311)
(-6.2389e-09 -1.19155e-08 -0.000148604)
(9.32287e-09 1.08715e-08 -0.000148321)
(-2.02669e-08 6.45333e-10 -0.00015822)
(1.12665e-08 -6.33361e-09 -0.000158546)
(5.47853e-09 -8.26851e-09 -0.000158673)
(-9.81863e-09 4.82797e-09 -0.000158431)
(1.36e-08 -3.81949e-09 -0.000158542)
(-1.6346e-08 4.44825e-09 -0.00015825)
(-2.00628e-08 6.12159e-09 -0.000148054)
(1.5636e-08 -8.45175e-09 -0.00014843)
(1.26124e-08 8.99313e-09 -0.000148027)
(-2.55473e-08 -3.80146e-09 -0.000148394)
(1.95111e-08 -4.60535e-09 -0.000148419)
(-1.86628e-08 7.52942e-09 -0.000148082)
(-2.70564e-08 -1.80236e-09 -0.000148395)
(7.02561e-09 1.23209e-08 -0.000148049)
(4.99775e-09 9.65049e-09 -0.00015837)
(-7.82611e-09 -6.41885e-09 -0.000158631)
(1.08094e-08 5.2126e-09 -0.000158209)
(-2.03835e-08 -1.94912e-09 -0.00015852)
(-6.48865e-09 -6.41892e-09 -0.000158622)
(6.39885e-09 9.78654e-09 -0.000158374)
(-1.9595e-08 -9.10715e-11 -0.000158522)
(7.35729e-09 8.83057e-09 -0.000158223)
(-1.27615e-08 -5.31178e-09 -0.000158246)
(1.4882e-08 3.49899e-09 -0.000158553)
(-7.58634e-09 -9.07636e-09 -0.000158395)
(8.77413e-09 5.19021e-09 -0.000158653)
(1.82957e-08 2.02056e-09 -0.000158542)
(-1.09755e-08 -6.82253e-09 -0.000158252)
(8.89388e-09 5.17191e-09 -0.000158641)
(-5.45493e-09 -1.35422e-08 -0.000158396)
(1.38932e-08 -9.46499e-09 -0.000148064)
(-1.41726e-08 8.10597e-09 -0.000148427)
(2.32687e-08 4.80964e-09 -0.000148415)
(-1.65911e-08 -7.95144e-09 -0.000148079)
(-1.36977e-08 8.66655e-09 -0.000148415)
(1.97806e-08 -6.73955e-09 -0.000148083)
(4.77953e-09 -1.44793e-08 -0.000158395)
(-8.34546e-09 5.98964e-09 -0.000158667)
(-9.92267e-09 6.69221e-09 -0.000158554)
(1.5813e-08 -4.30143e-09 -0.000158265)
(-8.77709e-09 4.46869e-09 -0.000158663)
(4.18124e-09 -1.25977e-08 -0.000158417)
(-9.63884e-09 1.23301e-08 -0.00014834)
(1.06479e-08 -5.04129e-09 -0.000148634)
(8.32089e-09 9.87096e-09 -0.000148601)
(-7.3314e-09 -1.6169e-08 -0.000148316)
(7.89848e-09 -1.11634e-08 -0.00014862)
(-7.91839e-09 1.60416e-08 -0.000148343)
(8.22869e-09 -1.51092e-08 -0.000148307)
(-1.01553e-08 6.58409e-09 -0.000148618)
(8.39008e-09 1.31938e-08 -0.000148314)
(-9.51502e-09 -8.04608e-09 -0.000148617)
(-7.55595e-09 1.14624e-08 -0.000148609)
(6.89663e-09 -1.50688e-08 -0.000148327)
(-8.20979e-09 -1.05619e-08 -0.00014861)
(7.30714e-09 1.34326e-08 -0.000148326)
(-1.35786e-08 6.51663e-09 -0.000158238)
(1.67037e-08 -3.40428e-09 -0.000158542)
(9.21387e-09 -2.16044e-09 -0.000158663)
(-3.45527e-09 1.62827e-08 -0.000158421)
(1.97355e-08 -1.30732e-09 -0.000158524)
(-1.25829e-08 6.24415e-09 -0.000158241)
(-1.64697e-08 8.46192e-09 -0.000148072)
(1.7612e-08 -6.92252e-09 -0.000148424)
(1.39559e-08 1.00644e-08 -0.00014805)
(-1.84105e-08 -7.1141e-09 -0.000148415)
(2.6742e-08 -2.76327e-09 -0.000148406)
(-1.51589e-08 8.40671e-09 -0.000148076)
(-1.88258e-08 -6.04083e-09 -0.000148408)
(1.54784e-08 7.87915e-09 -0.000148069)
(6.46429e-09 1.10911e-08 -0.000158371)
(-7.56744e-09 -8.71246e-09 -0.000158632)
(1.28379e-08 6.2819e-09 -0.000158224)
(-1.61972e-08 -3.52239e-09 -0.000158542)
(-7.0745e-09 -8.50071e-09 -0.000158631)
(7.16157e-09 7.71446e-09 -0.000158382)
(-9.09307e-09 -6.77589e-09 -0.000158538)
(1.33578e-08 5.11168e-09 -0.000158241)
(-5.65905e-09 -8.8199e-09 -0.000158239)
(1.70398e-08 4.07979e-09 -0.000158546)
(-5.93479e-09 -1.07927e-08 -0.000158383)
(1.00329e-08 6.24304e-09 -0.000158653)
(1.87624e-08 3.31785e-09 -0.000158531)
(-9.32547e-09 -6.56709e-09 -0.000158244)
(9.02479e-09 9.29557e-09 -0.000158647)
(-5.08378e-09 -1.18396e-08 -0.000158398)
(2.25711e-08 -5.31239e-09 -0.000148069)
(-1.141e-08 1.07882e-08 -0.000148421)
(2.27975e-08 6.30014e-09 -0.000148409)
(-1.3338e-08 -8.61916e-09 -0.000148077)
(-1.91996e-08 7.51566e-09 -0.000148403)
(2.06171e-08 -5.53441e-09 -0.000148077)
(6.26246e-09 -9.14009e-09 -0.00015841)
(-7.29948e-09 9.86225e-09 -0.000158681)
(-1.70685e-08 3.60594e-09 -0.000158541)
(1.56894e-08 -2.95114e-09 -0.000158259)
(-1.02319e-08 4.33036e-09 -0.000158669)
(2.83632e-09 -1.18381e-08 -0.000158427)
(-8.38235e-09 1.39693e-08 -0.000148326)
(1.0508e-08 -9.82372e-09 -0.00014863)
(9.45765e-09 1.18088e-08 -0.000148599)
(-8.28606e-09 -1.22032e-08 -0.000148308)
(1.02122e-08 -1.03202e-08 -0.000148629)
(-8.27276e-09 1.29674e-08 -0.000148344)
(7.16809e-09 -1.342e-08 -0.00014832)
(-1.05939e-08 9.18142e-09 -0.000148624)
(7.51974e-09 1.30413e-08 -0.000148317)
(-8.78112e-09 -1.26329e-08 -0.000148619)
(-9.85629e-09 1.13945e-08 -0.000148611)
(6.37594e-09 -1.38023e-08 -0.000148332)
(-8.47175e-09 -1.38909e-08 -0.000148603)
(8.67e-09 9.29885e-09 -0.000148325)
(-6.91141e-09 9.04447e-09 -0.00015822)
(2.1024e-08 -3.03554e-09 -0.00015853)
(8.90748e-09 -6.16789e-09 -0.000158674)
(-3.00563e-09 1.36466e-08 -0.000158421)
(1.66438e-08 -4.79944e-09 -0.000158526)
(-8.79748e-09 6.19106e-09 -0.000158237)
(-8.62076e-09 1.09606e-08 -0.000148056)
(2.34398e-08 -5.86092e-09 -0.000148415)
(1.99027e-08 6.31349e-09 -0.000148063)
(-1.40457e-08 -9.42181e-09 -0.00014842)
(2.28878e-08 -5.94436e-09 -0.000148398)
(-1.24301e-08 8.262e-09 -0.000148068)
(-1.6508e-08 -8.89775e-09 -0.000148407)
(1.93465e-08 6.2899e-09 -0.000148074)
(6.64872e-09 8.60654e-09 -0.000158378)
(-6.09019e-09 -1.24885e-08 -0.000158638)
(1.95766e-08 1.62875e-09 -0.000158242)
(-1.02318e-08 -7.90442e-09 -0.000158549)
(-7.07881e-09 -9.46253e-09 -0.000158625)
(7.73292e-09 5.55275e-09 -0.000158381)
(-1.02723e-08 -7.79037e-09 -0.000158535)
(1.61478e-08 2.61292e-09 -0.000158247)
(-7.28672e-09 -7.2435e-09 -0.000158225)
(1.57895e-08 5.06479e-09 -0.000158528)
(-6.03052e-09 -7.30622e-09 -0.000158388)
(1.06454e-08 5.03288e-09 -0.000158644)
(1.16693e-08 6.49352e-09 -0.000158511)
(-1.21454e-08 -5.59695e-09 -0.000158226)
(9.04558e-09 7.15122e-09 -0.000158626)
(-3.4012e-09 -1.44401e-08 -0.000158381)
(1.53189e-08 -6.6255e-09 -0.000148052)
(-1.63492e-08 8.37445e-09 -0.000148395)
(1.69949e-08 7.17747e-09 -0.000148387)
(-1.42161e-08 -7.8301e-09 -0.00014806)
(-1.77891e-08 8.32165e-09 -0.000148373)
(1.63671e-08 -7.14538e-09 -0.00014805)
(3.68769e-09 -1.06569e-08 -0.000158411)
(-1.05314e-08 5.36348e-09 -0.00015866)
(-1.33547e-08 5.40957e-09 -0.000158511)
(1.42823e-08 -3.97716e-09 -0.000158231)
(-1.02254e-08 3.14844e-09 -0.000158634)
(4.03148e-09 -1.17127e-08 -0.000158405)
(-6.29544e-09 1.36118e-08 -0.000148339)
(1.0405e-08 -9.22068e-09 -0.000148627)
(1.11145e-08 8.31352e-09 -0.000148581)
(-7.85354e-09 -1.26832e-08 -0.000148294)
(9.7641e-09 -1.26245e-08 -0.000148614)
(-6.92158e-09 1.36141e-08 -0.000148342)
(6.74148e-09 -1.29116e-08 -0.00014832)
(-1.14138e-08 7.26523e-09 -0.000148612)
(6.4981e-09 1.23078e-08 -0.000148307)
(-1.01164e-08 -9.85105e-09 -0.000148598)
(-1.05142e-08 7.12684e-09 -0.00014859)
(5.78572e-09 -1.5973e-08 -0.000148321)
(-9.49695e-09 -1.16586e-08 -0.000148585)
(6.89459e-09 1.10696e-08 -0.000148307)
(-1.20556e-08 4.48183e-09 -0.000158226)
(1.65102e-08 -6.40342e-09 -0.00015853)
(7.08798e-09 -9.52011e-09 -0.000158656)
(-4.89661e-09 1.13749e-08 -0.000158416)
(1.52222e-08 -4.96369e-09 -0.000158511)
(-1.22363e-08 4.11476e-09 -0.000158232)
(-1.48687e-08 7.06256e-09 -0.00014805)
(1.6811e-08 -8.83731e-09 -0.000148399)
(2.19444e-08 4.11217e-09 -0.000148056)
(-1.65232e-08 -8.88484e-09 -0.000148401)
(2.06464e-08 -6.75463e-09 -0.000148375)
(-1.76296e-08 5.9714e-09 -0.000148054)
(-2.14473e-08 -6.5232e-09 -0.000148375)
(1.70883e-08 6.42652e-09 -0.000148053)
(4.8151e-09 9.07218e-09 -0.000158372)
(-8.6812e-09 -8.63143e-09 -0.000158623)
(1.82504e-08 5.777e-10 -0.000158235)
(-1.48247e-08 -5.51155e-09 -0.000158528)
(-8.81798e-09 -5.31637e-09 -0.000158607)
(5.87154e-09 9.26884e-09 -0.000158366)
(-1.50505e-08 -3.95606e-09 -0.000158501)
(1.37672e-08 3.84755e-09 -0.000158223)
(-1.33066e-08 -3.68075e-09 -0.000158211)
(1.16755e-08 7.40237e-09 -0.000158507)
(-5.03474e-09 -9.62685e-09 -0.000158366)
(9.13211e-09 4.506e-09 -0.000158624)
(1.32413e-08 4.96385e-09 -0.000158496)
(-1.58523e-08 -4.79068e-09 -0.000158208)
(7.99503e-09 4.83913e-09 -0.000158607)
(-5.05695e-09 -1.2613e-08 -0.000158361)
(1.83971e-08 -6.09972e-09 -0.000148022)
(-1.09988e-08 1.05233e-08 -0.000148369)
(1.81927e-08 6.02491e-09 -0.000148378)
(-1.94496e-08 -6.52643e-09 -0.000148036)
(-1.99474e-08 5.93291e-09 -0.000148355)
(2.11621e-08 -5.57978e-09 -0.000148024)
(4.7205e-09 -1.16613e-08 -0.000158376)
(-8.1835e-09 7.09706e-09 -0.000158635)
(-1.66284e-08 3.47384e-09 -0.000158485)
(1.39508e-08 -4.31824e-09 -0.000158202)
(-1.08455e-08 4.4282e-10 -0.000158629)
(3.86946e-09 -1.25616e-08 -0.00015838)
(-7.18358e-09 1.07578e-08 -0.000148322)
(9.48356e-09 -1.02955e-08 -0.000148612)
(9.40982e-09 8.17079e-09 -0.000148565)
(-6.82956e-09 -1.71593e-08 -0.000148277)
(7.72156e-09 -1.23671e-08 -0.000148603)
(-8.626e-09 1.20809e-08 -0.00014832)
(5.69663e-09 -1.55712e-08 -0.000148298)
(-1.04228e-08 8.23169e-09 -0.000148596)
(6.611e-09 1.3835e-08 -0.000148289)
(-1.02062e-08 -9.65993e-09 -0.000148591)
(-9.64917e-09 6.00258e-09 -0.000148583)
(6.71902e-09 -1.55054e-08 -0.000148301)
(-8.66478e-09 -8.67063e-09 -0.000148575)
(7.50725e-09 1.19896e-08 -0.000148293)
(-1.13166e-08 5.78421e-09 -0.000158206)
(1.78585e-08 -3.9433e-09 -0.000158504)
(5.6626e-09 -9.80014e-09 -0.000158644)
(-7.30866e-09 7.71009e-09 -0.000158399)
(1.34983e-08 -4.70529e-09 -0.000158496)
(-1.07817e-08 6.44931e-09 -0.000158207)
(-1.4419e-08 7.44555e-09 -0.000148026)
(1.8359e-08 -7.67476e-09 -0.000148376)
(1.56062e-08 7.13649e-09 -0.000148024)
(-1.80756e-08 -7.4727e-09 -0.000148371)
(2.00534e-08 -5.5088e-09 -0.000148362)
(-1.50932e-08 8.03407e-09 -0.000148026)
(-1.97126e-08 -5.99344e-09 -0.000148357)
(1.63828e-08 6.98937e-09 -0.000148024)
(3.76964e-09 1.17621e-08 -0.000158357)
(-6.90738e-09 -1.06072e-08 -0.000158614)
(1.50951e-08 3.41297e-09 -0.000158198)
(-1.71312e-08 -3.82404e-09 -0.000158496)
(-8.18281e-09 -5.54193e-09 -0.000158601)
(7.04368e-09 7.09819e-09 -0.000158359)
(-1.44416e-08 -3.94669e-09 -0.000158489)
(9.28683e-09 6.56202e-09 -0.000158197)
(-1.36402e-08 -5.51661e-09 -0.000158198)
(1.16681e-08 6.47771e-09 -0.000158494)
(-5.5835e-09 -1.06288e-08 -0.000158349)
(8.36639e-09 6.36818e-09 -0.000158609)
(1.29271e-08 4.86428e-09 -0.000158493)
(-1.46437e-08 -4.67187e-09 -0.000158199)
(7.34669e-09 7.03763e-09 -0.000158607)
(-5.1322e-09 -1.20277e-08 -0.000158351)
(1.5978e-08 -7.21811e-09 -0.00014801)
(-1.90671e-08 6.98857e-09 -0.000148361)
(1.89416e-08 5.4011e-09 -0.000148372)
(-1.63514e-08 -7.83809e-09 -0.000148032)
(-2.09715e-08 4.07197e-09 -0.00014836)
(1.48408e-08 -9.50869e-09 -0.000148023)
(4.11599e-09 -1.38718e-08 -0.00015837)
(-7.83624e-09 7.11716e-09 -0.000158629)
(-1.37535e-08 3.47776e-09 -0.000158496)
(1.34555e-08 -5.22924e-09 -0.000158192)
(-7.18559e-09 6.01045e-09 -0.000158622)
(7.8427e-09 -9.50626e-09 -0.000158376)
(-7.92099e-09 1.26794e-08 -0.00014831)
(8.27898e-09 -1.1668e-08 -0.000148616)
(6.91842e-09 1.37828e-08 -0.000148565)
(-8.67863e-09 -1.2177e-08 -0.000148272)
(5.91861e-09 -1.3583e-08 -0.00014861)
(-1.02675e-08 9.60318e-09 -0.000148328)
(7.55032e-09 -1.58284e-08 -0.000148287)
(-9.16307e-09 8.45428e-09 -0.000148589)
(7.49582e-09 1.44558e-08 -0.000148283)
(-8.2943e-09 -1.03358e-08 -0.000148581)
(-6.98768e-09 9.96168e-09 -0.000148578)
(8.38836e-09 -1.42825e-08 -0.000148299)
(-6.84054e-09 -1.06153e-08 -0.000148577)
(8.61013e-09 1.07923e-08 -0.000148292)
(-1.51438e-08 4.60666e-09 -0.000158193)
(1.33235e-08 -5.49131e-09 -0.000158507)
(5.18474e-09 -8.7306e-09 -0.000158655)
(-7.33244e-09 7.9061e-09 -0.000158406)
(1.36656e-08 -3.36152e-09 -0.000158505)
(-1.59348e-08 4.26332e-09 -0.000158211)
(-1.6678e-08 8.27978e-09 -0.000148015)
(1.51466e-08 -7.9206e-09 -0.000148371)
(1.78223e-08 7.68068e-09 -0.00014801)
(-1.63879e-08 -7.63236e-09 -0.000148361)
(1.90916e-08 -5.02034e-09 -0.000148365)
(-1.85023e-08 7.336e-09 -0.00014803)
(-1.93367e-08 -5.00194e-09 -0.000148356)
(1.60664e-08 8.22588e-09 -0.000148016)
(4.51647e-09 1.22922e-08 -0.000158351)
(-6.43137e-09 -1.003e-08 -0.000158606)
(1.64931e-08 3.63877e-09 -0.000158191)
(-1.619e-08 -4.10574e-09 -0.000158495)
(-7.42592e-09 -5.8169e-09 -0.000158605)
(8.02126e-09 6.3645e-09 -0.000158354)
(-1.36972e-08 -3.09466e-09 -0.000158489)
(1.15893e-08 5.68399e-09 -0.000158192)
(-1.23169e-08 -6.09189e-09 -0.000158194)
(1.20102e-08 6.19939e-09 -0.000158497)
(-6.15124e-09 -1.04539e-08 -0.000158352)
(8.45235e-09 6.39114e-09 -0.000158624)
(1.07724e-08 5.36919e-09 -0.000158487)
(-1.65562e-08 -4.16556e-09 -0.0001582)
(5.86649e-09 8.83666e-09 -0.000158624)
(-5.51903e-09 -1.21506e-08 -0.000158372)
(1.37606e-08 -9.87648e-09 -0.000148016)
(-1.51207e-08 7.7832e-09 -0.000148367)
(1.81383e-08 5.54787e-09 -0.000148363)
(-1.97474e-08 -6.9261e-09 -0.000148031)
(-1.69631e-08 5.95351e-09 -0.000148354)
(1.69979e-08 -8.24575e-09 -0.000148029)
(8.12442e-09 -9.35972e-09 -0.000158366)
(-5.12488e-09 1.1597e-08 -0.00015863)
(-1.19488e-08 4.87236e-09 -0.00015849)
(1.20702e-08 -6.63744e-09 -0.000158203)
(-8.16953e-09 3.17059e-09 -0.000158625)
(6.46556e-09 -1.00145e-08 -0.000158376)
(-8.84263e-09 1.18728e-08 -0.000148322)
(1.05948e-08 -5.56604e-09 -0.00014862)
(7.54236e-09 1.11073e-08 -0.000148581)
(-8.41957e-09 -1.34447e-08 -0.000148288)
(8.50816e-09 -5.86335e-09 -0.000148614)
(-7.02893e-09 1.67126e-08 -0.000148333)
(8.85842e-09 -1.16333e-08 -0.000148288)
(-7.66515e-09 1.20867e-08 -0.000148586)
(7.8545e-09 1.4666e-08 -0.000148288)
(-8.5156e-09 -9.3391e-09 -0.000148588)
(-5.95581e-09 1.28519e-08 -0.000148575)
(9.53003e-09 -1.04103e-08 -0.000148294)
(-6.32821e-09 -1.17477e-08 -0.000148585)
(9.03013e-09 1.05327e-08 -0.0001483)
(-1.3632e-08 6.14918e-09 -0.000158204)
(1.17109e-08 -6.20414e-09 -0.000158518)
(8.48305e-09 -1.90215e-09 -0.000158657)
(-5.29327e-09 1.17231e-08 -0.000158413)
(6.35404e-09 -7.17145e-09 -0.000158509)
(-1.73561e-08 3.55651e-09 -0.000158222)
(-1.66598e-08 8.17657e-09 -0.000148023)
(1.28961e-08 -8.67626e-09 -0.000148382)
(1.82757e-08 7.8498e-09 -0.000148013)
(-1.46032e-08 -7.74671e-09 -0.000148367)
(1.38076e-08 -6.6995e-09 -0.00014837)
(-2.19013e-08 6.31043e-09 -0.000148038)
(-1.44784e-08 -6.6739e-09 -0.000148364)
(1.95874e-08 6.34776e-09 -0.000148029)
(4.52263e-09 1.32928e-08 -0.000158356)
(-8.66959e-09 -6.20626e-09 -0.000158619)
(1.51904e-08 4.47585e-09 -0.000158192)
(-1.43607e-08 -4.55217e-09 -0.000158502)
(-7.6429e-09 -4.07265e-09 -0.000158614)
(7.135e-09 8.7544e-09 -0.000158363)
(-8.46197e-09 -6.08625e-09 -0.000158495)
(1.49416e-08 4.67305e-09 -0.000158203)
(-1.29973e-08 -6.20216e-09 -0.000158191)
(1.36075e-08 5.18654e-09 -0.000158501)
(-8.34268e-09 -6.39189e-09 -0.000158366)
(4.72082e-09 1.20601e-08 -0.000158628)
(1.24975e-08 4.4455e-09 -0.000158501)
(-1.57504e-08 -4.93917e-09 -0.000158206)
(6.05569e-09 9.04115e-09 -0.000158611)
(-7.95206e-09 -8.24713e-09 -0.000158368)
(1.65257e-08 -9.31566e-09 -0.00014801)
(-1.73755e-08 7.6339e-09 -0.000148367)
(2.09489e-08 5.69865e-09 -0.000148369)
(-1.71658e-08 -8.16513e-09 -0.000148028)
(-1.93786e-08 5.49861e-09 -0.000148363)
(1.48969e-08 -9.2957e-09 -0.000148027)
(7.94522e-09 -9.09018e-09 -0.000158369)
(-6.53998e-09 9.06676e-09 -0.000158633)
(-9.03242e-09 6.46776e-09 -0.000158504)
(1.72893e-08 -4.03486e-09 -0.000158203)
(-5.85909e-09 8.19261e-09 -0.000158626)
(7.57777e-09 -9.6135e-09 -0.000158384)
(-7.65942e-09 1.70177e-08 -0.00014832)
(1.0259e-08 -6.2729e-09 -0.000148619)
(7.88463e-09 1.25228e-08 -0.00014857)
(-8.4214e-09 -1.30551e-08 -0.000148288)
(7.58183e-09 -1.1348e-08 -0.000148607)
(-6.67823e-09 1.74643e-08 -0.00014833)
(1.03515e-08 -1.02559e-08 -0.000148284)
(-8.21325e-09 1.11721e-08 -0.000148592)
(9.29328e-09 1.33111e-08 -0.000148291)
(-7.64803e-09 -1.16615e-08 -0.000148597)
(-5.97717e-09 1.43617e-08 -0.000148579)
(1.00168e-08 -1.11929e-08 -0.000148297)
(-6.88437e-09 -1.22492e-08 -0.000148582)
(1.00409e-08 1.07694e-08 -0.000148303)
(-1.9957e-08 3.65854e-09 -0.000158205)
(1.18571e-08 -6.26822e-09 -0.000158512)
(6.91669e-09 -7.36444e-09 -0.000158644)
(-4.67569e-09 1.20771e-08 -0.000158403)
(1.20798e-08 -4.37846e-09 -0.0001585)
(-1.75247e-08 3.4262e-09 -0.000158216)
(-2.11976e-08 7.51149e-09 -0.000148023)
(1.17686e-08 -9.54058e-09 -0.000148382)
(2.2378e-08 6.56563e-09 -0.000148021)
(-1.14812e-08 -9.12043e-09 -0.000148376)
(1.89106e-08 -5.57032e-09 -0.000148367)
(-2.22418e-08 6.22025e-09 -0.000148036)
(-1.80218e-08 -6.25779e-09 -0.000148371)
(2.19564e-08 5.48433e-09 -0.000148036)
(4.21982e-09 1.39993e-08 -0.000158362)
(-6.21955e-09 -8.92395e-09 -0.000158624)
(1.98775e-08 2.2281e-09 -0.000158199)
(-1.07062e-08 -6.77105e-09 -0.000158498)
(-4.82928e-09 -9.89579e-09 -0.000158614)
(7.75766e-09 7.95469e-09 -0.000158369)
(-1.12548e-08 -4.54137e-09 -0.000158488)
(1.83054e-08 2.15507e-09 -0.000158204)
(-1.18084e-08 -5.55902e-09 -0.000158211)
(1.02601e-08 6.06719e-09 -0.00015852)
(-8.15815e-09 -6.47031e-09 -0.000158355)
(7.64871e-09 7.44969e-09 -0.000158615)
(1.08078e-08 6.12447e-09 -0.000158524)
(-1.79141e-08 -3.65222e-09 -0.000158227)
(7.00923e-09 6.44046e-09 -0.000158611)
(-5.68553e-09 -1.20616e-08 -0.000158361)
(1.71176e-08 -8.12512e-09 -0.000148025)
(-1.23227e-08 8.28713e-09 -0.000148387)
(1.71046e-08 6.33754e-09 -0.000148385)
(-1.69624e-08 -8.05299e-09 -0.000148041)
(-1.7718e-08 4.6086e-09 -0.00014839)
(2.04026e-08 -7.59248e-09 -0.000148054)
(8.42537e-09 -6.23724e-09 -0.000158375)
(-5.88133e-09 1.00574e-08 -0.000158641)
(-9.75864e-09 5.82492e-09 -0.000158526)
(1.89424e-08 -2.58041e-09 -0.000158233)
(-9.62225e-09 8.70681e-10 -0.000158628)
(4.83374e-09 -1.319e-08 -0.000158384)
(-8.53155e-09 1.2784e-08 -0.000148314)
(8.37612e-09 -9.99868e-09 -0.000148615)
(7.65097e-09 1.12075e-08 -0.000148568)
(-9.2756e-09 -1.25038e-08 -0.000148277)
(5.68602e-09 -1.25314e-08 -0.000148603)
(-9.95205e-09 1.08711e-08 -0.000148325)
(9.66453e-09 -9.3423e-09 -0.000148291)
(-7.95621e-09 1.08586e-08 -0.000148595)
(9.13287e-09 1.20708e-08 -0.000148288)
(-8.48138e-09 -7.44456e-09 -0.000148585)
(-8.26437e-09 6.03317e-09 -0.000148582)