/*--------------------------------*- C++ -*----------------------------------*\
| =========                 |                                                 |
| \\      /  F ield         | OpenFOAM: The Open Source CFD Toolbox           |
|  \\    /   O peration     | Version:  2206                                  |
|   \\  /    A nd           | Website:  www.openfoam.com                      |
|    \\/     M anipulation  |                                                 |
\*---------------------------------------------------------------------------*/
FoamFile
{
    version     2.0;
    format      ascii;
    arch        "LSB;label=32;scalar=64";
    class       volScalarField;
    location    "0.4";
    object      k;
}
// * * * * * * * * * * * * * * * * * * * * * * * * * * * * * * * * * * * * * //

dimensions      [0 2 -2 0 0 0 0];

internalField   nonuniform List<scalar> 
66940
(
2.0665e-05
2.79667e-05
2.76908e-05
3.17535e-05
2.0656e-05
2.79983e-05
2.77294e-05
3.18072e-05
2.06469e-05
2.80045e-05
2.773e-05
3.18045e-05
2.06429e-05
2.80089e-05
2.77217e-05
3.17952e-05
2.06478e-05
2.80147e-05
2.77208e-05
3.17798e-05
2.06625e-05
2.80319e-05
2.77328e-05
3.17931e-05
2.06663e-05
2.80431e-05
2.77397e-05
3.18091e-05
2.06628e-05
2.80221e-05
2.77183e-05
3.17941e-05
2.06905e-05
2.8011e-05
2.77146e-05
3.17803e-05
2.08514e-05
2.80664e-05
2.77805e-05
3.18305e-05
2.14874e-05
2.84029e-05
2.82125e-05
3.21045e-05
2.36347e-05
3.0466e-05
3.02306e-05
3.56242e-05
3.17779e-05
2.76788e-05
2.7678e-05
3.17561e-05
2.79827e-05
2.79714e-05
2.79629e-05
2.79599e-05
3.17822e-05
2.76854e-05
2.76948e-05
3.17808e-05
3.17566e-05
3.1815e-05
2.76854e-05
2.76842e-05
2.77156e-05
2.77145e-05
3.17341e-05
3.17922e-05
2.79866e-05
2.79751e-05
2.80108e-05
2.79966e-05
2.79677e-05
2.79904e-05
2.79823e-05
3.17594e-05
3.18103e-05
2.76919e-05
2.77206e-05
2.77117e-05
3.18218e-05
3.18008e-05
3.18338e-05
2.77237e-05
2.77228e-05
2.7727e-05
2.77262e-05
3.1778e-05
3.18094e-05
2.80186e-05
2.80042e-05
2.80245e-05
2.80085e-05
2.79867e-05
2.80039e-05
2.79971e-05
3.1796e-05
3.18249e-05
2.77241e-05
2.77323e-05
2.77369e-05
3.18359e-05
3.18061e-05
3.18335e-05
2.77254e-05
2.77244e-05
2.77187e-05
2.77171e-05
3.17818e-05
3.18085e-05
2.8025e-05
2.80085e-05
2.80297e-05
2.80116e-05
2.80026e-05
2.80089e-05
2.79976e-05
3.17965e-05
3.18194e-05
2.77225e-05
2.77232e-05
2.77119e-05
3.18206e-05
3.18079e-05
3.18173e-05
2.77171e-05
2.77162e-05
2.77157e-05
2.77163e-05
3.17831e-05
3.18003e-05
2.80293e-05
2.80113e-05
2.80301e-05
2.80115e-05
2.79981e-05
2.80111e-05
2.80008e-05
3.17941e-05
3.18035e-05
2.77132e-05
2.77196e-05
2.77197e-05
3.18076e-05
3.17964e-05
3.18274e-05
2.77171e-05
2.77178e-05
2.77272e-05
2.77281e-05
3.17789e-05
3.18092e-05
2.80336e-05
2.80143e-05
2.80447e-05
2.80234e-05
2.80098e-05
2.80266e-05
2.80164e-05
3.17823e-05
3.18093e-05
2.77093e-05
2.77278e-05
2.77126e-05
3.1811e-05
3.18098e-05
3.18576e-05
2.77319e-05
2.77326e-05
2.77414e-05
2.77425e-05
3.1792e-05
3.18359e-05
2.80507e-05
2.80297e-05
2.80632e-05
2.80411e-05
2.80197e-05
2.8045e-05
2.80357e-05
3.17914e-05
3.18334e-05
2.77218e-05
2.77409e-05
2.77399e-05
3.18359e-05
3.18378e-05
3.18379e-05
2.77396e-05
2.77405e-05
2.773e-05
2.77316e-05
3.1816e-05
3.18193e-05
2.80616e-05
2.80398e-05
2.80529e-05
2.80304e-05
2.80378e-05
2.80345e-05
2.80337e-05
3.18143e-05
3.18155e-05
2.77288e-05
2.77298e-05
2.77173e-05
3.1813e-05
3.18211e-05
3.18033e-05
2.7718e-05
2.77195e-05
2.7715e-05
2.77161e-05
3.18028e-05
3.17857e-05
2.8041e-05
2.80179e-05
2.80349e-05
2.80116e-05
2.80153e-05
2.80173e-05
2.80107e-05
3.17979e-05
3.17823e-05
2.77119e-05
2.77154e-05
2.77134e-05
3.17846e-05
3.18093e-05
3.18114e-05
2.77128e-05
2.77137e-05
2.77484e-05
2.7749e-05
3.179e-05
3.17976e-05
2.80308e-05
2.80073e-05
2.80649e-05
2.80421e-05
2.801e-05
2.8049e-05
2.80566e-05
3.17881e-05
3.17937e-05
2.77042e-05
2.77475e-05
2.77339e-05
3.17999e-05
3.18477e-05
3.19692e-05
2.77759e-05
2.77787e-05
2.79064e-05
2.79051e-05
3.18292e-05
3.19633e-05
2.80855e-05
2.80614e-05
2.82595e-05
2.82286e-05
2.80751e-05
2.824e-05
2.82382e-05
3.18233e-05
3.19644e-05
2.77716e-05
2.79022e-05
2.78987e-05
3.19951e-05
3.21117e-05
3.40374e-05
2.82232e-05
2.82178e-05
2.92883e-05
2.931e-05
3.20877e-05
3.4076e-05
2.8428e-05
2.83818e-05
2.92988e-05
2.92676e-05
2.84097e-05
2.93808e-05
2.93289e-05
3.20681e-05
3.38872e-05
2.82069e-05
2.93242e-05
2.93029e-05
3.40602e-05
3.53705e-05
3.03108e-05
3.0281e-05
3.5619e-05
3.02457e-05
3.01923e-05
2.36387e-05
2.35778e-05
2.34999e-05
3.0299e-05
3.59471e-05
3.02753e-05
1.4021e-05
2.0669e-05
2.06673e-05
2.06663e-05
2.06644e-05
4.30314e-05
2.79568e-05
4.17817e-05
2.34679e-05
3.17874e-05
2.87735e-05
2.909e-05
4.41579e-05
2.18019e-05
4.40252e-05
2.17726e-05
1.41522e-05
1.41412e-05
4.32907e-05
2.1151e-05
4.32476e-05
2.11561e-05
2.06631e-05
2.0663e-05
2.06642e-05
2.06588e-05
2.06562e-05
2.06574e-05
2.06787e-05
4.30948e-05
4.18443e-05
2.34691e-05
2.79722e-05
4.30157e-05
4.18799e-05
2.34704e-05
1.38445e-05
1.38495e-05
4.30128e-05
2.31167e-05
4.22694e-05
2.7698e-05
4.29897e-05
2.31079e-05
4.23413e-05
2.88535e-05
2.928e-05
3.17879e-05
2.88847e-05
2.93036e-05
4.42771e-05
2.17477e-05
4.42934e-05
2.1699e-05
1.4136e-05
1.41103e-05
4.34051e-05
2.12066e-05
4.34385e-05
2.11697e-05
2.06533e-05
2.06551e-05
2.0677e-05
2.06502e-05
2.06472e-05
2.06495e-05
2.06642e-05
4.32265e-05
4.20141e-05
2.3476e-05
2.80029e-05
4.31552e-05
4.19921e-05
2.34781e-05
1.38806e-05
1.38571e-05
4.30938e-05
2.30881e-05
4.24982e-05
2.77333e-05
4.30814e-05
2.30846e-05
4.24862e-05
2.89599e-05
2.93633e-05
3.18456e-05
2.88947e-05
2.9326e-05
4.42367e-05
2.16815e-05
4.42582e-05
2.16504e-05
1.41036e-05
1.40812e-05
4.33432e-05
2.11833e-05
4.33839e-05
2.11391e-05
2.06437e-05
2.06462e-05
2.06626e-05
2.06443e-05
2.06411e-05
2.06437e-05
2.06741e-05
4.31649e-05
4.19801e-05
2.34768e-05
2.80058e-05
4.31357e-05
4.19566e-05
2.3478e-05
1.38654e-05
1.38366e-05
4.30228e-05
2.30665e-05
4.24675e-05
2.77279e-05
4.30227e-05
2.3065e-05
4.24458e-05
2.89101e-05
2.93303e-05
3.18257e-05
2.88687e-05
2.92732e-05
4.42284e-05
2.16562e-05
4.42416e-05
2.16425e-05
1.40885e-05
1.40783e-05
4.32892e-05
2.11533e-05
4.33318e-05
2.11162e-05
2.06399e-05
2.06424e-05
2.06704e-05
2.06476e-05
2.0645e-05
2.06469e-05
2.06668e-05
4.31408e-05
4.19469e-05
2.34818e-05
2.80087e-05
4.31357e-05
4.19015e-05
2.3483e-05
1.38439e-05
1.38203e-05
4.3022e-05
2.30588e-05
4.24403e-05
2.77195e-05
4.30066e-05
2.30591e-05
4.242e-05
2.88769e-05
2.92722e-05
3.1812e-05
2.88107e-05
2.92528e-05
4.42803e-05
2.16734e-05
4.42705e-05
2.16653e-05
1.40959e-05
1.40871e-05
4.32784e-05
2.11444e-05
4.33072e-05
2.11146e-05
2.06454e-05
2.06472e-05
2.06668e-05
2.0664e-05
2.06625e-05
2.06627e-05
2.06947e-05
4.31354e-05
4.19238e-05
2.34881e-05
2.80162e-05
4.30942e-05
4.18908e-05
2.34945e-05
1.38388e-05
1.38202e-05
4.3044e-05
2.30595e-05
4.24466e-05
2.77219e-05
4.30077e-05
2.30617e-05
4.24335e-05
2.88406e-05
2.92962e-05
3.1804e-05
2.88194e-05
2.92649e-05
4.43452e-05
2.16945e-05
4.43364e-05
2.16834e-05
1.41051e-05
1.40968e-05
4.33111e-05
2.11481e-05
4.33231e-05
2.11167e-05
2.06613e-05
2.06612e-05
2.06901e-05
2.06739e-05
2.06728e-05
2.0672e-05
2.06926e-05
4.31658e-05
4.19448e-05
2.35065e-05
2.80398e-05
4.30986e-05
4.19206e-05
2.35149e-05
1.38409e-05
1.38211e-05
4.30915e-05
2.30665e-05
4.24751e-05
2.77371e-05
4.30508e-05
2.30716e-05
4.24719e-05
2.88633e-05
2.92931e-05
3.18294e-05
2.88108e-05
2.92804e-05
4.43734e-05
2.17013e-05
4.43781e-05
2.16836e-05
1.41062e-05
1.4091e-05
4.33152e-05
2.1142e-05
4.33475e-05
2.11035e-05
2.06655e-05
2.06646e-05
2.0687e-05
2.06734e-05
2.06718e-05
2.0671e-05
2.06971e-05
4.3188e-05
4.19563e-05
2.35182e-05
2.80428e-05
4.3158e-05
4.19113e-05
2.35219e-05
1.3835e-05
1.38133e-05
4.31286e-05
2.30725e-05
4.24947e-05
2.77394e-05
4.30996e-05
2.30768e-05
4.2473e-05
2.88394e-05
2.93123e-05
3.18265e-05
2.88099e-05
2.9273e-05
4.43579e-05
2.1691e-05
4.43779e-05
2.16642e-05
1.40924e-05
1.40802e-05
4.32861e-05
2.11224e-05
4.33244e-05
2.10763e-05
2.06615e-05
2.06605e-05
2.06835e-05
2.06881e-05
2.06853e-05
2.0685e-05
2.07012e-05
4.31627e-05
4.19338e-05
2.35098e-05
2.8022e-05
4.31379e-05
4.18827e-05
2.35188e-05
1.38189e-05
1.37989e-05
4.31027e-05
2.30704e-05
4.24784e-05
2.77172e-05
4.30945e-05
2.30829e-05
4.24486e-05
2.88344e-05
2.92808e-05
3.17937e-05
2.87727e-05
2.92593e-05
4.43549e-05
2.16813e-05
4.43633e-05
2.1645e-05
1.40789e-05
1.40785e-05
4.326e-05
2.11016e-05
4.32886e-05
2.10397e-05
2.06884e-05
2.06879e-05
2.06998e-05
2.07933e-05
2.07905e-05
2.07898e-05
2.07995e-05
4.3157e-05
4.18913e-05
2.35317e-05
2.80242e-05
4.30978e-05
4.18455e-05
2.35727e-05
1.37992e-05
1.37867e-05
4.31009e-05
2.31074e-05
4.24506e-05
2.77243e-05
4.30709e-05
2.31537e-05
4.24186e-05
2.87836e-05
2.92664e-05
3.17801e-05
2.87573e-05
2.92324e-05
4.43397e-05
2.17147e-05
4.4335e-05
2.16552e-05
1.40845e-05
1.41322e-05
4.32538e-05
2.11118e-05
4.32537e-05
2.10312e-05
2.08497e-05
2.08468e-05
2.08553e-05
2.14212e-05
2.1409e-05
2.13951e-05
2.13941e-05
4.31503e-05
4.186e-05
2.36815e-05
2.81037e-05
4.309e-05
4.18124e-05
2.38817e-05
1.37969e-05
1.38248e-05
4.3103e-05
2.32817e-05
4.24185e-05
2.78136e-05
4.30708e-05
2.34935e-05
4.23851e-05
2.87641e-05
2.92272e-05
3.18575e-05
2.87381e-05
2.92501e-05
4.39109e-05
2.18246e-05
4.40227e-05
2.14099e-05
1.4154e-05
1.45616e-05
4.31454e-05
2.13882e-05
4.31834e-05
2.10234e-05
2.1477e-05
2.14649e-05
2.14571e-05
2.38758e-05
2.38117e-05
2.3736e-05
2.37561e-05
4.30245e-05
4.1868e-05
2.40754e-05
2.8363e-05
4.30472e-05
4.16861e-05
2.48335e-05
1.38938e-05
1.43192e-05
4.32629e-05
2.38769e-05
4.24208e-05
2.83343e-05
4.30958e-05
2.49438e-05
4.19815e-05
2.87924e-05
2.92442e-05
3.23308e-05
2.8602e-05
2.88517e-05
3.4893e-05
4.54304e-06
3.62989e-05
9.26635e-06
4.26482e-06
8.06171e-06
3.47499e-05
4.54378e-06
3.53918e-05
1.08202e-05
2.07891e-05
2.0926e-05
2.09322e-05
2.48388e-05
1.9938e-05
2.17471e-05
2.17405e-05
3.77676e-05
2.9588e-05
2.60605e-05
2.95673e-05
4.1544e-05
2.43702e-05
2.60968e-05
4.34183e-06
1.02781e-05
3.80637e-05
2.62042e-05
2.928e-05
2.93566e-05
4.21004e-05
2.61846e-05
2.48232e-05
1.89061e-05
1.90535e-05
3.31038e-05
1.71966e-05
1.77093e-05
1.41452e-05
1.40431e-05
1.38355e-05
1.38363e-05
3.17544e-05
2.92452e-05
2.87595e-05
2.92121e-05
2.87744e-05
2.14831e-05
2.79461e-05
4.21425e-05
4.39085e-05
2.17905e-05
2.15512e-05
4.39628e-05
4.38971e-05
2.17737e-05
2.15355e-05
4.39501e-05
4.32389e-05
2.76757e-05
4.22104e-05
2.3091e-05
4.21449e-05
2.31451e-05
4.30128e-05
4.32299e-05
2.7675e-05
4.2204e-05
2.30875e-05
4.21388e-05
2.31415e-05
4.30057e-05
3.17574e-05
2.90405e-05
2.87524e-05
1.38018e-05
1.41395e-05
1.40367e-05
3.17335e-05
2.92049e-05
2.87739e-05
2.91717e-05
2.87881e-05
1.38255e-05
1.38259e-05
4.32051e-05
2.11002e-05
2.11087e-05
4.31974e-05
4.30074e-05
2.79788e-05
4.18356e-05
2.34733e-05
4.18426e-05
2.34727e-05
4.30532e-05
4.31966e-05
2.10746e-05
2.10841e-05
4.31913e-05
4.29964e-05
2.79688e-05
2.34675e-05
4.17867e-05
2.34659e-05
4.17939e-05
4.30437e-05
4.31738e-05
2.10552e-05
4.30262e-05
2.79536e-05
2.34666e-05
4.17735e-05
4.3171e-05
2.10542e-05
4.29998e-05
2.79594e-05
4.18e-05
2.34684e-05
4.18091e-05
2.34682e-05
4.3045e-05
4.3198e-05
2.10806e-05
2.10897e-05
4.31922e-05
4.29945e-05
2.79589e-05
2.34689e-05
4.17966e-05
2.34673e-05
4.18026e-05
4.30409e-05
4.31953e-05
2.10806e-05
2.10893e-05
4.31903e-05
1.38129e-05
1.38121e-05
3.17611e-05
2.87241e-05
2.92559e-05
2.87408e-05
2.92264e-05
1.41519e-05
1.40541e-05
4.32367e-05
2.76826e-05
2.31284e-05
4.22294e-05
2.31838e-05
4.21744e-05
4.30083e-05
4.32356e-05
2.76906e-05
2.31316e-05
4.22544e-05
2.31849e-05
4.21972e-05
4.30076e-05
4.38784e-05
2.17714e-05
2.15413e-05
4.39224e-05
4.38759e-05
2.17842e-05
2.15525e-05
4.39202e-05
1.38049e-05
1.40448e-05
3.17617e-05
2.87943e-05
2.92396e-05
2.88092e-05
2.92177e-05
1.38282e-05
1.3829e-05
1.41594e-05
1.40623e-05
1.4158e-05
1.41485e-05
1.38667e-05
1.38724e-05
2.92859e-05
2.88207e-05
3.1786e-05
2.93116e-05
2.88423e-05
1.41351e-05
1.41585e-05
1.38843e-05
1.38984e-05
3.17669e-05
2.93485e-05
2.88933e-05
2.93576e-05
2.89049e-05
4.4143e-05
2.17851e-05
4.40115e-05
2.17593e-05
4.30322e-05
4.22561e-05
2.30812e-05
2.7694e-05
4.29956e-05
4.23248e-05
2.30735e-05
4.30235e-05
4.22494e-05
2.3078e-05
2.7693e-05
4.29883e-05
4.23208e-05
2.30704e-05
4.42321e-05
2.17384e-05
2.17847e-05
4.42772e-05
4.42183e-05
2.17284e-05
2.17718e-05
4.42659e-05
4.30283e-05
2.77042e-05
4.24144e-05
2.30613e-05
4.23849e-05
2.30648e-05
4.30837e-05
4.30196e-05
2.7703e-05
4.24141e-05
2.30586e-05
4.23825e-05
2.30619e-05
4.30759e-05
2.92454e-05
2.88366e-05
3.1763e-05
2.92779e-05
2.88564e-05
1.38575e-05
1.38673e-05
1.41288e-05
1.41514e-05
3.17442e-05
2.93046e-05
2.89081e-05
2.93149e-05
2.89249e-05
1.38748e-05
1.38921e-05
4.31018e-05
4.18789e-05
2.34739e-05
2.7993e-05
4.30243e-05
4.19126e-05
2.34754e-05
4.32851e-05
2.11246e-05
4.32417e-05
2.11293e-05
4.30934e-05
2.34688e-05
4.18296e-05
2.79797e-05
4.30154e-05
2.34709e-05
4.1861e-05
4.3359e-05
2.11762e-05
2.11989e-05
4.33968e-05
4.30819e-05
2.80012e-05
4.20047e-05
2.34789e-05
4.19746e-05
2.34764e-05
4.31814e-05
4.33534e-05
2.11504e-05
2.11723e-05
4.33912e-05
4.30734e-05
2.79881e-05
2.34752e-05
4.19506e-05
2.34723e-05
4.19212e-05
4.31729e-05
4.32875e-05
2.11315e-05
4.32429e-05
2.11384e-05
4.30914e-05
2.34693e-05
4.184e-05
2.79713e-05
4.30123e-05
2.34735e-05
4.18751e-05
4.32856e-05
2.11313e-05
4.3241e-05
2.11371e-05
4.30752e-05
2.79807e-05
4.19747e-05
2.34743e-05
4.19441e-05
2.34717e-05
4.31761e-05
4.33567e-05
2.11589e-05
2.11821e-05
4.3396e-05
4.30717e-05
2.79783e-05
2.34789e-05
4.19674e-05
2.34736e-05
4.19372e-05
4.31724e-05
4.33549e-05
2.11563e-05
2.11803e-05
4.33943e-05
2.87861e-05
2.92949e-05
3.17843e-05
2.8805e-05
2.93361e-05
1.41667e-05
1.41684e-05
1.38605e-05
1.38729e-05
3.17643e-05
2.88526e-05
2.93923e-05
2.88692e-05
2.93913e-05
1.41632e-05
1.41832e-05
4.30132e-05
2.31181e-05
4.22966e-05
2.76988e-05
4.29889e-05
2.31093e-05
4.23675e-05
4.41007e-05
2.17838e-05
4.39686e-05
2.17781e-05
4.41e-05
2.17972e-05
4.39669e-05
2.17917e-05
4.30093e-05
2.77079e-05
2.30952e-05
4.24736e-05
2.30989e-05
4.24168e-05
4.30876e-05
4.301e-05
2.7703e-05
2.30958e-05
4.24928e-05
2.31027e-05
4.24438e-05
4.30893e-05
4.41925e-05
2.1766e-05
2.17985e-05
4.4279e-05
4.41924e-05
2.17739e-05
2.18114e-05
4.42791e-05
1.38599e-05
1.38735e-05
1.41742e-05
1.41648e-05
3.17673e-05
2.89288e-05
2.93404e-05
2.89459e-05
2.93498e-05
1.38786e-05
1.3896e-05
1.41555e-05
1.41785e-05
1.41426e-05
1.41172e-05
1.39042e-05
1.38799e-05
2.93718e-05
2.89314e-05
3.18418e-05
2.93318e-05
2.88879e-05
1.41028e-05
1.41252e-05
1.38706e-05
1.38981e-05
3.18203e-05
2.93101e-05
2.8871e-05
2.93526e-05
2.8921e-05
4.42704e-05
2.17378e-05
4.42832e-05
2.16889e-05
4.30615e-05
4.2435e-05
2.30534e-05
2.77273e-05
4.30722e-05
4.24199e-05
2.30496e-05
4.30563e-05
4.2435e-05
2.3051e-05
2.77265e-05
4.30648e-05
4.24208e-05
2.30473e-05
4.42824e-05
2.16698e-05
2.17093e-05
4.42516e-05
4.42761e-05
2.16572e-05
2.16988e-05
4.42446e-05
4.30303e-05
2.77276e-05
4.23982e-05
2.30379e-05
4.24301e-05
2.30409e-05
4.30189e-05
4.30257e-05
2.77268e-05
4.23948e-05
2.3036e-05
4.24308e-05
2.30389e-05
4.30149e-05
2.93276e-05
2.89435e-05
3.18182e-05
2.92875e-05
2.88941e-05
1.38937e-05
1.38673e-05
1.40957e-05
1.4118e-05
3.17964e-05
2.92651e-05
2.88806e-05
2.93083e-05
2.89269e-05
1.38588e-05
1.38853e-05
4.32307e-05
4.2045e-05
2.34802e-05
2.80233e-05
4.31604e-05
4.2027e-05
2.34822e-05
4.33997e-05
2.11809e-05
4.34328e-05
2.11442e-05
4.32223e-05
2.3477e-05
4.19904e-05
2.80077e-05
4.31519e-05
2.34792e-05
4.1972e-05
4.34209e-05
2.11553e-05
2.11979e-05
4.33633e-05
4.31971e-05
2.80246e-05
4.19952e-05
2.34818e-05
4.20461e-05
2.34817e-05
4.31894e-05
4.34155e-05
2.11294e-05
2.11724e-05
4.33584e-05
4.31888e-05
2.80092e-05
2.34791e-05
4.19407e-05
2.3479e-05
4.19896e-05
4.31812e-05
4.34054e-05
2.11889e-05
4.34383e-05
2.11497e-05
4.32226e-05
2.348e-05
4.20054e-05
2.79933e-05
4.31515e-05
2.34812e-05
4.19786e-05
4.34033e-05
2.11862e-05
4.34366e-05
2.11461e-05
4.31932e-05
2.80041e-05
4.19569e-05
2.34777e-05
4.20091e-05
2.34778e-05
4.31851e-05
4.34211e-05
2.11343e-05
2.11777e-05
4.33629e-05
4.31891e-05
2.79977e-05
2.34805e-05
4.19408e-05
2.34805e-05
4.19946e-05
4.31802e-05
4.34188e-05
2.11302e-05
2.11739e-05
4.33603e-05
2.88907e-05
2.94142e-05
3.18357e-05
2.88494e-05
2.93671e-05
1.41701e-05
1.41426e-05
1.38479e-05
1.3873e-05
3.18139e-05
2.88338e-05
2.93468e-05
2.88817e-05
2.93911e-05
1.41291e-05
1.41522e-05
4.3095e-05
2.30922e-05
4.25159e-05
2.77322e-05
4.30832e-05
2.30879e-05
4.24981e-05
4.42947e-05
2.17758e-05
4.4303e-05
2.17278e-05
4.42946e-05
2.17834e-05
4.43031e-05
2.17317e-05
4.30611e-05
2.77331e-05
2.30729e-05
4.24572e-05
2.30758e-05
4.24962e-05
4.30469e-05
4.30622e-05
2.7734e-05
2.30748e-05
4.24681e-05
2.3079e-05
4.2505e-05
4.30482e-05
4.43001e-05
2.16975e-05
2.17378e-05
4.42701e-05
4.43001e-05
2.16995e-05
2.17417e-05
4.42698e-05
1.38949e-05
1.38635e-05
1.41637e-05
1.41388e-05
3.18223e-05
2.88737e-05
2.93125e-05
2.89258e-05
2.93476e-05
1.38522e-05
1.38802e-05
1.41269e-05
1.41473e-05
1.41111e-05
1.40923e-05
1.38881e-05
1.38591e-05
2.93308e-05
2.89038e-05
3.18273e-05
2.92894e-05
2.885e-05
1.40876e-05
1.41015e-05
1.38493e-05
1.38765e-05
3.18073e-05
2.92759e-05
2.88267e-05
2.93106e-05
2.88819e-05
4.42252e-05
2.16686e-05
4.42507e-05
2.16376e-05
4.29953e-05
4.24087e-05
2.30316e-05
2.77232e-05
4.29952e-05
4.23795e-05
2.30302e-05
4.29903e-05
4.24045e-05
2.30299e-05
2.77221e-05
4.29912e-05
4.23727e-05
2.30285e-05
4.42451e-05
2.16412e-05
2.16634e-05
4.42325e-05
4.42328e-05
2.1628e-05
2.16506e-05
4.42171e-05
4.29765e-05
2.77218e-05
4.2362e-05
2.3026e-05
4.23897e-05
2.30266e-05
4.299e-05
4.2971e-05
2.77199e-05
4.23561e-05
2.30244e-05
4.2383e-05
2.30248e-05
4.29816e-05
2.92849e-05
2.89147e-05
3.18031e-05
2.92421e-05
2.88663e-05
1.38769e-05
1.38524e-05
1.40782e-05
1.40915e-05
3.17828e-05
2.92272e-05
2.88405e-05
2.92629e-05
2.88984e-05
1.38384e-05
1.38684e-05
4.31687e-05
4.20191e-05
2.34808e-05
2.80274e-05
4.31403e-05
4.19956e-05
2.3482e-05
4.33408e-05
2.11573e-05
4.33794e-05
2.11115e-05
4.31612e-05
2.34783e-05
4.19647e-05
2.80093e-05
4.31323e-05
2.34795e-05
4.19402e-05
4.33633e-05
2.11248e-05
2.11669e-05
4.33124e-05
4.31432e-05
2.80297e-05
4.19616e-05
2.34856e-05
4.20164e-05
2.34829e-05
4.31839e-05
4.33606e-05
2.10941e-05
2.11389e-05
4.33085e-05
4.3136e-05
2.80119e-05
2.34834e-05
4.19057e-05
2.34805e-05
4.19592e-05
4.3177e-05
4.33511e-05
2.11623e-05
4.3384e-05
2.11182e-05
4.31598e-05
2.34786e-05
4.19634e-05
2.79995e-05
4.31307e-05
2.34827e-05
4.19406e-05
4.3349e-05
2.11582e-05
4.33814e-05
2.11142e-05
4.31402e-05
2.80085e-05
4.19279e-05
2.34818e-05
4.19807e-05
2.3479e-05
4.31834e-05
4.33717e-05
2.11012e-05
2.11459e-05
4.33187e-05
4.31355e-05
2.80023e-05
2.34873e-05
4.19119e-05
2.34824e-05
4.1963e-05
4.31811e-05
4.33699e-05
2.10982e-05
2.11419e-05
4.33169e-05
2.88667e-05
2.93669e-05
3.18147e-05
2.88153e-05
2.93246e-05
1.4137e-05
1.41174e-05
1.38256e-05
1.38513e-05
3.1794e-05
2.87907e-05
2.93121e-05
2.88445e-05
2.93494e-05
1.41124e-05
1.41289e-05
4.30242e-05
2.30697e-05
4.24788e-05
2.77204e-05
4.3024e-05
2.3067e-05
4.24515e-05
4.42559e-05
2.1709e-05
4.42768e-05
2.16781e-05
4.42553e-05
2.1711e-05
4.42766e-05
2.16782e-05
4.30043e-05
2.77259e-05
2.30606e-05
4.24301e-05
2.30615e-05
4.2461e-05
4.30199e-05
4.30056e-05
2.77148e-05
2.30645e-05
4.24269e-05
2.30645e-05
4.24622e-05
4.30204e-05
4.4264e-05
2.16673e-05
2.1691e-05
4.42515e-05
4.42634e-05
2.16662e-05
2.1691e-05
4.42501e-05
1.38706e-05
1.38505e-05
1.41352e-05
1.41055e-05
3.17993e-05
2.88482e-05
2.92484e-05
2.89037e-05
2.92915e-05
1.38376e-05
1.38657e-05
1.40995e-05
1.41162e-05
1.40981e-05
1.40879e-05
1.38674e-05
1.38435e-05
2.92983e-05
2.88594e-05
3.18191e-05
2.92709e-05
2.88125e-05
1.40931e-05
1.40998e-05
1.38418e-05
1.38626e-05
3.17942e-05
2.92759e-05
2.88071e-05
2.92953e-05
2.88465e-05
4.42185e-05
2.16425e-05
4.42276e-05
2.16267e-05
4.29906e-05
4.23745e-05
2.3024e-05
2.77154e-05
4.29759e-05
4.23603e-05
2.30245e-05
4.29837e-05
4.23693e-05
2.30226e-05
2.77154e-05
4.29671e-05
4.23578e-05
2.30233e-05
4.42438e-05
2.16544e-05
2.16606e-05
4.42514e-05
4.42323e-05
2.16358e-05
2.16437e-05
4.42392e-05
4.29734e-05
2.77155e-05
4.23752e-05
2.30251e-05
4.23788e-05
2.30237e-05
4.29904e-05
4.29676e-05
2.77159e-05
4.23673e-05
2.30241e-05
4.23763e-05
2.30226e-05
4.29844e-05
2.925e-05
2.88728e-05
3.17974e-05
2.92233e-05
2.88252e-05
1.38561e-05
1.38316e-05
1.40838e-05
1.40899e-05
3.17742e-05
2.9229e-05
2.88236e-05
2.92478e-05
2.88594e-05
1.38313e-05
1.38508e-05
4.31392e-05
4.19809e-05
2.34854e-05
2.80283e-05
4.31352e-05
4.19385e-05
2.34865e-05
4.32839e-05
2.11222e-05
4.33277e-05
2.10846e-05
4.31318e-05
2.34834e-05
4.1925e-05
2.80099e-05
4.31283e-05
2.34846e-05
4.18815e-05
4.33111e-05
2.11139e-05
2.11458e-05
4.32814e-05
4.31005e-05
2.8029e-05
4.19341e-05
2.34901e-05
4.19621e-05
2.34868e-05
4.31376e-05
4.33053e-05
2.10819e-05
2.1114e-05
4.32734e-05
4.30927e-05
2.8011e-05
2.34883e-05
4.18738e-05
2.3485e-05
4.19029e-05
4.31283e-05
4.3291e-05
2.11293e-05
4.33377e-05
2.10913e-05
4.31363e-05
2.34864e-05
4.19311e-05
2.79986e-05
4.31335e-05
2.34875e-05
4.1886e-05
4.32886e-05
2.11264e-05
4.33357e-05
2.1088e-05
4.31023e-05
2.80099e-05
4.18978e-05
2.34863e-05
4.19241e-05
2.34833e-05
4.31309e-05
4.33121e-05
2.10883e-05
2.11207e-05
4.32774e-05
4.3097e-05
2.80019e-05
2.34901e-05
4.18734e-05
2.34872e-05
4.19077e-05
4.31274e-05
4.33096e-05
2.10839e-05
2.11171e-05
4.32753e-05
2.88235e-05
2.93337e-05
3.18055e-05
2.87777e-05
2.93042e-05
1.4122e-05
1.411e-05
1.38187e-05
1.38372e-05
3.17807e-05
2.87736e-05
2.9305e-05
2.8812e-05
2.93309e-05
1.41128e-05
1.41233e-05
4.30217e-05
2.30628e-05
4.24375e-05
2.77138e-05
4.30067e-05
2.30624e-05
4.24147e-05
4.42482e-05
2.16813e-05
4.4262e-05
2.16639e-05
4.42466e-05
2.16802e-05
4.42606e-05
2.16609e-05
4.30035e-05
2.77193e-05
2.30596e-05
4.24314e-05
2.30583e-05
4.24387e-05
4.30171e-05
4.30035e-05
2.77156e-05
2.30623e-05
4.24226e-05
2.3061e-05
4.24303e-05
4.3017e-05
4.4258e-05
2.16677e-05
2.16803e-05
4.42625e-05
4.42567e-05
2.16629e-05
2.16769e-05
4.42609e-05
1.38528e-05
1.3823e-05
1.41114e-05
1.41021e-05
3.17877e-05
2.88018e-05
2.92666e-05
2.88427e-05
2.92809e-05
1.38198e-05
1.38408e-05
1.41091e-05
1.4115e-05
1.41055e-05
1.4099e-05
1.38615e-05
1.38423e-05
2.93027e-05
2.88419e-05
3.18219e-05
2.92858e-05
2.88071e-05
1.41038e-05
1.41111e-05
1.38437e-05
1.38623e-05
3.17999e-05
2.92952e-05
2.88129e-05
2.93125e-05
2.88438e-05
4.42676e-05
2.16549e-05
4.42584e-05
2.16477e-05
4.30156e-05
4.23925e-05
2.3025e-05
2.77185e-05
4.29805e-05
4.23876e-05
2.30276e-05
4.30087e-05
4.23829e-05
2.3024e-05
2.77198e-05
4.29737e-05
4.23803e-05
2.30267e-05
4.43017e-05
2.16762e-05
2.16841e-05
4.43152e-05
4.42883e-05
2.1659e-05
2.16668e-05
4.43008e-05
4.30048e-05
2.77221e-05
4.24076e-05
2.30327e-05
4.24081e-05
2.30281e-05
4.304e-05
4.2998e-05
2.77229e-05
4.24004e-05
2.30319e-05
4.2401e-05
2.30272e-05
4.3032e-05
2.92556e-05
2.88611e-05
3.18019e-05
2.92421e-05
2.88294e-05
1.38518e-05
1.38377e-05
1.40939e-05
1.41003e-05
3.17797e-05
2.92452e-05
2.88374e-05
2.9266e-05
2.88712e-05
1.38359e-05
1.38567e-05
4.31412e-05
4.19594e-05
2.3492e-05
2.80356e-05
4.31046e-05
4.19309e-05
2.34981e-05
4.32714e-05
2.11124e-05
4.32984e-05
2.10832e-05
4.31309e-05
2.34903e-05
4.18988e-05
2.80154e-05
4.30947e-05
2.34964e-05
4.18717e-05
4.33024e-05
2.11171e-05
2.11459e-05
4.32911e-05
4.31048e-05
2.80396e-05
4.19426e-05
2.3507e-05
4.19581e-05
2.35002e-05
4.31346e-05
4.32964e-05
2.10862e-05
2.11146e-05
4.32831e-05
4.30952e-05
2.80197e-05
2.35053e-05
4.1886e-05
2.34985e-05
4.18984e-05
4.31267e-05
4.32792e-05
2.11188e-05
4.33021e-05
2.10897e-05
4.313e-05
2.34902e-05
4.1897e-05
2.8009e-05
4.30915e-05
2.35001e-05
4.1871e-05
4.32761e-05
2.11142e-05
4.32999e-05
2.10846e-05
4.31039e-05
2.80203e-05
4.19144e-05
2.35043e-05
4.19191e-05
2.3497e-05
4.31352e-05
4.33054e-05
2.10932e-05
2.11214e-05
4.32891e-05
4.30977e-05
2.80155e-05
2.35116e-05
4.18911e-05
2.35016e-05
4.18996e-05
4.31325e-05
4.33025e-05
2.10875e-05
2.11161e-05
4.32875e-05
2.88085e-05
2.93289e-05
3.18051e-05
2.8774e-05
2.9311e-05
1.41241e-05
1.41169e-05
1.38215e-05
1.38382e-05
3.17825e-05
2.8781e-05
2.93207e-05
2.88142e-05
2.93398e-05
1.4122e-05
1.41311e-05
4.30435e-05
2.30621e-05
4.24409e-05
2.77125e-05
4.30071e-05
2.30644e-05
4.24312e-05
4.42891e-05
2.16855e-05
4.42816e-05
2.16776e-05
4.42871e-05
2.16808e-05
4.428e-05
2.16732e-05
4.30325e-05
2.7724e-05
2.30659e-05
4.24561e-05
2.3062e-05
4.24561e-05
4.30601e-05
4.30322e-05
2.77113e-05
2.30685e-05
4.24466e-05
2.30646e-05
4.24502e-05
4.30591e-05
4.4308e-05
2.16866e-05
2.16959e-05
4.4318e-05
4.43058e-05
2.16823e-05
2.16918e-05
4.4315e-05
1.38405e-05
1.3831e-05
1.41219e-05
1.41068e-05
3.1779e-05
2.8832e-05
2.92676e-05
2.88603e-05
2.92885e-05
1.383e-05
1.38489e-05
1.41118e-05
1.41211e-05
1.4115e-05
1.41058e-05
1.3863e-05
1.3843e-05
2.93208e-05
2.88492e-05
3.18458e-05
2.93009e-05
2.88158e-05
1.41051e-05
1.41158e-05
1.384e-05
1.38613e-05
3.18277e-05
2.93003e-05
2.88124e-05
2.93252e-05
2.88503e-05
4.43304e-05
2.16773e-05
4.4322e-05
2.16668e-05
4.30703e-05
4.24268e-05
2.30335e-05
2.77376e-05
4.30305e-05
4.24237e-05
2.30386e-05
4.30623e-05
4.24197e-05
2.30326e-05
2.77386e-05
4.30224e-05
4.24175e-05
2.30377e-05
4.43624e-05
2.16845e-05
2.17003e-05
4.4365e-05
4.43471e-05
2.16694e-05
2.16842e-05
4.43491e-05
4.30594e-05
2.7739e-05
4.24328e-05
2.30418e-05
4.24421e-05
2.30377e-05
4.3092e-05
4.30513e-05
2.77399e-05
4.24273e-05
2.30411e-05
4.24362e-05
2.30369e-05
4.30835e-05
2.92713e-05
2.88721e-05
3.18273e-05
2.92524e-05
2.88343e-05
1.38545e-05
1.38332e-05
1.40976e-05
1.4107e-05
3.18084e-05
2.92558e-05
2.88333e-05
2.92772e-05
2.88685e-05
1.38307e-05
1.38513e-05
4.31706e-05
4.19727e-05
2.35091e-05
2.80576e-05
4.3102e-05
4.19571e-05
2.35173e-05
4.33032e-05
2.11172e-05
4.33145e-05
2.10857e-05
4.31601e-05
2.35073e-05
4.19159e-05
2.80348e-05
4.30936e-05
2.35153e-05
4.18985e-05
4.33389e-05
2.11124e-05
2.11471e-05
4.332e-05
4.31445e-05
2.80603e-05
4.19613e-05
2.35235e-05
4.19856e-05
2.35183e-05
4.31971e-05
4.33318e-05
2.10809e-05
2.11159e-05
4.33124e-05
4.31342e-05
2.80388e-05
2.35211e-05
4.19044e-05
2.35161e-05
4.19256e-05
4.31884e-05
4.33098e-05
2.1124e-05
4.33203e-05
2.10922e-05
4.3161e-05
2.35135e-05
4.19218e-05
2.80271e-05
4.30972e-05
2.352e-05
4.19035e-05
4.33072e-05
2.11184e-05
4.33183e-05
2.10864e-05
4.31404e-05
2.80416e-05
4.1931e-05
2.35213e-05
4.19475e-05
2.3516e-05
4.3195e-05
4.33388e-05
2.10873e-05
2.11224e-05
4.33186e-05
4.31357e-05
2.80325e-05
2.3525e-05
4.19021e-05
2.35203e-05
4.19306e-05
4.31919e-05
4.33362e-05
2.10801e-05
2.11163e-05
4.33165e-05
2.88166e-05
2.93449e-05
3.18238e-05
2.87821e-05
2.93247e-05
1.41325e-05
1.41225e-05
1.38179e-05
1.38372e-05
3.18046e-05
2.87817e-05
2.93229e-05
2.88192e-05
2.9351e-05
1.41219e-05
1.41346e-05
4.30897e-05
2.30683e-05
4.24654e-05
2.77303e-05
4.30494e-05
2.30736e-05
4.24617e-05
4.43461e-05
2.17045e-05
4.43386e-05
2.16923e-05
4.4343e-05
2.17003e-05
4.43354e-05
2.16864e-05
4.30804e-05
2.77386e-05
2.30754e-05
4.24809e-05
2.3071e-05
4.2492e-05
4.3112e-05
4.30786e-05
2.77338e-05
2.30775e-05
4.24697e-05
2.30729e-05
4.24802e-05
4.31105e-05
4.43619e-05
2.16923e-05
2.17089e-05
4.43634e-05
4.43592e-05
2.16867e-05
2.1703e-05
4.43604e-05
1.38465e-05
1.38206e-05
1.41248e-05
1.41169e-05
3.18106e-05
2.8803e-05
2.92886e-05
2.88429e-05
2.93068e-05
1.38155e-05
1.38373e-05
1.41193e-05
1.41282e-05
1.41139e-05
1.41019e-05
1.38568e-05
1.38345e-05
2.93225e-05
2.88455e-05
3.18514e-05
2.92945e-05
2.88043e-05
1.4096e-05
1.41094e-05
1.38274e-05
1.38495e-05
3.18277e-05
2.9285e-05
2.87924e-05
2.93153e-05
2.88358e-05
4.43581e-05
2.16859e-05
4.43626e-05
2.16659e-05
4.31076e-05
4.24476e-05
2.30385e-05
2.77392e-05
4.30796e-05
4.24297e-05
2.30425e-05
4.3099e-05
4.24424e-05
2.30378e-05
2.77407e-05
4.3071e-05
4.24267e-05
2.30418e-05
4.43844e-05
2.16746e-05
2.16988e-05
4.43723e-05
4.43685e-05
2.16551e-05
2.1681e-05
4.43537e-05
4.30911e-05
2.77322e-05
4.24187e-05
2.30414e-05
4.24437e-05
2.30362e-05
4.31033e-05
4.30828e-05
2.77336e-05
4.24136e-05
2.30407e-05
4.2441e-05
2.30354e-05
4.30937e-05
2.92786e-05
2.88676e-05
3.18328e-05
2.9253e-05
2.8829e-05
1.3848e-05
1.38305e-05
1.40863e-05
1.4099e-05
3.18089e-05
2.92392e-05
2.88197e-05
2.92729e-05
2.88629e-05
1.38202e-05
1.38444e-05
4.31913e-05
4.19849e-05
2.35204e-05
2.80613e-05
4.31606e-05
4.19503e-05
2.35239e-05
4.33086e-05
2.11106e-05
4.33385e-05
2.10722e-05
4.31815e-05
2.3518e-05
4.19282e-05
2.8039e-05
4.31522e-05
2.35214e-05
4.18923e-05
4.33342e-05
2.10916e-05
2.11335e-05
4.33008e-05
4.31529e-05
2.80546e-05
4.19412e-05
2.35215e-05
4.19749e-05
2.35172e-05
4.31851e-05
4.33281e-05
2.10606e-05
2.11022e-05
4.32919e-05
4.3143e-05
2.80327e-05
2.35184e-05
4.18826e-05
2.35145e-05
4.19151e-05
4.31764e-05
4.33145e-05
2.11167e-05
4.33437e-05
2.10778e-05
4.31838e-05
2.35225e-05
4.19235e-05
2.80368e-05
4.31557e-05
2.35276e-05
4.18843e-05
4.3311e-05
2.11094e-05
4.33416e-05
2.10704e-05
4.31509e-05
2.80357e-05
4.19105e-05
2.3519e-05
4.19344e-05
2.3515e-05
4.31818e-05
4.33346e-05
2.1066e-05
2.11078e-05
4.32964e-05
4.31452e-05
2.80314e-05
2.35263e-05
4.18827e-05
2.35209e-05
4.19085e-05
4.31781e-05
4.3331e-05
2.10586e-05
2.11006e-05
4.32939e-05
2.88146e-05
2.93446e-05
3.18298e-05
2.87733e-05
2.93177e-05
1.41302e-05
1.41183e-05
1.38061e-05
1.38259e-05
3.18066e-05
2.87642e-05
2.93116e-05
2.8804e-05
2.93423e-05
1.41138e-05
1.41274e-05
4.31265e-05
2.30734e-05
4.24846e-05
2.7728e-05
4.3098e-05
2.30764e-05
4.24651e-05
4.43719e-05
2.17087e-05
4.43767e-05
2.16901e-05
4.43683e-05
2.17034e-05
4.43738e-05
2.16836e-05
4.31115e-05
2.77323e-05
2.30768e-05
4.24686e-05
2.3071e-05
4.24888e-05
4.3119e-05
4.31096e-05
2.77191e-05
2.30735e-05
4.24505e-05
2.30688e-05
4.24793e-05
4.31169e-05
4.43809e-05
2.16807e-05
2.17054e-05
4.43629e-05
4.43773e-05
2.16744e-05
2.16992e-05
4.43584e-05
1.38331e-05
1.382e-05
1.41285e-05
1.41083e-05
3.17996e-05
2.88085e-05
2.92599e-05
2.8847e-05
2.92913e-05
1.38114e-05
1.38332e-05
1.41042e-05
1.41173e-05
1.41023e-05
1.40894e-05
1.38399e-05
1.38193e-05
2.93042e-05
2.88221e-05
3.18113e-05
2.92725e-05
2.87782e-05
1.40885e-05
1.40948e-05
1.38115e-05
1.38299e-05
3.18095e-05
2.92591e-05
2.87636e-05
2.92901e-05
2.88066e-05