/*--------------------------------*- C++ -*----------------------------------*\
| =========                 |                                                 |
| \\      /  F ield         | OpenFOAM: The Open Source CFD Toolbox           |
|  \\    /   O peration     | Version:  2206                                  |
|   \\  /    A nd           | Website:  www.openfoam.com                      |
|    \\/     M anipulation  |                                                 |
\*---------------------------------------------------------------------------*/
FoamFile
{
    version     2.0;
    format      ascii;
    arch        "LSB;label=32;scalar=64";
    class       volScalarField;
    location    "0.4";
    object      nut;
}
// * * * * * * * * * * * * * * * * * * * * * * * * * * * * * * * * * * * * * //

dimensions      [0 2 -1 0 0 0 0];

internalField   nonuniform List<scalar> 
66940
(
1.10329e-06
9.67214e-07
9.89235e-07
9.57748e-07
1.10386e-06
9.67938e-07
9.90416e-07
9.5737e-07
1.10356e-06
9.67729e-07
9.90068e-07
9.58347e-07
1.10435e-06
9.66537e-07
9.88364e-07
9.55578e-07
1.10486e-06
9.64072e-07
9.856e-07
9.54707e-07
1.10563e-06
9.6002e-07
9.81173e-07
9.50355e-07
1.10566e-06
9.53407e-07
9.74177e-07
9.47092e-07
1.10505e-06
9.44142e-07
9.64251e-07
9.37278e-07
1.10514e-06
9.3233e-07
9.52053e-07
9.2516e-07
1.10844e-06
8.96244e-07
9.14719e-07
8.95828e-07
5.94709e-07
7.88291e-07
7.99649e-07
7.41564e-07
3.69369e-07
3.98404e-07
3.55402e-07
4.99338e-07
9.27135e-07
9.86438e-07
9.85836e-07
9.26558e-07
9.66955e-07
9.65133e-07
9.67188e-07
9.65937e-07
9.27207e-07
9.89005e-07
9.88247e-07
9.25864e-07
9.55907e-07
9.27811e-07
9.86563e-07
9.85906e-07
9.8737e-07
9.86724e-07
9.5526e-07
9.27215e-07
9.66997e-07
9.65196e-07
9.67424e-07
9.65632e-07
9.65215e-07
9.67614e-07
9.66372e-07
9.55855e-07
9.27738e-07
9.89009e-07
9.89956e-07
9.88536e-07
9.27216e-07
9.56577e-07
9.28623e-07
9.87721e-07
9.87136e-07
9.8814e-07
9.87525e-07
9.56094e-07
9.27988e-07
9.67748e-07
9.65909e-07
9.68112e-07
9.66281e-07
9.65537e-07
9.68305e-07
9.67078e-07
9.56369e-07
9.28445e-07
9.89713e-07
9.90663e-07
9.89757e-07
9.27502e-07
9.56251e-07
9.29416e-07
9.8741e-07
9.86783e-07
9.8902e-07
9.88323e-07
9.55601e-07
9.28735e-07
9.67491e-07
9.65623e-07
9.69443e-07
9.67545e-07
9.657e-07
9.69573e-07
9.68248e-07
9.55946e-07
9.2907e-07
9.89576e-07
9.91448e-07
9.89994e-07
9.28294e-07
9.5521e-07
9.30666e-07
9.85692e-07
9.85155e-07
9.91563e-07
9.90898e-07
9.54729e-07
9.30122e-07
9.66264e-07
9.64352e-07
9.72115e-07
9.70168e-07
9.6415e-07
9.72192e-07
9.70965e-07
9.54799e-07
9.30261e-07
9.87663e-07
9.93882e-07
9.92971e-07
9.29227e-07
9.52968e-07
9.3375e-07
9.82865e-07
9.82389e-07
9.96335e-07
9.95558e-07
9.52586e-07
9.33092e-07
9.63623e-07
9.61681e-07
9.7702e-07
9.74877e-07
9.61796e-07
9.76926e-07
9.75751e-07
9.52571e-07
9.33126e-07
9.85104e-07
9.98502e-07
9.9691e-07
9.32469e-07
9.49975e-07
9.39286e-07
9.78453e-07
9.78212e-07
1.00269e-06
1.00167e-06
9.49994e-07
9.38201e-07
9.59345e-07
9.57258e-07
9.83541e-07
9.81329e-07
9.57168e-07
9.83051e-07
9.8243e-07
9.49472e-07
9.38385e-07
9.80504e-07
1.00475e-06
1.00396e-06
9.37602e-07
9.45606e-07
9.46632e-07
9.71401e-07
9.71262e-07
1.00611e-06
1.00479e-06
9.45505e-07
9.45264e-07
9.5235e-07
9.50133e-07
9.8711e-07
9.84934e-07
9.50379e-07
9.85958e-07
9.86055e-07
9.44738e-07
9.45834e-07
9.73796e-07
1.00809e-06
1.00663e-06
9.44968e-07
9.3745e-07
9.60019e-07
9.61446e-07
9.6191e-07
9.91338e-07
9.89283e-07
9.38511e-07
9.57252e-07
9.42376e-07
9.40031e-07
9.74018e-07
9.71971e-07
9.40294e-07
9.71492e-07
9.72833e-07
9.36293e-07
9.59188e-07
9.63879e-07
9.9354e-07
9.92593e-07
9.58144e-07
9.2351e-07
9.79017e-07
9.48324e-07
9.49316e-07
9.17913e-07
9.15856e-07
9.25523e-07
9.70144e-07
9.296e-07
9.27127e-07
9.05226e-07
9.04225e-07
9.27573e-07
9.01548e-07
9.05661e-07
9.22435e-07
9.71321e-07
9.51261e-07
9.21748e-07
9.21174e-07
9.70236e-07
8.82552e-07
9.21534e-07
9.1066e-07
9.12378e-07
7.40582e-07
7.46128e-07
8.91905e-07
8.49593e-07
8.93442e-07
8.90995e-07
7.36524e-07
7.44942e-07
8.89618e-07
7.40723e-07
7.51369e-07
8.93024e-07
7.98471e-07
9.13334e-07
7.55755e-07
7.58598e-07
7.26414e-07
7.45232e-07
8.90114e-07
7.81891e-07
7.99369e-07
5.64841e-07
5.66232e-07
7.54639e-07
7.38501e-07
7.76864e-07
7.9323e-07
5.71255e-07
5.91787e-07
7.81893e-07
5.68002e-07
5.69155e-07
7.68658e-07
4.32461e-07
7.96537e-07
5.95974e-07
5.66982e-07
6.26528e-07
5.20552e-07
3.38854e-07
3.38422e-07
5.35412e-07
3.51386e-07
3.61516e-07
3.49209e-07
3.87609e-07
3.61456e-07
3.44224e-07
6.68368e-07
3.40054e-07
3.40945e-08
1.10311e-06
1.10298e-06
1.10301e-06
1.10295e-06
5.03298e-07
9.72326e-07
2.63967e-07
1.13799e-06
9.3027e-07
1.44312e-07
1.4619e-07
2.68551e-07
7.27121e-08
2.67339e-07
7.26198e-08
3.4496e-08
3.44781e-08
2.58417e-07
7.00345e-08
2.56628e-07
7.00696e-08
1.10315e-06
1.10318e-06
1.10292e-06
1.10387e-06
1.10368e-06
1.10373e-06
1.10332e-06
5.04149e-07
2.63338e-07
1.13875e-06
9.67031e-07
5.07763e-07
2.646e-07
1.13907e-06
3.36172e-08
3.36436e-08
5.25587e-07
1.13716e-06
2.70481e-07
9.89436e-07
5.28133e-07
1.13848e-06
2.71273e-07
1.44872e-07
1.48092e-07
9.26276e-07
1.4483e-07
1.48277e-07
2.69139e-07
7.25205e-08
2.68892e-07
7.23625e-08
3.44503e-08
3.43966e-08
2.59139e-07
7.02204e-08
2.5782e-07
7.01112e-08
1.10366e-06
1.10375e-06
1.10341e-06
1.10361e-06
1.10339e-06
1.10353e-06
1.10362e-06
5.058e-07
2.64456e-07
1.14041e-06
9.68057e-07
5.09504e-07
2.65376e-07
1.1406e-06
3.37056e-08
3.36612e-08
5.26413e-07
1.14225e-06
2.72014e-07
9.90435e-07
5.29074e-07
1.14283e-06
2.72249e-07
1.45347e-07
1.48658e-07
9.27935e-07
1.44929e-07
1.48407e-07
2.68779e-07
7.22912e-08
2.68547e-07
7.21956e-08
3.43697e-08
3.43272e-08
2.58767e-07
7.01356e-08
2.575e-07
7.00041e-08
1.1033e-06
1.10347e-06
1.10345e-06
1.10415e-06
1.10384e-06
1.10407e-06
1.10393e-06
5.05121e-07
2.64257e-07
1.14008e-06
9.68642e-07
5.09363e-07
2.65127e-07
1.14015e-06
3.36666e-08
3.36097e-08
5.25415e-07
1.14339e-06
2.71828e-07
9.90944e-07
5.28203e-07
1.14367e-06
2.71996e-07
1.45149e-07
1.48453e-07
9.27859e-07
1.44697e-07
1.48108e-07
2.68669e-07
7.22067e-08
2.6836e-07
7.21709e-08
3.4333e-08
3.43183e-08
2.58436e-07
7.00322e-08
2.57181e-07
6.99257e-08
1.10408e-06
1.10428e-06
1.1041e-06
1.10474e-06
1.10455e-06
1.10467e-06
1.10495e-06
5.04868e-07
2.64045e-07
1.14084e-06
9.70638e-07
5.09476e-07
2.64801e-07
1.14086e-06
3.3613e-08
3.35693e-08
5.25328e-07
1.14442e-06
2.71663e-07
9.92432e-07
5.27986e-07
1.1445e-06
2.7184e-07
1.44867e-07
1.48154e-07
9.28767e-07
1.4446e-07
1.48018e-07
2.69007e-07
7.22655e-08
2.68531e-07
7.22486e-08
3.43516e-08
3.43428e-08
2.58362e-07
7.0002e-08
2.57035e-07
6.992e-08
1.10469e-06
1.10478e-06
1.10493e-06
1.10557e-06
1.10546e-06
1.10546e-06
1.10551e-06
5.04791e-07
2.63907e-07
1.14134e-06
9.74118e-07
5.09197e-07
2.64696e-07
1.14163e-06
3.36e-08
3.35687e-08
5.25541e-07
1.14485e-06
2.7173e-07
9.95951e-07
5.28125e-07
1.14492e-06
2.71945e-07
1.44774e-07
1.48283e-07
9.30614e-07
1.44432e-07
1.4808e-07
2.69454e-07
7.23349e-08
2.68992e-07
7.23093e-08
3.43732e-08
3.43631e-08
2.58536e-07
7.00119e-08
2.57146e-07
6.99266e-08
1.10553e-06
1.10552e-06
1.10568e-06
1.10583e-06
1.10575e-06
1.1057e-06
1.10608e-06
5.05074e-07
2.6406e-07
1.14235e-06
9.80049e-07
5.09661e-07
2.64888e-07
1.14251e-06
3.36044e-08
3.35705e-08
5.26197e-07
1.14524e-06
2.71961e-07
1.00173e-06
5.29112e-07
1.14525e-06
2.72206e-07
1.44793e-07
1.48279e-07
9.35035e-07
1.4445e-07
1.48163e-07
2.69634e-07
7.23552e-08
2.69324e-07
7.23114e-08
3.43743e-08
3.43503e-08
2.5851e-07
6.99897e-08
2.57339e-07
6.98848e-08
1.10559e-06
1.10554e-06
1.10588e-06
1.10532e-06
1.10522e-06
1.10517e-06
1.10536e-06
5.05182e-07
2.64148e-07
1.14296e-06
9.85263e-07
5.11188e-07
2.6473e-07
1.14262e-06
3.35897e-08
3.35514e-08
5.26673e-07
1.14531e-06
2.72125e-07
1.00751e-06
5.30781e-07
1.14499e-06
2.72179e-07
1.44759e-07
1.48366e-07
9.40599e-07
1.44374e-07
1.48121e-07
2.69462e-07
7.23161e-08
2.69389e-07
7.22505e-08
3.43392e-08
3.43195e-08
2.58237e-07
6.99214e-08
2.57318e-07
6.97988e-08
1.10494e-06
1.1049e-06
1.10512e-06
1.10499e-06
1.10482e-06
1.10481e-06
1.1051e-06
5.0471e-07
2.63974e-07
1.14272e-06
9.82294e-07
5.12364e-07
2.6444e-07
1.14204e-06
3.35504e-08
3.35141e-08
5.26374e-07
1.14464e-06
2.71975e-07
1.00483e-06
5.32268e-07
1.14406e-06
2.71924e-07
1.44653e-07
1.48235e-07
9.50866e-07
1.44258e-07
1.48032e-07
2.69323e-07
7.2272e-08
2.6933e-07
7.22047e-08
3.43078e-08
3.43201e-08
2.57786e-07
6.9841e-08
2.57353e-07
6.9691e-08
1.10499e-06
1.10497e-06
1.10517e-06
1.107e-06
1.10681e-06
1.10682e-06
1.107e-06
5.05259e-07
2.6346e-07
1.14323e-06
9.47312e-07
5.14563e-07
2.63942e-07
1.14227e-06
3.35025e-08
3.34848e-08
5.27079e-07
1.14457e-06
2.71476e-07
9.68649e-07
5.34923e-07
1.14394e-06
2.7164e-07
1.4447e-07
1.48102e-07
9.67399e-07
1.44119e-07
1.4787e-07
2.69132e-07
7.23728e-08
2.69659e-07
7.23713e-08
3.43298e-08
3.44836e-08
2.57029e-07
6.98631e-08
2.57923e-07
6.9788e-08
1.10826e-06
1.10822e-06
1.10838e-06
7.98287e-07
8.22453e-07
8.2842e-07
8.50375e-07
5.08235e-07
2.62672e-07
9.68973e-07
8.29209e-07
5.21589e-07
2.63475e-07
1.14604e-06
3.35068e-08
3.36062e-08
5.30722e-07
9.94374e-07
2.70506e-07
8.48473e-07
5.41976e-07
1.14881e-06
2.71376e-07
1.44167e-07
1.47789e-07
9.24054e-07
1.44175e-07
1.48034e-07
2.588e-07
7.26252e-08
2.71277e-07
7.16743e-08
3.45784e-08
3.58596e-08
2.54753e-07
7.09531e-08
2.64202e-07
7.03676e-08
6.12561e-07
6.12811e-07
6.3417e-07
3.19849e-07
3.30551e-07
3.54479e-07
3.31331e-07
5.48523e-07
2.63384e-07
6.33484e-07
6.61541e-07
5.44028e-07
2.60199e-07
6.20743e-07
3.38586e-08
3.5282e-08
5.58339e-07
6.32586e-07
2.67184e-07
6.71976e-07
5.55339e-07
6.24506e-07
2.6221e-07
1.44425e-07
1.47457e-07
6.65222e-07
1.43388e-07
1.45038e-07
2.12554e-07
2.89264e-09
1.64546e-07
1.16449e-08
2.54938e-09
8.53296e-09
2.02419e-07
2.87125e-09
1.60229e-07
1.77486e-08
3.70398e-07
2.6502e-07
2.6359e-07
3.35178e-07
3.17657e-07
2.92825e-07
2.9103e-07
4.99796e-07
1.00624e-07
5.05008e-07
3.69689e-07
4.59193e-07
9.18273e-08
3.07971e-07
2.5891e-09
1.20674e-08
4.91228e-07
5.08302e-07
9.9488e-08
3.93269e-07
4.57109e-07
3.11665e-07
9.08771e-08
5.04649e-08
5.09572e-08
4.43689e-07
3.69284e-08
4.11617e-08
3.44968e-08
3.41516e-08
3.36082e-08
3.35991e-08
9.55291e-07
1.4796e-07
1.4411e-07
1.47253e-07
1.44287e-07
7.12737e-08
9.72574e-07
2.67053e-07
2.62713e-07
7.26844e-08
7.15016e-08
2.67312e-07
2.62649e-07
7.26247e-08
7.14458e-08
2.67227e-07
5.17591e-07
9.76185e-07
2.70475e-07
1.13545e-06
2.67894e-07
1.13462e-06
5.26297e-07
5.1748e-07
9.75644e-07
2.70258e-07
1.13537e-06
2.67666e-07
1.13461e-06
5.26171e-07
9.30595e-07
1.45964e-07
1.4416e-07
3.35374e-08
3.4478e-08
3.4131e-08
9.54823e-07
1.47638e-07
1.44312e-07
1.46925e-07
1.44463e-07
3.35887e-08
3.35785e-08
2.56365e-07
6.98827e-08
6.99011e-08
2.57827e-07
5.07601e-07
9.67029e-07
2.64168e-07
1.13873e-06
2.63167e-07
1.13844e-06
5.03589e-07
2.56308e-07
6.97936e-08
6.98155e-08
2.57788e-07
5.07578e-07
9.65168e-07
1.13821e-06
2.63889e-07
1.13788e-06
2.62907e-07
5.03592e-07
2.57684e-07
6.97473e-08
5.03341e-07
9.7065e-07
1.13756e-06
2.6397e-07
2.57665e-07
6.97414e-08
5.07529e-07
9.67244e-07
2.64097e-07
1.13846e-06
2.63102e-07
1.13819e-06
5.03528e-07
2.56321e-07
6.98204e-08
6.98407e-08
2.578e-07
5.07572e-07
9.64983e-07
1.13815e-06
2.64127e-07
1.13778e-06
2.63118e-07
5.03588e-07
2.56307e-07
6.98178e-08
6.98371e-08
2.57787e-07
3.35551e-08
3.35427e-08
9.55532e-07
1.43934e-07
1.47905e-07
1.44086e-07
1.47275e-07
3.45084e-08
3.41757e-08
5.17333e-07
9.78583e-07
1.1367e-06
2.70521e-07
1.13612e-06
2.67992e-07
5.25993e-07
5.17318e-07
9.78713e-07
1.13689e-06
2.70511e-07
1.13628e-06
2.68011e-07
5.25941e-07
2.62506e-07
7.26171e-08
7.14668e-08
2.67026e-07
2.62495e-07
7.26587e-08
7.15023e-08
2.6701e-07
3.35465e-08
3.41504e-08
9.56319e-07
1.44455e-07
1.47776e-07
1.44627e-07
1.47114e-07
3.35969e-08
3.35881e-08
3.45236e-08
3.4191e-08
3.45156e-08
3.44984e-08
3.36698e-08
3.36988e-08
1.48312e-07
1.44557e-07
9.2714e-07
1.48471e-07
1.44577e-07
3.44635e-08
3.45123e-08
3.37275e-08
3.37478e-08
9.55878e-07
1.48696e-07
1.44847e-07
1.48814e-07
1.45029e-07
2.68451e-07
7.26525e-08
2.67262e-07
7.25729e-08
5.26091e-07
2.70468e-07
1.13595e-06
9.86789e-07
5.28479e-07
2.71254e-07
1.13725e-06
5.25943e-07
2.70236e-07
1.13589e-06
9.86373e-07
5.28393e-07
2.71081e-07
1.13718e-06
2.68593e-07
7.25001e-08
7.26498e-08
2.69213e-07
2.68516e-07
7.24643e-08
7.26037e-08
2.69136e-07
5.28773e-07
9.8728e-07
2.71856e-07
1.13971e-06
2.71333e-07
1.13851e-06
5.26646e-07
5.28666e-07
9.8676e-07
2.71684e-07
1.13963e-06
2.7114e-07
1.13843e-06
5.26509e-07
1.47969e-07
1.4474e-07
9.26155e-07
1.48181e-07
1.44695e-07
3.36526e-08
3.36885e-08
3.44432e-08
3.44917e-08
9.55665e-07
1.48334e-07
1.4501e-07
1.4843e-07
1.45179e-07
3.37087e-08
3.37351e-08
5.04206e-07
2.63409e-07
1.13904e-06
9.66961e-07
5.07843e-07
2.6468e-07
1.13936e-06
2.5838e-07
6.99425e-08
2.56589e-07
6.99757e-08
5.04218e-07
1.13852e-06
2.63122e-07
9.65072e-07
5.07843e-07
1.13886e-06
2.64388e-07
2.57323e-07
7.01366e-08
7.01954e-08
2.5908e-07
5.08564e-07
9.67354e-07
2.65288e-07
1.14024e-06
2.64038e-07
1.13977e-06
5.05186e-07
2.57286e-07
7.00469e-08
7.01029e-08
2.59044e-07
5.0857e-07
9.65598e-07
1.13974e-06
2.64972e-07
1.13926e-06
2.63747e-07
5.05199e-07
2.58401e-07
6.9973e-08
2.566e-07
7.00141e-08
5.04215e-07
1.13848e-06
2.63357e-07
9.66283e-07
5.07833e-07
1.13874e-06
2.64603e-07
2.58389e-07
6.99697e-08
2.56591e-07
7.00066e-08
5.08498e-07
9.675e-07
2.6525e-07
1.14001e-06
2.63989e-07
1.13951e-06
5.05147e-07
2.57309e-07
7.00824e-08
7.01428e-08
2.59079e-07
5.08565e-07
9.65583e-07
1.1397e-06
2.65234e-07
1.13921e-06
2.63972e-07
5.05209e-07
2.57301e-07
7.00699e-08
7.01338e-08
2.59067e-07
1.44388e-07
1.48249e-07
9.27131e-07
1.44432e-07
1.48556e-07
3.45325e-08
3.45447e-08
3.36718e-08
3.3688e-08
9.55906e-07
1.4464e-07
1.48837e-07
1.44813e-07
1.48911e-07
3.45283e-08
3.45685e-08
5.25547e-07
1.13714e-06
2.70511e-07
9.8831e-07
5.28129e-07
1.13855e-06
2.71333e-07
2.68166e-07
7.26486e-08
2.66953e-07
7.26379e-08
2.68157e-07
7.26921e-08
2.66957e-07
7.26825e-08
5.28251e-07
9.89779e-07
1.14124e-06
2.72167e-07
1.13986e-06
2.71442e-07
5.26429e-07
5.28263e-07
9.89048e-07
1.14111e-06
2.72147e-07
1.13991e-06
2.71529e-07
5.26413e-07
2.68318e-07
7.25936e-08
7.26958e-08
2.69197e-07
2.68332e-07
7.26194e-08
7.27381e-08
2.69193e-07
3.36605e-08
3.37021e-08
3.45467e-08
3.45355e-08
9.57119e-07
1.45033e-07
1.4845e-07
1.45276e-07
1.48565e-07
3.37149e-08
3.3744e-08
3.45088e-08
3.45566e-08
3.44718e-08
3.44184e-08
3.37615e-08
3.37159e-08
1.48901e-07
1.45166e-07
9.28654e-07
1.48596e-07
1.44799e-07
3.43828e-08
3.4428e-08
3.36923e-08
3.37455e-08
9.56985e-07
1.48471e-07
1.4469e-07
1.48784e-07
1.45087e-07
2.69091e-07
7.24845e-08
2.68838e-07
7.23258e-08
5.26284e-07
2.71673e-07
1.14052e-06
9.87847e-07
5.29244e-07
2.71902e-07
1.14096e-06
5.26179e-07
2.71492e-07
1.14045e-06
9.87253e-07
5.29155e-07
2.71732e-07
1.1409e-06
2.68754e-07
7.22619e-08
7.23869e-08
2.68922e-07
2.68725e-07
7.22163e-08
7.23485e-08
2.68872e-07
5.28639e-07
9.87776e-07
2.71765e-07
1.14123e-06
2.7165e-07
1.14111e-06
5.25681e-07
5.28584e-07
9.87209e-07
2.71569e-07
1.14119e-06
2.71472e-07
1.14107e-06
5.25592e-07
1.48541e-07
1.45319e-07
9.28061e-07
1.4824e-07
1.44941e-07
3.37404e-08
3.36899e-08
3.43603e-08
3.44052e-08
9.56466e-07
1.48122e-07
1.44872e-07
1.48427e-07
1.45219e-07
3.36685e-08
3.37191e-08
5.05817e-07
2.64504e-07
1.14061e-06
9.67856e-07
5.09549e-07
2.65441e-07
1.14078e-06
2.59104e-07
7.01309e-08
2.57782e-07
7.00222e-08
5.05832e-07
1.14011e-06
2.64181e-07
9.65902e-07
5.09557e-07
1.14029e-06
2.65123e-07
2.5772e-07
7.00598e-08
7.01872e-08
2.58889e-07
5.10038e-07
9.67787e-07
2.65245e-07
1.14046e-06
2.64521e-07
1.14071e-06
5.05354e-07
2.57685e-07
6.99698e-08
7.00983e-08
2.58859e-07
5.10047e-07
9.65993e-07
1.13997e-06
2.64925e-07
1.14023e-06
2.64206e-07
5.05372e-07
2.59146e-07
7.01645e-08
2.57819e-07
7.00477e-08
5.05861e-07
1.14007e-06
2.64431e-07
9.66588e-07
5.09568e-07
1.14022e-06
2.6532e-07
2.59131e-07
7.01515e-08
2.5781e-07
7.00315e-08
5.10014e-07
9.67999e-07
2.65157e-07
1.14027e-06
2.64435e-07
1.14054e-06
5.05335e-07
2.57722e-07
6.99929e-08
7.01226e-08
2.58893e-07
5.10077e-07
9.65755e-07
1.13989e-06
2.65087e-07
1.14015e-06
2.64378e-07
5.0539e-07
2.57711e-07
6.99758e-08
7.0106e-08
2.58876e-07
1.4496e-07
1.49023e-07
9.28561e-07
1.44646e-07
1.48739e-07
3.45352e-08
3.44785e-08
3.3639e-08
3.36865e-08
9.56962e-07
1.44505e-07
1.48568e-07
1.44853e-07
1.48902e-07
3.44431e-08
3.44898e-08
5.26395e-07
1.14222e-06
2.72002e-07
9.89333e-07
5.29101e-07
1.14292e-06
2.72185e-07
2.69225e-07
7.26153e-08
2.68924e-07
7.24593e-08
2.69221e-07
7.26397e-08
2.68939e-07
7.24707e-08
5.28728e-07
9.90271e-07
1.14316e-06
2.72075e-07
1.14302e-06
2.71987e-07
5.25765e-07
5.28761e-07
9.90163e-07
1.14326e-06
2.71985e-07
1.14295e-06
2.7193e-07
5.25736e-07
2.68841e-07
7.23542e-08
7.24821e-08
2.69016e-07
2.68857e-07
7.23588e-08
7.24935e-08
2.69011e-07
3.37415e-08
3.36808e-08
3.45172e-08
3.44636e-08
9.58064e-07
1.44849e-07
1.48351e-07
1.45222e-07
1.48572e-07
3.36537e-08
3.37074e-08
3.44342e-08
3.44742e-08
3.43934e-08
3.43569e-08
3.37202e-08
3.36636e-08
1.4866e-07
1.44983e-07
9.28731e-07
1.4836e-07
1.44576e-07
3.43457e-08
3.43701e-08
3.36391e-08
3.36913e-08
9.55815e-07
1.48292e-07
1.44447e-07
1.48553e-07
1.44863e-07
2.68701e-07
7.22445e-08
2.6851e-07
7.21502e-08
5.25346e-07
2.71515e-07
1.14149e-06
9.88444e-07
5.28146e-07
2.71647e-07
1.14173e-06
5.25244e-07
2.71303e-07
1.14145e-06
9.87988e-07
5.281e-07
2.71454e-07
1.14166e-06
2.68417e-07
7.21654e-08
7.22301e-08
2.68713e-07
2.68349e-07
7.21181e-08
7.21838e-08
2.68612e-07
5.27898e-07
9.86694e-07
2.71538e-07
1.14231e-06
2.71396e-07
1.14213e-06
5.25246e-07
5.27832e-07
9.86195e-07
2.71328e-07
1.14221e-06
2.71177e-07
1.14204e-06
5.25104e-07
1.48285e-07
1.45137e-07
9.27705e-07
1.47986e-07
1.44701e-07
3.3698e-08
3.36489e-08
3.43179e-08
3.4342e-08
9.55607e-07
1.47902e-07
1.44606e-07
1.4814e-07
1.44997e-07
3.36168e-08
3.36738e-08
5.05136e-07
2.64356e-07
1.14029e-06
9.68632e-07
5.09396e-07
2.65247e-07
1.14037e-06
2.58751e-07
7.00449e-08
2.5747e-07
6.99079e-08
5.05163e-07
1.13979e-06
2.64032e-07
9.66622e-07
5.0941e-07
1.13988e-06
2.64927e-07
2.57372e-07
6.99549e-08
7.00791e-08
2.58577e-07
5.09483e-07
9.67099e-07
2.65028e-07
1.14097e-06
2.64338e-07
1.14077e-06
5.05332e-07
2.57354e-07
6.98487e-08
6.99818e-08
2.58553e-07
5.09506e-07
9.65257e-07
1.1405e-06
2.64699e-07
1.14028e-06
2.64018e-07
5.05368e-07
2.58821e-07
7.00685e-08
2.57502e-07
6.99373e-08
5.0517e-07
1.13973e-06
2.64179e-07
9.67731e-07
5.0942e-07
1.13977e-06
2.65042e-07
2.58808e-07
7.00519e-08
2.57489e-07
6.99206e-08
5.09467e-07
9.67296e-07
2.64967e-07
1.14072e-06
2.64257e-07
1.14052e-06
5.05356e-07
2.57426e-07
6.98793e-08
7.0012e-08
2.58621e-07
5.09523e-07
9.65222e-07
1.14036e-06
2.64881e-07
1.14014e-06
2.64155e-07
5.05439e-07
2.57418e-07
6.98654e-08
6.99956e-08
2.5861e-07
1.44798e-07
1.48745e-07
9.28475e-07
1.44445e-07
1.48499e-07
3.4453e-08
3.44164e-08
3.35836e-08
3.36321e-08
9.55658e-07
1.44266e-07
1.48385e-07
1.44638e-07
1.48672e-07
3.44026e-08
3.44326e-08
5.25393e-07
1.14326e-06
2.71767e-07
9.89618e-07
5.28228e-07
1.14361e-06
2.71923e-07
2.68879e-07
7.23827e-08
2.68642e-07
7.22883e-08
2.68872e-07
7.23876e-08
2.68656e-07
7.22869e-08
5.27948e-07
9.89184e-07
1.14418e-06
2.71908e-07
1.14402e-06
2.71769e-07
5.25347e-07
5.27977e-07
9.88325e-07
1.1442e-06
2.71744e-07
1.14379e-06
2.7169e-07
5.25323e-07
2.68514e-07
7.2252e-08
7.23217e-08
2.68812e-07
2.68525e-07
7.22472e-08
7.23202e-08
2.688e-07
3.36847e-08
3.36433e-08
3.44439e-08
3.43862e-08
9.56937e-07
1.44563e-07
1.4794e-07
1.45006e-07
1.48245e-07
3.3612e-08
3.36672e-08
3.43699e-08
3.44012e-08
3.43619e-08
3.4347e-08
3.36688e-08
3.36248e-08
1.48493e-07
1.44739e-07
9.29735e-07
1.48272e-07
1.44371e-07
3.436e-08
3.43665e-08
3.36205e-08
3.36568e-08
9.53967e-07
1.48303e-07
1.44345e-07
1.48484e-07
1.44671e-07
2.68601e-07
7.21575e-08
2.68281e-07
7.2115e-08
5.25208e-07
2.71305e-07
1.14259e-06
9.90016e-07
5.279e-07
2.71534e-07
1.1427e-06
5.25085e-07
2.7109e-07
1.14251e-06
9.89389e-07
5.27797e-07
2.71342e-07
1.14264e-06
2.6836e-07
7.22116e-08
7.22223e-08
2.68812e-07
2.68297e-07
7.21459e-08
7.21621e-08
2.68731e-07
5.27907e-07
9.84436e-07
2.7164e-07
1.14299e-06
2.71345e-07
1.14289e-06
5.25167e-07
5.27839e-07
9.8398e-07
2.71414e-07
1.14294e-06
2.71145e-07
1.14284e-06
5.25055e-07
1.4811e-07
1.44901e-07
9.29132e-07
1.47898e-07
1.44551e-07
3.36455e-08
3.36005e-08
3.43321e-08
3.4337e-08
9.53632e-07
1.47944e-07
1.44563e-07
1.48108e-07
1.44842e-07
3.35998e-08
3.36328e-08
5.04815e-07
2.64112e-07
1.14104e-06
9.70516e-07
5.09448e-07
2.64878e-07
1.14104e-06
2.58402e-07
6.99248e-08
2.57154e-07
6.98159e-08
5.04846e-07
1.14058e-06
2.63778e-07
9.685e-07
5.09476e-07
1.14059e-06
2.64546e-07
2.57056e-07
6.99182e-08
7.0007e-08
2.58385e-07
5.09123e-07
9.65064e-07
2.64847e-07
1.1413e-06
2.63995e-07
1.14115e-06
5.04798e-07
2.57019e-07
6.98076e-08
6.9897e-08
2.58335e-07
5.09142e-07
9.63224e-07
1.14085e-06
2.64488e-07
1.1407e-06
2.63662e-07
5.04806e-07
2.58452e-07
6.99553e-08
2.57218e-07
6.98455e-08
5.04927e-07
1.1405e-06
2.63959e-07
9.6923e-07
5.09563e-07
1.14052e-06
2.6472e-07
2.58436e-07
6.99417e-08
2.57208e-07
6.98304e-08
5.0917e-07
9.6543e-07
2.64773e-07
1.1411e-06
2.63903e-07
1.14096e-06
5.04751e-07
2.57064e-07
6.9836e-08
6.99262e-08
2.58366e-07
5.09223e-07
9.63063e-07
1.14081e-06
2.64639e-07
1.14061e-06
2.63822e-07
5.04825e-07
2.57051e-07
6.98174e-08
6.99102e-08
2.58353e-07
1.44561e-07
1.48572e-07
9.29448e-07
1.44241e-07
1.48398e-07
3.44168e-08
3.43988e-08
3.35665e-08
3.35971e-08
9.53836e-07
1.44177e-07
1.48358e-07
1.44463e-07
1.48582e-07
3.44041e-08
3.44197e-08
5.25292e-07
1.14432e-06
2.71517e-07
9.91233e-07
5.28005e-07
1.14441e-06
2.71664e-07
2.68773e-07
7.22895e-08
2.68465e-07
7.22415e-08
2.6876e-07
7.22848e-08
2.68471e-07
7.22293e-08
5.27983e-07
9.86942e-07
1.1447e-06
2.71931e-07
1.14464e-06
2.71643e-07
5.25219e-07
5.28002e-07
9.86779e-07
1.14469e-06
2.71713e-07
1.14459e-06
2.71471e-07
5.25185e-07
2.68427e-07
7.22547e-08
7.22867e-08
2.68861e-07
2.68433e-07
7.22363e-08
7.22734e-08
2.68849e-07
3.3636e-08
3.35801e-08
3.43881e-08
3.43738e-08
9.54961e-07
1.44461e-07
1.48119e-07
1.44764e-07
1.48219e-07
3.35735e-08
3.36095e-08
3.43911e-08
3.43953e-08
3.43805e-08
3.43742e-08
3.36537e-08
3.36216e-08
1.48526e-07
1.4465e-07
9.32014e-07
1.48355e-07
1.44342e-07
3.43859e-08
3.43939e-08
3.36247e-08
3.36553e-08
9.51575e-07
1.48403e-07
1.44369e-07
1.48579e-07
1.44657e-07
2.68922e-07
7.21996e-08
2.68464e-07
7.21866e-08
5.25463e-07
2.71452e-07
1.14314e-06
9.93611e-07
5.28089e-07
2.71733e-07
1.14322e-06
5.25338e-07
2.71203e-07
1.1431e-06
9.93092e-07
5.28011e-07
2.71535e-07
1.14319e-06
2.68747e-07
7.2285e-08
7.2301e-08
2.69245e-07
2.68672e-07
7.22243e-08
7.22396e-08
2.6915e-07
5.28557e-07
9.80875e-07
2.71873e-07
1.14345e-06
2.71578e-07
1.14335e-06
5.25787e-07
5.28478e-07
9.80666e-07
2.71652e-07
1.14341e-06
2.71354e-07
1.14331e-06
5.25647e-07
1.48144e-07
1.44848e-07
9.30954e-07
1.48004e-07
1.44502e-07
3.36352e-08
3.36122e-08
3.43566e-08
3.4364e-08
9.51729e-07
1.48007e-07
1.44585e-07
1.48175e-07
1.44848e-07
3.36098e-08
3.36442e-08
5.04831e-07
2.63984e-07
1.1416e-06
9.74271e-07
5.09293e-07
2.64822e-07
1.14185e-06
2.58318e-07
6.98914e-08
2.56979e-07
6.9811e-08
5.04827e-07
1.14113e-06
2.63618e-07
9.72157e-07
5.09288e-07
1.14138e-06
2.64477e-07
2.57013e-07
6.99279e-08
7.00058e-08
2.5843e-07
5.0946e-07
9.61698e-07
2.64889e-07
1.14225e-06
2.63985e-07
1.14209e-06
5.0472e-07
2.56974e-07
6.98212e-08
6.98976e-08
2.58381e-07
5.09454e-07
9.59778e-07
1.14179e-06
2.64552e-07
1.14162e-06
2.6365e-07
5.04742e-07
2.58372e-07
6.99196e-08
2.57006e-07
6.98398e-08
5.04838e-07
1.141e-06
2.63754e-07
9.73277e-07
5.09283e-07
1.1413e-06
2.64578e-07
2.58354e-07
6.9901e-08
2.56995e-07
6.98193e-08
5.09478e-07
9.62223e-07
2.64863e-07
1.1421e-06
2.63883e-07
1.14191e-06
5.04749e-07
2.57032e-07
6.98513e-08
6.99271e-08
2.58423e-07
5.09517e-07
9.59916e-07
1.14173e-06
2.64723e-07
1.14157e-06
2.63762e-07
5.04824e-07
2.57017e-07
6.98281e-08
6.99063e-08
2.58413e-07
1.44484e-07
1.48556e-07
9.31655e-07
1.4422e-07
1.4844e-07
3.44222e-08
3.44159e-08
3.35726e-08
3.35987e-08
9.51478e-07
1.44207e-07
1.4844e-07
1.44474e-07
1.48636e-07
3.44264e-08
3.44386e-08
5.25496e-07
1.14476e-06
2.71554e-07
9.94594e-07
5.28133e-07
1.14486e-06
2.71818e-07
2.69042e-07
7.23043e-08
2.68579e-07
7.22883e-08
2.69026e-07
7.22862e-08
2.68583e-07
7.22715e-08
5.28591e-07
9.83432e-07
1.1451e-06
2.72109e-07
1.14504e-06
2.71794e-07
5.25774e-07
5.28608e-07
9.82666e-07
1.14501e-06
2.719e-07
1.14494e-06
2.71662e-07
5.25725e-07
2.68764e-07
7.23186e-08
7.23388e-08
2.69243e-07
2.68765e-07
7.23026e-08
7.2323e-08
2.69221e-07
3.36099e-08
3.35947e-08
3.44118e-08
3.43903e-08
9.52505e-07
1.44473e-07
1.48051e-07
1.44776e-07
1.48244e-07
3.3593e-08
3.36249e-08
3.44003e-08
3.44135e-08
3.4403e-08
3.43902e-08
3.36566e-08
3.36228e-08
1.48623e-07
1.44684e-07
9.36285e-07
1.48428e-07
1.44378e-07
3.43879e-08
3.44041e-08
3.36155e-08
3.3652e-08
9.48132e-07
1.48422e-07
1.44357e-07
1.48647e-07
1.44687e-07
2.69356e-07
7.22737e-08
2.68911e-07
7.22507e-08
5.26205e-07
2.71727e-07
1.1436e-06
9.9954e-07
5.29152e-07
2.7198e-07
1.14364e-06
5.26063e-07
2.71495e-07
1.14357e-06
9.9869e-07
5.2906e-07
2.71761e-07
1.14361e-06
2.6919e-07
7.23134e-08
7.23534e-08
2.69587e-07
2.69103e-07
7.22597e-08
7.22959e-08
2.69481e-07
5.29996e-07
9.75263e-07
2.72032e-07
1.14366e-06
2.71849e-07
1.14377e-06
5.26495e-07
5.29906e-07
9.75138e-07
2.7182e-07
1.14364e-06
2.71624e-07
1.14374e-06
5.26347e-07
1.48236e-07
1.44896e-07
9.35513e-07
1.4805e-07
1.44585e-07
3.36402e-08
3.36037e-08
3.43645e-08
3.43774e-08
9.48174e-07
1.48076e-07
1.446e-07
1.48271e-07
1.44886e-07
3.35979e-08
3.36325e-08
5.0511e-07
2.64089e-07
1.14249e-06
9.80303e-07
5.0967e-07
2.64963e-07
1.14264e-06
2.58489e-07
6.99051e-08
2.57091e-07
6.9819e-08
5.051e-07
1.14204e-06
2.63745e-07
9.78041e-07
5.09675e-07
1.14217e-06
2.6462e-07
2.57258e-07
6.9913e-08
7.00076e-08
2.58569e-07
5.1052e-07
9.56276e-07
2.64962e-07
1.14283e-06
2.64179e-07
1.14295e-06
5.05367e-07
2.57213e-07
6.98044e-08
6.98997e-08
2.58524e-07
5.10496e-07
9.54231e-07
1.14235e-06
2.64625e-07
1.14247e-06
2.6384e-07
5.05376e-07
2.58534e-07
6.99347e-08
2.57129e-07
6.98476e-08
5.05125e-07
1.14213e-06
2.6392e-07
9.78881e-07
5.09755e-07
1.14221e-06
2.64793e-07
2.58519e-07
6.99119e-08
2.5712e-07
6.98243e-08
5.10513e-07
9.57124e-07
2.64925e-07
1.14273e-06
2.64087e-07
1.14283e-06
5.05354e-07
2.57259e-07
6.98326e-08
6.99282e-08
2.58565e-07
5.1057e-07
9.54161e-07
1.14243e-06
2.64758e-07
1.14252e-06
2.63997e-07
5.0542e-07
2.57246e-07
6.98048e-08
6.99038e-08
2.58554e-07
1.44522e-07
1.48642e-07
9.3582e-07
1.44253e-07
1.48511e-07
3.4442e-08
3.44289e-08
3.35637e-08
3.35956e-08
9.48e-07
1.44201e-07
1.48446e-07
1.44495e-07
1.48696e-07
3.4425e-08
3.44457e-08
5.26137e-07
1.14513e-06
2.71765e-07
1.00056e-06
5.29113e-07
1.14519e-06
2.71996e-07
2.69438e-07
7.23669e-08
2.68983e-07
7.23379e-08
2.69415e-07
7.23512e-08
2.68978e-07
7.23158e-08
5.2996e-07
9.77838e-07
1.14522e-06
2.72262e-07
1.14537e-06
2.72076e-07
5.26464e-07
5.2996e-07
9.77757e-07
1.1452e-06
2.72029e-07
1.14534e-06
2.71877e-07
5.26405e-07
2.69164e-07
7.23385e-08
7.23806e-08
2.69553e-07
2.69161e-07
7.23173e-08
7.23588e-08
2.6953e-07
3.36193e-08
3.35737e-08
3.44205e-08
3.44094e-08
9.48868e-07
1.44455e-07
1.48229e-07
1.44761e-07
1.48363e-07
3.35628e-08
3.35997e-08
3.44148e-08
3.44261e-08
3.43985e-08
3.43791e-08
3.3641e-08
3.3602e-08
1.48635e-07
1.44665e-07
9.42479e-07
1.48386e-07
1.44313e-07
3.43636e-08
3.43869e-08
3.35843e-08
3.36233e-08
9.41843e-07
1.48338e-07
1.44254e-07
1.486e-07
1.44618e-07
2.69531e-07
7.23001e-08
2.69235e-07
7.22494e-08
5.26693e-07
2.719e-07
1.14375e-06
1.00527e-06
5.30829e-07
2.7199e-07
1.14347e-06
5.26548e-07
2.71679e-07
1.14373e-06
1.00421e-06
5.30736e-07
2.7182e-07
1.14345e-06
2.69399e-07
7.22826e-08
7.23453e-08
2.69603e-07
2.69307e-07
7.22142e-08
7.22823e-08
2.6948e-07
5.31732e-07
9.66663e-07
2.71875e-07
1.14302e-06
2.71873e-07
1.14351e-06
5.26553e-07
5.31649e-07
9.67064e-07
2.71668e-07
1.143e-06
2.71672e-07
1.14349e-06
5.26394e-07
1.48267e-07
1.44873e-07
9.40894e-07
1.48062e-07
1.4449e-07
3.36248e-08
3.35942e-08
3.43348e-08
3.43581e-08
9.42878e-07
1.47968e-07
1.44486e-07
1.48222e-07
1.44802e-07
3.3571e-08
3.36136e-08
5.05226e-07
2.6418e-07
1.14307e-06
9.86171e-07
5.11167e-07
2.64853e-07
1.14272e-06
2.58472e-07
6.98811e-08
2.57282e-07
6.97765e-08
5.05218e-07
1.14259e-06
2.63835e-07
9.83967e-07
5.11156e-07
1.14224e-06
2.64515e-07
2.57309e-07
6.98472e-08
6.99603e-08
2.58381e-07
5.11694e-07
9.47657e-07
2.64741e-07
1.14244e-06
2.64113e-07
1.143e-06
5.05016e-07
2.57267e-07
6.97404e-08
6.98523e-08
2.58329e-07
5.11654e-07
9.45524e-07
1.14194e-06
2.64394e-07
1.1425e-06
2.63771e-07
5.05019e-07
2.58511e-07
6.99086e-08
2.57317e-07
6.9802e-08
5.05215e-07
1.14269e-06
2.63951e-07
9.84984e-07
5.11274e-07
1.14234e-06
2.64562e-07
2.5849e-07
6.98808e-08
2.57308e-07
6.97739e-08
5.11742e-07
9.49069e-07
2.64693e-07
1.14233e-06
2.64001e-07
1.14289e-06
5.04944e-07
2.57312e-07
6.97651e-08
6.98777e-08
2.58357e-07
5.11781e-07
9.45802e-07
1.14204e-06
2.64529e-07
1.14261e-06
2.63824e-07
5.04969e-07
2.57294e-07
6.97367e-08
6.98504e-08
2.5834e-07
1.44517e-07
1.48644e-07
9.42056e-07
1.44203e-07
1.48476e-07
3.4435e-08
3.44173e-08
3.35344e-08
3.35681e-08
9.41627e-07
1.44113e-07
1.48381e-07
1.44421e-07
1.48658e-07
3.44032e-08
3.44267e-08
5.26613e-07
1.14521e-06
2.71922e-07
1.00591e-06
5.30786e-07
1.14491e-06
2.72018e-07
2.69599e-07
7.23787e-08
2.6929e-07
7.2332e-08
2.69572e-07
7.23586e-08
2.69287e-07
7.23083e-08
5.31666e-07
9.6937e-07
1.14452e-06
2.72119e-07
1.14503e-06
2.72066e-07
5.26463e-07
5.3168e-07
9.68615e-07
1.14439e-06
2.71865e-07
1.14488e-06
2.71911e-07
5.26403e-07
2.6935e-07
7.23021e-08
7.23663e-08
2.69517e-07
2.69342e-07
7.22792e-08
7.23434e-08
2.69485e-07
3.35907e-08
3.35677e-08
3.44256e-08
3.43917e-08
9.42575e-07
1.44354e-07
1.48013e-07
1.4471e-07
1.48261e-07
3.35473e-08
3.35864e-08
3.43787e-08
3.44012e-08
3.43687e-08
3.43466e-08
3.35998e-08
3.35629e-08
1.48543e-07
1.44553e-07
9.51963e-07
1.48264e-07
1.44182e-07
3.43445e-08
3.43506e-08
3.35429e-08
3.35744e-08
9.31675e-07
1.48186e-07
1.441e-07
1.48457e-07