/*--------------------------------*- C++ -*----------------------------------*\
| =========                 |                                                 |
| \\      /  F ield         | OpenFOAM: The Open Source CFD Toolbox           |
|  \\    /   O peration     | Version:  2206                                  |
|   \\  /    A nd           | Website:  www.openfoam.com                      |
|    \\/     M anipulation  |                                                 |
\*---------------------------------------------------------------------------*/
FoamFile
{
    version     2.0;
    format      ascii;
    arch        "LSB;label=32;scalar=64";
    class       volScalarField;
    location    "0.4";
    object      omega;
}
// * * * * * * * * * * * * * * * * * * * * * * * * * * * * * * * * * * * * * //

dimensions      [0 0 -1 0 0 0 0];

internalField   nonuniform List<scalar> 
66940
(
18.7303
25.3217
24.9436
32.2642
18.7125
25.2712
24.8318
32.3059
18.7094
25.2921
24.832
32.262
18.6923
25.2952
24.8298
32.3778
18.6881
25.2917
24.8216
32.2771
18.6885
25.2872
24.8187
32.3705
18.6913
25.2869
24.8171
32.2746
18.6985
25.2812
24.814
32.3752
18.7221
25.2842
24.8255
32.2751
18.8115
25.3736
24.9412
32.4626
19.3087
25.723
25.5644
32.5346
22.9702
29.0337
28.6269
41.6629
32.3041
24.978
24.972
32.3058
25.3159
25.3237
25.3232
25.3268
32.3373
24.9638
24.941
32.3426
32.2249
32.228
24.9586
24.9466
24.8738
24.8656
32.2279
32.2287
25.3132
25.3216
25.2752
25.2861
25.3096
25.2817
25.313
32.2645
32.2823
24.9516
24.8496
24.8402
32.4055
32.1401
32.252
24.8594
24.8503
24.8585
24.8497
32.1413
32.2599
25.2645
25.275
25.2777
25.2883
25.3005
25.2862
25.3108
32.1933
32.3041
24.8297
24.8305
24.8253
32.337
32.1903
32.2567
24.8594
24.8506
24.8555
24.8527
32.1975
32.266
25.2829
25.2931
25.2831
25.2937
25.2976
25.2923
25.3308
32.2423
32.3133
24.846
24.8294
24.8295
32.4669
32.188
32.2765
24.8558
24.8508
24.8505
24.8428
32.1976
32.2782
25.2862
25.296
25.2873
25.2965
25.3306
25.2963
25.3207
32.2424
32.327
24.8279
24.8255
24.8209
32.3608
32.1954
32.2647
24.846
24.8386
24.8455
24.8392
32.1999
32.2705
25.282
25.2913
25.2818
25.291
25.3017
25.2897
25.3332
32.2452
32.3187
24.8389
24.8203
24.8201
32.4622
32.1885
32.2725
24.8442
24.8369
24.8478
24.8393
32.1927
32.2785
25.2799
25.2887
25.2842
25.2937
25.3227
25.2926
25.3193
32.2405
32.3222
24.8172
24.8213
24.8185
32.355
32.1937
32.2734
24.8432
24.835
24.8468
24.8396
32.2016
32.2784
25.2787
25.2881
25.2827
25.2925
25.2984
25.2905
25.3518
32.2432
32.3222
24.834
24.82
24.8218
32.4655
32.1961
32.233
24.8404
24.8328
24.8435
24.835
32.2007
32.2424
25.2741
25.2838
25.2762
25.2876
25.3242
25.2854
25.3163
32.2444
32.2864
24.8143
24.818
24.8144
32.3442
32.2256
32.2313
24.8503
24.8413
24.8929
24.8868
32.2345
32.2399
25.2769
25.2875
25.3034
25.3156
25.3079
25.3128
25.3797
32.2803
32.291
24.8418
24.8676
24.8434
32.4495
32.2769
32.3522
24.9663
24.961
25.0185
25.0087
32.28
32.3511
25.3674
25.3783
25.5359
25.5401
25.433
25.5423
25.5707
32.3263
32.3877
24.946
24.9818
24.9918
32.4927
32.5593
36.7898
25.6191
25.5994
25.503
25.689
32.5206
37.2036
25.7303
25.709
25.5037
25.6981
25.7591
25.8535
25.7993
32.5123
36.6116
25.5937
25.7952
25.7456
36.7594
41.4193
28.6757
28.7108
42.2364
28.501
28.5598
22.9554
22.7055
22.6739
28.7579
42.5587
28.6848
411.238
18.7371
18.7377
18.7362
18.7356
69.1679
25.3266
140.819
20.6223
32.3201
199.384
198.988
148.17
299.839
147.986
299.816
410.256
410.15
152.446
302.008
152.177
301.93
18.7309
18.7304
18.7359
18.7149
18.7158
18.7161
18.7423
69.2062
140.515
20.6095
25.3146
68.9238
140.781
20.6049
411.827
411.652
65.9562
20.3284
137.789
24.9169
65.8191
20.2972
137.947
199.165
197.716
32.4177
199.438
197.627
148.423
299.884
148.162
299.865
410.331
410.225
152.351
302.001
151.976
301.945
18.7134
18.7136
18.7393
18.7115
18.7125
18.7123
18.724
68.9805
140.329
20.5855
25.27
68.746
140.689
20.584
411.82
411.664
65.8568
20.2128
137.719
24.8275
65.6813
20.1995
137.982
199.246
197.523
32.3295
199.371
197.606
148.581
299.919
148.406
299.885
410.351
410.203
152.468
302.034
152.192
301.97
18.7108
18.7101
18.7255
18.6971
18.6994
18.6979
18.7277
69.2173
140.506
20.5922
25.2915
68.9226
140.787
20.5921
411.845
411.686
66.0606
20.1737
137.883
24.8323
65.9067
20.1676
138.073
199.175
197.573
32.4232
199.511
197.647
148.596
299.92
148.444
299.878
410.348
410.226
152.524
302.05
152.21
301.981
18.6942
18.6931
18.7214
18.69
18.6908
18.6906
18.7039
69.2448
140.531
20.5829
25.298
68.8862
140.853
20.5836
411.86
411.695
66.0477
20.1488
137.908
24.8308
65.9168
20.1478
138.083
199.334
197.579
32.4
199.436
197.63
148.562
299.914
148.423
299.872
410.342
410.192
152.503
302.055
152.186
301.983
18.6889
18.6889
18.7042
18.6909
18.6913
18.6915
18.7196
69.1979
140.512
20.5793
25.2905
68.9164
140.839
20.5797
411.868
411.701
66.0203
20.142
137.878
24.8223
65.9382
20.1426
138.058
199.212
197.57
32.4314
199.536
197.628
148.538
299.917
148.398
299.87
410.351
410.23
152.506
302.064
152.205
301.984
18.689
18.6892
18.7126
18.6953
18.6957
18.6958
18.7082
69.2274
140.518
20.5773
25.2909
68.9216
140.847
20.5818
411.879
411.705
66.0182
20.1412
137.864
24.8218
65.9244
20.1454
138.048
199.341
197.553
32.3859
199.452
197.623
148.526
299.927
148.377
299.865
410.37
410.214
152.516
302.073
152.217
301.976
18.6918
18.6919
18.7063
18.7035
18.7038
18.7039
18.7243
69.2351
140.527
20.5766
25.2915
68.9185
140.856
20.5859
411.882
411.706
66.0105
20.1452
137.856
24.8217
65.9158
20.1546
138.041
199.223
197.567
32.4329
199.551
197.629
148.533
299.947
148.38
299.849
410.39
410.269
152.524
302.088
152.229
301.958
18.6991
18.6991
18.7162
18.7224
18.7227
18.7227
18.7325
69.2464
140.53
20.5734
25.2873
68.9342
140.85
20.5937
411.884
411.732
66.0168
20.1551
137.855
24.8185
65.9159
20.1763
138.036
199.335
197.53
32.3829
199.453
197.655
148.488
299.996
148.485
299.773
410.37
410.21
152.537
302.138
152.254
301.899
18.7227
18.7226
18.73
18.7834
18.7841
18.7834
18.7891
69.2715
140.545
20.5834
25.2866
68.9583
140.865
20.6367
411.886
411.73
66.0328
20.1887
137.881
24.8301
65.9344
20.2403
138.003
199.236
197.609
32.4264
199.539
197.689
148.294
300.04
148.52
299.224
410.27
409.823
152.293
302.189
152.399
301.359
18.813
18.811
18.816
19.1727
19.1625
19.1493
19.1476
69.2454
140.543
20.6885
25.3886
69.0049
140.652
20.8383
411.764
411.376
66.0153
20.3096
137.875
24.9525
65.9907
20.4502
137.715
199.519
197.764
32.419
199.328
197.59
151.855
300.51
150.407
298.711
409.332
406.072
151.871
301.442
151.262
298.766
19.2914
19.278
19.2617
22.2918
21.9782
21.858
21.9674
69.6198
139.539
21.0533
25.5325
68.5563
141.002
21.9991
410.348
405.849
69.7394
20.8343
137.713
25.5978
67.4605
22.0679
140.881
199.359
198.323
32.9845
199.472
198.925
164.161
1570.55
220.6
795.745
1672.89
944.772
169.288
1582.51
220.883
609.636
21.0634
20.5407
20.5466
24.0777
19.5655
21.9483
21.9502
75.566
294.046
24.464
28.1696
90.4718
265.391
25.1517
1676.96
805.283
75.4118
24.6106
294.307
27.6819
91.3782
25.2306
273.152
374.639
373.913
34.411
465.674
430.238
410.043
411.198
411.671
411.805
32.2362
197.656
199.566
198.38
199.424
301.417
25.3357
139.941
151.044
299.796
301.409
148.116
151.047
299.81
301.424
148.125
67.9527
24.9938
137.926
20.3365
139.457
20.399
65.8668
67.9564
24.9838
137.981
20.3347
139.514
20.396
65.8697
32.3058
198.957
199.448
411.534
410.102
411.259
32.2365
197.815
199.387
198.548
199.277
411.611
411.747
152.18
301.937
301.979
152.505
68.8901
25.3187
140.864
20.6135
140.568
20.6184
69.2366
152.178
301.957
301.997
152.501
68.886
25.3272
20.6178
140.867
20.6224
140.568
69.2284
152.475
301.878
69.1629
25.3337
20.6288
140.801
152.472
301.89
68.8847
25.3256
140.821
20.6141
140.525
20.6189
69.233
152.177
301.925
301.968
152.502
68.8812
25.3317
20.6202
140.801
20.6256
140.505
69.2252
152.174
301.937
301.979
152.497
411.647
411.777
32.2479
199.565
197.802
199.469
198.448
410.1
411.232
68.0181
24.9808
20.347
137.963
20.4062
139.477
65.9271
68.0219
24.9852
20.3464
138.001
20.4042
139.521
65.931
151.084
299.811
301.416
148.18
151.088
299.815
301.424
148.185
411.514
411.262
32.2527
199.331
197.863
199.196
198.606
411.591
411.724
410.135
411.286
410.192
410.122
411.843
411.659
197.462
199.372
32.2848
197.423
199.494
410.146
410.244
411.66
411.831
32.2017
197.372
199.474
197.278
199.305
148.179
299.854
147.994
299.826
65.8751
137.75
20.3188
24.9318
65.757
137.917
20.2888
65.8802
137.806
20.3171
24.9271
65.7606
137.965
20.2874
148.034
299.839
299.858
148.247
148.041
299.85
299.871
148.253
65.7306
24.9012
137.898
20.2343
137.72
20.2587
65.7803
65.7363
24.8947
137.95
20.2334
137.771
20.2576
65.7854
197.646
199.23
32.2897
197.581
199.429
411.782
411.635
410.206
410.285
32.2051
197.559
199.352
197.5
199.235
411.609
411.801
69.2081
140.561
20.6085
25.3069
68.925
140.826
20.604
152.444
302.028
152.174
301.952
69.2008
20.6134
140.565
25.3158
68.9164
20.6091
140.834
152.104
301.928
301.998
152.318
68.88
25.2922
140.696
20.5912
140.498
20.5975
69.1047
152.101
301.946
302.018
152.315
68.8733
25.3042
20.597
140.705
20.6031
140.507
69.0984
152.442
301.995
152.176
301.917
69.1977
20.6147
140.497
25.338
68.9146
20.6136
140.772
152.438
302.006
152.172
301.93
68.8754
25.2994
140.646
20.5913
140.449
20.598
69.0981
152.098
301.915
301.985
152.312
68.8683
25.3084
20.601
140.652
20.6051
140.444
69.091
152.095
301.931
301.998
152.307
199.366
197.607
32.3392
199.437
197.475
410.242
410.147
411.636
411.807
32.2598
199.479
197.48
199.354
197.375
410.191
410.293
65.9586
20.33
137.826
24.8936
65.8233
20.2972
137.981
148.248
299.852
148.058
299.817
148.251
299.856
148.061
299.82
65.8133
24.8801
20.237
137.888
20.2646
137.743
65.8237
65.8149
24.8906
20.2398
137.926
20.2672
137.778
65.8236
148.101
299.834
299.859
148.241
148.102
299.836
299.862
148.243
411.756
411.652
410.291
410.153
32.3244
199.464
197.646
199.248
197.555
411.646
411.807
410.2
410.297
410.266
410.164
411.836
411.673
197.257
199.299
32.1959
197.393
199.504
410.172
410.281
411.686
411.85
32.1268
197.414
199.536
197.283
199.335
148.426
299.896
148.166
299.877
65.8856
137.741
20.2131
24.8562
65.6572
137.995
20.202
65.8872
137.794
20.2122
24.8469
65.6616
138.047
20.201
148.314
299.879
299.907
148.531
148.315
299.893
299.921
148.535
65.8038
24.8565
138.049
20.1869
137.833
20.1916
66.0072
65.8054
24.8474
138.106
20.1859
137.887
20.1906
66.008
197.437
199.172
32.1997
197.568
199.35
411.783
411.617
410.232
410.344
32.1319
197.575
199.353
197.46
199.196
411.627
411.795
68.989
140.378
20.5857
25.2629
68.7524
140.73
20.5844
152.349
302.02
151.975
301.965
68.9827
20.5919
140.387
25.2726
68.7462
20.5906
140.741
152.087
301.961
302.02
152.513
68.6991
25.2665
140.852
20.5898
140.47
20.5852
69.1904
152.084
301.979
302.039
152.511
68.6928
25.2779
20.5963
140.858
20.5915
140.48
69.1843
152.342
301.989
151.971
301.934
68.9743
20.5953
140.337
25.2991
68.7392
20.5936
140.699
152.338
302.006
151.966
301.951
68.6891
25.2743
140.809
20.5895
140.429
20.5848
69.1836
152.078
301.95
302.01
152.51
68.6834
25.3032
20.5989
140.817
20.5942
140.44
69.178
152.074
301.965
302.027
152.507
199.302
197.381
32.2483
199.448
197.441
410.307
410.187
411.661
411.826
32.1807
199.536
197.531
199.387
197.386
410.217
410.329
65.8601
20.217
137.761
24.8241
65.6819
20.2009
138.032
148.419
299.879
148.136
299.862
148.422
299.883
148.136
299.869
65.7852
24.8269
20.1834
138.056
20.1885
137.829
66.0102
65.7883
24.8248
20.1833
138.098
20.1924
137.878
66.0127
148.313
299.879
299.906
148.532
148.315
299.887
299.913
148.535
411.806
411.614
410.338
410.253
32.2506
199.336
197.589
199.184
197.531
411.61
411.785
410.258
410.373
410.286
410.173
411.863
411.695
197.301
199.36
32.2704
197.422
199.549
410.169
410.285
411.701
411.872
32.1892
197.421
199.567
197.307
199.374
148.59
299.934
148.409
299.897
66.0494
137.875
20.1769
24.8591
65.9
138.072
20.1713
66.0524
137.934
20.1761
24.8555
65.9009
138.131
20.171
148.442
299.883
299.922
148.586
148.452
299.897
299.936
148.599
65.9271
24.8564
138.08
20.1574
137.894
20.161
66.0348
65.932
24.8537
138.142
20.1577
137.956
20.1611
66.0456
197.491
199.224
32.277
197.6
199.489
411.803
411.673
410.23
410.328
32.1957
197.612
199.441
197.535
199.304
411.652
411.844
69.2186
140.551
20.592
25.283
68.9269
140.824
20.5915
152.464
302.053
152.19
301.99
69.2126
20.5987
140.557
25.2928
68.9209
20.5982
140.835
152.155
301.977
302.043
152.518
68.8726
25.2821
140.873
20.5839
140.528
20.5851
69.1791
152.15
301.997
302.062
152.514
68.8664
25.2932
20.5905
140.88
20.5919
140.539
69.1713
152.462
302.023
152.191
301.959
69.2128
20.6002
140.511
25.3302
68.9176
20.6029
140.791
152.458
302.036
152.188
301.973
68.87
25.2911
140.822
20.585
140.488
20.5862
69.1712
152.145
301.967
302.032
152.503
68.8647
25.3063
20.5964
140.838
20.596
140.493
69.1603
152.141
301.984
302.046
152.497
199.358
197.431
32.3257
199.49
197.474
410.327
410.196
411.677
411.847
32.2475
199.567
197.541
199.426
197.411
410.215
410.334
66.0616
20.1789
137.925
24.8186
65.9092
20.1703
138.12
148.588
299.92
148.409
299.884
148.591
299.928
148.41
299.891
65.9379
24.8291
20.1547
138.086
20.1582
137.894
66.0468
65.9389
24.8457
20.1578
138.139
20.165
137.944
66.0495
148.452
299.884
299.924
148.601
148.454
299.89
299.93
148.605
411.778
411.688
410.383
410.207
32.3375
199.555
197.704
199.328
197.589
411.685
411.848
410.227
410.341
410.282
410.165
411.878
411.705
197.305
199.39
32.2856
197.414
199.572
410.161
410.277
411.707
411.882
32.2133
197.406
199.571
197.297
199.393
148.601
299.935
148.455
299.892
66.0295
137.898
20.1507
24.8562
65.9049
138.065
20.1492
66.0356
137.958
20.1509
24.8499
65.9167
138.12
20.1493
148.454
299.874
299.916
148.574
148.458
299.889
299.931
148.586
65.9125
24.8539
138.037
20.1447
137.876
20.1452
66.0383
65.9161
24.8454
138.099
20.1446
137.932
20.1451
66.0425
197.488
199.259
32.2919
197.591
199.413
411.825
411.649
410.222
410.342
32.2172
197.568
199.385
197.476
199.248
411.647
411.825
69.2597
140.585
20.5823
25.2895
68.8962
140.893
20.5834
152.522
302.07
152.207
302.002
69.2531
20.5889
140.591
25.2974
68.8882
20.5899
140.902
152.203
301.981
302.053
152.509
68.9446
25.2887
140.871
20.5818
140.588
20.5816
69.2259
152.202
302
302.073
152.51
68.9388
25.2984
20.5885
140.88
20.5883
140.596
69.2216
152.523
302.04
152.197
301.971
69.2405
20.5931
140.551
25.33
68.8754
20.5936
140.859
152.52
302.058
152.192
301.988
68.9303
25.297
140.82
20.5822
140.551
20.582
69.2312
152.204
301.97
302.043
152.514
68.9278
25.3269
20.5907
140.839
20.5917
140.554
69.2229
152.202
301.986
302.06
152.509
199.387
197.437
32.337
199.511
197.47
410.323
410.189
411.682
411.857
32.2664
199.572
197.53
199.442
197.405
410.208
410.327
66.0518
20.1542
137.959
24.8273
65.921
20.1523
138.134
148.612
299.923
148.46
299.881
148.616
299.928
148.462
299.891
65.9342
24.8269
20.1448
138.06
20.1446
137.894
66.0727
65.9375
24.8259
20.1471
138.106
20.1479
137.945
66.0749
148.474
299.879
299.921
148.61
148.476
299.889
299.929
148.613
411.844
411.642
410.357
410.258
32.3136
199.374
197.588
199.24
197.551
411.628
411.813
410.253
410.374
410.276
410.162
411.886
411.71
197.29
199.391
32.2618
197.404
199.575
410.164
410.279
411.713
411.892
32.1895
197.404
199.579
197.286
199.395
148.565
299.93
148.434
299.886
65.994
137.854
20.1419
24.8465
65.9037
138.035
20.1427
66.0007
137.918
20.1418
24.8424
65.9106
138.09
20.1426
148.421
299.871
299.915
148.546
148.424
299.885
299.93
148.562
65.8716
24.8442
138.026
20.1431
137.851
20.1409
66.0176
65.876
24.8389
138.085
20.143
137.907
20.1408
66.0238
197.481
199.252
32.2742
197.577
199.508
411.826
411.687
410.225
410.322
32.2008
197.593
199.45
197.51
199.32
411.662
411.862
69.1966
140.57
20.5782
25.2822
68.9041
140.877
20.5789
152.503
302.075
152.189
302.004
69.1952
20.5852
140.58
25.2907
68.9008
20.5859
140.887
152.199
301.984
302.059
152.53
68.8868
25.28
140.878
20.5796
140.578
20.5766
69.2321
152.195
302.003
302.079
152.526
68.884
25.29
20.5863
140.881
20.5834
140.586
69.2219
152.498
302.044
152.192
301.973
69.1935
20.5874
140.536
25.3328
68.9065
20.5906
140.845
152.495
302.058
152.188
301.988
68.8763
25.2881
140.823
20.5799
140.543
20.5769
69.2162
152.186
301.973
302.049
152.524
68.8746
25.306
20.5929
140.844
20.587
140.543
69.2071
152.184
301.991
302.064
152.519
199.389
197.427
32.3158
199.514
197.46
410.318
410.185
411.689
411.866
32.2466
199.581
197.525
199.442
197.394
410.209
410.328
66.0246
20.1457
137.921
24.8106
65.942
20.146
138.1
148.576
299.92
148.457
299.876
148.58
299.93
148.46
299.886
65.896
24.8189
20.1432
138.044
20.1408
137.873
66.0492
65.8983
24.8347
20.147
138.1
20.1448
137.92
66.0477
148.437
299.876
299.921
148.582
148.439
299.883
299.93
148.586
411.799
411.7
410.379
410.198
32.3454
199.566
197.686
199.344
197.569
411.694
411.864
410.225
410.335
410.285
410.17
411.897
411.715
197.283
199.395
32.2682
197.409
199.587
410.177
410.295
411.715
411.9
32.1999
197.412
199.591
197.281
199.398
148.542
299.933
148.411
299.884
66.0004
137.847
20.1411
24.8483
65.8941
138.029
20.1449
66.0082
137.906
20.141
24.8401
65.9036
138.085
20.1447
148.397
299.868
299.921
148.519
148.402
299.882
299.936
148.536
65.8743
24.8447
138.016
20.1474
137.845
20.1419
66.0063
65.8792
24.8361
138.076
20.1472
137.9
20.1417
66.0124
197.464
199.26
32.2688
197.584
199.427
411.843
411.659
410.237
410.357
32.2004
197.572
199.4
197.458
199.25
411.655
411.843
69.2211
140.581
20.577
25.2836
68.9283
140.888
20.5815
152.51
302.083
152.206
302.005
69.2203
20.5836
140.585
25.2919
68.9186
20.5882
140.897
152.204
301.981
302.069
152.54
68.9
25.2804
140.884
20.5835
140.588
20.5769
69.2284
152.202
302
302.089
152.535
68.8995
25.2906
20.5901
140.89
20.5836
140.597
69.2198
152.51
302.053
152.209
301.974
69.2226
20.5874
140.546
25.3233
68.9095
20.5916
140.857
152.509
302.072
152.203
301.992
68.8992
25.288
140.831
20.5834
140.553
20.577
69.2158
152.198
301.969
302.058
152.531
68.899
25.3181
20.592
140.849
20.5864
140.556
69.209
152.196
301.986
302.077
152.526
199.392
197.42
32.3198
199.525
197.458
410.326
410.193
411.691
411.875
32.2531
199.594
197.533
199.448
197.389
410.222
410.343
66.029
20.1447
137.917
24.8188
65.9268
20.1482
138.095
148.553
299.923
148.432
299.874
148.559
299.93
148.436
299.884
65.8915
24.8179
20.1493
138.034
20.1428
137.863
66.0411
65.8994
24.8153
20.1516
138.087
20.145
137.909
66.0383
148.416
299.873
299.927
148.558
148.419
299.883
299.936
148.56
411.86
411.649
410.36
410.263
32.302
199.391
197.59
199.244
197.535
411.632
411.828
410.269
410.391
410.304
410.188
411.901
411.716
197.278
199.395
32.2647
197.421
199.596
410.203
410.314
411.722
411.901
32.1974
197.421
199.595
197.276
199.393
148.531
299.942
148.39
299.877
65.994
137.838
20.1429
24.8487
65.8811
138.022
20.1514
66.0025
137.899
20.1427
24.8432
65.8905
138.075
20.1512
148.39
299.859
299.934
148.513
148.395
299.873
299.949
148.531
65.8696
24.8424
138.013
20.1583
137.84
20.1451
66.0051
65.8754
24.836
138.071
20.1581
137.894
20.1449
66.0118
197.472
199.261
32.2742
197.572
199.523
411.84
411.691
410.263
410.355
32.2052
197.605
199.463
197.494
199.327
411.671
411.868
69.2333
140.588
20.5765
25.2841
68.9261
140.898
20.5859
152.52
302.093
152.218
301.996
69.2317
20.5831
140.594
25.2929
68.917
20.5924
140.907
152.217
301.967
302.079
152.547
68.9151
25.2773
140.886
20.5888
140.599
20.5751
69.2431
152.215
301.986
302.098
152.542
68.914
25.2881
20.5952
140.893
20.5817
140.608
69.236
152.52
302.061
152.219
301.966
69.2293
20.5853
140.552
25.3358
68.9074
20.5959
140.87
152.517
302.077
152.214
301.981
68.9107
25.2846
140.834
20.5887
140.563
20.575
69.2323
152.21
301.956
302.067
152.539
68.9099
25.3111
20.6003
140.856
20.5852
140.57
69.2268
152.208
301.974
302.082
152.534
199.386
197.415
32.3195
199.534
197.457
410.345
410.209
411.698
411.877
32.2537
199.596
197.542
199.445
197.381
410.245
410.361
66.0185
20.1476
137.91
24.8138
65.9159
20.1556
138.089
148.541
299.932
148.412
299.868
148.547
299.942
148.414
299.877
65.8846
24.8155
20.1628
138.027
20.1489
137.857
66.0394
65.8903
24.832
20.1623
138.082
20.1495
137.906
66.0388
148.41
299.863
299.939
148.555
148.413
299.87
299.947
148.559
411.814
411.704
410.406
410.224
32.3488
199.569
197.685
199.344
197.565
411.7
411.87
410.261
410.373
410.323
410.213
411.904
411.743
197.277
199.389
32.2604
197.435
199.596
410.21
410.321
411.755
411.917
32.2031
197.449
199.609
197.298
199.39
148.539
299.964
148.394
299.863
65.9982
137.839
20.1503
24.846
65.8812
138.019
20.1707
66.0057
137.898
20.15
24.8377
65.8904
138.076
20.1704
148.412
299.828
299.966
148.494
148.422
299.843
299.982
148.51
65.8777
24.8413
138.012
20.1926
137.843
20.1609
66.0134
65.8833
24.8328
138.074
20.1922
137.902
20.1606
66.0222
197.458
199.251
32.2647
197.611
199.441
411.849
411.687
410.265
410.385
32.205
197.629
199.42
197.472
199.233
411.694
411.858
69.2456
140.592
20.5734
25.2797
68.939
140.895
20.5939
152.528
302.107
152.23
301.977
69.2445
20.5797
140.599
25.2888
68.9319
20.6001
140.904
152.234
301.94
302.107
152.558
68.9307
25.2733
140.887
20.6049
140.603
20.5731
69.2635
152.232
301.957
302.125
152.554
68.9298
25.2853
20.6132
140.893
20.581
140.612
69.2568
152.527
302.076
152.231
301.947
69.242
20.5838
140.561
25.3253
68.9247
20.6037
140.866
152.526
302.095
152.226
301.964
68.9237
25.2802
140.836
20.6046
140.565
20.5728
69.2525
152.227
301.929
302.096
152.55
68.9239
25.3166
20.6155
140.858
20.5839
140.575
69.2469
152.226
301.941
302.113
152.546
199.379
197.398
32.3163
199.543
197.46
410.361
410.229
411.727
411.89
32.2588
199.592
197.569
199.434
197.385
410.251
410.369
66.0244
20.1551
137.906
24.8165
65.918
20.1764
138.084
148.551
299.951
148.417
299.851
148.556
299.958
148.42
299.861
65.8953
24.8159
20.1995
138.023
20.1667
137.859
66.0494
65.9007
24.812
20.2
138.08
20.1669
137.907
66.0473
148.442
299.831
299.97
148.522
148.442
299.843
299.98
148.53
411.863
411.674
410.4
410.304
32.303
199.404
197.642
199.236
197.525
411.666
411.84
410.306
410.421
410.307
410.202
411.91
411.745
197.356
199.415
32.2281
197.466
199.612
410.111
410.295
411.673
411.891
32.2401
197.511
199.628
197.461
199.524
148.501
300.012
148.49
299.782
66.0117
137.867
20.1818
24.8553
65.8991
137.977
20.2322
66.0203
137.925
20.1814
24.8486
65.9117
138.035
20.2315
148.516
299.624
300.034
148.454
148.526
299.633
300.047
148.467
65.9538
24.8862
137.925
20.3045
137.905
20.223
66.0326
65.9599
24.8811
137.979
20.3035
137.954
20.2225
66.0415
197.526
199.278
32.2404
197.628
199.56
411.849
411.714
410.164
410.329
32.2492
197.664
199.484
197.63
199.421
411.624
411.853
69.2708
140.605
20.5835
25.2786
68.9632
140.906
20.6369
152.541
302.155
152.256
301.915
69.2691
20.5929
140.611
25.2888
68.9566
20.6459
140.917
152.286
301.754
302.181
152.459
68.9638
25.2989
140.865
20.7061
140.632
20.6164
69.2894
152.282
301.761
302.198
152.453
68.9622
25.3109
20.7143
140.871
20.6261
140.642
69.2823
152.539
302.124
152.256
301.888
69.2667
20.5951
140.573
25.3404
68.9486
20.6495
140.878
152.537
302.136
152.25
301.896
68.9555
25.3067
140.806
20.7061
140.596
20.6163
69.2791
152.27
301.739
302.169
152.483
68.955
25.3451
20.7193
140.822
20.6291
140.6
69.2744
152.267
301.745
302.178
152.49
199.391
197.466
32.2817
199.584
197.524
410.347
410.213
411.641
411.856
32.2969
199.559
197.611
199.509
197.532
410.165
410.336
66.038
20.1885
137.928
24.8175
65.9358
20.2387
138.045
148.513
300.001
148.51
299.774
148.518
300.012
148.509
299.785
65.9755
24.8623
20.3145
137.934
20.2309
137.898
66.0513
65.9775
24.8721
20.3115
137.98
20.2295
137.957
66.0566
148.539
299.617
300.035
148.471
148.541
299.629
300.047
148.476
411.814
411.723
410.413
410.232
32.3667
199.517
197.729
199.411
197.648
411.649
411.84
410.179
410.346
410.21
409.748
411.809
411.31
197.558
199.654
32.2771
197.485
199.579
408.105
409.85
409.495
411.487
32.3832
197.024
198.987
197.572
199.643
148.305
300.055
148.528
299.221
66.0081
137.876
20.3005
24.9807
65.9772
137.765
20.4387
66.0163
137.929
20.2997
24.9734
65.9829
137.786
20.4371
148.372
297.956
299.92
148.239
148.377
297.935
299.932
148.245
65.9377
25.1278
136.874
20.7024
137.749
20.4496
65.9804
65.9415
25.1219
136.909
20.6992
137.824
20.448
65.9823
197.709
199.5
32.2907
197.58
199.37
411.749
411.271
407.867
409.912
32.3627
197.055
198.771
197.677
199.442
409.191
411.435
69.2507
140.607
20.6885
25.381
69.0133
140.714
20.8386
152.283
302.194
152.403
301.347
69.2455
20.6971
140.61
25.3904
69.0089
20.8446
140.651
152.231
300.076
302.071
151.655
69.0235
25.5131
140.005
21.1171
140.474
20.8384
69.005
152.232
299.985
302.066
151.639
69.0194
25.5241
21.1151
139.866
20.8439
140.489
68.9997
152.298
302.171
152.376
301.33
69.2439
20.701
140.563
25.4413
68.9913
20.8495
140.591
152.306
302.179
152.36
301.333
69.0031
25.5208
139.968
21.1094
140.423
20.8365
68.9896
152.212
300.003
302.053
151.667
68.9993
25.5686
21.1129
139.674
20.8461
140.463
68.9787
152.203
299.883
302.069
151.694
199.58
197.637
32.3382
199.452
197.471
410.247
409.845
409.347
411.401
32.3823
198.952
196.854
199.596
197.612
407.671
409.943
66.0213
20.307
137.929
24.9551
65.9927
20.4487
137.758
148.295
300.035
148.534
299.197
148.299
300.051
148.534
299.22
65.9473
25.0988
20.7063
136.852
20.4592
137.784
65.9802
65.9454
25.0976
20.7069
136.841
20.459
137.836
65.9765
148.372
297.904
299.908
148.224
148.37
297.918
299.943
148.224
411.743
411.369
410.284
409.94
32.4398
198.773
197.046
199.456
197.777
409.501
411.356
408.09
409.994
409.164
405.788
410.266
405.412
197.768
199.176
33.1267
198.907
199.329
650.272
411.799
644.975
411.293
34.4492
228.313
227.442
201.815
201.653
151.789
300.491
150.42
298.554
69.7351
137.912
20.8245
25.6246
67.4721
139.781
22.0687
69.7144
138.011
20.8185
25.6
67.4856
140.413
22.0534
155.129
977.058
303.337
166.009
155.446
979.817
302.907
166.322
72.2136
27.5384
278.604
25.6456
141.78
22.1028
78.9596
72.2671
27.4999
282.417
25.5372
141.139
22.084
79.0289
197.984
199.025
33.1017
199.162
199.307
410.496
406.282
646.03
410.254
34.4122
227.964
229.435
202.403
200.951
646.066
410.16
69.6316
139.678
21.0654
25.5435
68.5862
140.754
22.0309
151.883
301.46
151.25
298.691
69.6217
21.0627
139.705
25.5014
68.5715
22.0212
141.136
155.221
974.013
303.388
166.033
72.123
27.4412
276.327
25.6416
141.158
22.0961
78.8547
155.135
977.634
302.926
165.78
72.0797
27.4445
25.4868
278.668
22.0529
141.141
78.7492
151.893
301.439
151.212
298.815
69.5925
21.0538
139.749
25.5764
68.5439
22.0014
140.956
151.849
301.653
151.185
298.721
72.0093
27.4188
275.613
25.5511
141.04
22.0578
78.8647
154.843
967.975
303.311
166.396
72.0192
27.4698
25.481
281.053
22.0184
140.725
78.7489
155.062
980.981
303.714
165.878
199.349
198.075
33.1015
199.658
199.246
409.958
406.247
649.086
409.314
34.1492
227.738
225.969
202.16
201.188
646.737
409.088
69.7235
20.8383
138.138
25.5651
67.4683
22.0681
140.666
151.866
300.469
150.392
298.577
151.776
300.635
150.396
298.657
72.1012
27.4206
25.5986
277.168
22.1356
140.52
78.7167
72.1779
27.4199
25.611
275.707
22.1332
140.452
78.9476
154.741
977.678
303.061
165.324
155.244
972.32
303.527
165.731
410.929
403.637
410.192
404.846
34.2543
227.903
225.117
201.498
200.946
652.26
413.346
644.426
412.36
1659.1
1045.26
1658.18
806.012
369.938
367.408
34.7943
545.809
422.033
35.1221
426.908
339.887
165.244
1573.12
220.547
753.452
74.8821
295.297
24.5887
28.2274
91.0561
289.817
25.2865
75.2508
298.236
24.4914
28.0944
91.0668
272.109
25.2352
60.6632
29.2297
260.204
26.078
61.1525
29.3585
246.803
26.0612
371.658
366.658
34.5806
451.338
430.996
1649.32
859.786
35.5844
365.343
336.541
75.2296
293.554
24.5796
28.0837
90.6797
254.784
25.2559
167.632
1580.35
221.551
625.096
75.4297
24.498
295.965
27.7295
90.9533
25.1931
252.955
60.5594
28.8784
229.718
26.0749
60.7765
28.5587
25.9544
229.417
21.0637
20.5141
20.5297
24.1205
19.6006
21.9142
21.9319
21.0931
20.4259
20.4519
23.8678
19.5698
21.8864
21.8782
21.0793
20.4728
20.4922
23.7507
19.589
21.8587
21.8734
21.2338
24.6445
22.4298
22.4345
21.2302
24.84
22.3987
22.4156
21.2559
24.5077
22.3861
22.3787
21.2428
24.8276
22.3733
22.4023
158.962
1561.7
219.661
723.575
75.2678
24.41
295.241
27.975
90.6411
25.0873
279.399
158.98
1565.57
221.207
750.026
61.5045
29.1773
239.334
25.9208
61.3346
29.4388
25.8504
256.023
384.703
375.968
34.4708
379.392
460.465
1670.6
898.001
35.5316
343.112
390.181
75.5809
24.5248
294.013
27.9116
91.3085
25.1746
261.932
167.028
1557.26
223.274
757.224
167.219
1580.88
223.044
690.008
60.7377
28.5227
25.9658
250.797
60.5962
29.1767
26.0243
240.392
1665.84
944.161
1672.01
865.103
35.604
399.026
348.312
922.968
692.938
138.454
654.07
139.545
614.338
807.137
741.185
140.994
531.139
142.565
530.539
140.241
609.529
139.047
621.91
655.039
824.743
138.815
661.623
142.01
602.497
820.352
757.659
412.098
417.539
417.289
246.395
308.046
100.583
161.344
308.583
100.208
160.154
332.119
148.018
310.052
164.371
310.107
164.224
332.057
431.169
208.888
299.805
431.313
208.787
332.086
148.146
310.214
164.218
332.181
310.091
164.367
431.29
208.611
299.85
208.64
431.144
410.156
410.273
335.219
152.148
168.548
313.239
168.26
313.34
335.102
433.981
212.133
301.936
434.213
212.243
335.105
152.481
168.289
313.341
335.22
168.584
313.242
434.21
212.221
302.003
212.105
433.979
411.655
411.83
246.462
417.16
417.04
417.899
416.954
246.736
161.195
100.332
308.174
199.314
161.071
100.422
308.076
159.8
99.0907
308.348
197.8
159.61
99.4206
308.175
246.655
417.896
417.109
246.25
417.787
416.45
160.874
308.388
199.258
100.665
100.266
308.439
160.998
159.585
307.636
197.619
99.1
99.0427
307.87
159.865
332.162
148.246
310.131
164.566
310.163
164.397
332.118
431.138
208.486
299.854
431.267
208.504
332.1
148.345
310.138
164.336
332.142
310.107
164.509
431.276
208.513
299.897
208.493
431.146
410.218
410.34
335.229
151.992
168.494
313.256
168.149
313.348
335.119
433.991
212.089
301.934
434.219
212.222
335.107
152.29
168.118
313.338
335.218
168.433
313.243
434.226
212.242
302.01
212.105
433.998
411.654
411.836
246.432
417.643
417.159
417.802
417.321
246.393
160.96
100.21
308.223
199.401
160.613
100.463
308.109
159.881
98.8484
308.082
197.61
159.628
99.097
308.163
246.504
417.662
417.286
246.566
417.578
417.14
160.731
308.087
199.202
100.469
100.177
308.174
161.087
159.609
308.28
197.518
99.151
98.908
308.304
159.861
332.199