/*--------------------------------*- C++ -*----------------------------------*\
| =========                 |                                                 |
| \\      /  F ield         | OpenFOAM: The Open Source CFD Toolbox           |
|  \\    /   O peration     | Version:  2206                                  |
|   \\  /    A nd           | Website:  www.openfoam.com                      |
|    \\/     M anipulation  |                                                 |
\*---------------------------------------------------------------------------*/
FoamFile
{
    version     2.0;
    format      ascii;
    arch        "LSB;label=32;scalar=64";
    class       volScalarField;
    location    "0.1";
    object      omega;
}
// * * * * * * * * * * * * * * * * * * * * * * * * * * * * * * * * * * * * * //

dimensions      [0 0 -1 0 0 0 0];

internalField   nonuniform List<scalar> 
66940
(
20.5594
20.6398
20.6273
20.875
20.5578
20.6367
20.625
20.8891
20.5578
20.6367
20.6246
20.8735
20.5578
20.6369
20.6245
20.8885
20.5577
20.6365
20.6246
20.8735
20.5578
20.6368
20.6246
20.8885
20.5578
20.6367
20.6246
20.8735
20.5577
20.6369
20.6246
20.8885
20.5578
20.6366
20.6247
20.8734
20.5577
20.6366
20.6245
20.8883
20.5595
20.6272
20.6225
20.869
20.7067
21.3801
21.301
22.1254
20.8774
20.6331
20.6339
20.8776
20.6438
20.6454
20.6449
20.6469
20.8801
20.6312
20.6305
20.8792
20.8772
20.8753
20.6305
20.6315
20.6267
20.6272
20.8774
20.8788
20.6399
20.6414
20.6359
20.6375
20.6432
20.637
20.6405
20.8797
20.8788
20.631
20.6259
20.6265
20.8962
20.875
20.8747
20.6279
20.6278
20.626
20.6253
20.8778
20.8748
20.6373
20.6389
20.6362
20.6379
20.6417
20.637
20.638
20.878
20.8789
20.6265
20.6251
20.6241
20.8782
20.8745
20.8747
20.6274
20.6268
20.6261
20.6257
20.8745
20.878
20.6375
20.6392
20.6362
20.638
20.6383
20.6373
20.6393
20.8781
20.8791
20.6265
20.6251
20.6257
20.8955
20.8745
20.8747
20.6275
20.6271
20.6261
20.6255
20.8772
20.8752
20.6375
20.6393
20.6362
20.6379
20.6413
20.6367
20.638
20.8783
20.8789
20.6257
20.6251
20.6241
20.8782
20.8745
20.8747
20.6275
20.6268
20.6261
20.6257
20.8749
20.8779
20.6376
20.6392
20.6362
20.638
20.6383
20.6371
20.6393
20.8781
20.8791
20.6265
20.6252
20.6257
20.8955
20.8745
20.8747
20.6275
20.6271
20.6261
20.6255
20.8769
20.8749
20.6376
20.6392
20.6362
20.6379
20.6412
20.637
20.638
20.8788
20.8789
20.6257
20.6251
20.6241
20.8782
20.8744
20.8747
20.6275
20.6268
20.6261
20.6257
20.8746
20.8778
20.6376
20.6392
20.6362
20.6379
20.6383
20.6372
20.6393
20.8786
20.879
20.6265
20.6252
20.6257
20.8956
20.8744
20.8747
20.6275
20.627
20.6261
20.6254
20.8769
20.8747
20.6376
20.6392
20.6362
20.6379
20.6413
20.6367
20.638
20.8781
20.8787
20.6257
20.6251
20.6241
20.8781
20.8744
20.8746
20.6275
20.6268
20.626
20.6256
20.8745
20.8776
20.6376
20.6392
20.636
20.6377
20.6383
20.6371
20.6391
20.8784
20.8788
20.6265
20.625
20.6256
20.8953
20.8746
20.872
20.6273
20.6269
20.6248
20.6241
20.8774
20.8729
20.6373
20.639
20.6354
20.6371
20.641
20.6365
20.6368
20.8786
20.8764
20.6257
20.6242
20.6225
20.8753
20.8696
21.198
20.625
20.6244
20.8218
20.8139
20.8691
21.2551
20.6287
20.6306
20.8147
20.8124
20.631
20.8468
20.8184
20.8726
21.1985
20.6233
20.8239
20.8182
21.2009
22.1207
21.3087
21.3077
22.2899
21.2937
21.2995
20.7054
20.7054
20.7056
21.3068
22.117
21.2966
337.92
20.564
20.566
20.564
20.5656
24.2845
20.6638
43.7096
20.6017
20.8873
85.5529
84.7407
47.5456
191.06
47.611
190.909
337.083
336.78
49.4503
193.782
49.2362
193.665
20.5635
20.5617
20.5624
20.558
20.5589
20.5579
20.5584
24.3816
44.0345
20.5768
20.6397
24.3141
44.0921
20.5774
339.332
339.153
23.9383
20.5705
42.8822
20.6278
23.9413
20.5716
42.8441
86.1444
84.8611
20.8895
86.2228
84.7369
47.3849
191.034
47.4552
190.778
336.929
336.683
49.4551
193.783
49.2305
193.649
20.5603
20.5597
20.56
20.5582
20.558
20.5582
20.5579
24.3708
44.0303
20.574
20.6381
24.3074
44.083
20.5761
339.316
339.154
23.9052
20.5693
42.7608
20.6262
23.9179
20.5712
42.7316
86.2049
84.353
20.8812
86.2114
84.2054
47.3225
191.056
47.3486
190.817
336.892
336.666
49.4555
193.792
49.2329
193.676
20.5598
20.5599
20.5598
20.5581
20.5581
20.5582
20.5582
24.3697
44.0181
20.5742
20.638
24.3086
44.0651
20.576
339.288
339.141
23.8908
20.5694
42.7352
20.6259
23.8969
20.5712
42.7113
86.1764
84.2416
20.8871
86.2133
84.3864
47.3243
191.009
47.3486
190.788
336.892
336.663
49.4557
193.791
49.2327
193.665
20.5599
20.5599
20.5599
20.558
20.5581
20.5582
20.5581
24.3698
44.024
20.5741
20.6382
24.3085
44.0797
20.5759
339.288
339.14
23.8893
20.5693
42.698
20.6259
23.8937
20.5711
42.6695
86.193
84.3383
20.881
86.2167
84.2014
47.32
191.008
47.3508
190.788
336.888
336.665
49.4559
193.791
49.233
193.665
20.5598
20.5599
20.5599
20.5581
20.5581
20.5582
20.5583
24.3698
44.0109
20.5741
20.6379
24.3086
44.0628
20.5759
339.285
339.142
23.8953
20.5693
42.7025
20.6259
23.8955
20.5711
42.6749
86.1605
84.2402
20.8871
86.2062
84.386
47.3222
191.01
47.3241
190.789
336.879
336.659
49.4558
193.791
49.2329
193.664
20.5599
20.5599
20.56
20.5582
20.5581
20.5581
20.5581
24.3699
44.0239
20.5741
20.6382
24.3086
44.0794
20.576
339.303
339.149
23.8906
20.5693
42.7254
20.6259
23.8964
20.5711
42.709
86.193
84.3393
20.881
86.2162
84.2033
47.3243
191.007
47.3525
190.787
336.889
336.66
49.4556
193.79
49.2327
193.664
20.5599
20.5598
20.5599
20.558
20.5582
20.5581
20.5583
24.3696
44.0108
20.5741
20.638
24.3085
44.0626
20.576
339.292
339.142
23.8895
20.5692
42.7278
20.6259
23.8936
20.5711
42.7152
86.1602
84.2408
20.8871
86.2057
84.3834
47.32
191.008
47.3521
190.787
336.881
336.665
49.4556
193.79
49.2325
193.664
20.5599
20.5599
20.56
20.5582
20.5581
20.5582
20.5581
24.3704
44.0237
20.5741
20.6382
24.3086
44.0793
20.576
339.285
339.138
23.8953
20.5693
42.7277
20.6259
23.8957
20.5711
42.709
86.1933
84.3387
20.8811
86.2101
84.2031
47.3071
191.007
47.3221
190.772
336.899
336.646
49.4458
193.792
49.2333
193.653
20.5599
20.5599
20.5599
20.558
20.5581
20.5582
20.5583
24.3682
44.01
20.5741
20.6379
24.3085
44.0531
20.5759
339.296
339.113
23.8925
20.5693
42.7327
20.626
23.8962
20.5711
42.7084
86.1596
84.2383
20.887
86.194
84.373
47.2395
191.027
47.3539
190.273
336.686
336.353
49.2552
193.882
49.3336
193.159
20.5599
20.5599
20.56
20.5591
20.5585
20.5586
20.5584
24.3485
44.0378
20.574
20.6377
24.3046
43.9512
20.5758
339.169
338.896
23.8781
20.5693
42.7715
20.6257
23.8934
20.5711
42.6427
86.2084
84.3752
20.8808
86.0669
84.1243
50.9691
193.917
49.0956
194.876
336.711
335.548
50.786
195.516
49.1231
195.073
20.56
20.56
20.5598
20.6566
20.6555
20.6546
20.6545
24.8363
43.9325
20.5723
20.6496
24.2735
46.0424
20.5896
337.895
335.856
25.0241
20.5732
43.5574
20.6625
24.1929
20.5984
46.0901
85.902
84.258
20.9068
87.0815
86.7552
124.045
1821.29
127.458
478.285
1820.21
629.561
124.173
1821.53
126.561
477.904
20.8113
20.717
20.7174
21.049
20.6822
20.8813
20.882
46.3081
251.175
20.8904
21.7143
35.8638
243.637
21.0706
1819.96
629.582
46.3522
20.8929
251.277
21.7191
35.958
21.0719
243.759
309.075
309.698
23.1063
377.267
377.324
336.816
338.115
339.186
338.954
20.8805
84.8569
86.1603
85.0013
85.5233
192.26
20.6676
43.4482
48.7517
190.961
192.45
47.6223
48.7234
191.303
192.19
47.6089
24.213
20.6426
42.9282
20.5763
43.3512
20.5885
23.9487
24.2099
20.6432
42.9857
20.5766
43.318
20.5887
23.9475
20.8914
85.0695
85.6697
338.675
336.967
337.86
20.8842
84.9125
86.1718
84.8764
85.5001
339.151
338.528
48.9638
193.763
193.22
49.3965
24.2439
20.6554
44.0095
20.5809
43.6109
20.5927
24.3648
48.9364
193.692
193.272
49.3633
24.2412
20.6569
20.5814
44.0398
20.5935
43.6652
24.3639
48.9631
192.919
24.2823
20.6657
20.604
43.7321
48.9513
192.991
24.2316
20.655
44.0747
20.5813
43.5687
20.5919
24.3609
48.798
193.732
192.798
49.3051
24.23
20.6581
20.5827
44.082
20.5943
43.5958
24.3573
48.7897
193.785
192.854
49.3014
339.307
338.937
20.8821
86.0366
84.8302
85.7816
84.6155
336.709
337.687
24.1904
20.6404
20.5744
42.9029
20.5863
43.1987
23.9444
24.1897
20.6399
20.5763
42.875
20.5886
43.1787
23.9445
48.5489
190.734
191.935
47.5798
48.5472
191.021
192.005
47.5744
338.634
337.564
20.8797
86.1724
84.9318
85.3944
84.5126
339.14
338.51
336.931
337.455
336.648
336.783
339.015
339.211
84.6205
85.958
20.8757
84.6293
86.2875
336.797
336.742
339.257
339.191
20.8755
84.4277
86.2555
84.417
86.0471
47.5803
190.918
47.4926
191.05
23.9296
42.8352
20.5738
20.6293
23.9165
42.8739
20.5726
23.9361
42.9037
20.5739
20.6307
23.9171
42.9024
20.5727
47.4383
190.975
190.732
47.5027
47.464
191.049
190.971
47.496
23.9063
20.6272
42.7931
20.5699
42.745
20.5702
23.9245
23.9109
20.629
42.7861
20.5699
42.7679
20.5703
23.932
84.6851
85.9357
20.8773
84.6496
86.2823
339.137
339.208
336.85
336.761
20.8774
84.349
86.2739
84.2915
86.0869
339.27
339.159
24.3767
43.8491
20.578
20.6383
24.3064
44.0921
20.5769
49.4162
193.451
49.154
193.78
24.3742
20.5783
43.8705
20.6398
24.3069
20.5772
44.1186
49.19
193.762
193.46
49.4038
24.3047
20.6359
44.0737
20.574
43.8979
20.5743
24.3574
49.1896
193.919
193.618
49.4001
24.3052
20.6377
20.5744
44.1138
20.5746
43.9284
24.3635
49.4353
193.557
49.1148
193.863
24.3779
20.5798
43.9073
20.6438
24.3009
20.5788
44.1435
49.4298
193.592
49.1145
193.865
24.3088
20.6388
44.1462
20.5741
43.8953
20.5764
24.3663
49.2052
193.84
193.694
49.4032
24.307
20.6402
20.5755
44.1112
20.5765
43.9378
24.3628
49.203
193.856
193.671
49.4044
85.8284
84.5306
20.8778
86.1542
84.4784
336.552
336.742
339.261
339.141
20.8776
86.2481
84.3291
86.105
84.1106
336.758
336.723
23.9385
20.5734
42.8229
20.6278
23.9143
20.5722
42.8785
47.6104
190.519
47.4745
190.884
47.5983
190.822
47.4689
191.038
23.9182
20.6271
20.5697
42.8259
20.5711
42.709
23.9372
23.9179
20.6282
20.5696
42.77
20.5699
42.743
23.9287
47.4891
190.892
190.747
47.5257
47.4857
190.981
190.974
47.5161
339.149
339.194
336.805
337.002
20.8831
86.3456
84.4503
85.85
84.2857
339.198
339.168
336.76
336.848
336.739
336.719
339.175
339.19
84.2262
86.0259
20.8736
84.3381
86.305
336.768
336.689
339.252
339.173
20.8736
84.3478
86.2866
84.1816
86.0736
47.4088
190.957
47.3797
191.085
23.9041
42.6759
20.5717
20.6276
23.8959
42.775
20.5716
23.9125
42.693
20.5717
20.6274
23.9038
42.7703
20.5715
47.276
191.053
190.755
47.3916
47.3232
190.956
190.825
47.3756
23.882
20.6263
42.7416
20.5701
42.6614
20.5707
23.9061
23.8864
20.6256
42.7351
20.57
42.6502
20.5704
23.9097
84.1608
86.0542
20.8749
84.2873
86.2081
339.132
339.181
336.797
336.699
20.874
84.314
86.221
84.1342
85.9739
339.183
339.151
24.368
43.8711
20.5758
20.6372
24.2932
44.0919
20.5758
49.4218
193.709
49.179
193.852
24.3693
20.5762
43.9166
20.6388
24.2994
20.5762
44.1328
49.2096
193.778
193.451
49.4088
24.3024
20.6363
44.075
20.5743
43.9061
20.5747
24.361
49.1957
193.824
193.719
49.4076
24.3042
20.6382
20.5748
44.107
20.5753
43.9386
24.3683
49.4205
193.64
49.1795
193.894
24.3677
20.5768
43.9051
20.6409
24.297
20.5766
44.1284
49.4182
193.722
49.1832
193.806
24.3019
20.6378
44.1358
20.5746
43.8848
20.5759
24.3689
49.1928
193.853
193.7
49.4047
24.3004
20.6392
20.5747
44.1242
20.5751
43.9325
24.3662
49.192
193.836
193.622
49.4064
86.0166
84.1353
20.8767
86.2122
84.213
336.726
336.707
339.244
339.047
20.8766
86.2504
84.3153
86.1533
83.9166
336.75
336.656
23.91
20.5713
42.6769
20.6259
23.899
20.5711
42.7093
47.4214
190.876
47.3998
190.93
47.418
190.972
47.3969
190.933
23.8873
20.6259
20.5698
42.7969
20.571
42.6044
23.9101
23.89
20.6242
20.5696
42.7101
20.57
42.5895
23.9049
47.3281
191.051
190.827
47.373
47.3299
190.939
190.935
47.3816
339.143
339.177
336.662
336.735
20.8783
86.3107
84.2026
85.9803
84.0481
339.161
339.179
336.725
336.69
336.73
336.729
339.147
339.253
84.1859
86.0593
20.8735
84.3635
86.315
336.756
336.667
339.256
339.139
20.8736
84.3294
86.2871
84.1943
86.0806
47.3585
190.88
47.2709
190.997
23.8932
42.6505
20.5718
20.6273
23.8787
42.7776
20.5717
23.8995
42.6634
20.5717
20.6268
23.8839
42.769
20.5716
47.2221
190.953
190.783
47.3858
47.2515
190.931
190.798
47.3877
23.8765
20.6263
42.7434
20.57
42.6675
20.5705
23.907
23.8777
20.6259
42.7389
20.5699
42.6481
20.5704
23.9106
84.1643
85.9627
20.8748
84.3339
86.2123
339.15
339.166
336.797
336.675
20.8752
84.2381
86.2665
84.083
86.0159
339.186
339.139
24.3681
43.8703
20.5761
20.6374
24.2953
44.094
20.576
49.4205
193.661
49.1851
193.752
24.3687
20.5765
43.9057
20.639
24.3028
20.5764
44.1234
49.2093
193.784
193.473
49.4083
24.3023
20.6363
44.0845
20.5744
43.9058
20.5749
24.361
49.1933
193.823
193.689
49.4065
24.3035
20.6383
20.5747
44.1105
20.5751
43.9349
24.368
49.4157
193.664
49.1802
193.865
24.3667
20.5763
43.9134
20.64
24.2992
20.5763
44.1084
49.4155
193.645
49.1846
193.852
24.3007
20.6377
44.1317
20.5743
43.8685
20.5756
24.3685
49.1873
193.776
193.678
49.4036
24.2995
20.638
20.5747
44.0988
20.575
43.9084
24.3661
49.189
193.829
193.646
49.4061
86.0112
84.1408
20.8768
86.2092
84.224
336.721
336.709
339.242
338.989
20.8767
86.2429
84.3208
86.1692
83.9278
336.747
336.652
23.8977
20.5714
42.6033
20.6258
23.8773
20.5712
42.7436
47.3471
190.821
47.28
190.891
47.3571
190.934
47.2782
190.917
23.8783
20.6258
20.5697
42.7682
20.5709
42.5869
23.9048
23.882
20.6267
20.5696
42.7405
20.57
42.6236
23.9001
47.2752
190.891
190.85
47.3393
47.2825
190.917
190.91
47.3521
339.149
339.17
336.681
336.758
20.881
86.3199
84.4045
85.8203
84.1442
339.249
339.113
336.732
336.683
336.743
336.723
339.147
339.253
84.1657
86.0595
20.8735
84.3547
86.3168
336.756
336.657
339.256
339.139
20.8736
84.3223
86.2881
84.1879
86.0824
47.3927
190.905
47.2812
190.901
23.8935
42.6427
20.5717
20.6274
23.8797
42.7726
20.5716
23.905
42.649
20.5716
20.6269
23.8849
42.7633
20.5715
47.2242
190.953
190.778
47.3972
47.2855
190.933
190.836
47.4053
23.877
20.6264
42.7433
20.57
42.665
20.5705
23.9071
23.8825
20.6258
42.7375
20.5699
42.642
20.5703
23.9125
84.0785
86.0541
20.8755
84.2937
86.2183
339.154
339.168
336.789
336.683
20.8747
84.3054
86.2121
84.1383
85.9818
339.167
339.14
24.3681
43.8777
20.576
20.6374
24.2953
44.0932
20.576
49.4205
193.661
49.1844
193.753
24.3688
20.5764
43.9081
20.6391
24.3027
20.5763
44.1243
49.2095
193.784
193.453
49.4086
24.3024
20.6364
44.0847
20.5743
43.9054
20.5749
24.3611
49.1935
193.828
193.689
49.4072
24.3036
20.6382
20.5747
44.1058
20.5751
43.9343
24.3681
49.4164
193.571
49.1798
193.855
24.3669
20.5764
43.8955
20.641
24.2993
20.5763
44.1313
49.4167
193.64
49.1848
193.852
24.3008
20.6378
44.1293
20.5742
43.8817
20.5756
24.3686
49.188
193.772
193.67
49.4036
24.2998
20.6396
20.5747
44.1166
20.5751
43.9345
24.3662
49.1902
193.782
193.678
49.4062
86.0042
84.1456
20.8768
86.2099
84.2212
336.699
336.706
339.239
338.994
20.8768
86.2229
84.3183
86.1622
83.9247
336.743
336.65
23.8972
20.5713
42.6395
20.6253
23.8736
20.5711
42.7323
47.3389
190.874
47.2663
190.889
47.3531
190.915
47.2587
190.906
23.8766
20.6257
20.5696
42.7686
20.5709
42.5495
23.9066
23.8804
20.6242
20.5695
42.7168
20.5699
42.6078
23.9026
47.2371
190.904
190.841
47.3791
47.2487
190.979
190.87
47.3926
339.071
339.298
336.711
336.729
20.8783
86.3006
84.2018
85.9813
84.043
339.226
339.066
336.714
336.671
336.741
336.719
339.147
339.252
84.1556
86.06
20.8734
84.3277
86.3152
336.755
336.653
339.256
339.139
20.8735
84.323
86.2873
84.1626
86.0809
47.3939
190.912
47.2952
190.903
23.8941
42.6399
20.5717
20.6274
23.8798
42.7683
20.5716
23.9052
42.655
20.5716
20.6268
23.8861
42.7676
20.5715
47.247
190.954
190.773
47.3171
47.2858
190.935
190.839
47.4026
23.8755
20.6263
42.7423
20.57
42.6606
20.5705
23.903
23.8828
20.6259
42.739
20.5698
42.6462
20.5702
23.9122
84.1569
85.9528
20.8747
84.3306
86.2057
339.138
339.164
336.792
336.649
20.8751
84.2384
86.2678
84.0878
86.0121
339.186
339.138
24.3682
43.8778
20.576
20.6375
24.2954
44.0931
20.576
49.4219
193.626
49.1853
193.809
24.369
20.5764
43.9067
20.639
24.3028
20.5763
44.1277
49.2097
193.783
193.453
49.4085
24.3024
20.6363
44.0844
20.5743
43.9053
20.5749
24.3611
49.1948
193.824
193.706
49.4076
24.3038
20.6382
20.5747
44.1108
20.5751
43.9373
24.3682
49.4161
193.565
49.1798
193.852
24.3668
20.5763
43.9062
20.6399
24.2994
20.5762
44.1071
49.416
193.598
49.1847
193.844
24.3007
20.6377
44.1317
20.5743
43.8669
20.5756
24.3685
49.1876
193.775
193.667
49.4037
24.2996
20.6379
20.5747
44.0991
20.575
43.9077
24.3662
49.1896
193.829
193.642
49.407
85.9872
84.1431
20.8769
86.2148
84.2211
336.689
336.705
339.245
339.063
20.8768
86.2426
84.32
86.1649
83.9247
336.751
336.655
23.8993
20.5713
42.6043
20.6258
23.8763
20.5712
42.7421
47.3928
190.847
47.2726
190.875
47.368
190.855
47.2888
190.903
23.8804
20.6258
20.5696
42.778
20.5709
42.552
23.9086
23.8829
20.6267
20.5696
42.7408
20.57
42.6224
23.9009
47.2837
190.999
190.823
47.3927
47.2902
190.918
190.902
47.3601
339.083
339.168
336.624
336.756
20.881
86.3202
84.4054
85.8172
84.1444
339.248
339.113
336.732
336.683
336.742
336.722
339.146
339.252
84.1611
86.0595
20.8735
84.3545
86.3168
336.755
336.656
339.255
339.139
20.8735
84.3218
86.2878
84.1877
86.0825
47.3945
190.903
47.2921
190.903
23.894
42.6424
20.5717
20.6274
23.8756
42.7726
20.5716
23.9055
42.6488
20.5716
20.6269
23.8858
42.7637
20.5715
47.2229
190.953
190.778
47.3991
47.2876
190.933
190.84
47.4065
23.8777
20.6263
42.743
20.57
42.6649
20.5705
23.9075
23.8832
20.6258
42.7378
20.5699
42.6423
20.5704
23.9128
84.0795
86.0587
20.8751
84.2866
86.2166
339.151
339.174
336.792
336.616
20.8742
84.3071
86.2149
84.132
85.9807
339.214
339.117
24.3681
43.8775
20.576
20.6374
24.2953
44.0932
20.576
49.4216
193.663
49.1855
193.757
24.369
20.5764
43.9086
20.6391
24.3028
20.5763
44.1248
49.2096
193.783
193.453
49.4084
24.3024
20.6363
44.0844
20.5743
43.9054
20.5749
24.3611
49.1945
193.83
193.693
49.407
24.3038
20.6382
20.5747
44.1081
20.5751
43.9349
24.3682
49.4163
193.572
49.1799
193.85
24.367
20.5764
43.8957
20.6409
24.2995
20.5763
44.1314
49.4167
193.64
49.1856
193.863
24.3008
20.6378
44.1293
20.5742
43.8816
20.5756
24.3684
49.1878
193.774
193.675
49.4033
24.2998
20.6396
20.5747
44.122
20.5751
43.9342
24.366
49.19
193.829
193.653
49.4057
86.0043
84.1451
20.8769
86.2186
84.2245
336.698
336.704
339.247
339.047
20.8768
86.2534
84.3181
86.1626
83.9277
336.746
336.653
23.8972
20.5713
42.6397
20.6253
23.8741
20.5711
42.7327
47.3497
190.806
47.2905
190.877
47.3546
190.915
47.2605
190.899
23.8781
20.6258
20.5695
42.7863
20.5708
42.5848
23.9044
23.8816
20.6242
20.5695
42.7157
20.5699
42.6087
23.8998
47.2761
191.009
190.829
47.3384
47.2817
190.924
190.903
47.3485
339.071
339.294
336.708
336.732
20.8783
86.3007
84.214
85.9809
84.0302
339.235
339.068
336.723
336.664
336.739
336.718
339.145
339.251
84.1551
86.06
20.8735
84.3273
86.3135
336.754
336.652
339.255
339.138
20.8735
84.3227
86.2867
84.1622
86.0796
47.3936
190.908
47.2962
190.882
23.8931
42.6397
20.5717
20.6274
23.8801
42.7681
20.5716
23.9052
42.6546
20.5716
20.6268
23.8864
42.7673
20.5715
47.2227
190.953
190.771
47.3982
47.2862
191.019
190.863
47.4054
23.8764
20.6263
42.7422
20.5699
42.6604
20.5704
23.9072
23.8828
20.6259
42.7441
20.5699
42.6518
20.5703
23.9127
84.1587
85.9545
20.8748
84.3255
86.2057
339.12
339.164
336.782
336.627
20.8752
84.2323
86.2677
84.0548
86.0119
339.185
339.137
24.3681
43.8776
20.576
20.6375
24.2953
44.0928
20.576
49.4205
193.628
49.1848
193.816
24.3688
20.5764
43.9098
20.639
24.3028
20.5763
44.1307
49.2093
193.783
193.453
49.4081
24.3023
20.6364
44.0842
20.5743
43.905
20.5749
24.361
49.1933
193.822
193.705
49.4058
24.3035
20.6382
20.5747
44.1068
20.5751
43.9376
24.3679
49.4154
193.559
49.1794
193.852
24.3668
20.5763
43.9106
20.6399
24.2992
20.5762
44.1073
49.4157
193.637
49.1843
193.85
24.3006
20.6377
44.1314
20.5743
43.8667
20.5756
24.3685
49.187
193.774
193.667
49.4036
24.2996
20.6379
20.5747
44.0989
20.575
43.9077
24.3661
49.1892
193.828
193.644
49.4062
86.0206
84.143
20.8768
86.2094
84.2224
336.686
336.701
339.24
339.003
20.8767
86.2311
84.3202
86.154
83.9265
336.742
336.665
23.8972
20.5713
42.6033
20.6259
23.8734
20.5712
42.7425
47.3386
190.798
47.2654
190.991
47.3535
190.92
47.2557
190.909
23.8769
20.6258
20.5695
42.7808
20.5708
42.5894
23.9066
23.8808
20.6268
20.5696
42.7411
20.57
42.6229
23.9029
47.237
190.916
190.841
47.3782
47.249
190.918
190.906
47.3897
339.087
339.167
336.669
336.755
20.881
86.3193
84.4048
85.8167
84.1429
339.235
339.111
336.731
336.682
336.742
336.722
339.145
339.251
84.1609
86.0591
20.8735
84.3542
86.3164
336.757
336.657
339.251
339.14
20.8735
84.3197
86.287
84.1874
86.0822
47.3933
190.889
47.2953
190.915
23.8941
42.6423
20.5717
20.6274
23.8801
42.7723
20.5716
23.9052
42.6521
20.5716
20.6269
23.8864
42.7647
20.5715
47.2458
190.951
190.777
47.3142
47.2852
190.938
190.845
47.4015
23.8751
20.6263
42.742
20.5699
42.6646
20.5705
23.9025
23.8826
20.6257
42.7374
20.5699
42.6432
20.5703
23.9119
84.0735
86.0582
20.875
84.2848
86.2175
339.151
339.166
336.793
336.619
20.8742
84.304
86.2106
84.1301
85.9815
339.162
339.141
24.3681
43.8774
20.576
20.6374
24.2952
44.093
20.576
49.4207
193.66
49.1837
193.752
24.3687
20.5764
43.9053
20.639
24.3025
20.5763
44.1234
49.2096
193.785
193.453
49.4078
24.3024
20.6364
44.0837
20.5743
43.9052
20.5749
24.361
49.1941
193.821
193.688
49.4067
24.3037
20.6382
20.5747
44.1073
20.5751
43.9334
24.3684
49.4181
193.571
49.1799
193.853
24.367
20.5764
43.8956
20.641
24.2993
20.5763
44.1312
49.4167
193.639
49.1848
193.858
24.3015
20.6378
44.1283
20.5743
43.8814
20.5756
24.3687
49.1903
193.77
193.669
49.4031
24.3
20.6395
20.5747
44.1211
20.5751
43.934
24.3661
49.1902
193.828
193.651
49.405
85.9929
84.1452
20.8766
86.2072
84.2235
336.687
336.702
339.241
338.993
20.8758
86.2553
84.3162
86.1516
83.9266
336.74
336.654
23.8998
20.5713
42.6399
20.6254
23.8766
20.5711
42.7329
47.3933
190.89
47.2725
190.878
47.3805
190.916
47.2871
190.909
23.8802
20.6257
20.5697
42.7814
20.5709
42.5867
23.9085
23.882
20.6242
20.5696
42.7165
20.5699
42.6081
23.903
47.2837
190.997
190.833
47.3936
47.2696
190.981
190.87
47.3958
339.114
339.191
336.712
336.735
20.8783
86.3006
84.2133
85.9779
84.0304
339.245
339.111
336.713
336.705
336.72
336.694
339.157
339.244
84.155
86.0593
20.8735
84.3185
86.3057
336.678
336.633
339.207
339.129
20.8735
84.3149
86.277
84.1649
86.0784
47.3809
190.913
47.2924
190.871
23.8916
42.6397
20.5716
20.6274
23.8753
42.7589
20.5715
23.9021
42.6553
20.5716
20.6268
23.8857
42.7559
20.5715
47.2599
190.791
190.72
47.2872
47.2971
190.854
190.815
47.3274
23.8782
20.6263
42.7171
20.57
42.6634
20.5705
23.8933
23.886
20.6259
42.7057
20.5699
42.6541
20.5704
23.9006
84.156
85.9524
20.8747
84.3087
86.1926
339.146
339.155
336.645
336.642
20.8751
84.2291
86.2277
84.0462
85.9984
339.138
339.105
24.3667
43.8772
20.576
20.6374
24.2954
44.0847
20.576
49.4116
193.66
49.1857
193.774
24.3673
20.5764
43.9066
20.639
24.3031
20.5763
44.1159
49.2109
193.673
193.467
49.3866
24.3024
20.6363
44.0109
20.5743
43.9018
20.5749
24.3554
49.1968
193.733
193.634
49.3622
24.3034
20.6381
20.5747
44.0519
20.5751
43.9329
24.3627
49.4061
193.566
49.18
193.831
24.3652
20.5763
43.9101
20.6399
24.2993
20.5762
44.0986
49.4066
193.637
49.1847
193.835
24.3003
20.6377
44.0755
20.5742
43.8623
20.5755
24.3641
49.1899
193.613
193.641
49.3614
24.2993
20.6379
20.5746
44.0364
20.5749
43.9029
24.36
49.1924
193.655
193.651
49.3623
86.0196
84.1417
20.8767
86.2154
84.2155
336.694
336.678
339.157
339.094
20.8766
86.2272
84.319
86.1596
83.9275
336.675
336.627
23.8976
20.5713
42.6025
20.6259
23.8767
20.5712
42.7319
47.3718
190.807
47.2853
190.856
47.3673
190.851
47.2917
190.885
23.8802
20.6259
20.5696
42.7388
20.5709
42.5969
23.8909
23.8818
20.6266
20.5696
42.7036
20.57
42.6239
23.8884
47.3081
190.829
190.801
47.2881
47.2757
190.772
190.836
47.3163
339.067
339.166
336.63
336.739
20.8809
86.2879
84.4233
85.8141
84.1411
339.2
339.106
336.651
336.673
336.453
336.431
338.95
338.981
84.1852
86.0609
20.8731
84.2678
86.1809
334.737
336.142
337.72
338.634
20.8723
83.9367
85.9825
84.1003
86.0423
47.2755
190.889
47.3225
190.42
23.8785
42.6737
20.5717
20.6271
23.8758
42.6827
20.5716
23.8833
42.6962
20.5716
20.6267
23.8862
42.679
20.5715
47.2313
189.613
190.729
47.4691
47.2513
189.655
190.843
47.4567
23.865
20.6264
42.4597
20.5697
42.6735
20.5709
23.9276
23.8674
20.6258
42.4527
20.5696
42.667
20.5708
23.932
84.1051
86.0036
20.875
84.2166
86.116
338.896
338.962
334.684
336.113
20.8741
83.9117
85.8843
84.0358
85.9981
337.666
338.59
24.3369
43.9295
20.5759
20.6371
24.2921
43.9527
20.5759
49.2874
193.749
49.1877
193.28
24.343
20.5763
43.9733
20.6387
24.3
20.5762
43.9771
49.1607
192.846
193.576
49.122
24.2846
20.6355
43.9339
20.5747
43.9367
20.5747
24.3185
49.1906
192.937
193.673
49.1797
24.2908
20.6373
20.575
43.9632
20.575
43.9609
24.3241
49.2941
193.575
49.1829
193.298
24.3448
20.5763
43.96
20.6407
24.2956
20.5762
43.9903
49.2903
193.661
49.1881
193.252
24.2987
20.6367
43.9198
20.5749
43.9223
20.5751
24.3354
49.1928
192.891
193.678
49.1824
24.2957
20.6385
20.5749
43.9488
20.5749
43.9583
24.3269
49.1904
192.911
193.635
49.1934
86.0109
84.2196
20.8762
86.1376
84.1691
336.456
336.436
337.606
338.553
20.8757
86.0059
83.9261
86.0232
83.9102
334.735
336.18
23.8841
20.5712
42.6854
20.6251
23.8784
20.5711
42.6324
47.2745
190.873
47.2878
190.404
47.2794
190.75
47.3104
190.412
23.864
20.6253
20.5696
42.4481
20.5708
42.623
23.936
23.8661
20.6243
20.5691
42.3922
20.5704
42.6221
23.9358
47.2417
189.644
190.844
47.4531
47.2548
189.665
190.832
47.4563
338.937
338.963
336.48
336.459
20.877
85.8406
83.867
86.011
84.0846
337.63
338.629
334.727
336.176
336.286
335.553
337.716
335.997
84.2069
85.8699
20.9046
86.6759
87.1746
562.655
348.478
562.789
348.712
20.9491
121.171
121.843
89.3209
89.797
50.9977
193.543
48.9197
195.034
25.0219
43.4465
20.5733
20.6601
24.1774
46.0504
20.5979
25.0218
43.4468
20.5731
20.6589
24.1763
46.0647
20.5977
53.2508
1004.55
203.02
66.3161
53.1654
1004.68
203.135
66.3019
25.1461
20.7175
220.165
20.9224
46.303
20.5983
28.3162
25.1423
20.718
220.051
20.9219
46.3
20.5981
28.3179
84.1895
85.752
20.9071
86.707
87.4244
337.681
336.069
562.579
348.496
20.9463
121.543
123.707
89.3429
89.3615
562.456
348.655
24.836
43.8688
20.5727
20.6451
24.2532
45.9925
20.5895
50.7132
195.043
49.035
195.228
24.8303
20.5731
43.9
20.6451
24.2607
20.59
46.0035
52.9383
1004.64
203.087
66.2154
24.9781
20.7036
220.065
20.9176
46.2574
20.5932
28.2222
52.9995
1004.82
203.204
66.1655
24.9777
20.7079
20.9171
220.148
20.5928
46.2827
28.2239
50.7259
195.026
49.0316
195.214
24.8395
20.5732
43.8658
20.6472
24.2585
20.5901
45.9967
50.7737
195.029
49.0208
195.202
24.9746
20.6969
220.004
20.9196
46.2192
20.593
28.2299
52.9549
1004.73
203.174
66.1751
24.9746
20.7077
20.9176
220.251
20.5928
46.2715
28.2256
52.9009
1004.78
203.167
66.1955
85.8498
84.1509
20.9075
87.0283
86.7567
336.288
335.628
562.659
348.69
20.9512
121.632
121.473
89.9526
89.2073
562.721
348.528
25.0262
20.5731
43.3811
20.658
24.1725
20.5975
46.0564
50.94
193.544
48.9334
195.044
50.9963
193.545
48.9187
195.029
25.1428
20.7155
20.9247
220.219
20.5994
46.2614
28.3214
25.1416
20.7141
20.9226
220.203
20.5987
46.2598
28.3188
53.2238
1004.65
203.134
66.2827
53.1652
1004.75
203.113
66.3056
337.602
335.897
336.277
335.702
20.9529
121.544
121.646
89.9367
89.1672
562.788
348.724
562.657
348.546
1820.1
630.148
1819.81
629.991
308.718
309.513
23.1054
377.205
377.234
23.4352
341.39
341.309
124.192
1821.26
126.427
477.948
46.3656
251.144
20.895
21.7302
35.9234
243.803
21.0719
46.3985
251.075
20.8941
21.7165
35.8315
243.713
21.072
40.3657
22.0128
235.185
21.1631
40.4163
22.0023
234.907
21.16
309.536
309.241
23.0019
377.343
377.081
1820
629.475
23.3485
341.368
341.057
46.3944
251.125
20.8933
21.7102
35.7781
243.801
21.0724
124.032
1821.47
127.196
478.148
46.3552
20.8922
251.151
21.723
35.8714
21.0708
243.737
40.4168
21.9998
235.021
21.1583
40.3585
22.0084
21.1579
235.084
20.8117
20.7153
20.7159
21.0508
20.6823
20.8812
20.882
20.8108
20.7156
20.7151
21.0495
20.6819
20.8816
20.8801
20.8112
20.7155
20.715
21.0484
20.6818
20.8815
20.8802
20.8342
21.1544
20.9164
20.9169
20.8343
21.1635
20.9163
20.9169
20.8336
21.1637
20.9166
20.9152
20.8339
21.1591
20.9168
20.9152
122.361
1821.45
126.702
477.93
46.3311
20.8918
251.27
21.7296
35.728
21.0712
243.877
122.449
1821.42
125.805
478.301
40.6484
22.0032
234.802
21.1644
40.6665
22.0132
21.1575
235.255
309.471
308.668
23.1119
377.304
376.968
1820.31
629.466
23.4448
341.364
341.064
46.3916
20.8953
251.283
21.7124
35.8325
21.0732
243.921
124.008
1821.37
127.251
478.168
124.19
1821.37
126.441
478.369
40.354
22.0087
21.1579
235.1
40.4091
22.0029
21.1587
235.261
1819.64
630.18
1820.19
630.157
23.4366
341.463
341.416
589.227
589.187
121.693
476.281
121.635
476.411
588.913
588.825
121.632
476.937
121.651
476.156
123.318
476.383
123.363
476.261
588.958
588.835
121.647
476.179
121.623
476.235
589.205
589.148
338.455
351.833
351.111
136.035
199.083
30.1744
54.1356
199.545
29.9241
53.7394
238.1
47.4681
209.138
55.0403
209.12
54.9873
237.575
365.562
92.8314
190.549
365.599
92.5161
238.125
47.51
209.291
55.1873
238.01
208.953
55.0678
365.513
92.4405
190.773
92.4427
365.326
336.506
336.704
241.727
49.2714
57.2364
212.894
57.0299
212.709
241.315
369.362
95.1416
193.431
369.321
94.8784
241.75
49.4485
56.9807
212.922
241.498
57.2226
212.548
369.371
95.15
193.475
94.8945
369.282
338.941
339.009
136.946
351.383
351.386
352.261
350.958
136.84
54.2749
30.3231
199.994
85.8984
54.3232
30.2948
199.287
54.5114
29.9511
200.506
84.8761
54.0559
29.9915
199.928
137.137
352.619
351.575
136.584
352.178
350.234
54.0555
199.915
85.8926
30.4085
30.2774
199.53
54.413
54.1707
199.459
84.7886
30.0227
29.9887
199.755
54.1105
237.568
47.3116
208.574
54.7074
208.52
54.6587
237.032
365.111
91.8922
190.515
365.131
91.6133
237.537
47.376
208.875
54.8381
237.575
208.364
54.7489
365.077
91.723
190.655
91.618
364.997
336.372
336.591
241.738
49.2601
57.2426
212.931
57.036
212.735
241.326
369.4
95.3462
193.319
369.367
95.1051
241.745
49.4333
57.0318
212.955
241.52
57.2488
212.551
369.378
95.3232
193.435
95.098
369.321
338.795
338.969
137.022
352.459
351.537
352.281
351.491
136.688
54.7266
30.3386
200.14
86.0235
54.5125
30.394
199.646
54.2169
29.9458
199.911
84.0617
54.0257
29.9087
199.734
137.261
352.094
351.608
137.013
351.872
351.256
54.4898
200.016
86.0083
30.4156
30.3159
199.784
54.657
54.0106
200.17
84.0581
29.9209
29.8534
199.924