/*--------------------------------*- C++ -*----------------------------------*\
| =========                 |                                                 |
| \\      /  F ield         | OpenFOAM: The Open Source CFD Toolbox           |
|  \\    /   O peration     | Version:  2206                                  |
|   \\  /    A nd           | Website:  www.openfoam.com                      |
|    \\/     M anipulation  |                                                 |
\*---------------------------------------------------------------------------*/
FoamFile
{
    version     2.0;
    format      ascii;
    arch        "LSB;label=32;scalar=64";
    class       volVectorField;
    location    "0.1";
    object      U;
}
// * * * * * * * * * * * * * * * * * * * * * * * * * * * * * * * * * * * * * //

dimensions      [0 1 -1 0 0 0 0];

internalField   nonuniform List<vector> 
66940
(
(-4.13834e-06 -2.58182e-06 0.115654)
(-4.17857e-07 1.78515e-07 0.115625)
(5.93742e-06 -1.52873e-06 0.115627)
(-0.000269603 -0.000279975 0.11556)
(-2.00383e-06 -2.18664e-06 0.115655)
(-1.62205e-07 -6.29233e-08 0.115625)
(2.64513e-06 -1.56804e-07 0.115629)
(-0.000266331 -0.000259861 0.115561)
(-1.53657e-06 -9.78017e-07 0.115654)
(-1.90212e-07 -1.24171e-08 0.115625)
(3.05192e-06 -9.29201e-07 0.115627)
(-0.000267431 -0.000277367 0.115558)
(-1.27404e-06 -5.03894e-07 0.115654)
(-1.07553e-07 5.6051e-07 0.115625)
(2.3932e-06 -1.3575e-06 0.115628)
(-0.000266458 -0.000260631 0.11556)
(-1.2424e-06 -5.84116e-07 0.115654)
(-6.73456e-08 1.82321e-07 0.115625)
(2.54037e-06 -1.21203e-06 0.115628)
(-0.000266966 -0.000277563 0.115558)
(-1.22094e-06 -4.85105e-07 0.115654)
(-1.40421e-07 5.57717e-07 0.115625)
(2.43101e-06 -1.36908e-06 0.115628)
(-0.000266481 -0.000260634 0.11556)
(-1.24916e-06 -5.9742e-07 0.115654)
(-6.58956e-08 1.75135e-07 0.115625)
(2.53889e-06 -1.19913e-06 0.115628)
(-0.000266967 -0.000277548 0.115559)
(-1.24543e-06 -5.23175e-07 0.115654)
(-2.65247e-07 6.76657e-07 0.115625)
(2.42655e-06 -1.47201e-06 0.115628)
(-0.000266479 -0.000260618 0.11556)
(-3.39919e-07 -6.2499e-08 0.115653)
(-1.43651e-06 2.21966e-06 0.115624)
(4.45759e-06 -2.96064e-06 0.115627)
(-0.00026556 -0.000276182 0.115557)
(-1.60532e-05 -1.54136e-05 0.115639)
(8.20966e-06 -6.29586e-06 0.115631)
(-2.62926e-06 3.6754e-06 0.115636)
(-0.000233547 -0.000228228 0.11553)
(-0.000555433 -0.00054113 0.115362)
(7.62879e-05 -0.000130325 0.115432)
(-0.000125238 8.02787e-05 0.115437)
(1.61211e-05 6.87413e-06 0.115408)
(-0.0048625 -0.00485662 0.110401)
(0.00119699 -0.000334105 0.112134)
(-0.000402407 0.00120425 0.112165)
(0.00135626 0.0013734 0.113062)
(-0.000269457 -0.000274805 0.115561)
(8.82891e-06 1.64115e-06 0.115626)
(-7.99332e-06 9.96727e-07 0.115627)
(0.00026858 -0.000274362 0.11556)
(2.39812e-06 -1.41679e-06 0.115624)
(3.44753e-06 1.50262e-06 0.115623)
(-2.214e-06 -1.05969e-06 0.115624)
(-4.60824e-06 4.1809e-06 0.11562)
(-0.000271858 0.000275027 0.11556)
(7.60217e-06 -1.58016e-06 0.115628)
(-9.65859e-06 -3.23249e-06 0.115629)
(0.000270059 0.000275277 0.115562)
(0.00026772 0.000269433 0.115563)
(-0.000272588 -0.000276938 0.115561)
(5.4125e-06 1.72779e-06 0.115625)
(-7.46798e-06 2.65929e-06 0.115626)
(2.34099e-06 1.10131e-06 0.115628)
(-2.27762e-06 1.27607e-06 0.115628)
(-0.000266333 0.000270921 0.115563)
(0.000272384 -0.000277698 0.115561)
(8.20068e-07 5.43841e-07 0.115626)
(1.8349e-06 -8.47543e-07 0.115624)
(6.72583e-07 -1.27717e-07 0.115626)
(1.06493e-06 -1.70677e-07 0.115625)
(-1.08038e-06 -2.69941e-06 0.115623)
(-7.61405e-07 6.43757e-07 0.115626)
(-2.75167e-06 -5.21455e-07 0.115625)
(0.000266729 -0.000267886 0.115562)
(-0.000274858 0.000276534 0.115561)
(-8.19075e-06 -6.3521e-07 0.115627)
(1.46703e-06 -1.28144e-07 0.11563)
(-2.81305e-06 -7.11315e-07 0.115631)
(0.000272992 0.000279184 0.115562)
(0.000265163 0.000267306 0.115562)
(-0.000271661 -0.000276335 0.115559)
(2.66415e-06 8.24712e-07 0.115627)
(-2.80334e-06 8.13834e-07 0.115627)
(3.37007e-06 1.51655e-06 0.115626)
(-2.65625e-06 9.42791e-07 0.115626)
(-0.000264713 0.000267822 0.115563)
(0.000270563 -0.000275979 0.115559)
(3.83857e-07 -1.98734e-07 0.115625)
(1.07725e-06 9.79492e-08 0.115623)
(4.7529e-07 1.96702e-07 0.115625)
(1.02387e-06 -3.15565e-07 0.115623)
(-1.97404e-06 -2.60876e-06 0.115624)
(-4.21333e-07 1.51376e-07 0.115624)
(-2.59655e-06 2.64844e-06 0.115621)
(0.000264341 -0.000266313 0.115562)
(-0.000273827 0.000276117 0.115559)
(-1.0399e-06 9.10153e-07 0.11563)
(2.67776e-06 -6.16387e-07 0.115628)
(-4.70677e-06 -4.95734e-07 0.115628)
(0.000272378 0.000278433 0.11556)
(0.000265878 0.000268064 0.115561)
(-0.000272133 -0.000275983 0.115559)
(3.06925e-06 1.70868e-06 0.115626)
(-4.99481e-06 2.89451e-06 0.115626)
(2.75414e-06 1.94163e-06 0.115626)
(-2.56448e-06 2.05805e-06 0.115626)
(-0.000264654 0.000269662 0.115561)
(0.000272122 -0.000276941 0.115559)
(4.07557e-07 3.40859e-07 0.115625)
(9.96569e-07 -3.31751e-07 0.115623)
(3.23325e-07 5.37999e-07 0.115625)
(8.81152e-07 -6.53603e-07 0.115624)
(-2.26999e-07 -3.53765e-06 0.115623)
(-3.48398e-07 9.82911e-07 0.115625)
(-2.8567e-06 -1.02807e-06 0.115624)
(0.000265179 -0.000266993 0.115561)
(-0.000274384 0.000275767 0.11556)
(-5.46871e-06 2.2786e-06 0.115627)
(1.73409e-06 -1.05557e-06 0.115628)
(-2.7948e-06 -1.10535e-06 0.115629)
(0.000272666 0.000278485 0.11556)
(0.000265552 0.000268475 0.115561)
(-0.000272127 -0.000276012 0.115559)
(2.66679e-06 1.99906e-06 0.115626)
(-2.69598e-06 1.95992e-06 0.115627)
(2.70074e-06 1.96127e-06 0.115626)
(-1.84528e-06 1.32892e-06 0.115626)
(-0.000264899 0.000268693 0.115561)
(0.000271163 -0.000275754 0.115559)
(3.56627e-07 5.6769e-07 0.115625)
(1.07683e-06 -5.32683e-07 0.115623)
(3.15192e-07 5.20296e-07 0.115625)
(8.24037e-07 -6.0998e-07 0.115624)
(-2.04262e-06 -3.18387e-06 0.115624)
(-2.01979e-07 3.94599e-07 0.115625)
(-2.43892e-06 2.4107e-06 0.115621)
(0.000264731 -0.000267228 0.115561)
(-0.000274317 0.000275757 0.11556)
(-6.546e-07 1.39738e-07 0.115629)
(1.91142e-06 -1.09554e-06 0.115628)
(-3.87274e-06 -8.52079e-07 0.115628)
(0.000272955 0.00027818 0.115561)
(0.000265565 0.000268446 0.115561)
(-0.000272076 -0.000275997 0.115559)
(2.70551e-06 1.97941e-06 0.115626)
(-4.56889e-06 3.11879e-06 0.115627)
(2.75089e-06 1.96166e-06 0.115626)
(-2.56089e-06 2.06342e-06 0.115626)
(-0.000264196 0.000269794 0.115561)
(0.000272099 -0.000276989 0.115559)
(3.42035e-07 5.44357e-07 0.115625)
(9.31608e-07 -5.29312e-07 0.115623)
(3.46812e-07 5.39503e-07 0.115625)
(9.34324e-07 -6.71981e-07 0.115624)
(-1.55078e-07 -3.70806e-06 0.115623)
(-3.69177e-07 9.82234e-07 0.115626)
(-2.89063e-06 -1.04614e-06 0.115624)
(0.000264766 -0.000267233 0.115561)
(-0.000274352 0.000275749 0.11556)
(-4.95806e-06 2.04092e-06 0.115627)
(1.73929e-06 -1.12316e-06 0.115628)
(-2.74873e-06 -1.11735e-06 0.115629)
(0.000272651 0.000278478 0.11556)
(0.000265609 0.000268456 0.115561)
(-0.000272115 -0.000276033 0.115559)
(2.69359e-06 2.01589e-06 0.115626)
(-2.71946e-06 1.96311e-06 0.115627)
(2.70812e-06 1.95372e-06 0.115626)
(-1.85506e-06 1.32036e-06 0.115627)
(-0.000264928 0.000268656 0.115561)
(0.000271157 -0.000275771 0.115559)
(3.91169e-07 5.65077e-07 0.115625)
(1.12989e-06 -5.40125e-07 0.115623)
(3.1441e-07 5.11911e-07 0.115625)
(8.28559e-07 -6.00463e-07 0.115624)
(-2.09067e-06 -3.18832e-06 0.115624)
(-1.9952e-07 3.80907e-07 0.115625)
(-2.44206e-06 2.42365e-06 0.115621)
(0.000264773 -0.000267237 0.115561)
(-0.000274311 0.000275763 0.11556)
(-6.53568e-07 1.28183e-07 0.115629)
(1.92306e-06 -1.09021e-06 0.115628)
(-3.87862e-06 -8.45323e-07 0.115629)
(0.000272948 0.000278192 0.115561)
(0.000265567 0.000268417 0.115561)
(-0.000272106 -0.00027604 0.115559)
(2.70078e-06 1.96967e-06 0.115626)
(-4.56821e-06 3.1091e-06 0.115627)
(2.71793e-06 1.90167e-06 0.115626)
(-2.53762e-06 2.00203e-06 0.115626)
(-0.000264195 0.000269776 0.115561)
(0.000272117 -0.000277033 0.115559)
(3.36855e-07 5.36051e-07 0.115625)
(9.26829e-07 -5.20155e-07 0.115623)
(2.60285e-07 4.75931e-07 0.115625)
(8.41262e-07 -5.98061e-07 0.115624)
(-1.64194e-07 -3.70278e-06 0.115623)
(-2.9183e-07 9.0226e-07 0.115626)
(-2.81182e-06 -9.78747e-07 0.115625)
(0.000264761 -0.000267218 0.115561)
(-0.000274374 0.000275786 0.11556)
(-4.95709e-06 2.03669e-06 0.115628)
(1.73386e-06 -1.0523e-06 0.115628)
(-2.71867e-06 -1.04376e-06 0.115629)
(0.00027268 0.000278513 0.11556)
(0.000265611 0.000268449 0.115561)
(-0.000271458 -0.000275392 0.11556)
(2.71955e-06 2.0918e-06 0.115626)
(-2.76407e-06 2.05068e-06 0.115626)
(1.94257e-06 8.43222e-07 0.115626)
(-1.04549e-06 1.32275e-07 0.115627)
(-0.000264935 0.000268642 0.115561)
(0.00027047 -0.000275188 0.11556)
(5.04707e-07 6.51893e-07 0.115625)
(1.26946e-06 -6.49367e-07 0.115623)
(-8.13229e-07 -3.90382e-07 0.115626)
(-3.87123e-07 3.16373e-07 0.115624)
(-2.21773e-06 -3.27874e-06 0.115624)
(7.67118e-07 -6.10434e-07 0.115625)
(-1.27814e-06 3.362e-06 0.115622)
(0.000264772 -0.000267235 0.115561)
(-0.000273592 0.000275073 0.11556)
(-7.22771e-07 -4.98437e-09 0.115629)
(1.25172e-06 -6.42983e-08 0.115628)
(-2.96334e-06 5.14709e-07 0.115628)
(0.000272358 0.000277459 0.115561)
(0.000264303 0.00026683 0.11556)
(-0.000256027 -0.000259201 0.115577)
(4.76521e-06 3.61052e-06 0.115626)
(-6.91386e-06 5.05785e-06 0.115626)
(-4.90253e-06 -8.16888e-06 0.11561)
(5.66287e-06 -8.29097e-06 0.11561)
(-0.000262955 0.000268393 0.11556)
(0.000255287 -0.00025974 0.115578)
(1.86507e-06 2.50267e-06 0.115625)
(2.87306e-06 -2.67555e-06 0.115623)
(-1.06486e-05 -6.55608e-06 0.11561)
(-9.90077e-06 5.89341e-06 0.115609)
(-2.1563e-06 -5.84623e-06 0.115622)
(9.68353e-06 -5.44686e-06 0.115612)
(8.32063e-06 6.9659e-06 0.115609)
(0.000263503 -0.000265858 0.115559)
(-0.000257584 0.000258969 0.115578)
(-7.32134e-06 -3.84813e-07 0.115627)
(-6.23722e-06 9.48557e-06 0.115613)
(5.46025e-06 1.08063e-05 0.115615)
(0.000256581 0.000263166 0.11558)
(0.000230652 0.000233671 0.115531)
(-0.000289126 -0.000288676 0.115581)
(-2.399e-06 -2.69854e-06 0.115635)
(1.11825e-06 -2.38186e-06 0.115635)
(-9.81273e-05 -0.000213147 0.115498)
(0.000100277 -0.000212282 0.115499)
(-0.000229767 0.000233521 0.11553)
(0.000289614 -0.000287882 0.115585)
(-7.08656e-06 -4.79538e-06 0.115634)
(-5.35876e-06 4.65806e-06 0.115632)
(-0.000209525 -9.23272e-05 0.115504)
(-0.000210854 9.2123e-05 0.115501)
(4.48322e-06 1.48968e-06 0.115634)
(0.000210887 -9.07208e-05 0.115512)
(0.000208989 9.48982e-05 0.115496)
(0.000229397 -0.000233363 0.115531)
(-0.000289397 0.000285764 0.115586)
(3.43933e-06 2.28228e-06 0.115638)
(-9.31156e-05 0.000214668 0.115503)
(9.38867e-05 0.000219131 0.115502)
(0.000291159 0.000294042 0.115585)
(-1.62031e-05 -6.45742e-06 0.115405)
(-0.00261464 -0.00259938 0.113889)
(-0.000127407 -8.19339e-05 0.115435)
(0.00012411 -8.32673e-05 0.115435)
(-0.00196206 -0.00363901 0.113739)
(0.00196435 -0.00364638 0.113737)
(1.74465e-05 -7.57698e-06 0.1154)
(0.00261381 -0.00259944 0.113906)
(-8.05203e-05 -0.000128424 0.115443)
(-8.0771e-05 0.000127 0.115442)
(-0.00364455 -0.00195445 0.113741)
(-0.00364402 0.00195684 0.113738)
(8.47122e-05 0.000134339 0.11544)
(0.00367327 -0.00195073 0.113774)
(0.00364101 0.00195636 0.113739)
(-1.38021e-05 6.83149e-06 0.115403)
(-0.0026015 0.00261068 0.113892)
(0.000128984 7.68091e-05 0.115436)
(-0.00195656 0.00364257 0.113746)
(0.00195775 0.00364537 0.113745)
(0.00260876 0.00261479 0.11389)
(-0.00137504 -0.00134943 0.113061)
(-0.000393617 -0.00118796 0.112161)
(0.000398357 -0.0012139 0.112157)
(0.00138123 -0.00137796 0.113075)
(-0.00120289 -0.000401909 0.112162)
(-0.00118924 0.00038985 0.11216)
(0.00490076 -0.00486641 0.110379)
(-0.00486234 0.00485514 0.110404)
(0.0048622 0.00485736 0.110402)
(0.00118735 0.000387329 0.11216)
(-0.00135601 0.00137103 0.113061)
(0.000404382 0.0012057 0.112165)
(1.18313e-05 -9.30613e-06 0.0934028)
(-2.72348e-06 -6.26735e-06 0.115652)
(2.84991e-06 -5.43899e-06 0.115652)
(-2.87899e-06 6.00038e-06 0.115653)
(3.42537e-06 5.90358e-06 0.115653)
(8.6917e-05 -6.4054e-07 0.115047)
(-7.07889e-06 2.97017e-06 0.115624)
(7.12888e-05 -2.52377e-05 0.113169)
(-4.54757e-06 -1.15959e-06 0.115643)
(0.000271233 0.000279951 0.115562)
(2.66571e-05 2.7022e-05 0.109785)
(2.09059e-05 1.95371e-05 0.109829)
(-1.27021e-06 -5.647e-05 0.11296)
(7.85545e-06 4.31356e-05 0.102736)
(-3.69025e-07 6.0497e-05 0.112971)
(-3.29962e-06 -3.49345e-05 0.102784)
(-1.02964e-05 1.98503e-05 0.0934206)
(6.42591e-06 -1.2395e-05 0.0934579)
(-5.23703e-05 -5.34768e-07 0.112765)
(3.62404e-05 6.48875e-06 0.102577)
(5.33135e-05 3.0102e-07 0.112809)
(-3.42985e-05 -7.47373e-06 0.102589)
(4.11168e-06 -2.59083e-06 0.115654)
(-3.32879e-06 2.33649e-06 0.115653)
(2.03162e-07 5.43937e-06 0.115653)
(-1.43927e-06 -1.93145e-06 0.115655)
(1.47134e-06 -8.93291e-07 0.115655)
(-1.54349e-06 2.2194e-06 0.115656)
(2.43026e-06 1.10325e-06 0.115657)
(8.43938e-05 -7.99522e-07 0.115055)
(-7.10171e-05 2.35086e-05 0.113203)
(8.36281e-07 -3.17428e-06 0.115652)
(-5.0326e-07 1.38125e-06 0.115626)
(-8.54472e-05 -4.14626e-07 0.115073)
(6.94331e-05 -2.35412e-05 0.113178)
(-9.39757e-07 -1.10866e-06 0.115651)
(1.42571e-05 -9.60199e-06 0.0933046)
(-1.17286e-05 9.89933e-06 0.0933258)
(-9.7948e-07 7.81933e-05 0.115128)
(2.3802e-07 -1.95556e-06 0.115646)
(2.18029e-05 -7.56194e-05 0.113298)
(2.87581e-06 3.31079e-07 0.11563)
(4.50063e-08 -9.10366e-05 0.115131)
(-1.00269e-06 -1.93007e-06 0.115648)
(-2.48093e-05 6.78007e-05 0.113296)
(-2.60427e-05 -2.71361e-05 0.109809)
(-2.69682e-05 -3.00371e-05 0.109926)
(0.000274554 0.000282462 0.115561)
(2.37988e-05 2.35932e-05 0.109797)
(2.6985e-05 2.28388e-05 0.109897)
(-5.00115e-07 -6.00977e-05 0.112948)
(6.42879e-06 3.38248e-05 0.102762)
(9.51401e-08 4.95312e-05 0.112957)
(-5.4429e-06 -3.79076e-05 0.102805)
(-1.03047e-05 1.09599e-05 0.0934314)
(7.8751e-06 -1.42866e-05 0.0934756)
(-5.31895e-05 -6.05812e-07 0.112766)
(3.60133e-05 6.12659e-06 0.102574)
(5.34427e-05 2.62462e-07 0.112813)
(-3.49436e-05 -7.34497e-06 0.102586)
(2.22529e-06 -1.87079e-06 0.115655)
(-1.3847e-06 2.80516e-06 0.115655)
(8.74388e-07 3.15116e-06 0.115655)
(-1.58379e-06 -1.19988e-06 0.115654)
(1.57459e-06 -1.13845e-06 0.115654)
(-1.37604e-06 1.87959e-06 0.115654)
(1.27643e-06 1.41959e-06 0.115654)
(8.46977e-05 -5.70331e-07 0.115055)
(-7.09337e-05 2.25394e-05 0.113207)
(8.31111e-07 -1.86629e-06 0.115648)
(-6.50323e-07 -7.70884e-09 0.115625)
(-8.60862e-05 -2.72645e-07 0.115076)
(6.95816e-05 -2.42944e-05 0.113179)
(5.9484e-07 -5.05675e-07 0.115648)
(1.38667e-05 -9.15352e-06 0.0932981)
(-1.26126e-05 9.58301e-06 0.0933209)
(-8.68387e-07 8.3331e-05 0.115118)
(-9.58889e-07 -8.51979e-07 0.115648)
(2.4661e-05 -6.549e-05 0.113296)
(2.92034e-06 6.68414e-07 0.115627)
(2.84877e-07 -7.84833e-05 0.115125)
(-1.80169e-06 -8.58574e-07 0.115647)
(-2.33267e-05 7.06432e-05 0.113291)
(-2.76104e-05 -2.53785e-05 0.109815)
(-2.86098e-05 -2.00086e-05 0.10993)
(0.000272397 0.000280432 0.11556)
(2.40781e-05 2.59906e-05 0.109783)
(2.53937e-05 2.77411e-05 0.109913)
(-5.46267e-07 -5.6414e-05 0.112946)
(4.88247e-06 3.67856e-05 0.102772)
(3.51963e-07 5.46488e-05 0.112952)
(-6.16774e-06 -3.59129e-05 0.102809)
(-8.71932e-06 1.37043e-05 0.0934388)
(8.84995e-06 -1.28429e-05 0.0934763)
(-5.30887e-05 -5.12304e-07 0.112765)
(3.56827e-05 6.74127e-06 0.102572)
(5.35961e-05 3.82226e-07 0.112812)
(-3.52073e-05 -6.73466e-06 0.102585)
(1.46523e-06 -9.61069e-07 0.115654)
(-7.85646e-07 1.68755e-06 0.115654)
(-2.66148e-06 3.24963e-06 0.115654)
(-1.27646e-06 -5.54068e-07 0.115654)
(1.27204e-06 2.76665e-07 0.115654)
(-1.07809e-06 1.05753e-06 0.115654)
(1.29594e-06 -3.18472e-07 0.115655)
(8.46934e-05 -7.69333e-07 0.115053)
(-7.03948e-05 2.24892e-05 0.113206)
(1.36225e-06 -2.22814e-06 0.115649)
(-3.25355e-07 3.29707e-07 0.115625)
(-8.60778e-05 -4.3148e-07 0.115074)
(7.02654e-05 -2.37896e-05 0.113178)
(1.31209e-06 -1.35856e-06 0.115649)
(1.32841e-05 -9.80682e-06 0.093297)
(-1.30099e-05 9.04996e-06 0.0933209)
(-7.68397e-07 8.09372e-05 0.115115)
(-1.43156e-06 -1.39183e-06 0.115647)
(2.41843e-05 -6.91033e-05 0.113294)
(2.50942e-06 -1.13456e-07 0.115627)
(3.81809e-07 -8.11033e-05 0.115118)
(-1.92143e-06 -1.22341e-06 0.115648)
(-2.4219e-05 6.78965e-05 0.113291)
(-2.55742e-05 -2.53662e-05 0.109806)
(-2.80432e-05 -2.3759e-05 0.109939)
(0.000274216 0.000283188 0.115558)
(2.49654e-05 2.37638e-05 0.109793)
(2.76084e-05 2.34158e-05 0.109903)
(-4.63517e-07 -5.63005e-05 0.112945)
(5.00425e-06 3.70359e-05 0.102772)
(3.91678e-07 5.53056e-05 0.112952)
(-5.99856e-06 -3.59203e-05 0.102809)
(-8.6306e-06 1.36113e-05 0.0934392)
(8.60077e-06 -1.29896e-05 0.0934785)
(-5.3097e-05 -5.02878e-07 0.112765)
(3.55881e-05 6.9649e-06 0.102572)
(5.35553e-05 4.29479e-07 0.112812)
(-3.52265e-05 -6.67737e-06 0.102585)
(1.44926e-06 -2.00718e-07 0.115654)
(-5.02251e-07 1.2365e-06 0.115654)
(-4.1429e-07 1.45953e-06 0.115654)
(-1.21802e-06 -5.12481e-07 0.115654)
(1.21071e-06 -4.36599e-07 0.115654)
(-9.47568e-07 1.23062e-06 0.115654)
(7.87873e-07 6.22205e-07 0.115654)
(8.46018e-05 -5.87278e-07 0.115053)
(-7.0522e-05 2.28933e-05 0.113205)
(1.6689e-06 -1.74645e-06 0.115649)
(-5.84243e-07 5.80134e-07 0.115625)
(-8.62117e-05 -2.29812e-07 0.115074)
(6.98286e-05 -2.38245e-05 0.113177)
(1.4489e-06 -6.79708e-07 0.115649)
(1.3214e-05 -9.9859e-06 0.0932972)
(-1.30167e-05 8.99992e-06 0.0933209)
(-7.82651e-07 8.10988e-05 0.115114)
(-1.16252e-06 -1.24044e-06 0.115648)
(2.39533e-05 -6.97614e-05 0.113294)
(2.11504e-06 -3.94061e-07 0.115628)
(4.77403e-07 -8.13548e-05 0.115117)
(-2.10813e-06 -1.14128e-06 0.115648)
(-2.41478e-05 6.76822e-05 0.11329)
(-2.67411e-05 -2.62708e-05 0.109813)
(-2.74707e-05 -2.34259e-05 0.109932)
(0.00027287 0.000279776 0.11556)
(2.4653e-05 2.52877e-05 0.109782)
(2.61422e-05 2.58114e-05 0.109914)
(-5.16919e-07 -5.62834e-05 0.112945)
(5.06888e-06 3.70209e-05 0.102772)
(3.56649e-07 5.53253e-05 0.112951)
(-5.99322e-06 -3.59272e-05 0.102809)
(-8.92109e-06 1.37496e-05 0.093439)
(8.60665e-06 -1.29121e-05 0.0934762)
(-5.30896e-05 -5.09143e-07 0.112765)
(3.55951e-05 6.95889e-06 0.102572)
(5.35538e-05 4.28408e-07 0.112812)
(-3.52136e-05 -6.70176e-06 0.102585)
(1.18649e-06 -5.61239e-07 0.115654)
(-4.61677e-07 1.2119e-06 0.115654)
(-3.02214e-06 2.74294e-06 0.115654)
(-1.19784e-06 -5.11518e-07 0.115654)
(1.20281e-06 3.23789e-07 0.115654)
(-9.97262e-07 9.8628e-07 0.115654)
(1.21705e-06 -4.20276e-07 0.115655)
(8.47667e-05 -7.83685e-07 0.115053)
(-7.02227e-05 2.27378e-05 0.113205)
(1.66076e-06 -2.30169e-06 0.11565)
(-2.75013e-07 4.09918e-07 0.115625)
(-8.59475e-05 -4.13305e-07 0.115073)
(7.03052e-05 -2.37156e-05 0.113178)
(1.44083e-06 -1.42667e-06 0.11565)
(1.32139e-05 -9.9668e-06 0.0932973)
(-1.29935e-05 9.02322e-06 0.093321)
(-7.48158e-07 8.09547e-05 0.115114)
(-1.64605e-06 -1.24781e-06 0.115648)
(2.40316e-05 -6.96964e-05 0.113294)
(2.26461e-06 -2.75568e-07 0.115628)
(4.00435e-07 -8.14319e-05 0.115117)
(-2.07584e-06 -1.08511e-06 0.115648)
(-2.41046e-05 6.77601e-05 0.11329)
(-2.54128e-05 -2.56261e-05 0.109806)
(-2.8076e-05 -2.38961e-05 0.109939)
(0.00027428 0.000283096 0.115558)
(2.49889e-05 2.37022e-05 0.109793)
(2.74475e-05 2.348e-05 0.109903)
(-4.65791e-07 -5.63274e-05 0.112945)
(5.10331e-06 3.70231e-05 0.102771)
(4.07244e-07 5.52976e-05 0.112951)
(-5.96189e-06 -3.5914e-05 0.102809)
(-8.71434e-06 1.35646e-05 0.0934391)
(8.56396e-06 -1.30107e-05 0.0934783)
(-5.30868e-05 -5.07776e-07 0.112765)
(3.56074e-05 6.94303e-06 0.102572)
(5.35751e-05 4.25906e-07 0.112812)
(-3.52159e-05 -6.70482e-06 0.102585)
(1.40508e-06 -1.8185e-07 0.115654)
(-4.49995e-07 1.20003e-06 0.115654)
(-4.62134e-07 1.4014e-06 0.115655)
(-1.21269e-06 -5.18156e-07 0.115654)
(1.20374e-06 -4.42314e-07 0.115654)
(-9.38536e-07 1.23078e-06 0.115654)
(7.80751e-07 6.26811e-07 0.115654)
(8.45851e-05 -5.98224e-07 0.115053)
(-7.0544e-05 2.28768e-05 0.113205)
(1.65018e-06 -1.76824e-06 0.115649)
(-6.10956e-07 5.8496e-07 0.115625)
(-8.62194e-05 -2.34271e-07 0.115074)
(6.98214e-05 -2.38561e-05 0.113177)
(1.42557e-06 -6.93339e-07 0.11565)
(1.32323e-05 -9.96042e-06 0.0932971)
(-1.29925e-05 9.00814e-06 0.0933208)
(-7.84529e-07 8.11e-05 0.115114)
(-1.20558e-06 -1.23002e-06 0.115648)
(2.40436e-05 -6.96743e-05 0.113294)
(2.14957e-06 -4.18617e-07 0.115628)
(4.7393e-07 -8.13475e-05 0.115117)
(-2.13413e-06 -1.12623e-06 0.115648)
(-2.41197e-05 6.77475e-05 0.11329)
(-2.67779e-05 -2.62582e-05 0.109813)
(-2.75595e-05 -2.33785e-05 0.109932)
(0.000272843 0.000279771 0.11556)
(2.46356e-05 2.52992e-05 0.109782)
(2.61086e-05 2.58215e-05 0.109914)
(-5.22951e-07 -5.63149e-05 0.112945)
(5.06887e-06 3.70068e-05 0.102771)
(3.5146e-07 5.52962e-05 0.112951)
(-5.99196e-06 -3.59486e-05 0.102809)
(-8.92597e-06 1.37325e-05 0.0934389)
(8.59349e-06 -1.29501e-05 0.0934761)
(-5.31068e-05 -5.18201e-07 0.112765)
(3.55826e-05 6.9346e-06 0.102572)
(5.35372e-05 4.22298e-07 0.112812)
(-3.52344e-05 -6.71694e-06 0.102585)
(1.19386e-06 -5.74072e-07 0.115654)
(-4.66361e-07 1.21918e-06 0.115654)
(-3.00645e-06 2.74032e-06 0.115654)
(-1.19923e-06 -5.27566e-07 0.115654)
(1.19681e-06 3.16157e-07 0.115654)
(-9.8177e-07 9.99108e-07 0.115654)
(1.16899e-06 -4.01759e-07 0.115655)
(8.47888e-05 -7.93504e-07 0.115053)
(-7.02071e-05 2.27104e-05 0.113205)
(1.65895e-06 -2.30746e-06 0.11565)
(-2.4935e-07 3.78021e-07 0.115625)
(-8.59321e-05 -4.18695e-07 0.115073)
(7.03283e-05 -2.37334e-05 0.113178)
(1.45747e-06 -1.43714e-06 0.11565)
(1.32027e-05 -9.95378e-06 0.0932971)
(-1.29995e-05 9.0148e-06 0.0933207)
(-7.60134e-07 8.09649e-05 0.115114)
(-1.65512e-06 -1.23693e-06 0.115648)
(2.40376e-05 -6.96666e-05 0.113294)
(2.2483e-06 -2.49606e-07 0.115628)
(3.89097e-07 -8.1411e-05 0.115117)
(-2.07379e-06 -1.07835e-06 0.115648)
(-2.4116e-05 6.78263e-05 0.11329)
(-2.53978e-05 -2.56175e-05 0.109806)
(-2.80747e-05 -2.38736e-05 0.109939)
(0.000274281 0.000283121 0.115558)
(2.5022e-05 2.37071e-05 0.109793)
(2.74491e-05 2.35191e-05 0.109903)
(-5.05766e-07 -5.6796e-05 0.112942)
(4.92311e-06 3.70765e-05 0.102772)
(3.8914e-07 5.53605e-05 0.112952)
(-4.83168e-06 -3.64519e-05 0.102806)
(-8.60401e-06 1.36007e-05 0.0934395)
(7.81854e-06 -1.33606e-05 0.0934774)
(-5.36105e-05 -5.45251e-07 0.112762)
(3.56517e-05 6.78136e-06 0.102573)
(5.36279e-05 4.13841e-07 0.112812)
(-3.5779e-05 -5.63119e-06 0.102582)
(1.42465e-06 -2.11034e-07 0.115654)
(-5.08441e-07 1.21952e-06 0.115654)
(-3.63806e-07 1.37855e-06 0.115654)
(-1.91922e-06 -1.05717e-06 0.115654)
(1.93452e-06 -1.01595e-06 0.115654)
(-1.59792e-06 1.81857e-06 0.115654)
(1.06941e-06 1.46825e-06 0.115654)
(8.51811e-05 -5.99736e-07 0.115051)
(-7.06385e-05 2.27226e-05 0.113205)
(1.57653e-06 -1.83272e-06 0.115649)
(-3.57093e-07 3.32737e-07 0.115625)
(-8.62926e-05 -2.51483e-07 0.115074)
(7.04987e-05 -2.29117e-05 0.113176)
(1.52525e-06 -5.67099e-07 0.11565)
(1.3235e-05 -9.85795e-06 0.0932976)
(-1.33329e-05 8.32915e-06 0.09332)
(-7.96206e-07 8.17898e-05 0.115112)
(-1.25724e-06 -1.16685e-06 0.115648)
(2.39028e-05 -6.98159e-05 0.113294)
(2.07837e-06 -1.96366e-07 0.115628)
(4.71233e-07 -8.14112e-05 0.115118)
(-2.05744e-06 -1.18228e-06 0.115648)
(-2.31099e-05 6.85719e-05 0.113289)
(-2.68449e-05 -2.6134e-05 0.109814)
(-2.74291e-05 -2.34582e-05 0.109932)
(0.000272816 0.000279761 0.11556)
(2.52099e-05 2.44278e-05 0.109781)
(2.51499e-05 2.64436e-05 0.109913)
(-1.21153e-05 -9.44448e-05 0.1129)
(-1.26001e-05 4.89147e-05 0.102787)
(2.50872e-06 6.51556e-05 0.112971)
(5.15879e-05 -8.41884e-05 0.102773)
(2.09826e-06 1.96011e-05 0.093434)
(-2.68479e-05 -3.16726e-05 0.0935186)
(-9.29788e-05 -1.23305e-05 0.11272)
(4.82042e-05 -1.07066e-05 0.102586)
(6.40227e-05 2.57616e-06 0.112831)
(-8.70829e-05 5.20637e-05 0.102549)
(3.10342e-08 3.31292e-08 0.115653)
(5.83575e-07 5.57223e-07 0.115653)
(-3.68029e-06 1.2664e-06 0.115653)
(-6.89223e-06 -5.26286e-06 0.115645)
(8.13956e-06 -5.36146e-06 0.115644)
(-7.2344e-06 6.09493e-06 0.115646)
(5.00579e-06 6.09768e-06 0.115647)
(0.000115952 -5.50625e-06 0.115024)
(-8.04879e-05 7.78868e-06 0.113209)
(1.83523e-06 -2.94851e-06 0.115649)
(3.15419e-06 -2.78017e-06 0.115623)
(-9.50724e-05 3.00317e-07 0.115086)
(0.000105185 2.19833e-05 0.113181)
(1.706e-06 -6.90638e-07 0.115648)
(1.90517e-05 6.71516e-07 0.0932921)
(-3.25009e-05 -2.73101e-05 0.0933616)
(-5.94528e-06 0.000114232 0.115085)
(-2.06612e-06 -1.52069e-06 0.115648)
(8.539e-06 -8.09999e-05 0.113299)
(-9.42877e-07 3.30534e-06 0.115625)
(1.35663e-06 -9.11498e-05 0.115131)
(-1.8763e-06 -1.56048e-07 0.115645)
(2.45185e-05 0.000104475 0.113292)
(-3.27138e-05 -1.18733e-05 0.109789)
(-1.34596e-05 -3.10702e-05 0.109922)
(0.000269858 0.00027819 0.115565)
(4.35479e-05 -1.94641e-05 0.109886)
(-1.88097e-05 4.21031e-05 0.109997)
(-7.09617e-05 -0.000139509 0.11283)
(-0.000116751 0.000211837 0.102925)
(5.31624e-05 0.000127879 0.113056)
(1.47194e-05 -0.000293137 0.102474)
(8.3241e-05 4.01962e-05 0.0931274)
(-5.04763e-05 -5.76418e-05 0.0941674)
(-0.00013717 -7.35855e-05 0.112643)
(0.000212821 -0.000119481 0.102727)
(0.0001266 5.50748e-05 0.112917)
(-0.000296519 1.79411e-05 0.102245)
(1.4021e-05 -1.3887e-05 0.11564)
(-1.50338e-05 1.50405e-05 0.115638)
(1.46363e-05 1.39982e-05 0.115638)
(9.14516e-05 9.65087e-05 0.115437)
(-9.04979e-05 9.18149e-05 0.115437)
(9.56693e-05 -9.16475e-05 0.115437)
(-9.88802e-05 -8.88711e-05 0.115437)
(0.000119328 -2.7861e-05 0.114963)
(-0.000135552 -7.43113e-05 0.113175)
(5.01158e-05 -9.76649e-06 0.115638)
(3.55158e-05 -1.09042e-05 0.115582)
(-0.000121128 2.03626e-05 0.115131)
(0.000165348 3.85247e-05 0.113137)
(-4.52734e-05 4.25473e-06 0.11561)
(4.07289e-05 8.46071e-05 0.092995)
(-5.66326e-05 -5.07423e-05 0.093995)
(-3.13e-05 0.000119806 0.11502)
(-8.18867e-06 4.46198e-05 0.115638)
(-7.30273e-05 -0.000132298 0.113268)
(-1.16907e-05 3.53201e-05 0.115579)
(2.31379e-05 -0.000113695 0.115176)
(3.10749e-06 -4.68025e-05 0.115604)
(4.15412e-05 0.000169542 0.113246)
(-5.04649e-06 7.59551e-05 0.109293)
(7.6732e-05 -7.77017e-07 0.109403)
(0.000245782 0.000251034 0.115583)
(9.65222e-06 -6.76125e-05 0.110685)
(-7.39963e-05 1.52523e-05 0.110837)
(-0.000180657 -0.000734957 0.113171)
(-6.50271e-05 0.000425925 0.104475)
(0.000108869 -2.92752e-07 0.11295)
(-7.36856e-05 -0.0010567 0.100158)
(0.000178103 1.74508e-05 0.0924988)
(-0.000405872 -0.000284382 0.0960923)
(-0.00071293 -0.000177406 0.113142)
(0.000431053 -6.09388e-05 0.104339)
(-1.32067e-05 0.00011069 0.112951)
(-0.00105427 -6.63424e-05 0.100106)
(0.000555415 -0.000534074 0.115361)
(-0.00055353 0.00054081 0.115361)
(0.000551181 0.000537384 0.115365)
(0.000226309 0.000225439 0.112703)
(-0.00022739 0.000206669 0.112685)
(0.000225984 -0.000226181 0.112707)
(-0.000226615 -0.000227369 0.112705)
(0.000752921 -8.06843e-05 0.11503)
(7.13375e-05 -0.000222401 0.113855)
(0.000911514 -0.000176025 0.11542)
(0.00101428 -0.000515646 0.115251)
(0.000115778 2.14831e-05 0.115114)
(0.000451775 -3.61654e-05 0.112109)
(-0.000296168 7.57978e-05 0.115086)
(2.08641e-05 0.000178294 0.0923574)
(-0.000279593 -0.000410124 0.0960552)
(-8.69473e-05 0.0007605 0.115035)
(-0.000176351 0.000907861 0.115403)
(-0.000222501 7.67824e-05 0.113929)
(-0.000535015 0.00101372 0.115233)
(2.29021e-05 0.000113241 0.115121)
(7.48709e-05 -0.00030765 0.115071)
(-3.25437e-05 0.000446007 0.112089)
(0.00012949 0.000268954 0.10829)
(0.000270558 0.000138322 0.108398)
(0.000655617 0.000648888 0.115296)
(0.000320715 -8.368e-05 0.112284)
(-9.84068e-05 0.000316588 0.112326)
(-0.000747624 -0.0133814 0.109552)
(-0.000366575 -0.0038362 0.0729179)
(-0.000456285 -0.00328739 0.10869)
(-0.00613298 -0.00998427 0.102337)
(-0.000219936 -0.00257425 0.0568698)
(0.00582998 -0.00984752 0.0968892)
(-0.0133982 -0.000771767 0.109563)
(-0.00383768 -0.000364144 0.0728942)
(-0.00334707 -0.000463568 0.108771)
(-0.0099877 -0.00613781 0.102342)
(-0.000932857 -0.000931188 0.105051)
(-0.00128675 -0.00420615 0.110167)
(-0.00421691 -0.00129327 0.110177)
(-0.00600639 -0.00600831 0.107093)
(-0.00103979 -0.00105212 0.109762)
(-0.00118968 -0.00509611 0.105844)
(-0.00509963 -0.0011889 0.105852)
(0.0123042 -0.000918467 0.109544)
(0.00466939 -0.00175143 0.107509)
(0.0072114 -0.00134425 0.111064)
(0.00943181 -0.00698193 0.107613)
(0.00333949 -0.000286071 0.1129)
(0.0121427 -0.00652104 0.11239)
(0.00837564 -0.00133989 0.106256)
(-0.00257473 -0.000228813 0.056852)
(-0.00985479 0.00582223 0.0968834)
(-0.000986908 0.0121681 0.109582)
(-0.00136632 0.00722007 0.111053)
(-0.00176376 0.00466423 0.107527)
(-0.00671402 0.00942167 0.107558)
(-0.000261311 0.00339352 0.112874)
(-0.00131469 0.0083825 0.106255)
(-0.00652665 0.0121263 0.112394)
(0.00254902 0.00126089 0.10359)
(0.00128604 0.00254344 0.103631)
(0.00922411 0.00917496 0.107986)
(0.0113654 0.0058821 0.109168)
(0.00590988 0.0113583 0.109139)
(-7.2717e-06 -4.77424e-06 0.093457)
(6.92933e-06 1.86128e-05 0.093351)
(-1.27442e-05 -9.11311e-06 0.0933295)
(1.13672e-05 9.06099e-06 0.0933093)
(0.000267925 0.000268904 0.115562)
(-2.48526e-05 -1.83891e-05 0.10991)
(-2.53867e-05 -2.3751e-05 0.109775)
(2.60029e-05 3.16071e-05 0.109862)
(2.48019e-05 2.49001e-05 0.109809)
(1.02375e-05 -2.72321e-05 0.102685)
(1.76795e-06 3.11637e-06 0.115624)
(1.47405e-05 -6.34738e-05 0.113217)
(1.3029e-06 6.14627e-05 0.112822)
(-3.41003e-06 -2.70501e-05 0.102769)
(3.24872e-06 3.96042e-05 0.102636)
(-7.45807e-07 -4.92274e-05 0.112964)
(-1.28703e-06 6.14967e-05 0.112823)
(3.38583e-06 -2.71353e-05 0.102769)
(-3.04577e-06 3.9528e-05 0.102636)
(7.0602e-07 -4.92237e-05 0.112964)
(3.68182e-07 9.06329e-05 0.115071)
(6.68647e-06 6.47696e-06 0.115629)
(-2.45174e-05 -5.95693e-05 0.113295)
(1.50528e-06 -7.49553e-07 0.115649)
(2.25625e-05 7.85335e-05 0.113216)
(3.63686e-07 5.15027e-06 0.115652)
(-1.99403e-06 -6.87778e-05 0.115123)
(-3.53236e-07 9.06946e-05 0.115071)
(-7.675e-06 7.07193e-06 0.11563)
(2.41097e-05 -5.9519e-05 0.113296)
(-1.50317e-06 -5.06911e-07 0.11565)
(-2.24693e-05 7.81868e-05 0.113216)
(-8.15149e-07 5.36024e-06 0.115652)
(1.95327e-06 -6.87471e-05 0.115123)
(0.000270475 -0.000279861 0.115561)
(1.97738e-05 -2.00725e-05 0.109835)
(2.68458e-05 -2.65821e-05 0.109779)
(1.47635e-05 -9.67407e-06 0.0933254)
(7.11399e-06 -5.05139e-06 0.0934613)
(-6.82591e-06 1.87845e-05 0.0933519)
(-0.000267141 0.000269074 0.115562)
(2.42234e-05 -1.85611e-05 0.109908)
(2.54947e-05 -2.47719e-05 0.109778)
(-2.63427e-05 3.17495e-05 0.109852)
(-2.46993e-05 2.52237e-05 0.109819)