/*--------------------------------*- C++ -*----------------------------------*\
| =========                 |                                                 |
| \\      /  F ield         | OpenFOAM: The Open Source CFD Toolbox           |
|  \\    /   O peration     | Version:  2206                                  |
|   \\  /    A nd           | Website:  www.openfoam.com                      |
|    \\/     M anipulation  |                                                 |
\*---------------------------------------------------------------------------*/
FoamFile
{
    version     2.0;
    format      ascii;
    arch        "LSB;label=32;scalar=64";
    class       volVectorField;
    location    "0.6";
    object      wallShearStress;
}
// * * * * * * * * * * * * * * * * * * * * * * * * * * * * * * * * * * * * * //

dimensions      [0 2 -2 0 0 0 0];

internalField   uniform (0 0 0);

boundaryField
{
    wall
    {
        type            calculated;
        value           nonuniform List<vector> 
7965
(
(4.92903e-07 -8.26857e-07 -0.00049609)
(8.29781e-08 -2.4363e-07 -0.000336565)
(-2.34791e-07 -2.41665e-07 -0.000283445)
(-4.05002e-07 -2.61926e-07 -0.000253964)
(-5.56739e-07 -2.65992e-07 -0.000236866)
(2.24206e-07 -5.46331e-08 -0.000226446)
(2.71168e-07 -1.73965e-08 -0.000221237)
(-3.11755e-07 -1.20311e-07 -0.00022017)
(1.67539e-07 1.08072e-08 -0.000219329)
(-3.02693e-08 -4.37866e-08 -0.000217457)
(-7.55916e-08 -4.54077e-08 -0.000216708)
(1.27966e-07 1.02143e-08 -0.000215939)
(3.65991e-07 7.67579e-08 -0.000215345)
(2.80982e-08 -9.81469e-09 -0.000214783)
(-9.45927e-08 -4.26264e-08 -0.000215009)
(-1.34151e-07 -5.79857e-08 -0.000215224)
(-1.5775e-07 -5.18453e-08 -0.000214409)
(-6.17522e-08 -2.62196e-08 -0.000215072)
(-5.17053e-08 -3.31678e-08 -0.000214865)
(-9.58208e-08 -5.01905e-08 -0.000214899)
(-6.76212e-08 -3.62367e-08 -0.000214334)
(-4.6994e-09 -1.51402e-08 -0.000214075)
(-4.30982e-08 -3.19241e-08 -0.000214785)
(-6.80826e-08 -3.1483e-08 -0.000214316)
(2.43887e-08 -9.09277e-09 -0.000214437)
(-1.0885e-07 -4.97484e-08 -0.00021398)
(5.15235e-08 2.89137e-09 -0.000214171)
(4.88676e-08 2.67546e-09 -0.000213749)
(1.38022e-07 2.57855e-08 -0.000213698)
(-1.0742e-07 -4.51679e-08 -0.000213744)
(1.03323e-07 1.20409e-08 -0.000213577)
(-1.23926e-07 -4.81204e-08 -0.000214037)
(-8.18273e-08 -4.64615e-08 -0.000214254)
(1.30178e-07 6.21908e-09 -0.000214435)
(-3.52403e-08 -2.92445e-08 -0.000214848)
(2.19733e-07 3.7427e-08 -0.000215424)
(3.49353e-07 7.41658e-08 -0.000214908)
(-2.72943e-08 -2.62726e-08 -0.000215055)
(-2.22103e-07 -6.43741e-08 -0.000215693)
(-2.42969e-07 -7.25211e-08 -0.000215839)
(-9.25176e-09 2.4394e-10 -0.000215625)
(-9.63356e-08 -3.10541e-08 -0.000215512)
(2.53657e-09 -8.08883e-09 -0.000215)
(1.41459e-08 -1.64617e-08 -0.000215098)
(-2.13398e-07 -7.82723e-08 -0.000214682)
(5.47196e-08 -2.85343e-09 -0.000214976)
(-1.51733e-07 -6.17014e-08 -0.000214377)
(-3.67901e-07 -1.18168e-07 -0.000214768)
(8.9703e-08 6.46513e-09 -0.000215031)
(-6.46923e-08 -4.40021e-08 -0.000214788)
(2.14849e-07 3.761e-08 -0.000215151)
(1.96892e-07 3.95621e-08 -0.000215172)
(1.1891e-07 3.02971e-08 -0.000215154)
(2.06209e-07 4.48818e-08 -0.000215143)
(2.36793e-07 4.46016e-08 -0.000215445)
(2.93151e-07 6.66656e-08 -0.0002148)
(1.66458e-07 4.07019e-08 -0.000214578)
(-1.00123e-07 -4.64577e-08 -0.000215063)
(-1.5698e-07 -5.39729e-08 -0.000214581)
(-1.14014e-08 -1.56641e-08 -0.000214597)
(1.25241e-07 3.54277e-08 -0.000214198)
(9.27602e-08 2.11311e-08 -0.000214523)
(-2.23782e-07 -7.71534e-08 -0.000214728)
(-1.61197e-07 -7.10953e-08 -0.000214997)
(-1.84377e-07 -6.72896e-08 -0.000214595)
(-0.00037132 -9.86345e-05 -0.0013684)
(-1.77763e-06 -1.25848e-06 -0.000780205)
(1.75149e-07 -3.68576e-07 -0.000394407)
(6.31511e-07 4.72062e-08 -0.000310168)
(-7.36317e-08 -1.2496e-07 -0.000271052)
(-1.82606e-07 -1.34192e-07 -0.000247601)
(1.53376e-08 -6.98695e-08 -0.000234414)
(-4.34491e-08 -8.89844e-08 -0.000227321)
(2.85368e-07 5.02219e-08 -0.000224002)
(1.2289e-08 8.46391e-09 -0.000223367)
(-2.09303e-07 -6.39664e-08 -0.000221796)
(2.04828e-08 1.38388e-08 -0.000220654)
(5.03151e-08 2.70569e-08 -0.000219743)
(-1.78198e-08 6.17029e-09 -0.000219511)
(-1.41867e-07 -3.63538e-08 -0.000218813)
(2.22918e-07 7.18049e-08 -0.000218731)
(4.28828e-07 1.28629e-07 -0.000218802)
(2.52581e-07 8.04582e-08 -0.000218538)
(1.88205e-07 7.10871e-08 -0.000218567)
(1.69898e-07 6.32521e-08 -0.000218607)
(2.33602e-07 8.03337e-08 -0.000218562)
(-2.79801e-07 -6.05828e-08 -0.000218409)
(-2.09519e-07 -3.38149e-08 -0.000218059)
(2.50779e-09 4.63185e-09 -0.000217901)
(1.94425e-07 6.404e-08 -0.000218546)
(-3.42244e-08 9.78838e-09 -0.000218196)
(-1.7631e-07 -3.79782e-08 -0.000217905)
(-8.41629e-08 -1.06588e-08 -0.000217862)
(-1.84526e-07 -2.80123e-08 -0.000217875)
(-2.6629e-07 -4.91553e-08 -0.000217477)
(4.93256e-08 2.91155e-08 -0.00021722)
(3.44993e-08 2.41529e-08 -0.000217694)
(-2.90075e-07 -7.313e-08 -0.000217631)
(-2.95422e-07 -6.18658e-08 -0.000217844)
(-2.62761e-07 -5.93878e-08 -0.000218355)
(-2.11383e-07 -4.62043e-08 -0.000218163)
(-7.95205e-08 -1.84637e-09 -0.000218665)
(2.47348e-08 1.29037e-08 -0.000218902)
(1.92828e-07 6.01211e-08 -0.000218771)
(2.78439e-07 9.81618e-08 -0.000219205)
(3.01736e-07 9.55371e-08 -0.000219199)
(5.16883e-07 1.64098e-07 -0.000219494)
(1.1697e-07 6.65569e-08 -0.000219236)
(7.43758e-08 3.96746e-08 -0.000219256)
(-1.37306e-07 -1.37961e-08 -0.000219078)
(-3.76019e-07 -9.68652e-08 -0.000218514)
(-2.20113e-07 -4.53204e-08 -0.000218569)
(-3.82947e-07 -8.97945e-08 -0.000218441)
(-1.12511e-07 -1.81695e-08 -0.000218291)
(5.21456e-08 2.64396e-08 -0.000218813)
(-1.90794e-07 -4.08209e-08 -0.000218442)
(3.30436e-07 9.70528e-08 -0.000218706)
(1.86264e-07 5.9733e-08 -0.000218979)
(2.79551e-07 9.43781e-08 -0.000218686)
(4.67817e-07 1.48764e-07 -0.000219065)
(2.90025e-07 9.18344e-08 -0.000218792)
(1.50501e-07 5.31016e-08 -0.000218623)
(3.12691e-07 1.048e-07 -0.000218429)
(3.38128e-07 1.18081e-07 -0.000218599)
(1.4937e-07 5.42576e-08 -0.000218409)
(-1.14435e-07 -1.25859e-08 -0.00021841)
(-2.05287e-07 -3.57501e-08 -0.000218437)
(-3.10805e-07 -5.02016e-08 -0.000218344)
(-6.99132e-08 6.15346e-10 -0.000218244)
(-8.57247e-08 -1.09372e-08 -0.000218421)
(-3.62997e-07 -8.8574e-08 -0.000218492)
(-1.36211e-07 -1.99766e-08 -0.000218464)
(-0.000379285 -6.12616e-05 -0.00136862)
(-1.69423e-06 -1.13322e-06 -0.000780368)
(-1.10528e-06 -1.12938e-06 -0.00049229)
(1.71654e-07 -2.30467e-07 -0.000336568)
(9.7608e-09 -1.61764e-07 -0.00028267)
(6.36668e-08 -1.42505e-07 -0.000254014)
(-2.60094e-07 -2.05778e-07 -0.000237134)
(-1.57777e-07 -1.42133e-07 -0.000227071)
(6.32966e-07 1.8874e-08 -0.000222103)
(-3.13945e-07 -9.58026e-08 -0.000219698)
(-3.77146e-08 -2.5053e-08 -0.00021958)
(9.97474e-08 -2.34736e-08 -0.000217565)
(5.33969e-08 -2.82121e-08 -0.00021643)
(-3.01298e-08 -2.4584e-08 -0.00021539)
(2.95847e-07 2.47923e-08 -0.000215067)
(3.92831e-07 4.02957e-08 -0.000214429)
(4.3374e-07 5.18031e-08 -0.000214556)
(8.73223e-08 -1.59305e-08 -0.000214671)
(9.83442e-08 -9.71024e-10 -0.000214239)
(1.44696e-07 3.31091e-09 -0.000214946)
(8.80204e-08 -4.002e-09 -0.000214799)
(-3.62988e-07 -8.48841e-08 -0.000214759)
(-8.32443e-08 -3.15856e-08 -0.000214699)
(4.69953e-08 -1.51247e-09 -0.000214182)
(-7.55705e-08 -2.48491e-08 -0.000214439)
(8.2225e-08 -4.74394e-09 -0.000214313)
(-1.46408e-07 -3.25932e-08 -0.000214253)
(-1.52925e-07 -3.82851e-08 -0.000214107)
(-2.04407e-07 -5.44381e-08 -0.000214497)
(-2.11081e-07 -5.77795e-08 -0.000214066)
(1.27341e-07 9.70454e-09 -0.00021397)
(-2.74404e-07 -5.7373e-08 -0.000213437)
(-1.72956e-07 -5.54509e-08 -0.000214004)
(-2.96991e-07 -6.43882e-08 -0.000214413)
(-3.60643e-07 -6.56926e-08 -0.000214441)
(8.52918e-08 -1.35287e-08 -0.000214807)
(2.86863e-08 -1.09968e-08 -0.00021473)
(5.4849e-08 -1.23463e-08 -0.000215258)
(3.59562e-07 4.05315e-08 -0.000214999)
(3.50959e-07 4.31847e-08 -0.000214879)
(3.85914e-07 5.31329e-08 -0.000215469)
(1.73474e-07 2.45416e-08 -0.000215356)
(1.26143e-07 1.07365e-08 -0.000215556)
(-1.51195e-07 -4.1871e-08 -0.000215494)
(4.0497e-08 -8.58358e-09 -0.000215476)
(-1.85789e-07 -4.35892e-08 -0.000215223)
(-3.53784e-07 -6.81025e-08 -0.000214759)
(-3.73178e-07 -7.6615e-08 -0.00021513)
(1.17679e-08 -1.9119e-08 -0.000214794)
(-1.18418e-07 -3.96373e-08 -0.000214695)
(-5.27722e-08 -1.83775e-08 -0.000214924)
(2.2021e-07 1.98661e-08 -0.000214691)
(1.75994e-07 1.01681e-08 -0.000214803)
(5.05761e-07 6.63566e-08 -0.000215005)
(3.95537e-07 3.94914e-08 -0.000214703)
(3.95136e-07 5.04113e-08 -0.000214814)
(4.66241e-08 -7.93658e-09 -0.000214864)
(2.98822e-07 1.78553e-08 -0.000214873)
(3.59535e-07 3.83673e-08 -0.00021452)
(-5.00743e-08 -2.28867e-08 -0.0002147)
(-1.07529e-07 -2.75692e-08 -0.000214826)
(-2.5467e-07 -6.81533e-08 -0.000215077)
(-2.14156e-08 -2.74572e-08 -0.000214892)
(-7.25318e-08 -2.92221e-08 -0.000214695)
(-4.19176e-07 -7.30536e-08 -0.000214571)
(-3.87934e-07 -7.6546e-08 -0.00021517)
(-1.94395e-07 -5.38886e-08 -0.000215015)
(-0.000383627 -2.08651e-05 -0.00136899)
(-1.9484e-06 -6.69232e-07 -0.000393076)
(-4.34034e-07 -2.05194e-07 -0.000309283)
(3.01933e-07 -4.28959e-08 -0.000270683)
(1.98708e-07 -6.56766e-08 -0.000248401)
(-1.01373e-07 -1.07736e-07 -0.000234837)
(2.24295e-07 -3.44893e-08 -0.00022808)
(2.74196e-07 1.49006e-08 -0.000224314)
(1.66883e-07 3.1532e-08 -0.000222943)
(-8.54215e-10 6.2925e-09 -0.000221851)
(6.41307e-09 -4.88446e-09 -0.000220497)
(1.29023e-07 2.24826e-08 -0.000219211)
(1.0963e-07 3.47536e-08 -0.000218671)
(-1.40077e-07 -1.58579e-08 -0.000218472)
(-2.59367e-07 -2.9804e-08 -0.000218201)
(-2.22908e-08 -1.28151e-09 -0.000218177)
(1.71062e-07 3.60877e-08 -0.000218316)
(2.46645e-08 1.65553e-08 -0.000218333)
(-1.31488e-07 -1.19782e-08 -0.000218381)
(3.08186e-07 6.26487e-08 -0.000218271)
(1.63203e-07 3.46418e-08 -0.000218515)
(-1.99296e-07 -1.33566e-08 -0.000218328)
(-1.62909e-07 -2.31267e-09 -0.000217935)
(8.13414e-08 2.97984e-08 -0.00021815)
(1.88744e-07 3.75916e-08 -0.000218172)
(-1.12964e-07 6.30612e-09 -0.000218023)
(-1.68879e-07 -1.04742e-08 -0.000217905)
(-1.1165e-07 -1.69077e-08 -0.000218238)
(-4.70621e-07 -5.93098e-08 -0.000218008)
(-4.84015e-07 -5.99852e-08 -0.000217395)
(-7.70533e-08 4.88702e-09 -0.000217599)
(-2.23669e-07 -3.60249e-08 -0.000218129)
(-3.58734e-07 -3.483e-08 -0.000218266)
(-2.80345e-07 -2.51963e-08 -0.00021849)
(-2.91438e-07 -3.25467e-08 -0.000218413)
(-8.38173e-08 2.18196e-09 -0.000218528)
(5.22181e-08 2.53243e-08 -0.0002188)
(3.09325e-07 6.25879e-08 -0.000218811)
(5.94009e-07 1.15379e-07 -0.000219115)
(4.08683e-07 8.62719e-08 -0.000218987)
(5.28025e-07 9.7701e-08 -0.00021897)
(2.70349e-07 6.63102e-08 -0.000219231)
(4.78796e-08 2.5372e-08 -0.000219151)
(8.96509e-08 2.85735e-08 -0.00021913)
(-1.64065e-07 -3.86212e-09 -0.000218955)
(-3.1019e-07 -3.87437e-08 -0.000218616)
(-4.02641e-07 -4.92452e-08 -0.000218722)
(-3.0931e-07 -3.62858e-08 -0.000218446)
(-1.3588e-08 9.88132e-09 -0.000218396)
(-6.12901e-08 9.94125e-09 -0.000218629)
(-2.42343e-08 8.65935e-09 -0.000218296)
(3.41386e-07 6.86381e-08 -0.000218746)
(4.06824e-08 1.71021e-08 -0.000218362)
(1.56144e-07 3.50151e-08 -0.000218497)
(2.11518e-07 4.90428e-08 -0.000218424)
(-6.85446e-08 4.76431e-09 -0.000218551)
(5.29831e-08 1.07329e-08 -0.000218571)
(1.19165e-07 2.80611e-08 -0.000218541)
(2.88138e-07 6.32719e-08 -0.000218275)
(2.62896e-07 5.97174e-08 -0.000218587)
(1.49211e-07 2.99132e-08 -0.000218803)
(-3.50963e-07 -3.8216e-08 -0.000218905)
(-4.16504e-07 -5.40196e-08 -0.000218625)
(-6.96892e-08 7.51797e-09 -0.000218491)
(-3.63068e-07 -3.88958e-08 -0.000218827)
(-2.53938e-07 -3.00958e-08 -0.000218599)
(-1.93853e-06 -8.99448e-07 -0.000780118)
(-0.000383677 1.97389e-05 -0.00136937)
(-1.4819e-06 -1.01261e-06 -0.000491011)
(-1.69156e-07 -2.59399e-07 -0.000337908)
(6.1138e-07 -1.21638e-07 -0.00028269)
(4.29287e-07 -1.19047e-07 -0.000253201)
(-3.83033e-08 -1.61641e-07 -0.000236752)
(-2.70614e-07 -1.51872e-07 -0.000226979)
(3.50274e-07 -6.12834e-08 -0.000222393)
(-2.22574e-08 -5.34946e-08 -0.000219301)
(-2.70741e-07 -4.67006e-08 -0.000219203)
(-1.96918e-07 -3.11568e-08 -0.000217554)
(-6.7878e-08 -3.35899e-08 -0.000216352)
(-2.95334e-07 -3.84839e-08 -0.000215105)
(-3.55915e-07 -3.64975e-08 -0.00021475)
(-1.2663e-07 -2.81203e-08 -0.000214408)
(2.27594e-07 -5.02214e-09 -0.000214558)
(1.48463e-07 -2.08234e-08 -0.000214419)
(1.60481e-07 -2.21125e-08 -0.000214228)
(-1.77373e-07 -3.08207e-08 -0.000214645)
(3.07048e-07 4.79771e-09 -0.000214895)
(-7.26999e-08 -1.48888e-08 -0.000214251)
(-3.48686e-09 -2.71511e-08 -0.000214735)
(1.05683e-07 -1.09767e-08 -0.000214379)
(-2.84507e-08 -8.02056e-09 -0.000214314)
(2.33486e-07 -1.07165e-08 -0.000214485)
(4.81555e-08 -1.7257e-08 -0.000214196)
(-1.13174e-07 -1.0198e-08 -0.000214192)
(-4.57569e-07 -3.27088e-08 -0.000214518)
(-3.98602e-07 -3.86723e-08 -0.000214575)
(-2.36952e-07 -2.69773e-08 -0.00021462)
(-4.67636e-08 -1.41228e-08 -0.000214015)
(-2.90946e-07 -3.14883e-08 -0.000214135)
(-2.25238e-07 -3.35292e-08 -0.000214812)
(-3.43737e-07 -3.24761e-08 -0.000214823)
(-3.51259e-08 -1.56267e-08 -0.000215301)
(-7.91957e-08 -2.00347e-08 -0.000214884)
(4.12685e-08 -1.43902e-08 -0.000215365)
(4.57164e-07 5.76393e-09 -0.000215068)
(7.42595e-07 3.81928e-08 -0.000214692)
(6.02605e-07 8.42326e-09 -0.000215113)
(4.71036e-07 1.25295e-08 -0.0002151)
(-3.06213e-08 -1.74547e-08 -0.000215162)
(-8.92089e-08 -1.5885e-08 -0.000215506)
(-9.26596e-08 -3.02865e-08 -0.000215555)
(-4.10818e-08 -1.4785e-08 -0.000215282)
(-2.37006e-07 -2.96759e-08 -0.000214822)
(-5.88597e-07 -4.52031e-08 -0.000215115)
(-2.28705e-07 -2.26479e-08 -0.000215099)
(-9.23074e-09 -1.23909e-08 -0.00021467)
(-3.42816e-07 -3.61112e-08 -0.000214531)
(1.65439e-07 -6.00001e-09 -0.000214906)
(1.11721e-07 -7.53818e-09 -0.000214642)
(9.67275e-08 -8.82184e-09 -0.000215075)
(1.83755e-07 4.78454e-10 -0.000214876)
(2.06255e-07 -5.04712e-09 -0.000214827)
(-1.14487e-08 -4.05289e-09 -0.000214766)
(9.6791e-08 -6.32313e-09 -0.000215097)
(1.98662e-07 -1.4436e-08 -0.000214717)
(2.90363e-07 -7.49573e-09 -0.000214704)
(1.00251e-07 -6.93325e-11 -0.000214524)
(-1.45516e-07 -2.56375e-08 -0.000214802)
(-3.03197e-07 -3.61743e-08 -0.000215165)
(-5.41439e-08 -2.06739e-08 -0.000215353)
(-2.40346e-08 -1.76828e-08 -0.000215037)
(-6.02601e-07 -4.44038e-08 -0.000215055)
(-1.71531e-07 -2.94096e-08 -0.000215562)
(-5.68217e-07 -3.82546e-07 -0.000393362)
(-5.69277e-07 -1.50075e-07 -0.000309746)
(-3.91331e-07 -1.13604e-07 -0.000270147)
(2.60218e-08 -9.47189e-08 -0.00024774)
(-1.35957e-07 -9.70398e-08 -0.000234897)
(-2.74077e-08 -8.73809e-08 -0.00022798)
(2.38346e-07 -2.2968e-08 -0.000224578)
(1.77828e-07 6.07008e-09 -0.000222737)
(-1.36847e-08 6.28337e-09 -0.000221889)
(1.18131e-07 2.68686e-08 -0.000220768)
(-1.11054e-07 5.88763e-09 -0.000219451)
(-1.98818e-07 6.62457e-10 -0.000218549)
(-3.36618e-07 -4.19301e-09 -0.000218472)
(-4.18568e-07 -1.03421e-08 -0.000218341)
(-6.26843e-07 -2.1171e-08 -0.000217997)
(-0.000379397 6.05198e-05 -0.00136863)
(-7.3611e-08 4.18466e-09 -0.000218011)
(2.26127e-07 1.47503e-08 -0.000218427)
(-2.47443e-07 -1.70449e-09 -0.000218531)
(-1.39725e-07 1.25048e-08 -0.000218076)
(3.23113e-07 3.66047e-08 -0.000217967)
(5.65893e-08 6.52221e-09 -0.00021824)
(9.10205e-08 2.35072e-08 -0.000218329)
(-1.56798e-07 1.80961e-08 -0.00021814)
(-7.79913e-08 3.84359e-09 -0.000217899)
(-6.14813e-08 1.03507e-08 -0.000218054)
(-7.51049e-08 1.36282e-08 -0.000218023)
(2.99398e-08 1.9563e-08 -0.000218129)
(6.26133e-08 1.94638e-08 -0.000218347)
(-2.21946e-07 2.85674e-09 -0.000218316)
(-3.54226e-07 -2.67351e-09 -0.000217749)
(-6.08409e-08 1.53215e-08 -0.000218191)
(-6.83015e-08 4.76953e-09 -0.000218686)
(3.23408e-08 1.64635e-08 -0.00021867)
(1.32668e-07 2.61036e-08 -0.000218765)
(1.29155e-07 3.06166e-08 -0.000218676)
(1.83884e-07 2.34792e-08 -0.000218702)
(2.96971e-07 3.09096e-08 -0.000218669)
(5.69392e-07 3.95868e-08 -0.000218747)
(5.93344e-07 4.78411e-08 -0.000219035)
(9.18093e-08 1.5082e-08 -0.000218675)
(1.69388e-07 2.2777e-08 -0.000219209)
(-6.00589e-08 1.63607e-08 -0.00021929)
(-1.37003e-07 9.10163e-09 -0.000218969)
(-1.20259e-07 1.80941e-08 -0.000218903)
(-1.74559e-07 3.18271e-09 -0.000218734)
(-9.18651e-08 9.19916e-09 -0.000218884)
(-2.03119e-07 8.51302e-09 -0.000218804)
(-4.14787e-07 -7.78826e-09 -0.000218218)
(-1.41217e-07 1.40251e-08 -0.000218489)
(-2.46751e-07 1.23101e-09 -0.000218488)
(1.89483e-07 2.28126e-08 -0.00021854)
(3.49692e-07 3.06573e-08 -0.000218776)
(1.25752e-07 2.82266e-08 -0.000218596)
(1.83314e-07 2.43262e-08 -0.000218338)
(1.71458e-07 3.36297e-08 -0.000218525)
(2.25527e-07 3.10734e-08 -0.000218717)
(1.60981e-08 3.14225e-09 -0.000218945)
(-2.18621e-07 -4.5021e-09 -0.00021827)
(-2.2733e-08 2.44452e-08 -0.00021845)
(4.51569e-08 9.6122e-09 -0.000218439)
(2.29446e-07 2.98113e-08 -0.000219249)
(-3.31666e-07 -1.81238e-10 -0.000219281)
(-2.41392e-07 4.36988e-09 -0.000218594)
(-2.95116e-08 1.62822e-08 -0.000219018)
(-8.20066e-08 -3.59443e-10 -0.00021871)
(-2.32912e-06 -4.83656e-07 -0.000780324)
(-0.000371193 9.91189e-05 -0.00136854)
(-1.16286e-06 -8.93398e-07 -0.000489449)
(-1.26955e-06 -1.91594e-07 -0.000338212)
(-1.62518e-07 -1.35061e-07 -0.000284075)
(2.29289e-07 -1.5813e-07 -0.000253858)
(-4.11097e-08 -1.40912e-07 -0.000236806)
(1.64927e-07 -1.24665e-07 -0.000227082)
(2.76654e-07 -8.35177e-08 -0.000222242)
(3.22029e-07 -5.76612e-08 -0.00021915)
(1.86828e-07 -4.13038e-08 -0.000219038)
(1.5328e-07 -4.10157e-08 -0.000217464)
(-1.04477e-07 -1.40928e-08 -0.000216257)
(-4.70884e-07 -4.76999e-10 -0.000215236)
(-5.28526e-07 -2.05117e-09 -0.000215317)
(-4.94815e-07 1.17282e-09 -0.000214876)
(-5.37195e-07 1.2863e-08 -0.000214752)
(-5.54851e-08 2.21836e-09 -0.000214694)
(2.87968e-07 -2.74704e-08 -0.000214228)
(-1.30549e-07 -7.11239e-09 -0.000214259)
(1.00905e-07 -1.13747e-08 -0.000215019)
(2.49967e-07 -2.34786e-08 -0.000214326)
(-1.14437e-07 -1.06661e-08 -0.0002144)
(1.95682e-07 -4.16794e-08 -0.000214655)
(1.24575e-07 -2.13614e-08 -0.000214366)
(-9.83508e-08 -5.88284e-09 -0.000214121)
(5.18513e-08 -1.79139e-08 -0.000213931)
(3.98302e-08 -2.38546e-08 -0.000213909)
(-1.06599e-07 -6.8088e-09 -0.000214071)
(-3.16239e-08 -1.34143e-08 -0.000214328)
(-2.4349e-07 -9.42218e-09 -0.000214523)
(-5.78404e-08 -2.17977e-08 -0.000214437)
(-5.16486e-08 -1.41923e-08 -0.000214336)
(-5.63236e-08 -7.10379e-09 -0.000214831)
(6.79144e-08 -1.71596e-08 -0.000214883)
(3.74797e-08 -2.26408e-08 -0.000215174)
(8.50488e-08 -2.14786e-08 -0.00021483)
(-1.48528e-07 -1.54386e-09 -0.000215027)
(1.32072e-07 -2.00916e-08 -0.000215008)
(7.66573e-07 -4.7467e-08 -0.000214937)
(7.14872e-07 -5.63752e-08 -0.000214814)
(5.21808e-07 -5.04606e-08 -0.000214808)
(6.57469e-08 -1.51443e-08 -0.000214803)
(7.12271e-08 -1.04639e-08 -0.000215527)
(-1.51694e-07 -1.01716e-08 -0.000215393)
(6.46682e-09 -2.59057e-08 -0.000215386)
(4.78437e-08 -2.54227e-08 -0.000214831)
(-3.35681e-07 4.83543e-09 -0.000214749)
(-3.54838e-07 9.64796e-09 -0.000215255)
(-2.37584e-07 -5.60496e-09 -0.000215055)
(-2.73781e-07 2.26289e-09 -0.000214795)
(-2.53697e-07 -3.90678e-09 -0.000215076)
(1.98884e-07 -2.33302e-08 -0.000214846)
(7.71814e-08 -1.86466e-08 -0.000214695)
(1.29147e-07 -2.36416e-08 -0.000214736)
(1.89907e-07 -2.69405e-08 -0.000214806)
(1.7314e-07 -2.53395e-08 -0.000214696)
(2.18427e-07 -1.95193e-08 -0.000214946)
(1.23214e-07 -2.24416e-08 -0.000214772)
(1.59867e-07 -4.22113e-08 -0.00021504)
(-7.94441e-09 -1.937e-08 -0.000214802)
(-7.97236e-08 1.83327e-09 -0.000214834)
(-2.08183e-07 3.0268e-10 -0.000215084)
(-8.38458e-08 -1.7052e-08 -0.000215581)
(1.96597e-07 -3.03651e-08 -0.000215399)
(-1.37714e-07 -1.99703e-09 -0.000214855)
(-1.24526e-07 -7.72203e-09 -0.000215345)
(-4.06333e-07 -3.3584e-07 -0.000393011)
(3.02329e-07 -1.16235e-07 -0.000310248)
(5.19841e-07 -1.15297e-07 -0.000271156)
(3.1801e-07 -1.30549e-07 -0.000248109)
(4.60924e-07 -1.09413e-07 -0.000234906)
(9.67104e-08 -5.93425e-08 -0.000227653)
(2.77481e-07 -4.00343e-08 -0.000224429)
(2.83483e-07 -1.49513e-08 -0.000222552)
(-3.99079e-08 3.35513e-10 -0.000221683)
(-5.14194e-08 1.33561e-08 -0.000220568)
(-2.16932e-06 -4.03561e-07 -0.000781202)
(-9.02312e-08 1.57997e-08 -0.000219701)
(-1.89344e-07 1.6945e-08 -0.000218981)
(-3.88089e-07 2.4866e-08 -0.000218859)
(-3.368e-07 2.64247e-08 -0.000218652)
(-5.45982e-07 4.84809e-08 -0.000218672)
(-2.80016e-07 4.24317e-08 -0.000218047)
(1.49346e-07 2.68887e-09 -0.000217945)
(9.7142e-08 1.25737e-08 -0.000218307)
(-9.04209e-08 2.20826e-08 -0.000218502)
(2.89699e-07 -1.31875e-09 -0.000217826)
(2.68617e-07 7.63242e-10 -0.000217882)
(1.70476e-07 -1.09949e-09 -0.000218091)
(1.77618e-08 1.88652e-08 -0.000217978)
(-6.9176e-08 1.71049e-08 -0.000217648)
(-3.16936e-07 2.81147e-08 -0.00021768)
(-2.87728e-07 2.10188e-08 -0.000217973)
(-4.7098e-07 4.99462e-08 -0.000217706)
(-1.55071e-07 2.25499e-08 -0.000217791)
(1.16595e-07 2.67388e-09 -0.000218208)
(1.68509e-08 4.0996e-10 -0.000218183)
(2.0776e-07 7.83852e-09 -0.000218201)
(3.5257e-07 5.13491e-09 -0.000218665)
(2.6824e-07 5.47833e-10 -0.00021844)
(3.42684e-07 -5.21601e-09 -0.000218631)
(3.46375e-07 9.0804e-10 -0.000218728)
(-0.000359084 0.000136619 -0.0013691)
(3.48966e-07 -2.32039e-09 -0.000218676)
(4.46575e-07 -2.81474e-09 -0.000218719)
(3.61011e-07 3.1357e-09 -0.000218553)
(4.04036e-07 -1.26344e-08 -0.000218361)
(1.57243e-07 -2.35819e-10 -0.000218591)
(1.34715e-07 7.48311e-09 -0.000218915)
(-1.58607e-07 3.03041e-08 -0.000219175)
(-2.63748e-07 3.46855e-08 -0.000218912)
(-3.34265e-07 2.75679e-08 -0.000218801)
(-1.67e-07 1.95318e-08 -0.000218715)
(-1.53794e-07 2.57546e-08 -0.000218568)
(1.96795e-07 7.18035e-09 -0.000218803)
(-8.98079e-08 1.8066e-08 -0.000218838)
(-1.8295e-07 2.87137e-08 -0.000218575)
(-1.20666e-07 2.23172e-08 -0.000218969)
(-2.61501e-07 2.69742e-08 -0.000218517)
(2.70047e-08 1.54864e-08 -0.000218352)
(1.37968e-07 5.98532e-09 -0.000218664)
(8.52096e-08 1.0224e-08 -0.00021846)
(8.69495e-08 7.75635e-09 -0.000218341)
(1.78957e-07 7.58755e-09 -0.000218273)
(3.57307e-07 -2.9194e-09 -0.00021879)
(-7.84699e-08 1.29782e-09 -0.000218639)
(1.98918e-08 2.12198e-08 -0.000218799)
(-1.35777e-08 1.94735e-08 -0.000218568)
(3.747e-07 -8.72189e-11 -0.00021875)
(1.21788e-07 2.79829e-09 -0.000219329)
(-1.68386e-07 2.03432e-08 -0.000218913)
(1.12065e-08 2.18588e-08 -0.00021871)
(-1.46987e-07 1.98501e-08 -0.000218656)
(-0.00034251 0.000173905 -0.00136932)
(2.21188e-07 -9.71034e-07 -0.000489313)
(3.54327e-07 -3.29607e-07 -0.000337482)
(4.76624e-07 -2.3189e-07 -0.000283458)
(4.50967e-07 -2.43175e-07 -0.000253171)
(2.4538e-07 -2.1304e-07 -0.000236227)
(6.16155e-07 -2.17817e-07 -0.000226882)
(5.59322e-07 -1.71101e-07 -0.000221815)
(6.13882e-07 -1.43701e-07 -0.000218958)
(-1.01876e-07 -1.47444e-08 -0.000218511)
(2.29299e-07 -6.06529e-08 -0.000217802)
(-1.39322e-09 -3.7351e-08 -0.000216438)
(-3.10214e-07 3.5962e-08 -0.000215255)
(-6.22908e-07 7.56378e-08 -0.000215504)
(-3.17651e-07 2.69118e-08 -0.000215433)
(-6.01883e-07 7.47402e-08 -0.000214961)
(-1.81095e-06 -5.4498e-07 -0.000781105)
(-2.08381e-07 2.55744e-08 -0.000215025)
(3.38698e-08 -1.38987e-08 -0.000214171)
(4.59912e-08 -1.88105e-08 -0.000213966)
(7.24117e-09 -4.70658e-09 -0.000214755)
(4.55787e-07 -8.42547e-08 -0.000214311)
(-1.238e-07 7.11704e-09 -0.000213469)
(7.09773e-09 -2.01928e-08 -0.000214165)
(8.947e-08 -2.7924e-08 -0.000214082)
(-1.37822e-07 7.42312e-09 -0.000213763)
(-2.46862e-07 1.87668e-08 -0.00021387)
(-1.78872e-07 2.33095e-09 -0.000214002)
(-1.64034e-07 5.94755e-09 -0.000214123)
(-9.45195e-08 5.15466e-09 -0.000214224)
(-1.74052e-08 -2.10749e-09 -0.000214304)
(-7.00297e-09 -1.47442e-08 -0.000214162)
(2.82591e-07 -5.45379e-08 -0.000214218)
(3.39406e-07 -6.48841e-08 -0.000214459)
(3.14206e-07 -5.57114e-08 -0.000214387)
(1.57492e-07 -3.50281e-08 -0.000214721)
(3.06217e-07 -6.3993e-08 -0.000214749)
(2.82519e-07 -6.09087e-08 -0.000214906)
(2.03631e-07 -4.36161e-08 -0.000214828)
(3.59627e-07 -7.30327e-08 -0.00021496)
(2.56116e-07 -5.16574e-08 -0.000214677)
(3.11824e-07 -6.23093e-08 -0.000214891)
(2.11454e-07 -5.05788e-08 -0.000214968)
(-4.188e-08 -4.88495e-09 -0.000215591)
(-2.25528e-07 2.74192e-08 -0.000215418)
(-3.0312e-07 3.75e-08 -0.000215315)
(-3.84501e-08 -1.17543e-08 -0.000214825)
(1.06471e-07 -3.75353e-08 -0.000214626)
(-6.48998e-08 -1.22133e-08 -0.000214964)
(-2.57215e-07 2.258e-08 -0.000214903)
(-3.29935e-08 -2.91419e-09 -0.000215086)
(-3.3278e-07 4.07446e-08 -0.000215212)
(-9.00671e-08 -8.16256e-09 -0.000215563)
(2.72278e-08 -2.04037e-08 -0.000215241)
(5.01832e-08 -1.76541e-08 -0.000214885)
(1.58902e-07 -2.9523e-08 -0.00021487)
(6.40401e-08 -1.95169e-08 -0.00021461)
(8.94845e-08 -2.68558e-08 -0.00021487)
(1.47951e-07 -2.63984e-08 -0.000214485)
(1.68688e-07 -4.36493e-08 -0.000214711)
(2.15274e-07 -5.53888e-08 -0.000214685)
(2.10898e-07 -5.3424e-08 -0.000214654)
(1.63409e-07 -4.21184e-08 -0.000214698)
(-1.42608e-07 1.47139e-08 -0.000214957)
(1.16965e-07 -3.47514e-08 -0.000215374)
(1.8995e-07 -4.27908e-08 -0.000214813)
(-1.97993e-07 1.72695e-08 -0.00021502)
(-6.58614e-07 -2.6329e-07 -0.0003931)
(-3.91251e-07 -6.91594e-08 -0.000309478)
(4.48806e-07 -1.65157e-07 -0.00027029)
(-5.29833e-08 -1.01147e-07 -0.000247611)
(-1.44299e-07 -8.47023e-08 -0.000234136)
(-1.94604e-07 -2.46985e-08 -0.000227139)
(-1.33151e-07 -1.45055e-08 -0.000223892)
(2.90517e-07 -5.32884e-08 -0.00022223)
(3.7195e-07 -5.30106e-08 -0.000221534)
(1.2765e-07 -1.39796e-08 -0.000220621)
(-6.15643e-08 1.1287e-08 -0.000219813)
(-1.46556e-07 2.94107e-08 -0.000219004)
(1.24126e-07 -9.01788e-09 -0.000219078)
(-4.05154e-08 1.56277e-08 -0.000218762)
(-5.42823e-08 2.83439e-08 -0.000218957)
(-2.96615e-07 6.76511e-08 -0.000218352)
(-1.00891e-07 3.35502e-08 -0.00021788)
(1.75728e-07 -1.07313e-08 -0.000217877)
(1.72896e-09 2.98806e-08 -0.000218375)
(-2.19068e-07 3.93512e-08 -0.000217737)
(4.30087e-08 4.8047e-09 -0.000217388)
(2.09951e-08 1.35512e-08 -0.000217719)
(-9.04888e-08 3.44857e-08 -0.0002178)
(-2.66241e-07 5.89565e-08 -0.000217445)
(-4.79932e-07 8.90652e-08 -0.000217644)
(-4.83459e-07 8.21997e-08 -0.000217948)
(-3.96158e-07 7.56007e-08 -0.000218015)
(-2.4744e-07 5.8674e-08 -0.000217908)
(1.24419e-07 1.9035e-09 -0.000217847)
(2.0878e-07 -1.3036e-08 -0.000218006)
(8.66749e-08 2.15006e-09 -0.000218027)
(1.49142e-07 8.28038e-11 -0.000218214)
(2.59121e-07 -2.83567e-08 -0.000218231)
(3.14155e-07 -3.33161e-08 -0.000218369)
(2.85614e-07 -1.82793e-08 -0.000218636)
(1.00253e-07 8.54351e-09 -0.000218517)
(1.70219e-07 -1.29583e-08 -0.000218546)
(2.46473e-07 -1.77651e-08 -0.000218898)
(1.30326e-07 -4.25373e-09 -0.000218413)
(2.30046e-07 -2.55777e-08 -0.000218949)
(1.452e-07 -1.04317e-08 -0.000218888)
(9.78375e-08 7.289e-09 -0.000219221)
(-1.39998e-08 2.17364e-08 -0.000218918)
(-2.25606e-07 6.26059e-08 -0.000218816)
(-2.77369e-07 5.9926e-08 -0.000218735)
(-6.3796e-07 1.16131e-07 -0.000218605)
(-4.07697e-07 7.13357e-08 -0.000218489)
(1.37292e-07 -1.17572e-08 -0.000218916)
(1.33217e-08 2.22149e-08 -0.000218768)
(1.93461e-07 -8.64259e-09 -0.000219118)
(1.69476e-07 -1.80102e-08 -0.000219333)
(1.22903e-07 -5.43827e-09 -0.000218632)
(2.57868e-07 -1.62195e-08 -0.000218468)
(3.41716e-07 -3.15544e-08 -0.000218461)
(2.8851e-07 -2.94036e-08 -0.000218535)
(-0.000322934 0.000208169 -0.00136898)
(-1.25285e-08 1.08769e-08 -0.000218309)
(1.26466e-07 6.71368e-09 -0.000218072)
(2.33003e-08 7.50927e-09 -0.000218338)
(-7.96687e-08 2.12398e-08 -0.000218571)
(-2.27429e-07 4.1248e-08 -0.000218655)
(-1.31394e-07 4.10761e-08 -0.000218177)
(3.27903e-07 -3.06986e-08 -0.000218604)
(2.34814e-07 -1.86379e-08 -0.000219018)
(-5.4994e-08 2.07061e-08 -0.000218606)
(1.11035e-07 -4.02598e-09 -0.000218804)
(-2.15179e-06 -2.1356e-09 -0.000780221)
(-0.000299448 0.000240706 -0.00136957)
(8.03009e-08 -9.80341e-07 -0.000491783)
(3.10106e-07 -3.44076e-07 -0.000337694)
(2.51598e-07 -2.21378e-07 -0.000283594)
(3.16274e-08 -1.46007e-07 -0.000253329)
(-1.53861e-07 -1.21101e-07 -0.00023646)
(-3.03087e-07 -4.08013e-08 -0.000226973)
(4.98038e-08 -8.14012e-08 -0.000222023)
(7.12623e-07 -2.43361e-07 -0.000219177)
(2.04367e-07 -9.59294e-08 -0.00021773)
(7.82062e-08 -4.19937e-08 -0.000217194)
(5.24842e-08 -4.61372e-08 -0.000216034)
(1.53962e-07 -7.02326e-08 -0.000215112)
(-1.56025e-07 2.04768e-08 -0.000214999)
(3.13156e-08 -2.91507e-08 -0.000215329)
(-2.79853e-07 4.97346e-08 -0.000214806)
(-2.74973e-07 5.12123e-08 -0.000215344)
(-2.59148e-07 6.05699e-08 -0.000214359)
(1.12275e-07 -3.93497e-08 -0.000214144)
(-1.83029e-07 3.3587e-08 -0.000214438)
(8.17007e-08 -4.20155e-08 -0.000214536)
(4.01353e-08 -1.80007e-08 -0.000213599)
(-5.82745e-08 5.93458e-09 -0.000214142)
(-2.40433e-07 4.87629e-08 -0.00021405)
(-1.69385e-07 2.1577e-08 -0.000214095)
(-5.88464e-07 1.3493e-07 -0.000213922)
(-4.20676e-07 9.70608e-08 -0.00021452)
(-3.35803e-07 7.33129e-08 -0.000214664)
(-1.94999e-07 4.095e-08 -0.000214637)
(3.54874e-08 -2.65845e-08 -0.000214577)
(5.36591e-08 -2.94143e-08 -0.000213953)
(1.84422e-07 -6.63734e-08 -0.00021417)
(2.18887e-07 -5.92657e-08 -0.000214304)
(3.35269e-07 -1.02951e-07 -0.000214411)
(3.2183e-07 -1.13174e-07 -0.000214665)
(2.03097e-07 -7.53117e-08 -0.000214603)
(1.88441e-07 -6.06125e-08 -0.000214958)
(2.34375e-07 -7.60739e-08 -0.00021512)
(2.16715e-07 -7.18404e-08 -0.000215228)
(2.13223e-07 -7.09084e-08 -0.000214867)
(1.62274e-07 -5.04021e-08 -0.000214879)
(3.35474e-07 -9.74782e-08 -0.00021503)
(-8.37745e-08 1.01589e-08 -0.000215231)
(-1.53156e-07 2.99079e-08 -0.00021551)
(-3.35972e-07 8.32431e-08 -0.000215291)
(-2.89112e-07 5.44655e-08 -0.000214988)
(-2.27578e-07 4.06674e-08 -0.000214779)
(-1.21522e-07 2.40088e-08 -0.000215043)
(-2.69867e-09 -1.7857e-08 -0.000215113)
(9.08638e-08 -5.7226e-08 -0.000215253)
(7.67989e-08 -3.28087e-08 -0.00021529)
(3.41544e-08 -1.90284e-08 -0.000215394)
(8.67483e-08 -4.53882e-08 -0.000215132)
(1.57479e-07 -6.02864e-08 -0.000214741)
(2.48945e-07 -7.58011e-08 -0.000214605)
(2.16758e-07 -5.94694e-08 -0.00021427)
(-1.45569e-07 1.72579e-08 -0.000214628)
(-9.76228e-08 1.43381e-08 -0.000214562)
(-7.44033e-09 -8.67305e-09 -0.000214676)
(-8.07377e-08 3.51779e-09 -0.000214801)
(-5.43497e-08 -3.82906e-09 -0.000214802)
(2.20939e-07 -7.69496e-08 -0.000214893)
(1.73175e-07 -5.82784e-08 -0.000214663)