/*--------------------------------*- C++ -*----------------------------------*\
| =========                 |                                                 |
| \\      /  F ield         | OpenFOAM: The Open Source CFD Toolbox           |
|  \\    /   O peration     | Version:  2206                                  |
|   \\  /    A nd           | Website:  www.openfoam.com                      |
|    \\/     M anipulation  |                                                 |
\*---------------------------------------------------------------------------*/
FoamFile
{
    version     2.0;
    format      ascii;
    arch        "LSB;label=32;scalar=64";
    class       volScalarField;
    location    "60";
    object      omega;
}
// * * * * * * * * * * * * * * * * * * * * * * * * * * * * * * * * * * * * * //

dimensions      [0 0 -1 0 0 0 0];

internalField   nonuniform List<scalar> 
67442
(
17.6738
21.8635
21.9406
24.1746
24.4591
22.0278
21.5883
24.1801
22.3074
22.2171
21.923
24.276
21.6176
291.333
106.18
412.537
293.636
112.119
17.6322
17.6117
17.6452
97.1573
19.5073
41.186
413.573
19.3867
95.8552
39.3661
168.713
167.266
412.001
413.884
170.688
172.81
288.643
99.3502
98.5001
19.415
39.9194
93.1689
19.3951
38.9618
167.2
163.891
414.17
101.324
19.6752
42.4788
293.639
111.833
19.6463
100.82
42.2572
289.32
107.507
19.5406
95.9804
41.1834
291.485
108.171
172.926
166.235
412.357
19.3789
91.457
38.35
286.641
99.8168
289.146
103.551
414.124
412.296
428.825
289.008
180.134
172.423
429.284
327.721
99.1106
303.147
123.77
301.538
121.112
327.102
411.943
332.424
111.718
128.742
307.293
431.605
291.162
184.514
181.023
431.925
432.083
290.396
179.533
331.637
110.515
129.015
307.546
127.625
306.698
331.689
413.187
413.232
120.348
60.7913
171.165
301.822
59.4222
301.188
112.172
119.073
58.9582
165.684
299.486
63.0355
303.466
116.653
225.818
417.438
417.4
416.989
416.802
223.949
411.565
413.189
413.906
121.301
63.5257
168.032
303.233
301.256
62.0204
119.194
121.688
64.5254
165.287
304.508
299.994
62.9392
119.645
228.161
415.96
416.997
415.82
416.815
226.621
430.134
290.209
173.855
181.082
430.777
326.999
106.237
301.497
120.673
300.926
119.162
326.249
118.271
61.3459
165.42
301.869
303.091
60.5137
115.589
120.115
62.0288
171.353
301.8
63.2603
303.199
117.953
225.873
417.533
417.4
416.088
417.025
223.937
413.803
332.385
111.467
307.269
128.477
431.439
291.949
183.853
178.826
431.925
431.551
292.507
178.325
331.611
110.426
307.502
128.653
306.806
127.304
331.631
432.443
293.897
176.266
183.638
433.222
330.568
106.589
124.479
305.71
123.35
304.966
329.803
432.212
290.247
180.038
182.653
432.586
330.808
106.768
305.569
124.094
306.866
126.851
329.922
121.814
64.0214
171.454
304.602
303.502
62.7731
114.859
120.643
63.1539
168.814
300.079
61.6908
301.759
118.463
227.966
416.809
416.223
416.755
416.238
226.395
412.187
430.043
291.167
176.844
179.619
430.309
327.258
106.85
115.937
301.778
124.16
303.11
326.303
429.686
288.21
177.255
176.038
430.156
327.121
102.415
120.179
299.966
119.079
303.642
326.377
413.796
412.371
16.7157
16.7712
16.2133
55.2999
33.6315
33.3813
24.2443
33.349
33.1325
54.5417
56.2328
34.2785
34.7187
23.8931
32.8256
34.1881
55.3817
55.5777
33.6557
33.4913
24.2584
33.004
33.9783
54.6484
56.0685
34.1477
34.0585
24.0212
33.5674
32.5863
54.258
16.7797
16.7755
16.2418
16.6698
16.6312
16.1367
16.8298
16.6799
16.346
30.9924
40.1088
99.3645
62.0422
42.4353
61.5912
30.6102
26.7812
40.9092
44.3503
25.1697
47.2516
25.0921
26.4938
30.6251
41.3589
94.4215
60.0649
39.2437
59.4325
30.618
26.2398
40.0159
24.3831
44.693
24.1622
44.3665
26.0574
30.2808
41.3825
96.6286
61.2025
59.953
39.3534
30.0136
26.2957
37.8194
45.2146
24.6223
44.4865
24.076
26.2454
29.9289
38.7833
90.7991
56.7988
60.799
40.8944
29.5484
26.1017
39.6555
42.9277
24.4593
45.4633
24.5978
25.8824
31.5162
42.3467
99.0595
63.9322
59.7834
40.9697
30.6349
27.1997
40.278
47.7987
25.52
46.1336
25.3015
26.4998
31.089
42.0711
98.5718
62.9346
58.7948
41.4423
30.0823
27.1174
40.9886
25.4424
47.3832
25.0749
45.7857
26.4292
31.3021
39.8489
93.7727
61.9414
42.1261
61.3301
31.0595
26.9302
41.8661
25.233
45.7287
25.4264
45.0027
26.7145
30.275
38.8673
98.2237
57.1201
41.167
61.2952
29.1453
26.0968
40.2611
24.3999
44.452
24.3762
44.0636
25.8889
752.111
1619.07
4422.75
16478
116782
734.859
1600.5
4390.89
16427.4
116912
751.964
1619.01
4422.88
16479.8
116802
732.648
1599.67
4390.36
16425.1
116892
733.541
1599.68
4390.25
16423.5
116862
733.381
1599.77
4390.68
16427.4
116912
753.624
1619.69
4423
16479.9
116803
734.687
1600.33
4390.2
16423.7
116872
751.801
1619.04
4422.85
16479.9
116814
753.297
1619.55
4422.48
16477.1
116781
753.017
1619.52
4422.57
16476.7
116772
734.725
1600.35
4390.33
16424.5
116881
753.431
1619.58
4422.78
16478.8
116795
753.406
1619.58
4422.77
16478.7
116802
734.518
1600.37
4390.46
16425.1
116892
734.743
1600.4
4390.76
16427
116912
730.002
1598.62
4388.87
16419.1
116835
752.365
1618.76
4422.32
16477.6
116782
734.22
1599.65
4390.47
16427.1
116912
740.313
1609.53
4407.07
16447.3
116752
739.562
1604.33
4396.37
16425.5
116727
729.433
1598.58
4388.97
16419.8
116840
751.398
1618.59
4422.47
16479.5
116802
751.652
1618.94
4422.83
16479.8
116802
733.117
1599.5
4390.08
16424.9
116892
733.146
1599.65
4390.3
16425.1
116892
752.131
1618.63
4420.88
16475.5
116795
751.227
1617.83
4420.45
16475.2
116795
752.284
1618.67
4420.96
16475.4
116795
751.451
1617.83
4420.45
16475.1
116795
733.945
1604.2
4398.34
16441.7
116918
734.089
1604.2
4398.26
16442
116921
733.107
1603.28
4397.91
16441.5
116918
733.362
1603.32
4397.88
16441.8
116921
733.368
1599.38
4389.92
16423.3
116862
733.172
1599.48
4390.4
16427.2
116912
732.764
1599.65
4390.61
16427.4
116912
752.639
1618.84
4422.49
16479.6
116803
752.308
1618.69
4420.82
16474.4
116789
751.329
1617.83
4420.33
16474.1
116789
733.83
1604.21
4398.25
16441.9
116919
732.722
1603.28
4397.83
16441.7
116919
733.572
1599.53
4389.83
16423.5
116872
740.315
1609.51
4407.04
16446.7
116747
739.053
1604.28
4396.31
16425.3
116725
729.319
1598.56
4389.01
16420
116852
751.904
1618.7
4422.46
16479.5
116814
752.09
1618.96
4422.8
16479.8
116814
752.285
1618.69
4422
16476.8
116781
730.435
1598.81
4388.88
16418.8
116831
752.125
1618.7
4422.1
16476.4
116772
752.217
1618.63
4420.63
16472.8
116759
751.415
1617.82
4420.16
16472.4
116759
733.736
1604.24
4398.43
16441.6
116904
733.774
1599.56
4389.92
16424.3
116881
730.805
1598.84
4388.91
16419
116836
752.644
1618.75
4422.27
16478.4
116795
730.659
1598.78
4388.77
16419
116840
752.513
1618.73
4422.23
16478.4
116802
733.537
1599.58
4390.07
16424.9
116892
734.237
1599.61
4390.38
16426.7
116912
730.733
1598.77
4388.78
16419.6
116838
730.329
1598.78
4388.83
16419.1
116840
739.903
1609.35
4407.03
16447.6
116768
739.813
1604.56
4396.66
16426.6
116747
740.577
1604.27
4396.3
16426.3
116747
740.72
1609.74
4407.34
16447.8
116768
730.212
1598.91
4389.23
16419.4
116835
752.476
1618.64
4420.68
16473.6
116776
751.523
1617.83
4420.24
16473.3
116776
734.011
1604.16
4397.93
16439.4
116887
733.239
1603.25
4397.5
16439.2
116887
730.326
1598.99
4389.28
16420.1
116840
739.507
1609.25
4406.82
16447.1
116752
739.294
1604.42
4396.42
16425.6
116727
739.654
1604.2
4396.12
16425.3
116727
740.508
1609.66
4407.09
16447.3
116752
730.572
1598.98
4389.22
16420.1
116840
750.835
1618.09
4420.65
16473.8
116778
751.091
1617.79
4420.28
16473.5
116778
732.028
1603.54
4398.41
16442.4
116918
732.457
1603.23
4398.07
16442.2
116918
750.903
1618.05
4420.65
16473.8
116776
751.193
1617.75
4420.26
16473.5
116776
731.764
1603.47
4398.35
16442.6
116933
732.337
1603.27
4398.01
16442.4
116933
750.93
1618.04
4420.79
16474.9
116795
750.611
1617.68
4420.4
16474.7
116795
731.814
1603.46
4398.14
16441.5
116921
732.331
1603.26
4397.83
16441.2
116921
740.855
1609.54
4406.79
16447
116751
741.454
1605.19
4396.52
16425.6
116727
740.366
1604.34
4396.09
16425.3
116727
742.375
1610.36
4407.18
16447.3
116751
732.218
1599.62
4389.2
16419.9
116838
739.494
1609.24
4406.8
16446.4
116747
739.363
1604.42
4396.35
16425.3
116725
739.678
1604.17
4396.04
16425.1
116725
740.459
1609.64
4407.05
16446.7
116747
730.283
1599
4389.33
16420.2
116852
730.41
1598.97
4389.27
16420.2
116852
731.912
1599.62
4389.19
16419.3
116840
740.429
1609.6
4407.16
16448.4
116774
740.903
1605.13
4396.72
16425.9
116749
739.818
1604.31
4396.35
16425.7
116749
742.077
1610.37
4407.45
16448.6
116774
740.478
1609.58
4407.18
16448.5
116769
740.953
1605.11
4396.74
16426.6
116747
740.351
1604.26
4396.37
16426.4
116747
742.116
1610.36
4407.47
16448.7
116769
731.936
1599.62
4389.23
16419
116831
732.593
1603.28
4397.97
16441.4
116904
732.12
1599.66
4389.34
16419.4
116836
741.001
1609.62
4407.02
16447.1
116758
741.51
1605.2
4396.63
16425.3
116725
740.965
1604.33
4396.23
16425.7
116736
742.607
1610.39
4407.31
16446.7
116747
731.861
1599.58
4389.16
16419.3
116840
740.879
1609.54
4406.81
16447.1
116752
741.51
1605.18
4396.52
16425.6
116727
740.99
1604.32
4396.09
16425.3
116727
742.415
1610.38
4407.24
16447.4
116752
22.0884
23.8386
21.8043
17.62
105.634
19.6324
40.616
289.14
105.398
19.6031
94.7905
41.7191
412.676
166.255
330.664
106.639
121.86
303.929
122.786
304.693
329.321
432.675
289.571
181.656
175.56
431.607
330.32
106.541
303.897
121.415
304.582
122.315
329.192
413.613
117.461
60.3683
167.279
300.394
60.8841
301.046
115.955
113.091
59.4846
60.006
112.322
224.19
416.296
417.427
225.997
54.372
23.9017
33.8319
32.8458
32.6934
33.1098
55.1168
16.7987
16.4039
16.6896
16.6544
16.1765
26.9146
41.068
47.2439
25.07
45.2998
25.2212
26.7286
30.5315
40.2034
95.9294
61.9949
58.7566
40.7601
30.2889
26.7293
40.0976
25.352
46.7973
24.8569
44.7609
26.6239
29.4235
40.8426
39.2575
30.4248
24.0028
21.9045
22.1835
17.6663
411.251
413.449
163.937
170.7
286.867
104.198
92.5543
19.3751
39.4669
292.09
95.7891
411.921
414.205
114.158
59.8297
164.837
298.999
299.947
60.5232
113.106
115.033
60.9723
164.71
303.156
299.832
61.6137
113.841
224.2
415.623
416.854
417.127
418.047
226.082
430.248
287.727
178.03
172.475
429.187
325.686
98.5874
299.605
116.825
300.12
118.337
324.335
433.033
288.445
182.436
176.673
431.762
54.0911
24.0678
33.0584
33.504
33.3181
33.6765
55.0353
16.7461
29.4176
39.5193
93.5198
57.7899
40.0254
58.6801
29.134
25.8677
37.9423
42.9238
24.5098
43.6382
24.1136
25.6621
30.9811
41.8631
97.0502
63.074
40.3327
59.9795
31.1725
751.496
1618.74
4422.5
16479.5
116814
733.363
1599.66
4390.13
16424.9
116892
731.776
1599.64
4389.42
16420.2
116852
753.238
1619.58
4422.89
16479.8
116814
734.687
1600.37
4390.42
16425.1
116892
741.88
1610.27
4407.17
16447.3
116752
739.133
1604.24
4396.18
16425.3
116727
741.005
1605.03
4396.42
16425.5
116727
740.911
1609.46
4406.77
16447.1
116752
741.832
1610.24
4407.13
16446.7
116747
739.196
1604.24
4396.11
16425.1
116725
741.03
1605.05
4396.42
16425.3
116725
740.875
1609.47
4406.79
16446.5
116747
730.831
1598.78
4388.96
16419.9
116852
750.585
1617.82
4420.32
16473.5
116778
752.294
1618.63
4420.7
16473.7
116778
732.353
1603.49
4398.18
16442.2
116918
733.981
1604.28
4398.49
16442.4
116918
733.363
1599.56
4389.98
16423.3
116862
733.171
1599.67
4390.47
16427.2
116912
751.905
1618.77
4422.34
16477.6
116782
751.789
1618.79
4422.51
16479.5
116802
734.842
1600.34
4390.33
16423.5
116862
734.779
1600.43
4390.73
16427.4
116912
732.09
1599.64
4389.33
16419.4
116835
753.648
1619.6
4422.75
16477.9
116782
753.271
1619.63
4422.97
16479.8
116802
732.519
1603.45
4398.09
16442.4
116933
732.713
1603.5
4397.93
16441.2
116921
731.857
1599.62
4389.33
16420.1
116840
730.878
1598.8
4388.95
16419.8
116840
750.432
1617.73
4420.29
16473.5
116776
751.528
1618.49
4420.66
16473.8
116776
750.772
1617.85
4420.43
16474.6
116795
752.211
1618.69
4420.89
16475
116795
734.115
1604.23
4398.21
16441.4
116921
733.854
1604.25
4398.47
16442.6
116933
742.291
1610.38
4407.43
16447.9
116768
739.793
1604.4
4396.35
16426.3
116747
741.568
1605.25
4396.78
16426.6
116747
741.305
1609.57
4407.01
16447.6
116768
731.068
1598.73
4388.79
16419
116835
24.6986
17.6679
22.5489
22.2672
24.6982
24.2497
24.9378
22.3343
22.2938
24.6799
22.6729
22.5674
22.6944
24.7748
22.2116
177.498
174.775
24.6449
176.712
174.602
114.003
293.588
111.885
413.405
413.916
296.991
116.216
17.5876
17.6272
17.5799
104.784
19.7463
22.1523
43.9996
414.822
19.5197
102.941
41.8631
178.142
175.126
414.421
414.335
412.778
412.733
24.3931
173.368
173.801
173.729
169.911
414.149
414.332
412.513
412.811
413.121
415.122
174.931
178.021
113.046
293.827
295.024
110.655
43.2642
101.954
19.4025
19.4768
41.9484
43.1577
100.967
19.4134
22.2266
102.346
19.4885
41.6171
175.778
176.401
24.6297
175.489
414.411
105.723
19.8121
43.6657
295.605
115.846
19.7662
105.081
43.8856
296.243
114.808
19.7859
105.823
44.2407
296.36
116.06
177.781
175.386
413.132
19.5357
101.374
41.6423
294.071
110.44
293.346
111.25
414.54
412.766
230.285
416.789
416.834
417.328
417.105
223.067
124.171
66.7036
306.001
172.321
303.276
117.848
61.966
123.252
65.944
306.668
166.697
302.216
121.969
61.3731
226.1
417.241
417.319
417.046
417.276
228.205
121.864
306.116
171.019
66.6624
303.321
118.793
65.8373
118.558
305.949
173.363
65.712
305.715
120.536
65.0814
330.952
307.888
131.023
107.545
304.775
124.506
330.863
430.518
292.087
184.313
180.609
429.964
431.759
293.385
183.108
328.622
109.448
306.535
128.827
305.074
126.34
328.837
412.852
412.866
432.308
295.107
188.629
183.563
432.627
332.495
112.034
132.886
309.581
127.848
307.909
330.957
414.735
123.28
67.0189
306.91
174.474
121.541
63.4986
305.433
122.894
65.5202
306.098
169.827
116.823
62.2243
303.611
228.984
417.425
417.326
227.643
417.739
417.553
414.338
414.327
412.605
413.263
230.52
417.257
417.468
229.519
417.219
416.573
124.7
63.8105
304.147
175.036
115.93
304.934
64.8675
123.433
64.8326
305.23
173.76
118.034
305.324
64.7568
224.927
417.016
416.997
227.233
417.041
417.02
123.903
304.83
62.3439
174.802
118.103
302.395
62.0245
122.043
301.926
60.9228
168.462
121.737
304.608
64.3268
414.263
414.472
412.844
412.487
413.174
413.703
415.069
123.956
65.7073
172.738
305.92
303.967
63.4879
118.291
124.192
67.314
174.264
307.665
306.023
64.0238
118.127
173.226
64.0853
229.101
416.855
417.936
417.022
418.054
227.915
331.112
307.713
130.981
107.654
304.657
123.57
330.593
430.641
288.145
184.86
181.507
430.318
431.602
185.994
293.935
180.989
432.063
329.858
109.818
306.425
128.969
305.246
124.564
329.36
230.868
415.881
416.463
417.767
123.45
65.8781
172.119
306.489
301.68
62.6467
122.079
124.858
66.7499
172.993
306.419
65.6974
304.749
118.762
118.768
305.549
169.759
66.2413
304.901
62.1308
120.633
119.179
174.581
65.9302
305.587
230.435
417.508
417.591
417.128
417.838
230.022
414.647
414.932
432.348
294.078
188.508
183.989
432.733
332.277
111.816
309.389
133.183
306.534
129.027
331.858
332.825
113.315
130.3
308.081
432.523
294.183
188.675
184.96
432.867
432.964
294.796
186.371
332.292
112.336
133.357
309.22
128.996
307.58
332.34
333.038
113.367
308.307
131.698
432.574
292.605
188.306
184.716
432.594
433.273
295.702
186.218
332.093
112.223
309.557
133.207
308.015
131.211
332.183
123.891
66.7618
174.35
307.097
305.84
62.4657
118.273
123.171
65.9366
170.792
305.238
64.1012
302.255
121.874
228.952
417.446
416.564
417.765
416.624
227.874
413.151
430.04
291.361
184.69
180.666
430.296
329.104
104.979
128.58
305.926
125.601
303.902
327.562
430.005
291.583
184.378
179.269
430.54
328.683
107.304
128.644
305.862
122.865
303.121
328.233
414.425
414.036
412.981
56.5771
35.1775
34.8878
24.2394
55.7683
34.0369
33.2154
16.6441
16.6756
16.1045
56.6408
35.1647
34.7687
24.1833
53.8347
33.7388
33.6533
57.2512
24.3993
34.9754
34.5255
54.6804
33.8037
34.498
57.5448
35.1825
35.7428
24.4068
33.7557
34.4773
57.0175
57.5404
34.9955
35.2587
24.3948
34.6794
33.4182
54.6914
56.9801
35.2503
35.0206
24.1748
33.7272
33.8863
54.262
52.4389
24.1565
35.1799
34.8695
56.0817
33.8496
34.5964
16.5922
16.6031
16.0053
16.6293
16.6291
16.0084
16.5817
16.5725
15.9794
31.6655
43.7408
101.173
65.4087
43.1923
63.3968
31.312
30.4473
102.651
43.3399
64.4209
27.2897
41.4513
49.2769
25.8282
46.6178
25.3598
27.1333
31.0087
42.9054
100.356
64.4307
41.7406
61.7206
30.8005
26.6824
40.0003
25.0581
47.5435
24.648
45.9639
26.12
56.7882
24.4025
34.7182
33.3238
56.7152
34.1685
34.411
27.0457
48.6535
25.6161
42.3474
47.841
24.8752
26.7861
30.0072
42.4897
98.623
64.0607
63.2996
41.4898
30.4445
31.1256
101.067
64.5037
42.4449
25.8079
40.4137
47.3461
25.1889
45.0871
24.9479
25.9564
27.083
48.2694
25.6094
40.649
45.5645
25.3098
26.7028
30.7686
42.5204
98.0882
63.3561
61.033
41.1726
29.8326
30.5636
65.3218
99.342
43.4539
61.1288
31.1299
41.088
26.0478
40.9393
46.7616
25.2071
45.0364
24.6862
26.3776
56.6496
24.1866
35.1834
34.9912
33.956
34.8158
56.9229
31.9979
44.304
98.8595
66.5515
63.3773
41.9067
31.8129
27.4946
41.2749
49.6811
25.8183
46.971
25.2701
26.8911
31.6145
43.7702
101.594
66.4598
63.7154
41.7732
31.3254
27.4489
42.0499
25.8873
49.5497
25.3116
47.55
26.7828
31.7728
43.8367
100.712
65.356
42.1349
62.7516
31.4933
27.448
41.9808
25.9785
49.8076
25.3552
47.3521
27.2266
30.8501
42.5492
96.5091
64.0288
40.7956
61.8317
29.9612
26.538
40.3262
25.1398
47.2068
24.5687
45.2692
26.3627
17.7024
22.3682
22.0632
24.5549
17.7207
22.404
22.1364
24.6631
17.7422
22.4285
22.2381
24.8417
17.7309
22.4573
22.4045
24.8162
17.7131
22.4925
22.3156
24.6783
17.6998
22.5312
22.2969
24.7191
17.672
22.518
22.3583
24.7127
17.658
22.5305
22.2453
24.7047
17.6569
22.5204
22.2388
24.6539
17.6421
22.5648
22.2379
24.8006
17.6451
22.5004
22.2301
24.6964
17.6429
22.4679
22.2581
24.7676
17.6664
22.5124
22.256
24.755
17.6539
22.5198
22.3225
24.6768
17.6429
22.464
22.2847
24.6888
17.6324
22.538
22.2807
24.5656
22.1561
22.1717
24.4196
22.407
22.335
22.0867
22.598
24.2839
21.9483
22.2075
24.4314
23.8689
24.5501
22.0149
21.9604
22.1973
22.211
24.0113
24.4314
21.8604
22.1639
22.3835
22.3666
22.4161
22.2905
22.5435
23.7023
24.4468
21.9818
22.0312
22.158
24.2249
24.2099
24.6671
21.705
21.909
22.2994
22.2325
23.9887
24.4987
22.1322
21.9459
22.4894
22.475
22.4031
22.2914
22.574
24.1912
24.5287
21.6704
21.8306
22.289
24.7866
24.3945
24.6858
21.9464
21.9509
22.3174
22.2507
23.9567
24.5136
22.361
22.1197
22.5195
22.5235
22.018
22.347
22.6651
24.17
24.62
22.0625
22.0544
22.2749
24.7484
24.3491
24.7015
22.0209
21.7855
22.3312
22.3404
23.8277
24.6625
22.2603
22.2785
22.556
22.4976
22.4836
22.1988
22.6631
24.3615
24.5947
22.0131
22.2196
22.2681
24.5394
24.3295
24.6455
22.0755
21.7737
22.3258
22.3403
24.3804
24.6702
22.0671
22.1576
22.6026
22.5166
22.32
22.1112
22.5752
23.9668
24.5032
21.977
22.1343
22.2276
24.6046
24.2425
24.6617
21.7934
22.1599
22.2882
22.3243
24.4223
24.5753
22.3513
22.1181
22.5987
22.476
22.3666
22.1146
22.5675
24.1232
24.6345
21.9618
22.0213
22.2092
24.6323
24.2126
24.643
21.753
22.0347
22.3555
22.2545
24.079
24.5499
22.3393
21.9828
22.5826
22.5581
22.2896
22.1099
22.536
24.3227
24.589
21.7727
22.1513
22.2663
24.6259
24.3878
24.6608
22.1715
21.7391
22.2668
22.3423
23.956
24.5804
22.3025
22.1562
22.5386
22.5125
22.2511
22.1189
22.5846
23.9554
24.6157
22.0296
22.1182
22.2349
24.5088
24.3409
24.6236
21.8102
22.119
22.3544
22.2941
24.077
24.521
22.3482
21.871
22.5377
22.5779
22.0113
22.1999
22.6492
24.3734
24.6968
21.9803
22.1202
22.265
24.4063
24.0893
24.6286
21.9656
21.9613
22.2897
22.288
24.17
24.6781
22.009
22.384
22.6
22.5165
22.47
22.3982
22.5956
23.9692
24.5441
22.1115
22.1268
22.1975
24.5764
24.1721
24.6608
21.9238
21.9518
22.2295
22.2859
24.3507
24.5578
22.3954
22.0893
22.5425
22.5402
22.0871
22.3497
22.6133
24.2553
24.6631
21.9493
22.1376
22.1907
24.3623
24.0881
24.7542
21.7014
21.9286
22.3584
22.2221
24.2842
24.4836
22.2844
22.1828
22.5916
22.5181
22.352
22.1352
22.5529
24.4059
24.5361
21.7328
22.0168
22.2022
24.6875
24.4931
24.7785
22.1919
21.8711
22.31
22.2746
24.1672
24.6094
22.4174
22.1467
22.6296
22.5448
22.2538
22.1443
22.5565
23.9874
24.621
21.8649
21.962
22.151
24.5441
24.4515
24.6851
21.8484
21.9137
22.3085
22.223
24.3291
24.4904
22.2371
22.1402
22.6272
22.4921
22.2729
22.031
22.5606
24.4122
24.5156
21.6142
22.2004
22.237
24.2576
23.9761
24.6831
22.1085
21.6828
22.2622
22.3057
23.9463
24.5599
21.9744
22.0089
22.6215
22.5442
22.2408
22.1629
22.5355
24.1443
24.5491
21.7588
22.17
22.2731
24.5846
24.0039
24.503
21.9642
21.7662
22.251
22.3155
24.3585
24.2221
22.0942
22.2889
22.596
22.3656
22.0297
22.1464
22.6239
23.9908
24.7061
22.0843
22.1677
21.9645
107.847
292.263
412.397
106.979
294.92
17.7158
17.63
17.6367
17.6466
42.9585
22.3584
102.191
19.682
413.428
40.7365
21.6577
19.4325
99.9211
24.4257
173.947
171.92
109.116
293.442
110.446
293.189
412.711
412.945
113.486
297.023
114.925
296.109
17.6591
17.6551
17.677
17.745
17.6458
17.6543
17.6628
43.1899
103.429
19.7461
22.0463
43.2747
103.731
19.6255
414.184
414.412
41.1297
19.5135
102.306
21.7811
41.0442
19.4002
101.648
176.972
174.721
24.5536
176.516
174.145
110.048
293.844
110.352
293.186
412.72
412.96
114.608
296.591
114.396
295.995
17.6727
17.6845
17.677
17.7559
17.6685
17.6812
17.6534
43.3253
103.933
19.7184
22.0609
43.3315
104.095
19.6833
414.053
414.302
41.1813
19.4479
102.863
21.9183
41.4773
19.3671
102.313
176.673
174.878
24.648
176.527
174.068
109.444
293.764
110.469
293.59
412.985
413.125
114.08
296.103
115.004
295.71
17.6874
17.7078
17.6664
17.7469
17.6639
17.7021
17.6662
43.1473
104.494
19.75
22.0545
43.194
104.421
19.7047
414.284
414.436
41.4619
19.5645
102.703
21.8087
41.5763
19.4699
102.415
176.948
174.792
24.6904
176.724
174.492
110.336
293.794
111.361
293.424
412.776
412.824
115.25
296.63
115.095
296.058
17.6784
17.7275
17.6895
17.7239
17.6578
17.6933
17.6503
43.2856
104.511
19.8063
22.1842
43.7943
104.442
19.7567
414.262
414.401
41.5724
19.5706
102.808
21.9962
42.0178
19.5317
102.447
177.016
175.557
24.6958
176.852
174.636
109.873
294.293
110.834
293.472
412.855
412.807
114.316
296.061
114.74
295.984
17.6711
17.6933
17.6565
17.7278
17.6479
17.6591
17.644
43.3613
104.822
19.7924
22.3264
43.8069
104.73
19.6764
414.438
414.394
41.4312
19.5749
102.39
22.0517
41.7988
19.5307
102.214
177.829
174.92
24.6756
176.922
174.647
110.586
293.481
111.584
293.045
412.688
412.948
114.185
295.889
116.135
295.95
17.6674
17.6606
17.6421
17.6988
17.6302
17.6324
17.606
43.5194
104.927
19.7761
22.3805
43.1969
104.712
19.6115
414.208
414.408
41.1168
19.5516
102.635
21.7989
41.462
19.5017
102.237
176.991
175.74
24.6585
176.478
174.861
109.998
293.673
111.089
292.562
412.89
412.845
114.827
296.206
114.904
295.906
17.6369
17.6377
17.6022
17.6742
17.6238
17.6259
17.5923
43.6985
105.538
19.7863
22.3702
43.8112
104.48
19.7172
414.151
414.309
41.1815
19.5454
103.004
21.9479
41.3693
19.4109
102.255
177.582
174.912
24.6492
176.21
174.195
109.967
293.593
110.267
293.02
412.732
412.887
114.232
296.345
114.526
296.042
17.6434
17.6377
17.6164
17.6714
17.6317
17.6183
17.6066
43.4353
104.881
19.7613
22.3857
43.6321
104.775
19.5662
414.51
414.422
41.2914
19.5307
102.06
21.9114
41.2257
19.4099
102.109
176.495
175.023
24.6439
176.509
174.576
109.258
293.24
109.7
293.382
412.809
412.834
114.94
296.415
116.084
296.048
17.6586
17.6263
17.6057
17.6643
17.6454
17.6157
17.6032
43.5292
104.97
19.7716
21.9931
43.7813
104.761
19.6896
414.401
414.448
41.4181
19.5322
102.357
21.9353
41.5856
19.4088
102.009
178.001
175.013
24.6782
176.394
174.582
110.5
293.938
111.087
293.502
412.77
412.932
114.984
296.466
114.798
295.823
17.6576
17.63
17.6218
17.6583
17.647
17.6186
17.6032
42.9361
104.378
19.7561
22.3027
43.7508
104.27
19.6264
414.209
414.465
41.1681
19.5291
101.957
21.8749
41.5223
19.4463
101.924
177.487
175.255
24.683
176.214
174.285
109.743
293.956
111.07
293.585
412.974
412.953
115.038
295.869
115.047
295.822
17.6566
17.6326
17.6229
17.6516
17.6303
17.6276
17.61
43.0778
104.504
19.735
22.1433
43.2948
104.115
19.5836
414.194
414.323
41.0243
19.5221
101.867
21.9154
41.5901
19.4297
101.958
176.722
173.782
24.6225
176.462
174.075
109.671
294.532
110.356
293.472
412.792
412.927
114.889
296.562
115.314
295.85
17.6363
17.6423
17.6266
17.6807
17.6061
17.6308
17.6133
43.0825
104.576
19.7442
21.8727
43.0487
104.472
19.6298
414.399
414.373
41.413
19.5057
102.186
22.0259
41.2601
19.3846
102.03
177.107
175.556
24.7105
176.877
174.871
109.309
294.179
110.543
293.377
412.929
412.81
114.737
296.133
115.011
296.057
17.622
17.6444
17.6212
17.6674
17.6058
17.6299
17.5815
43.4924
104.557
19.7533
21.9138
43.1722
104.242
19.6686
414.348
414.368
41.3182
19.5074
102.955
21.8078
41.2676
19.3722
101.886
177.426
175.153
24.6676
176.503
174.527
109.189
293.925
109.61
293.211
412.833
412.825
115.13
296.112
115.056
295.734
17.6198
17.6442
17.578
17.6547
17.6116
17.6285
17.5627
43.6812
104.573
19.7554
22.2995
44.1041
104.467
19.699
414.204
414.428
41.157
19.4978
102.23
22.0943
41.5876
19.4177
101.742
176.575
175.087
24.6374
176.488
174.773
109.654
294.04
110.13
293.018
412.835
412.817
114.907
296.842
115.841
295.828
17.6433
17.6334
17.5809
17.649
17.6285
17.6196
17.5736
43.5977
104.938
19.7521
21.9486
43.3721
104.315
19.6757
414.345
414.454
41.5981
19.5052
102.292
21.7575
41.5466
19.41
101.687
176.711
175.287
24.6599
176.331
174.012
109.736
293.372
109.884
292.978
412.737
412.838
114.84
296.73
115.157
295.835
17.6331
17.634
17.5922
17.6707
17.5991
17.6409
17.5959
43.612
104.258
19.7727
21.9273
43.7049
104.14
19.6694
414.365
414.443
41.498
19.5028
103.03
21.9482
41.3771
19.3883
102.324
412.163
414.023
24.4547
172.422
174.486
412.434
412.178
414.473
414.267
23.8656
172.368
174.486
169.983
168.227
108.163
291.895
40.4019
21.8312
100.357
19.3778
40.4227
22.0441
99.5905
19.4259
100.477
290.351
290.238
109.772
103.307
292.864
285.811
108.936
38.8382
21.7558
99.1773
19.3439
95.1284
19.3448
40.6029
39.0971
21.7773
99.4602
19.4644
94.4548
19.4345
40.5548
24.4368
172.075
174.87
413.896
412.923
412.036
23.9372
172.935
174.362
164.524
168.683
413.629
414.047
42.5615
21.8373
102.737
19.5974
103.551
292.561
42.5876
21.9896
19.499
102.382
105.499
294.711
292.631
110.114
40.6575
22.3128
102.347
19.7189
97.446
19.5757
42.5246
110.713
296.282
292.056
113.417
41.9665
21.9011
19.6953
103.165
19.6679
94.6624
42.6614
112.721
294.569
42.9103
22.3971
19.7205
102.623
112.607
294.575
42.0752
22.1096
102.142
19.7219
99.0349
19.6994
43.0273
110.538
295.174
292.488
112.748
41.6852
22.2132
19.7287
102.508
19.747
96.6768
43.0719
109.058
294.893
292.414
113.063
24.3113
173.259
171.238
412.046
414.516
413.785
24.0509
174.116
173.046
167.827
162.549
412.352
412.194
40.8737
22.0555
19.4267
99.562
108.613
292.027
108.106
292.156
39.2877
21.5822
19.4037
101.733
19.449
94.0198
40.6765
38.617
21.8471
19.4771
100.463
19.446
91.4892
40.8597
103.901
292.74
289.338
109.45
105.064
292.802
286.762
108.644
413.748
412.236
23.8022
171.966
169.669
169.501
169.042
413.711
414.461
411.956
412.208
412.47
412.714
414.385
414.41
169.456
170.206
24.5277
172.707
175.373
412.693
412.617
414.301
414.308
23.856
172.487
175.311
168.459
172.128
108.37
290.58
103.154
293.1
40.8386
94.1483
19.3616
22.0975
39.4108
100.306
19.3325
40.6023
95.1854
19.3196
22.0683
39.1773
100.014
19.468
103.802
292.224
291.076
108.837
103.965
292.969
288.009
109.241
39.1668
22.0924
100.078
19.5359
95.0767
19.5096
41.1261
39.2085
22.0914
99.8854
19.5225
94.8594
19.4145
41.0228
167.124
168.877
24.3897
173.312
175.448
414.124
413.893
412.375
412.297
23.936
173.333
174.538
163.855
168.417
413.797
414.143
42.629
97.3597
19.6612
22.3402
41.4408
103.118
19.6971
113.032
294.092
108.124
295.522
42.8624
19.5777
99.5837
22.2564
42.0423
19.6426
102.934
105.078
293.894
291.438
112.027
41.7265
22.2343
102.555
19.7365
97.6215
19.7124
42.8581
107.857
295.087
292.008
113.231
41.5064
22.2592
19.7052
103.045
19.6667
99.1551
42.6643
113.39
293.011
108.929
294.982
43.1487
19.7017
99.1744
22.2047
39.912
19.7275
103.481
113.023
293.588
107.928
295.671
42.0676
21.9193
102.514
19.5871
101.666
19.6097
43.0825
107.357
295.189
292.647
113.71
41.0011
22.1295
19.7588
103.653
19.7305
96.4279
43.0046
107.34
295.424
292.571
113.663
166.87
170.494
24.352
175.275
173.214
412.563
412.742
413.972
414.249
24.1672
174.793
173.571
172.005
164.942
412.515
412.899
40.7394
19.4123
97.9293
22.0629
39.1504
19.3957
100.26
108.744
290.525
102.993
292.935
108.787
291.034
104.008
292.784
40.2679
21.935
19.4801
98.3642
19.3693
99.0075
41.2023
39.0451
22.0573
19.51
101.347
19.3938
93.4078
41.044
103.769
293.153
291.571
109.154
105.034
292.93
291.282
109.391
414.332
414.217
412.487
412.684
24.3095
175.488
174.114
168.144
170.828
413.984
415.078
412.919
413.486
412.377
412.77
414.088
414.378
165.449
167.332
24.4869
173.347
176.299
412.834
412.66
414.336
414.571
24.2168
172.524
175.678
167.823
173.342
109.907
287.896
101.677
294.169
41.084
97.196
19.453
22.1717
38.8128
100.903
19.4496
41.4335
94.842
19.4795
22.0645
40.1054
100.938
19.456
106.85
292.929
290.345
109.009
107.452
293.873
289.966
109.938
39.3347
21.9201
101.032
19.5783
93.534
19.4513
41.1948
40.029
22.1259
101.641
19.5607
93.9884
19.4571
41.2183
170.903
168.837
24.4437
173.627
175.417
414.2
413.96
412.825
412.742
24.1004
173.388
174.864
170.445
170.609
413.944
414.193
43.2544
99.0945
19.6244
22.0572
42.2647
103.336
19.6804
113.724
291.957
109.597
295.16
43.3351
19.6058
100.096
21.7899
41.8025
19.6719
103.287
112.196
295.723
294.455
113.826
42.0235
22.0549
99.8353
19.7553
100.915
19.7051
43.3525
105.87
295.43
293.084
114.959
42.518
22.3604
19.7417
103.367
19.7001
101.3
43.4165
113.217
293.655
106.655
295.21
43.0574
19.5669
98.4564
22.1679
41.5586
19.7426
104.235
113.422
292.348
107.678
295.393
42.0242
22.2034
99.8598
19.6012
101.706
19.624
42.5809
107.429
295.111
293.783
114.231
41.3653
22.4274
19.7867
104.036
19.6652
100.018
43.2079
108.087
295.145
292.489
114.222
168.04
170.614
24.4672
176.068
172.82
412.654
412.726
414.262
413.984
24.2639
175.166
174.095
170.539
165.179
412.58
412.774
40.6796
19.4668
97.6953
22.1248
38.8021
19.5024
100.858
108.815
288.713
104.577
294.039
109.408
288.122
100.464
293.429
39.8064
21.8607
19.5438
101.957
19.5432
99.3227
41.2857
39.1549
21.911
19.4379
100.816
19.5069
96.3198
40.945
103.917
293.926
292.823
108.988
101.361
292.858
290.995
110.095
414.354
414.464
413
412.811
24.0756
175.198
173.629
173.548
166.452
413.874
415.033
412.244
412.676
412.641
412.951