/*--------------------------------*- C++ -*----------------------------------*\
| =========                 |                                                 |
| \\      /  F ield         | OpenFOAM: The Open Source CFD Toolbox           |
|  \\    /   O peration     | Version:  2206                                  |
|   \\  /    A nd           | Website:  www.openfoam.com                      |
|    \\/     M anipulation  |                                                 |
\*---------------------------------------------------------------------------*/
FoamFile
{
    version     2.0;
    format      ascii;
    arch        "LSB;label=32;scalar=64";
    class       volVectorField;
    location    "60";
    object      U;
}
// * * * * * * * * * * * * * * * * * * * * * * * * * * * * * * * * * * * * * //

dimensions      [0 1 -1 0 0 0 0];

internalField   nonuniform List<vector> 
67442
(
(3.73598e-07 1.25829e-06 0.135226)
(4.8264e-07 1.14808e-06 0.130456)
(3.16479e-06 -3.59812e-06 0.130566)
(-0.000197619 -0.000197609 0.126499)
(0.000198482 0.000197985 0.126503)
(5.62702e-06 4.59502e-06 0.130586)
(-5.05826e-06 2.85971e-06 0.130578)
(-0.000197113 0.000196987 0.126499)
(1.71497e-06 2.53183e-06 0.130468)
(3.12023e-06 -4.03798e-06 0.130464)
(-4.02246e-07 -2.16594e-06 0.130473)
(0.00019776 -0.000197037 0.126491)
(-3.8157e-06 -1.68488e-06 0.13058)
(7.75469e-06 3.83461e-05 0.0784412)
(5.34164e-07 5.90009e-05 0.103927)
(-9.90908e-06 1.42747e-05 0.0671629)
(3.57408e-05 1.90243e-06 0.0781455)
(5.6122e-05 -8.34539e-07 0.10334)
(-9.25627e-08 3.58541e-07 0.135216)
(7.43888e-07 -2.20363e-06 0.135218)
(-4.75654e-07 -7.09546e-07 0.135226)
(-3.83884e-05 2.80479e-05 0.105776)
(1.9703e-06 -1.52492e-06 0.132621)
(-5.66207e-05 -7.25635e-07 0.11782)
(1.23487e-05 -5.37928e-06 0.0670528)
(-2.38712e-06 -4.02147e-06 0.13278)
(3.58775e-05 -3.88073e-05 0.106091)
(8.54519e-07 -5.67923e-05 0.118095)
(-1.39566e-05 -2.1456e-05 0.0922494)
(-2.87587e-05 -1.31825e-05 0.092462)
(1.01034e-05 1.29008e-05 0.067156)
(1.2098e-05 5.19824e-06 0.0670428)
(2.82435e-05 1.34551e-05 0.0925045)
(1.41949e-05 2.06958e-05 0.0922058)
(-7.7436e-06 3.96061e-05 0.078456)
(-7.99417e-07 5.88501e-05 0.103929)
(3.54476e-05 3.91705e-05 0.106088)
(-1.44087e-06 4.09572e-06 0.132813)
(1.06756e-06 5.63483e-05 0.118093)
(-3.49635e-05 3.87114e-05 0.10608)
(-6.51515e-07 2.83262e-06 0.132809)
(-1.38185e-06 5.59655e-05 0.118093)
(-2.88348e-05 1.35885e-05 0.092473)
(-1.307e-05 2.10399e-05 0.0922482)
(-1.11816e-05 6.02071e-06 0.0670581)
(4.00497e-05 2.81318e-05 0.105767)
(5.53764e-07 -9.38258e-07 0.132629)
(5.73649e-05 -1.17679e-06 0.117822)
(3.54962e-05 -2.22585e-06 0.0781562)
(5.6059e-05 6.91733e-08 0.103341)
(9.76689e-07 3.32364e-07 0.13264)
(4.05245e-05 -2.8428e-05 0.105762)
(5.76338e-05 -6.363e-07 0.11782)
(-3.58904e-05 2.95018e-06 0.0781577)
(-5.49926e-05 -4.68754e-07 0.10334)
(1.81611e-06 9.61693e-07 0.132642)
(-3.91766e-05 -2.84205e-05 0.105771)
(-5.65343e-05 -2.43299e-08 0.117821)
(-3.57085e-05 -2.67945e-06 0.0781415)
(-5.50832e-05 1.95592e-07 0.103341)
(1.48013e-05 -2.17679e-05 0.0922206)
(2.79277e-05 -1.30658e-05 0.0925055)
(1.09825e-05 -1.30815e-05 0.0671704)
(9.03726e-07 -3.01674e-06 0.132785)
(-3.56388e-05 -3.89002e-05 0.106085)
(-6.73596e-07 -5.67525e-05 0.118095)
(8.54511e-06 -3.97373e-05 0.0784497)
(5.55005e-07 -6.02226e-05 0.103923)
(-7.953e-06 -3.9493e-05 0.0784431)
(-5.55853e-07 -6.00875e-05 0.103923)
(-1.18826e-05 -5.50959e-06 0.0670411)
(-1.04515e-05 -1.3266e-05 0.067154)
(-1.96583e-06 -1.67199e-05 0.065239)
(-7.79393e-06 -3.78019e-05 0.078465)
(6.60798e-06 4.34424e-05 0.0907908)
(-7.20574e-06 -4.45311e-05 0.090776)
(1.73913e-06 1.6797e-05 0.0651581)
(-3.31864e-07 -1.80678e-05 0.0720385)
(-4.56471e-07 -5.9533e-05 0.103854)
(-2.91943e-07 1.70524e-05 0.0746908)
(2.64598e-06 5.62394e-05 0.100837)
(1.04416e-07 -1.7899e-05 0.0747299)
(-2.88373e-06 -5.7765e-05 0.100776)
(-1.09095e-07 1.72349e-05 0.0719905)
(8.56149e-06 -1.223e-05 0.0671865)
(1.15194e-05 -2.40513e-06 0.0716714)
(5.50314e-05 -9.44408e-07 0.103337)
(5.40903e-05 -9.3681e-07 0.100254)
(1.07448e-05 -8.35003e-07 0.0743087)
(-1.26683e-05 2.34813e-06 0.0649455)
(-3.50985e-05 -2.62599e-06 0.0780024)
(4.05274e-05 1.70081e-06 0.0902975)
(-4.112e-05 -1.19107e-06 0.0900365)
(1.30288e-05 -9.16711e-07 0.0650185)
(1.30941e-05 -1.45608e-06 0.0650167)
(3.73913e-05 2.50904e-06 0.0781443)
(4.15852e-05 1.53801e-06 0.0902964)
(-1.03805e-05 2.77559e-06 0.0715125)
(-5.35003e-05 2.19008e-07 0.102909)
(5.45288e-05 -5.36393e-07 0.100256)
(1.11301e-05 -8.53169e-07 0.0743102)
(-5.13132e-05 1.36407e-06 0.0998553)
(-9.84438e-06 8.00907e-07 0.0741274)
(1.21428e-05 -1.89273e-06 0.0716736)
(-1.17713e-05 4.37929e-06 0.0669781)
(1.42279e-05 -5.21213e-06 0.0670511)
(7.08404e-05 1.72862e-05 0.102129)
(-7.23185e-05 -1.84231e-05 0.112947)
(1.54436e-05 2.06368e-05 0.0920041)
(-1.46626e-05 -1.11985e-05 0.0773621)
(7.03345e-05 1.68187e-05 0.112562)
(1.67169e-05 1.07948e-05 0.0772541)
(-7.10022e-05 -1.64445e-05 0.102457)
(1.79159e-05 6.83221e-05 0.102197)
(-2.39436e-05 -6.87616e-05 0.113012)
(2.61604e-05 1.34628e-05 0.0923545)
(-1.7144e-05 -1.3414e-05 0.0773663)
(1.82835e-05 6.88374e-05 0.112754)
(1.63717e-05 1.47657e-05 0.07733)
(-1.93232e-05 -6.69742e-05 0.102465)
(1.8135e-05 1.42577e-05 0.0838524)
(-4.51474e-06 -1.12975e-05 0.0657033)
(-1.57846e-05 -1.69691e-06 0.0657378)
(7.21677e-06 1.11879e-05 0.0656395)
(1.53804e-05 4.56759e-06 0.0656949)
(-1.7775e-05 -1.30504e-05 0.0840801)
(-8.93719e-06 -1.33847e-05 0.067176)
(-1.23477e-05 -5.00032e-06 0.0669652)
(1.34863e-05 5.69632e-06 0.0670426)
(-2.04503e-05 -6.76055e-05 0.102267)
(2.59721e-05 6.95952e-05 0.113058)
(-2.59575e-05 -1.36125e-05 0.0923933)
(1.70263e-05 1.38072e-05 0.0774725)
(-1.62004e-05 -1.41668e-05 0.0774364)
(-1.92889e-05 -6.72554e-05 0.112803)
(2.2808e-05 6.74751e-05 0.102529)
(-6.98773e-05 -1.49677e-05 0.102053)
(7.37313e-05 1.62665e-05 0.112894)
(-1.41519e-05 -2.13548e-05 0.091953)
(1.5331e-05 9.92405e-06 0.077258)
(-1.48661e-05 -1.175e-05 0.0771429)
(-7.03129e-05 -1.61002e-05 0.112504)
(7.25307e-05 1.26198e-05 0.102383)
(-1.70338e-05 -1.4082e-05 0.0838535)
(1.64523e-05 2.86632e-06 0.065736)
(6.40178e-06 1.06375e-05 0.0657038)
(-1.51217e-05 -3.79474e-06 0.065696)
(-5.30088e-06 -1.17683e-05 0.0656357)
(1.88827e-05 1.24803e-05 0.084077)
(2.2494e-06 -1.63571e-05 0.0652469)
(7.31479e-06 -3.7256e-05 0.0784845)
(-6.61934e-06 4.42929e-05 0.0908016)
(7.04272e-06 -4.40785e-05 0.0907909)
(-1.59684e-06 1.67367e-05 0.0651694)
(-2.41849e-07 -1.76754e-05 0.0720415)
(6.42969e-07 -5.99614e-05 0.103858)
(-3.36186e-07 1.76483e-05 0.0746921)
(-3.24842e-06 5.70188e-05 0.100842)
(-2.67269e-07 -1.74722e-05 0.0747311)
(2.58506e-06 -5.70345e-05 0.100783)
(-6.46951e-07 1.7428e-05 0.0719982)
(1.69881e-05 -6.8528e-05 0.102213)
(-2.63575e-05 6.97072e-05 0.113026)
(2.57953e-05 -1.32469e-05 0.0923744)
(-1.8289e-05 1.3198e-05 0.0773845)
(1.50376e-05 -1.46281e-05 0.0773181)
(1.69545e-05 -6.73557e-05 0.112781)
(-2.22298e-05 6.74181e-05 0.102461)
(7.0976e-05 -1.7864e-05 0.102133)
(-7.1403e-05 1.65371e-05 0.112933)
(1.51692e-05 -2.09119e-05 0.0919962)
(-1.41737e-05 9.86228e-06 0.0773583)
(7.14575e-05 -1.74218e-05 0.112539)
(1.71264e-05 -1.20351e-05 0.0772788)
(-7.01817e-05 1.36448e-05 0.102473)
(1.60264e-05 -1.62679e-05 0.0838637)
(-1.63407e-05 5.17599e-07 0.0657475)
(-5.22598e-06 1.0247e-05 0.0657047)
(1.30252e-05 -5.34674e-06 0.0656867)
(6.50068e-06 -1.35414e-05 0.0656582)
(-1.89332e-05 1.15917e-05 0.0840872)
(1.24215e-05 -4.01409e-06 0.0669804)
(1.12104e-05 2.76021e-06 0.0716815)
(5.51564e-05 4.0513e-07 0.103338)
(1.05796e-05 9.45898e-07 0.0743104)
(5.24751e-05 1.29207e-06 0.100257)
(-1.22965e-05 -1.75634e-06 0.0649549)
(-3.49151e-05 2.06709e-06 0.0780137)
(4.02679e-05 -1.60902e-06 0.0903019)
(-4.06196e-05 1.50021e-06 0.0900409)
(1.28875e-05 1.23984e-06 0.0650286)
(1.3477e-05 2.53898e-06 0.0650269)
(3.70113e-05 -2.2561e-06 0.0781563)
(4.13761e-05 -7.74356e-07 0.0903015)
(-1.07787e-05 -2.50051e-06 0.0715218)
(-5.33054e-05 -6.71671e-07 0.10291)
(1.1338e-05 6.01333e-07 0.0743112)
(5.30131e-05 6.17693e-08 0.100259)
(-9.79466e-06 -4.56202e-07 0.074129)
(-5.21912e-05 -1.35573e-06 0.0998582)
(1.18726e-05 1.77076e-06 0.0716825)
(1.22108e-05 2.13236e-06 0.0649571)
(3.50668e-05 -1.64082e-06 0.0780205)
(-4.04328e-05 1.87133e-06 0.0903025)
(4.0842e-05 -1.29194e-06 0.0900506)
(-1.22485e-05 -9.43887e-07 0.0650268)
(1.05779e-05 3.09754e-06 0.0715225)
(5.40698e-05 5.72863e-07 0.102914)
(-5.42283e-05 -3.79234e-07 0.100256)
(-1.07478e-05 -8.0105e-07 0.0743166)
(5.105e-05 1.27939e-06 0.0998625)
(9.75167e-06 1.1346e-06 0.0741368)
(-1.14457e-05 -1.81533e-06 0.0716826)
(1.21046e-05 -1.28436e-06 0.0649409)
(3.50108e-05 1.41295e-06 0.0780031)
(-4.05518e-05 -1.2469e-06 0.0902894)
(4.08027e-05 1.8698e-06 0.0900335)
(-1.24764e-05 1.79619e-06 0.0650138)
(1.09987e-05 -2.57631e-06 0.0715095)
(5.37708e-05 -6.78522e-07 0.102913)
(-1.07e-05 7.76471e-07 0.0743105)
(-5.28791e-05 5.566e-07 0.100255)
(9.90694e-06 -9.88156e-07 0.0741315)
(5.23208e-05 -9.73641e-07 0.0998574)
(-1.09341e-05 2.25764e-06 0.0716725)
(-6.99212e-05 1.61206e-05 0.102074)
(7.47545e-05 -1.84297e-05 0.112909)
(-1.43335e-05 2.03602e-05 0.0919754)
(1.57266e-05 -1.01342e-05 0.0772781)
(-1.52599e-05 1.17901e-05 0.0771467)
(-6.81614e-05 1.44397e-05 0.112535)
(7.31144e-05 -1.40139e-05 0.102383)
(-1.92637e-05 6.73662e-05 0.102268)
(2.36923e-05 -6.81562e-05 0.113038)
(-2.6237e-05 1.33108e-05 0.0923911)
(1.75423e-05 -1.33302e-05 0.0774849)
(-2.06473e-05 6.84808e-05 0.11277)
(-1.53966e-05 1.40724e-05 0.0774663)
(2.16626e-05 -6.69141e-05 0.102542)
(-1.83767e-05 1.21074e-05 0.0838757)
(6.83116e-06 -1.04144e-05 0.0657157)
(1.68622e-05 -2.1472e-06 0.0657582)
(-6.04625e-06 1.07019e-05 0.0656394)
(-1.58519e-05 3.67807e-06 0.0657262)
(1.81099e-05 -1.28955e-05 0.0840963)
(-8.34427e-06 1.30707e-05 0.0671878)
(-1.96497e-06 1.62655e-05 0.0652362)
(-7.43959e-06 3.74358e-05 0.0784771)
(6.88571e-06 -4.42814e-05 0.0907912)
(-7.08322e-06 4.44428e-05 0.0907799)
(1.89255e-06 -1.70413e-05 0.0651573)
(1.34082e-07 1.67685e-05 0.0720336)
(-1.06916e-06 5.89631e-05 0.103856)
(3.5039e-06 -5.91265e-05 0.100831)
(-2.52634e-07 -1.82889e-05 0.0746845)
(-2.43858e-06 5.55851e-05 0.100772)
(-1.20797e-07 1.69325e-05 0.0747258)
(3.7091e-07 -1.85172e-05 0.0719878)
(1.66434e-06 1.65238e-05 0.0652339)
(7.38839e-06 3.7382e-05 0.0784684)
(-6.95498e-06 -4.43676e-05 0.0907916)
(6.65675e-06 4.4616e-05 0.0907782)
(-1.825e-06 -1.6887e-05 0.0651573)
(-3.49152e-07 1.68591e-05 0.0720297)
(6.34908e-07 5.87659e-05 0.103857)
(-3.60859e-06 -5.90577e-05 0.100832)
(1.09642e-07 -1.84501e-05 0.0746843)
(2.27048e-06 5.56435e-05 0.100774)
(-2.04964e-07 1.71679e-05 0.0747284)
(-5.61074e-07 -1.84345e-05 0.0719848)
(1.20869e-05 3.86698e-06 0.0669657)
(8.77162e-06 1.31183e-05 0.0671743)
(-1.64878e-06 9.6428e-07 0.136861)
(9.37906e-07 1.14065e-06 0.136747)
(-2.38323e-06 3.52972e-07 0.138309)
(6.86035e-05 6.81778e-05 0.114643)
(-6.17527e-05 -0.000203414 0.121653)
(-0.000200667 -5.75517e-05 0.121646)
(0.000203766 0.000207337 0.12642)
(5.97798e-05 0.000202126 0.12141)
(0.000196332 5.84685e-05 0.121455)
(-6.87107e-05 -6.57838e-05 0.1149)
(-7.02892e-05 -6.56867e-05 0.114646)
(0.000206029 5.92245e-05 0.121688)
(6.26256e-05 0.000199409 0.121613)
(-0.000203768 -0.000205652 0.126427)
(-0.000198932 -5.67589e-05 0.121503)
(-5.86791e-05 -0.000197455 0.121368)
(7.18605e-05 6.33027e-05 0.114901)
(6.94307e-05 -6.6534e-05 0.114654)
(-0.000204431 5.81848e-05 0.121685)
(-6.0934e-05 0.000199221 0.121616)
(0.000203735 -0.000206341 0.126421)
(6.0065e-05 -0.000199831 0.121368)
(0.0001968 -5.71518e-05 0.121502)
(-7.09172e-05 6.31214e-05 0.114906)
(-6.70418e-05 6.82792e-05 0.114645)
(6.35465e-05 -0.000202756 0.121643)
(0.00020107 -5.76513e-05 0.12164)
(-0.000202491 0.00020553 0.126414)
(-0.000197102 5.7862e-05 0.121449)
(-5.72301e-05 0.000198319 0.121406)
(6.99208e-05 -6.45534e-05 0.114894)
(-9.66058e-07 6.3486e-07 0.136856)
(-1.1981e-06 4.76455e-07 0.136742)
(-3.78919e-07 1.75196e-07 0.138307)
(5.8298e-07 -1.38878e-06 0.13677)
(-2.24342e-06 -3.50979e-06 0.136832)
(-2.81968e-06 -1.41134e-06 0.138309)
(-4.25021e-07 -1.35925e-06 0.136772)
(-9.04789e-07 -2.5777e-06 0.136835)
(-4.09917e-07 -1.53287e-06 0.138308)
(0.000247146 -6.47935e-06 0.122104)
(-0.000238732 1.03416e-05 0.118937)
(3.72876e-05 -3.08872e-05 0.105449)
(-5.06534e-05 8.52252e-06 0.112705)
(0.000232944 -1.34003e-05 0.118606)
(4.95965e-05 -1.0508e-05 0.112321)
(-0.00024289 2.25647e-06 0.122371)
(0.00023603 -3.13602e-06 0.123804)
(5.26434e-05 -9.20505e-07 0.117372)
(-5.7524e-05 1.79297e-06 0.116337)
(-0.000232212 -1.34195e-06 0.124872)
(5.36e-05 -2.80933e-06 0.115913)
(0.000231417 -3.98519e-07 0.124527)
(-0.000241853 -7.274e-07 0.124103)
(-4.15274e-06 0.000239105 0.122458)
(1.56688e-05 -0.000233309 0.11907)
(-3.54558e-05 3.55657e-05 0.105996)
(1.50816e-05 -5.06789e-05 0.113017)
(-1.17936e-05 0.000226302 0.118923)
(-1.37266e-05 4.96515e-05 0.112927)
(6.20349e-06 -0.00023559 0.122504)
(-1.74224e-07 0.000226287 0.124194)
(-1.86889e-06 5.36196e-05 0.118001)
(-5.7885e-07 -0.000223858 0.124973)
(6.46092e-06 -5.79772e-05 0.116639)
(-3.70515e-07 0.000222095 0.124932)
(-4.49599e-06 5.3801e-05 0.11655)
(7.4502e-07 -0.000233601 0.124217)
(-3.82115e-06 -0.000234467 0.122452)
(1.61721e-05 0.000233612 0.119069)
(-3.49206e-05 -3.56437e-05 0.105992)
(1.39024e-05 5.1606e-05 0.113014)
(-1.45804e-05 -4.95465e-05 0.112924)
(-1.11439e-05 -0.000223641 0.118927)
(6.4005e-06 0.000236131 0.12249)
(3.81942e-07 -0.000228407 0.124191)
(-1.20443e-06 -5.39882e-05 0.118)
(5.76733e-06 5.66026e-05 0.11664)
(-5.05791e-07 0.000222265 0.124965)
(-4.90091e-06 -5.50819e-05 0.116552)
(1.33292e-07 -0.000220759 0.124927)
(1.17149e-06 0.000228782 0.124211)
(2.83476e-06 -0.000235316 0.122447)
(-1.60494e-05 0.000231392 0.119059)
(3.49106e-05 -3.63793e-05 0.105992)
(-1.33117e-05 5.08276e-05 0.113013)
(1.44262e-05 -4.94721e-05 0.112924)
(1.011e-05 -0.000224007 0.118918)
(-6.45852e-06 0.000233867 0.122483)
(-4.19583e-07 -0.000228779 0.124189)
(1.29275e-06 -5.47154e-05 0.118)
(-5.30656e-06 5.63979e-05 0.116639)
(-3.3542e-07 0.000220906 0.124965)
(5.27668e-06 -5.55565e-05 0.116551)
(-5.57728e-07 -0.000221729 0.124925)
(-1.01057e-06 0.00022715 0.124207)
(-0.000246115 -5.7176e-06 0.122108)
(0.000240631 1.07085e-05 0.118935)
(-3.66749e-05 -3.0687e-05 0.105437)
(5.19106e-05 8.77747e-06 0.112706)
(-4.85381e-05 -1.00338e-05 0.112319)
(-0.000231224 -1.22565e-05 0.118605)
(0.00024517 2.80451e-06 0.122377)
(-0.00023466 -2.17084e-06 0.123806)
(-5.11161e-05 -1.12661e-06 0.117373)
(5.85698e-05 2.05785e-06 0.11634)
(0.00023419 -1.27325e-06 0.124874)
(-5.23934e-05 -2.41697e-06 0.115912)
(-0.000229986 6.51736e-08 0.124531)
(0.000243949 -2.46934e-07 0.124109)
(-0.000241299 4.97253e-06 0.12209)
(0.000239753 -1.09725e-05 0.118919)
(-3.61294e-05 2.94174e-05 0.105434)
(5.21829e-05 -8.31913e-06 0.112697)
(-4.80865e-05 1.05043e-05 0.112311)
(-0.000227625 1.15021e-05 0.118594)
(0.000244335 -2.98156e-06 0.122356)
(-0.000236714 1.59091e-06 0.123798)
(-5.09551e-05 1.639e-07 0.11737)
(0.000233391 5.90759e-07 0.12487)
(5.75309e-05 -2.68348e-06 0.116335)
(-0.000228854 -6.357e-07 0.124526)
(-5.35711e-05 2.54259e-06 0.115907)
(0.000239225 -3.15349e-07 0.124098)
(0.000244218 5.58691e-06 0.122099)
(-0.000238297 -1.09741e-05 0.118933)
(3.72922e-05 3.01062e-05 0.105443)
(-5.17391e-05 -7.81695e-06 0.112703)
(0.000231078 1.25965e-05 0.118605)
(4.96008e-05 1.10607e-05 0.112319)
(-0.000243697 -2.705e-06 0.122362)
(0.000239198 2.47769e-06 0.123805)
(5.31332e-05 4.55901e-07 0.117373)
(-0.000231968 1.29979e-06 0.12487)
(-5.64531e-05 -1.90635e-06 0.11634)
(0.000230812 1.59461e-07 0.124526)
(5.47618e-05 2.78629e-06 0.115914)
(-0.000237856 3.73415e-07 0.124102)
(3.42293e-06 0.000240548 0.122465)
(-1.49739e-05 -0.000233031 0.119073)
(3.56884e-05 3.68672e-05 0.105992)
(-1.48233e-05 -5.06405e-05 0.113018)
(1.11439e-05 0.000227201 0.118929)
(1.37614e-05 5.01719e-05 0.112928)
(-6.17385e-06 -0.000235325 0.122507)
(-5.14034e-07 0.000226792 0.124198)
(1.77012e-06 5.41442e-05 0.118002)
(3.74e-07 -0.000223894 0.124974)
(-6.41857e-06 -5.81397e-05 0.116642)
(-1.09848e-07 0.000222332 0.124933)
(4.2135e-06 5.38619e-05 0.116553)
(-1.02506e-06 -0.000233375 0.12422)
(4.54353e-06 9.96662e-06 0.0459375)
(3.38401e-06 4.72991e-06 0.0311307)
(2.22483e-06 1.89145e-06 0.0193904)
(1.24642e-06 5.06087e-07 0.0102177)
(3.8464e-07 4.47269e-08 0.00310265)
(-6.22048e-06 5.76758e-06 0.0475243)
(-3.9367e-06 2.56297e-06 0.0324347)
(-2.38599e-06 8.61806e-07 0.0203449)
(-1.30949e-06 1.68629e-07 0.0107928)
(-3.57757e-07 -7.17137e-08 0.00330153)
(9.00085e-06 1.00881e-06 0.0460101)
(4.44717e-06 8.87407e-07 0.0311762)
(1.99605e-06 5.72604e-07 0.0194171)
(7.25244e-07 3.02902e-07 0.010231)
(9.64514e-08 8.16324e-08 0.00310651)
(5.29594e-06 -2.80187e-06 0.0475829)
(2.77508e-06 -1.37598e-06 0.0324723)
(1.23478e-06 -4.99249e-07 0.0203675)
(2.94593e-07 -2.44909e-08 0.0108046)
(1.37059e-07 -2.77175e-08 0.00330512)
(6.30437e-06 5.16408e-06 0.0475182)
(3.86485e-06 2.33053e-06 0.0324305)
(2.19909e-06 8.01406e-07 0.0203423)
(1.07915e-06 1.34294e-07 0.0107921)
(3.30581e-07 -3.33734e-08 0.00330169)
(5.06187e-06 2.55037e-06 0.0475749)
(2.70542e-06 1.23049e-06 0.0324665)
(1.27684e-06 4.66837e-07 0.0203636)
(4.33141e-07 9.00375e-08 0.0108022)
(1.46396e-07 9.78169e-09 0.00330434)
(-4.36944e-06 1.039e-05 0.0459461)
(-3.2585e-06 5.0154e-06 0.0311355)
(-2.12794e-06 2.00097e-06 0.0193927)
(-1.13909e-06 4.11608e-07 0.0102185)
(-3.86826e-07 7.584e-08 0.00310274)
(-4.2891e-06 3.59625e-06 0.0475856)
(-2.10839e-06 2.17496e-06 0.0324744)
(-8.76315e-07 1.203e-06 0.020369)
(-1.99605e-07 5.42906e-07 0.0108057)
(-7.12596e-08 1.64448e-07 0.00330563)
(9.15568e-06 -1.07092e-06 0.0460202)
(4.64238e-06 -8.13358e-07 0.0311834)
(2.16616e-06 -4.34693e-07 0.0194217)
(8.92277e-07 -1.87893e-07 0.0102333)
(1.30876e-07 -4.38296e-08 0.00310703)
(-8.42383e-06 1.82075e-06 0.04602)
(-4.0931e-06 1.65165e-06 0.0311834)
(-1.75735e-06 1.16023e-06 0.0194221)
(-5.63077e-07 6.48903e-07 0.010234)
(-6.41095e-08 2.13949e-07 0.00310745)
(-8.61937e-06 -1.2666e-06 0.0460088)
(-4.30043e-06 -1.11235e-06 0.0311758)
(-1.93598e-06 -7.44499e-07 0.0194176)
(-7.16435e-07 -4.11872e-07 0.0102319)
(-9.21578e-08 -1.24056e-07 0.00310693)
(6.94757e-06 -5.07347e-06 0.0475295)
(4.40658e-06 -2.167e-06 0.0324388)
(2.64677e-06 -7.02233e-07 0.0203478)
(1.39963e-06 -1.93147e-07 0.0107946)
(4.31251e-07 1.09684e-07 0.00330231)
(4.60444e-06 -1.03496e-05 0.0459437)
(3.38422e-06 -4.97028e-06 0.0311347)
(2.20713e-06 -1.99419e-06 0.0193927)
(1.19962e-06 -4.52234e-07 0.0102188)
(3.90669e-07 -6.10407e-08 0.00310285)
(-4.51922e-06 -1.02776e-05 0.0459388)
(-3.38342e-06 -4.95175e-06 0.0311313)
(-2.23133e-06 -2.0131e-06 0.0193905)
(-1.18772e-06 -4.1496e-07 0.0102174)
(-4.21799e-07 -1.11363e-07 0.00310233)
(-4.89295e-06 -2.85993e-06 0.0475726)
(-2.54957e-06 -1.49793e-06 0.0324651)
(-1.17901e-06 -6.92509e-07 0.0203633)
(-3.84539e-07 -2.30791e-07 0.0108025)
(-1.12706e-07 -6.53155e-08 0.00330448)
(-6.45148e-06 -5.18466e-06 0.0475171)
(-3.99465e-06 -2.25422e-06 0.0324301)
(-2.34372e-06 -7.34121e-07 0.020342)
(-1.22928e-06 -1.21074e-07 0.0107913)
(-3.5022e-07 5.69427e-08 0.00330106)
(-6.39895e-07 -1.09229e-05 0.0475553)
(-3.64736e-08 -5.66754e-06 0.0324653)
(2.35684e-07 -2.52409e-06 0.0203657)
(2.74867e-07 -8.60638e-07 0.010804)
(9.26529e-08 -1.97314e-07 0.00330505)
(-4.49545e-06 -8.90823e-06 0.0460056)
(-3.40297e-06 -3.99368e-06 0.0311821)
(-2.3155e-06 -1.52618e-06 0.0194225)
(-1.30525e-06 -3.41211e-07 0.0102343)
(-4.49008e-07 -8.55496e-09 0.0031076)
(5.35549e-06 -4.43782e-06 0.0475685)
(3.42327e-06 -1.83812e-06 0.0324695)
(2.12021e-06 -5.5425e-07 0.0203667)
(1.15036e-06 -5.32212e-08 0.010804)
(3.75798e-07 7.262e-08 0.00330483)
(5.57954e-06 -2.62709e-06 0.0461803)
(2.93596e-06 -2.29111e-06 0.031401)
(1.42349e-06 -1.76657e-06 0.0196185)
(6.16522e-07 -1.10611e-06 0.0103668)
(1.47998e-07 -3.904e-07 0.00315753)
(4.70991e-06 -7.1292e-07 0.0465218)
(2.38137e-06 -5.64363e-07 0.0316788)
(1.08985e-06 -3.93769e-07 0.0198263)
(4.14141e-07 -2.1653e-07 0.0104957)
(1.026e-07 -8.88559e-08 0.00320358)
(-8.73339e-06 3.05691e-06 0.047547)
(-4.80188e-06 2.71056e-06 0.0324635)
(-2.34696e-06 2.08216e-06 0.0203655)
(-9.46541e-07 1.29842e-06 0.010804)
(-2.55651e-07 4.54759e-07 0.00330507)
(-8.17552e-06 -9.51391e-07 0.0460073)
(-3.89323e-06 -7.95927e-07 0.0311867)
(-1.70463e-06 -5.61898e-07 0.0194258)
(-5.84659e-07 -3.24502e-07 0.0102358)
(-8.78464e-08 -1.11374e-07 0.00310799)
(9.32007e-06 1.23288e-06 0.0460088)
(4.55852e-06 9.58094e-07 0.0311743)
(2.03674e-06 5.78869e-07 0.0194155)
(7.29802e-07 2.68226e-07 0.01023)
(1.02895e-07 1.07155e-07 0.0031062)
(-4.5224e-06 2.09484e-06 0.0475756)
(-2.13891e-06 1.12156e-06 0.0324778)
(-8.87892e-07 5.63971e-07 0.0203731)
(-2.14467e-07 2.08072e-07 0.0108079)
(-8.0151e-08 8.17539e-08 0.00330619)
(6.14919e-06 -2.42603e-06 0.0475804)
(3.11724e-06 -1.08864e-06 0.0324698)
(1.40282e-06 -4.04897e-07 0.0203656)
(4.45797e-07 -7.43289e-08 0.0108035)
(1.24952e-07 -2.5001e-08 0.00330475)
(-7.69751e-06 -4.30795e-06 0.0461944)
(-4.20468e-06 -1.86508e-06 0.0313026)
(-2.03689e-06 -5.5884e-07 0.0194987)
(-8.60513e-07 -5.31518e-08 0.0102759)
(-2.08216e-07 6.91208e-08 0.00312093)
(7.76723e-06 3.68564e-06 0.0461983)
(4.11579e-06 1.28259e-06 0.0313149)
(2.0557e-06 1.58305e-07 0.0195078)
(9.42275e-07 -1.7342e-07 0.0102807)
(2.31227e-07 -1.24176e-07 0.00312233)
(-8.03951e-06 -6.61111e-06 0.0461544)
(-4.56867e-06 -3.13499e-06 0.0312769)
(-2.35361e-06 -1.11056e-06 0.0194831)
(-9.9943e-07 -1.55366e-07 0.0102679)
(-2.97003e-07 -1.39829e-08 0.00311853)
(7.49716e-06 6.51609e-06 0.0461919)
(4.13866e-06 2.93211e-06 0.0313101)
(2.11098e-06 1.02084e-06 0.0195047)
(9.02275e-07 1.49337e-07 0.0102791)
(2.67967e-07 1.93743e-08 0.00312187)
(-3.05737e-06 -5.64699e-06 0.0474518)
(-1.70841e-06 -3.02867e-06 0.0323459)
(-7.01823e-07 -1.49565e-06 0.0202631)
(-1.35407e-07 -5.96957e-07 0.0107362)
(-2.62724e-08 -1.83762e-07 0.00327979)
(-9.08649e-06 -7.65136e-07 0.0474439)
(-5.55878e-06 1.53575e-07 0.0323408)
(-3.24483e-06 6.50874e-07 0.0202602)
(-1.66689e-06 6.29339e-07 0.0107346)
(-5.04886e-07 2.72937e-07 0.0032793)
(3.87217e-06 5.66761e-06 0.0474505)
(1.94215e-06 2.87173e-06 0.0323553)
(8.26086e-07 1.31606e-06 0.0202711)
(2.50173e-07 4.77881e-07 0.0107407)
(4.24724e-08 1.41742e-07 0.00328117)
(8.84027e-06 1.81791e-06 0.0474539)
(5.21034e-06 2.67989e-07 0.0323565)
(2.96704e-06 -4.36134e-07 0.0202715)
(1.50918e-06 -5.2041e-07 0.0107407)
(4.46843e-07 -2.29877e-07 0.00328112)
(-5.49153e-06 -5.00039e-06 0.047563)
(-3.48959e-06 -2.09747e-06 0.0324667)
(-2.11226e-06 -6.53369e-07 0.0203655)
(-1.10953e-06 -4.65619e-08 0.0108042)
(-3.38895e-07 3.98779e-08 0.00330535)
(-4.86279e-06 -2.32278e-06 0.0475663)
(-2.40958e-06 -1.14824e-06 0.0324713)
(-1.09116e-06 -5.11147e-07 0.0203688)
(-3.89344e-07 -1.73455e-07 0.0108053)
(-9.87111e-08 -3.91845e-08 0.00330534)
(5.55723e-06 2.88045e-06 0.0475733)
(2.76257e-06 1.43228e-06 0.0324649)
(1.25498e-06 6.20458e-07 0.0203623)
(4.56458e-07 1.83178e-07 0.0108014)
(9.18825e-08 6.70468e-08 0.00330409)
(4.25647e-06 -8.7231e-06 0.0460138)
(3.25081e-06 -3.90567e-06 0.031187)
(2.18367e-06 -1.47783e-06 0.0194249)
(1.17752e-06 -2.94041e-07 0.0102349)
(4.36363e-07 -1.4977e-08 0.00310761)
(-7.71895e-06 3.98005e-06 0.0461973)
(-4.18307e-06 1.68967e-06 0.031306)
(-2.02024e-06 5.00547e-07 0.0195016)
(-8.53214e-07 5.61806e-08 0.0102777)
(-1.97382e-07 -7.84405e-08 0.00312148)
(9.71979e-06 -5.24767e-06 0.04621)
(5.10721e-06 -1.98086e-06 0.0313219)
(2.47188e-06 -3.28741e-07 0.0195122)
(1.0977e-06 2.09239e-07 0.0102832)
(2.57636e-07 1.61399e-07 0.00312305)
(-4.00219e-06 4.62852e-06 0.0474553)
(-2.47905e-06 2.24087e-06 0.032349)
(-1.20972e-06 9.76822e-07 0.0202655)
(-3.98376e-07 3.16085e-07 0.0107374)
(-1.17949e-07 1.00294e-07 0.0032802)
(4.30887e-06 -7.56965e-06 0.0474631)
(1.92382e-06 -4.06281e-06 0.0323632)
(5.69085e-07 -2.13077e-06 0.0202761)
(-3.7235e-08 -9.55053e-07 0.0107432)
(-7.28164e-08 -3.01375e-07 0.00328192)
(5.3695e-06 -1.25107e-06 0.0475762)
(2.94316e-06 -9.63345e-08 0.0324784)
(1.55747e-06 3.85352e-07 0.0203736)
(7.00015e-07 4.31921e-07 0.0108083)
(2.141e-07 1.59848e-07 0.00330645)
(5.57664e-06 3.08842e-06 0.0461874)
(3.02859e-06 2.72573e-06 0.0314053)
(1.52933e-06 2.11125e-06 0.019621)
(6.73443e-07 1.34341e-06 0.0103682)
(1.78107e-07 4.3524e-07 0.00315792)
(4.75951e-06 1.05223e-06 0.046523)
(2.37705e-06 9.26065e-07 0.0316796)
(1.07236e-06 7.04692e-07 0.0198268)
(4.0872e-07 4.45325e-07 0.0104959)
(9.05174e-08 1.23716e-07 0.00320363)
(-8.34362e-06 -2.37456e-06 0.0475548)
(-4.4641e-06 -2.07176e-06 0.0324686)
(-2.08862e-06 -1.59131e-06 0.0203687)
(-7.48848e-07 -1.01324e-06 0.0108057)
(-2.09563e-07 -3.45912e-07 0.00330535)
(-7.79204e-06 9.49387e-07 0.0460172)
(-3.65147e-06 1.00379e-06 0.0311935)
(-1.55816e-06 7.9391e-07 0.01943)
(-5.12805e-07 4.84766e-07 0.0102379)
(-6.30367e-08 1.76872e-07 0.00310841)
(9.7103e-06 -6.22177e-07 0.0460182)
(4.89827e-06 -3.61367e-07 0.031181)
(2.26904e-06 -1.30181e-07 0.0194198)
(8.4568e-07 -4.70636e-09 0.0102321)
(1.47814e-07 -1.08145e-08 0.00310663)
(7.99278e-06 9.6283e-08 0.0460166)
(3.95894e-06 9.90686e-08 0.0311929)
(1.8649e-06 1.33451e-07 0.0194299)
(7.13126e-07 1.19121e-07 0.0102381)
(1.49188e-07 3.3161e-08 0.00310865)
(8.19293e-06 -2.48393e-06 0.0475431)
(4.4238e-06 -2.40545e-06 0.0324607)
(2.16362e-06 -1.95123e-06 0.0203639)
(8.72576e-07 -1.27027e-06 0.0108034)
(2.45119e-07 -4.50215e-07 0.00330483)
(7.83785e-06 1.67973e-07 0.0460057)
(3.79238e-06 1.88006e-07 0.0311848)
(1.74691e-06 9.41514e-08 0.0194249)
(6.67188e-07 2.36955e-08 0.0102358)
(1.26208e-07 1.27487e-08 0.00310804)
(8.25899e-06 -7.14867e-06 0.046171)
(4.49652e-06 -3.39064e-06 0.0312876)
(2.22085e-06 -1.21962e-06 0.0194898)
(8.37922e-07 -9.00875e-08 0.0102718)
(2.77389e-07 -6.24975e-08 0.00311997)
(-7.23133e-06 7.38743e-06 0.0462173)
(-3.79536e-06 3.5721e-06 0.0313265)
(-1.73745e-06 1.41245e-06 0.019515)
(-5.70453e-07 2.93774e-07 0.0102849)
(-1.78728e-07 1.07717e-07 0.00312392)
(9.63587e-06 -6.55468e-07 0.0474564)
(5.72287e-06 2.44433e-07 0.0323487)
(3.27482e-06 6.32412e-07 0.020265)
(1.73917e-06 5.18214e-07 0.0107374)
(4.48193e-07 2.60333e-07 0.00328042)
(-4.7198e-06 5.17111e-06 0.0475711)
(-2.6817e-06 2.41378e-06 0.0324721)
(-1.41424e-06 9.90767e-07 0.0203687)
(-6.38835e-07 3.44484e-07 0.0108055)
(-1.97994e-07 2.52137e-08 0.00330549)
(-5.8548e-07 1.07462e-05 0.0475526)
(3.20002e-08 5.55525e-06 0.0324633)
(2.88154e-07 2.52881e-06 0.0203644)
(2.80808e-07 9.632e-07 0.0108033)
(1.30168e-07 2.00095e-07 0.0033047)
(-4.26559e-06 8.65309e-06 0.0460113)
(-3.17276e-06 3.89262e-06 0.0311861)
(-2.10097e-06 1.51014e-06 0.0194246)
(-1.16334e-06 3.61887e-07 0.0102351)
(-3.83429e-07 2.4993e-08 0.00310768)
(2.9277e-07 1.08072e-05 0.0475513)
(-2.84767e-07 5.52299e-06 0.0324626)
(-4.7376e-07 2.48855e-06 0.0203639)
(-3.7972e-07 9.83678e-07 0.0108027)
(-1.74334e-07 1.50921e-07 0.00330448)
(4.35321e-06 9.03904e-06 0.0460069)
(3.25951e-06 4.07276e-06 0.0311833)
(2.17003e-06 1.58086e-06 0.0194232)
(1.17807e-06 3.56019e-07 0.0102342)
(4.16008e-07 3.4297e-08 0.00310733)
(4.94053e-06 1.48192e-06 0.0475639)
(2.60551e-06 4.54351e-07 0.0324694)
(1.3033e-06 -1.31038e-08 0.0203679)
(5.43298e-07 -1.54879e-07 0.0108051)
(1.54362e-07 -5.96653e-08 0.0033053)
(5.3154e-06 5.02255e-06 0.0475601)
(3.25531e-06 2.16464e-06 0.0324643)
(1.87362e-06 7.46477e-07 0.0203635)
(9.31549e-07 1.50841e-07 0.0108024)
(2.9123e-07 -2.32741e-08 0.00330433)
(7.4468e-07 -1.0686e-05 0.0475606)
(1.28028e-07 -5.45757e-06 0.0324691)
(-1.29705e-07 -2.47573e-06 0.0203677)
(-1.47233e-07 -1.00712e-06 0.0108047)
(-9.75998e-08 -1.59677e-07 0.00330518)
(8.37713e-06 3.25703e-06 0.0475548)
(4.57428e-06 3.02844e-06 0.032469)
(2.27237e-06 2.39453e-06 0.0203692)
(9.4921e-07 1.53442e-06 0.0108059)
(2.70586e-07 5.27327e-07 0.0033055)
(8.49167e-07 -9.23102e-06 0.0461671)
(1.02512e-06 -4.7772e-06 0.0314006)
(9.24788e-07 -2.18983e-06 0.01962)
(6.24826e-07 -8.6613e-07 0.0103677)
(2.45696e-07 -1.7154e-07 0.00315757)
(-3.2597e-07 8.5543e-06 0.0464435)
(-3.09923e-07 4.41752e-06 0.0316303)
(-2.37958e-07 1.91617e-06 0.0197976)
(-1.58753e-07 4.89388e-07 0.0104809)
(-3.04278e-08 2.01054e-07 0.00319885)
(5.30928e-07 -8.39706e-06 0.046503)
(5.9052e-07 -4.1975e-06 0.0316752)
(5.16139e-07 -1.85374e-06 0.019826)
(3.47176e-07 -6.14407e-07 0.0104956)
(1.22494e-07 -1.60254e-07 0.00320335)
(-9.22213e-07 9.25175e-06 0.0461033)
(-1.09348e-06 4.80287e-06 0.031353)
(-9.67781e-07 2.21669e-06 0.0195905)
(-6.20535e-07 8.58769e-07 0.0103525)
(-2.70895e-07 1.85814e-07 0.00315301)
(5.94979e-07 1.11682e-05 0.0474714)
(-5.26046e-08 5.88362e-06 0.0324037)
(-3.37752e-07 2.67929e-06 0.0203273)
(-3.32439e-07 9.46531e-07 0.0107842)
(-1.57273e-07 2.23641e-07 0.00329905)
(-8.22628e-06 6.28908e-06 0.0461664)
(-4.76424e-06 2.92681e-06 0.0312847)
(-2.51824e-06 9.38739e-07 0.0194882)
(-1.11851e-06 4.2651e-08 0.010271)
(-3.35432e-07 -1.20325e-08 0.00311958)
(5.72498e-06 -4.58279e-06 0.0461933)
(3.23669e-06 -2.03882e-06 0.0313131)
(1.75809e-06 -7.21586e-07 0.0195075)
(8.04137e-07 -9.413e-08 0.0102812)
(2.66095e-07 -1.56506e-09 0.00312262)
(-9.68996e-06 -3.67068e-07 0.0474502)
(-6.12868e-06 -1.0328e-06 0.0323449)
(-3.69238e-06 -1.23456e-06 0.0202631)
(-1.95439e-06 -9.36088e-07 0.0107365)
(-5.95957e-07 -3.67805e-07 0.00328015)
(6.87717e-06 -1.37942e-06 0.0474503)
(3.98614e-06 -3.21431e-07 0.0323556)
(2.13324e-06 1.4719e-07 0.0202718)
(1.00646e-06 2.25529e-07 0.0107414)
(2.9231e-07 1.06542e-07 0.00328162)
(8.77711e-06 -1.91019e-06 0.0475515)
(4.82274e-06 -1.9077e-06 0.0324543)
(2.35519e-06 -1.60212e-06 0.0203573)
(9.34417e-07 -1.05751e-06 0.0107994)
(2.57119e-07 -4.02068e-07 0.00330361)
(-5.52033e-06 3.03984e-06 0.0461441)
(-2.96483e-06 2.62218e-06 0.0313899)
(-1.43251e-06 1.99074e-06 0.0196146)
(-5.95271e-07 1.2464e-06 0.0103653)
(-1.54861e-07 4.13787e-07 0.00315712)
(5.83544e-06 -5.93156e-07 0.046523)
(3.0054e-06 -4.61779e-07 0.0316796)
(1.37486e-06 -3.15476e-07 0.0198267)
(5.2333e-07 -1.68736e-07 0.0104959)
(1.22912e-07 -7.1374e-08 0.00320357)
(-4.71569e-06 1.04238e-06 0.0464779)