/*--------------------------------*- C++ -*----------------------------------*\
| =========                 |                                                 |
| \\      /  F ield         | OpenFOAM: The Open Source CFD Toolbox           |
|  \\    /   O peration     | Version:  2206                                  |
|   \\  /    A nd           | Website:  www.openfoam.com                      |
|    \\/     M anipulation  |                                                 |
\*---------------------------------------------------------------------------*/
FoamFile
{
    version     2.0;
    format      ascii;
    arch        "LSB;label=32;scalar=64";
    class       volVectorField;
    location    "60";
    object      wallShearStress;
}
// * * * * * * * * * * * * * * * * * * * * * * * * * * * * * * * * * * * * * //

dimensions      [0 2 -2 0 0 0 0];

internalField   uniform (0 0 0);

boundaryField
{
    topPatch
    {
        type            calculated;
        value           nonuniform List<vector> 0();
    }
    wall
    {
        type            calculated;
        value           nonuniform List<vector> 
7803
(
(-1.57202e-08 -4.16771e-09 -0.000118543)
(1.44309e-08 1.52977e-09 -0.000126211)
(-5.39281e-09 -3.74501e-09 -0.000118701)
(-6.82876e-09 1.93146e-09 -0.000126338)
(-1.34054e-08 -5.0581e-11 -0.000126191)
(-7.02438e-09 -1.12112e-09 -0.000126319)
(1.6033e-08 -5.90729e-09 -0.000118557)
(4.13523e-09 -7.06638e-09 -0.000126347)
(-7.05093e-09 2.40718e-09 -0.000118726)
(4.4258e-09 -8.90921e-09 -0.000118726)
(5.41828e-09 5.43815e-09 -0.000118702)
(-1.71459e-08 -3.05943e-09 -0.000126224)
(-1.61288e-08 5.13845e-09 -0.000118557)
(1.75182e-08 7.71273e-09 -0.000118541)
(5.68307e-09 3.2257e-09 -0.000126314)
(1.41832e-08 -9.7018e-10 -0.000126193)
(-2.92324e-09 9.88558e-09 -0.000126305)
(1.80274e-08 2.39351e-09 -0.000118732)
(-1.48794e-08 -1.9955e-09 -0.000126338)
(-6.52208e-09 1.48607e-08 -0.000120624)
(-4.81587e-09 3.38076e-09 -0.00012237)
(1.1586e-08 -1.69492e-08 -0.000126308)
(4.92173e-09 4.83787e-09 -0.000118757)
(-5.95782e-09 -4.84779e-09 -0.000118689)
(3.96286e-09 -3.62937e-09 -0.000126379)
(-6.25746e-09 1.74627e-09 -0.000126324)
(9.4415e-09 -1.60694e-09 -0.000119248)
(-1.00124e-08 3.95295e-09 -0.000119302)
(1.28401e-08 2.54197e-09 -0.000119156)
(-1.15284e-08 -2.46967e-09 -0.000119284)
(2.2531e-09 8.01194e-09 -0.000125384)
(2.02593e-08 -9.40484e-09 -0.000125367)
(-2.75778e-09 -6.30265e-09 -0.000125436)
(-1.79946e-08 7.81561e-09 -0.000125436)
(1.36394e-08 -4.27378e-10 -0.000126331)
(4.73268e-09 2.0142e-09 -0.000126357)
(-4.78537e-09 -3.22824e-09 -0.000126309)
(-1.75211e-08 2.62459e-09 -0.000118743)
(8.82493e-09 2.1103e-09 -0.000119266)
(-1.15402e-08 -5.01971e-09 -0.000119326)
(5.88202e-09 -4.90111e-09 -0.0001254)
(1.13272e-09 1.28775e-08 -0.000125466)
(-9.23726e-09 -5.57761e-09 -0.000126378)
(-7.90693e-09 -1.65818e-08 -0.000120637)
(-4.18519e-09 -4.74001e-09 -0.000122371)
(9.57056e-09 1.28447e-08 -0.000126326)
(3.89417e-09 -7.30836e-09 -0.000118779)
(-7.80742e-09 1.20003e-09 -0.000118711)
(-7.13956e-09 -7.78992e-10 -0.000118772)
(-1.08785e-08 1.68718e-08 -0.000126294)
(-6.19778e-09 -9.72368e-10 -0.000118744)
(-1.2287e-08 4.64016e-09 -0.000119193)
(8.40416e-09 -6.24075e-09 -0.000119344)
(-1.77889e-08 -9.29273e-09 -0.0001254)
(8.08824e-09 -1.88587e-09 -0.000126346)
(-4.43803e-09 -9.71466e-09 -0.000126292)
(1.54353e-08 -2.84728e-09 -0.000118742)
(6.2994e-09 -7.09135e-09 -0.000126285)
(-1.67753e-08 -3.56735e-09 -0.000118732)
(-6.8261e-09 1.81054e-09 -0.000126345)
(-1.17394e-08 -8.12262e-11 -0.000126319)
(3.26577e-09 7.76765e-09 -0.000126311)
(-1.18508e-08 -1.98314e-08 -0.000126325)
(-9.18227e-09 8.14547e-09 -0.000120634)
(1.07886e-09 -9.99473e-09 -0.0001222)
(-4.60739e-09 7.81941e-09 -0.000122372)
(1.01002e-08 -8.71742e-09 -0.00012046)
(5.36131e-09 -1.10437e-08 -0.000126076)
(1.43129e-08 -1.52638e-09 -0.000119187)
(-1.09624e-08 1.08718e-09 -0.000119303)
(2.35605e-08 1.32489e-08 -0.000125381)
(-1.16555e-08 -3.52856e-09 -0.000125437)
(-1.19054e-08 1.48548e-08 -0.000126252)
(6.8707e-09 -1.57586e-08 -0.000120608)
(-6.04893e-09 2.67287e-09 -0.00012237)
(4.84056e-09 -5.84527e-09 -0.000122336)
(-6.62211e-09 1.29883e-08 -0.000120624)
(-1.12959e-08 1.67857e-08 -0.000126248)
(-8.47133e-09 -2.9072e-09 -0.000119268)
(6.40386e-09 1.36198e-10 -0.000119303)
(-4.43379e-09 7.95566e-09 -0.000125408)
(8.14446e-09 -5.98345e-10 -0.000125447)
(-1.06859e-08 -4.40229e-09 -0.000119183)
(1.01918e-08 1.98743e-09 -0.000119313)
(-2.08396e-08 9.93167e-09 -0.000125355)
(1.80459e-08 -7.99522e-09 -0.000125435)
(-1.06149e-08 4.60336e-09 -0.000119237)
(7.39394e-09 -4.07054e-10 -0.000119295)
(-4.57889e-09 -5.7696e-09 -0.000125387)
(1.36287e-09 7.23255e-09 -0.000125438)
(8.1719e-09 9.94346e-09 -0.000120645)
(-2.70544e-09 -6.39521e-09 -0.000122216)
(9.92196e-10 6.76454e-09 -0.000122368)
(-8.02208e-09 -1.05053e-08 -0.000120464)
(-8.15681e-09 -1.15117e-08 -0.000126102)
(6.39986e-09 1.25382e-08 -0.000120621)
(-5.11043e-09 -6.20317e-09 -0.00012237)
(4.42824e-09 1.83843e-09 -0.000122336)
(-7.76046e-09 -1.47271e-08 -0.000120638)
(-1.16758e-08 -1.82811e-08 -0.000126272)
(-1.30738e-08 -2.14333e-08 -0.000126265)
(1.08569e-08 1.38911e-08 -0.000126274)
(-6.31697e-09 -1.59502e-08 -0.000120628)
(5.51744e-09 4.25279e-09 -0.00012239)
(-3.85777e-09 -4.32507e-09 -0.000122348)
(7.00153e-09 1.31618e-08 -0.000120645)
(-6.39097e-09 1.54802e-08 -0.000120606)
(5.59364e-09 -4.1559e-09 -0.000122377)
(-4.14815e-09 5.43457e-09 -0.000122334)
(6.81589e-09 -1.38388e-08 -0.000120627)
(1.17462e-08 -1.64142e-08 -0.000126245)
(2.49487e-08 1.35314e-08 -0.000125485)
(6.20193e-09 1.18495e-08 -0.000126074)
(-1.05734e-08 -8.14393e-09 -0.000120624)
(3.08471e-09 1.01554e-08 -0.000122197)
(-1.19883e-09 -7.73666e-09 -0.000122358)
(8.92644e-09 9.53991e-09 -0.000120454)
(-6.23702e-09 9.64261e-09 -0.000126078)
(1.01453e-08 -1.07624e-08 -0.00012063)
(-1.10748e-09 5.54939e-09 -0.000122208)
(2.87585e-09 -6.66259e-09 -0.000122359)
(-6.89143e-09 9.32087e-09 -0.000120449)
(4.61222e-09 -5.95001e-09 -0.000118786)
(5.24808e-09 -3.43326e-09 -0.000126391)
(-1.11092e-08 -1.63111e-08 -0.000126268)
(-3.94994e-09 6.09289e-09 -0.000118726)
(-5.69735e-09 3.07312e-09 -0.000126338)
(-5.62351e-09 1.3305e-08 -0.000120628)
(5.8831e-09 -4.88908e-09 -0.000122347)
(-5.25825e-09 5.71616e-09 -0.00012237)
(6.87092e-09 -1.72987e-08 -0.000120613)
(-7.09851e-09 -1.24215e-08 -0.000120642)
(3.28582e-09 3.71968e-09 -0.000122347)
(-4.65091e-09 -4.28617e-09 -0.000122371)
(6.6756e-09 1.49261e-08 -0.000120629)
(1.13075e-08 1.55595e-08 -0.000126332)
(4.34941e-09 1.01186e-10 -0.000119313)
(-6.6199e-09 -2.18928e-09 -0.000119278)
(5.20708e-09 -4.29612e-09 -0.000125467)
(-9.57528e-09 7.49685e-10 -0.00012543)
(1.47103e-08 -1.42421e-09 -0.00012633)
(6.80981e-09 3.07218e-09 -0.000126361)
(1.68995e-08 3.16191e-09 -0.000118733)
(4.39493e-09 4.8366e-09 -0.00011876)
(-1.50744e-08 1.30246e-09 -0.000126184)
(-6.81212e-09 -1.02867e-09 -0.000126311)
(4.00831e-09 -1.13998e-08 -0.000126069)
(-1.66276e-08 -3.16268e-09 -0.000118533)
(-5.31366e-09 -3.18162e-09 -0.000118696)
(1.73991e-08 -1.05085e-08 -0.000125434)
(3.98567e-10 1.06414e-08 -0.000125443)
(-1.04489e-08 1.52554e-08 -0.00012625)
(1.1748e-08 -1.81708e-08 -0.000126313)
(1.26052e-08 1.28326e-09 -0.00011932)
(-1.02898e-08 -3.61088e-09 -0.000119179)
(6.26882e-09 1.46801e-09 -0.0001193)
(-1.04266e-08 5.74362e-09 -0.000119236)
(-3.93477e-09 -5.80076e-09 -0.000125391)
(-2.03182e-08 9.17512e-09 -0.000125363)
(7.97317e-09 -7.25428e-09 -0.00012046)
(-1.87308e-10 9.4497e-09 -0.000122373)
(-4.69034e-10 -8.09868e-09 -0.00012219)
(-9.84853e-09 9.01462e-09 -0.000120629)
(-4.40258e-09 1.08477e-08 -0.000126303)
(-1.01593e-08 -1.02042e-08 -0.000118529)
(1.19663e-08 -4.16294e-09 -0.000126182)
(-1.91365e-08 -2.52917e-10 -0.000126448)
(-6.78436e-09 -9.79659e-09 -0.000118614)
(-6.83585e-09 5.56374e-09 -0.00012627)
(5.11109e-09 6.7563e-09 -0.000126275)
(-7.76604e-09 -2.34931e-09 -0.00012646)
(1.30445e-08 2.40534e-09 -0.000126185)
(-8.9845e-09 -5.15506e-09 -0.000126429)
(-6.87292e-09 -5.04155e-09 -0.000126472)
(5.62227e-09 6.8363e-09 -0.000126256)
(-7.9463e-09 -6.80111e-09 -0.000126442)
(9.64629e-09 5.34557e-09 -0.000126178)
(-1.38594e-08 -2.59935e-09 -0.000126181)
(-8.6759e-09 -8.52121e-09 -0.000126227)
(9.38478e-09 -1.04203e-08 -0.000118534)
(-1.79801e-08 7.12076e-09 -0.000118886)
(4.26947e-09 -1.13109e-08 -0.000126299)
(-1.04412e-08 7.77624e-09 -0.000118656)
(7.90396e-09 -1.18481e-08 -0.000118663)
(1.08241e-08 7.55352e-09 -0.000118629)
(-1.04432e-08 3.80929e-09 -0.000126175)
(-1.40144e-08 8.5756e-09 -0.000118524)
(9.38741e-09 7.93835e-09 -0.000118534)
(7.80518e-09 4.49035e-09 -0.00012625)
(1.01111e-08 6.52539e-09 -0.000126169)
(9.67135e-09 1.1346e-09 -0.000119216)
(-9.91413e-09 -5.3744e-10 -0.000119402)
(8.60177e-09 5.29219e-09 -0.000119152)
(-5.42121e-09 -7.59565e-09 -0.000119376)
(1.68332e-09 1.04998e-08 -0.000125356)
(1.7115e-08 -3.92621e-09 -0.000125346)
(-1.0295e-08 -2.67309e-09 -0.000119418)
(9.76513e-09 1.49811e-09 -0.000119203)
(-6.87814e-09 -7.08898e-09 -0.000119391)
(8.47151e-09 5.71281e-09 -0.00011914)
(1.39415e-08 -9.75583e-09 -0.000120531)
(-1.29277e-09 1.0903e-08 -0.000122532)
(2.73868e-09 -9.48635e-09 -0.000122281)
(-2.87109e-09 1.07854e-08 -0.000120784)
(1.67265e-08 8.20349e-09 -0.00012641)
(2.95368e-08 1.44351e-09 -0.000118837)
(1.76272e-08 -1.33489e-08 -0.000126136)
(-9.85709e-09 -7.55151e-09 -0.000118562)
(-2.18028e-08 -3.34449e-09 -0.000126429)
(1.75313e-09 -7.20278e-09 -0.000126193)
(1.725e-08 -1.54001e-08 -0.000126399)
(7.42419e-09 7.4578e-09 -0.000118838)
(5.92075e-09 -7.78912e-09 -0.000126473)
(1.31714e-08 8.74552e-10 -0.000119188)
(-1.33787e-08 -9.32838e-10 -0.000119418)
(6.1324e-09 9.02646e-09 -0.000119135)
(-8.88634e-09 -6.89e-09 -0.000119389)
(-7.36216e-09 -1.57811e-09 -0.000126445)
(4.93538e-09 6.6929e-09 -0.000126261)
(-7.62787e-09 -5.08154e-09 -0.000126415)
(1.086e-08 3.72281e-09 -0.000126174)
(-1.13051e-08 -2.22207e-09 -0.000119433)
(1.21502e-08 6.15051e-10 -0.000119188)
(-5.85672e-09 -8.54945e-09 -0.000119405)
(6.80621e-09 7.70943e-09 -0.000119131)
(-2.46466e-09 -1.17316e-08 -0.000125568)
(-1.6329e-08 8.64189e-10 -0.000125572)
(1.051e-08 1.93588e-09 -0.000119198)
(-1.07678e-08 -1.86054e-09 -0.000119425)
(7.49588e-09 7.26594e-09 -0.000119139)
(-3.86251e-09 -9.02128e-09 -0.000119397)
(6.89274e-09 4.55666e-09 -0.000126247)
(-7.56567e-09 -3.87361e-09 -0.000126466)
(1.03124e-08 5.52458e-09 -0.000126168)
(-7.23664e-09 -6.1854e-09 -0.000126436)
(1.5398e-08 -1.52313e-09 -0.000126418)
(-6.94059e-09 -2.2305e-09 -0.000126203)
(8.64584e-09 9.24538e-09 -0.000126445)
(-1.26186e-08 -1.22867e-08 -0.000120534)
(7.9963e-09 7.79104e-09 -0.000122533)
(1.31335e-09 -7.58542e-09 -0.000122287)
(8.83549e-09 1.22366e-08 -0.00012079)
(-3.12802e-08 2.90801e-10 -0.000118842)
(8.88482e-09 -7.69253e-09 -0.000118568)
(9.28377e-09 -6.19224e-09 -0.000119223)
(-1.18555e-08 2.94491e-09 -0.000119453)
(8.27098e-09 -4.98156e-09 -0.000119262)
(5.91298e-10 -1.3679e-08 -0.000125379)
(2.30999e-09 1.76891e-08 -0.000125571)
(-8.49687e-09 3.14886e-09 -0.0001265)
(3.441e-09 -1.24094e-08 -0.000126328)
(9.5675e-09 -9.14631e-09 -0.000118891)
(1.0299e-08 9.43252e-09 -0.000120596)
(1.0369e-08 4.36017e-09 -0.000122329)
(-8.59593e-09 7.46207e-09 -0.000118897)
(7.57183e-09 -1.03328e-08 -0.000118686)
(1.2273e-08 -7.73199e-09 -0.000120571)
(8.27246e-09 -1.14285e-09 -0.000122317)
(-1.30575e-08 1.20019e-08 -0.00012641)
(-9.93117e-09 -8.21343e-09 -0.000118865)
(1.11706e-08 7.87035e-09 -0.000118649)
(-4.34431e-09 1.06645e-08 -0.000119146)
(8.07679e-09 -9.53205e-09 -0.000119424)
(4.7852e-09 -8.38782e-09 -0.000126428)
(9.51e-09 -9.68757e-09 -0.000118823)
(1.2343e-08 -1.63919e-08 -0.000126376)
(-1.06908e-08 -7.8035e-09 -0.000118824)
(-8.18502e-09 -3.12931e-09 -0.000126453)
(7.74834e-09 4.52657e-09 -0.000126282)
(-1.10315e-08 -6.12789e-09 -0.000126428)
(1.76974e-08 3.59256e-09 -0.000118727)
(-1.1025e-08 2.15714e-09 -0.000126336)
(7.71804e-09 1.43667e-09 -0.00011875)
(5.72482e-09 -1.61856e-09 -0.000126368)
(-1.62368e-08 -3.01317e-09 -0.00011854)
(1.87185e-08 3.30681e-09 -0.000118736)
(1.43433e-08 1.38912e-10 -0.000126199)
(-1.69715e-08 -1.24079e-09 -0.000126347)
(-5.08645e-09 -7.23084e-09 -0.00011869)
(7.87793e-09 5.128e-10 -0.00011875)
(-4.95593e-09 3.13647e-09 -0.000126335)
(5.49363e-09 -1.91511e-09 -0.000126376)
(-1.51656e-08 -4.44163e-09 -0.000118549)
(1.80652e-08 3.37757e-09 -0.000118744)
(1.41938e-08 1.4349e-10 -0.000126205)
(-9.82151e-09 3.89718e-09 -0.000126351)
(-5.15636e-09 -4.69056e-09 -0.000118693)
(7.65793e-09 1.82866e-10 -0.000118753)
(-4.04059e-09 3.07933e-09 -0.000126342)
(5.56668e-09 -9.31512e-10 -0.000126385)
(-1.39615e-08 -4.25651e-09 -0.000118555)
(1.68348e-08 3.97245e-09 -0.000118751)
(1.53126e-08 6.05221e-10 -0.000126207)
(-1.3952e-08 7.06617e-10 -0.000126355)
(-5.56765e-09 -5.739e-09 -0.000118696)
(7.5348e-09 3.15985e-09 -0.000118764)
(-4.17975e-09 3.27032e-09 -0.00012635)
(6.63159e-09 6.37291e-10 -0.000126389)
(-1.39509e-08 -4.30024e-09 -0.000118563)
(1.6704e-08 4.48228e-09 -0.000118759)
(1.54248e-08 1.30957e-10 -0.000126208)
(-1.01372e-08 3.80838e-09 -0.000126355)
(-6.30617e-09 -4.98357e-09 -0.000118705)
(6.37057e-09 3.72842e-09 -0.000118771)
(-3.99916e-09 4.46337e-09 -0.000126353)
(5.29871e-09 -1.56274e-09 -0.000126393)
(-1.79045e-08 -2.33065e-09 -0.000118569)
(1.40302e-08 4.35444e-09 -0.00011876)
(1.53173e-08 6.93604e-10 -0.000126215)
(-1.35015e-08 4.76924e-10 -0.00012636)
(-6.84537e-09 -4.87025e-09 -0.000118716)
(7.14056e-09 1.58655e-09 -0.000118777)
(-5.83995e-09 5.06534e-10 -0.000126355)
(3.9518e-09 -4.07797e-09 -0.000126396)
(-1.82763e-08 -2.67654e-09 -0.000118571)
(1.43559e-08 4.58372e-09 -0.000118765)
(1.53562e-08 3.07719e-10 -0.000126216)
(-1.01144e-08 3.13447e-09 -0.000126364)
(-5.27423e-09 -6.93888e-09 -0.000118713)
(8.11303e-09 8.51325e-10 -0.000118774)
(-6.0416e-09 6.22109e-10 -0.000126357)
(4.68138e-09 -3.89334e-09 -0.000126404)
(-1.53163e-08 -3.85078e-09 -0.000118574)
(1.70175e-08 3.24169e-09 -0.000118765)
(1.4509e-08 2.89684e-10 -0.000126222)
(-1.53563e-08 -2.33878e-10 -0.000126369)
(-5.20959e-09 -6.82336e-09 -0.000118709)
(7.85815e-09 4.39283e-10 -0.000118769)
(-5.0412e-09 1.72798e-09 -0.000126366)
(5.85382e-09 -1.03493e-09 -0.000126407)
(-1.37966e-08 -4.51186e-09 -0.000118575)
(2.0528e-08 2.23747e-09 -0.000118766)
(1.79441e-08 1.45771e-09 -0.00012622)
(-8.64021e-09 3.98448e-09 -0.000126366)
(-6.11526e-09 -4.78606e-09 -0.000118702)
(6.55565e-09 4.49238e-09 -0.000118765)
(-3.70794e-09 4.30133e-09 -0.000126363)
(5.15289e-09 -1.53005e-09 -0.000126402)
(-1.6385e-08 -3.88177e-09 -0.000118574)
(1.59334e-08 3.84171e-09 -0.000118767)
(1.38748e-08 1.20218e-10 -0.000126217)
(-1.39636e-08 6.77355e-10 -0.000126363)
(-6.42985e-09 -3.3836e-09 -0.000118703)
(7.16004e-09 3.60079e-09 -0.000118764)
(-4.74529e-09 2.46439e-09 -0.000126362)
(5.17699e-09 -2.42019e-09 -0.0001264)
(-1.56086e-08 -3.95064e-09 -0.000118572)
(1.45077e-08 4.50192e-09 -0.000118766)
(1.37503e-08 -4.45532e-10 -0.000126211)
(-1.21133e-08 2.28781e-09 -0.000126353)
(-5.85975e-09 -4.63405e-09 -0.000118698)
(7.75951e-09 8.3802e-10 -0.000118757)
(-4.76494e-09 2.47599e-09 -0.000126354)
(5.41175e-09 -1.80594e-09 -0.000126393)
(-1.7678e-08 -3.50406e-09 -0.000118571)
(1.50193e-08 4.84998e-09 -0.000118762)
(1.42992e-08 9.47159e-11 -0.000126207)
(-1.57393e-08 -3.60889e-10 -0.000126351)
(-5.88767e-09 -5.78598e-09 -0.000118691)
(6.26301e-09 3.44724e-09 -0.000118754)
(-5.02798e-09 3.15024e-09 -0.000126349)
(5.27843e-09 -2.31434e-09 -0.000126387)
(-1.77971e-08 -2.94472e-09 -0.000118569)
(1.67129e-08 4.12485e-09 -0.000118764)
(1.41874e-08 -3.28363e-10 -0.000126205)
(-1.07757e-08 3.09904e-09 -0.000126352)
(-7.14892e-09 -4.16358e-09 -0.000118694)
(6.65177e-09 1.95237e-09 -0.000118762)
(-5.53753e-09 1.59726e-09 -0.000126345)
(5.20305e-09 -1.187e-09 -0.000126388)
(-1.74604e-08 -3.07913e-09 -0.000118566)
(1.67309e-08 3.58826e-09 -0.000118764)
(1.56637e-08 3.94072e-10 -0.000126205)
(-1.53571e-08 3.72561e-11 -0.000126361)
(-6.74186e-09 -6.33114e-09 -0.000118697)
(7.78462e-09 2.54409e-09 -0.000118771)
(-5.32776e-09 2.09124e-09 -0.000126345)
(4.00029e-09 -4.21121e-09 -0.000126392)
(-1.44974e-08 -4.61237e-09 -0.000118566)
(1.62813e-08 4.99745e-09 -0.000118779)
(1.61968e-08 7.94718e-10 -0.000126212)
(-8.11473e-09 4.58532e-09 -0.000126377)
(-6.31311e-09 -5.29988e-09 -0.000118694)
(6.98906e-09 2.66373e-09 -0.00011878)
(-6.23684e-09 1.17536e-09 -0.000126342)
(5.19823e-09 -2.83508e-09 -0.000126411)
(-1.57537e-08 -5.25174e-09 -0.000118562)
(1.5414e-08 4.83972e-09 -0.0001188)
(1.55414e-08 -1.06404e-10 -0.000126208)
(-1.20561e-08 2.52805e-09 -0.000126402)
(-5.12226e-09 -6.75962e-09 -0.00011868)
(7.62683e-09 3.1687e-09 -0.000118803)
(-5.31173e-09 2.9059e-09 -0.00012633)
(6.45676e-09 -1.90796e-09 -0.000126438)
(-1.34033e-08 -6.27854e-09 -0.000118542)
(1.44258e-08 6.55085e-09 -0.00011884)
(1.66045e-08 -3.11253e-10 -0.00012619)
(-1.40821e-08 3.1208e-09 -0.000126444)
(-6.56492e-09 -9.48158e-09 -0.000118647)
(7.88931e-09 7.53488e-09 -0.000118847)
(-4.90991e-09 6.2532e-09 -0.000126297)
(6.56229e-09 -4.19996e-09 -0.00012648)
(1.24624e-08 1.30923e-09 -0.000126326)
(7.25865e-09 -1.00031e-09 -0.000126349)
(1.27823e-08 7.84918e-10 -0.000126325)
(-1.62691e-08 6.02229e-10 -0.00012619)
(6.19821e-09 -5.20181e-11 -0.000126348)
(-3.5964e-09 -4.45637e-09 -0.000126315)
(-1.45511e-08 4.78102e-09 -0.000118742)
(1.79298e-08 2.68997e-09 -0.000118727)
(-1.5401e-08 -4.08261e-09 -0.000118541)
(-1.83159e-08 2.83408e-09 -0.000118743)
(1.71096e-08 -3.90298e-09 -0.000118554)
(-5.05954e-09 2.50777e-09 -0.000126378)
(-1.56622e-08 -6.65429e-10 -0.000126339)
(1.65878e-08 6.75023e-10 -0.000126205)
(-8.23168e-09 -3.90578e-09 -0.000126373)
(5.27157e-09 -2.28164e-09 -0.000126335)
(6.38427e-09 -4.33491e-09 -0.000118771)
(7.48756e-09 2.35991e-09 -0.00011875)
(-5.27782e-09 -6.7456e-09 -0.00011869)
(5.42995e-09 -5.50927e-09 -0.000118779)
(-6.4207e-09 2.81963e-09 -0.000118713)
(-6.68862e-09 2.50521e-09 -0.000118776)
(-7.80858e-09 -1.00378e-09 -0.000118751)
(-7.82145e-09 3.42549e-10 -0.000118773)
(5.25989e-09 -7.80157e-09 -0.000118714)
(-6.80108e-09 -2.16665e-09 -0.000118748)
(4.94752e-09 7.24711e-09 -0.000118697)
(1.17416e-08 -9.09038e-10 -0.00012635)
(5.08233e-09 -2.76016e-09 -0.000126376)
(-7.4101e-09 -1.71977e-09 -0.000126326)
(1.16539e-08 -1.02428e-09 -0.000126348)
(-1.9401e-08 -3.18402e-09 -0.000126224)
(1.75389e-08 -4.02756e-09 -0.000118746)
(-1.71662e-08 -5.26065e-09 -0.000118736)
(1.87986e-08 -2.60176e-09 -0.000118744)
(-1.59257e-08 3.90351e-09 -0.000118557)
(-1.83261e-08 -3.40483e-09 -0.000118732)
(1.65649e-08 4.23878e-09 -0.000118543)
(-7.15619e-09 4.36057e-10 -0.000126348)
(-1.39286e-08 -1.84993e-10 -0.000126324)
(-7.73463e-09 2.38033e-09 -0.000126344)
(4.46998e-09 3.05227e-09 -0.000126314)
(-1.26651e-08 -5.15851e-10 -0.000126322)
(1.62449e-08 -8.94066e-10 -0.000126188)
(-1.41141e-08 7.51059e-11 -0.000126188)
(1.25547e-08 9.04205e-10 -0.000126333)
(-4.05651e-09 -3.79453e-09 -0.000126312)
(7.67047e-09 -1.8573e-09 -0.000126351)
(1.25726e-08 3.76553e-10 -0.000126335)
(-1.54556e-08 9.18799e-10 -0.0001262)
(7.51918e-09 -1.3357e-09 -0.00012635)
(-3.23955e-09 -5.65732e-09 -0.000126317)
(1.55584e-08 -3.66431e-09 -0.000118552)
(-1.99858e-08 1.93448e-09 -0.000118749)
(1.83789e-08 3.28246e-09 -0.000118738)
(-1.44544e-08 -4.75326e-09 -0.000118547)
(-2.02522e-08 2.4883e-09 -0.000118749)
(1.23049e-08 -5.77543e-09 -0.000118558)
(3.22552e-09 -5.06948e-09 -0.000126337)
(-6.62562e-09 -4.50766e-10 -0.000126376)
(-1.86958e-08 -2.00925e-09 -0.000126348)
(1.42399e-08 -6.69849e-10 -0.000126205)
(-7.12991e-09 -4.91319e-10 -0.000126375)
(5.68123e-09 -1.45644e-09 -0.000126342)
(-6.26833e-09 4.85467e-09 -0.000118718)
(7.5864e-09 -2.1626e-09 -0.000118779)
(6.47888e-09 3.52407e-09 -0.000118748)
(-5.19336e-09 -6.00609e-09 -0.000118692)
(6.20627e-09 -6.42142e-09 -0.000118781)
(-6.46975e-09 4.82233e-09 -0.000118719)
(4.64663e-09 -8.86959e-09 -0.000118713)
(-6.87174e-09 3.44186e-09 -0.000118778)
(5.18045e-09 6.50825e-09 -0.000118692)
(-7.38124e-09 -2.40316e-09 -0.000118756)
(-6.62463e-09 3.8756e-09 -0.000118776)
(6.64031e-09 -3.86508e-09 -0.000118719)
(-6.94159e-09 -3.11935e-09 -0.000118755)
(5.48526e-09 6.05187e-09 -0.000118699)
(-1.4636e-08 -3.60304e-10 -0.000126215)
(1.31347e-08 -1.74657e-09 -0.000126361)
(5.10421e-09 -1.27404e-09 -0.000126381)
(-6.45541e-09 -9.49251e-10 -0.000126336)
(1.33447e-08 -1.86689e-09 -0.000126353)
(-1.80616e-08 -1.1353e-09 -0.00012623)
(-1.68552e-08 3.71642e-09 -0.000118553)
(1.64044e-08 -3.75973e-09 -0.000118751)
(1.81308e-08 3.93954e-09 -0.000118541)
(-1.83231e-08 -3.78179e-09 -0.000118737)
(1.67004e-08 -3.28411e-09 -0.000118743)
(-1.7449e-08 3.26906e-09 -0.000118562)
(-1.67766e-08 -3.92429e-09 -0.000118739)
(1.56121e-08 4.36992e-09 -0.000118549)
(4.12466e-09 4.75069e-09 -0.000126308)
(-7.50218e-09 7.25772e-10 -0.000126349)
(1.72924e-08 -1.71698e-09 -0.000126186)
(-1.30333e-08 -6.1285e-10 -0.000126329)
(-6.63875e-09 7.62907e-10 -0.000126348)
(3.94666e-09 4.32836e-09 -0.000126315)
(-1.11507e-08 -1.71721e-09 -0.000126332)
(1.6147e-08 -1.07239e-09 -0.000126193)
(-1.5069e-08 5.15259e-10 -0.000126198)
(1.31594e-08 7.33405e-10 -0.000126343)
(-4.41698e-09 -3.55006e-09 -0.000126314)
(8.61212e-09 -2.54344e-09 -0.000126355)
(1.5828e-08 -2.44263e-10 -0.000126344)
(-1.47983e-08 -1.75073e-10 -0.000126206)
(5.61001e-09 7.92212e-10 -0.000126353)
(-3.03274e-09 -6.17426e-09 -0.000126321)
(1.42876e-08 -4.25414e-09 -0.000118557)
(-1.28574e-08 5.37436e-09 -0.000118749)
(1.96979e-08 2.2619e-09 -0.000118743)
(-1.43491e-08 -4.40309e-09 -0.000118554)
(-1.84707e-08 3.36779e-09 -0.00011875)
(1.76608e-08 -2.97114e-09 -0.000118565)
(5.54834e-09 -8.07626e-10 -0.000126343)
(-4.22148e-09 4.10938e-09 -0.000126384)
(-1.60228e-08 -6.99611e-10 -0.000126351)
(1.68773e-08 1.18439e-09 -0.00012622)
(-7.69378e-09 -2.887e-09 -0.000126382)
(5.7704e-09 -6.73939e-10 -0.000126344)
(-7.29425e-09 2.94511e-09 -0.00011872)
(7.85542e-09 -2.39646e-09 -0.000118787)
(6.83845e-09 4.18318e-09 -0.000118754)
(-4.82166e-09 -7.43788e-09 -0.000118695)
(6.95585e-09 -2.31201e-09 -0.000118788)
(-5.85522e-09 5.60809e-09 -0.000118728)
(5.02643e-09 -5.77989e-09 -0.00011872)
(-5.79943e-09 5.78395e-09 -0.000118783)
(6.01616e-09 5.50354e-09 -0.000118696)
(-7.79387e-09 -3.03679e-09 -0.000118761)
(-7.38805e-09 1.60646e-09 -0.000118781)
(6.42517e-09 -3.73295e-09 -0.000118723)
(-7.99384e-09 -1.29121e-09 -0.000118755)
(5.60875e-09 6.34801e-09 -0.000118703)
(-1.45562e-08 3.11491e-10 -0.000126215)
(1.36946e-08 -2.10132e-09 -0.000126359)
(5.19679e-09 -1.76302e-09 -0.000126389)
(-6.34033e-09 -2.88863e-10 -0.000126346)
(1.12312e-08 -1.93635e-09 -0.000126347)
(-1.85051e-08 -1.71201e-09 -0.000126226)
(-1.85062e-08 2.78475e-09 -0.000118552)
(1.5959e-08 -3.75635e-09 -0.000118744)
(1.8918e-08 2.97183e-09 -0.000118547)
(-1.49326e-08 -5.12495e-09 -0.000118744)
(1.67222e-08 -3.63117e-09 -0.000118733)
(-1.77635e-08 2.71871e-09 -0.000118557)
(-1.52206e-08 -4.11449e-09 -0.00011874)
(1.78014e-08 3.00009e-09 -0.000118554)
(4.37181e-09 3.0485e-09 -0.000126313)
(-5.82103e-09 -9.50406e-10 -0.000126352)
(1.86668e-08 -2.14463e-09 -0.000126194)
(-1.45319e-08 -8.35285e-10 -0.000126339)
(-7.49502e-09 2.94851e-09 -0.000126349)
(4.82963e-09 1.90935e-09 -0.000126319)
(-1.25824e-08 -1.24823e-09 -0.000126337)
(1.57038e-08 -3.1658e-10 -0.000126199)
(-1.15256e-08 -1.52322e-09 -0.000126204)
(1.53107e-08 -1.44277e-10 -0.00012635)
(-4.57207e-09 -1.99133e-09 -0.00012632)
(6.03254e-09 5.4163e-10 -0.000126362)
(1.46587e-08 3.37822e-10 -0.00012635)
(-1.39013e-08 -5.62046e-10 -0.000126213)
(4.66454e-09 8.85818e-10 -0.000126363)
(-4.03874e-09 -3.18064e-09 -0.000126329)
(1.63017e-08 -3.89914e-09 -0.000118555)
(-1.60367e-08 4.50846e-09 -0.000118754)
(1.96947e-08 2.34543e-09 -0.000118749)
(-1.5408e-08 -4.17748e-09 -0.00011856)
(-1.78542e-08 2.6538e-09 -0.00011875)
(1.64018e-08 -3.88351e-09 -0.000118563)
(3.73433e-09 -4.11808e-09 -0.000126347)
(-7.03725e-09 -1.40479e-09 -0.000126388)
(-1.56094e-08 -5.45847e-10 -0.000126351)
(1.78212e-08 1.47865e-09 -0.000126216)
(-7.72654e-09 -3.11034e-09 -0.00012639)
(5.12254e-09 -1.70522e-09 -0.000126356)
(-5.27768e-09 5.81444e-09 -0.000118729)
(7.81567e-09 -2.27399e-10 -0.000118791)
(6.40099e-09 4.08298e-09 -0.000118763)
(-6.43153e-09 -4.49994e-09 -0.000118703)
(6.24821e-09 -3.54653e-09 -0.000118795)
(-5.47824e-09 6.92039e-09 -0.000118732)
(5.03738e-09 -7.4955e-09 -0.000118721)
(-7.35695e-09 2.63005e-09 -0.000118787)
(5.31041e-09 7.40242e-09 -0.000118696)
(-7.66048e-09 -2.78271e-09 -0.000118761)
(-6.98059e-09 3.40034e-09 -0.000118786)
(6.10489e-09 -5.27419e-09 -0.000118729)
(-6.24208e-09 -4.47339e-09 -0.000118757)
(6.46597e-09 4.83861e-09 -0.000118703)
(-1.551e-08 -9.13551e-10 -0.000126211)
(1.04767e-08 -2.13806e-09 -0.000126355)
(5.60481e-09 -7.36208e-10 -0.000126393)
(-5.78366e-09 8.45087e-10 -0.000126348)
(9.53512e-09 -2.80921e-09 -0.000126347)
(-2.10216e-08 -4.00673e-09 -0.000126225)
(-1.86654e-08 2.86229e-09 -0.000118542)
(1.46836e-08 -4.69561e-09 -0.000118741)
(1.9908e-08 2.67742e-09 -0.000118548)
(-1.70935e-08 -4.33061e-09 -0.000118744)
(1.58344e-08 -3.81558e-09 -0.000118733)
(-1.87831e-08 3.02961e-09 -0.000118551)
(-1.84273e-08 -2.84937e-09 -0.000118742)
(1.65061e-08 3.96355e-09 -0.000118554)
(2.81817e-09 5.42583e-09 -0.000126314)
(-6.36973e-09 6.79379e-11 -0.000126352)
(1.87965e-08 -2.15228e-09 -0.000126198)
(-1.41173e-08 -9.77665e-10 -0.000126339)
(-6.33372e-09 2.10255e-10 -0.00012635)
(4.81135e-09 2.35799e-09 -0.000126318)
(-1.45151e-08 -1.16476e-10 -0.000126337)
(1.57129e-08 -3.33801e-10 -0.0001262)
(-1.29863e-08 -9.00603e-10 -0.000126212)
(1.3056e-08 8.00887e-10 -0.000126357)
(-5.26244e-09 -6.52466e-10 -0.000126331)
(6.56012e-09 3.9674e-10 -0.000126373)
(1.20577e-08 1.63825e-09 -0.000126359)
(-1.61901e-08 1.10672e-09 -0.00012622)
(4.55132e-09 2.52872e-09 -0.000126378)
(-4.75357e-09 -2.83355e-09 -0.000126339)
(1.63624e-08 -3.2749e-09 -0.000118559)
(-1.28998e-08 5.38396e-09 -0.000118757)
(1.59777e-08 3.69134e-09 -0.000118757)
(-1.6893e-08 -3.65259e-09 -0.000118567)
(-1.78073e-08 3.50829e-09 -0.000118758)
(1.75946e-08 -3.40517e-09 -0.000118571)
(4.55357e-09 -1.98956e-09 -0.000126358)
(-3.03807e-09 4.5517e-09 -0.0001264)
(-1.50579e-08 -5.85316e-11 -0.000126356)
(1.7634e-08 1.36068e-09 -0.000126224)
(-7.11401e-09 -1.67107e-09 -0.0001264)
(5.98913e-09 -3.39092e-10 -0.000126359)
(-6.11599e-09 4.48416e-09 -0.000118735)
(7.0357e-09 -3.68385e-09 -0.000118799)
(6.19015e-09 5.25526e-09 -0.000118778)
(-6.26852e-09 -3.50922e-09 -0.000118712)
(5.21552e-09 -7.01709e-09 -0.000118802)
(-7.23093e-09 3.10182e-09 -0.00011874)
(5.67247e-09 -5.85433e-09 -0.000118727)
(-5.46229e-09 6.82866e-09 -0.000118797)
(6.10495e-09 5.03583e-09 -0.000118699)
(-7.18942e-09 -4.3538e-09 -0.000118763)
(-6.44356e-09 3.59031e-09 -0.000118796)
(7.14283e-09 -2.48133e-09 -0.000118733)
(-5.53253e-09 -6.74068e-09 -0.000118758)
(7.12659e-09 3.27088e-09 -0.000118704)
(-1.8008e-08 -1.58622e-09 -0.00012621)
(7.26383e-09 -4.98043e-09 -0.000126356)
(2.79881e-09 -5.16967e-09 -0.000126395)
(-7.14526e-09 -1.76229e-09 -0.000126353)
(8.82997e-09 -2.93564e-09 -0.000126347)
(-2.43781e-08 -5.38129e-09 -0.000126226)
(-1.94313e-08 2.27657e-09 -0.000118543)
(1.25571e-08 -5.40035e-09 -0.000118742)
(1.66612e-08 3.40947e-09 -0.000118552)
(-1.69606e-08 -4.55933e-09 -0.000118748)
(1.60558e-08 -3.45542e-09 -0.000118737)
(-2.11089e-08 1.88183e-09 -0.000118555)
(-1.83573e-08 -2.37737e-09 -0.000118744)
(1.78981e-08 3.56746e-09 -0.000118557)
(4.68035e-09 2.9927e-09 -0.000126314)
(-4.86033e-09 -2.82075e-09 -0.000126353)
(1.5913e-08 -9.70275e-10 -0.000126198)
(-1.51676e-08 3.63121e-10 -0.000126341)
(-4.34314e-09 -3.30979e-09 -0.00012635)
(6.11731e-09 -9.75952e-11 -0.000126319)
(-1.42716e-08 1.70316e-10 -0.000126338)
(1.5055e-08 -3.50268e-10 -0.000126204)
(-1.52794e-08 3.40944e-10 -0.000126219)
(1.09603e-08 2.09927e-09 -0.000126362)
(-5.09895e-09 -1.02471e-09 -0.000126343)
(5.84274e-09 6.04975e-10 -0.00012638)
(1.06198e-08 1.8769e-09 -0.000126359)
(-1.78027e-08 1.6286e-09 -0.000126225)
(6.05242e-09 -7.15072e-11 -0.000126375)
(-4.95587e-09 -2.52681e-09 -0.000126344)
(1.67399e-08 -3.56073e-09 -0.000118567)
(-1.71162e-08 3.32373e-09 -0.000118762)
(1.52297e-08 4.08105e-09 -0.000118758)
(-1.93825e-08 -2.82411e-09 -0.000118572)
(-2.03196e-08 1.84508e-09 -0.000118761)
(1.53002e-08 -4.92694e-09 -0.000118569)
(3.85969e-09 -4.40964e-09 -0.000126362)
(-6.23914e-09 6.944e-10 -0.000126399)
(-1.63326e-08 -1.0339e-09 -0.000126359)
(1.81902e-08 1.46307e-09 -0.000126219)
(-7.50071e-09 -3.03951e-09 -0.000126394)
(6.07561e-09 -8.50101e-10 -0.000126365)
(-7.21998e-09 2.82293e-09 -0.000118738)
(6.03067e-09 -5.44966e-09 -0.000118801)
(7.34389e-09 1.54339e-09 -0.000118771)
(-5.81305e-09 -5.97293e-09 -0.000118715)
(5.18736e-09 -7.28944e-09 -0.000118801)
(-7.68356e-09 1.26854e-09 -0.000118742)
(5.98939e-09 -6.06203e-09 -0.000118734)
(-7.2631e-09 2.09342e-09 -0.000118798)
(7.09567e-09 2.64155e-09 -0.000118699)
(-6.51522e-09 -4.45653e-09 -0.000118759)
(-6.81678e-09 2.0956e-09 -0.00011879)
(5.46029e-09 -6.54393e-09 -0.000118738)
(-5.84523e-09 -4.94853e-09 -0.000118758)
(6.19869e-09 4.08923e-09 -0.000118704)
(-1.73095e-08 -1.18531e-09 -0.000126211)
(8.94147e-09 -3.1495e-09 -0.000126355)
(3.57864e-09 -4.42849e-09 -0.000126397)
(-8.36168e-09 -3.0692e-09 -0.000126353)
(7.88468e-09 -3.90219e-09 -0.000126349)
(-2.26904e-08 -4.1742e-09 -0.000126225)
(-1.89441e-08 3.01585e-09 -0.000118548)
(1.37517e-08 -4.75099e-09 -0.000118746)
(1.65174e-08 3.77423e-09 -0.000118553)
(-1.83291e-08 -3.09945e-09 -0.000118748)
(1.44258e-08 -4.07375e-09 -0.000118742)
(-2.00293e-08 2.44364e-09 -0.000118558)
(-1.91151e-08 -2.78774e-09 -0.00011875)
(1.55605e-08 4.55344e-09 -0.000118559)
(6.05364e-09 2.23108e-10 -0.000126314)
(-5.74993e-09 -1.03868e-09 -0.000126351)
(1.54962e-08 -1.77529e-10 -0.000126198)
(-1.40403e-08 -4.5014e-10 -0.000126341)
(-5.93847e-09 5.03764e-11 -0.000126351)
(5.30174e-09 1.6047e-09 -0.000126319)
(-1.43461e-08 -2.41242e-10 -0.000126341)
(1.58987e-08 -5.2817e-10 -0.000126203)