/*--------------------------------*- C++ -*----------------------------------*\
| =========                 |                                                 |
| \\      /  F ield         | OpenFOAM: The Open Source CFD Toolbox           |
|  \\    /   O peration     | Version:  2206                                  |
|   \\  /    A nd           | Website:  www.openfoam.com                      |
|    \\/     M anipulation  |                                                 |
\*---------------------------------------------------------------------------*/
FoamFile
{
    version     2.0;
    format      ascii;
    arch        "LSB;label=32;scalar=64";
    class       volScalarField;
    location    "40";
    object      nut;
}
// * * * * * * * * * * * * * * * * * * * * * * * * * * * * * * * * * * * * * //

dimensions      [0 2 -1 0 0 0 0];

internalField   nonuniform List<scalar> 
67442
(
1.24607e-06
9.52279e-07
9.66488e-07
9.39526e-07
9.38502e-07
9.59645e-07
9.65672e-07
9.45931e-07
9.46008e-07
9.50257e-07
9.44222e-07
9.47073e-07
9.67102e-07
3.04311e-08
1.38232e-07
1.3699e-08
2.951e-08
1.30804e-07
1.25612e-06
1.25794e-06
1.2541e-06
1.47671e-07
1.18371e-06
4.51107e-07
1.36026e-08
1.20735e-06
1.51553e-07
4.74862e-07
6.96585e-08
7.07167e-08
1.36785e-08
1.3322e-08
7.20083e-08
6.93104e-08
3.09704e-08
1.3855e-07
1.51391e-07
1.21031e-06
4.77465e-07
1.52559e-07
1.21384e-06
4.78735e-07
7.23413e-08
7.04806e-08
1.34953e-08
1.46533e-07
1.18126e-06
4.47535e-07
3.01981e-08
1.31635e-07
1.18346e-06
1.49047e-07
4.47652e-07
3.00864e-08
1.3313e-07
1.18294e-06
1.46127e-07
4.49763e-07
2.99032e-08
1.31708e-07
7.09967e-08
7.28896e-08
1.36669e-08
1.20618e-06
1.50484e-07
4.75758e-07
3.03416e-08
1.36683e-07
3.03691e-08
1.3732e-07
1.33412e-08
1.34833e-08
1.19322e-08
3.10902e-08
6.6603e-08
6.67085e-08
1.19449e-08
1.95879e-08
1.39215e-07
2.31643e-08
1.12264e-07
2.36055e-08
1.13063e-07
1.97549e-08
1.3743e-08
1.87808e-08
1.30605e-07
1.06933e-07
2.22876e-08
1.15996e-08
2.96097e-08
6.40573e-08
6.42786e-08
1.16345e-08
1.16424e-08
2.95787e-08
6.41329e-08
1.89429e-08
1.30392e-07
1.06735e-07
2.22327e-08
1.06672e-07
2.24242e-08
1.89877e-08
1.36769e-08
1.37317e-08
1.15973e-07
2.55594e-07
6.9083e-08
2.74081e-08
2.54696e-07
2.73574e-08
1.15584e-07
1.15887e-07
2.58425e-07
7.10376e-08
2.70888e-08
2.5822e-07
2.71249e-08
1.16e-07
3.89205e-08
1.13935e-08
1.13189e-08
1.13857e-08
1.13145e-08
3.94142e-08
1.37521e-08
1.33912e-08
1.34078e-08
1.17154e-07
2.61014e-07
7.23285e-08
2.77623e-08
2.80417e-08
2.60513e-07
1.16901e-07
1.15747e-07
2.53163e-07
7.01608e-08
2.68985e-08
2.7042e-08
2.5291e-07
1.15407e-07
3.81455e-08
1.1441e-08
1.12882e-08
1.14677e-08
1.13152e-08
3.91882e-08
1.18077e-08
3.05114e-08
6.64213e-08
6.67163e-08
1.17949e-08
1.95163e-08
1.38857e-07
2.33367e-08
1.11912e-07
2.3205e-08
1.12352e-07
1.95689e-08
1.16618e-07
2.60819e-07
7.26266e-08
2.76503e-08
2.7482e-08
2.60845e-07
1.16787e-07
1.16735e-07
2.56765e-07
7.06056e-08
2.77715e-08
2.55089e-07
2.76244e-08
1.1614e-07
3.88991e-08
1.1436e-08
1.14782e-08
1.14763e-08
1.14688e-08
3.9198e-08
1.35089e-08
1.89111e-08
1.3157e-07
2.23744e-08
1.07631e-07
1.18323e-08
3.07725e-08
6.52072e-08
6.56078e-08
1.18418e-08
1.18714e-08
3.05886e-08
6.55301e-08
1.90712e-08
1.32331e-07
2.2316e-08
1.07395e-07
2.24215e-08
1.08265e-07
1.9131e-08
1.17577e-08
3.01845e-08
6.50175e-08
6.5232e-08
1.17442e-08
1.92768e-08
1.33284e-07
1.08504e-07
2.28394e-08
1.0838e-07
2.26701e-08
1.93685e-08
1.15331e-08
2.96585e-08
6.39321e-08
6.42333e-08
1.1531e-08
1.89225e-08
1.3187e-07
2.26376e-08
1.06928e-07
2.21968e-08
1.07424e-07
1.90113e-08
1.18015e-07
2.5751e-07
7.1422e-08
2.75795e-08
2.78016e-08
2.56461e-07
1.17779e-07
1.18153e-07
2.6177e-07
7.23345e-08
2.84182e-08
2.6058e-07
2.82448e-08
1.18232e-07
3.92606e-08
1.15868e-08
1.17391e-08
1.15954e-08
1.17152e-08
4.03612e-08
1.36813e-08
1.16549e-08
3.0471e-08
6.57786e-08
6.59094e-08
1.16636e-08
1.92415e-08
1.37473e-07
1.10535e-07
2.29678e-08
1.11796e-07
2.26125e-08
1.92585e-08
1.1731e-08
3.01502e-08
6.60711e-08
6.61135e-08
1.17478e-08
1.91769e-08
1.37788e-07
1.10818e-07
2.27419e-08
1.11081e-07
2.28124e-08
1.92871e-08
1.33228e-08
1.34241e-08
1.20195e-06
1.20603e-06
1.10787e-06
3.16322e-07
5.4786e-07
5.55239e-07
9.22988e-07
5.39498e-07
5.48408e-07
3.18406e-07
3.16554e-07
5.51889e-07
5.50299e-07
9.22544e-07
5.46118e-07
5.41585e-07
3.17684e-07
3.1825e-07
5.54432e-07
5.54429e-07
9.2966e-07
5.45006e-07
5.47774e-07
3.19883e-07
3.21298e-07
5.52895e-07
5.60576e-07
9.30825e-07
5.53108e-07
5.45205e-07
3.21367e-07
1.21496e-06
1.20638e-06
1.09882e-06
1.21012e-06
1.21265e-06
1.11031e-06
1.20974e-06
1.21683e-06
1.10477e-06
6.4737e-07
4.30715e-07
1.47827e-07
2.57827e-07
4.27175e-07
2.58062e-07
6.57307e-07
7.29457e-07
4.4912e-07
3.82953e-07
8.11394e-07
3.81269e-07
7.96235e-07
7.41533e-07
6.70053e-07
4.40953e-07
1.52006e-07
2.66299e-07
4.39107e-07
2.65192e-07
6.7367e-07
7.56753e-07
4.74356e-07
8.31843e-07
3.98818e-07
8.29099e-07
3.98119e-07
7.59526e-07
6.73963e-07
4.43132e-07
1.51885e-07
2.68818e-07
2.68449e-07
4.41435e-07
6.77004e-07
7.60484e-07
4.7898e-07
4.01884e-07
8.34096e-07
4.02324e-07
8.31493e-07
7.63025e-07
6.76416e-07
4.44645e-07
1.53158e-07
2.68814e-07
2.68926e-07
4.42161e-07
6.79453e-07
7.6071e-07
4.7848e-07
4.03249e-07
8.34913e-07
4.02215e-07
8.31977e-07
7.63794e-07
6.43898e-07
4.28655e-07
1.47636e-07
2.55718e-07
2.54824e-07
4.24699e-07
6.53912e-07
7.25094e-07
4.4688e-07
3.78428e-07
8.0685e-07
3.77453e-07
7.92475e-07
7.37034e-07
6.49855e-07
4.34321e-07
1.49842e-07
2.59261e-07
2.58368e-07
4.30623e-07
6.5972e-07
7.2755e-07
4.45933e-07
8.07725e-07
3.80038e-07
7.93548e-07
3.77922e-07
7.39453e-07
6.44026e-07
4.30224e-07
1.46454e-07
2.56074e-07
4.25441e-07
2.55898e-07
6.53462e-07
7.23428e-07
4.48058e-07
8.08136e-07
3.78493e-07
7.9338e-07
3.7591e-07
7.35718e-07
6.70271e-07
4.39094e-07
1.51421e-07
2.667e-07
4.35927e-07
2.67671e-07
6.73412e-07
7.55716e-07
4.76173e-07
8.32232e-07
3.99604e-07
8.29125e-07
3.98151e-07
7.58847e-07
2.17976e-09
2.4167e-10
1.80472e-11
3.74971e-12
3.56395e-12
2.24634e-09
2.52367e-10
1.92902e-11
4.21683e-12
4.03602e-12
2.16082e-09
2.39262e-10
1.78912e-11
3.75428e-12
3.57375e-12
2.2687e-09
2.54358e-10
1.94171e-11
4.22934e-12
4.04602e-12
2.25302e-09
2.52795e-10
1.9315e-11
4.22052e-12
4.03921e-12
2.222e-09
2.49268e-10
1.90899e-11
4.21867e-12
4.04381e-12
2.17485e-09
2.41154e-10
1.80077e-11
3.74735e-12
3.56293e-12
2.24021e-09
2.51635e-10
1.92484e-11
4.22615e-12
4.04756e-12
2.20586e-09
2.44348e-10
1.82179e-11
3.76351e-12
3.57439e-12
2.18012e-09
2.41712e-10
1.80509e-11
3.76025e-12
3.57581e-12
2.15449e-09
2.38829e-10
1.78718e-11
3.75515e-12
3.57512e-12
2.24245e-09
2.51913e-10
1.92617e-11
4.21853e-12
4.03881e-12
2.14736e-09
2.38156e-10
1.78172e-11
3.74194e-12
3.56249e-12
2.1426e-09
2.37468e-10
1.77728e-11
3.74055e-12
3.56219e-12
2.20632e-09
2.47692e-10
1.89931e-11
4.21689e-12
4.04473e-12
2.20174e-09
2.47326e-10
1.89657e-11
4.2072e-12
4.03485e-12
2.23392e-09
2.49733e-10
1.9132e-11
4.24262e-12
4.06847e-12
2.18975e-09
2.42771e-10
1.81233e-11
3.76517e-12
3.57911e-12
2.25424e-09
2.53102e-10
1.93378e-11
4.22898e-12
4.04821e-12
1.95051e-09
2.16936e-10
1.67093e-11
3.89872e-12
3.76255e-12
2.00379e-09
2.24075e-10
1.72938e-11
4.02517e-12
3.88447e-12
2.2076e-09
2.46575e-10
1.89242e-11
4.2413e-12
4.0731e-12
2.16094e-09
2.39707e-10
1.79339e-11
3.76512e-12
3.58431e-12
2.16141e-09
2.39806e-10
1.79336e-11
3.75448e-12
3.57255e-12
2.27195e-09
2.55193e-10
1.94815e-11
4.24027e-12
4.05615e-12
2.28081e-09
2.55778e-10
1.95076e-11
4.2309e-12
4.04513e-12
2.12287e-09
2.35315e-10
1.7684e-11
3.78579e-12
3.61385e-12
2.12906e-09
2.36039e-10
1.77319e-11
3.79644e-12
3.62427e-12
2.0951e-09
2.32328e-10
1.74958e-11
3.77655e-12
3.60902e-12
2.09854e-09
2.32829e-10
1.75335e-11
3.78797e-12
3.62055e-12
1.99823e-09
2.23663e-10
1.74492e-11
4.1747e-12
4.0414e-12
1.9806e-09
2.21825e-10
1.7333e-11
4.1691e-12
4.0386e-12
2.00295e-09
2.24237e-10
1.74865e-11
4.18446e-12
4.05104e-12
1.98489e-09
2.22325e-10
1.73677e-11
4.1803e-12
4.04989e-12
2.2589e-09
2.53715e-10
1.93858e-11
4.23383e-12
4.05183e-12
2.22828e-09
2.50191e-10
1.91581e-11
4.22928e-12
4.05351e-12
2.23209e-09
2.50558e-10
1.91742e-11
4.2199e-12
4.04269e-12
2.18117e-09
2.4179e-10
1.80505e-11
3.76109e-12
3.57698e-12
2.15388e-09
2.3876e-10
1.79036e-11
3.79315e-12
3.61567e-12
2.15737e-09
2.39177e-10
1.79312e-11
3.80249e-12
3.62524e-12
2.01602e-09
2.25712e-10
1.75835e-11
4.1786e-12
4.0418e-12
2.0195e-09
2.26165e-10
1.76134e-11
4.18901e-12
4.0524e-12
2.24382e-09
2.51962e-10
1.92696e-11
4.23447e-12
4.05607e-12
1.96526e-09
2.18557e-10
1.68139e-11
3.90244e-12
3.76357e-12
2.00817e-09
2.24576e-10
1.73236e-11
4.02609e-12
3.88469e-12
2.25123e-09
2.51416e-10
1.92355e-11
4.24982e-12
4.07345e-12
2.21724e-09
2.45528e-10
1.8299e-11
3.77524e-12
3.585e-12
2.22019e-09
2.45877e-10
1.83136e-11
3.76504e-12
3.57334e-12
2.18289e-09
2.42043e-10
1.8076e-11
3.76994e-12
3.58575e-12
2.1927e-09
2.45095e-10
1.88347e-11
4.2391e-12
4.0731e-12
2.16004e-09
2.39473e-10
1.79145e-11
3.76576e-12
3.58566e-12
2.18427e-09
2.42049e-10
1.81094e-11
3.79605e-12
3.61284e-12
2.18691e-09
2.42439e-10
1.8139e-11
3.80799e-12
3.62528e-12
2.05309e-09
2.29699e-10
1.78351e-11
4.18586e-12
4.04248e-12
2.24745e-09
2.52424e-10
1.92975e-11
4.22964e-12
4.0501e-12
2.17736e-09
2.43357e-10
1.87101e-11
4.22825e-12
4.06534e-12
2.15257e-09
2.38696e-10
1.78547e-11
3.75597e-12
3.57711e-12
2.19058e-09
2.44627e-10
1.87872e-11
4.23082e-12
4.06599e-12
2.1484e-09
2.38237e-10
1.78284e-11
3.75475e-12
3.57639e-12
2.21261e-09
2.48484e-10
1.90462e-11
4.22606e-12
4.05326e-12
2.20616e-09
2.47931e-10
1.90079e-11
4.21985e-12
4.04765e-12
2.20686e-09
2.46693e-10
1.89287e-11
4.23603e-12
4.06753e-12
2.23373e-09
2.49551e-10
1.91169e-11
4.24706e-12
4.07391e-12
1.97495e-09
2.19882e-10
1.69103e-11
3.90827e-12
3.76719e-12
2.01965e-09
2.26122e-10
1.74236e-11
4.01931e-12
3.87427e-12
2.02542e-09
2.26973e-10
1.7489e-11
4.0325e-12
3.88694e-12
1.967e-09
2.1889e-10
1.68366e-11
3.89352e-12
3.75282e-12
2.22513e-09
2.48597e-10
1.90451e-11
4.22437e-12
4.05081e-12
2.14138e-09
2.37484e-10
1.78242e-11
3.78725e-12
3.61135e-12
2.14502e-09
2.37968e-10
1.78581e-11
3.79881e-12
3.6232e-12
2.0049e-09
2.24586e-10
1.75155e-11
4.17723e-12
4.0421e-12
2.0086e-09
2.25004e-10
1.75434e-11
4.18712e-12
4.05216e-12
2.20297e-09
2.46033e-10
1.88798e-11
4.22906e-12
4.06096e-12
1.95613e-09
2.17405e-10
1.67404e-11
3.9064e-12
3.77007e-12
2.00281e-09
2.24044e-10
1.72877e-11
4.02522e-12
3.88473e-12
2.00437e-09
2.24249e-10
1.73092e-11
4.03208e-12
3.89158e-12
1.9545e-09
2.17264e-10
1.67238e-11
3.89924e-12
3.7628e-12
2.20707e-09
2.46767e-10
1.89301e-11
4.22986e-12
4.06028e-12
2.16361e-09
2.39476e-10
1.79391e-11
3.79431e-12
3.61599e-12
2.16627e-09
2.40013e-10
1.79838e-11
3.80436e-12
3.62568e-12
2.04086e-09
2.2797e-10
1.7715e-11
4.18131e-12
4.04104e-12
2.04387e-09
2.28608e-10
1.77657e-11
4.19193e-12
4.05121e-12
2.15269e-09
2.3836e-10
1.78686e-11
3.78789e-12
3.61084e-12
2.15736e-09
2.3895e-10
1.79139e-11
3.80045e-12
3.62355e-12
2.00909e-09
2.24401e-10
1.74864e-11
4.17273e-12
4.03828e-12
2.01193e-09
2.2521e-10
1.75489e-11
4.18454e-12
4.04942e-12
2.11746e-09
2.34416e-10
1.7624e-11
3.78472e-12
3.61441e-12
2.1161e-09
2.34724e-10
1.76586e-11
3.79474e-12
3.62425e-12
1.99188e-09
2.22569e-10
1.73737e-11
4.17153e-12
4.04008e-12
1.99454e-09
2.23334e-10
1.74337e-11
4.18271e-12
4.05064e-12
1.95605e-09
2.17617e-10
1.67531e-11
3.90421e-12
3.76755e-12
2.00977e-09
2.25258e-10
1.73723e-11
4.01872e-12
3.87509e-12
2.01868e-09
2.26175e-10
1.74313e-11
4.03189e-12
3.88822e-12
1.9476e-09
2.16807e-10
1.67032e-11
3.89091e-12
3.75423e-12
2.20098e-09
2.46116e-10
1.88861e-11
4.21943e-12
4.05019e-12
1.96991e-09
2.18983e-10
1.68437e-11
3.91009e-12
3.77109e-12
2.00632e-09
2.24393e-10
1.73079e-11
4.02597e-12
3.88502e-12
2.00777e-09
2.24627e-10
1.73308e-11
4.03253e-12
3.89148e-12
1.9693e-09
2.18921e-10
1.68311e-11
3.90295e-12
3.76372e-12
2.24364e-09
2.5051e-10
1.91674e-11
4.2371e-12
4.06144e-12
2.25094e-09
2.51514e-10
1.9236e-11
4.23842e-12
4.06087e-12
2.22882e-09
2.49086e-10
1.90851e-11
4.23593e-12
4.06258e-12
1.98199e-09
2.20406e-10
1.69317e-11
3.91167e-12
3.77038e-12
2.02464e-09
2.26633e-10
1.74593e-11
4.03016e-12
3.88526e-12
2.0318e-09
2.27344e-10
1.75018e-11
4.03674e-12
3.89127e-12
1.97359e-09
2.19695e-10
1.68888e-11
3.90378e-12
3.76295e-12
1.94598e-09
2.16293e-10
1.66667e-11
3.90407e-12
3.76965e-12
1.99621e-09
2.23575e-10
1.72677e-11
4.02459e-12
3.88461e-12
1.99846e-09
2.23879e-10
1.72883e-11
4.03057e-12
3.89044e-12
1.9373e-09
2.15747e-10
1.66361e-11
3.8964e-12
3.76212e-12
2.1838e-09
2.4439e-10
1.879e-11
4.2278e-12
4.06196e-12
2.05618e-09
2.30206e-10
1.78717e-11
4.19674e-12
4.05338e-12
2.17173e-09
2.42814e-10
1.86695e-11
4.21183e-12
4.04823e-12
1.92397e-09
2.14102e-10
1.65297e-11
3.89655e-12
3.76559e-12
1.9696e-09
2.20835e-10
1.70904e-11
4.01031e-12
3.87402e-12
1.97391e-09
2.21224e-10
1.71162e-11
4.02149e-12
3.88576e-12
1.91606e-09
2.13548e-10
1.64937e-11
3.88364e-12
3.75218e-12
2.18039e-09
2.43703e-10
1.87236e-11
4.21335e-12
4.04836e-12
1.92431e-09
2.14226e-10
1.65426e-11
3.89773e-12
3.76639e-12
1.9714e-09
2.21087e-10
1.71076e-11
4.01084e-12
3.87409e-12
1.97472e-09
2.21433e-10
1.71347e-11
4.02305e-12
3.88685e-12
1.92021e-09
2.13733e-10
1.6504e-11
3.88424e-12
3.75255e-12
9.50534e-07
9.30689e-07
9.67402e-07
1.2581e-06
1.31624e-07
1.17988e-06
4.46101e-07
3.02671e-08
1.32115e-07
1.18454e-06
1.48929e-07
4.45486e-07
1.3659e-08
7.13552e-08
1.9017e-08
1.30075e-07
1.07299e-07
2.24036e-08
1.06473e-07
2.25745e-08
1.89434e-08
1.17737e-08
3.05499e-08
6.54788e-08
6.5051e-08
1.17988e-08
1.9159e-08
1.31386e-07
2.24216e-08
1.07848e-07
2.25602e-08
1.07135e-07
1.90614e-08
1.36334e-08
1.1728e-07
2.57609e-07
7.11629e-08
2.76456e-08
2.5641e-07
2.76103e-08
1.177e-07
1.17947e-07
2.61506e-07
2.60853e-07
1.18171e-07
4.07892e-08
1.15856e-08
1.15721e-08
3.93932e-08
3.22729e-07
9.46973e-07
5.43988e-07
5.5339e-07
5.52123e-07
5.60563e-07
3.20751e-07
1.20335e-06
1.09605e-06
1.20798e-06
1.21086e-06
1.09914e-06
7.36521e-07
4.48457e-07
3.75983e-07
7.91841e-07
3.77475e-07
8.06089e-07
7.24864e-07
6.58949e-07
4.28599e-07
1.48496e-07
2.59186e-07
2.57983e-07
4.33204e-07
6.49761e-07
7.38931e-07
4.47573e-07
7.93403e-07
3.78714e-07
8.07566e-07
3.79759e-07
7.27342e-07
6.73609e-07
4.38557e-07
4.40231e-07
6.70264e-07
9.23043e-07
9.59743e-07
9.46684e-07
1.24451e-06
1.37287e-08
1.33891e-08
7.24664e-08
7.00741e-08
3.06368e-08
1.38809e-07
1.51847e-07
1.20957e-06
4.77724e-07
3.00626e-08
1.46985e-07
1.36874e-08
1.3368e-08
1.16507e-07
2.60594e-07
7.21627e-08
2.79475e-08
2.78088e-08
2.61086e-07
1.16751e-07
1.14389e-07
2.52711e-07
6.97776e-08
2.7228e-08
2.70744e-08
2.52188e-07
1.14508e-07
3.95058e-08
1.14393e-08
1.12874e-08
1.14015e-08
1.12551e-08
3.83654e-08
1.18849e-08
3.07666e-08
6.66397e-08
6.6485e-08
1.19101e-08
1.95831e-08
1.37934e-07
2.32139e-08
1.12762e-07
2.3454e-08
1.113e-07
1.96606e-08
1.16034e-08
3.00224e-08
6.44107e-08
6.40398e-08
1.16362e-08
3.16884e-07
9.38359e-07
5.45828e-07
5.41728e-07
5.52697e-07
5.50123e-07
3.15323e-07
1.20003e-06
6.75902e-07
4.40924e-07
1.51585e-07
2.69585e-07
4.42893e-07
2.68908e-07
6.73488e-07
7.62236e-07
4.77879e-07
4.01706e-07
8.30736e-07
4.00024e-07
8.33409e-07
7.60186e-07
6.53489e-07
4.24656e-07
1.46527e-07
2.54734e-07
4.28457e-07
2.55934e-07
6.44427e-07
2.2015e-09
2.43951e-10
1.82022e-11
3.77347e-12
3.58581e-12
2.26392e-09
2.5397e-10
1.94008e-11
4.23886e-12
4.05699e-12
2.22805e-09
2.4924e-10
1.9098e-11
4.23546e-12
4.06159e-12
2.1925e-09
2.43127e-10
1.81452e-11
3.76148e-12
3.57436e-12
2.25428e-09
2.53168e-10
1.93471e-11
4.22754e-12
4.04617e-12
1.94031e-09
2.16098e-10
1.66631e-11
3.89868e-12
3.76377e-12
2.00207e-09
2.23757e-10
1.72745e-11
4.03248e-12
3.89298e-12
1.98551e-09
2.22422e-10
1.71973e-11
4.02343e-12
3.88524e-12
1.94654e-09
2.16703e-10
1.66984e-11
3.90603e-12
3.7708e-12
1.95549e-09
2.17765e-10
1.67697e-11
3.90213e-12
3.76442e-12
2.00429e-09
2.2403e-10
1.72908e-11
4.03275e-12
3.89281e-12
1.98496e-09
2.22476e-10
1.72039e-11
4.02384e-12
3.8855e-12
1.96033e-09
2.1832e-10
1.68051e-11
3.90984e-12
3.77186e-12
2.23518e-09
2.4994e-10
1.9144e-11
4.24784e-12
4.07392e-12
2.15947e-09
2.39159e-10
1.79308e-11
3.80335e-12
3.62609e-12
2.1499e-09
2.38279e-10
1.7874e-11
3.79294e-12
3.61629e-12
2.03649e-09
2.27624e-10
1.77035e-11
4.19152e-12
4.05258e-12
2.02934e-09
2.27096e-10
1.76674e-11
4.18127e-12
4.04244e-12
2.25068e-09
2.52537e-10
1.93068e-11
4.23181e-12
4.05187e-12
2.22106e-09
2.49109e-10
1.9084e-11
4.22792e-12
4.05427e-12
2.18047e-09
2.41647e-10
1.80515e-11
3.76405e-12
3.58e-12
2.16222e-09
2.39421e-10
1.79057e-11
3.76496e-12
3.58514e-12
2.23831e-09
2.51528e-10
1.92413e-11
4.21862e-12
4.03932e-12
2.21178e-09
2.48389e-10
1.90347e-11
4.21698e-12
4.04368e-12
2.20983e-09
2.47468e-10
1.89816e-11
4.22289e-12
4.05103e-12
2.16396e-09
2.40137e-10
1.79551e-11
3.74672e-12
3.56329e-12
2.1523e-09
2.38654e-10
1.78576e-11
3.75337e-12
3.57376e-12
2.00339e-09
2.2396e-10
1.74695e-11
4.18267e-12
4.04957e-12
1.98585e-09
2.22159e-10
1.73589e-11
4.18133e-12
4.05131e-12
2.19554e-09
2.45527e-10
1.88551e-11
4.22869e-12
4.06123e-12
2.19933e-09
2.45964e-10
1.88857e-11
4.24077e-12
4.07374e-12
2.15413e-09
2.38445e-10
1.78824e-11
3.80052e-12
3.62459e-12
2.1439e-09
2.37373e-10
1.78102e-11
3.78605e-12
3.61045e-12
2.12159e-09
2.3465e-10
1.76409e-11
3.79468e-12
3.62492e-12
2.10857e-09
2.33727e-10
1.75858e-11
3.7838e-12
3.61456e-12
1.97756e-09
2.21501e-10
1.73148e-11
4.17044e-12
4.04055e-12
1.99552e-09
2.232e-10
1.74189e-11
4.17156e-12
4.03896e-12
1.95252e-09
2.177e-10
1.67665e-11
3.89161e-12
3.75278e-12
2.01382e-09
2.25516e-10
1.73969e-11
4.03024e-12
3.88701e-12
2.00066e-09
2.24328e-10
1.73183e-11
4.01627e-12
3.87399e-12
1.95804e-09
2.18309e-10
1.68128e-11
3.90595e-12
3.76747e-12
2.22162e-09
2.48379e-10
1.90424e-11
4.24006e-12
4.06833e-12
9.31839e-07
1.24878e-06
9.42928e-07
9.56112e-07
9.21294e-07
9.4473e-07
9.25729e-07
9.58184e-07
9.6231e-07
9.33987e-07
9.35564e-07
9.33929e-07
9.32634e-07
9.19725e-07
9.58658e-07
6.72733e-08
6.86582e-08
9.38299e-07
6.75632e-08
6.86594e-08
1.323e-07
3.03177e-08
1.35342e-07
1.36117e-08
1.35138e-08
2.8389e-08
1.28405e-07
1.26054e-06
1.25572e-06
1.26256e-06
1.47947e-07
1.16764e-06
9.63296e-07
4.45805e-07
1.345e-08
1.20115e-06
1.4907e-07
4.7668e-07
6.66845e-08
6.81677e-08
1.3184e-08
1.31626e-08
1.33461e-08
1.33384e-08
9.27092e-07
6.73207e-08
7.03529e-08
6.97756e-08
7.00309e-08
1.31865e-08
1.324e-08
1.33888e-08
1.33922e-08
1.36279e-08
1.29753e-08
7.01177e-08
6.57409e-08
1.31e-07
3.03809e-08
2.97506e-08
1.35544e-07
4.59051e-07
1.51772e-07
1.21328e-06
1.18951e-06
4.7782e-07
4.5804e-07
1.52307e-07
1.21511e-06
9.62002e-07
1.47655e-07
1.19124e-06
4.7877e-07
6.92895e-08
6.86465e-08
9.4685e-07
6.95945e-08
1.34683e-08
1.44422e-07
1.16399e-06
4.44265e-07
2.97559e-08
1.30294e-07
1.16469e-06
1.47735e-07
4.4444e-07
2.94665e-08
1.29858e-07
1.16734e-06
1.45526e-07
4.4495e-07
2.86344e-08
1.28867e-07
6.80831e-08
6.86284e-08
1.32622e-08
1.20232e-06
1.50861e-07
4.75368e-07
2.92355e-08
1.37207e-07
2.96098e-08
1.3659e-07
1.32111e-08
1.33755e-08
3.817e-08
1.13867e-08
1.13389e-08
1.14006e-08
1.13489e-08
3.91654e-08
1.15701e-07
2.54231e-07
2.70175e-08
6.98804e-08
2.75189e-08
1.15754e-07
2.54918e-07
1.1609e-07
2.57704e-07
2.67007e-08
7.02655e-08
2.70453e-08
1.15534e-07
2.59253e-07
3.83293e-08
1.13384e-08
1.12914e-08
1.13748e-08
1.13139e-08
3.89276e-08
1.15455e-07
2.70383e-08
6.81327e-08
2.54027e-07
2.71105e-08
1.15555e-07
2.55011e-07
1.16122e-07
2.67852e-08
7.04488e-08
2.57577e-07
2.71505e-08
1.16485e-07
2.58751e-07
1.89762e-08
2.21364e-08
1.08186e-07
1.33174e-07
2.23872e-08
1.08731e-07
1.90742e-08
1.19829e-08
3.05504e-08
6.73596e-08
6.67603e-08
1.20739e-08
1.18239e-08
3.01561e-08
6.59422e-08
1.95259e-08
1.3498e-07
2.27749e-08
1.11627e-07
2.29327e-08
1.10181e-07
1.96656e-08
1.36832e-08
1.36692e-08
1.13423e-08
2.88219e-08
6.16647e-08
6.26534e-08
1.13634e-08
1.84975e-08
1.2921e-07
1.04143e-07
2.15097e-08
1.04735e-07
2.17311e-08
1.85531e-08
1.3478e-08
1.16015e-07
2.54445e-07
2.68314e-08
6.88648e-08
1.15675e-07
2.54895e-07
2.70312e-08
1.17156e-07
2.58287e-07
2.66721e-08
6.96125e-08
1.16845e-07
2.59001e-07
2.6925e-08
3.82757e-08
1.13538e-08
1.13337e-08
3.91766e-08
1.1373e-08
1.13676e-08
1.32359e-08
1.32049e-08
1.34251e-08
1.33807e-08
3.80211e-08
1.14143e-08
1.13738e-08
3.90789e-08
1.13975e-08
1.13684e-08
1.15804e-07
2.55213e-07
2.69349e-08
6.92001e-08
1.15742e-07
2.73393e-08
2.53911e-07
1.164e-07
2.59455e-07
2.70613e-08
6.98285e-08
1.16352e-07
2.69565e-08
2.57633e-07
3.9471e-08
1.13763e-08
1.13593e-08
3.86617e-08
1.13736e-08
1.13419e-08
1.16469e-07
2.74888e-08
2.55113e-07
6.84331e-08
1.16025e-07
2.74589e-08
2.54564e-07
1.16971e-07
2.69541e-08
2.5857e-07
6.95067e-08
1.15809e-07
2.72645e-08
2.58303e-07
1.32304e-08
1.32303e-08
1.34209e-08
1.33977e-08
1.36685e-08
1.35738e-08
1.30238e-08
1.1602e-07
2.60159e-07
7.1734e-08
2.71363e-08
2.74041e-08
2.60854e-07
1.15742e-07
1.14505e-07
2.49696e-07
6.78858e-08
2.59372e-08
2.63007e-08
2.49226e-07
1.14303e-07
7.11501e-08
2.60013e-07
3.77276e-08
1.12761e-08
1.10554e-08
1.12893e-08
1.1067e-08
3.86742e-08
1.88501e-08
2.2087e-08
1.06968e-07
1.31803e-07
2.23271e-08
1.08341e-07
1.89041e-08
1.18444e-08
3.07513e-08
6.54726e-08
6.57237e-08
1.19043e-08
1.17462e-08
6.39141e-08
3.06839e-08
6.48712e-08
1.16652e-08
1.93151e-08
1.34336e-07
2.27153e-08
1.1188e-07
2.28309e-08
1.10406e-07
1.93691e-08
3.8248e-08
1.14862e-08
1.14587e-08
1.14465e-08
1.16591e-07
2.58954e-07
7.22093e-08
2.70303e-08
2.74372e-08
2.60939e-07
1.17023e-07
1.17321e-07
2.58334e-07
6.9181e-08
2.7223e-08
2.57427e-07
2.73599e-08
1.16797e-07
1.16764e-07
2.70662e-08
7.05795e-08
2.58188e-07
2.75585e-08
2.58182e-07
1.17078e-07
1.17397e-07
6.91098e-08
2.58937e-07
2.72876e-08
3.84334e-08
1.13994e-08
1.14403e-08
1.14466e-08
1.14596e-08
3.82101e-08
1.34613e-08
1.34435e-08
1.17716e-08
2.99801e-08
6.45726e-08
6.54373e-08
1.17921e-08
1.87869e-08
1.30152e-07
2.16952e-08
1.0638e-07
2.1929e-08
1.07387e-07
1.90054e-08
1.87011e-08
1.30564e-07
1.06794e-07
2.18594e-08
1.16586e-08
2.96968e-08
6.34259e-08
6.43283e-08
1.16845e-08
1.16662e-08
2.9556e-08
6.42137e-08
1.89244e-08
1.30973e-07
1.07079e-07
2.18004e-08
1.0786e-07
2.19409e-08
1.89838e-08
1.83606e-08
1.29587e-07
2.16992e-08
1.05231e-07
1.1389e-08
2.87995e-08
6.22462e-08
6.27715e-08
1.14177e-08
1.13637e-08
2.88647e-08
6.26347e-08
1.85046e-08
1.30005e-07
2.15555e-08
1.05169e-07
2.17588e-08
1.05684e-07
1.85523e-08
1.16074e-07
2.53574e-07
6.98644e-08
2.69948e-08
2.72666e-08
2.55429e-07
1.16443e-07
1.17033e-07
2.58876e-07
7.09156e-08
2.72358e-08
2.59228e-07
2.74101e-08
1.16867e-07
3.83523e-08
1.14061e-08
1.14261e-08
1.14195e-08
1.14417e-08
3.93566e-08
1.32929e-08
1.16411e-08
2.95409e-08
6.48854e-08
6.56821e-08
1.16704e-08
1.91671e-08
1.36828e-07
1.11046e-07
2.24272e-08
1.10451e-07
2.26843e-08
1.92414e-08
1.16362e-08
2.98246e-08
6.50254e-08
6.556e-08
1.16564e-08
1.90093e-08
1.36034e-07
1.10345e-07
2.23883e-08
1.10097e-07
2.26599e-08
1.91864e-08
1.3191e-08
1.3158e-08
1.33508e-08
3.18402e-07
5.4554e-07
5.5464e-07
9.21565e-07
3.19327e-07
5.40554e-07
5.49784e-07
1.21002e-06
1.21116e-06
1.10124e-06
3.18776e-07
5.43188e-07
5.52754e-07
9.23157e-07
3.17731e-07
5.41157e-07
5.51766e-07
3.18972e-07
9.47336e-07
5.46212e-07
5.55136e-07
3.18154e-07
5.48729e-07
5.56428e-07
3.14327e-07
5.49655e-07
5.42717e-07
9.21016e-07
5.46298e-07
5.39315e-07
3.16292e-07
3.19978e-07
5.52922e-07
5.52467e-07
9.30464e-07
5.49549e-07
5.50482e-07
3.20197e-07
3.18922e-07
5.41679e-07
5.52076e-07
9.21944e-07
5.51567e-07
5.39307e-07
3.18889e-07
3.1837e-07
9.47441e-07
5.45175e-07
5.526e-07
3.17229e-07
5.49695e-07
5.56428e-07
1.21827e-06
1.22057e-06
1.11374e-06
1.21655e-06
1.22054e-06
1.1133e-06
1.22095e-06
1.2184e-06
1.11579e-06
6.484e-07
4.29713e-07
1.48877e-07
2.5603e-07
4.28637e-07
2.57644e-07
6.49005e-07
6.5665e-07
1.47957e-07
4.30675e-07
2.56958e-07
7.24035e-07
4.46613e-07
3.78959e-07
7.90919e-07
3.80181e-07
7.88281e-07
7.2583e-07
6.67203e-07
4.33564e-07
1.50369e-07
2.64323e-07
4.36097e-07
2.64237e-07
6.64722e-07
7.56135e-07
4.76726e-07
8.28344e-07
3.98436e-07
8.27184e-07
3.99671e-07
7.55021e-07
3.19192e-07
9.21918e-07
5.44713e-07
5.53072e-07
3.19312e-07
5.40302e-07
5.49943e-07
7.58148e-07
3.88069e-07
8.18773e-07
4.66042e-07
3.92438e-07
8.29188e-07
7.51151e-07
6.80773e-07
4.41365e-07
1.52449e-07
2.70144e-07
2.68774e-07
4.43151e-07
6.77315e-07
6.69384e-07
1.50508e-07
2.64838e-07
4.37313e-07
7.60777e-07
4.72531e-07
4.02705e-07
8.33402e-07
3.98244e-07
8.3005e-07
7.60807e-07
7.57958e-07
3.86636e-07
8.18741e-07
4.64849e-07
3.9148e-07
8.28842e-07
7.50664e-07
6.81065e-07
4.42188e-07
1.52351e-07
2.67575e-07
2.66599e-07
4.43473e-07
6.77797e-07
6.70687e-07
2.59033e-07
1.49648e-07
4.35026e-07
2.62151e-07
6.63439e-07
4.38569e-07
7.60629e-07
4.72386e-07
4.04004e-07
8.31564e-07
3.9824e-07
8.28425e-07
7.60508e-07
3.20414e-07
9.46591e-07
5.47914e-07
5.54666e-07
5.56768e-07
5.52565e-07
3.20045e-07
6.39464e-07
4.19247e-07
1.44432e-07
2.52808e-07
2.53402e-07
4.20728e-07
6.39469e-07
7.17152e-07
4.43202e-07
3.7304e-07
7.86706e-07
3.72045e-07
7.84376e-07
7.18806e-07
6.46984e-07
4.27472e-07
1.48623e-07
2.57579e-07
2.56611e-07
4.28245e-07
6.47677e-07
7.21734e-07
4.44117e-07
7.88852e-07
3.77575e-07
7.86243e-07
3.76659e-07
7.23486e-07
6.42385e-07
4.23717e-07
1.44967e-07
2.54271e-07
4.23529e-07
2.53764e-07
6.42835e-07
7.1999e-07
4.44242e-07
7.89094e-07
3.75065e-07
7.86704e-07
3.73729e-07
7.21222e-07
6.68577e-07
4.36761e-07
1.50653e-07
2.66965e-07
4.37415e-07
2.67999e-07
6.66568e-07
7.56605e-07
4.75992e-07
8.28361e-07
3.97974e-07
8.26725e-07
3.98888e-07
7.55576e-07
1.24772e-06
9.52354e-07
9.6607e-07
9.39995e-07
1.24468e-06
9.52934e-07
9.65778e-07
9.42596e-07
1.24394e-06
9.533e-07
9.65808e-07
9.42282e-07
1.24802e-06
9.5338e-07
9.64833e-07
9.42484e-07
1.25016e-06
9.53672e-07
9.64655e-07
9.41942e-07
1.25157e-06
9.53257e-07
9.63884e-07
9.41081e-07
1.25336e-06
9.51281e-07
9.63539e-07
9.41098e-07
1.25892e-06
9.50966e-07
9.62158e-07
9.43496e-07
1.25399e-06
9.50722e-07
9.62236e-07
9.42501e-07
1.2554e-06
9.48838e-07
9.62456e-07
9.43571e-07
1.25391e-06
9.49005e-07
9.62428e-07
9.42032e-07
1.25758e-06
9.497e-07
9.62476e-07
9.41993e-07
1.2545e-06
9.49999e-07
9.63262e-07
9.42818e-07
1.25473e-06
9.49824e-07
9.62697e-07
9.38939e-07
1.25137e-06
9.48608e-07
9.61701e-07
9.38229e-07
1.25332e-06
9.4631e-07
9.59449e-07
9.25011e-07
9.59921e-07
9.66079e-07
9.29044e-07
9.4657e-07
9.49733e-07
9.52536e-07
9.44453e-07
9.30041e-07
9.66084e-07
9.66345e-07
9.23639e-07
9.41284e-07
9.2696e-07
9.61138e-07
9.65594e-07
9.61465e-07
9.64838e-07
9.45502e-07
9.29574e-07
9.47219e-07
9.50328e-07
9.47866e-07
9.51263e-07
9.44763e-07
9.53219e-07
9.45523e-07
9.46306e-07
9.30064e-07
9.65921e-07
9.66116e-07
9.65685e-07
9.25783e-07
9.435e-07
9.27961e-07
9.62006e-07
9.65343e-07
9.62503e-07
9.64391e-07
9.46588e-07
9.29887e-07
9.48512e-07
9.51921e-07
9.48827e-07
9.51661e-07
9.45965e-07
9.53605e-07
9.47204e-07
9.46652e-07
9.29458e-07
9.64999e-07
9.66153e-07
9.64906e-07
9.25958e-07
9.44221e-07
9.28656e-07
9.62506e-07
9.64819e-07
9.63076e-07
9.64386e-07
9.46428e-07
9.30931e-07
9.49034e-07
9.51726e-07
9.49773e-07
9.51691e-07
9.47134e-07
9.53556e-07
9.46322e-07
9.46008e-07
9.29841e-07
9.65136e-07
9.65765e-07
9.65313e-07
9.26414e-07
9.44841e-07
9.30306e-07
9.63625e-07
9.64319e-07
9.63584e-07
9.64859e-07
9.47437e-07
9.31584e-07
9.49858e-07
9.51329e-07
9.50069e-07
9.50235e-07
9.46456e-07
9.53578e-07
9.47104e-07
9.46134e-07
9.29416e-07
9.65305e-07
9.64875e-07
9.6415e-07
9.258e-07
9.46342e-07
9.31912e-07
9.63733e-07
9.64959e-07
9.64049e-07
9.63944e-07
9.47998e-07
9.29356e-07
9.50011e-07
9.50795e-07
9.50319e-07
9.50965e-07
9.46801e-07
9.53749e-07
9.45974e-07
9.45827e-07
9.28644e-07
9.64176e-07
9.64016e-07
9.64571e-07
9.24834e-07
9.48982e-07
9.30193e-07
9.64225e-07
9.63813e-07
9.64474e-07
9.6306e-07
9.45371e-07
9.28144e-07
9.50251e-07
9.51497e-07
9.50326e-07
9.51183e-07
9.45714e-07
9.52414e-07
9.46274e-07
9.44826e-07
9.27785e-07
9.65442e-07
9.63607e-07
9.64277e-07
9.24598e-07
9.46281e-07
9.27158e-07
9.64455e-07
9.63356e-07
9.64323e-07
9.64056e-07
9.4437e-07
9.29005e-07
9.50298e-07
9.50497e-07
9.48809e-07
9.50305e-07
9.45794e-07
9.51743e-07
9.45904e-07
9.44176e-07
9.2699e-07
9.64162e-07
9.63201e-07
9.64768e-07
9.26497e-07
9.43326e-07
9.28139e-07
9.65096e-07
9.64101e-07
9.65113e-07
9.63609e-07
9.45198e-07
9.27945e-07
9.48586e-07
9.50303e-07
9.49614e-07
9.50324e-07
9.46072e-07
9.51032e-07
9.46655e-07
9.43116e-07
9.28962e-07
9.64304e-07
9.62815e-07
9.64679e-07
9.26138e-07
9.44072e-07
9.25082e-07
9.64008e-07
9.63137e-07
9.63756e-07
9.63196e-07
9.43878e-07
9.26665e-07
9.48864e-07
9.49544e-07
9.48076e-07
9.49657e-07
9.47087e-07
9.49957e-07
9.47512e-07
9.44676e-07
9.29141e-07
9.64743e-07
9.6319e-07
9.65312e-07
9.27617e-07
9.4089e-07
9.26447e-07
9.63409e-07
9.6205e-07
9.63531e-07
9.62229e-07
9.42566e-07
9.26218e-07
9.47019e-07
9.48997e-07
9.47684e-07
9.49695e-07
9.46932e-07
9.50154e-07
9.47417e-07
9.44786e-07
9.27358e-07
9.64888e-07
9.63795e-07
9.65291e-07
9.26597e-07
9.41935e-07
9.24371e-07
9.62773e-07
9.6161e-07
9.63852e-07
9.62812e-07
9.41825e-07
9.28431e-07
9.46675e-07
9.48514e-07
9.49443e-07
9.49494e-07
9.46227e-07
9.51014e-07
9.48278e-07
9.42571e-07
9.26661e-07
9.64343e-07
9.64535e-07
9.65812e-07
9.27254e-07
9.3952e-07
9.23885e-07
9.62258e-07
9.61812e-07
9.63027e-07
9.62956e-07
9.43767e-07
9.30676e-07
9.47006e-07
9.4647e-07
9.48549e-07
9.49594e-07
9.46516e-07
9.53095e-07
9.50308e-07
9.41256e-07
9.27964e-07
9.63959e-07
9.6637e-07
9.66343e-07
9.28819e-07
9.37792e-07
9.23733e-07
9.61248e-07
9.61289e-07
9.62134e-07
9.641e-07
9.44864e-07
9.32552e-07
9.45264e-07
9.45765e-07
9.48211e-07
9.51995e-07
9.46655e-07
9.55634e-07
9.5296e-07
9.41244e-07
9.29825e-07
9.6363e-07
9.67991e-07
9.68212e-07
9.28324e-07
9.366e-07
9.26878e-07
9.59544e-07
9.62042e-07
9.62895e-07
9.65793e-07
9.45877e-07
9.32143e-07
9.43111e-07
9.45552e-07
9.5007e-07
9.54803e-07
9.44927e-07
9.56681e-07
9.5375e-07
9.40514e-07
9.32805e-07
9.6392e-07
9.70018e-07
9.72726e-07
9.32059e-07
9.36683e-07
9.27889e-07
9.59204e-07
9.62688e-07
9.64032e-07
9.67962e-07
9.4278e-07
9.35184e-07
9.41772e-07
9.42867e-07
9.51883e-07
9.58657e-07
9.41683e-07
9.59198e-07
9.55603e-07