/*--------------------------------*- C++ -*----------------------------------*\
| =========                 |                                                 |
| \\      /  F ield         | OpenFOAM: The Open Source CFD Toolbox           |
|  \\    /   O peration     | Version:  2206                                  |
|   \\  /    A nd           | Website:  www.openfoam.com                      |
|    \\/     M anipulation  |                                                 |
\*---------------------------------------------------------------------------*/
FoamFile
{
    version     2.0;
    format      ascii;
    arch        "LSB;label=32;scalar=64";
    class       volScalarField;
    location    "40";
    object      omega;
}
// * * * * * * * * * * * * * * * * * * * * * * * * * * * * * * * * * * * * * //

dimensions      [0 0 -1 0 0 0 0];

internalField   nonuniform List<scalar> 
67442
(
17.7079
21.6925
21.5017
23.6658
23.8873
21.5758
21.4326
23.6623
21.8079
21.7199
21.7587
23.6878
21.4425
285.371
99.0232
411.629
288.771
103.612
17.6861
17.6291
17.6863
87.4178
19.4501
39.2004
414.311
19.226
88.2812
36.6912
157.412
158.501
412.488
414.579
162.082
165.334
279.314
96.3486
90.9402
19.2659
37.783
88.9523
19.1944
36.1605
158.486
158.675
413.564
93.5123
19.4889
39.7948
287.853
103.303
19.4707
92.8473
39.8575
286.28
100.01
19.4847
91.7281
38.176
284.801
100.162
164.289
155
411.622
19.2198
88.6132
37.393
283.108
96.5675
282.219
96.0202
412.729
410.056
430.299
278.852
172.317
169.531
429.829
324.433
96.6375
298.239
114.388
292.975
107.606
321.293
411.204
329.94
102.586
118.678
302.255
433.275
287.171
176.846
175.335
432.509
432.984
288.102
176.379
327.095
100.646
119.584
302.748
116.299
300.404
327.625
412.871
413.127
112.555
58.1934
164.579
295.343
57.4427
297.633
110.993
110.926
57.2502
160.958
295.841
56.6634
295.056
104.105
218.059
417.265
416.75
417.584
417.432
215.722
411.153
413.41
414.134
113.023
58.5843
154.55
297.617
291.556
55.3662
107.184
113.592
59.5391
162.512
300.128
297.975
56.156
107.778
221.744
417.032
418.369
416.609
417.839
216.482
430.509
285.376
169.759
168.09
430.804
323.364
94.8398
295.86
112.298
297.675
114.366
322.058
110.394
56.9057
161.163
292.916
298.671
57.997
108.183
111.353
56.0093
155.816
292.59
59.0215
298.568
109.358
218.549
417.046
417.368
416.054
417.664
216.549
412.854
329.915
102.441
302.258
118.356
432.547
283.262
176.024
168.336
432.496
432
286.178
175.807
327.115
100.473
302.762
119.254
300.498
115.995
327.632
432.7
284.92
171.452
168.145
433.276
327.008
102.001
115.643
299.927
117.804
301.87
325.72
433.089
287.06
167.756
175.4
433.056
327.272
102.442
297.797
111.795
302.962
118.974
325.94
112.456
59.098
160.632
299.253
295.279
55.6376
110.552
112.424
58.2573
162.191
291.183
54.9901
297.574
106.4
221.357
417.84
416.267
417.7
417.046
215.984
411.272
430.877
282.144
165.713
172.988
430.664
323.445
95.2996
111.948
294.108
110.738
298.945
322.22
430.496
284.43
168.513
171.036
429.951
323.405
98.0455
108.699
297.06
115.652
296.102
322.069
412.843
412.447
16.8378
16.8935
16.3644
51.3291
32.0595
31.893
23.7486
32.3856
32.1898
50.4142
52.8212
32.5687
32.9809
23.5641
31.8294
31.7429
50.63
52.0816
32.0014
32.5512
23.7319
32.3462
32.363
51.5715
52.0135
32.5222
32.3222
23.2317
31.0918
32.017
51.428
16.8397
16.9637
16.5085
16.7941
16.7582
16.3271
16.8886
16.8097
16.4194
29.7632
39.0231
92.8535
57.9958
38.3681
58.89
29.4509
25.9968
39.5291
42.803
24.5133
42.2509
24.6861
25.8506
29.4069
39.0886
90.029
55.8497
38.5335
56.893
29.4394
25.5243
38.0806
24.0095
42.038
23.9204
42.7613
25.3775
29.1381
38.8737
85.6561
56.5258
53.4324
37.7642
28.5005
25.3418
37.214
42.0894
24.0822
40.169
23.929
25.4557
28.809
37.7409
87.7073
54.6936
53.4301
37.0927
28.6419
25.3773
37.5833
41.5995
23.6619
40.723
24.0438
25.2768
30.059
39.8839
87.8246
59.5109
58.3301
38.0963
29.8439
26.2439
38.6134
44.7095
24.7867
42.6425
24.2937
26.1126
29.7522
39.3706
87.2304
58.498
57.3806
37.6133
29.5215
26.196
38.2358
24.8189
44.3802
24.3369
42.3419
26.0723
29.9165
38.7877
90.6374
57.6023
38.2601
58.6336
29.6383
26.1331
39.8436
24.6503
44.101
24.8038
43.7545
25.9229
29.122
37.7754
87.7594
55.4114
37.1975
54.7763
28.9643
25.4121
36.8795
23.7022
41.7504
24.087
42.3857
25.273
756.119
1622.65
4424.58
16478.5
116782
738.871
1604.42
4392.86
16427.9
116912
755.872
1622.74
4424.72
16480.2
116802
737.164
1603.61
4392.32
16425.6
116892
737.627
1603.61
4392.2
16424
116862
737.506
1603.73
4392.68
16427.9
116912
757.34
1623.34
4424.8
16480.4
116803
738.821
1604.28
4392.17
16424.2
116872
755.914
1622.64
4424.69
16480.4
116814
757.242
1623.25
4424.31
16477.6
116781
756.949
1623.24
4424.4
16477.2
116772
738.847
1604.25
4392.28
16425
116881
757.327
1623.27
4424.61
16479.2
116795
757.118
1623.22
4424.59
16479.3
116802
738.573
1604.3
4392.42
16425.6
116892
738.859
1604.34
4392.74
16427.5
116912
734.388
1602.57
4390.85
16419.5
116835
755.919
1622.31
4424.09
16478
116782
738.116
1603.62
4392.41
16427.6
116912
744.891
1613.72
4409.09
16447.8
116752
743.849
1608.59
4398.46
16426.1
116727
734.08
1602.58
4390.95
16420.3
116840
756.113
1622.45
4424.3
16479.9
116802
756.678
1622.71
4424.66
16480.3
116802
737.837
1603.44
4392.02
16425.3
116892
737.362
1603.61
4392.27
16425.6
116892
756.034
1622.39
4422.75
16475.9
116795
755.349
1621.58
4422.27
16475.6
116795
756.078
1622.36
4422.77
16475.9
116795
755.363
1621.56
4422.3
16475.6
116795
738.602
1608.49
4400.46
16442.3
116918
738.74
1608.5
4400.41
16442.6
116921
738.083
1607.59
4400.01
16442
116918
738.193
1607.59
4399.94
16442.3
116921
737.824
1603.43
4391.88
16423.7
116862
737.654
1603.54
4392.36
16427.6
116912
737.865
1603.7
4392.6
16427.9
116912
756.645
1622.52
4424.29
16480
116803
756.125
1622.41
4422.66
16474.9
116789
755.391
1621.59
4422.18
16474.6
116789
738.535
1608.51
4400.38
16442.5
116919
738.083
1607.6
4399.91
16442.1
116919
737.935
1603.48
4391.77
16424
116872
744.748
1613.68
4409.07
16447.2
116747
743.906
1608.58
4398.4
16425.8
116725
733.916
1602.57
4391
16420.4
116852
754.982
1622.26
4424.25
16480
116814
755.793
1622.63
4424.62
16480.3
116814
756.256
1622.4
4423.82
16477.2
116781
734.702
1602.75
4390.86
16419.2
116831
756.224
1622.42
4423.9
16476.8
116772
756.154
1622.38
4422.49
16473.2
116759
755.493
1621.56
4421.98
16472.8
116759
738.496
1608.52
4400.53
16442.2
116904
738.054
1603.49
4391.86
16424.7
116881
735.097
1602.8
4390.89
16419.5
116836
756.535
1622.42
4424.06
16478.8
116795
734.994
1602.73
4390.72
16419.4
116840
756.561
1622.43
4424.07
16478.9
116802
737.895
1603.54
4392.03
16425.4
116892
738.58
1603.55
4392.29
16427.2
116912
734.818
1602.7
4390.75
16420
116838
734.447
1602.73
4390.8
16419.5
116840
744.787
1613.49
4409.03
16448
116768
744.549
1608.64
4398.71
16427.1
116747
744.514
1608.41
4398.36
16426.8
116747
745.24
1613.84
4409.38
16448.4
116768
734.834
1602.97
4391.23
16419.9
116835
756.227
1622.35
4422.53
16474.1
116776
755.562
1621.56
4422.07
16473.7
116776
738.646
1608.43
4400.04
16440
116887
738.052
1607.53
4399.59
16439.7
116887
734.85
1603.01
4391.3
16420.6
116840
744.102
1613.36
4408.82
16447.6
116752
744.082
1608.53
4398.49
16426.1
116727
743.63
1608.34
4398.16
16425.8
116727
745.002
1613.75
4409.12
16447.8
116752
735.483
1603.01
4391.23
16420.6
116840
754.855
1621.71
4422.49
16474.3
116778
754.698
1621.41
4422.1
16473.9
116778
737.113
1607.85
4400.52
16442.9
116918
737.362
1607.61
4400.16
16442.6
116918
754.975
1621.69
4422.51
16474.3
116776
754.859
1621.37
4422.07
16473.9
116776
736.79
1607.74
4400.44
16443.1
116933
737.679
1607.54
4400.09
16442.8
116933
754.746
1621.82
4422.65
16475.4
116795
755.119
1621.57
4422.26
16475.1
116795
736.907
1607.75
4400.27
16442
116921
737.705
1607.54
4399.91
16441.7
116921
745.113
1613.62
4408.8
16447.5
116751
745.932
1609.4
4398.62
16426.1
116727
745.105
1608.55
4398.14
16425.8
116727
746.088
1614.42
4409.18
16447.8
116751
735.87
1603.6
4391.22
16420.4
116838
744.104
1613.37
4408.81
16446.9
116747
744.153
1608.52
4398.42
16425.8
116725
743.664
1608.32
4398.09
16425.6
116725
744.994
1613.75
4409.1
16447.2
116747
734.83
1603.01
4391.35
16420.7
116852
734.968
1603.03
4391.29
16420.7
116852
735.569
1603.61
4391.22
16419.8
116840
744.871
1613.66
4409.16
16448.9
116774
745.412
1609.34
4398.81
16426.4
116749
744.572
1608.54
4398.4
16426.2
116749
746.431
1614.49
4409.45
16449.1
116774
744.984
1613.68
4409.17
16449
116769
745.454
1609.32
4398.82
16427.1
116747
744.668
1608.54
4398.44
16426.9
116747
746.621
1614.52
4409.51
16449.2
116769
736.141
1603.64
4391.25
16419.5
116831
738.099
1607.63
4400.07
16441.9
116904
736.268
1603.67
4391.34
16419.9
116836
745.517
1613.7
4409.01
16447.5
116758
745.948
1609.37
4398.71
16426
116725
745.211
1608.58
4398.32
16426.2
116736
747.112
1614.56
4409.37
16447.3
116748
736.148
1603.61
4391.21
16419.8
116840
745.166
1613.62
4408.83
16447.6
116752
746.043
1609.4
4398.61
16426.1
116727
745.114
1608.54
4398.11
16425.8
116727
746.134
1614.4
4409.15
16447.8
116752
21.6321
23.5899
21.4052
17.6435
101.97
19.4598
39.4709
285.964
101.719
19.4407
91.35
38.6763
411.867
162.352
326.038
96.7991
117.79
301.267
111.976
296.818
327.268
432.419
280.828
169.466
170.576
432.076
325.919
96.6302
301.445
117.411
297.287
111.689
327.268
412.337
108.005
58.3952
156.629
297.485
55.7415
292.206
109.994
107.939
57.4862
54.9342
107.284
211.706
416.406
416.822
218.788
50.8537
23.3124
31.6834
32.1286
31.9037
31.2981
51.471
16.9268
16.4095
16.8222
16.7797
16.3656
26.0153
38.1581
43.2431
24.7296
43.6786
24.3629
26.1114
29.2879
39.0939
86.6729
55.8203
56.5751
37.7742
29.4699
25.9225
38.9734
24.4949
42.8467
24.582
43.3746
26.0527
28.9773
37.8083
38.2129
28.7719
23.7716
21.4907
21.7175
17.7178
410.369
412.326
160.068
158.924
283.343
93.7267
89.6304
19.2572
36.4491
283.037
92.1114
410.573
412.936
109.205
57.8432
154.323
295.904
290.864
55.2697
108.137
109.583
58.7675
160.177
294.748
295.57
56.2789
108.612
212.171
415.802
417.004
416.316
417.785
219.116
429.781
278.195
165.672
166.71
429.416
322.214
94.7645
296.69
112.394
292.499
106.958
321.352
432.862
283.705
170.083
171.116
431.764
49.2736
23.443
32.3503
32.8299
31.4611
31.9924
51.8657
16.8671
28.7358
38.5496
85.4789
55.7677
37.3251
53.6036
28.6518
24.9266
36.8274
41.649
23.7398
40.1968
23.8363
25.3814
29.758
38.7126
88.1356
56.9996
39.1291
57.9019
29.8025
755.588
1622.42
4424.32
16480
116814
737.398
1603.52
4392.06
16425.3
116892
735.987
1603.66
4391.43
16420.7
116852
756.889
1623.23
4424.68
16480.3
116814
738.807
1604.35
4392.43
16425.6
116892
746.374
1614.42
4409.2
16447.8
116752
743.868
1608.43
4398.23
16425.8
116727
745.251
1609.21
4398.5
16426
116727
745.679
1613.63
4408.79
16447.6
116752
746.363
1614.4
4409.17
16447.2
116747
743.987
1608.45
4398.17
16425.6
116725
745.438
1609.26
4398.52
16425.9
116725
745.685
1613.64
4408.81
16446.9
116747
735.262
1602.8
4390.93
16420.4
116852
754.681
1621.54
4422.18
16473.9
116778
755.935
1622.32
4422.5
16474.2
116778
737.024
1607.7
4400.24
16442.6
116918
738.594
1608.59
4400.66
16443
116918
737.464
1603.44
4391.93
16423.7
116862
737.309
1603.55
4392.4
16427.6
116912
755.944
1622.41
4424.13
16478
116782
755.512
1622.43
4424.32
16479.9
116802
738.923
1604.26
4392.27
16424
116862
738.814
1604.38
4392.73
16427.9
116912
736.527
1603.58
4391.3
16419.9
116835
757.207
1623.25
4424.55
16478.2
116782
757.149
1623.31
4424.77
16480.2
116802
737.068
1607.69
4400.19
16442.9
116933
737.322
1607.69
4400
16441.7
116921
736.087
1603.66
4391.37
16420.6
116840
735.326
1602.82
4390.92
16420.3
116840
754.625
1621.46
4422.12
16473.9
116776
755.339
1622.23
4422.52
16474.2
116776
753.963
1621.45
4422.26
16475.1
116795
755.846
1622.4
4422.71
16475.4
116795
738.774
1608.54
4400.35
16442
116921
737.968
1608.5
4400.58
16443.2
116933
746.834
1614.56
4409.49
16448.4
116768
744.53
1608.6
4398.44
16426.8
116747
745.919
1609.41
4398.82
16427.2
116747
746.009
1613.71
4409.01
16448
116768
734.857
1602.69
4390.78
16419.5
116835
24.1264
17.6678
21.8938
21.7558
24.0383
23.9105
24.2664
21.817
21.5279
24.0508
22.0744
21.9817
22.0881
24.1014
21.7204
168.818
167.413
24.0442
168.603
166.756
104.78
289.022
103.365
414.326
414.711
291.941
107.206
17.5833
17.6208
17.5596
97.638
19.5277
21.6674
40.9315
415.772
19.3505
95.0215
39.5043
169.718
167.817
415.237
415.231
413.882
413.808
23.5964
169.185
162.95
160.556
163.394
415.238
413.265
413.218
412.356
414.054
416.024
166.337
169.85
104.395
288.583
289.629
102.649
40.5792
94.7745
19.2308
19.3545
39.3853
40.3708
93.4659
19.2339
21.9154
96.2885
19.3345
39.2403
167.568
169.233
23.9897
166.688
415.843
97.2243
19.5886
40.5731
291.061
106.731
19.5615
96.9733
40.9294
291.353
106.421
19.5673
97.7437
41.517
292.339
107.322
169.345
166.581
413.984
19.35
94.5543
38.9666
289.22
102.854
289.073
102.695
414.598
412.903
222.445
418.485
418.368
418.037
417.917
217.543
114.925
61.9984
301.503
161.077
295.802
113.647
60.2902
114.52
60.7881
302.166
163.679
298.191
109.201
58.5586
221.251
418.63
418.745
418.002
418
216.912
110.562
301.474
167.387
61.694
300.937
112.458
59.0253
112.024
301.337
161.456
60.6742
297.278
112.868
57.8147
328.732
303.529
120.959
102.899
302.414
119.462
326.943
431.383
286.949
175.218
172.999
430.067
433.329
288.222
175.562
324.3
97.0738
301.834
119.198
297.061
112.859
324.313
412.51
412.195
434.019
288.143
181.05
177.378
433.353
329.219
103.045
123.356
305.492
120.576
302.563
328.552
414.388
114.812
61.6671
302.241
164.601
109.397
58.3415
299.112
114.218
60.9334
302.707
163.845
112.938
59.053
299.549
222.476
418.977
418.925
217.994
418.364
418.274
414.038
414.413
412.181
413.553
222.857
417.767
417.776
217.507
418.408
417.687
115.11
61.3948
301.848
164.397
110.622
297.979
58.6625
115.033
58.4191
299.109
164.636
108.705
300.551
59.3593
215.159
418.823
418.581
221.194
418.857
418.736
113.952
297.243
60.0579
166.927
113.579
297.676
59.3629
110.499
299.493
59.4515
164.308
112.706
295.902
57.326
414.068
414.844
413.061
412.132
413.115
414.046
414.676
114.075
60.5473
162.52
301.296
298.065
58.7423
112.583
115.204
62.2012
164.934
303.443
299.791
58.7768
114.01
163.765
59.4137
222.103
418.3
419.456
418.066
419.092
217.1
328.518
303.204
121.46
101.571
302.064
119.364
326.768
431.213
284.695
177.352
175.245
431.559
431.897
178.116
283.988
175.707
433.155
325.229
100.743
301.858
119.401
297.411
112.704
326.288
223.323
417.251
417.144
419.053
114.603
61.0501
157.723
301.864
297.971
57.3995
109.292
115.297
61.6895
167.254
302.913
59.9261
301.193
113.891
112.487
300.987
165.005
61.2212
297.087
60.4851
112.981
110.708
167.445
60.4498
301.304
222.258
418.866
419.21
417.256
418.714
222.334
415.436
415.506
433.651
288.681
179.811
173.441
433.046
329.429
102.739
305.209
123.099
301.624
119.07
326.69
330.52
104.742
121.276
303.918
434.092
288.665
181.131
178.834
433.887
433.703
289.702
179.082
328.083
103.132
123.483
305.021
119.643
302.857
328.614
330.421
105.282
303.922
121.483
433.901
290.604
180.879
179.2
434.12
434.521
290.337
179.361
328.955
103.928
305.473
124.061
303.144
120.327
328.297
114.352
61.45
164.52
302.355
299.3
58.3913
112.846
114.157
60.6076
161.482
301.146
58.0133
298.328
108.953
221.941
418.913
418.125
418.755
417.641
216.926
413.018
431.549
286.427
176.797
173.725
430.906
325.664
99.6875
118.967
301.726
113.855
298.951
325.224
431.51
286.47
176.855
173.331
431.437
326.071
98.9698
120.378
301.675
116.597
298.421
323.755
414.296
415.089
413.432
52.8265
33.4595
33.1919
23.6438
50.5716
32.2705
32.6939
16.7721
16.8038
16.3011
52.5967
33.3303
33.1662
23.6495
52.0735
32.3259
32.5387
53.2081
23.6056
33.132
32.2915
50.5703
33.0356
32.6123
53.2626
33.4019
33.8681
23.8008
32.5726
32.6674
51.417
53.21
33.4546
33.3665
23.5204
31.9881
32.8805
52.6511
52.9045
33.5651
33.3775
23.7137
32.4147
32.5918
52.4439
50.9391
23.9456
33.3884
33.1427
49.8216
33.1951
32.2486
16.7015
16.7016
16.1882
16.7072
16.7218
16.2032
16.6893
16.701
16.1684
30.4022
40.8871
95.7116
60.9203
39.9981
60.2653
29.6018
29.4912
95.9716
40.3153
60.3946
26.4068
39.3483
45.8778
25.0435
44.2502
24.711
25.89
29.7554
40.2595
90.624
59.511
39.0474
57.2969
29.086
25.8476
38.3982
24.4805
44.1896
24.2553
42.4266
25.7569
51.3565
23.6915
32.5897
32.7083
52.7568
32.8635
31.927
26.1101
45.5131
24.8333
38.6525
43.6003
24.519
25.9623
29.4271
40.1992
93.3433
59.1867
57.9527
39.9079
28.7374
29.6158
94.4933
59.3379
40.358
25.5046
38.6781
44.3754
24.4556
43.9675
24.3203
25.2471
26.1099
45.1921
24.9051
39.5917
44.0031
24.321
25.9174
29.2666
39.925
90.8455
58.482
55.2365
38.2066
29.0912
29.2567
60.5328
90.983
40.7526
59.5545
29.6972
40.271
25.5823
37.9452
43.701
24.5374
43.6438
24.3695
25.3557
51.8078
23.8768
33.3485
33.1153
32.7708
32.4215
52.4217
30.589
41.395
92.4163
61.3953
58.2202
39.7407
29.8922
26.4987
39.0527
46.2874
25.0195
44.5579
24.5512
26.3414
30.283
40.9701
93.4773
61.1128
58.0293
39.2269
29.5322
26.5112
39.2657
25.1638
45.9041
24.7601
43.89
26.3788
30.494
41.1526
93.186
61.2116
39.4854
58.9242
29.7519
26.6746
40.1005
25.1924
46.4871
24.7838
44.8622
26.1987
29.5562
40.308
91.6126
59.0874
39.0592
57.0918
29.4167
25.8138
37.9514
24.4161
44.1974
24.069
43.2778
25.4267
17.7086
21.8873
21.6022
24.0057
17.742
21.8948
21.6547
24.0394
17.7404
21.962
21.7472
24.185
17.7243
21.9456
21.8278
24.1347
17.7192
21.9639
21.8302
24.1478
17.6965
21.9724
21.7899
24.16
17.6689
21.9553
21.7732
24.0762
17.6523
21.9669
21.7533
24.0651
17.6493
21.9562
21.7744
24.1323
17.6476
21.9294
21.7837
24.127
17.6352
21.9637
21.7377
24.1496
17.6515
21.9667
21.8089
24.1451
17.6604
21.8911
21.7697
24.0922
17.649
21.883
21.757
24.1279
17.6418
21.9042
21.7642
24.0666
17.6213
21.9061
21.7289
23.9049
21.6557
21.6302
23.9057
21.8663
21.7814
21.7178
21.9974
23.6807
21.3343
21.6423
23.6828
23.5397
23.8835
21.3178
21.3263
21.7071
21.7477
23.4766
23.9055
21.7441
21.4078
21.8428
21.8184
21.7463
21.5997
21.9765
23.3622
23.8343
21.2719
21.5186
21.6661
23.9601
23.388
24.0127
21.597
21.4146
21.7426
21.7228
23.758
24.0025
21.6981
21.6967
21.9229
21.9358
21.7802
21.6924
21.9903
23.5443
24.027
21.565
21.6441
21.7271
24.0787
23.7517
24.1591
21.5753
21.4094
21.7935
21.7947
23.7868
23.9591
21.7289
21.6298
21.9686
21.9835
21.8223
21.6591
22.0719
23.5948
23.9986
21.3288
21.7552
21.794
24.0431
23.9721
24.1539
21.6743
21.6651
21.8053
21.7706
23.6318
23.984
21.5854
21.7573
22.0703
21.9386
21.8313
21.8883
22.0159
23.6337
23.9368
21.6429
21.5861
21.7462
23.8173
23.9324
24.1386
21.569
21.4902
21.7753
21.7687
23.7502
24.1046
21.9488
21.7508
22.0253
21.9369
21.7858
21.8789
22.0265
23.6609
23.9288
21.3872
21.735
21.6993
23.8457
23.6868
24.1095
21.6023
21.5231
21.7879
21.7472
23.7067
24.0294
21.6581
21.6048
22.1017
21.9971
21.7884
21.8667
21.9964
23.4825
23.945
21.4828
21.694
21.6914
23.9717
23.5959
24.0348
21.5536
21.5256
21.7862
21.7428
23.7897
24.0027
21.9693
21.8368
21.9986
21.9437
21.6494
21.8678
22.0254
23.5956
23.9181
21.5164
21.4944
21.6902
23.9666
23.6956
24.1359
21.5265
21.5209
21.7417
21.77
23.6469
24.0281
21.7269
21.7429
21.9757
21.9415
21.8479
21.8677
22.007
23.6968
23.9974
21.3356
21.5334
21.7012
23.8031
23.8978
24.0365
21.566
21.4098
21.7734
21.7979
23.7949
24.0592
21.5608
21.7073
22.0213
21.9681
21.8043
21.8511
22.0445
23.7138
23.9885
21.5475
21.5451
21.7236
24.0747
23.8103
24.0665
21.5769
21.4585
21.7585
21.8455
23.571
23.9801
21.8748
21.6812
21.9792
21.9294
21.8669
21.6965
22.0096
23.6041
23.9311
21.4978
21.4722
21.6789
23.8381
23.5592
24.1593
21.4408
21.7087
21.7735
21.7343
23.6506
23.9564
21.7398
21.7639
21.9557
22.0092
21.7963
21.7044
21.9856
23.4292
24.0703
21.3145
21.5644
21.7325
24.0733
23.9344
24.1171
21.5344
21.4119
21.7921
21.7606
23.7553
23.9639
21.7416
21.6485
22.0307
22.0289
21.6138
21.812
21.9905
23.6215
24.0378
21.6136
21.693
21.668
23.9876
23.7659
24.0841
21.5668
21.6331
21.7661
21.7516
23.7414
23.9508
21.6592
21.8798
22.1219
21.9548
21.7997
21.8024
21.9868
23.8202
24.0155
21.3444
21.6151
21.6959
23.8154
23.7175
24.0027
21.575
21.4351
21.7169
21.7266
23.666
24.0041
21.9842
21.6089
22.0505
22.0194
21.6411
21.7992
22.0534
23.7634
23.9521
21.4429
21.5408
21.6888
23.9861
23.6359
24.1499
21.5238
21.4894
21.6955
21.751
23.8016
23.9535
21.7828
21.8656
22.0251
21.9293
21.6838
21.8181
22.0249
23.7726
24.0391
21.4839
21.5389
21.6979
23.7917
23.8028
24.1974
21.4769
21.4609
21.5564
21.7442
23.6534
23.9673
21.8084
21.5398
21.9067
21.8955
21.8979
21.8049
22.0368
23.8218
23.9818
21.5143
21.6296
21.6528
100.305
286.812
413.233
97.3996
288.316
17.7591
17.6406
17.647
17.6505
40.1742
21.6344
95.7354
19.4013
413.607
38.5168
21.4111
19.3109
92.5195
23.8716
165.769
163.545
101.565
288.367
101.657
287.899
413.746
413.683
105.238
292.307
105.532
291.033
17.6883
17.6999
17.726
17.7632
17.6517
17.663
17.6551
40.289
96.2478
19.5225
21.7441
40.5841
95.9506
19.3985
415.366
415.281
38.5916
19.3299
93.9887
21.3307
38.6805
19.289
94.09
168.836
165.972
23.9591
168.147
165.492
101.471
288.836
102.068
288.306
413.678
413.854
105.83
291.554
105.823
290.828
17.7344
17.7063
17.6789
17.7974
17.6658
17.6953
17.655
40.5275
96.0277
19.5108
21.5049
40.7099
96.1942
19.4565
415.152
415.427
38.9376
19.3323
94.7683
21.4883
39.016
19.3461
94.3833
169.091
166.381
24.0404
168.529
166.386
101.968
289.788
101.967
288.745
414.143
413.943
106.396
290.747
106.283
291.021
17.6991
17.7407
17.7088
17.7823
17.6658
17.7095
17.6658
40.7945
96.5305
19.5391
21.8207
40.5009
96.5177
19.4681
415.148
415.393
38.9418
19.3727
94.8495
21.5338
39.1269
19.3375
94.8873
169.266
167.3
24.1502
168.498
166.661
101.878
288.526
102.586
288.415
413.565
413.593
106.247
291.678
106.484
291.363
17.7137
17.7677
17.6994
17.7434
17.6578
17.6712
17.6472
40.8036
96.4675
19.596
21.8071
40.922
96.5976
19.5229
415.175
415.388
38.9721
19.4226
95.7505
21.6408
39.2832
19.4038
94.9774
169.748
167.056
24.0677
168.833
166.295
101.544
289.083
102.509
288.035
413.498
413.739
106.648
291.833
106.517
291.296
17.6946
17.6891
17.6938
17.7214
17.6446
17.6503
17.6317
40.7762
96.9342
19.5776
21.7169
41.0053
96.8899
19.5316
415.343
415.465
38.6627
19.3212
95.296
21.6869
39.0606
19.3937
94.9023
169.665
167.634
24.0859
168.473
166.649
101.569
288.265
103.085
288.24
413.823
413.68
106.418
291.684
107.061
291.18
17.6768
17.6802
17.6514
17.6937
17.6276
17.6341
17.5803
40.7274
97.0132
19.5709
21.7478
40.713
96.5431
19.5059
415.381
415.364
38.8238
19.2885
94.8043
21.5784
38.9434
19.3584
94.191
169.501
167.61
24.0697
168.54
166.461
101.834
288.191
102.814
288.191
413.739
413.807
105.685
290.93
106.019
290.972
17.6493
17.6669
17.602
17.667
17.6225
17.6216
17.5958
40.6531
97.1119
19.5531
21.7261
40.9698
97.2513
19.5051
415.128
415.398
38.6308
19.3671
95.0852
21.6024
38.8089
19.3441
94.2927
168.795
166.625
24.0271
168.486
166.496
101.567
288.472
102.826
288.178
413.67
413.693
106.601
291.905
106.526
291.089
17.6573
17.6668
17.665
17.7046
17.6313
17.6172
17.59
40.8697
97.7441
19.558
21.7379
40.9442
97.1518
19.4579
415.195
415.391
38.6023
19.3666
95.073
21.3985
38.5881
19.348
94.7828
169.114
167.733
24.0833
168.771
166.595
101.614
288.759
101.703
288.426
413.238
413.81
106.558
291.327
107.609
291.046
17.7078
17.6502
17.6085
17.6651
17.6401
17.6166
17.5932
40.6342
97.8344
19.5357
21.6722
40.8781
97.1557
19.419
415.203
415.489
38.838
19.3693
94.5555
21.4038
39.1783
19.342
94.6217
168.956
167.819
24.0743
168.587
166.762
102.231
289.347
103.392
288.397
413.585
413.886
105.909
291.335
106.362
290.622
17.6649
17.6576
17.6211
17.6857
17.6362
17.6211
17.5991
40.4423
96.3693
19.5495
21.5004
40.5527
96.3475
19.426
415.305
415.221
38.9839
19.3605
94.8526
21.6534
39.0799
19.336
94.5838
168.815
166.845
24.0638
168.46
166.532
101.738
289.717
102.312
288.509
413.675
413.795
106.424
291.629
106.613
291.127
17.668
17.6624
17.6369
17.6703
17.6275
17.6329
17.6077
40.2533
96.2763
19.5468
21.6006
40.2007
96.1713
19.5005
415.356
415.312
38.6848
19.3481
94.4128
21.4431
38.8219
19.289
94.645
168.974
166.135
24.0616
168.556
166.428
101.936
289.617
102.713
288.201
413.64
413.81
107.118
291.44
107.609
290.657
17.6555
17.6756
17.6676
17.682
17.6118
17.6298
17.6091
40.7205
96.3994
19.5548
21.668
40.5254
96.4766
19.4528
415.13
415.381
38.7855
19.3429
95.207
21.6343
38.9378
19.3163
94.8145
169.911
167.455
24.0728
168.919
166.619
101.702
289.018
102.053
288.17
413.632
413.777
107.006
291.76
107.439
291.21
17.6722
17.6718
17.6343
17.6931
17.5989
17.6346
17.5673
40.7643
96.6191
19.5709
21.5967
40.6903
96.3389
19.5273
415.093
415.281
38.8124
19.3282
94.6742
21.579
38.7462
19.295
94.7094
168.935
166.734
24.0542
167.887
166.209
101.788
288.674
101.79
288.142
413.649
413.558
106.583
291.527
107.346
291.34
17.6337
17.6727
17.5894
17.6635
17.6219
17.6277
17.5489
40.7661
96.6433
19.5567
21.628
40.9962
96.163
19.4807
415.073
415.352
38.8119
19.3298
94.6326
21.4224
39.0709
19.3051
94.6238
169.18
167.921
24.0209
168.562
166.761
102.024
288.66
102.698
288.137
413.471
413.8
107.072
291.722
107.815
291.138
17.7037
17.6624
17.6088
17.6648
17.6155
17.6182
17.5661
40.6698
96.6404
19.5543
21.6388
40.7214
96.5503
19.4374
415.292
415.63
38.9331
19.3324
94.6552
21.626
39.1152
19.2584
94.6371
169.159
166.799
24.0261
168.522
166.152
101.613
288.556
102.095
288.331
413.352
413.651
106.099
291.464
107.559
290.72
17.6287
17.6689
17.6101
17.6792
17.6001
17.6684
17.6121
40.7439
96.8182
19.555
21.6103
41.1538
96.6207
19.4775
415
415.355
39.1024
19.3427
94.7688
21.4107
39.1822
19.3224
94.8864
412.959
414.332
23.8998
163.82
166.816
413.343
411.199
415.526
415.165
23.7453
163.798
166.768
158.295
164.293
99.81
286.751
38.1386
21.2849
92.4412
19.2323
38.3357
21.3634
92.1229
19.2896
98.1731
286.889
280.598
100.579
97.5456
287.347
281.702
100.679
36.3291
21.5859
92.0611
19.2652
89.0135
19.2548
38.3847
36.4461
21.4687
92.8778
19.3052
86.3234
19.2437
38.4646
23.8777
163.696
166.23
414.531
413.591
412.091
23.6629
164.647
166.884
160.094
161.536
414.687
413.614
39.9132
21.6526
94.6966
19.4006
100.192
283.515
40.0017
21.3825
19.4419
94.287
102.893
291.99
289.185
104.61
37.9239
21.5747
95.4628
19.5187
91.6043
19.5021
40.2395
99.0406
291.327
289.272
105.148
38.5046
21.7055
19.4874
94.4028
19.4124
89.4236
39.9536
103.908
290.046
40.6757
21.6387
19.4565
95.1001
104.205
288.911
38.8148
21.6597
92.3601
19.5075
93.4674
19.5085
39.5409
99.6977
289.885
287.571
104.052
39.7353
21.9555
19.5556
95.6456
19.5647
93.4567
40.3946
96.8673
289.767
285.387
105.541
23.6868
164.902
164.069
413.05
415.268
414.294
23.3566
166.493
163.954
162.479
158.637
412.94
412.184
38.2747
21.3391
19.3038
92.4526
100.321
287.074
99.8811
286.746
36.9527
21.3547
19.3188
93.0244
19.2735
89.9427
37.3155
37.4234
21.5823
19.3168
92.1404
19.2665
88.3489
38.3635
98.4594
287.745
281.641
101.364
92.9226
287.06
281.554
101.418
413.727
412.607
23.5141
168.215
165.114
158.796
158.955
414.991
414.737
412.857
411.772
412.096
413.219
413.86
415.303
156.885
163.505
23.8839
164.218
167.086
413.824
412.287
415.247
413.902
23.4768
164.395
166.921
159.868
161.961
101.348
281.479
93.982
287.947
38.7554
90.77
19.2792
21.6255
36.968
92.5867
19.2926
38.4367
86.3849
19.2817
21.6267
36.7567
93.5725
19.2435
94.9486
288.314
281.855
100.863
95.0528
287.848
284.328
101.458
37.9833
21.4448
93.5095
19.3662
86.9567
19.2937
38.6537
36.8233
21.493
92.9845
19.3394
91.4271
19.3295
39.0123
162.677
164.695
23.9084
165.313
166.535
414.101
415.093
412.678
412.019
23.675
164.31
167.072
159.966
164.087
414.775
414.215
40.0449
93.8064
19.3988
21.5983
39.4409
95.1455
19.5064
105.564
285.289
97.8229
291.101
40.3255
19.4019
87.5746
21.7453
39.0275
19.507
95.9788
102.721
291.068
288.413
104.535
38.7167
21.6268
95.7633
19.5194
89.0515
19.491
40.0895
98.1288
290.907
283.768
106.064
39.6988
21.5671
19.5243
95.3497
19.4431
93.0417
39.1315
105.763
283.864
97.7593
289.962
40.1043
19.4986
94.0855
21.8362
38.6262
19.5215
96.0351
105.654
286.258
98.052
290.623
38.7735
21.6433
94.965
19.5045
91.9054
19.5008
39.4523
102.89
289.897
286.423
104.888
39.0322
21.8992
19.5557
96.0642
19.4821
92.6924
40.4514
103.037
290.911
288.03
105.163
164.401
159.949
23.7415
166.682
164.919
411.586
413.429
415.162
413.967
23.4879
166.568
164.508
159.976
158.43
413.222
412.883
38.6354
19.2887
88.1747
21.5829
36.4583
19.3146
92.6664
100.972
283.683
99.4229
287.612
101.63
282.943
95.2748
287.289
37.2516
21.6069
19.2761
94.3769
19.283
87.8502
37.9519
37.7912
21.4004
19.3413
92.7992
19.3234
88.5571
38.453
95.0387
287.972
283.94
101.219
98.386
287.735
283.743
100.854
413.368
414.546
411.285
412.707
23.5837
164.182
165.081
165.718
157.766
414.995
415.607
413.46
413.63
411.748
413.091
413.666
415.163
160.385
161.297
24.0018
164.889
167.26
413.787
412.179
415.379
414.314
23.8445
164.771
167.271
161.916
161.423
101.264
285.145
97.85
288.445
38.5751
91.7292
19.3535
21.455
38.1821
93.4226
19.3798
38.9786
91.4234
19.2722
21.7156
38.3458
93.5389
19.374
94.7982
286.157
285.74
100.711
98.4688
288.259
286.147
101.508
37.9281
21.6335
92.842
19.4056
88.5154
19.3948
38.6391
38.1304
21.601
93.5357
19.3851
92.1219
19.3774
38.7587
160.364
164.705
23.9136
165.121
167.174
414.145
415.062
413.037
411.758
23.4513
161.662
166.903
156.724
163.66
414.621
413.854
40.5147
92.745
19.4137
21.7955
39.2814
95.3553
19.5345
105.549
283.9
102.777
291.301
40.4565
19.4295
91.2124
21.6343
39.8816
19.5372
95.4731
102.19
289.669
287.546
105.106
39.8691
21.8461
93.9288
19.5843
89.4386
19.499
40.9614
100.488
290.275
288.099
105.903
39.1652
21.6186
19.5603
95.4706
19.4916
91.7428
40.6764
105.556
285.766
102.716
289.873
40.7526
19.5162
94.3016
21.8727
39.6421
19.4706
96.4638
106.477
285.483
98.6692
290.729
38.0602
21.8262
95.8621
19.5207
91.5559
19.4867
40.2425
103.537
289.987
286.018
105.391
38.565
21.8902
19.5493
96.4483
19.5479
94.7728
40.943
103.823
290.94
283.138
105.712
162.673
159.412
23.8754
167.566
164.576
411.404
413.438
415.227
413.265
23.5089
167.451
165.108
164.357
159.388
413.291
412.499
38.4644
19.2598
86.2035
21.4312
37.7953
19.3498
94.2315
101.551
284.413
93.4171
288.741
100.606
283.592
95.824
288.278
37.9636
21.5794
19.3266
93.9415
19.3583
88.6384
37.9995
36.7297
21.638
19.3153
94.2681
19.3053
87.8748
38.9146
94.8563
288.889
285.998
102.251
96.0424
288.513
280.479
101.516
414.301
414.741
412.068
413.568
23.7794
166.216
162.326
160.096
164.117
415.241
415.066
413.148
412.373
412.644