/*--------------------------------*- C++ -*----------------------------------*\
| =========                 |                                                 |
| \\      /  F ield         | OpenFOAM: The Open Source CFD Toolbox           |
|  \\    /   O peration     | Version:  2206                                  |
|   \\  /    A nd           | Website:  www.openfoam.com                      |
|    \\/     M anipulation  |                                                 |
\*---------------------------------------------------------------------------*/
FoamFile
{
    version     2.0;
    format      ascii;
    arch        "LSB;label=32;scalar=64";
    class       surfaceScalarField;
    location    "40";
    object      phi;
}
// * * * * * * * * * * * * * * * * * * * * * * * * * * * * * * * * * * * * * //

dimensions      [0 3 -1 0 0 0 0];

oriented        oriented;

internalField   nonuniform List<scalar> 
198714
(
-3.33647e-12
-1.3961e-12
1.28417e-13
2.09886e-12
-1.11799e-07
1.11801e-07
-3.89981e-11
-9.71978e-14
-4.94601e-13
2.80592e-11
3.96745e-11
-2.50678e-11
-5.24388e-11
5.05872e-11
-5.39232e-11
5.31858e-11
1.07228e-07
-4.39368e-11
2.81819e-12
-1.34641e-13
1.58401e-11
4.33976e-11
-1.78487e-11
8.49684e-13
2.09685e-11
-2.31181e-11
-1.37955e-12
-1.08128e-07
1.08131e-07
2.9162e-11
4.43443e-11
4.40373e-11
2.91669e-11
2.59679e-08
3.61978e-11
3.90236e-11
3.59971e-11
3.57302e-11
2.59564e-08
-2.61033e-08
2.13588e-12
1.1067e-11
3.55801e-11
-1.36885e-11
2.33727e-11
1.94454e-11
-2.23097e-11
-2.48497e-11
-1.09141e-07
1.09144e-07
-3.58057e-11
1.86536e-12
1.92862e-12
1.20626e-11
3.58915e-11
-1.79392e-11
2.38905e-11
1.98722e-11
-1.94329e-11
-2.41777e-11
1.09167e-07
3.61057e-11
3.65888e-11
2.59566e-08
1.04237e-12
2.75589e-11
3.90825e-11
-2.90924e-11
-5.30803e-11
4.9582e-11
-5.20724e-11
5.22893e-11
-1.07245e-07
1.07248e-07
-2.93448e-11
2.30586e-12
1.30137e-12
2.42705e-11
2.95912e-11
-2.61267e-11
-3.44445e-11
4.85824e-11
-5.15117e-11
3.29193e-11
-1.0824e-07
1.08242e-07
7.30933e-13
3.85617e-13
2.43889e-11
3.02134e-11
-2.5151e-11
-3.37552e-11
4.95831e-11
-5.09702e-11
3.38121e-11
1.08248e-07
4.29439e-11
2.95045e-11
2.59627e-08
-2.61084e-08
7.31014e-13
9.81823e-13
1.58996e-11
4.43995e-11
-1.74513e-11
1.71797e-12
2.13162e-11
-2.25189e-11
-1.01564e-12
1.08172e-07
-1.44086e-13
-2.29393e-12
1.63784e-08
-1.77617e-12
-3.59772e-12
-1.63706e-08
6.10236e-14
-1.28858e-11
2.25291e-08
1.31988e-12
1.65455e-12
-2.25193e-08
1.00055e-13
-9.78397e-13
8.24131e-09
-4.58246e-12
1.47163e-12
-1.06231e-11
1.60309e-08
-3.7638e-12
-3.23939e-12
-1.60147e-08
-4.66744e-11
1.19284e-13
2.19169e-08
4.21884e-12
1.2796e-11
-2.18874e-08
3.14016e-13
2.812e-13
1.11792e-07
1.55345e-12
-2.76077e-13
-1.12079e-07
1.12083e-07
7.27383e-13
6.55827e-13
1.12108e-07
8.16757e-12
1.07666e-11
-2.50436e-11
2.2937e-08
-1.46942e-11
4.28209e-13
2.35695e-13
-8.88099e-11
1.1922e-10
-1.19164e-10
8.83595e-11
1.09373e-07
4.69899e-11
1.59846e-13
2.41914e-08
1.03172e-11
-8.67312e-11
-1.55892e-12
-3.71725e-12
8.08551e-09
-4.00335e-12
-8.07623e-09
-2.25019e-13
4.25361e-12
2.33111e-13
-4.63228e-12
3.85348e-12
-1.59702e-12
1.08753e-07
2.09333e-12
2.25841e-12
-6.06101e-12
2.32792e-08
-6.3621e-12
1.33271e-13
1.27609e-11
2.46985e-08
-1.83471e-11
4.39505e-12
-8.0922e-12
4.01028e-12
-2.16507e-11
2.51169e-08
2.61749e-12
-2.49036e-12
1.50167e-12
-1.35375e-11
2.52387e-08
1.43784e-13
-1.47432e-12
8.24092e-09
-4.35931e-12
-8.23523e-09
-3.71766e-12
8.08543e-09
-3.95408e-12
-8.07628e-09
-2.53567e-12
-1.33898e-11
2.54328e-08
8.336e-14
-2.54184e-08
-7.84467e-12
-2.10984e-11
2.49267e-08
3.12782e-12
-2.49046e-08
-2.39761e-12
1.63823e-08
-1.95645e-12
-3.61175e-12
-1.30595e-11
2.25332e-08
1.48505e-12
1.74655e-12
-5.77785e-12
2.32696e-08
-6.40817e-12
-2.32622e-08
-3.33595e-13
3.18211e-12
2.13021e-11
-5.54819e-12
4.02886e-12
-2.26716e-11
-1.11098e-07
1.111e-07
1.94852e-13
2.46982e-08
4.30997e-12
-1.82904e-11
-2.46973e-08
2.52573e-12
-6.09276e-12
2.32635e-08
-6.39643e-12
2.02767e-12
2.18802e-11
-5.10552e-12
4.43653e-12
-2.20274e-11
1.11111e-07
2.47016e-08
4.48233e-12
-1.82403e-11
-1.39033e-11
2.52999e-08
5.81038e-14
3.93846e-12
-2.20773e-11
2.50629e-08
2.82609e-12
-1.37097e-12
8.08668e-09
-3.69066e-12
-2.41745e-11
2.29247e-08
-1.4324e-11
-2.29047e-08
8.13371e-13
1.44774e-12
-8.951e-11
1.18713e-10
-1.19858e-10
8.7735e-11
-1.09372e-07
1.09374e-07
1.87274e-13
2.41904e-08
1.0082e-11
-8.62622e-11
-2.41611e-08
-1.06901e-11
1.60277e-08
-3.95836e-12
-3.2256e-12
-1.60114e-08
-4.66996e-11
2.1913e-08
1.28269e-11
4.38307e-12
-2.18834e-08
1.57782e-12
-7.2323e-11
1.18025e-10
-1.19646e-10
7.11448e-11
-1.10546e-07
1.1055e-07
8.12198e-12
-2.42517e-11
2.29092e-08
-1.44993e-11
-2.28893e-08
2.41874e-08
-8.63168e-11
1.00991e-11
-2.41577e-08
1.60333e-08
-3.7442e-12
-3.21029e-12
4.20221e-14
2.19187e-08
4.33145e-12
1.31163e-11
-3.97425e-14
-7.13562e-11
1.18811e-10
-1.1878e-10
7.19467e-11
1.10553e-07
1.09134e-11
-2.45997e-11
2.29208e-08
-1.44812e-11
4.69962e-11
2.41884e-08
-8.67558e-11
1.02142e-11
1.5112e-12
1.60265e-08
-3.86877e-12
-3.16015e-12
2.19145e-08
1.31362e-11
4.35445e-12
-2.11723e-11
2.49832e-08
2.78498e-12
-2.49604e-08
1.22885e-12
-1.40379e-11
2.53731e-08
5.26421e-13
3.7932e-13
8.24085e-09
-4.38284e-12
2.40751e-12
4.33335e-13
-4.47097e-12
3.72231e-12
-1.62197e-12
1.08767e-07
2.67083e-12
-6.02066e-12
2.32734e-08
-6.51886e-12
1.28436e-11
2.47013e-08
-1.84543e-11
4.37285e-12
1.63772e-08
-1.71772e-12
-3.67303e-12
8.28518e-14
2.25277e-08
1.53769e-12
1.1157e-12
-1.91198e-13
1.63799e-08
-2.00073e-12
-3.55177e-12
2.25324e-08
1.66343e-12
9.39878e-13
8.08428e-09
-3.76132e-12
8.24034e-09
-4.41186e-12
-3.06271e-12
-6.87934e-09
2.1194e-13
5.58276e-12
6.87661e-09
1.69527e-12
-1.03968e-13
3.15117e-12
3.17437e-12
1.63705e-08
2.4599e-08
-3.23914e-12
-2.66709e-12
-7.06446e-12
-2.45878e-08
2.67272e-12
7.41162e-12
2.45876e-08
-3.11004e-13
-5.70935e-12
-6.87656e-09
3.20048e-13
5.37719e-13
-1.22306e-08
3.04954e-12
1.22269e-08
-1.55782e-12
-1.77589e-12
1.09886e-13
1.3446e-11
2.25189e-08
1.49124e-08
4.62142e-13
-6.03648e-14
-3.14131e-12
-1.49083e-08
2.16852e-08
3.10711e-13
-1.06292e-11
-2.16759e-08
-3.83264e-14
3.0043e-12
1.49082e-08
1.0954e-11
2.16757e-08
-3.15104e-12
-1.2227e-08
-1.81361e-13
1.51791e-12
3.89525e-12
8.23608e-09
-1.01243e-11
-1.07617e-12
1.60544e-12
-1.18496e-08
-2.30813e-12
1.18615e-08
4.39152e-12
1.31397e-11
-2.18871e-08
1.26023e-13
2.19164e-08
-4.69277e-11
6.61916e-12
-2.10921e-08
2.11181e-08
-3.84093e-11
-1.44281e-08
1.34734e-13
-2.35632e-12
1.44424e-08
1.18029e-12
-6.68608e-09
6.67842e-09
1.70638e-12
4.77195e-12
3.75464e-12
1.60141e-08
-1.44419e-12
1.15333e-11
2.92801e-12
2.40066e-08
9.83657e-13
-6.41038e-12
-2.47055e-11
-2.39802e-08
2.39795e-08
6.79387e-12
2.52402e-11
-1.41412e-12
-5.05489e-12
-6.67862e-09
-8.23971e-13
-5.02062e-12
6.68587e-09
-3.84683e-12
1.37354e-12
-3.33683e-12
1.60308e-08
-1.0848e-11
2.40064e-08
-2.49515e-11
1.06573e-11
1.17533e-12
-1.1862e-08
2.25486e-12
-4.5822e-12
-1.35001e-11
1.33663e-13
4.77091e-11
2.11186e-08
9.86305e-12
-3.82288e-11
-2.10924e-08
1.44429e-08
9.58929e-13
1.42182e-13
-2.75847e-12
-1.44285e-08
3.93689e-11
1.7299e-13
2.35068e-12
-2.59273e-12
-1.185e-08
8.07633e-09
1.52476e-12
3.98174e-12
3.68239e-12
-1.46827e-12
-4.31693e-12
8.08563e-09
-3.52243e-12
2.1865e-11
-7.32902e-12
-2.17821e-08
-1.25644e-11
1.8017e-11
2.17621e-08
2.45293e-08
2.17467e-11
-4.03068e-11
-3.2504e-11
2.14986e-11
-2.82736e-12
-3.9205e-12
8.01811e-12
2.50941e-08
1.54605e-08
-7.98719e-12
9.05063e-13
-2.92094e-12
4.05536e-11
3.24587e-11
2.44997e-08
-8.44693e-13
2.79982e-12
1.54484e-08
1.2739e-11
-1.79708e-11
1.87169e-11
-4.7196e-12
-2.0865e-08
-1.26985e-11
1.23915e-11
2.08513e-08
2.39114e-08
1.80776e-11
-2.72727e-11
-2.29584e-11
1.32549e-11
-3.35626e-13
-1.4764e-12
2.5111e-12
2.52248e-08
1.53503e-08
-5.41249e-12
-4.19036e-14
-3.05848e-12
2.69805e-11
2.38857e-11
2.38925e-08
6.41205e-14
2.96466e-12
1.53422e-08
1.26304e-11
-1.27293e-11
-2.37743e-12
-2.29249e-12
-1.80932e-08
1.80726e-08
6.74464e-09
-3.24631e-12
-3.43305e-12
6.78627e-09
-3.21062e-12
-3.6633e-12
4.00643e-12
6.73742e-09
4.23113e-12
6.77981e-09
1.57716e-12
3.99785e-12
8.23525e-09
8.07617e-09
4.14706e-12
3.65637e-12
-4.26795e-12
8.0854e-09
-3.58029e-12
-5.10859e-12
1.81948e-11
-2.18682e-08
-1.18721e-11
1.57894e-11
2.18512e-08
2.47262e-08
1.68358e-11
-2.90297e-11
-2.16599e-11
-2.47058e-08
-6.90693e-13
1.38387e-11
3.21886e-12
2.5418e-08
1.56038e-08
-5.07926e-12
-4.42285e-13
-3.21426e-12
-1.55949e-08
1.5847e-13
2.92388e-12
1.55949e-08
2.96706e-11
2.32362e-11
2.47054e-08
1.10846e-11
-1.59062e-11
-2.18517e-08
-7.90415e-12
2.29231e-11
-2.07846e-08
-1.35905e-11
1.45536e-11
2.07686e-08
2.373e-08
2.30689e-11
-3.64159e-11
-3.24991e-11
-2.37052e-08
-2.65182e-12
2.1883e-11
7.74608e-12
2.49039e-08
1.52114e-08
-7.48028e-12
1.13214e-12
-2.92259e-12
-1.5199e-08
-7.32656e-13
2.69144e-12
1.51989e-08
3.75668e-11
3.25097e-11
2.37047e-08
1.3862e-11
-1.37789e-11
-2.07691e-08
-2.58896e-12
-3.03454e-12
-1.80953e-08
1.80754e-08
6.78233e-09
-2.79656e-12
-4.03179e-12
-6.77594e-09
6.7487e-09
-2.58476e-12
-3.9208e-12
-6.74105e-09
3.94936e-12
6.77597e-09
3.81055e-12
6.74112e-09
-1.80757e-08
-2.84183e-12
-6.88291e-09
3.82325e-14
5.66965e-12
6.88004e-09
1.11997e-12
3.0242e-12
3.16729e-12
1.63748e-08
2.46105e-08
-3.65626e-12
-3.01589e-12
-7.41402e-12
2.45697e-12
7.58664e-12
2.45988e-08
-4.6612e-13
-5.63025e-12
4.45105e-13
8.52542e-13
-1.22363e-08
3.20996e-12
1.22318e-08
-1.65809e-12
-1.58451e-12
1.31416e-11
2.25234e-08
1.49157e-08
2.64251e-13
-3.28456e-12
2.16943e-08
3.67698e-13
-1.07217e-11
2.99732e-12
1.49115e-08
1.08318e-11
2.16852e-08
-2.76568e-12
2.2802e-11
6.37887e-11
-2.08995e-08
-1.24146e-10
-1.19661e-10
2.10567e-08
2.42969e-08
1.4118e-11
-3.06157e-11
-2.2044e-11
-9.67062e-12
8.65176e-12
2.83462e-12
2.52996e-08
1.53424e-08
-7.4523e-12
-2.41066e-12
-3.19054e-12
-2.37907e-11
2.52956e-12
1.53768e-08
-3.7597e-12
2.72951e-11
2.43458e-08
-2.99831e-12
-3.17755e-11
-2.3157e-11
-3.42125e-11
-2.17655e-08
1.06715e-10
1.4177e-10
2.15744e-08
2.41582e-08
2.56805e-11
-3.63142e-11
-3.32868e-11
2.68669e-11
6.47856e-12
-3.7663e-12
7.79081e-12
2.50255e-08
1.54724e-08
-6.69122e-12
3.16587e-12
-2.86231e-12
6.98841e-11
2.92261e-11
2.40628e-08
2.36181e-11
3.13204e-12
1.5418e-08
2.94601e-11
-2.22161e-13
2.17455e-11
-2.58114e-11
-1.81012e-08
1.80879e-08
6.78644e-09
-5.46649e-12
-3.56619e-12
6.74602e-09
-1.21037e-12
-3.49985e-12
3.76593e-12
6.78064e-09
4.31774e-12
6.73951e-09
1.70016e-12
3.45636e-12
8.07777e-09
-1.28748e-12
-1.02959e-11
1.83463e-12
-1.18444e-08
-2.24108e-12
1.18564e-08
1.31703e-11
4.56416e-12
-2.18833e-08
2.19126e-08
-4.69885e-11
-1.4425e-08
-2.34229e-12
1.44393e-08
6.88675e-12
-2.10828e-08
2.1109e-08
-3.87525e-11
1.32996e-12
-6.68287e-09
6.67529e-09
1.50208e-12
4.75166e-12
3.64054e-12
1.60111e-08
1.15655e-11
2.92086e-12
2.39951e-08
9.12966e-13
-6.66076e-12
-2.46665e-11
-2.39686e-08
2.39681e-08
6.5813e-12
2.53312e-11
-1.66882e-12
-4.94683e-12
-6.67535e-09
-7.12582e-13
-4.97751e-12
6.68281e-09
-4.03266e-12
-3.32784e-12
1.60279e-08
-1.09062e-11
2.39952e-08
-2.4886e-11
8.92792e-13
1.05543e-11
-1.18566e-08
2.29816e-12
-1.35585e-11
-4.33945e-12
4.77645e-11
1.44397e-08
1.18127e-12
-2.71653e-12
-1.44252e-08
2.11092e-08
1.00272e-11
-3.85013e-11
-2.1083e-08
2.28684e-12
3.91822e-11
-2.55237e-12
-1.18445e-08
1.16961e-12
-6.68698e-09
1.63491e-12
4.64007e-12
6.67954e-09
3.7811e-12
1.10288e-11
2.76204e-12
1.60174e-08
2.40095e-08
1.00207e-12
-6.56484e-12
-2.48572e-11
6.59656e-12
2.4684e-11
2.39831e-08
-1.59976e-12
-4.51846e-12
1.05251e-11
1.30259e-12
-1.18639e-08
2.40225e-12
1.18513e-08
-4.42674e-12
-1.33365e-11
-4.65971e-16
4.72722e-11
2.18892e-08
2.11203e-08
9.78127e-12
-3.82026e-11
1.44451e-08
8.64554e-13
3.87834e-14
-2.34621e-12
3.8872e-11
2.10942e-08
5.79078e-14
2.12734e-12
1.44309e-08
-2.11967e-12
1.41963e-12
-6.68189e-09
1.50702e-12
4.69824e-12
6.67427e-09
3.71463e-12
-1.7015e-12
1.11952e-11
2.83043e-12
1.60105e-08
2.39961e-08
1.12016e-12
-6.74061e-12
-2.48914e-11
6.54106e-12
2.49615e-11
2.39698e-08
-1.79378e-12
-4.50905e-12
1.20368e-12
1.05307e-11
-1.1856e-08
2.4735e-12
1.18434e-08
-1.33701e-11
-4.35697e-12
4.72738e-11
2.1885e-08
1.44409e-08
9.80492e-13
-2.35724e-12
2.11103e-08
1.01805e-11
-3.87116e-11
2.12449e-12
1.44266e-08
3.87912e-11
2.10843e-08
-2.01395e-12
-7.63972e-12
2.27471e-11
-2.07861e-08
-1.39866e-11
1.44646e-11
2.07705e-08
2.40988e-08
2.22196e-11
-3.83792e-11
-3.23828e-11
-2.40715e-08
-2.87926e-12
2.19497e-11
8.22879e-12
2.49599e-08
1.51986e-08
-7.4725e-12
7.32126e-13
-2.90644e-12
-1.51862e-08
-7.61273e-13
2.68892e-12
1.51862e-08
3.97824e-11
3.27706e-11
2.4071e-08
1.37983e-11
-1.37899e-11
-2.07713e-08
1.81648e-11
-5.51692e-12
-2.18758e-08
-1.12389e-11
1.59959e-11
2.18583e-08
2.43471e-08
1.76663e-11
-2.83513e-11
-2.25101e-11
-2.43279e-08
1.41319e-11
-6.11803e-13
-1.60532e-12
2.3045e-12
2.53589e-08
1.56195e-08
-5.46432e-12
-1.43827e-13
-3.30382e-12
2.83104e-11
2.34829e-11
2.43276e-08
9.21763e-14
2.95281e-12
1.56103e-08
1.10101e-11
-1.62941e-11
-2.18583e-08
-2.64891e-12
-2.90998e-12
-1.81002e-08
1.80806e-08
6.74863e-09
-2.79708e-12
-4.09892e-12
-6.741e-09
6.78452e-09
-2.70925e-12
-3.85561e-12
3.69995e-12
6.74153e-09
3.99963e-12
6.7777e-09
-1.80809e-08
-7.9335e-14
3.88454e-12
8.23545e-09
-3.06169e-12
-6.87699e-09
2.82669e-13
5.62233e-12
6.87415e-09
1.63926e-12
3.11194e-12
3.16906e-12
1.63692e-08
2.45962e-08
-3.43613e-12
-2.57541e-12
-7.35591e-12
2.72839e-12
7.46845e-12
2.45846e-08
-2.17677e-13
-5.66481e-12
9.83602e-13
5.83216e-13
-1.22268e-08
3.15732e-12
1.22224e-08
-1.75625e-12
-1.50849e-12
8.32091e-14
1.32171e-11
2.25177e-08
2.16827e-08
4.91055e-14
-1.01866e-11
1.49091e-08
1.35732e-13
1.34238e-13
-3.24725e-12
1.10974e-11
2.16736e-08
1.2912e-13
2.9725e-12
1.49051e-08
-2.94215e-12
-2.90419e-12
-6.88143e-09
1.28901e-13
5.77487e-12
6.87843e-09
1.49004e-12
2.08109e-13
2.99895e-12
3.27107e-12
1.6372e-08
2.46066e-08
-3.22201e-12
-2.77709e-12
-7.49321e-12
2.57176e-12
7.25658e-12
2.45954e-08
-4.66802e-13
-5.52089e-12
9.38173e-13
3.167e-13
-1.22335e-08
3.20443e-12
1.22291e-08
-1.57446e-12
-1.23141e-12
1.31766e-11
2.25221e-08
2.1692e-08
1.09473e-13
-1.03066e-11
1.49129e-08
2.98676e-13
-3.21542e-12
1.10123e-11
2.16829e-08
2.97239e-12
1.49091e-08
-2.88046e-12
3.50485e-12
8.07516e-09
4.18812e-12
8.2349e-09
1.42041e-12
-1.14417e-12
-1.16727e-07
1.1673e-07
8.78894e-14
5.30752e-13
-1.14359e-07
1.14362e-07
-1.37747e-12
-4.05671e-14
-1.24133e-07
1.24136e-07
1.6587e-11
1.93767e-11
-2.35146e-08
2.3509e-08
2.53947e-08
1.70352e-11
2.43618e-08
1.92351e-11
-4.35206e-11
-2.79192e-11
2.6114e-08
2.53832e-08
2.43628e-08
1.52957e-11
2.15689e-11
-2.35053e-08
2.34988e-08
2.54758e-08
1.42937e-11
-2.54721e-08
2.42779e-08
2.15863e-11
-2.42726e-08
-3.56151e-11
-3.59411e-11
2.61026e-08
2.54715e-08
2.4272e-08
-2.34991e-08
-2.21572e-11
5.87876e-11
-2.35119e-08
2.34974e-08
2.5429e-08
1.27093e-11
2.43247e-08
2.35547e-11
-4.16599e-11
-2.97834e-11
2.61036e-08
2.43057e-08
2.54363e-08
1.7769e-11
1.86906e-11
-2.34968e-08
2.34908e-08
2.53348e-08
1.8546e-11
-2.53245e-08
2.43978e-08
1.71387e-11
-2.4398e-08
-2.86851e-11
-4.32701e-11
2.61076e-08
2.43974e-08
2.53239e-08
-2.34911e-08
6.83466e-13
1.16727e-07
1.09728e-12
-6.87185e-14
1.14364e-07
-3.05722e-13
1.24136e-07
-4.00458e-13
-1.17902e-07
1.17906e-07
2.12696e-12
-2.15037e-12
-1.12344e-07
1.12348e-07
-1.83191e-12
-1.2427e-07
1.24274e-07
1.08499e-12
1.17915e-07
1.81209e-12
1.1235e-07
1.24274e-07
-3.67705e-11
-4.4524e-11
-2.52743e-08
-2.53702e-11
2.53286e-08
2.48192e-08
-3.73114e-11
2.55916e-11
1.40716e-11
2.29161e-08
2.40034e-08
-4.47988e-11
-1.38297e-11
2.47833e-08
1.35724e-11
2.3984e-08
2.45278e-11
-6.80588e-11
1.65725e-11
-2.49237e-08
2.4861e-08
-9.82902e-12
8.70255e-11
-3.71515e-14
2.41615e-08
2.3751e-08
-6.68955e-11
2.55896e-08
1.76521e-11
6.90484e-12
2.37256e-08
-6.58917e-12
2.55806e-08
-2.21506e-11
-8.94852e-12
-2.55736e-08
-5.15025e-11
2.56571e-08
2.50746e-08
-2.15944e-11
-2.50606e-08
7.32281e-12
6.35424e-12
2.32709e-08
2.44263e-08
-8.99326e-12
-4.59574e-12
2.50601e-08
4.92619e-12
2.44263e-08
5.17599e-11
-2.56573e-08
5.01279e-12
-1.42731e-11
-2.52176e-08
2.51756e-08
1.90767e-11
-4.22346e-12
-2.45405e-14
2.46969e-08
2.59822e-08
5.63251e-12
3.45313e-13
2.41873e-08
-1.26616e-11
-1.96462e-13
2.60104e-08
2.41848e-08
-8.35133e-12
-2.55683e-11
-2.55538e-08
8.26177e-12
2.56028e-08
2.50869e-08
-2.4648e-11
-2.50703e-08
6.58548e-12
7.45389e-12
2.32619e-08
2.44244e-08
-7.71796e-12
-7.93599e-12
-2.44222e-08
8.0299e-12
2.44221e-08
2.50697e-08
-7.80296e-12
-2.56032e-08
-1.25356e-11
8.72012e-12
-2.5226e-08
2.52594e-08
-4.29012e-12
1.877e-11
6.24107e-14
2.46971e-08
2.41875e-08
-1.22238e-11
-2.41895e-08
2.59827e-08
8.80313e-12
4.32956e-13
-2.60158e-08
2.41896e-08
-1.66012e-13
2.60144e-08
-2.52599e-08
-8.20232e-12
-2.58662e-11
-2.55559e-08
8.45375e-12
2.56054e-08
2.50373e-08
-2.45945e-11
6.13949e-12
7.17346e-12
2.3256e-08
2.44304e-08
-7.91409e-12
-8.1457e-12
7.88022e-12
2.44281e-08
2.50265e-08
-7.97159e-12
-1.2667e-11
8.70878e-12
-2.52305e-08
2.52648e-08
-4.21048e-12
1.84965e-11
2.47005e-08
2.41943e-08
-1.23631e-11
2.59855e-08
8.96685e-12
2.41961e-08
2.6017e-08
-4.47409e-11
-3.64175e-11
-2.52705e-08
-2.53219e-11
2.53239e-08
2.4767e-08
-3.67359e-11
-2.47374e-08
1.4071e-11
2.57152e-11
2.29042e-08
2.40005e-08
-4.43548e-11
-1.36251e-11
-2.39816e-08
1.38274e-11
2.39813e-08
2.47368e-08
2.50636e-11
-2.53244e-08
-6.84941e-11
1.68495e-11
-2.4923e-08
2.48598e-08
-9.97676e-12
8.73985e-11
2.72817e-14
2.41607e-08
2.37496e-08
-6.68419e-11
-2.37245e-08
2.55897e-08
1.72416e-11
7.0347e-12
-2.55815e-08
2.37243e-08
-6.60284e-12
2.55807e-08
-2.48598e-08
-4.4287e-11
-3.96603e-11
-2.52445e-08
2.75509e-11
2.52665e-08
2.47712e-08
-3.99649e-11
-2.47393e-08
1.40725e-11
2.59894e-11
2.28889e-08
2.3989e-08
-4.34224e-11
-1.68256e-11
-2.39679e-08
1.64813e-11
2.39676e-08
2.47388e-08
-2.79959e-11
-2.5267e-08
1.991e-11
-6.72996e-11
-2.49235e-08
2.49261e-08
8.74961e-11
-9.91105e-12
2.41576e-08
2.55877e-08
2.03345e-11
-2.55693e-08
2.37412e-08
-6.65466e-11
-2.37199e-08
2.55689e-08
2.37196e-08
-2.49266e-08
-3.96067e-11
-4.35513e-11
-2.52487e-08
2.74116e-11
2.52707e-08
2.48243e-08
-4.01424e-11
2.54097e-11
1.39046e-11
2.29007e-08
2.39916e-08
-4.33397e-11
-1.69021e-11
2.47916e-08
1.63883e-11
2.39705e-08
-2.80467e-11
1.97013e-11
-6.66374e-11
-2.49242e-08
2.49272e-08
8.6996e-11
-9.89796e-12
2.41585e-08
2.55878e-08
2.05311e-11
2.37425e-08
-6.64864e-11
2.55691e-08
2.37212e-08
-2.21247e-11
-8.78067e-12
-2.5577e-08
-5.15097e-11
2.56611e-08
2.50265e-08
-2.13034e-11
6.69409e-12
6.32187e-12
2.32659e-08
2.44323e-08
-9.22397e-12
-4.61982e-12
2.50125e-08
4.92363e-12
2.44321e-08
5.19306e-11
5.19382e-12
-1.42081e-11
-2.52223e-08
2.51802e-08
1.90011e-11
-4.26591e-12
2.46997e-08
2.59851e-08
5.43993e-12
2.41931e-08
-1.27913e-11
2.60129e-08
2.41906e-08
-2.07708e-12
-1.2569e-13
2.8637e-09
-7.12163e-14
-2.86502e-09
-1.0665e-12
-1.17014e-13
1.55294e-09
3.74867e-15
-1.55382e-09
-4.59081e-13
-7.4562e-14
7.65061e-10
1.44475e-14
-7.65592e-10
-1.28262e-13
-3.80323e-14
3.16462e-10
8.01566e-15
-3.16738e-10
-1.07351e-14
7.50388e-11
3.78183e-15
-7.51379e-11
-2.60317e-12
3.56104e-15
5.36104e-09
-1.50018e-13
-1.26186e-12
3.98626e-14
2.90156e-09
-9.57141e-14
-4.93384e-13
2.78894e-14
1.43008e-09
-5.7205e-14
-1.19921e-13
1.17976e-14
5.92603e-10
-3.03585e-14
7.42436e-15
1.41021e-10
-5.12773e-15
-1.80477e-12
2.60583e-14
2.86799e-09
-2.22974e-13
-2.86923e-09
-8.70609e-13
-3.3527e-14
1.55528e-09
-9.76683e-14
-1.5561e-09
-3.39578e-13
-3.1503e-14
7.66208e-10
-4.6568e-14
-7.66688e-10
-8.1064e-14
-1.9135e-14
3.16904e-10
-2.31508e-14
-3.1715e-10
-6.72935e-15
7.51341e-11
-4.31896e-15
-7.52251e-11
-2.3187e-12
-6.66147e-14
5.36569e-09
4.24703e-14
-5.36735e-09
-1.12344e-12
-4.5671e-15
2.90417e-09
2.20236e-14
-2.90541e-09
-4.21027e-13
1.06693e-15
1.43142e-09
1.04286e-14
-1.43217e-09
-8.65582e-14
-8.59304e-16
5.93194e-10
1.98644e-15
-5.93583e-10
2.8773e-15
1.41172e-10
3.63566e-15
-1.41311e-10
-2.46416e-12
5.36073e-09
-1.56448e-13
-5.3626e-09
-1.17981e-12
2.90145e-09
-9.28528e-14
-2.90278e-09
-4.5854e-13
1.42997e-09
-4.83564e-14
-1.43075e-09
-1.18104e-13
5.92578e-10
-2.14084e-14
-5.92975e-10
1.41073e-10
-4.44752e-15
-1.41222e-10
-2.30478e-12
5.36553e-09
1.01246e-13
-5.36723e-09
-1.15972e-12
2.90408e-09
6.63239e-14
-2.90529e-09
-4.89774e-13
1.43136e-09
4.30452e-14
-1.43207e-09
-1.46776e-13
5.93125e-10
2.45556e-14
-5.93475e-10
1.41146e-10
5.82321e-15
-1.41281e-10
-2.02541e-12
2.86428e-09
-1.99386e-13
-1.01722e-12
1.55327e-09
-7.46549e-14
-4.26341e-13
7.6526e-10
-2.17099e-14
-1.21301e-13
3.16515e-10
-1.72545e-15
7.50382e-11
-2.21256e-15
-2.06237e-12
8.37658e-16
4.91055e-14
5.36574e-09
-9.82728e-13
3.5344e-14
3.27691e-14
2.90431e-09
-3.79341e-13
2.08723e-14
1.9039e-14
1.4315e-09
-9.66484e-14
5.62004e-15
8.80134e-15
5.93203e-10
6.27791e-15
3.61983e-15
1.41199e-10
-1.83714e-12
2.86777e-09
-2.57742e-13
-2.86896e-09
-9.24615e-13
1.55526e-09
-1.11174e-13
-1.55604e-09
-3.95842e-13
7.66165e-10
-4.28838e-14
-7.6661e-10
-1.2444e-13
3.16927e-10
-1.09921e-14
-3.17143e-10
7.51219e-11
-5.48926e-15
-7.52109e-11
-1.81527e-12
2.86817e-09
-1.8026e-13
-9.16655e-13
1.55546e-09
-6.10086e-14
-3.93627e-13
7.66319e-10
-1.61271e-14
-1.20522e-13
3.1699e-10
-7.07276e-16
7.51535e-11
-1.85724e-15
-1.77385e-12
5.24468e-14
2.8673e-09
-2.50169e-13
-8.84783e-13
-9.11686e-15
1.55487e-09
-1.18814e-13
-3.663e-13
-1.68089e-14
7.65976e-10
-5.6582e-14
-9.84184e-14
-1.33092e-14
3.16852e-10
-2.47951e-14
-3.60583e-15
7.51303e-11
-5.43948e-15
-2.41212e-12
1.02423e-13
-1.01626e-13
5.36098e-09
-1.15271e-12
1.09267e-13
-4.70737e-14
2.90152e-09
-4.58467e-13
7.56178e-14
-1.6975e-14
1.43015e-09
-1.35771e-13
4.13009e-14
-2.38594e-15
5.92638e-10
1.14221e-14
-2.21376e-15
1.41053e-10
-2.06428e-12
2.86335e-09
-9.08154e-14
-1.03687e-12
1.55282e-09
-1.69994e-14
-4.27219e-13
7.65012e-10
-1.5712e-15
-1.06494e-13
3.16422e-10
-2.93305e-15
7.50203e-11
2.66362e-15
-2.00159e-12
-5.77e-14
2.8639e-09
-1.31221e-13
-1.01616e-12
-7.07173e-14
1.55315e-09
-2.51731e-14
-4.4592e-13
-4.10752e-14
7.65168e-10
1.17699e-14
-1.46543e-13
-1.42962e-14
3.16527e-10
1.79835e-14
-9.40543e-15
7.50308e-11
1.6372e-15
-2.09766e-12
1.87154e-14
5.36448e-09
-1.00427e-12
1.79957e-14
2.90344e-09
-3.9652e-13
1.62134e-14
1.43107e-09
-1.21209e-13
1.1295e-14
5.93057e-10
2.70906e-15
1.41135e-10
-2.49977e-12
-1.3903e-13
5.3604e-09
-1.22597e-12
-8.48715e-14
2.90134e-09
-4.92522e-13
-4.81821e-14
1.42994e-09
-1.32644e-13
-2.41616e-14
5.9257e-10
-3.87141e-15
1.41005e-10
3.16323e-12
-5.42537e-14
2.31376e-13
-5.36915e-09
5.37139e-09
1.54399e-12
7.96679e-15
1.31786e-13
-2.90421e-09
2.9057e-09
6.19191e-13
2.10415e-14
6.85711e-14
-1.43058e-09
1.43142e-09
1.61746e-13
1.49951e-14
2.94016e-14
-5.92575e-10
5.93005e-10
4.61265e-15
9.13025e-15
-1.40979e-10
1.41141e-10
1.75543e-12
7.55974e-14
2.86499e-09
8.76465e-13
9.14154e-14
1.55372e-09
3.66499e-13
6.19685e-14
7.65516e-10
9.92982e-14
3.24666e-14
3.16699e-10
9.54592e-15
7.51278e-11
2.0967e-12
-1.56952e-13
1.08484e-13
5.36291e-09
9.99245e-13
-1.39424e-13
5.60094e-14
2.90278e-09
4.02336e-13
-8.42747e-14
3.11199e-14
1.43078e-09
1.06935e-13
-4.01287e-14
1.5643e-14
5.92969e-10
-1.18221e-14
2.47802e-15
1.41156e-10
-1.26901e-12
-1.64845e-13
-3.31349e-09
3.28289e-13
3.3123e-09
-6.04502e-13
-1.02217e-13
-1.79676e-09
1.96703e-13
1.79599e-09
-2.38037e-13
-5.77427e-14
-8.85585e-10
1.1106e-13
8.85161e-10
-7.15795e-14
-2.72101e-14
-3.66613e-10
5.33374e-14
3.66414e-10
-7.05688e-15
-8.70907e-11
1.36197e-14
8.70044e-11
-1.31246e-12
3.46927e-14
-3.62876e-09
3.62752e-09
-6.43132e-13
1.97313e-14
-1.96657e-09
1.96578e-09
-2.69789e-13
1.08884e-14
-9.69562e-10
9.69128e-10
-8.8289e-14
5.89724e-15
-4.01666e-10
4.01464e-10
7.54658e-16
-9.55513e-11
9.54617e-11
2.74763e-12
-2.16678e-13
-5.37717e-09
3.53812e-13
5.37904e-09
1.37476e-12
-9.45386e-14
-2.90866e-09
2.04344e-13
2.90991e-09
5.76746e-13
-3.77273e-14
-1.43285e-09
1.0715e-13
1.43355e-09
1.68271e-13
-1.34378e-14
-5.93486e-10
4.65979e-14
5.93835e-10
-2.81426e-15
-1.41196e-10
1.2807e-14
1.41335e-10
1.59148e-12
2.86914e-09
-1.85739e-14
7.70757e-13
1.55599e-09
3.85476e-14
3.11009e-13
7.66613e-10
3.7679e-14
8.2809e-14
3.17115e-10
2.51257e-14
7.52146e-11
6.33865e-15
-1.83596e-12
5.28064e-14
-2.52101e-13
2.86783e-09
-8.82888e-13
-1.3634e-14
-1.22425e-13
1.55516e-09
-3.49302e-13
-1.82322e-14
-6.00922e-14
7.66146e-10
-9.5413e-14
-1.0843e-14
-2.79773e-14
3.16887e-10
-5.72857e-15
-5.4158e-15
7.51235e-11
1.98982e-12
5.3674e-09
1.43699e-14
-2.66583e-14
9.5175e-13
2.9053e-09
-4.36514e-14
-2.2902e-14
3.8605e-13
1.43206e-09
-3.58195e-14
-1.47181e-14
1.05783e-13
5.93524e-10
-1.86411e-14
-6.86168e-15
1.41295e-10
-7.43328e-15
-3.67286e-15
-2.3936e-12
-9.37747e-14
5.36557e-09
1.143e-14
-1.14985e-12
-1.21587e-14
2.90405e-09
8.51411e-15
-4.59977e-13
5.67834e-15
1.43135e-09
6.15639e-15
-1.29909e-13
6.65128e-15
5.9318e-10
3.27769e-15
3.96669e-15
1.41159e-10
2.13576e-15
-1.61604e-12
2.84932e-09
-1.07476e-13
-8.20328e-13
1.54539e-09
-3.35478e-14
-3.46314e-13
7.61453e-10
-1.05242e-14
-1.0093e-13
3.14963e-10
-1.86995e-15
7.4683e-11
-1.69234e-15
1.51122e-12
5.16572e-14
6.61552e-14
2.85049e-09
7.59273e-13
8.24586e-15
4.8098e-14
1.54607e-09
3.20587e-13
-7.2105e-16
3.1965e-14
7.61846e-10
8.95715e-14
-9.51499e-17
1.70384e-14
3.15164e-10
-1.21399e-15
5.31096e-15
7.47612e-11
-1.65872e-12
2.8476e-09
-3.03087e-13
-8.22827e-13
1.54447e-09
-1.50142e-13
-3.38224e-13
7.60989e-10
-7.44301e-14
-9.88482e-14
3.14781e-10
-3.09706e-14
7.46383e-11
-9.99416e-15
1.57586e-12
2.56905e-13
-1.11469e-13
2.84884e-09
7.73647e-13
1.29822e-13
-6.35966e-14
1.5452e-09
3.21921e-13
6.34483e-14
-3.44477e-14
7.61404e-10
9.57336e-14
2.62018e-14
-1.73716e-14
3.14991e-10
7.88415e-15
-1.81277e-15
7.47224e-11
-2.02165e-12
8.83515e-14
5.16681e-09
-1.00845e-12
5.31773e-14
2.79664e-09
-4.17422e-13
3.14677e-14
1.37768e-09
-1.25534e-13
1.65314e-14
5.70542e-10
3.21698e-15
1.35651e-10
-2.19515e-12
5.16606e-09
-1.12742e-12
2.79609e-09
-4.79264e-13
1.37749e-09
-1.36044e-13
5.70432e-10
1.35625e-10
2.22922e-12
-9.28452e-14
5.16875e-09
1.07816e-12
-5.52021e-14
2.79788e-09
4.374e-13
-3.00689e-14
1.37837e-09
1.24852e-13
-1.31586e-14
5.70894e-10
-3.88091e-15
1.35786e-10
2.39076e-12
5.16807e-09
1.18432e-12
2.79737e-09
4.90676e-13
1.37821e-09
1.34869e-13
5.70798e-10
1.35762e-10
2.16727e-12
8.51414e-14
5.36256e-09
1.03682e-12
4.58533e-14
2.90265e-09
4.19948e-13
2.18527e-14
1.43066e-09
1.15799e-13
9.00771e-15
5.92934e-10
1.02173e-15
1.41207e-10
2.00843e-12
5.36715e-09
-4.2185e-15
9.80845e-13
2.90514e-09
-1.99998e-14
4.09254e-13
1.43196e-09
-2.02908e-14
1.19572e-13
5.93423e-10
-1.30799e-14
1.41266e-10
-4.84004e-15
-2.37715e-12
5.36528e-09
4.50012e-14
-1.14761e-12
2.90388e-09
3.41804e-14
-4.65662e-13
1.43126e-09
2.55663e-14
-1.38669e-13
5.93089e-10
1.6631e-14
1.41128e-10
3.63997e-15
1.72552e-12
-1.75347e-14
2.86557e-09
8.52915e-13
-5.26568e-14
1.55403e-09
3.58102e-13
-4.57132e-14
7.65686e-10
1.01968e-13
-2.78174e-14
3.16731e-10
-5.09286e-15
7.51244e-11
-1.58393e-12
2.84984e-09
-2.16389e-14
-7.95681e-13
1.5456e-09
1.86562e-14
-3.30269e-13
7.61538e-10
1.81093e-14
-9.58733e-14
3.15035e-10
1.17052e-14
7.46987e-11
4.15252e-16
1.62973e-12
1.34533e-13
4.68784e-14
2.85116e-09
7.99506e-13
4.89692e-14
3.18307e-14
1.54633e-09
3.32035e-13
1.79514e-14
2.25074e-14
7.61949e-10
9.56758e-14
6.09625e-15
1.00666e-14
3.15239e-10
6.29534e-16
6.30897e-15
7.47793e-11
-2.14084e-12
5.16796e-09
2.24859e-13
-1.09512e-12
2.79683e-09
1.40605e-13
-4.66369e-13
1.37793e-09
7.83506e-14
-1.3859e-13
5.70605e-10
3.70067e-14
1.3567e-10
8.2178e-15
2.52269e-12
2.09921e-14
5.16987e-09
1.25628e-12
1.85249e-14
2.79814e-09
5.16759e-13
1.37368e-14
1.37867e-09
1.40588e-13
9.01819e-15
5.7098e-10
1.4403e-15
1.35808e-10
1.85444e-12
7.74954e-14
5.36734e-09
8.77374e-13
9.67408e-15
2.90535e-09
3.47135e-13
-4.81704e-16
1.4321e-09
9.13499e-14
-1.15881e-15
5.93516e-10
-2.04538e-15
1.41317e-10
-1.25619e-12
-2.25281e-13
-3.31238e-09
4.10808e-13
3.31121e-09
-6.14171e-13
-1.32572e-13
-1.79614e-09
2.4435e-13
1.7954e-09
-2.59172e-13
-7.03588e-14
-8.85231e-10
1.35892e-13
8.84822e-10
-8.84927e-14
-3.09933e-14
-3.6649e-10
6.45761e-14
3.663e-10
-7.57708e-15
-8.70613e-11
1.62271e-14
8.69771e-11
-1.28583e-12
-3.62802e-09
3.62677e-09
-6.15023e-13
-1.96617e-09
1.96538e-09
-2.46715e-13
-9.69366e-10
9.68929e-10
-7.69258e-14
-4.01588e-10
4.01381e-10
-9.55315e-11
9.54419e-11
2.70574e-12
-1.62163e-13
2.77944e-13
-5.37504e-09
5.37697e-09
1.31451e-12
-5.30643e-14
1.65702e-13
-2.90761e-09
2.90891e-09
5.15358e-13
-1.11698e-14
9.37828e-14
-1.43222e-09
1.43297e-09
1.23673e-13
6.73634e-16
4.64454e-14
-5.93279e-10
5.93662e-10
3.64758e-16
1.10494e-14
-1.41121e-10
1.41264e-10
1.59967e-12
2.86893e-09
7.83974e-13
1.55597e-09
3.22931e-13
7.66559e-10
8.89063e-14
3.17125e-10
7.52016e-11
-1.84806e-12
-2.95051e-13
2.86766e-09
-8.99848e-13
-1.44723e-13
1.55516e-09
-3.64271e-13
-6.7234e-14
7.66106e-10
-1.01632e-13
-2.72369e-14
3.16905e-10
-6.47342e-15
7.51128e-11
1.50483e-12
2.13382e-13
2.86928e-09
7.41243e-13
8.48265e-14
1.55611e-09
3.13676e-13
2.52754e-14
7.66679e-10
9.69325e-14
1.32087e-15
3.17167e-10
2.93996e-15
7.52289e-11
2.61692e-12
-1.88491e-13
3.1124e-13
-5.37409e-09
5.37603e-09
1.26767e-12
-7.97146e-14
1.81249e-13
-2.90701e-09
2.90826e-09
5.23803e-13
-3.54559e-14
9.57809e-14
-1.43201e-09
1.43268e-09
1.57552e-13
-1.6491e-14
4.12774e-14
-5.93179e-10
5.93503e-10
-2.83814e-15
1.26836e-14
-1.41124e-10
1.41258e-10
1.54558e-12
-5.89782e-14
2.86846e-09
7.59831e-13
9.89595e-15
1.55557e-09
3.16516e-13
1.50008e-14
7.6637e-10
8.70976e-14
9.93981e-15
3.17054e-10
3.48715e-15
7.52087e-11
-1.82577e-12
2.84849e-09
-1.96108e-13
-9.25139e-13
1.54486e-09
-7.8425e-14
-3.85708e-13
7.61171e-10
-3.94368e-14
-9.87886e-14
3.14854e-10
-2.16077e-14
7.46824e-11
-3.34518e-15
1.63091e-12
-1.27783e-13
2.9139e-13
2.84965e-09
8.34959e-13
-6.92483e-14
1.55517e-13
1.54555e-09
3.58695e-13
-3.09609e-14
8.08127e-14
7.61582e-10
9.93435e-14
-1.14294e-14
3.65364e-14
3.1507e-10
-1.69093e-15
8.06483e-15
7.47641e-11
-2.20331e-12
-6.51251e-14
5.16799e-09
-1.07785e-12
-1.73333e-14
2.79692e-09
-4.46047e-13
2.025e-15
1.37783e-09
-1.40482e-13
6.79279e-15
5.70546e-10
-1.19277e-16
1.35681e-10
2.10138e-12
-8.77894e-14
5.36274e-09
1.00722e-12
-9.09613e-14