/*--------------------------------*- C++ -*----------------------------------*\
| =========                 |                                                 |
| \\      /  F ield         | OpenFOAM: The Open Source CFD Toolbox           |
|  \\    /   O peration     | Version:  2206                                  |
|   \\  /    A nd           | Website:  www.openfoam.com                      |
|    \\/     M anipulation  |                                                 |
\*---------------------------------------------------------------------------*/
FoamFile
{
    version     2.0;
    format      ascii;
    arch        "LSB;label=32;scalar=64";
    class       volVectorField;
    location    "40";
    object      U;
}
// * * * * * * * * * * * * * * * * * * * * * * * * * * * * * * * * * * * * * //

dimensions      [0 1 -1 0 0 0 0];

internalField   nonuniform List<vector> 
67442
(
(8.86799e-07 2.1245e-06 0.129593)
(5.43766e-08 1.8521e-06 0.1259)
(3.71962e-06 -4.59924e-06 0.125959)
(-0.000201554 -0.000202355 0.1225)
(0.000202391 0.000202953 0.122501)
(5.85276e-06 5.63048e-06 0.125978)
(-4.7177e-06 3.56185e-06 0.125973)
(-0.000200151 0.000201917 0.122501)
(3.00626e-06 3.58744e-06 0.12591)
(4.26654e-06 -4.06919e-06 0.125911)
(-1.08612e-06 -2.29055e-06 0.125921)
(0.000202157 -0.000201873 0.122498)
(-4.06652e-06 -1.9339e-06 0.125969)
(8.53089e-06 4.40203e-05 0.0864588)
(6.5565e-07 6.34372e-05 0.108147)
(-1.02781e-05 1.72143e-05 0.0744259)
(4.2935e-05 5.11165e-06 0.0861453)
(6.32356e-05 4.58798e-07 0.107732)
(-4.88953e-08 4.23133e-07 0.129586)
(1.0435e-06 -1.94039e-06 0.129587)
(-4.71684e-07 -1.45487e-07 0.129594)
(-4.56766e-05 3.20252e-05 0.109413)
(1.07599e-06 -1.10303e-06 0.127413)
(-5.85998e-05 -5.76177e-07 0.116728)
(1.57991e-05 -7.75168e-06 0.0743068)
(-2.16791e-06 -4.51472e-06 0.12751)
(3.6496e-05 -4.53754e-05 0.109631)
(1.70415e-07 -5.86398e-05 0.116843)
(-1.83519e-05 -2.64556e-05 0.0993635)
(-3.02909e-05 -1.71299e-05 0.099556)
(1.10819e-05 1.57234e-05 0.0744279)
(1.57177e-05 7.9609e-06 0.0743007)
(3.08108e-05 1.83357e-05 0.0995921)
(1.96549e-05 2.60804e-05 0.0993302)
(-7.07818e-06 4.45949e-05 0.0864582)
(-3.40694e-07 6.31081e-05 0.108147)
(3.65578e-05 4.58908e-05 0.109627)
(-8.21853e-07 5.48083e-06 0.127542)
(8.87122e-07 5.8727e-05 0.116837)
(-3.5179e-05 4.49231e-05 0.109623)
(-4.00973e-07 3.33624e-06 0.127538)
(-3.1411e-07 5.78536e-05 0.116839)
(-3.0677e-05 1.81723e-05 0.0995582)
(-1.73858e-05 2.59316e-05 0.0993638)
(-1.46257e-05 8.54979e-06 0.0743077)
(4.74885e-05 3.23373e-05 0.109407)
(2.06045e-06 3.32144e-08 0.127419)
(6.00671e-05 -4.41708e-09 0.116729)
(4.26291e-05 -4.64457e-06 0.0861521)
(6.30884e-05 3.52311e-07 0.10773)
(2.5633e-06 7.28185e-07 0.127432)
(4.75218e-05 -3.18353e-05 0.109402)
(6.00417e-05 -6.77419e-09 0.116728)
(-4.22404e-05 5.50919e-06 0.0861491)
(-6.19509e-05 1.61226e-07 0.107732)
(9.34607e-07 9.31015e-07 0.127435)
(-4.60219e-05 -3.22173e-05 0.109406)
(-5.84365e-05 3.13424e-07 0.116727)
(-4.23977e-05 -5.04683e-06 0.0861388)
(-6.20112e-05 -3.23453e-08 0.107733)
(1.97042e-05 -2.67442e-05 0.0993358)
(3.01146e-05 -1.78794e-05 0.0995891)
(1.13085e-05 -1.62833e-05 0.074433)
(8.25552e-07 -3.02037e-06 0.127514)
(-3.54092e-05 -4.43337e-05 0.109632)
(-1.39822e-07 -5.82604e-05 0.116842)
(8.77444e-06 -4.50529e-05 0.0864517)
(8.31761e-07 -6.44475e-05 0.108141)
(-7.65423e-06 -4.4476e-05 0.0864495)
(-2.42176e-07 -6.41508e-05 0.108143)
(-1.50893e-05 -8.09076e-06 0.0742942)
(-1.08292e-05 -1.63191e-05 0.0744195)
(-1.6336e-06 -1.90923e-05 0.0725409)
(-8.44819e-06 -4.26247e-05 0.0865272)
(7.04953e-06 4.83769e-05 0.0982219)
(-7.10037e-06 -4.83306e-05 0.0982516)
(1.75166e-06 1.92918e-05 0.07242)
(-4.18789e-07 -2.05127e-05 0.0802566)
(-1.25691e-07 -6.17229e-05 0.108121)
(-8.45831e-07 2.0434e-05 0.0833291)
(2.99925e-06 6.12053e-05 0.105965)
(-1.24464e-07 -2.04456e-05 0.0834029)
(-2.62257e-06 -6.06324e-05 0.10595)
(-6.53989e-07 2.06681e-05 0.0801722)
(9.77671e-06 -1.5041e-05 0.0744993)
(1.68028e-05 -1.6866e-06 0.0797757)
(6.17734e-05 1.67532e-07 0.107729)
(6.108e-05 8.46493e-07 0.105514)
(1.62886e-05 -1.66813e-07 0.0828602)
(-1.67995e-05 1.43223e-06 0.072271)
(-4.12266e-05 -5.77426e-06 0.0860993)
(4.77288e-05 4.6148e-06 0.0977671)
(-4.69969e-05 -3.07113e-06 0.0976344)
(1.75064e-05 6.30646e-07 0.072258)
(1.7826e-05 -6.46146e-07 0.0722547)
(4.33337e-05 5.27755e-06 0.0861434)
(4.77731e-05 3.64935e-06 0.0977655)
(-1.57425e-05 2.02069e-06 0.079715)
(-5.98012e-05 6.22795e-07 0.107494)
(6.17958e-05 1.83504e-06 0.105517)
(1.72426e-05 -1.52668e-07 0.0828639)
(-5.79022e-05 2.61705e-07 0.105291)
(-1.53905e-05 8.7703e-07 0.0827879)
(1.77611e-05 -8.75544e-07 0.0797793)
(-1.54057e-05 7.489e-06 0.0743108)
(1.74704e-05 -8.18851e-06 0.0743073)
(7.53629e-05 2.1619e-05 0.106748)
(-7.51912e-05 -2.18113e-05 0.114113)
(1.95399e-05 2.54304e-05 0.0992333)
(-1.8122e-05 -1.49071e-05 0.0853295)
(7.37847e-05 2.01569e-05 0.113909)
(2.06018e-05 1.46006e-05 0.0853106)
(-7.48499e-05 -2.10132e-05 0.106938)
(1.97208e-05 7.40197e-05 0.106796)
(-2.38672e-05 -7.29529e-05 0.114155)
(2.89995e-05 1.79731e-05 0.0995179)
(-1.83002e-05 -1.68273e-05 0.0853405)
(1.92624e-05 7.34114e-05 0.114021)
(1.8135e-05 1.90776e-05 0.0853699)
(-2.0602e-05 -7.24492e-05 0.106949)
(2.1175e-05 1.89632e-05 0.0918522)
(-5.70417e-06 -1.43973e-05 0.0733183)
(-1.74565e-05 -4.20435e-06 0.0733493)
(9.55549e-06 1.43197e-05 0.0733252)
(1.7338e-05 8.00504e-06 0.073373)
(-2.01671e-05 -1.74769e-05 0.0919916)
(-9.37566e-06 -1.57963e-05 0.0744928)
(-1.51173e-05 -7.95691e-06 0.0742984)
(1.71647e-05 8.60535e-06 0.0743003)
(-2.14793e-05 -7.28694e-05 0.106848)
(2.67366e-05 7.41429e-05 0.114173)
(-2.71722e-05 -1.71007e-05 0.0995476)
(1.86498e-05 1.82668e-05 0.0854506)
(-1.74815e-05 -1.81345e-05 0.0854755)
(-1.91514e-05 -7.06272e-05 0.114043)
(2.5235e-05 7.34007e-05 0.106996)
(-7.35636e-05 -1.91024e-05 0.106699)
(7.81442e-05 2.03453e-05 0.11409)
(-1.74857e-05 -2.55993e-05 0.0991917)
(1.96205e-05 1.3394e-05 0.0852298)
(-1.78787e-05 -1.57599e-05 0.0851994)
(-7.21182e-05 -1.89326e-05 0.113882)
(7.74034e-05 1.71931e-05 0.106891)
(-1.93664e-05 -1.82655e-05 0.0918565)
(1.79804e-05 5.92129e-06 0.0733591)
(8.7868e-06 1.37641e-05 0.0733137)
(-1.66592e-05 -6.29865e-06 0.0733815)
(-6.81526e-06 -1.54575e-05 0.0733156)
(2.20151e-05 1.7163e-05 0.0919919)
(3.65205e-06 -1.88304e-05 0.072534)
(9.1528e-06 -4.23083e-05 0.0865365)
(-5.25259e-06 4.93132e-05 0.0982225)
(8.66909e-06 -4.78314e-05 0.0982585)
(-1.5068e-07 1.99705e-05 0.0724162)
(1.67293e-07 -2.04422e-05 0.0802484)
(9.89397e-07 -6.29665e-05 0.108125)
(-9.77465e-08 2.12491e-05 0.0833276)
(-2.31437e-06 6.16866e-05 0.105968)
(-3.99131e-07 -2.03846e-05 0.0834052)
(3.41877e-06 -6.03786e-05 0.105954)
(4.23698e-07 2.06758e-05 0.0801729)
(1.87511e-05 -7.36011e-05 0.106812)
(-2.63237e-05 7.37378e-05 0.114159)
(2.77557e-05 -1.73275e-05 0.0995379)
(-1.98912e-05 1.70295e-05 0.0853516)
(1.70301e-05 -1.92467e-05 0.0853679)
(1.76474e-05 -7.1476e-05 0.114036)
(-2.38024e-05 7.26017e-05 0.106944)
(7.52894e-05 -2.18297e-05 0.106745)
(-7.4204e-05 2.00257e-05 0.114108)
(1.9156e-05 -2.62869e-05 0.0992207)
(-1.77367e-05 1.33345e-05 0.0853312)
(7.48173e-05 -2.08749e-05 0.113894)
(2.02934e-05 -1.54151e-05 0.0853227)
(-7.47502e-05 1.8395e-05 0.106953)
(1.92306e-05 -2.06522e-05 0.0918631)
(-1.82936e-05 3.02582e-06 0.073361)
(-6.72912e-06 1.32386e-05 0.0733192)
(1.50973e-05 -8.67383e-06 0.0733679)
(8.57244e-06 -1.62348e-05 0.0733405)
(-2.15127e-05 1.60354e-05 0.092001)
(1.47506e-05 -6.73085e-06 0.0743049)
(1.64561e-05 2.89428e-06 0.0797842)
(6.15104e-05 7.00513e-07 0.107728)
(1.61724e-05 1.37649e-06 0.0828626)
(5.96366e-05 1.27426e-07 0.105514)
(-1.65618e-05 -1.94935e-07 0.0722799)
(-4.10412e-05 5.58827e-06 0.0861074)
(4.75811e-05 -3.37574e-06 0.0977673)
(-4.65935e-05 4.11922e-06 0.0976354)
(1.74088e-05 8.67114e-07 0.0722671)
(1.79062e-05 2.02481e-06 0.0722652)
(4.30389e-05 -4.87314e-06 0.086152)
(4.78422e-05 -2.5329e-06 0.0977669)
(-1.6055e-05 -6.9741e-07 0.0797214)
(-5.94525e-05 5.17243e-07 0.107493)
(1.7139e-05 1.38516e-06 0.0828653)
(6.07968e-05 -9.87256e-07 0.105516)
(-1.50844e-05 7.32979e-07 0.0827892)
(-5.84141e-05 7.48819e-07 0.10529)
(1.73099e-05 2.18325e-06 0.0797856)
(1.60927e-05 4.28258e-07 0.0722805)
(4.11622e-05 -4.61982e-06 0.0861139)
(-4.69483e-05 3.80667e-06 0.0977696)
(4.71326e-05 -4.06753e-06 0.0976492)
(-1.61219e-05 -4.70597e-07 0.0722654)
(1.57574e-05 2.53091e-06 0.0797252)
(6.08188e-05 5.8716e-08 0.1075)
(-6.11127e-05 1.25631e-06 0.105517)
(-1.61889e-05 -1.51472e-07 0.0828719)
(5.79501e-05 -5.04572e-07 0.105299)
(1.55725e-05 1.3778e-06 0.0828018)
(-1.67177e-05 -9.3719e-07 0.079791)
(1.62257e-05 5.24201e-07 0.0722671)
(4.13751e-05 4.77308e-06 0.0861014)
(-4.74266e-05 -3.21369e-06 0.0977625)
(4.69038e-05 4.49575e-06 0.0976381)
(-1.62469e-05 1.45099e-06 0.0722542)
(1.62637e-05 -1.75786e-06 0.0797131)
(6.07662e-05 -6.20344e-09 0.107498)
(-1.60399e-05 4.88192e-07 0.0828664)
(-6.01048e-05 -7.86082e-07 0.105516)
(1.52283e-05 -9.37423e-07 0.0827954)
(5.91378e-05 9.57757e-07 0.105294)
(-1.61375e-05 1.76421e-06 0.0797807)
(-7.37324e-05 1.95566e-05 0.106723)
(7.8057e-05 -2.21671e-05 0.114097)
(-1.85849e-05 2.44302e-05 0.0992148)
(1.94993e-05 -1.47018e-05 0.0852392)
(-1.90589e-05 1.55956e-05 0.0852072)
(-7.13605e-05 1.75154e-05 0.113903)
(7.65258e-05 -1.91169e-05 0.106891)
(-2.11209e-05 7.3171e-05 0.106833)
(2.42882e-05 -7.29046e-05 0.114163)
(-2.91612e-05 1.64949e-05 0.0995346)
(1.8135e-05 -1.8152e-05 0.085459)
(-2.08642e-05 7.24327e-05 0.114021)
(-1.73792e-05 1.73711e-05 0.0854906)
(2.32639e-05 -7.3266e-05 0.106997)
(-2.13415e-05 1.63158e-05 0.0918701)
(8.36426e-06 -1.4984e-05 0.0733191)
(1.71772e-05 -5.85871e-06 0.073378)
(-8.04973e-06 1.39712e-05 0.0733179)
(-1.76067e-05 5.48597e-06 0.0734042)
(2.02531e-05 -1.84429e-05 0.0920028)
(-9.62093e-06 1.49898e-05 0.0744945)
(-1.99079e-06 1.90515e-05 0.0725195)
(-8.3634e-06 4.22886e-05 0.0865283)
(7.24705e-06 -4.93402e-05 0.0982126)
(-7.28332e-06 4.84271e-05 0.0982494)
(1.81916e-06 -1.9683e-05 0.0724001)
(8.88427e-07 2.00043e-05 0.0802317)
(-4.16995e-07 6.26224e-05 0.108121)
(3.80535e-06 -6.37399e-05 0.105957)
(3.73265e-07 -2.13279e-05 0.083311)
(-2.30773e-06 5.9516e-05 0.105946)
(9.63505e-07 2.0049e-05 0.083392)
(6.85809e-07 -2.1574e-05 0.0801522)
(2.94538e-06 1.93822e-05 0.0725234)
(9.08134e-06 4.32571e-05 0.0865254)
(-6.20108e-06 -4.90624e-05 0.0982154)
(8.06136e-06 4.91696e-05 0.0982494)
(-6.67414e-07 -1.94096e-05 0.0724047)
(3.62476e-07 2.02119e-05 0.0802352)
(1.13197e-06 6.27204e-05 0.108124)
(-3.08679e-06 -6.32938e-05 0.10596)
(7.84178e-07 -2.12416e-05 0.0833137)
(3.10496e-06 5.97936e-05 0.105948)
(3.05758e-07 2.0342e-05 0.0833963)
(3.0541e-07 -2.1379e-05 0.0801567)
(1.49902e-05 6.70859e-06 0.0742949)
(9.96399e-06 1.61036e-05 0.0744897)
(-1.37082e-06 1.42471e-06 0.130764)
(1.39071e-06 1.75962e-06 0.130685)
(-2.10626e-06 8.98868e-07 0.131771)
(6.94889e-05 7.11181e-05 0.115132)
(-6.05342e-05 -0.000211718 0.119409)
(-0.000207439 -5.80727e-05 0.119402)
(0.000206926 0.000211682 0.122462)
(5.89115e-05 0.000210972 0.119285)
(0.00020383 5.92974e-05 0.119306)
(-6.92725e-05 -6.85285e-05 0.115261)
(-7.04437e-05 -6.8211e-05 0.115133)
(0.000213043 6.00501e-05 0.119418)
(6.22798e-05 0.000208276 0.119393)
(-0.000206086 -0.000208898 0.122467)
(-0.000205734 -5.72783e-05 0.119327)
(-5.68495e-05 -0.000205195 0.119268)
(7.34464e-05 6.67074e-05 0.115263)
(7.06638e-05 -6.879e-05 0.115137)
(-0.000211118 5.93697e-05 0.11942)
(-5.92205e-05 0.000207366 0.119393)
(0.000207003 -0.000209849 0.122463)
(5.93692e-05 -0.000208028 0.119264)
(0.000204738 -5.77444e-05 0.11933)
(-7.1771e-05 6.61787e-05 0.115264)
(-6.78372e-05 7.09461e-05 0.115134)
(6.27075e-05 -0.000211456 0.119409)
(0.000208609 -5.87162e-05 0.119398)
(-0.000205122 0.000209428 0.122463)
(-0.00020354 5.82599e-05 0.119302)
(-5.63037e-05 0.000206836 0.119291)
(7.07806e-05 -6.86582e-05 0.115262)
(-9.41041e-07 7.3819e-07 0.130761)
(-1.33352e-06 6.04895e-07 0.130683)
(-6.82613e-07 4.35123e-07 0.13177)
(1.21098e-06 -8.17494e-07 0.130705)
(-2.45763e-06 -3.2184e-06 0.130743)
(-2.77903e-06 -9.00517e-07 0.131772)
(-7.17607e-07 -1.14043e-06 0.130707)
(-1.26914e-06 -1.89677e-06 0.130744)
(-9.16379e-07 -1.19644e-06 0.131771)
(0.0002531 -5.25815e-06 0.119586)
(-0.000251413 1.09167e-05 0.117829)
(4.38484e-05 -3.44127e-05 0.109236)
(-5.57769e-05 8.79894e-06 0.113878)
(0.000246337 -1.30787e-05 0.117657)
(5.42273e-05 -1.04617e-05 0.113678)
(-0.000249248 2.27974e-06 0.119725)
(0.00024034 -3.61517e-06 0.120505)
(5.50924e-05 -9.15874e-07 0.116502)
(-6.10458e-05 2.10939e-06 0.115951)
(-0.000235556 -1.02502e-06 0.121063)
(5.6128e-05 -2.93412e-06 0.115735)
(0.00023464 -8.23627e-07 0.120864)
(-0.000245326 -9.81676e-08 0.120668)
(-1.48558e-06 0.000247101 0.119746)
(1.29407e-05 -0.000248448 0.117883)
(-3.62532e-05 4.07922e-05 0.109594)
(1.25019e-05 -5.51532e-05 0.114052)
(-9.25496e-06 0.000240977 0.117813)
(-1.15762e-05 5.33382e-05 0.114014)
(3.02149e-06 -0.000245017 0.119767)
(6.36267e-07 0.000233484 0.120685)
(-1.44745e-06 5.53675e-05 0.116801)
(-9.55659e-07 -0.000230463 0.121075)
(4.77945e-06 -6.07241e-05 0.116095)
(-4.39656e-07 0.000228261 0.121055)
(-3.27804e-06 5.57517e-05 0.116056)
(-6.72345e-07 -0.000240608 0.120691)
(-1.02726e-06 -0.000241833 0.119737)
(1.37917e-05 0.000247799 0.117875)
(-3.44751e-05 -4.01871e-05 0.10959)
(1.18179e-05 5.59818e-05 0.114044)
(-1.1701e-05 -5.22893e-05 0.114008)
(-8.46064e-06 -0.000237321 0.117809)
(3.5754e-06 0.000244313 0.119748)
(1.73045e-06 -0.000233645 0.120678)
(-6.72047e-07 -5.45199e-05 0.116797)
(4.43568e-06 5.96424e-05 0.116088)
(-4.43368e-07 0.000228351 0.121065)
(-3.54763e-06 -5.63084e-05 0.116051)
(6.34855e-07 -0.000226084 0.12105)
(1.93169e-07 0.000235734 0.120681)
(1.29939e-08 -0.000243251 0.11974)
(-1.33039e-05 0.000245791 0.117875)
(3.54539e-05 -4.16457e-05 0.109592)
(-1.08793e-05 5.52654e-05 0.114045)
(1.23632e-05 -5.30316e-05 0.114009)
(7.44824e-06 -0.000238418 0.117808)
(-3.64898e-06 0.000242145 0.119746)
(-7.38514e-07 -0.000235368 0.120681)
(1.14711e-06 -5.56502e-05 0.116797)
(-3.45485e-06 5.891e-05 0.11609)
(4.72172e-07 0.000227182 0.121065)
(4.40793e-06 -5.68818e-05 0.116053)
(-2.25652e-07 -0.000227327 0.121047)
(5.56567e-07 0.000233969 0.120679)
(-0.000251456 -4.39504e-06 0.119584)
(0.000254548 1.1306e-05 0.117827)
(-4.2225e-05 -3.35511e-05 0.109228)
(5.74523e-05 9.7065e-06 0.113875)
(-5.28925e-05 -9.31986e-06 0.113674)
(-0.000243668 -1.21529e-05 0.117657)
(0.000252292 2.86097e-06 0.119727)
(-0.000238442 -1.58371e-06 0.120503)
(-5.32517e-05 -2.78593e-07 0.116504)
(6.19176e-05 3.17409e-06 0.115951)
(0.000238022 -6.17568e-08 0.121064)
(-5.54166e-05 -1.83059e-06 0.115735)
(-0.000232656 4.96978e-07 0.120868)
(0.000248222 1.27035e-06 0.12067)
(-0.000247045 4.49226e-06 0.119576)
(0.000253089 -1.13221e-05 0.117816)
(-4.22383e-05 3.263e-05 0.109227)
(5.788e-05 -8.34199e-06 0.113869)
(-5.28829e-05 1.05078e-05 0.11367)
(-0.000240664 1.17139e-05 0.11765)
(0.000251292 -2.37284e-06 0.119711)
(-0.000240126 1.97501e-06 0.120501)
(-5.32054e-05 7.18357e-07 0.116502)
(0.00023732 9.06098e-07 0.121061)
(6.09374e-05 -2.44137e-06 0.115948)
(-0.000231547 -1.13161e-07 0.120866)
(-5.6195e-05 2.90616e-06 0.115732)
(0.000243902 -6.00874e-07 0.120664)
(0.000250596 4.52613e-06 0.119579)
(-0.00025188 -1.16503e-05 0.11782)
(4.42551e-05 3.35495e-05 0.109232)
(-5.67294e-05 -8.0715e-06 0.113871)
(0.000244908 1.23722e-05 0.117651)
(5.45813e-05 1.09528e-05 0.113673)
(-0.000250071 -2.48042e-06 0.119709)
(0.000243346 3.02277e-06 0.120503)
(5.52963e-05 7.19356e-07 0.116501)
(-0.000235207 1.34068e-06 0.121059)
(-6.00837e-05 -1.88051e-06 0.11595)
(0.000234384 5.91109e-07 0.120862)
(5.75266e-05 3.16756e-06 0.115734)
(-0.000242113 -3.34861e-08 0.120661)
(5.35313e-07 0.000248724 0.119751)
(-1.22628e-05 -0.000247364 0.117889)
(3.66197e-05 4.24776e-05 0.109596)
(-1.20709e-05 -5.43358e-05 0.114053)
(8.71606e-06 0.000242647 0.117818)
(1.15882e-05 5.38831e-05 0.114015)
(-3.22847e-06 -0.000243477 0.119767)
(-9.23229e-07 0.000234083 0.120686)
(1.26563e-06 5.55415e-05 0.1168)
(7.11947e-07 -0.000230048 0.121074)
(-4.52739e-06 -6.02057e-05 0.116095)
(-1.23459e-07 0.000228749 0.121054)
(3.33338e-06 5.59813e-05 0.116056)
(4.02989e-07 -0.000239961 0.120691)
(5.17676e-06 1.22881e-05 0.0514718)
(3.92627e-06 6.32743e-06 0.0350528)
(2.50838e-06 2.7569e-06 0.021879)
(1.28853e-06 8.0661e-07 0.0115399)
(4.44556e-07 1.44615e-07 0.00350607)
(-6.31195e-06 7.61676e-06 0.0532718)
(-3.81642e-06 3.69827e-06 0.0365396)
(-2.11818e-06 1.38197e-06 0.0229686)
(-9.86961e-07 2.41241e-07 0.0121964)
(-3.2989e-07 1.49123e-08 0.00373298)
(1.15441e-05 2.68227e-06 0.0515592)
(5.75866e-06 1.97276e-06 0.0351099)
(2.42838e-06 1.12231e-06 0.0219136)
(7.23686e-07 4.76937e-07 0.0115575)
(9.86969e-08 1.82114e-07 0.00351124)
(7.34589e-06 -4.32564e-06 0.0533383)
(3.92518e-06 -2.23293e-06 0.0365839)
(1.73353e-06 -9.26798e-07 0.0229961)
(4.98659e-07 -2.39847e-07 0.012211)
(1.16367e-07 -3.92523e-08 0.0037374)
(7.09384e-06 6.67863e-06 0.0532727)
(4.3551e-06 3.07596e-06 0.0365406)
(2.45347e-06 1.02011e-06 0.0229698)
(1.22465e-06 1.48497e-07 0.0121979)
(3.42088e-07 -5.46316e-08 0.0037339)
(7.09904e-06 4.50936e-06 0.0533328)
(3.79964e-06 2.53998e-06 0.0365796)
(1.76239e-06 1.24897e-06 0.0229928)
(6.71077e-07 4.91836e-07 0.0122088)
(1.13007e-07 1.42163e-07 0.00373671)
(-3.49373e-06 1.28644e-05 0.0514717)
(-2.43754e-06 6.59915e-06 0.0350533)
(-1.44435e-06 2.9304e-06 0.0218795)
(-7.26976e-07 1.03353e-06 0.0115399)
(-2.17804e-07 1.31654e-07 0.00350598)
(-6.03261e-06 4.8535e-06 0.0533387)
(-2.99848e-06 2.72562e-06 0.0365847)
(-1.24062e-06 1.32439e-06 0.0229968)
(-3.75755e-07 4.75363e-07 0.0122116)
(-4.33717e-08 1.71823e-07 0.00373787)
(1.17251e-05 -2.35973e-06 0.0515682)
(6.10736e-06 -1.7464e-06 0.0351163)
(2.80032e-06 -1.02334e-06 0.0219175)
(1.07991e-06 -5.34883e-07 0.0115593)
(1.62529e-07 -1.2228e-07 0.00351158)
(-1.12639e-05 3.04618e-06 0.0515639)
(-5.79486e-06 2.341e-06 0.0351137)
(-2.62799e-06 1.45069e-06 0.0219165)
(-9.7653e-07 7.27368e-07 0.0115594)
(-1.2887e-07 2.39658e-07 0.00351186)
(-1.1338e-05 -2.24472e-06 0.051556)
(-5.87256e-06 -1.5954e-06 0.0351075)
(-2.66779e-06 -9.13826e-07 0.0219126)
(-8.8562e-07 -4.16543e-07 0.0115576)
(-1.67322e-07 -1.20132e-07 0.00351137)
(6.92997e-06 -6.5582e-06 0.0532778)
(4.27225e-06 -2.93324e-06 0.0365446)
(2.46055e-06 -9.87294e-07 0.0229722)
(1.243e-06 -2.00027e-07 0.0121985)
(3.96443e-07 5.18568e-08 0.00373393)
(4.84476e-06 -1.25962e-05 0.0514664)
(3.51639e-06 -6.30402e-06 0.0350497)
(2.19615e-06 -2.67204e-06 0.0218773)
(1.08512e-06 -7.36502e-07 0.011539)
(3.9496e-07 -9.75185e-08 0.0035057)
(-4.17631e-06 -1.23226e-05 0.0514654)
(-3.12176e-06 -6.23723e-06 0.0350494)
(-2.03726e-06 -2.77165e-06 0.0218775)
(-1.1484e-06 -1.04675e-06 0.011539)
(-3.56638e-07 -1.13974e-07 0.00350555)
(-6.34515e-06 -4.48514e-06 0.0533278)
(-3.21234e-06 -2.46637e-06 0.0365768)
(-1.37664e-06 -1.20763e-06 0.0229919)
(-4.81607e-07 -5.18335e-07 0.0122088)
(-7.853e-08 -1.28096e-07 0.0037368)
(-6.63564e-06 -6.99098e-06 0.0532655)
(-3.99524e-06 -3.3696e-06 0.0365352)
(-2.17756e-06 -1.29425e-06 0.0229659)
(-9.66569e-07 -3.09516e-07 0.012195)
(-3.30839e-07 -1.11041e-08 0.00373251)
(-2.07683e-07 -1.25503e-05 0.0534291)
(3.89464e-07 -6.55148e-06 0.0366629)
(5.41717e-07 -2.94577e-06 0.0230486)
(4.10143e-07 -1.0458e-06 0.0122389)
(1.81266e-07 -2.49478e-07 0.00374595)
(-4.57105e-06 -1.05515e-05 0.0515764)
(-3.40244e-06 -5.01386e-06 0.0351303)
(-2.28579e-06 -2.08391e-06 0.0219275)
(-1.26245e-06 -5.32305e-07 0.0115651)
(-4.39546e-07 -1.00224e-07 0.00351358)
(6.01003e-06 -5.64617e-06 0.0533533)
(3.69792e-06 -2.46564e-06 0.0365992)
(2.16537e-06 -8.42962e-07 0.0230054)
(1.0839e-06 -7.92799e-08 0.0122153)
(3.49895e-07 -1.11069e-08 0.00373855)
(8.13297e-06 -2.32349e-06 0.052194)
(4.19917e-06 -2.19974e-06 0.0356669)
(1.93753e-06 -1.78257e-06 0.0223289)
(8.04364e-07 -1.1573e-06 0.0118092)
(1.5156e-07 -4.03869e-07 0.00359834)
(7.27368e-06 -3.72784e-07 0.0526779)
(3.71402e-06 -3.92367e-07 0.036047)
(1.69079e-06 -3.24337e-07 0.0226051)
(6.96625e-07 -1.97271e-07 0.0119767)
(1.16112e-07 -8.40991e-08 0.00365703)
(-1.14558e-05 2.35638e-06 0.0534534)
(-6.26679e-06 2.2712e-06 0.0366828)
(-3.05403e-06 1.81039e-06 0.0230618)
(-1.21931e-06 1.1482e-06 0.0122459)
(-3.34991e-07 4.07969e-07 0.00374809)
(-1.01665e-05 -2.64114e-06 0.051616)
(-4.85417e-06 -1.9583e-06 0.0351591)
(-2.03223e-06 -1.31228e-06 0.0219453)
(-5.44931e-07 -7.35766e-07 0.011574)
(-1.3145e-07 -2.45859e-07 0.00351611)
(1.20801e-05 2.5578e-06 0.0515559)
(5.91985e-06 1.65555e-06 0.0351064)
(2.55913e-06 8.72951e-07 0.0219111)
(8.73887e-07 3.43557e-07 0.0115562)
(1.15437e-07 1.49125e-07 0.00351063)
(-6.26402e-06 4.00351e-06 0.0533869)
(-3.00161e-06 2.24501e-06 0.0366256)
(-1.27831e-06 1.17271e-06 0.0230231)
(-3.83822e-07 4.94316e-07 0.0122252)
(-1.01131e-07 1.54094e-07 0.00374168)
(7.86857e-06 -4.44055e-06 0.0533373)
(3.89019e-06 -2.31724e-06 0.036582)
(1.68157e-06 -1.12152e-06 0.0229945)
(5.75345e-07 -4.7476e-07 0.0122101)
(9.09882e-08 -1.19231e-07 0.00373696)
(-9.36708e-06 -6.32341e-06 0.0517897)
(-5.1071e-06 -3.08497e-06 0.0352775)
(-2.4378e-06 -1.1873e-06 0.0220234)
(-1.00274e-06 -2.8102e-07 0.0116179)
(-1.9933e-07 -2.93762e-08 0.00353045)
(9.30588e-06 5.50482e-06 0.0518485)
(4.94508e-06 2.38737e-06 0.0353266)
(2.42541e-06 7.9313e-07 0.022055)
(9.55524e-07 9.43049e-08 0.0116344)
(2.90264e-07 -3.85152e-08 0.00353526)
(-8.49904e-06 -8.40143e-06 0.051748)
(-4.68732e-06 -4.11904e-06 0.035251)
(-2.33818e-06 -1.60407e-06 0.0220076)
(-1.01747e-06 -4.44285e-07 0.0116098)
(-2.64618e-07 -5.13037e-08 0.00352805)
(7.87696e-06 8.36493e-06 0.0518266)
(4.10746e-06 3.98945e-06 0.0353104)
(1.97374e-06 1.63271e-06 0.0220446)
(8.27359e-07 5.07107e-07 0.0116289)
(2.00888e-07 1.11991e-07 0.00353358)
(-3.66198e-06 -7.45394e-06 0.053563)
(-1.93034e-06 -4.08505e-06 0.0366921)
(-7.34682e-07 -2.03875e-06 0.0230323)
(-1.80361e-07 -8.51487e-07 0.0122138)
(1.85423e-08 -2.64386e-07 0.00373296)
(-9.72703e-06 -2.58136e-06 0.0535479)
(-5.78497e-06 -1.03891e-06 0.0366813)
(-3.23972e-06 -2.80764e-08 0.0230255)
(-1.56416e-06 3.23998e-07 0.0122101)
(-4.75134e-07 1.83331e-07 0.00373181)
(5.0194e-06 7.70173e-06 0.0536126)
(2.3882e-06 4.01681e-06 0.0367339)
(9.22377e-07 1.9378e-06 0.0230593)
(2.00765e-07 8.08847e-07 0.0122281)
(5.04698e-08 2.07473e-07 0.00373715)
(1.00547e-05 3.84458e-06 0.0536083)
(5.7793e-06 1.40299e-06 0.0367306)
(3.13185e-06 1.88834e-07 0.0230572)
(1.44294e-06 -2.35192e-07 0.0122268)
(4.52583e-07 -1.48481e-07 0.00373674)
(-5.36322e-06 -6.35439e-06 0.0533522)
(-3.12908e-06 -2.93459e-06 0.0365994)
(-1.73352e-06 -1.13898e-06 0.0230061)
(-8.31726e-07 -2.68217e-07 0.0122166)
(-2.53222e-07 -5.88163e-08 0.00373943)
(-6.214e-06 -4.09257e-06 0.0533779)
(-3.12228e-06 -2.19076e-06 0.0366194)
(-1.41556e-06 -1.11554e-06 0.0230191)
(-4.67356e-07 -4.95069e-07 0.0122228)
(-1.44057e-07 -1.20716e-07 0.00374091)
(7.60475e-06 4.73658e-06 0.0533302)
(3.74621e-06 2.53214e-06 0.0365767)
(1.6496e-06 1.2163e-06 0.0229907)
(6.18442e-07 4.60624e-07 0.0122077)
(9.11731e-08 1.5885e-07 0.00373618)
(5.40738e-06 -1.00667e-05 0.051575)
(4.03975e-06 -4.62664e-06 0.0351282)
(2.67601e-06 -1.84212e-06 0.0219254)
(1.49329e-06 -4.72745e-07 0.0115634)
(4.54927e-07 -6.49199e-08 0.00351276)
(-9.73005e-06 5.59004e-06 0.0517951)
(-5.31602e-06 2.50217e-06 0.0352824)
(-2.56013e-06 8.2233e-07 0.0220272)
(-1.05081e-06 1.0181e-07 0.0116202)
(-2.42442e-07 -1.52352e-08 0.00353118)
(9.94503e-06 -6.79142e-06 0.0518546)
(5.08507e-06 -3.10056e-06 0.0353302)
(2.35372e-06 -1.1081e-06 0.0220575)
(9.03447e-07 -2.59535e-07 0.0116359)
(2.8632e-07 3.51439e-08 0.00353572)
(-5.10117e-06 6.34766e-06 0.0535653)
(-3.13464e-06 3.19294e-06 0.0366938)
(-1.55306e-06 1.39754e-06 0.0230338)
(-6.33971e-07 4.66109e-07 0.0122145)
(-9.43827e-08 1.47894e-07 0.00373321)
(5.02533e-06 -9.66667e-06 0.0536231)
(2.13558e-06 -5.34533e-06 0.0367405)
(6.16483e-07 -2.80794e-06 0.0230636)
(-5.34573e-08 -1.27703e-06 0.0122301)
(-5.7723e-08 -3.45248e-07 0.00373778)
(6.18907e-06 -3.10022e-06 0.0533804)
(3.15839e-06 -1.35922e-06 0.0366213)
(1.48613e-06 -4.70658e-07 0.0230205)
(5.14211e-07 -7.73698e-08 0.0122239)
(1.82274e-07 1.23927e-08 0.00374147)
(8.11907e-06 3.18599e-06 0.0522005)
(4.29813e-06 2.79683e-06 0.0356707)
(2.07394e-06 2.14709e-06 0.0223311)
(9.34545e-07 1.34021e-06 0.0118105)
(1.94122e-07 4.52121e-07 0.0035987)
(7.2651e-06 1.19548e-06 0.0526799)
(3.63284e-06 9.59575e-07 0.0360482)
(1.5976e-06 6.79985e-07 0.0226058)
(6.09691e-07 4.0436e-07 0.0119771)
(1.15732e-07 1.15599e-07 0.0036571)
(-1.10574e-05 -1.26935e-06 0.0534615)
(-5.8792e-06 -1.44858e-06 0.0366881)
(-2.72241e-06 -1.30033e-06 0.023065)
(-9.55001e-07 -9.29481e-07 0.0122475)
(-2.70753e-07 -3.07017e-07 0.00374831)
(-1.00766e-05 2.92809e-06 0.0516253)
(-4.78716e-06 2.28922e-06 0.0351659)
(-2.01922e-06 1.55907e-06 0.0219497)
(-5.8001e-07 8.48417e-07 0.0115762)
(-1.03412e-07 3.14792e-07 0.00351653)
(1.22759e-05 -2.1763e-06 0.0515661)
(6.12768e-06 -1.37895e-06 0.0351135)
(2.70646e-06 -7.42807e-07 0.0219154)
(9.30109e-07 -3.33756e-07 0.0115583)
(1.57743e-07 -1.17752e-07 0.00351106)
(9.65402e-06 -1.95199e-06 0.0516211)
(4.72005e-06 -1.50208e-06 0.0351624)
(2.12796e-06 -1.01762e-06 0.0219477)
(7.27331e-07 -6.00267e-07 0.0115756)
(1.70809e-07 -1.65587e-07 0.00351652)
(1.08176e-05 -1.1095e-06 0.0534499)
(5.64046e-06 -1.46921e-06 0.0366803)
(2.67856e-06 -1.33713e-06 0.0230604)
(1.10727e-06 -9.11349e-07 0.0122453)
(2.79843e-07 -3.46139e-07 0.00374781)
(9.8868e-06 2.26224e-06 0.0516143)
(4.81071e-06 1.68311e-06 0.0351574)
(2.15851e-06 1.0204e-06 0.0219448)
(7.05281e-07 4.56862e-07 0.0115744)
(1.60612e-07 1.76448e-07 0.00351627)
(8.25156e-06 -1.01917e-05 0.0517619)
(4.10056e-06 -5.3481e-06 0.0352601)
(1.78508e-06 -2.40266e-06 0.0220133)
(6.01109e-07 -8.05381e-07 0.0116133)
(1.12973e-07 -1.63905e-07 0.00352943)
(-8.19721e-06 8.45365e-06 0.0518425)
(-4.45617e-06 4.22185e-06 0.0353221)
(-2.16106e-06 1.83088e-06 0.0220524)
(-8.43032e-07 5.64511e-07 0.0116335)
(-1.94045e-07 1.573e-07 0.00353538)
(9.1313e-06 -3.50267e-06 0.0535663)
(4.90184e-06 -1.67276e-06 0.0366927)
(2.46265e-06 -5.20612e-07 0.0230323)
(1.13194e-06 -5.11191e-08 0.0122139)
(3.02242e-07 5.25884e-08 0.00373327)
(-5.48605e-06 6.01032e-06 0.0533524)
(-3.11614e-06 2.81016e-06 0.0365996)
(-1.6688e-06 1.1212e-06 0.0230063)
(-7.71373e-07 2.69837e-07 0.0122162)
(-2.33714e-07 7.677e-08 0.00373902)
(-3.09165e-07 1.26736e-05 0.0534114)
(3.99171e-07 6.51647e-06 0.036651)
(5.56555e-07 2.96917e-06 0.0230414)
(3.96015e-07 1.11116e-06 0.0122351)
(2.07929e-07 2.72317e-07 0.00374466)
(-4.62116e-06 1.04684e-05 0.0515712)
(-3.35254e-06 4.97851e-06 0.0351265)
(-2.14913e-06 2.08565e-06 0.0219248)
(-1.14392e-06 5.78056e-07 0.0115633)
(-3.63777e-07 9.96753e-08 0.00351284)
(1.01499e-06 1.2788e-05 0.0534148)
(3.40701e-08 6.44572e-06 0.0366542)
(-3.74701e-07 2.77399e-06 0.0230436)
(-4.18977e-07 7.70362e-07 0.0122361)
(-1.81653e-07 2.57902e-07 0.0037449)
(5.25655e-06 1.05945e-05 0.0515691)
(3.93262e-06 4.89804e-06 0.0351249)
(2.65936e-06 1.96711e-06 0.0219239)
(1.5401e-06 5.08714e-07 0.0115629)
(4.65695e-07 6.47592e-08 0.00351249)
(6.10291e-06 3.3318e-06 0.0533711)
(3.04758e-06 1.6554e-06 0.0366142)
(1.40414e-06 7.3119e-07 0.023016)
(5.12493e-07 2.47968e-07 0.0122214)
(1.48126e-07 6.79686e-08 0.00374046)
(5.92918e-06 6.54723e-06 0.0533473)
(3.51181e-06 3.01348e-06 0.0365959)
(1.96102e-06 1.16551e-06 0.0230037)
(9.35518e-07 2.59341e-07 0.0122145)
(2.85544e-07 4.69824e-08 0.00373826)
(1.67033e-06 -1.24592e-05 0.0534239)
(6.15501e-07 -6.29544e-06 0.036661)
(9.89878e-08 -2.77406e-06 0.0230479)
(-1.01684e-07 -8.84443e-07 0.0122383)
(-6.43875e-08 -2.57436e-07 0.00374573)
(1.08968e-05 1.93416e-06 0.0534597)
(5.63234e-06 2.08763e-06 0.0366875)
(2.57397e-06 1.72691e-06 0.0230651)
(8.73308e-07 1.12717e-06 0.0122475)
(2.86522e-07 4.12414e-07 0.00374839)
(7.44654e-07 -1.07418e-05 0.052223)
(9.79394e-07 -5.63961e-06 0.0356928)
(8.99205e-07 -2.61036e-06 0.0223457)
(6.12846e-07 -9.06449e-07 0.0118178)
(2.44863e-07 -2.78662e-07 0.00360079)
(-9.02557e-07 9.92158e-06 0.0526107)
(-8.30674e-07 5.12741e-06 0.0360032)
(-6.29607e-07 2.22887e-06 0.0225788)
(-3.85047e-07 8.63804e-07 0.011963)
(-9.83843e-08 1.17395e-07 0.00365284)
(2.04074e-07 -9.3933e-06 0.0526973)
(3.11641e-07 -4.65211e-06 0.0360656)
(2.94971e-07 -2.06509e-06 0.022617)
(1.7608e-07 -7.45636e-07 0.0119825)
(1.048e-07 -1.97753e-07 0.00365855)
(-1.33849e-06 1.14724e-05 0.0521289)
(-1.40767e-06 6.13332e-06 0.0356226)
(-1.20599e-06 2.90186e-06 0.0223015)
(-8.44949e-07 1.02963e-06 0.0117947)
(-2.52978e-07 2.81642e-07 0.00359385)
(4.42308e-07 1.29629e-05 0.0533118)
(-2.8274e-07 6.84654e-06 0.0365788)
(-5.92606e-07 3.13129e-06 0.022997)
(-5.36953e-07 1.17133e-06 0.0122124)
(-2.13342e-07 2.60428e-07 0.00373807)
(-9.09568e-06 8.49137e-06 0.051758)
(-5.18721e-06 4.25853e-06 0.0352571)
(-2.68473e-06 1.63617e-06 0.0220116)
(-1.23541e-06 4.11649e-07 0.0116123)
(-3.00693e-07 3.04896e-08 0.00352896)
(6.45707e-06 -7.24256e-06 0.0518328)
(3.36425e-06 -3.65126e-06 0.035316)
(1.65179e-06 -1.64477e-06 0.0220487)
(6.75965e-07 -5.46996e-07 0.0116315)
(1.76998e-07 -1.22039e-07 0.00353453)
(-1.05817e-05 1.37902e-06 0.0535562)
(-6.52203e-06 5.58971e-08 0.0366868)
(-3.76477e-06 -6.7557e-07 0.0230292)
(-1.88964e-06 -7.20424e-07 0.0122126)
(-5.83523e-07 -2.84106e-07 0.00373285)
(7.89059e-06 -3.52869e-06 0.0536056)
(4.36788e-06 -1.5463e-06 0.0367297)
(2.20346e-06 -4.88101e-07 0.0230573)
(9.30528e-07 -5.08484e-08 0.0122274)
(3.02065e-07 3.87635e-08 0.00373724)
(1.1733e-05 -8.27242e-07 0.0533953)
(6.3719e-06 -1.2538e-06 0.0366323)
(3.09449e-06 -1.26746e-06 0.0230288)
(1.27837e-06 -9.28789e-07 0.0122285)
(2.87878e-07 -3.74415e-07 0.00374284)
(-8.14922e-06 2.63807e-06 0.0522194)
(-4.37685e-06 2.38347e-06 0.0356955)
(-2.04103e-06 1.85472e-06 0.0223484)
(-7.39189e-07 1.17326e-06 0.0118194)
(-2.35161e-07 3.95465e-07 0.00360156)
(8.85873e-06 -2.21757e-07 0.0526806)
(4.73675e-06 -2.95107e-07 0.0360485)
(2.22907e-06 -2.70217e-07 0.0226056)
(9.42629e-07 -1.78236e-07 0.0119767)
(1.63322e-07 -6.95752e-08 0.00365713)