/*--------------------------------*- C++ -*----------------------------------*\
| =========                 |                                                 |
| \\      /  F ield         | OpenFOAM: The Open Source CFD Toolbox           |
|  \\    /   O peration     | Version:  2206                                  |
|   \\  /    A nd           | Website:  www.openfoam.com                      |
|    \\/     M anipulation  |                                                 |
\*---------------------------------------------------------------------------*/
FoamFile
{
    version     2.0;
    format      ascii;
    arch        "LSB;label=32;scalar=64";
    class       volVectorField;
    location    "40";
    object      wallShearStress;
}
// * * * * * * * * * * * * * * * * * * * * * * * * * * * * * * * * * * * * * //

dimensions      [0 2 -2 0 0 0 0];

internalField   uniform (0 0 0);

boundaryField
{
    topPatch
    {
        type            calculated;
        value           nonuniform List<vector> 0();
    }
    wall
    {
        type            calculated;
        value           nonuniform List<vector> 
7803
(
(-1.86908e-08 -9.64655e-09 -0.000133956)
(1.37635e-08 -2.61772e-09 -0.000142705)
(-6.14939e-09 -7.86865e-09 -0.000134166)
(-5.98568e-09 2.3586e-09 -0.000142862)
(-1.37678e-08 1.00852e-09 -0.00014271)
(-6.24435e-09 -6.48727e-09 -0.000142848)
(9.50445e-09 -7.9245e-09 -0.000133965)
(2.92813e-09 -7.27152e-09 -0.000142868)
(-9.10429e-09 5.78425e-09 -0.000134185)
(7.86615e-09 -1.03212e-08 -0.000134177)
(9.24619e-09 5.69953e-09 -0.000134154)
(-1.60387e-08 -4.76944e-10 -0.000142722)
(-1.64778e-08 7.03762e-09 -0.00013395)
(1.49335e-08 7.61924e-09 -0.000133948)
(4.45973e-09 5.69567e-09 -0.000142839)
(1.3739e-08 2.26847e-09 -0.000142687)
(-6.28251e-09 1.1931e-08 -0.000143154)
(1.79688e-08 6.77396e-09 -0.000134243)
(-1.41948e-08 1.79382e-09 -0.000142918)
(-6.75492e-09 1.53938e-08 -0.000137464)
(-5.5819e-09 3.16383e-09 -0.000139691)
(1.56319e-08 -1.48805e-08 -0.000143239)
(7.4933e-09 1.03508e-08 -0.000134352)
(-6.93929e-09 -6.65968e-09 -0.000134143)
(5.26195e-09 -6.66934e-09 -0.000143026)
(-5.09415e-09 5.44916e-09 -0.000142845)
(9.64993e-09 2.53599e-09 -0.000134895)
(-1.3199e-08 7.59917e-12 -0.000135079)
(1.16745e-08 4.0916e-09 -0.000134804)
(-9.12899e-09 -6.27013e-09 -0.000135015)
(7.05727e-10 1.1268e-08 -0.000142708)
(1.94822e-08 -5.52374e-09 -0.000142666)
(-3.47672e-09 -9.22721e-09 -0.000142868)
(-1.87544e-08 4.03637e-09 -0.000142855)
(1.04412e-08 3.54365e-09 -0.000142921)
(7.13131e-09 5.51743e-09 -0.000143008)
(-5.34725e-09 -7.0729e-09 -0.000142827)
(-1.83902e-08 4.85534e-09 -0.000134224)
(1.13839e-08 -8.58281e-10 -0.00013492)
(-1.32616e-08 2.61636e-10 -0.000135093)
(5.10967e-09 -6.87631e-09 -0.000142718)
(3.61996e-10 1.47887e-08 -0.000142893)
(-8.15931e-09 1.61021e-10 -0.000143005)
(-8.74071e-09 -1.71982e-08 -0.000137475)
(-5.49808e-09 -4.41351e-09 -0.000139693)
(1.27701e-08 1.11096e-08 -0.000143255)
(6.42367e-09 -1.29907e-08 -0.000134374)
(-8.8472e-09 5.5736e-09 -0.000134165)
(-8.90038e-09 7.21315e-09 -0.000134355)
(-1.28859e-08 1.2708e-08 -0.000143222)
(-8.57129e-09 -7.67125e-09 -0.000134341)
(-5.9348e-09 8.50915e-09 -0.000134835)
(9.16902e-09 -8.40826e-09 -0.000135063)
(-1.27453e-08 -6.4611e-10 -0.000142712)
(9.71984e-09 -4.34096e-09 -0.000142917)
(-7.28789e-09 -1.2934e-08 -0.000143105)
(1.49104e-08 -6.32968e-09 -0.000134223)
(6.24459e-09 -1.24339e-08 -0.000143117)
(-1.88591e-08 -5.12118e-09 -0.000134213)
(-7.00871e-09 -3.31001e-09 -0.000142979)
(-1.18142e-08 -3.30889e-09 -0.000142907)
(1.7169e-09 1.26774e-08 -0.000143148)
(-1.29204e-08 -1.52969e-08 -0.00014325)
(-8.97262e-09 1.3506e-08 -0.000137567)
(3.73873e-09 -5.63202e-09 -0.000139543)
(-3.96389e-09 9.25801e-09 -0.000139761)
(9.34407e-09 -1.38002e-08 -0.000137302)
(7.45911e-09 -1.26767e-08 -0.000142853)
(1.31156e-08 -3.35009e-09 -0.000134828)
(-7.9203e-09 6.22382e-09 -0.000135041)
(2.35758e-08 9.45708e-09 -0.000142685)
(-1.2567e-08 -2.96829e-10 -0.000142853)
(-1.36699e-08 1.36208e-08 -0.000143038)
(1.09312e-08 -1.49135e-08 -0.000137587)
(-8.27123e-09 2.59534e-09 -0.000139695)
(8.98123e-09 -5.78027e-09 -0.000139805)
(-9.06568e-09 1.24587e-08 -0.000137469)
(-1.43866e-08 1.7943e-08 -0.000143025)
(-8.18678e-09 3.71209e-09 -0.000134914)
(1.05957e-08 -1.97863e-09 -0.000135085)
(1.04125e-09 1.39148e-08 -0.000142707)
(8.84874e-09 -3.04059e-09 -0.000142871)
(-1.15882e-08 -7.57134e-09 -0.000134817)
(7.58522e-09 9.15955e-09 -0.000135053)
(-1.73761e-08 7.92476e-09 -0.000142677)
(1.7318e-08 -3.67253e-09 -0.00014286)
(-9.44567e-09 7.75672e-10 -0.000134909)
(1.03769e-08 1.55783e-09 -0.000135079)
(-4.30588e-09 -1.01371e-08 -0.000142692)
(2.20643e-09 1.18598e-08 -0.00014287)
(1.22124e-08 1.12271e-08 -0.000137552)
(-1.44643e-09 -1.18198e-08 -0.000139527)
(3.80979e-09 1.03185e-08 -0.000139765)
(-1.2191e-08 -1.04741e-08 -0.000137318)
(-1.16752e-08 -1.54552e-08 -0.000142841)
(1.10566e-08 1.18732e-08 -0.000137599)
(-6.27845e-09 -6.61348e-09 -0.000139699)
(7.68824e-09 1.32522e-09 -0.000139799)
(-1.09079e-08 -1.56711e-08 -0.000137478)
(-1.41165e-08 -1.92614e-08 -0.000143059)
(-1.49119e-08 -2.14401e-08 -0.000143048)
(1.29392e-08 1.50784e-08 -0.000143064)
(-1.13929e-08 -1.60449e-08 -0.000137616)
(6.08976e-09 1.14475e-09 -0.000139727)
(-7.67558e-09 -5.27694e-09 -0.000139821)
(8.75758e-09 1.13966e-08 -0.000137493)
(-1.09225e-08 1.65223e-08 -0.000137596)
(6.5202e-09 -5.37271e-10 -0.000139715)
(-7.27468e-09 5.3767e-09 -0.000139804)
(9.10022e-09 -1.4327e-08 -0.000137471)
(1.42109e-08 -1.86272e-08 -0.00014304)
(2.58176e-08 9.90908e-09 -0.000142897)
(6.275e-09 1.33309e-08 -0.000142809)
(-1.42135e-08 -1.27093e-08 -0.000137526)
(-1.42124e-09 9.76262e-09 -0.000139509)
(-3.88694e-09 -1.0374e-08 -0.00013973)
(7.52994e-09 1.11661e-08 -0.000137271)
(-1.07681e-08 1.35907e-08 -0.000142812)
(1.11855e-08 -1.2754e-08 -0.000137533)
(-2.20001e-09 8.55853e-09 -0.000139512)
(3.01797e-09 -9.14339e-09 -0.000139737)
(-9.4957e-09 1.11967e-08 -0.000137282)
(7.39993e-09 -1.25554e-08 -0.00013439)
(3.65557e-09 -8.1683e-09 -0.000143041)
(-1.17382e-08 -1.61445e-08 -0.000143059)
(-6.51664e-09 1.02747e-08 -0.000134183)
(-6.44978e-09 1.62251e-09 -0.000142863)
(-7.73018e-09 1.45761e-08 -0.000137482)
(7.81785e-09 -5.76527e-09 -0.000139826)
(-7.69052e-09 5.83625e-09 -0.0001397)
(9.0366e-09 -1.79563e-08 -0.000137596)
(-1.14939e-08 -1.63783e-08 -0.000137486)
(4.99443e-09 4.07848e-10 -0.000139819)
(-6.43607e-09 -8.56126e-09 -0.000139704)
(9.56236e-09 1.21333e-08 -0.000137611)
(1.3688e-08 1.49853e-08 -0.000143262)
(8.20212e-09 -4.0399e-09 -0.000135094)
(-9.12585e-09 3.59481e-09 -0.000134919)
(4.04085e-09 -5.08768e-09 -0.000142895)
(-4.45665e-09 8.00269e-09 -0.000142731)
(9.90893e-09 -1.43111e-09 -0.000142917)
(6.90553e-09 6.66489e-09 -0.000143021)
(1.80952e-08 8.43908e-09 -0.000134261)
(6.46922e-09 8.44404e-09 -0.000134364)
(-1.31923e-08 2.80223e-09 -0.000142711)
(-6.96946e-09 -4.88253e-09 -0.000142842)
(4.11564e-09 -7.09149e-09 -0.000142855)
(-1.89804e-08 -5.48141e-09 -0.000133937)
(-4.55201e-09 -1.01885e-08 -0.000134164)
(1.62448e-08 -8.31844e-09 -0.000142856)
(-8.97208e-10 1.60376e-08 -0.000142881)
(-1.25213e-08 1.0256e-08 -0.000143038)
(1.56162e-08 -2.01166e-08 -0.000143248)
(1.21469e-08 7.21281e-09 -0.000135074)
(-1.05675e-08 -8.90639e-09 -0.000134803)
(5.56053e-09 5.59382e-09 -0.000135088)
(-9.88966e-09 2.84391e-09 -0.00013491)
(-7.10475e-09 -8.38379e-09 -0.000142696)
(-1.5573e-08 3.11017e-09 -0.000142689)
(6.65556e-09 -1.66984e-08 -0.000137296)
(2.84974e-09 4.64523e-09 -0.000139756)
(1.63098e-09 -7.6369e-09 -0.000139537)
(-6.76476e-09 1.22816e-08 -0.000137572)
(-9.6124e-09 1.24749e-08 -0.000143149)
(-1.99609e-08 -3.36334e-09 -0.000134019)
(1.72919e-08 -1.95692e-09 -0.000142748)
(-4.94583e-09 7.40652e-09 -0.00014306)
(-1.4747e-08 -1.14139e-08 -0.000134136)
(-1.21775e-08 7.34252e-09 -0.000142865)
(7.33735e-09 9.52105e-09 -0.000142858)
(-8.704e-09 -4.91499e-09 -0.000143137)
(1.20107e-08 6.6174e-09 -0.000142739)
(-9.1221e-09 -7.59609e-09 -0.000143042)
(-1.00917e-08 -8.05161e-09 -0.00014316)
(4.52935e-09 1.21269e-08 -0.000142843)
(-1.01654e-08 -6.98654e-09 -0.000143047)
(1.00303e-08 5.68305e-09 -0.000142732)
(-2.16013e-08 -8.66325e-09 -0.000142725)
(-5.13592e-09 -8.29441e-09 -0.000142834)
(1.89096e-08 -8.82886e-09 -0.000134005)
(-6.28063e-09 1.38545e-08 -0.000134411)
(9.23924e-09 -1.01491e-08 -0.000142874)
(-1.00774e-08 1.08319e-08 -0.000134187)
(9.25266e-09 -1.38853e-08 -0.000134188)
(9.23845e-09 9.63646e-09 -0.000134166)
(-1.22618e-08 7.80683e-09 -0.000142702)
(-1.18962e-08 1.12766e-08 -0.000133967)
(1.1458e-08 1.4219e-08 -0.000133973)
(1.01094e-08 9.27994e-09 -0.000142821)
(7.08254e-09 8.08276e-09 -0.000142729)
(1.11648e-08 2.12355e-09 -0.000134937)
(-9.43221e-09 -2.18505e-09 -0.00013521)
(3.22398e-09 1.056e-08 -0.000134851)
(-6.03659e-09 -7.07441e-09 -0.000135144)
(-1.80138e-11 1.39627e-08 -0.000142742)
(1.45133e-08 -4.91442e-11 -0.000142711)
(-1.15456e-08 -2.38186e-09 -0.000135224)
(9.26419e-09 3.88253e-09 -0.000134927)
(-6.92606e-09 -8.87169e-09 -0.000135158)
(4.82244e-09 9.13475e-09 -0.000134838)
(-1.95878e-09 -7.88352e-09 -0.000137431)
(-1.12721e-08 1.26712e-08 -0.000139966)
(-5.08461e-09 -1.23146e-08 -0.00013964)
(-1.45763e-08 1.20095e-08 -0.000137731)
(-2.46619e-09 1.79422e-08 -0.000143315)
(1.38774e-08 -3.88566e-11 -0.000134364)
(6.51735e-09 -1.85689e-08 -0.000142927)
(-2.60109e-08 7.61568e-10 -0.00013404)
(-8.25692e-09 4.71844e-09 -0.000143063)
(2.28358e-08 3.3895e-09 -0.000142749)
(1.37204e-08 -9.4674e-09 -0.000143363)
(1.15909e-08 1.22445e-08 -0.000134478)
(8.16178e-09 -1.20554e-08 -0.000143164)
(1.18541e-08 2.16171e-09 -0.000134931)
(-1.20108e-08 -2.94701e-09 -0.000135211)
(3.50734e-09 1.26632e-08 -0.000134823)
(-1.02505e-08 -9.32656e-09 -0.000135182)
(-9.11705e-09 -6.19821e-09 -0.000143126)
(5.96922e-09 9.93735e-09 -0.00014284)
(-9.72281e-09 -7.57538e-09 -0.000143034)
(1.08352e-08 6.36473e-09 -0.000142721)
(-1.1904e-08 -3.4949e-09 -0.000135236)
(9.5966e-09 4.4062e-09 -0.000134924)
(-8.97848e-09 -1.09884e-08 -0.000135187)
(5.01296e-09 1.11585e-08 -0.000134829)
(-2.17619e-09 -1.60025e-08 -0.000143062)
(-1.65637e-08 -1.1418e-09 -0.000143014)
(1.04124e-08 7.75304e-09 -0.000134923)
(-1.39319e-08 -3.39831e-10 -0.000135237)
(7.67906e-09 1.13885e-08 -0.000134835)
(-4.75744e-09 -1.24708e-08 -0.000135178)
(6.35506e-09 1.05411e-08 -0.000142825)
(-9.22539e-09 -4.52189e-09 -0.000143144)
(7.75679e-09 8.22743e-09 -0.000142724)
(-7.90906e-09 -6.41201e-09 -0.000143045)
(9.24119e-10 1.62447e-08 -0.000143065)
(-2.51156e-08 -2.6582e-09 -0.000142727)
(1.29217e-09 1.26911e-08 -0.000143116)
(-2.51037e-09 -1.0553e-08 -0.000137408)
(8.81609e-09 1.18686e-08 -0.000139954)
(1.86506e-09 -1.08532e-08 -0.000139642)
(1.8315e-08 1.6544e-08 -0.000137727)
(-1.86764e-08 7.15801e-09 -0.000134389)
(2.111e-08 -6.14467e-09 -0.000134017)
(1.23604e-08 7.95732e-10 -0.000134959)
(-4.10821e-09 9.7871e-09 -0.000135241)
(1.08737e-08 1.4039e-09 -0.000134981)
(8.63079e-09 -9.98909e-09 -0.000142743)
(4.15697e-09 2.75818e-08 -0.000143055)
(-7.28166e-09 1.16347e-08 -0.000143182)
(1.1295e-08 -7.19063e-09 -0.000142887)
(7.30875e-09 -1.19868e-08 -0.000134513)
(1.45719e-08 9.75253e-09 -0.000137503)
(9.61744e-09 6.51323e-09 -0.000139729)
(-6.22265e-09 1.20078e-08 -0.000134504)
(9.01059e-09 -1.34554e-08 -0.000134204)
(8.45247e-09 -9.93194e-09 -0.000137494)
(1.27003e-08 -4.39621e-09 -0.000139707)
(-1.98576e-08 1.22722e-08 -0.000143384)
(-6.61695e-09 -8.4057e-09 -0.000134469)
(6.74661e-09 1.01091e-08 -0.000134192)
(-3.0432e-09 1.63692e-08 -0.00013483)
(6.55476e-09 -1.31864e-08 -0.000135172)
(7.44866e-09 -8.29434e-09 -0.000143026)
(8.2599e-09 -7.1633e-09 -0.000134323)
(1.22937e-08 -1.36777e-08 -0.000143228)
(-1.21816e-08 -9.6653e-09 -0.000134354)
(-1.29794e-08 -5.83308e-09 -0.000143151)
(1.09728e-08 6.20201e-09 -0.000142843)
(-1.09401e-08 -5.08346e-09 -0.000143036)
(1.69974e-08 6.8713e-09 -0.000134232)
(-1.23687e-08 3.9612e-09 -0.000142924)
(7.7566e-09 7.35718e-09 -0.000134338)
(7.73658e-09 -3.30484e-09 -0.000143018)
(-1.51148e-08 -6.77479e-09 -0.000133952)
(2.05732e-08 5.59245e-09 -0.000134242)
(1.41916e-08 -1.94697e-09 -0.0001427)
(-1.38134e-08 3.89917e-09 -0.000142942)
(-6.68295e-09 -8.3674e-09 -0.00013415)
(9.63875e-09 5.22394e-09 -0.00013435)
(-5.68519e-09 6.22902e-09 -0.000142865)
(7.42312e-09 -3.86285e-09 -0.000143032)
(-1.28558e-08 -6.48378e-09 -0.000133963)
(1.65591e-08 5.39629e-09 -0.000134245)
(1.51938e-08 -1.73542e-09 -0.000142703)
(-8.18954e-09 6.38955e-09 -0.000142944)
(-7.79872e-09 -9.6441e-09 -0.000134162)
(8.64243e-09 6.52675e-09 -0.000134367)
(-5.57309e-09 6.14999e-09 -0.000142876)
(7.67471e-09 -4.47305e-09 -0.000143049)
(-1.54419e-08 -6.23658e-09 -0.000133969)
(1.43829e-08 7.17076e-09 -0.000134252)
(1.31179e-08 -3.60861e-09 -0.00014271)
(-1.57668e-08 2.94106e-09 -0.000142945)
(-7.75545e-09 -7.29809e-09 -0.000134178)
(8.17922e-09 9.14221e-09 -0.000134378)
(-6.0686e-09 5.58146e-09 -0.000142882)
(6.96988e-09 -7.14436e-09 -0.000143049)
(-1.82875e-08 -3.87063e-09 -0.000133969)
(1.27162e-08 7.63387e-09 -0.000134253)
(1.49166e-08 -2.45722e-09 -0.000142701)
(-9.20425e-09 6.57594e-09 -0.000142944)
(-7.69405e-09 -7.69409e-09 -0.000134176)
(9.36076e-09 4.57619e-09 -0.000134373)
(-7.27329e-09 2.80621e-09 -0.000142877)
(4.57058e-09 -6.68955e-09 -0.000143045)
(-1.4939e-08 -4.80803e-09 -0.000133964)
(1.67945e-08 6.04164e-09 -0.000134241)
(1.3686e-08 -3.37174e-09 -0.000142702)
(-1.29541e-08 4.41038e-09 -0.000142945)
(-5.19583e-09 -9.54334e-09 -0.000134164)
(8.78728e-09 1.2128e-09 -0.000134354)
(-7.21666e-09 2.40231e-09 -0.000142873)
(5.41519e-09 -6.79874e-09 -0.000143043)
(-1.48445e-08 -7.10067e-09 -0.000133957)
(1.77994e-08 4.85317e-09 -0.000134242)
(1.48467e-08 -2.57447e-09 -0.000142706)
(-1.17711e-08 6.74253e-09 -0.000142947)
(-6.17852e-09 -1.20556e-08 -0.000134152)
(7.67542e-09 5.09816e-09 -0.000134347)
(-6.24936e-09 6.13571e-09 -0.000142873)
(5.82829e-09 -4.93956e-09 -0.000143041)
(-1.46175e-08 -5.95107e-09 -0.000133961)
(1.5248e-08 5.62621e-09 -0.000134251)
(1.28148e-08 -4.68096e-09 -0.000142698)
(-1.60957e-08 1.96892e-09 -0.000142944)
(-6.10181e-09 -8.62913e-09 -0.000134149)
(8.05822e-09 5.97153e-09 -0.000134353)
(-3.46336e-09 6.23902e-09 -0.000142877)
(6.47711e-09 -3.57665e-09 -0.000143049)
(-1.54064e-08 -2.93989e-09 -0.000133973)
(1.64707e-08 6.43989e-09 -0.000134252)
(1.32032e-08 -1.49347e-09 -0.000142704)
(-1.16404e-08 5.59248e-09 -0.000142934)
(-4.55861e-09 -6.82396e-09 -0.000134159)
(7.1336e-09 8.39701e-09 -0.000134354)
(-2.69697e-09 6.99746e-09 -0.00014288)
(6.27085e-09 -6.79561e-09 -0.000143044)
(-1.58437e-08 -4.96206e-09 -0.000133967)
(1.32279e-08 8.08983e-09 -0.000134248)
(1.47198e-08 -2.43146e-09 -0.000142687)
(-1.28362e-08 4.1753e-09 -0.000142927)
(-6.61388e-09 -7.07868e-09 -0.000134153)
(9.6737e-09 3.82029e-09 -0.000134346)
(-6.4381e-09 3.94426e-09 -0.000142864)
(5.59844e-09 -4.55523e-09 -0.000143026)
(-1.57149e-08 -5.5375e-09 -0.000133964)
(1.87388e-08 5.78513e-09 -0.000134241)
(1.23431e-08 -2.5525e-09 -0.000142689)
(-1.3157e-08 5.27702e-09 -0.000142922)
(-6.14248e-09 -8.17707e-09 -0.00013415)
(8.47604e-09 6.73088e-09 -0.000134342)
(-5.65788e-09 4.26127e-09 -0.000142857)
(6.65292e-09 -7.92511e-09 -0.000143019)
(-1.71301e-08 -5.70031e-09 -0.000133963)
(1.66848e-08 6.63529e-09 -0.000134244)
(1.36137e-08 -3.63009e-09 -0.000142689)
(-1.44925e-08 3.66533e-09 -0.00014293)
(-6.27157e-09 -9.45112e-09 -0.000134152)
(8.97801e-09 5.10941e-09 -0.000134354)
(-6.98159e-09 4.20108e-09 -0.000142855)
(6.17796e-09 -6.77863e-09 -0.000143027)
(-1.52806e-08 -4.99862e-09 -0.000133971)
(1.50172e-08 5.57865e-09 -0.000134255)
(1.52603e-08 -2.58612e-09 -0.0001427)
(-9.04249e-09 6.6927e-09 -0.000142947)
(-8.24121e-09 -6.45614e-09 -0.000134166)
(7.70001e-09 8.39483e-09 -0.000134373)
(-6.76824e-09 3.25418e-09 -0.000142868)
(5.17664e-09 -6.63718e-09 -0.000143046)
(-1.69169e-08 -6.98132e-09 -0.000133981)
(1.37983e-08 4.61303e-09 -0.000134261)
(1.41665e-08 -2.84235e-09 -0.000142717)
(-1.27697e-08 4.55859e-09 -0.00014296)
(-7.72805e-09 -9.20082e-09 -0.000134174)
(7.73568e-09 3.32113e-09 -0.00013437)
(-6.14115e-09 4.90435e-09 -0.000142882)
(7.52595e-09 -4.24666e-09 -0.000143054)
(-1.62488e-08 -9.24491e-09 -0.00013399)
(1.68626e-08 6.50797e-09 -0.000134301)
(1.4668e-08 -3.4382e-09 -0.000142736)
(-8.85056e-09 7.2071e-09 -0.000142998)
(-8.9607e-09 -1.05391e-08 -0.000134179)
(9.39231e-09 6.34813e-09 -0.000134404)
(-7.47431e-09 5.73027e-09 -0.000142899)
(8.46176e-09 -5.13834e-09 -0.000143095)
(-1.58247e-08 -6.94683e-09 -0.000134023)
(1.68148e-08 8.86751e-09 -0.000134338)
(1.28378e-08 -5.21884e-09 -0.00014275)
(-1.23798e-08 4.79825e-09 -0.000143025)
(-9.18168e-09 -1.00284e-08 -0.000134193)
(1.07214e-08 7.24076e-09 -0.000134431)
(-8.46237e-09 8.13235e-09 -0.000142911)
(7.11352e-09 -3.09343e-09 -0.000143121)
(-1.42529e-08 -7.50376e-09 -0.000134011)
(1.1997e-08 1.07428e-08 -0.000134374)
(1.51421e-08 -3.96828e-09 -0.000142738)
(-9.29473e-09 6.83047e-09 -0.000143068)
(-7.60239e-09 -1.26649e-08 -0.000134163)
(1.39366e-08 9.97924e-09 -0.00013447)
(-7.16802e-09 8.8192e-09 -0.000142886)
(9.09724e-09 -6.64016e-09 -0.000143159)
(1.28801e-08 3.23236e-09 -0.000142916)
(7.93666e-09 3.42768e-09 -0.000142995)
(1.41388e-08 2.83163e-09 -0.000142916)
(-1.40538e-08 -3.00456e-09 -0.000142697)
(7.06656e-09 5.30726e-09 -0.000143)
(-5.26763e-09 -7.55473e-09 -0.00014284)
(-1.49755e-08 7.6295e-09 -0.000134229)
(1.87831e-08 5.23915e-09 -0.00013423)
(-1.53035e-08 -7.33235e-09 -0.000133958)
(-1.58367e-08 6.7382e-09 -0.000134232)
(1.51065e-08 -7.29347e-09 -0.000133954)
(-4.98567e-09 8.09302e-09 -0.000143008)
(-1.42178e-08 2.29698e-09 -0.000142929)
(1.29933e-08 -2.6767e-09 -0.000142706)
(-7.65492e-09 1.91683e-09 -0.000143011)
(4.69221e-09 -6.55347e-09 -0.000142848)
(8.72603e-09 -7.88535e-09 -0.000134364)
(8.21319e-09 8.00672e-09 -0.000134342)
(-7.3715e-09 -8.89027e-09 -0.000134145)
(8.68091e-09 -7.47426e-09 -0.000134379)
(-8.27327e-09 8.02988e-09 -0.000134173)
(-9.16076e-09 1.00208e-08 -0.000134359)
(-1.02926e-08 -8.52172e-09 -0.000134348)
(-7.73513e-09 6.65658e-09 -0.000134356)
(7.31289e-09 -7.126e-09 -0.000134164)
(-7.94032e-09 -5.91542e-09 -0.000134345)
(7.59004e-09 5.91528e-09 -0.000134155)
(1.32336e-08 -3.93751e-09 -0.000142922)
(4.91919e-09 -6.51733e-09 -0.000143029)
(-5.06699e-09 4.91743e-09 -0.000142859)
(1.24907e-08 -2.89507e-09 -0.000142918)
(-1.52555e-08 1.58851e-09 -0.000142707)
(1.51319e-08 -8.34069e-09 -0.000134224)
(-1.8308e-08 -7.19201e-09 -0.000134224)
(1.91588e-08 -3.92645e-09 -0.000134215)
(-1.65286e-08 5.93274e-09 -0.000133945)
(-1.56627e-08 -4.85221e-09 -0.000134225)
(1.34105e-08 5.63007e-09 -0.000133951)
(-6.95256e-09 -6.43506e-09 -0.000142989)
(-1.56099e-08 -3.6977e-09 -0.000142919)
(-6.06114e-09 -2.97349e-09 -0.000142991)
(5.18353e-09 4.44969e-09 -0.000142836)
(-1.19126e-08 -3.62264e-09 -0.000142925)
(1.31599e-08 2.32671e-09 -0.000142691)
(-1.25504e-08 -3.62068e-09 -0.000142689)
(1.51854e-08 3.77413e-09 -0.000142925)
(-5.2164e-09 -7.60356e-09 -0.000142839)
(1.00689e-08 1.28266e-09 -0.000143012)
(1.66752e-08 2.10435e-09 -0.000142927)
(-1.26678e-08 -2.53443e-09 -0.000142699)
(7.19884e-09 4.06694e-09 -0.000143016)
(-2.17777e-09 -1.16026e-08 -0.000142853)
(1.75899e-08 -6.56958e-09 -0.000133948)
(-1.44552e-08 8.74211e-09 -0.000134246)
(2.05784e-08 4.32029e-09 -0.000134238)
(-1.20081e-08 -6.22494e-09 -0.000133963)
(-1.81351e-08 4.99965e-09 -0.00013424)
(1.79968e-08 -3.63326e-09 -0.000133967)
(5.11208e-09 -7.96162e-09 -0.000142855)
(-8.61869e-09 4.06075e-09 -0.000143021)
(-1.50421e-08 2.73707e-09 -0.000142939)
(1.69352e-08 -5.36449e-10 -0.000142713)
(-7.57358e-09 3.65511e-09 -0.000143019)
(4.10758e-09 -7.6833e-09 -0.000142866)
(-7.8233e-09 9.1235e-09 -0.000134179)
(1.02621e-08 -5.65429e-09 -0.000134383)
(8.38631e-09 7.85384e-09 -0.000134353)
(-5.53355e-09 -9.52526e-09 -0.000134158)
(8.22459e-09 -6.62528e-09 -0.000134383)
(-5.75117e-09 1.0628e-08 -0.000134189)
(7.03585e-09 -1.06269e-08 -0.000134165)
(-9.77541e-09 5.15338e-09 -0.000134369)
(7.39206e-09 1.13265e-08 -0.000134152)
(-1.0853e-08 -4.31946e-09 -0.000134354)
(-7.16674e-09 9.50229e-09 -0.000134366)
(5.91285e-09 -9.86873e-09 -0.000134176)
(-7.71136e-09 -8.3064e-09 -0.000134348)
(5.55986e-09 1.14903e-08 -0.000134159)
(-1.38459e-08 3.71777e-09 -0.000142693)
(1.61687e-08 -3.90595e-09 -0.000142928)
(5.9695e-09 -5.67196e-09 -0.00014304)
(-3.98665e-09 8.2197e-09 -0.000142873)
(1.14163e-08 -4.69992e-09 -0.00014292)
(-1.52756e-08 1.80672e-09 -0.000142706)
(-1.59649e-08 6.80639e-09 -0.000133935)
(1.77993e-08 -6.3216e-09 -0.000134223)
(1.92685e-08 5.30075e-09 -0.000133949)
(-1.4352e-08 -8.01978e-09 -0.000134239)
(1.63623e-08 -5.52061e-09 -0.000134214)
(-1.65988e-08 5.25991e-09 -0.000133945)
(-1.61061e-08 -6.80122e-09 -0.000134235)
(1.99342e-08 3.06325e-09 -0.000133961)
(4.39602e-09 8.12769e-09 -0.000142837)
(-7.22832e-09 -4.97879e-09 -0.000142999)
(1.76736e-08 1.21667e-09 -0.000142697)
(-1.31056e-08 -4.56742e-09 -0.000142935)
(-7.03913e-09 -5.50557e-09 -0.000142994)
(4.18365e-09 8.03193e-09 -0.000142839)
(-1.188e-08 -4.68561e-09 -0.00014293)
(1.79985e-08 4.36046e-10 -0.000142703)
(-1.03191e-08 -3.90352e-09 -0.000142699)
(1.37558e-08 3.07792e-09 -0.000142935)
(-4.32937e-09 -6.56898e-09 -0.00014286)
(6.70011e-09 3.57713e-09 -0.000143026)
(1.2857e-08 3.11039e-09 -0.000142939)
(-1.38242e-08 -3.42826e-09 -0.00014271)
(6.46456e-09 3.99391e-09 -0.000143033)
(-5.32763e-09 -7.22455e-09 -0.000142871)
(1.56597e-08 -5.93836e-09 -0.00013396)
(-1.16999e-08 8.76116e-09 -0.00013425)
(1.82836e-08 5.05641e-09 -0.000134245)
(-1.43286e-08 -6.9618e-09 -0.000133968)
(-1.86885e-08 4.26007e-09 -0.000134249)
(1.78642e-08 -6.22001e-09 -0.000133975)
(4.43564e-09 -6.11145e-09 -0.000142866)
(-4.50175e-09 6.93905e-09 -0.000143036)
(-1.50341e-08 2.14926e-09 -0.000142943)
(1.58754e-08 -1.78306e-09 -0.000142722)
(-6.37038e-09 2.05297e-09 -0.000143042)
(4.71923e-09 -7.76932e-09 -0.00014288)
(-7.13351e-09 9.75299e-09 -0.000134189)
(9.45899e-09 -4.49739e-09 -0.000134393)
(7.52724e-09 8.42728e-09 -0.000134371)
(-7.96813e-09 -7.99294e-09 -0.000134174)
(7.28599e-09 -7.54457e-09 -0.000134392)
(-7.29387e-09 7.74001e-09 -0.000134203)
(7.51525e-09 -8.34961e-09 -0.000134174)
(-7.59488e-09 9.3741e-09 -0.000134383)
(6.18068e-09 9.44198e-09 -0.000134156)
(-8.8221e-09 -5.68766e-09 -0.000134356)
(-7.40849e-09 8.33568e-09 -0.000134386)
(8.819e-09 -6.97224e-09 -0.000134188)
(-6.48728e-09 -7.63777e-09 -0.000134353)
(8.57468e-09 8.27928e-09 -0.000134164)
(-1.75052e-08 2.64593e-12 -0.000142696)
(7.97126e-09 -6.54914e-09 -0.00014293)
(5.16275e-09 -6.72775e-09 -0.00014305)
(-5.95467e-09 6.15053e-09 -0.000142884)
(5.55544e-09 -5.33717e-09 -0.000142924)
(-2.19952e-08 -1.71008e-09 -0.000142715)
(-1.96721e-08 5.03394e-09 -0.000133934)
(1.08628e-08 -8.81471e-09 -0.000134229)
(1.99338e-08 4.45494e-09 -0.000133956)
(-1.28099e-08 -7.63674e-09 -0.000134243)
(1.25308e-08 -7.22724e-09 -0.000134225)
(-2.20758e-08 3.73442e-09 -0.00013395)
(-1.68176e-08 -3.9356e-09 -0.000134238)
(1.87846e-08 5.7e-09 -0.000133966)
(4.65126e-09 6.71755e-09 -0.000142834)
(-6.83668e-09 -3.75811e-09 -0.000142999)
(1.77322e-08 -1.90246e-10 -0.0001427)
(-1.04731e-08 -4.27018e-09 -0.000142932)
(-5.78448e-09 -4.2924e-09 -0.000142998)
(5.35876e-09 7.12781e-09 -0.000142842)
(-1.23018e-08 -2.16782e-09 -0.000142926)
(1.80833e-08 5.70536e-10 -0.000142704)
(-1.38341e-08 -2.39117e-09 -0.000142712)
(1.17165e-08 4.61758e-09 -0.000142946)
(-5.14208e-09 -6.23567e-09 -0.000142872)
(6.58855e-09 7.12664e-09 -0.00014304)
(1.22281e-08 4.33338e-09 -0.00014294)
(-1.66915e-08 -1.30126e-09 -0.000142719)
(5.11823e-09 7.85338e-09 -0.000143037)
(-5.9377e-09 -5.44852e-09 -0.00014288)
(1.51924e-08 -6.25529e-09 -0.000133969)
(-1.70681e-08 6.6902e-09 -0.000134251)
(1.54902e-08 4.84496e-09 -0.000134242)
(-1.79317e-08 -5.27145e-09 -0.000133971)
(-1.96539e-08 3.51762e-09 -0.000134242)
(1.46347e-08 -7.44896e-09 -0.000133969)
(4.98357e-09 -7.0471e-09 -0.000142889)
(-6.99149e-09 5.97508e-09 -0.000143049)
(-1.63425e-08 1.27776e-09 -0.000142937)
(1.41982e-08 -2.84289e-09 -0.000142711)
(-6.9742e-09 4.802e-09 -0.00014304)
(6.14637e-09 -5.78615e-09 -0.000142891)
(-7.29023e-09 8.33485e-09 -0.000134197)
(8.64183e-09 -7.44828e-09 -0.000134394)
(7.25742e-09 9.07906e-09 -0.000134372)
(-8.39334e-09 -6.61675e-09 -0.000134181)
(6.75182e-09 -9.99327e-09 -0.000134391)
(-8.01787e-09 6.90581e-09 -0.0001342)
(7.87141e-09 -8.31727e-09 -0.000134192)
(-8.44663e-09 7.89368e-09 -0.000134392)
(7.18471e-09 9.26176e-09 -0.00013416)
(-8.28593e-09 -7.38799e-09 -0.000134355)
(-6.78823e-09 9.41394e-09 -0.00013438)
(8.30887e-09 -6.74842e-09 -0.000134197)
(-7.33158e-09 -7.80179e-09 -0.000134347)
(8.59164e-09 7.1278e-09 -0.000134159)
(-2.14782e-08 -2.08458e-09 -0.000142706)
(8.28418e-09 -5.29851e-09 -0.000142932)
(4.40499e-09 -8.87663e-09 -0.000143045)
(-7.02356e-09 4.10016e-09 -0.000142881)
(8.96992e-09 -5.82404e-09 -0.000142925)
(-1.96049e-08 -7.53455e-10 -0.000142716)
(-2.28385e-08 4.40926e-09 -0.000133943)
(1.29045e-08 -8.02842e-09 -0.000134236)
(1.70156e-08 6.21756e-09 -0.000133962)
(-1.73962e-08 -6.23927e-09 -0.000134244)
(1.49211e-08 -6.17347e-09 -0.000134228)
(-1.96334e-08 5.40063e-09 -0.000133955)
(-1.85501e-08 -3.53155e-09 -0.000134236)
(1.49071e-08 7.22314e-09 -0.000133964)
(5.21724e-09 7.40345e-09 -0.000142839)
(-6.71765e-09 -5.45062e-09 -0.000142995)
(1.5907e-08 2.14218e-09 -0.000142699)
(-1.65425e-08 -1.7786e-09 -0.000142933)
(-7.27702e-09 -3.05317e-09 -0.000142989)
(5.34316e-09 7.25032e-09 -0.000142832)
(-1.49629e-08 -2.05814e-09 -0.000142927)
(1.32474e-08 3.52684e-09 -0.0001427)
(-1.42322e-08 -2.83887e-09 -0.000142711)
(1.11904e-08 4.22233e-09 -0.000142947)
(-6.07304e-09 -3.74543e-09 -0.000142874)
(6.58209e-09 4.20765e-09 -0.000143038)
(1.46336e-08 3.44415e-09 -0.000142934)
(-1.44734e-08 -1.39122e-09 -0.000142722)
(7.50387e-09 5.68325e-09 -0.000143024)
(-3.91048e-09 -7.07995e-09 -0.000142881)
(1.43489e-08 -6.20139e-09 -0.000133961)
(-1.31287e-08 7.84069e-09 -0.00013425)
(1.80145e-08 5.70758e-09 -0.000134239)
(-1.76584e-08 -4.3253e-09 -0.000133975)
(-2.04968e-08 3.79022e-09 -0.000134242)
(1.55984e-08 -5.11767e-09 -0.000133976)
(5.57448e-09 -4.93175e-09 -0.00014288)
(-5.5085e-09 6.12204e-09 -0.000143043)
(-1.6687e-08 2.19828e-09 -0.000142937)
(1.58664e-08 -1.10151e-09 -0.000142721)
(-8.70673e-09 1.46293e-09 -0.00014303)
(3.59936e-09 -8.39687e-09 -0.000142882)
(-8.1518e-09 6.13439e-09 -0.000134194)
(9.05433e-09 -7.68958e-09 -0.000134395)
(8.38824e-09 7.67406e-09 -0.000134356)
(-6.29552e-09 -9.45144e-09 -0.000134177)
(6.35778e-09 -1.23525e-08 -0.000134385)
(-7.81145e-09 6.63484e-09 -0.000134202)
(7.74047e-09 -8.64542e-09 -0.000134184)
(-1.00857e-08 6.26039e-09 -0.000134384)
(7.30719e-09 1.01023e-08 -0.000134154)
(-9.48567e-09 -7.20267e-09 -0.000134355)
(-8.77877e-09 4.43205e-09 -0.000134368)
(6.75572e-09 -1.03629e-08 -0.000134184)
(-6.96014e-09 -9.65695e-09 -0.000134346)
(7.71665e-09 7.65282e-09 -0.000134162)
(-1.82341e-08 1.73963e-11 -0.0001427)
(9.67753e-09 -6.11339e-09 -0.000142933)
(3.1375e-09 -1.08856e-08 -0.000143039)
(-5.93162e-09 3.39137e-09 -0.000142886)
(1.23205e-08 -5.27732e-09 -0.000142917)
(-1.82493e-08 8.99353e-10 -0.000142709)
(-2.0043e-08 4.46818e-09 -0.00013395)
(1.14941e-08 -8.09657e-09 -0.000134236)
(1.67947e-08 5.78753e-09 -0.000133957)
(-1.66649e-08 -7.57123e-09 -0.000134244)
(1.92584e-08 -4.81519e-09 -0.000134222)
(-1.8423e-08 4.92407e-09 -0.000133959)
(-2.02239e-08 -6.05494e-09 -0.000134235)
(1.49547e-08 7.24696e-09 -0.000133962)
(4.4478e-09 8.04394e-09 -0.00014283)
(-7.31661e-09 -4.16312e-09 -0.000142995)
(1.57488e-08 2.08331e-09 -0.000142696)
(-1.48279e-08 -2.29401e-09 -0.000142932)
(-6.8046e-09 -6.92096e-09 -0.00014299)
(5.78147e-09 5.70096e-09 -0.000142836)
(-1.49955e-08 -3.06074e-09 -0.000142922)
(1.35411e-08 1.93987e-09 -0.000142702)
(-1.30736e-08 -2.32005e-09 -0.000142702)
(1.18093e-08 2.98931e-09 -0.000142931)
(-4.82475e-09 -6.92899e-09 -0.000142859)
(8.17006e-09 2.21646e-09 -0.000143019)
(1.15207e-08 2.30589e-09 -0.000142923)
(-1.4782e-08 -1.80469e-09 -0.000142706)
(7.35038e-09 2.41237e-09 -0.000143006)
(-4.8004e-09 -1.07129e-08 -0.000142859)
(1.32752e-08 -5.79619e-09 -0.000133965)
(-1.55794e-08 5.44923e-09 -0.00013425)
(1.84692e-08 5.34906e-09 -0.000134235)
(-1.53132e-08 -7.45909e-09 -0.000133961)
(-1.75989e-08 4.62844e-09 -0.000134248)
(1.66973e-08 -6.08882e-09 -0.000133974)
(3.4982e-09 -9.73556e-09 -0.000142867)
(-8.58876e-09 -7.40591e-10 -0.000143027)
(-1.44969e-08 2.33048e-09 -0.000142941)
(1.75475e-08 -1.68962e-09 -0.000142714)
(-6.99554e-09 1.53687e-09 -0.00014302)
(4.24748e-09 -1.15522e-08 -0.000142871)
(-8.82839e-09 4.09357e-09 -0.000134188)
(8.12032e-09 -8.21714e-09 -0.000134389)
(8.67614e-09 2.65998e-09 -0.000134343)
(-5.88095e-09 -1.33564e-08 -0.00013416)
(6.00986e-09 -7.52881e-09 -0.00013438)
(-8.48444e-09 6.62031e-09 -0.000134195)
(5.29318e-09 -1.33516e-08 -0.000134171)
(-1.04823e-08 1.42715e-10 -0.000134371)
(6.18699e-09 8.59086e-09 -0.000134153)
(-7.31538e-09 -6.00591e-09 -0.00013435)
(-8.36154e-09 5.41403e-09 -0.000134365)
(6.6526e-09 -1.37244e-08 -0.000134177)
(-6.99725e-09 -8.85155e-09 -0.000134349)
(8.72399e-09 8.72003e-09 -0.00013416)
(-1.63712e-08 6.39678e-10 -0.00014269)
(1.07022e-08 -5.25887e-09 -0.000142921)
(4.68093e-09 -6.59748e-09 -0.000143041)
(-6.77818e-09 5.32787e-09 -0.000142878)
(1.03348e-08 -4.53934e-09 -0.000142914)
(-1.92783e-08 1.12034e-09 -0.0001427)
(-1.68071e-08 4.75766e-09 -0.000133943)
(1.39835e-08 -6.52346e-09 -0.000134224)
(1.69699e-08 5.05311e-09 -0.000133952)
(-1.44454e-08 -7.13509e-09 -0.000134236)
(1.68381e-08 -4.62154e-09 -0.000134216)
(-1.8167e-08 5.70148e-09 -0.000133948)
(-1.61762e-08 -5.7772e-09 -0.000134229)
(1.84961e-08 6.43971e-09 -0.000133956)
(4.85708e-09 6.31531e-09 -0.000142829)
(-6.32389e-09 -4.76447e-09 -0.000142994)
(1.62219e-08 4.83521e-10 -0.000142692)
(-1.06892e-08 -3.88951e-09 -0.000142922)
(-5.27537e-09 -5.24363e-09 -0.000142992)
(6.59653e-09 7.06693e-09 -0.000142834)
(-1.25895e-08 -2.44424e-09 -0.000142916)
(1.83913e-08 1.02936e-09 -0.000142693)
(-1.35085e-08 -2.81711e-09 -0.000142697)