/*--------------------------------*- C++ -*----------------------------------*\
| =========                 |                                                 |
| \\      /  F ield         | OpenFOAM: The Open Source CFD Toolbox           |
|  \\    /   O peration     | Version:  2206                                  |
|   \\  /    A nd           | Website:  www.openfoam.com                      |
|    \\/     M anipulation  |                                                 |
\*---------------------------------------------------------------------------*/
FoamFile
{
    version     2.0;
    format      ascii;
    arch        "LSB;label=32;scalar=64";
    class       volVectorField;
    location    "120";
    object      wallShearStress;
}
// * * * * * * * * * * * * * * * * * * * * * * * * * * * * * * * * * * * * * //

dimensions      [0 2 -2 0 0 0 0];

internalField   uniform (0 0 0);

boundaryField
{
    topPatch
    {
        type            calculated;
        value           uniform (0 0 0);
    }
    wall
    {
        type            calculated;
        value           nonuniform List<vector> 
46496
(
(-1.30993e-08 7.82099e-10 -0.000103738)
(1.71537e-08 4.85655e-09 -0.000110408)
(-1.60201e-09 3.77607e-11 -0.000103944)
(4.77426e-11 5.31124e-10 -0.000110563)
(-1.62593e-08 5.88585e-09 -0.000110353)
(-3.03205e-10 -1.15275e-10 -0.000110507)
(1.3594e-08 5.49322e-10 -0.00010381)
(2.33881e-09 1.11036e-09 -0.000110534)
(-2.62173e-09 -3.76786e-09 -0.000104006)
(1.91054e-10 2.50495e-09 -0.000103997)
(7.77995e-10 -3.11143e-09 -0.000103956)
(-1.34819e-08 -4.46033e-09 -0.0001104)
(-8.63169e-09 2.28975e-09 -0.000103771)
(1.24414e-08 -7.32784e-10 -0.000103754)
(4.19697e-10 -1.37416e-09 -0.000110496)
(1.11875e-08 -4.88698e-09 -0.000110332)
(8.3766e-09 1.19469e-09 -0.000110285)
(2.17704e-08 -5.89449e-09 -0.00010374)
(-1.97376e-08 -9.97719e-09 -0.000110355)
(-2.07504e-09 1.57128e-08 -0.000105662)
(1.36281e-09 6.9094e-09 -0.000107089)
(4.08158e-09 -1.42169e-08 -0.000110313)
(2.228e-09 -1.44174e-09 -0.000103782)
(-2.29698e-09 1.62227e-09 -0.00010394)
(1.48222e-09 4.30059e-09 -0.000110375)
(1.19351e-09 1.10397e-09 -0.000110562)
(1.87113e-09 -3.04073e-09 -0.000104368)
(-5.65842e-09 1.02788e-08 -0.000104212)
(9.07276e-09 -4.52526e-09 -0.000104239)
(-1.82502e-08 9.86478e-09 -0.000104171)
(-3.42084e-10 1.39926e-09 -0.000109358)
(1.28362e-08 -1.19506e-08 -0.000109322)
(-3.95824e-09 4.78822e-09 -0.0001092)
(-1.80024e-08 1.53955e-08 -0.000109191)
(1.88852e-08 -9.01387e-09 -0.000110294)
(1.23596e-09 -2.20985e-09 -0.000110319)
(-1.51546e-09 3.03356e-09 -0.000110499)
(-1.54701e-08 -3.39634e-09 -0.000103807)
(5.5953e-09 6.02183e-09 -0.000104386)
(-8.48099e-09 -1.13265e-08 -0.000104241)
(4.26468e-09 3.3303e-09 -0.000109386)
(2.14969e-10 9.99911e-10 -0.000109241)
(-2.85966e-09 -5.83686e-09 -0.000110354)
(-5.61919e-10 -1.56931e-08 -0.000105703)
(1.45325e-09 -5.3638e-09 -0.000107105)
(2.88808e-09 1.17291e-08 -0.000110366)
(4.63895e-10 2.05173e-09 -0.000103838)
(-2.99063e-09 -5.304e-09 -0.000104007)
(-3.47398e-10 -2.18476e-09 -0.000103825)
(-4.08365e-09 1.40192e-08 -0.000110338)
(-3.44971e-10 1.26434e-10 -0.000103793)
(-1.48123e-08 -7.07596e-09 -0.000104345)
(7.73937e-09 2.40019e-09 -0.000104305)
(-1.98722e-08 -1.60503e-08 -0.000109416)
(1.44687e-08 6.38467e-09 -0.000110352)
(7.40665e-09 -3.89903e-10 -0.000110306)
(2.17438e-08 5.88033e-09 -0.000103778)
(3.91619e-10 -4.90599e-09 -0.000110314)
(-2.07433e-08 3.54785e-09 -0.000103763)
(-1.42964e-09 4.63635e-09 -0.000110312)
(-2.44157e-08 1.05564e-08 -0.000110282)
(-4.0811e-09 2.6401e-09 -0.000110355)
(-7.12551e-09 -1.99657e-08 -0.000110395)
(5.36834e-09 1.8949e-09 -0.00010541)
(7.28905e-09 -4.73245e-09 -0.000106808)
(6.4075e-09 2.24734e-09 -0.000106811)
(9.34887e-09 -4.3741e-09 -0.000105394)
(5.97322e-09 -6.07897e-09 -0.000110256)
(1.56956e-08 7.58264e-09 -0.000104328)
(-1.31952e-08 -1.01851e-08 -0.000104234)
(2.04514e-08 1.57723e-08 -0.000109367)
(-9.60209e-09 -1.03115e-08 -0.000109225)
(-5.0101e-09 1.55086e-08 -0.000110503)
(6.2739e-10 -1.25506e-08 -0.000105439)
(8.72567e-10 2.01429e-09 -0.000107095)
(-1.9838e-09 -6.0163e-09 -0.00010684)
(-1.03264e-09 1.0805e-08 -0.000105669)
(-5.43944e-09 1.71955e-08 -0.000110498)
(-6.81539e-09 -8.55002e-09 -0.000104423)
(4.78927e-09 5.53876e-09 -0.000104245)
(-6.80894e-09 -7.19154e-09 -0.00010944)
(6.10891e-09 6.42768e-09 -0.000109267)
(-1.4016e-08 6.41802e-09 -0.000104309)
(9.78981e-09 -4.86255e-09 -0.000104233)
(-1.82726e-08 1.42404e-08 -0.000109349)
(1.21029e-08 -9.84056e-09 -0.000109221)
(-5.84734e-09 7.93576e-09 -0.000104364)
(4.49123e-09 -4.21074e-09 -0.000104205)
(-5.8879e-09 6.21953e-09 -0.000109391)
(5.11853e-12 2.58272e-10 -0.000109228)
(3.79653e-09 3.51888e-09 -0.000105447)
(4.38547e-09 -2.9074e-09 -0.00010682)
(9.43295e-09 3.7985e-09 -0.000106827)
(-5.6266e-09 -4.69392e-09 -0.000105441)
(-3.13046e-09 -5.50077e-09 -0.000110326)
(-7.10361e-10 5.04735e-09 -0.00010547)
(5.32818e-10 -7.65692e-09 -0.000107105)
(-1.71085e-09 -6.63262e-10 -0.000106855)
(-1.59334e-09 -1.75151e-08 -0.000105704)
(-5.72142e-09 -1.84595e-08 -0.000110562)
(-5.22961e-09 -1.76934e-08 -0.000110561)
(3.54561e-09 9.58506e-09 -0.000110577)
(6.36877e-10 -1.69155e-08 -0.000105527)
(-3.80164e-10 -1.31316e-09 -0.000107186)
(8.51497e-10 -6.58076e-09 -0.000106948)
(-1.05091e-09 7.81702e-09 -0.000105764)
(-9.86201e-10 1.37405e-08 -0.000105494)
(-1.3045e-09 -6.65627e-09 -0.00010717)
(1.80433e-09 4.26329e-09 -0.000106922)
(8.28707e-10 -8.21777e-09 -0.000105713)
(3.47842e-09 -1.47969e-08 -0.00011053)
(1.978e-08 1.59708e-08 -0.000109317)
(1.05973e-08 7.0225e-09 -0.000110277)
(6.09122e-09 -2.61369e-09 -0.00010541)
(1.32512e-08 2.16422e-09 -0.000106798)
(7.83461e-09 -3.03758e-09 -0.000106806)
(1.74597e-08 5.69956e-09 -0.000105398)
(-3.58125e-10 3.59104e-09 -0.000110288)
(9.63228e-09 -4.05897e-09 -0.000105418)
(6.62229e-09 1.51503e-09 -0.000106803)
(7.13039e-09 -3.34041e-09 -0.000106807)
(6.99066e-10 2.08227e-09 -0.000105408)
(1.98762e-08 -9.57253e-09 -0.000110302)
(-3.56421e-09 4.40704e-09 -0.00011032)
(1.95469e-08 -3.14326e-09 -0.000103755)
(-6.35384e-09 1.44111e-08 -0.000103767)
(-1.41244e-09 -7.26433e-09 -0.000103874)
(-5.73799e-09 -8.91431e-09 -0.000110414)
(1.53718e-08 4.71126e-09 -0.000110387)
(9.91468e-09 -2.09014e-09 -0.000103814)
(-9.78175e-09 2.88899e-09 -0.000110352)
(2.19944e-08 -1.07134e-08 -0.000110288)
(-6.2059e-09 1.07944e-08 -0.000110503)
(-5.20803e-09 8.87893e-09 -0.000110307)
(2.0742e-08 -8.9037e-09 -0.000110287)
(-1.00994e-08 2.87926e-09 -0.000110341)
(1.12891e-09 -2.96635e-09 -0.000110303)
(-5.55107e-09 1.20038e-08 -0.000110498)
(-2.05956e-08 9.97674e-09 -0.000110367)
(-7.30584e-09 1.42235e-08 -0.000110516)
(-2.61936e-08 7.74523e-09 -0.000103752)
(-9.45651e-09 3.5831e-08 -0.000110507)
(-8.51278e-09 2.08353e-08 -0.00010395)
(-7.46927e-09 -1.60662e-08 -0.000104045)
(-7.52814e-09 -1.73837e-08 -0.000110617)
(1.32092e-08 6.00199e-09 -0.000104326)
(-1.30676e-08 -7.89025e-09 -0.000104394)
(1.50107e-08 1.12788e-08 -0.000109347)
(-2.01526e-08 -1.71689e-08 -0.000109465)
(-1.96535e-08 -9.74207e-09 -0.000110438)
(-2.6327e-08 -6.71357e-09 -0.000103806)
(2.48035e-08 -1.09423e-08 -0.000110296)
(-1.05997e-08 3.10252e-09 -0.00011034)
(-4.68729e-09 7.11733e-09 -0.000110313)
(-6.83253e-09 1.24138e-08 -0.000110489)
(-1.30135e-08 5.52189e-09 -0.000110338)
(2.19436e-08 -1.038e-08 -0.000110281)
(-2.00129e-09 6.32076e-09 -0.000110489)
(-1.72339e-09 3.53274e-09 -0.000110304)
(-9.62809e-09 -2.5364e-10 -0.000103751)
(2.84591e-08 -8.90876e-09 -0.000103732)
(1.25442e-08 5.67736e-09 -0.000110383)
(-1.91782e-08 -8.71386e-09 -0.000110295)
(-8.47834e-09 1.64232e-08 -0.000103935)
(-2.49776e-09 8.79257e-09 -0.000103756)
(-5.79141e-09 -1.18386e-08 -0.000110606)
(-1.02771e-11 1.18153e-09 -0.000110396)
(-8.10266e-09 -1.39139e-10 -0.000103732)
(2.24344e-08 -5.593e-09 -0.000103751)
(5.27515e-09 2.16641e-09 -0.000110379)
(-2.43703e-08 -1.05643e-08 -0.000110332)
(-1.6506e-09 2.07012e-09 -0.000103915)
(3.75501e-09 -8.40663e-09 -0.000103751)
(-2.66544e-09 -6.00336e-09 -0.000110574)
(5.6047e-09 9.78312e-09 -0.000110392)
(-1.47565e-08 1.31735e-09 -0.000103761)
(1.35414e-08 -1.23727e-09 -0.000103762)
(2.28872e-08 9.8789e-09 -0.000110399)
(-6.80117e-09 -8.22454e-11 -0.00011035)
(1.74039e-09 -4.36485e-09 -0.000103949)
(5.27436e-09 -1.1489e-08 -0.000103782)
(4.87294e-09 8.86636e-09 -0.000110596)
(4.46959e-09 8.25788e-09 -0.000110417)
(-1.66598e-08 3.01796e-09 -0.000103753)
(2.12891e-08 -5.17864e-09 -0.000103745)
(2.37885e-08 1.11426e-08 -0.000110403)
(-1.551e-08 -6.35221e-09 -0.000110338)
(2.92136e-10 1.81135e-10 -0.000103948)
(-5.57252e-10 3.78857e-09 -0.000103786)
(8.46607e-10 -5.53602e-10 -0.000110632)
(2.27244e-09 3.68139e-09 -0.000110447)
(-2.06677e-08 5.85411e-09 -0.000103743)
(1.30938e-08 -1.48038e-09 -0.000103742)
(2.26672e-08 9.63974e-09 -0.000110401)
(-1.15318e-08 -2.62185e-09 -0.000110348)
(3.3904e-09 -8.75411e-09 -0.000103956)
(4.65195e-09 -7.78145e-09 -0.000103797)
(-2.88447e-09 -5.12368e-09 -0.000110638)
(2.8384e-10 1.13022e-10 -0.000110462)
(-1.55123e-08 2.96026e-09 -0.000103728)
(1.0555e-08 -2.19418e-10 -0.000103725)
(1.68911e-08 6.82014e-09 -0.000110398)
(-9.5446e-09 -2.86178e-09 -0.000110337)
(-3.57362e-09 9.87353e-09 -0.000103977)
(-1.39094e-09 4.52806e-09 -0.000103801)
(-2.92111e-09 -6.13974e-09 -0.000110661)
(2.63996e-10 8.64058e-10 -0.000110466)
(-1.43425e-08 1.85739e-09 -0.000103712)
(9.85023e-09 -4.54869e-10 -0.000103717)
(2.37985e-08 1.02976e-08 -0.000110394)
(-6.69514e-09 -2.09789e-09 -0.00011033)
(-4.32613e-09 6.96358e-09 -0.000103958)
(1.18018e-09 -9.75248e-10 -0.000103793)
(2.97869e-09 6.54706e-09 -0.000110636)
(3.24307e-09 7.11219e-09 -0.000110438)
(-2.85751e-08 6.4984e-09 -0.000103721)
(2.48923e-09 4.37023e-09 -0.000103728)
(2.87084e-08 1.24867e-08 -0.000110397)
(-1.62964e-08 -6.61621e-09 -0.000110355)
(-2.55988e-09 3.61842e-09 -0.000103956)
(3.05354e-09 -6.87201e-09 -0.000103795)
(4.9309e-09 1.07627e-08 -0.000110607)
(3.92831e-09 8.02208e-09 -0.000110411)
(-1.82586e-08 3.25334e-09 -0.000103731)
(1.60981e-08 -3.51159e-09 -0.000103726)
(2.07339e-08 8.32762e-09 -0.000110422)
(-5.47928e-09 4.46508e-10 -0.000110371)
(2.39491e-09 -7.13894e-09 -0.000103964)
(1.71387e-09 -3.90331e-09 -0.000103783)
(-2.0637e-09 -3.51248e-09 -0.000110581)
(3.08202e-09 5.25201e-09 -0.000110382)
(-1.44817e-08 2.44823e-09 -0.00010372)
(1.92751e-08 -3.60521e-09 -0.000103728)
(2.46392e-08 9.82212e-09 -0.000110414)
(-1.00466e-08 -3.885e-09 -0.000110357)
(-2.57352e-09 4.42755e-09 -0.000103938)
(1.3661e-09 -2.77205e-09 -0.00010377)
(-1.47155e-09 -3.02339e-09 -0.000110565)
(-6.34347e-10 1.26838e-10 -0.000110369)
(-1.90812e-08 4.60382e-09 -0.000103727)
(1.59824e-08 -1.4752e-09 -0.000103727)
(2.45808e-08 1.17598e-08 -0.000110432)
(-1.11392e-08 -3.47046e-09 -0.000110365)
(-4.00944e-09 9.33115e-09 -0.000103934)
(4.60517e-10 -2.10162e-09 -0.000103757)
(-5.51909e-10 -5.41691e-10 -0.000110567)
(1.82595e-09 3.76823e-09 -0.000110375)
(-1.54398e-08 3.75236e-09 -0.000103708)
(1.73011e-08 -2.50436e-09 -0.000103702)
(1.7098e-08 7.45567e-09 -0.000110418)
(-1.82165e-08 -7.63991e-09 -0.000110348)
(1.36032e-09 -2.85817e-09 -0.000103915)
(3.20377e-09 -3.56228e-09 -0.00010375)
(-2.9248e-10 -1.61229e-09 -0.000110566)
(8.79922e-10 1.04776e-09 -0.000110374)
(-9.30941e-09 1.42956e-09 -0.000103709)
(2.11392e-08 -3.97476e-09 -0.00010372)
(9.59916e-09 3.2508e-09 -0.000110405)
(-1.81844e-08 -6.64547e-09 -0.000110338)
(5.70152e-10 -1.70417e-10 -0.000103919)
(5.28124e-09 -9.2981e-09 -0.000103753)
(-2.50038e-09 -5.43944e-09 -0.000110547)
(1.45541e-09 3.21562e-09 -0.000110349)
(-1.15828e-08 -1.45245e-10 -0.000103712)
(1.74304e-08 -4.53052e-09 -0.000103722)
(1.10546e-08 3.72906e-09 -0.000110396)
(-2.61584e-08 -1.28475e-08 -0.000110336)
(1.11348e-09 -3.37069e-09 -0.000103925)
(2.5756e-09 -5.81007e-09 -0.000103764)
(-2.59858e-10 -2.72792e-09 -0.000110529)
(-5.19409e-11 2.2531e-09 -0.000110335)
(-1.79971e-08 3.04536e-09 -0.000103725)
(1.32821e-08 -1.29802e-09 -0.00010373)
(2.16992e-08 8.40118e-09 -0.000110398)
(-1.21684e-08 -4.17917e-09 -0.000110348)
(6.52146e-10 -5.27463e-09 -0.000103936)
(7.01068e-09 -1.42085e-08 -0.000103775)
(7.6571e-10 2.34389e-09 -0.000110538)
(3.28928e-09 8.13506e-09 -0.000110351)
(-2.09381e-08 4.23822e-09 -0.000103747)
(9.18311e-09 -1.0409e-10 -0.000103744)
(2.33905e-08 9.69659e-09 -0.000110409)
(-1.21544e-08 -4.14257e-09 -0.000110345)
(-4.50808e-09 8.45049e-09 -0.000103952)
(-1.51753e-09 4.46981e-09 -0.000103786)
(-2.16493e-09 -3.3075e-09 -0.000110551)
(-1.75237e-09 -2.984e-09 -0.000110375)
(-1.5498e-08 2.28977e-09 -0.000103744)
(1.96079e-08 -3.89498e-09 -0.000103755)
(2.30328e-08 1.03516e-08 -0.000110399)
(-1.33264e-08 -3.96663e-09 -0.000110357)
(-1.92354e-09 5.37426e-09 -0.000103966)
(5.56786e-09 -1.06371e-08 -0.000103794)
(4.98384e-09 7.62154e-09 -0.000110584)
(4.03423e-09 6.17006e-09 -0.000110385)
(1.162e-08 1.42932e-09 -0.000103789)
(-2.22173e-08 -5.75719e-09 -0.000103755)
(2.76828e-08 -6.89769e-09 -0.000103725)
(-2.43408e-09 -3.73948e-09 -0.000103727)
(-2.82791e-08 -7.36362e-09 -0.00010376)
(5.78208e-09 -2.68105e-09 -0.000103755)
(2.61294e-09 7.01577e-09 -0.000110542)
(-1.41172e-09 -3.47979e-09 -0.000110358)
(-2.69326e-08 -1.21645e-08 -0.000110315)
(7.55533e-09 7.28269e-10 -0.000110355)
(-3.32079e-09 -5.14873e-09 -0.00011035)
(-4.10283e-09 -4.03696e-09 -0.000110544)
(-3.20723e-09 -6.10158e-09 -0.000104035)
(1.0074e-09 8.83323e-10 -0.000103841)
(7.95167e-10 -4.19457e-10 -0.000103745)
(-3.85035e-09 1.09824e-08 -0.000103926)
(4.77934e-10 -9.22578e-10 -0.000103825)
(-4.74115e-09 -5.48542e-09 -0.000104006)
(9.65314e-10 3.12424e-09 -0.000103986)
(-9.64047e-10 -5.92058e-10 -0.00010382)
(-4.86066e-10 -6.82502e-10 -0.000104001)
(-2.17143e-09 5.19555e-09 -0.000103815)
(-1.93511e-09 -2.4842e-09 -0.000103818)
(3.61838e-10 2.95292e-10 -0.000103988)
(-4.56769e-09 1.02143e-08 -0.000103799)
(7.73407e-10 2.06143e-09 -0.000103978)
(-1.98411e-08 -8.89273e-09 -0.000110435)
(1.30173e-08 4.95194e-09 -0.000110368)
(-2.24169e-09 -2.55769e-09 -0.000110381)
(-2.82477e-09 -4.66739e-09 -0.000110584)
(1.29174e-08 4.32609e-09 -0.000110364)
(-2.11784e-08 -9.49979e-09 -0.000110422)
(-2.23289e-08 -4.61615e-09 -0.000103803)
(1.7337e-08 2.75742e-09 -0.000103797)
(1.41376e-08 -2.67123e-09 -0.000103767)
(-1.92698e-08 4.11068e-09 -0.000103757)
(1.8991e-08 3.97427e-09 -0.000103788)
(-1.61127e-08 -2.71386e-09 -0.000103793)
(-1.95665e-08 4.10502e-09 -0.000103751)
(1.43374e-08 -2.0379e-09 -0.000103756)
(4.03801e-09 -1.08191e-08 -0.000110551)
(1.25882e-09 -4.78087e-10 -0.000110353)
(1.37103e-08 -4.80903e-09 -0.000110347)
(-1.90051e-08 8.30812e-09 -0.000110283)
(-2.41886e-09 4.33631e-09 -0.000110334)
(2.44524e-09 -4.24089e-09 -0.000110533)
(-1.6157e-08 6.5819e-09 -0.000110276)
(1.64835e-08 -6.55855e-09 -0.000110331)
(-1.55654e-08 6.99288e-09 -0.000110353)
(1.80702e-08 -7.58783e-09 -0.000110317)
(1.13973e-10 5.58649e-10 -0.000110493)
(6.86669e-09 -1.23172e-08 -0.000110312)
(1.61186e-08 -7.12298e-09 -0.000110334)
(-1.57845e-08 5.99177e-09 -0.000110381)
(5.20328e-09 -8.61182e-09 -0.000110328)
(4.3529e-09 -6.82527e-09 -0.00011051)
(6.74886e-09 -5.2233e-10 -0.000103765)
(-2.50794e-08 -5.52097e-09 -0.000103768)
(1.87892e-08 -3.58423e-09 -0.000103759)
(-1.35066e-08 1.91452e-09 -0.000103758)
(-2.06481e-08 -4.3562e-09 -0.000103771)
(6.23949e-09 -2.05299e-09 -0.000103767)
(8.18932e-10 3.72815e-09 -0.000110539)
(9.13114e-10 -1.93293e-09 -0.000110364)
(-1.89326e-08 -8.36035e-09 -0.00011034)
(1.67238e-08 6.64864e-09 -0.000110396)
(-1.17482e-09 -2.6677e-09 -0.000110377)
(3.58161e-09 8.2429e-09 -0.000110553)
(-1.64536e-09 -2.27281e-09 -0.000103996)
(3.58674e-09 5.24671e-09 -0.00010383)
(4.57928e-09 -8.09629e-09 -0.000103774)
(1.41918e-09 -6.03306e-09 -0.000103927)
(3.1974e-09 4.69039e-09 -0.000103845)
(3.41145e-10 2.9379e-09 -0.000104005)
(1.10715e-09 3.51432e-10 -0.000103986)
(-1.68004e-09 -2.19808e-09 -0.000103827)
(-3.26775e-09 8.06612e-09 -0.000103969)
(-5.01251e-09 1.13755e-08 -0.000103804)
(-3.8072e-10 5.77268e-10 -0.000103835)
(2.15572e-09 4.29622e-09 -0.000103996)
(-4.31014e-09 5.65942e-09 -0.000103808)
(-8.79227e-10 5.50887e-09 -0.000103973)
(-2.12209e-08 -8.54201e-09 -0.000110413)
(1.86652e-08 8.60146e-09 -0.00011036)
(7.89203e-09 1.52172e-08 -0.000110401)
(4.89225e-09 7.97127e-09 -0.000110587)
(1.93875e-08 8.94149e-09 -0.000110378)
(-1.58551e-08 -7.35546e-09 -0.000110425)
(-1.3238e-08 4.34757e-11 -0.000103784)
(2.04761e-08 5.16644e-09 -0.00010379)
(1.36213e-08 -2.31592e-09 -0.000103752)
(-1.45648e-08 2.68761e-09 -0.000103756)
(2.26407e-08 5.66928e-09 -0.000103804)
(-1.24738e-08 -1.50921e-09 -0.000103795)
(-1.55601e-08 2.37259e-09 -0.000103768)
(2.07744e-08 -3.88341e-09 -0.000103761)
(-3.85256e-11 -1.18807e-09 -0.000110522)
(-5.71814e-09 1.04822e-08 -0.000110336)
(2.08349e-08 -8.55562e-09 -0.000110331)
(-9.79336e-09 4.12327e-09 -0.000110283)
(-4.54971e-09 7.61177e-09 -0.000110327)
(-3.63385e-09 5.64602e-09 -0.000110521)
(-1.24486e-08 4.23544e-09 -0.00011029)
(2.36028e-08 -1.10559e-08 -0.000110341)
(-1.67445e-08 6.46464e-09 -0.000110392)
(1.83675e-08 -7.91758e-09 -0.000110341)
(2.77882e-09 -2.38674e-09 -0.000110521)
(5.24134e-09 -8.80129e-09 -0.000110339)
(1.14554e-08 -3.82439e-09 -0.000110341)
(-1.72013e-08 7.34342e-09 -0.000110399)
(4.58256e-09 -8.16597e-09 -0.000110341)
(3.54195e-09 -5.6648e-09 -0.00011053)
(1.59596e-08 3.20686e-09 -0.000103772)
(-1.19626e-09 3.19401e-09 -0.000103777)
(1.12373e-08 1.62996e-10 -0.000103756)
(-2.08637e-08 4.81142e-09 -0.00010376)
(-7.87438e-09 1.71064e-09 -0.000103785)
(2.85436e-08 7.86119e-09 -0.000103781)
(5.54115e-09 1.09522e-08 -0.000110565)
(2.73994e-09 4.78701e-09 -0.000110393)
(-1.20593e-08 -3.84472e-09 -0.000110353)
(1.88284e-08 8.40698e-09 -0.000110407)
(9.05877e-10 2.65359e-09 -0.000110395)
(1.59194e-09 5.29325e-09 -0.000110579)
(-3.20895e-10 2.65297e-09 -0.00010402)
(3.87503e-09 7.19569e-09 -0.000103862)
(4.53019e-09 -8.1238e-09 -0.000103777)
(3.13946e-09 -9.24124e-09 -0.000103951)
(4.74192e-09 6.42217e-09 -0.000103883)
(6.58716e-10 2.8276e-09 -0.000104038)
(2.57355e-09 3.80234e-09 -0.000104005)
(-5.34774e-10 3.57507e-09 -0.00010384)
(-2.7506e-09 4.43331e-09 -0.000103984)
(-4.95808e-09 1.0134e-08 -0.000103822)
(-1.37223e-09 1.89442e-09 -0.000103838)
(2.61711e-09 5.44571e-09 -0.000104003)
(-1.00931e-09 1.74363e-09 -0.000103826)
(-7.61957e-10 4.44671e-09 -0.00010399)
(-1.27702e-08 -4.5988e-09 -0.000110432)
(2.23088e-08 8.95679e-09 -0.00011038)
(1.99404e-09 4.03139e-09 -0.000110439)
(1.52816e-09 1.50207e-09 -0.000110614)
(1.71959e-08 6.38896e-09 -0.000110382)
(-1.77239e-08 -7.86349e-09 -0.000110439)
(-1.00055e-08 -4.63246e-11 -0.000103802)
(1.96572e-08 2.4771e-09 -0.000103808)
(1.63677e-08 -2.49403e-09 -0.000103767)
(-1.65793e-08 1.9054e-09 -0.000103781)
(1.70585e-08 1.83434e-09 -0.000103803)
(-1.86057e-08 -3.82102e-09 -0.000103805)
(-1.48185e-08 2.1967e-09 -0.000103777)
(1.93371e-08 -4.69428e-09 -0.000103782)
(-6.51497e-10 -1.07024e-09 -0.00011052)
(-6.18824e-09 1.16459e-08 -0.000110338)
(2.17367e-08 -9.56435e-09 -0.000110343)
(-1.64855e-08 5.90294e-09 -0.000110299)
(-3.58749e-09 8.32957e-09 -0.000110333)
(-5.2078e-09 8.5778e-09 -0.000110523)
(-1.20342e-08 4.23908e-09 -0.000110301)
(2.06924e-08 -9.95968e-09 -0.000110356)
(-1.90209e-08 7.80922e-09 -0.000110393)
(2.17472e-08 -9.95425e-09 -0.000110333)
(7.70457e-10 5.4134e-10 -0.000110529)
(2.20886e-10 -1.13869e-09 -0.000110343)
(1.79748e-08 -6.76471e-09 -0.000110338)
(-9.01573e-09 2.44745e-09 -0.000110388)
(5.90111e-09 -9.93695e-09 -0.000110342)
(-2.50468e-09 4.4419e-09 -0.00011053)
(2.04732e-08 4.83095e-09 -0.000103782)
(-1.61063e-08 -1.6792e-09 -0.000103778)
(1.17864e-08 -1.8329e-10 -0.000103745)
(-1.2103e-08 1.38058e-09 -0.000103743)
(-1.47381e-08 -3.11809e-10 -0.000103784)
(1.90727e-08 4.8086e-09 -0.00010378)
(4.7208e-09 1.13325e-08 -0.000110584)
(-1.58403e-09 -2.88201e-09 -0.000110403)
(-2.07048e-08 -7.80187e-09 -0.000110353)
(1.88181e-08 9.20001e-09 -0.0001104)
(-9.06166e-09 -1.58876e-08 -0.000110394)
(-5.93861e-10 7.6701e-10 -0.000110585)
(1.16859e-09 1.88689e-09 -0.000104055)
(1.41959e-09 4.35095e-10 -0.000103888)
(5.02263e-09 -1.18183e-08 -0.000103783)
(-3.89305e-09 8.12553e-09 -0.000103953)
(-3.38673e-10 -3.9058e-09 -0.000103892)
(-2.89182e-09 -4.92798e-09 -0.00010406)
(3.73904e-10 4.30799e-09 -0.000104008)
(-1.96398e-09 -2.59116e-09 -0.000103843)
(-5.45042e-10 2.61729e-09 -0.000103998)
(-4.30098e-09 6.53832e-09 -0.000103834)
(-3.1002e-09 -6.54351e-09 -0.000103838)
(8.73391e-10 5.44587e-10 -0.000104008)
(-1.54095e-09 -5.22442e-10 -0.000103828)
(1.20268e-10 -2.53994e-10 -0.000104002)
(-1.54812e-08 -6.86052e-09 -0.000110432)
(2.74946e-08 1.2343e-08 -0.000110382)
(4.66507e-11 1.84837e-10 -0.000110448)
(-6.53317e-10 -1.44439e-09 -0.000110638)
(2.31694e-08 9.88191e-09 -0.000110386)
(-7.79989e-09 -2.19942e-09 -0.00011044)
(-1.43623e-08 -2.19768e-09 -0.000103796)
(2.65827e-08 6.69979e-09 -0.000103802)
(1.97908e-08 -4.30875e-09 -0.000103777)
(-1.56103e-08 2.14324e-09 -0.000103779)
(2.22208e-08 4.31941e-09 -0.000103803)
(-8.17443e-09 4.61507e-10 -0.000103801)
(-2.10647e-08 3.5623e-09 -0.000103779)
(1.97293e-08 -4.1952e-09 -0.00010378)
(-4.89652e-10 -3.56032e-10 -0.000110525)
(-1.98976e-09 1.32138e-09 -0.00011035)
(2.18481e-08 -9.52344e-09 -0.000110358)
(-1.5871e-08 6.53802e-09 -0.000110308)
(-6.35704e-10 -2.99196e-10 -0.000110342)
(2.41065e-09 -6.04549e-09 -0.000110533)
(-2.15258e-08 9.41448e-09 -0.000110303)
(1.6978e-08 -7.5875e-09 -0.000110363)
(-1.72962e-08 7.96209e-09 -0.000110392)
(1.46205e-08 -6.6922e-09 -0.000110336)
(2.69089e-09 -3.72192e-09 -0.000110534)
(4.04487e-09 -7.06554e-09 -0.000110354)
(1.55491e-08 -6.51727e-09 -0.000110324)
(-1.87551e-08 8.6994e-09 -0.000110391)
(-1.68893e-10 2.34727e-09 -0.000110358)
(7.76448e-10 -8.12561e-10 -0.000110544)
(1.74419e-08 2.90973e-09 -0.000103776)
(-1.13538e-08 -6.30045e-12 -0.000103781)
(1.66357e-08 -2.45506e-09 -0.000103732)
(-1.85214e-08 4.10549e-09 -0.000103737)
(-1.91456e-08 -3.66199e-09 -0.000103779)
(1.4343e-08 1.77121e-09 -0.000103782)
(-3.08347e-10 4.73322e-10 -0.000110582)
(-1.4198e-09 -4.37885e-09 -0.000110405)
(-1.83588e-08 -8.0867e-09 -0.000110341)
(1.34722e-08 4.38307e-09 -0.000110403)
(-3.78976e-09 -7.68214e-09 -0.000110403)
(-3.16543e-09 -4.46609e-09 -0.000110592)
(-2.85642e-09 -6.1589e-09 -0.000104061)
(9.8456e-10 7.17033e-11 -0.000103899)
(1.16154e-09 2.32303e-09 -0.000103805)
(6.91789e-10 -3.16437e-09 -0.000103967)
(2.5346e-10 -2.33783e-10 -0.000103905)
(-1.16205e-09 -3.13442e-09 -0.000104075)
(-3.24365e-11 -1.75859e-09 -0.000104011)
(-6.72829e-10 -1.82129e-10 -0.000103852)
(5.76163e-10 -2.55699e-09 -0.000103996)
(-7.48421e-10 -1.35291e-09 -0.000103821)
(-2.4053e-09 -3.37977e-09 -0.000103852)
(9.88289e-10 1.08063e-09 -0.000104018)
(1.68861e-09 -5.97823e-09 -0.000103815)
(2.15257e-09 -3.87825e-09 -0.000103989)
(-1.36126e-08 -5.51375e-09 -0.000110438)
(1.22965e-08 5.16148e-09 -0.000110381)
(8.82562e-10 2.41946e-09 -0.000110472)
(-2.21932e-09 -5.15553e-09 -0.000110658)
(1.51097e-08 5.75618e-09 -0.000110391)
(-2.30072e-08 -1.10259e-08 -0.00011044)
(-1.1832e-08 -7.67706e-10 -0.000103797)
(1.54638e-08 3.39618e-09 -0.000103804)
(1.4406e-08 -2.31609e-09 -0.000103776)
(-2.51505e-08 5.80977e-09 -0.000103765)
(1.65659e-08 2.40731e-09 -0.000103815)
(-1.91229e-08 -3.52602e-09 -0.000103803)
(-1.78521e-08 3.86271e-09 -0.000103752)
(8.08971e-09 7.1028e-10 -0.000103761)
(2.4112e-09 -6.21295e-09 -0.000110529)
(6.41511e-10 -8.90918e-11 -0.000110338)
(1.25006e-08 -5.3515e-09 -0.00011036)
(-2.53125e-08 1.17236e-08 -0.000110299)
(-4.01204e-10 1.52434e-09 -0.000110335)
(1.07936e-09 -2.44342e-09 -0.000110525)
(-1.33633e-08 5.90773e-09 -0.000110291)
(1.09129e-08 -3.28464e-09 -0.000110347)
(-1.70297e-08 6.8485e-09 -0.000110371)
(1.41853e-08 -5.33399e-09 -0.000110315)
(-4.9333e-09 1.01887e-08 -0.000110549)
(-6.38598e-10 -1.39909e-09 -0.00011035)
(1.10971e-08 -3.58632e-09 -0.0001103)
(-2.52522e-08 1.14901e-08 -0.000110368)
(7.6919e-10 -2.53321e-09 -0.000110347)
(-6.53876e-10 4.8387e-10 -0.000110539)
(1.66377e-08 2.95048e-09 -0.000103783)
(-1.17151e-08 -9.14067e-10 -0.000103782)
(1.3737e-08 -1.98949e-09 -0.000103711)
(-2.61748e-08 6.60111e-09 -0.00010372)
(-1.41079e-08 -9.40662e-10 -0.000103786)
(2.29801e-08 5.45552e-09 -0.000103781)
(-1.43848e-09 -1.87992e-09 -0.000110589)
(-3.43458e-09 -5.2132e-09 -0.000110416)
(-1.61441e-08 -6.17097e-09 -0.000110339)
(2.98183e-08 1.44014e-08 -0.000110394)
(-6.32122e-09 -1.19505e-08 -0.000110402)
(4.24244e-10 2.32343e-09 -0.000110597)
(-2.08689e-09 -2.76569e-09 -0.000104076)
(1.65932e-09 8.87548e-10 -0.000103906)
(5.94137e-10 -7.79018e-10 -0.000103792)
(-2.48917e-09 4.28892e-09 -0.000103965)
(4.69844e-09 1.08676e-08 -0.000103893)
(3.61574e-10 1.699e-09 -0.000104073)
(8.86026e-10 -4.19717e-12 -0.000104019)
(-3.77271e-09 -5.37585e-09 -0.000103865)
(3.3216e-09 -7.39861e-09 -0.000103987)
(-2.42405e-09 2.28101e-09 -0.000103815)
(-5.52152e-10 -2.27616e-09 -0.000103854)
(3.41429e-10 -4.05969e-11 -0.000104031)
(-7.83599e-10 -6.97564e-11 -0.000103807)
(4.17457e-10 -1.1848e-09 -0.000103984)
(-1.7079e-08 -7.52812e-09 -0.000110446)
(1.43755e-08 5.06704e-09 -0.000110397)
(4.94602e-09 9.84153e-09 -0.000110452)
(-6.34524e-10 -1.18331e-09 -0.000110654)
(1.11798e-08 4.65412e-09 -0.000110389)
(-2.0927e-08 -8.96513e-09 -0.00011045)
(-1.57368e-08 -3.0762e-09 -0.000103814)
(1.45332e-08 1.00092e-09 -0.000103821)
(1.69387e-08 -3.21258e-09 -0.000103751)
(-1.24937e-08 2.10931e-09 -0.000103744)
(1.01537e-08 8.66745e-10 -0.000103811)
(-1.99999e-08 -3.8154e-09 -0.000103817)
(-1.73465e-08 2.91019e-09 -0.000103748)
(2.02012e-08 -3.66218e-09 -0.000103742)
(2.08159e-09 -3.88061e-09 -0.000110527)
(-1.35045e-09 2.63522e-09 -0.000110339)
(1.88702e-08 -8.41762e-09 -0.000110345)
(-1.1784e-08 4.9218e-09 -0.000110283)
(-3.08365e-11 1.06126e-09 -0.000110332)
(1.52144e-09 -4.62273e-09 -0.000110527)
(-1.6712e-08 6.71859e-09 -0.000110277)
(1.93424e-08 -8.84156e-09 -0.000110333)
(-2.0581e-08 7.81037e-09 -0.000110351)
(8.17462e-09 -2.56078e-09 -0.000110297)
(-3.51265e-09 6.06776e-09 -0.00011053)
(-7.93235e-10 1.07982e-09 -0.000110343)
(9.85818e-09 -3.13345e-09 -0.000110301)
(-2.59325e-08 1.19708e-08 -0.000110358)
(1.08517e-09 -4.86558e-09 -0.000110341)
(-1.18579e-09 3.48381e-09 -0.000110536)
(1.92375e-08 3.84159e-09 -0.000103784)
(-8.4675e-09 4.47703e-10 -0.000103782)
(4.81989e-09 4.70548e-10 -0.000103722)
(-2.607e-08 7.02489e-09 -0.000103721)
(-1.15944e-08 -1.44008e-09 -0.000103791)
(2.43468e-08 5.41727e-09 -0.000103787)
(2.96942e-09 4.42646e-09 -0.000110586)
(2.90568e-09 3.42623e-09 -0.000110405)
(-1.82944e-09 7.49528e-10 -0.000110343)
(2.26536e-08 9.43532e-09 -0.000110393)
(-4.82764e-10 1.70022e-09 -0.000110406)
(5.29078e-10 7.21448e-10 -0.000110587)
(1.53303e-09 9.24078e-09 -0.000104058)
(6.34272e-09 1.27146e-08 -0.000103885)
(8.09568e-10 -1.96139e-09 -0.000103788)
(-1.68299e-09 1.27016e-09 -0.000103963)
(6.92023e-09 1.72374e-08 -0.00010387)
(2.78501e-09 7.63279e-09 -0.000104056)
(2.67214e-09 3.81632e-09 -0.000104022)
(2.10416e-09 5.69026e-09 -0.000103859)
(2.1111e-09 -2.28571e-09 -0.000103975)
(-3.20484e-09 5.74451e-09 -0.00010381)
(-3.98998e-09 -5.56876e-09 -0.000103862)
(3.52051e-09 5.27754e-09 -0.00010402)
(-3.25701e-11 1.50166e-09 -0.000103812)
(1.46268e-09 -1.50589e-09 -0.000103981)
(-2.20029e-08 -9.52651e-09 -0.000110443)
(1.55168e-08 6.49435e-09 -0.00011039)
(8.27521e-09 1.66357e-08 -0.000110419)
(1.33382e-09 1.60707e-09 -0.000110627)
(1.475e-08 5.50351e-09 -0.000110382)
(-1.90537e-08 -6.68687e-09 -0.000110439)
(-2.36189e-08 -5.63342e-09 -0.000103807)
(2.02967e-08 4.65247e-09 -0.000103817)
(1.74563e-08 -3.53769e-09 -0.000103746)
(-1.75614e-08 3.40212e-09 -0.000103761)
(1.57847e-08 2.59544e-09 -0.00010381)
(-1.21656e-08 5.53636e-10 -0.000103809)
(-1.59959e-08 2.26246e-09 -0.000103768)
(1.55162e-08 -2.69379e-09 -0.000103765)
(3.50815e-10 -1.78563e-09 -0.000110519)
(-4.83967e-09 8.53565e-09 -0.000110337)
(1.90698e-08 -9.06545e-09 -0.000110334)
(-1.687e-08 5.97831e-09 -0.000110291)
(-1.96589e-09 6.70131e-09 -0.000110332)
(-2.14623e-10 2.8691e-10 -0.000110524)
(-1.61621e-08 6.61593e-09 -0.000110291)
(1.51285e-08 -6.71886e-09 -0.000110345)
(-2.23586e-08 9.11024e-09 -0.000110352)
(1.20441e-08 -3.28565e-09 -0.000110304)
(-1.96425e-09 2.00569e-09 -0.000110529)
(1.94153e-09 -5.44849e-09 -0.000110351)
(8.24325e-09 -1.96488e-09 -0.000110306)
(-2.46237e-08 1.12937e-08 -0.00011036)
(3.96031e-09 -6.03635e-09 -0.000110364)
(-7.8015e-10 5.87639e-10 -0.000110545)
(1.78623e-08 2.3849e-09 -0.000103795)
(-1.87257e-08 -4.28009e-09 -0.000103809)
(1.32561e-08 -1.70745e-09 -0.000103729)
(-2.58989e-08 6.27036e-09 -0.000103727)
(-2.46419e-08 -6.32954e-09 -0.000103818)
(1.21882e-08 4.7576e-10 -0.000103812)
(3.47073e-09 8.21809e-09 -0.000110597)
(1.67119e-10 -2.2054e-09 -0.000110413)
(-2.29959e-08 -1.07964e-08 -0.000110361)
(1.77455e-08 7.37555e-09 -0.000110414)
(-2.72728e-09 -7.17839e-09 -0.000110387)
(4.39552e-09 7.14146e-09 -0.000110594)
(3.72928e-09 1.41917e-08 -0.000104039)
(4.42424e-09 9.84193e-09 -0.000103873)
(7.67719e-09 -1.66115e-08 -0.000103799)
(2.06701e-09 -8.47817e-09 -0.000103963)
(3.65583e-09 6.67566e-09 -0.000103862)
(-3.0582e-13 4.50856e-09 -0.000104043)
(9.24448e-11 3.48025e-10 -0.000104032)
(-1.07475e-09 -3.5265e-09 -0.000103864)
(1.97843e-09 2.66032e-10 -0.000103986)
(-3.52009e-09 7.70104e-09 -0.000103823)
(-2.33003e-09 -7.23467e-09 -0.000103842)
(1.90788e-09 -2.73344e-10 -0.000104026)
(-2.36021e-09 7.26218e-09 -0.000103818)
(-8.21286e-11 2.12077e-09 -0.000103991)
(-2.0532e-08 -8.59525e-09 -0.000110439)
(1.2502e-08 4.40848e-09 -0.000110385)
(1.46562e-09 2.59355e-09 -0.000110395)
(5.11353e-10 1.06945e-09 -0.000110598)
(1.13826e-08 4.90186e-09 -0.00011038)
(-1.95573e-08 -7.98027e-09 -0.000110439)
(-1.84585e-08 -3.63429e-09 -0.00010381)
(1.56824e-08 2.72058e-09 -0.000103808)
(1.80592e-08 -2.20314e-09 -0.000103765)
(-1.9015e-08 4.64026e-09 -0.000103767)
(1.22916e-08 1.48388e-09 -0.000103809)
(-1.3597e-08 -1.35264e-09 -0.000103807)
(-1.9698e-08 4.15161e-09 -0.000103777)
(1.38284e-08 -1.38616e-09 -0.000103771)
(7.46934e-10 -1.92924e-09 -0.000110527)