# Wall shear stress
# Time          	patch           	min             	max             
0.1             	wall	(-4.41906054e-04 -4.41867148e-04 -1.68585546e-03)	(4.41862742e-04 4.41877015e-04 -6.91260686e-05)
0.2             	wall	(-4.37377012e-04 -4.37527727e-04 -1.69849195e-03)	(4.37519755e-04 4.37537584e-04 -3.88538849e-05)
0.3             	wall	(-4.35537364e-04 -4.35809040e-04 -1.70589740e-03)	(4.35789969e-04 4.35823296e-04 -3.53670493e-05)
0.4             	wall	(-8.12663157e-02 -9.98345699e-02 -2.80270349e-02)	(1.17167064e-01 1.23937465e-01 3.60648040e-02)
0.5             	wall	(-4.16628041e-01 -1.29913242e+00 -1.37312323e+00)	(6.45769215e-01 5.79194743e-01 1.23419292e+00)
