# Wall shear stress
# Time          	patch           	min             	max             
20              	wall	(-4.41182380e-04 -4.41910685e-04 -1.75268444e-03)	(4.41811549e-04 4.41847175e-04 -6.61221779e-05)
26              	wall	(-4.38416259e-04 -4.39065579e-04 -1.75748858e-03)	(4.39017565e-04 4.39000134e-04 -7.74007262e-05)
