/*--------------------------------*- C++ -*----------------------------------*\
| =========                 |                                                 |
| \\      /  F ield         | OpenFOAM: The Open Source CFD Toolbox           |
|  \\    /   O peration     | Version:  2206                                  |
|   \\  /    A nd           | Website:  www.openfoam.com                      |
|    \\/     M anipulation  |                                                 |
\*---------------------------------------------------------------------------*/
FoamFile
{
    version     2.0;
    format      ascii;
    arch        "LSB;label=32;scalar=64";
    class       volScalarField;
    location    "0.3";
    object      omega;
}
// * * * * * * * * * * * * * * * * * * * * * * * * * * * * * * * * * * * * * //

dimensions      [0 0 -1 0 0 0 0];

internalField   nonuniform List<scalar> 
66701
(
387.165
413.794
244.395
131.424
291.715
68.9054
81.4075
262.181
413.754
244.396
131.467
291.781
68.8906
262.194
81.4348
387.172
736.269
1610.72
4403.89
16448.1
116912
733.659
1608.94
4400.92
16438.1
116840
747.067
1613.97
4406.88
16445.5
116802
747.061
1613.94
4406.85
16445.7
116814
736.276
1610.66
4403.58
16445.8
116892
733.634
1608.94
4400.95
16438.2
116852
739.53
1611.34
4402.49
16433.9
116752
740.575
1610.71
4400.51
16428.8
116727
739.534
1611.34
4402.47
16433.2
116747
740.576
1610.7
4400.46
16428.6
116725
387.136
387.624
20.8761
118.157
119.251
244.311
20.3175
60.3341
68.9739
244.706
27.6281
20.3535
61.1226
20.1606
68.9601
244.82
27.633
20.3573
20.1616
61.1806
387.603
20.8821
119.181
387.429
177.909
394.678
395.49
177.63
394.609
395.452
76.3114
252.479
37.7807
117.729
76.0582
252.512
37.768
76.7881
254.779
38.2762
119.429
76.4972
254.916
38.3919
291.827
81.5116
262.405
69.2049
291.613
81.7574
262.268
413.676
131.718
244.539
413.718
131.636
291.926
262.403
81.5554
69.1914
291.729
262.325
81.7938
413.647
131.832
244.69
413.747
131.759
387.433
178.244
395.433
394.529
76.9442
38.276
119.363
38.3875
254.945
76.4075
116.923
252.581
37.7813
385.517
20.1049
20.0916
20.0906
20.0864
20.1059
20.0919
20.0933
20.085
20.0923
20.0851
20.0925
20.085
33.9228
20.888
23.8314
23.9396
33.7837
23.8686
23.9848
22.6931
37.6729
26.7679
59.7252
26.6279
22.8091
37.3748
21.6094
29.9628
21.1858
27.725
21.5786
30.0686
21.2106
22.9173
38.282
27.0034
61.3309
27.0781
22.8741
38.4184
21.6131
21.1872
29.9776
27.7284
21.5812
21.2119
30.0823
22.9232
38.3099
27.0135
61.3856
22.8788
38.4442
27.0869
34.0632
20.894
23.9618
23.9982
23.8766
736.451
1610.78
4403.87
16447.8
116912
736.316
1610.8
4403.9
16448.1
116912
747.279
1613.98
4407
16446.3
116814
747.06
1613.96
4406.88
16445.5
116802
747.088
1613.94
4406.86
16445.7
116814
736.304
1610.75
4403.58
16445.8
116892
736.205
1610.68
4403.77
16448
116912
739.38
1611.31
4402.4
16433.8
116752
740.589
1610.8
4400.53
16428.8
116727
739.55
1611.45
4402.51
16433.9
116752
740.466
1610.68
4400.42
16428.7
116727
746.892
1613.78
4406.7
16445.3
116802
739.387
1611.3
4402.38
16433.2
116747
740.593
1610.78
4400.48
16428.6
116725
739.56
1611.44
4402.49
16433.2
116747
740.468
1610.67
4400.37
16428.5
116725
746.906
1613.77
4406.68
16445.5
116814
736.203
1610.63
4403.46
16445.7
116892
746.205
1613.64
4405.84
16441.1
116759
736.392
1610.63
4403.33
16445.2
116881
734.861
1611.68
4405.54
16449.7
116901
746.311
1613.8
4406.19
16441.5
116776
746.248
1613.72
4406.08
16441.4
116776
734.823
1611.7
4405.58
16450.9
116921
746.236
1613.84
4406.24
16443.5
116795
746.075
1613.72
4406.11
16443.4
116795
734.757
1611.58
4405.42
16449.6
116901
734.71
1611.6
4405.46
16450.9
116921
733.5
1608.88
4400.78
16438
116840
733.672
1609.03
4400.91
16438.1
116840
733.485
1608.88
4400.82
16438.1
116852
733.686
1609.04
4400.95
16438.2
116852
746.024
1613.65
4405.95
16442.1
116778
734.648
1611.6
4405.72
16451.9
116918
734.702
1611.59
4405.62
16451
116904
20.32
20.8882
20.1142
20.3398
20.3323
20.8736
20.1016
20.3382
20.3086
20.8652
20.1015
20.3389
20.3075
20.8625
20.1015
20.3387
20.3075
20.8623
20.1015
20.339
20.3074
20.8625
20.1015
20.3385
20.3075
20.8625
20.1015
20.339
20.3074
20.8624
20.1016
20.3385
20.3075
20.8625
20.1015
20.3389
20.3075
20.8624
20.1014
20.3386
20.3074
20.8625
20.1016
20.3389
20.3074
20.8624
20.1015
20.3385
20.3074
20.8625
20.1015
20.3389
20.3075
20.8624
20.1016
20.3385
20.3073
20.8624
20.1015
20.3389
20.3074
20.8624
20.103
20.306
20.2982
20.8163
20.8488
20.9022
20.3319
20.3433
20.317
20.8842
20.8891
20.8845
20.3352
20.3155
20.3132
20.3087
20.8593
20.872
20.3812
20.3827
20.3438
20.3467
20.3426
20.3383
20.3409
20.8889
20.887
20.3116
20.3107
20.3057
20.8766
20.8704
20.8751
20.313
20.3095
20.3112
20.31
20.8605
20.879
20.3404
20.3433
20.3371
20.3402
20.3418
20.3389
20.3412
20.8718
20.8757
20.3065
20.3077
20.3055
20.8728
20.8633
20.8752
20.3119
20.3115
20.311
20.3097
20.8676
20.8765
20.3378
20.3408
20.3371
20.3399
20.3419
20.339
20.3411
20.8638
20.8752
20.3065
20.3076
20.3057
20.8726
20.8633
20.8752
20.3119
20.3103
20.3111
20.3102
20.8642
20.8797
20.3384
20.3406
20.3371
20.3399
20.3421
20.339
20.3412
20.8632
20.8751
20.3065
20.3075
20.3056
20.8728
20.8633
20.8751
20.3119
20.3112
20.3111
20.3097
20.868
20.8762
20.3382
20.341
20.337
20.3399
20.3422
20.3389
20.3412
20.8632
20.875
20.3064
20.3076
20.3056
20.8728
20.8632
20.8752
20.3118
20.3103
20.3111
20.3101
20.864
20.8794
20.3382
20.3408
20.337
20.3398
20.3421
20.3389
20.3412
20.8631
20.8751
20.3064
20.3075
20.3056
20.8728
20.8633
20.8751
20.3118
20.3113
20.311
20.3096
20.8679
20.8762
20.3382
20.3408
20.3371
20.3399
20.3422
20.3388
20.3411
20.8631
20.875
20.3064
20.3076
20.3055
20.8728
20.8632
20.8751
20.3118
20.3102
20.3111
20.3101
20.8639
20.8794
20.3383
20.341
20.3371
20.3399
20.3421
20.3389
20.3411
20.8631
20.8751
20.3064
20.3076
20.3056
20.8728
20.8632
20.8752
20.3119
20.3114
20.3111
20.3097
20.8678
20.8765
20.3381
20.3409
20.3371
20.3399
20.3421
20.3388
20.3411
20.8631
20.875
20.3064
20.3075
20.3057
20.8728
20.8633
20.8752
20.3119
20.3103
20.3111
20.3101
20.8643
20.8793
20.3383
20.341
20.337
20.3399
20.3421
20.3389
20.3412
20.8631
20.8751
20.3065
20.3075
20.3056
20.8728
20.8633
20.875
20.3119
20.311
20.3111
20.3096
20.8677
20.8761
20.3382
20.3408
20.337
20.3399
20.3422
20.3388
20.3411
20.8632
20.875
20.3064
20.3075
20.3056
20.8728
20.8631
20.8752
20.3118
20.3102
20.3111
20.3101
20.8639
20.8794
20.3382
20.3409
20.337
20.3399
20.3421
20.3389
20.3411
20.8631
20.8751
20.3064
20.3076
20.3056
20.8728
20.8633
20.875
20.3118
20.3112
20.311
20.3097
20.8679
20.8762
20.3382
20.3409
20.337
20.3399
20.342
20.3388
20.3411
20.8631
20.875
20.3064
20.3075
20.3055
20.8727
20.8632
20.8752
20.3117
20.3102
20.3111
20.3101
20.864
20.8793
20.3382
20.3409
20.3371
20.3399
20.3421
20.3389
20.3411
20.863
20.8751
20.3064
20.3075
20.3055
20.8728
20.8635
20.8782
20.3119
20.3111
20.3638
20.3622
20.8679
20.8797
20.3382
20.3409
20.3256
20.3268
20.342
20.3323
20.3272
20.8631
20.8651
20.3063
20.3009
20.298
20.8628
20.3658
20.8709
20.3195
20.322
20.3263
20.816
20.2973
385.965
384.24
26.7093
20.169
58.0348
20.316
57.932
26.7472
20.1667
118.103
116.387
20.8876
116.297
118.53
65.8348
241.689
241.64
65.7742
385.533
385.375
69.3211
244.623
244.664
68.9406
20.1106
20.1148
20.1104
20.1018
20.1019
20.1025
20.102
27.6163
60.9151
20.1561
20.3392
61.0404
20.1561
27.4584
387.635
387.476
26.7702
20.1442
59.0323
20.3218
26.7132
20.1422
59.0727
118.914
116.808
20.8835
118.912
116.746
65.8428
241.796
65.8929
241.598
385.533
385.362
69.042
244.843
68.8573
244.642
20.1037
20.1041
20.1037
20.1016
20.1021
20.1021
20.1021
27.6024
61.0275
20.1533
20.339
27.5272
61.0902
20.1551
387.632
387.436
26.7636
20.1386
59.1649
20.3088
26.7609
20.1403
59.1314
119.068
116.877
20.8745
118.986
116.75
65.8603
241.797
65.8741
241.59
385.564
385.421
69.025
244.852
68.7922
244.652
20.1039
20.1039
20.1039
20.1015
20.102
20.102
20.1019
27.6125
61.0309
20.1535
20.3401
27.5164
61.1199
20.1553
387.728
387.489
26.7551
20.1385
59.1434
20.3082
26.7508
20.1402
59.1202
119.036
116.872
20.8739
118.962
116.767
65.855
241.804
65.8781
241.62
385.569
385.39
69.0245
244.837
68.8051
244.648
20.1037
20.1037
20.1036
20.1016
20.102
20.102
20.1019
27.6123
61.0513
20.1534
20.3392
27.5175
61.1149
20.1552
387.61
387.416
26.7559
20.1385
59.1394
20.3082
26.7521
20.1404
59.1143
119.039
116.887
20.8741
118.966
116.749
65.8611
241.796
65.8788
241.58
385.579
385.43
69.0247
244.849
68.8065
244.65
20.1038
20.1037
20.1036
20.1016
20.1019
20.102
20.1019
27.6114
61.047
20.1534
20.34
27.5171
61.1185
20.1552
387.6
387.411
26.7574
20.1385
59.1286
20.3081
26.7529
20.1402
59.1111
119.045
116.873
20.874
118.974
116.739
65.8275
241.822
65.8735
241.634
385.584
385.394
69.0243
244.833
68.8063
244.646
20.1037
20.1038
20.1037
20.1016
20.102
20.102
20.1019
27.6117
61.0464
20.1534
20.339
27.517
61.1132
20.1552
387.608
387.41
26.7551
20.1386
59.135
20.3082
26.7522
20.1404
59.1123
119.041
116.872
20.8741
118.968
116.744
65.8286
241.8
65.8601
241.591
385.573
385.428
69.0246
244.847
68.8064
244.644
20.1038
20.1037
20.1037
20.1016
20.1019
20.102
20.1019
27.6112
61.0457
20.1534
20.34
27.5168
61.1168
20.1552
387.605
387.41
26.7574
20.1385
59.1287
20.3081
26.7524
20.1403
59.1123
119.033
116.874
20.874
118.967
116.741
65.795
241.777
65.8591
241.585
385.566
385.383
69.0242
244.834
68.8064
244.647
20.1037
20.1038
20.1037
20.1016
20.102
20.102
20.1019
27.6117
61.0486
20.1534
20.339
27.517
61.1142
20.1553
387.605
387.41
26.7563
20.1386
59.127
20.3083
26.7527
20.1404
59.1093
119.04
116.876
20.8741
118.967
116.745
65.7994
241.807
65.8563
241.608
385.567
385.413
69.0244
244.834
68.806
244.647
20.1038
20.1038
20.1036
20.1016
20.102
20.102
20.1019
27.6111
61.0449
20.1534
20.3399
27.5167
61.1155
20.1552
387.605
387.408
26.7591
20.1386
59.1285
20.3082
26.7544
20.1404
59.1057
119.034
116.874
20.874
118.962
116.743
65.8594
241.803
65.8651
241.62
385.573
385.385
69.024
244.833
68.8063
244.647
20.1037
20.1038
20.1036
20.1017
20.102
20.102
20.1019
27.6118
61.0464
20.1534
20.3391
27.517
61.1136
20.1551
387.595
387.41
26.7588
20.1386
59.1374
20.3082
26.755
20.1404
59.1145
119.039
116.876
20.8741
118.972
116.746
65.8633
241.802
65.8843
241.597
385.557
385.406
69.0243
244.836
68.806
244.647
20.1038
20.1038
20.1037
20.1016
20.1019
20.102
20.1019
27.6111
61.0449
20.1534
20.3399
27.5168
61.1155
20.1552
387.609
387.411
26.7546
20.1385
59.1303
20.3082
26.7503
20.1403
59.113
119.049
116.874
20.874
118.971
116.741
65.8572
241.788
65.8832
241.597
385.563
385.383
69.0239
244.833
68.8063
244.647
20.1037
20.1037
20.1037
20.1015
20.102
20.102
20.1019
27.6118
61.0463
20.1534
20.339
27.517
61.1136
20.1551
387.607
387.411
26.7545
20.1385
59.1268
20.3082
26.75
20.1403
59.1115
119.044
116.877
20.8742
118.971
116.769
65.7976
241.793
65.8559
241.587
385.557
385.407
69.0244
244.844
68.806
244.665
20.1037
20.1038
20.1037
20.1016
20.1019
20.102
20.1019
27.6115
61.0449
20.1534
20.3399
27.5177
61.1163
20.1551
387.607
387.412
26.7538
20.1386
59.1285
20.3082
26.7496
20.1403
59.1067
119.036
116.887
20.8739
118.966
116.749
65.8022
241.8
65.8554
241.639
385.551
385.406
69.024
244.809
68.8059
244.644
20.1037
20.1037
20.1037
20.1016
20.102
20.102
20.1019
27.6119
61.0485
20.1534
20.339
27.517
61.1148
20.1552
387.605
387.411
26.7537
20.1385
59.1367
20.308
26.7486
20.1402
59.1121
119.041
116.875
20.8741
118.969
116.745
66.4375
241.975
65.871
241.563
385.552
385.254
69.0247
244.829
68.8004
244.652
20.1038
20.1038
20.1037
20.1037
20.1043
20.101
20.1009
27.6118
61.0436
20.1534
20.3396
27.518
61.1171
20.1553
387.582
387.435
26.7525
20.1386
59.135
20.3078
26.7483
20.1404
59.116
119.032
116.871
20.8737
118.966
116.745
387.536
243.244
67.6823
20.1067
20.1015
20.1016
59.8068
20.1406
27.1138
386.24
20.1373
58.3302
26.7489
118.046
116.195
117.105
115.493
20.7869
114.822
116.035
384.187
384.008
387.482
385.458
20.8199
118.916
116.432
114.565
116.723
385.346
384.127
26.711
20.1692
58.7586
20.3299
58.7247
26.7471
20.1667
65.6414
239.801
240.066
65.7298
65.6577
241.239
241.289
65.7358
26.6504
20.3237
20.1524
59.0405
57.7174
26.7506
20.1586
26.6508
20.3263
20.1502
58.9451
58.5695
26.7377
20.1597
65.4801
241.516
239.851
65.7935
65.5004
241.586
241.164
65.809
387.106
387.173
385.222
385.147
20.8737
118.933
116.793
115.944
118.334
387.375
387.252
385.431
385.157
385.563
385.421
387.651
387.472
116.531
119.004
20.8972
116.621
119.049
385.445
385.425
387.52
387.484
20.8822
116.786
119.236
116.428
118.801
65.7898
241.861
241.681
65.7607
26.7457
59.0405
20.1493
20.3251
59.1018
20.1447
26.6762
26.7401
58.9679
20.148
20.312
59.0277
20.1439
26.6713
65.674
241.767
241.544
65.948
65.6337
241.739
241.687
65.8836
26.6992
20.3167
59.1728
20.1399
58.9568
20.1403
26.7738
26.6937
20.309
59.1501
20.1396
58.8753
20.1398
26.7686
116.711
118.91
20.8722
116.676
118.888
387.54
387.345
385.44
385.397
20.8602
116.856
119.094
116.486
118.638
387.421
387.375
27.7899
61.206
20.1779
20.3662
61.2491
20.1685
27.7024
69.2956
244.634
244.646
68.9202
27.7841
20.1781
61.2334
20.3685
20.1691
61.2893
27.7008
68.9761
244.942
244.501
69.1394
27.6502
20.3525
61.2038
20.156
60.9731
20.1595
27.6763
68.974
244.852
244.547
69.0966
27.6474
20.3553
20.1567
61.2476
20.16
61.0084
27.6789
69.0284
244.808
244.616
68.6126
27.6134
20.1568
60.932
20.342
20.1568
61.0538
27.4554
69.012
244.776
244.594
68.6045
27.4947
20.3386
61.1802
20.1534
60.7709
20.1551
27.6418
68.7242
244.717
244.479
69.04
27.4931
20.3412
20.1549
61.1253
20.1551
60.787
27.6315
68.7139
244.718
244.438
69.0423
118.664
116.234
20.8972
119.208
116.643
385.39
385.427
387.556
387.483
20.8836
119.328
116.769
118.967
116.443
385.436
385.44
26.7668
20.1446
58.8078
20.31
26.6912
20.1421
59.1382
65.9666
241.377
65.6549
241.626
65.9626
241.543
65.6798
241.814
26.7136
20.3141
20.1387
59.2599
20.1407
58.9119
26.7949
26.7147
20.3065
20.139
59.1175
20.1395
58.9556
26.7852
65.8075
241.879
241.571
65.9857
65.8308
241.771
241.664
65.9839
387.393
387.398
385.438
385.499
20.869
119.195
116.933
118.658
116.541
387.401
387.41
385.45
385.507
385.43
385.425
387.536
387.505
116.595
118.978
20.8762
116.87
119.35
385.456
385.428
387.538
387.51
20.8637
116.877
119.343
116.675
119.077
65.951
241.731
65.7273
241.73
26.7614
58.9952
20.1414
20.3127
26.719
59.1939
20.1414
26.7752
58.9804
20.1412
20.3101
26.7195
59.2172
20.1411
65.6835
241.763
241.592
65.9063
65.7957
241.744
241.696
65.9781
26.7076
20.3115
59.1876
20.1399
59.0276
20.1402
26.7693
26.7255
20.3099
59.1797
20.1399
59.0356
20.1401
26.7863
116.684
118.818
20.8736
116.938
119.188
387.44
387.47
385.467
385.353
20.8625
116.888
119.178
116.653
118.953
387.512
387.475
27.6111
60.8975
20.1565
20.3392
27.5286
61.1413
20.1561
69.0068
244.667
68.7534
244.906
27.6084
20.1573
60.9412
20.3422
27.5317
20.1568
61.2085
68.7064
244.932
244.483
69.0542
27.4823
20.3372
61.1633
20.1537
60.8654
20.1541
27.6148
68.6895
244.955
244.73
69.0198
27.4807
20.3402
20.1546
61.2142
20.1548
60.9252
27.6172
68.9936
244.685
68.7127
244.777
27.6002
20.1564
60.8357
20.342
27.5016
20.1564
61.1506
68.9835
244.556
68.7197
244.81
27.4718
20.3387
61.1898
20.1534
60.8104
20.1546
27.6248
68.6794
244.843
244.622
69.016
27.4703
20.3413
20.1546
61.1625
20.1551
60.8662
27.616
68.6703
244.784
244.633
69.02
119.054
116.568
20.8769
119.34
116.832
385.439
385.455
387.639
387.475
20.8644
119.343
116.877
119.071
116.637
385.464
385.457
26.7721
20.1405
58.9565
20.3065
26.7275
20.1404
59.1496
65.9849
241.797
65.8278
241.811
65.9822
241.685
65.8253
241.947
26.7109
20.3083
20.1386
59.2453
20.1399
58.9605
26.7884
26.7176
20.3057
20.1389
59.1292
20.1391
58.9664
26.7815
65.8392
241.889
241.713
65.9323
65.827
241.811
241.788
65.982
387.431
387.428
385.461
385.522
20.8615
119.18
116.927
118.72
116.548
387.401
387.449
385.46
385.527
385.452
385.439
387.542
387.577
116.677
119.073
20.8747
116.9
119.397
385.46
385.451
387.531
387.587
20.8628
116.886
119.358
116.703
119.118
65.9594
241.736
65.8195
241.736
26.7664
59.012
20.1415
20.3118
26.7169
59.206
20.1414
26.7806
59.002
20.1415
20.3114
26.7344
59.2304
20.1414
65.7007
241.77
241.593
65.915
65.8303
241.75
241.702
65.9333
26.7135
20.3111
59.1922
20.1397
59.0395
20.1401
26.7701
26.7276
20.3102
59.1892
20.1397
59.0491
20.1401
26.7812
116.694
118.904
20.8794
116.955
119.222
387.513
387.523
385.471
385.436
20.8666
116.969
119.197
116.76
118.946
387.452
387.526
27.6118
60.8856
20.1552
20.3378
27.4917
61.1753
20.1552
69.0239
244.766
68.7072
244.934
27.6191
20.1561
60.9293
20.3409
27.4976
20.1561
61.2354
68.7023
244.91
244.497
69.0723
27.4867
20.337
61.17
20.1537
60.8935
20.154
27.622
68.7105
244.884
244.747
69.0297
27.494
20.3399
20.1545
61.2133
20.1547
60.9474
27.624
69.0219
244.675
68.7001
244.901
27.6117
20.156
60.8687
20.342
27.4921
20.156
61.1675
69.0207
244.631
68.7089
244.808
27.4831
20.3397
61.2206
20.1535
60.8415
20.1548
27.6276
68.7062
244.881
244.726
69.0186
27.4838
20.3411
20.1544
61.1701
20.1546
60.8807
27.6197
68.7076
244.834
244.628
69.0248
119.067
116.668
20.875
119.348
116.858
385.471
385.47
387.502
387.506
20.8629
119.314
116.863
119.073
116.657
385.469
385.466
26.7694
20.1405
58.9481
20.3066
26.724
20.1404
59.1865
65.9428
241.802
65.7719
241.893
65.9716
241.719
65.828
241.907
26.7034
20.308
20.1386
59.2365
20.1398
58.9477
26.7887
26.7152
20.3059
20.1389
59.1315
20.1392
59.0046
26.7834
65.8128
241.865
241.657
65.9223
65.8182
241.799
241.791
65.9851
387.43
387.498
385.462
385.518
20.8611
119.174
116.936
118.697
116.565
387.483
387.482
385.469
385.533
385.464
385.444
387.533
387.57
116.687
119.086
20.8748
116.909
119.402
385.466
385.452
387.527
387.58
20.8629
116.877
119.358
116.705
119.122
65.9333
241.739
65.7754
241.747
26.765
59.0173
20.1413
20.312
26.7169
59.2065
20.1413
26.7748
59.0098
20.1413
20.3107
26.7291
59.2354
20.1412
65.6957
241.774
241.51
65.9131
65.8055
241.758
241.699
65.9133
26.7118
20.3112
59.1982
20.1398
59.0348
20.1402
26.7698
26.7219
20.3102
59.1903
20.1397
59.051
20.14
26.7763
116.782
118.907
20.8754
116.976
119.236
387.472
387.55
385.484
385.395
20.8639
116.897
119.185
116.685
118.994
387.461
387.568
27.6105
60.8876
20.1552
20.3383
27.4971
61.1737
20.1552
69.0251
244.745
68.715
244.8
27.6175
20.156
60.9182
20.3407
27.5015
20.156
61.2081
68.7016
244.929
244.491
69.0743
27.4852
20.3372
61.1719
20.1538
60.8927
20.154
27.6224
68.7113
244.869
244.641
69.0311
27.4923
20.3399
20.1545
61.2071
20.1547
60.9239
27.6245
69.024
244.708
68.7025
244.916
27.6111
20.156
60.8747
20.3422
27.4934
20.156
61.1753
69.0215
244.648
68.7126
244.888
27.483
20.3389
61.2116
20.1534
60.8346
20.1548
27.6276
68.7081
244.858
244.736
69.018
27.4833
20.3412
20.1545
61.1797
20.1547
60.8897
27.6193
68.7079
244.9
244.709
69.0248
119.035
116.678
20.8748
119.319
116.798
385.477
385.465
387.494
387.442
20.8628
119.313
116.829
119.051
116.597
385.456
385.466
26.7705
20.1404
58.9882
20.3066
26.7261
20.1404
59.1307
65.946
241.794
65.7632
241.87
65.9718
241.716
65.8287
241.835
26.7019
20.3081
20.1385
59.2294
20.1398
58.9432
26.7874
26.7155
20.3058
20.1388
59.1047
20.1391
58.9505
26.78
65.7858
241.792
241.653
65.9298
65.8168
241.758
241.673
65.9686
387.495
387.465
385.47
385.508
20.8613
119.181
116.93
118.703
116.545
387.424
387.484
385.465
385.507
385.467
385.441
387.526
387.565
116.679
119.086
20.8747
116.905
119.401
385.475
385.451
387.521
387.573
20.8628
116.891
119.357
116.706
119.121
65.9343
241.747
65.7535
241.749
26.7658
59.0209
20.1414
20.312
26.7168
59.2005
20.1413
26.7728
59.0095
20.1412
20.3111
26.7246
59.2295
20.1412
65.7012
241.792
241.466
65.9149
65.7779
241.758
241.698
65.9455
26.7127
20.3111
59.2
20.1398
59.0271
20.1402
26.7699
26.7213
20.3101
59.1866
20.1397
59.0499
20.1399
26.7797
116.701
118.912
20.8792
116.956
119.22
387.472
387.459
385.486
385.44
20.8664
116.965
119.194
116.764
118.943
387.452
387.47
27.6103
60.89
20.1553
20.3382
27.4976
61.1754
20.1552
69.0243
244.743
68.7158
244.799
27.6168
20.1561
60.9164
20.341
27.502
20.156
61.2089
68.7018
244.906
244.492
69.0742
27.4849
20.3371
61.17
20.1537
60.8937
20.154
27.6221
68.7105
244.86
244.639
69.0309
27.4915
20.3399
20.1545
61.206
20.1547
60.924
27.6242
69.023
244.722
68.7018
244.81
27.611
20.156
60.8842
20.3422
27.4931
20.156
61.1806
69.0219
244.715
68.7126
244.913
27.4822
20.3397
61.2135
20.1534
60.8383
20.1548
27.6274
68.7073
244.861
244.65
69.019
27.4831
20.3412
20.1545
61.1783
20.1547
60.8939
27.619
68.7084
244.866
244.728
69.025
119.035
116.654
20.8746
119.309
116.773
385.466
385.464
387.515
387.451
20.8626
119.317
116.828
119.042
116.575
385.461
385.468
26.7689
20.1404
58.9883
20.3065
26.7227
20.1403
59.1179
65.9548
241.683
65.7725
241.914
65.9605
241.753
65.813
241.744
26.7054
20.3079
20.1386
59.229
20.1397
58.9411
26.7896
26.7156
20.3058
20.1388
59.1062
20.1391
58.945
26.7802
65.8212
241.834
241.701
65.9285
65.8394
241.764
241.744
65.9429
387.446
387.514
385.473
385.486
20.8612
119.179
116.92
118.711
116.535
387.423
387.535
385.464
385.502
385.477
385.45
387.521
387.564
116.692
119.085
20.8747
116.917
119.401
385.477
385.45
387.519
387.572
20.8628
116.896
119.357
116.717
119.121
65.9504
241.746
65.786
241.754
26.7596
59.02
20.1413
20.3119
26.7161
59.2138
20.1413
26.7764
59.0093
20.1412
20.3107
26.7282
59.2319
20.1412
65.6678
241.782
241.526
65.8903
65.7934
241.795
241.686
65.9572
26.7058
20.3112
59.2081
20.1397
59.0407
20.1401
26.768
26.7247
20.3101
59.1818
20.1397
59.0507
20.14
26.7822
116.783
118.904
20.8751
116.96
119.233
387.473
387.556
385.486
385.398
20.8637
116.873
119.189
116.67
118.989
387.463
387.571
27.6099
60.8876
20.1553
20.3382
27.4972
61.1733
20.1552
69.0241
244.738
68.7157
244.798
27.6164
20.1561
60.9155
20.3409
27.5018
20.156
61.2094
68.7015
244.928
244.488
69.0742
27.4845
20.337
61.1713
20.1537
60.8923
20.154
27.6219
68.7104
244.859
244.638
69.0309
27.4912
20.3399
20.1545
61.2058
20.1547
60.9246
27.6241
69.0247
244.696
68.703
244.917
27.6107
20.156
60.8809
20.3422
27.4928
20.156
61.1751
69.0221
244.672
68.7128
244.888
27.4825
20.3387
61.2111
20.1534
60.8332
20.1547
27.6272
68.7088
244.855
244.739
69.0188
27.4829
20.3412
20.1545
61.179
20.1547
60.8895
27.6189
68.7086
244.903
244.712
69.0254
119.04
116.654
20.8747
119.318
116.774
385.457
385.461
387.509
387.447
20.8627
119.317
116.83
119.049
116.576
385.454
385.466
26.7662
20.1404
58.9887
20.3065
26.7221
20.1404
59.1182
65.9421
241.778
65.7692
241.875
65.955
241.752
65.7903
241.742
26.7008
20.308
20.1385
59.2296
20.1398
58.9414
26.7865
26.7116
20.3058
20.1388
59.1054
20.1392
58.9453
26.7818
65.7816
241.8
241.66
65.9246
65.8009
241.764
241.747
65.9717
387.433
387.454
385.471
385.485
20.8613
119.17
116.927
118.704
116.54
387.428
387.469
385.463
385.501
385.483
385.453
387.529
387.502
116.695
119.083
20.8746
116.915
119.379
385.479
385.457
387.528
387.509
20.8627
116.892
119.354
116.715
119.101
65.9521
241.695
65.7994
241.913
26.7606
59.0273
20.1414
20.3118
26.7149
59.2039
20.1413
26.7772
59.0078
20.1413
20.3112
26.7301
59.244
20.1412
65.6693
241.742
241.468
65.8982
65.7953
241.808
241.794
65.957
26.7071
20.3111
59.1978
20.1398
59.0286
20.1402
26.7684
26.7252
20.3101
59.1904
20.1397
59.0647
20.14
26.7822
116.681
118.916
20.8792
116.939
119.231
387.473
387.46
385.47
385.441
20.8664
116.958
119.214
116.748
118.957
387.456
387.474
27.6101
60.8897
20.1553
20.3382
27.4972
61.1739
20.1552
69.0243
244.737
68.7158
244.798
27.6165
20.156
60.9151
20.3408
27.5017
20.156
61.2088
68.7019
244.907
244.487
69.0743
27.4847
20.3371
61.1691
20.1537
60.8922
20.154
27.622
68.7106
244.859
244.638
69.031
27.4912
20.3399
20.1545
61.2058
20.1547
60.9241
27.6242
69.0236
244.674
68.7025
244.792
27.6107
20.156
60.8831
20.3422
27.4928
20.156
61.1804
69.0224
244.717
68.7133
244.921
27.482
20.3396
61.2152
20.1535
60.8377
20.1548
27.6273
68.7078
244.858
244.636
69.0194
27.4828
20.3412
20.1545
61.1812
20.1547
60.894
27.6189
68.7089
244.904
244.736
69.0255
119.04
116.652
20.8746
119.31
116.78
385.463
385.468
387.509
387.447
20.8626
119.315
116.829
119.042
116.581
385.453
385.478
26.771
20.1404
58.9889
20.3065
26.7251
20.1404
59.1185
65.9567
241.696
65.7672
241.964
65.9781
241.757
65.8167
241.775
26.7054
20.3079
20.1386
59.2335
20.1398
58.943
26.7899
26.7163
20.3058
20.1388
59.1188
20.1391
58.9445
26.7834
65.8207
241.79
241.836
65.9291
65.8239
241.907
241.681
65.9823
387.449
387.517
385.47
385.484
20.8612
119.176
116.925
118.703
116.537
387.427
387.536
385.48
385.488
385.481
385.452
387.527
387.568
116.692
119.084
20.8748
116.915
119.404
385.48
385.461
387.526
387.577
20.8628
116.889
119.357
116.712
119.124
65.9512
241.776
65.7988
241.752
26.7544
59.0199
20.1414
20.3118
26.7147
59.2005
20.1413
26.7768
59.0105
20.1413
20.3106
26.7301
59.2374
20.1412
65.6342
241.773
241.464
65.8855
65.7952
241.756
241.698
65.9682
26.7009
20.3111
59.1963
20.1398
59.0263
20.1401
26.7684
26.725
20.3101
59.1868
20.1398
59.0549
20.14
26.7856
116.775
118.921
20.875
116.969
119.24
387.467
387.557
385.472
385.379
20.8636
116.889
119.186
116.681
118.994
387.462
387.571
27.61
60.8872
20.1552
20.3383
27.4972
61.1738
20.1552
69.0241
244.737
68.7159
244.798
27.6165
20.1561
60.9154
20.341
27.5019
20.156
61.2095
68.7014
244.908
244.488
69.0738
27.4846
20.3371
61.1701
20.1537
60.8928
20.1539
27.6219
68.7104
244.859
244.637
69.0308
27.4913
20.3399
20.1545
61.2057
20.1547
60.9247
27.6241
69.0248
244.694
68.7033
244.918
27.6107
20.156
60.8851
20.3422
27.4928
20.156
61.1814
69.0224
244.718
68.7133
244.915
27.4825
20.3387
61.211
20.1534
60.8343
20.1548
27.6272
68.7089
244.854
244.739
69.0187
27.4829
20.3412
20.1545
61.1794
20.1547
60.8944
27.6189
68.7089
244.904
244.729
69.0254
119.038
116.654
20.8747
119.318
116.775
385.461
385.457
387.509
387.448
20.8627
119.318
116.827
119.05
116.576
385.45
385.46
26.7704
20.1404
58.997
20.3065
26.726
20.1403
59.1211
65.947
241.651
65.7716
241.874
65.9725
241.812
65.8267
241.763
26.702
20.3081
20.1387
59.2263
20.1398
58.94
26.7881
26.7152
20.3058
20.1388
59.1268
20.1392
58.947
26.7807
65.7861
241.77
241.7
65.9311
65.8166
241.764
241.738
65.966
387.456
387.444
385.493
385.482
20.8613
119.171
116.927
118.704
116.541
387.431
387.467
385.465
385.501
385.483
385.461
387.526
387.568
116.689
119.087
20.8746
116.915
119.395
385.484
385.475
387.526
387.577
20.8627
116.893
119.355
116.714
119.115
65.9585
241.747
65.8083
241.774
26.7565
59.0188
20.1414
20.3119
26.7153
59.21
20.1413
26.7794
59.007
20.1414
20.3113
26.7341
59.2308
20.1413
65.6377
241.771
241.53
65.8798
65.8022
241.916
241.683
65.9676
26.7029
20.3111
59.197
20.1398
59.0407
20.1402
26.768
26.7267
20.3101
59.2067
20.1397
59.0507
20.1401
26.7853
116.696
118.912
20.879
116.947
119.221
387.472
387.459
385.48
385.439
20.8662
116.962
119.196
116.754
118.944
387.453
387.469
27.61
60.8878
20.1553
20.3381
27.4971
61.1729
20.1552
69.0241
244.737
68.7157
244.796
27.6164
20.156
60.915
20.3408
27.5017
20.156
61.2086
68.7017
244.906
244.488
69.0742
27.4847
20.3371
61.1698
20.1537
60.892
20.154
27.6221
68.7105
244.857
244.635
69.031
27.4912
20.3399
20.1545
61.2055
20.1547
60.9239
27.6242
69.0236
244.673
68.7024
244.792
27.6106
20.156
60.883
20.3421
27.4928
20.156
61.1799
69.0224
244.718
68.7133
244.909
27.482
20.3395
61.2121
20.1534
60.8359
20.1548
27.6273
68.7078
244.858
244.635
69.0195
27.4828
20.3412
20.1545
61.178
20.1547
60.8933
27.6189
68.7089
244.867
244.724
69.0258
119.04
116.65
20.8746
119.31
116.779
385.462
385.455
387.485
387.429
20.8626
119.307
116.839
119.041
116.579
385.462
385.464
26.7697
20.1404
58.946
20.3065
26.7237
20.1404
59.1731
65.9599
241.7
65.7734
241.83
65.9672
241.761
65.8111
241.747
26.7051
20.308
20.1387
59.2364
20.1398
58.9371
26.7903
26.7149
20.3059
20.1388
59.1311
20.1392
58.9919
26.7808
65.7996
241.88
241.663
65.9446
65.8128
241.782
241.745
65.9706
387.457
387.445
385.472
385.483
20.8612
119.174
116.925
118.7
116.539
387.421
387.461
385.465
385.502
385.492
385.461
387.526
387.569
116.692
119.084
20.8748
116.915
119.402
385.488
385.47
387.527
387.577
20.8629
116.895
119.358
116.714
119.122
65.9676
241.817
65.8082
241.781
26.7662
59.0185
20.1414
20.3119
26.7155
59.2105
20.1413
26.7804
59.0283
20.1413
20.3107
26.7338
59.2402
20.1412
65.7002
241.78
241.505
65.9266
65.8102
241.786
241.712
65.9739
26.7135
20.3112
59.2071
20.1398
59.0378
20.1402
26.7714
26.7278
20.3101
59.1866
20.1397
59.0583
20.14
26.7861
116.779
118.907
20.8754
116.962
119.237
387.473
387.556
385.462
385.388
20.8639
116.872
119.186
116.673
118.993
387.462
387.571
27.61
60.8878
20.1553
20.3382
27.4973
61.1735
20.1552
69.0242
244.735
68.7159
244.798
27.6165
20.1561
60.9149
20.341
27.5018
20.156
61.2094
68.7012
244.91
244.488
69.0737
27.4846
20.3371
61.1703
20.1537
60.8925
20.154
27.6219
68.7104
244.86
244.638
69.0304
27.4913
20.3399
20.1545
61.2061
20.1547
60.9248
27.6241
69.025
244.694
68.7034
244.918
27.6108
20.156
60.8807
20.3422
27.4929
20.156
61.1748
69.0225
244.673
68.7137
244.887
27.4826
20.3388
61.211
20.1534
60.8339
20.1547
27.6273
68.7091
244.854
244.739
69.019
27.4829
20.3412
20.1545
61.1783
20.1547
60.8893
27.6189
68.7088
244.869
244.71
69.0253
119.03
116.633
20.8747
119.318
116.838
385.478
385.468
387.515
387.453
20.8627
119.32
116.855
119.05
116.637
385.458
385.472
26.7699
20.1404
58.9809
20.3066
26.7231
20.1404
59.1355
65.9565
241.799
65.7862
241.868
65.9684
241.711
65.8143
241.857
26.7055
20.308
20.1386
59.2322
20.1399
58.9426
26.7877
26.7153
20.3058
20.1389
59.1064
20.1392
58.9535
26.7808
65.8134
241.793
241.652
65.9171
65.8139
241.768
241.685
65.9689
387.432
387.518
385.477
385.485
20.8613
119.186
116.927
118.71
116.542
387.455
387.53
385.463
385.499
385.487
385.457
387.526
387.569
116.694
119.088
20.8747
116.91
119.396
385.481
385.458
387.526
387.577
20.8627
116.879
119.355
116.706
119.117
65.9652
241.7
65.8158
241.745
26.7666
59.027
20.1414
20.3119
26.7181
59.2035
20.1413
26.7804
59.008
20.1414
20.311
26.7342
59.2274
20.1413
65.703
241.759
241.476
65.9176
65.807
241.752
241.694
65.9632
26.7133
20.3111
59.199
20.1398
59.0279
20.1401
26.7702
26.7276
20.3101
59.1852
20.1397
59.0471
20.1401
26.7827
116.68
118.912
20.8789
116.939
119.221
387.472
387.459
385.464
385.422
20.8661
116.956
119.196
116.746
118.944
387.453
387.469
27.61
60.8881
20.1553
20.3381
27.4971
61.1732
20.1552
69.024
244.737
68.7153
244.798
27.6164
20.1561
60.9154