/*--------------------------------*- C++ -*----------------------------------*\
| =========                 |                                                 |
| \\      /  F ield         | OpenFOAM: The Open Source CFD Toolbox           |
|  \\    /   O peration     | Version:  2206                                  |
|   \\  /    A nd           | Website:  www.openfoam.com                      |
|    \\/     M anipulation  |                                                 |
\*---------------------------------------------------------------------------*/
FoamFile
{
    version     2.0;
    format      ascii;
    arch        "LSB;label=32;scalar=64";
    class       volScalarField;
    location    "30";
    object      k;
}
// * * * * * * * * * * * * * * * * * * * * * * * * * * * * * * * * * * * * * //

dimensions      [0 2 -2 0 0 0 0];

internalField   nonuniform List<scalar> 
67442
(
2.35671e-05
2.71252e-05
2.71567e-05
2.64826e-05
2.65608e-05
2.70727e-05
2.72146e-05
2.65942e-05
2.71586e-05
2.72181e-05
2.71502e-05
2.65226e-05
2.70936e-05
8.61483e-06
1.62261e-05
5.68567e-06
8.40561e-06
1.57541e-05
2.35789e-05
2.36117e-05
2.35674e-05
1.67633e-05
2.69325e-05
2.18674e-05
5.69711e-06
2.69343e-05
1.66824e-05
2.16317e-05
1.05207e-05
1.0635e-05
5.68962e-06
5.59229e-06
1.07881e-05
1.06352e-05
8.57785e-06
1.61003e-05
1.69203e-05
2.69421e-05
2.18816e-05
1.6938e-05
2.69212e-05
2.18454e-05
1.07441e-05
1.06331e-05
5.58792e-06
1.66587e-05
2.69483e-05
2.15903e-05
8.62431e-06
1.57927e-05
2.69458e-05
1.68912e-05
2.164e-05
8.40329e-06
1.59963e-05
2.68355e-05
1.65818e-05
2.17323e-05
8.29129e-06
1.5844e-05
1.07481e-05
1.08165e-05
5.63294e-06
2.69176e-05
1.66671e-05
2.1781e-05
8.34448e-06
1.58993e-05
8.38957e-06
1.59528e-05
5.5192e-06
5.58269e-06
5.19333e-06
8.67404e-06
1.09982e-05
1.10053e-05
5.18316e-06
6.35241e-06
1.62379e-05
6.89939e-06
1.52818e-05
6.95332e-06
1.53185e-05
6.36249e-06
5.70202e-06
6.08582e-06
1.57451e-05
1.48517e-05
6.62226e-06
5.01181e-06
8.42632e-06
1.06432e-05
1.06331e-05
5.02105e-06
5.01422e-06
8.43986e-06
1.06654e-05
6.09782e-06
1.57288e-05
1.47898e-05
6.59936e-06
1.48003e-05
6.61768e-06
6.10282e-06
5.72245e-06
5.75571e-06
1.49609e-05
1.90004e-05
1.05478e-05
7.9982e-06
1.89969e-05
8.0748e-06
1.49803e-05
1.48977e-05
1.89794e-05
1.07546e-05
7.97643e-06
1.89928e-05
8.00891e-06
1.49047e-05
7.78665e-06
4.83758e-06
4.81551e-06
4.86675e-06
4.83059e-06
7.78565e-06
5.71332e-06
5.62067e-06
5.64616e-06
1.49343e-05
1.90547e-05
1.08293e-05
8.10648e-06
8.14743e-06
1.90878e-05
1.49793e-05
1.48279e-05
1.89735e-05
1.06367e-05
7.97226e-06
8.01062e-06
1.89992e-05
1.48611e-05
7.75647e-06
4.83162e-06
4.79292e-06
4.85614e-06
4.81138e-06
7.77532e-06
5.08176e-06
8.61887e-06
1.07388e-05
1.0808e-05
5.04556e-06
6.19229e-06
1.61032e-05
6.80412e-06
1.50302e-05
6.88512e-06
1.5053e-05
6.18666e-06
1.49998e-05
1.91735e-05
1.07944e-05
8.08581e-06
8.11451e-06
1.91756e-05
1.50226e-05
1.49982e-05
1.90384e-05
1.06494e-05
8.0881e-06
1.90558e-05
8.10865e-06
1.49935e-05
7.83109e-06
4.88211e-06
4.87188e-06
4.87858e-06
4.90561e-06
7.8211e-06
5.59267e-06
6.13875e-06
1.58065e-05
6.62059e-06
1.50265e-05
5.12966e-06
8.66321e-06
1.0908e-05
1.09498e-05
5.13277e-06
5.14241e-06
8.75086e-06
1.09616e-05
6.14889e-06
1.57506e-05
6.59682e-06
1.49454e-05
6.62133e-06
1.49748e-05
6.15276e-06
5.07101e-06
8.39144e-06
1.06943e-05
1.06803e-05
5.05045e-06
6.17902e-06
1.60045e-05
1.51167e-05
6.71008e-06
1.5088e-05
6.73702e-06
6.18074e-06
4.98107e-06
8.36207e-06
1.05265e-05
1.05616e-05
4.9849e-06
6.07769e-06
1.58525e-05
6.62289e-06
1.478e-05
6.63764e-06
1.48015e-05
6.07319e-06
1.50407e-05
1.91361e-05
1.07564e-05
8.07603e-06
8.11766e-06
1.91673e-05
1.5064e-05
1.53178e-05
1.92118e-05
1.0819e-05
8.28858e-06
1.92555e-05
8.29879e-06
1.53318e-05
8.00259e-06
4.9211e-06
4.98505e-06
4.94734e-06
5.00463e-06
8.01895e-06
5.6324e-06
4.94526e-06
8.3478e-06
1.05469e-05
1.05335e-05
4.95389e-06
6.06909e-06
1.58812e-05
1.48465e-05
6.65644e-06
1.48736e-05
6.66074e-06
6.0681e-06
4.9799e-06
8.47087e-06
1.06146e-05
1.06594e-05
4.98355e-06
6.11265e-06
1.59266e-05
1.49308e-05
6.69205e-06
1.49078e-05
6.68565e-06
6.11296e-06
5.54807e-06
5.63645e-06
2.21932e-05
2.21745e-05
2.03311e-05
1.9894e-05
2.38692e-05
2.37709e-05
2.64824e-05
2.3951e-05
2.38077e-05
1.99037e-05
1.98301e-05
2.38613e-05
2.38766e-05
2.64769e-05
2.3873e-05
2.3904e-05
1.98364e-05
1.99771e-05
2.41417e-05
2.38276e-05
2.66381e-05
2.38497e-05
2.40999e-05
1.99316e-05
2.00014e-05
2.39994e-05
2.38999e-05
2.65978e-05
2.39858e-05
2.39831e-05
1.99801e-05
2.21101e-05
2.23105e-05
2.03799e-05
2.22567e-05
2.2287e-05
2.0409e-05
2.21211e-05
2.21313e-05
2.0311e-05
2.45077e-05
2.24021e-05
1.67346e-05
1.9295e-05
2.2436e-05
1.92784e-05
2.44296e-05
2.57219e-05
2.18128e-05
2.11245e-05
2.61694e-05
2.10749e-05
2.61828e-05
2.56355e-05
2.44565e-05
2.2402e-05
1.67117e-05
1.90801e-05
2.24101e-05
1.91062e-05
2.44729e-05
2.57308e-05
2.16699e-05
2.62693e-05
2.08244e-05
2.63033e-05
2.08566e-05
2.57104e-05
2.45764e-05
2.24596e-05
1.69057e-05
1.94447e-05
1.94838e-05
2.2513e-05
2.45091e-05
2.57839e-05
2.18981e-05
2.11988e-05
2.62773e-05
2.1213e-05
2.62992e-05
2.57726e-05
2.44903e-05
2.24678e-05
1.69415e-05
1.93417e-05
1.93638e-05
2.25218e-05
2.44686e-05
2.57714e-05
2.18656e-05
2.10861e-05
2.6294e-05
2.11256e-05
2.63238e-05
2.57879e-05
2.42765e-05
2.22961e-05
1.66704e-05
1.9146e-05
1.91309e-05
2.2343e-05
2.42667e-05
2.54572e-05
2.1584e-05
2.08555e-05
2.61041e-05
2.08532e-05
2.59839e-05
2.54778e-05
2.45365e-05
2.24539e-05
1.69108e-05
1.93995e-05
1.94058e-05
2.24882e-05
2.44362e-05
2.56212e-05
2.16339e-05
2.61066e-05
2.09425e-05
2.60662e-05
2.09755e-05
2.55871e-05
2.43289e-05
2.22728e-05
1.65538e-05
1.9122e-05
2.22823e-05
1.91306e-05
2.43369e-05
2.54864e-05
2.17112e-05
2.61564e-05
2.08357e-05
2.61717e-05
2.08572e-05
2.54983e-05
2.43485e-05
2.2245e-05
1.66864e-05
1.9086e-05
2.23015e-05
1.91438e-05
2.42586e-05
2.568e-05
2.17232e-05
2.62681e-05
2.08324e-05
2.61634e-05
2.08762e-05
2.55531e-05
1.67697e-06
4.04434e-07
8.56499e-08
7.58294e-08
5.16911e-07
1.71471e-06
4.24376e-07
9.24315e-08
8.58281e-08
5.90549e-07
1.65702e-06
3.9984e-07
8.49133e-08
7.5961e-08
5.18508e-07
1.73874e-06
4.30901e-07
9.37085e-08
8.61297e-08
5.9184e-07
1.72139e-06
4.26419e-07
9.28549e-08
8.59052e-08
5.90668e-07
1.70579e-06
4.22771e-07
9.2239e-08
8.5947e-08
5.91582e-07
1.66706e-06
4.02087e-07
8.52731e-08
7.57881e-08
5.16903e-07
1.69858e-06
4.20486e-07
9.18143e-08
8.59524e-08
5.91898e-07
1.70276e-06
4.10789e-07
8.68236e-08
7.61687e-08
5.18714e-07
1.65152e-06
3.98084e-07
8.45465e-08
7.59533e-08
5.18762e-07
1.63551e-06
3.94959e-07
8.41094e-08
7.59212e-08
5.18757e-07
1.70253e-06
4.21433e-07
9.19021e-08
8.57829e-08
5.90568e-07
1.62088e-06
3.90856e-07
8.32485e-08
7.55576e-08
5.16692e-07
1.63178e-06
3.93866e-07
8.3819e-08
7.56236e-08
5.16791e-07
1.6803e-06
4.15975e-07
9.1017e-08
8.58319e-08
5.91614e-07
1.68438e-06
4.16978e-07
9.11616e-08
8.56986e-08
5.90481e-07
1.70217e-06
4.21554e-07
9.21649e-08
8.65657e-08
5.96326e-07
1.68852e-06
4.07029e-07
8.61512e-08
7.6172e-08
5.19255e-07
1.72414e-06
4.26598e-07
9.28739e-08
8.61337e-08
5.92626e-07
1.48028e-06
3.63353e-07
8.01673e-08
7.98635e-08
5.52582e-07
1.51906e-06
3.74248e-07
8.26798e-08
8.18873e-08
5.67115e-07
1.6617e-06
4.12238e-07
9.05637e-08
8.65245e-08
5.97199e-07
1.66348e-06
4.01726e-07
8.53053e-08
7.62638e-08
5.20589e-07
1.6644e-06
4.01846e-07
8.52675e-08
7.59751e-08
5.18344e-07
1.74715e-06
4.32847e-07
9.40906e-08
8.64163e-08
5.93808e-07
1.7541e-06
4.3405e-07
9.42175e-08
8.61536e-08
5.91632e-07
1.6241e-06
3.92899e-07
8.39938e-08
7.66737e-08
5.24757e-07
1.63794e-06
3.95602e-07
8.44608e-08
7.69489e-08
5.26589e-07
1.61311e-06
3.89683e-07
8.33871e-08
7.65094e-08
5.2396e-07
1.62504e-06
3.92543e-07
8.39085e-08
7.68242e-08
5.26047e-07
1.5553e-06
3.85682e-07
8.57896e-08
8.57116e-08
5.9418e-07
1.54302e-06
3.82515e-07
8.51794e-08
8.56024e-08
5.93812e-07
1.56388e-06
3.87528e-07
8.6121e-08
8.60036e-08
5.96236e-07
1.54975e-06
3.84197e-07
8.55362e-08
8.58906e-08
5.9584e-07
1.73024e-06
4.28512e-07
9.32876e-08
8.622e-08
5.92844e-07
1.71553e-06
4.24923e-07
9.2655e-08
8.62333e-08
5.93528e-07
1.72079e-06
4.25816e-07
9.27357e-08
8.59701e-08
5.91379e-07
1.67876e-06
4.04732e-07
8.57545e-08
7.61069e-08
5.19066e-07
1.64212e-06
3.96895e-07
8.46744e-08
7.67569e-08
5.24912e-07
1.65078e-06
3.98865e-07
8.505e-08
7.70277e-08
5.26758e-07
1.56561e-06
3.88398e-07
8.62565e-08
8.57772e-08
5.9432e-07
1.57731e-06
3.90884e-07
8.67222e-08
8.60725e-08
5.96327e-07
1.70678e-06
4.22631e-07
9.22458e-08
8.62243e-08
5.93695e-07
1.49257e-06
3.66153e-07
8.06616e-08
7.99231e-08
5.52679e-07
1.51832e-06
3.7388e-07
8.2611e-08
8.188e-08
5.67122e-07
1.7051e-06
4.22291e-07
9.23152e-08
8.67068e-08
5.97349e-07
1.71003e-06
4.12549e-07
8.71806e-08
7.64662e-08
5.20781e-07
1.7208e-06
4.14378e-07
8.73841e-08
7.61958e-08
5.18512e-07
1.6559e-06
3.9943e-07
8.48499e-08
7.62274e-08
5.20669e-07
1.65195e-06
4.09562e-07
9.00819e-08
8.64956e-08
5.97324e-07
1.64564e-06
3.97021e-07
8.44864e-08
7.61976e-08
5.20661e-07
1.67324e-06
4.04196e-07
8.58794e-08
7.68056e-08
5.24301e-07
1.67769e-06
4.05496e-07
8.61658e-08
7.70772e-08
5.26242e-07
1.59937e-06
3.96435e-07
8.76547e-08
8.58965e-08
5.94123e-07
1.70797e-06
4.22958e-07
9.22601e-08
8.60783e-08
5.92623e-07
1.61974e-06
4.01322e-07
8.85274e-08
8.61343e-08
5.95814e-07
1.62574e-06
3.923e-07
8.35576e-08
7.5866e-08
5.18908e-07
1.63286e-06
4.04591e-07
8.91397e-08
8.62231e-08
5.96008e-07
1.64393e-06
3.96314e-07
8.42825e-08
7.59596e-08
5.19067e-07
1.69138e-06
4.18734e-07
9.15426e-08
8.61156e-08
5.93474e-07
1.70269e-06
4.21269e-07
9.19682e-08
8.60369e-08
5.92545e-07
1.66389e-06
4.11884e-07
9.04171e-08
8.63734e-08
5.96164e-07
1.67842e-06
4.154e-07
9.10442e-08
8.65837e-08
5.97349e-07
1.525e-06
3.73746e-07
8.19625e-08
8.0104e-08
5.53254e-07
1.55904e-06
3.8373e-07
8.42793e-08
8.17746e-08
5.6512e-07
1.56891e-06
3.86164e-07
8.47467e-08
8.20929e-08
5.67303e-07
1.52158e-06
3.72406e-07
8.1635e-08
7.97859e-08
5.50974e-07
1.69349e-06
4.1941e-07
9.17106e-08
8.61543e-08
5.93409e-07
1.63999e-06
3.96742e-07
8.46394e-08
7.6676e-08
5.24274e-07
1.64767e-06
3.9847e-07
8.49718e-08
7.69558e-08
5.2624e-07
1.56516e-06
3.88147e-07
8.62278e-08
8.57559e-08
5.94091e-07
1.56824e-06
3.89254e-07
8.65187e-08
8.60427e-08
5.96133e-07
1.66155e-06
4.11104e-07
9.02407e-08
8.61847e-08
5.94772e-07
1.48127e-06
3.63379e-07
8.0194e-08
8.00869e-08
5.54322e-07
1.51233e-06
3.72155e-07
8.22727e-08
8.18451e-08
5.67109e-07
1.51844e-06
3.74034e-07
8.26779e-08
8.2101e-08
5.68802e-07
1.47772e-06
3.61656e-07
7.97976e-08
7.98178e-08
5.52536e-07
1.66157e-06
4.12213e-07
9.0501e-08
8.62032e-08
5.94703e-07
1.64679e-06
3.97915e-07
8.48211e-08
7.67609e-08
5.24804e-07
1.65638e-06
4.0027e-07
8.52947e-08
7.7069e-08
5.26847e-07
1.58036e-06
3.92134e-07
8.6946e-08
8.58213e-08
5.94081e-07
1.59198e-06
3.94731e-07
8.74366e-08
8.61206e-08
5.96097e-07
1.64208e-06
3.96842e-07
8.45995e-08
7.66378e-08
5.2403e-07
1.64976e-06
3.98672e-07
8.49717e-08
7.69467e-08
5.26188e-07
1.54924e-06
3.84484e-07
8.55691e-08
8.56198e-08
5.93703e-07
1.55839e-06
3.86391e-07
8.59324e-08
8.59314e-08
5.95894e-07
1.62559e-06
3.93032e-07
8.40069e-08
7.66715e-08
5.24748e-07
1.63492e-06
3.9523e-07
8.44291e-08
7.69603e-08
5.26699e-07
1.53853e-06
3.81868e-07
8.512e-08
8.56066e-08
5.93895e-07
1.54714e-06
3.84223e-07
8.55754e-08
8.59155e-08
5.96007e-07
1.48282e-06
3.63341e-07
8.01198e-08
7.99323e-08
5.53257e-07
1.53288e-06
3.77524e-07
8.31954e-08
8.16951e-08
5.65277e-07
1.54808e-06
3.80521e-07
8.3744e-08
8.20062e-08
5.67332e-07
1.47633e-06
3.61629e-07
7.97512e-08
7.96123e-08
5.51013e-07
1.64902e-06
4.08586e-07
8.97992e-08
8.5966e-08
5.93387e-07
1.4928e-06
3.66044e-07
8.06698e-08
8.01449e-08
5.54417e-07
1.51051e-06
3.71794e-07
8.22109e-08
8.18355e-08
5.67091e-07
1.51716e-06
3.73535e-07
8.25975e-08
8.20916e-08
5.6879e-07
1.48988e-06
3.64635e-07
8.03107e-08
7.98844e-08
5.52664e-07
1.69921e-06
4.20328e-07
9.18849e-08
8.63617e-08
5.94939e-07
1.70426e-06
4.22281e-07
9.2275e-08
8.63884e-08
5.94849e-07
1.66634e-06
4.12649e-07
9.05125e-08
8.62344e-08
5.95e-07
1.49906e-06
3.67244e-07
8.08096e-08
8.01553e-08
5.54497e-07
1.537e-06
3.78072e-07
8.33418e-08
8.1973e-08
5.67394e-07
1.54275e-06
3.79274e-07
8.35504e-08
8.21881e-08
5.68935e-07
1.49806e-06
3.66758e-07
8.0689e-08
7.99235e-08
5.52774e-07
1.47598e-06
3.61863e-07
7.99382e-08
8.00681e-08
5.544e-07
1.51954e-06
3.73887e-07
8.26062e-08
8.18943e-08
5.67294e-07
1.5253e-06
3.7544e-07
8.29151e-08
8.21199e-08
5.6883e-07
1.47256e-06
3.60853e-07
7.97047e-08
7.98255e-08
5.52697e-07
1.64883e-06
4.08641e-07
8.989e-08
8.61798e-08
5.94974e-07
1.60475e-06
3.97837e-07
8.79801e-08
8.62019e-08
5.96286e-07
1.61767e-06
4.00714e-07
8.83469e-08
8.57587e-08
5.92966e-07
1.45181e-06
3.55636e-07
7.87367e-08
7.97498e-08
5.52959e-07
1.50093e-06
3.69084e-07
8.16239e-08
8.15063e-08
5.65054e-07
1.50336e-06
3.69895e-07
8.1826e-08
8.17735e-08
5.67058e-07
1.44837e-06
3.54757e-07
7.85372e-08
7.94623e-08
5.50783e-07
1.62796e-06
4.03077e-07
8.88082e-08
8.58393e-08
5.93217e-07
1.46183e-06
3.5824e-07
7.92308e-08
7.98346e-08
5.53162e-07
1.50405e-06
3.69734e-07
8.173e-08
8.15287e-08
5.6514e-07
1.50822e-06
3.70996e-07
8.20459e-08
8.18161e-08
5.67173e-07
1.45589e-06
3.56788e-07
7.89067e-08
7.95132e-08
5.50899e-07
2.72209e-05
2.65022e-05
2.70897e-05
2.36115e-05
1.57394e-05
2.69576e-05
2.15979e-05
8.62258e-06
1.57858e-05
2.69402e-05
1.68446e-05
2.16586e-05
5.70161e-06
1.07157e-05
6.02429e-06
1.57534e-05
1.47631e-05
6.59728e-06
1.4804e-05
6.6015e-06
6.08569e-06
5.05841e-06
8.57202e-06
1.08797e-05
1.07842e-05
5.12191e-06
6.07433e-06
1.58024e-05
6.59416e-06
1.49132e-05
6.58953e-06
1.49411e-05
6.13646e-06
5.67371e-06
1.50156e-05
1.91027e-05
1.06974e-05
8.06553e-06
1.91089e-05
8.03279e-06
1.4976e-05
1.52355e-05
1.91858e-05
1.91284e-05
1.52227e-05
7.90297e-06
4.91585e-06
4.8896e-06
7.93811e-06
1.99435e-05
2.66036e-05
2.40083e-05
2.38841e-05
2.39698e-05
2.38773e-05
1.99612e-05
2.21525e-05
2.03444e-05
2.21539e-05
2.21574e-05
2.04144e-05
2.55272e-05
2.16101e-05
2.08627e-05
2.60595e-05
2.08738e-05
2.6051e-05
2.55826e-05
2.44519e-05
2.24545e-05
1.68422e-05
1.93679e-05
1.93357e-05
2.25017e-05
2.44418e-05
2.55736e-05
2.17268e-05
2.60672e-05
2.09354e-05
2.60566e-05
2.09322e-05
2.56519e-05
2.43873e-05
2.24304e-05
2.23813e-05
2.43997e-05
2.648e-05
2.70807e-05
2.70713e-05
2.35148e-05
5.69796e-06
5.59542e-06
1.07871e-05
1.06303e-05
8.61122e-06
1.61681e-05
1.68879e-05
2.69784e-05
2.19345e-05
8.40673e-06
1.66129e-05
5.66945e-06
5.56154e-06
1.4952e-05
1.90444e-05
1.07584e-05
8.10541e-06
8.08876e-06
1.905e-05
1.49427e-05
1.48176e-05
1.89447e-05
1.0539e-05
7.96494e-06
7.89517e-06
1.89168e-05
1.4797e-05
7.69173e-06
4.83055e-06
4.78792e-06
4.81522e-06
4.76569e-06
7.69475e-06
5.12925e-06
8.5496e-06
1.09727e-05
1.08476e-05
5.17461e-06
6.32688e-06
1.61537e-05
6.89793e-06
1.52614e-05
6.87677e-06
1.52477e-05
6.34331e-06
4.97158e-06
8.32859e-06
1.06414e-05
1.054e-05
5.00747e-06
1.98241e-05
2.64946e-05
2.39321e-05
2.38158e-05
2.38963e-05
2.38109e-05
1.98297e-05
2.21355e-05
2.45653e-05
2.25073e-05
1.68849e-05
1.94315e-05
2.2476e-05
1.94219e-05
2.45992e-05
2.57912e-05
2.18933e-05
2.12032e-05
2.63886e-05
2.12023e-05
2.63253e-05
2.57773e-05
2.42751e-05
2.23131e-05
1.66191e-05
1.91412e-05
2.22626e-05
1.91314e-05
2.42696e-05
1.70087e-06
4.10227e-07
8.67796e-08
7.64482e-08
5.20935e-07
1.73803e-06
4.30438e-07
9.36726e-08
8.6395e-08
5.93969e-07
1.67388e-06
4.14972e-07
9.10131e-08
8.63003e-08
5.95089e-07
1.68554e-06
4.06597e-07
8.61085e-08
7.61135e-08
5.18815e-07
1.72508e-06
4.27143e-07
9.30295e-08
8.60816e-08
5.91984e-07
1.46044e-06
3.58064e-07
7.91965e-08
7.97893e-08
5.52782e-07
1.5114e-06
3.71827e-07
8.22531e-08
8.20848e-08
5.69015e-07
1.50479e-06
3.69849e-07
8.18381e-08
8.18258e-08
5.67324e-07
1.47228e-06
3.60539e-07
7.96603e-08
8.00458e-08
5.54425e-07
1.47263e-06
3.60925e-07
7.9693e-08
7.98558e-08
5.52924e-07
1.51184e-06
3.7178e-07
8.22222e-08
8.20802e-08
5.69022e-07
1.50413e-06
3.69819e-07
8.18243e-08
8.18181e-08
5.67293e-07
1.48313e-06
3.63109e-07
8.01028e-08
8.00997e-08
5.54519e-07
1.69374e-06
4.19114e-07
9.17457e-08
8.6663e-08
5.97416e-07
1.64456e-06
3.97328e-07
8.477e-08
7.70286e-08
5.26936e-07
1.63236e-06
3.94506e-07
8.42301e-08
7.67114e-08
5.24883e-07
1.58182e-06
3.92018e-07
8.69322e-08
8.60933e-08
5.96262e-07
1.56777e-06
3.88641e-07
8.62975e-08
8.57854e-08
5.94328e-07
1.72387e-06
4.26502e-07
9.28844e-08
8.61982e-08
5.92978e-07
1.70685e-06
4.22549e-07
9.22235e-08
8.62071e-08
5.93654e-07
1.67598e-06
4.0402e-07
8.563e-08
7.6137e-08
5.19359e-07
1.65631e-06
3.99423e-07
8.48874e-08
7.62444e-08
5.20745e-07
1.71117e-06
4.2347e-07
9.23341e-08
8.58655e-08
5.90752e-07
1.69195e-06
4.18988e-07
9.15714e-08
8.58972e-08
5.91697e-07
1.67743e-06
4.15741e-07
9.1085e-08
8.61075e-08
5.93505e-07
1.66053e-06
4.00658e-07
8.50093e-08
7.57739e-08
5.16965e-07
1.63836e-06
3.95721e-07
8.42375e-08
7.59099e-08
5.18602e-07
1.55125e-06
3.846e-07
8.56131e-08
8.59177e-08
5.96027e-07
1.53979e-06
3.81802e-07
8.51294e-08
8.58882e-08
5.96122e-07
1.64356e-06
4.07569e-07
8.96726e-08
8.61507e-08
5.94938e-07
1.65583e-06
4.10054e-07
9.01393e-08
8.64914e-08
5.97265e-07
1.64194e-06
3.96796e-07
8.46473e-08
7.69329e-08
5.26322e-07
1.63299e-06
3.94306e-07
8.41505e-08
7.66092e-08
5.24136e-07
1.62394e-06
3.92412e-07
8.39449e-08
7.69346e-08
5.2685e-07
1.60679e-06
3.88635e-07
8.32437e-08
7.66093e-08
5.24836e-07
1.52881e-06
3.79272e-07
8.46541e-08
8.55865e-08
5.94109e-07
1.54191e-06
3.8228e-07
8.51473e-08
8.56019e-08
5.93892e-07
1.50836e-06
3.69456e-07
8.11512e-08
7.97573e-08
5.51133e-07
1.55722e-06
3.83183e-07
8.42337e-08
8.20538e-08
5.67364e-07
1.54733e-06
3.80377e-07
8.36689e-08
8.17141e-08
5.65113e-07
1.5168e-06
3.71435e-07
8.15325e-08
8.00577e-08
5.53217e-07
1.69303e-06
4.1906e-07
9.1708e-08
8.65192e-08
5.96312e-07
2.64624e-05
2.35424e-05
2.71306e-05
2.70035e-05
2.65315e-05
2.64921e-05
2.64696e-05
2.70875e-05
2.72269e-05
2.6618e-05
2.69975e-05
2.71189e-05
2.70916e-05
2.66348e-05
2.7112e-05
1.04135e-05
1.04853e-05
2.65137e-05
1.04156e-05
1.05358e-05
1.58617e-05
8.62232e-06
1.61e-05
5.62601e-06
5.62101e-06
8.17517e-06
1.57393e-05
2.35771e-05
2.35889e-05
2.36476e-05
1.67662e-05
2.6922e-05
2.71212e-05
2.16328e-05
5.59679e-06
2.69531e-05
1.64582e-05
2.17864e-05
1.04361e-05
1.05814e-05
5.45598e-06
5.44828e-06
5.49897e-06
5.51956e-06
2.65961e-05
1.04613e-05
1.06034e-05
1.0436e-05
1.05473e-05
5.47098e-06
5.46367e-06
5.58135e-06
5.55741e-06
5.67303e-06
5.42843e-06
1.0774e-05
1.0337e-05
1.57717e-05
8.48596e-06
8.43741e-06
1.6044e-05
2.18235e-05
1.69889e-05
2.69185e-05
2.68871e-05
2.19645e-05
2.17173e-05
1.68811e-05
2.7001e-05
2.72213e-05
1.67309e-05
2.68968e-05
2.18684e-05
1.07271e-05
1.07014e-05
2.65517e-05
1.06534e-05
5.61585e-06
1.63632e-05
2.6841e-05
2.16158e-05
8.4974e-06
1.5816e-05
2.69345e-05
1.67825e-05
2.16512e-05
8.3723e-06
1.5764e-05
2.68353e-05
1.6479e-05
2.15332e-05
8.16017e-06
1.55255e-05
1.06314e-05
1.04614e-05
5.46007e-06
2.68996e-05
1.6714e-05
2.17019e-05
8.17318e-06
1.59206e-05
8.36299e-06
1.59453e-05
5.47004e-06
5.58719e-06
7.80868e-06
4.83419e-06
4.81322e-06
4.86593e-06
4.83929e-06
7.79289e-06
1.50231e-05
1.8909e-05
7.97136e-06
1.04351e-05
8.02591e-06
1.50535e-05
1.8928e-05
1.48561e-05
1.89142e-05
7.87405e-06
1.04948e-05
7.91671e-06
1.48587e-05
1.89126e-05
7.82299e-06
4.86742e-06
4.80043e-06
4.86e-06
4.82159e-06
7.83787e-06
1.50896e-05
8.00325e-06
1.04524e-05
1.89331e-05
8.05286e-06
1.50693e-05
1.89846e-05
1.49018e-05
7.93331e-06
1.05639e-05
1.89339e-05
7.95501e-06
1.4875e-05
1.89545e-05
6.25911e-06
6.69129e-06
1.50107e-05
1.59927e-05
6.77372e-06
1.51106e-05
6.21763e-06
5.17754e-06
8.64137e-06
1.09924e-05
1.0946e-05
5.18897e-06
5.12934e-06
8.57802e-06
1.08296e-05
6.28238e-06
1.60486e-05
6.81456e-06
1.52239e-05
6.79364e-06
1.51835e-05
6.29155e-06
5.65367e-06
5.6555e-06
4.93965e-06
8.20922e-06
1.03822e-05
1.04023e-05
4.94587e-06
6.06353e-06
1.57069e-05
1.47303e-05
6.58656e-06
1.4733e-05
6.62155e-06
6.07819e-06
5.5943e-06
1.51074e-05
1.89765e-05
7.96988e-06
1.04331e-05
1.51311e-05
1.89635e-05
7.97955e-06
1.49128e-05
1.89348e-05
7.92917e-06
1.06e-05
1.49069e-05
1.89478e-05
7.95023e-06
7.84189e-06
4.83658e-06
4.81905e-06
7.86861e-06
4.85631e-06
4.84384e-06
5.46167e-06
5.47389e-06
5.53031e-06
5.54519e-06
7.8178e-06
4.84688e-06
4.82924e-06
7.8431e-06
4.84547e-06
4.83195e-06
1.50781e-05
1.89862e-05
8.01705e-06
1.04618e-05
1.5097e-05
8.04423e-06
1.89891e-05
1.49324e-05
1.89519e-05
7.94853e-06
1.06225e-05
1.49407e-05
7.98036e-06
1.89724e-05
7.82521e-06
4.84736e-06
4.84174e-06
7.8202e-06
4.84418e-06
4.83454e-06
1.51051e-05
8.03474e-06
1.89503e-05
1.04309e-05
1.51108e-05
8.04834e-06
1.8965e-05
1.49358e-05
7.97692e-06
1.89629e-05
1.06119e-05
1.48881e-05
7.98446e-06
1.89636e-05
5.48557e-06
5.47875e-06
5.58343e-06
5.58581e-06
5.68773e-06
5.64042e-06
5.44131e-06
1.49068e-05
1.9147e-05
1.07724e-05
7.99199e-06
8.01415e-06
1.91257e-05
1.49148e-05
1.45843e-05
1.87439e-05
1.03207e-05
7.69953e-06
7.7185e-06
1.87176e-05
1.45781e-05
1.07421e-05
1.91295e-05
7.66477e-06
4.7693e-06
4.68596e-06
4.7901e-06
4.71165e-06
7.6852e-06
6.16735e-06
6.63448e-06
1.48324e-05
1.58874e-05
6.72694e-06
1.49428e-05
6.10807e-06
5.07864e-06
8.50063e-06
1.07835e-05
1.07902e-05
5.09473e-06
5.06671e-06
1.06188e-05
8.49833e-06
1.07326e-05
5.02194e-06
6.20711e-06
1.59738e-05
6.76958e-06
1.50858e-05
6.75649e-06
1.50325e-05
6.22415e-06
7.77253e-06
4.831e-06
4.85086e-06
4.82593e-06
1.48874e-05
1.90614e-05
1.07636e-05
7.99459e-06
8.01206e-06
1.90733e-05
1.49438e-05
1.50399e-05
1.92411e-05
1.07037e-05
8.01659e-06
1.91951e-05
8.03124e-06
1.50746e-05
1.49251e-05
8.01355e-06
1.07349e-05
1.90175e-05
8.05384e-06
1.90752e-05
1.49244e-05
1.50909e-05
1.07003e-05
1.91992e-05
8.02555e-06
7.79049e-06
4.82788e-06
4.82586e-06
4.84365e-06
4.8312e-06
7.82497e-06
5.6241e-06
5.60328e-06
5.05978e-06
8.46106e-06
1.07393e-05
1.07351e-05
5.08323e-06
6.12961e-06
1.58043e-05
6.59169e-06
1.49984e-05
6.60179e-06
1.49564e-05
6.14886e-06
6.11903e-06
1.57162e-05
1.50038e-05
6.52253e-06
5.03626e-06
8.37811e-06
1.06798e-05
1.06819e-05
5.05778e-06
5.04013e-06
8.37926e-06
1.06803e-05
6.13119e-06
1.57262e-05
1.49916e-05
6.53688e-06
1.49735e-05
6.54117e-06
6.1688e-06
5.93409e-06
1.55488e-05
6.44902e-06
1.45992e-05
4.89415e-06
8.16158e-06
1.03852e-05
1.03904e-05
4.89448e-06
4.88091e-06
8.15683e-06
1.03889e-05
5.94407e-06
1.55351e-05
6.50155e-06
1.45947e-05
6.47115e-06
1.45923e-05
5.95211e-06
1.50505e-05
1.90585e-05
1.06119e-05
8.06284e-06
8.06447e-06
1.90669e-05
1.50628e-05
1.50023e-05
1.88803e-05
1.04613e-05
7.95037e-06
1.88738e-05
7.97504e-06
1.50322e-05
7.85888e-06
4.87318e-06
4.83928e-06
4.8703e-06
4.8514e-06
7.88072e-06
5.46622e-06
4.97216e-06
8.19692e-06
1.05684e-05
1.05688e-05
4.97922e-06
6.12471e-06
1.59615e-05
1.49397e-05
6.6866e-06
1.49177e-05
6.69223e-06
6.14789e-06
4.98765e-06
8.37509e-06
1.06063e-05
1.06183e-05
4.99937e-06
6.09732e-06
1.59717e-05
1.48038e-05
6.67979e-06
1.48116e-05
6.69293e-06
6.12564e-06
5.47863e-06
5.4697e-06
5.57945e-06
1.99489e-05
2.38881e-05
2.37686e-05
2.6502e-05
1.99549e-05
2.39752e-05
2.38047e-05
2.20484e-05
2.23302e-05
2.02513e-05
1.99792e-05
2.39416e-05
2.38453e-05
2.6533e-05
1.99959e-05
2.39415e-05
2.39009e-05
1.99616e-05
2.65295e-05
2.39537e-05
2.38613e-05
1.99778e-05
2.40736e-05
2.38621e-05
1.96765e-05
2.39862e-05
2.35999e-05
2.6432e-05
2.39773e-05
2.36155e-05
1.97024e-05
1.98771e-05
2.39397e-05
2.39346e-05
2.6599e-05
2.39464e-05
2.39375e-05
1.98803e-05
1.98814e-05
2.39307e-05
2.37443e-05
2.65759e-05
2.38162e-05
2.39789e-05
1.98556e-05
1.99407e-05
2.64885e-05
2.39446e-05
2.39033e-05
1.99565e-05
2.39144e-05
2.38797e-05
2.2115e-05
2.21926e-05
2.02887e-05
2.22114e-05
2.21365e-05
2.05073e-05
2.21411e-05
2.22066e-05
2.03766e-05
2.45533e-05
2.25612e-05
1.67822e-05
1.92848e-05
2.24922e-05
1.92922e-05
2.44775e-05
2.44987e-05
1.67612e-05
2.24864e-05
1.92893e-05
2.56093e-05
2.16046e-05
2.09592e-05
2.59948e-05
2.09929e-05
2.60145e-05
2.56539e-05
2.43081e-05
2.21673e-05
1.64593e-05
1.90319e-05
2.22133e-05
1.90522e-05
2.42657e-05
2.57167e-05
2.18059e-05
2.62362e-05
2.0945e-05
2.62362e-05
2.09885e-05
2.58014e-05
1.99728e-05
2.65351e-05
2.40485e-05
2.38489e-05
1.99677e-05
2.40373e-05
2.38628e-05
2.58464e-05
2.11123e-05
2.63934e-05
2.19296e-05
2.11117e-05
2.64283e-05
2.57654e-05
2.45295e-05
2.25872e-05
1.69995e-05
1.94954e-05
1.94687e-05
2.25877e-05
2.44886e-05
2.44651e-05
1.691e-05
1.9331e-05
2.2604e-05
2.58236e-05
2.19191e-05
2.12832e-05
2.63771e-05
2.11417e-05
2.6433e-05
2.58267e-05
2.5582e-05
2.08806e-05
2.61518e-05
2.18394e-05
2.0948e-05
2.61766e-05
2.55724e-05
2.45176e-05
2.24699e-05
1.68663e-05
1.93449e-05
1.93534e-05
2.24401e-05
2.44945e-05
2.45268e-05
1.91897e-05
1.68197e-05
2.23425e-05
1.92519e-05
2.43614e-05
2.24276e-05
2.5791e-05
2.18308e-05
2.11082e-05
2.6343e-05
2.10723e-05
2.63673e-05
2.57593e-05
1.98839e-05
2.66019e-05
2.39874e-05
2.39136e-05
2.40206e-05
2.39684e-05
1.98922e-05
2.41399e-05
2.21333e-05
1.63632e-05
1.89208e-05
1.89296e-05
2.21169e-05
2.42312e-05
2.5448e-05
2.16168e-05
2.07134e-05
2.60851e-05
2.07743e-05
2.60824e-05
2.5451e-05
2.44421e-05
2.2417e-05
1.67719e-05
1.92393e-05
1.92377e-05
2.24217e-05
2.44629e-05
2.56543e-05
2.16618e-05
2.61495e-05
2.09291e-05
2.61901e-05
2.09071e-05
2.55351e-05
2.42455e-05
2.22288e-05
1.64659e-05
1.89271e-05
2.22645e-05
1.89258e-05
2.41781e-05
2.54508e-05
2.1478e-05
2.59166e-05
2.06896e-05
2.59534e-05
2.06734e-05
2.53784e-05
2.44573e-05
2.23215e-05
1.6713e-05
1.91276e-05
2.2358e-05
1.91447e-05
2.4394e-05
2.55897e-05
2.17652e-05
2.61723e-05
2.07987e-05
2.62643e-05
2.08292e-05
2.55832e-05
2.36633e-05
2.71711e-05
2.71144e-05
2.65252e-05
2.36783e-05
2.72047e-05
2.7106e-05
2.64433e-05
2.35438e-05
2.7259e-05
2.7027e-05
2.64809e-05
2.35686e-05
2.72212e-05
2.70594e-05
2.65202e-05
2.36031e-05
2.72449e-05
2.70236e-05
2.64482e-05
2.35907e-05
2.7083e-05
2.70293e-05
2.65639e-05
2.35608e-05
2.70504e-05
2.71099e-05
2.65965e-05
2.36535e-05
2.71056e-05
2.7066e-05
2.66555e-05
2.3569e-05
2.70467e-05
2.70469e-05
2.66075e-05
2.3637e-05
2.71532e-05
2.72095e-05
2.65725e-05
2.36121e-05
2.72575e-05
2.71119e-05
2.65289e-05
2.36228e-05
2.71948e-05
2.70821e-05
2.6478e-05
2.35384e-05
2.71436e-05
2.71231e-05
2.65015e-05
2.36463e-05
2.71521e-05
2.71272e-05
2.65106e-05
2.35134e-05
2.71481e-05
2.71379e-05
2.64357e-05
2.35368e-05
2.71379e-05
2.70163e-05
2.64982e-05
2.71079e-05
2.71497e-05
2.6639e-05
2.70831e-05
2.7164e-05
2.71927e-05
2.71778e-05
2.6512e-05
2.71525e-05
2.71088e-05
2.65271e-05
2.64992e-05
2.66473e-05
2.72152e-05
2.7154e-05
2.71552e-05
2.7157e-05
2.65653e-05
2.65153e-05
2.71029e-05
2.71596e-05
2.71471e-05
2.71817e-05
2.70733e-05
2.7177e-05
2.70591e-05
2.65038e-05
2.64777e-05
2.71122e-05
2.71972e-05
2.71273e-05
2.64522e-05
2.65654e-05
2.6592e-05
2.71736e-05
2.72429e-05
2.7241e-05
2.71707e-05
2.65076e-05
2.66401e-05
2.72297e-05
2.71898e-05
2.71677e-05
2.72256e-05
2.70662e-05
2.71683e-05
2.70878e-05
2.64635e-05
2.67154e-05
2.72148e-05
2.71349e-05
2.71426e-05
2.65096e-05
2.65726e-05
2.66681e-05
2.715e-05
2.72e-05
2.72154e-05
2.72066e-05
2.66319e-05
2.66064e-05
2.71964e-05
2.73369e-05
2.71644e-05
2.73091e-05
2.7075e-05
2.71366e-05
2.71182e-05
2.66058e-05
2.66168e-05
2.7204e-05
2.71383e-05
2.71706e-05
2.64506e-05
2.67757e-05
2.6656e-05
2.72609e-05
2.72257e-05
2.72706e-05
2.72424e-05
2.67267e-05
2.65584e-05
2.7085e-05
2.73359e-05
2.71304e-05
2.72615e-05
2.70967e-05
2.71739e-05
2.72277e-05
2.65933e-05
2.65228e-05
2.71239e-05
2.71262e-05
2.70414e-05
2.64806e-05
2.66605e-05
2.65848e-05
2.73277e-05
2.7262e-05
2.7219e-05
2.7256e-05
2.65719e-05
2.64931e-05
2.7144e-05
2.73455e-05
2.7082e-05
2.72436e-05
2.71365e-05
2.7104e-05
2.7128e-05
2.65152e-05
2.6543e-05
2.70381e-05
2.7029e-05
2.70481e-05
2.65963e-05
2.64786e-05
2.65716e-05
2.71986e-05
2.71456e-05
2.72277e-05
2.71361e-05
2.64987e-05
2.65679e-05
2.71053e-05
2.72659e-05
2.70559e-05
2.72896e-05
2.71108e-05
2.7058e-05
2.70977e-05
2.65128e-05
2.65986e-05
2.71293e-05
2.7041e-05
2.71965e-05
2.65379e-05
2.65395e-05
2.66129e-05
2.7267e-05
2.71265e-05
2.72839e-05
2.72372e-05
2.64789e-05
2.64697e-05
2.70385e-05
2.72191e-05
2.70321e-05
2.72019e-05
2.71219e-05
2.70479e-05
2.71031e-05
2.64879e-05
2.66286e-05
2.70906e-05
2.71368e-05
2.71253e-05
2.65439e-05
2.64779e-05
2.66119e-05
2.71626e-05
2.71284e-05
2.72723e-05
2.71184e-05
2.64832e-05
2.65936e-05
2.70262e-05
2.72059e-05
2.71277e-05
2.72552e-05
2.71166e-05
2.69981e-05
2.71247e-05
2.66646e-05
2.65228e-05
2.72309e-05
2.71473e-05
2.71048e-05
2.66149e-05
2.64844e-05
2.64159e-05
2.71938e-05
2.72126e-05
2.71343e-05
2.71809e-05
2.64975e-05
2.66319e-05
2.70213e-05
2.7224e-05
2.71641e-05
2.71374e-05
2.71521e-05
2.70922e-05
2.72045e-05
2.66339e-05
2.64691e-05
2.71898e-05
2.71752e-05
2.70966e-05
2.662e-05
2.64037e-05
2.65078e-05
2.71276e-05
2.7226e-05
2.71461e-05
2.71551e-05
2.65192e-05
2.66104e-05
2.70712e-05
2.71458e-05
2.71484e-05
2.72857e-05
2.72041e-05
2.73154e-05
2.72495e-05
2.64724e-05
2.65554e-05
2.70929e-05
2.70965e-05
2.70946e-05
2.65465e-05
2.64059e-05
2.63577e-05
2.72262e-05
2.72729e-05
2.71014e-05
2.7325e-05
2.66338e-05
2.67059e-05
2.70705e-05
2.72049e-05
2.70022e-05
2.71691e-05
2.72126e-05
2.72341e-05
2.71606e-05
2.65304e-05
2.65975e-05
2.71716e-05
2.70831e-05
2.7113e-05
2.66117e-05
2.63547e-05
2.64139e-05
2.71177e-05
2.72219e-05
2.7118e-05
2.72408e-05
2.65975e-05
2.65517e-05
2.70282e-05
2.71661e-05
2.699e-05
2.72501e-05
2.71533e-05
2.71455e-05
2.71995e-05
2.65607e-05
2.65685e-05
2.71351e-05
2.7105e-05
2.7192e-05
2.65011e-05
2.65066e-05
2.64761e-05
2.71491e-05
2.73061e-05
2.7124e-05
2.73524e-05
2.65558e-05
2.65894e-05
2.70102e-05
2.72679e-05
2.69781e-05
2.71463e-05
2.72285e-05
2.71446e-05
2.71513e-05
2.65596e-05
2.66187e-05
2.71973e-05
2.707e-05
2.7295e-05
2.65408e-05
2.63687e-05
2.63896e-05
2.71245e-05
2.72369e-05
2.71166e-05
2.73094e-05
2.65778e-05
2.66112e-05
2.70701e-05
2.71271e-05
2.71435e-05
2.7105e-05
2.72299e-05
2.7115e-05
2.70701e-05
2.65144e-05
2.64617e-05
2.71817e-05
2.7132e-05
2.71728e-05
2.65269e-05
2.63752e-05
2.64538e-05
2.71001e-05
2.72068e-05
2.72069e-05
2.7184e-05
2.65042e-05
2.65213e-05
2.70486e-05
2.71491e-05
2.69803e-05
2.71109e-05
2.71167e-05
2.72378e-05
2.70387e-05
2.64643e-05
2.64585e-05