/*--------------------------------*- C++ -*----------------------------------*\
| =========                 |                                                 |
| \\      /  F ield         | OpenFOAM: The Open Source CFD Toolbox           |
|  \\    /   O peration     | Version:  2206                                  |
|   \\  /    A nd           | Website:  www.openfoam.com                      |
|    \\/     M anipulation  |                                                 |
\*---------------------------------------------------------------------------*/
FoamFile
{
    version     2.0;
    format      ascii;
    arch        "LSB;label=32;scalar=64";
    class       volScalarField;
    location    "30";
    object      nut;
}
// * * * * * * * * * * * * * * * * * * * * * * * * * * * * * * * * * * * * * //

dimensions      [0 2 -1 0 0 0 0];

internalField   nonuniform List<scalar> 
67442
(
1.32036e-06
1.14323e-06
1.15941e-06
1.15219e-06
1.14817e-06
1.14977e-06
1.15567e-06
1.16346e-06
1.14375e-06
1.14091e-06
1.13755e-06
1.15775e-06
1.15599e-06
3.19527e-08
1.66992e-07
1.42774e-08
3.07709e-08
1.55338e-07
1.32348e-06
1.32891e-06
1.32229e-06
1.81878e-07
1.38303e-06
6.1015e-07
1.40163e-08
1.40194e-06
1.85877e-07
6.2814e-07
7.22289e-08
7.37267e-08
1.40652e-08
1.37506e-08
7.36386e-08
7.12027e-08
3.19033e-08
1.65674e-07
1.88704e-07
1.40526e-06
6.31415e-07
1.88804e-07
1.40622e-06
6.36881e-07
7.431e-08
7.34568e-08
1.39719e-08
1.80605e-07
1.38351e-06
5.943e-07
3.16967e-08
1.55737e-07
1.38606e-06
1.83289e-07
5.93878e-07
3.10257e-08
1.57813e-07
1.3804e-06
1.79953e-07
5.99187e-07
3.06068e-08
1.56268e-07
7.23583e-08
7.54833e-08
1.41538e-08
1.40091e-06
1.85636e-07
6.47638e-07
3.10307e-08
1.63488e-07
3.11968e-08
1.64077e-07
1.37181e-08
1.39369e-08
1.22336e-08
3.23289e-08
7.05702e-08
7.16718e-08
1.23008e-08
2.03058e-08
1.67851e-07
2.4231e-08
1.31769e-07
2.50271e-08
1.32676e-07
2.06288e-08
1.41227e-08
1.91671e-08
1.55271e-07
1.23406e-07
2.29312e-08
1.1735e-08
3.11034e-08
6.63838e-08
6.72862e-08
1.18377e-08
1.17603e-08
3.10391e-08
6.67916e-08
1.92885e-08
1.55866e-07
1.22864e-07
2.27927e-08
1.23548e-07
2.3099e-08
1.93082e-08
1.41655e-08
1.42897e-08
1.38202e-07
3.50086e-07
7.14397e-08
2.80809e-08
3.50122e-07
2.84528e-08
1.37883e-07
1.39721e-07
3.55715e-07
7.52986e-08
2.80089e-08
3.5633e-07
2.82057e-08
1.3926e-07
3.8577e-08
1.17979e-08
1.1763e-08
1.18966e-08
1.17513e-08
3.89799e-08
1.42089e-08
1.38834e-08
1.40187e-08
1.38842e-07
3.5769e-07
7.73437e-08
2.85412e-08
2.87715e-08
3.58552e-07
1.38761e-07
1.38119e-07
3.48655e-07
7.23879e-08
2.79191e-08
2.81567e-08
3.4912e-07
1.37932e-07
3.78083e-08
1.17312e-08
1.15988e-08
1.18351e-08
1.16858e-08
3.89855e-08
1.20277e-08
3.21197e-08
7.06907e-08
6.92905e-08
1.19957e-08
1.99673e-08
1.66487e-07
2.41492e-08
1.29552e-07
2.45348e-08
1.30285e-07
2.00672e-08
1.40517e-07
3.59102e-07
7.54909e-08
2.84033e-08
2.85846e-08
3.601e-07
1.40403e-07
1.38825e-07
3.50828e-07
7.24493e-08
2.83974e-08
3.50959e-07
2.85731e-08
1.38066e-07
3.87385e-08
1.19291e-08
1.18872e-08
1.18784e-08
1.19911e-08
3.90664e-08
1.37828e-08
1.93333e-08
1.55895e-07
2.29193e-08
1.24917e-07
1.20177e-08
3.20977e-08
6.84984e-08
7.09671e-08
1.21039e-08
1.20897e-08
3.23105e-08
6.87472e-08
1.94445e-08
1.56098e-07
2.27758e-08
1.24213e-07
2.30974e-08
1.25051e-07
1.94568e-08
1.19217e-08
3.07323e-08
6.82441e-08
6.72279e-08
1.19225e-08
1.96935e-08
1.58715e-07
1.25657e-07
2.34e-08
1.25996e-07
2.36145e-08
1.98157e-08
1.16814e-08
3.09724e-08
6.67224e-08
6.755e-08
1.18217e-08
1.93265e-08
1.57157e-07
2.31329e-08
1.22823e-07
2.30095e-08
1.23558e-07
1.94368e-08
1.40185e-07
3.51751e-07
7.45417e-08
2.82809e-08
2.85223e-08
3.52663e-07
1.39895e-07
1.42541e-07
3.60677e-07
7.44392e-08
2.9195e-08
3.61595e-07
2.93218e-08
1.42135e-07
3.91692e-08
1.19311e-08
1.22041e-08
1.20169e-08
1.2261e-08
4.0343e-08
1.39427e-08
1.16618e-08
3.0891e-08
6.83699e-08
6.73803e-08
1.18232e-08
1.95427e-08
1.64075e-07
1.27875e-07
2.36137e-08
1.28653e-07
2.3436e-08
1.96658e-08
1.1749e-08
3.15637e-08
6.92706e-08
7.01105e-08
1.17804e-08
1.9693e-08
1.64597e-07
1.28655e-07
2.39761e-08
1.28994e-07
2.34072e-08
1.982e-08
1.37986e-08
1.39858e-08
1.29277e-06
1.28804e-06
1.21088e-06
4.284e-07
7.39206e-07
7.48735e-07
1.14304e-06
7.34332e-07
7.44331e-07
4.3114e-07
4.19383e-07
7.44781e-07
7.45613e-07
1.14353e-06
7.39199e-07
7.38525e-07
4.33741e-07
4.26915e-07
7.52154e-07
7.46171e-07
1.15119e-06
7.38804e-07
7.45673e-07
4.29679e-07
4.31856e-07
7.41915e-07
7.54065e-07
1.14933e-06
7.50479e-07
7.33967e-07
4.34025e-07
1.2812e-06
1.29833e-06
1.21189e-06
1.30139e-06
1.30352e-06
1.21544e-06
1.28027e-06
1.28077e-06
1.19371e-06
8.74226e-07
5.87981e-07
1.82505e-07
3.52575e-07
5.85098e-07
3.53249e-07
8.78791e-07
9.45972e-07
6.02728e-07
5.32382e-07
1.02308e-06
5.2554e-07
1.01161e-06
9.52942e-07
8.81853e-07
6.01782e-07
1.87155e-07
3.64023e-07
6.00758e-07
3.6622e-07
8.81331e-07
9.74795e-07
6.2395e-07
1.04717e-06
5.38855e-07
1.04599e-06
5.4439e-07
9.76534e-07
8.92859e-07
6.0584e-07
1.89415e-07
3.71631e-07
3.73597e-07
6.06002e-07
9.02476e-07
9.78363e-07
6.40441e-07
5.54461e-07
1.04908e-06
5.74584e-07
1.04763e-06
9.80087e-07
8.98923e-07
6.05781e-07
1.89853e-07
3.69653e-07
3.71313e-07
6.06314e-07
9.04698e-07
9.78326e-07
6.42106e-07
5.50926e-07
1.05014e-06
5.47062e-07
1.04877e-06
9.81383e-07
8.62569e-07
5.84398e-07
1.81588e-07
3.49775e-07
3.50287e-07
5.82016e-07
8.66702e-07
9.35801e-07
6.09097e-07
5.1769e-07
1.01998e-06
5.37919e-07
1.00336e-06
9.46488e-07
8.78319e-07
5.9103e-07
1.84378e-07
3.54797e-07
3.55549e-07
5.88489e-07
8.83133e-07
9.42558e-07
6.1409e-07
1.0213e-06
5.2337e-07
1.00777e-06
5.44108e-07
9.51283e-07
8.62869e-07
5.86537e-07
1.80571e-07
3.49658e-07
5.83164e-07
3.50604e-07
8.67151e-07
9.37746e-07
6.04009e-07
1.02346e-06
5.32176e-07
1.01204e-06
5.14673e-07
9.48313e-07
8.87323e-07
5.97088e-07
1.86809e-07
3.64362e-07
5.97579e-07
3.66946e-07
8.87593e-07
9.72509e-07
6.28417e-07
1.04671e-06
5.50358e-07
1.04006e-06
5.58216e-07
9.70153e-07
2.20181e-09
2.48109e-10
1.934e-11
4.60145e-12
4.42631e-12
2.30413e-09
2.63145e-10
2.10189e-11
5.22414e-12
5.05125e-12
2.17622e-09
2.45269e-10
1.91726e-11
4.60888e-12
4.43919e-12
2.33916e-09
2.67331e-10
2.13122e-11
5.24327e-12
5.06315e-12
2.31521e-09
2.64562e-10
2.11187e-11
5.23009e-12
5.05439e-12
2.29471e-09
2.62277e-10
2.09763e-11
5.2314e-12
5.06008e-12
2.18662e-09
2.46558e-10
1.92534e-11
4.59838e-12
4.42544e-12
2.28324e-09
2.60756e-10
2.08817e-11
5.23289e-12
5.06449e-12
2.23647e-09
2.51997e-10
1.96042e-11
4.62148e-12
4.44051e-12
2.16663e-09
2.4411e-10
1.90915e-11
4.60919e-12
4.44216e-12
2.14592e-09
2.42195e-10
1.89924e-11
4.60733e-12
4.44246e-12
2.2882e-09
2.61354e-10
2.09013e-11
5.22231e-12
5.05274e-12
2.12617e-09
2.39687e-10
1.87973e-11
4.5847e-12
4.42391e-12
2.14076e-09
2.41535e-10
1.89261e-11
4.58869e-12
4.42448e-12
2.25856e-09
2.57948e-10
2.06991e-11
5.22508e-12
5.0612e-12
2.26343e-09
2.58573e-10
2.07307e-11
5.2164e-12
5.05066e-12
2.2976e-09
2.61683e-10
2.09681e-11
5.27174e-12
5.10399e-12
2.21798e-09
2.49733e-10
1.94552e-11
4.62237e-12
4.44637e-12
2.3176e-09
2.64648e-10
2.1122e-11
5.24286e-12
5.06901e-12
1.96789e-09
2.23977e-10
1.81631e-11
4.85521e-12
4.73295e-12
2.02238e-09
2.3145e-10
1.87779e-11
4.98485e-12
4.85849e-12
2.24392e-09
2.55891e-10
2.06033e-11
5.26899e-12
5.11124e-12
2.18411e-09
2.46459e-10
1.92632e-11
4.6274e-12
4.45701e-12
2.18399e-09
2.46482e-10
1.92528e-11
4.60976e-12
4.43778e-12
2.35066e-09
2.6855e-10
2.14007e-11
5.26079e-12
5.07998e-12
2.35762e-09
2.69258e-10
2.14281e-11
5.24471e-12
5.06137e-12
2.13369e-09
2.41047e-10
1.89732e-11
4.65337e-12
4.49297e-12
2.15304e-09
2.42822e-10
1.9081e-11
4.67019e-12
4.50865e-12
2.11945e-09
2.39081e-10
1.8836e-11
4.64339e-12
4.48614e-12
2.13536e-09
2.40945e-10
1.89561e-11
4.66262e-12
4.50401e-12
2.08787e-09
2.38463e-10
1.94738e-11
5.21245e-12
5.08203e-12
2.07119e-09
2.36504e-10
1.93355e-11
5.20573e-12
5.07876e-12
2.10089e-09
2.39733e-10
1.95514e-11
5.23034e-12
5.09962e-12
2.08106e-09
2.37673e-10
1.94191e-11
5.2234e-12
5.0961e-12
2.32687e-09
2.65871e-10
2.12187e-11
5.24935e-12
5.07301e-12
2.30761e-09
2.63623e-10
2.10725e-11
5.24892e-12
5.07673e-12
2.31275e-09
2.64142e-10
2.10895e-11
5.2328e-12
5.05835e-12
2.20283e-09
2.48303e-10
1.93648e-11
4.61787e-12
4.44396e-12
2.15725e-09
2.43496e-10
1.91273e-11
4.65869e-12
4.49451e-12
2.17023e-09
2.44823e-10
1.92145e-11
4.67526e-12
4.51033e-12
2.10281e-09
2.40145e-10
1.95802e-11
5.21641e-12
5.0832e-12
2.11913e-09
2.4181e-10
1.96884e-11
5.2345e-12
5.10036e-12
2.29501e-09
2.6221e-10
2.09823e-11
5.24955e-12
5.07986e-12
1.98418e-09
2.25703e-10
1.82752e-11
4.85904e-12
4.73397e-12
2.02128e-09
2.31223e-10
1.87625e-11
4.98447e-12
4.85862e-12
2.30256e-09
2.62132e-10
2.10015e-11
5.28005e-12
5.112e-12
2.24703e-09
2.53111e-10
1.96868e-11
4.63967e-12
4.45821e-12
2.25913e-09
2.54179e-10
1.97309e-11
4.62314e-12
4.43878e-12
2.17316e-09
2.45054e-10
1.91624e-11
4.62595e-12
4.45849e-12
2.22969e-09
2.54209e-10
2.04941e-11
5.26758e-12
5.11273e-12
2.16043e-09
2.43575e-10
1.90799e-11
4.62424e-12
4.45877e-12
2.19775e-09
2.47987e-10
1.94004e-11
4.66215e-12
4.49046e-12
2.20556e-09
2.48906e-10
1.94676e-11
4.67876e-12
4.50709e-12
2.14716e-09
2.45114e-10
1.98968e-11
5.22374e-12
5.08213e-12
2.29547e-09
2.62413e-10
2.09851e-11
5.24041e-12
5.07033e-12
2.18517e-09
2.49099e-10
2.01404e-11
5.24548e-12
5.09958e-12
2.13301e-09
2.40686e-10
1.88696e-11
4.60355e-12
4.44288e-12
2.20316e-09
2.51134e-10
2.02804e-11
5.25092e-12
5.10108e-12
2.15764e-09
2.43152e-10
1.90333e-11
4.60923e-12
4.44397e-12
2.27387e-09
2.59784e-10
2.08211e-11
5.24247e-12
5.0771e-12
2.28791e-09
2.61353e-10
2.09167e-11
5.23712e-12
5.06832e-12
2.24658e-09
2.5567e-10
2.05709e-11
5.25988e-12
5.10247e-12
2.26694e-09
2.57844e-10
2.07133e-11
5.27285e-12
5.11253e-12
2.02687e-09
2.30407e-10
1.85704e-11
4.8698e-12
4.73805e-12
2.07532e-09
2.3732e-10
1.91402e-11
4.97765e-12
4.84055e-12
2.0891e-09
2.38845e-10
1.9248e-11
4.99715e-12
4.85924e-12
2.0225e-09
2.29542e-10
1.84946e-11
4.85035e-12
4.71853e-12
2.28489e-09
2.60286e-10
2.08627e-11
5.24654e-12
5.07902e-12
2.15461e-09
2.4341e-10
1.91199e-11
4.65403e-12
4.48955e-12
2.165e-09
2.44587e-10
1.91975e-11
4.67114e-12
4.50639e-12
2.10207e-09
2.40003e-10
1.95753e-11
5.21589e-12
5.08261e-12
2.10653e-09
2.4081e-10
1.96436e-11
5.23346e-12
5.10008e-12
2.24378e-09
2.55132e-10
2.05279e-11
5.24817e-12
5.09047e-12
1.97062e-09
2.24028e-10
1.81705e-11
4.86889e-12
4.74786e-12
2.01408e-09
2.30162e-10
1.86853e-11
4.98228e-12
4.85844e-12
2.0225e-09
2.3134e-10
1.87789e-11
4.99796e-12
4.87294e-12
1.96472e-09
2.22913e-10
1.80792e-11
4.85242e-12
4.73256e-12
2.24082e-09
2.55786e-10
2.05873e-11
5.24929e-12
5.08988e-12
2.1657e-09
2.44226e-10
1.91612e-11
4.65912e-12
4.49405e-12
2.17905e-09
2.45701e-10
1.92701e-11
4.67796e-12
4.51155e-12
2.12413e-09
2.42565e-10
1.97363e-11
5.21895e-12
5.08119e-12
2.13938e-09
2.44191e-10
1.98495e-11
5.23726e-12
5.09843e-12
2.15908e-09
2.43578e-10
1.91113e-11
4.65165e-12
4.48748e-12
2.17015e-09
2.44733e-10
1.91974e-11
4.67053e-12
4.50596e-12
2.08185e-09
2.37834e-10
1.9424e-11
5.20662e-12
5.07731e-12
2.09422e-09
2.39031e-10
1.95083e-11
5.22569e-12
5.09604e-12
2.13763e-09
2.41215e-10
1.89767e-11
4.65337e-12
4.49289e-12
2.14922e-09
2.42591e-10
1.90739e-11
4.67102e-12
4.50959e-12
2.06734e-09
2.36216e-10
1.93229e-11
5.20617e-12
5.07947e-12
2.07895e-09
2.37691e-10
1.9428e-11
5.22508e-12
5.09753e-12
1.97115e-09
2.23987e-10
1.81539e-11
4.85953e-12
4.73877e-12
2.03879e-09
2.33379e-10
1.88944e-11
4.97314e-12
4.84274e-12
2.05962e-09
2.35343e-10
1.90213e-11
4.99219e-12
4.86035e-12
1.96021e-09
2.2281e-10
1.80686e-11
4.83997e-12
4.71955e-12
2.22366e-09
2.53459e-10
2.04276e-11
5.23491e-12
5.0787e-12
1.98579e-09
2.25669e-10
1.82783e-11
4.87261e-12
4.74886e-12
2.01154e-09
2.29937e-10
1.86714e-11
4.98174e-12
4.85835e-12
2.02068e-09
2.31033e-10
1.87609e-11
4.99744e-12
4.87291e-12
1.98026e-09
2.24746e-10
1.81955e-11
4.85666e-12
4.73384e-12
2.29377e-09
2.6085e-10
2.09016e-11
5.2589e-12
5.09137e-12
2.29884e-09
2.62039e-10
2.09906e-11
5.26053e-12
5.09061e-12
2.24773e-09
2.55973e-10
2.05898e-11
5.25144e-12
5.09243e-12
1.99415e-09
2.26382e-10
1.83086e-11
4.87267e-12
4.74844e-12
2.04448e-09
2.33709e-10
1.89265e-11
4.98993e-12
4.85996e-12
2.05446e-09
2.34562e-10
1.89759e-11
5.00313e-12
4.87315e-12
1.99031e-09
2.25958e-10
1.82796e-11
4.85848e-12
4.7337e-12
1.96275e-09
2.23064e-10
1.8111e-11
4.86732e-12
4.74782e-12
2.02203e-09
2.31123e-10
1.87594e-11
4.98496e-12
4.85916e-12
2.02996e-09
2.3219e-10
1.88316e-11
4.99878e-12
4.87232e-12
1.95527e-09
2.22319e-10
1.80566e-11
4.85248e-12
4.73323e-12
2.2241e-09
2.5349e-10
2.04479e-11
5.2482e-12
5.09262e-12
2.1567e-09
2.46109e-10
1.99732e-11
5.24244e-12
5.10064e-12
2.18121e-09
2.48575e-10
2.00967e-11
5.22246e-12
5.0752e-12
1.92944e-09
2.19233e-10
1.78396e-11
4.84841e-12
4.73592e-12
1.99619e-09
2.28163e-10
1.85371e-11
4.96171e-12
4.8409e-12
1.9997e-09
2.28767e-10
1.85849e-11
4.9779e-12
4.8576e-12
1.92202e-09
2.18569e-10
1.7793e-11
4.83101e-12
4.71773e-12
2.19375e-09
2.50034e-10
2.02022e-11
5.22739e-12
5.07719e-12
1.94316e-09
2.20841e-10
1.79523e-11
4.85355e-12
4.73792e-12
1.99958e-09
2.28562e-10
1.85617e-11
4.96301e-12
4.84157e-12
2.00574e-09
2.29446e-10
1.86356e-11
4.98062e-12
4.85899e-12
1.93298e-09
2.19825e-10
1.78772e-11
4.83391e-12
4.71854e-12
1.14183e-06
1.14585e-06
1.1569e-06
1.3269e-06
1.55964e-07
1.38452e-06
5.97872e-07
3.19449e-08
1.56439e-07
1.3869e-06
1.83667e-07
6.06758e-07
1.42195e-08
7.29791e-08
1.92447e-08
1.55358e-07
1.23231e-07
2.29397e-08
1.2295e-07
2.34313e-08
1.9551e-08
1.19326e-08
3.16448e-08
7.05077e-08
6.95017e-08
1.21168e-08
1.93985e-08
1.55858e-07
2.29034e-08
1.24527e-07
2.33282e-08
1.24142e-07
1.97017e-08
1.41346e-08
1.39242e-07
3.51524e-07
7.53563e-08
2.83339e-08
3.51419e-07
2.81297e-08
1.39571e-07
1.4142e-07
3.60265e-07
3.591e-07
1.41648e-07
3.94383e-08
1.20419e-08
1.1971e-08
3.98724e-08
4.35748e-07
1.16381e-06
7.34842e-07
7.47225e-07
7.41516e-07
7.53419e-07
4.33309e-07
1.28323e-06
1.20993e-06
1.29287e-06
1.29369e-06
1.21254e-06
9.4841e-07
6.12822e-07
5.3003e-07
1.0066e-06
5.24707e-07
1.01803e-06
9.40761e-07
8.83338e-07
5.8774e-07
1.82802e-07
3.54892e-07
3.53471e-07
5.92312e-07
8.75114e-07
9.50885e-07
6.03773e-07
1.00818e-06
5.36341e-07
1.01948e-06
5.29438e-07
9.44108e-07
8.88057e-07
6.01382e-07
6.01016e-07
8.94185e-07
1.14475e-06
1.15043e-06
1.14044e-06
1.31587e-06
1.42599e-08
1.39332e-08
7.45448e-08
7.39585e-08
3.20908e-08
1.67146e-07
1.89267e-07
1.40807e-06
6.50702e-07
3.11426e-08
1.80978e-07
1.4165e-08
1.3819e-08
1.38504e-07
3.57845e-07
7.69232e-08
2.86187e-08
2.84738e-08
3.57719e-07
1.38921e-07
1.37518e-07
3.48194e-07
7.27692e-08
2.79919e-08
2.76434e-08
3.47727e-07
1.37836e-07
3.81492e-08
1.18452e-08
1.17059e-08
1.17976e-08
1.16347e-08
3.84179e-08
1.21901e-08
3.17925e-08
7.25745e-08
7.14105e-08
1.23243e-08
2.08344e-08
1.66263e-07
2.43931e-08
1.32172e-07
2.48175e-08
1.31449e-07
2.04309e-08
1.17234e-08
3.07424e-08
6.89357e-08
6.78593e-08
1.1799e-08
4.25345e-07
1.15864e-06
7.41304e-07
7.36026e-07
7.46236e-07
7.43924e-07
4.27749e-07
1.28724e-06
9.10586e-07
6.06111e-07
1.88354e-07
3.72633e-07
6.06277e-07
3.71177e-07
8.95305e-07
9.80709e-07
6.44164e-07
5.59194e-07
1.05143e-06
5.73692e-07
1.0512e-06
9.78391e-07
8.70835e-07
5.81441e-07
1.80215e-07
3.50545e-07
5.83445e-07
3.49392e-07
8.65673e-07
2.23529e-09
2.51695e-10
1.95961e-11
4.63858e-12
4.45953e-12
2.34099e-09
2.67082e-10
2.13054e-11
5.25949e-12
5.08136e-12
2.2575e-09
2.57414e-10
2.07026e-11
5.25517e-12
5.09266e-12
2.21323e-09
2.49331e-10
1.94425e-11
4.61815e-12
4.44138e-12
2.31816e-09
2.64868e-10
2.11569e-11
5.24031e-12
5.06438e-12
1.93928e-09
2.20612e-10
1.79424e-11
4.85066e-12
4.73466e-12
2.01369e-09
2.29982e-10
1.86821e-11
4.99697e-12
4.87477e-12
2.0032e-09
2.28641e-10
1.85862e-11
4.9811e-12
4.86028e-12
1.95847e-09
2.2225e-10
1.80494e-11
4.86637e-12
4.74874e-12
1.95649e-09
2.22376e-10
1.80551e-11
4.85494e-12
4.73606e-12
2.01425e-09
2.29953e-10
1.86753e-11
4.99674e-12
4.8749e-12
2.00261e-09
2.28626e-10
1.85834e-11
4.98071e-12
4.86008e-12
1.97134e-09
2.23827e-10
1.81498e-11
4.86986e-12
4.74973e-12
2.28697e-09
2.6013e-10
2.08721e-11
5.27739e-12
5.11258e-12
2.16369e-09
2.439e-10
1.91513e-11
4.6755e-12
4.51231e-12
2.1458e-09
2.42042e-10
1.90276e-11
4.65615e-12
4.49473e-12
2.12843e-09
2.42529e-10
1.97347e-11
5.2356e-12
5.09985e-12
2.10481e-09
2.40282e-10
1.95883e-11
5.21673e-12
5.0833e-12
2.32125e-09
2.64654e-10
2.11269e-11
5.24803e-12
5.07416e-12
2.29881e-09
2.62179e-10
2.09743e-11
5.24733e-12
5.07781e-12
2.20144e-09
2.47895e-10
1.93374e-11
4.62024e-12
4.44726e-12
2.17752e-09
2.45069e-10
1.91687e-11
4.62621e-12
4.45834e-12
2.29867e-09
2.62603e-10
2.09995e-11
5.22767e-12
5.05511e-12
2.27336e-09
2.59803e-10
2.08238e-11
5.22837e-12
5.06107e-12
2.26243e-09
2.579e-10
2.07195e-11
5.24369e-12
5.07984e-12
2.1794e-09
2.45698e-10
1.91951e-11
4.5981e-12
4.42676e-12
2.14935e-09
2.42651e-10
1.90199e-11
4.60581e-12
4.43999e-12
2.08696e-09
2.37943e-10
1.94355e-11
5.22485e-12
5.09718e-12
2.0715e-09
2.36213e-10
1.93265e-11
5.22341e-12
5.09852e-12
2.21646e-09
2.52819e-10
2.03978e-11
5.24608e-12
5.0919e-12
2.23467e-09
2.545e-10
2.05069e-11
5.26699e-12
5.11181e-12
2.1599e-09
2.43586e-10
1.91239e-11
4.66969e-12
4.50711e-12
2.14598e-09
2.41926e-10
1.90096e-11
4.64994e-12
4.48839e-12
2.13778e-09
2.40884e-10
1.89644e-11
4.66945e-12
4.51089e-12
2.11092e-09
2.38424e-10
1.8804e-11
4.64961e-12
4.49364e-12
2.05193e-09
2.34495e-10
1.92165e-11
5.20494e-12
5.0813e-12
2.06958e-09
2.36352e-10
1.93276e-11
5.20552e-12
5.07892e-12
2.00353e-09
2.27628e-10
1.83844e-11
4.84862e-12
4.71989e-12
2.0737e-09
2.37001e-10
1.91312e-11
4.99476e-12
4.85977e-12
2.05914e-09
2.35144e-10
1.90012e-11
4.97399e-12
4.84048e-12
2.01483e-09
2.28956e-10
1.8473e-11
4.86699e-12
4.73774e-12
2.28415e-09
2.601e-10
2.08643e-11
5.26891e-12
5.10387e-12
1.13828e-06
1.32408e-06
1.13338e-06
1.14385e-06
1.13707e-06
1.14269e-06
1.13103e-06
1.14719e-06
1.15349e-06
1.1452e-06
1.12608e-06
1.1208e-06
1.12012e-06
1.14154e-06
1.14836e-06
6.7765e-08
6.92148e-08
1.14289e-06
6.83083e-08
7.00137e-08
1.60657e-07
3.15262e-08
1.6543e-07
1.38333e-08
1.38125e-08
2.9585e-08
1.55286e-07
1.33229e-06
1.33119e-06
1.34039e-06
1.8196e-07
1.36726e-06
1.15776e-06
5.78022e-07
1.36913e-08
1.39914e-06
1.83375e-07
6.07879e-07
6.78393e-08
7.00687e-08
1.33572e-08
1.33455e-08
1.35245e-08
1.35866e-08
1.14743e-06
6.99656e-08
7.07603e-08
7.0725e-08
7.12126e-08
1.34131e-08
1.3443e-08
1.37613e-08
1.3802e-08
1.39344e-08
1.32654e-08
7.14922e-08
6.72262e-08
1.59704e-07
3.09677e-08
3.06868e-08
1.64849e-07
5.90238e-07
1.89354e-07
1.40776e-06
1.38814e-06
6.10532e-07
5.88884e-07
1.88023e-07
1.41354e-06
1.15557e-06
1.85582e-07
1.38883e-06
6.24168e-07
7.16567e-08
7.01166e-08
1.14423e-06
7.04537e-08
1.37535e-08
1.77357e-07
1.36282e-06
5.84309e-07
3.07165e-08
1.5607e-07
1.36758e-06
1.82112e-07
5.80155e-07
3.02473e-08
1.55509e-07
1.36276e-06
1.78821e-07
5.71096e-07
2.94849e-08
1.53088e-07
6.92794e-08
6.90119e-08
1.34054e-08
1.39587e-06
1.86214e-07
6.10349e-07
2.97324e-08
1.63798e-07
3.05817e-08
1.6405e-07
1.34773e-08
1.38341e-08
3.77445e-08
1.16769e-08
1.16351e-08
1.17629e-08
1.17134e-08
3.83843e-08
1.38816e-07
3.46217e-07
2.77956e-08
7.16413e-08
2.82758e-08
1.38548e-07
3.4884e-07
1.39348e-07
3.51114e-07
2.75035e-08
7.15595e-08
2.78764e-08
1.38831e-07
3.54905e-07
3.81721e-08
1.17522e-08
1.15912e-08
1.18251e-08
1.17482e-08
3.87818e-08
1.38887e-07
2.79808e-08
6.91374e-08
3.46881e-07
2.82516e-08
1.39235e-07
3.49572e-07
1.39239e-07
2.77357e-08
7.26667e-08
3.51365e-07
2.79364e-08
1.39523e-07
3.55128e-07
1.97629e-08
2.30692e-08
1.27544e-07
1.62386e-07
2.34709e-08
1.2872e-07
1.98489e-08
1.2147e-08
3.20177e-08
6.87017e-08
6.91193e-08
1.22009e-08
1.20683e-08
3.15135e-08
6.77068e-08
2.02282e-08
1.64889e-07
2.36159e-08
1.3116e-07
2.40391e-08
1.30787e-07
2.02117e-08
1.40059e-08
1.40147e-08
1.15386e-08
3.02157e-08
6.34548e-08
6.54674e-08
1.16271e-08
1.91007e-08
1.55731e-07
1.22388e-07
2.24922e-08
1.22975e-07
2.28266e-08
1.92203e-08
1.37806e-08
1.39653e-07
3.47286e-07
2.77722e-08
7.02978e-08
1.39276e-07
3.50049e-07
2.80845e-08
1.39945e-07
3.52636e-07
2.7614e-08
7.29464e-08
1.39285e-07
3.56011e-07
2.79732e-08
3.80981e-08
1.16829e-08
1.16487e-08
3.91954e-08
1.17702e-08
1.17569e-08
1.34454e-08
1.35099e-08
1.37991e-08
1.3667e-08
3.78377e-08
1.17852e-08
1.17347e-08
3.89371e-08
1.17404e-08
1.17415e-08
1.38781e-07
3.50459e-07
2.80588e-08
6.95792e-08
1.39507e-07
2.81273e-08
3.49356e-07
1.39525e-07
3.55884e-07
2.77448e-08
7.09565e-08
1.40162e-07
2.78853e-08
3.5518e-07
3.83008e-08
1.1729e-08
1.17265e-08
3.87444e-08
1.1711e-08
1.16923e-08
1.39601e-07
2.82196e-08
3.48771e-07
6.97802e-08
1.39076e-07
2.83463e-08
3.49796e-07
1.40134e-07
2.80183e-08
3.5517e-07
7.30838e-08
1.39104e-07
2.80093e-08
3.56073e-07
1.35592e-08
1.3535e-08
1.37904e-08
1.38127e-08
1.40279e-08
1.38832e-08
1.33911e-08
1.38651e-07
3.54743e-07
7.24125e-08
2.7983e-08
2.82779e-08
3.60134e-07
1.38161e-07
1.35913e-07
3.38725e-07
6.93937e-08
2.66586e-08
2.70956e-08
3.44617e-07
1.35238e-07
7.19663e-08
3.58739e-07
3.71453e-08
1.1534e-08
1.13016e-08
1.16274e-08
1.14259e-08
3.80578e-08
1.94449e-08
2.28719e-08
1.25993e-07
1.61302e-07
2.33028e-08
1.2725e-07
1.94222e-08
1.19153e-08
3.15894e-08
6.74632e-08
7.02754e-08
1.20523e-08
1.18834e-08
6.54679e-08
3.15572e-08
6.65455e-08
1.17733e-08
1.99515e-08
1.6409e-07
2.34254e-08
1.2994e-07
2.38856e-08
1.29457e-07
1.99958e-08
3.74665e-08
1.17145e-08
1.17757e-08
1.16684e-08
1.3947e-07
3.54398e-07
7.51944e-08
2.78207e-08
2.82065e-08
3.58517e-07
1.39638e-07
1.39263e-07
3.52032e-07
7.16508e-08
2.78953e-08
3.53957e-07
2.82735e-08
1.38778e-07
1.38938e-07
2.80282e-08
7.17527e-08
3.51238e-07
2.83482e-08
3.56295e-07
1.3948e-07
1.39496e-07
7.10345e-08
3.5404e-07
2.81546e-08
3.7637e-08
1.16705e-08
1.16505e-08
1.18188e-08
1.17141e-08
3.86046e-08
1.38498e-08
1.37683e-08
1.18216e-08
3.09724e-08
6.56915e-08
6.71689e-08
1.19529e-08
1.9259e-08
1.56711e-07
2.25414e-08
1.24686e-07
2.27405e-08
1.2488e-07
1.95597e-08
1.92057e-08
1.55082e-07
1.24764e-07
2.24258e-08
1.17684e-08
3.0714e-08
6.53806e-08
6.68379e-08
1.18356e-08
1.18469e-08
3.06024e-08
6.62154e-08
1.92709e-08
1.55873e-07
1.24619e-07
2.23176e-08
1.25054e-07
2.25801e-08
1.94104e-08
1.8619e-08
1.53365e-07
2.21018e-08
1.21303e-07
1.1442e-08
2.9931e-08
6.32275e-08
6.4794e-08
1.14468e-08
1.14383e-08
2.98038e-08
6.43535e-08
1.87037e-08
1.53914e-07
2.21648e-08
1.21228e-07
2.219e-08
1.21763e-07
1.87275e-08
1.40353e-07
3.48773e-07
7.13663e-08
2.79822e-08
2.83047e-08
3.51395e-07
1.39881e-07
1.39621e-07
3.50408e-07
7.08586e-08
2.78147e-08
3.54995e-07
2.81435e-08
1.39277e-07
3.81625e-08
1.17558e-08
1.17043e-08
1.18044e-08
1.18217e-08
3.91054e-08
1.35193e-08
1.16852e-08
3.05152e-08
6.60825e-08
6.74863e-08
1.17736e-08
1.95091e-08
1.64991e-07
1.28705e-07
2.31263e-08
1.29093e-07
2.33903e-08
1.97849e-08
1.17377e-08
3.10472e-08
6.64342e-08
6.85879e-08
1.17766e-08
1.94226e-08
1.65099e-07
1.27529e-07
2.31111e-08
1.28169e-07
2.33811e-08
1.97748e-08
1.35463e-08
1.34057e-08
1.37811e-08
4.20679e-07
7.36744e-07
7.46822e-07
1.13945e-06
4.34635e-07
7.33576e-07
7.43661e-07
1.29347e-06
1.3088e-06
1.21085e-06
4.24011e-07
7.34243e-07
7.46095e-07
1.141e-06
4.27346e-07
7.33171e-07
7.47449e-07
4.20254e-07
1.1566e-06
7.41757e-07
7.51798e-07
4.3511e-07
7.46998e-07
7.52315e-07
4.11218e-07
7.47523e-07
7.30998e-07
1.13983e-06
7.44778e-07
7.29549e-07
4.22882e-07
4.19377e-07
7.44191e-07
7.43767e-07
1.14983e-06
7.41478e-07
7.42072e-07
4.23086e-07
4.19532e-07
7.32439e-07
7.44076e-07
1.14288e-06
7.45789e-07
7.33109e-07
4.20976e-07
4.26107e-07
1.14563e-06
7.38993e-07
7.51176e-07
4.2597e-07
7.42293e-07
7.53372e-07
1.30472e-06
1.30605e-06
1.22129e-06
1.30687e-06
1.3048e-06
1.2336e-06
1.30685e-06
1.30808e-06
1.22861e-06
8.65965e-07
5.87089e-07
1.83078e-07
3.52048e-07
5.87042e-07
3.54015e-07
8.71724e-07
8.79517e-07
1.82002e-07
5.90963e-07
3.52278e-07
9.35657e-07
5.95354e-07
5.10136e-07
9.98255e-07
5.27353e-07
9.98139e-07
9.37349e-07
8.69622e-07
5.91048e-07
1.84364e-07
3.61059e-07
5.95441e-07
3.65408e-07
8.82698e-07
9.74776e-07
6.2871e-07
1.04306e-06
5.26464e-07
1.04239e-06
5.34309e-07
9.76174e-07
4.33087e-07
1.14068e-06
7.39944e-07
7.47938e-07
4.3032e-07
7.35617e-07
7.45732e-07
9.81808e-07
5.19907e-07
1.04394e-06
6.15672e-07
5.38288e-07
1.0544e-06
9.72643e-07
8.85885e-07
6.0656e-07
1.90751e-07
3.6925e-07
3.71271e-07
6.11038e-07
8.87715e-07
8.80723e-07
1.87814e-07
3.63365e-07
6.04779e-07
9.7795e-07
6.1317e-07
5.31517e-07
1.04804e-06
5.35916e-07
1.04821e-06
9.76985e-07
9.71774e-07
5.09605e-07
1.03438e-06
6.04408e-07
5.1893e-07
1.04429e-06
9.65526e-07
8.83922e-07
6.02958e-07
1.8909e-07
3.69871e-07
3.70383e-07
6.06992e-07
9.00599e-07
8.823e-07
3.5864e-07
1.86614e-07
5.97129e-07
3.63966e-07
8.7087e-07
5.99836e-07
9.76505e-07
6.24927e-07
5.4234e-07
1.04631e-06
5.26785e-07
1.0452e-06
9.74087e-07
4.28057e-07
1.14966e-06
7.42952e-07
7.49331e-07
7.5339e-07
7.45397e-07
4.23249e-07
8.40988e-07
5.74441e-07
1.78324e-07
3.45301e-07
3.47e-07
5.76083e-07
8.58685e-07
9.29245e-07
6.00926e-07
4.99286e-07
1.00125e-06
5.17738e-07
9.99926e-07
9.29602e-07
8.60602e-07
5.83851e-07
1.8296e-07
3.51453e-07
3.52888e-07
5.86125e-07
8.72079e-07
9.37345e-07
5.94987e-07
1.00467e-06
5.03536e-07
1.00513e-06
5.17518e-07
9.33085e-07
8.4802e-07
5.79327e-07
1.7961e-07
3.45623e-07
5.82281e-07
3.47014e-07
8.62242e-07
9.3038e-07
5.86744e-07
9.95984e-07
4.94599e-07
9.9637e-07
5.0758e-07
9.27829e-07
8.82348e-07
5.94838e-07
1.87202e-07
3.64934e-07
5.99181e-07
3.67169e-07
8.84079e-07
9.69669e-07
6.27572e-07
1.04029e-06
5.20059e-07
1.04319e-06
5.37306e-07
9.67933e-07
1.32458e-06
1.14535e-06
1.15708e-06
1.1462e-06
1.32574e-06
1.14681e-06
1.15758e-06
1.13723e-06
1.3192e-06
1.14918e-06
1.15433e-06
1.13236e-06
1.32101e-06
1.14749e-06
1.15547e-06
1.1385e-06
1.32441e-06
1.14813e-06
1.15375e-06
1.13606e-06
1.32643e-06
1.14137e-06
1.15398e-06
1.14174e-06
1.32662e-06
1.14003e-06
1.15752e-06
1.14304e-06
1.33126e-06
1.1426e-06
1.15606e-06
1.1464e-06
1.3281e-06
1.14038e-06
1.15522e-06
1.14467e-06
1.33144e-06
1.14485e-06
1.16205e-06
1.14234e-06
1.32908e-06
1.14932e-06
1.15772e-06
1.14134e-06
1.32918e-06
1.14613e-06
1.1565e-06
1.13509e-06
1.32491e-06
1.14364e-06
1.15781e-06
1.13786e-06
1.33143e-06
1.14295e-06
1.1567e-06
1.14225e-06
1.32484e-06
1.14069e-06
1.15515e-06
1.13528e-06
1.32513e-06
1.13731e-06
1.14746e-06
1.14425e-06
1.15048e-06
1.15298e-06
1.15136e-06
1.13963e-06
1.13748e-06
1.14632e-06
1.13934e-06
1.14501e-06
1.15857e-06
1.1574e-06
1.14599e-06
1.15857e-06
1.15195e-06
1.15525e-06
1.15323e-06
1.15339e-06
1.15347e-06
1.15908e-06
1.14678e-06
1.14067e-06
1.13752e-06
1.14354e-06
1.13929e-06
1.13509e-06
1.14567e-06
1.13462e-06
1.15896e-06
1.14469e-06
1.15774e-06
1.16126e-06
1.15863e-06
1.14343e-06
1.15725e-06
1.14552e-06
1.15439e-06
1.1572e-06
1.15766e-06
1.15442e-06
1.15373e-06
1.14974e-06
1.14713e-06
1.13988e-06
1.14487e-06
1.14177e-06
1.13494e-06
1.14536e-06
1.13594e-06
1.15799e-06
1.14871e-06
1.16249e-06
1.159e-06
1.15943e-06
1.13552e-06
1.15324e-06
1.1413e-06
1.15376e-06
1.15571e-06
1.15665e-06
1.15589e-06
1.16507e-06
1.14916e-06
1.14593e-06
1.14645e-06
1.14472e-06
1.14522e-06
1.1354e-06
1.14388e-06
1.1372e-06
1.15069e-06
1.15013e-06
1.16205e-06
1.1589e-06
1.16042e-06
1.13756e-06
1.16621e-06
1.14347e-06
1.15853e-06
1.1567e-06
1.15884e-06
1.15706e-06
1.16643e-06
1.14452e-06
1.14129e-06
1.14622e-06
1.14336e-06
1.14288e-06
1.13622e-06
1.14529e-06
1.14164e-06
1.15731e-06
1.14621e-06
1.15837e-06
1.1582e-06
1.15463e-06
1.14131e-06
1.15319e-06
1.13928e-06
1.16117e-06
1.15768e-06
1.15652e-06
1.15736e-06
1.15356e-06
1.13765e-06
1.14386e-06
1.14637e-06
1.14123e-06
1.14212e-06
1.13779e-06
1.14219e-06
1.13738e-06
1.15812e-06
1.14638e-06
1.15453e-06
1.15404e-06
1.15506e-06
1.14636e-06
1.1422e-06
1.14001e-06
1.15561e-06
1.15265e-06
1.1567e-06
1.15229e-06
1.15042e-06
1.14542e-06
1.14212e-06
1.14292e-06
1.13981e-06
1.14384e-06
1.13657e-06
1.14035e-06
1.13586e-06
1.15273e-06
1.14895e-06
1.15857e-06
1.15447e-06
1.16166e-06
1.14286e-06
1.14877e-06
1.14465e-06
1.15825e-06
1.15183e-06
1.159e-06
1.15677e-06
1.1586e-06
1.14076e-06
1.13896e-06
1.14091e-06
1.1387e-06
1.14037e-06
1.13693e-06
1.14014e-06
1.13647e-06
1.15666e-06
1.1513e-06
1.15714e-06
1.15903e-06
1.15874e-06
1.14696e-06
1.15133e-06
1.14236e-06
1.15377e-06
1.15206e-06
1.15851e-06
1.15183e-06
1.14873e-06
1.1481e-06
1.13839e-06
1.14059e-06
1.14272e-06
1.14273e-06
1.13716e-06
1.13828e-06
1.13782e-06
1.16696e-06
1.14223e-06
1.16325e-06
1.15959e-06
1.15785e-06
1.14906e-06
1.15374e-06
1.13573e-06
1.15506e-06
1.15582e-06
1.1528e-06
1.15479e-06
1.15961e-06
1.14746e-06
1.13815e-06
1.14132e-06
1.14447e-06
1.13773e-06
1.13903e-06
1.14255e-06
1.14128e-06
1.15987e-06
1.14308e-06
1.16148e-06
1.16081e-06
1.15743e-06
1.15078e-06
1.14741e-06
1.13866e-06
1.15229e-06
1.15639e-06
1.15353e-06
1.15372e-06
1.14887e-06
1.14824e-06
1.14022e-06
1.13787e-06
1.14376e-06
1.14416e-06
1.14107e-06
1.15224e-06
1.14317e-06
1.15495e-06
1.14644e-06
1.15703e-06
1.15763e-06
1.15751e-06
1.14684e-06
1.14175e-06
1.12991e-06
1.15623e-06
1.15816e-06
1.15195e-06
1.16148e-06
1.16207e-06
1.15221e-06
1.13989e-06
1.14013e-06
1.13792e-06
1.13979e-06
1.14089e-06
1.14907e-06
1.13985e-06
1.15449e-06
1.14445e-06
1.16019e-06
1.15754e-06
1.15875e-06
1.15091e-06
1.14588e-06
1.13471e-06
1.15159e-06
1.15607e-06
1.15338e-06
1.15858e-06
1.16418e-06
1.14568e-06
1.13785e-06
1.1383e-06
1.13816e-06
1.14414e-06
1.1381e-06
1.14611e-06
1.14253e-06
1.15653e-06
1.14532e-06
1.15855e-06
1.15949e-06
1.16313e-06
1.14002e-06
1.14913e-06
1.13774e-06
1.15272e-06
1.15963e-06
1.15405e-06
1.16421e-06
1.15145e-06
1.14796e-06
1.13647e-06
1.14162e-06
1.13892e-06
1.14124e-06
1.1404e-06
1.14734e-06
1.14209e-06
1.16064e-06
1.14882e-06
1.16088e-06
1.15893e-06
1.16871e-06
1.14745e-06
1.14657e-06
1.13645e-06
1.15114e-06
1.15646e-06
1.15426e-06
1.1627e-06
1.16269e-06
1.14693e-06
1.13792e-06
1.13403e-06
1.14749e-06
1.14207e-06
1.13872e-06
1.14757e-06
1.14084e-06
1.15401e-06
1.14269e-06
1.15917e-06
1.16292e-06
1.16489e-06
1.15069e-06
1.14637e-06
1.13266e-06
1.14911e-06
1.15409e-06
1.15917e-06
1.15823e-06
1.15742e-06
1.1446e-06
1.135e-06
1.13217e-06
1.14339e-06
1.14617e-06
1.13098e-06
1.15545e-06