/*--------------------------------*- C++ -*----------------------------------*\
| =========                 |                                                 |
| \\      /  F ield         | OpenFOAM: The Open Source CFD Toolbox           |
|  \\    /   O peration     | Version:  2206                                  |
|   \\  /    A nd           | Website:  www.openfoam.com                      |
|    \\/     M anipulation  |                                                 |
\*---------------------------------------------------------------------------*/
FoamFile
{
    version     2.0;
    format      ascii;
    arch        "LSB;label=32;scalar=64";
    class       volVectorField;
    location    "30";
    object      wallShearStress;
}
// * * * * * * * * * * * * * * * * * * * * * * * * * * * * * * * * * * * * * //

dimensions      [0 2 -2 0 0 0 0];

internalField   uniform (0 0 0);

boundaryField
{
    topPatch
    {
        type            calculated;
        value           nonuniform List<vector> 0();
    }
    wall
    {
        type            calculated;
        value           nonuniform List<vector> 
7803
(
(-1.6731e-08 -9.46627e-09 -0.000147872)
(1.43195e-08 -4.60497e-09 -0.000158054)
(-6.57726e-09 -1.46406e-08 -0.000148117)
(-1.06332e-08 7.41889e-09 -0.000158215)
(-1.07248e-08 -6.30425e-09 -0.000158036)
(-5.32163e-09 -1.35972e-08 -0.000158194)
(1.73594e-08 -1.01122e-08 -0.000147884)
(1.03007e-08 -1.2146e-08 -0.000158206)
(-8.03691e-09 1.24354e-08 -0.000148153)
(1.00503e-08 -6.82954e-09 -0.000148141)
(1.50404e-08 8.25139e-09 -0.000148126)
(-1.27011e-08 3.97813e-09 -0.000158041)
(-1.19078e-08 1.52692e-08 -0.000147846)
(1.08297e-08 3.66516e-10 -0.000147882)
(5.58393e-09 8.03251e-09 -0.000158189)
(1.8826e-08 9.86793e-09 -0.000158033)
(-4.1796e-09 1.21034e-08 -0.000158742)
(2.10899e-08 3.49769e-09 -0.000148207)
(-9.63241e-09 3.05345e-09 -0.000158326)
(-1.32156e-08 1.54137e-08 -0.000152765)
(-1.04953e-08 5.67305e-09 -0.000154889)
(1.59246e-08 -1.83149e-08 -0.000158863)
(7.01804e-09 1.02946e-08 -0.000148403)
(-9.59603e-09 -1.12735e-08 -0.000148089)
(4.97258e-09 -8.80838e-09 -0.000158473)
(-8.10939e-09 1.06678e-08 -0.000158184)
(1.61764e-08 6.80913e-09 -0.000149005)
(-1.59816e-08 -1.3602e-09 -0.000149267)
(1.00431e-08 2.39366e-09 -0.000148906)
(2.77371e-09 -6.37881e-09 -0.000149177)
(-2.6678e-10 1.10248e-08 -0.000158546)
(2.5495e-08 -2.90146e-09 -0.000158487)
(1.98863e-10 -1.08843e-08 -0.0001588)
(-1.52687e-08 -9.83657e-10 -0.000158762)
(1.29329e-08 2.24302e-09 -0.000158324)
(7.44975e-09 3.5017e-09 -0.000158449)
(-5.20222e-09 -1.35186e-08 -0.000158165)
(-1.56763e-08 6.42605e-09 -0.000148192)
(1.05329e-08 -3.1976e-09 -0.000149032)
(-1.12957e-08 -3.75058e-09 -0.000149277)
(4.57671e-09 -1.44947e-08 -0.000158556)
(-3.54294e-10 1.52104e-08 -0.00015882)
(-7.03281e-09 5.6256e-09 -0.000158441)
(-1.31566e-08 -1.54879e-08 -0.000152777)
(-9.37024e-09 -3.53788e-09 -0.00015489)
(1.47949e-08 1.46417e-08 -0.00015889)
(5.56286e-09 -1.22593e-08 -0.000148436)
(-9.71634e-09 1.05876e-08 -0.00014812)
(-3.95362e-09 1.34804e-08 -0.000148396)
(-9.68942e-09 1.06081e-08 -0.000158865)
(-8.11348e-09 -1.14656e-08 -0.000148394)
(-5.04775e-09 1.71031e-08 -0.000148919)
(9.74931e-09 -7.97991e-09 -0.000149198)
(-1.3032e-08 1.61094e-09 -0.00015853)
(1.33492e-08 -5.48968e-10 -0.000158303)
(-2.22428e-09 -6.27469e-09 -0.000158669)
(2.37848e-08 -2.34142e-09 -0.000148169)
(2.68788e-09 -2.15361e-08 -0.000158709)
(-1.50041e-08 -1.99639e-09 -0.000148181)
(-5.53545e-09 -5.6263e-09 -0.000158422)
(-8.53119e-09 -6.44895e-09 -0.000158319)
(6.29579e-09 1.15477e-08 -0.000158721)
(-1.39384e-08 -9.32456e-09 -0.000158879)
(-1.08591e-08 1.12393e-08 -0.000152878)
(5.08547e-09 -1.32382e-08 -0.000154646)
(-5.93294e-09 9.76341e-09 -0.000154941)
(1.41666e-08 -1.46097e-08 -0.000152562)
(8.34541e-09 -1.56316e-08 -0.000158354)
(1.33218e-08 -9.22408e-09 -0.000148927)
(-3.21646e-09 1.08693e-08 -0.000149204)
(2.29535e-08 6.6507e-09 -0.000158511)
(-1.22871e-08 -3.26824e-10 -0.00015877)
(-1.53535e-08 9.47281e-09 -0.000158548)
(1.06434e-08 -1.51653e-08 -0.000152994)
(-1.13712e-08 6.01058e-09 -0.000154895)
(8.33893e-09 -2.80982e-09 -0.00015511)
(-1.18841e-08 1.25542e-08 -0.000152765)
(-1.72951e-08 1.6109e-08 -0.000158536)
(-1.0448e-08 1.91802e-09 -0.000149012)
(8.90186e-09 -5.16794e-10 -0.000149284)
(-1.80362e-09 1.89451e-08 -0.000158524)
(6.40642e-09 -7.09359e-09 -0.000158788)
(-3.86483e-09 -1.46189e-08 -0.000148895)
(8.12433e-09 6.83415e-09 -0.000149199)
(-1.49569e-08 -7.11079e-10 -0.000158488)
(2.19097e-08 -7.11378e-09 -0.000158771)
(-1.06686e-08 -3.6132e-09 -0.00014901)
(1.27205e-08 -2.24e-09 -0.000149277)
(-1.49738e-09 -1.61977e-08 -0.000158505)
(3.45939e-09 1.03659e-08 -0.000158781)
(1.15059e-08 1.16453e-08 -0.000152867)
(-5.50578e-10 -1.17627e-08 -0.000154653)
(4.89865e-09 8.67933e-09 -0.000154932)
(-1.10134e-08 -1.41074e-08 -0.000152559)
(-1.32436e-08 -1.85561e-08 -0.000158352)
(1.06721e-08 1.4903e-08 -0.000153007)
(-1.08182e-08 -5.52588e-09 -0.000154893)
(8.11706e-09 3.83107e-09 -0.000155107)
(-1.21e-08 -1.33676e-08 -0.000152781)
(-1.64841e-08 -1.3151e-08 -0.000158578)
(-1.72152e-08 -1.84718e-08 -0.000158564)
(1.99242e-08 2.05449e-08 -0.000158576)
(-7.77077e-09 -1.44745e-08 -0.000153032)
(1.32122e-08 2.23965e-09 -0.000154943)
(-8.03794e-09 -7.11287e-09 -0.000155142)
(1.21151e-08 1.46975e-08 -0.00015281)
(-1.13224e-08 1.40456e-08 -0.000153019)
(9.23486e-09 -2.24608e-09 -0.000154933)
(-7.33842e-09 8.03563e-09 -0.000155125)
(1.30118e-08 -1.61955e-08 -0.000152793)
(1.8479e-08 -2.24014e-08 -0.000158567)
(2.52593e-08 1.17015e-08 -0.000158802)
(1.81361e-08 1.71611e-08 -0.000158302)
(-1.10207e-08 -1.69626e-08 -0.000152838)
(2.89353e-09 5.57859e-09 -0.000154632)
(-6.77224e-09 -7.14788e-09 -0.000154895)
(1.29021e-08 1.51083e-08 -0.000152519)
(-1.27314e-08 2.29655e-08 -0.00015832)
(1.18908e-08 -2.54287e-09 -0.000152843)
(-2.33726e-09 1.825e-08 -0.000154624)
(5.52709e-09 -9.71205e-09 -0.000154914)
(-1.28585e-08 1.20283e-08 -0.000152549)
(5.06145e-09 -9.00743e-09 -0.000148453)
(5.41423e-09 -1.23788e-08 -0.000158493)
(-1.77288e-08 -1.34723e-08 -0.000158591)
(-5.05907e-09 1.53914e-08 -0.000148163)
(-1.0515e-08 6.40065e-09 -0.000158226)
(-1.20656e-08 1.93431e-08 -0.000152797)
(7.72106e-09 4.27809e-10 -0.000155142)
(-1.02314e-08 9.92219e-09 -0.000154917)
(8.68091e-09 -1.25693e-08 -0.000153009)
(-1.31973e-08 -2.0135e-08 -0.000152812)
(7.33852e-09 8.25531e-10 -0.000155142)
(-8.83164e-09 -7.53549e-09 -0.000154916)
(8.88194e-09 1.08593e-08 -0.000153023)
(1.47274e-08 1.74241e-08 -0.000158897)
(6.06106e-09 -1.25026e-09 -0.000149292)
(-9.21748e-09 3.51571e-09 -0.000149021)
(7.41885e-09 -7.3536e-09 -0.000158812)
(-3.2923e-09 1.47995e-08 -0.000158556)
(1.3066e-08 2.67215e-09 -0.000158337)
(8.17251e-09 6.54361e-09 -0.000158463)
(1.67801e-08 6.31426e-09 -0.00014822)
(5.64451e-09 8.68904e-09 -0.000148419)
(-1.43966e-08 -4.6399e-09 -0.000158042)
(-7.55538e-09 -1.2829e-08 -0.000158203)
(6.0429e-09 -1.61587e-08 -0.000158363)
(-2.14094e-08 -6.14159e-09 -0.000147876)
(-5.55051e-09 -1.57102e-08 -0.000148128)
(2.29491e-08 -9.95844e-09 -0.000158785)
(2.51275e-09 1.27752e-08 -0.000158794)
(-1.61939e-08 1.09068e-08 -0.000158564)
(1.5474e-08 -2.08586e-08 -0.000158869)
(9.96444e-09 6.59672e-09 -0.000149216)
(-6.69823e-09 -1.16796e-08 -0.000148905)
(9.57048e-09 3.08124e-10 -0.000149291)
(-9.41842e-09 -4.22221e-09 -0.000149022)
(-8.27086e-10 -1.7026e-08 -0.000158531)
(-1.7005e-08 4.95474e-10 -0.000158512)
(1.54861e-08 -1.52838e-08 -0.000152581)
(7.89976e-09 8.08269e-09 -0.000154946)
(5.51202e-09 -1.08484e-08 -0.000154643)
(-6.37039e-09 1.09212e-08 -0.000152874)
(-9.32231e-09 1.41622e-08 -0.000158738)
(-2.92585e-08 -1.71813e-08 -0.000147828)
(2.32973e-08 -5.4425e-09 -0.000157984)
(2.98019e-09 2.32252e-08 -0.000158368)
(1.63324e-09 -1.2769e-08 -0.00014803)
(-1.46705e-09 5.64299e-09 -0.000158115)
(5.36189e-09 1.2662e-08 -0.000158128)
(-8.78714e-09 -1.01319e-08 -0.000158462)
(1.11454e-08 6.08046e-09 -0.000157998)
(-1.01831e-08 -1.15625e-08 -0.000158349)
(-5.07073e-09 -8.23128e-09 -0.000158476)
(4.7657e-09 1.10236e-08 -0.0001581)
(-6.65666e-09 -1.66294e-08 -0.000158353)
(1.01653e-08 7.86375e-09 -0.000157989)
(-1.58392e-08 1.0594e-08 -0.000157975)
(-1.97557e-08 -1.30689e-08 -0.00015809)
(2.54163e-08 -2.91935e-09 -0.000147823)
(-3.39696e-09 7.27716e-09 -0.000148235)
(6.54048e-09 -1.14922e-08 -0.000158133)
(-1.51131e-08 1.39312e-08 -0.000148049)
(1.02004e-08 -1.41102e-08 -0.000148055)
(1.59046e-08 1.39135e-08 -0.000148027)
(-1.63016e-08 1.4062e-08 -0.000157937)
(-1.50302e-08 3.62651e-09 -0.00014778)
(1.28935e-08 2.90545e-09 -0.000147808)
(4.34272e-09 8.86147e-09 -0.000158081)
(1.48087e-08 1.16207e-08 -0.00015796)
(1.24136e-08 3.20821e-09 -0.000148958)
(-1.27367e-08 -3.62345e-09 -0.000149293)
(2.97692e-09 1.29093e-08 -0.000148858)
(-4.91474e-09 -1.18e-08 -0.000149207)
(9.09336e-10 1.632e-08 -0.000158496)
(1.60548e-08 1.22658e-09 -0.00015845)
(-1.42258e-08 -6.94121e-09 -0.000149306)
(9.67616e-09 7.35694e-09 -0.000148936)
(-5.36259e-09 -1.31851e-08 -0.000149219)
(6.79752e-09 9.78021e-09 -0.000148841)
(-1.64686e-08 -2.58349e-08 -0.000152539)
(-1.11126e-08 -5.67414e-10 -0.000154986)
(-1.11113e-08 -7.25321e-09 -0.000154626)
(-2.19129e-08 1.74232e-08 -0.000152923)
(-1.90463e-08 6.8579e-09 -0.000158776)
(1.09661e-08 2.42824e-08 -0.000148245)
(-6.27693e-09 -6.36438e-09 -0.000158329)
(-4.01231e-08 -1.36412e-08 -0.000147811)
(-7.16829e-10 1.58559e-08 -0.000158366)
(3.74025e-08 2.23256e-09 -0.000157962)
(2.47295e-08 -9.5864e-09 -0.0001589)
(3.54673e-09 1.19887e-08 -0.000148403)
(2.64493e-09 -9.7901e-09 -0.000158482)
(2.01364e-08 9.02714e-09 -0.000148923)
(-2.42622e-08 -4.82221e-09 -0.000149304)
(3.09898e-09 4.85033e-09 -0.000148834)
(1.14797e-09 -6.08226e-09 -0.000149198)
(-7.22111e-09 -8.69724e-09 -0.000158444)
(5.01844e-09 1.25658e-08 -0.000158096)
(-1.07543e-08 -7.48883e-09 -0.000158335)
(1.12203e-08 7.05573e-09 -0.000157974)
(-1.71172e-08 -3.77477e-09 -0.000149306)
(1.20306e-08 8.03809e-09 -0.000148929)
(-2.26082e-10 -1.30125e-08 -0.000149227)
(5.72357e-09 8.04978e-09 -0.000148832)
(2.91254e-10 -1.15155e-08 -0.000158863)
(-1.77303e-08 -7.11518e-09 -0.000158808)
(1.04379e-08 7.32153e-09 -0.000148943)
(-1.45619e-08 -5.86671e-09 -0.000149305)
(5.37762e-09 9.01047e-09 -0.000148849)
(-1.6449e-09 -1.42827e-08 -0.000149218)
(5.55141e-09 1.02425e-08 -0.000158075)
(-7.13351e-09 -1.23177e-08 -0.000158468)
(1.3319e-08 7.79471e-09 -0.000157972)
(-8.86767e-09 -1.03201e-08 -0.000158345)
(-1.28102e-08 2.70462e-09 -0.000158344)
(-3.27175e-08 1.06088e-08 -0.00015798)
(1.58847e-08 1.43958e-08 -0.00015847)
(5.53158e-09 -4.76776e-09 -0.000152537)
(1.19729e-08 1.81399e-08 -0.000154999)
(6.45608e-09 -1.45967e-08 -0.000154622)
(3.29852e-08 1.48511e-08 -0.000152895)
(-8.97645e-09 8.07886e-09 -0.000148238)
(2.96423e-08 -3.13984e-09 -0.000147814)
(1.71925e-08 -1.39138e-09 -0.000148949)
(-1.19406e-08 1.26754e-08 -0.000149311)
(2.00234e-08 -1.27068e-09 -0.000148948)
(7.70429e-09 -6.92158e-09 -0.000158468)
(6.62621e-09 2.39969e-08 -0.000158838)
(-5.3763e-09 1.36053e-08 -0.000158494)
(9.64439e-09 -6.12057e-09 -0.000158139)
(1.39577e-08 -1.29722e-08 -0.000148443)
(1.52384e-08 1.64027e-08 -0.000152726)
(1.30371e-08 5.8355e-09 -0.000154842)
(-9.58281e-09 1.55119e-08 -0.000148445)
(1.09505e-08 -1.31727e-08 -0.000148057)
(1.81183e-08 -1.22475e-08 -0.000152685)
(1.09745e-08 -2.99928e-09 -0.000154824)
(-1.42469e-08 1.48875e-08 -0.000158877)
(-1.74904e-08 -1.02847e-08 -0.00014842)
(1.69937e-08 1.75655e-08 -0.000148024)
(2.89553e-09 6.06207e-09 -0.000148819)
(-2.35194e-09 -7.53635e-09 -0.000149186)
(6.23071e-09 -1.50159e-08 -0.000158315)
(1.20631e-08 -9.43313e-09 -0.000148177)
(1.67476e-08 -2.34838e-08 -0.000158715)
(-7.42234e-09 -8.25793e-09 -0.000148195)
(-7.59282e-09 -1.16276e-09 -0.000158464)
(6.35417e-09 9.6021e-09 -0.000158103)
(-5.40651e-09 -1.14011e-08 -0.000158343)
(2.13227e-08 4.82462e-09 -0.000148197)
(-8.11273e-09 6.31392e-09 -0.000158333)
(8.4842e-09 8.39591e-09 -0.000148386)
(9.86901e-09 -2.8004e-09 -0.000158455)
(-1.14007e-08 -8.33135e-09 -0.000147858)
(1.82744e-08 6.7896e-09 -0.00014821)
(1.24367e-08 -5.20208e-09 -0.000158029)
(-1.39112e-08 4.81792e-09 -0.000158341)
(-7.32307e-09 -1.14155e-08 -0.000148118)
(9.94663e-09 8.39224e-09 -0.000148415)
(-7.73504e-09 5.11011e-09 -0.000158214)
(8.30809e-09 -7.3739e-09 -0.000158483)
(-1.37588e-08 -8.7344e-09 -0.00014788)
(1.57006e-08 8.33745e-09 -0.000148237)
(1.16922e-08 -6.56367e-09 -0.000158049)
(-1.39278e-08 5.2714e-09 -0.000158366)
(-1.05295e-08 -5.68782e-09 -0.000148138)
(7.54602e-09 1.25484e-08 -0.000148444)
(-9.69436e-09 3.93855e-09 -0.000158231)
(7.30043e-09 -8.10426e-09 -0.000158501)
(-1.85367e-08 -7.48724e-09 -0.000147886)
(1.26343e-08 8.2478e-09 -0.000148225)
(1.13682e-08 -6.43226e-09 -0.000158046)
(-1.19313e-08 5.13654e-09 -0.000158348)
(-9.43956e-09 -9.35177e-09 -0.000148143)
(9.41764e-09 6.462e-09 -0.000148432)
(-8.33262e-09 6.54489e-09 -0.000158225)
(6.75023e-09 -8.26039e-09 -0.000158483)
(-1.62532e-08 -6.55388e-09 -0.000147857)
(1.97309e-08 6.97177e-09 -0.00014819)
(1.71949e-08 -3.26759e-09 -0.000158021)
(-9.86963e-09 9.04721e-09 -0.000158325)
(-6.49589e-09 -1.27531e-08 -0.000148101)
(1.14537e-08 5.71018e-09 -0.000148391)
(-8.30684e-09 6.23266e-09 -0.0001582)
(7.68767e-09 -1.09018e-08 -0.000158462)
(-1.40669e-08 -7.7607e-09 -0.000147842)
(1.42782e-08 8.48109e-09 -0.000148189)
(1.01569e-08 -6.39105e-09 -0.000158019)
(-1.48419e-08 5.72859e-09 -0.000158332)
(-6.4933e-09 -1.39452e-08 -0.000148084)
(1.17821e-08 4.42237e-09 -0.000148382)
(-9.08167e-09 3.43129e-09 -0.000158201)
(8.53031e-09 -6.47448e-09 -0.000158467)
(-1.44388e-08 -7.46307e-09 -0.000147826)
(1.71626e-08 7.76201e-09 -0.00014817)
(1.47419e-08 -3.61693e-09 -0.000158001)
(-1.32856e-08 6.25291e-09 -0.000158297)
(-8.08079e-09 -9.65477e-09 -0.000148062)
(9.32501e-09 1.06133e-08 -0.000148357)
(-6.38248e-09 8.20282e-09 -0.000158179)
(9.03545e-09 -6.51169e-09 -0.000158438)
(-1.52473e-08 -7.19425e-09 -0.00014785)
(1.54559e-08 9.09252e-09 -0.000148215)
(1.11392e-08 -6.11865e-09 -0.000158)
(-1.6121e-08 5.64442e-09 -0.000158325)
(-8.0336e-09 -9.91142e-09 -0.000148082)
(9.56937e-09 1.08842e-08 -0.000148392)
(-6.84675e-09 6.93275e-09 -0.000158191)
(8.28308e-09 -8.33574e-09 -0.00015847)
(-1.74449e-08 -8.41245e-09 -0.000147841)
(1.44729e-08 5.34863e-09 -0.000148191)
(1.55906e-08 -5.54043e-09 -0.000157992)
(-1.03771e-08 4.77505e-09 -0.0001583)
(-9.05989e-09 -1.1136e-08 -0.000148078)
(6.21963e-09 9.76293e-09 -0.000148375)
(-1.05881e-08 5.96668e-09 -0.000158175)
(4.16593e-09 -9.79154e-09 -0.000158445)
(-1.38052e-08 -8.97127e-09 -0.000147882)
(1.27331e-08 7.19242e-09 -0.000148218)
(1.11276e-08 -7.06896e-09 -0.000158031)
(-1.21085e-08 4.24152e-09 -0.000158333)
(-9.48517e-09 -1.04747e-08 -0.000148116)
(8.92734e-09 4.95677e-09 -0.000148407)
(-8.5507e-09 7.51782e-09 -0.000158208)
(6.93773e-09 -5.50496e-09 -0.000158461)
(-1.53657e-08 -1.05107e-08 -0.000147867)
(1.45583e-08 6.58304e-09 -0.000148217)
(1.15733e-08 -7.89815e-09 -0.000158025)
(-1.15683e-08 4.84373e-09 -0.000158342)
(-1.03694e-08 -1.13903e-08 -0.000148106)
(8.52764e-09 6.68819e-09 -0.000148407)
(-1.24054e-08 3.16885e-09 -0.000158196)
(3.54293e-09 -1.16883e-08 -0.000158468)
(-1.58329e-08 -7.62068e-09 -0.000147855)
(1.58299e-08 8.07671e-09 -0.0001482)
(1.51968e-08 -4.8936e-09 -0.000158012)
(-1.33191e-08 5.74471e-09 -0.000158324)
(-9.41514e-09 -8.36052e-09 -0.0001481)
(7.93248e-09 1.27032e-08 -0.000148408)
(-8.19196e-09 6.10011e-09 -0.00015819)
(7.7889e-09 -8.08224e-09 -0.000158463)
(-1.77591e-08 -5.85066e-09 -0.000147854)
(1.58391e-08 9.64498e-09 -0.000148199)
(1.53541e-08 -3.38358e-09 -0.000158021)
(-1.21185e-08 7.35108e-09 -0.000158329)
(-7.14286e-09 -1.18532e-08 -0.000148099)
(1.12286e-08 8.29486e-09 -0.00014839)
(-6.83103e-09 8.20103e-09 -0.000158195)
(8.5891e-09 -8.17462e-09 -0.000158456)
(-1.36749e-08 -8.35327e-09 -0.000147855)
(1.42749e-08 5.54447e-09 -0.000148204)
(1.20358e-08 -6.51456e-09 -0.00015802)
(-1.41392e-08 4.14715e-09 -0.000158327)
(-9.1809e-09 -1.09831e-08 -0.000148088)
(8.76885e-09 6.59341e-09 -0.000148387)
(-7.98306e-09 7.97268e-09 -0.000158199)
(6.67085e-09 -7.76014e-09 -0.000158468)
(-1.46749e-08 -9.53705e-09 -0.00014786)
(1.56328e-08 6.91246e-09 -0.00014821)
(1.59815e-08 -5.18683e-09 -0.000158017)
(-8.81005e-09 6.39782e-09 -0.000158329)
(-8.75215e-09 -1.29947e-08 -0.000148083)
(7.01146e-09 8.97155e-09 -0.000148384)
(-8.82945e-09 7.22707e-09 -0.000158198)
(6.11572e-09 -5.76182e-09 -0.000158467)
(-1.57215e-08 -9.75743e-09 -0.000147857)
(1.3429e-08 9.10776e-09 -0.000148219)
(1.10723e-08 -7.11789e-09 -0.000158018)
(-1.59484e-08 4.9707e-09 -0.000158342)
(-8.84975e-09 -1.38545e-08 -0.000148075)
(9.99678e-09 6.73123e-09 -0.000148393)
(-8.66126e-09 6.72273e-09 -0.000158191)
(7.62282e-09 -8.75396e-09 -0.000158476)
(-1.15881e-08 -1.08357e-08 -0.000147838)
(1.58678e-08 1.39792e-08 -0.000148245)
(1.37565e-08 -5.73435e-09 -0.000157996)
(-9.91069e-09 1.06653e-08 -0.000158372)
(-9.55104e-09 -1.04984e-08 -0.000148053)
(1.07964e-08 1.32709e-08 -0.000148422)
(-8.12315e-09 7.51593e-09 -0.00015816)
(7.97272e-09 -1.04456e-08 -0.000158495)
(1.62942e-08 2.89809e-09 -0.000158312)
(1.09198e-08 -5.85709e-10 -0.000158433)
(1.40788e-08 4.63781e-09 -0.000158314)
(-1.17162e-08 -6.8605e-09 -0.000158022)
(8.1945e-09 6.39372e-09 -0.000158451)
(-3.53701e-09 -1.53709e-08 -0.000158177)
(-9.48766e-09 1.01756e-08 -0.000148198)
(2.18813e-08 6.08342e-09 -0.000148195)
(-1.21029e-08 -9.68902e-09 -0.000147856)
(-1.79923e-08 6.93674e-09 -0.000148201)
(2.21746e-08 -6.52873e-09 -0.000147858)
(-5.23409e-09 1.14744e-08 -0.000158449)
(-1.57812e-08 3.66706e-09 -0.000158329)
(1.56731e-08 -3.92725e-09 -0.000158037)
(-8.63255e-09 3.63557e-09 -0.000158452)
(6.5967e-09 -1.01629e-08 -0.000158193)
(9.26329e-09 -7.88586e-09 -0.000148416)
(1.03088e-08 9.77769e-09 -0.000148403)
(-7.87603e-09 -1.33697e-08 -0.000148089)
(8.97122e-09 -1.20385e-08 -0.000148434)
(-7.18463e-09 1.40263e-08 -0.000148124)
(-6.72062e-09 1.16026e-08 -0.000148406)
(-1.09334e-08 -7.60858e-09 -0.000148403)
(-9.18629e-09 9.46556e-09 -0.000148406)
(8.10809e-09 -1.30821e-08 -0.000148117)
(-9.98546e-09 -8.18517e-09 -0.000148397)
(8.72896e-09 1.42201e-08 -0.000148113)
(1.62011e-08 -4.80341e-10 -0.000158311)
(5.37949e-09 -1.14892e-08 -0.00015847)
(-4.38426e-09 1.24945e-08 -0.000158198)
(7.8533e-09 -7.09071e-09 -0.00015831)
(-9.84541e-09 7.02676e-09 -0.000158021)
(1.94582e-08 -7.28473e-09 -0.000148176)
(-1.18212e-08 -5.35168e-09 -0.000148196)
(1.65398e-08 -7.8692e-09 -0.000148171)
(-1.61195e-08 8.04166e-09 -0.000147833)
(-1.41769e-08 -8.07591e-09 -0.0001482)
(1.98447e-08 5.97939e-09 -0.000147858)
(-5.82162e-09 -5.78894e-09 -0.000158433)
(-1.25353e-08 -8.67671e-09 -0.000158332)
(-6.50676e-09 -6.03024e-09 -0.000158426)
(6.28753e-09 8.85884e-09 -0.000158177)
(-1.06444e-08 -6.15734e-09 -0.000158331)
(1.75561e-08 2.68909e-09 -0.000158033)
(-8.71376e-09 -6.53453e-09 -0.000158019)
(1.374e-08 4.51891e-09 -0.00015833)
(-6.16496e-09 -7.68839e-09 -0.000158199)
(8.01537e-09 7.09166e-09 -0.000158463)
(1.47322e-08 2.53748e-09 -0.000158338)
(-1.25483e-08 -5.79574e-09 -0.000158036)
(5.18392e-09 1.01956e-08 -0.000158471)
(-6.19862e-09 -1.06588e-08 -0.000158211)
(1.62311e-08 -6.75941e-09 -0.000147858)
(-1.65309e-08 6.9992e-09 -0.000148213)
(2.20234e-08 4.72295e-09 -0.000148214)
(-1.49618e-08 -8.78411e-09 -0.000147866)
(-2.17714e-08 4.7485e-09 -0.000148219)
(1.55498e-08 -8.54048e-09 -0.000147872)
(4.55256e-09 -1.19463e-08 -0.000158196)
(-7.64858e-09 5.4525e-09 -0.000158462)
(-1.58207e-08 2.67828e-09 -0.000158346)
(1.36468e-08 -4.98728e-09 -0.000158041)
(-8.39486e-09 3.62688e-09 -0.000158473)
(5.62351e-09 -1.10605e-08 -0.000158217)
(-7.64281e-09 1.00917e-08 -0.000148142)
(9.88983e-09 -7.85988e-09 -0.000148439)
(6.86376e-09 1.42366e-08 -0.000148426)
(-8.06022e-09 -1.31411e-08 -0.000148122)
(7.04061e-09 -1.37555e-08 -0.000148447)
(-8.06982e-09 1.27267e-08 -0.000148153)
(7.61898e-09 -1.2959e-08 -0.000148113)
(-9.15819e-09 9.36649e-09 -0.000148425)
(6.43027e-09 1.67002e-08 -0.000148106)
(-8.78522e-09 -9.51022e-09 -0.000148405)
(-7.37149e-09 1.23362e-08 -0.00014843)
(8.49238e-09 -1.35897e-08 -0.000148136)
(-6.88897e-09 -1.25074e-08 -0.000148404)
(9.26581e-09 1.07638e-08 -0.000148114)
(-1.8816e-08 1.61819e-09 -0.000158016)
(8.02193e-09 -8.18696e-09 -0.000158326)
(3.26167e-09 -1.24042e-08 -0.000158489)
(-5.68555e-09 9.72043e-09 -0.000158225)
(4.63361e-09 -9.28216e-09 -0.000158326)
(-2.03214e-08 1.67427e-09 -0.000158034)
(-2.21169e-08 5.23171e-09 -0.000147827)
(1.04469e-08 -1.0396e-08 -0.00014819)
(2.14426e-08 5.25266e-09 -0.000147858)
(-1.43654e-08 -8.59533e-09 -0.000148211)
(1.32065e-08 -8.02175e-09 -0.00014819)
(-2.38887e-08 5.53247e-09 -0.000147846)
(-1.84728e-08 -6.19941e-09 -0.000148209)
(1.93749e-08 7.36497e-09 -0.000147868)
(4.68444e-09 9.52936e-09 -0.000158173)
(-6.67513e-09 -7.79605e-09 -0.000158432)
(1.72422e-08 2.11213e-09 -0.000158032)
(-1.34029e-08 -4.69631e-09 -0.000158336)
(-6.86406e-09 -6.55336e-09 -0.000158431)
(7.44026e-09 8.10386e-09 -0.000158176)
(-1.43007e-08 -3.30375e-09 -0.000158335)
(1.46309e-08 4.96937e-09 -0.000158034)
(-9.04487e-09 -6.97092e-09 -0.000158046)
(1.12727e-08 5.91626e-09 -0.000158364)
(-9.74557e-09 -2.98475e-09 -0.000158217)
(6.52077e-09 8.74888e-09 -0.000158493)
(1.3564e-08 4.07851e-09 -0.000158359)
(-1.65073e-08 -3.21339e-09 -0.000158068)
(4.53002e-09 1.10797e-08 -0.000158491)
(-6.42514e-09 -9.55552e-09 -0.00015824)
(1.32184e-08 -8.86315e-09 -0.000147876)
(-1.57776e-08 7.8196e-09 -0.000148235)
(1.57258e-08 7.16155e-09 -0.00014823)
(-1.82271e-08 -7.22282e-09 -0.000147891)
(-2.07843e-08 4.65908e-09 -0.000148219)
(1.5862e-08 -8.2477e-09 -0.000147892)
(5.4409e-09 -1.07353e-08 -0.000158224)
(-5.70294e-09 1.02809e-08 -0.0001585)
(-1.68284e-08 1.6773e-09 -0.00015835)
(9.7511e-09 -7.41988e-09 -0.000158069)
(-6.56195e-09 5.89654e-09 -0.000158492)
(5.80722e-09 -1.06301e-08 -0.000158247)
(-1.01234e-08 8.33528e-09 -0.000148153)
(1.00268e-08 -8.92511e-09 -0.00014846)
(7.72185e-09 1.30132e-08 -0.00014844)
(-9.43097e-09 -1.03928e-08 -0.000148147)
(7.61257e-09 -1.15596e-08 -0.000148447)
(-9.1507e-09 1.25635e-08 -0.000148167)
(8.9999e-09 -1.1048e-08 -0.000148144)
(-8.02747e-09 1.39011e-08 -0.000148458)
(8.58395e-09 1.17543e-08 -0.000148114)
(-9.24008e-09 -9.26431e-09 -0.000148422)
(-6.04821e-09 1.37272e-08 -0.000148444)
(9.84404e-09 -1.03659e-08 -0.000148164)
(-7.97799e-09 -1.00149e-08 -0.000148411)
(8.29871e-09 1.21314e-08 -0.00014813)
(-2.1382e-08 1.04247e-09 -0.000158034)
(7.20582e-09 -8.91905e-09 -0.000158349)
(4.15208e-09 -1.03056e-08 -0.000158488)
(-5.55191e-09 1.04007e-08 -0.000158245)
(6.9718e-09 -7.32756e-09 -0.000158337)
(-1.97061e-08 1.64259e-09 -0.000158056)
(-2.22763e-08 5.55887e-09 -0.000147849)
(1.15117e-08 -1.00865e-08 -0.000148216)
(1.76979e-08 7.76797e-09 -0.000147866)
(-1.75556e-08 -7.35062e-09 -0.000148225)
(1.55533e-08 -6.74681e-09 -0.000148209)
(-2.08771e-08 5.74371e-09 -0.000147874)
(-1.80409e-08 -6.08215e-09 -0.000148215)
(1.58827e-08 7.52726e-09 -0.000147882)
(5.44188e-09 1.04074e-08 -0.00015818)
(-7.56516e-09 -7.29266e-09 -0.000158448)
(1.37203e-08 3.91499e-09 -0.000158039)
(-1.64668e-08 -3.1725e-09 -0.000158351)
(-8.22145e-09 -4.28749e-09 -0.000158438)
(5.45066e-09 1.03133e-08 -0.000158193)
(-1.25703e-08 -4.38657e-09 -0.000158342)
(1.18185e-08 5.78513e-09 -0.00015805)
(-1.08303e-08 -6.40338e-09 -0.000158058)
(1.12368e-08 5.76643e-09 -0.000158352)
(-8.7564e-09 -4.48867e-09 -0.000158236)
(7.11464e-09 8.00638e-09 -0.000158488)
(1.23576e-08 5.80931e-09 -0.000158328)
(-1.5568e-08 -4.87384e-09 -0.000158049)
(8.27325e-09 5.17272e-09 -0.000158454)
(-6.64398e-09 -9.83282e-09 -0.000158223)
(1.61557e-08 -8.47469e-09 -0.00014787)
(-1.54077e-08 6.47307e-09 -0.000148214)
(1.62714e-08 7.03984e-09 -0.0001482)
(-2.00014e-08 -6.55832e-09 -0.000147871)
(-1.98579e-08 4.88582e-09 -0.000148192)
(1.5657e-08 -9.04109e-09 -0.000147864)
(8.3758e-09 -6.62905e-09 -0.000158234)
(-5.52457e-09 8.71339e-09 -0.000158485)
(-9.89266e-09 6.01293e-09 -0.000158325)
(1.67683e-08 -4.85546e-09 -0.000158038)
(-8.18279e-09 4.65421e-09 -0.000158455)
(7.57105e-09 -8.99314e-09 -0.000158229)
(-9.41101e-09 1.18195e-08 -0.000148149)
(7.4801e-09 -9.89231e-09 -0.000148446)
(8.53872e-09 8.44661e-09 -0.000148397)
(-8.0466e-09 -1.44724e-08 -0.000148126)
(6.48989e-09 -1.33823e-08 -0.000148423)
(-9.34e-09 1.0975e-08 -0.00014815)
(1.0034e-08 -9.81194e-09 -0.000148149)
(-8.48376e-09 8.62223e-09 -0.00014844)
(8.42082e-09 1.27069e-08 -0.000148116)
(-7.22624e-09 -1.0322e-08 -0.00014841)
(-7.77944e-09 8.84876e-09 -0.000148404)
(8.65737e-09 -1.42082e-08 -0.000148141)
(-7.32442e-09 -1.16985e-08 -0.00014839)
(1.01595e-08 1.07661e-08 -0.000148115)
(-1.88093e-08 2.52109e-09 -0.00015804)
(1.29703e-08 -4.80731e-09 -0.000158338)
(5.20671e-09 -9.95148e-09 -0.000158464)
(-6.78243e-09 1.03812e-08 -0.00015822)
(1.05156e-08 -5.9368e-09 -0.000158309)
(-1.2328e-08 6.34253e-09 -0.000158041)
(-2.06382e-08 6.82335e-09 -0.000147862)
(1.33532e-08 -7.88847e-09 -0.000148211)
(1.95177e-08 7.64283e-09 -0.000147865)
(-1.5764e-08 -6.4871e-09 -0.000148213)
(1.92202e-08 -5.83111e-09 -0.000148181)
(-1.96859e-08 7.53142e-09 -0.000147865)
(-2.19521e-08 -4.49422e-09 -0.00014819)
(1.81365e-08 8.69833e-09 -0.000147863)
(4.64407e-09 1.27258e-08 -0.000158179)
(-5.99144e-09 -8.01444e-09 -0.000158436)
(1.65589e-08 3.3743e-09 -0.000158043)
(-1.39133e-08 -4.21722e-09 -0.000158336)
(-6.70942e-09 -7.49401e-09 -0.000158418)
(7.84693e-09 8.6572e-09 -0.000158172)
(-1.46648e-08 -3.18962e-09 -0.00015831)
(1.45862e-08 5.06839e-09 -0.000158033)
(-1.24243e-08 -5.37693e-09 -0.000158021)
(1.15486e-08 6.76526e-09 -0.000158316)
(-6.05079e-09 -1.00375e-08 -0.000158189)
(9.87596e-09 5.42255e-09 -0.000158439)
(1.24295e-08 5.63395e-09 -0.000158305)
(-1.39544e-08 -4.38715e-09 -0.000158014)
(7.39071e-09 8.67598e-09 -0.000158421)
(-3.25977e-09 -1.39105e-08 -0.000158177)
(1.65938e-08 -7.97518e-09 -0.000147846)
(-1.31263e-08 1.00406e-08 -0.000148196)
(1.9065e-08 7.10052e-09 -0.000148183)
(-1.40642e-08 -8.43292e-09 -0.000147843)
(-2.12684e-08 5.9825e-09 -0.000148192)
(1.71131e-08 -6.25769e-09 -0.000147856)
(6.25136e-09 -9.97933e-09 -0.000158194)
(-8.24732e-09 8.59918e-09 -0.000158456)
(-1.68549e-08 3.49023e-09 -0.000158319)
(1.38965e-08 -3.78211e-09 -0.000158029)
(-9.73491e-09 2.75971e-09 -0.000158441)
(2.53725e-09 -1.47018e-08 -0.000158195)
(-9.09145e-09 9.51102e-09 -0.000148125)
(8.72389e-09 -1.35067e-08 -0.000148421)
(1.0326e-08 1.00626e-08 -0.000148379)
(-6.00361e-09 -1.66286e-08 -0.000148086)
(7.54488e-09 -1.52479e-08 -0.000148418)
(-9.23009e-09 7.59481e-09 -0.000148129)
(6.83156e-09 -1.53878e-08 -0.000148108)
(-1.11255e-08 7.09633e-09 -0.000148405)
(8.335e-09 1.20893e-08 -0.000148092)
(-1.00841e-08 -1.03982e-08 -0.000148387)
(-9.51185e-09 8.96951e-09 -0.000148392)
(6.38202e-09 -1.59677e-08 -0.000148108)
(-7.99584e-09 -1.40014e-08 -0.000148384)
(7.77e-09 1.15633e-08 -0.000148094)
(-1.60509e-08 3.64194e-09 -0.000158005)
(1.46921e-08 -5.66098e-09 -0.000158303)
(4.41849e-09 -1.26403e-08 -0.000158463)
(-5.67502e-09 8.30224e-09 -0.000158202)
(1.07839e-08 -7.2353e-09 -0.00015829)
(-1.30064e-08 4.23332e-09 -0.000158009)
(-1.59568e-08 8.09448e-09 -0.00014783)
(1.80478e-08 -8.46817e-09 -0.000148176)
(1.62872e-08 6.95877e-09 -0.000147841)
(-1.80012e-08 -8.18126e-09 -0.000148187)
(1.8605e-08 -6.80317e-09 -0.000148159)
(-1.63616e-08 7.07227e-09 -0.000147831)
(-1.88731e-08 -6.76811e-09 -0.000148176)
(1.59407e-08 6.84044e-09 -0.000147842)
(5.39576e-09 9.94761e-09 -0.000158159)
(-8.08961e-09 -8.55262e-09 -0.000158417)
(1.57362e-08 2.81528e-09 -0.000158012)
(-1.54493e-08 -5.53055e-09 -0.000158311)
(-5.63078e-09 -1.02477e-08 -0.000158414)
(5.90286e-09 7.94565e-09 -0.00015816)
(-1.33182e-08 -5.28687e-09 -0.000158304)
(1.27407e-08 3.96197e-09 -0.00015801)
(-9.80883e-09 -5.96516e-09 -0.00015801)
(1.21113e-08 6.55363e-09 -0.000158314)
(-7.12287e-09 -6.12009e-09 -0.000158165)
(9.21818e-09 6.74876e-09 -0.000158429)
(1.09695e-08 6.12809e-09 -0.000158295)
(-1.38703e-08 -4.17304e-09 -0.000158012)
(7.87749e-09 5.27529e-09 -0.000158406)
(-4.41993e-09 -1.19876e-08 -0.000158165)
(1.41042e-08 -7.21762e-09 -0.000147849)
(-1.62029e-08 8.34049e-09 -0.000148199)
(1.97089e-08 6.41024e-09 -0.000148173)
(-1.68597e-08 -6.14611e-09 -0.000147839)
(-1.90621e-08 6.92706e-09 -0.000148177)
(1.54685e-08 -6.77282e-09 -0.000147853)
(5.35544e-09 -8.95631e-09 -0.000158189)
(-8.46544e-09 6.16855e-09 -0.00015845)
(-1.30856e-08 5.0043e-09 -0.000158309)
(1.35598e-08 -3.94504e-09 -0.000158026)
(-8.78224e-09 3.63046e-09 -0.000158416)
(4.59661e-09 -1.13648e-08 -0.000158195)
(-9.19197e-09 8.66922e-09 -0.000148123)
(1.08709e-08 -6.74068e-09 -0.000148421)
(9.13672e-09 1.0583e-08 -0.000148363)
(-6.13327e-09 -1.55937e-08 -0.00014808)
(8.82399e-09 -1.11677e-08 -0.000148406)
(-7.53008e-09 1.37138e-08 -0.000148129)
(6.09477e-09 -1.53238e-08 -0.000148103)
(-1.11165e-08 5.81238e-09 -0.000148405)
(7.55484e-09 1.12077e-08 -0.000148095)
(-8.98241e-09 -1.03747e-08 -0.000148394)
(-7.80308e-09 1.21542e-08 -0.000148375)
(6.19987e-09 -1.52957e-08 -0.000148111)
(-7.99988e-09 -1.17468e-08 -0.000148369)
(8.54652e-09 9.51596e-09 -0.0001481)
(-1.51331e-08 3.28639e-09 -0.000157999)
(1.28297e-08 -7.14368e-09 -0.000158309)
(6.13917e-09 -7.38476e-09 -0.000158446)
(-3.75258e-09 1.20199e-08 -0.000158204)
(4.6865e-09 -9.60074e-09 -0.000158288)
(-1.49756e-08 3.31651e-09 -0.000158019)
(-1.7991e-08 6.08263e-09 -0.000147819)
(1.39743e-08 -9.29444e-09 -0.00014818)
(1.81853e-08 5.82525e-09 -0.000147832)
(-1.57929e-08 -8.2697e-09 -0.000148182)
(1.73631e-08 -5.98404e-09 -0.000148157)
(-1.90616e-08 5.18602e-09 -0.000147834)
(-1.5959e-08 -7.92782e-09 -0.00014816)
(1.85312e-08 5.80557e-09 -0.000147837)
(5.83239e-09 6.18121e-09 -0.000158166)
(-7.047e-09 -9.17529e-09 -0.000158427)
(1.57372e-08 2.52768e-09 -0.000158007)
(-1.46374e-08 -5.34003e-09 -0.000158312)
(-7.36466e-09 -6.89308e-09 -0.000158404)
(6.79309e-09 7.20118e-09 -0.000158168)
(-1.0832e-08 -5.06913e-09 -0.000158287)
(1.36014e-08 3.94775e-09 -0.000158007)
(-1.23317e-08 -4.78309e-09 -0.000157993)