/*--------------------------------*- C++ -*----------------------------------*\
| =========                 |                                                 |
| \\      /  F ield         | OpenFOAM: The Open Source CFD Toolbox           |
|  \\    /   O peration     | Version:  2206                                  |
|   \\  /    A nd           | Website:  www.openfoam.com                      |
|    \\/     M anipulation  |                                                 |
\*---------------------------------------------------------------------------*/
FoamFile
{
    version     2.0;
    format      ascii;
    arch        "LSB;label=32;scalar=64";
    class       volScalarField;
    location    "0.2";
    object      omega;
}
// * * * * * * * * * * * * * * * * * * * * * * * * * * * * * * * * * * * * * //

dimensions      [0 0 -1 0 0 0 0];

internalField   nonuniform List<scalar> 
401248
(
20.294
20.4361
20.4155
20.8105
20.8143
20.4178
20.4162
20.8163
20.4349
20.4378
20.4373
20.8202
20.4131
222.632
56.4974
370.588
225.512
58.9607
20.2933
20.2937
20.2937
52.2383
20.3242
25.7597
373.747
20.316
50.5861
25.1396
103.837
101.777
371.54
373.798
102.137
104.327
221.788
56.3061
50.7348
20.3154
25.1327
50.6275
20.3157
25.1432
101.755
103.867
372.795
52.2545
20.3238
25.7369
225.613
58.9671
20.3244
52.2945
25.7395
224.765
58.8492
20.3244
52.2404
25.7616
224.859
58.8532
104.128
101.872
370.598
20.3147
50.5613
25.1454
221.808
56.3069
221.822
56.3491
372.844
370.591
398.329
222.924
111.593
111.802
398.142
270.464
56.3869
239.725
66.4552
240.003
66.5465
270.074
370.93
274.99
59.0793
69.5725
244.81
402.311
226.006
115.63
115.905
402.073
402.298
225.985
115.881
274.912
59.2488
69.3995
244.12
69.7259
244.667
274.333
374.054
374.359
65.6515
33.9192
104.108
232.915
34.0271
233.358
65.3234
65.1356
33.3511
102.043
233.305
33.4269
233.727
64.8358
160.54
382.859
382.096
383.11
382.344
160.076
371.807
374.097
374.409
65.4415
33.471
102.266
232.848
233.208
33.5555
65.1612
65.86
33.8766
104.644
235.181
235.581
34.0029
65.5417
161.239
382.799
383.753
383.026
383.993
160.755
397.368
222.16
111.216
111.471
397.063
269.385
56.4422
238.802
66.208
239.15
66.404
268.937
65.1643
33.4058
102.063
233.229
233.673
33.4699
64.8449
65.5084
33.94
104.144
232.93
34.0226
233.336
65.2948
160.766
381.955
382.931
382.074
383.216
160.267
373.147
275.015
59.088
244.805
69.6156
402.318
226.096
115.739
115.996
402.073
402.309
226.08
115.97
274.94
59.2592
244.118
69.4375
244.667
69.7672
274.357
401.351
225.187
115.284
115.61
401.021
273.797
59.0842
69.256
243.363
69.5259
243.758
273.198
401.37
225.256
115.348
115.668
401.038
273.803
59.0958
243.383
69.2525
243.785
69.5265
273.193
65.8074
33.8812
104.49
234.713
235.223
34.0005
65.4561
65.6264
33.5333
102.115
231.875
33.599
232.291
65.3806
161.341
383.523
381.479
383.833
381.895
160.942
370.937
397.416
222.182
111.266
111.518
397.116
269.43
56.4442
66.2118
238.933
66.4083
239.248
268.981
397.422
222.187
111.22
111.478
397.119
269.421
56.4804
66.2207
238.948
66.4153
239.264
268.974
373.206
370.964
20.2874
20.2877
20.282
30.7102
23.0613
22.9585
20.8193
23.0885
22.9787
30.6292
30.7445
22.9738
23.0444
20.8216
23.0037
23.0761
30.6478
30.784
22.9852
23.0921
20.8246
23.1168
22.9972
30.7054
30.847
23.0631
23.0033
20.8277
23.0333
23.0942
30.773
20.2874
20.2874
20.2833
20.2872
20.2874
20.282
20.2873
20.2874
20.2831
22.2564
25.319
52.416
33.8522
25.3751
33.9775
22.2304
21.31
25.826
27.4658
21.0156
27.556
21.0316
21.2933
22.0038
24.9638
50.6987
32.7356
24.9631
32.784
21.9995
21.1427
25.1502
20.9004
26.6987
20.9051
26.7229
21.1404
22.0073
24.9622
50.8018
32.7386
32.793
24.995
22.002
21.1406
25.1545
26.6827
20.9023
26.716
20.9064
21.1395
22.0081
24.9587
50.7372
32.7607
32.8011
24.9751
22.001
21.1448
25.163
26.7057
20.9038
26.7298
20.9085
21.1435
22.2448
25.2788
52.5225
33.8114
33.9548
25.3403
22.2148
21.304
25.8145
27.4338
21.0133
27.528
21.0337
21.2848
22.2516
25.2898
52.5508
33.8416
33.9838
25.3518
22.2206
21.3073
25.819
21.0145
27.4436
21.0349
27.5409
21.287
22.2617
25.3225
52.4217
33.8593
25.377
33.9845
22.2358
21.3116
25.8295
21.0175
27.4689
21.033
27.5591
21.2949
22.006
24.9273
50.6739
32.7393
24.9493
32.7828
22.001
21.1452
25.157
20.9012
26.7044
20.9057
26.7277
21.1443
749.719
1620.61
4410.68
16444.2
116782
738.627
1618.19
4408.37
16449
116912
749.409
1620.64
4410.88
16446.2
116803
738.34
1617.83
4407.91
16446.7
116892
738.513
1617.75
4407.75
16445.1
116862
738.367
1617.89
4408.22
16449
116912
749.851
1620.89
4410.9
16446.2
116803
738.401
1618.03
4407.7
16445.3
116872
749.427
1620.63
4410.86
16446.4
116814
749.54
1620.81
4410.46
16443.5
116781
749.516
1620.84
4410.54
16443.2
116772
738.579
1618.05
4407.81
16446.1
116881
749.825
1620.83
4410.72
16445.1
116795
749.827
1620.83
4410.7
16445.2
116802
738.416
1618.12
4407.97
16446.7
116892
738.605
1618.13
4408.26
16448.5
116912
736.226
1616.19
4405.14
16438.2
116835
749.638
1620.48
4410.51
16444.1
116782
738.454
1617.84
4408.17
16448.9
116912
742.449
1618.7
4406.83
16434.8
116752
743.478
1617.95
4404.81
16429.6
116727
735.94
1616.14
4405.19
16438.9
116840
749.291
1620.5
4410.71
16446
116803
749.561
1620.68
4410.88
16446.2
116803
738.359
1617.75
4407.78
16446.6
116892
738.637
1617.9
4407.91
16446.7
116892
748.551
1620.8
4410.36
16444.6
116795
748.315
1620.45
4410.17
16444.5
116795
748.67
1620.77
4410.38
16444.6
116795
748.456
1620.44
4410.19
16444.5
116795
737.534
1619.39
4410.24
16452.3
116918
737.537
1619.39
4410.17
16452.5
116921
737.3
1619.02
4410.05
16452.2
116918
737.31
1619.02
4409.97
16452.4
116921
738.553
1617.69
4407.63
16445
116862
738.38
1617.81
4408.09
16448.9
116912
738.658
1617.95
4408.22
16449
116912
749.581
1620.51
4410.66
16446
116803
748.55
1620.79
4410.26
16443.7
116789
748.308
1620.45
4410.07
16443.6
116789
737.531
1619.4
4410.13
16452.4
116919
737.307
1619.04
4409.93
16452.3
116919
738.188
1617.67
4407.5
16445.2
116872
742.437
1618.68
4406.8
16434.1
116747
743.474
1617.94
4404.75
16429.4
116725
735.939
1616.13
4405.22
16439
116852
749.312
1620.48
4410.68
16446.2
116814
749.581
1620.66
4410.85
16446.4
116814
749.217
1620.41
4410.21
16443.3
116781
735.702
1616.11
4405.06
16437.8
116831
749.201
1620.45
4410.3
16443.1
116772
748.653
1620.73
4410.05
16441.9
116759
748.436
1620.39
4409.87
16441.8
116759
737.4
1619.39
4410.28
16452
116904
738.413
1617.71
4407.61
16446
116881
736.017
1616.21
4405.15
16438.2
116836
749.568
1620.46
4410.48
16444.9
116795
736.014
1616.18
4405
16438
116840
749.565
1620.45
4410.46
16445.1
116802
738.217
1617.76
4407.77
16446.6
116892
738.452
1617.79
4408.07
16448.4
116912
735.997
1616.17
4405.02
16438.7
116838
735.717
1616.11
4405.01
16438.1
116840
742.728
1618.6
4406.9
16435.1
116768
743.773
1617.92
4404.97
16430.6
116747
743.782
1617.88
4404.88
16430.5
116747
742.738
1618.69
4407
16435.2
116768
736.248
1616.32
4405.28
16438.3
116835
748.657
1620.72
4410.16
16442.8
116776
748.453
1620.39
4409.97
16442.7
116776
737.509
1619.32
4409.81
16449.9
116887
737.246
1618.95
4409.61
16449.8
116887
736.021
1616.29
4405.33
16439
116840
742.236
1618.57
4406.72
16434.7
116752
743.329
1617.93
4404.81
16429.6
116727
743.296
1617.86
4404.71
16429.6
116727
742.307
1618.69
4406.83
16434.8
116752
736.196
1616.34
4405.33
16439
116840
748.391
1620.5
4410.11
16442.9
116778
748.36
1620.41
4409.99
16442.8
116778
737.37
1619.15
4410.32
16453
116918
737.399
1619.07
4410.19
16452.8
116918
748.566
1620.48
4410.13
16443
116776
748.53
1620.39
4410.01
16442.9
116776
737.486
1619.14
4410.24
16453.1
116933
737.496
1619.07
4410.13
16453
116933
748.454
1620.56
4410.28
16444.2
116795
748.404
1620.46
4410.15
16444.1
116795
737.428
1619.12
4410.06
16451.9
116921
737.432
1619.04
4409.94
16451.8
116921
742.535
1618.58
4406.65
16434.6
116751
743.832
1618.16
4404.81
16429.6
116727
743.666
1617.86
4404.65
16429.5
116727
742.808
1618.93
4406.81
16434.7
116751
736.293
1616.57
4405.24
16438.8
116838
742.225
1618.55
4406.7
16434
116747
743.325
1617.91
4404.75
16429.4
116725
743.292
1617.84
4404.65
16429.3
116725
742.296
1618.67
4406.8
16434.1
116747
736.019
1616.29
4405.36
16439.1
116852
736.196
1616.34
4405.36
16439.1
116852
736.066
1616.54
4405.23
16438.2
116840
742.062
1618.67
4407.02
16436
116774
743.44
1618.26
4405.11
16430
116749
743.191
1617.92
4404.94
16429.9
116749
742.414
1619.06
4407.2
16436.1
116774
742.056
1618.65
4407.05
16436.1
116769
743.452
1618.25
4405.12
16430.7
116747
743.204
1617.91
4404.95
16430.6
116747
742.408
1619.04
4407.22
16436.2
116769
736.035
1616.54
4405.29
16437.9
116831
737.239
1619.05
4410.09
16451.9
116904
736.298
1616.61
4405.37
16438.3
116836
742.55
1618.62
4406.87
16434.7
116758
743.867
1618.16
4404.91
16429.4
116725
743.681
1617.87
4404.81
16429.9
116736
742.823
1618.96
4406.98
16434.1
116748
736.297
1616.58
4405.22
16438.2
116840
742.548
1618.6
4406.69
16434.7
116752
743.869
1618.17
4404.81
16429.6
116727
743.683
1617.86
4404.65
16429.5
116727
742.823
1618.95
4406.85
16434.8
116752
20.828
20.4185
20.4424
20.4452
20.832
20.4218
20.8192
20.8154
20.2945
20.2946
372.058
372.372
102.762
104.329
223.755
51.1611
224.465
58.9928
52.5413
20.3265
25.9046
224.382
58.9812
20.3273
52.571
25.9035
372.436
104.293
102.131
370.94
50.8424
222.288
372.072
372.635
372.897
374.552
102.524
104.086
20.8214
102.94
104.919
372.836
372.628
375.073
374.502
20.8126
103.337
105.392
102.75
104.679
371.484
374.82
64.9312
33.643
102.515
232.545
231.922
33.539
65.1549
65.3851
34.0744
104.01
234.891
234.306
33.9569
65.6224
160.15
382.374
383.312
382.119
383.031
160.568
223.291
113.874
113.96
398.752
403.274
227.376
115.013
117.162
400.874
276.094
60.0672
69.2979
243.242
70.6617
246.028
273.284
403.189
227.296
115.007
117.17
400.818
276.173
60.0541
243.237
69.3175
246.03
70.686
273.344
374.871
65.5262
34.0812
103.964
234.948
33.962
234.345
65.7556
65.0264
33.6152
101.836
232.465
231.87
33.5217
65.2273
160.42
383.285
382.344
382.993
382.061
160.781
370.537
221.751
111.505
111.168
397.402
372.324
372.641
373.525
374.347
161.353
383.547
384.526
383.552
384.505
161.538
65.4715
33.5395
232.448
102.688
65.1622
232.927
33.6409
65.9183
33.9254
234.754
104.453
65.6089
235.254
34.0456
161.332
382.672
383.605
160.832
383.121
384.085
65.2347
233.76
102.738
33.6791
233.52
65.4858
33.5781
65.6501
236.121
104.637
34.067
235.854
65.9296
33.9348
372.784
372.637
374.973
374.766
161.885
383.54
384.548
161.541
383.688
384.657
65.5862
33.7492
103.019
234.723
234.499
33.6254
65.8236
65.951
34.116
104.999
237
236.686
33.9601
66.216
65.7285
233.601
33.5736
102.938
65.4656
234.08
33.6873
66.1368
235.915
33.9239
105.014
65.8382
236.293
34.0656
161.608
383.916
384.892
383.869
384.838
161.985
30.6388
20.8197
23.0209
23.1024
22.9953
23.0717
30.7209
30.7294
20.8238
23.1127
23.0291
23.0833
23.0031
30.802
30.7648
22.9864
23.0584
20.8242
30.6589
23.0146
23.0912
30.7139
20.81
23.026
23.0925
22.9924
23.0525
30.831
20.287
20.2879
22.0998
25.07
51.0029
33.1001
25.0436
33.0265
22.0871
22.2714
25.4059
52.3118
34.0381
25.3567
33.9141
22.2834
21.3238
25.8314
27.6231
21.0551
27.5375
21.0427
21.335
22.2743
25.4166
52.3377
34.0468
33.9247
25.3671
22.2871
21.3249
25.8312
21.0554
27.6282
21.0431
27.5436
21.3362
22.0202
25.0286
50.6737
32.827
25.0033
32.7622
22.0188
30.6671
20.8153
23.0194
23.0906
30.7728
22.9882
23.0554
30.8163
20.8187
22.9875
23.0496
30.7243
23.0204
23.0877
20.2943
20.4336
20.4205
20.8259
20.2724
20.4129
20.3977
20.8087
20.2596
20.4112
20.3889
20.8067
20.2602
20.4114
20.3893
20.8069
20.2601
20.4112
20.3893
20.8067
20.2599
20.4114
20.3892
20.8068
20.2601
20.4111
20.3892
20.8066
20.26
20.4115
20.3893
20.8069
20.2601
20.411
20.3892
20.8067
20.26
20.4115
20.3892
20.8068
20.26
20.411
20.3893
20.8066
20.2601
20.4116
20.3892
20.8068
20.2601
20.4111
20.3893
20.8067
20.26
20.4114
20.3892
20.8068
20.26
20.4111
20.3893
20.8067
20.2601
20.4114
20.3893
20.8068
20.26
20.4112
20.3893
20.8066
20.4182
20.4222
20.4103
20.4049
20.8218
20.8222
20.4408
20.4436
20.4257
20.4285
20.4434
20.416
20.4251
20.8232
20.8153
20.4186
20.4072
20.408
20.8175
20.8055
20.8153
20.4024
20.3977
20.3915
20.3906
20.8135
20.8176
20.4176
20.4202
20.4096
20.4119
20.4188
20.4114
20.4131
20.8052
20.8155
20.3996
20.3889
20.3875
20.8131
20.8071
20.816
20.3927
20.3918
20.3919
20.3916
20.8085
20.8202
20.411
20.4134
20.41
20.4122
20.4146
20.4114
20.4132
20.8073
20.8158
20.3888
20.3894
20.3877
20.8133
20.8074
20.816
20.3931
20.3928
20.3921
20.3911
20.8127
20.8178
20.4116
20.4135
20.4101
20.4123
20.4147
20.4114
20.4132
20.8072
20.8157
20.389
20.3894
20.3878
20.8133
20.8074
20.8159
20.3932
20.3921
20.3919
20.3916
20.8086
20.8201
20.4116
20.4137
20.41
20.4122
20.4146
20.4113
20.4132
20.8071
20.8156
20.389
20.3892
20.3878
20.8133
20.8073
20.816
20.3931
20.3927
20.392
20.3911
20.8127
20.8177
20.4115
20.4136
20.41
20.4122
20.4147
20.4113
20.4132
20.807
20.8156
20.389
20.3892
20.3877
20.8132
20.8074
20.8159
20.3932
20.3921
20.392
20.3917
20.8085
20.8202
20.4115
20.4136
20.4101
20.4123
20.4146
20.4115
20.4133
20.807
20.8157
20.389
20.3894
20.3878
20.8133
20.8073
20.816
20.3931
20.3928
20.392
20.3911
20.8127
20.8177
20.4116
20.4136
20.4101
20.4123
20.4147
20.4112
20.4132
20.8071
20.8157
20.3891
20.3893
20.3879
20.8133
20.8074
20.8159
20.3932
20.3921
20.392
20.3916
20.8085
20.8202
20.4115
20.4136
20.41
20.4123
20.4146
20.4115
20.4132
20.8071
20.8157
20.3891
20.3892
20.3877
20.8133
20.8073
20.816
20.3931
20.3928
20.3921
20.3911
20.8128
20.8178
20.4115
20.4136
20.4101
20.4122
20.4146
20.4113
20.4132
20.807
20.8156
20.389
20.3893
20.3878
20.8132
20.8074
20.8159
20.3934
20.3921
20.3921
20.3917
20.8086
20.8202
20.4115
20.4136
20.41
20.4122
20.4146
20.4115
20.4133
20.807
20.8156
20.389
20.3892
20.3878
20.8133
20.8073
20.8159
20.3933
20.3928
20.392
20.3911
20.8127
20.8181
20.4115
20.4136
20.41
20.4123
20.4147
20.4114
20.4132
20.807
20.8156
20.389
20.3893
20.3878
20.8133
20.8073
20.8158
20.3932
20.3922
20.3919
20.3917
20.8089
20.8202
20.4115
20.4136
20.41
20.4122
20.4146
20.4114
20.4132
20.807
20.8156
20.3891
20.3893
20.3877
20.8132
20.8072
20.8159
20.3931
20.3928
20.392
20.391
20.8127
20.8176
20.4115
20.4135
20.41
20.4122
20.4147
20.4113
20.4132
20.807
20.8156
20.389
20.3893
20.3878
20.8133
20.8072
20.8159
20.3932
20.392
20.392
20.3917
20.8084
20.8203
20.4115
20.4136
20.4101
20.4123
20.4146
20.4114
20.4132
20.807
20.8157
20.3891
20.3893
20.3877
20.8132
20.8073
20.8159
20.3931
20.3929
20.392
20.3911
20.8128
20.8178
20.4116
20.4136
20.4101
20.4123
20.4147
20.4113
20.4132
20.8071
20.8156
20.389
20.3893
20.3878
20.8132
20.8072
20.3932
20.3921
20.8085
20.4115
20.4135
20.4373
20.4146
20.414
20.807
20.8255
20.3891
20.4149
20.3887
20.8115
57.3259
223.652
57.4666
224.146
372.644
372.653
59.4927
224.799
58.9151
226.571
20.2951
20.2943
20.2945
20.285
20.2861
20.2842
20.2864
25.8844
52.4855
20.3204
20.4304
52.9028
20.3174
25.786
372.974
374.542
25.1823
20.3148
50.7105
20.4179
20.3152
51.0103
25.1481
104.624
102.286
20.8257
105.105
102.721
57.3993
224.592
57.3789
224.44
373.076
372.928
59.9993
227.509
59.482
227.53
20.2755
20.2741
20.2757
20.2597
20.2601
20.26
20.26
25.9974
53.1514
20.2945
20.4132
25.8966
53.2836
20.295
375.158
375.113
25.3046
20.2962
51.3185
20.3932
25.2273
20.2898
51.464
105.701
103.615
20.8129
105.718
103.726
57.4224
224.737
57.4612
224.555
373.056
372.897
60.1717
227.662
59.9191
227.571
20.2619
20.2619
20.2618
20.2607
20.2605
20.2605
20.2604
25.9966
53.23
20.2922
20.4121
25.9164
53.2874
20.294
375.314
375.171
25.3216
20.2824
51.583
20.3903
25.3159
20.2845
51.5889
105.873
103.851
20.8128
105.828
103.736
57.4207
224.751
57.4501
224.557
373.095
372.939
60.1651
227.77
59.9219
227.594
20.2623
20.2623
20.2622
20.2603
20.2604
20.2605
20.2604
25.996
53.2351
20.2923
20.4131
25.9163
53.3032
20.2942
375.319
375.147
25.3185
20.2829
51.5917
20.3904
25.3154
20.2845
51.5809
105.897
103.84
20.813
105.839
103.74
57.4144
224.75
57.4513
224.541
373.097
372.912
60.1652
227.763
59.9214
227.594
20.2622
20.2622
20.2621
20.2601
20.2604
20.2605
20.2603
25.9957
53.2309
20.2923
20.4121
25.9157
53.2895
20.2942
375.317
375.173
25.3216
20.2826
51.5879
20.3904
25.3177
20.2843
51.5826
105.89
103.832
20.8127
105.832
103.726
57.3662
224.749
57.3952
224.556
373.09
372.934
60.1643
227.79
59.9206
227.603
20.2622
20.2622
20.2621
20.2604
20.2604
20.2604
20.2604
25.9958
53.2355
20.2922
20.413
25.9157
53.303
20.2941
375.32
375.148
25.3169
20.2827
51.5891
20.3903
25.313
20.2844
51.5799
105.9
103.829
20.8128
105.837
103.721
57.4179
224.741
57.4481
224.53
373.091
372.911
60.1651
227.764
59.9212
227.594
20.2622
20.2622
20.2621
20.2602
20.2605
20.2605
20.2604
25.9957
53.231
20.2922
20.4121
25.9156
53.2897
20.2941
375.318
375.174
25.3178
20.2827
51.5874
20.3903
25.3128
20.2844
51.5776
105.891
103.818
20.8127
105.833
103.714
57.4245
224.75
57.4641
224.554
373.093
372.938
60.1642
227.771
59.9206
227.595
20.2622
20.2622
20.2622
20.2603
20.2604
20.2605
20.2604
25.9957
53.2356
20.2923
20.4132
25.9157
53.3029
20.2942
375.32
375.146
25.3235
20.2827
51.5869
20.3905
25.3157
20.2844
51.5815
105.9
103.838
20.813
105.84
103.725
57.4153
224.75
57.4516
224.541
373.096
372.912
60.1654
227.763
59.9216
227.594
20.2622
20.2622
20.2622
20.2602
20.2605
20.2605
20.2604
25.9957
53.2312
20.2922
20.412
25.9157
53.2898
20.2941
375.318
375.174
25.325
20.2826
51.5816
20.3904
25.3196
20.2844
51.5828
105.891
103.83
20.8128
105.832
103.728
57.3684
224.749
57.3985
224.567
373.09
372.933
60.1646
227.772
59.9208
227.594
20.2622
20.2622
20.2622
20.2602
20.2604
20.2605
20.2604
25.9958
53.2353
20.2923
20.4132
25.9157
53.3041
20.2942
375.32
375.164
25.3246
20.2826
51.5875
20.3903
25.3189
20.2844
51.5794
105.9
103.831
20.8129
105.84
103.717
57.4164
224.738
57.446
224.511
373.127
372.929
60.1652
227.803
59.9214
227.616
20.2622
20.2622
20.2622
20.2602
20.2605
20.2605
20.2604
25.9957
53.2309
20.2922
20.412
25.9157
53.2897
20.294
375.315
375.148
25.3216
20.2827
51.5871
20.3904
25.3192
20.2844
51.5778
105.89
103.797
20.8126
105.832
103.706
57.4161
224.739
57.4489
224.538
373.106
372.96
60.1644
227.704
59.9208
227.572
20.2622
20.2622
20.2622
20.2604
20.2604
20.2605
20.2604
25.9958
53.2354
20.2922
20.4132
25.9157
53.3031
20.2941
375.311
375.15
25.3169
20.2826
51.5872
20.3903
25.3123
20.2844
51.5767
105.9
103.833
20.813
105.838
103.716
57.3879
224.748
57.4345
224.533
373.121
372.949
60.1652
227.767
59.9213
227.595
20.2622
20.2622
20.2622
20.2602
20.2604
20.2605
20.2604
25.9958
53.2316
20.2922
20.412
25.9157
53.2901
20.2941
375.319
375.173
25.3182
20.2827
51.5739
20.3904
25.3134
20.2844
51.5789
105.891
103.798
20.8126
105.832
103.703
57.4185
224.776
57.4448
224.568
373.115
372.968
60.1646
227.772
59.921
227.596
20.2622
20.2622
20.2622
20.2602
20.2604
20.2605
20.2604
25.9959
53.2355
20.2922
20.4132
25.9158
53.3031
20.2941
375.32
375.146
25.3222
20.2826
51.5883
20.3903
25.3162
20.2843
51.582
105.899
103.832
20.8129
105.838
103.717
57.4352
224.738
57.4592
224.533
373.112
372.932
60.1653
227.764
59.9213
227.595
20.2622
20.2622
20.2622
20.2603
20.2605
20.2605
20.2604
25.9957
53.2308
20.2923
20.4121
25.9156
53.2894
20.2942
375.318
375.175
25.3217
20.2828
51.5895
20.3904
25.3149
20.2845
51.5787
105.895
103.797
20.8126
105.834
103.705
57.3745
224.746
57.4116
224.548
373.123
372.965
60.1645
227.768
59.9208
227.595
20.2622
20.2622
20.2622
20.2602
20.2604
20.2605
20.2604
25.9958
53.2356
20.2922
20.4131
25.9157
53.3031
20.2941
375.319
375.149
25.3239
20.2826
51.5874
20.3904
25.3183
20.2843
51.5795
105.902
103.831
20.8129
105.841
103.716
57.4271
224.739
57.4486
224.532
373.115
372.928
60.1658
227.764
59.9212
227.594
20.2622
20.2622
20.2622
20.294
20.2616
25.9958
53.2309
20.2923
20.4121
25.9157
53.2875
20.2942
375.317
375.173
25.3234
20.2826
51.5774
20.3904
25.3189
20.2844
51.5922
105.893
103.797
20.8128
105.833
103.704
57.3057
224.062
224.017
57.4456
25.303
51.0295
20.317
20.4172
20.3158
25.3261
51.2754
25.3019
51.4234
20.3176
20.4203
51.3291
20.3161
25.3289
57.1791
224.514
57.392
224.01
57.1568
224.537
223.859
57.3406
25.2543
20.4152
51.3839
20.3009
20.3118
25.3032
51.1285
25.254
20.4155
51.441
20.3001
51.1836
20.3117
25.304
103.426
104.632
20.8252
103.298
105.402
374.676
374.895
372.983
372.592
20.816
103.639
105.995
103.041
105.137
375.143
374.815
25.866
52.3185
20.3259
20.4371
20.3243
25.8054
52.7055
59.4806
224.71
226.544
58.9088
25.8653
20.3267
52.3409
20.4398
20.3249
52.7169
25.8042
59.2218
227.382
59.6041
226.361
25.7624
20.4337
52.8462
20.3144
20.3213
25.8464
52.473
59.2148
227.274
226.324
59.6106
25.763
20.4363
20.3149
52.857
20.3219
52.4771
25.8482
59.722
226.531
227.241
59.2342
25.8743
20.3259
52.6377
20.4406
20.3237
52.8911
25.7895
59.6356
226.491
227.041
59.2087
25.8012
20.4219
53.2077
20.2993
52.684
20.3084
25.9686
59.4853
227.562
227.034
60.0088
25.7868
20.4346
20.3068
53.1214
20.3181
52.6644
25.9492
59.4031
227.568
226.819
59.9486
104.054
101.92
20.8238
104.916
102.519
371.423
372.361
375.068
374.537
20.8143
105.382
103.261
104.68
102.33
372.867
372.338
25.1907
20.3147
50.8506
20.4171
20.3147
50.956
25.1445
56.8122
222.207
223.337
56.4602
56.8057
222.719
223.567
56.4826
25.143
20.4134
20.3085
51.2255
20.3132
50.864
25.2318
25.1527
20.414
20.3078
51.205
20.313
50.8293
25.2272
56.6837
224.31
223.341
57.0801
56.684
224.421
223.507
57.0735
374.531
374.807
371.621
372.383
20.8158
105.725
103.457
104.869
102.525
375.08
374.809
372.885
372.368
372.833
372.908
375.089
375.2
103.164
105.176
20.8124
103.68
105.92
372.982
372.88
375.34
375.176
20.8052
103.805
106.111
103.5
105.676
57.4462
224.48
57.2073
224.597
25.3185
51.2891
20.2921
20.3974
25.2685
51.5866
20.288
25.3236
51.3343
20.2917
20.3947
25.2704
51.6201
20.2879
57.2658
224.725
224.263
57.5003
57.316
224.646
224.55
57.508
25.2828
20.3922
51.6016
20.2832
51.4427
20.2833
25.3336
25.2895
20.3909
51.6181
20.2832
51.469
20.2834
25.3418
103.451
105.734
20.8207
103.824
106.078
375.144
375.212
372.981
372.908
20.8118
103.907
106.054
103.644
105.803
375.302
375.188
25.9325
52.6464
20.3044
20.4136
25.7622
53.1574
20.2987
59.9432
227.06
59.3698
227.614
25.9299
20.305
52.6524
20.416
25.7664
20.2992
53.1805
59.7449
227.652
227.33
60.1501
25.8589
20.4097
53.3133
20.2921
52.9528
20.2927
25.998
59.6997
227.85
227.421
60.1294
25.857
20.412
20.2927
53.3602
20.2932
52.9714
26.001
60.1331
227.381
59.7535
227.784
25.993
20.2998
52.8943
20.4161
25.8679
20.2968
53.3059
60.1211
227.374
59.7046
227.742
25.8988
20.4125
53.3787
20.2922
53.04
20.2941
26.0028
59.8538
227.817
227.61
60.1351
25.8982
20.4131
20.2929
53.342
20.293
53.0621
25.9973
59.849
227.767
227.547
60.1385
105.157
103.114
20.8126
105.909
103.711
372.874
372.979
375.249
375.086
20.8051
106.092
103.814
105.672
103.517
372.99
372.949
25.2999
20.2977
51.0733
20.3941
25.1964
20.2908
51.5074
57.3974
224.405
56.9759
224.812
57.4053
224.245
56.9743
224.599
25.2685
20.3898
20.2825
51.6487
20.2848
51.3263
25.3384
25.2674
20.3883
20.2826
51.5492
20.2837
51.3667
25.333
57.2659
224.668
224.554
57.471
57.2812
224.793
224.529
57.4907
375.046
375.229
372.902
373.027
20.804
105.988
103.915
105.461
103.522
375.157
375.141
373.012
372.99
372.95
372.987
375.229
375.247
103.621
105.855
20.8149
103.881
106.203
373.024
372.974
375.299
375.233
20.8072
103.867
106.176
103.691
105.93
57.5143
224.641
57.3713
224.675
25.3247
51.4517
20.285
20.3927
25.2938
51.6475
20.285
25.3388
51.4769
20.2851
20.3918
25.304
51.6604
20.285
57.2864
224.702
224.512
57.5012
57.3772
224.843
224.581
57.5263
25.285
20.3919
51.6331
20.2838
51.4992
20.2843
25.3323
25.3002
20.3917
51.6387
20.2837
51.5058
20.284
25.3441
103.733
105.758
20.8156
103.915
106.077
375.191
375.199
373.007
372.902
20.8083
103.811
106.157
103.689
105.727
375.318
375.209
25.9966
53.0653
20.2939
20.411
25.9052
53.3272
20.2938
60.1548
227.645
59.8565
227.886
26.002
20.2946
53.1187
20.4134
25.9125
20.2946
53.3987
59.8829
227.902
227.351
60.1658
25.902
20.41
53.3452
20.2925
53.0832
20.2927
25.9997
59.8703
227.813
227.678
60.143
25.905
20.4122
20.2932
53.372
20.2934
53.1416
26.0029
60.1479
227.68
59.8517
227.773
25.9946
20.2948
53.0791
20.4145
25.9008
20.2947
53.3439
60.1463
227.643
59.8578
227.752
25.8988
20.4116
53.3726
20.2923
53.0311
20.2935
26.0048
59.8621
227.799
227.587
60.1346
25.898
20.4133
20.2933
53.3459
20.2933
53.0894
25.9996
59.8634
227.759
227.573
60.1396
105.829
103.611
20.8151
106.15
103.818
372.961
373.001
375.267
375.19
20.807
106.139
103.822
105.887
103.618
373.004
372.97
25.3307
20.2843
51.4517
20.3888
25.2915
20.2842
51.568
57.5022
224.604
57.3357
224.81
57.5064
224.644
57.3634
224.773
25.2929
20.3898
20.2832
51.6733
20.2842
51.4334
25.3376
25.2963
20.3878
20.283
51.5525
20.2832
51.4121
25.3319
57.3929
224.792
224.571
57.474
57.4039
224.726
224.662
57.4839
375.145
375.285
372.983
373.053
20.804
106.027
103.899
105.562
103.535
375.162
375.171
373.005
372.995
372.979
373.011
375.269
375.34
103.674
105.909
20.815
103.898
106.214
373.029
372.973
375.293
375.232
20.8072
103.87
106.176
103.705
105.938
57.5145
224.703
57.3868
224.697
25.3257
51.474
20.2855
20.3931
25.2936
51.6571
20.2854
25.3389
51.4817
20.2854
20.3927
25.3055
51.6657
20.2853
57.2842
224.71
224.533
57.502
57.3773
224.845
224.599
57.5276
25.2858
20.3921
51.6397
20.2837
51.5077
20.2842
25.3329
25.3001
20.3915
51.6478
20.2836
51.5059
20.284
25.3445
103.624
105.837
20.8202
103.885
106.052
375.194
375.201
373.023
372.92
20.8115
103.929
106.058
103.704
105.782
375.206
375.192
25.9919
53.0879
20.2941
20.4113
25.9015
53.3293
20.2941
60.15
227.644
59.8601
227.778
25.9976
20.2948
53.1065
20.4134
25.9089
20.2947
53.3707
59.8787
227.871
227.382
60.1656
25.8996
20.4101
53.3411
20.2926
53.083
20.293
26.0002
59.8673
227.898
227.592
60.142
25.903
20.4123
20.2932
53.3749
20.2935
53.1196
26.0034
60.1479
227.681
59.8514
227.782
25.9934
20.2949
53.0798
20.4145
25.9023
20.2948
53.3499
60.146
227.549
59.8585
227.863
25.8988
20.4124
53.377
20.2924
53.0516
20.2937
26.0041
59.8622
227.791
227.595
60.1336
25.897
20.4132
20.2932
53.352
20.2934
53.0955
25.9992
59.8629
227.855
227.651
60.1386
105.861
103.638
20.8147
106.137
103.753
372.968
372.985
375.253
375.135
20.8067
106.127
103.799
105.874
103.555
372.998
372.956
25.3291
20.2847
51.4588
20.389
25.2896
20.2846
51.5637
57.4764
224.689
57.3397
224.723
57.4974
224.688
57.3515
224.69
25.2801
20.3899
20.2826
51.6694
20.284
51.4254
25.3414
25.2906
20.3879
20.2829
51.5613
20.2832
51.4071
25.337
57.3352
224.815
224.541
57.4835
57.3669
224.833
224.59
57.5234
375.136
375.299
372.99
373.023
20.8042
106.024
103.915
105.573
103.538
375.179
375.185
373.018
373.001
372.995
373.008
375.267
375.341
103.677
105.909
20.8149
103.889
106.208
373.025
372.978
375.298
375.234
20.8071
103.857
106.176
103.693
105.933
57.5078
224.712
57.388
224.697
25.3272
51.4795
20.2854
20.3931
25.2941
51.654
20.2853
25.3395
51.4949
20.2853
20.3921
25.3059
51.6646
20.2852
57.3174
224.702
224.517
57.4566
57.3982
224.673
224.625
57.4812
25.2865
20.392
51.6315
20.2837
51.5029
20.2841
25.328
25.2997
20.3919
51.6192
20.2836
51.5049
20.284
25.3394
103.752
105.766
20.8156
103.922
106.092
375.181
375.305
372.998
372.923
20.8083
103.811
106.16
103.693
105.742
375.295
375.217
25.9916
53.0851
20.2942
20.4113
25.9015
53.329
20.2941
60.1487
227.677
59.8586
227.877
25.9965
20.2948
53.1185
20.4135
25.9086
20.2947
53.3884
59.8789
227.915
227.384
60.1652
25.8995
20.41
53.3438
20.2926
53.0824
20.293
26
59.8666
227.813
227.669
60.142
25.9024
20.4123
20.2932
53.3705
20.2935
53.1342
26.0033
60.1475
227.688
59.8505
227.784
25.993
20.2947
53.0858
20.4144
25.9019
20.2947
53.3521
60.1456
227.638
59.8577
227.868
25.8985
20.4116
53.3739
20.2923
53.0335
20.2936
26.0041
59.8619
227.802
227.598
60.1338
25.8967
20.4132
20.2932
53.3492
20.2934
53.097
25.9991
59.8626
227.791
227.654
60.1385
105.851
103.596
20.8148
106.139
103.801
372.971
372.993
375.267
375.186
20.8067
106.135
103.816
105.878
103.601
373.008
372.959
25.3327
20.2846
51.4596
20.389
25.2945
20.2845
51.565
57.5003
224.701
57.3477
224.722
57.5154
224.687
57.3897
224.748
25.2909
20.3899
20.2828
51.6707
20.2839
51.427
25.3345
25.2928
20.3879
20.2829
51.5545
20.2832
51.4103
25.3336
57.3798
224.816
224.542
57.4557
57.3797
224.747
224.696
57.5015
375.164
375.199
372.993
373.025
20.8039
106.031
103.887
105.567
103.525
375.18
375.164
373.006
372.998
372.993
373.013
375.27
375.337
103.666
105.91
20.815
103.895
106.216
373.029
372.972
375.289
375.221
20.8072
103.87
106.177
103.701
105.94
57.4843
224.656
57.3454
224.662
25.3162
51.4719
20.2853
20.3931
25.2875
51.6561
20.2852
25.3334
51.4666
20.2853
20.3927
25.3002
51.6642
20.2852
57.2314
224.701
224.535
57.4717
57.3473
224.674
224.655
57.4984
25.2778
20.3921
51.6395
20.2837
51.5078
20.2841
25.3316
25.2948
20.3915
51.6275
20.2836
51.5033
20.2839
25.3388
103.624
105.837
20.8202
103.886
106.046
375.196
375.204
373.012
372.933
20.8114
103.927
106.058
103.702
105.777
375.206
375.197
25.9912
53.0888
20.2942
20.4112
25.9012
53.3308
20.2941
60.1486
227.646
59.8586
227.779
25.9964
20.2948
53.1058
20.4134
25.9084
20.2947
53.3699
59.8782
227.876
227.393
60.1654
25.8991
20.41
53.341
20.2926
53.0842
20.2929
26
59.8665
227.899
227.592
60.1419
25.9023
20.4122
20.2932
53.3746
20.2935
53.1189
26.0033
60.1478
227.683
59.8507
227.784
25.993
20.2948
53.0817
20.4144
25.9018
20.2947
53.3499
60.1457
227.571
59.8577
227.861
25.8986
20.4124
53.377
20.2922
53.0514
20.2936
26.004
59.8622
227.791
227.595
60.1337
25.8967
20.4132
20.2932
53.3518
20.2935
53.0955
25.9991
59.8627
227.856
227.652
60.1386
105.859
103.632
20.8147
106.131
103.749
372.972
372.985
375.254
375.136
20.8067
106.126
103.794
105.868
103.551
373
372.954
25.3311
20.2846
51.4573
20.389
25.2913
20.2845
51.572
57.4706
224.702
57.3203
224.724
57.5079
224.647
57.3686
224.827
25.2879
20.3899
20.2827
51.6687
20.284
51.4247
25.3335
25.2916
20.3879
20.2829
51.5486
20.2832
51.4137
25.3336
57.3606
224.816
224.544
57.4463
57.3735
224.715
224.671
57.5016
375.161
375.195
372.974
373.035
20.804
106.025
103.884
105.573
103.521
375.188
375.178
373.004
372.991
372.994
373.006
375.263
375.337
103.677
105.909
20.8149
103.889
106.212
373.025
372.979
375.292
375.229
20.8071
103.854
106.174
103.693
105.937
57.5095
224.66
57.3624
224.684
25.3262
51.4793
20.2854
20.3931
25.2934
51.6535
20.2853
25.3383
51.4819