/*--------------------------------*- C++ -*----------------------------------*\
| =========                 |                                                 |
| \\      /  F ield         | OpenFOAM: The Open Source CFD Toolbox           |
|  \\    /   O peration     | Version:  2206                                  |
|   \\  /    A nd           | Website:  www.openfoam.com                      |
|    \\/     M anipulation  |                                                 |
\*---------------------------------------------------------------------------*/
FoamFile
{
    version     2.0;
    format      ascii;
    arch        "LSB;label=32;scalar=64";
    class       volScalarField;
    location    "0.4";
    object      omega;
}
// * * * * * * * * * * * * * * * * * * * * * * * * * * * * * * * * * * * * * //

dimensions      [0 0 -1 0 0 0 0];

internalField   nonuniform List<scalar> 
66928
(
32.3128
24.9751
25.3705
25.3758
32.3362
24.912
32.2351
32.2914
18.7442
18.7302
410.084
411.707
197.725
199.595
299.848
137.985
301.967
152.492
140.856
20.6509
69.2215
301.984
152.492
20.6646
140.855
69.2163
411.688
199.549
197.479
410.227
138.019
299.882
410.245
410.176
411.882
411.705
197.539
199.416
32.3032
197.54
199.59
410.189
410.303
411.694
411.876
32.2253
197.493
199.592
197.406
199.416
410.14
160.378
99.2739
197.711
307.469
307.508
99.0499
160.659
160.26
100.592
199.417
309.007
309.083
100.302
160.56
246.364
417.072
417.81
417.238
417.984
246.354
299.917
209.208
209.48
431.226
212.277
434.001
168.603
313.262
335.125
212.289
434.004
313.266
168.61
335.137
160.257
100.594
199.37
308.982
100.302
309.058
160.552
160.394
99.2203
197.372
307.539
307.598
98.9954
160.665
246.304
417.782
417.127
417.954
417.283
246.303
410.339
299.911
208.499
208.468
431.171
410.15
410.288
411.708
411.881
246.365
417.075
417.811
417.244
417.993
246.355
160.686
99.0557
307.553
197.607
160.407
307.499
99.276
160.567
100.315
309.089
199.592
160.272
309.011
100.604
246.355
417.242
417.993
246.365
417.077
417.814
160.431
307.507
197.453
99.2798
307.57
160.706
99.0592
160.277
309.011
199.417
100.617
309.092
160.57
100.329
410.308
410.186
411.87
411.7
246.353
417.239
417.987
246.364
417.07
417.805
160.459
99.3064
197.386
307.501
307.567
99.079
160.729
160.278
100.634
199.419
309.001
309.086
100.349
160.57
160.72
307.571
99.0657
197.509
160.447
307.506
99.2895
160.57
309.09
100.341
199.591
160.278
309.008
100.626
246.36
417.064
417.799
417.234
417.981
246.346
89.5494
32.2369
53.81
54.4314
53.6134
54.2053
89.8185
89.5328
32.2619
54.3315
53.8114
54.0915
53.6016
89.8017
89.8258
53.6511
54.2221
32.308
89.5574
53.847
54.4435
89.5728
32.2188
53.9145
54.4633
53.7313
54.2481
89.8385
17.9493
17.9461
46.1251
65.9756
137.785
97.1355
65.7578
96.9778
46.1671
47.6747
67.9218
140.543
100.53
67.6168
100.203
47.8565
39.2559
68.8954
78.4792
35.5097
78.1521
35.3255
39.4461
47.664
67.8634
140.54
100.538
100.21
67.5583
47.8516
39.2473
68.8898
35.5078
78.4739
35.3236
78.1445
39.4436
45.9914
66.2503
137.828
97.293
66.0619
97.1265
46.06
89.5661
32.2302
53.8793
54.456
89.8332
53.6873
54.235
89.8358
32.2975
53.7149
54.2454
89.571
53.9012
54.4626
18.7368
25.3636
24.8954
32.2783
18.709
25.3306
24.8591
32.2751
18.6997
25.261
24.8031
32.2001
18.7034
25.2862
24.81
32.2054
18.6932
25.297
24.8187
32.2076
18.6882
25.2903
24.8244
32.2362
18.6875
25.2922
24.822
32.2341
18.688
25.2931
24.8255
32.2403
18.6883
25.2937
24.8255
32.2422
18.6881
25.2888
24.8226
32.236
18.6877
25.2865
24.8193
32.2329
18.687
25.283
24.816
32.2287
18.6868
25.2848
24.816
32.2308
18.6869
25.2832
24.8163
32.2296
18.6869
25.285
24.8164
32.2315
18.6868
25.2834
24.8162
32.2273
18.6868
25.2849
24.8169
32.232
24.9556
24.945
24.9021
24.9
32.237
32.3003
25.3569
25.3614
25.326
25.3311
25.3753
25.3414
25.3493
32.2594
32.3291
24.87
24.8627
24.8493
32.3513
32.2141
32.2615
24.893
24.8866
24.8528
24.8375
32.2257
32.2205
25.3208
25.3269
25.2854
25.2927
25.3429
25.2655
25.2881
32.2536
32.3086
24.8466
24.8206
24.8096
32.2966
32.1691
32.1918
24.8358
24.8316
24.8287
24.846
32.1339
32.273
25.2646
25.2712
25.2519
25.2568
25.2723
25.2837
25.2825
32.2139
32.2281
24.7921
24.7987
24.7896
32.2541
32.1435
32.2574
24.8393
24.8457
24.846
24.842
32.2038
32.2658
25.2663
25.2703
25.2762
25.2794
25.2914
25.2914
25.2922
32.1775
32.2913
24.8007
24.8178
24.8087
32.2866
32.1756
32.2817
24.8467
24.8424
24.8493
24.8461
32.2001
32.2786
25.2766
25.2798
25.2863
25.2915
25.295
25.2925
25.2989
32.2079
32.3231
24.8108
24.8246
24.8144
32.3206
32.2023
32.2634
24.8485
24.8422
24.8443
24.8375
32.1959
32.2699
25.2859
25.2913
25.2809
25.286
25.2965
25.2909
25.2962
32.2431
32.3036
24.8123
24.8218
24.8111
32.3102
32.1842
32.274
24.8447
24.8378
24.8467
24.8443
32.1942
32.2807
25.2811
25.2862
25.2853
25.2905
25.2967
25.294
25.3
32.2244
32.3156
24.8112
24.8254
24.814
32.3171
32.1937
32.2756
24.8471
24.8422
24.8481
24.8393
32.1986
32.2748
25.2857
25.2907
25.2871
25.2912
25.3
25.2936
25.3003
32.2349
32.3158
24.8141
24.8262
24.8154
32.3187
32.1957
32.2737
24.8485
24.8395
24.849
24.8461
32.1983
32.2801
25.2868
25.2907
25.2846
25.2882
25.2992
25.2909
25.2964
32.2351
32.311
24.8147
24.8236
24.8128
32.3134
32.1929
32.2688
24.849
24.8441
24.8474
24.8386
32.1974
32.2681
25.2837
25.2873
25.2814
25.2849
25.2952
25.2867
25.2936
32.2301
32.3069
24.8117
24.8205
24.8105
32.3104
32.1876
32.2635
24.8467
24.8384
24.8442
24.8424
32.1909
32.2727
25.2798
25.2836
25.2764
25.2804
25.2919
25.2841
25.29
32.2256
32.3016
24.809
24.8166
24.8063
32.306
32.1831
32.2627
24.844
24.8401
24.8431
24.8367
32.1903
32.2658
25.2757
25.2798
25.2756
25.2797
25.2891
25.2842
25.29
32.2209
32.3025
24.8054
24.8162
24.8062
32.3072
32.183
32.2645
24.8434
24.8368
24.8438
24.8424
32.1891
32.2728
25.2755
25.2797
25.2764
25.2806
25.2899
25.2844
25.2902
32.2221
32.3036
24.8058
24.8167
24.8062
32.3067
32.1843
32.263
24.8439
24.8402
24.8435
24.837
32.1904
32.2661
25.276
25.2803
25.2759
25.2803
25.2894
25.2845
25.2905
32.2231
32.3023
24.8056
24.8165
24.8064
32.3073
32.1835
32.2641
24.8438
24.8369
24.8435
24.8421
32.1894
32.2728
25.2759
25.2804
25.2763
25.2805
25.2901
25.2845
25.2898
32.2222
32.3032
24.806
24.8166
24.8055
32.3042
32.1836
32.2644
24.8435
24.84
24.8434
24.8366
32.1905
32.2655
25.2758
25.2801
25.2763
25.2805
25.2895
25.2843
25.2907
32.2221
32.3043
24.8052
24.8167
24.8068
32.3094
32.1846
24.8437
24.8367
32.1887
25.2762
25.2798
25.2899
25.2921
32.2239
24.806
24.8078
32.3118
148.323
299.901
148.035
299.887
410.277
410.186
152.534
302.045
152.184
301.987
18.7326
18.7245
18.7234
18.7147
18.7157
18.7085
18.7091
69.2641
140.522
20.6502
25.3528
140.856
20.639
68.9393
411.866
411.685
66.0358
20.1567
137.845
24.8806
20.1559
138.042
65.9322
199.223
197.541
32.3506
199.372
197.638
148.55
299.931
148.374
299.881
410.327
410.207
152.573
302.054
152.247
301.962
18.7089
18.705
18.7052
18.7003
18.6981
18.6989
18.6976
69.2278
140.556
20.6161
25.3091
68.9832
140.723
20.6048
411.845
411.652
66.021
20.1525
137.877
24.8535
65.9285
20.1513
138.03
199.155
197.516
32.3477
199.278
197.567
148.575
299.904
148.36
299.868
410.319
410.175
152.289
302.004
152.085
301.939
18.6987
18.6985
18.6976
18.7027
18.7066
18.7024
18.704
69.0424
140.329
20.5765
25.263
68.6448
140.752
20.5772
411.815
411.649
65.8126
20.1409
137.671
24.7945
65.7621
20.1406
137.845
199.082
197.401
32.2263
199.287
197.53
148.561
299.91
148.423
299.873
410.315
410.205
152.514
302.033
152.169
301.969
18.7068
18.7031
18.7047
18.6968
18.6988
18.6968
18.6981
69.1441
140.5
20.5869
25.2861
68.9362
140.798
20.5834
411.842
411.674
65.977
20.15
137.76
24.816
65.8071
20.1514
137.966
199.142
197.463
32.3136
199.329
197.592
148.575
299.911
148.434
299.872
410.315
410.172
152.528
302.046
152.158
301.98
18.6952
18.6933
18.6945
18.6887
18.6893
18.6891
18.6889
69.2457
140.539
20.583
25.2976
68.938
140.846
20.5828
411.855
411.682
66.0184
20.1482
137.815
24.822
65.8708
20.147
138.017
199.166
197.491
32.3087
199.35
197.609
148.54
299.907
148.398
299.871
410.31
410.208
152.509
302.051
152.201
301.981
18.6885
18.6887
18.6882
18.6874
18.6881
18.6881
18.6878
69.2108
140.518
20.5794
25.2899
68.9093
140.843
20.5788
411.854
411.679
66.0164
20.1451
137.837
24.8239
65.8993
20.1447
138.026
199.167
197.492
32.2946
199.348
197.608
148.516
299.915
148.362
299.882
410.335
410.201
152.507
302.054
152.197
301.986
18.6882
18.6881
18.6879
18.6879
18.6887
18.6888
18.6885
69.2192
140.519
20.5797
25.2933
68.9238
140.85
20.5801
411.855
411.682
66.0044
20.1441
137.831
24.8235
65.8963
20.1445
138.028
199.166
197.492
32.3016
199.348
197.609
148.524
299.928
148.362
299.894
410.353
410.245
152.507
302.059
152.204
301.988
18.6887
18.689
18.6886
18.6882
18.6886
18.689
18.6887
69.224
140.529
20.5813
25.2931
68.9236
140.853
20.5809
411.858
411.683
66.007
20.1456
137.835
24.8263
65.9076
20.1458
138.033
199.167
197.495
32.3023
199.349
197.613
148.534
299.934
148.366
299.895
410.36
410.214
152.509
302.058
152.209
301.987
18.6886
18.689
18.6886
18.6882
18.6886
18.6885
18.688
69.2219
140.524
20.5807
25.2935
68.9215
140.853
20.5799
411.857
411.681
66.0062
20.1454
137.838
24.8256
65.9068
20.1453
138.033
199.168
197.497
32.3009
199.351
197.612
148.532
299.931
148.373
299.892
410.351
410.24
152.511
302.059
152.209
301.989
18.6884
18.6884
18.6879
18.6878
18.688
18.688
18.6876
69.218
140.531
20.579
25.2879
68.9179
140.858
20.5784
411.857
411.682
66.0008
20.1444
137.839
24.8226
65.9063
20.1443
138.036
199.172
197.499
32.2947
199.356
197.615
148.53
299.927
148.372
299.89
410.362
410.221
152.515
302.061
152.212
301.992
18.6879
18.6878
18.6874
18.6871
18.6876
18.6872
18.6868
69.2199
140.533
20.577
25.2863
68.916
140.863
20.5763
411.858
411.683
66.001
20.1431
137.843
24.8191
65.9044
20.1428
138.039
199.176
197.503
32.2906
199.358
197.618
148.529
299.924
148.371
299.886
410.362
410.255
152.517
302.063
152.216
301.993
18.6875
18.6871
18.6867
18.6868
18.6874
18.6869
18.6867
69.2196
140.538
20.5758
25.283
68.9168
140.862
20.5755
411.858
411.683
66.0016
20.1415
137.846
24.8164
65.9045
20.1414
138.041
199.177
197.504
32.2879
199.359
197.619
148.526
299.923
148.361
299.887
410.372
410.228
152.517
302.063
152.216
301.993
18.6874
18.6869
18.6867
18.6869
18.6876
18.687
18.6867
69.22
140.534
20.576
25.2851
68.9172
140.864
20.5759
411.857
411.683
66.002
20.1412
137.846
24.8166
65.9041
20.1412
138.041
199.177
197.504
32.2907
199.358
197.618
148.529
299.923
148.369
299.887
410.367
410.256
152.517
302.063
152.217
301.992
18.6875
18.687
18.6867
18.6868
18.6874
18.6869
18.6867
69.2202
140.537
20.576
25.2833
68.9166
140.862
20.5757
411.858
411.683
65.9995
20.1412
137.846
24.8167
65.9029
20.1412
138.042
199.177
197.504
32.2885
199.358
197.618
148.528
299.923
148.366
299.887
410.371
410.228
152.517
302.063
152.216
301.992
18.6875
18.687
18.6867
18.6869
18.6876
18.687
18.6866
69.2194
140.534
20.5762
25.2852
68.9169
140.863
20.576
411.858
411.684
66.0005
20.1411
137.847
24.8169
65.9025
20.1412
138.042
199.177
197.503
32.2915
199.358
197.616
148.527
299.923
148.367
299.887
410.367
410.256
152.517
302.063
152.216
301.993
18.6875
18.6869
18.6866
18.6868
18.6874
18.6869
18.6867
69.22
140.538
20.576
25.2833
68.9172
140.862
20.5758
411.857
411.684
65.9994
20.1411
137.848
24.8166
65.903
20.1411
138.044
199.177
197.504
32.2898
199.359
197.619
148.53
299.923
148.369
299.886
410.37
410.222
152.516
302.063
152.216
301.992
18.6874
18.6869
18.6867
18.6867
69.22
140.534
20.5761
25.2844
68.9166
140.865
20.5759
411.863
411.663
66.0015
20.1412
137.849
24.8153
65.904
20.1412
138.046
199.177
197.503
32.2889
199.36
197.619
148.337
299.901
299.886
148.048
65.9368
137.824
20.3056
24.9347
20.2779
65.7752
138.06
65.9465
137.873
20.3125
24.9254
138.11
20.2826
65.7845
148.231
299.895
148.488
299.93
148.241
299.891
299.928
148.497
65.8265
24.9147
138.12
20.2315
20.2529
65.9933
137.897
65.8362
24.915
138.175
20.234
137.952
20.2566
66.0003
197.73
199.329
32.3055
197.742
199.524
411.835
411.67
410.202
410.298
32.2301
197.676
199.48
197.669
199.37
411.638
411.854
69.2462
140.566
20.6421
25.3446
20.6333
68.9158
140.891
152.531
302.062
302.002
152.185
69.2421
20.6533
140.564
25.3489
20.6429
140.889
68.9113
152.229
301.987
152.562
302.06
68.9434
25.3339
140.918
20.6167
20.6244
69.2797
140.599
152.226
302.003
302.075
152.563
68.9388
25.3384
20.6246
140.915
20.6331
140.595
69.2751
152.529
302.038
301.967
152.193
69.257
20.6557
140.503
25.3631
20.6451
140.829
68.9272
152.524
302.047
301.98
152.187
68.9584
25.3461
140.867
20.6242
140.562
20.6307
69.2942
152.22
301.944
302.035
152.54
68.9517
25.3549
20.6297
140.846
20.6367
140.534
69.2817
152.215
301.966
302.049
152.538
199.37
197.369
32.3316
199.543
197.472
410.341
410.22
411.675
411.858
32.2559
199.546
197.471
199.369
197.364
410.208
410.332
66.0434
20.1586
137.895
24.8606
20.1568
138.098
65.935
148.576
299.924
299.892
148.434
148.579
299.932
299.901
148.439
65.9116
24.8691
20.1534
138.055
20.1545
137.863
66.0543
65.9173
24.8535
20.1533
138.113
20.1548
137.92
66.0552
148.436
299.885
299.929
148.573
148.44
299.893
299.937
148.574
411.818
411.628
410.398
410.277
32.2754
199.346
197.635
199.198
197.531
411.61
411.797
410.263
410.386
410.306
410.173
411.862
411.671
197.366
199.412
32.2867
197.421
199.538
410.16
410.286
411.66
411.839
32.2096
197.352
199.47
197.283
199.34
148.557
299.927
148.381
299.88
66.0672
137.95
20.2133
24.886
65.8879
138.128
20.1983
66.0691
137.998
20.2144
24.8719
65.8933
138.142
20.198
148.397
299.867
299.914
148.496
148.402
299.875
299.916
148.5
65.9504
24.8729
137.991
20.1755
137.922
20.1857
66.0135
65.9522
24.8531
138.073
20.1751
137.938
20.1849
66.0156
197.523
199.264
32.2938
197.581
199.322
411.794
411.598
410.201
410.321
32.208
197.545
199.285
197.455
199.156
411.603
411.773
69.2846
140.623
20.6105
25.3151
68.9722
140.914
20.6063
152.57
302.07
152.249
301.978
69.2809
20.6182
140.62
25.3221
68.9682
20.6137
140.913
152.251
301.936
302.024
152.464
68.9715
25.3039
140.781
20.5952
140.598
20.6016
69.2447
152.246
301.952
302.041
152.462
68.9669
25.3114
20.6021
140.781
20.6089
140.596
69.2383
152.402
302.008
152.209
301.919
69.2363
20.6224
140.546
25.331
68.9711
20.6129
140.8
152.433
302.03
152.211
301.943
68.8647
25.2836
140.611
20.5806
140.37
20.5914
68.9883
152.028
301.923
301.989
152.279
68.8851
25.3111
20.5899
140.633
20.6011
140.461
69.0138
152.063
301.938
302.01
152.274
199.366
197.356
32.3322
199.493
197.409
410.318
410.186
411.64
411.821
32.2566
199.425
197.347
199.295
197.278
410.176
410.296
66.0277
20.1524
137.931
24.8421
65.9316
20.1513
138.079
148.527
299.917
148.423
299.855
148.531
299.924
148.427
299.865
65.8863
24.8403
20.1438
137.87
20.1481
137.816
65.928
65.8924
24.8301
20.144
137.928
20.1484
137.866
65.9355
148.356
299.833
299.883
148.381
148.361
299.843
299.894
148.385
411.777
411.593
410.37
410.24
32.2682
199.257
197.514
199.091
197.437
411.595
411.765
410.233
410.348
410.276
410.16
411.836
411.672
197.233
199.287
32.1872
197.354
199.476
410.163
410.277
411.687
411.85
32.1036
197.38
199.521
197.246
199.308
148.581
299.913
148.363
299.875
65.9686
137.792
20.168
24.827
65.858
137.957
20.1639
65.9745
137.884
20.1687
24.834
65.8605
138.079
20.1658
148.445
299.871
299.906
148.575
148.448
299.876
299.912
148.578
65.8662
24.8255
138.016
20.1605
137.787
20.1622
66.035
65.8732
24.844
138.093
20.1622
137.909
20.1644
66.0395
197.455
199.171
32.2054
197.578
199.428
411.782
411.651
410.191
410.28
32.1495
197.606
199.48
197.525
199.284
411.659
411.846
69.023
140.43
20.5864
25.2507
68.8957
140.664
20.5786
152.286
302.021
152.085
301.957
69.0178
20.5932
140.428
25.2565
68.8896
20.5851
140.661
151.987
301.958
302.014
152.442
68.664
25.248
140.789
20.5762
140.377
20.5753
69.0237
151.983
301.978
302.033
152.438
68.6584
25.2533
20.5824
140.784
20.5817
140.372
69.016
152.461
301.999
151.993
301.943
69.0095
20.584
140.318
25.2684
68.6552
20.5839
140.685
152.442
302.012
151.975
301.956
68.7981
25.2733
140.808
20.5866
140.485
20.5815
69.2538
152.177
301.955
302.019
152.488
68.7637
25.2711
20.5936
140.807
20.5872
140.425
69.2449
152.166
301.971
302.032
152.492
199.241
197.234
32.2277
199.431
197.361
410.293
410.187
411.664
411.827
32.1433
199.475
197.401
199.261
197.26
410.201
410.307
65.8175
20.141
137.728
24.7843
65.7701
20.1404
137.894
148.353
299.871
148.218
299.843
148.355
299.88
148.223
299.851
65.6892
24.794
20.1466
137.928
20.1419
137.688
65.8935
65.6928
24.7842
20.1458
137.973
20.1415
137.728
65.8927
148.232
299.86
299.886
148.453
148.235
299.868
299.892
148.454
411.77
411.607
410.348
410.245
32.1467
199.318
197.568
199.121
197.429
411.617
411.783
410.257
410.362
410.279
410.164
411.866
411.699
197.271
199.352
32.269
197.393
199.546
410.163
410.278
411.706
411.876
32.1983
197.397
199.558
197.28
199.37
148.567
299.914
148.425
299.879
65.9703
137.842
20.1574
24.846
65.9032
138.034
20.1533
65.9697
137.905
20.1582
24.8437
65.9052
138.087
20.1536
148.423
299.873
299.911
148.577
148.431
299.88
299.917
148.592
65.841
24.8464
138.03
20.1464
137.849
20.1494
66.0055
65.8431
24.8419
138.105
20.1467
137.911
20.1496
66.0165
197.477
199.29
32.2657
197.584
199.414
411.826
411.644
410.2
410.318
32.1839
197.57
199.386
197.471
199.257
411.644
411.821
69.2621
140.527
20.5808
25.2759
68.7801
140.855
20.5854
152.509
302.054
152.165
301.991
69.2541
20.5869
140.522
25.2795
68.772
20.5914
140.855
152.175
301.974
302.04
152.463
68.9537
25.2773
140.829
20.5802
140.544
20.5851
69.1546
152.17
301.999
302.064
152.459
68.9461
25.2807
20.5862
140.831
20.5911
140.543
69.1473
152.468
302.028
152.154
301.961
69.1448
20.595
140.503
25.2928
68.9384
20.592
140.769
152.46
302.044
152.155
301.977
68.8195
25.2871
140.834
20.582
140.507
20.5815
69.2161
152.166
301.966
302.034
152.525
68.8105
25.2919
20.5879
140.81
20.5881
140.469
69.1937
152.157
301.984
302.05
152.518
199.305
197.297
32.3052
199.5
197.426
410.319
410.209
411.68
411.85
32.2346
199.513
197.441
199.322
197.319
410.214
410.327
65.9783
20.1493
137.807
24.8064
65.8077
20.1507
138.022
148.481
299.901
148.322
299.871
148.483
299.908
148.325
299.88
65.854
24.8175
20.1503
137.987
20.1513
137.788
65.9859
65.8555
24.8078
20.1498
138.051
20.1508
137.848
65.9867
148.345
299.879
299.911
148.515
148.348
299.887
299.92
148.516
411.791
411.623
410.373
410.265
32.2366
199.342
197.601
199.155
197.484
411.627
411.797
410.268
410.38
410.277
410.162
411.883
411.709
197.285
199.385
32.2608
197.399
199.573
410.163
410.275
411.708
411.885
32.1953
197.394
199.573
197.285
199.397
148.583
299.919
148.446
299.879
66.0163
137.852
20.1443
24.8492
65.895
138.044
20.143
66.0227
137.924
20.1446
24.8472
65.9059
138.104
20.1433
148.43
299.869
299.909
148.547
148.438
299.878
299.916
148.566
65.8894
24.8499
138.029
20.1414
137.86
20.1421
66.0155
65.8956
24.8492
138.089
20.1419
137.922
20.1425
66.0261
197.482
199.261
32.295
197.593
199.483
411.822
411.677
410.188
410.274
32.2219
197.603
199.498
197.536
199.328
411.672
411.869
69.1929
140.539
20.5774
25.28
68.8188
140.884
20.5778
152.525
302.073
152.155
302.006
69.1862
20.5835
140.541
25.2837
68.8116
20.5839
140.891
152.223
301.98
302.051
152.531
68.9181
25.285
140.885
20.5811
140.591
20.5793
69.2653
152.218
302.006
302.078
152.53
68.911
25.2897
20.5875
140.897
20.5855
140.599
69.2578
152.512
302.038
152.211
301.967
69.2435
20.5888
140.524
25.2994
68.9204
20.5891
140.835
152.512
302.057
152.206
301.987
68.912
25.2958
140.821
20.5801
140.543
20.5811
69.2115
152.193
301.968
302.039
152.516
68.9109
25.3003
20.5867
140.815
20.5878
140.528
69.2051
152.192
301.985
302.057
152.511
199.337
197.333
32.2951
199.529
197.451
410.331
410.215
411.68
411.856
32.2322
199.529
197.449
199.351
197.341
410.213
410.33
66.0208
20.1479
137.874
24.8139
65.8724
20.1467
138.072
148.533
299.918
148.38
299.882
148.535
299.925
148.383
299.89
65.8987
24.8243
20.1456
138.017
20.146
137.837
66.0248
65.9019
24.815
20.1455
138.074
20.146
137.892
66.0298
148.392
299.882
299.92
148.538
148.396
299.89
299.928
148.541
411.8
411.628
410.381
410.268
32.244
199.346
197.604
199.173
197.498
411.626
411.801
410.266
410.381
410.278
410.17
411.883
411.702
197.28
199.394
32.2672
197.391
199.571
410.18
410.286
411.702
411.877
32.1922
197.39
199.57
197.276
199.394
148.546
299.917
148.414
299.879
65.9943
137.844
20.141
24.848
65.8893
138.017
20.1408
66.0044
137.904
20.1414
24.8405
65.9015
138.08
20.1412
148.393
299.875
299.91
148.508
148.399
299.882
299.918
148.527
65.8695
24.8461
138.004
20.1409
137.83
20.1408
65.9984
65.8773
24.8382
138.072
20.1413
137.894
20.1412
66.0069
197.473
199.307
32.2636
197.574
199.423
411.838
411.649
410.216
410.322
32.1914
197.559
199.385
197.459
199.264
411.643
411.825
69.2146
140.582
20.581
25.284
68.9425
140.881
20.5796
152.511
302.077
152.204
302.004
69.2151
20.5877
140.593
25.2894
68.9368
20.5865
140.886
152.2
301.982
302.052
152.524
68.8974
25.282
140.872
20.578
140.579
20.5783
69.22
152.197
302.003
302.074
152.52
68.8971
25.2872
20.5847
140.873
20.5852
140.581
69.2112
152.506
302.04
152.197
301.97
69.2046
20.586
140.516
25.2957
68.9016
20.5853
140.825
152.503
302.056
152.192
301.985
68.8894
25.2903
140.822
20.5791
140.548
20.5786
69.2225
152.192
301.97
302.042
152.524
68.8847
25.2959
20.5854
140.816
20.5851
140.523
69.2133
152.19
301.983
302.055
152.52
199.348
197.338
32.3059
199.526
197.449
410.329
410.213
411.68
411.854
32.2309
199.526
197.448
199.346
197.337
410.213
410.328
66.0219
20.1449
137.889
24.8111
65.9056
20.1444
138.065
148.535
299.92
148.395
299.883
148.537
299.927
148.4
299.89
65.8936
24.8226
20.1442
138.01
20.1443
137.842
66.023
65.8977
24.811
20.1439
138.068
20.144
137.881
66.0238
148.392
299.883
299.92
148.532
148.396
299.89
299.927
148.533
411.799
411.626
410.379
410.267
32.2213
199.346
197.605
199.171
197.497
411.625
411.799
410.267
410.38
410.298
410.192
411.876
411.702
197.278
199.393
32.2621
197.396
199.574
410.201
410.31
411.701
411.876
32.1934
197.401
199.575
197.282
199.397
148.521
299.921
148.378
299.885
65.9805
137.825
20.1412
24.8465
65.872
138.013
20.1416
65.9888
137.892
20.1416
24.8428
65.8829
138.07
20.1418
148.374
299.889
299.922
148.504
148.378
299.891
299.923
148.521
65.8574
24.847
138.005
20.1421
137.828
20.1419
65.9889
65.8626
24.8465
138.063
20.1423
137.884
20.1421
65.9949
197.471
199.262
32.2796
197.586
199.485
411.817
411.67
410.226
410.308
32.2117
197.61
199.502
197.529
199.33
411.663
411.86
69.2163
140.575
20.5781
25.2823
68.9129
140.888
20.5786
152.511
302.074
152.199
302.003
69.2145
20.5848
140.576
25.2874
68.904
20.5852
140.892
152.201
301.987
302.057
152.532
68.9033
25.2844
140.879
20.5799
140.587
20.5791
69.2342
152.2
302.003
302.074
152.528
68.9019
25.2897
20.5865
140.881
20.5858
140.59
69.2267
152.508
302.042
152.205
301.973
69.2145
20.586
140.517
25.2975
68.9131
20.5865
140.829
152.505
302.054
152.2
301.983
68.8946
25.294
140.834
20.5809
140.556
20.5803
69.2218
152.193
301.973
302.046
152.527
68.8928
25.2992
20.5873
140.817
20.5869
140.527
69.213
152.191
301.982
302.054
152.522
199.346
197.338
32.3027
199.528
197.452
410.329
410.215
411.683
411.857
32.2342
199.529
197.45
199.349
197.34
410.215
410.33
66.012
20.144
137.888
24.8119
65.8992
20.1442
138.069
148.529
299.921
148.386
299.885
148.532
299.927
148.39
299.891
65.8836
24.8252
20.1456
138.014
20.145
137.845
66.0321
65.8899
24.8134
20.1453
138.064
20.1447
137.883
66.0324
148.391
299.885
299.923
148.542
148.396
299.892
299.928
148.544
411.798
411.626
410.381
410.27
32.2281
199.346
197.607
199.171
197.498
411.625
411.799
410.27
410.384
410.32
410.207
411.874
411.7
197.288
199.396
32.2652
197.408
199.579
410.207
410.324
411.699
411.874
32.1952
197.41
199.577
197.293
199.4
148.531
299.931
148.376
299.897
65.978
137.826
20.1422
24.8486
65.8637
138.02
20.1423
65.9858
137.887
20.1423
24.8417
65.8725
138.078
20.1423
148.382
299.895
299.932
148.509
148.39
299.901
299.936
148.53
65.8562
24.8487
138.018
20.1423
137.837
20.1423
65.9882
65.8617
24.84
138.083
20.1423
137.895
20.1423
65.9972
197.48
199.309
32.2664
197.59
199.426
411.827
411.64
410.243
410.361
32.195
197.578
199.387
197.474
199.266
411.637
411.814
69.2186
140.581
20.5806
25.2865
68.9264
140.895
20.5809
152.512
302.075
152.206
302.004
69.2165
20.5872
140.582
25.2913
68.9187
20.5875
140.892
152.202
301.987
302.059
152.537
68.9023
25.2874
140.885
20.5811
140.594
20.5809
69.2331
152.2
302.004
302.075
152.533
68.9003
25.2918
20.5876
140.882
20.5875
140.59
69.2254
152.51
302.045
152.208
301.974
69.2183
20.5877
140.517
25.3001
68.9117
20.5877
140.829
152.508
302.053
152.203
301.983
68.8992
25.2934
140.829
20.5807
140.558
20.5806
69.2208
152.194
301.973
302.046
152.527
68.8975
25.3005
20.5875
140.817
20.5875
140.528
69.2132
152.193
301.982
302.053
152.523
199.348
197.339
32.3057
199.53
197.453
410.331
410.215
411.682
411.858
32.2356
199.53
197.451
199.35
197.341
410.214
410.33
66.0151
20.1455
137.886
24.8145
65.9105
20.1455
138.081
148.536
299.924
148.396
299.886
148.539
299.93
148.4
299.894
65.8837
24.8268
20.1458
138.017
20.1457
137.849
66.0314
65.8898
24.8153
20.1455
138.074
20.1455
137.898
66.0315
148.398
299.885
299.924
148.544
148.402
299.893
299.931
148.546
411.798
411.626
410.384
410.27
32.2278
199.347
197.609
199.173
197.502
411.626
411.8
410.267
410.383
410.324
410.205
411.873
411.699
197.296
199.398
32.2664
197.412
199.579
410.202
410.321
411.699
411.873
32.1956
197.409
199.578
197.296
199.401
148.541
299.939
148.384
299.9
65.979
137.841
20.1424
24.85
65.8626
138.034
20.1425
65.9906
137.907
20.1425
24.8443
65.8751
138.09
20.1426
148.393
299.893
299.932
148.518
148.401
299.9
299.936
148.538
65.8605
24.8502
138.022
20.1435
137.849
20.1429
66.004
65.8689
24.8482
138.083
20.1435
137.905
20.143
66.0107
197.488
199.264
32.2796
197.603
199.488
411.812
411.671
410.227
410.318
32.2111
197.62
199.507
197.544
199.334
411.668
411.862
69.2224
140.586
20.581
25.287
68.9276
140.896
20.5811
152.514
302.076
152.211
302.005
69.2207
20.5877
140.583
25.2907
68.92
20.5876
140.896
152.204
301.987
302.058
152.537
68.9045
25.2863
140.884
20.5802
140.595
20.5804
69.231
152.201
302.006
302.076
152.533
68.9027
25.2899
20.5866
140.885
20.5871
140.594
69.2232
152.51
302.045
152.209
301.976
69.2158
20.5873
140.517
25.2984
68.9103
20.5867
140.829
152.508
302.054
152.204
301.985
68.897
25.2924
140.837
20.579
140.559
20.5791
69.2175
152.195
301.978
302.049
152.53
68.8952
25.2977
20.5856
140.819
20.586
140.528
69.2105
152.193
301.987
302.056
152.526
199.35
197.34
32.3037
199.532
197.453
410.329
410.214
411.682
411.856
32.2326
199.532
197.454
199.352
197.343
410.215
410.33
66.0146
20.1453
137.892
24.8143
65.9097
20.145
138.079
148.538
299.924
148.398
299.886
148.542
299.931
148.402
299.894
65.8837
24.8253
20.1448
138.018
20.145
137.849
66.0325
65.8901
24.814
20.1445
138.074
20.1447
137.894
66.0326
148.4
299.887
299.924
148.544
148.404
299.894
299.931
148.547
411.8
411.628
410.38
410.267
32.2252
199.35
197.609
199.175
197.502
411.628
411.802
410.267
410.38
410.319
410.2
411.874
411.701
197.294
199.399
32.2621
197.411
199.582
410.195
410.312
411.705
411.875
32.1913
197.409
199.583
197.294
199.403
148.539
299.938
148.39
299.9
65.9872
137.841
20.1438
24.8497
65.8792
138.028
20.1441
65.9954
137.905
20.1438
24.8432
65.8882
138.089
20.1439
148.39
299.89
299.928
148.516
148.398
299.901
299.939
148.535
65.8641
24.8495
138.018
20.1441
137.842
20.1441
65.9983
65.8708
24.8407
138.085
20.1439
137.905
20.1439
66.0065
197.489
199.316
32.2624
197.594
199.434
411.833
411.647
410.244
410.357
32.1904
197.578
199.396
197.477
199.275
411.642
411.821
69.2221
140.584
20.5796
25.2837
68.9257
140.896
20.5795
152.515
302.078
152.211
302.008
69.2201
20.5862
140.585
25.2872
68.9181
20.586
140.895
152.205
301.99
302.06
152.54
68.9034
25.2831
140.887
20.5793
140.596
20.5793
69.2246
152.203
302.01
302.08
152.536
68.9012
25.2866
20.5857
140.886
20.5858
140.593
69.2166
152.517
302.05
152.213
301.98
69.212
20.5857
140.52
25.295
68.9073
20.5855
140.834
152.514
302.059
152.208
301.99
68.8927
25.2873
140.838
20.5774
140.564
20.5777
69.2142
152.202
301.979
302.052
152.537
68.891
25.2949
20.5844
140.826
20.585
140.534
69.2069
152.2
301.991
302.061
152.532
199.352
197.344
32.299
199.534
197.458
410.331
410.216
411.683
411.857
32.2283
199.536
197.457
199.355
197.347
410.215
410.331
66.0092
20.1442
137.893
24.8114
65.9092
20.144
138.08
148.539
299.926
148.397
299.889
148.542
299.932
148.402
299.896
65.8781
24.8224
20.1438
138.022
20.144
137.853
66.0293
65.8841
24.8114
20.1436
138.077
20.1438
137.894
66.0285
148.403
299.89
299.927
148.552
148.407
299.898
299.934
148.554
411.802
411.63
410.38
410.268
32.2202
199.355
197.614
199.18
197.506
411.629
411.803
410.268
410.382
410.307
410.187
411.88
411.706
197.293
199.404
32.2555
197.41
199.586
410.183
410.298
411.705
411.88
32.1847
197.408
199.585
197.294
199.408
148.536
299.94
148.388
299.899
65.9847
137.838
20.1438
24.8468
65.8735
138.031
20.1436
65.9928
137.909
20.1437
24.8421
65.8841
138.089
20.1434
148.388
299.887
299.925
148.514
148.394
299.901
299.937
148.532
65.8625
24.8465
138.02
20.1435
137.846
20.1435
65.9961
65.8679
24.8448
138.078
20.1432
137.903
20.1433
66.0023
197.489
199.273
32.2714
197.603
199.495
411.817
411.673
410.237
410.326
32.2032
197.621
199.511
197.544
199.341
411.667
411.863
69.2161
140.588
20.5787
25.2791
68.9182
140.9
20.578
152.519
302.082
152.214
302.012
69.2143
20.5852
140.587
25.2829
68.9105
20.5844
140.903
152.209
301.992
302.063
152.545
68.8989
25.278
140.891
20.5765
140.6
20.5769
69.2253
152.208
302.011
302.083
152.54
68.897
25.2819
20.5829
140.894
20.5835
140.601
69.2173
152.521
302.051
152.219
301.98
69.2135
20.5838
140.526
25.2912
68.9048
20.5832
140.839
152.519
302.062
152.213
301.992
68.895
25.2852
140.845
20.5757
140.569
20.5757
69.2157
152.206
301.98
302.053
152.538
68.893
25.2909
20.5824
140.828
20.5826
140.538
69.2083
152.204
301.991
302.063
152.534
199.356
197.347
32.2933
199.539
197.46
410.331
410.215
411.683
411.858
32.2224
199.539
197.458
199.36
197.349
410.215
410.331
66.0092
20.1431
137.898
24.8083
65.9066
20.1425
138.086
148.546
299.929
148.406
299.892
148.549
299.936
148.41
299.899
65.878
24.8182
20.1421
138.024
20.1422
137.856
66.0288
65.8841
24.8075
20.1418
138.076
20.1421
137.9
66.0284
148.408
299.891
299.929
148.557
148.412