/*--------------------------------*- C++ -*----------------------------------*\
| =========                 |                                                 |
| \\      /  F ield         | OpenFOAM: The Open Source CFD Toolbox           |
|  \\    /   O peration     | Version:  2206                                  |
|   \\  /    A nd           | Website:  www.openfoam.com                      |
|    \\/     M anipulation  |                                                 |
\*---------------------------------------------------------------------------*/
FoamFile
{
    version     2.0;
    format      ascii;
    arch        "LSB;label=32;scalar=64";
    class       volScalarField;
    location    "0.4";
    object      p;
}
// * * * * * * * * * * * * * * * * * * * * * * * * * * * * * * * * * * * * * //

dimensions      [0 2 -2 0 0 0 0];

internalField   nonuniform List<scalar> 
66928
(
-0.0070985
-0.007085
-0.00708509
-0.00708497
-0.00709846
-0.00708514
-0.00712565
-0.00731511
-0.00708496
-0.00708488
-0.00709841
-0.00709855
-0.00709848
-0.00709859
-0.00709837
-0.0070981
-0.00709857
-0.00709865
-0.00709843
-0.00708519
-0.00709847
-0.00709859
-0.00709866
-0.00708517
-0.00709844
-0.00709847
-0.00709857
-0.00709861
-0.00709858
-0.00709855
-0.00709835
-0.00709855
-0.00712569
-0.00720684
-0.00712576
-0.00720684
-0.00712566
-0.00712569
-0.0072068
-0.00720686
-0.00720688
-0.00731513
-0.00723408
-0.00731511
-0.00723405
-0.00723399
-0.00731516
-0.00731515
-0.00723403
-0.007234
-0.0070715
-0.00707153
-0.00709859
-0.00707149
-0.0070985
-0.00707156
-0.00707142
-0.00709851
-0.00707156
-0.00709863
-0.00707157
-0.00709854
-0.00707158
-0.00707149
-0.00709853
-0.0070715
-0.00709849
-0.00709851
-0.00707158
-0.00707159
-0.00709856
-0.00707147
-0.0070984
-0.00707143
-0.00709839
-0.00709861
-0.00709854
-0.00709864
-0.00709864
-0.00709862
-0.00709862
-0.00709855
-0.00709864
-0.00709864
-0.00709863
-0.00707168
-0.00709864
-0.00707161
-0.00709858
-0.0070716
-0.00707164
-0.00709855
-0.00707168
-0.00709864
-0.00707163
-0.00709858
-0.00707167
-0.00707146
-0.00709858
-0.0070716
-0.00709855
-0.00709856
-0.00707166
-0.00707167
-0.00709861
-0.00707166
-0.00707167
-0.00709855
-0.00707165
-0.00709849
-0.00715265
-0.00717991
-0.00715269
-0.00717991
-0.00717983
-0.00720684
-0.00720683
-0.00717992
-0.00717991
-0.00720689
-0.00715266
-0.00712562
-0.00712572
-0.00715267
-0.00712571
-0.00715267
-0.0071527
-0.00715268
-0.00712558
-0.00712573
-0.00715273
-0.0071257
-0.00715269
-0.00715276
-0.00715272
-0.00712575
-0.00712574
-0.00712567
-0.00715266
-0.00715267
-0.00717985
-0.00720685
-0.00717986
-0.00720687
-0.0071799
-0.00720682
-0.00717975
-0.00717986
-0.00720685
-0.00717985
-0.00720693
-0.00717989
-0.00720685
-0.00717974
-0.00728823
-0.00726099
-0.00728818
-0.00726098
-0.00726104
-0.00723408
-0.00723406
-0.00723399
-0.00726099
-0.00726098
-0.00728818
-0.00731519
-0.00728818
-0.00731513
-0.00728821
-0.00728809
-0.00731513
-0.00728816
-0.0073152
-0.00728813
-0.00731513
-0.00728818
-0.00728803
-0.00731513
-0.00726099
-0.00723407
-0.00723393
-0.00726102
-0.00723403
-0.007261
-0.00726104
-0.007261
-0.00723404
-0.0072339
-0.00726103
-0.00723402
-0.007261
-0.00726107
-0.00728813
-0.00731512
-0.00731511
-0.00728822
-0.0072882
-0.00731518
-0.00707202
-0.0070716
-0.00709837
-0.00709841
-0.00707164
-0.00707166
-0.00709804
-0.00707238
-0.00707181
-0.00709847
-0.00709829
-0.00707193
-0.00707132
-0.00709811
-0.00715216
-0.00712581
-0.00712572
-0.00715262
-0.00712617
-0.00715245
-0.00715253
-0.00728863
-0.00728814
-0.00731493
-0.00731498
-0.00728825
-0.00728817
-0.00731463
-0.00708513
-0.00708509
-0.00707169
-0.00709873
-0.0070717
-0.00709789
-0.00707129
-0.00707138
-0.00709856
-0.00707146
-0.00709879
-0.00707181
-0.0070984
-0.00707136
-0.00707184
-0.00709875
-0.00707149
-0.00707181
-0.00709844
-0.00709882
-0.00707183
-0.00707149
-0.00709876
-0.00707153
-0.00709879
-0.00707184
-0.00709841
-0.00707186
-0.00707142
-0.00709872
-0.00707152
-0.00707182
-0.00709882
-0.00709843
-0.0070715
-0.00707184
-0.00709876
-0.00707158
-0.00709878
-0.00707198
-0.00709824
-0.00707131
-0.00707205
-0.00709862
-0.00718031
-0.00717981
-0.00720661
-0.0072067
-0.00720633
-0.00717991
-0.00717987
-0.00726049
-0.00726096
-0.00723409
-0.00723403
-0.00723448
-0.00726078
-0.00726084
-0.00713905
-0.00713914
-0.00713909
-0.00712563
-0.00735577
-0.00735579
-0.00735579
-0.00734228
-0.00757226
-0.00757229
-0.00757226
-0.00755876
-0.00778885
-0.00778891
-0.00778887
-0.00777535
-0.00800545
-0.00800547
-0.00800548
-0.00799197
-0.00822197
-0.00822202
-0.00822201
-0.00820849
-0.00843847
-0.00843849
-0.00843853
-0.00842501
-0.00865506
-0.00865512
-0.00865512
-0.0086416
-0.00887172
-0.00887173
-0.00887178
-0.00885824
-0.00908834
-0.00908839
-0.00908839
-0.00907487
-0.00930491
-0.00930494
-0.00930495
-0.00929143
-0.00952144
-0.00952151
-0.00952149
-0.00950799
-0.00973801
-0.00973805
-0.00973807
-0.00972456
-0.00995462
-0.00995467
-0.00995467
-0.00994114
-0.0101712
-0.0101712
-0.0101712
-0.0101577
-0.0103877
-0.0103878
-0.0103878
-0.0103742
-0.0106043
-0.0106043
-0.0106043
-0.0105908
-0.00713902
-0.00713908
-0.00730165
-0.00730161
-0.00712557
-0.00731502
-0.00713919
-0.00713909
-0.00730162
-0.00730162
-0.0071391
-0.00730165
-0.00730162
-0.00712557
-0.0073151
-0.00713903
-0.00730164
-0.00730165
-0.0073151
-0.00734229
-0.00753161
-0.00735582
-0.00735578
-0.00751817
-0.0075182
-0.0073422
-0.0075316
-0.00735578
-0.00735576
-0.00751815
-0.0075181
-0.00735575
-0.00751817
-0.00751812
-0.00734228
-0.00753156
-0.0073558
-0.00751812
-0.00751813
-0.00753158
-0.00755878
-0.00774819
-0.0075723
-0.00757234
-0.00773474
-0.00773472
-0.00755876
-0.00774813
-0.00757228
-0.00757223
-0.00773472
-0.00773468
-0.00757225
-0.00773475
-0.00773469
-0.00755874
-0.00774815
-0.00757227
-0.00773471
-0.00773472
-0.00774815
-0.00777538
-0.0079648
-0.00778889
-0.00778886
-0.00795135
-0.00795136
-0.00777531
-0.00796478
-0.00778888
-0.00778884
-0.00795134
-0.00795131
-0.00778884
-0.00795134
-0.00795131
-0.00777535
-0.00796477
-0.00778887
-0.00795134
-0.00795134
-0.00796477
-0.00799199
-0.00818134
-0.00800549
-0.00800552
-0.00816788
-0.00816784
-0.00799194
-0.00818126
-0.00800549
-0.00800546
-0.00816788
-0.00816786
-0.00800545
-0.00816789
-0.00816785
-0.00799197
-0.00818133
-0.00800548
-0.00816789
-0.00816788
-0.00818131
-0.00820851
-0.00839781
-0.008222
-0.00822195
-0.00838436
-0.00838437
-0.00820842
-0.00839779
-0.008222
-0.00822199
-0.00838436
-0.00838436
-0.00822198
-0.00838436
-0.00838436
-0.0082085
-0.00839782
-0.00822201
-0.00838439
-0.00838439
-0.00839783
-0.00842499
-0.00861438
-0.00843849
-0.00843852
-0.00860092
-0.0086009
-0.00842495
-0.00861433
-0.0084385
-0.00843849
-0.00860093
-0.00860093
-0.0084385
-0.00860096
-0.00860094
-0.00842501
-0.0086144
-0.00843853
-0.00860097
-0.00860097
-0.00861441
-0.00864157
-0.00883104
-0.00865508
-0.00865505
-0.00881758
-0.00881759
-0.00864151
-0.00883101
-0.00865509
-0.00865509
-0.00881759
-0.00881758
-0.0086551
-0.00881758
-0.00881757
-0.00864159
-0.00883105
-0.00865513
-0.00881762
-0.00881761
-0.00883105
-0.00885823
-0.00904768
-0.00887175
-0.00887176
-0.00903423
-0.00903419
-0.00885818
-0.0090476
-0.00887176
-0.00887175
-0.00903424
-0.00903422
-0.00887173
-0.00903424
-0.0090342
-0.00885826
-0.00904769
-0.00887177
-0.00903425
-0.00903424
-0.00904768
-0.00907487
-0.00926425
-0.00908838
-0.00908833
-0.00925081
-0.00925082
-0.00907478
-0.00926423
-0.00908838
-0.00908836
-0.0092508
-0.00925078
-0.00908835
-0.0092508
-0.00925078
-0.00907488
-0.00926425
-0.00908839
-0.00925081
-0.00925081
-0.00926425
-0.00929143
-0.00948079
-0.00930494
-0.00930497
-0.00946734
-0.00946732
-0.00929139
-0.00948073
-0.00930494
-0.00930492
-0.00946734
-0.00946732
-0.00930492
-0.00946738
-0.00946734
-0.00929143
-0.00948079
-0.00930495
-0.00946736
-0.00946737
-0.00948081
-0.00950796
-0.00969735
-0.00952148
-0.00952145
-0.0096839
-0.00968392
-0.0095079
-0.00969734
-0.00952147
-0.00952145
-0.0096839
-0.00968388
-0.00952148
-0.00968391
-0.0096839
-0.00950797
-0.00969735
-0.00952151
-0.00968392
-0.00968393
-0.00969737
-0.00972453
-0.00991396
-0.00973804
-0.00973808
-0.00990051
-0.00990047
-0.0097245
-0.00991388
-0.00973804
-0.00973803
-0.0099005
-0.00990049
-0.00973804
-0.00990052
-0.00990049
-0.00972455
-0.00991396
-0.00973807
-0.00990052
-0.00990052
-0.00991395
-0.00994114
-0.0101305
-0.00995466
-0.00995461
-0.0101171
-0.0101171
-0.00994106
-0.0101305
-0.00995465
-0.00995464
-0.0101171
-0.0101171
-0.00995463
-0.0101171
-0.010117
-0.00994115
-0.0101305
-0.00995466
-0.0101171
-0.0101171
-0.0101305
-0.0101577
-0.0103471
-0.0101712
-0.0101712
-0.0103336
-0.0103336
-0.0101577
-0.010347
-0.0101712
-0.0101712
-0.0103336
-0.0103336
-0.0101712
-0.0103336
-0.0103336
-0.0101577
-0.0103471
-0.0101712
-0.0103336
-0.0103336
-0.0103471
-0.0103742
-0.0105636
-0.0103878
-0.0103877
-0.0105502
-0.0105502
-0.0103742
-0.0105636
-0.0103878
-0.0103877
-0.0105502
-0.0105502
-0.0103877
-0.0105502
-0.0105501
-0.0103743
-0.0105636
-0.0103878
-0.0105502
-0.0105502
-0.0105636
-0.0105908
-0.0106043
-0.0106043
-0.0105908
-0.0106043
-0.0106043
-0.0106043
-0.0107668
-0.0105908
-0.0106043
-0.0107668
-0.0107802
-0.00720675
-0.00712564
-0.00712567
-0.00720682
-0.00712571
-0.0072068
-0.00720692
-0.00712576
-0.00712573
-0.00720686
-0.00713905
-0.0071389
-0.00713883
-0.00730158
-0.00730158
-0.00730159
-0.00730161
-0.00720669
-0.00712587
-0.00713925
-0.0071933
-0.00720669
-0.00719334
-0.00712586
-0.00712578
-0.00720684
-0.00720647
-0.00713897
-0.00712603
-0.00719326
-0.00719316
-0.00720656
-0.00712602
-0.00712567
-0.00712573
-0.00720681
-0.00720686
-0.00720683
-0.00742339
-0.00734235
-0.00734236
-0.0074234
-0.00734238
-0.00742339
-0.00742341
-0.0073423
-0.00734225
-0.00742337
-0.00735576
-0.00735577
-0.00735578
-0.00751813
-0.00751815
-0.00751808
-0.00751809
-0.00742321
-0.00734242
-0.0073557
-0.00740994
-0.00734237
-0.00742322
-0.00740986
-0.0073423
-0.00742333
-0.00742299
-0.00735576
-0.00734254
-0.00740994
-0.0073426
-0.00740991
-0.00742308
-0.00734224
-0.00734226
-0.00742336
-0.00742339
-0.00742335
-0.0076399
-0.00755885
-0.00755888
-0.0076399
-0.00755887
-0.00763986
-0.00763991
-0.00755878
-0.00755872
-0.00763987
-0.00757227
-0.00757222
-0.00757223
-0.0077347
-0.00773471
-0.00773467
-0.00773467
-0.00763974
-0.00755894
-0.00757224
-0.00762643
-0.0075589
-0.00763975
-0.00762639
-0.00755876
-0.00763982
-0.00763949
-0.00757221
-0.00755901
-0.00762641
-0.00755907
-0.00762637
-0.00763957
-0.00755873
-0.00755875
-0.00763986
-0.00763988
-0.00763984
-0.00785649
-0.00777541
-0.00777544
-0.00785649
-0.00777544
-0.00785649
-0.00785652
-0.00777536
-0.0077753
-0.00785648
-0.00778886
-0.00778882
-0.00778882
-0.00795131
-0.00795131
-0.00795128
-0.00795128
-0.00785634
-0.00777551
-0.00778882
-0.00784305
-0.00777547
-0.00785635
-0.00784298
-0.00777534
-0.00785644
-0.00785611
-0.00778883
-0.0077756
-0.00784303
-0.00777566
-0.00784299
-0.0078562
-0.0077753
-0.00777531
-0.00785646
-0.00785649
-0.00785645
-0.00807306
-0.00799202
-0.00799204
-0.00807307
-0.00799203
-0.00807303
-0.00807312
-0.00799198
-0.00799193
-0.00807307
-0.00800545
-0.00800543
-0.00800543
-0.00816785
-0.00816784
-0.00816784
-0.00816783
-0.00807291
-0.00799211
-0.00800543
-0.0080596
-0.00799207
-0.00807292
-0.00805957
-0.00799198
-0.00807305
-0.00807271
-0.00800544
-0.00799224
-0.00805963
-0.00799229
-0.00805958
-0.00807281
-0.00799192
-0.00799194
-0.00807306
-0.00807309
-0.00807305
-0.00828954
-0.00820853
-0.00820854
-0.00828955
-0.00820854
-0.00828953
-0.00828962
-0.00820851
-0.00820847
-0.00828956
-0.00822197
-0.00822196
-0.00822196
-0.00838434
-0.00838434
-0.00838434
-0.00838434
-0.00828942
-0.00820863
-0.00822194
-0.00827613
-0.0082086
-0.00828941
-0.00827606
-0.00820852
-0.00828955
-0.00828923
-0.00822197
-0.00820877
-0.00827614
-0.00820883
-0.00827609
-0.00828931
-0.00820845
-0.00820847
-0.00828957
-0.0082896
-0.00828957
-0.00850604
-0.008425
-0.00842501
-0.00850605
-0.00842502
-0.00850601
-0.00850614
-0.00842499
-0.00842495
-0.00850608
-0.00843848
-0.00843848
-0.00843848
-0.0086009
-0.00860091
-0.00860091
-0.00860092
-0.00850596
-0.00842514
-0.00843846
-0.00849263
-0.00842511
-0.00850595
-0.00849261
-0.00842501
-0.00850609
-0.00850577
-0.00843848
-0.00842528
-0.00849267
-0.00842534
-0.00849263
-0.00850585
-0.00842497
-0.008425
-0.00850611
-0.00850615
-0.00850612
-0.00872265
-0.00864157
-0.00864158
-0.00872267
-0.0086416
-0.00872266
-0.00872277
-0.00864158
-0.00864154
-0.00872271
-0.00865507
-0.00865507
-0.00865507
-0.00881755
-0.00881755
-0.00881756
-0.00881755
-0.00872258
-0.00864173
-0.00865505
-0.00870928
-0.00864171
-0.00872256
-0.00870921
-0.0086416
-0.00872271
-0.00872239
-0.00865508
-0.00864187
-0.00870929
-0.00864193
-0.00870925
-0.00872247
-0.00864157
-0.00864159
-0.00872273
-0.00872275
-0.00872272
-0.00893932
-0.00885824
-0.00885824
-0.00893934
-0.00885824
-0.0089393
-0.00893943
-0.00885825
-0.00885821
-0.00893938
-0.00887171
-0.00887172
-0.00887171
-0.00903419
-0.00903418
-0.00903419
-0.00903418
-0.00893922
-0.00885836
-0.0088717
-0.00892589
-0.00885834
-0.00893921
-0.00892586
-0.00885827
-0.00893936
-0.00893903
-0.00887173
-0.00885852
-0.00892594
-0.00885858
-0.00892589
-0.00893912
-0.00885819
-0.00885822
-0.00893937
-0.00893939
-0.00893936
-0.00915594
-0.00907489
-0.00907489
-0.00915595
-0.0090749
-0.00915593
-0.00915603
-0.00907488
-0.00907484
-0.00915598
-0.00908833
-0.00908834
-0.00908833
-0.00925077
-0.00925077
-0.00925076
-0.00925076
-0.00915582
-0.009075
-0.00908831
-0.00914253
-0.00907497
-0.00915581
-0.00914245
-0.00907489
-0.00915596
-0.00915562
-0.00908834
-0.00907514
-0.00914254
-0.00907519
-0.00914249
-0.00915571
-0.00907482
-0.00907485
-0.00915596
-0.00915599
-0.00915596
-0.0093725
-0.00929145
-0.00929146
-0.0093725
-0.00929147
-0.00937248
-0.00937256
-0.00929143
-0.00929139
-0.00937251
-0.00930491
-0.0093049
-0.0093049
-0.00946731
-0.00946732
-0.0094673
-0.00946732
-0.00937239
-0.00929157
-0.00930489
-0.00935907
-0.00929154
-0.00937239
-0.00935904
-0.00929144
-0.00937249
-0.00937218
-0.0093049
-0.00929169
-0.00935909
-0.00929176
-0.00935904
-0.00937225
-0.00929138
-0.00929141
-0.00937253
-0.00937256
-0.00937252
-0.00958903
-0.00950798
-0.009508
-0.00958903
-0.00950801
-0.00958904
-0.0095891
-0.00950796
-0.00950791
-0.00958905
-0.00952145
-0.00952144
-0.00952145
-0.00968387
-0.00968388
-0.00968387
-0.00968388
-0.00958894
-0.00950812
-0.00952144
-0.00957564
-0.00950809
-0.00958893
-0.00957558
-0.00950797
-0.00958903
-0.00958873
-0.00952145
-0.00950824
-0.00957563
-0.0095083
-0.00957559
-0.00958881
-0.00950795
-0.00950797
-0.00958909
-0.00958912
-0.00958908
-0.00980562
-0.00972454
-0.00972456
-0.00980562
-0.00972458
-0.0098056
-0.0098057
-0.00972453
-0.0097245
-0.00980564
-0.00973803
-0.00973801
-0.00973802
-0.00990047
-0.00990047
-0.00990047
-0.00990046
-0.00980552
-0.00972469
-0.00973801
-0.0097922
-0.00972466
-0.00980552
-0.00979216
-0.00972455
-0.00980563
-0.00980531
-0.00973802
-0.00972481
-0.00979222
-0.00972488
-0.00979218
-0.0098054
-0.00972452
-0.00972454
-0.00980566
-0.00980569
-0.00980566
-0.0100222
-0.00994117
-0.00994118
-0.0100222
-0.00994118
-0.0100222
-0.0100223
-0.00994115
-0.00994111
-0.0100223
-0.00995461
-0.00995461
-0.00995461
-0.010117
-0.010117
-0.010117
-0.010117
-0.0100221
-0.00994128
-0.00995459
-0.0100088
-0.00994124
-0.0100221
-0.0100087
-0.00994117
-0.0100222
-0.0100219
-0.00995462
-0.00994142
-0.0100088
-0.00994147
-0.0100088
-0.010022
-0.0099411
-0.00994112
-0.0100222
-0.0100223
-0.0100222
-0.0102388
-0.0101577
-0.0101577
-0.0102388
-0.0101577
-0.0102387
-0.0102389
-0.0101577
-0.0101577
-0.0102388
-0.0101712
-0.0101712
-0.0101712
-0.0103336
-0.0103336
-0.0103336
-0.0103336
-0.0102386
-0.0101578
-0.0101712
-0.0102253
-0.0101578
-0.0102386
-0.0102253
-0.0101577
-0.0102388
-0.0102384
-0.0101712
-0.010158
-0.0102254
-0.010158
-0.0102253
-0.0102385
-0.0101577
-0.0101577
-0.0102388
-0.0102388
-0.0102388
-0.0104553
-0.0103743
-0.0103743
-0.0104553
-0.0103743
-0.0104553
-0.0104554
-0.0103743
-0.0103742
-0.0104553
-0.0103877
-0.0103877
-0.0103877
-0.0105501
-0.0105501
-0.0105501
-0.0105501
-0.0104552
-0.0103744
-0.0103877
-0.0104419
-0.0103743
-0.0104552
-0.0104418
-0.0103743
-0.0104553
-0.010455
-0.0103877
-0.0103745
-0.0104419
-0.0103746
-0.0104419
-0.0104551
-0.0103742
-0.0103742
-0.0104553
-0.0104554
-0.0104553
-0.0106719
-0.0105908
-0.0105908
-0.0106719
-0.0105908
-0.0106719
-0.010672
-0.0105908
-0.0105908
-0.0106719
-0.0106043
-0.0106043
-0.0106043
-0.0107667
-0.0106718
-0.010591
-0.0106043
-0.0106585
-0.0105909
-0.0106718
-0.0106584
-0.0105908
-0.0106719
-0.0106716
-0.0106043
-0.0105911
-0.0106585
-0.0105911
-0.0106584
-0.0106716
-0.0105908
-0.0105908
-0.0106719
-0.010672
-0.0106719
-0.00720675
-0.00712564
-0.0072068
-0.00712567
-0.00720642
-0.00712588
-0.00713884
-0.00719322
-0.00719296
-0.0071261
-0.00720658
-0.00720642
-0.00712591
-0.0071389
-0.00719324
-0.00720657
-0.00719297
-0.00712611
-0.007234
-0.00731513
-0.00731511
-0.00723406
-0.007234
-0.00731513
-0.00723404
-0.00731511
-0.00723426
-0.00724746
-0.00731489
-0.00730158
-0.00724728
-0.00731477
-0.00723429
-0.00723426
-0.00724744
-0.00731489
-0.00730157
-0.00723426
-0.00724726
-0.00731477
-0.00712573
-0.00712564
-0.00720687
-0.00720677
-0.00720691
-0.00712573
-0.00720685
-0.00731515
-0.00723405
-0.0072341
-0.00731519
-0.00731511
-0.00723396
-0.00723404
-0.00731508
-0.00723406
-0.00720672
-0.00712589
-0.00713934
-0.00719336
-0.00719342
-0.00712587
-0.00720671
-0.00720692
-0.00712577
-0.00720685
-0.00712573
-0.00720672
-0.00713931
-0.00712588
-0.00719333
-0.00719341
-0.00720671
-0.00712587
-0.007234
-0.00731512
-0.00731517
-0.00723405
-0.00723415
-0.00724751
-0.00731497
-0.00730153
-0.00724747
-0.00731496
-0.00723419
-0.007234
-0.00731511
-0.00723404
-0.00731517
-0.00723415
-0.00724751
-0.00730155
-0.00731496
-0.00724747
-0.00723418
-0.00731496
-0.0072069
-0.00712575
-0.00720685
-0.00712572
-0.00720669
-0.00713925
-0.00712586
-0.00719328
-0.00719333
-0.00720669
-0.00712585
-0.0072069
-0.00712575
-0.00720684
-0.00712572
-0.00723412
-0.0072475
-0.00731495
-0.00730156
-0.00723417
-0.00724745
-0.00731494
-0.00723399
-0.00731511
-0.00723404
-0.00731515
-0.00723412
-0.00724747
-0.00730157
-0.00731495
-0.00724745
-0.00723416
-0.00731494
-0.00723399
-0.0073151
-0.00723402
-0.00731515
-0.0071257
-0.00712574
-0.00720681
-0.00720688
-0.00720684
-0.00712578
-0.00720681
-0.0073151
-0.00723405
-0.00723402
-0.00731514
-0.00731511
-0.007234
-0.00723401
-0.00731508
-0.00723405
-0.00720646
-0.00713896
-0.00712599
-0.00719325
-0.00719316
-0.00720656
-0.00712602
-0.00720679
-0.00712577
-0.00720682
-0.00712575
-0.00720679
-0.00712575
-0.00720681
-0.00712575
-0.00723433
-0.00724748
-0.00730159
-0.00731484
-0.00724741
-0.00723428
-0.00731474
-0.00723433
-0.00724749
-0.0073016
-0.00731483
-0.00724742
-0.00723427
-0.00731474
-0.00723404
-0.00731509
-0.00723405
-0.00731507
-0.00723404
-0.00731508
-0.00723403
-0.00731507
-0.00712575
-0.00720682
-0.00712577
-0.0072068
-0.00723402
-0.00731513
-0.0073151
-0.00723398
-0.007234
-0.00731509
-0.00723403
-0.00731507
-0.00723403
-0.00734236
-0.00742339
-0.00734231
-0.00742336
-0.00734231
-0.00734226
-0.00742339
-0.00742342
-0.0074234
-0.00753163
-0.00745062
-0.00753159
-0.00745056
-0.00745055
-0.00753166
-0.00753164
-0.00745057
-0.00745051
-0.00742339
-0.00734235
-0.00734236
-0.00742339
-0.00742307
-0.00734258
-0.0073558
-0.00740997
-0.00734263
-0.00742316
-0.00740996
-0.00742307
-0.00734259
-0.0073558
-0.00740995
-0.00734263
-0.00742316
-0.00740997
-0.00745063
-0.00753164
-0.00745062
-0.00753165
-0.00745063
-0.00753165
-0.00745062
-0.00753165
-0.00745091
-0.00746407
-0.00753141
-0.00751815
-0.00745086
-0.00746406
-0.00753132
-0.00745091
-0.00746408
-0.00753142
-0.00751816
-0.00745086
-0.00746407
-0.00753132
-0.00734236
-0.00734222
-0.00742338
-0.00742342
-0.0074234
-0.00734229
-0.00742335
-0.00753164
-0.00745062
-0.00745056
-0.00753168
-0.00753164
-0.00745058
-0.00745051
-0.0075316
-0.00745056
-0.00742321
-0.00734244
-0.0073557
-0.00740994
-0.00734238
-0.00742322
-0.00740988
-0.0074234
-0.00734229
-0.00734225
-0.00742335
-0.00742321
-0.00735572
-0.00734242
-0.00740991
-0.00734238
-0.0074099
-0.0074232
-0.00745049
-0.00753161
-0.00745055
-0.00753164
-0.00745063
-0.00746405
-0.00753146
-0.00751809
-0.00745069
-0.007464
-0.00753144
-0.00745048
-0.00753158
-0.00745053
-0.00753164
-0.00745063
-0.00746401
-0.00751811
-0.00753143
-0.00746401
-0.00745066
-0.00753144
-0.00742341
-0.00734229
-0.00734224
-0.00742337
-0.00742321
-0.00735573
-0.00734242
-0.0074099
-0.00734237
-0.00740989
-0.00742321
-0.00742341
-0.00734229
-0.00734223
-0.00742336
-0.00745064
-0.00746406
-0.00753148
-0.00751811
-0.00745069
-0.007464
-0.00753147
-0.0074505
-0.00753162
-0.00745055
-0.00753167
-0.00745064
-0.00746402
-0.00751813
-0.00753146
-0.00746402
-0.00745068
-0.00753147
-0.0074505
-0.0075316
-0.00745054
-0.00753166
-0.00734224
-0.00734226
-0.00742335
-0.00742338
-0.00742334
-0.00734231
-0.00742332
-0.00753156
-0.00745053
-0.00745052
-0.00753161
-0.00753158
-0.00745048
-0.0074505
-0.00753154
-0.00745054
-0.00742299
-0.00735576
-0.00734254
-0.00740993
-0.0073426
-0.00740991
-0.00742308
-0.00742331
-0.00734231
-0.00734231
-0.00742333
-0.00742331
-0.0073423
-0.00734231
-0.00742333
-0.00745083
-0.00746403
-0.00751808
-0.00753131
-0.007464
-0.00745078
-0.00753122
-0.00745083
-0.00746404
-0.00751809
-0.00753132
-0.007464
-0.00745078
-0.00753122
-0.00745054
-0.00753155
-0.00745054
-0.00753154
-0.00745054
-0.00753157
-0.00745055
-0.00753154
-0.0073423
-0.00742335
-0.0073423
-0.00742332
-0.00745053
-0.00753163
-0.00753159
-0.0074505
-0.00745051
-0.00753158
-0.00745055
-0.00753156
-0.00745055
-0.00755885
-0.00763988
-0.00755879
-0.00763985
-0.00755881
-0.00755874
-0.00763988
-0.00763991
-0.0076399
-0.00774817
-0.00766712
-0.00774815
-0.00766707
-0.00766707
-0.0077482
-0.0077482
-0.00766707
-0.00766702
-0.0076399
-0.00755886
-0.00755888
-0.0076399
-0.00763958
-0.00755909
-0.00757227
-0.00762645
-0.00755916
-0.00763966
-0.00762643
-0.00763958
-0.00755911
-0.00757227
-0.00762649
-0.00755916
-0.00763968
-0.00762642
-0.00766714
-0.00774819
-0.00766712
-0.00774819
-0.00766714
-0.0077482
-0.00766712
-0.00774819
-0.00766743
-0.00768059
-0.00774796
-0.00773472
-0.00766736
-0.00768058
-0.00774787
-0.00766743
-0.00768061
-0.00774797
-0.00773472
-0.00766737
-0.00768057
-0.00774787
-0.00755886
-0.00755874
-0.00763999
-0.00763985
-0.00763996
-0.0075588
-0.00763989
-0.0077482
-0.00766711
-0.0076672
-0.00774825
-0.00774819
-0.00766704
-0.00766709
-0.00774814
-0.0076671
-0.00763971
-0.00755892
-0.00757222
-0.00762642
-0.00755886
-0.00763972
-0.00762636
-0.0076399
-0.00755876
-0.00755872
-0.00763984
-0.00763971
-0.00757223
-0.0075589
-0.00762638
-0.00755886
-0.00762638
-0.0076397
-0.007667
-0.00774816
-0.00766706
-0.00774821
-0.00766715
-0.00768057
-0.00774802
-0.00773467
-0.00766721
-0.00768051
-0.00774802
-0.007667
-0.00774814
-0.00766703
-0.00774821
-0.00766715
-0.00768053
-0.00773468
-0.007748
-0.00768052
-0.00766718
-0.00774802
-0.00763993
-0.0075588
-0.00755875
-0.00763989
-0.00763974
-0.00757225
-0.00755892
-0.0076264
-0.00755889
-0.0076264
-0.00763972
-0.00763992
-0.00755878
-0.00755875
-0.00763985
-0.00766717
-0.00768059
-0.00774803
-0.00773468
-0.00766723
-0.00768054
-0.00774803
-0.00766702
-0.00774817
-0.00766708
-0.00774822
-0.00766717
-0.00768055
-0.00773469
-0.00774801
-0.00768054
-0.00766719
-0.00774802
-0.00766701
-0.00774814
-0.00766704
-0.00774821
-0.00755871
-0.00755873
-0.00763984
-0.00763987
-0.00763983
-0.00755876
-0.00763979
-0.00774812
-0.00766704
-0.00766703
-0.00774817
-0.00774813
-0.00766698
-0.007667
-0.00774809
-0.00766703
-0.00763949
-0.00757222
-0.00755902
-0.00762642
-0.00755908
-0.00762638
-0.00763958
-0.0076398
-0.00755877
-0.00755878
-0.00763981
-0.0076398
-0.00755878
-0.00755878
-0.00763982
-0.00766736
-0.00768056
-0.00773467
-0.00774788
-0.00768052
-0.00766729
-0.00774779
-0.00766736
-0.00768057
-0.00773467
-0.00774788
-0.00768053
-0.0076673
-0.00774779
-0.00766705
-0.0077481
-0.00766703
-0.0077481
-0.00766705
-0.0077481
-0.00766704
-0.0077481
-0.00755879
-0.00763984
-0.00755878
-0.00763981
-0.00766705
-0.00774818
-0.00774813
-0.007667
-0.00766701
-0.00774813
-0.00766705
-0.00774809
-0.00766704
-0.00777541
-0.00785648
-0.00777536
-0.00785646
-0.00777537
-0.00777532
-0.00785649
-0.00785651
-0.00785651
-0.00796479
-0.00788373
-0.00796478
-0.00788368
-0.00788368
-0.00796482
-0.00796483
-0.00788368
-0.00788364
-0.0078565
-0.00777543
-0.00777544
-0.0078565
-0.00785617
-0.00777566
-0.00778887
-0.00784305
-0.00777572
-0.00785626
-0.00784303
-0.00785617
-0.00777567
-0.00778888
-0.00784303
-0.00777572
-0.00785627
-0.00784304
-0.00788374
-0.0079648
-0.00788373
-0.0079648
-0.00788374
-0.0079648
-0.00788373
-0.0079648
-0.00788402
-0.0078972
-0.00796457
-0.00795132
-0.00788397
-0.00789717
-0.00796447
-0.00788403
-0.0078972
-0.00796457
-0.00795133
-0.00788397
-0.00789718
-0.00796447
-0.00777543
-0.0077753
-0.0078565
-0.00785652
-0.00785652
-0.00777536
-0.00785647
-0.0079648
-0.00788373
-0.00788369
-0.00796484
-0.00796481
-0.00788369
-0.00788364
-0.00796476
-0.00788369
-0.00785633
-0.00777551
-0.00778882
-0.00784304
-0.00777546
-0.00785633
-0.00784298
-0.00785651
-0.00777534
-0.0077753
-0.00785646
-0.00785633
-0.00778883
-0.00777548
-0.007843
-0.00777546
-0.00784299
-0.00785632
-0.00788362
-0.00796479
-0.00788368
-0.00796484
-0.00788377
-0.00789719
-0.00796465
-0.00795128
-0.00788382
-0.00789713
-0.00796465
-0.00788362
-0.00796477
-0.00788366
-0.00796484
-0.00788377
-0.00789716
-0.00795129
-0.00796464
-0.00789714
-0.0078838
-0.00796465
-0.00785653
-0.00777536
-0.00777531
-0.00785649
-0.00785634
-0.00778884
-0.00777549
-0.007843
-0.00777546
-0.00784299
-0.00785633
-0.00785653
-0.00777534
-0.00777531
-0.00785647
-0.00788378
-0.0078972
-0.00796464
-0.00795128
-0.00788383
-0.00789713
-0.00796464
-0.00788363
-0.00796478
-0.00788368
-0.00796483
-0.00788378
-0.00789715
-0.0079513
-0.00796463
-0.00789715
-0.00788381
-0.00796464
-0.00788363
-0.00796477
-0.00788366
-0.00796483
-0.00777529
-0.00777531
-0.00785646
-0.00785649
-0.00785646
-0.00777534
-0.00785642
-0.00796476
-0.00788367
-0.00788366
-0.00796481
-0.00796478
-0.00788361
-0.00788363
-0.00796474
-0.00788367
-0.00785612
-0.00778883
-0.0077756
-0.00784303
-0.00777566
-0.00784299
-0.0078562
-0.00785642
-0.00777534
-0.00777535
-0.00785643
-0.00785642
-0.00777534
-0.00777535
-0.00785643
-0.00788399
-0.00789718
-0.00795129
-0.00796452
-0.00789714
-0.00788393
-0.00796443
-0.00788399
-0.00789719
-0.00795129
-0.00796452
-0.00789714
-0.00788393
-0.00796443
-0.00788368
-0.00796475
-0.00788367
-0.00796474
-0.00788368
-0.00796474
-0.00788367
-0.00796474
-0.00777535
-0.00785645
-0.00777534
-0.00785642
-0.00788366
-0.00796481
-0.00796477
-0.00788362
-0.00788363
-0.00796476
-0.00788367
-0.00796474
-0.00788367
-0.00799202
-0.00807306
-0.00799199
-0.00807306
-0.00799198
-0.00799195
-0.00807309
-0.00807309
-0.00807311
-0.00818131
-0.00810029
-0.00818132
-0.00810027
-0.00810026
-0.00818134
-0.00818137
-0.00810025
-0.00810022
-0.00807306
-0.00799202
-0.00799204
-0.00807306
-0.00807273
-0.00799227
-0.00800546
-0.00805963
-0.00799232
-0.00807283
-0.0080596
-0.00807273
-0.00799227
-0.00800546
-0.00805966
-0.00799232
-0.00807284
-0.00805959
-0.0081003
-0.00818132
-0.00810029
-0.00818131
-0.00810029
-0.00818132
-0.00810028
-0.00818131
-0.00810057
-0.00811376
-0.00818108
-0.00816785
-0.00810053
-0.00811373
-0.00818098
-0.00810057
-0.00811376
-0.00818107
-0.00816785
-0.00810052
-0.00811371
-0.00818098
-0.00799202
-0.00799191
-0.00807316
-0.00807302
-0.00807314
-0.00799198
-0.00807307
-0.00818132
-0.00810027
-0.00810036
-0.00818137
-0.00818133
-0.0081002
-0.00810026
-0.00818128
-0.00810028
-0.00807293
-0.00799213
-0.00800543
-0.00805963
-0.00799208
-0.00807293
-0.00805957
-0.00807312
-0.00799197
-0.00799193
-0.00807307
-0.00807293
-0.00800544
-0.00799211
-0.0080596
-0.00799208
-0.00805959
-0.00807293
-0.00810021
-0.00818133
-0.00810026
-0.00818139
-0.00810036
-0.00811376
-0.00818119
-0.00816783
-0.00810041
-0.00811371
-0.00818119
-0.00810021
-0.00818133
-0.00810026
-0.00818139
-0.00810036
-0.00811374
-0.00816785
-0.00818119
-0.00811372
-0.0081004
-0.0081812
-0.00807311
-0.00799197
-0.00799192
-0.00807307
-0.00807292
-0.00800544
-0.00799211
-0.00805959
-0.00799207
-0.00805958
-0.00807291
-0.00807311
-0.00799196
-0.00799192
-0.00807306
-0.00810034
-0.00811375
-0.00818117
-0.00816783
-0.0081004
-0.0081137
-0.00818118
-0.0081002
-0.00818131
-0.00810026
-0.00818137
-0.00810034
-0.00811372
-0.00816784
-0.00818117
-0.00811371
-0.00810038
-0.00818118
-0.0081002
-0.00818131
-0.00810024
-0.00818137
-0.00799193
-0.00799195
-0.00807307
-0.0080731
-0.00807306
-0.00799198
-0.00807303
-0.00818132
-0.00810026
-0.00810025
-0.00818136
-0.00818133
-0.00810021
-0.00810023
-0.00818129
-0.00810026
-0.00807271
-0.00800544
-0.00799223
-0.00805962
-0.00799229
-0.00805958
-0.0080728
-0.00807302
-0.00799198
-0.00799199
-0.00807304
-0.00807302
-0.00799197
-0.00799199
-0.00807303
-0.00810057
-0.00811376
-0.00816784
-0.00818107
-0.00811371
-0.00810051
-0.00818098
-0.00810057
-0.00811375
-0.00816784
-0.00818106
-0.00811371
-0.00810051
-0.00818098
-0.00810027
-0.0081813
-0.00810026
-0.00818129
-0.00810027
-0.00818129
-0.00810025
-0.00818128
-0.00799197
-0.00807304
-0.00799198
-0.00807302
-0.00810024
-0.00818134
-0.00818131
-0.0081002
-0.00810022
-0.0081813
-0.00810025
-0.00818128
-0.00810025
-0.00820853
-0.00828953
-0.00820852
-0.00828955
-0.00820849
-0.00820847
-0.00828957
-0.00828957
-0.0082896
-0.00839777
-0.00831676
-0.00839779
-0.00831675
-0.00831674
-0.00839781
-0.00839784
-0.00831672
-0.0083167
-0.00828954
-0.00820853
-0.00820854
-0.00828955
-0.00828921
-0.00820876
-0.00822197
-0.00827612
-0.00820881
-0.00828931
-0.00827609
-0.00828921
-0.00820876
-0.00822198
-0.00827609
-0.00820881
-0.0082893
-0.0082761
-0.00831677
-0.00839779
-0.00831676
-0.00839778
-0.00831677
-0.0083978
-0.00831676
-0.00839778
-0.00831705
-0.00833024
-0.00839755
-0.00838433
-0.00831699
-0.00833021
-0.00839745
-0.00831705
-0.00833023
-0.00839756
-0.00838434