/*--------------------------------*- C++ -*----------------------------------*\
| =========                 |                                                 |
| \\      /  F ield         | OpenFOAM: The Open Source CFD Toolbox           |
|  \\    /   O peration     | Version:  2206                                  |
|   \\  /    A nd           | Website:  www.openfoam.com                      |
|    \\/     M anipulation  |                                                 |
\*---------------------------------------------------------------------------*/
FoamFile
{
    version     2.0;
    format      ascii;
    arch        "LSB;label=32;scalar=64";
    class       volVectorField;
    location    "0.2";
    object      wallShearStress;
}
// * * * * * * * * * * * * * * * * * * * * * * * * * * * * * * * * * * * * * //

dimensions      [0 2 -2 0 0 0 0];

internalField   uniform (0 0 0);

boundaryField
{
    topPatch
    {
        type            calculated;
        value           nonuniform List<vector> 0();
    }
    wall
    {
        type            calculated;
        value           nonuniform List<vector> 
7709
(
(7.7831e-09 9.15809e-10 -0.000154657)
(4.77886e-09 -2.58827e-09 -0.000154736)
(4.62024e-10 -4.91791e-09 -0.000161597)
(-6.05046e-09 6.35626e-09 -0.000161556)
(2.47916e-09 1.35214e-09 -0.000161604)
(-1.24203e-09 3.58527e-09 -0.0001616)
(3.12065e-09 -1.67845e-09 -0.000154738)
(-4.32684e-09 -1.36283e-09 -0.000154735)
(-3.34433e-09 -1.28326e-09 -0.000154743)
(7.00131e-09 6.30126e-10 -0.000161533)
(5.36026e-09 -1.83498e-09 -0.000154593)
(-6.4131e-09 -1.5445e-09 -0.000154591)
(-7.66599e-10 -4.55548e-09 -0.000161601)
(-9.08905e-09 1.68837e-09 -0.000161532)
(-4.36577e-09 6.42868e-09 -0.000158505)
(2.15543e-09 -3.69228e-09 -0.000159494)
(-3.12202e-09 1.66223e-09 -0.000159442)
(3.93102e-09 -1.09306e-08 -0.00015857)
(-3.00037e-09 -4.92548e-09 -0.000154609)
(4.75621e-11 8.23751e-09 -0.000161501)
(-2.29332e-09 -1.16997e-09 -0.000155477)
(1.38875e-09 3.77461e-09 -0.000155394)
(-4.80577e-09 1.79929e-10 -0.000155401)
(3.55809e-09 1.40204e-09 -0.000155304)
(1.54563e-09 -1.05815e-08 -0.000161505)
(-4.91499e-09 -2.65854e-09 -0.000162217)
(-3.03531e-09 4.28274e-11 -0.000155478)
(-4.60762e-09 -8.62594e-09 -0.000158505)
(2.10807e-09 2.27014e-09 -0.000159491)
(-3.17498e-09 -3.13759e-09 -0.000159438)
(3.71467e-09 8.83752e-09 -0.00015857)
(-4.34388e-09 1.55009e-09 -0.000154612)
(-2.2726e-09 -3.85397e-09 -0.000159498)
(-4.04928e-09 -1.08918e-08 -0.000158571)
(-2.19292e-09 1.76998e-09 -0.000159492)
(-3.74329e-09 8.37298e-09 -0.000158571)
(5.01295e-09 2.78358e-10 -0.000162204)
(2.24006e-09 -1.53596e-09 -0.000155404)
(-5.24317e-09 1.70535e-10 -0.00015531)
(-1.08032e-08 -1.95702e-09 -0.000161414)
(1.07152e-08 4.31236e-09 -0.000158278)
(-1.00148e-09 -2.29868e-09 -0.00015926)
(3.85341e-09 2.4458e-09 -0.000159184)
(-7.47283e-09 -3.66059e-09 -0.000158373)
(-3.38552e-09 3.52131e-09 -0.000154437)
(-1.00919e-08 4.17554e-09 -0.000158282)
(2.23615e-09 -2.3651e-09 -0.000159264)
(-2.94821e-09 2.39118e-09 -0.000159188)
(8.50227e-09 -3.83526e-09 -0.000158376)
(2.23326e-09 3.86199e-09 -0.000154436)
(7.935e-09 -3.85895e-10 -0.000161414)
(-2.04767e-09 -1.53682e-09 -0.000162207)
(-4.70163e-09 6.27257e-10 -0.00016219)
(-1.37009e-08 8.7255e-09 -0.000161497)
(-5.89413e-09 5.43387e-09 -0.000161237)
(6.98004e-09 -1.29904e-08 -0.000161354)
(3.96305e-09 8.63116e-10 -0.000162193)
(2.60551e-09 -5.76067e-10 -0.000155464)
(1.16648e-10 5.99494e-09 -0.000155385)
(1.45721e-09 3.42653e-09 -0.000162125)
(3.09859e-09 1.66961e-09 -0.000162101)
(-1.29151e-09 4.29213e-09 -0.000162202)
(1.06914e-09 2.55586e-09 -0.000155422)
(-3.35424e-09 -9.69035e-10 -0.000155329)
(2.60588e-09 1.32235e-09 -0.000162199)
(3.87415e-09 -8.52318e-10 -0.00015547)
(-7.72073e-10 -4.56233e-09 -0.000155388)
(-5.61549e-09 8.74144e-10 -0.000162119)
(-1.34859e-09 -3.20545e-09 -0.000162117)
(-6.88135e-09 -9.19484e-09 -0.000161239)
(6.05485e-09 9.27157e-09 -0.000161357)
(-6.88864e-09 -1.22388e-08 -0.000161355)
(-6.01211e-09 8.79324e-09 -0.000161359)
(1.41738e-09 6.37443e-09 -0.000162115)
(-1.3281e-09 3.12067e-09 -0.000162109)
(9.86972e-09 6.82876e-09 -0.000161282)
(-5.75736e-09 -5.40085e-09 -0.000161444)
(-9.82871e-09 6.75608e-09 -0.000161283)
(6.41074e-09 -5.64277e-09 -0.000161442)
(-2.47531e-08 9.76936e-09 -0.000161426)
(1.93422e-09 -8.20596e-09 -0.00016152)
(-2.10666e-09 -3.35434e-09 -0.000154618)
(-3.05905e-09 8.02477e-10 -0.000154622)
(3.4122e-09 2.78815e-10 -0.000154624)
(2.09122e-09 8.18161e-09 -0.000161515)
(-1.04868e-08 -2.38657e-09 -0.000161423)
(-4.17104e-09 2.27999e-09 -0.000154442)
(4.66984e-09 1.88311e-09 -0.000154442)
(-1.01305e-09 6.76497e-09 -0.000161517)
(9.05631e-09 -2.0718e-09 -0.000161424)
(1.58716e-09 -7.05831e-09 -0.000158548)
(-1.6021e-09 1.32449e-09 -0.000159454)
(-2.8664e-09 6.65554e-09 -0.00015852)
(8.63465e-10 -1.87905e-09 -0.000159478)
(5.43792e-09 -1.61561e-08 -0.000161333)
(4.26874e-09 -4.68425e-09 -0.000154718)
(1.30463e-09 4.69574e-09 -0.000158549)
(-1.67362e-09 -3.01807e-09 -0.00015945)
(-3.11933e-09 -8.83295e-09 -0.00015852)
(7.71709e-10 -1.15397e-10 -0.000159475)
(3.20879e-09 1.64371e-09 -0.000154724)
(-4.16327e-09 1.13205e-08 -0.000161337)
(-2.46129e-09 -4.72803e-11 -0.000154725)
(-2.37536e-10 -3.04377e-09 -0.000161584)
(-4.67905e-09 -2.4838e-09 -0.000162137)
(-1.18582e-08 -5.54781e-09 -0.000155319)
(2.96031e-09 4.90697e-10 -0.000155398)
(9.74478e-09 3.76682e-09 -0.000161516)
(-4.57399e-09 -2.88494e-09 -0.00015837)
(2.16114e-09 2.21738e-09 -0.000159185)
(6.93167e-09 3.39479e-09 -0.000158283)
(-1.03907e-10 -2.27577e-09 -0.000159264)
(6.5143e-09 -5.26349e-10 -0.000154582)
(6.34941e-09 -3.19896e-09 -0.000158374)
(-7.487e-10 2.1412e-09 -0.000159189)
(-5.62841e-09 3.16956e-09 -0.000158287)
(1.78422e-09 -2.36792e-09 -0.000159268)
(8.06918e-09 -5.00654e-09 -0.000161434)
(-4.97694e-09 -1.35995e-09 -0.000154584)
(1.0113e-09 -2.32911e-09 -0.000162196)
(-4.39975e-09 2.64959e-09 -0.000162178)
(3.04653e-10 3.03449e-09 -0.000155405)
(-1.27168e-09 -4.97505e-10 -0.000155464)
(5.18722e-09 -9.46065e-10 -0.000155314)
(-4.40266e-09 1.2177e-09 -0.00015539)
(1.46877e-09 -4.76583e-09 -0.000161582)
(-9.35661e-09 3.16043e-09 -0.00016152)
(4.41003e-10 3.45297e-09 -0.000162127)
(5.09547e-10 2.00549e-09 -0.000162141)
(4.61205e-09 -1.58401e-09 -0.000162117)
(-1.4558e-08 9.85856e-09 -0.000162123)
(-1.16662e-08 4.83845e-09 -0.000155339)
(-3.83905e-09 1.59574e-09 -0.000162131)
(-1.79362e-09 -1.04931e-09 -0.000155398)
(-4.82657e-09 7.52393e-09 -0.000161256)
(4.64215e-09 1.28483e-08 -0.000161338)
(-5.61364e-09 -1.06552e-08 -0.000161258)
(6.05626e-09 -1.17909e-08 -0.000161259)
(-2.03835e-09 4.36301e-11 -0.000155395)
(1.77184e-09 -1.69908e-10 -0.000155452)
(-3.36944e-09 -6.23517e-09 -0.000162183)
(-3.95139e-10 -4.29393e-10 -0.000162198)
(-6.32453e-09 -4.42758e-09 -0.000161433)
(7.37171e-09 5.48123e-09 -0.000161291)
(-5.94103e-09 5.00382e-09 -0.000161293)
(-5.97117e-10 -4.27317e-09 -0.000154437)
(3.11827e-09 3.12376e-09 -0.00015458)
(3.5734e-09 -1.74053e-09 -0.000161409)
(-7.44048e-09 -7.10139e-10 -0.000161517)
(-3.16866e-09 -3.04717e-09 -0.00015463)
(4.36724e-09 8.0248e-12 -0.00015474)
(9.35502e-10 -4.83084e-09 -0.000154424)
(2.2338e-10 4.69787e-09 -0.000154599)
(6.46815e-09 -2.00587e-10 -0.000161392)
(-2.82243e-09 2.70671e-09 -0.000161541)
(-3.06065e-09 -3.82908e-09 -0.000154611)
(4.90576e-09 -5.52444e-10 -0.000154762)
(1.69208e-09 1.00986e-08 -0.000161503)
(2.10269e-09 -3.26939e-09 -0.000161628)
(-7.22948e-09 4.65756e-10 -0.00016141)
(6.96372e-09 -4.58372e-10 -0.000161515)
(1.44576e-09 -9.06048e-09 -0.000161526)
(7.98628e-10 5.02496e-09 -0.000161606)
(6.64605e-09 -1.76881e-10 -0.000161527)
(-6.864e-09 2.5966e-10 -0.000161402)
(1.04484e-09 4.79157e-09 -0.000161618)
(1.4925e-09 -9.26244e-09 -0.000161518)
(-1.03519e-09 -4.86874e-09 -0.000154435)
(-3.95579e-09 2.83367e-09 -0.000154579)
(1.55564e-09 3.77032e-09 -0.000154588)
(3.33179e-10 -4.61296e-09 -0.000154431)
(-2.81036e-09 3.25492e-09 -0.000154588)
(-1.35012e-09 -4.9745e-09 -0.00015443)
(-3.39571e-09 -1.23088e-08 -0.000161526)
(-1.9116e-09 2.9481e-09 -0.000161603)
(-7.30765e-09 -5.4058e-10 -0.000161532)
(6.93893e-09 2.42969e-10 -0.0001614)
(-1.42896e-09 4.0659e-09 -0.000161614)
(-2.65259e-09 -1.13604e-08 -0.000161518)
(-3.32623e-09 2.69501e-09 -0.000154632)
(4.34399e-09 9.77557e-12 -0.000154743)
(4.56026e-09 -2.03741e-10 -0.000154751)
(-3.16195e-09 -3.20923e-09 -0.000154622)
(4.52506e-09 2.08081e-10 -0.000154755)
(-3.3185e-09 2.87686e-09 -0.000154625)
(2.66962e-09 -4.35383e-09 -0.000154627)
(-5.08038e-09 -1.93068e-09 -0.000154738)
(2.89294e-09 3.70724e-09 -0.000154633)
(-3.32707e-09 -2.5121e-09 -0.000154743)
(-4.9694e-09 -1.33707e-09 -0.000154751)
(2.32851e-09 -5.34936e-09 -0.00015462)
(-4.59067e-09 2.26229e-10 -0.000154754)
(4.83404e-09 -9.41734e-10 -0.000154623)
(-7.14794e-09 2.82708e-10 -0.00016139)
(5.10423e-09 1.20957e-09 -0.000161536)
(1.71347e-09 -9.97876e-09 -0.000161506)
(1.76138e-09 4.07704e-09 -0.00016163)
(-2.14151e-09 -5.27296e-09 -0.000154423)
(1.51634e-09 5.39257e-09 -0.0001546)
(-1.81758e-09 -1.00997e-08 -0.000161504)
(4.37023e-10 7.74045e-09 -0.000161624)
(-3.23435e-09 3.49278e-09 -0.000154613)
(4.83622e-09 4.74844e-10 -0.000154765)
(2.80709e-09 -4.46922e-09 -0.00015461)
(-3.91334e-09 1.94628e-09 -0.00015476)
(2.40091e-09 5.49581e-09 -0.000154616)
(-5.86964e-09 3.08496e-09 -0.000154768)
(-8.3468e-09 -9.94217e-10 -0.000161403)
(5.81833e-09 -8.96073e-10 -0.000161551)
(-6.05699e-09 1.65815e-10 -0.00016141)
(-7.62564e-10 4.14095e-09 -0.000154432)
(-1.32563e-09 -5.30906e-09 -0.000154612)
(-1.44287e-09 4.98029e-09 -0.000154428)
(-7.01358e-10 -4.5316e-09 -0.000154607)
(-4.90668e-09 1.5019e-09 -0.000154438)
(4.72862e-09 1.53208e-09 -0.000154434)
(-4.39142e-09 1.44799e-08 -0.000161508)
(-2.86473e-09 -1.9612e-09 -0.000161631)
(3.48017e-09 1.92814e-09 -0.000161398)
(-5.598e-09 -9.33892e-10 -0.000161544)
(8.72431e-09 -1.52596e-09 -0.000161405)
(1.00216e-08 -3.93996e-09 -0.000158285)
(-2.52837e-09 2.41759e-09 -0.000159259)
(2.41401e-09 -2.36652e-09 -0.000159177)
(-9.27772e-09 3.90261e-09 -0.000158369)
(3.37334e-09 3.01243e-09 -0.000154577)
(-5.73509e-11 -4.4591e-09 -0.000154434)
(-9.32271e-09 -1.85133e-09 -0.000161514)
(5.77667e-09 -4.09993e-10 -0.000161403)
(-3.70762e-09 7.3673e-09 -0.000158529)
(2.38662e-09 -2.72112e-09 -0.000159498)
(-2.48498e-09 2.57499e-09 -0.000159463)
(4.04614e-09 -1.05951e-08 -0.000158569)
(6.96891e-09 -1.25035e-08 -0.000161354)
(4.36298e-09 -8.46129e-11 -0.000154735)
(-5.74758e-09 7.90146e-09 -0.000161257)
(-3.18333e-09 -2.99618e-09 -0.000154626)
(6.82769e-09 -3.0759e-09 -0.00015828)
(-5.01073e-09 2.54887e-09 -0.000159289)
(1.82385e-09 -1.96517e-09 -0.000159173)
(-1.47325e-08 4.83689e-09 -0.000158397)
(-1.07326e-08 6.54705e-09 -0.000161445)
(3.12423e-10 4.27386e-09 -0.000154594)
(1.04163e-08 -6.17751e-09 -0.0001613)
(4.12529e-10 -4.5118e-09 -0.00015442)
(-6.18124e-09 2.1393e-10 -0.000161537)
(7.52203e-09 5.72341e-10 -0.000161388)
(-4.02217e-09 7.23083e-09 -0.000158504)
(2.74949e-09 -3.07844e-09 -0.000159522)
(-2.7946e-09 2.63151e-09 -0.000159439)
(4.48508e-09 -1.0758e-08 -0.000158596)
(7.16612e-09 -1.23317e-08 -0.000161378)
(4.70921e-09 -4.64975e-10 -0.000154757)
(-3.07664e-09 -3.99035e-09 -0.000154605)
(1.37821e-09 -4.3286e-09 -0.000161626)
(1.43245e-09 9.93273e-09 -0.000161496)
(7.92603e-10 3.95274e-09 -0.000155423)
(-1.33014e-09 -3.14201e-09 -0.000155511)
(3.77618e-09 7.66528e-10 -0.000155281)
(-2.10583e-09 -2.34562e-09 -0.000155379)
(-2.75829e-09 -1.33375e-09 -0.0001555)
(-1.72354e-10 6.00667e-09 -0.000155398)
(-3.59494e-10 -3.6506e-09 -0.000155399)
(4.0447e-09 1.29316e-10 -0.0001553)
(6.88765e-09 -4.75707e-09 -0.000162141)
(9.74003e-09 -4.07702e-09 -0.00016209)
(6.92107e-09 -4.54786e-10 -0.000161511)
(-7.0066e-09 3.65814e-10 -0.000161407)
(7.95059e-10 4.96123e-09 -0.000161602)
(1.4524e-09 -9.07299e-09 -0.000161523)
(-6.96276e-09 2.89484e-10 -0.000161397)
(6.90756e-09 -3.78977e-10 -0.00016152)
(1.61265e-09 -9.55911e-09 -0.000161513)
(8.88675e-10 4.98659e-09 -0.000161611)
(-1.06438e-08 -4.01845e-09 -0.000158288)
(2.02516e-09 2.38991e-09 -0.000159263)
(-2.97492e-09 -2.39432e-09 -0.000159182)
(8.81848e-09 3.83982e-09 -0.000158371)
(-4.66593e-09 2.5367e-09 -0.000154576)
(-1.37056e-08 -7.41075e-09 -0.000161298)
(-1.3841e-09 -4.97634e-09 -0.000154432)
(-8.89277e-09 3.84137e-09 -0.000158372)
(2.49973e-09 -2.36194e-09 -0.000159174)
(1.00237e-08 -3.8956e-09 -0.000158283)
(-2.32858e-09 2.43182e-09 -0.000159262)
(8.12762e-10 -4.77394e-09 -0.000154428)
(2.52383e-09 3.37298e-09 -0.000154583)
(8.54547e-09 3.79394e-09 -0.000158375)
(-2.87634e-09 -2.38015e-09 -0.000159179)
(-1.04131e-08 -3.93974e-09 -0.000158286)
(1.97247e-09 2.41315e-09 -0.000159267)
(-1.32355e-08 -7.2152e-09 -0.000161298)
(-1.93719e-09 -5.20226e-09 -0.000154427)
(-3.35634e-09 3.07455e-09 -0.000154583)
(1.74858e-09 -2.09541e-09 -0.000155427)
(-1.16385e-09 3.377e-09 -0.000155476)
(-2.16521e-09 1.88409e-09 -0.000155472)
(8.70334e-10 -3.68195e-09 -0.000155415)
(5.88501e-09 3.50311e-09 -0.000162144)
(-2.20896e-09 2.49081e-09 -0.000161599)
(-2.80974e-09 -1.14729e-08 -0.000161523)
(6.95823e-09 2.23754e-10 -0.000161397)
(-7.0287e-09 -4.18231e-10 -0.000161524)
(3.10471e-09 -4.71249e-10 -0.000162141)
(-2.50312e-09 1.79746e-09 -0.000155478)
(-1.53918e-10 -5.13253e-09 -0.000155395)
(-6.5702e-11 -5.02696e-09 -0.000155404)
(-2.73732e-09 1.26433e-09 -0.000155473)
(2.32671e-09 -1.60537e-09 -0.000162128)
(-2.30576e-09 -1.07949e-08 -0.000161511)
(-1.79836e-09 3.2554e-09 -0.000161608)
(-3.63606e-09 -7.30191e-09 -0.000158528)
(2.4341e-09 3.61614e-09 -0.000159494)
(-2.44139e-09 -1.8528e-09 -0.000159459)
(4.17663e-09 1.09889e-08 -0.000158569)
(4.3277e-09 6.88056e-11 -0.000154739)
(-6.05674e-09 -9.02749e-09 -0.000161258)
(-3.35786e-09 2.61646e-09 -0.000154629)
(4.09986e-09 -1.06209e-08 -0.000158575)
(-2.54588e-09 2.66758e-09 -0.000159458)
(-3.74832e-09 7.47398e-09 -0.000158524)
(2.43724e-09 -2.74442e-09 -0.000159503)
(-3.11323e-09 -3.3982e-09 -0.000154617)
(4.44651e-09 -5.33721e-11 -0.000154745)
(4.22345e-09 1.09927e-08 -0.000158575)
(-2.50586e-09 -1.98057e-09 -0.000159454)
(-3.6815e-09 -7.41234e-09 -0.000158523)
(2.48669e-09 3.62026e-09 -0.000159499)
(-3.24833e-09 3.14183e-09 -0.00015462)
(4.46745e-09 1.6964e-10 -0.000154748)
(3.60534e-09 6.55492e-09 -0.000158526)
(-2.42178e-09 -3.3877e-09 -0.000159499)
(2.46742e-09 1.96972e-09 -0.000159463)
(-4.15512e-09 -1.14383e-08 -0.000158568)
(-4.85836e-09 -1.48764e-09 -0.000154733)
(5.45539e-09 6.69041e-09 -0.000161254)
(2.419e-09 -5.01999e-09 -0.000154624)
(3.70788e-09 -7.84037e-09 -0.000158526)
(-2.39954e-09 2.80811e-09 -0.000159493)
(2.47199e-09 -2.31281e-09 -0.000159458)
(-4.01198e-09 9.96105e-09 -0.000158567)
(-4.55549e-09 5.83503e-10 -0.00015474)
(6.32686e-09 -9.90706e-09 -0.000161257)
(3.31565e-09 2.699e-09 -0.000154631)
(-4.15561e-09 -1.10206e-08 -0.000158574)
(2.52124e-09 2.3108e-09 -0.000159459)
(3.66608e-09 6.86322e-09 -0.000158521)
(-2.45334e-09 -2.93824e-09 -0.000159504)
(2.50648e-09 -4.94948e-09 -0.000154615)
(-5.13549e-09 -1.88529e-09 -0.000154743)
(-4.18471e-09 1.04848e-08 -0.000158572)
(2.50208e-09 -2.43248e-09 -0.000159453)
(3.7809e-09 -8.27497e-09 -0.00015852)
(-2.49542e-09 3.45232e-09 -0.000159498)
(3.77358e-09 1.51664e-09 -0.000154618)
(-2.66985e-09 -4.50129e-09 -0.000154744)
(6.21605e-09 2.45943e-10 -0.000161534)
(-7.17722e-09 1.80001e-10 -0.000161386)
(1.29766e-09 4.53982e-09 -0.000161624)
(1.68263e-09 -1.01167e-08 -0.0001615)
(-6.72314e-09 -3.05533e-09 -0.000158283)
(5.15544e-09 2.56503e-09 -0.000159294)
(-1.83763e-09 -1.95588e-09 -0.000159177)
(1.50805e-08 4.87516e-09 -0.000158399)
(-1.16668e-09 3.92673e-09 -0.000154593)
(-1.0033e-08 -6.0771e-09 -0.000161298)
(-4.67975e-10 -4.46117e-09 -0.000154419)
(-5.04962e-09 -2.49334e-09 -0.000162221)
(-2.62159e-10 -5.34237e-09 -0.000155389)
(-2.37867e-09 1.73061e-09 -0.000155487)
(-7.7037e-10 4.22079e-09 -0.000155492)
(-1.89318e-09 -8.40793e-09 -0.000155385)
(-6.56614e-10 5.73825e-09 -0.000161622)
(-1.77286e-10 -7.76529e-09 -0.000161498)
(-3.90513e-09 -6.93683e-09 -0.000158502)
(2.81662e-09 4.16016e-09 -0.000159518)
(-2.74653e-09 -1.84299e-09 -0.000159435)
(4.648e-09 1.13734e-08 -0.000158596)
(4.60943e-09 2.65935e-10 -0.00015476)
(-6.02503e-09 -7.7237e-09 -0.000161234)
(-3.27664e-09 3.54355e-09 -0.000154607)
(4.22331e-09 8.531e-09 -0.000158502)
(-2.68472e-09 -1.88271e-09 -0.000159523)
(2.85532e-09 3.93861e-09 -0.000159441)
(-4.29881e-09 -9.47674e-09 -0.000158596)
(-4.7391e-09 -5.34069e-10 -0.000154757)
(6.17285e-09 8.13211e-09 -0.000161231)
(3.43905e-09 -3.14391e-09 -0.000154603)
(3.71375e-09 -5.31688e-09 -0.000158502)
(-2.86515e-09 5.24804e-09 -0.000159517)
(2.68773e-09 -6.05958e-10 -0.000159435)
(-4.81875e-09 1.27574e-08 -0.000158594)
(-5.43977e-09 2.46635e-09 -0.000154763)
(5.38422e-09 -5.23633e-09 -0.000161235)
(2.09592e-09 6.57234e-09 -0.00015461)
(-2.91824e-09 1.30573e-09 -0.000155317)
(1.98908e-09 -2.21833e-09 -0.000155402)
(6.56878e-10 -2.99313e-09 -0.000155411)
(-3.27708e-09 8.08431e-10 -0.000155318)
(-9.07953e-10 2.83251e-09 -0.000162112)
(5.82361e-09 -5.33832e-10 -0.000161546)
(-8.63272e-09 -1.04988e-09 -0.000161399)
(-5.125e-10 2.81118e-09 -0.00016212)
(-4.23668e-09 3.56526e-10 -0.000155323)
(5.22322e-09 2.90555e-09 -0.000158275)
(-5.30255e-09 -2.48409e-09 -0.000159292)
(1.45828e-09 1.99005e-09 -0.000159172)
(-1.61546e-08 -4.90377e-09 -0.000158395)
(-1.14386e-09 -4.93799e-09 -0.000154605)
(7.7817e-09 5.46349e-09 -0.000161291)
(-1.35874e-09 3.78144e-09 -0.000154429)
(-5.92163e-09 3.00878e-09 -0.000158278)
(4.63419e-09 -2.44584e-09 -0.000159296)
(-2.34092e-09 2.04209e-09 -0.000159176)
(1.56321e-08 -4.83906e-09 -0.000158399)
(-1.50592e-09 -3.90774e-09 -0.000154601)
(-9.11493e-09 5.78219e-09 -0.000161289)
(-3.63055e-10 4.45451e-09 -0.000154424)
(-1.69463e-09 2.18083e-09 -0.000159182)
(-5.60413e-09 1.48751e-09 -0.00015828)
(1.38249e-09 2.19618e-09 -0.000159186)
(5.45849e-09 1.51851e-09 -0.000158283)
(-3.1809e-09 -1.14004e-09 -0.000161628)
(-3.19318e-09 1.29028e-08 -0.000161502)
(-9.23042e-09 1.44411e-09 -0.000161541)
(7.30154e-09 -2.40325e-10 -0.000161393)
(2.64024e-09 9.59528e-10 -0.000155315)
(1.71915e-08 -9.12784e-09 -0.00015461)
(3.10519e-08 -8.05107e-09 -0.000154743)
(-1.70254e-08 -1.12996e-08 -0.000161509)
(-4.97289e-08 -2.36487e-08 -0.000161611)
(-2.56391e-09 -4.68346e-09 -0.000154632)
(6.08043e-09 -4.72632e-09 -0.00015473)
(-1.95811e-09 2.94548e-09 -0.000161533)
(-7.18583e-10 -7.19814e-09 -0.00016159)
(-2.04337e-09 -4.99304e-09 -0.00015445)
(-1.18673e-08 8.41183e-09 -0.000154544)
(9.48902e-10 -4.10224e-09 -0.000161425)
(6.64112e-09 6.44044e-09 -0.000161494)
(-4.1112e-09 -1.16639e-10 -0.000154654)
(1.49412e-09 7.40891e-09 -0.000154749)
(1.55066e-09 8.9636e-09 -0.000161541)
(1.32445e-09 -3.95893e-09 -0.000161609)
(-2.31847e-08 4.63575e-09 -0.000154401)
(-9.15627e-09 8.1071e-09 -0.000154544)
(2.99482e-08 1.26197e-08 -0.000161394)
(1.04119e-08 9.16656e-09 -0.000161496)
(-6.58909e-09 5.90782e-09 -0.000154656)
(2.08614e-09 5.18048e-09 -0.00015474)
(1.35695e-09 8.90454e-09 -0.000161552)
(5.58282e-10 -4.81626e-09 -0.000161607)
(-1.3936e-09 -3.68734e-09 -0.000154431)
(8.04378e-09 1.36965e-09 -0.000154572)
(3.17307e-09 -1.79996e-09 -0.000161409)
(-1.24848e-08 -3.36622e-09 -0.000161509)
(-3.17588e-09 -3.05755e-09 -0.000154638)
(4.92243e-09 -1.84487e-09 -0.000154727)
(1.04588e-09 8.48667e-09 -0.000161534)
(4.70007e-10 -5.17484e-09 -0.000161591)
(1.98488e-09 -5.19935e-09 -0.000154443)
(6.47521e-09 1.80223e-09 -0.000154576)
(3.1791e-09 -1.84175e-09 -0.000161416)
(-6.98531e-09 -3.44335e-10 -0.000161512)
(-2.57811e-09 -4.3411e-09 -0.000154636)
(4.74732e-09 -1.30103e-09 -0.000154727)
(1.02771e-09 8.20302e-09 -0.00016153)
(5.28154e-10 -5.2376e-09 -0.000161591)
(-8.64203e-10 -4.17121e-09 -0.000154441)
(4.57004e-09 2.54599e-09 -0.000154573)
(2.99511e-09 -2.0527e-09 -0.000161414)
(-8.19114e-09 -1.1248e-09 -0.00016151)
(-2.98e-09 -3.34024e-09 -0.000154636)
(4.41345e-09 -4.39419e-10 -0.000154727)
(1.19104e-09 8.48097e-09 -0.000161531)
(6.70487e-10 -4.98036e-09 -0.000161592)
(-1.42586e-09 -3.95016e-09 -0.00015444)
(4.40622e-09 2.60783e-09 -0.000154573)
(7.06111e-09 2.42341e-10 -0.000161415)
(-4.57078e-09 9.48183e-10 -0.00016151)
(-3.16878e-09 -2.87343e-09 -0.000154636)
(4.32333e-09 -1.95687e-10 -0.000154727)
(1.24935e-09 8.59722e-09 -0.000161531)
(7.21615e-10 -4.88496e-09 -0.000161592)
(-1.52482e-09 -3.91303e-09 -0.00015444)
(4.29409e-09 2.65916e-09 -0.000154573)
(3.83686e-09 -1.59147e-09 -0.000161413)
(-7.91387e-09 -9.73106e-10 -0.000161509)
(-3.17721e-09 -2.85696e-09 -0.000154636)
(4.3207e-09 -1.85048e-10 -0.000154727)
(1.27823e-09 8.66032e-09 -0.000161531)
(7.23408e-10 -4.87616e-09 -0.000161592)
(-1.48907e-09 -3.92738e-09 -0.00015444)
(4.41433e-09 2.60839e-09 -0.000154573)
(7.15155e-09 2.94709e-10 -0.000161415)
(-4.46476e-09 1.00468e-09 -0.00016151)
(-3.1808e-09 -2.84608e-09 -0.000154636)
(4.31952e-09 -1.8886e-10 -0.000154727)
(1.28424e-09 8.65938e-09 -0.000161531)
(7.23721e-10 -4.87774e-09 -0.000161592)
(-1.55113e-09 -3.90428e-09 -0.00015444)
(4.28789e-09 2.65991e-09 -0.000154573)
(3.83942e-09 -1.58793e-09 -0.000161413)
(-7.9167e-09 -9.7353e-10 -0.000161509)
(-3.18274e-09 -2.83696e-09 -0.000154636)
(4.31408e-09 -1.71114e-10 -0.000154727)
(1.25946e-09 8.61648e-09 -0.000161531)
(7.13254e-10 -4.89694e-09 -0.000161592)
(-1.46973e-09 -3.93397e-09 -0.00015444)
(4.40549e-09 2.612e-09 -0.000154573)
(7.11877e-09 2.76667e-10 -0.000161415)
(-4.53452e-09 9.69432e-10 -0.00016151)
(-3.17628e-09 -2.85382e-09 -0.000154636)
(4.32031e-09 -1.9083e-10 -0.000154727)
(1.27218e-09 8.64162e-09 -0.000161531)
(7.13964e-10 -4.89536e-09 -0.000161592)
(-1.5086e-09 -3.91978e-09 -0.00015444)
(4.29949e-09 2.65505e-09 -0.000154573)
(3.84928e-09 -1.58382e-09 -0.000161413)
(-7.88162e-09 -9.55896e-10 -0.000161509)
(-3.18207e-09 -2.8386e-09 -0.000154636)
(4.31366e-09 -1.73222e-10 -0.000154727)
(1.25858e-09 8.6161e-09 -0.000161531)
(7.26843e-10 -4.87088e-09 -0.000161592)
(-1.48943e-09 -3.92561e-09 -0.00015444)
(4.36078e-09 2.62913e-09 -0.000154573)
(7.12288e-09 2.78529e-10 -0.000161415)
(-4.48795e-09 9.92315e-10 -0.00016151)
(-3.16731e-09 -2.87934e-09 -0.000154636)
(4.33038e-09 -2.18062e-10 -0.000154727)
(1.27704e-09 8.64901e-09 -0.000161531)
(7.35324e-10 -4.85822e-09 -0.000161592)
(-1.43203e-09 -3.94871e-09 -0.00015444)
(4.19759e-09 2.6923e-09 -0.000154573)
(3.76406e-09 -1.63007e-09 -0.000161413)
(-7.81381e-09 -9.18877e-10 -0.000161509)
(-3.19068e-09 -2.82534e-09 -0.000154636)
(4.31136e-09 -1.5199e-10 -0.000154727)
(1.2603e-09 8.62512e-09 -0.000161531)
(7.62356e-10 -4.81871e-09 -0.000161592)
(-1.30161e-09 -3.99681e-09 -0.00015444)
(4.06709e-09 2.74206e-09 -0.000154573)
(7.04023e-09 2.32416e-10 -0.000161415)
(-4.32738e-09 1.08026e-09 -0.00016151)
(-3.18565e-09 -2.87636e-09 -0.000154635)
(4.31554e-09 -9.61376e-11 -0.000154729)
(1.26482e-09 8.66824e-09 -0.00016153)
(7.90116e-10 -4.83411e-09 -0.000161595)
(1.27011e-09 8.80558e-09 -0.000161523)
(9.61339e-10 -4.7271e-09 -0.000161607)
(1.54069e-08 -4.11737e-09 -0.000161598)
(1.83095e-09 3.39968e-09 -0.000161593)
(1.99789e-08 -2.50206e-09 -0.000154742)
(7.15509e-09 -7.49811e-09 -0.000154497)
(-2.16562e-08 -3.24669e-09 -0.000154743)
(-6.69406e-09 -7.12488e-09 -0.0001545)
(-1.80286e-08 -5.61685e-09 -0.000161606)
(2.30444e-08 8.97957e-09 -0.000161427)
(-3.37453e-09 6.66779e-10 -0.000161589)
(-2.76009e-09 -9.72699e-09 -0.00016152)
(5.00588e-09 -1.17477e-09 -0.000154724)
(3.12144e-09 -3.96335e-09 -0.000154735)
(-5.60274e-09 -2.9211e-09 -0.000154724)
(2.30755e-09 -3.08854e-09 -0.000154615)
(-3.02119e-09 -3.86285e-09 -0.000154732)
(-2.47897e-09 -1.16643e-08 -0.000161596)
(4.52227e-09 -1.37673e-09 -0.000161519)
(2.45727e-09 -3.82089e-09 -0.000154584)
(-2.14679e-09 -3.99216e-09 -0.00015459)
(6.4297e-10 -8.25185e-09 -0.00016159)
(-7.93906e-09 4.55457e-10 -0.000161529)
(1.56567e-08 -1.03069e-08 -0.000161508)
(5.23307e-08 -2.51801e-08 -0.00016161)
(3.43024e-09 -1.29523e-08 -0.000161529)
(5.2671e-09 -3.58693e-09 -0.000161597)
(1.7858e-08 -7.47721e-09 -0.000161535)
(3.05902e-08 -2.09593e-08 -0.000161503)
(7.90169e-10 5.01681e-09 -0.000161611)
(4.90796e-09 -1.52978e-08 -0.00016154)
(-1.88801e-08 -9.89665e-09 -0.000154609)
(-2.99835e-08 -7.66143e-09 -0.00015474)
(9.22666e-09 -9.37011e-10 -0.000154608)
(2.39635e-08 -1.5564e-08 -0.000154579)
(-1.06588e-08 -1.55618e-09 -0.000154606)
(-2.26106e-08 -1.50031e-08 -0.000154577)
(-4.83794e-09 -1.54392e-08 -0.00016153)
(-4.04085e-09 -1.35603e-09 -0.000161594)
(-2.14078e-08 -9.60643e-09 -0.00016154)
(-2.91573e-08 -1.98968e-08 -0.000161502)
(-2.83801e-09 1.58826e-09 -0.000161606)
(-4.98762e-09 -1.56348e-08 -0.000161538)
(-5.2244e-09 -2.20727e-09 -0.000154642)
(2.25624e-09 -4.77187e-09 -0.000154731)
(4.1275e-09 6.80018e-10 -0.000154744)
(-1.72473e-09 -6.23869e-09 -0.000154641)
(3.76665e-09 -1.55482e-09 -0.00015474)
(-4.77775e-09 -1.41041e-09 -0.00015464)
(1.87559e-09 -6.58839e-09 -0.000154631)
(-6.14398e-09 -4.94302e-09 -0.000154727)
(4.88121e-09 -1.19264e-09 -0.00015464)
(-2.70645e-09 -3.56343e-09 -0.000154731)
(-4.15137e-09 4.75274e-10 -0.00015474)
(1.68298e-09 -6.48532e-09 -0.000154638)
(-4.26963e-09 -2.88303e-10 -0.00015474)
(4.28602e-09 -6.01372e-11 -0.00015464)
(-1.18016e-08 -3.09563e-09 -0.000161427)
(5.85443e-09 -4.39069e-11 -0.000161519)
(7.18826e-10 -5.09422e-09 -0.0001616)
(1.18061e-10 6.53545e-09 -0.000161529)
(6.38357e-09 -6.63409e-11 -0.000161524)
(-8.87448e-09 -1.37531e-09 -0.000161424)
(-4.51715e-09 2.74404e-09 -0.00015445)
(2.63912e-09 -3.26845e-09 -0.000154583)
(3.40175e-09 3.27177e-09 -0.000154455)
(-4.16327e-09 -2.59907e-09 -0.000154581)
(2.61996e-09 -3.58197e-09 -0.000154589)
(-3.50646e-09 3.10021e-09 -0.000154446)
(-3.51008e-09 -3.21879e-09 -0.000154587)
(2.20839e-09 3.65059e-09 -0.000154445)
(7.81165e-11 6.18714e-09 -0.000161529)
(3.01918e-10 -6.43735e-09 -0.000161589)
(9.05491e-09 -1.41871e-09 -0.000161437)
(-6.92537e-09 6.11991e-10 -0.000161522)
(-1.25055e-09 -4.15824e-09 -0.000161597)
(-4.34387e-10 7.06314e-09 -0.000161527)
(-6.91243e-09 2.28676e-10 -0.000161527)
(8.63121e-09 -1.19581e-09 -0.000161427)
(-4.95833e-09 -1.69251e-09 -0.000161429)
(-8.12662e-09 7.24072e-09 -0.000161492)
(-6.56343e-11 -5.90347e-09 -0.000161552)
(-3.85899e-09 1.36383e-08 -0.000161617)
(-1.59401e-08 1.18066e-08 -0.000161483)
(-2.66463e-08 1.06505e-08 -0.000161397)
(-5.09982e-09 1.5776e-08 -0.000161615)
(-4.13055e-09 1.63051e-09 -0.000161556)
(-8.68714e-10 -6.16984e-09 -0.000154446)
(9.79326e-09 7.65613e-09 -0.000154541)
(-1.87813e-08 1.16401e-08 -0.000154533)
(-2.08605e-08 3.28781e-09 -0.000154404)
(1.77018e-08 1.12287e-08 -0.000154533)
(1.86583e-08 2.4525e-09 -0.000154401)
(-1.97806e-09 -9.36363e-09 -0.000161553)
(2.99814e-09 1.19672e-08 -0.000161612)
(1.546e-08 1.16007e-08 -0.00016149)
(2.58979e-08 1.01713e-08 -0.000161392)
(4.55364e-09 1.47399e-08 -0.000161609)
(2.91361e-09 -5.53971e-10 -0.000161556)
(-3.36972e-09 2.04489e-09 -0.000154651)
(4.47439e-09 2.86484e-10 -0.000154748)
(7.79013e-10 8.96984e-09 -0.000154749)
(-6.48995e-09 5.95559e-09 -0.000154658)
(4.3761e-09 3.18919e-10 -0.000154752)
(-2.97453e-09 3.05281e-09 -0.000154658)
(3.56163e-09 -1.55392e-09 -0.000154652)
(-2.10311e-09 5.71531e-09 -0.000154747)
(2.86812e-09 3.2851e-09 -0.000154651)
(-4.87766e-09 1.33146e-09 -0.000154749)
(-1.32341e-09 7.5402e-09 -0.000154748)
(5.5821e-09 3.61082e-09 -0.000154656)
(-4.42018e-09 4.24846e-10 -0.000154753)
(2.59044e-09 3.98779e-09 -0.000154659)
(-9.18875e-09 -1.69915e-09 -0.000161433)
(7.04091e-09 3.0656e-10 -0.000161534)
(9.45206e-10 -4.46881e-09 -0.000161614)
(1.75198e-09 9.3703e-09 -0.00016155)
(7.77938e-09 8.17476e-10 -0.000161539)
(-8.18512e-09 -1.12366e-09 -0.000161442)
(-3.63735e-09 2.93169e-09 -0.000154455)
(3.10228e-09 -3.37754e-09 -0.000154599)
(2.95108e-09 3.20093e-09 -0.000154454)
(-3.23069e-09 -3.32515e-09 -0.000154596)
(3.85244e-09 -2.96597e-09 -0.000154604)
(-2.95698e-09 3.22993e-09 -0.000154464)
(-3.55964e-09 -3.07637e-09 -0.000154601)
(3.02649e-09 3.20013e-09 -0.000154463)
(-1.8457e-09 9.42671e-09 -0.000161538)
(-1.71929e-09 -3.26731e-09 -0.000161606)
(8.91154e-09 -1.53121e-09 -0.000161437)
(-6.90348e-09 2.33483e-10 -0.000161537)
(-1.07798e-09 -4.22802e-09 -0.00016161)
(-1.96874e-09 9.71179e-09 -0.000161546)
(-7.2638e-09 5.61016e-10 -0.000161542)
(8.77552e-09 -1.42468e-09 -0.000161446)
(-2.97147e-08 1.25949e-08 -0.000161393)
(-7.01018e-09 7.17483e-09 -0.000161489)
(-4.4122e-09 1.91438e-09 -0.000161552)
(-2.80728e-09 1.12365e-08 -0.000161605)
(5.57634e-09 4.49641e-10 -0.000161498)
(-1.84126e-08 6.63275e-09 -0.0001614)
(4.04421e-10 5.29979e-09 -0.000161595)
(-1.5558e-09 -3.66815e-09 -0.00016154)
(2.25666e-08 4.43329e-09 -0.000154401)
(1.14665e-08 9.02998e-09 -0.000154546)
(2.08783e-09 3.80529e-09 -0.000154561)
(-1.13006e-08 1.71344e-10 -0.000154415)
(-2.61024e-09 3.58136e-09 -0.000154563)
(1.35464e-08 1.08337e-09 -0.000154416)
(3.97594e-09 1.2451e-09 -0.00016155)
(5.00155e-09 1.5272e-08 -0.000161601)
(-9.69433e-09 -1.941e-09 -0.000161507)
(2.04603e-08 7.97906e-09 -0.000161405)
(-2.23419e-09 2.29772e-09 -0.000161591)
(2.36731e-09 -2.29638e-09 -0.000161539)
(-3.13135e-09 3.03978e-09 -0.00015466)
(3.99958e-09 -1.89058e-10 -0.000154745)
(4.02126e-09 3.83032e-10 -0.000154731)
(-4.94625e-09 1.40933e-09 -0.000154646)
(3.82949e-09 -6.66603e-10 -0.000154735)
(-3.52124e-09 2.43884e-09 -0.000154651)
(6.11335e-09 4.76778e-09 -0.000154655)
(-1.54359e-09 6.64302e-09 -0.00015474)
(3.16209e-09 2.92857e-09 -0.000154662)
(-3.85602e-09 -5.85259e-10 -0.000154747)
(-3.87751e-09 5.86413e-10 -0.000154729)
(5.49067e-09 2.73278e-09 -0.000154645)
(-3.87041e-09 -5.31231e-10 -0.000154737)
(3.60873e-09 2.19396e-09 -0.000154653)
(-7.61327e-09 -6.76014e-10 -0.000161445)
(8.30183e-09 1.24653e-09 -0.000161534)
(4.93372e-10 -5.00938e-09 -0.000161597)
(1.04395e-09 8.60037e-09 -0.000161543)
(8.03962e-09 1.09543e-09 -0.000161526)
(-7.08927e-09 -2.85167e-10 -0.000161438)
(-2.31497e-09 3.61442e-09 -0.000154467)
(4.37093e-09 -2.62014e-09 -0.000154599)
(2.56267e-09 3.52515e-09 -0.000154466)
(-4.37816e-09 -2.61611e-09 -0.000154597)
(3.97915e-09 -2.78253e-09 -0.000154591)