/*--------------------------------*- C++ -*----------------------------------*\
| =========                 |                                                 |
| \\      /  F ield         | OpenFOAM: The Open Source CFD Toolbox           |
|  \\    /   O peration     | Version:  2206                                  |
|   \\  /    A nd           | Website:  www.openfoam.com                      |
|    \\/     M anipulation  |                                                 |
\*---------------------------------------------------------------------------*/
FoamFile
{
    version     2.0;
    format      ascii;
    arch        "LSB;label=32;scalar=64";
    class       surfaceScalarField;
    location    "0.3";
    object      phi;
}
// * * * * * * * * * * * * * * * * * * * * * * * * * * * * * * * * * * * * * //

dimensions      [0 3 -1 0 0 0 0];

oriented        oriented;

internalField   nonuniform List<scalar> 
196294
(
-1.28396e-11
8.94335e-11
1.19428e-11
2.95355e-12
1.57463e-08
5.25236e-11
2.57036e-14
-4.82416e-12
-1.73515e-11
-2.19201e-08
2.18898e-08
-2.50806e-12
1.35601e-11
3.7297e-12
-1.5654e-08
1.51386e-12
1.56377e-08
-5.26367e-11
-1.33573e-13
-1.09824e-11
9.39222e-11
-2.49368e-08
2.49066e-08
-1.57792e-11
-1.38183e-11
1.78785e-11
2.19543e-11
2.28991e-08
7.77114e-12
-3.38973e-12
9.72295e-11
-1.3074e-10
1.31413e-10
-9.76336e-11
1.09695e-07
2.37667e-12
5.84208e-12
-7.94564e-09
1.89959e-12
7.93552e-09
-1.95948e-13
-1.69804e-11
1.77691e-11
-4.75498e-12
-2.55119e-08
2.55161e-08
9.97078e-13
4.08354e-11
-1.17867e-12
-3.65879e-12
-2.53961e-11
2.30212e-11
4.89517e-12
-4.03132e-11
-8.51857e-12
1.33253e-11
1.0901e-07
-3.60098e-11
2.60144e-12
-3.72173e-12
5.79777e-12
-5.86639e-12
2.86536e-12
1.09109e-07
-6.74182e-12
-5.76246e-12
9.82246e-12
-2.32868e-08
1.42065e-12
2.32881e-08
-2.75716e-11
-4.1398e-11
-2.66105e-08
-4.91406e-11
-3.16786e-11
2.67603e-08
1.18681e-11
-5.76618e-12
-4.79902e-12
-2.45911e-08
2.3795e-11
2.4566e-08
6.87081e-12
-3.41383e-12
-2.92033e-12
-2.47235e-08
1.51367e-11
2.47079e-08
3.29711e-11
3.48103e-12
7.98896e-09
5.31025e-12
-7.94685e-09
2.01935e-12
7.93701e-09
-3.91387e-11
-3.20613e-11
-2.65983e-08
-3.92536e-11
-4.00507e-11
2.67488e-08
6.24696e-11
-2.33472e-11
1.2739e-10
2.47171e-08
1.18022e-11
-5.06923e-12
-2.44046e-08
2.33682e-11
2.43798e-08
9.58269e-10
-3.26913e-11
-9.70852e-11
8.43888e-12
-3.47923e-10
-4.42395e-10
1.09958e-07
7.64247e-11
2.09581e-10
2.30255e-08
-5.54483e-12
-5.05882e-11
-5.79297e-12
2.4498e-08
2.41896e-12
2.12103e-12
7.93796e-09
-8.99051e-14
-1.09888e-11
9.39314e-11
-2.49357e-08
2.49054e-08
1.54878e-10
-8.57378e-11
-3.54435e-11
-2.76081e-11
2.79891e-11
5.78003e-11
-5.58126e-11
5.51684e-11
-5.50374e-11
1.08026e-07
1.74898e-11
-2.2903e-08
2.41171e-11
2.28868e-08
3.32694e-11
-8.06359e-11
9.72101e-11
-1.31135e-10
1.31364e-10
-9.61979e-11
1.09918e-07
5.24943e-11
-1.73055e-11
-4.76258e-12
-2.19167e-08
2.18863e-08
1.38634e-11
3.49588e-12
-1.56494e-08
1.51436e-12
1.56329e-08
9.39846e-11
-1.08856e-11
-2.4933e-08
2.49023e-08
-9.33803e-13
2.72419e-11
-1.06785e-12
3.63491e-11
-5.22733e-11
-3.5499e-11
5.40598e-11
-2.5777e-11
-2.71489e-11
2.33897e-11
1.09102e-07
-4.60527e-12
7.95283e-11
-1.3058e-10
1.30836e-10
-7.88074e-11
1.10899e-07
-1.17164e-11
1.74136e-11
-2.28878e-08
2.43159e-11
2.28717e-08
9.65401e-15
-4.81359e-12
-1.73637e-11
2.18908e-08
3.67181e-12
1.60106e-12
1.56387e-08
-5.2625e-11
9.39773e-11
-1.08373e-11
-2.49342e-08
2.49035e-08
-6.57663e-13
-1.91879e-12
-2.61136e-11
-2.31927e-11
2.35519e-11
3.63642e-11
-5.4996e-11
5.43349e-11
-3.5514e-11
1.09096e-07
-3.41512e-12
7.96073e-11
-1.30505e-10
1.30923e-10
-7.87345e-11
1.10871e-07
-1.39484e-11
1.73003e-11
-2.29e-08
2.44122e-11
2.28841e-08
-1.73341e-11
-4.72777e-12
2.18868e-08
-2.26168e-12
3.4127e-12
1.58807e-12
1.56339e-08
-2.66058e-08
-4.26404e-11
-3.82321e-11
2.67548e-08
-1.37054e-11
-2.44575e-08
1.86189e-11
2.44467e-08
-3.17306e-12
5.81512e-12
-2.48568e-08
2.12871e-11
2.48261e-08
1.14802e-12
-8.1041e-09
1.97829e-12
8.0978e-09
-1.7227e-11
1.77397e-11
-4.77148e-12
-2.55149e-08
2.5519e-08
8.89513e-13
-1.23349e-12
-4.05962e-11
-1.38844e-11
1.36423e-11
-3.86605e-12
-2.255e-11
2.25459e-11
5.14423e-12
1.09048e-07
1.50785e-12
-3.74538e-12
5.79725e-12
-5.64465e-12
3.12816e-12
1.09049e-07
-5.89568e-12
9.87106e-12
-2.32796e-08
9.81182e-13
2.32815e-08
-3.18117e-14
-2.13758e-12
-5.58632e-12
-2.25691e-08
2.25599e-08
2.04685e-12
-1.60031e-08
1.5323e-12
1.59949e-08
-2.18406e-12
-5.35959e-12
-2.25731e-08
2.25634e-08
-1.13265e-12
2.03746e-12
-1.60058e-08
1.57827e-12
1.59975e-08
2.06707e-12
7.93636e-09
-8.10438e-09
1.97269e-12
8.09786e-09
-2.89614e-11
1.56421e-10
2.36039e-08
4.71532e-12
6.56403e-09
-1.32838e-11
-9.98557e-13
1.16961e-08
1.67437e-12
-1.35076e-12
-2.09925e-08
-1.41635e-11
-7.21063e-12
4.36383e-11
2.09654e-08
-1.41823e-08
-1.28382e-12
2.73975e-14
8.45321e-13
1.41654e-08
4.63035e-12
1.63761e-11
3.70079e-14
-5.18229e-11
6.76594e-12
-4.28415e-11
3.29119e-14
-1.34677e-12
-2.10156e-12
8.76576e-13
1.16819e-08
-3.75944e-12
6.52425e-09
-2.89099e-12
-2.3449e-08
-4.15281e-12
2.75403e-11
2.34221e-08
-3.16956e-12
1.87002e-12
-1.30563e-11
-1.87899e-12
-2.735e-11
2.21307e-12
6.51578e-09
-2.0113e-12
-5.08315e-12
-2.74572e-12
3.27277e-12
3.00708e-12
1.76645e-08
-1.3956e-11
-1.38462e-11
-6.60897e-09
3.551e-12
3.00074e-12
1.78928e-12
6.60063e-09
-6.65058e-09
3.25251e-12
2.53443e-12
1.80199e-12
6.64299e-09
-2.75778e-12
-2.24374e-12
-2.29081e-12
-2.23985e-12
1.39885e-11
1.41595e-11
1.76431e-08
-2.13063e-11
1.19657e-11
2.16701e-08
-2.4612e-11
-1.51144e-08
1.21758e-11
1.02592e-12
1.50994e-08
-2.34294e-11
4.44907e-12
-1.18183e-11
-2.48191e-08
-2.08947e-11
4.44634e-11
3.1606e-11
2.47878e-08
-4.456e-11
-3.23575e-11
-1.25976e-12
2.46189e-11
2.16507e-08
-1.75902e-11
9.1919e-12
2.076e-08
-1.89194e-11
-1.50091e-08
9.27043e-12
1.04244e-12
1.49984e-08
-1.53087e-11
2.54893e-12
3.16737e-12
-6.55524e-12
-2.4207e-08
-1.78143e-11
2.95457e-11
2.34629e-11
2.4187e-08
-3.01948e-11
-2.32232e-11
-1.24249e-12
1.85302e-11
2.07471e-08
-5.26042e-12
-2.53319e-12
3.13766e-12
3.65352e-12
1.76659e-08
-1.3002e-11
-1.45353e-11
-6.64665e-09
3.27668e-12
2.01235e-12
2.10269e-12
6.63925e-09
-6.61304e-09
3.55012e-12
3.11693e-12
1.82241e-12
6.60456e-09
-2.57855e-12
-1.90803e-12
-2.80919e-12
-2.00591e-12
1.29907e-11
1.43087e-11
1.76455e-08
9.17564e-12
2.1762e-08
-2.21536e-11
-1.52574e-08
4.62752e-11
1.50475e-12
1.51883e-08
-4.89911e-11
1.51152e-10
1.46614e-10
2.49364e-08
-8.7736e-13
2.14306e-11
2.17508e-08
1.19759e-11
2.06735e-08
-2.18575e-11
-2.08341e-11
-1.48701e-08
1.18697e-11
1.07123e-12
1.48552e-08
4.52199e-12
-2.35882e-11
-1.1437e-11
-2.14478e-11
-2.40061e-08
4.0775e-11
3.2256e-11
2.39779e-08
-1.21759e-12
2.05825e-11
2.06577e-08
-4.12102e-11
-3.25901e-11
-5.81217e-11
6.59425e-11
1.77136e-12
6.60344e-09
2.66159e-10
1.76579e-08
-6.92481e-11
1.12887e-12
1.50685e-08
-1.61925e-10
5.52134e-11
2.43436e-08
2.14625e-08
-1.07248e-12
-1.33883e-11
1.16899e-08
1.79879e-12
-1.30119e-12
-1.4179e-08
-1.21244e-12
8.58442e-13
1.4162e-08
-2.09837e-08
-1.40484e-11
-7.01879e-12
4.33755e-11
2.09566e-08
1.63974e-11
4.69069e-12
-5.18617e-11
-1.33672e-12
7.0037e-12
-4.30899e-11
-1.9704e-12
9.30287e-13
1.16757e-08
-3.66258e-12
6.52043e-09
-2.86171e-12
-2.34374e-08
-4.22639e-12
2.75621e-11
2.34106e-08
-3.37931e-12
-1.31761e-11
-1.88604e-12
-2.72587e-11
2.26302e-12
6.51197e-09
-1.39113e-11
-7.13803e-12
4.34774e-11
2.09663e-08
-1.26345e-12
3.03266e-14
9.50905e-13
1.41654e-08
-2.01422e-12
9.80583e-13
1.16821e-08
-3.77511e-12
2.74135e-11
2.34229e-08
2.38796e-12
6.51607e-09
-1.18929e-12
9.60121e-13
1.41623e-08
-1.39917e-11
-7.01806e-12
4.35165e-11
2.09572e-08
-1.91416e-12
1.03169e-12
1.16759e-08
-4.10068e-12
2.77067e-11
2.34118e-08
2.40969e-12
6.51216e-09
5.50743e-12
8.84676e-13
1.76701e-08
2.25397e-13
-2.93767e-11
-6.61221e-09
-1.99738e-11
2.61233e-11
1.69298e-12
6.60437e-09
-6.64709e-09
2.60184e-11
-2.14278e-11
2.07097e-12
6.64043e-09
-5.07879e-13
-2.20421e-12
-4.5031e-12
-2.17201e-12
1.24343e-10
-1.04085e-10
1.76559e-08
1.36421e-11
-1.88723e-11
2.07029e-08
-3.92125e-11
-1.4859e-08
-1.47203e-11
7.1316e-13
1.48854e-08
4.39998e-12
-2.31619e-11
-1.17915e-11
-2.43864e-08
-6.62077e-11
3.4954e-11
1.13076e-11
2.4425e-08
-1.34761e-12
-3.21744e-11
-4.61183e-11
-1.10795e-10
2.08571e-08
-2.03365e-11
8.02991e-12
2.17411e-08
-5.10974e-12
-1.52662e-08
3.6859e-11
1.26854e-12
1.52124e-08
-1.60511e-11
2.75642e-12
3.09912e-12
-6.50233e-12
-2.4648e-08
2.73857e-11
1.95603e-11
6.46574e-11
2.45577e-08
-2.31366e-11
-2.90296e-11
-1.19089e-12
1.48627e-10
2.15526e-08
-8.01303e-13
-2.37334e-12
-4.64041e-12
-6.69378e-13
1.20481e-08
9.78159e-13
-1.10309e-12
-2.15856e-08
-4.66156e-12
-3.45654e-12
1.48852e-11
2.15767e-08
-1.46225e-08
-6.66818e-13
-1.18872e-14
9.48217e-13
1.46166e-08
2.24464e-12
5.70287e-12
-1.38824e-14
-1.75065e-11
3.50619e-12
-1.48042e-11
-8.71672e-15
-1.03415e-12
-1.05004e-12
9.46789e-13
1.20429e-08
8.33296e-14
6.72791e-09
-2.73652e-12
-2.40584e-08
-5.83471e-14
1.02701e-11
2.40467e-08
-1.98013e-12
-5.30048e-12
-1.85833e-12
-1.04022e-11
2.4455e-12
6.72435e-09
-4.66515e-12
-6.56556e-13
1.20543e-08
9.97686e-13
-1.09131e-12
-2.15945e-08
-4.62653e-12
-3.47795e-12
1.50798e-11
2.15853e-08
-1.46257e-08
-6.90017e-13
9.52082e-13
1.46201e-08
2.24625e-12
5.48958e-12
-1.77924e-11
3.51646e-12
-1.51129e-11
-1.03234e-12
-1.07684e-12
9.57059e-13
1.20491e-08
-1.95019e-13
6.7318e-09
-2.67416e-12
-2.40682e-08
-2.6836e-13
1.01536e-11
2.40569e-08
-2.01097e-12
8.73127e-13
-5.56981e-12
-1.82326e-12
-1.04558e-11
2.45147e-12
6.728e-09
-2.4243e-12
-1.60872e-10
3.92574e-10
1.11377e-07
2.66276e-10
-3.81178e-10
1.17971e-07
-3.20821e-10
3.43881e-11
1.13252e-07
-3.25604e-10
2.47661e-13
1.2159e-07
3.61448e-10
-7.45848e-12
1.11239e-07
-3.87347e-12
1.17984e-07
1.108e-11
7.2666e-12
1.12536e-07
-8.90298e-13
1.20964e-07
-6.9704e-12
2.48754e-13
1.11005e-07
2.07933e-12
1.16053e-07
2.12954e-11
-3.67074e-10
1.10913e-07
-3.33354e-10
1.21819e-07
-1.63212e-11
6.38199e-12
1.11025e-07
7.48172e-12
1.16018e-07
-1.91073e-11
1.10171e-07
1.21056e-07
7.17936e-11
-1.80904e-11
2.57062e-08
-2.43616e-08
7.25506e-11
-1.55962e-11
2.43372e-08
-2.64422e-08
-1.80448e-11
-7.02207e-12
2.64305e-08
1.10862e-11
-9.38138e-11
2.11351e-14
6.85979e-12
2.53897e-11
2.56377e-08
4.54145e-11
2.43385e-08
3.92875e-11
2.52868e-08
2.60448e-08
-5.96885e-12
1.23189e-11
2.60431e-08
-5.27814e-11
-2.68821e-08
-5.68864e-12
-4.9209e-13
2.69118e-08
-2.486e-08
1.19658e-11
-6.59646e-12
2.48648e-08
-1.91703e-11
5.40189e-12
-4.25257e-14
6.45145e-14
6.69809e-12
5.34226e-11
2.59988e-08
2.23735e-11
5.86847e-12
2.6335e-08
-2.48288e-08
3.85853e-12
2.48385e-08
-1.32026e-12
-1.04116e-11
-2.56188e-08
2.21568e-11
2.55922e-08
2.64194e-08
-1.79743e-11
-2.05519e-11
2.3901e-08
5.03149e-11
3.38023e-11
-2.60209e-08
-1.67644e-11
2.60098e-08
-2.49642e-08
-1.9713e-11
2.49679e-08
2.39076e-08
2.38911e-08
-1.52749e-11
-2.3135e-11
4.17686e-11
4.12945e-11
-1.52618e-11
-2.61131e-08
2.61432e-08
-2.18305e-11
-2.48709e-08
2.48658e-08
2.3896e-08
3.12438e-10
2.44917e-08
1.65673e-10
2.54618e-08
2.61771e-08
7.22461e-11
-1.78328e-11
2.57054e-08
-2.53214e-11
-2.43599e-08
7.25465e-11
-1.55916e-11
2.43356e-08
-2.64415e-08
-1.82401e-11
-6.82039e-12
2.64294e-08
1.09748e-11
-9.42142e-11
8.28395e-14
1.53859e-11
7.03639e-12
2.16012e-11
2.56419e-08
4.62351e-11
3.76272e-11
2.59891e-08
-2.4351e-08
4.49064e-11
2.43356e-08
-1.79569e-11
-2.37704e-11
-2.52747e-08
3.73924e-11
2.52378e-08
2.60379e-08
-2.14181e-11
7.21613e-11
2.57061e-08
2.93284e-11
-2.64396e-08
-2.09503e-11
2.64172e-08
-2.43524e-08
7.14217e-11
-1.82764e-11
2.43318e-08
-9.4236e-11
1.10993e-11
1.87321e-11
-2.88201e-11
2.57066e-08
4.54392e-11
2.59635e-08
4.06784e-11
-2.4341e-08
4.4438e-11
2.43233e-08
-1.80513e-11
-2.38008e-11
4.03836e-11
-2.52811e-08
2.52477e-08
2.5984e-08
-2.13753e-11
7.17895e-11
2.57068e-08
2.94457e-11
-2.64402e-08
-2.09833e-11
2.64176e-08
-2.43537e-08
7.11431e-11
-1.81849e-11
2.43334e-08
-9.41739e-11
1.11109e-11
1.87679e-11
-2.87397e-11
2.5707e-08
4.07693e-11
4.50409e-11
2.59673e-08
-2.43434e-08
4.42722e-11
2.4326e-08
-2.37983e-11
-1.81023e-11
-2.53352e-08
4.00081e-11
2.52962e-08
2.59873e-08
-2.21064e-11
-1.6297e-11
2.38834e-08
3.46527e-11
4.94062e-11
-2.59586e-08
-6.47883e-11
2.59649e-08
-2.50026e-08
2.43659e-11
2.49961e-08
2.38809e-08
-5.86993e-12
1.23454e-11
2.60477e-08
-5.30701e-11
-2.68853e-08
-5.62456e-12
2.6914e-08
-2.4866e-08
1.18991e-11
-6.65963e-12
2.48711e-08
-1.91772e-11
5.35475e-12
6.6122e-12
5.34177e-11
2.60037e-08
2.19976e-11
5.95719e-12
2.63375e-08
-2.48343e-08
3.64323e-12
2.48441e-08
-1.13174e-12
-1.03923e-11
-2.55672e-08
2.23628e-11
2.55468e-08
2.6422e-08
1.23642e-12
9.0762e-14
2.98024e-15
2.83866e-09
4.94476e-13
6.22466e-14
-2.4155e-14
1.55067e-09
1.64801e-13
3.79711e-14
-2.6634e-14
7.68611e-10
3.2991e-14
1.80474e-14
-1.81421e-14
3.19422e-10
4.49343e-15
-7.19103e-15
7.60446e-11
7.14975e-13
-1.31994e-13
-2.83756e-09
2.36094e-13
2.83826e-09
3.10253e-13
-6.34574e-14
-1.55042e-09
1.29509e-13
1.55076e-09
1.14467e-13
-2.88546e-14
-7.68529e-10
6.51719e-14
7.68688e-10
2.65829e-14
-1.07609e-14
-3.19347e-10
2.78171e-14
3.19418e-10
-2.04376e-15
-7.60089e-11
6.98617e-15
7.60306e-11
8.95174e-13
6.00939e-14
-5.30403e-09
-3.07641e-14
5.30501e-09
3.71631e-13
1.70886e-14
-2.8812e-09
-1.28006e-14
2.88172e-09
1.32393e-13
3.44548e-15
-1.42214e-09
-1.87486e-15
1.42237e-09
2.96371e-14
-5.07519e-16
-5.89158e-10
7.51791e-16
5.8926e-10
-1.04062e-15
-1.39962e-10
3.56299e-16
1.39992e-10
1.46862e-12
1.23392e-13
5.30617e-09
5.79992e-13
6.61104e-14
2.88199e-09
1.95601e-13
3.00207e-14
1.42236e-09
4.15956e-14
1.08748e-14
5.89236e-10
2.28473e-15
1.40037e-10
9.54732e-13
-5.30495e-09
-8.57601e-14
5.30596e-09
3.97226e-13
-2.88166e-09
-4.76399e-14
2.8822e-09
1.41754e-13
-1.42235e-09
-2.28759e-14
1.4226e-09
3.19437e-14
-5.89186e-10
-9.05369e-15
5.89294e-10
-1.3996e-10
-2.14325e-15
1.39991e-10
9.91163e-13
1.1773e-13
-8.17429e-14
5.30605e-09
4.01281e-13
5.15846e-14
-4.66713e-14
2.88238e-09
1.36915e-13
1.96333e-14
-1.91177e-14
1.42273e-09
2.92848e-14
5.57313e-15
-5.77811e-15
5.89383e-10
4.67033e-16
-1.02076e-15
1.40048e-10
7.15994e-13
-2.83681e-09
1.67873e-13
2.83751e-09
3.1163e-13
-1.55011e-09
8.41201e-14
1.55045e-09
1.15515e-13
-7.6834e-10
3.9997e-14
7.68499e-10
2.70926e-14
-3.19299e-10
1.66492e-14
3.19371e-10
-7.59838e-11
4.21271e-15
7.60057e-11
7.67334e-13
2.3379e-13
2.83819e-09
3.31229e-13
1.23448e-13
1.55083e-09
1.19854e-13
5.95543e-14
7.68747e-10
2.71424e-14
2.45319e-14
3.19476e-10
6.02955e-15
7.60485e-11
7.59307e-13
-6.00279e-14
1.7139e-13
2.83776e-09
3.26576e-13
-2.09378e-14
8.63789e-14
1.55049e-09
1.17594e-13
-6.21426e-15
4.09041e-14
7.68536e-10
2.65919e-14
-9.71401e-16
1.67548e-14
3.19394e-10
6.48492e-16
4.10191e-15
7.60381e-11
9.05596e-13
2.5995e-15
5.96294e-14
-5.30356e-09
5.30457e-09
3.72099e-13
-2.74351e-14
4.58009e-14
-2.88076e-09
2.88128e-09
1.33373e-13
-2.22984e-14
2.3938e-14
-1.42194e-09
1.42218e-09
3.08366e-14
-1.22642e-14
9.73511e-15
-5.8904e-10
5.89146e-10
-3.80587e-15
2.21074e-15
-1.39952e-10
1.39985e-10
7.08148e-13
-2.83599e-09
9.453e-14
2.83673e-09
3.08275e-13
-1.54961e-09
3.34557e-14
1.54995e-09
1.15623e-13
-7.68097e-10
1.07968e-14
7.68256e-10
2.75865e-14
-3.19178e-10
3.16931e-15
3.1925e-10
-7.59681e-11
6.0882e-16
7.59912e-11
7.34458e-13
2.03868e-14
-2.83658e-09
8.73397e-14
2.83731e-09
3.2169e-13
4.39267e-14
-1.54991e-09
2.67251e-14
1.55025e-09
1.20937e-13
3.21289e-14
-7.68249e-10
7.11449e-15
7.6841e-10
2.87962e-14
1.68617e-14
-3.19263e-10
1.7343e-15
3.19337e-10
5.0203e-15
-7.59804e-11
3.58889e-16
7.60038e-11
9.78865e-13
-2.51409e-14
5.30548e-09
3.97334e-13
-1.2015e-14
2.88192e-09
1.34274e-13
-6.0526e-15
1.42248e-09
2.787e-14
-3.29131e-15
5.89305e-10
-1.30897e-15
1.40003e-10
9.061e-13
7.66691e-14
-5.30375e-09
5.30476e-09
3.74547e-13
5.87467e-14
-2.88104e-09
2.88156e-09
1.34999e-13
3.53893e-14
-1.42195e-09
1.42219e-09
3.1265e-14
1.66891e-14
-5.89065e-10
5.89169e-10
4.34724e-15
-1.39923e-10
1.39955e-10
-7.66891e-13
-8.22828e-14
3.29407e-09
1.54584e-13
-3.78722e-13
-4.45968e-14
1.79602e-09
7.80077e-14
-1.53335e-13
-2.3518e-14
8.88847e-10
4.0437e-14
-3.76591e-14
-1.08325e-14
3.68888e-10
1.85192e-14
-2.93938e-15
8.77369e-11
4.99736e-15
3.92877e-13
-3.59532e-09
-1.48263e-13
1.12299e-14
3.5959e-09
1.58632e-13
-1.95776e-09
-8.5618e-14
7.45977e-15
1.95807e-09
5.54187e-14
-9.68009e-10
-4.54616e-14
4.12565e-15
9.68154e-10
1.26788e-14
-4.01474e-10
-2.02929e-14
1.83746e-15
4.01535e-10
-9.5463e-11
-5.2109e-15
4.7039e-16
9.54805e-11
-7.48744e-13
1.19466e-14
-3.66693e-13
7.9589e-15
-1.47828e-13
4.49421e-15
-3.62949e-14
2.03064e-15
5.15292e-16
4.30024e-13
-2.65406e-13
3.29463e-09
1.82259e-13
-1.47539e-13
1.79633e-09
6.60144e-14
-7.74382e-14
8.88996e-10
1.52766e-14
-3.45017e-14
3.68953e-10
-8.91136e-15
8.77559e-11
-9.82999e-13
-1.40552e-14
-9.7007e-14
-4.71435e-13
-3.43553e-14
-3.58464e-14
-1.87343e-13
-2.60738e-14
-1.31998e-14
-4.54252e-14
-1.38978e-14
-4.70042e-15
-4.15954e-15
-1.20453e-15
-1.49795e-12
-4.52716e-14
-4.85349e-14
-7.14212e-13
-7.06947e-15
-4.09397e-14
-2.82004e-13
2.55537e-15
-2.61623e-14
-6.76273e-14
3.35888e-15
-1.31349e-14
1.42071e-15
-3.66198e-15
4.68437e-13
-2.82126e-09
-3.68748e-14
2.82183e-09
1.96731e-13
-1.54123e-09
-1.34571e-14
1.5415e-09
7.13669e-14
-7.63885e-10
-5.36896e-15
7.6401e-10
1.67659e-14
-3.17355e-10
-2.08925e-15
3.17408e-10
-7.55248e-11
-3.83602e-16
7.55406e-11
-6.64545e-13
1.92916e-14
-3.23312e-13
3.60441e-15
-1.31019e-13
1.11032e-15
-3.26634e-14
8.67403e-16
3.88569e-16
4.71634e-13
-2.82033e-09
5.40378e-14
2.82092e-09
1.99728e-13
-1.54071e-09
4.87695e-14
1.54099e-09
7.30878e-14
-7.63599e-10
3.04773e-14
7.6373e-10
1.72323e-14
-3.17242e-10
1.45494e-14
3.173e-10
-7.54979e-11
3.91829e-15
7.55155e-11
-6.46903e-13
8.46379e-14
-4.44346e-14
-3.14405e-13
5.3216e-14
-3.38801e-14
-1.27652e-13
2.88149e-14
-1.86531e-14
-3.18932e-14
1.28559e-14
-8.09603e-15
3.25929e-15
-2.03124e-15
-1.37524e-12
-5.21594e-14
-6.56065e-13
-4.09148e-14
-2.60916e-13
-2.61974e-14
-6.32942e-14
-1.31485e-14
-3.61744e-15
6.48631e-13
9.03778e-14
5.09388e-09
2.14769e-13
5.03847e-14
2.76985e-09
6.08619e-14
2.50573e-14
1.36821e-09
1.15731e-14
9.92108e-15
5.67017e-10
2.01158e-15
1.34766e-10
5.10664e-13
2.82231e-09
2.00297e-13
1.54167e-09
6.64309e-14
7.64073e-10
1.44582e-14
3.17458e-10
7.55612e-11
-7.41197e-13
-1.0948e-13
3.29265e-09
2.03829e-13
-3.67063e-13
-6.30516e-14
1.79525e-09
1.09817e-13
-1.49177e-13
-3.40627e-14
8.88419e-10
5.81207e-14
-3.67471e-14
-1.55974e-14
3.68738e-10
2.64826e-14
-4.14095e-15
8.77009e-11
7.03065e-15
4.00348e-13
-3.59448e-09
-1.22539e-13
3.59507e-09
1.62225e-13
-1.95731e-09
-6.80943e-14
1.95762e-09
5.66685e-14
-9.67789e-10
-3.66746e-14
9.67935e-10
1.29455e-14
-4.01384e-10
-1.64189e-14
4.01445e-10
-9.54416e-11
-4.18844e-15
9.54591e-11
-7.43393e-13
-3.64322e-13
-1.46962e-13
-3.61091e-14
4.58821e-13
-2.15743e-13
3.29321e-09
1.95662e-13
-1.15726e-13
1.79556e-09
7.02216e-14
-6.0034e-14
8.88568e-10
1.63173e-14
-2.67829e-14
3.68802e-10
-6.95995e-15
8.772e-11
-9.87891e-13
-1.56071e-13
-4.74288e-13
-7.61695e-14
-1.88576e-13
-3.6085e-14
-4.56316e-14
-1.50665e-14
-3.82109e-15
4.58018e-13
-1.47739e-13
1.17214e-14
3.59612e-09
1.84231e-13
-8.44775e-14
7.53339e-15
1.9582e-09
6.14731e-14
-4.43814e-14
4.18187e-15
9.68089e-10
1.30498e-14
-1.96762e-14
1.90296e-15
4.01618e-10
-5.04462e-15
4.95116e-16
9.54692e-11
4.90238e-13
-2.62911e-13
3.29469e-09
2.04375e-13
-1.4429e-13
1.79633e-09
7.0508e-14
-7.46505e-14
8.8896e-10
1.53057e-14
-3.28739e-14
3.68984e-10
-8.41381e-15
8.77448e-11
4.6321e-13
-1.21492e-13
3.59508e-09
1.86594e-13
-6.712e-14
1.95773e-09
6.22511e-14
-3.4704e-14
9.67897e-10
1.31895e-14
-1.53053e-14
4.01481e-10
-3.91562e-15
9.54467e-11
5.16422e-13
-2.13237e-13
3.29312e-09
2.16061e-13
-1.13868e-13
1.79554e-09
7.45953e-14
-5.82424e-14
8.88564e-10
1.611e-14
-2.55309e-14
3.68796e-10
-6.49514e-15
8.77087e-11
1.04343e-12
-4.78329e-14
1.06327e-13
-5.09259e-09
5.09356e-09
4.54391e-13
-3.62786e-14
6.37278e-14
-2.76929e-09
2.76985e-09
1.66155e-13
-1.98238e-14
3.48548e-14
-1.36781e-09
1.36809e-09
3.7578e-14
-8.03799e-15
1.60158e-14
-5.66842e-10
5.66963e-10
-1.70689e-15
4.40703e-15
-1.34721e-10
1.34756e-10
5.55247e-13
-2.82069e-09
2.82142e-09
2.32754e-13
-1.5408e-09
1.54113e-09
8.39187e-14
-7.6365e-10
7.63803e-10
1.912e-14
-3.17267e-10
3.17334e-10
-7.55275e-11
7.55471e-11
-6.34895e-13
1.07721e-13
-2.52089e-14
-3.10739e-13
7.06957e-14
-2.45131e-14
-1.26774e-13
4.07841e-14
-1.57906e-14
-3.18887e-14
1.90725e-14
-7.88867e-15
5.00349e-15
-2.27992e-15
-1.25418e-12
3.80507e-14
-5.9455e-13
5.01487e-14
-2.37792e-13
3.38702e-14
-5.85373e-14
1.7014e-14
4.91773e-15
-5.74105e-13
-1.11286e-13
3.28821e-09
1.86796e-13
-2.80288e-13
-6.55558e-14
1.79291e-09
1.02058e-13
-1.16267e-13
-3.75457e-14
8.87281e-10
5.72182e-14
-2.99427e-14
-1.80901e-14
3.68264e-10
2.76155e-14
-4.97961e-15
8.75794e-11
7.73219e-15
3.75724e-13
-3.58879e-09
-8.68969e-14
-5.41545e-15
3.58945e-09
1.47592e-13
-1.95434e-09
-4.3622e-14
-4.22509e-15
1.95461e-09
5.40372e-14
-9.66353e-10
-2.295e-14
-2.69342e-15
9.66472e-10
1.37262e-14
-4.0079e-10
-1.07339e-14
-1.31767e-15
4.00842e-10
-9.52902e-11
-2.92031e-15
-3.54931e-16
9.53072e-11
-5.02468e-13
-4.00431e-15
-2.39783e-13
-3.12256e-15
-9.99017e-14
-2.03713e-15
-2.63572e-14
-1.03048e-15
-2.95019e-16
4.14683e-13
-1.74926e-13
3.28883e-09
1.74309e-13
-8.53041e-14
1.79319e-09
6.56251e-14
-4.38016e-14
8.87411e-10
1.63417e-14
-2.02138e-14
3.68323e-10
-5.56366e-15
8.75984e-11
-9.47468e-13
-9.44872e-14
-4.52947e-13
-3.53931e-14
-1.81164e-13
-1.4662e-14
-4.44864e-14
-6.08878e-15
-1.66652e-15
-5.66363e-13
-1.03452e-13
3.28986e-09
1.82897e-13
-2.76447e-13
-5.98294e-14
1.79374e-09
9.96038e-14
-1.1488e-13
-3.37982e-14
8.877e-10
5.55097e-14
-2.96767e-14
-1.61999e-14
3.68463e-10
2.66496e-14
-4.4611e-15
8.76176e-11
7.42057e-15
3.77288e-13
-3.58979e-09
-9.62737e-14
3.59046e-09
1.48194e-13
-1.9548e-09
-5.10077e-14
1.95507e-09
5.41804e-14
-9.66535e-10
-2.76423e-14
9.66654e-10
1.37213e-14
-4.00922e-10
-1.30317e-14
4.00974e-10
-9.53117e-11
-3.54527e-15
9.53287e-11
-5.01e-13
-2.39068e-13
-9.96168e-14
-2.6255e-14
4.1991e-13
-1.80804e-13
3.29048e-09
1.76717e-13
-8.99105e-14
1.79403e-09
6.65212e-14
-4.69015e-14
8.87829e-10
1.65342e-14
-2.17926e-14
3.68522e-10
-5.98769e-15
8.76365e-11
-9.27824e-13
-6.55174e-15
-1.08149e-13
-4.43101e-13
-2.72442e-14
-4.71071e-14
-1.77331e-13
-1.99688e-14
-2.19411e-14
-4.36446e-14
-1.03801e-14
-9.51877e-15
-3.13548e-15
-2.5648e-15
-1.28325e-12
-6.08417e-13
-2.43006e-13
-5.9665e-14
8.22263e-13
-4.19214e-14
-5.09209e-09
5.09306e-09
3.35555e-13
-2.80486e-14
-2.76929e-09
2.76979e-09
1.18515e-13
-1.5723e-14
-1.36778e-09
1.36801e-09
2.65766e-14
-7.12824e-15
-5.66881e-10
5.66978e-10
-1.84645e-15
-1.34703e-10
1.34731e-10
8.21666e-13
-5.09213e-09
5.09313e-09
3.34884e-13
-2.76918e-09
2.76969e-09
1.18829e-13
-1.36782e-09
1.36805e-09
2.70077e-14
-5.66863e-10
5.66962e-10
-1.34695e-10
1.34724e-10
2.37574e-12
5.28457e-09
1.06981e-12
2.87025e-09
3.94225e-13
1.41647e-09
8.75034e-14
5.86769e-10
1.39413e-10
-1.60221e-12
5.27653e-09
-7.72266e-13
2.86622e-09
-3.07743e-13
1.41462e-09
-7.42232e-14
5.85959e-10
1.3921e-10
1.08175e-12
5.27763e-09
4.66106e-13
2.86682e-09
1.71297e-13
1.41491e-09
3.92677e-14
5.86084e-10
1.39247e-10
7.08906e-13
7.05947e-14
-5.09198e-09
5.093e-09
2.69552e-13
2.97602e-14
-2.76896e-09
2.76944e-09
9.12029e-14
1.21486e-14
-1.36766e-09
1.36786e-09
2.02105e-14
3.77302e-15
-5.66801e-10
5.66885e-10
3.79498e-16
-1.34695e-10
1.34719e-10
3.39029e-13
-2.82086e-09
2.82127e-09
1.42978e-13
-1.54097e-09
1.54118e-09
5.33046e-14
-7.6374e-10
7.63839e-10
1.32947e-14
-3.17316e-10
3.1736e-10
-7.55229e-11
7.55369e-11
-6.91655e-13
-3.89784e-14
-3.33028e-13
-3.78997e-14
-1.33678e-13
-2.49808e-14
-3.28125e-14
-1.21688e-14
-3.24461e-15
-1.21923e-12
2.82669e-14
-5.82844e-13
1.53865e-14
-2.3272e-13
7.86255e-15
-5.66993e-14
3.50848e-15
9.43865e-16
-1.20907e-12
-5.78221e-13
-2.31623e-13
-5.67562e-14
8.52836e-13
-6.32609e-14
7.78987e-14
-5.09224e-09
5.09347e-09
3.27768e-13
-3.886e-14
3.86273e-14
-2.76915e-09
2.76968e-09
1.13536e-13
-1.93258e-14
1.65094e-14
-1.36777e-09
1.36799e-09
2.60206e-14
-7.12144e-15
5.50618e-15
-5.66899e-10
5.66988e-10
-1.4274e-15
1.04192e-15
-1.34685e-10
1.34712e-10
6.13178e-13
-2.8211e-09
2.82205e-09
2.47896e-13
-1.54099e-09
1.54139e-09
8.78808e-14
-7.63723e-10
7.63894e-10
2.00405e-14
-3.17309e-10
3.1738e-10
-7.55259e-11
7.55469e-11
-4.75483e-13
1.27172e-14
-2.40023e-13
3.69949e-15
-1.02074e-13
5.42632e-15
-2.71253e-14
4.81325e-15
1.73469e-15
8.59386e-13
1.05048e-13
-5.09256e-09
5.09349e-09
3.58043e-13
5.23196e-14
-2.76913e-09
2.76962e-09
1.2898e-13
2.35084e-14
-1.36781e-09
1.36803e-09
2.95896e-14
8.75198e-15
-5.66918e-10
5.67014e-10
1.81019e-15
-1.34699e-10
1.34727e-10
4.98121e-13
-2.82113e-09
2.82173e-09
2.1223e-13
-1.54103e-09
1.54132e-09
7.73698e-14
-7.63778e-10
7.63914e-10
1.8024e-14
-3.17339e-10
3.17399e-10
-7.55173e-11
7.5535e-11
-6.45879e-13
8.39888e-15
-3.16034e-13
-8.56192e-15
-1.28685e-13
-9.75564e-15
-3.21651e-14
-5.97918e-15
-1.86643e-15
-1.03026e-12
-1.82427e-14
-4.92554e-13
-7.89022e-15
-1.98254e-13
-1.37073e-15
-4.88389e-14
1.01895e-15
8.4651e-16
-1.08705e-12
-5.22318e-13
-2.11673e-13
-5.2809e-14
-1.58507e-12
5.27375e-09
-7.64076e-13
2.86483e-09
-3.04785e-13
1.41385e-09
-7.36276e-14
5.85706e-10
1.39122e-10
1.11084e-12
5.27486e-09
4.80041e-13
2.86543e-09
1.76383e-13
1.41414e-09
4.02647e-14
5.85832e-10
1.39159e-10
1.17251e-12
5.2776e-09
5.00751e-13
2.86687e-09
1.78865e-13
1.41497e-09
3.94402e-14
5.86162e-10
1.39255e-10
1.18452e-12
5.27513e-09
5.04799e-13
2.86547e-09
1.7956e-13
1.41421e-09
3.93565e-14
5.85834e-10
1.39194e-10
-1.17234e-12
-6.00934e-14
-5.53683e-13
-4.42021e-14
-2.19995e-13
-2.52082e-14
-5.36669e-14
-1.13447e-14
-2.92313e-15
-1.16936e-12
-5.56736e-13
-2.22992e-13
-5.49189e-14
-1.46549e-12
5.28074e-09
-7.05916e-13
2.86822e-09
-2.85437e-13
1.41544e-09
-7.0647e-14
5.86325e-10
1.39293e-10
1.16989e-12
5.28193e-09
5.12248e-13
2.86883e-09
1.93911e-13
1.41572e-09
4.63579e-14
5.86456e-10
1.39334e-10
-1.42725e-12
5.28347e-09
-6.8716e-13
2.86972e-09
-2.78312e-13
1.41628e-09
-6.9051e-14
5.86668e-10
1.39362e-10
1.17364e-12
5.28465e-09
5.13772e-13
2.87032e-09
1.9415e-13
1.41656e-09
4.6228e-14
5.86795e-10
1.39402e-10
2.60388e-11
1.02785e-11
7.95349e-09
-8.49964e-13
-5.80479e-12
-1.96814e-12
7.94708e-09
-2.29596e-12
3.09004e-11
-1.42468e-10
4.09846e-11
1.79594e-10
2.66398e-08
-2.01887e-11
1.0239e-10
4.84216e-11
2.46125e-08
-1.13621e-11
4.92421e-12
-2.38726e-11
2.44043e-08
-5.18548e-11
6.28626e-14
4.70342e-12
1.71122e-11
2.19197e-08
-1.32182e-11
-3.37546e-12
1.56543e-08
-1.90201e-12
2.5394e-13
1.11467e-11
-9.38474e-11
2.4936e-08
-2.79011e-10
-1.51301e-09
2.85439e-11
4.67966e-10
5.48387e-11
3.03766e-10
5.67698e-11
1.08578e-07
1.46548e-10
2.12182e-10
-1.80844e-11
-2.37567e-11
2.2904e-08
1.92156e-10
-3.63143e-09
5.84814e-10
1.3094e-10
9.61439e-11
6.74526e-10
1.11592e-07
-5.18743e-11
1.71324e-11
4.78587e-12
2.19163e-08
-1.33795e-11
2.10731e-12
-3.59944e-12
1.56496e-08
-1.88737e-12
-9.38568e-11
1.1269e-11
2.49332e-08
-7.39979e-10
-2.91165e-11
-1.75572e-09
4.72183e-10
6.68419e-11
3.68717e-11
2.92153e-10
4.10724e-10
-3.44833e-12
2.4818e-10
1.10103e-07
-3.49511e-09
5.91902e-10
1.30414e-10
7.90715e-11
6.74885e-10
1.1237e-07
7.97994e-12
-1.84183e-11
-2.64515e-11
2.28952e-08
-2.62121e-11
-1.75723e-09
4.73235e-10
5.40598e-11
3.60506e-11
3.05634e-10
4.06421e-10
2.30256e-11
2.2524e-10
1.1009e-07
-7.33992e-10
1.35236e-11
1.16794e-11
-1.81846e-11
-2.38776e-11
2.2901e-08
1.98409e-12
-3.47032e-12
1.56509e-08
-2.02319e-12
-5.6689e-12
7.94567e-09
-2.36614e-12
3.63712e-11
2.66101e-08
8.30841e-11
-3.95415e-12
-4.10427e-11
-5.32977e-11
2.45434e-08
3.3253e-12
-9.88429e-12
5.06313e-11
1.45612e-11
2.47675e-08
-8.87479e-13
8.10443e-09
-2.41086e-12
8.56872e-14
-1.35696e-11
3.76372e-11
7.64167e-13
2.54911e-08
-4.80233e-10
-1.13454e-09
4.09134e-10
3.94781e-11
1.66726e-10
2.97651e-10
6.54843e-12
-4.19748e-12
2.38452e-10
1.09507e-07
-1.83163e-10
-6.99771e-10
1.98842e-10
-9.2042e-11
-4.206e-11
9.36789e-11
1.09353e-07
5.13324e-12
-1.0343e-11
1.44262e-12
2.3282e-08
-1.32757e-11
3.76292e-11
5.49868e-13
2.54942e-08
-4.45899e-10
-4.00314e-11
-1.12091e-09
2.92029e-10
2.24593e-11
-3.89004e-12
2.24838e-10
4.13048e-10
1.38783e-11
1.896e-10
1.09503e-07
-6.90907e-10
1.93974e-10
-9.2242e-11
-4.24892e-11
9.3837e-11
1.08958e-07
5.54755e-12
6.34283e-12
-1.03505e-11
-1.37313e-12
2.32813e-08
-8.8596e-15
-2.19195e-13
-4.86777e-12
2.25514e-08
-2.25917e-12
1.60032e-08
-1.82914e-12
-2.34385e-13
-5.07677e-12
2.25554e-08
9.44428e-13
-2.19215e-12
1.6006e-08
-1.76594e-12
2.66102e-08
5.02907e-11
3.35706e-11
6.01956e-12
4.61446e-12
-2.40409e-11
2.45911e-08
3.49201e-12
2.72643e-12
-1.57547e-11
2.47237e-08
7.94681e-09
-2.44428e-12
8.10457e-09
-2.26765e-12
1.65033e-11
1.25671e-11
6.61122e-09
-1.03364e-12
-3.92229e-12
-3.12882e-12
6.61341e-09
-1.79872e-12
8.21715e-12
-1.4912e-11
1.76647e-08
5.61742e-11
1.5125e-08
-5.53091e-13
-8.38315e-11
1.88779e-10
2.48197e-08
1.14072e-10
6.05308e-11
2.16709e-08
-1.21377e-11
1.48704e-08
-1.25263e-12
2.16753e-11
-4.0743e-11
-3.30548e-11
2.40061e-08
-2.14085e-11
2.06737e-08
-1.16965e-08
-5.48671e-11
-2.31406e-12
5.03523e-12
1.1748e-08
6.53606e-13
1.39655e-11
2.09921e-08
6.8255e-12
-4.2806e-11
1.08579e-12
1.41827e-08
3.36499e-14
-1.33599e-12
1.29556e-11
6.50909e-11
1.18479e-14
-1.95687e-10
2.20374e-08
1.78315e-12
-1.31891e-12
2.01613e-11
-1.7163e-10
2.11017e-08
2.81227e-14
1.42448e-08
6.52657e-13
-6.52439e-09
-2.59235e-11
6.55397e-09
1.3795e-12
4.27196e-12
2.34486e-08
-2.73401e-11
-7.64092e-12
-7.44128e-11
1.07071e-11
1.57243e-08
1.30775e-12
-2.55891e-12
-1.25868e-10
2.35611e-08
-1.16903e-08
-2.40416e-12
-5.51975e-11
5.17622e-12
1.1742e-08
7.09707e-13
1.16199e-12
1.41794e-08
-1.32403e-12
1.40915e-11
2.09833e-08
7.02204e-12
-4.30384e-11
6.53147e-11
1.30582e-11
-1.95714e-10
2.20336e-08
1.91475e-12
-1.27062e-12
1.42416e-08
6.65569e-13
2.03492e-11
-1.71922e-10
2.10927e-08
-6.52059e-09
-2.58544e-11
6.55018e-09
1.44405e-12
4.19156e-12
2.34371e-08
-2.73001e-11
-7.86766e-12
1.08821e-11
-7.43977e-11
1.57197e-08
1.32255e-12
-2.51389e-12
-1.26194e-10
2.35499e-08
-6.52081e-09
-2.58066e-11
-5.17811e-12
6.55039e-09
1.41345e-12
4.02293e-12