/*--------------------------------*- C++ -*----------------------------------*\
| =========                 |                                                 |
| \\      /  F ield         | OpenFOAM: The Open Source CFD Toolbox           |
|  \\    /   O peration     | Version:  2206                                  |
|   \\  /    A nd           | Website:  www.openfoam.com                      |
|    \\/     M anipulation  |                                                 |
\*---------------------------------------------------------------------------*/
FoamFile
{
    version     2.0;
    format      ascii;
    arch        "LSB;label=32;scalar=64";
    class       volScalarField;
    location    "60";
    object      k;
}
// * * * * * * * * * * * * * * * * * * * * * * * * * * * * * * * * * * * * * //

dimensions      [0 2 -2 0 0 0 0];

internalField   nonuniform List<scalar> 
66621
(
1.00935e-05
2.38863e-05
9.95601e-06
2.91752e-05
2.46459e-05
2.70226e-05
6.49663e-06
2.85401e-05
2.90616e-05
2.68099e-05
2.45557e-05
2.87913e-05
1.51289e-05
1.50938e-05
6.40577e-06
6.30553e-06
2.86748e-05
1.51067e-05
1.50829e-05
2.92604e-05
2.46958e-05
1.55134e-05
6.52434e-06
2.8852e-05
2.92609e-05
2.47017e-05
2.69114e-05
2.45759e-05
1.02565e-05
2.89823e-05
2.95347e-05
2.6981e-05
2.48064e-05
2.43766e-05
1.02137e-05
2.89036e-05
2.92345e-05
2.70133e-05
2.43921e-05
2.38709e-05
1.00251e-05
2.89587e-05
1.53982e-05
1.54312e-05
6.45157e-06
2.89417e-05
2.91924e-05
2.68184e-05
2.48964e-05
2.49247e-05
1.0156e-05
2.49407e-05
1.02308e-05
6.37242e-06
6.45306e-06
1.45783e-05
5.86898e-06
7.55451e-06
2.23238e-05
8.25844e-06
2.40222e-05
2.2315e-05
8.26819e-06
7.55856e-06
5.84913e-06
1.46215e-05
9.95309e-06
1.45595e-05
5.87717e-06
6.49752e-06
1.16478e-05
5.6682e-06
5.67119e-06
5.64076e-06
5.67417e-06
1.15982e-05
2.35027e-05
9.84577e-06
1.51422e-05
2.73066e-05
2.74445e-05
9.82416e-06
2.33542e-05
2.29504e-05
9.81417e-06
1.51978e-05
2.72951e-05
2.7464e-05
9.8659e-06
2.28416e-05
6.32722e-06
1.14509e-05
5.6397e-06
5.58351e-06
5.6483e-06
5.56854e-06
1.14371e-05
2.30743e-05
9.91347e-06
2.74856e-05
9.9569e-06
2.32036e-05
2.28308e-05
9.57278e-06
1.50919e-05
2.73242e-05
9.5733e-06
2.27756e-05
2.7039e-05
5.74905e-06
1.17122e-05
1.01064e-05
2.80697e-05
2.37117e-05
7.72781e-06
8.33956e-06
2.26135e-05
2.45151e-05
8.2762e-06
2.26043e-05
7.69116e-06
6.03338e-06
1.50409e-05
1.0296e-05
1.50342e-05
6.02731e-06
2.27084e-05
8.35173e-06
7.63748e-06
1.4903e-05
6.03424e-06
8.23983e-06
2.25308e-05
7.58735e-06
1.46563e-05
5.8973e-06
1.16878e-05
5.69737e-06
5.73288e-06
5.69611e-06
5.7266e-06
1.16049e-05
2.33043e-05
9.82751e-06
1.53987e-05
2.77902e-05
9.85917e-06
2.77967e-05
2.3076e-05
2.35244e-05
1.00517e-05
1.54746e-05
2.7352e-05
2.76188e-05
1.00385e-05
2.36339e-05
6.43135e-06
7.7082e-06
2.2885e-05
8.44752e-06
2.49567e-05
2.27465e-05
8.46312e-06
7.68052e-06
5.98318e-06
1.50292e-05
1.01423e-05
1.50088e-05
5.99387e-06
7.68711e-06
2.26444e-05
8.43852e-06
2.49102e-05
2.28127e-05
8.35214e-06
7.69185e-06
5.98664e-06
1.48801e-05
1.02338e-05
1.50027e-05
5.97607e-06
6.45367e-06
2.21414e-05
1.88125e-05
1.91442e-05
1.53182e-05
2.22713e-05
1.88126e-05
1.91898e-05
1.53161e-05
2.22638e-05
1.91345e-05
1.88905e-05
1.53117e-05
2.2274e-05
1.91415e-05
1.88796e-05
1.53861e-05
2.88417e-05
2.90143e-05
2.87026e-05
2.91079e-05
2.89934e-05
2.86454e-05
2.89029e-05
2.78341e-05
2.92696e-05
2.91611e-05
2.86808e-05
2.85136e-05
2.87409e-05
2.88867e-05
2.83344e-05
2.86577e-05
2.86156e-05
2.86098e-05
2.76365e-05
2.46789e-05
2.89468e-05
2.90123e-05
2.76686e-05
2.88177e-05
2.79207e-05
2.88239e-05
2.94259e-05
2.94057e-05
2.9457e-05
2.94043e-05
2.82492e-05
2.8183e-05
2.87089e-05
2.94169e-05
2.94294e-05
2.82008e-05
2.94636e-05
2.9421e-05
2.71683e-05
2.89993e-05
2.89389e-05
2.85944e-05
2.81568e-05
2.85784e-05
2.85707e-05
2.84547e-05
2.85645e-05
2.83891e-05
2.88899e-05
2.74833e-05
2.46935e-05
2.91719e-05
2.74935e-05
2.88551e-05
2.88995e-05
2.90152e-05
2.84126e-05
2.89695e-05
2.89481e-05
2.85779e-05
2.85998e-05
2.89471e-05
2.92827e-05
2.75891e-05
2.49504e-05
2.91072e-05
2.79779e-05
2.90825e-05
2.90909e-05
2.89789e-05
2.84375e-05
2.88267e-05
2.8915e-05
2.85392e-05
2.88771e-05
2.89748e-05
2.92018e-05
2.72839e-05
2.44091e-05
2.92115e-05
2.91817e-05
2.74374e-05
2.89346e-05
2.83361e-05
2.89767e-05
2.95509e-05
2.93005e-05
2.92273e-05
2.94409e-05
2.82288e-05
2.8699e-05
2.85029e-05
2.86946e-05
2.89345e-05
2.85541e-05
2.87366e-05
2.84641e-05
2.86915e-05
2.74874e-05
2.45742e-05
2.90138e-05
2.89683e-05
2.76539e-05
2.89749e-05
1.87421e-06
4.40108e-07
8.47846e-08
4.99541e-08
3.22973e-07
1.85005e-06
4.33553e-07
8.35691e-08
4.97824e-08
3.22583e-07
1.88025e-06
4.52016e-07
8.9214e-08
5.56438e-08
3.64749e-07
1.85517e-06
4.46998e-07
8.84061e-08
5.55914e-08
3.64872e-07
1.82954e-06
4.40123e-07
8.71519e-08
5.54057e-08
3.6448e-07
1.8943e-06
4.55954e-07
8.99294e-08
5.57425e-08
3.64936e-07
1.91231e-06
4.48359e-07
8.61155e-08
5.00506e-08
3.22806e-07
1.90427e-06
4.46899e-07
8.59103e-08
5.00531e-08
3.22908e-07
1.86204e-06
4.3648e-07
8.41041e-08
4.98579e-08
3.22735e-07
1.8553e-06
4.46228e-07
8.82237e-08
5.55286e-08
3.64586e-07
1.86526e-06
4.37249e-07
8.42234e-08
4.98424e-08
3.22567e-07
1.87985e-06
4.40599e-07
8.47954e-08
4.98969e-08
3.2258e-07
1.84493e-06
4.43451e-07
8.77226e-08
5.54816e-08
3.64616e-07
1.85525e-06
4.46176e-07
8.81979e-08
5.55077e-08
3.645e-07
1.70292e-06
4.03218e-07
7.90761e-08
5.0573e-08
3.32401e-07
1.76327e-06
4.18756e-07
8.22529e-08
5.21875e-08
3.42854e-07
1.76009e-06
4.17845e-07
8.20837e-08
5.20958e-08
3.4225e-07
1.70921e-06
4.04312e-07
7.92604e-08
5.06736e-08
3.33057e-07
1.84739e-06
4.3277e-07
8.33907e-08
4.96349e-08
3.21577e-07
1.87725e-06
4.51277e-07
8.90758e-08
5.5525e-08
3.63912e-07
1.87295e-06
4.38556e-07
8.45035e-08
5.0271e-08
3.2575e-07
1.86795e-06
4.37373e-07
8.42819e-08
5.01278e-08
3.24779e-07
1.87346e-06
4.39109e-07
8.46123e-08
5.02702e-08
3.25669e-07
1.87388e-06
4.38704e-07
8.44917e-08
5.01058e-08
3.24465e-07
1.83043e-06
4.39924e-07
8.70702e-08
5.52901e-08
3.63619e-07
1.73e-06
4.14473e-07
8.2345e-08
5.43763e-08
3.59839e-07
1.92293e-06
4.50124e-07
8.64806e-08
5.05001e-08
3.26041e-07
1.74523e-06
4.12805e-07
8.07163e-08
5.07593e-08
3.32618e-07
1.77537e-06
4.21901e-07
8.2829e-08
5.22533e-08
3.42906e-07
1.7684e-06
4.2056e-07
8.26041e-08
5.21576e-08
3.42323e-07
1.74439e-06
4.13295e-07
8.08644e-08
5.08583e-08
3.3327e-07
1.9115e-06
4.47866e-07
8.5988e-08
4.99137e-08
3.21821e-07
1.77889e-06
4.22742e-07
8.29765e-08
5.22571e-08
3.42895e-07
1.73676e-06
4.11824e-07
8.06081e-08
5.08221e-08
3.33224e-07
1.75817e-06
4.18038e-07
8.21699e-08
5.21706e-08
3.42802e-07
1.71455e-06
4.05898e-07
7.95536e-08
5.07029e-08
3.33088e-07
1.72428e-06
4.13117e-07
8.21112e-08
5.43502e-08
3.598e-07
1.90505e-06
4.45872e-07
8.57374e-08
5.04113e-08
3.25886e-07
1.90132e-06
4.44867e-07
8.55359e-08
5.02328e-08
3.24617e-07
1.85174e-06
4.45446e-07
8.80609e-08
5.53546e-08
3.63327e-07
1.71775e-06
4.06567e-07
7.96497e-08
5.05653e-08
3.31913e-07
1.77655e-06
4.22074e-07
8.28273e-08
5.22397e-08
3.42855e-07
1.77346e-06
4.2132e-07
8.26681e-08
5.20937e-08
3.4182e-07
1.71891e-06
4.07228e-07
7.98129e-08
5.07296e-08
3.33093e-07
1.86052e-06
4.3604e-07
8.39749e-08
4.96307e-08
3.21073e-07
1.71334e-06
4.05513e-07
7.94698e-08
5.05435e-08
3.31906e-07
1.77003e-06
4.20375e-07
8.25535e-08
5.22114e-08
3.4285e-07
1.75933e-06
4.18617e-07
8.22679e-08
5.20553e-08
3.41809e-07
1.71527e-06
4.06347e-07
7.96633e-08
5.07099e-08
3.33066e-07
1.87606e-06
4.39552e-07
8.45741e-08
4.96883e-08
3.21101e-07
1.85315e-06
4.45602e-07
8.80697e-08
5.53366e-08
3.6323e-07
1.70678e-06
4.09242e-07
8.14615e-08
5.42647e-08
3.59649e-07
1.70778e-06
4.09461e-07
8.15008e-08
5.42717e-08
3.59684e-07
1.84917e-06
4.4543e-07
8.81284e-08
5.55847e-08
3.65039e-07
1.83943e-06
4.41795e-07
8.73639e-08
5.53167e-08
3.63533e-07
1.84384e-06
4.42813e-07
8.75659e-08
5.54589e-08
3.64511e-07
1.71746e-06
4.11579e-07
8.18517e-08
5.43043e-08
3.59654e-07
1.886e-06
4.42073e-07
8.51362e-08
5.03359e-08
3.25753e-07
1.88518e-06
4.41385e-07
8.49745e-08
5.02091e-08
3.24877e-07
1.70246e-06
4.0822e-07
8.12718e-08
5.41425e-08
3.58826e-07
1.70443e-06
4.08438e-07
8.12906e-08
5.41336e-08
3.58751e-07
1.69916e-06
4.07333e-07
8.11114e-08
5.42028e-08
3.59467e-07
1.88793e-06
4.42198e-07
8.51008e-08
5.03301e-08
3.25769e-07
1.88456e-06
4.4142e-07
8.49752e-08
5.01832e-08
3.2466e-07
1.68367e-06
4.03553e-07
8.04635e-08
5.4142e-08
3.59487e-07
1.83702e-06
4.30989e-07
8.32645e-08
5.01313e-08
3.25569e-07
1.83276e-06
4.29516e-07
8.29771e-08
4.99808e-08
3.24621e-07
1.69764e-06
4.06802e-07
8.0995e-08
5.40854e-08
3.5865e-07
1.6788e-06
4.02352e-07
8.02401e-08
5.40336e-08
3.58775e-07
1.8941e-06
4.54605e-07
8.95777e-08
5.55572e-08
3.63783e-07
1.89646e-06
4.55529e-07
8.97843e-08
5.56986e-08
3.64731e-07
1.89799e-06
4.55834e-07
8.98245e-08
5.57117e-08
3.64797e-07
1.85303e-06
4.45178e-07
8.79909e-08
5.55144e-08
3.64604e-07
1.71533e-06
4.10877e-07
8.16991e-08
5.41936e-08
3.58904e-07
1.72114e-06
4.12281e-07
8.19397e-08
5.42084e-08
3.58805e-07
1.85649e-06
4.45694e-07
8.80299e-08
5.52952e-08
3.62859e-07
1.86062e-06
4.46723e-07
8.82367e-08
5.55223e-08
3.64519e-07
1.86018e-06
4.4672e-07
8.82148e-08
5.5317e-08
3.62898e-07
1.862e-06
4.47503e-07
8.84072e-08
5.55406e-08
3.64534e-07
6.39607e-06
6.32208e-06
2.86986e-05
1.52653e-05
1.49683e-05
2.39203e-05
9.90709e-06
2.88669e-05
2.9266e-05
2.46822e-05
2.67034e-05
2.46243e-05
1.0237e-05
2.89123e-05
2.94902e-05
2.67791e-05
2.47165e-05
2.93052e-05
2.4609e-05
9.97351e-06
6.48518e-06
2.88231e-05
1.54148e-05
1.55181e-05
6.45379e-06
2.88867e-05
2.91666e-05
2.67235e-05
2.49886e-05
2.89617e-05
2.91801e-05
2.67181e-05
2.48924e-05
2.4856e-05
1.01928e-05
2.49075e-05
1.02055e-05
2.88451e-05
1.51897e-05
1.52279e-05
6.35464e-06
6.45093e-06
5.62592e-06
5.59131e-06
1.15798e-05
9.85122e-06
2.752e-05
2.29555e-05
9.59612e-06
2.74575e-05
2.25462e-05
7.61008e-06
2.21168e-05
8.27509e-06
2.429e-05
7.54796e-06
2.2611e-05
8.34925e-06
5.92065e-06
1.45225e-05
1.01291e-05
5.84859e-06
1.47782e-05
7.73369e-06
8.34927e-06
2.25714e-05
2.47432e-05
7.69627e-06
8.44204e-06
2.30252e-05
6.08078e-06
1.49178e-05
1.04199e-05
6.02192e-06
1.52055e-05
5.93154e-06
1.46679e-05
1.02087e-05
5.89211e-06
1.48085e-05
6.5335e-06
1.17888e-05
5.70332e-06
5.72674e-06
1.16316e-05
5.71613e-06
5.7727e-06
2.32004e-05
9.97379e-06
2.76398e-05
1.55132e-05
2.76579e-05
2.33821e-05
1.00184e-05
2.36029e-05
1.00602e-05
2.72819e-05
1.54379e-05
2.36209e-05
1.00605e-05
2.7657e-05
6.49542e-06
7.72992e-06
2.28639e-05
8.46647e-06
2.49298e-05
7.73382e-06
2.27624e-05
8.48752e-06
6.01384e-06
1.5041e-05
1.0204e-05
5.98505e-06
1.50642e-05
7.68756e-06
2.26267e-05
8.43181e-06
2.50151e-05
7.71149e-06
2.29304e-05
8.40138e-06
6.02426e-06
1.51034e-05
1.03768e-05
5.9814e-06
1.51309e-05
1.16309e-05
5.65335e-06
5.67025e-06
1.17069e-05
5.71589e-06
5.72482e-06
2.35932e-05
9.87085e-06
2.77739e-05
1.52389e-05
2.35387e-05
2.77704e-05
9.97045e-06
2.29411e-05
9.81836e-06
2.73986e-05
1.53786e-05
2.31669e-05
2.72776e-05
9.95019e-06
6.40681e-06
6.49411e-06
2.22569e-05
1.92431e-05
1.87127e-05
1.54124e-05
2.2304e-05
1.92586e-05
1.87903e-05
1.54282e-05
2.19121e-05
1.86242e-05
1.87846e-05
1.52765e-05
2.19343e-05
1.86695e-05
1.88032e-05
1.53153e-05
2.94488e-05
2.90605e-05
2.77372e-05
2.86484e-05
2.84814e-05
2.86074e-05
2.88708e-05
2.86009e-05
2.86269e-05
2.86069e-05
2.89892e-05
2.75637e-05
2.91741e-05
2.47733e-05
2.91199e-05
2.89934e-05
2.74132e-05
2.87899e-05
2.86425e-05
2.89358e-05
2.89756e-05
2.90182e-05
2.8603e-05
2.90394e-05
2.9266e-05
2.78579e-05
2.91142e-05
2.5183e-05
2.89534e-05
2.80635e-05
2.94192e-05
2.88858e-05
2.76918e-05
2.92836e-05
2.46482e-05
2.91805e-05
2.74673e-05
2.90889e-05
2.84354e-05
2.88227e-05
2.94533e-05
2.91425e-05
2.97618e-05
2.81589e-05
2.91841e-05
2.8784e-05
2.8455e-05
2.8743e-05
2.85073e-05
2.85606e-05
2.82406e-05
2.88245e-05
2.88535e-05
2.76438e-05
2.9014e-05
2.47624e-05
2.88634e-05
2.86991e-05
2.76561e-05
2.84459e-05
2.8511e-05
2.87404e-05
2.89609e-05
2.86368e-05
2.84792e-05
2.84965e-05
2.90147e-05
2.7382e-05
2.87033e-05
2.49913e-05
2.89632e-05
2.782e-05
2.89964e-05
2.81921e-05
2.86193e-05
2.95411e-05
2.92152e-05
2.83848e-05
2.95107e-05
2.91763e-05
2.21584e-05
2.92086e-05
2.21278e-05
2.94686e-05
2.9303e-05
2.8679e-05
2.87958e-05
2.87337e-05
2.9169e-05
2.94139e-05
2.91811e-05
2.9219e-05
2.89113e-05
2.88974e-05
2.89084e-05
2.92357e-05
2.91786e-05
2.93674e-05
2.92478e-05
2.94684e-05
2.94878e-05
2.85948e-05
2.91556e-05
2.9416e-05
2.89137e-05
2.92002e-05
2.95905e-05
2.95227e-05
2.90721e-05
2.9149e-05
2.51488e-05
1.0285e-05
1.03434e-05
2.52002e-05
6.56809e-06
6.54683e-06
2.44613e-05
9.96481e-06
9.94255e-06
2.44421e-05
2.22861e-05
2.23076e-05
2.23009e-05
2.20746e-05
2.23014e-05
2.22902e-05
2.22263e-05
2.89383e-05
2.46573e-05
2.70949e-05
2.93173e-05
2.49007e-05
2.70906e-05
2.8992e-05
2.5098e-05
1.02972e-05
2.50029e-05
1.03521e-05
6.55004e-06
6.56028e-06
2.44396e-05
1.00436e-05
2.42043e-05
9.99155e-06
2.23127e-05
2.23057e-05
2.21753e-05
2.8827e-05
2.47155e-05
2.70962e-05
2.93064e-05
2.90435e-05
2.49733e-05
2.71045e-05
6.57145e-06
6.54435e-06
2.93403e-05
2.68748e-05
2.53082e-05
2.92524e-05
2.69564e-05
2.53528e-05
2.89877e-05
1.521e-05
1.52315e-05
2.89266e-05
1.50603e-05
1.52464e-05
6.49205e-06
6.51671e-06
6.35762e-06
6.3705e-06
1.54224e-05
1.50277e-05
2.8775e-05
1.54646e-05
1.51171e-05
6.53137e-06
6.51129e-06
6.35203e-06
6.37446e-06
2.87691e-05
1.54141e-05
1.50736e-05
1.55364e-05
1.50454e-05
2.50383e-05
1.04899e-05
1.03947e-05
2.52436e-05
2.88524e-05
2.5064e-05
2.68355e-05
2.91597e-05
2.47706e-05
2.67991e-05
2.92192e-05
2.91765e-05
2.53804e-05
2.68963e-05
2.94465e-05
2.52729e-05
2.68986e-05
2.92115e-05
2.50314e-05
1.03377e-05
1.03828e-05
2.48251e-05
2.50094e-05
1.04183e-05
1.04926e-05
2.5174e-05
2.92277e-05
2.91766e-05
2.48791e-05
2.68393e-05
2.48796e-05
2.68382e-05
2.89087e-05
2.92311e-05
2.93916e-05
2.52307e-05
2.68293e-05
2.52843e-05
2.67493e-05
2.91063e-05
1.55196e-05
1.53545e-05
2.89838e-05
1.54667e-05
1.5336e-05
6.47642e-06
6.47946e-06
6.52451e-06
6.54596e-06
2.88213e-05
1.54698e-05
1.52575e-05
1.54663e-05
1.5424e-05
6.47514e-06
6.49626e-06
2.86281e-05
2.41115e-05
2.68926e-05
2.90893e-05
2.4306e-05
2.69068e-05
2.88325e-05
2.40482e-05
1.03124e-05
2.41928e-05
1.02111e-05
2.89187e-05
2.7081e-05
2.50322e-05
2.94355e-05
2.7054e-05
2.89504e-05
2.49426e-05
2.44985e-05
1.00394e-05
1.00066e-05
2.44883e-05
2.85299e-05
2.89631e-05
2.42877e-05
2.69717e-05
2.44236e-05
2.68616e-05
2.85746e-05
2.44794e-05
1.02336e-05
2.43839e-05
1.03199e-05
2.87489e-05
2.94081e-05
2.70567e-05
2.51545e-05
2.70739e-05
2.86127e-05
2.4931e-05
2.46965e-05
1.01804e-05
1.01514e-05
2.46919e-05
2.90899e-05
2.68403e-05
2.44555e-05
2.92184e-05
2.69288e-05
2.90252e-05
2.46565e-05
2.45569e-05
9.92407e-06
2.44101e-05
9.9946e-06
2.88905e-05
2.92537e-05
2.5009e-05
2.6958e-05
2.50483e-05
2.70646e-05
2.91487e-05
2.47124e-05
1.01404e-05
1.01238e-05
2.46266e-05
2.90799e-05
2.94642e-05
2.69058e-05
2.43999e-05
2.69083e-05
2.8869e-05
2.4632e-05
2.47321e-05
1.00347e-05
2.46858e-05
1.0048e-05
6.50047e-06
6.53212e-06
6.38147e-06
6.35045e-06
1.53619e-05
1.51322e-05
2.87413e-05
1.542e-05
1.51006e-05
2.49428e-05
1.04375e-05
2.52587e-05
1.04918e-05
2.91614e-05
2.47546e-05
2.67488e-05
2.91951e-05
2.92146e-05
2.49412e-05
2.68434e-05
2.92503e-05
2.52324e-05
2.68277e-05
2.94017e-05
2.901e-05
2.51159e-05
2.68596e-05
1.55347e-05
1.54256e-05
2.8752e-05
1.54773e-05
1.53334e-05
6.5125e-06
6.47625e-06
2.88657e-05
2.46492e-05
2.68574e-05
2.90914e-05
2.89225e-05
2.45516e-05
2.69476e-05
2.4414e-05
1.03226e-05
2.4124e-05
1.02489e-05
2.89218e-05
2.70643e-05
2.52109e-05
2.9612e-05
2.87438e-05
2.70547e-05
2.50912e-05
2.47102e-05
1.02358e-05
2.47573e-05
1.01689e-05
2.90415e-05
2.70143e-05
2.46737e-05
2.95311e-05
2.89656e-05
2.70143e-05
2.47145e-05
2.44341e-05
1.00881e-05
2.44164e-05
1.00135e-05
1.55892e-05
1.55474e-05
2.90074e-05
1.55038e-05
1.57022e-05
6.61653e-06
6.62486e-06
1.57067e-05
6.60347e-06
2.91419e-05
2.69581e-05
2.50721e-05
2.92843e-05
2.69681e-05
2.50929e-05
2.91235e-05
2.51022e-05
1.05102e-05
1.04514e-05
2.51771e-05
2.47041e-05
1.02877e-05
1.02477e-05
2.49941e-05
2.89416e-05
2.54402e-05
2.88041e-05
2.48426e-05
2.47149e-05
1.05374e-05
2.42577e-05
1.03024e-05
6.36323e-06
6.3593e-06
6.45562e-06
6.45422e-06
1.52872e-05
6.43531e-06
7.81363e-06
8.55552e-06
2.32103e-05
2.51078e-05
8.56376e-06
2.30161e-05
7.83587e-06
6.09382e-06
1.0241e-05
1.52177e-05
1.52807e-05
6.07446e-06
6.06651e-06
1.51762e-05
1.03601e-05
1.51323e-05
6.09113e-06
7.8275e-06
2.4907e-05
8.56862e-06
2.30816e-05
8.5782e-06
2.32306e-05
7.8134e-06
6.57428e-06
6.53781e-06
7.60988e-06
2.24383e-05
8.29911e-06
2.44615e-05
2.23695e-05
8.33638e-06
7.56757e-06
5.87898e-06
9.97977e-06
1.46691e-05
1.45746e-05
5.90364e-06
5.9174e-06
1.46711e-05
9.92834e-06
1.47147e-05
5.90369e-06
7.62701e-06
2.44776e-05
2.25151e-05
8.31091e-06
2.26075e-05
8.29265e-06
7.63922e-06
7.8326e-06
2.5195e-05
8.50523e-06
2.31721e-05
8.56404e-06
2.32734e-05
7.83233e-06
6.10734e-06
1.52558e-05
1.02551e-05
6.09791e-06
1.53086e-05
7.7761e-06
2.47969e-05
8.4816e-06
2.30396e-05
7.82422e-06
8.52028e-06
2.31514e-05
6.10283e-06
1.52781e-05
1.03601e-05
1.52754e-05
6.10705e-06
6.56153e-06
6.53946e-06
7.59926e-06
2.4417e-05
2.25389e-05
8.28206e-06
2.25347e-05
8.26142e-06
7.54215e-06
5.9363e-06
1.47987e-05
1.00754e-05
5.93558e-06
1.48193e-05
7.60278e-06
2.44237e-05
2.23923e-05
8.29646e-06
7.58478e-06
2.24037e-05
8.2528e-06
5.92415e-06
1.45825e-05
1.00142e-05
1.47735e-05
5.90989e-06
6.57793e-06
6.54433e-06
1.14744e-05
5.63827e-06
5.60823e-06
5.63525e-06
5.63054e-06
1.14119e-05
2.33477e-05
2.7625e-05
1.52489e-05
9.93266e-06
2.76681e-05
9.9273e-06
2.33597e-05
2.27114e-05
2.7417e-05
1.52814e-05
9.75111e-06
2.74374e-05
9.79803e-06
2.29158e-05
2.31364e-05
9.85848e-06
1.50485e-05
2.76795e-05
2.76893e-05
9.8946e-06
2.32119e-05
2.299e-05
9.77316e-06
1.51668e-05
2.73403e-05
2.73433e-05
9.78091e-06
2.30042e-05
1.15105e-05
5.67266e-06
5.6237e-06
5.67072e-06
5.63556e-06
1.15239e-05
6.49101e-06
6.5145e-06
6.3596e-06
6.37564e-06
1.12735e-05
5.58324e-06
5.57628e-06
5.60372e-06
5.56574e-06
1.13499e-05
2.29606e-05
2.74811e-05
1.52916e-05
9.80925e-06
9.89195e-06
2.77727e-05
2.30094e-05
2.27454e-05
2.72915e-05
1.51006e-05
9.71275e-06
9.74374e-06
2.72091e-05
2.2748e-05
2.31044e-05
9.86324e-06
1.5503e-05
2.76051e-05
9.91608e-06
2.30471e-05
2.77351e-05
2.26958e-05
9.70055e-06
1.51725e-05
2.7299e-05
9.69496e-06
2.27439e-05
2.7333e-05
1.13699e-05
5.59898e-06
5.58676e-06
5.61346e-06
5.58991e-06
1.13825e-05
6.5332e-06
6.53908e-06
6.37055e-06
6.38643e-06
1.13905e-05
5.59775e-06
5.56311e-06
1.14203e-05
5.61162e-06
5.58538e-06
2.29308e-05
2.75867e-05
1.55417e-05
9.8789e-06
9.95516e-06
2.72494e-05
2.28023e-05
2.27879e-05
2.68412e-05
1.50744e-05
9.71027e-06
9.7183e-06
2.71909e-05
2.28654e-05
2.29895e-05
9.95352e-06
2.73671e-05
1.54688e-05
2.2989e-05
9.97688e-06
2.73062e-05
2.25242e-05
9.71357e-06
2.72899e-05
1.52253e-05
2.27296e-05
9.74224e-06
2.73555e-05
1.14698e-05
5.61707e-06
5.60263e-06
5.62285e-06
5.61244e-06
1.14119e-05
7.84464e-06
8.56567e-06
2.32156e-05
2.52858e-05
8.59225e-06
2.34352e-05
7.86164e-06
6.15766e-06
1.05278e-05
1.54086e-05
1.54322e-05
6.15129e-06
6.14902e-06
1.54049e-05
1.04821e-05
1.53206e-05
6.15309e-06
7.84552e-06
2.52897e-05
8.52265e-06
2.33424e-05
8.48956e-06
2.31434e-05
7.86165e-06
7.82364e-06
8.56094e-06
2.31989e-05
2.50705e-05
7.78485e-06
8.56467e-06
2.31938e-05
6.085e-06
1.03079e-05
1.51472e-05
6.09346e-06
1.52825e-05
6.09128e-06
1.51129e-05
1.03728e-05
6.07349e-06
1.5298e-05
7.82533e-06
2.51409e-05
8.54304e-06
2.31868e-05
7.84432e-06
8.50994e-06
2.31437e-05
7.81618e-06
8.53257e-06
2.29091e-05
2.52991e-05
7.84055e-06
8.6189e-06
2.31677e-05
6.10918e-06
1.04678e-05
1.53632e-05
1.54065e-05
6.1339e-06
6.12575e-06
1.53635e-05
1.04692e-05
6.11865e-06
1.52249e-05
7.80987e-06
2.52436e-05
8.53394e-06
2.32921e-05
8.55325e-06
2.32897e-05
7.86438e-06
1.15145e-05
5.6583e-06
5.69643e-06
5.67249e-06
5.7038e-06
1.14367e-05
2.26708e-05
2.77157e-05
1.55526e-05
9.80124e-06
9.88301e-06
2.74415e-05
2.28905e-05
2.2985e-05
2.7636e-05
1.54092e-05
9.99094e-06
2.7374e-05
9.94014e-06
2.31909e-05
2.30989e-05
9.89532e-06
1.54992e-05
2.78142e-05
9.89905e-06
2.78227e-05
2.3111e-05
2.3422e-05
9.97847e-06
1.53329e-05
2.7443e-05
2.72317e-05
1.00514e-05
2.32116e-05
1.15311e-05
5.66792e-06
5.70276e-06
5.66884e-06
5.69847e-06
1.15467e-05
6.48955e-06
6.48717e-06
6.55962e-06
6.53272e-06
1.15829e-05
5.69142e-06
5.69891e-06
1.16389e-05
5.68651e-06
5.69773e-06
2.3191e-05
2.78325e-05
1.54326e-05
9.93162e-06
2.787e-05
9.96415e-06
2.32798e-05
2.3348e-05
2.76665e-05
1.54237e-05
1.00441e-05
1.00727e-05
2.75856e-05
2.34295e-05
2.30599e-05
9.88901e-06
2.76727e-05
1.55266e-05
2.74851e-05
2.32466e-05
9.8843e-06
2.33409e-05
1.00082e-05
2.73639e-05
1.54383e-05
2.30599e-05
9.96322e-06
2.77866e-05
1.15056e-05
5.67461e-06
5.70292e-06
5.68879e-06
5.68058e-06
1.16004e-05
6.5076e-06
6.4991e-06
7.58982e-06
8.28227e-06
2.42017e-05
2.22912e-05
8.31551e-06
2.23757e-05
7.62218e-06
5.99302e-06
1.48897e-05
1.03288e-05
1.49279e-05
5.98229e-06
7.59478e-06
2.43644e-05
8.25494e-06
2.24634e-05
8.27244e-06
2.23239e-05
7.63189e-06
5.99601e-06
1.4801e-05
1.03102e-05
1.49866e-05
5.9902e-06
7.59445e-06
2.25489e-05
8.29024e-06
2.45052e-05
7.63167e-06
2.24959e-05
8.3452e-06
5.92126e-06
9.97758e-06
1.48038e-05
5.93525e-06
1.46656e-05
5.9045e-06
1.47491e-05
1.00053e-05
5.9182e-06
1.47364e-05
7.56771e-06
2.44493e-05
2.24708e-05
8.32647e-06
7.61832e-06
2.22505e-05
8.33846e-06
7.6511e-06
8.33149e-06
2.44246e-05
2.26587e-05
7.65856e-06
8.32945e-06
2.2474e-05
6.00887e-06
1.49881e-05
1.0319e-05
1.50213e-05
6.00296e-06
7.69465e-06
2.4498e-05
8.36217e-06
2.24639e-05
8.37336e-06
2.27771e-05
7.68577e-06
5.9796e-06
1.49346e-05
1.02865e-05
5.97945e-06
1.47956e-05
7.73509e-06
2.29504e-05
8.36432e-06
2.47035e-05
2.30273e-05
8.41458e-06
7.69078e-06
6.01314e-06
1.02121e-05
1.49006e-05
1.49366e-05
6.01859e-06
6.02918e-06
1.49663e-05
1.01589e-05
1.50021e-05
6.00823e-06
7.71913e-06
2.47116e-05
2.29441e-05
8.38043e-06
2.26832e-05
8.32687e-06
7.7291e-06
7.56102e-06
8.35674e-06
2.4669e-05
2.26023e-05
8.36521e-06
2.26481e-05
7.6133e-06
5.87749e-06
1.45399e-05
9.98465e-06
1.46275e-05
5.87603e-06
7.55615e-06
2.46071e-05
8.3313e-06
2.25444e-05
8.3077e-06
2.22878e-05
7.60351e-06
5.86342e-06
1.44377e-05
1.00239e-05
1.45467e-05
5.84412e-06
7.7139e-06
2.27868e-05
8.43411e-06
2.47482e-05
7.70952e-06
2.29108e-05
8.42486e-06
6.03544e-06
1.02131e-05
1.50162e-05
1.50643e-05
6.02387e-06
5.98846e-06
1.49893e-05
1.01911e-05
6.01489e-06
1.48591e-05
7.74968e-06
2.46712e-05
2.29475e-05
8.36552e-06
2.29843e-05
8.351e-06
7.705e-06
7.57882e-06
8.39317e-06
2.44761e-05
2.24773e-05
7.63764e-06
8.36655e-06
2.23531e-05
5.89684e-06
1.46765e-05
1.00605e-05
1.4669e-05
5.90099e-06
7.66321e-06
2.4797e-05
8.35303e-06
2.24355e-05
8.39418e-06
2.27254e-05
7.64429e-06
5.89402e-06
1.46652e-05
1.00331e-05
5.89484e-06
1.46726e-05
6.51168e-06
6.50627e-06
6.38251e-06
6.34632e-06
1.13463e-05
5.63175e-06
5.59228e-06
5.61834e-06
5.58358e-06
1.14231e-05
2.31758e-05
2.73327e-05
9.99123e-06
1.54485e-05
2.31731e-05
9.99558e-06
2.76265e-05
2.28465e-05
2.71712e-05
9.74781e-06
1.51423e-05
2.28689e-05
9.7254e-06
2.72806e-05
1.14784e-05
5.65615e-06
5.61577e-06
1.14743e-05
5.65677e-06
5.61531e-06
2.31306e-05
9.97823e-06
1.55086e-05
2.71749e-05
9.9788e-06
2.31595e-05
2.75494e-05
2.28112e-05
9.6992e-06
1.50167e-05
2.73208e-05
9.72542e-06
2.27652e-05
2.7275e-05
7.82419e-06
2.53353e-05
8.52415e-06
2.30943e-05
8.58713e-06
2.34307e-05
7.88229e-06
6.14481e-06
1.54615e-05
1.04057e-05
6.14487e-06
1.545e-05
7.85724e-06
2.52873e-05
8.57952e-06
2.33819e-05
8.57795e-06
7.80455e-06
2.33754e-05
6.13317e-06
1.5408e-05
1.05085e-05
1.5479e-05
6.16251e-06
1.15707e-05
5.67136e-06
5.6877e-06
5.69783e-06
5.71559e-06
1.14736e-05
2.27946e-05
2.75475e-05
9.91716e-06
1.55405e-05
1.00287e-05
2.31494e-05
2.78417e-05
2.34106e-05
2.74974e-05
1.0051e-05
1.55078e-05
2.79124e-05
2.31818e-05
1.00612e-05
1.16135e-05
5.6892e-06
5.6905e-06
5.70252e-06
1.15917e-05
5.72186e-06
2.30466e-05
9.93561e-06
1.5554e-05
2.74201e-05
9.94705e-06
2.77621e-05
2.29652e-05
2.31018e-05
1.0029e-05
1.53268e-05
2.78235e-05
2.75701e-05
1.00543e-05
2.32628e-05
6.51842e-06
6.50442e-06
7.62888e-06
2.44618e-05
8.34103e-06
2.25715e-05
8.37364e-06
2.25818e-05
7.64184e-06
5.99223e-06
1.49441e-05
1.03732e-05
6.00768e-06
1.50019e-05
7.67174e-06
2.43341e-05
8.39487e-06
2.26814e-05
8.32868e-06
7.6507e-06
2.27075e-05
6.02146e-06
1.50134e-05
1.03431e-05
1.50366e-05
6.01954e-06
7.67678e-06
2.47987e-05
2.27017e-05
8.31438e-06
2.27392e-05
8.38649e-06
7.67908e-06
6.02723e-06
1.5086e-05
1.02497e-05
1.50694e-05
6.03181e-06
7.73073e-06
2.47498e-05
2.27224e-05
8.3982e-06
2.29151e-05
7.68756e-06
8.39631e-06
6.02345e-06
1.50143e-05
1.024e-05
1.49683e-05
6.02056e-06
7.58486e-06
2.44951e-05
8.35912e-06
2.23572e-05
8.34254e-06
2.26156e-05
7.58941e-06
5.87153e-06
1.46919e-05
1.00732e-05
5.89511e-06
1.45692e-05
7.63414e-06
2.47576e-05
8.32168e-06
2.27045e-05
7.60267e-06
8.39901e-06
2.26917e-05
5.91079e-06
1.47336e-05
9.99514e-06
1.47565e-05
5.902e-06
1.16808e-05
5.76634e-06
5.79895e-06
5.74897e-06
5.78616e-06
1.1741e-05
2.33772e-05
2.78579e-05
1.56222e-05
1.00251e-05
1.00464e-05
2.79472e-05
2.3488e-05
2.37556e-05
2.78658e-05
1.56624e-05
1.01931e-05
2.7654e-05
1.02109e-05
2.37864e-05
2.34149e-05
9.9675e-06
1.54905e-05
2.79873e-05
9.97624e-06
2.79937e-05
2.31201e-05
2.3672e-05
1.01252e-05
1.57369e-05
2.79287e-05
2.80106e-05
1.01793e-05
2.3334e-05
1.17936e-05
5.78613e-06
5.80484e-06
5.78514e-06
5.81401e-06
1.1808e-05
6.59956e-06
6.63731e-06
5.80654e-06
1.01568e-05
7.83096e-06
2.31951e-05
8.52789e-06
2.49623e-05
2.32619e-05
8.50182e-06
7.8312e-06
6.16081e-06
1.05581e-05
1.53907e-05
1.54341e-05
6.14229e-06
6.15725e-06
1.54301e-05
1.05227e-05
1.54363e-05
6.15831e-06
7.86334e-06
2.5246e-05
2.29762e-05
8.54885e-06
2.33618e-05
8.56822e-06
7.84947e-06
7.75675e-06
2.28081e-05
8.43398e-06
2.50254e-05
2.31012e-05
8.49339e-06
7.75686e-06
6.05196e-06
1.03157e-05
1.51642e-05
1.51878e-05
6.0455e-06
6.04899e-06
1.51729e-05
1.03128e-05
1.51779e-05
6.05293e-06
7.70669e-06
2.48122e-05
2.28448e-05
8.42063e-06
2.30624e-05
8.45806e-06
7.74567e-06
2.29617e-05
8.43484e-06
7.71506e-06
1.52944e-05
6.09887e-06
2.25378e-05
8.31649e-06
7.64203e-06
1.50443e-05
6.00429e-06
6.39527e-06
6.34798e-06
6.46602e-06
6.44966e-06
5.63429e-06
9.77288e-06
1.88273e-05
1.9057e-05
2.21485e-05
1.88258e-05
1.9057e-05
1.53585e-05
1.54105e-05
1.88227e-05
1.90443e-05
2.21441e-05
1.88251e-05
1.90475e-05
1.53941e-05
1.5351e-05
2.78961e-05
2.94697e-05
2.92734e-05
2.87212e-05
2.95669e-05
2.90882e-05
2.81401e-05
2.80821e-05
2.94798e-05
2.92211e-05
2.87606e-05
2.95146e-05
2.93054e-05
2.78113e-05
2.79241e-05
2.87757e-05
2.95027e-05
2.92671e-05
2.94706e-05
2.92414e-05
2.79858e-05
2.82164e-05
2.93588e-05
2.95594e-05
2.89696e-05
2.94663e-05
2.94973e-05
2.82088e-05
2.83342e-05
2.88634e-05
2.95613e-05
2.92316e-05
2.92185e-05
2.90263e-05
2.83555e-05
2.79167e-05
2.9262e-05
2.92338e-05
2.86278e-05
2.79446e-05
2.9406e-05
2.90442e-05
2.82439e-05
2.94037e-05
2.90496e-05
2.86807e-05
2.93931e-05
2.82667e-05
2.94773e-05
2.84935e-05
2.96131e-05
2.91133e-05
2.9094e-05
2.94035e-05
2.95536e-05
2.85335e-05
1.88718e-05
1.91302e-05
2.2253e-05
1.88718e-05
1.91321e-05
1.54142e-05
1.54298e-05
1.90432e-05
1.8942e-05
2.23124e-05
1.90432e-05
1.8941e-05
1.53733e-05
1.53749e-05
1.90472e-05
1.89431e-05
2.22502e-05
1.90532e-05
1.89392e-05
1.53814e-05
1.53959e-05
2.21533e-05
1.8826e-05
1.90514e-05
1.88239e-05
1.90493e-05
1.53526e-05
1.53605e-05
2.22179e-05
1.88694e-05
1.91259e-05
1.88671e-05
1.91255e-05
1.5406e-05
1.54422e-05
2.2252e-05
1.90453e-05
1.89423e-05
1.9041e-05
1.89395e-05
1.54101e-05
1.5359e-05
2.21644e-05
1.90496e-05
1.89396e-05
1.90469e-05
1.89365e-05
1.5388e-05
1.5426e-05
2.87624e-05
2.88602e-05
2.85397e-05
2.90185e-05
2.90891e-05
2.8742e-05
2.8886e-05
2.90506e-05
2.92877e-05
2.4871e-05
2.76283e-05
2.93365e-05
2.72806e-05
2.90628e-05
2.89245e-05
2.75099e-05
2.49816e-05
2.93008e-05
2.92688e-05
2.76584e-05
2.89253e-05
2.87515e-05
2.87261e-05
2.91396e-05
2.87969e-05
2.91365e-05
2.87457e-05
2.89796e-05
1.88651e-05
1.91246e-05
2.23216e-05
1.88672e-05
1.91378e-05
1.53891e-05
1.53852e-05
1.90398e-05
1.89403e-05
2.22701e-05
1.90444e-05
1.89471e-05
1.53872e-05
1.53634e-05
1.90479e-05
1.89359e-05
2.22588e-05
1.9072e-05
1.89406e-05
1.54296e-05
1.53748e-05
2.91847e-05
2.89585e-05
2.90558e-05
2.88562e-05
2.90584e-05
2.88386e-05
2.92003e-05
2.92925e-05
2.94086e-05
2.79844e-05
2.49493e-05
2.89974e-05
2.94694e-05
2.76802e-05
2.91699e-05
2.90097e-05
2.87426e-05
2.8632e-05
2.91123e-05
2.89987e-05
2.88569e-05
2.92626e-05
2.79036e-05
2.49943e-05
2.9117e-05
2.93922e-05
2.80162e-05
2.91462e-05
2.90394e-05
2.87111e-05
2.92471e-05
2.90505e-05
2.87723e-05
2.92295e-05
2.90759e-05
2.92274e-05
2.92211e-05
2.54449e-05
2.81846e-05
2.95483e-05
2.82856e-05
2.93791e-05
2.92841e-05
2.83176e-05
2.53261e-05
2.92525e-05
2.9489e-05
2.83003e-05
2.93344e-05
2.9058e-05
2.93248e-05
2.87616e-05
2.92383e-05
2.86012e-05
2.92878e-05
2.90944e-05
2.82551e-05
2.86815e-05
2.96282e-05
2.93246e-05
2.93463e-05
2.93746e-05
2.81829e-05
2.81217e-05
2.87838e-05
2.94893e-05
2.91557e-05
2.79769e-05
2.94999e-05
2.89958e-05
2.79158e-05
2.87409e-05
2.93997e-05
2.89125e-05
2.76084e-05
2.94565e-05
2.92205e-05
2.88128e-05
2.89461e-05
2.86403e-05
2.89575e-05
2.89526e-05
2.86916e-05
2.86253e-05
2.92708e-05
2.90251e-05
2.47873e-05
2.80446e-05
2.80941e-05
2.90895e-05
2.92444e-05
2.92134e-05
2.79773e-05
2.51272e-05
2.87458e-05
2.78016e-05
2.91747e-05
2.89734e-05
2.89149e-05
2.8979e-05
2.88923e-05
2.85059e-05
2.89993e-05
2.86532e-05
2.886e-05
2.89232e-05
2.90614e-05
2.85861e-05
2.92078e-05
2.896e-05
2.85513e-05
2.88493e-05
2.90595e-05
2.94064e-05
2.54225e-05
2.78849e-05
2.8241e-05
2.94764e-05
2.92559e-05
2.93265e-05
2.81254e-05
2.52947e-05
2.95323e-05
2.81328e-05
2.9342e-05
2.92375e-05
2.86653e-05
2.92696e-05
2.89961e-05
2.84958e-05
2.86725e-05
2.87043e-05
2.86938e-05
2.88828e-05
2.87859e-05
2.84742e-05
2.90085e-05
2.88073e-05
2.91284e-05
2.86759e-05
2.91101e-05
2.90284e-05
2.49903e-05
2.76649e-05
2.90133e-05
2.80234e-05
2.91436e-05
2.88264e-05