/*--------------------------------*- C++ -*----------------------------------*\
| =========                 |                                                 |
| \\      /  F ield         | OpenFOAM: The Open Source CFD Toolbox           |
|  \\    /   O peration     | Version:  2206                                  |
|   \\  /    A nd           | Website:  www.openfoam.com                      |
|    \\/     M anipulation  |                                                 |
\*---------------------------------------------------------------------------*/
FoamFile
{
    version     2.0;
    format      ascii;
    arch        "LSB;label=32;scalar=64";
    class       volScalarField;
    location    "60";
    object      omega;
}
// * * * * * * * * * * * * * * * * * * * * * * * * * * * * * * * * * * * * * //

dimensions      [0 0 -1 0 0 0 0];

internalField   nonuniform List<scalar> 
66621
(
289.366
110.767
293.313
41.9276
98.0719
19.5222
414.017
40.5394
21.8483
19.3333
98.5668
24.1959
172.137
171.327
413.271
413.944
24.3779
166.927
172.407
22.0092
92.7715
169.679
414.184
41.8193
22.1648
100.231
19.5717
110.375
293.193
41.847
21.883
19.5572
100.412
102.547
288.685
42.4282
21.9496
19.5882
101.442
108.174
291.606
24.2886
172.059
170.798
412.507
40.0644
21.5303
19.2949
98.6208
107.271
291.452
106.2
290.466
413.585
412.047
179.005
432.061
328.234
127.482
306.805
108.553
124.822
305.787
330.668
433.137
184.947
291.849
183.744
431.773
414.01
224.292
416.766
416.859
417.148
417.208
222.181
112.702
303.46
170.108
63.5126
62.2392
302.671
120.634
115.907
304.277
170.206
63.4121
62.6318
303.779
118.539
414.146
223.468
416.308
417.208
416.699
417.501
223.67
116.668
303.163
60.9217
302.257
115.993
112.838
304.337
170.309
63.9038
303.252
120.669
62.6298
416.794
221.359
301.515
62.0901
114.092
328.583
306.944
127.803
108.257
306.192
125.331
330.885
432.439
183.785
291.878
176.108
432.339
121.362
305.353
331.025
181.333
432.437
305.504
124.733
331.005
181.508
432.936
224.02
416.863
416.369
417.371
416.555
222.884
115.793
304.131
170.018
63.4721
303.011
60.9444
118.5
116.493
303.33
163.56
63.0928
58.9026
302.592
114.215
412.477
326.52
123.979
303.104
105.858
116.069
302.485
325.909
430.336
179.791
290.688
177.512
429.588
326.899
124.929
303.307
104.702
123.622
302.786
325.821
430.475
180.881
289.048
179.811
429.681
412.753
17.7075
16.8507
16.8664
16.2602
17.6073
16.7646
16.6817
16.1468
17.6472
16.7499
16.6883
16.1776
17.5827
16.6745
16.6695
16.1336
26.4998
47.3108
25.3654
40.2238
46.6287
25.1297
26.6995
61.8132
40.7813
29.9505
25.6207
24.7605
45.4746
40.104
24.694
42.9709
26.2987
29.9419
61.5401
92.1904
41.5608
39.4075
60.7599
29.7401
53.2706
23.9251
33.9545
33.9657
33.14
33.7391
53.2392
52.1527
24.2332
34.1949
34.3738
55.8961
33.7776
33.9706
60.7588
40.9651
29.6687
26.7145
47.5912
25.2244
41.2186
47.0178
24.7886
26.5275
30.7389
63.118
96.1664
42.4282
61.9545
40.2721
31.0462
26.2893
25.379
47.1149
41.278
25.2446
46.1783
26.9822
30.5679
63.0856
98.4733
41.7545
58.879
30.8516
41.0491
26.8349
25.4327
47.8234
41.8722
24.9809
47.0962
26.9698
30.0915
63.6555
99.8314
41.9824
40.8294
62.7297
31.2033
51.781
24.1727
34.1606
33.9566
33.5734
33.8032
55.5121
25.6113
24.6818
45.8643
39.5298
24.5878
45.5172
26.2042
29.7574
60.9983
97.4241
41.2569
40.963
60.1598
29.9408
753.057
1619.05
4422.35
16477.5
116782
751.464
1618.7
4422.47
16479.5
116802
733.21
1599.58
4390.08
16424.9
116892
733.675
1599.56
4389.98
16423.2
116862
733.244
1599.62
4390.4
16427.1
116912
734.668
1599.79
4389.85
16423.5
116872
751.602
1618.73
4422.45
16479.5
116814
752.08
1618.84
4422
16476.7
116781
752.939
1618.78
4422.1
16476.4
116772
733.579
1599.55
4389.92
16424.2
116881
752.192
1618.7
4422.27
16478.4
116795
751.829
1618.69
4422.26
16478.4
116802
733.344
1599.53
4390.12
16424.9
116892
733.605
1599.65
4390.37
16426.7
116912
741.544
1610.26
4407.26
16447.4
116752
739.017
1604.17
4396.09
16425.3
116727
740.112
1605
4396.53
16425.6
116727
740.739
1609.37
4406.72
16447.1
116752
752.555
1619.6
4423.03
16479.9
116802
734.352
1600.39
4390.52
16425.2
116892
750.677
1617.8
4420.41
16475.1
116795
751.829
1618.71
4420.99
16475.5
116795
751.021
1617.84
4420.47
16475.1
116795
752.119
1618.69
4420.98
16475.5
116795
734.417
1600.43
4390.82
16427.4
116912
733.526
1603.62
4397.86
16440.8
116904
752.455
1618.11
4420.33
16473.5
116778
741.6
1610.27
4407.24
16446.8
116747
739.384
1604.19
4396.05
16425.1
116725
740.889
1605.06
4396.49
16425.4
116725
740.768
1609.37
4406.7
16446.4
116747
752.7
1619.61
4423.01
16479.9
116814
740.4
1604.37
4396.38
16425.7
116749
741.658
1609.76
4407.11
16448.3
116774
740.51
1604.36
4396.41
16426.4
116747
741.475
1609.79
4407.12
16448.5
116769
732.307
1603.38
4398
16441.3
116904
751.027
1617.79
4420.12
16472.4
116759
751.969
1618.65
4420.67
16472.8
116759
734.714
1600.35
4390.34
16424.6
116881
742.16
1610.38
4407.55
16448.8
116769
739.667
1604.35
4396.41
16427.2
116747
740.76
1605.12
4396.79
16427.5
116747
741.265
1609.53
4407.06
16448.5
116769
753.509
1619.58
4422.81
16478.8
116795
742.037
1610.38
4407.52
16448.7
116774
739.89
1604.4
4396.41
16426.5
116749
741.04
1605.17
4396.79
16426.8
116749
741.233
1609.53
4407.03
16448.3
116774
752.875
1619.55
4422.8
16478.8
116802
735.084
1600.48
4390.81
16427
116912
732.462
1603.37
4397.96
16441.5
116918
732.621
1603.39
4397.89
16441.8
116921
731.67
1598.86
4388.89
16419.1
116835
731.72
1599.66
4389.45
16420.2
116840
730.626
1598.68
4388.85
16419.8
116840
732.123
1603.39
4398.11
16442.1
116918
750.667
1617.81
4420.28
16473.4
116778
751.736
1618.64
4420.79
16473.8
116778
733.983
1604.25
4398.41
16441.8
116918
734.127
1604.28
4398.38
16442.1
116921
732.284
1603.42
4398.07
16442.4
116933
751.031
1617.8
4420.27
16473.5
116776
752.411
1618.69
4420.77
16473.9
116776
732.282
1603.39
4397.87
16441.2
116921
750.746
1617.82
4420.41
16474.6
116795
752.069
1618.69
4420.94
16475.1
116795
733.317
1604.24
4398.51
16442.7
116933
733.335
1604.2
4398.29
16441.5
116921
731.715
1599.68
4389.51
16420.3
116852
730.694
1598.71
4388.91
16419.9
116852
730.678
1598.65
4388.76
16419
116840
730.868
1598.73
4388.84
16418.7
116831
732.937
1604.2
4398.55
16442.5
116918
733.307
1604.23
4398.49
16441.7
116904
731.911
1599.61
4389.37
16419.4
116835
731.39
1598.65
4388.78
16419
116835
731.97
1599.6
4389.24
16419.3
116840
731.379
1598.63
4388.64
16418.9
116840
413.099
413.329
24.0686
165.331
168.173
105.791
290.418
40.1399
21.8617
95.0246
19.5366
105.524
289.932
40.5908
22.1246
19.4407
95.7156
22.1648
94.6037
292.345
413.277
23.9579
165.334
165.185
412.277
37.8722
21.8864
19.2893
93.2511
38.8098
21.7378
19.41
94.9589
103.483
286.197
102.487
287.759
23.9506
166.707
162.511
413.696
411.415
416.472
417.448
223.932
301.348
62.918
114.996
300.462
62.2057
122.306
331.46
122.702
303.175
108.078
331.618
122.623
306.351
431.618
180.883
289.315
432.249
182.403
331.488
305.023
122.748
108.012
331.656
305.984
125.542
431.548
182.526
291.338
432.779
183.589
431.682
183.244
288.37
433.03
182.963
412.673
228.469
416.231
416.56
223.714
416.421
415.11
121.015
301.685
62.2155
171.315
62.8833
119.622
300.932
120.808
298.692
59.9198
171.322
119.231
302.229
63.2644
411.762
328.372
122.524
300.698
101.768
326.682
123.943
302.413
429.322
176.363
290.372
429.746
176.168
328.326
116.048
302.019
101.777
326.561
123.964
302.781
429.408
172.214
287.633
429.633
179.123
228.721
416.939
416.687
228.439
415.564
416.087
121.475
300.275
61.235
167.242
120.559
62.1703
300.319
120.953
299.676
60.9017
169.454
120.146
59.5076
303.041
413.167
411.616
17.7399
17.0459
16.6993
16.2371
17.6191
16.8099
16.6553
16.127
17.5773
16.7709
16.675
16.2262
17.5071
16.6595
16.6367
16.1033
32.909
33.754
56.3091
26.8849
46.2054
25.0232
38.8405
26.596
44.7544
25.0059
31.3299
59.3422
41.9707
100.378
40.4889
31.2698
62.8984
26.8871
25.0248
45.5278
40.9036
26.9361
25.0562
44.7231
30.9792
60.3574
40.4994
97.6561
30.9327
57.3659
41.0589
31.3046
61.7778
40.1544
99.8993
31.2205
60.4447
41.8082
55.9719
23.9615
33.3128
33.1524
33.5018
55.3704
33.3651
26.3967
24.4342
43.478
39.7728
26.2052
24.5366
45.758
30.5787
59.7878
39.9099
98.7607
29.8913
41.54
58.0311
26.3888
24.467
42.8498
38.6587
25.9009
24.3492
45.4091
30.2643
58.8809
38.7812
93.1663
30.0828
58.5042
40.4939
55.8861
23.7284
32.783
32.2584
53.8529
33.8206
33.3731
17.6691
22.4718
17.6648
22.5666
22.132
24.7445
24.7727
24.7396
22.4232
22.3983
22.3227
22.3294
24.7539
24.557
22.6748
22.541
22.6449
22.5446
22.6389
22.1739
22.5968
24.0477
22.0187
21.9946
23.9909
22.4595
22.2254
22.281
24.6073
22.3522
109.379
294.012
293.184
109.297
413.267
413.156
115.352
296.41
296.208
115.614
17.6054
17.5996
17.5837
17.677
17.5849
17.5931
17.5677
43.6144
104.526
19.8055
21.9351
104.404
19.7371
43.9506
110.056
293.787
110.86
293.257
412.765
412.89
112.044
296.345
116.593
295.954
17.588
17.5931
17.5611
43.3125
104.304
19.7888
22.1365
43.4244
104.023
19.6714
414.675
414.532
41.5537
19.4913
101.65
21.7974
19.3981
101.083
41.7765
177.561
174.642
24.6602
176.52
174.196
413.142
412.761
415.052
414.544
173.94
176.8
24.7638
173.963
176.702
412.847
412.264
414.403
414.659
24.0943
173.906
176.593
165.853
174.266
109.932
293.559
293.303
111.211
40.9483
101.594
19.5119
21.8073
101.649
19.3879
41.3247
41.3491
102.4
19.5353
21.8698
101.964
19.3742
41.61
105.36
293.332
288.691
105.697
103.992
292.702
289.639
109.85
38.7603
22.2405
100.782
19.489
99.7913
19.3656
41.098
40.535
22.2692
100.676
19.4614
95.5564
19.3593
41.221
174.145
176.524
24.6733
174.223
176.366
414.446
414.195
412.692
413.036
24.1291
173.459
175.119
168.008
170.358
413.941
414.194
43.4581
105.73
19.7962
22.4613
104.578
19.6926
43.995
114.388
296.265
114.779
295.647
43.4364
19.7773
103.899
21.9939
19.6784
44.0173
104.074
111.873
293.775
291.332
111.727
41.7898
22.269
103.787
19.7903
99.9669
19.6563
43.4075
109.03
295.074
114.007
292.056
41.6242
22.4932
19.7135
103.244
19.7242
43.3278
101.918
115.081
296.133
295.854
115.244
43.335
19.7999
105.64
22.0462
19.7268
43.9012
105.199
114.108
296.67
115.104
295.932
40.3213
22.3877
103.201
19.7636
96.4437
19.7576
43.1656
106.865
295.274
292.126
114.992
41.4615
22.5167
19.7364
103.577
19.7461
43.3624
98.5836
108.821
295.656
113.873
290.869
412.751
412.716
414.8
414.606
170.701
172.468
24.6954
172.688
176.337
109.054
290.24
105.246
292.951
41.1916
94.7091
19.4495
22.1382
40.5634
101.02
19.467
41.0514
92.9082
19.3619
22.1146
40.5736
101.598
19.5128
168.49
169.439
24.5425
173.092
175.151
414.007
414.164
43.2843
98.3991
19.7448
22.4947
41.506
104.109
19.7516
114.609
291.74
110.611
295.186
43.1494
19.6927
100.348
22.3161
41.4366
19.7094
103.139
114.794
292.712
106.26
295.287
43.2377
19.5731
98.5618
22.3987
41.6778
19.7497
103.336
113.596
290.464
108.187
295.663
177.575
173.709
24.5662
176.401
173.718
412.786
413.039
171.51
413.06
41.6103
19.5206
102.248
21.8942
19.4384
101.761
41.8262
110.406
293.122
293.068
110.287
110.535
293.809
293.381
111.275
40.0975
94.7929
40.0127
96.689
105.906
289.735
107.853
291.845
414.351
414.131
412.71
412.827
168.532
413.114
329.766
304.655
127.463
107.599
304.169
126.229
326.537
429.715
290.464
184.316
176.312
430.523
430.484
183.939
289.831
182.907
430.172
328.03
102.229
305.007
128.178
301.849
121.47
328.431
412.525
412.945
333.093
132.256
308.768
109.534
130.393
306.251
329.864
432.235
291.677
189.687
181.821
433.049
433.175
188.47
295.601
187.696
431.968
332.743
112.098
132.38
309.326
125.025
306.986
331.572
328.97
104.743
304.575
127.209
302.026
121.006
327.365
430.06
184.492
290.663
430.338
175.376
328.566
107.388
305.543
127.559
328.731
303.078
122.234
430.466
183.358
290.209
182.156
429.938
412.343
412.851
333.075
114.632
131.988
308.591
125.596
308.226
331.922
432.857
188.788
291.554
432.914
181.812
332.829
114.151
132.41
309.631
331.474
127.124
306.333
433.187
188.297
295.45
187.589
432.476
414.149
414.516
229.926
416.855
416.843
417.308
417.263
224.803
124.308
67.2526
169.848
306.622
64.0414
304.231
122.854
123.251
65.8011
166.455
306.477
62.4772
302.071
121.83
119.496
305.818
175.655
66.5998
63.174
303.531
121.634
118.68
305.908
172.915
65.4795
62.0538
305.639
120.591
228.931
417.274
417.402
416.887
417.052
229.485
412.626
412.544
414.62
414.45
230.154
416.397
417.676
417.114
418.053
225.706
124.053
65.7637
168.736
305.613
300.814
63.8988
117.988
124.792
67.0933
171.393
306.659
302.432
62.6028
118.74
115.428
305.117
168.21
65.8177
304.554
122.42
62.3925
122.472
306.829
170.844
66.941
306.292
119.527
66.2631
229.099
416.956
417.861
416.846
417.666
229.123
412.499
412.462
414.469
414.026
230.539
416.607
417.952
225.535
416.924
417.86
124.662
65.2476
168.698
304.268
303.421
63.0014
119.045
125.2
66.0587
174.859
306.136
305.343
64.9936
115.749
123.469
301.669
60.8876
172.008
123.228
300.891
64.725
124.548
303.776
63.2326
169.841
118.69
305.081
64.6651
224.436
416.427
417.445
416.623
417.53
229.831
329.219
304.591
127.675
108.697
302.274
121.492
327.805
429.83
288.478
184.045
178.796
430.449
430.188
183.957
292.517
178.336
430.122
328.933
104.734
305.685
127.665
303.302
123.466
328.878
329.176
301.271
118.383
107.342
328.853
304.424
126.012
430.634
292.92
183.79
430.295
183.117
430.07
178.026
292.181
430.341
177.379
327.626
107.648
305.257
126.102
326.918
305.146
126.102
328.954
303.561
125.053
101.273
328.471
302.384
121.702
430.403
291.483
183.113
178.09
430.203
430.319
181.91
290.968
430.803
179.271
327.643
108.678
304.989
126.702
302.818
121.234
328.292
230.087
416.947
417.174
417.486
417.13
225.78
123.433
65.5848
166.426
305.949
301.078
62.7158
122.146
123.929
66.2914
168.921
305.944
61.421
303.097
122.301
117.351
305.774
173.039
65.3966
305.349
61.9522
117.324
115.561
306.047
175.197
66.2639
65.3882
303.369
123.169
229.116
417.217
417.219
417.018
416.915
229.305
414.459
414.735
412.614
412.534
230.398
417.354
417.199
225.424
416.779
417.117
124.347
65.3884
171.956
305.064
62.4417
304.463
114.934
124.742
65.5538
173.266
305.216
302.479
64.55
116.368
123.57
302.539
60.842
167.049
64.6059
117.704
301.668
123.417
304.604
62.248
172.609
123.217
303.102
61.7784
227.752
416.81
416.85
417.341
417.389
226.204
414.063
414.165
333.004
308.619
112.702
131.687
306.357
129.973
329.906
432.883
189.179
291.286
185.674
432.811
332.663
108.03
309.321
132.336
307.103
124.544
331.386
432.868
188.187
294.835
183.118
432.37
332.981
127.965
307.551
113.296
332.69
129.932
306.958
432.976
294.106
183.598
432.42
186.33
432.557
181.358
295.046
432.967
181.036
331.101
113.308
131.013
308.937
330.991
130.91
307.603
332.873
307.691
111.439
125.704
332.572
306.526
128.433
432.856
187.999
293.795
182.508
433.02
330.966
111.987
308.788
131.299
306.615
129.15
330.93
432.748
185.77
293.378
433.178
183.655
332.793
132.291
308.515
109.172
125.581
307.764
331.434
432.421
291.692
189.903
184.534
432.93
432.377
188.091
295.156
182.601
432.387
332.521
110.507
132.795
309.499
127.757
305.575
332.514
332.831
308.417
112.435
132.351
306.143
125.925
331.007
432.856
190.252
293.958
182.799
433.038
332.321
107.874
309.563
133.707
307.03
128.234
332.462
433.099
188.886
293.153
188.097
432.73
332.558
129.586
306.106
113.18
331.959
126.47
307.455
432.671
294.452
187.499
181.798
432.898
432.447
185.769
291.503
433.426
183.419
331.364
109.369
131.777
308.734
124.959
307.886
331.977
332.746
307.021
111.267
129.407
331.276
308.044
126.229
432.875
187.412
293.026
185.594
432.432
331.594
111.807
309.064
131.447
308.445
125.662
332.134
432.516
182.684
294.553
432.749
185.118
412.231
412.464
414.499
414.729
231.446
416.915
417.797
416.907
418.319
228.699
124.417
61.2796
301.357
167.827
118.009
302.979
65.1398
124.399
63.7717
304.53
174.375
122.811
305.531
63.1109
227.486
416.785
417.826
229.013
416.887
417.737
122.327
304.484
168.87
65.2692
303.627
122.796
62.0322
120.156
306.912
175.353
66.351
306.275
122.13
62.8704
329.226
105.28
304.49
127.36
303.987
121.767
327.326
430.007
175.148
289.587
430.609
181.616
327.524
104.417
303.53
118.209
304.173
328.211
125.335
429.955
183.737
289.623
178.805
430.126
231.497
416.854
417.29
416.685
417.65
227.417
123.539
60.4377
302.135
171.155
300.506
122.078
64.173
124.816
62.1994
304.16
166.088
60.539
123.543
302.584
227.191
417.578
417.459
417.508
227.722
417.319
119.279
304.995
171.727
65.6799
304.813
62.5679
121.11
120.125
305.409
174.135
65.952
65.1641
302.935
122.313
414.078
414.461
333.331
110.753
308.719
131.249
306.702
129.377
331.614
432.078
182.595
289.471
432.814
178.06
333.166
112.446
305.131
126.064
308.275
331.742
128.77
432.593
186.755
294.545
185.869
432.289
333.268
109.462
132.147
308.376
130.592
307.644
331.218
432.658
179.656
292.05
186.044
432.996
331.651
112.769
128.953
306.457
130.595
331.935
307.585
432.664
187.944
293.424
183.145
432.897
333.246
112.01
308.697
131.78
308.34
130.05
332.237
432.366
183.58
294.302
432.996
182.085
332.704
107.322
307.025
127.967
332.569
306.344
129.72
432.887
187.265
293.061
184.005
432.99
230.138
417.189
416.627
417.878
417.088
226.073
123.559
66.0656
169.688
307.385
302.817
61.2334
121.888
123.995
65.2511
168.301
305.287
60.5119
302.444
118.22
119.409
306.634
175.69
66.1308
306.473
65.3009
121.214
121.107
305.376
167.9
65.1861
64.4247
302.556
121.75
228.98
417.789
416.886
417.578
416.676
229.04
412.67
412.647
416.911
302.854
329.799
127.467
304.933
109.074
125.786
304.531
328.637
429.752
288.178
183.739
178.677
430.189
429.942
183.86
292.307
178.303
430.274
328.108
104.675
127.611
305.806
120.234
302.62
328.459
329.486
127.343
304.839
105.39
125.655
302.314
328.086
430.362
290.683
184.524
178.824
430.267
430.347
183.861
290.039
178.202
430.069
329.168
108.401
128.15
305.839
120.472
303.484
329.069
123.317
302.184
329.208
181.852
430.713
122.191
304.448
328.908
179.422
430.866
414.424
414.848
412.546
413.248
416.846
303.385
16.5727
16.6663
17.6748
16.7426
16.778
16.0665
16.1456
16.6006
16.7116
17.6721
16.693
16.7905
16.1042
16.1562
57.2558
35.3061
35.0653
24.0353
33.6076
33.459
56.5884
57.4989
35.2712
35.4536
24.4509
33.6803
34.8143
56.6967
57.8151
24.3001
34.6723
35.3726
34.2644
34.2366
55.2885
55.5073
35.0941
35.1537
24.1539
33.4931
34.3914
56.7203
57.8458
24.3982
34.7888
34.9761
33.5115
34.5937
54.3439
57.889
32.8738
34.6731
24.5048
54.943
34.5
34.1734
58.0037
33.3964
34.2625
24.5293
34.6475
57.5503
34.8112
57.0604
35.196
34.7603
24.0012
33.1001
33.5157
56.508
16.5985
16.6327
17.6188
16.7156
16.6903
16.0528
16.2146
16.6511
16.5463
17.6172
16.783
16.712
16.0528
16.1107
16.6261
16.6052
17.5868
16.7088
16.7198
16.054
16.1076
17.6754
16.6951
16.7479
16.6391
16.8173
16.2262
16.2883
17.6145
16.5739
16.6463
16.602
16.7368
16.1035
16.2052
17.6128
16.6583
16.5758
16.6818
16.605
16.1827
16.29
17.5794
16.5992
16.5856
16.6988
16.6125
16.1578
16.189
27.5062
49.2688
25.7411
42.8876
46.8158
25.5796
26.9158
31.6964
43.664
99.4364
66.0823
41.317
63.322
31.4029
30.9113
65.9612
98.7084
43.6125
43.241
62.2964
30.5348
27.4729
41.6693
49.4392
25.9187
48.2828
25.2356
26.8111
16.6452
16.6804
17.5885
16.6166
16.6674
16.053
16.103
16.7338
16.6431
17.5928
16.7055
16.6099
16.0505
16.0863
16.6108
16.6608
17.5617
16.6051
16.6227
16.0125
16.0661
27.3491
42.5248
48.7579
25.6945
48.0907
25.5659
26.6302
31.7011
43.5668
66.0509
96.7516
31.4263
42.6604
63.2705
27.2272
41.1384
49.4107
25.8079
27.2146
46.3458
25.2439
30.8635
65.6173
102.839
43.4027
41.7792
62.3331
31.1911
26.7468
25.012
46.2873
40.9685
24.93
46.0205
26.0333
30.7047
42.4584
93.3595
63.3614
40.9316
59.29
29.7894
30.407
63.2081
99.6879
42.1816
40.542
62.9678
30.4326
26.6531
39.5501
25.1218
46.9261
24.5613
45.303
26.5839
55.5116
24.5399
35.2968
35.0976
34.978
34.805
56.4979
53.9569
24.2993
35.1224
35.513
57.039
34.8896
34.2947
57.3496
24.5483
33.5273
33.6861
57.3004
33.3644
35.0996
26.5139
46.484
24.9141
40.4197
45.9942
24.5147
25.6814
30.359
42.7971
96.7006
63.5857
59.0551
41.2294
30.465
30.3573
63.3729
96.1953
42.7063
62.7848
40.7658
30.4425
26.3537
38.9215
46.8522
25.0514
44.3042
24.7655
25.8812
26.8218
46.7061
24.9791
39.7973
46.0481
24.8721
26.3775
30.7671
42.629
95.3249
62.9691
58.5939
41.2645
30.5622
30.0938
63.2177
101.09
42.6017
62.5304
30.3384
40.8195
26.2649
40.7173
47.1836
25.111
44.4262
24.632
26.4009
26.5341
44.4253
24.7156
40.8696
26.3687
45.4546
24.5283
31.1078
42.5989
95.4254
63.1278
42.2646
61.1084
30.4441
30.2615
60.8203
41.9412
97.3489
42.3294
30.5255
61.8713
26.0797
41.1781
46.3567
24.9639
45.7586
24.5023
26.2266
26.7122
43.8299
24.657
39.7807
26.1355
46.43
24.5988
31.0415
42.2559
99.1662
62.7222
61.8226
41.7565
29.6921
30.1916
60.1964
40.9166
94.5741
30.4385
61.4886
40.3805
25.9153
39.5401
46.7281
25.0112
46.7319
24.5476
26.523
54.1313
24.5571
35.0128
35.1392
34.8882
33.8133
53.2862
55.4584
24.0819
34.4809
33.9488
33.9832
56.3152
34.442
27.5879
49.3351
25.7252
42.7697
46.9063
25.6825
27.2692
31.9282
44.0467
97.5284
66.2
63.173
42.8617
30.8916
30.441
65.9938
103.532
42.1478
62.5711
43.283
31.5753
27.061
41.492
49.4189
26.0006
47.5224
25.5994
26.9725
27.6136
25.8122
42.9261
48.9948
25.3151
48.7057
26.6476
31.5985
43.3442
64.7854
99.1128
61.4204
31.2947
41.7037
27.0873
41.517
26.0085
49.5376
25.5339
47.1596
27.2284
30.9148
65.721
98.3237
43.5026
65.0519
31.1656
41.3232
27.5978
48.3817
25.4729
42.6196
26.944
47.2949
25.1769
31.9897
43.5287
102.422
65.7636
43.1303
65.989
30.5222
31.7538
64.464
43.271
98.2055
41.9953
31.699
63.0722
26.524
42.7539
48.9632
25.82
46.6883
25.705
27.2768
27.4446
25.6147
42.4823
46.9098
27.3115
25.3012
45.6056
31.7107
43.089
65.0993
97.6088
63.9563
30.3899
41.0289
26.6653
42.6931
25.4518
49.0005
25.8396
48.4688
26.3503
31.4843
61.4736
42.7024
99.4808
31.3714
61.1867
41.8774
27.6009
25.7373
42.62
49.0442
25.265
48.2757
26.9679
31.9734
44.0086
66.9225
98.5103
64.9718
42.4284
31.7132
27.4957
41.1332
25.9146
50.0409
25.6133
46.7088
27.4583
30.8391
66.2451
104.082
43.8871
63.2022
30.4074
41.9313
27.5234
48.2803
25.1903
42.6933
26.7755
48.3676
25.0262
31.9375
41.9653
103.011
65.6567
30.6294
42.5568
62.2945
31.7881
64.9474
41.3605
102.499
31.7396
41.2188
63.5671
26.4148
42.8548
49.261
25.43
27.1813
47.053
25.6406
27.5466
24.9716
42.2793
46.7023
26.8578
25.633
45.8255
32.1423
43.5628
65.6338
101.979
63.8276
31.4437
41.5476
27.2137
42.5539
25.7593
49.1068
25.2704
48.5598
27.3274
31.3617
64.8782
43.0487
97.6465
31.6522
65.108
42.3018
57.1742
24.2421
35.1111
35.2579
57.5635
33.9095
33.8792
26.6672
39.3734
46.3863
24.8528
45.7036
24.7205
25.9749
30.9294
41.099
59.9937
100.531
58.3624
30.1034
41.9373
26.1057
40.0172
44.6484
24.5411
45.5152
26.3338
24.381
30.5885
63.2399
96.3681
42.5581
62.7052
42.0736
30.5699
26.8569
39.4527
46.6722
24.9359
45.5387
24.4957
26.0765
30.8981
40.6462
59.9949
99.0182
30.6765
61.3656
39.9058
26.7997
39.9502
45.7983
24.8499
26.2923
46.1909
24.6731
30.212
62.642
96.8452
42.5676
61.7079
30.3682
42.2095
55.8234
24.3017
34.9188
35.1649
34.3221
34.1756
56.9595
27.4764
42.7733
49.1711
25.7825
46.9143
25.3033
26.6959
31.9144
41.5949
63.7997
96.0061
65.0036
31.6277
40.8835
27.3863
41.4587
45.7699
25.2251
48.5393
27.3186
25.5871
31.1386
65.8116
103.251
43.6392
65.0811
43.2871
31.3432
26.8084
42.6133
25.7877
48.6138
25.6644
48.0304
26.6283
31.6947
40.4673
61.8928
101.523
31.4639
60.2168
42.6974
27.3646
41.3175
25.5322
46.4405
27.1993
25.7142
46.3528
30.9065
65.1641
101.706
43.2464
64.7268
31.1263
41.6557
27.7547
42.523
25.4756
48.9184
25.6012
48.2063
27.0362
32.0542
42.8373
63.8898
100.926
43.2516
31.0221
63.0983
27.2255
42.3594
25.4715
46.8846
25.4168
27.3398
48.0496
31.5609
65.7105
101.615
43.6118
43.1897
62.479
31.6458
54.9835
24.4723
35.0987
34.7719
34.5334
34.8705
56.0228
26.7673
24.9834
46.8995
39.7323
24.8913
46.4631
26.0865
30.8171
42.9069
99.0842
63.8693
41.3534
61.2583
30.5722
29.6126
63.6872
96.7819
42.7006
40.8702
60.4147
30.7902
26.6776
40.305
25.231
47.395
24.6075
44.999
26.1779
45.2963
60.6967
44.2928
60.8754
17.728
22.2494
22.1378
24.3866
17.7123
22.4657
22.1547
24.6479
17.7206
22.475
22.1563
24.6421
17.6982
22.5147
22.2447
24.7305
17.6804
22.4784
22.2598
24.7526
17.6585
22.4494
22.2092
24.8187
17.6536
22.4754
22.1921
24.7915
17.6614
22.4979
22.1427
24.7033
17.6867
22.4848
22.1728
24.7843
17.6902
22.4727
22.1743
24.6488
17.6722
22.5549
22.1532
24.696
17.6677
22.5681
22.2079
24.7594
17.6689
22.5401
22.149
24.6416
17.6633
22.4999
22.1947
24.778
17.6527
22.462
22.1589
24.7351
22.1218
24.7736
24.4817
22.0723
21.891
24.3972
22.5559
22.3414
22.1037
22.3773
24.2621
22.0176
21.8783
24.2154
23.8396
24.5652
22.1614
21.8607
22.2048
22.1219
24.1808
24.3975
22.4721
22.3841
22.5802
22.5094
22.4342
22.0953
22.6096
23.881
24.461
21.885
22.0461
22.1363
24.5818
24.3404
24.6334
22.0172
21.6588
22.2871
22.2443
23.8163
24.4971
22.0332
22.1377
22.4911
22.4107
22.3807
22.3333
22.4994
24.1771
24.4146
21.5661
22.0343
22.1787
24.5119
24.032
24.7667
21.9933
21.7745
22.32
22.2946
24.2705
24.5667
22.2166
21.92
22.4927
22.4913
22.2177
22.3897
22.5244
24.0409
24.4706
21.6754
22.0865
22.2498
24.3037
24.0809
24.7547
22.0209
22.0497
22.3125
22.243
24.3065
24.5165
21.918
21.9874
22.6058
22.5367
22.1659
22.3793
22.586
24.1456
24.5091
21.7462
21.866
22.2232
24.6485
24.5018
24.7402
22.0624
21.9658
22.3576
22.2405
24.1849
24.4971
22.4362
21.9856
22.5589
22.5619
22.0209
22.3299
22.6784
24.0414
24.4443
21.9689
21.886
22.1947
24.3882
24.4066
24.66
22.0628
21.996
22.3089
22.2293
24.0527
24.571
22.346
21.9913
22.5555
22.4782
22.4294
22.3793
22.6213
23.8459
24.5012
21.8388
22.1015
22.2293
24.7396
24.459
24.6393
22.1288
21.758
22.3097
22.3361
23.9384
24.6594
22.2352
22.2942
22.5744
22.4883
22.3158
22.0775
22.5764
24.2429
24.5127
21.8693
21.8907
22.2044
24.5761
24.1859
24.6415
22.0382
22.1467
22.2978
22.2457
24.4177
24.6282
22.0751
22.2462
22.6513
22.4937
22.3222
22.3778
22.5721
24.1566
24.5575
21.9752
21.7733
22.231
24.3832
24.0819
24.7249
22.0679
22.0641
22.3193
22.2652
24.3822
24.6558
22.4374
22.2615
22.652
22.4905
22.3005
22.3618
22.5776
24.3206
24.5215
22.1136
22.0843
22.2871
24.5063
24.4098
24.7144
21.8585
22.0238
22.3175
22.3087
24.0929
24.6631
22.3279
22.0107
22.6181
22.5013
22.2747
22.169
22.5549
24.2977
24.5752
21.9266
22.034
22.1802
24.5798
24.0509
24.8022
21.8327
21.9809
22.3027
22.238
24.3593
24.5697
22.3799
22.0691
22.6485
22.5024
22.0419
22.206
22.589
24.2731
24.4541
21.8443
21.8275
22.2346
24.343
24.1532
24.6805
21.8357
22.064
22.3551
22.2494
24.1144
24.5438
22.3913
21.8481
22.6194
22.5276
22.1969
22.1789
22.5493
24.046
24.5541
21.9216
22.0442
22.2761
24.5146
24.1455
24.6929
21.8451
21.7565
22.3775
22.3029
24.1667
24.5544
22.4064
22.3407
22.6001
22.4602
21.9238
22.3541
22.6221
24.2951
24.49
21.6568
21.8139
22.2804
24.3796
24.3729
24.6874
22.1799
21.801
22.3005
22.3389
24.1145
24.4983
22.2436
21.9328
22.5317
22.5682
22.4409
22.347
22.5879
23.8465
24.5568
22.1121
22.0713
22.2556
24.6288
24.0702
24.5209
21.81
22.0928
22.3663
22.039
24.0623
24.3179
22.2066
22.0463
22.2536
22.4496
22.1068
22.1968
22.45
23.8682
24.4274
21.7926
22.0194
22.2559
24.3331
24.2366
24.166
21.7754
21.9106
22.2922
24.6549
17.763
17.6372
17.6944
17.6159
107.953
293.185
111.344
292.471
412.817
412.519
114.197
295.146
113.719
295.309
17.6112
17.6817
17.6026
17.7388
17.5698
17.6282
17.5616
42.6707
103.299
19.5154
21.7996
42.2901
103.53
19.6237
413.729
414.12
40.6339
19.4624
101.522
21.8654
40.8436
19.4136
101.39
175.482
173.496
24.3867
175.278
172.856
109.131
293.964
109.698
293.198
412.523
412.983
114.522
295.53
114.992
295.652
17.5914
17.6126
17.5651
17.739
17.5808
17.5806
17.5564
43.4037
103.881
19.5139
21.9372
43.3374
103.822
19.6022
414.312
414.228
40.6868
19.5041
102.46
21.8431
40.5555
19.4277
101.833
177.057
174.951
24.5927
175.93
173.843
109.993
293.637
110.013
293.259
412.66
412.731
114.841
295.97
114.704
295.685
17.5957
17.5789
17.5811
17.7296
17.6021
17.5691
17.5719
43.6495
104.382
19.7336
22.1622
43.7723
104.255
19.6645
414.327
414.439
41.2768
19.5034
101.407
21.8756
40.9677
19.3659
101.858
176.659
174.289
24.6612
176.489
174.157
110.198
293.624
110.796
293.453
412.71
412.806
113.902
296.359
115.901
295.846
17.6223
17.5871
17.5795
17.7025
17.6015
17.5773
17.5717
43.819
104.877
19.8035
22.118
43.988
104.397
19.7089
414.555
414.541
41.5835
19.4972
102.348
22.0389
41.7874
19.4278
102.395
177.143
175.584
24.694
176.686
174.384
109.501
293.711
110.225
293.208
412.603
412.814
113.988
296.117
114.617
295.935
17.6041
17.586
17.5842
17.6729
17.5857
17.5618
17.5858
43.8437
104.256
19.8009
22.1118
43.7871
103.878
19.6911
414.127
414.38
41.1411
19.4231
102.708
22.1234
41.5981
19.4334
102.338
177.479
175.325
24.7321
176.619
174.796
109.507
293.289
110.426
293.321
412.679
412.862
113.896
296.13
114.403
295.964
17.6
17.5759
17.5997
17.666
17.5838
17.5543
17.5824
43.7986
104.225
19.7879
22.1361
44.1016
104.238
19.6939
414.149
414.361
40.7358
19.4923
101.385
22.0094
41.0107
19.3216
101.562
177.757
175.624
24.7538
176.357
174.415
110.337
293.406
110.256
293.382
412.818
412.843
114.53
296.503
115.065
295.879
17.5891
17.569
17.5911
17.6685
17.5749
17.5635
17.579
43.1867
104.054
19.7808
22.2053
43.4823
104.24
19.6687
414.435
414.511
41.1136
19.5014
102.039
21.9054
40.9222
19.4423
101.796
177.221
175.873
24.681
176.88
174.962
109.616
293.382
109.766
292.945
412.779
412.867
114.754
297.148
116.386
295.939
17.5969
17.5943
17.5989
17.7019
17.5935
17.6008
17.5938
42.9993
104.198
19.7658
22.1534
43.2568
104.167
19.6708
414.286
414.251
41.0218
19.4843
101.786
21.9827
41.6865
19.2971
101.747
177.124
174.689
24.6792
176.913
174.324
110.066
293.338
110.924
293.385
412.685
412.933
115.137
296.236
115.368
295.701
17.609
17.6321
17.6149
17.7063
17.5974
17.612
17.5952
43.5552
104.799
19.7786
22.0521
43.6404
104.691
19.6721
414.294
414.318
41.0462
19.4975
102.07
21.9863
41.3952
19.4374
101.774
177.138
175.801
24.6763
176.743
174.732
110.035
293.928
111.033
293.351
412.593
412.955
115.428
296.988
115.998
296.203
17.6104
17.6243
17.6042
17.6843
17.5922
17.6123
17.5932
43.1224
104.833
19.7376
21.8753
43.4583
104.721
19.6753
414.167
414.361
41.0236
19.49
101.487
21.828
41.3274
19.4008
100.928
177.598
175.653
24.6407
176.388
174.789
109.783
293.435
111.03
292.563
412.757
412.913
114.877
295.633
115.781
295.818
17.616
17.6307
17.6035
17.6874
17.6142
17.6233
17.5972
43.5083
104.721
19.7447
21.9886
43.5372
104.386
19.709
414.248
414.321