/*--------------------------------*- C++ -*----------------------------------*\
| =========                 |                                                 |
| \\      /  F ield         | OpenFOAM: The Open Source CFD Toolbox           |
|  \\    /   O peration     | Version:  2206                                  |
|   \\  /    A nd           | Website:  www.openfoam.com                      |
|    \\/     M anipulation  |                                                 |
\*---------------------------------------------------------------------------*/
FoamFile
{
    version     2.0;
    format      ascii;
    arch        "LSB;label=32;scalar=64";
    class       surfaceScalarField;
    location    "60";
    object      phi;
}
// * * * * * * * * * * * * * * * * * * * * * * * * * * * * * * * * * * * * * //

dimensions      [0 3 -1 0 0 0 0];

oriented        oriented;

internalField   nonuniform List<scalar> 
196294
(
-9.88101e-12
8.29914e-11
1.07484e-11
4.61598e-12
1.46115e-08
4.68278e-11
-1.07647e-14
-4.1967e-12
-1.08853e-11
-2.10041e-08
2.09724e-08
-5.81e-13
9.43847e-12
3.43644e-12
-1.4531e-08
4.09933e-12
1.45146e-08
-4.68562e-11
-2.33353e-13
-1.00688e-11
8.97168e-11
-2.43967e-08
2.43642e-08
-1.09284e-11
-9.92015e-12
1.37024e-11
2.46043e-11
2.21369e-08
8.35127e-12
-5.72677e-12
9.34918e-11
-1.26485e-10
1.25686e-10
-9.54443e-11
1.13843e-07
6.87112e-13
1.61933e-12
-7.29113e-09
5.76056e-12
7.28306e-09
-1.34131e-13
-1.35172e-11
2.01448e-11
-4.86346e-12
-2.49583e-08
2.49567e-08
-1.95714e-12
4.30841e-11
-4.53015e-13
1.40726e-12
-2.87774e-11
2.49018e-11
-1.60978e-12
-4.33593e-11
-1.57585e-11
1.83421e-11
1.12095e-07
-3.7321e-11
2.6647e-12
1.50888e-13
2.50497e-12
-2.98152e-12
-2.12449e-12
1.13291e-07
-1.81493e-12
-2.14396e-12
6.01578e-12
-2.25228e-08
8.45172e-12
2.25123e-08
-2.81454e-11
-4.34591e-11
-2.68134e-08
-4.605e-11
-2.9881e-11
2.69609e-08
7.3035e-12
-1.49688e-12
-1.75074e-12
-2.33039e-08
2.05143e-11
2.32793e-08
2.03971e-12
2.87953e-13
8.56292e-13
-2.34341e-08
1.269e-11
2.34183e-08
2.85925e-11
6.46555e-12
7.32826e-09
1.28217e-12
-7.28974e-09
5.939e-12
7.28194e-09
-4.07501e-11
-3.39926e-11
-2.68009e-08
-3.70126e-11
-3.84166e-11
2.69511e-08
5.55392e-11
-1.91627e-11
1.22566e-10
2.34219e-08
6.94103e-12
-1.78797e-12
-2.3124e-08
2.07096e-11
2.30994e-08
1.00055e-09
-3.5993e-11
-9.73732e-11
1.28837e-11
-3.38983e-10
-4.34258e-10
1.13012e-07
7.09402e-11
2.00859e-10
2.22534e-08
-1.99775e-12
-4.5154e-11
-7.70006e-12
2.3218e-08
7.77615e-13
5.44489e-12
7.28617e-09
-1.13217e-13
-1.012e-11
8.97224e-11
-2.4397e-08
2.43644e-08
1.5931e-10
-9.23687e-11
-3.74958e-11
-3.15065e-11
3.10574e-11
5.6673e-11
-5.63007e-11
5.41727e-11
-5.57523e-11
1.11062e-07
1.33915e-11
-2.21477e-08
2.64392e-11
2.21243e-08
3.41662e-11
-8.71047e-11
9.33281e-11
-1.26789e-10
1.25627e-10
-9.38696e-11
1.1408e-07
4.68438e-11
-1.09345e-11
-4.187e-12
-2.10004e-08
2.09686e-08
9.75222e-12
3.34423e-12
-1.45308e-08
4.02794e-12
1.45144e-08
8.97596e-11
-1.0026e-11
-2.43934e-08
2.43604e-08
-6.09171e-13
2.78466e-11
-2.26639e-12
3.68159e-11
-5.3322e-11
-3.8077e-11
5.30893e-11
-2.74197e-11
-3.28415e-11
2.74478e-11
1.1217e-07
-7.26453e-12
7.66071e-11
-1.26221e-10
1.25308e-10
-7.72637e-11
1.15112e-07
-7.20318e-12
1.34753e-11
-2.2132e-08
2.66979e-11
2.21088e-08
-8.39924e-14
-4.2493e-12
-1.12613e-11
2.09745e-08
3.38531e-12
3.96324e-12
1.45212e-08
-4.67664e-11
8.96782e-11
-1.01441e-11
-2.4395e-08
2.4362e-08
4.70065e-13
-2.68575e-12
-2.78259e-11
-2.86581e-11
2.72249e-11
3.67161e-11
-5.57881e-11
5.32678e-11
-3.79721e-11
1.1217e-07
-5.93908e-12
7.66183e-11
-1.26132e-10
1.25361e-10
-7.71831e-11
1.15086e-07
-9.75069e-12
1.34928e-11
-2.21449e-08
2.6747e-11
2.21217e-08
-1.12207e-11
-4.30845e-12
2.09702e-08
-7.23335e-13
3.30223e-12
3.8932e-12
1.45125e-08
-2.68072e-08
-3.98009e-11
-3.61925e-11
2.69541e-08
-1.00585e-11
-2.31771e-08
1.54817e-11
2.31661e-08
5.03246e-13
9.07257e-12
-2.35613e-08
1.84873e-11
2.35314e-08
-1.0257e-12
-7.43388e-09
5.98675e-12
7.42943e-09
-1.38033e-11
2.01543e-11
-4.74389e-12
-2.49616e-08
2.49599e-08
-1.46977e-12
2.03498e-13
-4.36254e-11
-2.00803e-11
1.84549e-11
1.06144e-12
-2.63454e-11
2.45019e-11
-1.3899e-12
1.12139e-07
1.45068e-12
1.34885e-13
2.5269e-12
-2.668e-12
-1.73608e-12
1.13232e-07
-2.36857e-12
6.09046e-12
-2.25163e-08
8.20327e-12
2.25064e-08
2.57724e-14
-1.94165e-12
-9.10254e-13
-2.1645e-08
2.16343e-08
1.33823e-12
-1.48572e-08
4.08487e-12
1.48487e-08
-1.87741e-12
-7.23312e-13
-2.1649e-08
2.16379e-08
9.48104e-13
1.40077e-12
-1.48609e-08
4.08607e-12
1.48521e-08
5.70312e-12
7.28237e-09
-7.43423e-09
5.97198e-12
7.4295e-09
-2.28215e-11
1.4869e-10
2.22897e-08
7.95334e-12
6.04069e-09
-8.03907e-12
-9.24188e-13
1.06466e-08
9.33602e-13
-3.27039e-12
-2.00475e-08
-7.9276e-12
-6.19397e-12
3.81324e-11
2.00193e-08
-1.294e-08
-7.32731e-13
-2.02583e-14
3.82938e-12
1.29261e-08
4.21297e-12
1.09821e-11
-7.16099e-14
-4.6077e-11
5.88342e-12
-3.72748e-11
-7.00895e-14
-3.15279e-12
-1.10291e-12
3.4421e-12
1.06356e-08
3.57219e-13
6.01075e-09
-5.96743e-12
-2.21545e-08
1.6177e-12
2.34103e-11
2.21268e-08
-3.24227e-12
7.48057e-13
-9.32831e-12
-3.5613e-12
-2.35436e-11
6.74044e-12
6.00454e-09
-8.55685e-13
-2.07394e-12
-5.12415e-12
1.27252e-12
1.57492e-12
1.65287e-08
-1.14545e-11
-1.1172e-11
-6.04098e-09
1.27925e-12
-5.42858e-13
5.43718e-12
6.03481e-09
-6.07952e-09
1.54844e-12
-1.48565e-12
5.43744e-12
6.07402e-09
1.63013e-13
-5.21843e-12
1.00965e-12
-5.13913e-12
1.13081e-11
1.12751e-11
1.65089e-08
-2.14494e-11
6.0161e-12
2.08557e-08
-1.75642e-11
-1.40091e-08
6.16349e-12
3.86246e-12
1.39968e-08
-2.01089e-11
2.03211e-12
-7.54051e-12
-2.42607e-08
-2.12107e-11
4.15201e-11
3.25374e-11
2.42284e-08
-4.0941e-11
-3.26607e-11
-3.41288e-12
1.7604e-11
2.08344e-08
-1.75376e-11
3.97156e-12
1.99799e-08
-1.25174e-11
-1.39122e-08
3.94383e-12
3.95789e-12
1.39037e-08
-1.26262e-11
-6.0081e-13
5.88528e-13
-1.93288e-12
-2.36602e-08
-1.79793e-11
2.7213e-11
2.37948e-11
2.36399e-08
-2.75329e-11
-2.28425e-11
-3.4024e-12
1.19935e-11
1.99651e-08
-2.14609e-12
-4.94426e-12
2.21782e-12
1.94538e-12
1.65275e-08
-9.7871e-12
-1.25734e-11
-6.07479e-09
2.45353e-12
-1.58236e-12
4.8835e-12
6.06903e-09
-6.04425e-09
2.19123e-12
-2.32042e-13
4.65749e-12
6.03763e-09
9.9715e-13
-4.60179e-12
-2.08265e-13
-4.52913e-12
1.07909e-11
1.24171e-11
1.6509e-08
4.34489e-12
2.09442e-08
-1.59867e-11
-1.41421e-08
3.96901e-11
3.84855e-12
1.40778e-08
-4.82236e-11
1.47154e-10
1.44689e-10
2.43697e-08
-2.99683e-12
1.55883e-11
2.09309e-08
6.52624e-12
1.98947e-08
-2.22932e-11
-1.36009e-11
-1.37798e-08
6.93535e-12
3.72009e-12
1.37671e-08
2.25849e-12
-2.02537e-11
-7.34109e-12
-2.17698e-11
-2.34649e-08
3.88042e-11
3.26085e-11
2.3436e-08
-3.21383e-12
1.48337e-11
1.98775e-08
-3.77149e-11
-3.29151e-11
-5.46794e-11
5.81263e-11
4.16083e-12
6.03808e-09
2.53235e-10
1.65244e-08
-7.03403e-11
3.32531e-12
1.39716e-08
-1.59811e-10
5.49172e-11
2.37925e-08
2.0655e-08
-7.64463e-13
-8.30052e-12
1.06444e-08
9.97063e-13
-3.15271e-12
-1.29385e-08
-7.71866e-13
3.77426e-12
1.29245e-08
-2.00399e-08
-7.81982e-12
-6.03652e-12
3.79253e-11
2.00117e-08
1.09908e-11
4.07663e-12
-4.6095e-11
-3.15619e-12
6.00985e-12
-3.76889e-11
-9.88752e-13
3.50359e-12
1.06333e-08
3.95611e-13
6.00923e-09
-5.91381e-12
-2.21467e-08
1.38813e-12
2.3546e-11
2.21191e-08
-3.28507e-12
-9.61295e-12
-3.52826e-12
-2.35277e-11
6.63436e-12
6.003e-09
-8.08044e-12
-6.09451e-12
3.79363e-11
2.00222e-08
-8.42642e-13
-1.04467e-13
3.44123e-12
1.29291e-08
-1.02639e-12
3.40747e-12
1.06391e-08
1.41858e-12
2.34176e-11
2.21331e-08
6.5802e-12
6.00712e-09
-9.66846e-13
3.469e-12
1.29243e-08
-8.12799e-12
-6.12231e-12
3.78613e-11
2.00124e-08
-1.01273e-12
3.45587e-12
1.06313e-08
1.13632e-12
2.35502e-11
2.21185e-08
6.53735e-12
6.00146e-09
3.28982e-12
-4.8379e-13
1.65355e-08
2.2414e-12
-2.5848e-11
-6.04482e-09
-2.03802e-11
2.11291e-11
4.9349e-12
6.03913e-09
-6.07628e-09
2.28499e-11
-2.39734e-11
5.85675e-12
6.07155e-09
2.09661e-12
-5.06128e-12
-8.81515e-13
-5.28999e-12
1.17485e-10
-1.01325e-10
1.65218e-08
7.66229e-12
-1.88453e-11
1.99241e-08
-3.25969e-11
-1.37722e-08
-1.93924e-11
3.24159e-12
1.37994e-08
1.90874e-12
-1.99092e-11
-7.49344e-12
-2.38354e-08
-6.54542e-11
3.60611e-11
8.91285e-12
2.38713e-08
-3.38963e-12
-3.25167e-11
-4.18665e-11
-1.13149e-10
2.00699e-08
-2.06009e-11
2.5453e-12
2.09255e-08
1.73391e-12
-1.41531e-08
2.95431e-11
4.47574e-12
1.41042e-08
-1.34194e-11
-2.03238e-13
6.39454e-13
-1.89541e-12
-2.40901e-08
2.6907e-11
1.96124e-11
6.11143e-11
2.4001e-08
-2.30048e-11
-2.65652e-11
-3.45283e-12
1.38855e-10
2.07418e-08
1.00434e-12
-4.94007e-12
-2.00595e-14
-4.10416e-13
1.09796e-08
3.46702e-14
-3.08406e-12
-2.06304e-08
1.70646e-13
-2.75582e-12
1.10297e-11
2.062e-08
-1.3364e-08
-2.36385e-13
6.19392e-14
3.42639e-12
1.33598e-08
1.78625e-12
1.09634e-12
1.86129e-14
-1.29643e-11
2.47175e-12
-1.02444e-11
1.86999e-14
-2.77309e-12
-1.18822e-13
3.23218e-12
1.09764e-08
3.61567e-12
6.1877e-09
-5.94931e-12
-2.27329e-08
4.81519e-12
6.77573e-12
2.27199e-08
-1.20554e-12
-2.0779e-12
-3.63952e-12
-7.16614e-12
6.73614e-12
6.18567e-09
-5.67214e-14
-4.54985e-13
1.09849e-08
1.31889e-13
-2.99445e-12
-2.0639e-08
1.84199e-13
-2.66005e-12
1.12277e-11
2.06284e-08
-1.33665e-08
-1.61174e-13
3.43027e-12
1.33625e-08
1.90511e-12
8.6269e-13
-1.31928e-11
2.57999e-12
-1.05451e-11
-2.80323e-12
-8.20326e-14
3.2168e-12
1.09818e-08
3.4574e-12
6.19159e-09
-5.88384e-12
-2.27432e-08
4.53595e-12
6.8165e-12
2.27306e-08
-1.31778e-12
-9.12837e-13
-2.20586e-12
-3.61943e-12
-7.11403e-12
6.65448e-12
6.1894e-09
-5.01095e-12
-1.77748e-10
4.19992e-10
1.17348e-07
2.91492e-10
-4.11379e-10
1.2548e-07
-3.44868e-10
3.86987e-11
1.20404e-07
-3.4952e-10
6.67589e-12
1.30602e-07
3.77201e-10
-6.07968e-12
1.17196e-07
6.80641e-13
1.25488e-07
7.88214e-12
9.86917e-12
1.19638e-07
4.64985e-12
1.29926e-07
-4.95463e-12
-1.29935e-12
1.16961e-07
-2.6852e-12
1.23407e-07
2.40815e-11
-3.90027e-10
1.17982e-07
-3.58244e-10
1.30859e-07
-1.45303e-11
5.8499e-12
1.16987e-07
3.73441e-12
1.23371e-07
-1.85672e-11
1.17195e-07
1.30041e-07
6.93719e-11
-1.76602e-11
2.5621e-08
-2.381e-08
6.9815e-11
-1.35547e-11
2.37816e-08
-2.63819e-08
-1.77366e-11
-7.07031e-12
2.63699e-08
1.01734e-11
-8.96321e-11
-8.80122e-14
6.79868e-12
2.60947e-11
2.55515e-08
4.59401e-11
2.37157e-08
3.83028e-11
2.49966e-08
2.5872e-08
-5.68858e-12
1.43097e-11
2.5954e-08
-5.2974e-11
-2.6817e-08
-6.27883e-12
-4.39343e-13
2.68464e-08
-2.42969e-08
1.5317e-11
-5.28409e-12
2.4293e-08
-2.00233e-11
4.44893e-12
1.39059e-14
1.24451e-13
4.63266e-12
5.26409e-11
2.59083e-08
2.18213e-11
1.09245e-11
2.6158e-08
-2.42011e-08
9.94672e-12
2.41987e-08
-7.90837e-12
-6.09077e-12
-2.5321e-08
2.2046e-11
2.52983e-08
2.6241e-08
-1.87829e-11
-2.06624e-11
2.34295e-08
4.68337e-11
3.17035e-11
-2.58617e-08
-1.78817e-11
2.58464e-08
-2.48117e-08
-2.05469e-11
2.48095e-08
2.34207e-08
2.34201e-08
-1.50433e-11
-2.34012e-11
3.93822e-11
3.78168e-11
-1.6287e-11
-2.5952e-08
2.59811e-08
-2.1767e-11
-2.47192e-08
2.47098e-08
2.34125e-08
3.01298e-10
2.38517e-08
1.65553e-10
2.51569e-08
2.59808e-08
6.94124e-11
-1.75516e-11
2.56226e-08
-2.56643e-11
-2.38104e-08
6.97463e-11
-1.35099e-11
2.37822e-08
-2.63826e-08
-1.7806e-11
-6.89562e-12
2.63702e-08
1.00947e-11
-8.98867e-11
-7.54942e-14
1.36431e-11
6.88511e-12
2.24971e-11
2.55582e-08
4.62668e-11
3.7245e-11
2.58197e-08
-2.37367e-08
4.539e-11
2.37146e-08
-1.40422e-11
-2.588e-11
-2.49853e-08
3.6744e-11
2.49513e-08
2.58686e-08
-2.08527e-11
6.95357e-11
2.56216e-08
2.85402e-11
-2.63801e-08
-2.06577e-11
2.63574e-08
-2.3801e-08
6.87749e-11
-1.62463e-11
2.37763e-08
-8.99585e-11
1.00439e-11
1.66588e-11
-2.78528e-11
2.56203e-08
4.56622e-11
2.57911e-08
4.0319e-11
-2.37243e-08
4.52302e-11
2.36999e-08
-1.40686e-11
-2.60101e-11
4.00063e-11
-2.49885e-08
2.4958e-08
2.58105e-08
-2.07499e-11
6.93069e-11
2.56234e-08
2.84462e-11
-2.63806e-08
-2.07471e-11
2.63578e-08
-2.38033e-08
6.84116e-11
-1.64426e-11
2.37791e-08
-9.00559e-11
1e-11
1.65169e-11
-2.80255e-11
2.56219e-08
4.02782e-11
4.52923e-11
2.57966e-08
-2.37283e-08
4.49425e-11
2.3704e-08
-2.59556e-11
-1.39918e-11
-2.50441e-08
3.99065e-11
2.50077e-08
2.58154e-08
-2.20941e-11
-1.74244e-11
2.34105e-08
3.23204e-11
4.5988e-11
-2.57993e-08
-6.23461e-11
2.57979e-08
-2.4848e-08
2.34968e-11
2.48337e-08
2.33974e-08
-5.7239e-12
1.43123e-11
2.59591e-08
-5.30952e-11
-2.68205e-08
-6.12119e-12
2.68489e-08
-2.43032e-08
1.5249e-11
-5.24501e-12
2.42997e-08
-2.00203e-11
4.56362e-12
4.68785e-12
5.26248e-11
2.59139e-08
2.14894e-11
1.08858e-11
2.61611e-08
-2.4207e-08
1.00097e-11
2.42047e-08
-7.61152e-12
-6.0749e-12
-2.52716e-08
2.20311e-11
2.52552e-08
2.62444e-08
2.3259e-12
2.88777e-13
-1.20699e-13
2.55851e-09
1.0546e-12
2.05035e-13
-9.88367e-14
1.38072e-09
3.80303e-13
1.27887e-13
-4.98813e-14
6.78912e-10
6.96243e-14
6.75754e-14
-1.54013e-14
2.80642e-10
1.35531e-14
-7.74462e-15
6.65377e-11
2.26994e-12
-1.50191e-13
-2.55715e-09
3.06317e-13
2.55882e-09
1.10118e-12
-4.92595e-14
-1.38001e-09
1.43801e-13
1.38106e-09
4.55927e-13
-2.00145e-14
-6.78506e-10
5.88232e-14
6.79073e-10
1.38402e-13
-1.16356e-14
-2.80399e-10
1.78496e-14
2.80663e-10
2.46075e-15
-6.64413e-11
5.73641e-15
6.65373e-11
3.12077e-12
1.22541e-13
-4.78339e-09
-8.26934e-14
4.786e-09
1.45189e-12
1.86079e-14
-2.57627e-09
-4.60484e-14
2.57798e-09
5.57056e-13
-8.98619e-15
-1.26722e-09
-1.91552e-14
1.26815e-09
1.3949e-13
-1.13397e-14
-5.24693e-10
-6.45307e-15
5.25135e-10
-4.20557e-15
-1.24801e-10
-1.74846e-15
1.24951e-10
3.38601e-12
3.27021e-13
4.7847e-09
1.58799e-12
1.87496e-13
2.57706e-09
6.34118e-13
8.46334e-14
1.26757e-09
1.79176e-13
2.5442e-14
5.24876e-10
9.92491e-15
1.24938e-10
3.20992e-12
-4.7824e-09
-7.52977e-14
4.78509e-09
1.47145e-12
-2.57568e-09
-3.68319e-14
2.57748e-09
5.26749e-13
-1.26689e-09
-8.7057e-15
1.26791e-09
8.90864e-14
-5.2449e-10
4.77127e-15
5.25005e-10
-1.24754e-10
-2.85434e-15
1.24909e-10
2.94384e-12
1.4078e-13
-9.37659e-14
4.7874e-09
1.35506e-12
3.75822e-14
-6.29631e-14
2.57876e-09
5.09156e-13
4.21492e-15
-2.73659e-14
1.26852e-09
1.19643e-13
-3.19037e-15
-7.83764e-15
5.25265e-10
-3.75502e-15
-2.82249e-15
1.25e-10
2.22909e-12
-2.55753e-09
2.6634e-13
2.55919e-09
1.06423e-12
-1.38028e-09
1.2285e-13
1.38135e-09
4.15267e-13
-6.78597e-10
5.32605e-14
6.79189e-10
1.01611e-13
-2.8046e-10
2.03599e-14
2.80747e-10
-6.64449e-11
4.63408e-15
6.65417e-11
2.19673e-12
2.66588e-13
2.55989e-09
1.05552e-12
1.21154e-13
1.38168e-09
4.17607e-13
5.049e-14
6.79388e-10
1.05196e-13
1.83674e-14
2.80822e-10
3.57597e-15
6.65739e-11
2.15204e-12
-1.13509e-13
2.46491e-13
2.55861e-09
1.02073e-12
-1.38176e-14
1.16155e-13
1.38092e-09
3.89972e-13
1.40738e-14
5.44837e-14
6.78989e-10
8.6599e-14
1.73991e-14
2.42978e-14
2.80672e-10
3.094e-15
4.34955e-15
6.65455e-11
3.25686e-12
-1.00816e-13
1.80749e-13
-4.78073e-09
4.78338e-09
1.52192e-12
-1.05209e-13
1.10765e-13
-2.57478e-09
2.57652e-09
5.85581e-13
-6.87928e-14
5.17132e-14
-1.26653e-09
1.26749e-09
1.44399e-13
-3.53309e-14
1.89927e-14
-5.24381e-10
5.2485e-10
-9.64978e-15
3.14607e-15
-1.24742e-10
1.24902e-10
2.25155e-12
-2.55519e-09
5.32884e-14
2.55687e-09
1.08834e-12
-1.37905e-09
-3.63978e-15
1.38011e-09
4.32743e-13
-6.78026e-10
-1.05593e-14
6.78624e-10
1.06795e-13
-2.80204e-10
-6.01008e-15
2.80501e-10
-6.63992e-11
-2.58372e-15
6.65001e-11
2.25082e-12
9.19945e-14
-2.55595e-09
6.57128e-14
2.55763e-09
1.08994e-12
9.95353e-14
-1.37945e-09
2.30148e-15
1.3805e-09
4.42582e-13
6.25469e-14
-6.78224e-10
-9.37491e-15
6.78803e-10
1.21927e-13
2.88003e-14
-2.80314e-10
-7.28567e-15
2.80595e-10
1.01177e-14
-6.64146e-11
-1.94307e-15
6.65149e-11
3.11393e-12
-1.08558e-13
4.78526e-09
1.45513e-12
-7.26928e-14
2.57748e-09
5.68049e-13
-4.81857e-14
1.26789e-09
1.55407e-13
-2.84501e-14
5.25022e-10
-5.65655e-15
1.24928e-10
3.24256e-12
1.82927e-13
-4.78093e-09
4.78359e-09
1.50476e-12
1.14853e-13
-2.57502e-09
2.57678e-09
5.6593e-13
6.28869e-14
-1.26653e-09
1.26751e-09
1.25778e-13
2.94723e-14
-5.24393e-10
5.24878e-10
5.29986e-15
-1.24719e-10
1.24879e-10
-1.9076e-12
-2.03503e-13
2.92806e-09
2.69031e-13
-9.62645e-13
-1.14582e-13
1.57995e-09
1.5487e-13
-4.07733e-13
-5.72841e-14
7.77197e-10
8.71971e-14
-1.21178e-13
-2.24669e-14
3.21471e-10
4.37554e-14
-7.86191e-15
7.63035e-11
9.09816e-15
2.1252e-12
-3.20067e-09
-1.83344e-13
-4.55326e-15
3.20257e-09
1.00656e-12
-1.72618e-09
-1.09762e-13
1.55376e-15
1.72742e-09
3.82654e-13
-8.49412e-10
-5.61619e-14
6.20017e-15
8.50107e-10
8.41361e-14
-3.51604e-10
-2.26612e-14
7.40097e-15
3.51942e-10
-8.35786e-11
-7.21372e-15
-1.25954e-16
8.36876e-11
-1.78597e-12
-3.34834e-14
-8.83239e-13
-2.60779e-14
-3.60633e-13
-1.904e-14
-9.34345e-14
-1.20229e-14
-1.29273e-15
1.93564e-12
-3.95321e-13
2.92976e-09
9.36824e-13
-2.31287e-13
1.58105e-09
3.73251e-13
-1.25892e-13
7.7781e-10
9.85984e-14
-5.84647e-14
3.21764e-10
-1.46726e-14
7.64043e-11
-2.00403e-12
5.99727e-14
-1.76388e-13
-9.9668e-13
-2.60209e-15
-5.9242e-14
-4.23706e-13
-1.79204e-15
-8.27638e-15
-1.3107e-13
4.9855e-15
7.57796e-15
-5.25354e-15
-9.57412e-16
-2.84487e-12
-9.43807e-14
5.28265e-14
-1.36931e-12
-1.02419e-14
3.90715e-14
-5.49535e-13
6.86635e-15
2.74478e-14
-1.46681e-13
7.50565e-15
1.55318e-14
3.05975e-15
4.61799e-15
2.06698e-12
-2.54001e-09
6.75405e-14
2.54165e-09
9.70949e-13
-1.37058e-09
2.54755e-14
1.37161e-09
3.63827e-13
-6.73886e-10
1.98609e-14
6.74471e-10
7.52615e-14
-2.78485e-10
1.49076e-14
2.78777e-10
-6.60022e-11
2.39077e-15
6.60967e-11
-1.86869e-12
-6.41517e-14
-9.15242e-13
-2.86275e-14
-3.64369e-13
-2.07637e-14
-8.39345e-14
-1.60123e-14
7.67775e-18
2.13474e-12
-2.53917e-09
3.70682e-13
2.5408e-09
1.03549e-12
-1.37018e-09
1.96669e-13
1.37118e-09
4.22498e-13
-6.73693e-10
9.86593e-14
6.74243e-10
1.18501e-13
-2.78422e-10
3.97544e-14
2.78687e-10
-6.59838e-11
1.23858e-14
6.60784e-11
-1.86676e-12
1.74671e-13
-2.9676e-13
-9.31325e-13
9.21475e-14
-1.35708e-13
-3.94516e-13
4.51479e-14
-5.35261e-14
-1.16199e-13
2.11107e-14
-1.45035e-14
1.31499e-15
-5.86793e-15
-2.75368e-12
6.793e-14
-1.32346e-12
3.34411e-14
-5.21447e-13
5.30791e-15
-1.18623e-13
-8.62284e-15
4.68166e-15
2.12175e-12
-7.22474e-14
4.57882e-09
9.54029e-13
-1.18679e-14
2.46629e-09
3.62135e-13
-8.16542e-16
1.21284e-09
9.27119e-14
2.77413e-16
5.01898e-10
-9.19654e-16
1.19343e-10
1.7485e-12
2.54263e-09
8.21104e-13
1.37199e-09
3.21823e-13
6.74611e-10
8.28185e-14
2.78844e-10
6.61195e-11
-1.83361e-12
-1.46486e-13
2.92778e-09
2.62774e-13
-9.14001e-13
-8.80861e-14
1.57977e-09
1.42508e-13
-3.69191e-13
-5.28754e-14
7.77058e-10
7.1612e-14
-9.00532e-14
-2.86901e-14
3.2143e-10
2.97146e-14
-5.52134e-15
7.62947e-11
8.87912e-15
2.09284e-12
-3.20035e-09
-1.98214e-13
3.20223e-09
9.94341e-13
-1.72602e-09
-1.22011e-13
1.72723e-09
3.91301e-13
-8.49339e-10
-6.89626e-14
8.50004e-10
1.05996e-13
-3.5158e-10
-3.3374e-14
3.51893e-10
-8.35695e-11
-7.60113e-15
8.3677e-11
-1.77792e-12
-8.74404e-13
-3.54936e-13
-9.62473e-14
1.97109e-12
-3.54739e-13
2.92948e-09
9.51724e-13
-2.00271e-13
1.58089e-09
3.7333e-13
-1.01877e-13
7.77689e-10
9.04676e-14
-4.22384e-14
3.21739e-10
-1.26463e-14
7.63958e-11
-1.97291e-12
-2.18787e-13
-9.65774e-13
-1.01449e-13
-3.89433e-13
-4.59194e-14
-9.74099e-14
-2.04303e-14
-2.96207e-15
1.90438e-12
-1.96816e-13
-2.71275e-14
3.20333e-09
9.0342e-13
-1.24755e-13
-1.36899e-14
1.72777e-09
3.51599e-13
-6.96952e-14
-5.74687e-15
8.50129e-10
8.9705e-14
-3.18891e-14
-1.72238e-15
3.52033e-10
-8.79053e-15
-3.77587e-16
8.36809e-11
1.92345e-12
-3.66992e-13
2.93077e-09
9.27019e-13
-2.14303e-13
1.58153e-09
3.66306e-13
-1.1569e-13
7.77994e-10
9.50194e-14
-5.29153e-14
3.21873e-10
-1.37074e-14
7.64116e-11
1.92357e-12
-2.34912e-13
3.20198e-09
9.17477e-13
-1.45788e-13
1.72714e-09
3.61629e-13
-8.22155e-14
8.49861e-10
9.61439e-14
-3.96127e-14
3.51872e-10
-9.3317e-15
8.36524e-11
1.952e-12
-3.56101e-13
2.92873e-09
9.40176e-13
-2.0256e-13
1.5805e-09
3.67401e-13
-1.03164e-13
7.77495e-10
8.78039e-14
-4.22721e-14
3.21649e-10
-1.33046e-14
7.63656e-11
3.32416e-12
-4.19555e-13
2.72991e-13
-4.57568e-09
4.57836e-09
1.5875e-12
-2.21329e-13
1.67304e-13
-2.46451e-09
2.46631e-09
6.21601e-13
-1.17613e-13
9.49317e-14
-1.21179e-09
1.21278e-09
1.56144e-13
-5.30914e-14
4.52034e-14
-5.0141e-10
5.01889e-10
-1.3442e-14
1.20809e-14
-1.19189e-10
1.19351e-10
2.38757e-12
-2.53972e-09
2.54158e-09
1.1436e-12
-1.37033e-09
1.37147e-09
4.49771e-13
-6.73755e-10
6.74386e-10
1.11351e-13
-2.78448e-10
2.78755e-10
-6.60112e-11
6.61142e-11
-1.91821e-12
1.65857e-13
-2.49903e-13
-9.54448e-13
7.74e-14
-1.18556e-13
-3.9353e-13
2.94377e-14
-5.42566e-14
-1.0351e-13
8.12018e-15
-2.19692e-14
5.49727e-16
-4.97618e-15
-2.71271e-12
1.85332e-13
-1.30192e-12
1.48885e-13
-5.24081e-13
8.77399e-14
-1.39252e-13
4.22897e-14
1.13061e-14
-1.75306e-12
-1.58054e-13
2.92564e-09
2.04108e-13
-8.85253e-13
-1.01314e-13
1.57868e-09
1.23156e-13
-3.68876e-13
-6.45538e-14
7.76529e-10
7.09925e-14
-9.32372e-14
-3.5481e-14
3.21205e-10
3.38242e-14
-8.16517e-15
7.62326e-11
1.00627e-14
1.84117e-12
-3.19888e-09
-1.28815e-13
2.15393e-14
3.20058e-09
8.77708e-13
-1.72529e-09
-8.24928e-14
1.2855e-14
1.72632e-09
3.51338e-13
-8.48983e-10
-4.93481e-14
5.3141e-15
8.49554e-10
9.59428e-14
-3.51424e-10
-2.51211e-14
5.7768e-16
3.51704e-10
-8.35225e-11
-6.28955e-15
1.14468e-15
8.36235e-11
-1.49372e-12
-2.48306e-15
-7.35495e-13
-1.43255e-15
-3.08085e-13
4.01374e-16
-8.85004e-14
9.97901e-16
-9.65324e-17
1.78591e-12
-2.66194e-13
2.92723e-09
8.73856e-13
-1.51443e-13
1.57967e-09
3.53037e-13
-8.35277e-14
7.77093e-10
8.98149e-14
-3.87292e-14
3.2149e-10
-1.17816e-14
7.63308e-11
-2.01038e-12
-5.74469e-15
-9.89714e-13
2.26874e-14
-4.04104e-13
1.84295e-14
-1.01977e-13
8.53695e-15
2.62614e-15
-1.67469e-12
-1.73468e-13
2.92699e-09
2.3165e-13
-8.33269e-13
-1.07712e-13
1.57936e-09
1.44021e-13
-3.49754e-13
-6.12624e-14
7.7688e-10
8.7258e-14
-1.023e-13
-2.76935e-14
3.2138e-10
4.51508e-14
-9.60076e-15
7.62642e-11
1.09151e-14
1.84745e-12
-3.19963e-09
-1.02551e-13
3.20134e-09
8.82062e-13
-1.72561e-09
-6.66159e-14
1.72667e-09
3.49716e-13
-8.49107e-10
-3.96764e-14
8.49693e-10
8.82001e-14
-3.51524e-10
-1.94684e-14
3.51815e-10
-8.35393e-11
-5.66719e-15
8.36403e-11
-1.51147e-12
-7.46075e-13
-3.11161e-13
-8.29275e-14
1.7598e-12
-2.41014e-13
2.92859e-09
8.54995e-13
-1.3868e-13
1.58034e-09
3.45866e-13
-7.83172e-14
7.77426e-10
9.16827e-14
-3.72828e-14
3.2165e-10
-1.12178e-14
7.63608e-11
-2.00222e-12
-1.47103e-13
-3.87095e-14
-9.8974e-13
-1.19451e-13
5.65924e-15
-4.13181e-13
-6.50306e-14
1.34296e-14
-1.17432e-13
-2.66006e-14
1.00523e-14
-1.02071e-14
1.14832e-15
-2.74723e-12
-1.32426e-12
-5.37598e-13
-1.39894e-13
3.02064e-12
-1.61344e-13
-4.57513e-09
4.57776e-09
1.4463e-12
-1.01721e-13
-2.46449e-09
2.46616e-09
5.88562e-13
-5.94426e-14
-1.21176e-09
1.21264e-09
1.70955e-13
-3.04769e-14
-5.01453e-10
5.01864e-10
-5.82667e-15
-1.1917e-10
1.19318e-10
2.99627e-12
-4.57534e-09
4.57803e-09
1.40298e-12
-2.46445e-09
2.46619e-09
5.359e-13
-1.21179e-09
1.21275e-09
1.2249e-13
-5.01419e-10
5.01894e-10
-1.19168e-10
1.19321e-10
4.20965e-12
4.78601e-09
1.97552e-12
2.57578e-09
7.74527e-13
1.26624e-09
1.9917e-13
5.24118e-10
1.24682e-10
-3.45066e-12
4.78444e-09
-1.68935e-12
2.57487e-09
-6.75146e-13
1.26574e-09
-1.67109e-13
5.23796e-10
1.24554e-10
3.74811e-12
4.78738e-09
1.7878e-12
2.57679e-09
6.98099e-13
1.26682e-09
1.72045e-13
5.24323e-10
1.24725e-10
2.63674e-12
-7.82373e-15
-4.57568e-09
4.57827e-09
1.22546e-12
2.20338e-15
-2.46453e-09
2.46611e-09
4.79139e-13
-1.31269e-16
-1.2118e-09
1.21265e-09
1.25378e-13
-1.21038e-15
-5.01443e-10
5.01844e-10
-1.27875e-15
-1.19181e-10
1.1932e-10
1.76134e-12
-2.53997e-09
2.54136e-09
8.37977e-13
-1.37054e-09
1.37143e-09
3.29945e-13
-6.73872e-10
6.74367e-10
8.52181e-14
-2.78509e-10
2.78752e-10
-6.60136e-11
6.60987e-11
-1.82633e-12
-1.13817e-13
-8.9091e-13
-4.65845e-14
-3.60138e-13
-2.02111e-14
-9.23168e-14
-8.4062e-15
-1.20174e-15
-3.00115e-12
1.49027e-13
-1.47979e-12
8.96258e-14
-6.04022e-13
5.21406e-14
-1.62836e-13
2.7728e-14
4.11352e-15
-2.967e-12
-1.46208e-12
-5.97495e-13
-1.5445e-13
2.62297e-12
-4.69865e-13
1.91322e-13
-4.57457e-09
4.5771e-09
1.26659e-12
-2.6799e-13
1.07393e-13
-2.464e-09
2.46546e-09
5.49347e-13
-1.53559e-13
4.61365e-14
-1.21157e-09
1.21231e-09
1.90932e-13
-7.77606e-14
1.12311e-14
-5.01395e-10
5.01725e-10
-1.59366e-14
5.90159e-15
-1.19135e-10
1.19267e-10
1.97834e-12
-2.53978e-09
2.54156e-09
9.20907e-13
-1.37035e-09
1.3714e-09
3.46302e-13
-6.73732e-10
6.74323e-10
7.02463e-14
-2.78436e-10
2.78737e-10
-6.60019e-11
6.60952e-11
-1.63779e-12
-3.44852e-13
-8.04228e-13
-1.77011e-13
-3.18607e-13
-9.33301e-14
-6.81855e-14
-4.88133e-14
-5.0752e-15
2.59044e-12
-6.53706e-14
-4.5751e-09
4.57747e-09
1.20234e-12
-2.69583e-16
-2.46405e-09
2.46563e-09
4.35652e-13
1.10141e-14
-1.2116e-09
1.2125e-09
7.26811e-14
1.30031e-14
-5.01384e-10
5.01844e-10
-1.82079e-15
-1.19156e-10
1.19297e-10
1.99108e-12
-2.53948e-09
2.54103e-09
9.57661e-13
-1.37022e-09
1.37116e-09
3.89518e-13
-6.73727e-10
6.7423e-10
1.13802e-13
-2.78464e-10
2.78697e-10
-6.59894e-11
6.60776e-11
-1.78286e-12
-3.66026e-14
-8.89291e-13
1.41514e-14
-3.73921e-13
2.43616e-14
-1.13676e-13
2.18334e-14
-5.1873e-16
-2.66803e-12
-1.25047e-13
-1.32531e-12
-4.60926e-14
-5.48523e-13
-2.76224e-15
-1.59244e-13
1.20916e-14
-1.44618e-15
-2.67185e-12
-1.33343e-12
-5.52322e-13
-1.41556e-13
-3.39557e-12
4.78371e-09
-1.65612e-12
2.57459e-09
-6.64636e-13
1.26553e-09
-1.7645e-13
5.23779e-10
1.2452e-10
3.67632e-12
4.78658e-09
1.74779e-12
2.57644e-09
6.82265e-13
1.26654e-09
1.73876e-13
5.24259e-10
1.24687e-10
3.67892e-12
4.78923e-09
1.75021e-12
2.57779e-09
6.81869e-13
1.2673e-09
1.71254e-13
5.24551e-10
1.24766e-10
3.64879e-12
4.78528e-09
1.73333e-12
2.57562e-09
6.75247e-13
1.26618e-09
1.73148e-13
5.24076e-10
1.24673e-10
-2.87714e-12
3.56033e-14
-1.40264e-12
1.35285e-14
-5.66522e-13
6.24276e-15
-1.48906e-13
3.06228e-15
8.1236e-16
-3.05035e-12
-1.499e-12
-6.08005e-13
-1.58543e-13
-3.41356e-12
4.77946e-09
-1.68217e-12
2.57224e-09
-6.83888e-13
1.26439e-09
-1.7878e-13
5.2329e-10
1.24428e-10
3.76758e-12
4.78222e-09
1.8226e-12
2.57403e-09
7.26642e-13
1.26539e-09
1.87485e-13
5.23786e-10
1.24602e-10
-3.37958e-12
4.78221e-09
-1.66676e-12
2.57373e-09
-6.76383e-13
1.26521e-09
-1.72993e-13
5.23622e-10
1.24497e-10
3.70912e-12
4.785e-09
1.78794e-12
2.57554e-09
7.1011e-13
1.26623e-09
1.83013e-13
5.24125e-10
1.24671e-10
2.65214e-11
1.13453e-11
7.29423e-09
-3.81983e-12
-1.92153e-12
-8.21278e-13
7.29e-09
-5.32384e-12
3.24553e-11
-1.48988e-10
3.7011e-11
1.90697e-10
2.68399e-08
-2.24745e-11
1.0127e-10
5.22318e-11
2.33173e-08
-7.63599e-12
2.67481e-12
-2.04487e-11
2.31229e-08
-4.66149e-11
-1.41239e-14
4.3257e-12
1.15714e-11
2.10031e-08
-9.66227e-12
-3.46038e-12
1.4531e-08
-4.0679e-12
1.39519e-13
1.03324e-11
-8.88269e-11
2.43961e-08
-2.98099e-10
-1.59835e-09
3.26248e-11
4.8387e-10
5.46557e-11
3.14861e-10
5.65415e-11
1.11671e-07
1.56824e-10
2.20208e-10
-1.42671e-11
-2.54407e-11
2.21467e-08
2.0214e-10
-3.87622e-09
6.07874e-10
1.26274e-10
9.35103e-11
7.01175e-10
1.15927e-07
-4.66783e-11
1.16021e-11
4.2306e-12
2.09995e-08
-9.86557e-12
8.83714e-13
-3.58542e-12
1.4531e-08
-4.0529e-12
-8.89091e-11
1.02464e-11
2.43925e-08
-7.79671e-10
-3.06783e-11
-1.85482e-09
4.87621e-10
6.58468e-11
3.82227e-11
3.02805e-10
4.28224e-10
4.46681e-12
2.5644e-10
1.13251e-07
-3.73124e-09
6.14855e-10
1.25638e-10
7.70484e-11
7.01376e-10
1.16747e-07
4.10949e-12
-1.46332e-11
-2.77173e-11
2.21371e-08
-2.72147e-11
-1.85687e-09
4.89096e-10
5.36445e-11
3.7255e-11
3.16662e-10
4.2436e-10
2.75835e-11
2.32905e-10
1.13246e-07
-7.73781e-10
9.85338e-12
7.72198e-12
-1.41908e-11
-2.52738e-11
2.21436e-08
7.3408e-13
-3.57845e-12
1.45293e-08
-4.08223e-12
-1.79659e-12
7.29113e-09
-5.38396e-12
3.90164e-11
2.68115e-08
7.68315e-11
-3.87481e-12
-4.1304e-11
-4.8807e-11
2.32585e-08
7.94171e-13
-5.33142e-12
4.43127e-11
1.60269e-11
2.34756e-08
1.0835e-12
7.43445e-09
-5.30541e-12
1.51392e-13
-1.71191e-11
3.84118e-11
-2.53258e-13
2.49355e-08
-5.01207e-10
-1.20073e-09
4.25746e-10
4.16216e-11
1.71104e-10
3.08893e-10
1.1551e-11
1.2648e-12
2.47381e-10
1.12628e-07
-1.90229e-10
-7.39094e-10
2.08924e-10
-9.88157e-11
-4.41583e-11
9.96069e-11
1.13553e-07
2.23552e-12
-5.91364e-12
-4.87518e-12
2.25156e-08
-1.6887e-11
3.84605e-11
-3.23341e-13
2.49388e-08
-4.64896e-10
-4.31102e-11
-1.18602e-09
3.0296e-10
2.47874e-11
1.57587e-12
2.33059e-10
4.30274e-10
1.86339e-11
1.94946e-10
1.12627e-07
-7.26587e-10
2.0364e-10
-9.92145e-11
-4.47914e-11
9.94349e-11
1.13144e-07
2.37599e-12
1.87894e-12
-6.0901e-12
-7.27449e-12
2.25156e-08
3.22236e-14
-3.93542e-13
-8.90335e-12
2.16264e-08
-1.21153e-12
1.48573e-08
-4.13134e-12
-4.01708e-13
-9.11646e-12
2.16305e-08
-9.9391e-13
-1.27371e-12
1.48608e-08
-4.09205e-12
2.68139e-08
4.60438e-11
3.06711e-11
2.25044e-12
2.3533e-12
-2.06961e-11
2.33032e-08
5.96239e-13
-5.38503e-13
-1.31523e-11
2.34332e-08
7.29062e-09
-5.25102e-12
7.43451e-09
-5.41035e-12
1.61459e-11
1.49096e-11
6.0419e-09
-3.92123e-12
-1.86314e-12
-3.05019e-13
6.0446e-09
-4.80497e-12
1.0602e-11
-1.28842e-11
1.65255e-08
5.79513e-11
1.40152e-08
-2.90331e-12
-8.29529e-11
1.92493e-10
2.42476e-08
1.13897e-10
6.4611e-11
2.08519e-08
-6.54546e-12
1.37799e-08
-3.80881e-12
2.28694e-11
-3.7989e-11
-3.36301e-11
2.34643e-08
-1.41163e-11
1.9895e-08
-1.06477e-08
-5.51733e-11
-2.1369e-12
4.88401e-12
1.06981e-08
2.11134e-12
8.5138e-12
2.00469e-08
6.10444e-12
-3.7937e-11
9.46318e-13
1.29406e-08
-9.10703e-14
-3.77339e-12
1.27894e-11
6.51638e-11
3.32736e-14
-1.95461e-10
2.11206e-08
9.31271e-13
-3.60292e-12
1.97475e-11
-1.71115e-10
2.01559e-08
-5.46479e-14
1.30016e-08
2.013e-12
-6.01105e-09
-2.76408e-11
6.03958e-09
3.99285e-12
-6.23763e-13
2.2154e-08
-2.39721e-11
-6.80148e-12
-7.38166e-11
1.05023e-11
1.45984e-08
2.69959e-12
-6.20113e-12
-1.24379e-10
2.22637e-08
-1.06453e-08
-2.09625e-12
-5.54433e-11
5.01453e-12
1.06957e-08
2.18266e-12
8.19421e-13
1.2939e-08
-3.7536e-12
8.75682e-12
2.00393e-08
6.20284e-12
-3.83142e-11
6.52733e-11
1.28749e-11
-1.95455e-10
2.11168e-08
1.03682e-12
-3.50562e-12
1.30002e-08
1.93158e-12
1.99142e-11
-1.7135e-10
2.01482e-08
-6.00953e-09
-2.7263e-11
6.03795e-09
3.85285e-12
-6.47829e-13
2.21464e-08
-2.39848e-11
-6.8611e-12
1.05066e-11
-7.37008e-11
1.45985e-08
2.62523e-12
-6.13035e-12
-1.2433e-10
2.22565e-08
-6.00798e-09
-2.76495e-11
-5.01306e-12
6.0365e-09
4.1472e-12
-6.80836e-13
2.21457e-08
-2.39482e-11
-6.18755e-12
-7.05231e-12
1.04801e-11