/*--------------------------------*- C++ -*----------------------------------*\
| =========                 |                                                 |
| \\      /  F ield         | OpenFOAM: The Open Source CFD Toolbox           |
|  \\    /   O peration     | Version:  2206                                  |
|   \\  /    A nd           | Website:  www.openfoam.com                      |
|    \\/     M anipulation  |                                                 |
\*---------------------------------------------------------------------------*/
FoamFile
{
    version     2.0;
    format      ascii;
    arch        "LSB;label=32;scalar=64";
    class       volVectorField;
    location    "60";
    object      U;
}
// * * * * * * * * * * * * * * * * * * * * * * * * * * * * * * * * * * * * * //

dimensions      [0 1 -1 0 0 0 0];

internalField   nonuniform List<vector> 
66621
(
(-1.58868e-05 -3.96453e-05 0.0783492)
(-6.03723e-05 -2.20707e-07 0.103123)
(-4.56995e-05 -7.36199e-06 0.0781234)
(5.40548e-05 -9.4328e-07 0.117593)
(4.12546e-05 -3.38779e-05 0.105664)
(2.19351e-06 -4.58861e-07 0.132378)
(-2.28761e-05 9.21911e-06 0.067054)
(-1.49235e-07 5.31177e-05 0.118033)
(2.92861e-06 -3.23579e-06 0.130439)
(-3.05748e-06 -2.54881e-06 0.13274)
(-3.67904e-05 3.89898e-05 0.106139)
(0.000198506 0.000202531 0.126544)
(2.10955e-05 2.54332e-05 0.092161)
(2.93516e-05 1.86225e-05 0.0924785)
(-1.74097e-05 -1.98732e-05 0.0671469)
(-2.35699e-05 -9.61143e-06 0.0670353)
(-0.000200015 -0.000204495 0.126493)
(-2.76805e-05 -1.29863e-05 0.0923579)
(-2.04155e-05 -2.585e-05 0.0921117)
(5.40707e-06 2.92854e-06 0.130575)
(-3.41625e-05 -3.29617e-05 0.105849)
(1.97989e-05 -2.51122e-05 0.092163)
(2.14687e-05 -8.80342e-06 0.0670683)
(-5.37624e-05 -7.45997e-07 0.117598)
(2.61079e-07 2.89759e-06 0.130297)
(-4.20164e-05 -3.36881e-05 0.105659)
(-2.17584e-06 -1.11732e-06 0.132388)
(-6.00461e-05 -3.80782e-08 0.103123)
(-4.52221e-05 7.21219e-06 0.0781428)
(-5.3981e-05 4.82445e-07 0.117593)
(2.7256e-06 -4.10613e-06 0.130269)
(-1.414e-06 1.07118e-06 0.132397)
(-4.1712e-05 3.27919e-05 0.105652)
(5.94189e-05 -7.50394e-09 0.103128)
(4.43626e-05 -7.00359e-06 0.0781527)
(5.45179e-05 1.49288e-07 0.117597)
(-2.17502e-06 -4.50504e-06 0.130275)
(1.62407e-06 1.22447e-06 0.132398)
(4.12882e-05 3.29334e-05 0.105663)
(5.97567e-05 -6.00551e-07 0.103126)
(4.50196e-05 7.02027e-06 0.0781284)
(-0.000198414 0.000202341 0.126538)
(-2.07077e-05 2.48913e-05 0.0921309)
(-2.98131e-05 1.85475e-05 0.0925074)
(-1.25844e-05 2.23768e-05 0.0672388)
(2.76439e-07 5.30487e-05 0.118034)
(-2.9823e-06 -3.80052e-06 0.130449)
(2.44019e-06 -2.61958e-06 0.132744)
(3.61557e-05 3.93796e-05 0.106135)
(1.49962e-07 6.04527e-05 0.103888)
(-1.06508e-05 4.50191e-05 0.0785563)
(1.78103e-07 6.02787e-05 0.103889)
(1.04066e-05 4.50072e-05 0.0785588)
(2.30221e-05 8.96622e-06 0.0670432)
(1.22701e-05 2.22979e-05 0.0672387)
(-4.98725e-06 -4.50752e-05 0.090516)
(-5.14518e-06 -2.77051e-05 0.0651366)
(2.23447e-05 -2.63045e-07 0.0715423)
(-5.93176e-05 -7.07194e-07 0.100065)
(-2.23546e-05 -2.64773e-07 0.0742374)
(6.15547e-05 -6.95986e-07 0.103143)
(6.09405e-05 1.47504e-06 0.100056)
(2.12057e-05 -7.4638e-07 0.0741819)
(-2.30724e-05 5.98514e-07 0.0716156)
(2.08379e-05 1.04626e-06 0.0649186)
(-5.03784e-05 -3.28198e-06 0.0901964)
(4.49732e-05 7.0437e-06 0.0780125)
(4.83071e-05 4.71398e-06 0.0901352)
(-2.48184e-05 1.26078e-06 0.0650158)
(2.03488e-05 -8.87535e-06 0.0669655)
(-2.37214e-05 -1.97906e-05 0.0839455)
(1.28693e-05 1.8247e-05 0.0657194)
(2.17587e-05 9.83543e-06 0.0657738)
(-1.22199e-05 -1.68946e-05 0.0656283)
(-2.00938e-05 -9.10582e-06 0.0656718)
(2.27307e-05 1.92923e-05 0.0840066)
(-7.48512e-05 -2.01584e-05 0.102265)
(2.25506e-05 1.89987e-05 0.077371)
(-2.08223e-05 -2.5253e-05 0.0921054)
(7.09985e-05 1.95506e-05 0.112767)
(-7.38765e-05 -1.94214e-05 0.112764)
(-2.23381e-05 -1.7208e-05 0.0772554)
(7.38749e-05 2.17325e-05 0.102337)
(-2.09069e-05 -7.07986e-05 0.102295)
(2.31509e-05 2.01903e-05 0.0774363)
(-3.00423e-05 -1.81455e-05 0.0923653)
(1.92769e-05 7.08598e-05 0.112916)
(-2.31087e-05 -7.05994e-05 0.112867)
(-2.07747e-05 -1.97283e-05 0.0772859)
(2.06147e-05 7.16791e-05 0.102388)
(1.95362e-05 9.16566e-06 0.0669471)
(2.19172e-05 1.77061e-05 0.083998)
(-2.14418e-05 -6.15784e-06 0.0657477)
(-9.43411e-06 -1.72715e-05 0.0656876)
(1.9219e-05 6.39181e-06 0.0656872)
(9.39054e-06 1.57475e-05 0.0656391)
(-1.88318e-05 -1.70737e-05 0.0839258)
(2.58089e-05 6.90536e-05 0.102442)
(-2.22757e-05 -1.49347e-05 0.0774868)
(-1.86019e-05 -6.52911e-05 0.112844)
(2.05916e-05 1.7815e-05 0.0774315)
(-2.1599e-05 -6.8322e-05 0.102367)
(7.34285e-05 1.80655e-05 0.102248)
(-2.01705e-05 -1.8735e-05 0.0772466)
(2.02211e-05 2.51458e-05 0.0920573)
(-6.94661e-05 -1.95017e-05 0.112706)
(2.04857e-05 1.63139e-05 0.0771482)
(-6.99579e-05 -1.96235e-05 0.102203)
(7.30088e-05 1.92572e-05 0.112721)
(8.80973e-06 -1.63394e-05 0.065721)
(1.81644e-05 -1.69329e-05 0.0839532)
(2.05701e-05 -1.84532e-05 0.0773774)
(7.08457e-05 -2.11514e-05 0.112732)
(7.27234e-05 -2.34861e-05 0.102298)
(2.15211e-05 -1.13726e-07 0.0715658)
(-2.22246e-05 -8.96148e-08 0.0742464)
(-5.98538e-05 1.08037e-06 0.100071)
(6.15394e-05 -2.67393e-07 0.103142)
(2.10279e-05 -1.70759e-07 0.0741903)
(5.93243e-05 -1.59076e-06 0.100062)
(-2.34192e-05 -3.70139e-07 0.0716382)
(2.08462e-05 -3.79629e-07 0.0649423)
(-4.97762e-05 4.07351e-06 0.0902087)
(4.46434e-05 -6.76581e-06 0.0780334)
(4.80604e-05 -4.21469e-06 0.0901464)
(-2.42832e-05 -3.02085e-07 0.0650373)
(5.81323e-05 -6.07121e-07 0.100076)
(2.0488e-05 6.29362e-08 0.0742522)
(2.19679e-05 7.76811e-07 0.0716382)
(4.947e-05 -3.9096e-06 0.0902185)
(2.37196e-05 3.80857e-07 0.0650415)
(2.05237e-05 -1.02664e-06 0.0742411)
(5.93313e-05 4.61544e-07 0.100069)
(2.2253e-05 -1.04402e-06 0.0716228)
(4.93556e-05 4.22397e-06 0.0901995)
(2.35464e-05 1.95665e-07 0.0650197)
(2.26202e-05 -2.10835e-05 0.0839513)
(-1.36674e-05 1.54752e-05 0.0657089)
(-2.40673e-05 9.08356e-06 0.0657899)
(1.1085e-05 -1.74044e-05 0.0656392)
(1.96132e-05 -1.03517e-05 0.0656698)
(-2.50199e-05 1.69695e-05 0.0840173)
(7.52433e-05 -1.92439e-05 0.102187)
(-2.22376e-05 1.75388e-05 0.0772487)
(2.14581e-05 -2.62411e-05 0.0920701)
(-7.09552e-05 1.74085e-05 0.112737)
(2.24115e-05 -1.8147e-05 0.0771658)
(7.52298e-05 -1.99474e-05 0.112724)
(-7.40854e-05 1.76065e-05 0.102277)
(2.19717e-05 -7.10214e-05 0.102374)
(-2.4055e-05 2.04269e-05 0.0775643)
(2.98691e-05 -1.7846e-05 0.0924002)
(-2.13898e-05 7.08669e-05 0.112938)
(2.23373e-05 -6.91445e-05 0.112898)
(1.99942e-05 -2.01004e-05 0.0773829)
(-2.41557e-05 7.11443e-05 0.102459)
(1.30734e-05 -1.75957e-05 0.0671074)
(2.83719e-07 -2.10122e-05 0.0719518)
(-9.00085e-07 5.88152e-05 0.100844)
(-1.42021e-07 2.0881e-05 0.0747514)
(-3.85062e-07 -6.0969e-05 0.103898)
(2.31749e-06 -6.05863e-05 0.100775)
(-4.64398e-07 -1.938e-05 0.0746759)
(4.95134e-08 2.21804e-05 0.0720744)
(2.18715e-06 -2.02011e-05 0.0651161)
(-6.46569e-06 5.03753e-05 0.0908707)
(1.06992e-05 -4.40426e-05 0.0783725)
(7.24419e-06 -4.77356e-05 0.0907108)
(-9.90563e-07 2.39465e-05 0.0652801)
(1.65542e-07 -2.0847e-05 0.0719527)
(1.42636e-06 5.89692e-05 0.100843)
(6.60503e-07 2.08294e-05 0.0747505)
(6.39224e-07 -6.13456e-05 0.103899)
(-1.87055e-06 -6.01752e-05 0.10078)
(5.43615e-07 -1.93919e-05 0.0746734)
(4.3011e-07 2.20656e-05 0.0720715)
(-1.79796e-06 -2.02016e-05 0.0651207)
(6.52531e-06 5.02815e-05 0.0908714)
(-1.03168e-05 -4.43212e-05 0.0783778)
(-6.75304e-06 -4.77235e-05 0.090718)
(1.21611e-06 2.36634e-05 0.0652803)
(-1.2562e-05 -1.84547e-05 0.0671055)
(-3.76213e-06 1.26703e-06 0.135189)
(-1.4752e-06 2.81054e-08 0.136935)
(-6.83372e-06 1.87048e-06 0.136572)
(-5.17459e-06 3.64868e-06 0.138315)
(3.43601e-06 1.81734e-06 0.135182)
(3.17994e-07 -1.42109e-07 0.136935)
(7.01477e-06 2.15697e-06 0.136569)
(4.46515e-06 4.17204e-06 0.138317)
(-3.91232e-06 9.16289e-07 0.135072)
(-5.35556e-06 -2.46894e-07 0.136557)
(-2.54711e-06 -2.08748e-06 0.136774)
(-3.43864e-06 2.80909e-07 0.138206)
(4.06945e-06 4.73845e-07 0.135075)
(5.54016e-06 -9.41479e-08 0.136555)
(2.48547e-06 -2.30348e-06 0.136772)
(3.53976e-06 8.92608e-07 0.138202)
(-0.000231761 6.35282e-07 0.12393)
(5.62391e-05 -2.54324e-06 0.116133)
(0.000224382 1.21875e-07 0.124727)
(-5.74965e-05 -7.50847e-07 0.117624)
(-5.87601e-05 2.48683e-06 0.116135)
(-0.000222839 -9.92098e-07 0.124697)
(0.000228759 -2.65074e-06 0.123997)
(5.16508e-05 -1.09752e-05 0.112542)
(0.000226325 -1.45272e-05 0.118798)
(0.000239875 -7.36879e-06 0.122285)
(-1.95994e-06 -0.000230225 0.124165)
(1.87004e-06 0.000221484 0.124963)
(-6.92028e-07 5.44974e-05 0.116624)
(-4.90685e-07 -5.63289e-05 0.118065)
(-2.01044e-06 -0.000221644 0.124946)
(3.6357e-06 -5.79457e-05 0.116578)
(3.43833e-06 0.000224392 0.124259)
(3.64491e-06 -0.000229549 0.122421)
(-1.15553e-05 5.14594e-05 0.113053)
(3.58459e-05 -4.13863e-05 0.105967)
(-1.16994e-05 0.000224651 0.119063)
(1.3031e-05 -0.000227318 0.118955)
(1.28703e-05 -5.14038e-05 0.112911)
(-2.29107e-06 0.000236495 0.122565)
(-6.77767e-05 -6.60637e-05 0.114725)
(-0.000190849 -0.000189949 0.126397)
(5.72696e-05 0.00019785 0.121589)
(0.000192194 5.77699e-05 0.121612)
(-5.94877e-05 -0.000196103 0.121499)
(-0.000193754 -5.60968e-05 0.121508)
(6.80742e-05 6.9224e-05 0.114837)
(7.11416e-05 6.48961e-05 0.114809)
(0.000195329 0.000190992 0.126445)
(-0.000196703 -5.6316e-05 0.121589)
(-5.42594e-05 -0.00019748 0.1215)
(-6.83946e-05 -6.81871e-05 0.114751)
(0.000203616 5.60935e-05 0.121612)
(5.82996e-05 0.000194528 0.121501)
(-1.20517e-05 -4.824e-05 0.112678)
(-1.24631e-05 -0.000220107 0.118865)
(-5.18771e-06 -0.000233569 0.12232)
(0.000232649 -1.00191e-07 0.123941)
(-5.57329e-05 -2.73971e-06 0.116141)
(-0.000224405 1.2567e-07 0.124733)
(5.76859e-05 -8.55013e-07 0.11763)
(5.99792e-05 2.09902e-06 0.116145)
(0.000223201 -1.20887e-06 0.124704)
(-0.000229737 -3.17424e-06 0.124008)
(0.000235438 3.22274e-06 0.122219)
(-5.28914e-05 -1.15713e-05 0.112549)
(4.36086e-05 3.09279e-05 0.105571)
(-0.000226719 -1.34442e-05 0.118807)
(5.35818e-05 9.20747e-06 0.112508)
(0.000232201 1.08895e-05 0.11876)
(-0.000240748 -7.46805e-06 0.122299)
(0.000227763 -8.02729e-07 0.12393)
(-0.000223553 -3.87524e-07 0.124728)
(-5.68191e-05 2.86842e-06 0.116131)
(5.77722e-05 -5.53902e-07 0.117626)
(0.000222123 6.94892e-07 0.124699)
(5.83914e-05 -2.59246e-06 0.116136)
(-0.000231493 2.26237e-06 0.123998)
(0.000234004 -4.05142e-06 0.122197)
(-5.25028e-05 1.19885e-05 0.112536)
(4.32374e-05 -3.07731e-05 0.105564)
(-0.000224097 1.23224e-05 0.118793)
(5.40829e-05 -9.00794e-06 0.112495)
(-0.000236765 6.35246e-06 0.122277)
(0.000230919 -1.14591e-05 0.118745)
(-0.000227731 -8.82783e-07 0.123935)
(0.000223899 -3.79277e-07 0.124729)
(5.73577e-05 2.24663e-06 0.116138)
(-5.70541e-05 -4.39262e-07 0.117628)
(-0.000221936 9.46742e-07 0.124698)
(-5.80518e-05 -2.85028e-06 0.116141)
(0.00023187 2.11905e-06 0.124004)
(-0.000234729 -4.48505e-06 0.122204)
(5.23438e-05 1.14129e-05 0.112546)
(-4.35572e-05 -3.11738e-05 0.105578)
(0.000224746 1.30119e-05 0.118807)
(-0.00023125 -1.16426e-05 0.118759)
(-5.41634e-05 -9.4049e-06 0.112505)
(0.000237349 6.37218e-06 0.122286)
(6.8075e-05 -6.58718e-05 0.114722)
(0.000190941 -0.000189291 0.126391)
(-5.68125e-05 0.000195428 0.121585)
(-0.000194514 5.85143e-05 0.121608)
(0.000194051 -5.55077e-05 0.121505)
(5.99276e-05 -0.000195268 0.12149)
(-6.91709e-05 6.81038e-05 0.114839)
(1.82885e-06 -0.0002303 0.124169)
(-2.0125e-06 0.000221613 0.124965)
(9.63309e-07 5.4784e-05 0.116624)
(8.02254e-07 -5.63182e-05 0.118068)
(2.01316e-06 -0.000221565 0.124948)
(-3.43244e-06 -5.79896e-05 0.116582)
(-3.7841e-06 0.000225 0.12426)
(-3.874e-06 -0.000229937 0.122425)
(1.14066e-05 5.12214e-05 0.113052)
(-3.57456e-05 -4.1623e-05 0.105963)
(1.03697e-05 0.000223747 0.119064)
(-1.3136e-05 -0.000227244 0.118955)
(-1.27717e-05 -5.15558e-05 0.112914)
(1.50389e-06 0.000236265 0.122566)
(-8.91345e-06 -1.55135e-05 0.0460643)
(-5.39918e-06 -6.49468e-06 0.0312193)
(-3.03869e-06 -2.1039e-06 0.0194464)
(-1.43615e-06 -1.95484e-07 0.0102478)
(-4.68303e-07 -2.03845e-08 0.00311175)
(-1.57753e-05 -3.31201e-06 0.0460415)
(-7.60517e-06 -1.72773e-06 0.031204)
(-3.34208e-06 -8.34417e-07 0.0194358)
(-1.32743e-06 -3.74344e-07 0.0102412)
(-1.35115e-07 -9.85903e-08 0.00310949)
(-1.11228e-05 5.14408e-06 0.0476077)
(-5.28509e-06 2.55411e-06 0.0324951)
(-2.15976e-06 1.22316e-06 0.0203834)
(-6.587e-07 5.31374e-07 0.0108136)
(-7.92805e-08 1.22024e-07 0.00330781)
(-1.11906e-05 -9.88293e-06 0.0476061)
(-6.52321e-06 -4.01019e-06 0.0324942)
(-3.57147e-06 -1.21174e-06 0.0203833)
(-1.73927e-06 -2.38682e-07 0.0108144)
(-4.68599e-07 8.18409e-08 0.00330839)
(-1.16284e-05 -5.14103e-06 0.0475938)
(-5.54629e-06 -2.38407e-06 0.0324859)
(-2.2605e-06 -9.59206e-07 0.0203777)
(-5.12054e-07 -1.99532e-07 0.0108103)
(-1.55823e-07 -8.03419e-08 0.00330682)
(1.07508e-05 -4.31947e-06 0.0476181)
(5.25714e-06 -1.8301e-06 0.0325021)
(2.21242e-06 -7.32397e-07 0.0203878)
(6.77838e-07 -2.46512e-07 0.0108161)
(1.11956e-07 -6.28527e-08 0.00330872)
(-1.53633e-05 3.59489e-06 0.0460595)
(-7.29015e-06 2.04575e-06 0.031217)
(-3.04161e-06 1.08567e-06 0.0194443)
(-9.03839e-07 4.85325e-07 0.0102457)
(-1.58135e-07 1.49878e-07 0.00311068)
(1.50995e-05 -3.4558e-06 0.0460632)
(7.22629e-06 -1.9586e-06 0.0312189)
(3.05622e-06 -1.0421e-06 0.0194454)
(9.77113e-07 -4.65309e-07 0.0102466)
(1.33787e-07 -1.67963e-07 0.00311111)
(1.47173e-05 3.52362e-06 0.0460472)
(6.97586e-06 2.03222e-06 0.0312084)
(2.86739e-06 1.08337e-06 0.0194394)
(7.46243e-07 4.76331e-07 0.0102437)
(1.79284e-07 1.50442e-07 0.00311041)
(-7.83647e-06 1.04063e-05 0.0475947)
(-4.37862e-06 4.65134e-06 0.0324866)
(-2.2217e-06 1.76053e-06 0.0203785)
(-9.59662e-07 4.61411e-07 0.0108112)
(-2.28436e-07 3.89048e-08 0.00330728)
(-6.3181e-06 1.44271e-05 0.046038)
(-4.119e-06 6.63597e-06 0.031203)
(-2.45912e-06 2.61654e-06 0.019436)
(-1.23493e-06 6.60845e-07 0.0102418)
(-4.0533e-07 9.14105e-08 0.00310976)
(6.15937e-06 1.44676e-05 0.0460409)
(3.99352e-06 6.67676e-06 0.0312045)
(2.3593e-06 2.6835e-06 0.0194368)
(1.19124e-06 8.30144e-07 0.010242)
(3.78951e-07 6.15717e-08 0.00310967)
(1.12505e-05 4.77564e-06 0.047599)
(5.51723e-06 2.15652e-06 0.0324887)
(2.42839e-06 8.18931e-07 0.0203795)
(9.11194e-07 2.48393e-07 0.0108116)
(1.4581e-07 -4.45222e-10 0.00330718)
(7.78072e-06 1.03639e-05 0.0475948)
(4.42379e-06 4.58338e-06 0.0324865)
(2.32372e-06 1.64264e-06 0.0203782)
(1.01491e-06 2.97148e-07 0.0108107)
(3.02675e-07 2.47135e-08 0.00330692)
(1.17291e-05 -1.44811e-06 0.046122)
(6.2437e-06 -1.51627e-06 0.0313709)
(2.94059e-06 -1.28062e-06 0.0196041)
(1.21033e-06 -8.43329e-07 0.0103609)
(2.05369e-07 -3.10568e-07 0.00315595)
(-1.2711e-05 2.14408e-07 0.0465166)
(-6.05287e-06 3.9908e-07 0.0316834)
(-2.4984e-06 4.01851e-07 0.0198319)
(-7.1295e-07 3.05135e-07 0.0104995)
(-1.73562e-07 9.2557e-08 0.00320465)
(1.01445e-05 -1.11582e-06 0.0464641)
(5.11307e-06 -1.04375e-06 0.0316482)
(2.29462e-06 -8.29122e-07 0.0198114)
(7.67749e-07 -5.2775e-07 0.0104895)
(1.97057e-07 -1.86697e-07 0.00320187)
(-1.26294e-05 1.94025e-06 0.0461821)
(-6.32694e-06 2.10405e-06 0.031409)
(-2.84636e-06 1.7297e-06 0.0196255)
(-1.05642e-06 1.10242e-06 0.0103712)
(-2.15185e-07 4.11502e-07 0.00315873)
(1.29227e-05 3.54414e-06 0.0459539)
(6.32386e-06 2.39003e-06 0.0311471)
(2.81901e-06 1.4418e-06 0.0194033)
(1.11119e-06 7.57287e-07 0.0102254)
(1.04355e-07 2.28575e-07 0.00310508)
(9.66912e-06 -4.72628e-06 0.0475377)
(4.89289e-06 -2.30803e-06 0.0324501)
(2.20754e-06 -9.73802e-07 0.0203577)
(8.01367e-07 -3.11998e-07 0.0108011)
(1.5327e-07 -5.05635e-08 0.00330427)
(1.30954e-05 8.31679e-06 0.0462385)
(6.44241e-06 3.61758e-06 0.0313383)
(2.71746e-06 1.23319e-06 0.0195223)
(8.2216e-07 1.65792e-07 0.0102887)
(2.19377e-07 1.76051e-08 0.00312473)
(-1.15585e-05 -7.17088e-06 0.0461519)
(-5.95457e-06 -3.14114e-06 0.0312814)
(-2.74779e-06 -1.03031e-06 0.0194893)
(-9.70987e-07 -7.13852e-08 0.0102725)
(-2.82533e-07 3.61831e-08 0.00312008)
(1.17436e-05 1.11795e-05 0.0462319)
(6.32981e-06 4.98648e-06 0.0313341)
(3.14022e-06 1.78659e-06 0.0195198)
(1.36599e-06 4.73832e-07 0.0102875)
(3.36379e-07 -5.0365e-09 0.00312436)
(-9.65065e-06 -9.74812e-06 0.0461268)
(-4.96916e-06 -4.76937e-06 0.0312659)
(-2.25053e-06 -2.0846e-06 0.01948)
(-8.57797e-07 -8.04153e-07 0.0102678)
(-1.47092e-07 -1.38009e-07 0.0031187)
(9.12443e-06 4.87776e-06 0.0475222)
(4.56305e-06 2.50328e-06 0.0324383)
(1.97539e-06 1.16307e-06 0.0203496)
(5.31489e-07 3.97011e-07 0.0107964)
(1.63223e-07 1.1225e-07 0.00330276)
(4.78239e-06 -7.97311e-06 0.0474919)
(2.35863e-06 -3.60468e-06 0.0323808)
(1.04419e-06 -1.38046e-06 0.0202874)
(3.93521e-07 -3.77668e-07 0.0107498)
(1.19099e-07 -5.12438e-08 0.00328407)
(1.10148e-05 -6.76135e-06 0.0462582)
(5.42338e-06 -2.79475e-06 0.0313505)
(2.32994e-06 -1.03465e-06 0.0195299)
(7.89773e-07 -3.1305e-07 0.010293)
(1.62139e-07 -4.66053e-08 0.0031261)
(1.1253e-05 1.00729e-06 0.0461383)
(5.94253e-06 1.15593e-06 0.031381)
(2.72356e-06 1.04298e-06 0.0196099)
(9.09046e-07 7.50042e-07 0.010364)
(2.48405e-07 2.49166e-07 0.00315681)
(-1.25435e-05 -4.6872e-07 0.0465219)
(-5.96579e-06 -5.57653e-07 0.0316863)
(-2.5006e-06 -4.57904e-07 0.0198332)
(-8.94329e-07 -2.72987e-07 0.0105001)
(-1.2626e-07 -1.21387e-07 0.00320477)
(1.01104e-05 2.31948e-07 0.0464706)
(5.045e-06 3.21914e-07 0.0316529)
(2.25341e-06 3.21727e-07 0.0198145)
(8.008e-07 2.46123e-07 0.0104912)
(1.67482e-07 8.87968e-08 0.00320236)
(-1.28457e-05 -1.78591e-06 0.0461988)
(-6.40617e-06 -1.95223e-06 0.0314201)
(-2.84342e-06 -1.59903e-06 0.0196325)
(-9.68746e-07 -1.02698e-06 0.010375)
(-2.26089e-07 -3.75601e-07 0.00315985)
(1.29885e-05 -3.03028e-06 0.0459731)
(6.38097e-06 -1.86305e-06 0.0311597)
(2.81267e-06 -1.00084e-06 0.0194108)
(8.96312e-07 -3.97272e-07 0.0102292)
(1.74421e-07 -1.58245e-07 0.00310598)
(1.13665e-05 4.58829e-07 0.0465265)
(5.43134e-06 6.21628e-07 0.0316888)
(2.28003e-06 5.68314e-07 0.0198349)
(7.31472e-07 3.86141e-07 0.010501)
(1.66347e-07 1.4648e-07 0.00320478)
(1.26083e-05 1.99325e-06 0.0461977)
(6.32931e-06 2.20919e-06 0.0314196)
(2.82393e-06 1.86463e-06 0.0196322)
(1.03849e-06 1.21655e-06 0.0103745)
(2.13146e-07 4.41576e-07 0.00315951)
(1.15116e-05 -1.11146e-06 0.0465196)
(5.52123e-06 -1.06342e-06 0.0316842)
(2.33961e-06 -8.49208e-07 0.0198317)
(8.18922e-07 -5.49967e-07 0.0104991)
(1.36555e-07 -1.74163e-07 0.00320426)
(1.28162e-05 -2.21747e-06 0.0461881)
(6.43389e-06 -2.32262e-06 0.0314134)
(2.85336e-06 -1.88679e-06 0.0196282)
(9.58067e-07 -1.19893e-06 0.0103724)
(2.50197e-07 -4.42123e-07 0.00315901)
(-1.47962e-05 5.40593e-06 0.0474991)
(-8.53711e-06 1.48298e-06 0.0323823)
(-4.78488e-06 -3.67861e-07 0.0202872)
(-2.3545e-06 -8.06993e-07 0.0107496)
(-6.99702e-07 -3.83843e-07 0.00328397)
(-1.31842e-05 1.29726e-05 0.0462464)
(-6.96297e-06 5.81566e-06 0.0313418)
(-3.2822e-06 2.04989e-06 0.0195244)
(-1.30218e-06 4.5972e-07 0.0102903)
(-2.99512e-07 3.45467e-08 0.00312548)
(9.59272e-06 -1.02904e-05 0.0461304)
(4.86734e-06 -5.02932e-06 0.0312683)
(2.15934e-06 -2.17439e-06 0.0194819)
(7.43785e-07 -7.32335e-07 0.0102693)
(1.42101e-07 -1.70838e-07 0.00311943)
(7.97891e-06 -7.42481e-06 0.0474958)
(4.66914e-06 -3.32352e-06 0.032422)
(2.52445e-06 -1.24507e-06 0.0203405)
(1.16446e-06 -2.899e-07 0.0107922)
(3.17667e-07 -2.02149e-08 0.00330171)
(-9.07829e-07 -1.08269e-05 0.0460897)
(-1.25979e-06 -5.77735e-06 0.0313483)
(-1.27566e-06 -2.72044e-06 0.0195896)
(-9.72417e-07 -9.5172e-07 0.0103531)
(-3.39559e-07 -2.89294e-07 0.00315336)
(1.07546e-07 1.09837e-05 0.0465121)
(2.738e-07 5.2757e-06 0.0316826)
(2.96959e-07 2.21933e-06 0.0198317)
(2.13101e-07 7.97451e-07 0.0104993)
(9.19666e-08 1.25466e-07 0.00320454)
(-7.90631e-07 -8.60422e-06 0.0464391)
(-8.4771e-07 -4.26472e-06 0.0316311)
(-7.74092e-07 -1.93954e-06 0.0198006)
(-5.6529e-07 -7.38245e-07 0.0104836)
(-1.84614e-07 -1.63344e-07 0.00319989)
(1.04836e-06 1.15134e-05 0.0461831)
(1.40028e-06 5.8212e-06 0.0314114)
(1.32818e-06 2.6344e-06 0.0196276)
(9.44541e-07 9.33898e-07 0.0103724)
(3.61158e-07 2.43134e-07 0.00315909)
(6.15145e-06 -1.21356e-05 0.0459124)
(4.21194e-06 -5.64969e-06 0.0311198)
(2.58529e-06 -2.29045e-06 0.0193865)
(1.30675e-06 -5.8128e-07 0.0102168)
(4.22584e-07 -9.21788e-08 0.00310246)
(1.35274e-06 -1.05107e-05 0.0460898)
(1.63532e-06 -5.52392e-06 0.031349)
(1.51709e-06 -2.59429e-06 0.0195906)
(1.0532e-06 -1.06301e-06 0.0103537)
(4.07852e-07 -2.12733e-07 0.00315352)
(3.47147e-07 1.09881e-05 0.0465114)
(1.00695e-07 5.29094e-06 0.0316824)
(-4.2842e-08 2.2184e-06 0.0198323)
(-9.49005e-08 7.06007e-07 0.0104999)
(-2.60032e-08 1.71358e-07 0.00320465)
(7.53067e-07 -8.68407e-06 0.0464371)
(7.85342e-07 -4.32696e-06 0.0316294)
(6.83246e-07 -1.96248e-06 0.0197997)
(4.51411e-07 -6.91184e-07 0.0104833)
(1.96185e-07 -1.78234e-07 0.00319971)
(-6.96409e-07 1.13724e-05 0.0461809)
(-1.16262e-06 5.6814e-06 0.0314098)
(-1.18148e-06 2.54766e-06 0.0196268)
(-8.53394e-07 9.33153e-07 0.010372)
(-3.47294e-07 2.19966e-07 0.00315884)
(-5.71189e-06 -1.22089e-05 0.0459168)
(-3.8415e-06 -5.76224e-06 0.031123)
(-2.30127e-06 -2.43003e-06 0.0193889)
(-1.15977e-06 -7.99507e-07 0.010218)
(-3.60622e-07 -7.9966e-08 0.00310269)
(-7.56451e-06 -7.80201e-06 0.0474947)
(-4.39958e-06 -3.53721e-06 0.0324207)
(-2.38419e-06 -1.35266e-06 0.0203392)
(-1.09664e-06 -3.08475e-07 0.0107911)
(-3.12329e-07 -3.80975e-08 0.00330114)
(7.71723e-06 9.85242e-06 0.0474878)
(3.69075e-06 5.03016e-06 0.0323761)
(1.41234e-06 2.4341e-06 0.0202836)
(3.98573e-07 1.07654e-06 0.0107475)
(-1.03027e-08 2.48035e-07 0.00328314)
(1.28865e-05 5.08977e-06 0.0474925)
(7.32373e-06 1.57249e-06 0.032379)
(3.94607e-06 -1.15359e-07 0.0202855)
(1.81476e-06 -5.98027e-07 0.0107483)
(5.52309e-07 -2.64115e-07 0.00328341)
(-4.28664e-06 -1.70553e-05 0.0476051)
(-2.54531e-06 -7.87062e-06 0.032498)
(-1.28163e-06 -3.16256e-06 0.0203874)
(-5.25295e-07 -1.04241e-06 0.0108165)
(-1.31856e-07 -1.62765e-07 0.00330883)
(1.35881e-05 -1.93275e-07 0.0474963)
(7.209e-06 -7.01532e-07 0.0324255)
(3.29082e-06 -8.01505e-07 0.0203431)
(1.13259e-06 -6.0814e-07 0.0107935)
(2.85041e-07 -2.48014e-07 0.00330199)
(-1.57457e-05 2.26223e-06 0.0475774)
(-8.18688e-06 2.50967e-06 0.0324784)
(-3.78252e-06 2.1438e-06 0.0203741)
(-1.39807e-06 1.39686e-06 0.0108088)
(-3.27166e-07 5.23212e-07 0.00330641)
(-7.39575e-06 7.62149e-06 0.0474851)
(-3.77402e-06 3.60714e-06 0.0323748)
(-1.66801e-06 1.45653e-06 0.0202831)
(-6.09066e-07 4.49994e-07 0.0107474)
(-1.14604e-07 7.52047e-08 0.00328319)
(-1.09557e-05 6.69045e-06 0.0462293)
(-5.3715e-06 2.99284e-06 0.0313343)
(-2.29916e-06 1.20075e-06 0.0195207)
(-7.6444e-07 3.6978e-07 0.0102884)
(-1.55574e-07 7.58039e-08 0.00312473)
(1.09544e-05 -7.41447e-06 0.0461559)
(5.60927e-06 -3.4157e-06 0.031284)
(2.55211e-06 -1.25713e-06 0.0194912)
(9.3237e-07 -2.65969e-07 0.0102739)
(2.42136e-07 -1.53048e-09 0.00312059)
(-7.43213e-06 -9.55262e-06 0.0474165)
(-3.7538e-06 -5.083e-06 0.0323304)
(-1.52489e-06 -2.46246e-06 0.0202575)
(-4.21844e-07 -1.02842e-06 0.0107348)
(-4.38755e-08 -2.25938e-07 0.0032796)
(-1.21095e-05 -4.9939e-06 0.0474136)
(-6.89186e-06 -2.04761e-06 0.0323278)
(-3.5865e-06 -4.49351e-07 0.0202557)
(-1.57402e-06 1.70028e-07 0.0107337)
(-4.32475e-07 1.28801e-07 0.00327922)
(-1.26007e-05 -3.47038e-06 0.0474732)
(-7.29986e-06 -7.98943e-07 0.0323675)
(-4.09676e-06 3.8576e-07 0.0202786)
(-2.17752e-06 4.2208e-07 0.0107447)
(-5.50165e-07 3.13219e-07 0.00328216)
(-1.24155e-05 -9.87915e-06 0.0462312)
(-6.95842e-06 -3.92712e-06 0.0313353)
(-3.56315e-06 -9.47248e-07 0.0195215)
(-1.49668e-06 2.04478e-07 0.010289)
(-4.75085e-07 8.38339e-08 0.00312507)
(8.90946e-06 8.38482e-06 0.0461438)
(4.3097e-06 4.02195e-06 0.0312733)
(1.73789e-06 1.80389e-06 0.0194836)
(3.57247e-07 5.14496e-07 0.0102697)
(9.20682e-08 2.24771e-07 0.00311933)
(-6.45963e-06 -8.77142e-06 0.0474744)
(-3.17841e-06 -4.19817e-06 0.032369)
(-1.15577e-06 -1.87125e-06 0.0202803)
(-7.26966e-08 -5.69853e-07 0.0107459)
(-3.13286e-08 -2.42468e-07 0.00328269)
(-1.25489e-05 -8.25512e-06 0.046221)
(-6.17967e-06 -3.63033e-06 0.031327)
(-2.6872e-06 -1.38839e-06 0.0195157)
(-1.06885e-06 -4.63924e-07 0.0102853)
(-1.55604e-07 -3.52528e-08 0.00312364)
(1.1046e-05 6.61208e-06 0.0461403)
(5.83709e-06 2.91035e-06 0.0312748)
(2.76151e-06 1.02962e-06 0.019486)
(1.19367e-06 2.95274e-07 0.0102709)
(2.25427e-07 -4.38191e-08 0.00311965)
(1.15973e-05 3.86098e-06 0.0474152)
(6.56681e-06 1.59697e-06 0.0323277)
(3.4249e-06 3.37123e-07 0.0202554)
(1.60712e-06 -8.23171e-08 0.0107333)
(3.70501e-07 -1.30115e-07 0.00327902)
(6.11495e-06 8.82906e-06 0.0474196)
(3.0987e-06 4.78035e-06 0.0323293)
(1.17035e-06 2.40091e-06 0.0202561)
(1.88512e-07 9.79969e-07 0.0107338)
(1.38586e-09 3.02577e-07 0.00327916)
(1.3596e-05 7.71563e-07 0.0475164)
(7.2243e-06 1.15913e-06 0.0324396)
(3.34432e-06 1.14618e-06 0.0203522)
(1.27434e-06 8.24277e-07 0.0107982)
(2.63878e-07 3.00217e-07 0.00330324)
(-1.53011e-05 -1.5022e-06 0.0475946)
(-7.8761e-06 -1.91958e-06 0.0324897)
(-3.60213e-06 -1.70956e-06 0.020381)
(-1.35423e-06 -1.11962e-06 0.0108124)
(-2.84593e-07 -4.45127e-07 0.00330725)
(1.52745e-05 1.47929e-06 0.0475966)
(7.88901e-06 1.86725e-06 0.0324917)
(3.59634e-06 1.69813e-06 0.0203825)
(1.33356e-06 1.16418e-06 0.0108131)
(2.8622e-07 4.17372e-07 0.00330761)
(1.50519e-05 -9.9837e-07 0.0475806)
(7.74244e-06 -1.5422e-06 0.0324807)
(3.5181e-06 -1.48548e-06 0.0203755)
(1.32936e-06 -1.02173e-06 0.0108097)
(2.65117e-07 -4.05152e-07 0.00330668)
(6.30089e-06 -1.02038e-05 0.0474256)
(2.90954e-06 -5.60445e-06 0.0323348)
(9.94658e-07 -2.79709e-06 0.0202598)
(1.47678e-07 -1.18463e-06 0.010736)
(-2.7104e-08 -2.93962e-07 0.00328002)
(1.13512e-05 -6.13846e-06 0.0474111)
(6.22131e-06 -2.85933e-06 0.0323267)
(3.13481e-06 -9.46276e-07 0.0202553)
(1.34255e-06 -7.76738e-08 0.0107339)
(3.59781e-07 5.42924e-08 0.00327953)
(9.69641e-07 -1.32432e-05 0.0474499)
(6.8776e-09 -7.00414e-06 0.0323949)
(-4.83529e-07 -3.22328e-06 0.0203247)
(-5.12402e-07 -1.19624e-06 0.010784)
(-2.29829e-07 -2.61196e-07 0.0032991)
(-4.48878e-07 1.50871e-05 0.0475772)
(3.342e-07 7.72505e-06 0.032478)
(7.1763e-07 3.48979e-06 0.020374)
(6.44344e-07 1.28235e-06 0.010809)
(2.77868e-07 2.67382e-07 0.00330652)
(-6.25456e-07 -1.31669e-05 0.0474531)
(2.55889e-07 -6.99983e-06 0.0323971)
(6.63623e-07 -3.23649e-06 0.020326)
(6.25288e-07 -1.17249e-06 0.0107845)
(2.53717e-07 -2.88402e-07 0.00329915)
(4.50959e-07 1.48839e-05 0.0475785)
(-3.61019e-07 7.59625e-06 0.0324798)
(-7.34125e-07 3.42292e-06 0.0203755)
(-6.42859e-07 1.23995e-06 0.0108097)
(-2.86399e-07 2.78096e-07 0.00330663)
(9.51247e-06 1.4817e-05 0.066991)
(2.07003e-05 8.42341e-06 0.0669467)
(0.000195958 0.000197182 0.126425)
(3.36366e-05 1.86715e-05 0.0922044)
(1.82195e-05 2.39305e-05 0.0920213)
(5.95021e-05 -6.44594e-07 0.103096)
(4.35071e-05 6.19094e-06 0.0779848)
(5.5866e-05 -7.95252e-07 0.117588)
(1.00935e-06 -1.60349e-06 0.130664)
(4.15861e-05 2.94469e-05 0.105525)
(-1.18065e-07 -1.90402e-06 0.132901)
(5.91556e-05 6.23866e-08 0.103094)
(4.3248e-05 -5.8371e-06 0.0780075)
(5.56791e-05 -2.23713e-07 0.117584)
(1.0873e-06 -1.39012e-06 0.130696)
(-4.3725e-07 9.54293e-07 0.132915)
(4.17989e-05 -2.91225e-05 0.105518)
(-6.35112e-07 -8.04925e-07 0.130702)
(-4.2308e-05 -3.02258e-05 0.10553)
(-4.31124e-05 -6.36747e-06 0.0779966)
(2.14351e-05 -8.03431e-06 0.0669642)
(0.000194986 -0.000195484 0.126343)
(1.99565e-05 -2.20412e-05 0.0920328)
(3.26551e-05 -1.50246e-05 0.0923777)
(1.33448e-05 -1.78971e-05 0.0671094)
(-2.97501e-07 -5.58159e-05 0.118063)
(3.27137e-06 1.26948e-08 0.130729)
(-8.1792e-07 -7.51459e-07 0.132833)
(3.6302e-05 -4.01802e-05 0.105934)
(4.04248e-07 -5.59886e-05 0.118065)
(-3.72363e-06 -9.59483e-07 0.130735)
(8.73419e-07 -8.95187e-07 0.132836)
(-3.54615e-05 -4.00909e-05 0.105932)
(-3.23932e-07 -6.02519e-05 0.10389)
(1.06111e-05 -4.33094e-05 0.0783539)
(3.83405e-07 -6.04086e-05 0.103891)
(-1.02887e-05 -4.37564e-05 0.0783588)
(-0.000194791 -0.000196331 0.12635)
(-1.84067e-05 -2.41751e-05 0.0920712)
(-3.02146e-05 -1.64131e-05 0.0923379)
(-2.02016e-05 -9.02705e-06 0.0669567)
(-1.26553e-05 -1.89714e-05 0.0671063)
(1.63256e-05 7.04381e-06 0.0656822)
(1.06104e-05 1.54429e-05 0.0656383)
(2.16789e-05 1.71386e-05 0.0839891)
(1.78726e-05 1.87883e-05 0.0773333)
(2.86163e-05 7.10854e-05 0.112788)
(2.59612e-05 7.04896e-05 0.102368)
(2.00506e-05 1.52385e-05 0.0771236)
(7.30594e-05 1.73981e-05 0.112675)
(7.37947e-05 1.53536e-05 0.102218)
(-1.40459e-05 4.24549e-06 0.0716412)
(5.8536e-05 5.36151e-07 0.100009)
(1.90699e-05 -1.14671e-06 0.0741602)
(-5.69652e-05 5.21152e-07 0.103167)
(2.03671e-05 -6.03626e-07 0.0715298)
(-5.44073e-05 8.04216e-07 0.100112)
(-1.35444e-05 9.66377e-07 0.0742638)
(-1.45939e-05 3.22407e-06 0.0650126)
(4.63576e-05 4.0887e-06 0.0900991)
(-3.83389e-05 -1.524e-06 0.0781507)
(2.21462e-05 7.97988e-07 0.0649244)
(-4.39373e-05 -3.09355e-06 0.0902316)
(-1.42846e-05 -3.86057e-06 0.0716623)
(1.90399e-05 1.07464e-07 0.0741686)
(5.69838e-05 -6.67295e-07 0.100014)
(-5.68707e-05 -3.19531e-07 0.103167)
(1.97148e-05 5.90583e-07 0.0715522)
(-1.30221e-05 -1.60506e-06 0.074272)
(-5.52802e-05 -3.81766e-07 0.100117)
(-1.37414e-05 -2.0864e-06 0.0650343)
(4.63009e-05 -3.49977e-06 0.0901117)
(-3.78425e-05 1.50655e-06 0.0781705)
(2.20216e-05 4.85418e-08 0.0649481)
(-4.30552e-05 3.83716e-06 0.0902434)
(1.50939e-05 -2.18608e-06 0.0650166)
(-4.65111e-05 -3.20048e-06 0.0901066)
(3.74523e-05 2.2533e-06 0.0781578)
(-2.22639e-05 2.97362e-07 0.0649286)
(4.31533e-05 4.09809e-06 0.090234)
(-1.46101e-05 3.46001e-06 0.0670525)
(-2.0657e-05 1.61282e-05 0.0840546)
(1.13245e-05 -1.9693e-05 0.0656605)
(1.64818e-05 -1.11687e-05 0.0656609)
(2.16172e-05 -1.9596e-05 0.0839316)
(-9.06529e-06 1.1929e-05 0.0657121)
(-1.56488e-05 4.21371e-06 0.0657767)
(-6.90275e-05 1.29616e-05 0.102303)
(2.23272e-05 -1.898e-05 0.0771769)
(7.36799e-05 -1.60356e-05 0.112675)
(-1.69852e-05 2.21692e-05 0.0921571)
(-6.8852e-05 1.54986e-05 0.112765)
(7.46339e-05 -1.98164e-05 0.102138)
(-1.81215e-05 1.01982e-05 0.0773015)
(-2.42336e-05 7.32232e-05 0.102521)
(1.77326e-05 -1.802e-05 0.0773359)
(2.50143e-05 -6.99688e-05 0.11287)
(-2.87561e-05 1.43115e-05 0.0925369)
(1.75355e-05 -7.0276e-05 0.102358)
(-1.82905e-05 1.6909e-05 0.0775568)